Cm    ONCVPSP-4.0.1  r_core=   1.15013   1.20650   1.10296   1.15013
96.0000     36.0000      231012    zatom,zion,pspd
8 -116133   3     4   600     0    pspcod,pspxc,lmax,lloc,mmax,r2well
5.99000000  5.00000000  0.00000000    rchrg fchrg qchrg
3     3     3     2    nproj
3     1           extension_switch
4     4     3    nprojso
0                         3.1864795040748E+01  3.5279476158858E+00 -3.8208985238838E-01
1  0.0000000000000E+00 -3.6635609879099E-08  1.2605503280083E-07  1.2379192854128E-07
2  1.0000000000000E-02  1.5210651890133E-01 -6.2366901539258E-02  1.2279117571173E-02
3  2.0000000000000E-02  3.0324394412543E-01 -1.2347559905586E-01  2.4980531243294E-02
4  3.0000000000000E-02  4.5245441599310E-01 -1.8209579010583E-01  3.8504789432675E-02
5  4.0000000000000E-02  5.9880226487233E-01 -2.3705206382250E-01  5.3209830515636E-02
6  5.0000000000000E-02  7.4138442147285E-01 -2.8724910264214E-01  6.9391856997623E-02
7  6.0000000000000E-02  8.7934003346297E-01 -3.3169428745345E-01  8.7268730439112E-02
8  7.0000000000000E-02  1.0118590693181E+00 -3.6951699705673E-01  1.0696657413474E-01
9  8.0000000000000E-02  1.1381897269458E+00 -3.9998401887288E-01  1.2851014675020E-01
10  9.0000000000000E-02  1.2576445076167E+00 -4.2251063577609E-01  1.5181740449972E-01
11  1.0000000000000E-01  1.3696048633549E+00 -4.3666711787572E-01  1.7669850756034E-01
12  1.1000000000000E-01  1.4735243763174E+00 -4.4218052155481E-01  2.0285935444894E-01
13  1.2000000000000E-01  1.5689304798242E+00 -4.3893187421975E-01  2.2990955260248E-01
14  1.3000000000000E-01  1.6554247805567E+00 -4.2694899505645E-01  2.5737456110527E-01
15  1.4000000000000E-01  1.7326820880648E+00 -4.0639536283592E-01  2.8471157897445E-01
16  1.5000000000000E-01  1.8004482992615E+00 -3.7755558511197E-01  3.1132860585559E-01
17  1.6000000000000E-01  1.8585373204186E+00 -3.4081814336349E-01  3.3660597698556E-01
18  1.7000000000000E-01  1.9068272359495E+00 -2.9665618102112E-01  3.5991957562314E-01
19  1.8000000000000E-01  1.9452559509420E+00 -2.4560716227873E-01  3.8066485758918E-01
20  1.9000000000000E-01  1.9738165423358E+00 -1.8825225676271E-01  3.9828078671531E-01
21  2.0000000000000E-01  1.9925525515572E+00 -1.2519629752601E-01  4.1227277823413E-01
22  2.1000000000000E-01  2.0015534394835E+00 -5.7049117833962E-02  4.2223377952439E-01
23  2.2000000000000E-01  2.0009504033500E+00  1.5591002394095E-02  4.2786268290783E-01
24  2.3000000000000E-01  1.9909127255825E+00  9.2151153758453E-02  4.2897936090203E-01
25  2.4000000000000E-01  1.9716447877986E+00  1.7209438080655E-01  4.2553573680391E-01
26  2.5000000000000E-01  1.9433838409536E+00  2.5492668367252E-01  4.1762244806829E-01
27  2.6000000000000E-01  1.9063985766125E+00  3.4020025303125E-01  4.0547082114124E-01
28  2.7000000000000E-01  1.8609884965625E+00  4.2751292377814E-01  3.8945004810605E-01
29  2.8000000000000E-01  1.8074840304895E+00  5.1650400332533E-01  3.7005963117704E-01
30  2.9000000000000E-01  1.7462473062566E+00  6.0684679407553E-01  3.4791733410229E-01
31  3.0000000000000E-01  1.6776734364000E+00  6.9823827974658E-01  3.2374304337355E-01
32  3.1000000000000E-01  1.6021921495718E+00  7.9038657558011E-01  2.9833909063808E-01
33  3.2000000000000E-01  1.5202695683680E+00  8.8299684765249E-01  2.7256771530786E-01
34  3.3000000000000E-01  1.4324099165133E+00  9.7575648209384E-01  2.4732644831819E-01
35  3.4000000000000E-01  1.3391569296239E+00  1.0683203277974E+00  2.2352227057869E-01
36  3.5000000000000E-01  1.2410947452264E+00  1.1602968442230E+00  2.0204544024648E-01
37  3.6000000000000E-01  1.1388480594467E+00  1.2512359586851E+00  1.8374389019560E-01
38  3.7000000000000E-01  1.0330813594607E+00  1.3406193759439E+00  1.6939907083566E-01
39  3.8000000000000E-01  9.2449707164883E-01  1.4278539893140E+00  1.5970405495550E-01
40  3.9000000000000E-01  8.1383250429858E-01  1.5122689204566E+00  1.5524463293422E-01
41  4.0000000000000E-01  7.0185550915550E-01  1.5931165693092E+00  1.5648401203395E-01
42  4.1000000000000E-01  5.8935883639553E-01  1.6695778919733E+00  1.6375159708046E-01
43  4.2000000000000E-01  4.7715321069413E-01  1.7407719493123E+00  1.7723617700391E-01
44  4.3000000000000E-01  3.6605920990602E-01  1.8057695895046E+00  1.9698367837290E-01
45  4.4000000000000E-01  2.5689808028245E-01  1.8636109510309E+00  2.2289947951257E-01
46  4.5000000000000E-01  1.5048167102647E-01  1.9133263056807E+00  2.5475511345245E-01
47  4.6000000000000E-01  4.7601714319101E-02  1.9539596108813E+00  2.9219903107714E-01
48  4.7000000000000E-01 -5.0981287054503E-02  1.9845940131192E+00  3.3477095334421E-01
49  4.8000000000000E-01 -1.4454927520909E-01  2.0043784446560E+00  3.8191921856095E-01
50  4.9000000000000E-01 -2.3243764943049E-01  2.0125543883159E+00  4.3302043197075E-01
51  5.0000000000000E-01 -3.1404576259799E-01  2.0084818526890E+00  4.8740065376285E-01
52  5.1000000000000E-01 -3.8884659411396E-01  1.9916636041850E+00  5.4435732048500E-01
53  5.2000000000000E-01 -4.5639530784251E-01  1.9617667430520E+00  6.0318108491361E-01
54  5.3000000000000E-01 -5.1633643038189E-01  1.9186407863416E+00  6.6317678066255E-01
55  5.4000000000000E-01 -5.6840942159855E-01  1.8623315291188E+00  7.2368276897241E-01
56  5.5000000000000E-01 -6.1245245444092E-01  1.7930900919056E+00  7.8408800379182E-01
57  5.6000000000000E-01 -6.4840427301145E-01  1.7113767222542E+00  8.4384625399756E-01
58  5.7000000000000E-01 -6.7630405482283E-01  1.6178590953926E+00  9.0248704405948E-01
59  5.8000000000000E-01 -6.9628926301583E-01  1.5134050463146E+00  9.5962301155175E-01
60  5.9000000000000E-01 -7.0859153488258E-01  1.3990698563548E+00  1.0149535260760E+00
61  6.0000000000000E-01 -7.1353071210914E-01  1.2760784039467E+00  1.0682645635373E+00
62  6.1000000000000E-01 -7.1150717356767E-01  1.1458026648159E+00  1.1194249763822E+00
63  6.2000000000000E-01 -7.0299268125357E-01  1.0097352047023E+00  1.1683794386752E+00
64  6.3000000000000E-01 -6.8851999229451E-01  8.6945944193022E-01  1.2151384694477E+00
65  6.4000000000000E-01 -6.6867152337712E-01  7.2661756281069E-01  1.2597660439464E+00
66  6.5000000000000E-01 -6.4406737731215E-01  5.8287704617387E-01  1.3023653863596E+00
67  6.6000000000000E-01 -6.1535305405634E-01  4.3989679178096E-01  1.3430635964155E+00
68  6.7000000000000E-01 -5.8318717001346E-01  2.9929384983148E-01  1.3819957940383E+00
69  6.8000000000000E-01 -5.4822949996627E-01  1.6261171556650E-01  1.4192894702967E+00
70  6.9000000000000E-01 -5.1112963608185E-01  3.1291085753441E-02  1.4550497095339E+00
71  7.0000000000000E-01 -4.7251652901693E-01 -9.3356124373215E-02  1.4893458983205E+00
72  7.1000000000000E-01 -4.3298913851925E-01 -2.1016883015015E-01  1.5222004641934E+00
73  7.2000000000000E-01 -3.9310837665444E-01 -3.1815436558613E-01  1.5535800944206E+00
74  7.3000000000000E-01 -3.5339047771129E-01 -4.1650124589942E-01  1.5833897763983E+00
75  7.4000000000000E-01 -3.1430187691243E-01 -5.0458691134472E-01  1.6114698814139E+00
76  7.5000000000000E-01 -2.7625562733480E-01 -5.8198043306674E-01  1.6375963874646E+00
77  7.6000000000000E-01 -2.3960933295429E-01 -6.4844033128726E-01  1.6614842097925E+00
78  7.7000000000000E-01 -2.0466452740528E-01 -7.0390781496398E-01  1.6827934848961E+00
79  7.8000000000000E-01 -1.7166738466376E-01 -7.4849589423620E-01  1.7011385398770E+00
80  7.9000000000000E-01 -1.4081061093970E-01 -7.8247493741901E-01  1.7160991784146E+00
81  8.0000000000000E-01 -1.1223633783036E-01 -8.0625533888443E-01  1.7272338311893E+00
82  8.1000000000000E-01 -8.6039816120323E-02 -8.2036802989791E-01  1.7340940551054E+00
83  8.2000000000000E-01 -6.2273698021600E-02 -8.2544359960573E-01  1.7362398242674E+00
84  8.3000000000000E-01 -4.0952693248953E-02 -8.2219079742407E-01  1.7332550374295E+00
85  8.4000000000000E-01 -2.2058390851086E-02 -8.1137516188716E-01  1.7247626716765E+00
86  8.5000000000000E-01 -5.5440535372692E-03 -7.9379846659971E-01  1.7104390395768E+00
87  8.6000000000000E-01  8.6607866115038E-03 -7.7027959444990E-01  1.6900266552336E+00
88  8.7000000000000E-01  2.0646073921525E-02 -7.4163735076939E-01  1.6633452810107E+00
89  8.8000000000000E-01  3.0517426414824E-02 -7.0867560953026E-01  1.6303008080200E+00
90  8.9000000000000E-01  3.8392858766503E-02 -6.7217105931711E-01  1.5908917160075E+00
91  9.0000000000000E-01  4.4400067927713E-02 -6.3286368338891E-01  1.5452129579964E+00
92  9.1000000000000E-01  4.8674281640630E-02 -5.9144997634189E-01  1.4934572177245E+00
93  9.2000000000000E-01  5.1356635321959E-02 -5.4857877420056E-01  1.4359135893663E+00
94  9.3000000000000E-01  5.2593011549411E-02 -5.0484946026007E-01  1.3729638252525E+00
95  9.4000000000000E-01  5.2533249916962E-02 -4.6081221002773E-01  1.3050763847417E+00
96  9.5000000000000E-01  5.1330614364181E-02 -4.1696985877925E-01  1.2327985929196E+00
97  9.6000000000000E-01  4.9141390939298E-02 -3.7378091709550E-01  1.1567472790120E+00
98  9.7000000000000E-01  4.6124481730720E-02 -3.3166322483844E-01  1.0775983095486E+00
99  9.8000000000000E-01  4.2440860453661E-02 -2.9099772277678E-01  9.9607545947399E-01
100  9.9000000000000E-01  3.8252761646459E-02 -2.5213183283611E-01  9.1293907542047E-01
101  1.0000000000000E+00  3.3722488038886E-02 -2.1538197105228E-01  8.2897497981029E-01
102  1.0100000000000E+00  2.9010738555124E-02 -1.8103476915137E-01  7.4498404366700E-01
103  1.0200000000000E+00  2.4274381513715E-02 -1.4934664784366E-01  6.6177282192851E-01
104  1.0300000000000E+00  1.9663622680351E-02 -1.2054146358158E-01  5.8014559999686E-01
105  1.0400000000000E+00  1.5318544505587E-02 -9.4806036170911E-02  5.0089814710875E-01
106  1.0500000000000E+00  1.1365019767888E-02 -7.2283452803360E-02  4.2481341381288E-01
107  1.0600000000000E+00  7.9100286082015E-03 -5.3064130459472E-02  3.5265935033653E-01
108  1.0700000000000E+00  5.0364312227810E-03 -3.7174698723466E-02  2.8518896306781E-01
109  1.0800000000000E+00  2.7971541223695E-03 -2.4564491618130E-02  2.2314269777643E-01
110  1.0900000000000E+00  1.2097124418984E-03 -1.5092356805918E-02  1.6725296348905E-01
111  1.1000000000000E+00  1.9897007654101E-04 -8.3554707853670E-03  1.1826155190138E-01
112  1.1100000000000E+00 -3.7665556851698E-04 -3.7675422305075E-03  7.6916003822455E-02
113  1.1200000000000E+00 -5.4683797956146E-04 -1.1120181325008E-03  4.3899445738161E-02
114  1.1300000000000E+00 -4.1477445805264E-04  4.5617291889608E-06  1.9792750758613E-02
115  1.1400000000000E+00 -1.5187318658328E-04  1.3737948618749E-04  5.0170655636343E-03
116  1.1500000000000E+00 -4.7406513089893E-07  5.8334467443758E-07  1.2529324279373E-05
117  1.1600000000000E+00 -1.3343339515814E-06  1.7666716111960E-06  3.4729164933951E-05
118  1.1700000000000E+00  8.0599037201167E-08 -8.9683771610814E-08 -2.3839063335339E-06
119  1.18  0.  0.  0.
120  1.19  0.  0.  0.
121  1.20  0.  0.  0.
122  1.21  0.  0.  0.
123  1.22  0.  0.  0.
124  1.23  0.  0.  0.
125  1.24  0.  0.  0.
126  1.25  0.  0.  0.
127  1.26  0.  0.  0.
128  1.27  0.  0.  0.
129  1.28  0.  0.  0.
130  1.29  0.  0.  0.
131  1.30  0.  0.  0.
132  1.31  0.  0.  0.
133  1.32  0.  0.  0.
134  1.33  0.  0.  0.
135  1.34  0.  0.  0.
136  1.35  0.  0.  0.
137  1.36  0.  0.  0.
138  1.37  0.  0.  0.
139  1.38  0.  0.  0.
140  1.39  0.  0.  0.
141  1.40  0.  0.  0.
142  1.41  0.  0.  0.
143  1.42  0.  0.  0.
144  1.43  0.  0.  0.
145  1.44  0.  0.  0.
146  1.45  0.  0.  0.
147  1.46  0.  0.  0.
148  1.47  0.  0.  0.
149  1.48  0.  0.  0.
150  1.49  0.  0.  0.
151  1.50  0.  0.  0.
152  1.51  0.  0.  0.
153  1.52  0.  0.  0.
154  1.53  0.  0.  0.
155  1.54  0.  0.  0.
156  1.55  0.  0.  0.
157  1.56  0.  0.  0.
158  1.57  0.  0.  0.
159  1.58  0.  0.  0.
160  1.59  0.  0.  0.
161  1.60  0.  0.  0.
162  1.61  0.  0.  0.
163  1.62  0.  0.  0.
164  1.63  0.  0.  0.
165  1.64  0.  0.  0.
166  1.65  0.  0.  0.
167  1.66  0.  0.  0.
168  1.67  0.  0.  0.
169  1.68  0.  0.  0.
170  1.69  0.  0.  0.
171  1.70  0.  0.  0.
172  1.71  0.  0.  0.
173  1.72  0.  0.  0.
174  1.73  0.  0.  0.
175  1.74  0.  0.  0.
176  1.75  0.  0.  0.
177  1.76  0.  0.  0.
178  1.77  0.  0.  0.
179  1.78  0.  0.  0.
180  1.79  0.  0.  0.
181  1.80  0.  0.  0.
182  1.81  0.  0.  0.
183  1.82  0.  0.  0.
184  1.83  0.  0.  0.
185  1.84  0.  0.  0.
186  1.85  0.  0.  0.
187  1.86  0.  0.  0.
188  1.87  0.  0.  0.
189  1.88  0.  0.  0.
190  1.89  0.  0.  0.
191  1.90  0.  0.  0.
192  1.91  0.  0.  0.
193  1.92  0.  0.  0.
194  1.93  0.  0.  0.
195  1.94  0.  0.  0.
196  1.95  0.  0.  0.
197  1.96  0.  0.  0.
198  1.97  0.  0.  0.
199  1.98  0.  0.  0.
200  1.99  0.  0.  0.
201  2.00  0.  0.  0.
202  2.01  0.  0.  0.
203  2.02  0.  0.  0.
204  2.03  0.  0.  0.
205  2.04  0.  0.  0.
206  2.05  0.  0.  0.
207  2.06  0.  0.  0.
208  2.07  0.  0.  0.
209  2.08  0.  0.  0.
210  2.09  0.  0.  0.
211  2.10  0.  0.  0.
212  2.11  0.  0.  0.
213  2.12  0.  0.  0.
214  2.13  0.  0.  0.
215  2.14  0.  0.  0.
216  2.15  0.  0.  0.
217  2.16  0.  0.  0.
218  2.17  0.  0.  0.
219  2.18  0.  0.  0.
220  2.19  0.  0.  0.
221  2.20  0.  0.  0.
222  2.21  0.  0.  0.
223  2.22  0.  0.  0.
224  2.23  0.  0.  0.
225  2.24  0.  0.  0.
226  2.25  0.  0.  0.
227  2.26  0.  0.  0.
228  2.27  0.  0.  0.
229  2.28  0.  0.  0.
230  2.29  0.  0.  0.
231  2.30  0.  0.  0.
232  2.31  0.  0.  0.
233  2.32  0.  0.  0.
234  2.33  0.  0.  0.
235  2.34  0.  0.  0.
236  2.35  0.  0.  0.
237  2.36  0.  0.  0.
238  2.37  0.  0.  0.
239  2.38  0.  0.  0.
240  2.39  0.  0.  0.
241  2.40  0.  0.  0.
242  2.41  0.  0.  0.
243  2.42  0.  0.  0.
244  2.43  0.  0.  0.
245  2.44  0.  0.  0.
246  2.45  0.  0.  0.
247  2.46  0.  0.  0.
248  2.47  0.  0.  0.
249  2.48  0.  0.  0.
250  2.49  0.  0.  0.
251  2.50  0.  0.  0.
252  2.51  0.  0.  0.
253  2.52  0.  0.  0.
254  2.53  0.  0.  0.
255  2.54  0.  0.  0.
256  2.55  0.  0.  0.
257  2.56  0.  0.  0.
258  2.57  0.  0.  0.
259  2.58  0.  0.  0.
260  2.59  0.  0.  0.
261  2.60  0.  0.  0.
262  2.61  0.  0.  0.
263  2.62  0.  0.  0.
264  2.63  0.  0.  0.
265  2.64  0.  0.  0.
266  2.65  0.  0.  0.
267  2.66  0.  0.  0.
268  2.67  0.  0.  0.
269  2.68  0.  0.  0.
270  2.69  0.  0.  0.
271  2.70  0.  0.  0.
272  2.71  0.  0.  0.
273  2.72  0.  0.  0.
274  2.73  0.  0.  0.
275  2.74  0.  0.  0.
276  2.75  0.  0.  0.
277  2.76  0.  0.  0.
278  2.77  0.  0.  0.
279  2.78  0.  0.  0.
280  2.79  0.  0.  0.
281  2.80  0.  0.  0.
282  2.81  0.  0.  0.
283  2.82  0.  0.  0.
284  2.83  0.  0.  0.
285  2.84  0.  0.  0.
286  2.85  0.  0.  0.
287  2.86  0.  0.  0.
288  2.87  0.  0.  0.
289  2.88  0.  0.  0.
290  2.89  0.  0.  0.
291  2.90  0.  0.  0.
292  2.91  0.  0.  0.
293  2.92  0.  0.  0.
294  2.93  0.  0.  0.
295  2.94  0.  0.  0.
296  2.95  0.  0.  0.
297  2.96  0.  0.  0.
298  2.97  0.  0.  0.
299  2.98  0.  0.  0.
300  2.99  0.  0.  0.
301  3.00  0.  0.  0.
302  3.01  0.  0.  0.
303  3.02  0.  0.  0.
304  3.03  0.  0.  0.
305  3.04  0.  0.  0.
306  3.05  0.  0.  0.
307  3.06  0.  0.  0.
308  3.07  0.  0.  0.
309  3.08  0.  0.  0.
310  3.09  0.  0.  0.
311  3.10  0.  0.  0.
312  3.11  0.  0.  0.
313  3.12  0.  0.  0.
314  3.13  0.  0.  0.
315  3.14  0.  0.  0.
316  3.15  0.  0.  0.
317  3.16  0.  0.  0.
318  3.17  0.  0.  0.
319  3.18  0.  0.  0.
320  3.19  0.  0.  0.
321  3.20  0.  0.  0.
322  3.21  0.  0.  0.
323  3.22  0.  0.  0.
324  3.23  0.  0.  0.
325  3.24  0.  0.  0.
326  3.25  0.  0.  0.
327  3.26  0.  0.  0.
328  3.27  0.  0.  0.
329  3.28  0.  0.  0.
330  3.29  0.  0.  0.
331  3.30  0.  0.  0.
332  3.31  0.  0.  0.
333  3.32  0.  0.  0.
334  3.33  0.  0.  0.
335  3.34  0.  0.  0.
336  3.35  0.  0.  0.
337  3.36  0.  0.  0.
338  3.37  0.  0.  0.
339  3.38  0.  0.  0.
340  3.39  0.  0.  0.
341  3.40  0.  0.  0.
342  3.41  0.  0.  0.
343  3.42  0.  0.  0.
344  3.43  0.  0.  0.
345  3.44  0.  0.  0.
346  3.45  0.  0.  0.
347  3.46  0.  0.  0.
348  3.47  0.  0.  0.
349  3.48  0.  0.  0.
350  3.49  0.  0.  0.
351  3.50  0.  0.  0.
352  3.51  0.  0.  0.
353  3.52  0.  0.  0.
354  3.53  0.  0.  0.
355  3.54  0.  0.  0.
356  3.55  0.  0.  0.
357  3.56  0.  0.  0.
358  3.57  0.  0.  0.
359  3.58  0.  0.  0.
360  3.59  0.  0.  0.
361  3.60  0.  0.  0.
362  3.61  0.  0.  0.
363  3.62  0.  0.  0.
364  3.63  0.  0.  0.
365  3.64  0.  0.  0.
366  3.65  0.  0.  0.
367  3.66  0.  0.  0.
368  3.67  0.  0.  0.
369  3.68  0.  0.  0.
370  3.69  0.  0.  0.
371  3.70  0.  0.  0.
372  3.71  0.  0.  0.
373  3.72  0.  0.  0.
374  3.73  0.  0.  0.
375  3.74  0.  0.  0.
376  3.75  0.  0.  0.
377  3.76  0.  0.  0.
378  3.77  0.  0.  0.
379  3.78  0.  0.  0.
380  3.79  0.  0.  0.
381  3.80  0.  0.  0.
382  3.81  0.  0.  0.
383  3.82  0.  0.  0.
384  3.83  0.  0.  0.
385  3.84  0.  0.  0.
386  3.85  0.  0.  0.
387  3.86  0.  0.  0.
388  3.87  0.  0.  0.
389  3.88  0.  0.  0.
390  3.89  0.  0.  0.
391  3.90  0.  0.  0.
392  3.91  0.  0.  0.
393  3.92  0.  0.  0.
394  3.93  0.  0.  0.
395  3.94  0.  0.  0.
396  3.95  0.  0.  0.
397  3.96  0.  0.  0.
398  3.97  0.  0.  0.
399  3.98  0.  0.  0.
400  3.99  0.  0.  0.
401  4.00  0.  0.  0.
402  4.01  0.  0.  0.
403  4.02  0.  0.  0.
404  4.03  0.  0.  0.
405  4.04  0.  0.  0.
406  4.05  0.  0.  0.
407  4.06  0.  0.  0.
408  4.07  0.  0.  0.
409  4.08  0.  0.  0.
410  4.09  0.  0.  0.
411  4.10  0.  0.  0.
412  4.11  0.  0.  0.
413  4.12  0.  0.  0.
414  4.13  0.  0.  0.
415  4.14  0.  0.  0.
416  4.15  0.  0.  0.
417  4.16  0.  0.  0.
418  4.17  0.  0.  0.
419  4.18  0.  0.  0.
420  4.19  0.  0.  0.
421  4.20  0.  0.  0.
422  4.21  0.  0.  0.
423  4.22  0.  0.  0.
424  4.23  0.  0.  0.
425  4.24  0.  0.  0.
426  4.25  0.  0.  0.
427  4.26  0.  0.  0.
428  4.27  0.  0.  0.
429  4.28  0.  0.  0.
430  4.29  0.  0.  0.
431  4.30  0.  0.  0.
432  4.31  0.  0.  0.
433  4.32  0.  0.  0.
434  4.33  0.  0.  0.
435  4.34  0.  0.  0.
436  4.35  0.  0.  0.
437  4.36  0.  0.  0.
438  4.37  0.  0.  0.
439  4.38  0.  0.  0.
440  4.39  0.  0.  0.
441  4.40  0.  0.  0.
442  4.41  0.  0.  0.
443  4.42  0.  0.  0.
444  4.43  0.  0.  0.
445  4.44  0.  0.  0.
446  4.45  0.  0.  0.
447  4.46  0.  0.  0.
448  4.47  0.  0.  0.
449  4.48  0.  0.  0.
450  4.49  0.  0.  0.
451  4.50  0.  0.  0.
452  4.51  0.  0.  0.
453  4.52  0.  0.  0.
454  4.53  0.  0.  0.
455  4.54  0.  0.  0.
456  4.55  0.  0.  0.
457  4.56  0.  0.  0.
458  4.57  0.  0.  0.
459  4.58  0.  0.  0.
460  4.59  0.  0.  0.
461  4.60  0.  0.  0.
462  4.61  0.  0.  0.
463  4.62  0.  0.  0.
464  4.63  0.  0.  0.
465  4.64  0.  0.  0.
466  4.65  0.  0.  0.
467  4.66  0.  0.  0.
468  4.67  0.  0.  0.
469  4.68  0.  0.  0.
470  4.69  0.  0.  0.
471  4.70  0.  0.  0.
472  4.71  0.  0.  0.
473  4.72  0.  0.  0.
474  4.73  0.  0.  0.
475  4.74  0.  0.  0.
476  4.75  0.  0.  0.
477  4.76  0.  0.  0.
478  4.77  0.  0.  0.
479  4.78  0.  0.  0.
480  4.79  0.  0.  0.
481  4.80  0.  0.  0.
482  4.81  0.  0.  0.
483  4.82  0.  0.  0.
484  4.83  0.  0.  0.
485  4.84  0.  0.  0.
486  4.85  0.  0.  0.
487  4.86  0.  0.  0.
488  4.87  0.  0.  0.
489  4.88  0.  0.  0.
490  4.89  0.  0.  0.
491  4.90  0.  0.  0.
492  4.91  0.  0.  0.
493  4.92  0.  0.  0.
494  4.93  0.  0.  0.
495  4.94  0.  0.  0.
496  4.95  0.  0.  0.
497  4.96  0.  0.  0.
498  4.97  0.  0.  0.
499  4.98  0.  0.  0.
500  4.99  0.  0.  0.
501  5.00  0.  0.  0.
502  5.01  0.  0.  0.
503  5.02  0.  0.  0.
504  5.03  0.  0.  0.
505  5.04  0.  0.  0.
506  5.05  0.  0.  0.
507  5.06  0.  0.  0.
508  5.07  0.  0.  0.
509  5.08  0.  0.  0.
510  5.09  0.  0.  0.
511  5.10  0.  0.  0.
512  5.11  0.  0.  0.
513  5.12  0.  0.  0.
514  5.13  0.  0.  0.
515  5.14  0.  0.  0.
516  5.15  0.  0.  0.
517  5.16  0.  0.  0.
518  5.17  0.  0.  0.
519  5.18  0.  0.  0.
520  5.19  0.  0.  0.
521  5.20  0.  0.  0.
522  5.21  0.  0.  0.
523  5.22  0.  0.  0.
524  5.23  0.  0.  0.
525  5.24  0.  0.  0.
526  5.25  0.  0.  0.
527  5.26  0.  0.  0.
528  5.27  0.  0.  0.
529  5.28  0.  0.  0.
530  5.29  0.  0.  0.
531  5.30  0.  0.  0.
532  5.31  0.  0.  0.
533  5.32  0.  0.  0.
534  5.33  0.  0.  0.
535  5.34  0.  0.  0.
536  5.35  0.  0.  0.
537  5.36  0.  0.  0.
538  5.37  0.  0.  0.
539  5.38  0.  0.  0.
540  5.39  0.  0.  0.
541  5.40  0.  0.  0.
542  5.41  0.  0.  0.
543  5.42  0.  0.  0.
544  5.43  0.  0.  0.
545  5.44  0.  0.  0.
546  5.45  0.  0.  0.
547  5.46  0.  0.  0.
548  5.47  0.  0.  0.
549  5.48  0.  0.  0.
550  5.49  0.  0.  0.
551  5.50  0.  0.  0.
552  5.51  0.  0.  0.
553  5.52  0.  0.  0.
554  5.53  0.  0.  0.
555  5.54  0.  0.  0.
556  5.55  0.  0.  0.
557  5.56  0.  0.  0.
558  5.57  0.  0.  0.
559  5.58  0.  0.  0.
560  5.59  0.  0.  0.
561  5.60  0.  0.  0.
562  5.61  0.  0.  0.
563  5.62  0.  0.  0.
564  5.63  0.  0.  0.
565  5.64  0.  0.  0.
566  5.65  0.  0.  0.
567  5.66  0.  0.  0.
568  5.67  0.  0.  0.
569  5.68  0.  0.  0.
570  5.69  0.  0.  0.
571  5.70  0.  0.  0.
572  5.71  0.  0.  0.
573  5.72  0.  0.  0.
574  5.73  0.  0.  0.
575  5.74  0.  0.  0.
576  5.75  0.  0.  0.
577  5.76  0.  0.  0.
578  5.77  0.  0.  0.
579  5.78  0.  0.  0.
580  5.79  0.  0.  0.
581  5.80  0.  0.  0.
582  5.81  0.  0.  0.
583  5.82  0.  0.  0.
584  5.83  0.  0.  0.
585  5.84  0.  0.  0.
586  5.85  0.  0.  0.
587  5.86  0.  0.  0.
588  5.87  0.  0.  0.
589  5.88  0.  0.  0.
590  5.89  0.  0.  0.
591  5.90  0.  0.  0.
592  5.91  0.  0.  0.
593  5.92  0.  0.  0.
594  5.93  0.  0.  0.
595  5.94  0.  0.  0.
596  5.95  0.  0.  0.
597  5.96  0.  0.  0.
598  5.97  0.  0.  0.
599  5.98  0.  0.  0.
600  5.99  0.  0.  0.
1                         1.4062172935801E+01  1.6381915792455E+00 -1.1926777581641E-01
1  0.0000000000000E+00 -1.3362872197664E-08  3.4175778092921E-08 -3.3582435658708E-08
2  1.0000000000000E-02  3.9069183228001E-03 -4.5877448090029E-04  9.2739361700546E-04
3  2.0000000000000E-02  1.5601398777676E-02 -1.8361455441715E-03  3.7125778173283E-03
4  3.0000000000000E-02  3.5004567999133E-02 -4.1347333151408E-03  8.3640365446292E-03
5  4.0000000000000E-02  6.1984814009275E-02 -7.3571858762954E-03  1.4894179347314E-02
6  5.0000000000000E-02  9.6357585268932E-02 -1.1503683035984E-02  2.3316826620272E-02
7  6.0000000000000E-02  1.3788517514571E-01 -1.6568602463281E-02  3.3643847460612E-02
8  7.0000000000000E-02  1.8627655435071E-01 -2.2536502018103E-02  4.5881101668556E-02
9  8.0000000000000E-02  2.4118732725843E-01 -2.9377606281456E-02  6.0023871007108E-02
10  9.0000000000000E-02  3.0221989822252E-01 -3.7043012593252E-02  7.6051991591393E-02
11  1.0000000000000E-01  3.6892394056145E-01 -4.5459851297452E-02  9.3924918186542E-02
12  1.1000000000000E-01  4.4079726346942E-01 -5.4526645607941E-02  1.1357696149524E-01
13  1.2000000000000E-01  5.1728717050456E-01 -6.4109118073215E-02  1.3491294075476E-01
14  1.3000000000000E-01  5.9779239746190E-01 -7.4036682873297E-02  1.5780448599247E-01
15  1.4000000000000E-01  6.8166570744906E-01 -8.4099846293056E-02  1.8208720728462E-01
16  1.5000000000000E-01  7.6821720709108E-01 -9.4048712159936E-02  2.0755892281658E-01
17  1.6000000000000E-01  8.5671843038514E-01 -1.0359275559452E-01  2.3397910424947E-01
18  1.7000000000000E-01  9.4640721632421E-01 -1.1240198816051E-01  2.6106965792768E-01
19  1.8000000000000E-01  1.0364933836419E+00 -1.2010959172312E-01  2.8851711513210E-01
20  1.9000000000000E-01  1.1261651816287E+00 -1.2631604854176E-01  3.1597625540720E-01
21  2.0000000000000E-01  1.2145964707266E+00 -1.3059474299821E-01  3.4307513563804E-01
22  2.1000000000000E-01  1.3009545613755E+00 -1.3249895765922E-01  3.6942144578456E-01
23  2.2000000000000E-01  1.3844086152088E+00 -1.3157013489767E-01  3.9461006180021E-01
24  2.3000000000000E-01  1.4641384900426E+00 -1.2734722683516E-01  4.1823161904407E-01
25  2.4000000000000E-01  1.5393438899661E+00 -1.1937691262823E-01  4.3988188713614E-01
26  2.5000000000000E-01  1.6092536649716E+00 -1.0722442466990E-01  4.5917169125532E-01
27  2.6000000000000E-01  1.6731350916021E+00 -9.0484695494849E-02  4.7573709669294E-01
28  2.7000000000000E-01  1.7303029575775E+00 -6.8793516199995E-02  4.8924955416450E-01
29  2.8000000000000E-01  1.7801282696790E+00 -4.1838385876541E-02  4.9942569377093E-01
30  2.9000000000000E-01  1.8220464055650E+00 -9.3687304412219E-03  5.0603645609965E-01
31  3.0000000000000E-01  1.8555645367557E+00  2.8794821440572E-02  5.0891525993193E-01
32  3.1000000000000E-01  1.8802681616535E+00  7.2752398064628E-02  5.0796492720125E-01
33  3.2000000000000E-01  1.8958266039281E+00  1.2251834338053E-01  5.0316311669873E-01
34  3.3000000000000E-01  1.9019973524724E+00  1.7801639966578E-01  4.9456605768865E-01
35  3.4000000000000E-01  1.8986291438612E+00  2.3907679298226E-01  4.8231042190769E-01
36  3.5000000000000E-01  1.8856637161403E+00  3.0543534757557E-01  4.6661322593016E-01
37  3.6000000000000E-01  1.8631361930219E+00  3.7673469793361E-01  4.4776971391549E-01
38  3.7000000000000E-01  1.8311740892838E+00  4.5252760679276E-01  4.2614923145708E-01
39  3.8000000000000E-01  1.7899949604082E+00  5.3228233590928E-01  4.0218916265748E-01
40  3.9000000000000E-01  1.7399027512804E+00  6.1538995590067E-01  3.7638706264042E-01
41  4.0000000000000E-01  1.6812829291262E+00  7.0117342390048E-01  3.4929117446808E-01
42  4.1000000000000E-01  1.6145965138602E+00  7.8889820507590E-01  3.2148957094138E-01
43  4.2000000000000E-01  1.5403731437871E+00  8.7778416800946E-01  2.9359820624454E-01
44  4.3000000000000E-01  1.4592033353634E+00  9.6701844611672E-01  2.6624819829229E-01
45  4.4000000000000E-01  1.3717301118540E+00  1.0557689289792E+00  2.4007268865114E-01
46  4.5000000000000E-01  1.2786401866997E+00  1.1431980297226E+00  2.1569364205682E-01
47  4.6000000000000E-01  1.1806548929179E+00  1.2284763680369E+00  1.9370895120578E-01
48  4.7000000000000E-01  1.0785210497352E+00  1.3107960134029E+00  1.7468020441466E-01
49  4.8000000000000E-01  9.7300195192049E-01  1.3893829494790E+00  1.5912145405739E-01
50  4.9000000000000E-01  8.6486865617788E-01  1.4635084479218E+00  1.4748929294324E-01
51  5.0000000000000E-01  7.5489172284482E-01  1.5324990773246E+00  1.4017450490796E-01
52  5.1000000000000E-01  6.4383355061094E-01  1.5957451192342E+00  1.3749550612554E-01
53  5.2000000000000E-01  5.3244141771785E-01  1.6527072168457E+00  1.3969373659911E-01
54  5.3000000000000E-01  4.2144131597734E-01  1.7029211411734E+00  1.4693109881156E-01
55  5.4000000000000E-01  3.1153263488959E-01  1.7460006222675E+00  1.5928947467124E-01
56  5.5000000000000E-01  2.0338372316579E-01  1.7816382572453E+00  1.7677228487916E-01
57  5.6000000000000E-01  9.7628325107274E-02  1.8096045703210E+00  1.9930798893549E-01
58  5.7000000000000E-01 -5.1371393936113E-03  1.8297453604522E+00  2.2675536145665E-01
59  5.8000000000000E-01 -1.0435550898002E-01  1.8419775275396E+00  2.5891032345341E-01
60  5.9000000000000E-01 -1.9951011024580E-01  1.8462836163591E+00  2.9551405773029E-01
61  6.0000000000000E-01 -2.9012538308513E-01  1.8427053568268E+00  3.3626209737596E-01
62  6.1000000000000E-01 -3.7576701749282E-01  1.8313365083527E+00  3.8081404688795E-01
63  6.2000000000000E-01 -4.5604172706294E-01  1.8123153338132E+00  4.2880357792731E-01
64  6.3000000000000E-01 -5.3059678868579E-01  1.7858170343623E+00  4.7984833674173E-01
65  6.4000000000000E-01 -5.9911947657269E-01  1.7520464695997E+00  5.3355940821431E-01
66  6.5000000000000E-01 -6.6133651180705E-01  1.7112314686637E+00  5.8955000212811E-01
67  6.6000000000000E-01 -7.1701363639562E-01  1.6636170071986E+00  6.4744305997824E-01
68  6.7000000000000E-01 -7.6595540374389E-01  1.6094604838529E+00  7.0687752447313E-01
69  6.8000000000000E-01 -8.0800525625179E-01  1.5490282794018E+00  7.6751306730912E-01
70  6.9000000000000E-01 -8.4304593613982E-01  1.4825937234940E+00  8.2903313207558E-01
71  7.0000000000000E-01 -8.7100024861857E-01  1.4104365304515E+00  8.9114621616218E-01
72  7.1000000000000E-01 -8.9183216816743E-01  1.3328436987671E+00  9.5358538595799E-01
73  7.2000000000000E-01 -9.0554825011118E-01  1.2501118013788E+00  1.0161060909865E+00
74  7.3000000000000E-01 -9.1219928203549E-01  1.1625505279443E+00  1.0784824123448E+00
75  7.4000000000000E-01 -9.1188208399757E-01  1.0704872786650E+00  1.1405019463975E+00
76  7.5000000000000E-01 -9.0474134405958E-01  9.7427255409495E-01  1.2019595836763E+00
77  7.6000000000000E-01 -8.9097135738734E-01  8.7428583898528E-01  1.2626504931394E+00
78  7.7000000000000E-01 -8.7081752387524E-01  7.7094164247215E-01  1.3223626613926E+00
79  7.8000000000000E-01 -8.4457745167455E-01  6.6469533337147E-01  1.3808693635616E+00
80  7.9000000000000E-01 -8.1260151261342E-01  5.5604839916099E-01  1.4379219560415E+00
81  8.0000000000000E-01 -7.7529270058372E-01  4.4555276110432E-01  1.4932433805943E+00
82  8.1000000000000E-01 -7.3310565558366E-01  3.3381379612289E-01  1.5465227539737E+00
83  8.2000000000000E-01 -6.8654473405561E-01  2.2149174816139E-01  1.5974113876918E+00
84  8.3000000000000E-01 -6.3616103001987E-01  1.0930125712774E-01  1.6455205394694E+00
85  8.4000000000000E-01 -5.8254828062353E-01 -1.9912092542396E-03  1.6904211425883E+00
86  8.5000000000000E-01 -5.2633762323694E-01 -1.1157216788902E-01  1.7316456934968E+00
87  8.6000000000000E-01 -4.6819120809024E-01 -2.1858824873360E-01  1.7686924037113E+00
88  8.7000000000000E-01 -4.0879470945364E-01 -3.2215562974035E-01  1.8010316417535E+00
89  8.8000000000000E-01 -3.4884881821614E-01 -4.2137168479710E-01  1.8281146072481E+00
90  8.9000000000000E-01 -2.8905983803080E-01 -5.1532866703807E-01  1.8493840952374E+00
91  9.0000000000000E-01 -2.3012954456931E-01 -6.0312916868129E-01  1.8642871271707E+00
92  9.1000000000000E-01 -1.7274450148996E-01 -6.8390302311995E-01  1.8722891487875E+00
93  9.2000000000000E-01 -1.1756505617134E-01 -7.5682524811714E-01  1.8728894269769E+00
94  9.3000000000000E-01 -6.5214261917532E-02 -8.2113457316890E-01  1.8656372202129E+00
95  9.4000000000000E-01 -1.6266990190394E-02 -8.7615205159935E-01  1.8501482525020E+00
96  9.5000000000000E-01  2.8760494349669E-02 -9.2129923056243E-01  1.8261209907772E+00
97  9.6000000000000E-01  6.9420222180480E-02 -9.5611534115515E-01  1.7933522116305E+00
98  9.7000000000000E-01  1.0534120430528E-01 -9.8027297712158E-01  1.7517513460363E+00
99  9.8000000000000E-01  1.3623686439512E-01 -9.9359175435275E-01  1.7013531104937E+00