Cm    ONCVPSP-4.0.1  r_core=   1.15013   1.20650   1.10296   1.15013
96.0000     36.0000      231012    zatom,zion,pspd
8 -116133   3     4   600     0    pspcod,pspxc,lmax,lloc,mmax,r2well
5.99000000  5.00000000  0.00000000    rchrg fchrg qchrg
3     2     2     2     0    nproj
1     1           extension_switch
0                         3.1682111613729E+01  3.5241105385415E+00 -3.8916825344513E-01
1  0.0000000000000E+00 -3.5881821958128E-08  1.2325816672876E-07  1.1870226346300E-07
2  1.0000000000000E-02  1.5231617117813E-01 -6.1869151556873E-02  1.2985007494709E-02
3  2.0000000000000E-02  3.0366167909349E-01 -1.2248939018095E-01  2.6369954072443E-02
4  3.0000000000000E-02  4.5307701979892E-01 -1.8063929729246E-01  4.0533927890067E-02
5  4.0000000000000E-02  5.9962473468147E-01 -2.3515154964533E-01  5.5815165021875E-02
6  5.0000000000000E-02  7.4239975981989E-01 -2.8493776767113E-01  7.2492715117564E-02
7  6.0000000000000E-02  8.8053899478853E-01 -3.2901081878911E-01  9.0770526717205E-02
8  7.0000000000000E-02  1.0132298752528E+00 -3.6650388026712E-01  1.1076461183455E-01
9  8.0000000000000E-02  1.1397177695832E+00 -3.9668568947628E-01  1.3249383071777E-01
10  9.0000000000000E-02  1.2593120618188E+00 -4.1897155404863E-01  1.5587469804521E-01
11  1.0000000000000E-01  1.3713908299667E+00 -4.3292985479135E-01  1.8072045654587E-01
12  1.1000000000000E-01  1.4754040779826E+00 -4.3828394390502E-01  2.0674449906303E-01
13  1.2000000000000E-01  1.5708755298850E+00 -4.3490951338199E-01  2.3356805170193E-01
14  1.3000000000000E-01  1.6574030433317E+00 -4.2282767662314E-01  2.6073186533350E-01
15  1.4000000000000E-01  1.7346577457068E+00 -4.0219416366276E-01  2.8771150667522E-01
16  1.5000000000000E-01  1.8023820365225E+00 -3.7328517073874E-01  3.1393569937765E-01
17  1.6000000000000E-01  1.8603866341497E+00 -3.3648052274977E-01  3.3880704538944E-01
18  1.7000000000000E-01  1.9085468712189E+00 -2.9224489779793E-01  3.6172436191848E-01
19  1.8000000000000E-01  1.9467984604688E+00 -2.4110792297488E-01  3.8210580318081E-01
20  1.9000000000000E-01  1.9751329607248E+00 -1.8364397750940E-01  3.9941190134610E-01
21  2.0000000000000E-01  1.9935931708023E+00 -1.2045253237051E-01  4.1316765896782E-01
22  2.1000000000000E-01  2.0022686675886E+00 -5.2139814780358E-02  4.2298285581752E-01
23  2.2000000000000E-01  2.0012916839053E+00  2.0697486431474E-02  4.2856979524756E-01
24  2.3000000000000E-01  1.9908334928940E+00  9.7485860109619E-02  4.2975780663105E-01
25  2.4000000000000E-01  1.9711014298524E+00  1.7768546828193E-01  4.2650393758308E-01
26  2.5000000000000E-01  1.9423366412047E+00  2.6079715515450E-01  4.1889940812066E-01
27  2.6000000000000E-01  1.9048126053895E+00  3.4636578609445E-01  4.0717155340291E-01
28  2.7000000000000E-01  1.8588344237990E+00  4.3397989941849E-01  3.9168114636794E-01
29  2.8000000000000E-01  1.8047388335006E+00  5.2326782037471E-01  3.7291516021420E-01
30  2.9000000000000E-01  1.7428948493120E+00  6.1389054670130E-01  3.5147519690350E-01
31  3.0000000000000E-01  1.6737049027900E+00  7.0553186197522E-01  3.2806196542583E-01
32  3.1000000000000E-01  1.5976063115745E+00  7.9788626057766E-01  3.0345633656700E-01
33  3.2000000000000E-01  1.5150728858200E+00  8.9064537118018E-01  2.7849762400733E-01
34  3.3000000000000E-01  1.4266164603647E+00  9.8348363988462E-01  2.5405984020565E-01
35  3.4000000000000E-01  1.3327881326942E+00  1.0760440763483E+00  2.3102674606903E-01
36  3.5000000000000E-01  1.2341789881448E+00  1.1679248745169E+00  2.1026655334990E-01
37  3.6000000000000E-01  1.1314201052373E+00  1.2586676934363E+00  1.9260714669757E-01
38  3.7000000000000E-01  1.0251816551954E+00  1.3477483239051E+00  1.7881266819744E-01
39  3.8000000000000E-01  9.1617093985494E-01  1.4345703756735E+00  1.6956225215638E-01
40  3.9000000000000E-01  8.0512925019841E-01  1.5184625010106E+00  1.6543161411296E-01
41  4.0000000000000E-01  6.9282747220718E-01  1.5986795283795E+00  1.6687808893185E-01
42  4.1000000000000E-01  5.8006041590459E-01  1.6744077202825E+00  1.7422958268219E-01
43  4.2000000000000E-01  4.6763989542859E-01  1.7447741983949E+00  1.8767775689447E-01
44  4.3000000000000E-01  3.5638664067341E-01  1.8088604037151E+00  2.0727560739688E-01
45  4.4000000000000E-01  2.4712117236476E-01  1.8657192866334E+00  2.3293943926021E-01
46  4.5000000000000E-01  1.4065382030664E-01  1.9143957585310E+00  2.6445508056847E-01
47  4.6000000000000E-01  3.7774107005602E-02  1.9539497893547E+00  3.0148802678010E-01
48  4.7000000000000E-01 -6.0760245824620E-02  1.9834814105796E+00  3.4359707001605E-01
49  4.8000000000000E-01 -1.5423440373735E-01  2.0021567851798E+00  3.9025084877480E-01
50  4.9000000000000E-01 -2.4198729805869E-01  2.0092344397853E+00  4.4084665766223E-01
51  5.0000000000000E-01 -3.2342198928316E-01  2.0040907219124E+00  4.9473078710070E-01
52  5.1000000000000E-01 -3.9801521302411E-01  1.9862435485569E+00  5.5121962200494E-01
53  5.2000000000000E-01 -4.6532582193613E-01  1.9553735515886E+00  6.0962071724834E-01
54  5.3000000000000E-01 -5.2500186326222E-01  1.9113417990104E+00  6.6925308645105E-01
55  5.4000000000000E-01 -5.7678606748989E-01  1.8542033765237E+00  7.2946598802717E-01
56  5.5000000000000E-01 -6.2051956777993E-01  1.7842162470870E+00  7.8965556631737E-01
57  5.6000000000000E-01 -6.5614372077683E-01  1.7018449622156E+00  8.4927880273302E-01
58  5.7000000000000E-01 -6.8369995528171E-01  1.6077589717471E+00  9.0786434804910E-01
59  5.8000000000000E-01 -7.0332763403180E-01  1.5028254620946E+00  9.6501993747425E-01
60  5.9000000000000E-01 -7.1525997334480E-01  1.3880968396782E+00  1.0204362296082E+00
61  6.0000000000000E-01 -7.1981812348167E-01  1.2647931591529E+00  1.0738870532693E+00
62  6.1000000000000E-01 -7.1740356714730E-01  1.1342799683354E+00  1.1252261868017E+00
63  6.2000000000000E-01 -7.0848904262233E-01  9.9804219687877E-01  1.1743809273881E+00
64  6.3000000000000E-01 -6.9360823984870E-01  8.5765484797257E-01  1.2213428280153E+00
65  6.4000000000000E-01 -6.7334455091990E-01  7.1475135680092E-01  1.2661560825759E+00
66  6.5000000000000E-01 -6.4831917973720E-01  5.7099055242191E-01  1.3089041214063E+00
67  6.6000000000000E-01 -6.1917892835081E-01  4.2802319864704E-01  1.3496950375218E+00
68  6.7000000000000E-01 -5.8658397939299E-01  2.8745909326501E-01  1.3886464960733E+00
69  6.8000000000000E-01 -5.5119598512499E-01  1.5083567379665E-01  1.4258707853451E+00
70  6.9000000000000E-01 -5.1366675447486E-01  1.9589013498010E-02  1.4614606472182E+00
71  7.0000000000000E-01 -4.7462780093803E-01 -1.0497200357634E-01  1.4954764797931E+00
72  7.1000000000000E-01 -4.3468097759520E-01 -2.2168766092876E-01  1.5279354370890E+00
73  7.2000000000000E-01 -3.9439038231022E-01 -3.2956501654287E-01  1.5588028635973E+00
74  7.3000000000000E-01 -3.5427566818110E-01 -4.2779077175785E-01  1.5879863988499E+00
75  7.4000000000000E-01 -3.1480684344003E-01 -5.1573920299438E-01  1.6153329734929E+00
76  7.5000000000000E-01 -2.7640059324334E-01 -5.9297512742190E-01  1.6406287984340E+00
77  7.6000000000000E-01 -2.3941810514060E-01 -6.5925203996816E-01  1.6636023273942E+00
78  7.7000000000000E-01 -2.0416433236141E-01 -7.1450571521637E-01  1.6839300555152E+00
79  7.8000000000000E-01 -1.7088858615107E-01 -7.5884370792497E-01  1.7012449072047E+00
80  7.9000000000000E-01 -1.3978631171926E-01 -7.9253130513962E-01  1.7151468693257E+00
81  8.0000000000000E-01 -1.1100187315092E-01 -8.1597457708419E-01  1.7252154447410E+00
82  8.1000000000000E-01 -8.4632151746512E-02 -8.2970124023392E-01  1.7310234389721E+00
83  8.2000000000000E-01 -6.0730750219636E-02 -8.3434008243274E-01  1.7321515513336E+00
84  8.3000000000000E-01 -3.9312592119988E-02 -8.3059970609087E-01  1.7282032224687E+00
85  8.4000000000000E-01 -2.0358711529681E-02 -8.1924732211143E-01  1.7188191929340E+00
86  8.5000000000000E-01 -3.8210419010215E-03 -8.0108827616790E-01  1.7036912516305E+00
87  8.6000000000000E-01  1.0372966053599E-02 -7.7694691327515E-01  1.6825746968755E+00
88  8.7000000000000E-01  2.2316040443001E-02 -7.4764929020127E-01  1.6552990944188E+00
89  8.8000000000000E-01  3.2117209597619E-02 -7.1400813282312E-01  1.6217769927253E+00
90  8.9000000000000E-01  3.9898425420582E-02 -6.7681031223971E-01  1.5820103428998E+00
91  9.0000000000000E-01  4.5791729209270E-02 -6.3680698480918E-01  1.5360944648854E+00
92  9.1000000000000E-01  4.9936964614510E-02 -5.9470641281142E-01  1.4842194990430E+00
93  9.2000000000000E-01  5.2480008393804E-02 -5.5116935949318E-01  1.4266693789547E+00
94  9.3000000000000E-01  5.3571458902147E-02 -5.0680683977429E-01  1.3638184534804E+00
95  9.4000000000000E-01  5.3365696089635E-02 -4.6217991013354E-01  1.2961259703364E+00
96  9.5000000000000E-01  5.2020206156908E-02 -4.1780110170316E-01  1.2241287067557E+00
97  9.6000000000000E-01  4.9695049664258E-02 -3.7413704191301E-01  1.1484320927952E+00
98  9.7000000000000E-01  4.6552344205212E-02 -3.3161177370157E-01  1.0697002178820E+00
99  9.8000000000000E-01  4.2755631820350E-02 -2.9061026784191E-01  9.8864514026337E-01
100  9.9000000000000E-01  3.8469006901567E-02 -2.5148163274124E-01  9.0601593194694E-01
101  1.0000000000000E+00  3.3855891889419E-02 -2.1454155563935E-01  8.2258788893931E-01
102  1.0100000000000E+00  2.9077364784241E-02 -1.8007355697604E-01  7.3915231930587E-01
103  1.0200000000000E+00  2.4289963340928E-02 -1.4832870260345E-01  6.5650729152571E-01
104  1.0300000000000E+00  1.9642914635667E-02 -1.1952349281444E-01  5.7544968495776E-01
105  1.0400000000000E+00  1.5274764130788E-02 -9.3835728537797E-02  4.9676883560648E-01
106  1.0500000000000E+00  1.1309404099802E-02 -7.1398239247670E-02  4.2124201652540E-01
107  1.0600000000000E+00  7.8515260230149E-03 -5.2290439984825E-02  3.4963193585545E-01
108  1.0700000000000E+00  4.9815440092316E-03 -3.6527762064795E-02  2.8268637961746E-01
109  1.0800000000000E+00  2.7499430918989E-03 -2.4048732468110E-02  2.2114009539523E-01
110  1.0900000000000E+00  1.1719556038925E-03 -1.4702344779641E-02  1.6571878576687E-01
111  1.1000000000000E+00  1.7132161162852E-04 -8.0803010623249E-03  1.1715345465087E-01
112  1.1100000000000E+00 -3.9375819257692E-04 -3.5943581276173E-03  7.6177608442077E-02
113  1.1200000000000E+00 -5.5524030588114E-04 -1.0195312970435E-03  4.3466463267181E-02
114  1.1300000000000E+00 -4.1756595444008E-04  4.2035226926092E-05  1.9591668524970E-02
115  1.1400000000000E+00 -1.5223107605121E-04  1.4548212356328E-04  4.9644654626945E-03
116  1.1500000000000E+00 -4.6341223477387E-07  5.9595491768382E-07  1.2414928765405E-05
117  1.1600000000000E+00 -1.3357242479671E-06  1.8141678101087E-06  3.4352817508163E-05
118  1.1700000000000E+00  8.0795897805538E-08 -9.3299293938960E-08 -2.3584339392717E-06
119  1.18  0.  0.  0.
120  1.19  0.  0.  0.
121  1.20  0.  0.  0.
122  1.21  0.  0.  0.
123  1.22  0.  0.  0.
124  1.23  0.  0.  0.
125  1.24  0.  0.  0.
126  1.25  0.  0.  0.
127  1.26  0.  0.  0.
128  1.27  0.  0.  0.
129  1.28  0.  0.  0.
130  1.29  0.  0.  0.
131  1.30  0.  0.  0.
132  1.31  0.  0.  0.
133  1.32  0.  0.  0.
134  1.33  0.  0.  0.
135  1.34  0.  0.  0.
136  1.35  0.  0.  0.
137  1.36  0.  0.  0.
138  1.37  0.  0.  0.
139  1.38  0.  0.  0.
140  1.39  0.  0.  0.
141  1.40  0.  0.  0.
142  1.41  0.  0.  0.
143  1.42  0.  0.  0.
144  1.43  0.  0.  0.
145  1.44  0.  0.  0.
146  1.45  0.  0.  0.
147  1.46  0.  0.  0.
148  1.47  0.  0.  0.
149  1.48  0.  0.  0.
150  1.49  0.  0.  0.
151  1.50  0.  0.  0.
152  1.51  0.  0.  0.
153  1.52  0.  0.  0.
154  1.53  0.  0.  0.
155  1.54  0.  0.  0.
156  1.55  0.  0.  0.
157  1.56  0.  0.  0.
158  1.57  0.  0.  0.
159  1.58  0.  0.  0.
160  1.59  0.  0.  0.
161  1.60  0.  0.  0.
162  1.61  0.  0.  0.
163  1.62  0.  0.  0.
164  1.63  0.  0.  0.
165  1.64  0.  0.  0.
166  1.65  0.  0.  0.
167  1.66  0.  0.  0.
168  1.67  0.  0.  0.
169  1.68  0.  0.  0.
170  1.69  0.  0.  0.
171  1.70  0.  0.  0.
172  1.71  0.  0.  0.
173  1.72  0.  0.  0.
174  1.73  0.  0.  0.
175  1.74  0.  0.  0.
176  1.75  0.  0.  0.
177  1.76  0.  0.  0.
178  1.77  0.  0.  0.
179  1.78  0.  0.  0.
180  1.79  0.  0.  0.
181  1.80  0.  0.  0.
182  1.81  0.  0.  0.
183  1.82  0.  0.  0.
184  1.83  0.  0.  0.
185  1.84  0.  0.  0.
186  1.85  0.  0.  0.
187  1.86  0.  0.  0.
188  1.87  0.  0.  0.
189  1.88  0.  0.  0.
190  1.89  0.  0.  0.
191  1.90  0.  0.  0.
192  1.91  0.  0.  0.
193  1.92  0.  0.  0.
194  1.93  0.  0.  0.
195  1.94  0.  0.  0.
196  1.95  0.  0.  0.
197  1.96  0.  0.  0.
198  1.97  0.  0.  0.
199  1.98  0.  0.  0.
200  1.99  0.  0.  0.
201  2.00  0.  0.  0.
202  2.01  0.  0.  0.
203  2.02  0.  0.  0.
204  2.03  0.  0.  0.
205  2.04  0.  0.  0.
206  2.05  0.  0.  0.
207  2.06  0.  0.  0.
208  2.07  0.  0.  0.
209  2.08  0.  0.  0.
210  2.09  0.  0.  0.
211  2.10  0.  0.  0.
212  2.11  0.  0.  0.
213  2.12  0.  0.  0.
214  2.13  0.  0.  0.
215  2.14  0.  0.  0.
216  2.15  0.  0.  0.
217  2.16  0.  0.  0.
218  2.17  0.  0.  0.
219  2.18  0.  0.  0.
220  2.19  0.  0.  0.
221  2.20  0.  0.  0.
222  2.21  0.  0.  0.
223  2.22  0.  0.  0.
224  2.23  0.  0.  0.
225  2.24  0.  0.  0.
226  2.25  0.  0.  0.
227  2.26  0.  0.  0.
228  2.27  0.  0.  0.
229  2.28  0.  0.  0.
230  2.29  0.  0.  0.
231  2.30  0.  0.  0.
232  2.31  0.  0.  0.
233  2.32  0.  0.  0.
234  2.33  0.  0.  0.
235  2.34  0.  0.  0.
236  2.35  0.  0.  0.
237  2.36  0.  0.  0.
238  2.37  0.  0.  0.
239  2.38  0.  0.  0.
240  2.39  0.  0.  0.
241  2.40  0.  0.  0.
242  2.41  0.  0.  0.
243  2.42  0.  0.  0.
244  2.43  0.  0.  0.
245  2.44  0.  0.  0.
246  2.45  0.  0.  0.
247  2.46  0.  0.  0.
248  2.47  0.  0.  0.
249  2.48  0.  0.  0.
250  2.49  0.  0.  0.
251  2.50  0.  0.  0.
252  2.51  0.  0.  0.
253  2.52  0.  0.  0.
254  2.53  0.  0.  0.
255  2.54  0.  0.  0.
256  2.55  0.  0.  0.
257  2.56  0.  0.  0.
258  2.57  0.  0.  0.
259  2.58  0.  0.  0.
260  2.59  0.  0.  0.
261  2.60  0.  0.  0.
262  2.61  0.  0.  0.
263  2.62  0.  0.  0.
264  2.63  0.  0.  0.
265  2.64  0.  0.  0.
266  2.65  0.  0.  0.
267  2.66  0.  0.  0.
268  2.67  0.  0.  0.
269  2.68  0.  0.  0.
270  2.69  0.  0.  0.
271  2.70  0.  0.  0.
272  2.71  0.  0.  0.
273  2.72  0.  0.  0.
274  2.73  0.  0.  0.
275  2.74  0.  0.  0.
276  2.75  0.  0.  0.
277  2.76  0.  0.  0.
278  2.77  0.  0.  0.
279  2.78  0.  0.  0.
280  2.79  0.  0.  0.
281  2.80  0.  0.  0.
282  2.81  0.  0.  0.
283  2.82  0.  0.  0.
284  2.83  0.  0.  0.
285  2.84  0.  0.  0.
286  2.85  0.  0.  0.
287  2.86  0.  0.  0.
288  2.87  0.  0.  0.
289  2.88  0.  0.  0.
290  2.89  0.  0.  0.
291  2.90  0.  0.  0.
292  2.91  0.  0.  0.
293  2.92  0.  0.  0.
294  2.93  0.  0.  0.
295  2.94  0.  0.  0.
296  2.95  0.  0.  0.
297  2.96  0.  0.  0.
298  2.97  0.  0.  0.
299  2.98  0.  0.  0.
300  2.99  0.  0.  0.
301  3.00  0.  0.  0.
302  3.01  0.  0.  0.
303  3.02  0.  0.  0.
304  3.03  0.  0.  0.
305  3.04  0.  0.  0.
306  3.05  0.  0.  0.
307  3.06  0.  0.  0.
308  3.07  0.  0.  0.
309  3.08  0.  0.  0.
310  3.09  0.  0.  0.
311  3.10  0.  0.  0.
312  3.11  0.  0.  0.
313  3.12  0.  0.  0.
314  3.13  0.  0.  0.
315  3.14  0.  0.  0.
316  3.15  0.  0.  0.
317  3.16  0.  0.  0.
318  3.17  0.  0.  0.
319  3.18  0.  0.  0.
320  3.19  0.  0.  0.
321  3.20  0.  0.  0.
322  3.21  0.  0.  0.
323  3.22  0.  0.  0.
324  3.23  0.  0.  0.
325  3.24  0.  0.  0.
326  3.25  0.  0.  0.
327  3.26  0.  0.  0.
328  3.27  0.  0.  0.
329  3.28  0.  0.  0.
330  3.29  0.  0.  0.
331  3.30  0.  0.  0.
332  3.31  0.  0.  0.
333  3.32  0.  0.  0.
334  3.33  0.  0.  0.
335  3.34  0.  0.  0.
336  3.35  0.  0.  0.
337  3.36  0.  0.  0.
338  3.37  0.  0.  0.
339  3.38  0.  0.  0.
340  3.39  0.  0.  0.
341  3.40  0.  0.  0.
342  3.41  0.  0.  0.
343  3.42  0.  0.  0.
344  3.43  0.  0.  0.
345  3.44  0.  0.  0.
346  3.45  0.  0.  0.
347  3.46  0.  0.  0.
348  3.47  0.  0.  0.
349  3.48  0.  0.  0.
350  3.49  0.  0.  0.
351  3.50  0.  0.  0.
352  3.51  0.  0.  0.
353  3.52  0.  0.  0.
354  3.53  0.  0.  0.
355  3.54  0.  0.  0.
356  3.55  0.  0.  0.
357  3.56  0.  0.  0.
358  3.57  0.  0.  0.
359  3.58  0.  0.  0.
360  3.59  0.  0.  0.
361  3.60  0.  0.  0.
362  3.61  0.  0.  0.
363  3.62  0.  0.  0.
364  3.63  0.  0.  0.
365  3.64  0.  0.  0.
366  3.65  0.  0.  0.
367  3.66  0.  0.  0.
368  3.67  0.  0.  0.
369  3.68  0.  0.  0.
370  3.69  0.  0.  0.
371  3.70  0.  0.  0.
372  3.71  0.  0.  0.
373  3.72  0.  0.  0.
374  3.73  0.  0.  0.
375  3.74  0.  0.  0.
376  3.75  0.  0.  0.
377  3.76  0.  0.  0.
378  3.77  0.  0.  0.
379  3.78  0.  0.  0.
380  3.79  0.  0.  0.
381  3.80  0.  0.  0.
382  3.81  0.  0.  0.
383  3.82  0.  0.  0.
384  3.83  0.  0.  0.
385  3.84  0.  0.  0.
386  3.85  0.  0.  0.
387  3.86  0.  0.  0.
388  3.87  0.  0.  0.
389  3.88  0.  0.  0.
390  3.89  0.  0.  0.
391  3.90  0.  0.  0.
392  3.91  0.  0.  0.
393  3.92  0.  0.  0.
394  3.93  0.  0.  0.
395  3.94  0.  0.  0.
396  3.95  0.  0.  0.
397  3.96  0.  0.  0.
398  3.97  0.  0.  0.
399  3.98  0.  0.  0.
400  3.99  0.  0.  0.
401  4.00  0.  0.  0.
402  4.01  0.  0.  0.
403  4.02  0.  0.  0.
404  4.03  0.  0.  0.
405  4.04  0.  0.  0.
406  4.05  0.  0.  0.
407  4.06  0.  0.  0.
408  4.07  0.  0.  0.
409  4.08  0.  0.  0.
410  4.09  0.  0.  0.
411  4.10  0.  0.  0.
412  4.11  0.  0.  0.
413  4.12  0.  0.  0.
414  4.13  0.  0.  0.
415  4.14  0.  0.  0.
416  4.15  0.  0.  0.
417  4.16  0.  0.  0.
418  4.17  0.  0.  0.
419  4.18  0.  0.  0.
420  4.19  0.  0.  0.
421  4.20  0.  0.  0.
422  4.21  0.  0.  0.
423  4.22  0.  0.  0.
424  4.23  0.  0.  0.
425  4.24  0.  0.  0.
426  4.25  0.  0.  0.
427  4.26  0.  0.  0.
428  4.27  0.  0.  0.
429  4.28  0.  0.  0.
430  4.29  0.  0.  0.
431  4.30  0.  0.  0.
432  4.31  0.  0.  0.
433  4.32  0.  0.  0.
434  4.33  0.  0.  0.
435  4.34  0.  0.  0.
436  4.35  0.  0.  0.
437  4.36  0.  0.  0.
438  4.37  0.  0.  0.
439  4.38  0.  0.  0.
440  4.39  0.  0.  0.
441  4.40  0.  0.  0.
442  4.41  0.  0.  0.
443  4.42  0.  0.  0.
444  4.43  0.  0.  0.
445  4.44  0.  0.  0.
446  4.45  0.  0.  0.
447  4.46  0.  0.  0.
448  4.47  0.  0.  0.
449  4.48  0.  0.  0.
450  4.49  0.  0.  0.
451  4.50  0.  0.  0.
452  4.51  0.  0.  0.
453  4.52  0.  0.  0.
454  4.53  0.  0.  0.
455  4.54  0.  0.  0.
456  4.55  0.  0.  0.
457  4.56  0.  0.  0.
458  4.57  0.  0.  0.
459  4.58  0.  0.  0.
460  4.59  0.  0.  0.
461  4.60  0.  0.  0.
462  4.61  0.  0.  0.
463  4.62  0.  0.  0.
464  4.63  0.  0.  0.
465  4.64  0.  0.  0.
466  4.65  0.  0.  0.
467  4.66  0.  0.  0.
468  4.67  0.  0.  0.
469  4.68  0.  0.  0.
470  4.69  0.  0.  0.
471  4.70  0.  0.  0.
472  4.71  0.  0.  0.
473  4.72  0.  0.  0.
474  4.73  0.  0.  0.
475  4.74  0.  0.  0.
476  4.75  0.  0.  0.
477  4.76  0.  0.  0.
478  4.77  0.  0.  0.
479  4.78  0.  0.  0.
480  4.79  0.  0.  0.
481  4.80  0.  0.  0.
482  4.81  0.  0.  0.
483  4.82  0.  0.  0.
484  4.83  0.  0.  0.
485  4.84  0.  0.  0.
486  4.85  0.  0.  0.
487  4.86  0.  0.  0.
488  4.87  0.  0.  0.
489  4.88  0.  0.  0.
490  4.89  0.  0.  0.
491  4.90  0.  0.  0.
492  4.91  0.  0.  0.
493  4.92  0.  0.  0.
494  4.93  0.  0.  0.
495  4.94  0.  0.  0.
496  4.95  0.  0.  0.
497  4.96  0.  0.  0.
498  4.97  0.  0.  0.
499  4.98  0.  0.  0.
500  4.99  0.  0.  0.
501  5.00  0.  0.  0.
502  5.01  0.  0.  0.
503  5.02  0.  0.  0.
504  5.03  0.  0.  0.
505  5.04  0.  0.  0.
506  5.05  0.  0.  0.
507  5.06  0.  0.  0.
508  5.07  0.  0.  0.
509  5.08  0.  0.  0.
510  5.09  0.  0.  0.
511  5.10  0.  0.  0.
512  5.11  0.  0.  0.
513  5.12  0.  0.  0.
514  5.13  0.  0.  0.
515  5.14  0.  0.  0.
516  5.15  0.  0.  0.
517  5.16  0.  0.  0.
518  5.17  0.  0.  0.
519  5.18  0.  0.  0.
520  5.19  0.  0.  0.
521  5.20  0.  0.  0.
522  5.21  0.  0.  0.
523  5.22  0.  0.  0.
524  5.23  0.  0.  0.
525  5.24  0.  0.  0.
526  5.25  0.  0.  0.
527  5.26  0.  0.  0.
528  5.27  0.  0.  0.
529  5.28  0.  0.  0.
530  5.29  0.  0.  0.
531  5.30  0.  0.  0.
532  5.31  0.  0.  0.
533  5.32  0.  0.  0.
534  5.33  0.  0.  0.
535  5.34  0.  0.  0.
536  5.35  0.  0.  0.
537  5.36  0.  0.  0.
538  5.37  0.  0.  0.
539  5.38  0.  0.  0.
540  5.39  0.  0.  0.
541  5.40  0.  0.  0.
542  5.41  0.  0.  0.
543  5.42  0.  0.  0.
544  5.43  0.  0.  0.
545  5.44  0.  0.  0.
546  5.45  0.  0.  0.
547  5.46  0.  0.  0.
548  5.47  0.  0.  0.
549  5.48  0.  0.  0.
550  5.49  0.  0.  0.
551  5.50  0.  0.  0.
552  5.51  0.  0.  0.
553  5.52  0.  0.  0.
554  5.53  0.  0.  0.
555  5.54  0.  0.  0.
556  5.55  0.  0.  0.
557  5.56  0.  0.  0.
558  5.57  0.  0.  0.
559  5.58  0.  0.  0.
560  5.59  0.  0.  0.
561  5.60  0.  0.  0.
562  5.61  0.  0.  0.
563  5.62  0.  0.  0.
564  5.63  0.  0.  0.
565  5.64  0.  0.  0.
566  5.65  0.  0.  0.
567  5.66  0.  0.  0.
568  5.67  0.  0.  0.
569  5.68  0.  0.  0.
570  5.69  0.  0.  0.
571  5.70  0.  0.  0.
572  5.71  0.  0.  0.
573  5.72  0.  0.  0.
574  5.73  0.  0.  0.
575  5.74  0.  0.  0.
576  5.75  0.  0.  0.
577  5.76  0.  0.  0.
578  5.77  0.  0.  0.
579  5.78  0.  0.  0.
580  5.79  0.  0.  0.
581  5.80  0.  0.  0.
582  5.81  0.  0.  0.
583  5.82  0.  0.  0.
584  5.83  0.  0.  0.
585  5.84  0.  0.  0.
586  5.85  0.  0.  0.
587  5.86  0.  0.  0.
588  5.87  0.  0.  0.
589  5.88  0.  0.  0.
590  5.89  0.  0.  0.
591  5.90  0.  0.  0.
592  5.91  0.  0.  0.
593  5.92  0.  0.  0.
594  5.93  0.  0.  0.
595  5.94  0.  0.  0.
596  5.95  0.  0.  0.
597  5.96  0.  0.  0.
598  5.97  0.  0.  0.
599  5.98  0.  0.  0.
600  5.99  0.  0.  0.
1                         6.3992804624480E+00 -3.2071211961971E+00
1  0.0000000000000E+00  1.1298425195427E-08  4.3593630427718E-08
2  1.0000000000000E-02  2.8958803936212E-03 -2.7601130665178E-03
3  2.0000000000000E-02  1.1560718644654E-02 -1.1028082279820E-02
4  3.0000000000000E-02  2.5926410285434E-02 -2.4766207055553E-02
5  4.0000000000000E-02  4.5880454847048E-02 -4.3909714753135E-02
6  5.0000000000000E-02  7.1267440556306E-02 -6.8363958514164E-02
7  6.0000000000000E-02  1.0189107220058E-01 -9.8000700902410E-02
8  7.0000000000000E-02  1.3751669335135E-01 -1.3265368079080E-01
9  8.0000000000000E-02  1.7787424283880E-01 -1.7211370453449E-01
10  9.0000000000000E-02  2.2266157593732E-01 -2.1612353705126E-01
11  1.0000000000000E-01  2.7154807344150E-01 -2.6437289264656E-01
12  1.1000000000000E-01  3.2417845690071E-01 -3.1649383826921E-01
13  1.2000000000000E-01  3.8017672587670E-01 -3.7205692275375E-01
14  1.3000000000000E-01  4.3915013324923E-01 -4.3056833430059E-01
15  1.4000000000000E-01  5.0069311729300E-01 -4.9146836518884E-01
16  1.5000000000000E-01  5.6439111437415E-01 -5.5413142815259E-01
17  1.6000000000000E-01  6.2982418347655E-01 -6.1786782401962E-01
18  1.7000000000000E-01  6.9657038310332E-01 -6.8192740652185E-01
19  1.8000000000000E-01  7.6420885207865E-01 -7.4550522936742E-01
20  1.9000000000000E-01  8.3232255801603E-01 -8.0774919471480E-01
21  2.0000000000000E-01  9.0050069029669E-01 -8.6776965330707E-01
22  2.1000000000000E-01  9.6834068786482E-01 -9.2465083703876E-01
23  2.2000000000000E-01  1.0354499055273E+00 -9.7746393702117E-01
24  2.3000000000000E-01  1.1014469352856E+00 -1.0252815766369E+00
25  2.4000000000000E-01  1.1659626110803E+00 -1.0671933718806E+00
26  2.5000000000000E-01  1.2286407357860E+00 -1.1023222225351E+00
27  2.6000000000000E-01  1.2891385779933E+00 -1.1298409392368E+00
28  2.7000000000000E-01  1.3471271927516E+00 -1.1489887847400E+00
29  2.8000000000000E-01  1.4022916247926E+00 -1.1590874938038E+00
30  2.9000000000000E-01  1.4543310546541E+00 -1.1595563358156E+00
31  3.0000000000000E-01  1.5029589475139E+00 -1.1499257977786E+00
32  3.1000000000000E-01  1.5479032614371E+00 -1.1298494924381E+00
33  3.2000000000000E-01  1.5889067662590E+00 -1.0991139364486E+00
34  3.3000000000000E-01  1.6257275166456E+00 -1.0576458954853E+00
35  3.4000000000000E-01  1.6581395132876E+00 -1.0055170555882E+00
36  3.5000000000000E-01  1.6859335750174E+00 -9.4294585090996E-01
37  3.6000000000000E-01  1.7089184323091E+00 -8.7029635525090E-01
38  3.7000000000000E-01  1.7269220395717E+00 -7.8807422588500E-01
39  3.8000000000000E-01  1.7397930903578E+00 -6.9691977063648E-01
40  3.9000000000000E-01  1.7474027065843E+00 -5.9759829030072E-01
41  4.0000000000000E-01  1.7496462605868E+00 -4.9098792568072E-01
42  4.1000000000000E-01  1.7464452777872E+00 -3.7806530918814E-01
43  4.2000000000000E-01  1.7377493583778E+00 -2.5988938278669E-01
44  4.3000000000000E-01  1.7235380491091E+00 -1.3758379495182E-01
45  4.4000000000000E-01  1.7038225913297E+00 -1.2318327546346E-02
46  4.5000000000000E-01  1.6786474691097E+00  1.1471017226869E-01
47  4.6000000000000E-01  1.6480916817415E+00  2.4229687063052E-01
48  4.7000000000000E-01  1.6122696682123E+00  3.6924755755313E-01
49  4.8000000000000E-01  1.5713318173395E+00  4.9439633203830E-01
50  4.9000000000000E-01  1.5254645060275E+00  6.1662193985507E-01
51  5.0000000000000E-01  1.4748896192896E+00  7.3486239108253E-01
52  5.1000000000000E-01  1.4198635189778E+00  8.4812754524769E-01
53  5.2000000000000E-01  1.3606754431591E+00  9.5550942238873E-01
54  5.3000000000000E-01  1.2976453342999E+00  1.0561900762727E+00
55  5.4000000000000E-01  1.2311211113518E+00  1.1494469486513E+00
56  5.5000000000000E-01  1.1614754178999E+00  1.2346557080278E+00
57  5.6000000000000E-01  1.0891018951741E+00  1.3112906600101E+00
58  5.7000000000000E-01  1.0144110443473E+00  1.3789228960298E+00
59  5.8000000000000E-01  9.3782575660677E-01  1.4372164202174E+00
60  5.9000000000000E-01  8.5977660146802E-01  1.4859225579418E+00
61  6.0000000000000E-01  7.8069697326204E-01  1.5248730016581E+00
62  6.1000000000000E-01  7.0101820227666E-01  1.5539718883582E+00
63  6.2000000000000E-01  6.2116474040399E-01  1.5731873266255E+00
64  6.3000000000000E-01  5.4154953114332E-01  1.5825427991326E+00
65  6.4000000000000E-01  4.6256967036732E-01  1.5821088579977E+00
66  6.5000000000000E-01  3.8460245742197E-01  1.5719955059345E+00
67  6.6000000000000E-01  3.0800192605381E-01  1.5523456163526E+00
68  6.7000000000000E-01  2.3309593161670E-01  1.5233296918320E+00
69  6.8000000000000E-01  1.6018385537580E-01  1.4851421945369E+00
70  6.9000000000000E-01  8.9534968974093E-02  1.4379996064871E+00
71  7.0000000000000E-01  2.1387482799976E-02  1.3821402948382E+00
72  7.1000000000000E-01 -4.4051718289568E-02  1.3178261704619E+00
73  7.2000000000000E-01 -1.0660666902877E-01  1.2453460403315E+00
74  7.3000000000000E-01 -1.6613128494643E-01  1.1650204688123E+00
75  7.4000000000000E-01 -2.2250774725786E-01  1.0772078831596E+00
76  7.5000000000000E-01 -2.7564438548395E-01  9.8231158746609E-01
77  7.6000000000000E-01 -3.2547314704181E-01  8.8078728982104E-01
78  7.7000000000000E-01 -3.7194675543623E-01  7.7315070202966E-01
79  7.8000000000000E-01 -4.1503566780017E-01  6.5998474193330E-01
80  7.9000000000000E-01 -4.5472494804515E-01  5.4194585665751E-01
81  8.0000000000000E-01 -4.9101117356567E-01  4.1976899188849E-01
82  8.1000000000000E-01 -5.2389949119739E-01  2.9427075779060E-01
83  8.2000000000000E-01 -5.5340093199116E-01  1.6635038601103E-01
84  8.3000000000000E-01 -5.7953008450032E-01  3.6988133291981E-02
85  8.4000000000000E-01 -6.0230321298044E-01 -9.2759136187839E-02
86  8.5000000000000E-01 -6.2173689058260E-01 -2.2176536780198E-01
87  8.6000000000000E-01 -6.3784719880432E-01 -3.4884581064330E-01
88  8.7000000000000E-01 -6.5064952375833E-01 -4.7277055937591E-01
89  8.8000000000000E-01 -6.6015895790953E-01 -5.9228100338844E-01
90  8.9000000000000E-01 -6.6639129354753E-01 -7.0610893222391E-01
91  9.0000000000000E-01 -6.6936457216039E-01 -8.1299793974081E-01
92  9.1000000000000E-01 -6.6910113280872E-01 -9.1172667088148E-01
93  9.2000000000000E-01 -6.6563008329479E-01 -1.0011333679228E+00
94  9.3000000000000E-01 -6.5899010105676E-01 -1.0801411009872E+00
95  9.4000000000000E-01 -6.4923245688641E-01 -1.1477830132721E+00
96  9.5000000000000E-01 -6.3642414428116E-01 -1.2032268772740E+00
97  9.6000000000000E-01 -6.2065099087775E-01 -1.2457982459470E+00
98  9.7000000000000E-01 -6.0202062624013E-01 -1.2750014932590E+00
99  9.8000000000000E-01 -5.8066518240094E-01 -1.2905380722407E+00
100  9.9000000000000E-01 -5.5674360996469E-01 -1.2923213748944E+00
101  1.0000000000000E+00 -5.3044350309778E-01 -1.2804876559420E+00
102  1.0100000000000E+00 -5.0198234104621E-01 -1.2554025793660E+00
103  1.0200000000000E+00 -4.7160807148099E-01 -1.2176630602686E+00
104  1.0300000000000E+00 -4.3959898144654E-01 -1.1680942016658E+00
105  1.0400000000000E+00 -4.0626282427931E-01 -1.1077412624152E+00
106  1.0500000000000E+00 -3.7193519484789E-01 -1.0378567344879E+00
107  1.0600000000000E+00 -3.3697717009566E-01 -9.5988275106830E-01
108  1.0700000000000E+00 -3.0177225623313E-01 -8.7542918648056E-01
109  1.0800000000000E+00 -2.6672270731171E-01 -7.8624794080698E-01
110  1.0900000000000E+00 -2.3224530167214E-01 -6.9420402253769E-01
111  1.1000000000000E+00 -1.9876666788923E-01 -6.0124408827448E-01
112  1.1100000000000E+00 -1.6671812324180E-01 -5.0936258155851E-01
113  1.1200000000000E+00 -1.3652317608653E-01 -4.2053702971054E-01
114  1.1300000000000E+00 -1.0857877690980E-01 -3.3663598088732E-01
115  1.1400000000000E+00 -8.3247678810454E-02 -2.5937259769967E-01
116  1.1500000000000E+00 -6.0849659295572E-02 -1.9024567120408E-01
117  1.1600000000000E+00 -4.1632674104285E-02 -1.3036615945602E-01
118  1.1700000000000E+00 -2.5844176121467E-02 -8.0890095322378E-02
119  1.1800000000000E+00 -1.3690422435357E-02 -4.2745911562203E-02
120  1.1900000000000E+00 -5.3228712684843E-03 -1.6546735470671E-02
121  1.2000000000000E+00 -8.3607069909100E-04 -2.5824836711922E-03
122  1.2100000000000E+00  4.7785594309632E-05  1.4678358204019E-04
123  1.2200000000000E+00 -5.6497960752243E-06 -1.7396563911494E-05
124  1.23  0.  0.
125  1.24  0.  0.
126  1.25  0.  0.
127  1.26  0.  0.
128  1.27  0.  0.
129  1.28  0.  0.
130  1.29  0.  0.
131  1.30  0.  0.
132  1.31  0.  0.
133  1.32  0.  0.
134  1.33  0.  0.
135  1.34  0.  0.
136  1.35  0.  0.
137  1.36  0.  0.
138  1.37  0.  0.
139  1.38  0.  0.
140  1.39  0.  0.
141  1.40  0.  0.
142  1.41  0.  0.
143  1.42  0.  0.
144  1.43  0.  0.
145  1.44  0.  0.
146  1.45  0.  0.
147  1.46  0.  0.
148  1.47  0.  0.
149  1.48  0.  0.
150  1.49  0.  0.
151  1.50  0.  0.