Cf    ONCVPSP-4.0.1  r_core=   1.15394   1.15394   1.35621   1.35621
98.0000     38.0000      231012    zatom,zion,pspd
8 -116133   3     4   600     0    pspcod,pspxc,lmax,lloc,mmax,r2well
5.99000000  5.00000000  0.00000000    rchrg fchrg qchrg
3     2     2     2     0    nproj
1     1           extension_switch
0                         4.1921595907845E+01  1.7531151679413E+00 -1.0398413727264E+00
1  0.0000000000000E+00 -8.5066429456049E-09  8.7906087853362E-08 -1.5156653293547E-08
2  1.0000000000000E-02  1.6289392356370E-01 -9.3834641122215E-02  1.5668495381447E-02
3  2.0000000000000E-02  3.2478060956145E-01 -1.8621520145575E-01  3.1239353173578E-02
4  3.0000000000000E-02  4.8466074743669E-01 -2.7571073292810E-01  4.6616676050019E-02
5  4.0000000000000E-02  6.4155079059369E-01 -3.6093593749231E-01  6.1707980793098E-02
6  5.0000000000000E-02  7.9449061562035E-01 -4.4057247826437E-01  7.6425743713513E-02
7  6.0000000000000E-02  9.4255092077920E-01 -5.1338854191687E-01  9.0688764197861E-02
8  7.0000000000000E-02  1.0848402875004E+00 -5.7825617934836E-01  1.0442330515369E-01
9  8.0000000000000E-02  1.2205118371176E+00 -6.3416603955434E-01  1.1756398427838E-01
10  9.0000000000000E-02  1.3487694249816E+00 -6.8023921391447E-01  1.3005440727227E-01
11  1.0000000000000E-01  1.4688733249273E+00 -7.1573602023826E-01  1.4184755231756E-01
12  1.1000000000000E-01  1.5801453683806E+00 -7.4006167285290E-01  1.5290593322892E-01
13  1.2000000000000E-01  1.6819735136694E+00 -7.5276890155875E-01  1.6320158550686E-01
14  1.3000000000000E-01  1.7738158318641E+00 -7.5355769318149E-01  1.7271593397497E-01
15  1.4000000000000E-01  1.8552039052526E+00 -7.4227242974948E-01  1.8143961173971E-01
16  1.5000000000000E-01  1.9257456429580E+00 -7.1889678250602E-01  1.8937230700640E-01
17  1.6000000000000E-01  1.9851275248882E+00 -6.8354678718584E-01  1.9652271614326E-01
18  1.7000000000000E-01  2.0331162899410E+00 -6.3646257027547E-01  2.0290867788399E-01
19  1.8000000000000E-01  2.0695600870338E+00 -5.7799921634321E-01  2.0855755453769E-01
20  1.9000000000000E-01  2.0943891080582E+00 -5.0861726207772E-01  2.1350691167186E-01
21  2.0000000000000E-01  2.1076157203872E+00 -4.2887327369603E-01  2.1780552838761E-01
22  2.1000000000000E-01  2.1093341132731E+00 -3.3941091226604E-01  2.2151474673536E-01
23  2.2000000000000E-01  2.0997194677088E+00 -2.4095281879285E-01  2.2471014202432E-01
24  2.3000000000000E-01  2.0790266534741E+00 -1.3429356114357E-01  2.2748346697354E-01
25  2.4000000000000E-01  2.0475884506511E+00 -2.0293782473804E-02  2.2994479325425E-01
26  2.5000000000000E-01  2.0058132864077E+00  1.0012441918517E-01  2.3222474550049E-01
27  2.6000000000000E-01  1.9541824718804E+00  2.2598096256169E-01  2.3447669690869E-01
28  2.7000000000000E-01  1.8932469191168E+00  3.5624029669738E-01  2.3687877367589E-01
29  2.8000000000000E-01  1.8236233148051E+00  4.8981324600501E-01  2.3963549921505E-01
30  2.9000000000000E-01  1.7459897264093E+00  6.2555856047966E-01  2.4297889963875E-01
31  3.0000000000000E-01  1.6610806177601E+00  7.6228460908430E-01  2.4716889050294E-01
32  3.1000000000000E-01  1.5696812554101E+00  8.9875169499794E-01  2.5249277201000E-01
33  3.2000000000000E-01  1.4726214943298E+00  1.0336754853397E+00  2.5926367620999E-01
34  3.3000000000000E-01  1.3707689418233E+00  1.1657320332839E+00  2.6781783524307E-01
35  3.4000000000000E-01  1.2650215117531E+00  1.2935648266446E+00  2.7851057393865E-01
36  3.5000000000000E-01  1.1562993970054E+00  1.4157942247935E+00  2.9171097233272E-01
37  3.6000000000000E-01  1.0455365061659E+00  1.5310295473911E+00  3.0779519265979E-01
38  3.7000000000000E-01  9.3367143003917E-01  1.6378839573288E+00  3.2713851953461E-01
39  3.8000000000000E-01  8.2163802422649E-01  1.7349921412226E+00  3.5010621943255E-01
40  3.9000000000000E-01  7.1035571468819E-01  1.8210306394651E+00  3.7704338403053E-01
41  4.0000000000000E-01  6.0071965317536E-01  1.8947405208437E+00  4.0826397909672E-01
42  4.1000000000000E-01  4.9359086772080E-01  1.9549519411025E+00  4.4403937397085E-01
43  4.2000000000000E-01  3.8978656911692E-01  2.0006099779922E+00  4.8458667378125E-01
44  4.3000000000000E-01  2.9007078661263E-01  2.0308010045648E+00  5.3005721506665E-01
45  4.4000000000000E-01  1.9514551413443E-01  2.0447787546830E+00  5.8052561325698E-01
46  4.5000000000000E-01  1.0564255150639E-01  2.0419891561113E+00  6.3597976570937E-01
47  4.6000000000000E-01  2.2116222879638E-02  2.0220929623549E+00  6.9631221526029E-01
48  4.7000000000000E-01 -5.4962853463600E-02  1.9849852085681E+00  7.6131326560382E-01
49  4.8000000000000E-01 -1.2521278373555E-01  1.9308105517839E+00  8.3066621084441E-01
50  4.9000000000000E-01 -1.8834406532023E-01  1.8599736322488E+00  9.0394499747914E-01
51  5.0000000000000E-01 -2.4416178648923E-01  1.7731437098319E+00  9.8061457862639E-01
52  5.1000000000000E-01 -2.9256627452022E-01  1.6712529845717E+00  1.0600341489223E+00
53  5.2000000000000E-01 -3.3355214222869E-01  1.5554881990054E+00  1.1414633661042E+00
54  5.3000000000000E-01 -3.6720572089461E-01  1.4272753359522E+00  1.2240715743527E+00
55  5.4000000000000E-01 -3.9370090774453E-01  1.2882574614053E+00  1.3069499478928E+00
56  5.5000000000000E-01 -4.1329349729668E-01  1.1402660095985E+00  1.3891263743857E+00
57  5.6000000000000E-01 -4.2631410665037E-01  9.8528605668181E-01  1.4695827997744E+00
58  5.7000000000000E-01 -4.3315984382304E-01  8.2541637090957E-01  1.5472746630436E+00
59  5.8000000000000E-01 -4.3428490414059E-01  6.6282525087553E-01  1.6211519643636E+00
60  5.9000000000000E-01 -4.3019031115364E-01  4.9970335947656E-01  1.6901814366949E+00
61  6.0000000000000E-01 -4.2141304438681E-01  3.3821492108157E-01  1.7533692321974E+00
62  6.1000000000000E-01 -4.0851481539094E-01  1.8044876507474E-01  1.8097834933574E+00
63  6.2000000000000E-01 -3.9207076521874E-01  2.8370764190264E-02  1.8585761567269E+00
64  6.3000000000000E-01 -3.7265835998983E-01 -1.1622077363690E-01  1.8990033360106E+00
65  6.4000000000000E-01 -3.5084675631629E-01 -2.5173524842364E-01  1.9304436517120E+00
66  6.5000000000000E-01 -3.2718689498738E-01 -3.7682403996969E-01  1.9524139166503E+00
67  6.6000000000000E-01 -3.0220255970222E-01 -4.9040766340260E-01  1.9645816496419E+00
68  6.7000000000000E-01 -2.7638260834025E-01 -5.9169477697702E-01  1.9667739719796E+00
69  6.8000000000000E-01 -2.5017454807957E-01 -6.8019227032027E-01  1.9589825408224E+00
70  6.9000000000000E-01 -2.2397958367745E-01 -7.5570595914689E-01  1.9413642873742E+00
71  7.0000000000000E-01 -1.9814922170215E-01 -8.1833173884606E-01  1.9142378523629E+00
72  7.1000000000000E-01 -1.7298346389226E-01 -8.6843739347153E-01  1.8780757430210E+00
73  7.2000000000000E-01 -1.4873057171007E-01 -9.0663560661647E-01  1.8334923703642E+00
74  7.3000000000000E-01 -1.2558833318212E-01 -9.3374906421046E-01  1.7812282588248E+00
75  7.4000000000000E-01 -1.0370671395900E-01 -9.5076886392388E-01  1.7221308478963E+00
76  7.5000000000000E-01 -8.3191728792917E-02 -9.5880773957925E-01  1.6571324232856E+00
77  7.6000000000000E-01 -6.4110328864554E-02 -9.5904986034687E-01  1.5872258192497E+00
78  7.7000000000000E-01 -4.6496065989119E-02 -9.5269916324443E-01  1.5134386208525E+00
79  7.8000000000000E-01 -3.0355267920547E-02 -9.4092831461318E-01  1.4368066618232E+00
80  7.9000000000000E-01 -1.5673440775800E-02 -9.2483046441655E-01  1.3583476581014E+00
81  8.0000000000000E-01 -2.4216058264014E-03 -9.0537595065923E-01  1.2790358371932E+00
82  8.1000000000000E-01  9.4377208687993E-03 -8.8337602593789E-01  1.1997784179056E+00
83  8.2000000000000E-01  1.9945185919454E-02 -8.5945551167120E-01  1.1213947632489E+00
84  8.3000000000000E-01  2.9140150945382E-02 -8.3403603694659E-01  1.0445989711683E+00
85  8.4000000000000E-01  3.7057364919977E-02 -8.0733118826481E-01  9.6998658359348E-01
86  8.5000000000000E-01  4.3724938522702E-02 -7.7935448476358E-01  8.9802598470401E-01
87  8.6000000000000E-01  4.9163749143391E-02 -7.4994060195234E-01  8.2905492504855E-01
88  8.7000000000000E-01  5.3388341753493E-02 -7.1877969675728E-01  7.6328245000185E-01
89  8.8000000000000E-01  5.6409317489605E-02 -6.8546403811946E-01  7.0079632954997E-01
90  8.9000000000000E-01  5.8237118479167E-02 -6.4954541964381E-01  6.4157588174625E-01
91  9.0000000000000E-01  5.8887023969897E-02 -6.1060102112767E-01  5.8550985398280E-01
92  9.1000000000000E-01  5.8385068724778E-02 -5.6830448906116E-01  5.3241877331544E-01
93  9.2000000000000E-01  5.6774479101024E-02 -5.2249801432969E-01  4.8208089737569E-01
94  9.3000000000000E-01  5.4122094032420E-02 -4.7326008687742E-01  4.3426058770354E-01
95  9.4000000000000E-01  5.0524095614378E-02 -4.2096238666291E-01  3.8873758320120E-01
96  9.5000000000000E-01  4.6110215003921E-02 -3.6630790845719E-01  3.4533526707505E-01
97  9.6000000000000E-01  4.1045401223838E-02 -3.1034089112722E-01  3.0394558891578E-01
98  9.7000000000000E-01  3.5527739908457E-02 -2.5441740101230E-01  2.6454781560094E-01
99  9.8000000000000E-01  2.9781182343037E-02 -2.0012347147423E-01  2.2721773047165E-01
100  9.9000000000000E-01  2.4041386478781E-02 -1.4912547288547E-01  1.9212326697427E-01
101  1.0000000000000E+00  1.8532697158075E-02 -1.0293506799360E-01  1.5950184758194E-01
102  1.0100000000000E+00  1.3434015214042E-02 -6.2568844376312E-02  1.2961389961998E-01
103  1.0200000000000E+00  8.8533097386720E-03 -2.8321926365624E-02  1.0267976175429E-01
104  1.0300000000000E+00  4.8625809252737E-03 -1.9677229495988E-04  7.8854945878824E-02
105  1.0400000000000E+00  1.5173417429983E-03  2.1868476708819E-02  5.8232898632380E-02
106  1.0500000000000E+00 -1.1449305354277E-03  3.8009755746291E-02  4.0844835998912E-02
107  1.0600000000000E+00 -3.1069106348432E-03  4.8453658221631E-02  2.6658243895417E-02
108  1.0700000000000E+00 -4.3738289266988E-03  5.3537714770560E-02  1.5574292707825E-02
109  1.0800000000000E+00 -4.9760181119900E-03  5.3732832504556E-02  7.4244527539106E-03
110  1.0900000000000E+00 -4.9715095779975E-03  4.9666901538035E-02  1.9665177124130E-03
111  1.1000000000000E+00 -4.4612758325992E-03  4.2247089797733E-02 -1.1649995111730E-03
112  1.1100000000000E+00 -3.6587641690316E-03  3.3209444634350E-02 -2.7071577235727E-03
113  1.1200000000000E+00 -2.6594441126393E-03  2.3328321088127E-02 -2.9397842327663E-03
114  1.1300000000000E+00 -1.5883051158838E-03  1.3555983374678E-02 -2.2010236472895E-03
115  1.1400000000000E+00 -6.3731613667329E-04  5.3208826431809E-03 -1.0215366954849E-03
116  1.1500000000000E+00 -6.7186144717510E-05  5.5077530270003E-04 -1.1932583675269E-04
117  1.1600000000000E+00  2.5797917269775E-06 -2.0958135507171E-05  4.8107651556477E-06
118  1.1700000000000E+00  4.0278850959086E-07 -3.3187097024136E-06  6.9798595731006E-07
119  1.18 -0.  0. -0.
120  1.19  0.  0.  0.
121  1.20  0.  0.  0.
122  1.21  0.  0.  0.
123  1.22  0.  0.  0.
124  1.23  0.  0.  0.
125  1.24  0.  0.  0.
126  1.25  0.  0.  0.
127  1.26  0.  0.  0.
128  1.27  0.  0.  0.
129  1.28  0.  0.  0.
130  1.29  0.  0.  0.
131  1.30  0.  0.  0.
132  1.31  0.  0.  0.
133  1.32  0.  0.  0.
134  1.33  0.  0.  0.
135  1.34  0.  0.  0.
136  1.35  0.  0.  0.
137  1.36  0.  0.  0.
138  1.37  0.  0.  0.
139  1.38  0.  0.  0.
140  1.39  0.  0.  0.
141  1.40  0.  0.  0.
142  1.41  0.  0.  0.
143  1.42  0.  0.  0.
144  1.43  0.  0.  0.
145  1.44  0.  0.  0.
146  1.45  0.  0.  0.
147  1.46  0.  0.  0.
148  1.47  0.  0.  0.
149  1.48  0.  0.  0.
150  1.49  0.  0.  0.
151  1.50  0.  0.  0.
152  1.51  0.  0.  0.
153  1.52  0.  0.  0.
154  1.53  0.  0.  0.
155  1.54  0.  0.  0.
156  1.55  0.  0.  0.
157  1.56  0.  0.  0.
158  1.57  0.  0.  0.
159  1.58  0.  0.  0.
160  1.59  0.  0.  0.
161  1.60  0.  0.  0.
162  1.61  0.  0.  0.
163  1.62  0.  0.  0.
164  1.63  0.  0.  0.
165  1.64  0.  0.  0.
166  1.65  0.  0.  0.
167  1.66  0.  0.  0.
168  1.67  0.  0.  0.
169  1.68  0.  0.  0.
170  1.69  0.  0.  0.
171  1.70  0.  0.  0.
172  1.71  0.  0.  0.
173  1.72  0.  0.  0.
174  1.73  0.  0.  0.
175  1.74  0.  0.  0.
176  1.75  0.  0.  0.
177  1.76  0.  0.  0.
178  1.77  0.  0.  0.
179  1.78  0.  0.  0.
180  1.79  0.  0.  0.
181  1.80  0.  0.  0.
182  1.81  0.  0.  0.
183  1.82  0.  0.  0.
184  1.83  0.  0.  0.
185  1.84  0.  0.  0.
186  1.85  0.  0.  0.
187  1.86  0.  0.  0.
188  1.87  0.  0.  0.
189  1.88  0.  0.  0.
190  1.89  0.  0.  0.
191  1.90  0.  0.  0.
192  1.91  0.  0.  0.
193  1.92  0.  0.  0.
194  1.93  0.  0.  0.
195  1.94  0.  0.  0.
196  1.95  0.  0.  0.
197  1.96  0.  0.  0.
198  1.97  0.  0.  0.
199  1.98  0.  0.  0.
200  1.99  0.  0.  0.
201  2.00  0.  0.  0.
202  2.01  0.  0.  0.
203  2.02  0.  0.  0.
204  2.03  0.  0.  0.
205  2.04  0.  0.  0.
206  2.05  0.  0.  0.
207  2.06  0.  0.  0.
208  2.07  0.  0.  0.
209  2.08  0.  0.  0.
210  2.09  0.  0.  0.
211  2.10  0.  0.  0.
212  2.11  0.  0.  0.
213  2.12  0.  0.  0.
214  2.13  0.  0.  0.
215  2.14  0.  0.  0.
216  2.15  0.  0.  0.
217  2.16  0.  0.  0.
218  2.17  0.  0.  0.
219  2.18  0.  0.  0.
220  2.19  0.  0.  0.
221  2.20  0.  0.  0.
222  2.21  0.  0.  0.
223  2.22  0.  0.  0.
224  2.23  0.  0.  0.
225  2.24  0.  0.  0.
226  2.25  0.  0.  0.
227  2.26  0.  0.  0.
228  2.27  0.  0.  0.
229  2.28  0.  0.  0.
230  2.29  0.  0.  0.
231  2.30  0.  0.  0.
232  2.31  0.  0.  0.
233  2.32  0.  0.  0.
234  2.33  0.  0.  0.
235  2.34  0.  0.  0.
236  2.35  0.  0.  0.
237  2.36  0.  0.  0.
238  2.37  0.  0.  0.
239  2.38  0.  0.  0.
240  2.39  0.  0.  0.
241  2.40  0.  0.  0.
242  2.41  0.  0.  0.
243  2.42  0.  0.  0.
244  2.43  0.  0.  0.
245  2.44  0.  0.  0.
246  2.45  0.  0.  0.
247  2.46  0.  0.  0.
248  2.47  0.  0.  0.
249  2.48  0.  0.  0.
250  2.49  0.  0.  0.
251  2.50  0.  0.  0.
252  2.51  0.  0.  0.
253  2.52  0.  0.  0.
254  2.53  0.  0.  0.
255  2.54  0.  0.  0.
256  2.55  0.  0.  0.
257  2.56  0.  0.  0.
258  2.57  0.  0.  0.
259  2.58  0.  0.  0.
260  2.59  0.  0.  0.
261  2.60  0.  0.  0.
262  2.61  0.  0.  0.
263  2.62  0.  0.  0.
264  2.63  0.  0.  0.
265  2.64  0.  0.  0.
266  2.65  0.  0.  0.
267  2.66  0.  0.  0.
268  2.67  0.  0.  0.
269  2.68  0.  0.  0.
270  2.69  0.  0.  0.
271  2.70  0.  0.  0.
272  2.71  0.  0.  0.
273  2.72  0.  0.  0.
274  2.73  0.  0.  0.
275  2.74  0.  0.  0.
276  2.75  0.  0.  0.
277  2.76  0.  0.  0.
278  2.77  0.  0.  0.
279  2.78  0.  0.  0.
280  2.79  0.  0.  0.
281  2.80  0.  0.  0.
282  2.81  0.  0.  0.
283  2.82  0.  0.  0.
284  2.83  0.  0.  0.
285  2.84  0.  0.  0.
286  2.85  0.  0.  0.
287  2.86  0.  0.  0.
288  2.87  0.  0.  0.
289  2.88  0.  0.  0.
290  2.89  0.  0.  0.
291  2.90  0.  0.  0.
292  2.91  0.  0.  0.
293  2.92  0.  0.  0.
294  2.93  0.  0.  0.
295  2.94  0.  0.  0.
296  2.95  0.  0.  0.
297  2.96  0.  0.  0.
298  2.97  0.  0.  0.
299  2.98  0.  0.  0.
300  2.99  0.  0.  0.
301  3.00  0.  0.  0.
302  3.01  0.  0.  0.
303  3.02  0.  0.  0.
304  3.03  0.  0.  0.
305  3.04  0.  0.  0.
306  3.05  0.  0.  0.
307  3.06  0.  0.  0.
308  3.07  0.  0.  0.
309  3.08  0.  0.  0.
310  3.09  0.  0.  0.
311  3.10  0.  0.  0.
312  3.11  0.  0.  0.
313  3.12  0.  0.  0.
314  3.13  0.  0.  0.
315  3.14  0.  0.  0.
316  3.15  0.  0.  0.
317  3.16  0.  0.  0.
318  3.17  0.  0.  0.
319  3.18  0.  0.  0.
320  3.19  0.  0.  0.
321  3.20  0.  0.  0.
322  3.21  0.  0.  0.
323  3.22  0.  0.  0.
324  3.23  0.  0.  0.
325  3.24  0.  0.  0.
326  3.25  0.  0.  0.
327  3.26  0.  0.  0.
328  3.27  0.  0.  0.
329  3.28  0.  0.  0.
330  3.29  0.  0.  0.
331  3.30  0.  0.  0.
332  3.31  0.  0.  0.
333  3.32  0.  0.  0.
334  3.33  0.  0.  0.
335  3.34  0.  0.  0.
336  3.35  0.  0.  0.
337  3.36  0.  0.  0.
338  3.37  0.  0.  0.
339  3.38  0.  0.  0.
340  3.39  0.  0.  0.
341  3.40  0.  0.  0.
342  3.41  0.  0.  0.
343  3.42  0.  0.  0.
344  3.43  0.  0.  0.
345  3.44  0.  0.  0.
346  3.45  0.  0.  0.
347  3.46  0.  0.  0.
348  3.47  0.  0.  0.
349  3.48  0.  0.  0.
350  3.49  0.  0.  0.
351  3.50  0.  0.  0.
352  3.51  0.  0.  0.
353  3.52  0.  0.  0.
354  3.53  0.  0.  0.
355  3.54  0.  0.  0.
356  3.55  0.  0.  0.
357  3.56  0.  0.  0.
358  3.57  0.  0.  0.
359  3.58  0.  0.  0.
360  3.59  0.  0.  0.
361  3.60  0.  0.  0.
362  3.61  0.  0.  0.
363  3.62  0.  0.  0.
364  3.63  0.  0.  0.
365  3.64  0.  0.  0.
366  3.65  0.  0.  0.
367  3.66  0.  0.  0.
368  3.67  0.  0.  0.
369  3.68  0.  0.  0.
370  3.69  0.  0.  0.
371  3.70  0.  0.  0.
372  3.71  0.  0.  0.
373  3.72  0.  0.  0.
374  3.73  0.  0.  0.
375  3.74  0.  0.  0.
376  3.75  0.  0.  0.
377  3.76  0.  0.  0.
378  3.77  0.  0.  0.
379  3.78  0.  0.  0.
380  3.79  0.  0.  0.
381  3.80  0.  0.  0.
382  3.81  0.  0.  0.
383  3.82  0.  0.  0.
384  3.83  0.  0.  0.
385  3.84  0.  0.  0.
386  3.85  0.  0.  0.
387  3.86  0.  0.  0.
388  3.87  0.  0.  0.
389  3.88  0.  0.  0.
390  3.89  0.  0.  0.
391  3.90  0.  0.  0.
392  3.91  0.  0.  0.
393  3.92  0.  0.  0.
394  3.93  0.  0.  0.
395  3.94  0.  0.  0.
396  3.95  0.  0.  0.
397  3.96  0.  0.  0.
398  3.97  0.  0.  0.
399  3.98  0.  0.  0.
400  3.99  0.  0.  0.
401  4.00  0.  0.  0.
402  4.01  0.  0.  0.
403  4.02  0.  0.  0.
404  4.03  0.  0.  0.
405  4.04  0.  0.  0.
406  4.05  0.  0.  0.
407  4.06  0.  0.  0.
408  4.07  0.  0.  0.
409  4.08  0.  0.  0.
410  4.09  0.  0.  0.
411  4.10  0.  0.  0.
412  4.11  0.  0.  0.
413  4.12  0.  0.  0.
414  4.13  0.  0.  0.
415  4.14  0.  0.  0.
416  4.15  0.  0.  0.
417  4.16  0.  0.  0.
418  4.17  0.  0.  0.
419  4.18  0.  0.  0.
420  4.19  0.  0.  0.
421  4.20  0.  0.  0.
422  4.21  0.  0.  0.
423  4.22  0.  0.  0.
424  4.23  0.  0.  0.
425  4.24  0.  0.  0.
426  4.25  0.  0.  0.
427  4.26  0.  0.  0.
428  4.27  0.  0.  0.
429  4.28  0.  0.  0.
430  4.29  0.  0.  0.
431  4.30  0.  0.  0.
432  4.31  0.  0.  0.
433  4.32  0.  0.  0.
434  4.33  0.  0.  0.
435  4.34  0.  0.  0.
436  4.35  0.  0.  0.
437  4.36  0.  0.  0.
438  4.37  0.  0.  0.
439  4.38  0.  0.  0.
440  4.39  0.  0.  0.
441  4.40  0.  0.  0.
442  4.41  0.  0.  0.
443  4.42  0.  0.  0.
444  4.43  0.  0.  0.
445  4.44  0.  0.  0.
446  4.45  0.  0.  0.
447  4.46  0.  0.  0.
448  4.47  0.  0.  0.
449  4.48  0.  0.  0.
450  4.49  0.  0.  0.
451  4.50  0.  0.  0.
452  4.51  0.  0.  0.
453  4.52  0.  0.  0.
454  4.53  0.  0.  0.
455  4.54  0.  0.  0.
456  4.55  0.  0.  0.
457  4.56  0.  0.  0.
458  4.57  0.  0.  0.
459  4.58  0.  0.  0.
460  4.59  0.  0.  0.
461  4.60  0.  0.  0.
462  4.61  0.  0.  0.
463  4.62  0.  0.  0.
464  4.63  0.  0.  0.
465  4.64  0.  0.  0.
466  4.65  0.  0.  0.
467  4.66  0.  0.  0.
468  4.67  0.  0.  0.
469  4.68  0.  0.  0.
470  4.69  0.  0.  0.
471  4.70  0.  0.  0.
472  4.71  0.  0.  0.
473  4.72  0.  0.  0.
474  4.73  0.  0.  0.
475  4.74  0.  0.  0.
476  4.75  0.  0.  0.
477  4.76  0.  0.  0.
478  4.77  0.  0.  0.
479  4.78  0.  0.  0.
480  4.79  0.  0.  0.
481  4.80  0.  0.  0.
482  4.81  0.  0.  0.
483  4.82  0.  0.  0.
484  4.83  0.  0.  0.
485  4.84  0.  0.  0.
486  4.85  0.  0.  0.
487  4.86  0.  0.  0.
488  4.87  0.  0.  0.
489  4.88  0.  0.  0.
490  4.89  0.  0.  0.
491  4.90  0.  0.  0.
492  4.91  0.  0.  0.
493  4.92  0.  0.  0.
494  4.93  0.  0.  0.
495  4.94  0.  0.  0.
496  4.95  0.  0.  0.
497  4.96  0.  0.  0.
498  4.97  0.  0.  0.
499  4.98  0.  0.  0.
500  4.99  0.  0.  0.
501  5.00  0.  0.  0.
502  5.01  0.  0.  0.
503  5.02  0.  0.  0.
504  5.03  0.  0.  0.
505  5.04  0.  0.  0.
506  5.05  0.  0.  0.
507  5.06  0.  0.  0.
508  5.07  0.  0.  0.
509  5.08  0.  0.  0.
510  5.09  0.  0.  0.
511  5.10  0.  0.  0.
512  5.11  0.  0.  0.
513  5.12  0.  0.  0.
514  5.13  0.  0.  0.
515  5.14  0.  0.  0.
516  5.15  0.  0.  0.
517  5.16  0.  0.  0.
518  5.17  0.  0.  0.
519  5.18  0.  0.  0.
520  5.19  0.  0.  0.
521  5.20  0.  0.  0.
522  5.21  0.  0.  0.
523  5.22  0.  0.  0.
524  5.23  0.  0.  0.
525  5.24  0.  0.  0.
526  5.25  0.  0.  0.
527  5.26  0.  0.  0.
528  5.27  0.  0.  0.
529  5.28  0.  0.  0.
530  5.29  0.  0.  0.
531  5.30  0.  0.  0.
532  5.31  0.  0.  0.
533  5.32  0.  0.  0.
534  5.33  0.  0.  0.
535  5.34  0.  0.  0.
536  5.35  0.  0.  0.
537  5.36  0.  0.  0.
538  5.37  0.  0.  0.
539  5.38  0.  0.  0.
540  5.39  0.  0.  0.
541  5.40  0.  0.  0.
542  5.41  0.  0.  0.
543  5.42  0.  0.  0.
544  5.43  0.  0.  0.
545  5.44  0.  0.  0.
546  5.45  0.  0.  0.
547  5.46  0.  0.  0.
548  5.47  0.  0.  0.
549  5.48  0.  0.  0.
550  5.49  0.  0.  0.
551  5.50  0.  0.  0.
552  5.51  0.  0.  0.
553  5.52  0.  0.  0.
554  5.53  0.  0.  0.
555  5.54  0.  0.  0.
556  5.55  0.  0.  0.
557  5.56  0.  0.  0.
558  5.57  0.  0.  0.
559  5.58  0.  0.  0.
560  5.59  0.  0.  0.
561  5.60  0.  0.  0.
562  5.61  0.  0.  0.
563  5.62  0.  0.  0.
564  5.63  0.  0.  0.
565  5.64  0.  0.  0.
566  5.65  0.  0.  0.
567  5.66  0.  0.  0.
568  5.67  0.  0.  0.
569  5.68  0.  0.  0.
570  5.69  0.  0.  0.
571  5.70  0.  0.  0.
572  5.71  0.  0.  0.
573  5.72  0.  0.  0.
574  5.73  0.  0.  0.
575  5.74  0.  0.  0.
576  5.75  0.  0.  0.
577  5.76  0.  0.  0.
578  5.77  0.  0.  0.
579  5.78  0.  0.  0.
580  5.79  0.  0.  0.
581  5.80  0.  0.  0.
582  5.81  0.  0.  0.
583  5.82  0.  0.  0.
584  5.83  0.  0.  0.
585  5.84  0.  0.  0.
586  5.85  0.  0.  0.
587  5.86  0.  0.  0.
588  5.87  0.  0.  0.
589  5.88  0.  0.  0.
590  5.89  0.  0.  0.
591  5.90  0.  0.  0.
592  5.91  0.  0.  0.
593  5.92  0.  0.  0.
594  5.93  0.  0.  0.
595  5.94  0.  0.  0.
596  5.95  0.  0.  0.
597  5.96  0.  0.  0.
598  5.97  0.  0.  0.
599  5.98  0.  0.  0.
600  5.99  0.  0.  0.
1                         1.3951040204185E+01 -5.3817566546856E-01
1  0.0000000000000E+00  7.1066117435237E-09  7.9845584588512E-09
2  1.0000000000000E-02  4.8546092339760E-03  4.9317874410233E-03
3  2.0000000000000E-02  1.9371616624151E-02  1.9648420227338E-02
4  3.0000000000000E-02  4.3411002510099E-02  4.3914583562192E-02
5  4.0000000000000E-02  7.6740868098761E-02  7.7340997581061E-02
6  5.0000000000000E-02  1.1903962380211E-01  1.1938877981250E-01
7  6.0000000000000E-02  1.6989902768380E-01  1.6937554186074E-01
8  7.0000000000000E-02  2.2882804884262E-01  2.2648320658966E-01
9  8.0000000000000E-02  2.9525752345387E-01  2.8976752410338E-01
10  9.0000000000000E-02  3.6854556416227E-01  3.5816925405574E-01
11  1.0000000000000E-01  4.4798367660419E-01  4.3052696795757E-01
12  1.1000000000000E-01  5.3280353007479E-01  5.0559140801424E-01
13  1.2000000000000E-01  6.2218432279728E-01  5.8204131862553E-01
14  1.3000000000000E-01  7.1526067595575E-01  6.5850064319575E-01
15  1.4000000000000E-01  8.1113098468937E-01  7.3355695270661E-01
16  1.5000000000000E-01  9.0886614868895E-01  8.0578094413881E-01
17  1.6000000000000E-01  1.0075185999717E+00  8.7374681700338E-01
18  1.7000000000000E-01  1.1061315409243E+00  9.3605330581256E-01
19  1.8000000000000E-01  1.2037483018908E+00  9.9134511626248E-01
20  1.9000000000000E-01  1.2994217245349E+00  1.0383344842803E+00
21  2.0000000000000E-01  1.3922234750159E+00  1.0758225510352E+00
22  2.1000000000000E-01  1.4812531897755E+00  1.1027202246640E+00
23  2.2000000000000E-01  1.5656473565179E+00  1.1180681819476E+00
24  2.3000000000000E-01  1.6445878338498E+00  1.1210556515428E+00
25  2.4000000000000E-01  1.7173099150916E+00  1.1110376155944E+00
26  2.5000000000000E-01  1.7831098450168E+00  1.0875500694264E+00
27  2.6000000000000E-01  1.8413517027504E+00  1.0503229901862E+00
28  2.7000000000000E-01  1.8914735697643E+00  9.9929068521269E-01
29  2.8000000000000E-01  1.9329929088345E+00  9.3459921971554E-01
30  2.9000000000000E-01  1.9655110879247E+00  8.5661066102150E-01
31  3.0000000000000E-01  1.9887169921797E+00  7.6590392284802E-01
32  3.1000000000000E-01  2.0023896774547E+00  6.6327204719619E-01
33  3.2000000000000E-01  2.0064000299644E+00  5.4971582266155E-01
34  3.3000000000000E-01  2.0007114085734E+00  4.2643370512549E-01
35  3.4000000000000E-01  1.9853792588148E+00  2.9480807856743E-01
36  3.5000000000000E-01  1.9605497007330E+00  1.5638796858584E-01
37  3.6000000000000E-01  1.9264571059222E+00  1.2868397423638E-02
38  3.7000000000000E-01  1.8834206924573E+00 -1.3393335497163E-01
39  3.8000000000000E-01  1.8318401795842E+00 -2.8210424596077E-01
40  3.9000000000000E-01  1.7721905568315E+00 -4.2966431434815E-01
41  4.0000000000000E-01  1.7050160344048E+00 -5.7459740382237E-01
42  4.1000000000000E-01  1.6309232531193E+00 -7.1488324101635E-01
43  4.2000000000000E-01  1.5505738425015E+00 -8.4853029829390E-01
44  4.3000000000000E-01  1.4646764248669E+00 -9.7360883728666E-01
45  4.4000000000000E-01  1.3739781709641E+00 -1.0882835074835E+00
46  4.5000000000000E-01  1.2792560190370E+00 -1.1908448657452E+00
47  4.6000000000000E-01  1.1813076737414E+00 -1.2797391881238E+00
48  4.7000000000000E-01  1.0809425041873E+00 -1.3535959650809E+00
49  4.8000000000000E-01  9.7897246137115E-01 -1.4112525050594E+00
50  4.9000000000000E-01  8.7620313440079E-01 -1.4517751189254E+00
51  5.0000000000000E-01  7.7342506218062E-01 -1.4744764182646E+00
52  5.1000000000000E-01  6.7140541266537E-01 -1.4789283327475E+00
53  5.2000000000000E-01  5.7088013546853E-01 -1.4649705342988E+00
54  5.3000000000000E-01  4.7254668563383E-01 -1.4327140468737E+00
55  5.4000000000000E-01  3.7705740687960E-01 -1.3825399182523E+00
56  5.5000000000000E-01  2.8501365177128E-01 -1.3150929322338E+00
57  5.6000000000000E-01  1.9696070425848E-01 -1.2312704436080E+00
58  5.7000000000000E-01  1.1338355704213E-01 -1.1322065219161E+00
59  5.8000000000000E-01  3.4703582546705E-02 -1.0192516908598E+00
60  5.9000000000000E-01 -3.8723877893700E-02 -8.9394864593399E-01
61  6.0000000000000E-01 -1.0661099641703E-01 -7.5800442118374E-01
62  6.1000000000000E-01 -1.6873801672197E-01 -6.1325955486553E-01
63  6.2000000000000E-01 -2.2495290607712E-01 -4.6165487137263E-01
64  6.3000000000000E-01 -2.7517013300878E-01 -3.0519655150564E-01
65  6.4000000000000E-01 -3.1936861520905E-01 -1.4592020377157E-01
66  6.5000000000000E-01 -3.5758889401363E-01  1.4145325035079E-02
67  6.6000000000000E-01 -3.8992960243781E-01  1.7301365172952E-01
68  6.7000000000000E-01 -4.1654330306204E-01  3.2877532867149E-01
69  6.8000000000000E-01 -4.3763177988501E-01  4.7963036470390E-01
70  6.9000000000000E-01 -4.5344087450589E-01  6.2391811057854E-01
71  7.0000000000000E-01 -4.6425496157959E-01  7.6014387514773E-01
72  7.1000000000000E-01 -4.7039116136818E-01  8.8700170258915E-01
73  7.2000000000000E-01 -4.7219338837687E-01  1.0033928167709E+00
74  7.3000000000000E-01 -4.7002633453599E-01  1.1084393250687E+00
75  7.4000000000000E-01 -4.6426948322423E-01  1.2014928688869E+00
76  7.5000000000000E-01 -4.5531124670269E-01  1.2821380101394E+00
77  7.6000000000000E-01 -4.4354331435036E-01  1.3501902503692E+00
78  7.7000000000000E-01 -4.2935529258661E-01  1.4056886904184E+00
79  7.8000000000000E-01 -4.1312970968031E-01  1.4488834521748E+00
80  7.9000000000000E-01 -3.9523744993552E-01  1.4802180986546E+00
81  8.0000000000000E-01 -3.7603367217866E-01  1.5003074035215E+00
82  8.1000000000000E-01 -3.5585425722025E-01  1.5099109353699E+00
83  8.2000000000000E-01 -3.3501281819745E-01  1.5099030353069E+00
84  8.3000000000000E-01 -3.1379829658396E-01  1.5012398785090E+00
85  8.4000000000000E-01 -2.9247315533726E-01  1.4849244217931E+00
86  8.5000000000000E-01 -2.7127216927985E-01  1.4619701505094E+00
87  8.6000000000000E-01 -2.5040180150442E-01  1.4333646502462E+00
88  8.7000000000000E-01 -2.3004014345623E-01  1.4000341433142E+00
89  8.8000000000000E-01 -2.1033738546107E-01  1.3628102484080E+00
90  8.9000000000000E-01 -1.9141677389021E-01  1.3224003462075E+00
91  9.0000000000000E-01 -1.7337600091833E-01  1.2793630661688E+00
92  9.1000000000000E-01 -1.5628896294373E-01  1.2340905527690E+00
93  9.2000000000000E-01 -1.4020781418740E-01  1.1867993255604E+00
94  9.3000000000000E-01 -1.2516523272898E-01  1.1375317191945E+00
95  9.4000000000000E-01 -1.1117680721656E-01  1.0861700798103E+00
96  9.5000000000000E-01 -9.8243443627658E-02  1.0324661055040E+00
97  9.6000000000000E-01 -8.6353682671125E-02  9.7608795365732E-01
98  9.7000000000000E-01 -7.5485809603895E-02  9.1668799929700E-01
99  9.8000000000000E-01 -6.5609629289282E-02  8.5399441870241E-01
100  9.9000000000000E-01 -5.6687770119674E-02  7.8793010575930E-01
101  1.0000000000000E+00 -4.8676371064917E-02  7.1876261596398E-01
102  1.0100000000000E+00 -4.1524996890624E-02  6.4728872764928E-01
103  1.0200000000000E+00 -3.5176002719361E-02  5.7486536274362E-01
104  1.0300000000000E+00 -2.9565538673613E-02  5.0292433794732E-01
105  1.0400000000000E+00 -2.4626457184551E-02  4.3275227163309E-01
106  1.0500000000000E+00 -2.0291305086834E-02  3.6548853039121E-01
107  1.0600000000000E+00 -1.6495113207326E-02  3.0212659659917E-01
108  1.0700000000000E+00 -1.3177960645959E-02  2.4351667591184E-01
109  1.0800000000000E+00 -1.0287293252200E-02  1.9036898930006E-01
110  1.0900000000000E+00 -7.7799822924319E-03  1.4325736074316E-01
111  1.1000000000000E+00 -5.6262474249034E-03  1.0257166345301E-01
112  1.1100000000000E+00 -3.8222406819079E-03  6.8222619326314E-02
113  1.1200000000000E+00 -2.3524320535895E-03  4.0604342892512E-02
114  1.1300000000000E+00 -1.2153965424060E-03  2.0059820892817E-02
115  1.1400000000000E+00 -4.3034045767741E-04  6.7229964018666E-03
116  1.1500000000000E+00 -4.0649501331145E-05  5.9479542640140E-04
117  1.1600000000000E+00  1.4712165348440E-06 -2.0656318158147E-05
118  1.1700000000000E+00  2.5111203560933E-07 -3.7473071717299E-06
119  1.18 -0. -0.
120  1.19  0.  0.
121  1.20  0.  0.
122  1.21  0.  0.
123  1.22  0.  0.
124  1.23  0.  0.
125  1.24  0.  0.
126  1.25  0.  0.
127  1.26  0.  0.
128  1.27  0.  0.
129  1.28  0.  0.
130  1.29  0.  0.
131  1.30  0.  0.
132  1.31  0.  0.
133  1.32  0.  0.
134  1.33  0.  0.
135  1.34  0.  0.
136  1.35  0.  0.
137  1.36  0.  0.
138  1.37  0.  0.
139  1.38  0.  0.
140  1.39  0.  0.
141  1.40  0.  0.
142  1.41  0.  0.
143  1.42  0.  0.
144  1.43  0.  0.
145  1.44  0.  0.
146  1.45  0.  0.
147  1.46  0.  0.
148  1.47  0.  0.
149  1.48  0.  0.
150  1.49  0.  0.
151  1.50  0.  0.
152  1.51  0.  0.
153  1.52  0.  0.
154  1.53  0.  0.
155  1.54  0.  0.
156  1.55  0.  0.
157  1.56  0.  0.
158  1.57  0.  0.
159  1.58  0.  0.
160  1.59  0.  0.
161  1.60  0.  0.
162  1.61  0.  0.
163  1.62  0.  0.
164  1.63  0.  0.
165  1.64  0.  0.