Cf    ONCVPSP-4.0.1  r_core=   1.15394   1.15394   1.35621   1.35621
98.0000     38.0000      231012    zatom,zion,pspd
8 -116133   3     4   600     0    pspcod,pspxc,lmax,lloc,mmax,r2well
5.99000000  5.00000000  0.00000000    rchrg fchrg qchrg
3     3     3     2    nproj
3     1           extension_switch
4     4     4    nprojso
0                         4.2237242733482E+01  1.7237122743450E+00 -1.0343608983932E+00
1  0.0000000000000E+00 -8.8087321881147E-09  9.2485386904428E-08 -1.6641801880990E-08
2  1.0000000000000E-02  1.6241471740583E-01 -9.4281600786816E-02  1.4893681942258E-02
3  2.0000000000000E-02  3.2382903270582E-01 -1.8710248080536E-01  2.9696178990345E-02
4  3.0000000000000E-02  4.8325042223286E-01 -2.7702551576878E-01  4.4318075284233E-02
5  4.0000000000000E-02  6.3970202810055E-01 -3.6266013256006E-01  5.8673419654025E-02
6  5.0000000000000E-02  7.9223026582510E-01 -4.4268400626426E-01  7.2681279350027E-02
7  6.0000000000000E-02  9.3991216843775E-01 -5.1586293438418E-01  8.6267092682823E-02
8  7.0000000000000E-02  1.0818623902768E+00 -5.8106839630212E-01  9.9363774808686E-02
9  8.0000000000000E-02  1.2172398024569E+00 -6.3729239853538E-01  1.1191254753744E-01
10  9.0000000000000E-02  1.3452536222565E+00 -6.8365931394703E-01  1.2386348294858E-01
11  1.0000000000000E-01  1.4651690298824E+00 -7.1943454102846E-01  1.3517577066181E-01
12  1.1000000000000E-01  1.5763122377724E+00 -7.4402993238265E-01  1.4581773860350E-01
13  1.2000000000000E-01  1.6780749892469E+00 -7.5700606409600E-01  1.5576667579709E-01
14  1.3000000000000E-01  1.7699184744381E+00 -7.5807153430628E-01  1.6500852187853E-01
15  1.4000000000000E-01  1.8513766614971E+00 -7.4707958468348E-01  1.7353750057783E-01
16  1.5000000000000E-01  1.9220590497194E+00 -7.2402242800943E-01  1.8135578236994E-01
17  1.6000000000000E-01  1.9816528580600E+00 -6.8902373450521E-01  1.8847326413620E-01
18  1.7000000000000E-01  2.0299246673022E+00 -6.4232977587868E-01  1.9490755051319E-01
19  1.8000000000000E-01  2.0667215367463E+00 -5.8429974712535E-01  2.0068421244482E-01
20  1.9000000000000E-01  2.0919716166716E+00 -5.1539578100785E-01  2.0583738343021E-01
21  2.0000000000000E-01  2.1056842760952E+00 -4.3617313908549E-01  2.1041073350680E-01
22  2.1000000000000E-01  2.1079497617198E+00 -3.4727100767167E-01  2.1445883588937E-01
23  2.2000000000000E-01  2.0989383987542E+00 -2.4940424982957E-01  2.1804891245170E-01
24  2.3000000000000E-01  2.0788993379312E+00 -1.4335636914100E-01  2.2126291317000E-01
25  2.4000000000000E-01  2.0481588460382E+00 -2.9973832182185E-02  2.2419985275921E-01
26  2.5000000000000E-01  2.0071181301892E+00  8.9838220278210E-02  2.2697829664555E-01
27  2.6000000000000E-01  1.9562506794776E+00  2.1511896252982E-01  2.2973885983304E-01
28  2.7000000000000E-01  1.8960991021734E+00  3.4485377818393E-01  2.3264655782285E-01
29  2.8000000000000E-01  1.8272714328211E+00  4.7797536957748E-01  2.3589283012594E-01
30  2.9000000000000E-01  1.7504368819716E+00  6.1336448248368E-01  2.3969704548952E-01
31  3.0000000000000E-01  1.6663210022785E+00  7.4985071569469E-01  2.4430729490374E-01
32  3.1000000000000E-01  1.5757002486162E+00  8.8621392946875E-01  2.5000028464006E-01
33  3.2000000000000E-01  1.4793959169240E+00  1.0211867831390E+00  2.5708015745543E-01
34  3.3000000000000E-01  1.3782674566944E+00  1.1534589182932E+00  2.6587609577251E-01
35  3.4000000000000E-01  1.2732051652767E+00  1.2816832592482E+00  2.7673859573450E-01
36  3.5000000000000E-01  1.1651222881929E+00  1.4044848278596E+00  2.9003434472096E-01
37  3.6000000000000E-01  1.0549465680094E+00  1.5204723672712E+00  3.0613968593832E-01
38  3.7000000000000E-01  9.4361130441357E-01  1.6282529425918E+00  3.2543271043409E-01
39  3.8000000000000E-01  8.3204600927238E-01  1.7264495406615E+00  3.4828407728611E-01
40  3.9000000000000E-01  7.2116676179816E-01  1.8137215319945E+00  3.7504672451010E-01
41  4.0000000000000E-01  6.1186638962044E-01  1.8887876924586E+00  4.0604469392470E-01
42  4.1000000000000E-01  5.0500462061438E-01  1.9504513178614E+00  4.4156135016977E-01
43  4.2000000000000E-01  4.0139836685081E-01  1.9976268089022E+00  4.8182732473955E-01
44  4.3000000000000E-01  3.0181231508852E-01  2.0293669647778E+00  5.2700855771331E-01
45  4.4000000000000E-01  2.0695000702565E-01  2.0448901082096E+00  5.7719484061584E-01
46  4.5000000000000E-01  1.1744559634195E-01  2.0436060794898E+00  6.3238928151557E-01
47  4.6000000000000E-01  3.3856467858737E-02  2.0251400877175E+00  6.9249911657045E-01
48  4.7000000000000E-01 -4.3343103462366E-02  1.9893533980154E+00  7.5732827969340E-01
49  4.8000000000000E-01 -1.1376708961596E-01  1.9363598667060E+00  8.2657211339938E-01
50  4.9000000000000E-01 -1.7712149833281E-01  1.8665374132164E+00  8.9981455932796E-01
51  5.0000000000000E-01 -2.3320669447727E-01  1.7805336368834E+00  9.7652810721604E-01
52  5.1000000000000E-01 -2.8191816550914E-01  1.6792649461067E+00  1.0560767076279E+00
53  5.2000000000000E-01 -3.2324567738210E-01  1.5639087618680E+00  1.1377217685524E+00
54  5.3000000000000E-01 -3.5727080563677E-01  1.4358885812726E+00  1.2206312616023E+00
55  5.4000000000000E-01 -3.8416286715733E-01  1.2968519316881E+00  1.3038918630442E+00
56  5.5000000000000E-01 -4.0417331983477E-01  1.1486415033903E+00  1.3865239516187E+00
57  5.6000000000000E-01 -4.1762873885305E-01  9.9326000853210E-01  1.4674991827425E+00
58  5.7000000000000E-01 -4.2492251807740E-01  8.3282956642336E-01  1.5457602609517E+00
59  5.8000000000000E-01 -4.2650548167864E-01  6.6954664918107E-01  1.6202424430929E+00
60  5.9000000000000E-01 -4.2287562333016E-01  5.0563382771381E-01  1.6898962273314E+00
61  6.0000000000000E-01 -4.1456721683348E-01  3.4328972641841E-01  1.7537106207847E+00
62  6.1000000000000E-01 -4.0213956180087E-01  1.8463871779451E-01  1.8107363342772E+00
63  6.2000000000000E-01 -3.8616564018238E-01  3.1681958743286E-02  1.8601082285984E+00
64  6.3000000000000E-01 -3.6722096335477E-01 -1.1374861615401E-01  1.9010663342753E+00
65  6.4000000000000E-01 -3.4587288484456E-01 -2.5003177534215E-01  1.9329747870827E+00
66  6.5000000000000E-01 -3.2267064048382E-01 -3.7579248248965E-01  1.9553380643336E+00
67  6.6000000000000E-01 -2.9813635613788E-01 -4.8993010274686E-01  1.9678139716687E+00
68  6.7000000000000E-01 -2.7275723364585E-01 -5.9163824509094E-01  1.9702229150128E+00
69  6.8000000000000E-01 -2.4697908909509E-01 -6.8041543044515E-01  1.9625530953171E+00
70  6.9000000000000E-01 -2.2120137509270E-01 -7.5606608284640E-01  1.9449613816506E+00
71  7.0000000000000E-01 -1.9577377160105E-01 -8.1869167851990E-01  1.9177697476080E+00
72  7.1000000000000E-01 -1.7099437964258E-01 -8.6867224403535E-01  1.8814572928645E+00
73  7.2000000000000E-01 -1.4710950036611E-01 -9.0663875741466E-01  1.8366480116968E+00
74  7.3000000000000E-01 -1.2431493026574E-01 -9.3343736243015E-01  1.7840946089646E+00
75  7.4000000000000E-01 -1.0275865346369E-01 -9.5008664334252E-01  1.7246587968780E+00
76  7.5000000000000E-01 -8.2544765551808E-02 -9.5772951249793E-01  1.6592886285657E+00
77  7.6000000000000E-01 -6.3738422102845E-02 -9.5758152465226E-01  1.5889935329258E+00
78  7.7000000000000E-01 -4.6371570037490E-02 -9.5087763889619E-01  1.5148178058492E+00
79  7.8000000000000E-01 -3.0449192809946E-02 -9.3881959234138E-01  1.4378133825198E+00
80  7.9000000000000E-01 -1.5955781900724E-02 -9.2252612155545E-01  1.3590127615800E+00
81  8.0000000000000E-01 -2.8617381947352E-03 -9.0298826220382E-01  1.2794029725711E+00
82  8.1000000000000E-01  8.8705919338462E-03 -8.8103187027639E-01  1.1999014719683E+00
83  8.2000000000000E-01  1.9281529243247E-02 -8.5728933716113E-01  1.1213348196355E+00
84  8.3000000000000E-01  2.8409583913121E-02 -8.3218221469851E-01  1.0444209265315E+00
85  8.4000000000000E-01  3.6288115323242E-02 -8.0591612542742E-01  9.6975557633628E-01
86  8.5000000000000E-01  4.2943313443616E-02 -7.7848890855400E-01  8.9780380898311E-01
87  8.6000000000000E-01  4.8393631890966E-02 -7.4971244516773E-01  8.2889661371484E-01
88  8.7000000000000E-01  5.2650738475468E-02 -7.1924801815467E-01  7.6323321404577E-01
89  8.8000000000000E-01  5.5721974805224E-02 -6.8665439363969E-01  7.0088903751339E-01
90  8.9000000000000E-01  5.7614232248048E-02 -6.5144706089296E-01  6.4182924958121E-01
91  9.0000000000000E-01  5.8339057068533E-02 -6.1316623371979E-01  5.8592749309936E-01
92  9.1000000000000E-01  5.7918692400753E-02 -5.7145029331779E-01  5.3298921118890E-01
93  9.2000000000000E-01  5.6392648062604E-02 -5.2611033215163E-01  4.8277864010459E-01
94  9.3000000000000E-01  5.3824259855867E-02 -4.7720032888038E-01  4.3504823625412E-01
95  9.4000000000000E-01  5.0306556244680E-02 -4.2507623000233E-01  3.8956894348356E-01
96  9.5000000000000E-01  4.5966589990815E-02 -3.7043581467184E-01  3.4615930696616E-01
97  9.6000000000000E-01  4.0967212749613E-02 -3.1432965063364E-01  3.0471099106782E-01
98  9.7000000000000E-01  3.5505068454278E-02 -2.5813168146600E-01  2.6520775114575E-01
99  9.8000000000000E-01  2.9803352777635E-02 -2.0345598488067E-01  2.2773433289427E-01
100  9.9000000000000E-01  2.4097625135840E-02 -1.5200395327298E-01  1.9247111417186E-01
101  1.0000000000000E+00  1.8612682826687E-02 -1.0532376380436E-01  1.5966956123417E-01
102  1.0100000000000E+00  1.3528226643430E-02 -6.4461676667111E-02  1.2960274309046E-01
103  1.0200000000000E+00  8.9531694459805E-03 -2.9729561871626E-02  1.0249968926084E-01
104  1.0300000000000E+00  4.9606977591981E-03 -1.1429419675254E-03  7.8523004305474E-02
105  1.0400000000000E+00  1.6077892526955E-03  2.1345856766139E-02  5.7772968578702E-02
106  1.0500000000000E+00 -1.0664167781500E-03  3.7858291127955E-02  4.0287027857902E-02
107  1.0600000000000E+00 -3.0428326289108E-03  4.8607281911389E-02  2.6037858823224E-02
108  1.0700000000000E+00 -4.3249346418063E-03  5.3918768780768E-02  1.4930289559556E-02
109  1.0800000000000E+00 -4.9414266119037E-03  5.4255539656748E-02  6.7973847775149E-03
110  1.0900000000000E+00 -4.9489577095529E-03  5.0242295659618E-02  1.3959189689842E-03
111  1.1000000000000E+00 -4.4477803249800E-03  4.2793464044030E-02 -1.6456518459716E-03
112  1.1100000000000E+00 -3.6531046955507E-03  3.3686935632696E-02 -3.0864439797025E-03
113  1.1200000000000E+00 -2.6592686868890E-03  2.3699638559632E-02 -3.2100872358813E-03
114  1.1300000000000E+00 -1.5904244392932E-03  1.3792407933228E-02 -2.3612651156256E-03
115  1.1400000000000E+00 -6.3899344024396E-04  5.4214299603302E-03 -1.0858713211159E-03
116  1.1500000000000E+00 -6.7457524585109E-05  5.6199665604885E-04 -1.2618592824125E-04
117  1.1600000000000E+00  2.5895340227611E-06 -2.1392024602527E-05  5.0680394272097E-06
118  1.1700000000000E+00  4.0387548525049E-07 -3.3835542862472E-06  7.3779272796160E-07
119  1.18  0.  0.  0.
120  1.19  0.  0.  0.
121  1.20  0.  0.  0.
122  1.21  0.  0.  0.
123  1.22  0.  0.  0.
124  1.23  0.  0.  0.
125  1.24  0.  0.  0.
126  1.25  0.  0.  0.
127  1.26  0.  0.  0.
128  1.27  0.  0.  0.
129  1.28  0.  0.  0.
130  1.29  0.  0.  0.
131  1.30  0.  0.  0.
132  1.31  0.  0.  0.
133  1.32  0.  0.  0.
134  1.33  0.  0.  0.
135  1.34  0.  0.  0.
136  1.35  0.  0.  0.
137  1.36  0.  0.  0.
138  1.37  0.  0.  0.
139  1.38  0.  0.  0.
140  1.39  0.  0.  0.
141  1.40  0.  0.  0.
142  1.41  0.  0.  0.
143  1.42  0.  0.  0.
144  1.43  0.  0.  0.
145  1.44  0.  0.  0.
146  1.45  0.  0.  0.
147  1.46  0.  0.  0.
148  1.47  0.  0.  0.
149  1.48  0.  0.  0.
150  1.49  0.  0.  0.
151  1.50  0.  0.  0.
152  1.51  0.  0.  0.
153  1.52  0.  0.  0.
154  1.53  0.  0.  0.
155  1.54  0.  0.  0.
156  1.55  0.  0.  0.
157  1.56  0.  0.  0.
158  1.57  0.  0.  0.
159  1.58  0.  0.  0.
160  1.59  0.  0.  0.
161  1.60  0.  0.  0.
162  1.61  0.  0.  0.
163  1.62  0.  0.  0.
164  1.63  0.  0.  0.
165  1.64  0.  0.  0.
166  1.65  0.  0.  0.
167  1.66  0.  0.  0.
168  1.67  0.  0.  0.
169  1.68  0.  0.  0.
170  1.69  0.  0.  0.
171  1.70  0.  0.  0.
172  1.71  0.  0.  0.
173  1.72  0.  0.  0.
174  1.73  0.  0.  0.
175  1.74  0.  0.  0.
176  1.75  0.  0.  0.
177  1.76  0.  0.  0.
178  1.77  0.  0.  0.
179  1.78  0.  0.  0.
180  1.79  0.  0.  0.
181  1.80  0.  0.  0.
182  1.81  0.  0.  0.
183  1.82  0.  0.  0.
184  1.83  0.  0.  0.
185  1.84  0.  0.  0.
186  1.85  0.  0.  0.
187  1.86  0.  0.  0.
188  1.87  0.  0.  0.
189  1.88  0.  0.  0.
190  1.89  0.  0.  0.
191  1.90  0.  0.  0.
192  1.91  0.  0.  0.
193  1.92  0.  0.  0.
194  1.93  0.  0.  0.
195  1.94  0.  0.  0.
196  1.95  0.  0.  0.
197  1.96  0.  0.  0.
198  1.97  0.  0.  0.
199  1.98  0.  0.  0.
200  1.99  0.  0.  0.
201  2.00  0.  0.  0.
202  2.01  0.  0.  0.
203  2.02  0.  0.  0.
204  2.03  0.  0.  0.
205  2.04  0.  0.  0.
206  2.05  0.  0.  0.
207  2.06  0.  0.  0.
208  2.07  0.  0.  0.
209  2.08  0.  0.  0.
210  2.09  0.  0.  0.
211  2.10  0.  0.  0.
212  2.11  0.  0.  0.
213  2.12  0.  0.  0.
214  2.13  0.  0.  0.
215  2.14  0.  0.  0.
216  2.15  0.  0.  0.
217  2.16  0.  0.  0.
218  2.17  0.  0.  0.
219  2.18  0.  0.  0.
220  2.19  0.  0.  0.
221  2.20  0.  0.  0.
222  2.21  0.  0.  0.
223  2.22  0.  0.  0.
224  2.23  0.  0.  0.
225  2.24  0.  0.  0.
226  2.25  0.  0.  0.
227  2.26  0.  0.  0.
228  2.27  0.  0.  0.
229  2.28  0.  0.  0.
230  2.29  0.  0.  0.
231  2.30  0.  0.  0.
232  2.31  0.  0.  0.
233  2.32  0.  0.  0.
234  2.33  0.  0.  0.
235  2.34  0.  0.  0.
236  2.35  0.  0.  0.
237  2.36  0.  0.  0.
238  2.37  0.  0.  0.
239  2.38  0.  0.  0.
240  2.39  0.  0.  0.
241  2.40  0.  0.  0.
242  2.41  0.  0.  0.
243  2.42  0.  0.  0.
244  2.43  0.  0.  0.
245  2.44  0.  0.  0.
246  2.45  0.  0.  0.
247  2.46  0.  0.  0.
248  2.47  0.  0.  0.
249  2.48  0.  0.  0.
250  2.49  0.  0.  0.
251  2.50  0.  0.  0.
252  2.51  0.  0.  0.
253  2.52  0.  0.  0.
254  2.53  0.  0.  0.
255  2.54  0.  0.  0.
256  2.55  0.  0.  0.
257  2.56  0.  0.  0.
258  2.57  0.  0.  0.
259  2.58  0.  0.  0.
260  2.59  0.  0.  0.
261  2.60  0.  0.  0.
262  2.61  0.  0.  0.
263  2.62  0.  0.  0.
264  2.63  0.  0.  0.
265  2.64  0.  0.  0.
266  2.65  0.  0.  0.
267  2.66  0.  0.  0.
268  2.67  0.  0.  0.
269  2.68  0.  0.  0.
270  2.69  0.  0.  0.
271  2.70  0.  0.  0.
272  2.71  0.  0.  0.
273  2.72  0.  0.  0.
274  2.73  0.  0.  0.
275  2.74  0.  0.  0.
276  2.75  0.  0.  0.
277  2.76  0.  0.  0.
278  2.77  0.  0.  0.
279  2.78  0.  0.  0.
280  2.79  0.  0.  0.
281  2.80  0.  0.  0.
282  2.81  0.  0.  0.
283  2.82  0.  0.  0.
284  2.83  0.  0.  0.
285  2.84  0.  0.  0.
286  2.85  0.  0.  0.
287  2.86  0.  0.  0.
288  2.87  0.  0.  0.
289  2.88  0.  0.  0.
290  2.89  0.  0.  0.
291  2.90  0.  0.  0.
292  2.91  0.  0.  0.
293  2.92  0.  0.  0.
294  2.93  0.  0.  0.
295  2.94  0.  0.  0.
296  2.95  0.  0.  0.
297  2.96  0.  0.  0.
298  2.97  0.  0.  0.
299  2.98  0.  0.  0.
300  2.99  0.  0.  0.
301  3.00  0.  0.  0.
302  3.01  0.  0.  0.
303  3.02  0.  0.  0.
304  3.03  0.  0.  0.
305  3.04  0.  0.  0.
306  3.05  0.  0.  0.
307  3.06  0.  0.  0.
308  3.07  0.  0.  0.
309  3.08  0.  0.  0.
310  3.09  0.  0.  0.
311  3.10  0.  0.  0.
312  3.11  0.  0.  0.
313  3.12  0.  0.  0.
314  3.13  0.  0.  0.
315  3.14  0.  0.  0.
316  3.15  0.  0.  0.
317  3.16  0.  0.  0.
318  3.17  0.  0.  0.
319  3.18  0.  0.  0.
320  3.19  0.  0.  0.
321  3.20  0.  0.  0.
322  3.21  0.  0.  0.
323  3.22  0.  0.  0.
324  3.23  0.  0.  0.
325  3.24  0.  0.  0.
326  3.25  0.  0.  0.
327  3.26  0.  0.  0.
328  3.27  0.  0.  0.
329  3.28  0.  0.  0.
330  3.29  0.  0.  0.
331  3.30  0.  0.  0.
332  3.31  0.  0.  0.
333  3.32  0.  0.  0.
334  3.33  0.  0.  0.
335  3.34  0.  0.  0.
336  3.35  0.  0.  0.
337  3.36  0.  0.  0.
338  3.37  0.  0.  0.
339  3.38  0.  0.  0.
340  3.39  0.  0.  0.
341  3.40  0.  0.  0.
342  3.41  0.  0.  0.
343  3.42  0.  0.  0.
344  3.43  0.  0.  0.
345  3.44  0.  0.  0.
346  3.45  0.  0.  0.
347  3.46  0.  0.  0.
348  3.47  0.  0.  0.
349  3.48  0.  0.  0.
350  3.49  0.  0.  0.
351  3.50  0.  0.  0.
352  3.51  0.  0.  0.
353  3.52  0.  0.  0.
354  3.53  0.  0.  0.
355  3.54  0.  0.  0.
356  3.55  0.  0.  0.
357  3.56  0.  0.  0.
358  3.57  0.  0.  0.
359  3.58  0.  0.  0.
360  3.59  0.  0.  0.
361  3.60  0.  0.  0.
362  3.61  0.  0.  0.
363  3.62  0.  0.  0.
364  3.63  0.  0.  0.
365  3.64  0.  0.  0.
366  3.65  0.  0.  0.
367  3.66  0.  0.  0.
368  3.67  0.  0.  0.
369  3.68  0.  0.  0.
370  3.69  0.  0.  0.
371  3.70  0.  0.  0.
372  3.71  0.  0.  0.
373  3.72  0.  0.  0.
374  3.73  0.  0.  0.
375  3.74  0.  0.  0.
376  3.75  0.  0.  0.
377  3.76  0.  0.  0.
378  3.77  0.  0.  0.
379  3.78  0.  0.  0.
380  3.79  0.  0.  0.
381  3.80  0.  0.  0.
382  3.81  0.  0.  0.
383  3.82  0.  0.  0.
384  3.83  0.  0.  0.
385  3.84  0.  0.  0.
386  3.85  0.  0.  0.
387  3.86  0.  0.  0.
388  3.87  0.  0.  0.
389  3.88  0.  0.  0.
390  3.89  0.  0.  0.
391  3.90  0.  0.  0.
392  3.91  0.  0.  0.
393  3.92  0.  0.  0.
394  3.93  0.  0.  0.
395  3.94  0.  0.  0.
396  3.95  0.  0.  0.
397  3.96  0.  0.  0.
398  3.97  0.  0.  0.
399  3.98  0.  0.  0.
400  3.99  0.  0.  0.
401  4.00  0.  0.  0.
402  4.01  0.  0.  0.
403  4.02  0.  0.  0.
404  4.03  0.  0.  0.
405  4.04  0.  0.  0.
406  4.05  0.  0.  0.
407  4.06  0.  0.  0.
408  4.07  0.  0.  0.
409  4.08  0.  0.  0.
410  4.09  0.  0.  0.
411  4.10  0.  0.  0.
412  4.11  0.  0.  0.
413  4.12  0.  0.  0.
414  4.13  0.  0.  0.
415  4.14  0.  0.  0.
416  4.15  0.  0.  0.
417  4.16  0.  0.  0.
418  4.17  0.  0.  0.
419  4.18  0.  0.  0.
420  4.19  0.  0.  0.
421  4.20  0.  0.  0.
422  4.21  0.  0.  0.
423  4.22  0.  0.  0.
424  4.23  0.  0.  0.
425  4.24  0.  0.  0.
426  4.25  0.  0.  0.
427  4.26  0.  0.  0.
428  4.27  0.  0.  0.
429  4.28  0.  0.  0.
430  4.29  0.  0.  0.
431  4.30  0.  0.  0.
432  4.31  0.  0.  0.
433  4.32  0.  0.  0.
434  4.33  0.  0.  0.
435  4.34  0.  0.  0.
436  4.35  0.  0.  0.
437  4.36  0.  0.  0.
438  4.37  0.  0.  0.
439  4.38  0.  0.  0.
440  4.39  0.  0.  0.
441  4.40  0.  0.  0.
442  4.41  0.  0.  0.
443  4.42  0.  0.  0.
444  4.43  0.  0.  0.
445  4.44  0.  0.  0.
446  4.45  0.  0.  0.
447  4.46  0.  0.  0.
448  4.47  0.  0.  0.
449  4.48  0.  0.  0.
450  4.49  0.  0.  0.
451  4.50  0.  0.  0.
452  4.51  0.  0.  0.
453  4.52  0.  0.  0.
454  4.53  0.  0.  0.
455  4.54  0.  0.  0.
456  4.55  0.  0.  0.
457  4.56  0.  0.  0.
458  4.57  0.  0.  0.
459  4.58  0.  0.  0.
460  4.59  0.  0.  0.
461  4.60  0.  0.  0.
462  4.61  0.  0.  0.
463  4.62  0.  0.  0.
464  4.63  0.  0.  0.
465  4.64  0.  0.  0.
466  4.65  0.  0.  0.
467  4.66  0.  0.  0.
468  4.67  0.  0.  0.
469  4.68  0.  0.  0.
470  4.69  0.  0.  0.
471  4.70  0.  0.  0.
472  4.71  0.  0.  0.
473  4.72  0.  0.  0.
474  4.73  0.  0.  0.
475  4.74  0.  0.  0.
476  4.75  0.  0.  0.
477  4.76  0.  0.  0.
478  4.77  0.  0.  0.
479  4.78  0.  0.  0.
480  4.79  0.  0.  0.
481  4.80  0.  0.  0.
482  4.81  0.  0.  0.
483  4.82  0.  0.  0.
484  4.83  0.  0.  0.
485  4.84  0.  0.  0.
486  4.85  0.  0.  0.
487  4.86  0.  0.  0.
488  4.87  0.  0.  0.
489  4.88  0.  0.  0.
490  4.89  0.  0.  0.
491  4.90  0.  0.  0.
492  4.91  0.  0.  0.
493  4.92  0.  0.  0.
494  4.93  0.  0.  0.
495  4.94  0.  0.  0.
496  4.95  0.  0.  0.
497  4.96  0.  0.  0.
498  4.97  0.  0.  0.
499  4.98  0.  0.  0.
500  4.99  0.  0.  0.
501  5.00  0.  0.  0.
502  5.01  0.  0.  0.
503  5.02  0.  0.  0.
504  5.03  0.  0.  0.
505  5.04  0.  0.  0.
506  5.05  0.  0.  0.
507  5.06  0.  0.  0.
508  5.07  0.  0.  0.
509  5.08  0.  0.  0.
510  5.09  0.  0.  0.
511  5.10  0.  0.  0.
512  5.11  0.  0.  0.
513  5.12  0.  0.  0.
514  5.13  0.  0.  0.
515  5.14  0.  0.  0.
516  5.15  0.  0.  0.
517  5.16  0.  0.  0.
518  5.17  0.  0.  0.
519  5.18  0.  0.  0.
520  5.19  0.  0.  0.
521  5.20  0.  0.  0.
522  5.21  0.  0.  0.
523  5.22  0.  0.  0.
524  5.23  0.  0.  0.
525  5.24  0.  0.  0.
526  5.25  0.  0.  0.
527  5.26  0.  0.  0.
528  5.27  0.  0.  0.
529  5.28  0.  0.  0.
530  5.29  0.  0.  0.
531  5.30  0.  0.  0.
532  5.31  0.  0.  0.
533  5.32  0.  0.  0.
534  5.33  0.  0.  0.
535  5.34  0.  0.  0.
536  5.35  0.  0.  0.
537  5.36  0.  0.  0.
538  5.37  0.  0.  0.
539  5.38  0.  0.  0.
540  5.39  0.  0.  0.
541  5.40  0.  0.  0.
542  5.41  0.  0.  0.
543  5.42  0.  0.  0.
544  5.43  0.  0.  0.
545  5.44  0.  0.  0.
546  5.45  0.  0.  0.
547  5.46  0.  0.  0.
548  5.47  0.  0.  0.
549  5.48  0.  0.  0.
550  5.49  0.  0.  0.
551  5.50  0.  0.  0.
552  5.51  0.  0.  0.
553  5.52  0.  0.  0.
554  5.53  0.  0.  0.
555  5.54  0.  0.  0.
556  5.55  0.  0.  0.
557  5.56  0.  0.  0.
558  5.57  0.  0.  0.
559  5.58  0.  0.  0.
560  5.59  0.  0.  0.
561  5.60  0.  0.  0.
562  5.61  0.  0.  0.
563  5.62  0.  0.  0.
564  5.63  0.  0.  0.
565  5.64  0.  0.  0.
566  5.65  0.  0.  0.
567  5.66  0.  0.  0.
568  5.67  0.  0.  0.
569  5.68  0.  0.  0.
570  5.69  0.  0.  0.
571  5.70  0.  0.  0.
572  5.71  0.  0.  0.
573  5.72  0.  0.  0.
574  5.73  0.  0.  0.
575  5.74  0.  0.  0.
576  5.75  0.  0.  0.
577  5.76  0.  0.  0.
578  5.77  0.  0.  0.
579  5.78  0.  0.  0.
580  5.79  0.  0.  0.
581  5.80  0.  0.  0.
582  5.81  0.  0.  0.
583  5.82  0.  0.  0.
584  5.83  0.  0.  0.
585  5.84  0.  0.  0.
586  5.85  0.  0.  0.
587  5.86  0.  0.  0.
588  5.87  0.  0.  0.
589  5.88  0.  0.  0.
590  5.89  0.  0.  0.
591  5.90  0.  0.  0.
592  5.91  0.  0.  0.
593  5.92  0.  0.  0.
594  5.93  0.  0.  0.
595  5.94  0.  0.  0.
596  5.95  0.  0.  0.
597  5.96  0.  0.  0.
598  5.97  0.  0.  0.
599  5.98  0.  0.  0.
600  5.99  0.  0.  0.
1                         1.1416739366547E+01 -1.2904431061854E+00 -1.4807077007671E-01
1  0.0000000000000E+00  7.5661636955715E-09  2.5548120841101E-09  2.7567818361440E-08
2  1.0000000000000E-02  4.4022756674725E-03 -5.0769249541881E-03  1.7340413630698E-03
3  2.0000000000000E-02  1.7568934563279E-02 -2.0233499575676E-02  6.8986489578323E-03
4  3.0000000000000E-02  3.9379859306983E-02 -4.5247771877332E-02  1.5382080083151E-02
5  4.0000000000000E-02  6.9636139816836E-02 -7.9751989762879E-02  2.7000769812365E-02
6  5.0000000000000E-02  1.0806198683742E-01 -1.2323587130560E-01  4.1503283407300E-02
7  6.0000000000000E-02  1.5430738148908E-01 -1.7505121810381E-01  5.8575736986539E-02
8  7.0000000000000E-02  2.0795143194089E-01 -2.3441790222144E-01  7.7848576477870E-02
9  8.0000000000000E-02  2.6850640074247E-01 -3.0043125977685E-01  9.8904577317024E-02
10  9.0000000000000E-02  3.3542235928321E-01 -3.7207092252784E-01  1.2128790256430E-01
11  1.0000000000000E-01  4.0809241936913E-01 -4.4821111224410E-01  1.4451403559354E-01
12  1.1000000000000E-01  4.8585848609887E-01 -5.2763241089198E-01  1.6808038569235E-01
13  1.2000000000000E-01  5.6801747114606E-01 -6.0903500253887E-01  1.9147735115038E-01
14  1.3000000000000E-01  6.5382790126916E-01 -6.9105336051253E-01  2.1419961496874E-01
15  1.4000000000000E-01  7.4251685340966E-01 -7.7227232605989E-01  2.3575744337868E-01
16  1.5000000000000E-01  8.3328714512986E-01 -8.5124449311526E-01  2.5568775699543E-01
17  1.6000000000000E-01  9.2532470739021E-01 -9.2650877860592E-01  2.7356474864606E-01
18  1.7000000000000E-01  1.0178060657700E+00 -9.9661001999402E-01  2.8900983059862E-01
19  1.8000000000000E-01  1.1099058561750E+00 -1.0601194026483E+00  3.0170070689276E-01
20  1.9000000000000E-01  1.2008043018201E+00 -1.1156554804705E+00  3.1137938345346E-01
21  2.0000000000000E-01  1.2896945797864E+00 -1.1619055153718E+00  3.1785894930823E-01
22  2.1000000000000E-01  1.3757900076732E+00 -1.1976468261645E+00  3.2102898609500E-01
23  2.2000000000000E-01  1.4583309837476E+00 -1.2217678066577E+00  3.2085948966327E-01
24  2.3000000000000E-01  1.5365916174613E+00 -1.2332882476366E+00  3.1740321639315E-01
25  2.4000000000000E-01  1.6098859912022E+00 -1.2313785792622E+00  3.1079639731569E-01
26  2.5000000000000E-01  1.6775739985950E+00 -1.2153776404322E+00  3.0125779460896E-01
27  2.6000000000000E-01  1.7390667095009E+00 -1.1848085807368E+00  2.8908610695308E-01
28  2.7000000000000E-01  1.7938312170137E+00 -1.1393925095856E+00  2.7465576193744E-01
29  2.8000000000000E-01  1.8413949271534E+00 -1.0790595263249E+00  2.5841116461578E-01
30  2.9000000000000E-01  1.8813492575489E+00 -1.0039567948866E+00  2.4085950081926E-01
31  3.0000000000000E-01  1.9133527171263E+00 -9.1445336657835E-01  2.2256222141012E-01
32  3.1000000000000E-01  1.9371333446323E+00 -8.1114150457202E-01  2.0412535878649E-01
33  3.2000000000000E-01  1.9524904896707E+00 -6.9483432271152E-01  1.8618884917551E-01
34  3.3000000000000E-01  1.9592959257876E+00 -5.6655961834624E-01  1.6941505318787E-01
35  3.4000000000000E-01  1.9574942909636E+00 -4.2754985264485E-01  1.5447668242216E-01
36  3.5000000000000E-01  1.9471028566470E+00 -2.7922831063198E-01  1.4204435135235E-01
37  3.6000000000000E-01  1.9282106321518E+00 -1.2319155517946E-01  1.3277398112055E-01
38  3.7000000000000E-01  1.9009768168476E+00  3.8811627624373E-02  1.2729428509335E-01
39  3.8000000000000E-01  1.8656286180526E+00  2.0490451202564E-01  1.2619456508920E-01
40  3.9000000000000E-01  1.8224584579007E+00  3.7310958617916E-01  1.3001304210073E-01
41  4.0000000000000E-01  1.7718205976684E+00  5.4137814289713E-01  1.3922593623452E-01
42  4.1000000000000E-01  1.7141272130992E+00  7.0762180810250E-01  1.5423749766456E-01
43  4.2000000000000E-01  1.6498439591286E+00  8.6974545018739E-01  1.7537117389351E-01
44  4.3000000000000E-01  1.5794850670730E+00  1.0256808671945E+00  2.0286207884769E-01
45  4.4000000000000E-01  1.5036080217596E+00  1.1734206150231E+00  2.3685090666164E-01
46  4.5000000000000E-01  1.4228078702135E+00  1.3110513199233E+00  2.7737940783471E-01
47  4.6000000000000E-01  1.3377112173396E+00  1.4367858132552E+00  3.2438751821004E-01
48  4.7000000000000E-01  1.2489699674888E+00  1.5489934363721E+00  3.7771220240614E-01
49  4.8000000000000E-01  1.1572548738321E+00  1.6462278886316E+00  4.3708804340747E-01
50  4.9000000000000E-01  1.0632489600282E+00  1.7272520316812E+00  5.0214957950203E-01
51  5.0000000000000E-01  9.6764088069296E-01  1.7910591176007E+00  5.7243535914840E-01
52  5.1000000000000E-01  8.7111828861714E-01  1.8368899761469E+00  6.4739365416297E-01
53  5.2000000000000E-01  7.7436127745797E-01  1.8642457758059E+00  7.2638974235115E-01
54  5.3000000000000E-01  6.7803596871084E-01  1.8728960628534E+00  8.0871464283164E-01
55  5.4000000000000E-01  5.8278831109025E-01  1.8628818801185E+00  8.9359516129321E-01
56  5.5000000000000E-01  4.8923815897923E-01  1.8345138703876E+00  9.8020507870918E-01
57  5.6000000000000E-01  3.9797369431181E-01  1.7883653759497E+00  1.0676772960127E+00
58  5.7000000000000E-01  3.0954625311809E-01  1.7252606531557E+00  1.1551167292769E+00
59  5.8000000000000E-01  2.2446561398183E-01  1.6462584264959E+00  1.2416137353612E+00
60  5.9000000000000E-01  1.4319580085406E-01  1.5526311081060E+00  1.3262578370564E+00
61  6.0000000000000E-01  6.6151447060685E-02  1.4458401033809E+00  1.4081515097090E+00
62  6.1000000000000E-01 -6.3052390080673E-03  1.3275077093112E+00  1.4864237882954E+00
63  6.2000000000000E-01 -7.3866873067471E-02  1.1993861872707E+00  1.5602434550659E+00
64  6.3000000000000E-01 -1.3628263312866E-01  1.0633246545675E+00  1.6288315732284E+00
65  6.4000000000000E-01 -1.9335931897893E-01  9.2123448776669E-01  1.6914731416934E+00
66  6.5000000000000E-01 -2.4496172370048E-01  7.7505396455657E-01  1.7475276595659E+00
67  6.6000000000000E-01 -2.9101231669590E-01  6.2671288913037E-01  1.7964384067171E+00
68  6.7000000000000E-01 -3.3149024651059E-01  4.7809794839775E-01  1.8377402681879E+00
69  6.8000000000000E-01 -3.6642968052189E-01  3.3101953293764E-01  1.8710659550952E+00
70  6.9000000000000E-01 -3.9591750715777E-01  1.8718072788235E-01  1.8961505028041E+00
71  7.0000000000000E-01 -4.2009043456976E-01  4.8149135665069E-02  1.9128339579925E+00
72  7.1000000000000E-01 -4.3913152748435E-01 -8.4667864210659E-02  1.9210621994268E+00
73  7.2000000000000E-01 -4.5326623116842E-01 -2.1004388221986E-01  1.9208858722766E+00
74  7.3000000000000E-01 -4.6275793796451E-01 -3.2694985633463E-01  1.9124574520881E+00
75  7.4000000000000E-01 -4.6790315759488E-01 -4.3456559272657E-01  1.8960264915048E+00
76  7.5000000000000E-01 -4.6902635733924E-01 -5.3228623911207E-01  1.8719331398711E+00
77  7.6000000000000E-01 -4.6647454222907E-01 -6.1972352308265E-01  1.8406000623275E+00
78  7.7000000000000E-01 -4.6061164856784E-01 -6.9670169531989E-01  1.8025229202550E+00
79  7.8000000000000E-01 -4.5181282641432E-01 -7.6324822854462E-01  1.7582596083006E+00
80  7.9000000000000E-01 -4.4045868821739E-01 -8.1957943632679E-01  1.7084184740679E+00
81  8.0000000000000E-01 -4.2692960166362E-01 -8.6608129067403E-01  1.6536457742508E+00
82  8.1000000000000E-01 -4.1160010512332E-01 -9.0328583314909E-01  1.5946126449388E+00
83  8.2000000000000E-01 -3.9483352401613E-01 -9.3184369099651E-01  1.5320018834437E+00
84  8.3000000000000E-01 -3.7697686615310E-01 -9.5249332761970E-01  1.4664948537923E+00
85  8.4000000000000E-01 -3.5835607386209E-01 -9.6602777635444E-01  1.3987588375096E+00
86  8.5000000000000E-01 -3.3927171070178E-01 -9.7325972883055E-01  1.3294351550794E+00
87  8.6000000000000E-01 -3.1999516106820E-01 -9.7498597566921E-01  1.2591283811506E+00
88  8.7000000000000E-01 -3.0076542226012E-01 -9.7195232954924E-01  1.1883969678711E+00
89  8.8000000000000E-01 -2.8178657086685E-01 -9.6482030084085E-01  1.1177455754227E+00
90  8.9000000000000E-01 -2.6322598894672E-01 -9.5413694638108E-01  1.0476193867322E+00
91  9.0000000000000E-01 -2.4521344064854E-01 -9.4030947513543E-01  9.7840065429773E-01
92  9.1000000000000E-01 -2.2784109695493E-01 -9.2358637322668E-01  9.1040769101102E-01
93  9.2000000000000E-01 -2.1116461535156E-01 -9.0404700805098E-01  8.4389647371223E-01
94  9.3000000000000E-01 -1.9520539268883E-01 -8.8160188995186E-01  7.7906497795425E-01
95  9.4000000000000E-01 -1.7995412352917E-01 -8.5600601327131E-01  7.1606030505149E-01
96  9.5000000000000E-01 -1.6537581307060E-01 -8.2688796959026E-01  6.5498859793367E-01
97  9.6000000000000E-01 -1.5141641349151E-01 -7.9379782759278E-01  5.9592767059231E-01
98  9.7000000000000E-01 -1.3801127545220E-01 -7.5627710925862E-01  5.3894219693014E-01
99  9.8000000000000E-01 -1.2509563265524E-01 -7.1395456362340E-01  4.8410121855982E-01