Rf    ONCVPSP-4.0.1  r_core=   1.10045   1.10045   1.10045   1.20376
104.0000     44.0000      231012    zatom,zion,pspd
8 -116133   3     4   600     0    pspcod,pspxc,lmax,lloc,mmax,r2well
5.99000000  3.50000000  0.00000000    rchrg fchrg qchrg
3     4     3     2    nproj
3     1           extension_switch
4     4     3    nprojso
0                         1.9398541401979E+01 -4.7680723829833E+00  1.7619379127071E+00
1  0.0000000000000E+00 -7.7050301028336E-08 -9.4582471854565E-09 -2.5212917115214E-07
2  1.0000000000000E-02  1.7959606625738E-01  4.8533035754797E-02  6.4402421055332E-02
3  2.0000000000000E-02  3.5751266499338E-01  9.6986415646774E-02  1.2695039411464E-01
4  3.0000000000000E-02  5.3209561788379E-01  1.4528200598452E-01  1.8584287561478E-01
5  4.0000000000000E-02  7.0174069251534E-01  1.9334465350581E-01  2.3938378757316E-01
6  5.0000000000000E-02  8.6491701535083E-01  2.4110351843420E-01  2.8602996188573E-01
7  6.0000000000000E-02  1.0201886713144E+00  2.8849322619198E-01  3.2443383091204E-01
8  7.0000000000000E-02  1.1662339808467E+00  3.3545478908069E-01  3.5347942579151E-01
9  8.0000000000000E-02  1.3018620223306E+00  3.8193625869857E-01  3.7231049606455E-01
10  9.0000000000000E-02  1.4260260585136E+00  4.2789308094155E-01  3.8034986023611E-01
11  1.0000000000000E-01  1.5378336265636E+00  4.7328813767778E-01  3.7730942533053E-01
12  1.1000000000000E-01  1.6365531589251E+00  5.1809147209904E-01  3.6319066141898E-01
13  1.2000000000000E-01  1.7216171122160E+00  5.6227970780755E-01  3.3827567101090E-01
14  1.3000000000000E-01  1.7926216899798E+00  6.0583518436625E-01  3.0310933935414E-01
15  1.4000000000000E-01  1.8493233482385E+00  6.4874484380896E-01  2.5847337672809E-01
16  1.5000000000000E-01  1.8916323667783E+00  6.9099891299860E-01  2.0535335526353E-01
17  1.6000000000000E-01  1.9196038506425E+00  7.3258943531766E-01  1.4490008959736E-01
18  1.7000000000000E-01  1.9334265926040E+00  7.7350871162892E-01  7.8386903497002E-02
19  1.8000000000000E-01  1.9334102762791E+00  8.1374771449848E-01  7.1644563669463E-03
20  1.9000000000000E-01  1.9199715295447E+00  8.5329454116560E-01 -6.7385130390566E-02
21  2.0000000000000E-01  1.8936193483039E+00  8.9213296961838E-01 -1.4389310889517E-01
22  2.1000000000000E-01  1.8549404014462E+00  9.3024117843794E-01 -2.2104623280367E-01
23  2.2000000000000E-01  1.8045846998600E+00  9.6759068495773E-01 -2.9762464124521E-01
24  2.3000000000000E-01  1.7432520670778E+00  1.0041455479961E+00 -3.7253415314707E-01
25  2.4000000000000E-01  1.6716797887141E+00  1.0398618712914E+00 -4.4483186776549E-01
26  2.5000000000000E-01  1.5906317449970E+00  1.0746876322061E+00 -5.1374424905282E-01
27  2.6000000000000E-01  1.5008892485247E+00  1.1085628477240E+00 -5.7867718245737E-01
28  2.7000000000000E-01  1.4032437213446E+00  1.1414200767510E+00 -6.3921782050771E-01
29  2.8000000000000E-01  1.2984912551673E+00  1.1731852447378E+00 -6.9512836517450E-01
30  2.9000000000000E-01  1.1874290096212E+00  1.2037787642063E+00 -7.4633225759188E-01
31  3.0000000000000E-01  1.0708533194512E+00  1.2331169133397E+00 -7.9289354678998E-01
32  3.1000000000000E-01  9.4955930571332E-01  1.2611134248515E+00 -8.3499047712042E-01
33  3.2000000000000E-01  8.2434172122727E-01  1.2876812292481E+00 -8.7288455889983E-01
34  3.3000000000000E-01  6.9599670918855E-01  1.3127342906601E+00 -9.0688656010099E-01
35  3.4000000000000E-01  5.6532411777444E-01  1.3361894698510E+00 -9.3732097234104E-01
36  3.5000000000000E-01  4.3312999398030E-01  1.3579683479571E+00 -9.6449055795318E-01
37  3.6000000000000E-01  3.0022887733909E-01  1.3779989459872E+00 -9.8864257494023E-01
38  3.7000000000000E-01  1.6744552845770E-01  1.3962172790542E+00 -1.0099382039302E+00
39  3.8000000000000E-01  3.5615757645989E-02  1.4125686905619E+00 -1.0284265690875E+00
40  3.9000000000000E-01 -9.4413936106489E-02  1.4270089198700E+00 -1.0440245587192E+00
41  4.0000000000000E-01 -2.2178814790888E-01  1.4395048669942E+00 -1.0565034184889E+00
42  4.1000000000000E-01 -3.4564593574348E-01  1.4500350292688E+00 -1.0654828198404E+00
43  4.2000000000000E-01 -4.6512586420477E-01  1.4585895971722E+00 -1.0704328089002E+00
44  4.3000000000000E-01 -5.7937273254787E-01  1.4651702092221E+00 -1.0706837281463E+00
45  4.4000000000000E-01 -6.8754591560832E-01  1.4697893785096E+00 -1.0654438863603E+00
46  4.5000000000000E-01 -7.8882916741400E-01  1.4724696155813E+00 -1.0538244437237E+00
47  4.6000000000000E-01 -8.8244166368985E-01  1.4732422835472E+00 -1.0348706898522E+00
48  4.7000000000000E-01 -9.6764999382310E-01  1.4721462310798E+00 -1.0075986337704E+00
49  4.8000000000000E-01 -1.0437807577230E+00  1.4692262570160E+00 -9.7103560574859E-01
50  4.9000000000000E-01 -1.1102333804872E+00  1.4645314662986E+00 -9.2426339949694E-01
51  5.0000000000000E-01 -1.1664927294768E+00  1.4581135807761E+00 -8.6646236553630E-01
52  5.1000000000000E-01 -1.2121411053729E+00  1.4500252698016E+00 -7.9695480676408E-01
53  5.2000000000000E-01 -1.2468691815178E+00  1.4403185645906E+00 -7.1524602727859E-01
54  5.3000000000000E-01 -1.2704854842455E+00  1.4290434169662E+00 -6.2106144523123E-01
55  5.4000000000000E-01 -1.2829240402909E+00  1.4162464575680E+00 -5.1437829751215E-01
56  5.5000000000000E-01 -1.2842498645419E+00  1.4019700010525E+00 -3.9545063408300E-01
57  5.6000000000000E-01 -1.2746620206499E+00  1.3862513365439E+00 -2.6482651655214E-01
58  5.7000000000000E-01 -1.2544940562331E+00  1.3691223309576E+00 -1.2335659132760E-01
59  5.8000000000000E-01 -1.2242116911421E+00  1.3506093611994E+00  2.7806506725110E-02
60  5.9000000000000E-01 -1.1844077188082E+00  1.3307335790757E+00  1.8721815884747E-01
61  6.0000000000000E-01 -1.1357941642333E+00  1.3095115004574E+00  3.5316109948783E-01
62  6.1000000000000E-01 -1.0791918248192E+00  1.2869558982817E+00  5.2367369769540E-01
63  6.2000000000000E-01 -1.0155173991715E+00  1.2630769677645E+00  6.9658649463205E-01
64  6.3000000000000E-01 -9.4576848158154E-01  1.2378837221305E+00  8.6956603194988E-01
65  6.4000000000000E-01 -8.7100676370466E-01  1.2113855686001E+00  1.0401647609245E+00
66  6.5000000000000E-01 -7.9233983792708E-01  1.1835940076029E+00  1.2058756177710E+00
67  6.6000000000000E-01 -7.1090203738895E-01  1.1545243934343E+00  1.3641896932119E+00
68  6.7000000000000E-01 -6.2783477438044E-01  1.1241976920098E+00  1.5126553191660E+00
69  6.8000000000000E-01 -5.4426685111924E-01  1.0926421710636E+00  1.6489368455931E+00
70  6.9000000000000E-01 -4.6129521452108E-01  1.0598949600975E+00  1.7708713873730E+00
71  7.0000000000000E-01 -3.7996660976826E-01  1.0260034215239E+00  1.8765218839416E+00
72  7.1000000000000E-01 -3.0126055702261E-01  9.9102628061378E-01  1.9642249307362E+00
73  7.2000000000000E-01 -2.2607403274838E-01  9.5503446982355E-01  2.0326320068902E+00
74  7.3000000000000E-01 -1.5520818342429E-01  9.1811165255601E-01  2.0807429321097E+00
75  7.4000000000000E-01 -8.9357336916534E-02  8.8035440205855E-01  2.1079306297598E+00
76  7.5000000000000E-01 -2.9100507706377E-02  8.4187202260433E-01  2.1139565442692E+00
77  7.6000000000000E-01  2.5104481039650E-02  8.0278601192775E-01  2.0989763495311E+00
78  7.7000000000000E-01  7.2924210329460E-02  7.6322917567358E-01  2.0635358809171E+00
79  7.8000000000000E-01  1.1415023863877E-01  7.2334441594857E-01  2.0085575165325E+00
80  7.9000000000000E-01  1.4869713131516E-01  6.8328322652900E-01  1.9353175132337E+00
81  8.0000000000000E-01  1.7659810599379E-01  6.4320393649880E-01  1.8454150599217E+00
82  8.1000000000000E-01  1.9799851003032E-01  6.0326975173132E-01  1.7407340357314E+00
83  8.2000000000000E-01  2.1314739206247E-01  5.6364664939662E-01  1.6233986460212E+00
84  8.3000000000000E-01  2.2238746437815E-01  5.2450118434835E-01  1.4957242478890E+00
85  8.4000000000000E-01  2.2614377464788E-01  4.8599826765903E-01  1.3601647641965E+00
86  8.5000000000000E-01  2.2491141404848E-01  4.4829897664430E-01  1.2192581173483E+00
87  8.6000000000000E-01  2.1924258358154E-01  4.1155845243289E-01  1.0755710897295E+00
88  8.7000000000000E-01  2.0973332163286E-01  3.7592393556344E-01  9.3164493695450E-01
89  8.8000000000000E-01  1.9701016413231E-01  3.4153298236045E-01  7.8994294501017E-01
90  8.9000000000000E-01  1.8171696506024E-01  3.0851189516502E-01  6.5280093679215E-01
91  9.0000000000000E-01  1.6450205089809E-01  2.7697438814219E-01  5.2238150294252E-01
92  9.1000000000000E-01  1.4600581964713E-01  2.4702049767850E-01  4.0063246325522E-01
93  9.2000000000000E-01  1.2684882522440E-01  2.1873573268944E-01  2.8924976644385E-01
94  9.3000000000000E-01  1.0762031358231E-01  1.9219044587668E-01  1.8964471699885E-01
95  9.4000000000000E-01  8.8867100105217E-02  1.6743939253057E-01  1.0291508809348E-01
96  9.5000000000000E-01  7.1082601119863E-02  1.4452142929391E-01  2.9819349430829E-02
97  9.6000000000000E-01  5.4695758063823E-02  1.2345929180711E-01 -2.9247081178158E-02
98  9.7000000000000E-01  4.0059523305735E-02  1.0425937774997E-01 -7.4274953612326E-02
99  9.8000000000000E-01  2.7438513925391E-02  8.6911450850159E-02 -1.0566532993221E-01
100  9.9000000000000E-01  1.6995379225308E-02  7.1388171630464E-02 -1.2425668329698E-01
101  1.0000000000000E+00  8.7754375582078E-03  5.7644358739539E-02 -1.3135680181122E-01
102  1.0100000000000E+00  2.6929944759741E-03  4.5616229725693E-02 -1.2876198339285E-01
103  1.0200000000000E+00 -1.4396235668658E-03  3.5224684485806E-02 -1.1856438250402E-01
104  1.0300000000000E+00 -3.8662232291158E-03  2.6381545639421E-02 -1.0289992354588E-01
105  1.0400000000000E+00 -4.8720815990960E-03  1.8993649412582E-02 -8.3868919761168E-02
106  1.0500000000000E+00 -4.7856823076666E-03  1.2960916947019E-02 -6.3512796424598E-02
107  1.0600000000000E+00 -3.9983026539570E-03  8.1629193751048E-03 -4.3847441729610E-02
108  1.0700000000000E+00 -2.8023836446033E-03  4.5307531481822E-03 -2.6407573251668E-02
109  1.0800000000000E+00 -1.5099669423246E-03  2.0015167442158E-03 -1.2540499720324E-02
110  1.0900000000000E+00 -4.5633006631652E-04  5.0955997072261E-04 -3.4008968081768E-03
111  1.1000000000000E+00 -4.5876112344447E-06  4.3834773426859E-06 -3.0796342675005E-05
112  1.1100000000000E+00 -3.0300164827285E-06  2.9607226803118E-06 -2.0801975775532E-05
113  1.1200000000000E+00  8.3482710131616E-08 -8.7332533180294E-08  5.9765764948105E-07
114  1.13  0.  0.  0.
115  1.14  0.  0.  0.
116  1.15  0.  0.  0.
117  1.16  0.  0.  0.
118  1.17  0.  0.  0.
119  1.18  0.  0.  0.
120  1.19  0.  0.  0.
121  1.20  0.  0.  0.
122  1.21  0.  0.  0.
123  1.22  0.  0.  0.
124  1.23  0.  0.  0.
125  1.24  0.  0.  0.
126  1.25  0.  0.  0.
127  1.26  0.  0.  0.
128  1.27  0.  0.  0.
129  1.28  0.  0.  0.
130  1.29  0.  0.  0.
131  1.30  0.  0.  0.
132  1.31  0.  0.  0.
133  1.32  0.  0.  0.
134  1.33  0.  0.  0.
135  1.34  0.  0.  0.
136  1.35  0.  0.  0.
137  1.36  0.  0.  0.
138  1.37  0.  0.  0.
139  1.38  0.  0.  0.
140  1.39  0.  0.  0.
141  1.40  0.  0.  0.
142  1.41  0.  0.  0.
143  1.42  0.  0.  0.
144  1.43  0.  0.  0.
145  1.44  0.  0.  0.
146  1.45  0.  0.  0.
147  1.46  0.  0.  0.
148  1.47  0.  0.  0.
149  1.48  0.  0.  0.
150  1.49  0.  0.  0.
151  1.50  0.  0.  0.
152  1.51  0.  0.  0.
153  1.52  0.  0.  0.
154  1.53  0.  0.  0.
155  1.54  0.  0.  0.
156  1.55  0.  0.  0.
157  1.56  0.  0.  0.
158  1.57  0.  0.  0.
159  1.58  0.  0.  0.
160  1.59  0.  0.  0.
161  1.60  0.  0.  0.
162  1.61  0.  0.  0.
163  1.62  0.  0.  0.
164  1.63  0.  0.  0.
165  1.64  0.  0.  0.
166  1.65  0.  0.  0.
167  1.66  0.  0.  0.
168  1.67  0.  0.  0.
169  1.68  0.  0.  0.
170  1.69  0.  0.  0.
171  1.70  0.  0.  0.
172  1.71  0.  0.  0.
173  1.72  0.  0.  0.
174  1.73  0.  0.  0.
175  1.74  0.  0.  0.
176  1.75  0.  0.  0.
177  1.76  0.  0.  0.
178  1.77  0.  0.  0.
179  1.78  0.  0.  0.
180  1.79  0.  0.  0.
181  1.80  0.  0.  0.
182  1.81  0.  0.  0.
183  1.82  0.  0.  0.
184  1.83  0.  0.  0.
185  1.84  0.  0.  0.
186  1.85  0.  0.  0.
187  1.86  0.  0.  0.
188  1.87  0.  0.  0.
189  1.88  0.  0.  0.
190  1.89  0.  0.  0.
191  1.90  0.  0.  0.
192  1.91  0.  0.  0.
193  1.92  0.  0.  0.
194  1.93  0.  0.  0.
195  1.94  0.  0.  0.
196  1.95  0.  0.  0.
197  1.96  0.  0.  0.
198  1.97  0.  0.  0.
199  1.98  0.  0.  0.
200  1.99  0.  0.  0.
201  2.00  0.  0.  0.
202  2.01  0.  0.  0.
203  2.02  0.  0.  0.
204  2.03  0.  0.  0.
205  2.04  0.  0.  0.
206  2.05  0.  0.  0.
207  2.06  0.  0.  0.
208  2.07  0.  0.  0.
209  2.08  0.  0.  0.
210  2.09  0.  0.  0.
211  2.10  0.  0.  0.
212  2.11  0.  0.  0.
213  2.12  0.  0.  0.
214  2.13  0.  0.  0.
215  2.14  0.  0.  0.
216  2.15  0.  0.  0.
217  2.16  0.  0.  0.
218  2.17  0.  0.  0.
219  2.18  0.  0.  0.
220  2.19  0.  0.  0.
221  2.20  0.  0.  0.
222  2.21  0.  0.  0.
223  2.22  0.  0.  0.
224  2.23  0.  0.  0.
225  2.24  0.  0.  0.
226  2.25  0.  0.  0.
227  2.26  0.  0.  0.
228  2.27  0.  0.  0.
229  2.28  0.  0.  0.
230  2.29  0.  0.  0.
231  2.30  0.  0.  0.
232  2.31  0.  0.  0.
233  2.32  0.  0.  0.
234  2.33  0.  0.  0.
235  2.34  0.  0.  0.
236  2.35  0.  0.  0.
237  2.36  0.  0.  0.
238  2.37  0.  0.  0.
239  2.38  0.  0.  0.
240  2.39  0.  0.  0.
241  2.40  0.  0.  0.
242  2.41  0.  0.  0.
243  2.42  0.  0.  0.
244  2.43  0.  0.  0.
245  2.44  0.  0.  0.
246  2.45  0.  0.  0.
247  2.46  0.  0.  0.
248  2.47  0.  0.  0.
249  2.48  0.  0.  0.
250  2.49  0.  0.  0.
251  2.50  0.  0.  0.
252  2.51  0.  0.  0.
253  2.52  0.  0.  0.
254  2.53  0.  0.  0.
255  2.54  0.  0.  0.
256  2.55  0.  0.  0.
257  2.56  0.  0.  0.
258  2.57  0.  0.  0.
259  2.58  0.  0.  0.
260  2.59  0.  0.  0.
261  2.60  0.  0.  0.
262  2.61  0.  0.  0.
263  2.62  0.  0.  0.
264  2.63  0.  0.  0.
265  2.64  0.  0.  0.
266  2.65  0.  0.  0.
267  2.66  0.  0.  0.
268  2.67  0.  0.  0.
269  2.68  0.  0.  0.
270  2.69  0.  0.  0.
271  2.70  0.  0.  0.
272  2.71  0.  0.  0.
273  2.72  0.  0.  0.
274  2.73  0.  0.  0.
275  2.74  0.  0.  0.
276  2.75  0.  0.  0.
277  2.76  0.  0.  0.
278  2.77  0.  0.  0.
279  2.78  0.  0.  0.
280  2.79  0.  0.  0.
281  2.80  0.  0.  0.
282  2.81  0.  0.  0.
283  2.82  0.  0.  0.
284  2.83  0.  0.  0.
285  2.84  0.  0.  0.
286  2.85  0.  0.  0.
287  2.86  0.  0.  0.
288  2.87  0.  0.  0.
289  2.88  0.  0.  0.
290  2.89  0.  0.  0.
291  2.90  0.  0.  0.
292  2.91  0.  0.  0.
293  2.92  0.  0.  0.
294  2.93  0.  0.  0.
295  2.94  0.  0.  0.
296  2.95  0.  0.  0.
297  2.96  0.  0.  0.
298  2.97  0.  0.  0.
299  2.98  0.  0.  0.
300  2.99  0.  0.  0.
301  3.00  0.  0.  0.
302  3.01  0.  0.  0.
303  3.02  0.  0.  0.
304  3.03  0.  0.  0.
305  3.04  0.  0.  0.
306  3.05  0.  0.  0.
307  3.06  0.  0.  0.
308  3.07  0.  0.  0.
309  3.08  0.  0.  0.
310  3.09  0.  0.  0.
311  3.10  0.  0.  0.
312  3.11  0.  0.  0.
313  3.12  0.  0.  0.
314  3.13  0.  0.  0.
315  3.14  0.  0.  0.
316  3.15  0.  0.  0.
317  3.16  0.  0.  0.
318  3.17  0.  0.  0.
319  3.18  0.  0.  0.
320  3.19  0.  0.  0.
321  3.20  0.  0.  0.
322  3.21  0.  0.  0.
323  3.22  0.  0.  0.
324  3.23  0.  0.  0.
325  3.24  0.  0.  0.
326  3.25  0.  0.  0.
327  3.26  0.  0.  0.
328  3.27  0.  0.  0.
329  3.28  0.  0.  0.
330  3.29  0.  0.  0.
331  3.30  0.  0.  0.
332  3.31  0.  0.  0.
333  3.32  0.  0.  0.
334  3.33  0.  0.  0.
335  3.34  0.  0.  0.
336  3.35  0.  0.  0.
337  3.36  0.  0.  0.
338  3.37  0.  0.  0.
339  3.38  0.  0.  0.
340  3.39  0.  0.  0.
341  3.40  0.  0.  0.
342  3.41  0.  0.  0.
343  3.42  0.  0.  0.
344  3.43  0.  0.  0.
345  3.44  0.  0.  0.
346  3.45  0.  0.  0.
347  3.46  0.  0.  0.
348  3.47  0.  0.  0.
349  3.48  0.  0.  0.
350  3.49  0.  0.  0.
351  3.50  0.  0.  0.
352  3.51  0.  0.  0.
353  3.52  0.  0.  0.
354  3.53  0.  0.  0.
355  3.54  0.  0.  0.
356  3.55  0.  0.  0.
357  3.56  0.  0.  0.
358  3.57  0.  0.  0.
359  3.58  0.  0.  0.
360  3.59  0.  0.  0.
361  3.60  0.  0.  0.
362  3.61  0.  0.  0.
363  3.62  0.  0.  0.
364  3.63  0.  0.  0.
365  3.64  0.  0.  0.
366  3.65  0.  0.  0.
367  3.66  0.  0.  0.
368  3.67  0.  0.  0.
369  3.68  0.  0.  0.
370  3.69  0.  0.  0.
371  3.70  0.  0.  0.
372  3.71  0.  0.  0.
373  3.72  0.  0.  0.
374  3.73  0.  0.  0.
375  3.74  0.  0.  0.
376  3.75  0.  0.  0.
377  3.76  0.  0.  0.
378  3.77  0.  0.  0.
379  3.78  0.  0.  0.
380  3.79  0.  0.  0.
381  3.80  0.  0.  0.
382  3.81  0.  0.  0.
383  3.82  0.  0.  0.
384  3.83  0.  0.  0.
385  3.84  0.  0.  0.
386  3.85  0.  0.  0.
387  3.86  0.  0.  0.
388  3.87  0.  0.  0.
389  3.88  0.  0.  0.
390  3.89  0.  0.  0.
391  3.90  0.  0.  0.
392  3.91  0.  0.  0.
393  3.92  0.  0.  0.
394  3.93  0.  0.  0.
395  3.94  0.  0.  0.
396  3.95  0.  0.  0.
397  3.96  0.  0.  0.
398  3.97  0.  0.  0.
399  3.98  0.  0.  0.
400  3.99  0.  0.  0.
401  4.00  0.  0.  0.
402  4.01  0.  0.  0.
403  4.02  0.  0.  0.
404  4.03  0.  0.  0.
405  4.04  0.  0.  0.
406  4.05  0.  0.  0.
407  4.06  0.  0.  0.
408  4.07  0.  0.  0.
409  4.08  0.  0.  0.
410  4.09  0.  0.  0.
411  4.10  0.  0.  0.
412  4.11  0.  0.  0.
413  4.12  0.  0.  0.
414  4.13  0.  0.  0.
415  4.14  0.  0.  0.
416  4.15  0.  0.  0.
417  4.16  0.  0.  0.
418  4.17  0.  0.  0.
419  4.18  0.  0.  0.
420  4.19  0.  0.  0.
421  4.20  0.  0.  0.
422  4.21  0.  0.  0.
423  4.22  0.  0.  0.
424  4.23  0.  0.  0.
425  4.24  0.  0.  0.
426  4.25  0.  0.  0.
427  4.26  0.  0.  0.
428  4.27  0.  0.  0.
429  4.28  0.  0.  0.
430  4.29  0.  0.  0.
431  4.30  0.  0.  0.
432  4.31  0.  0.  0.
433  4.32  0.  0.  0.
434  4.33  0.  0.  0.
435  4.34  0.  0.  0.
436  4.35  0.  0.  0.
437  4.36  0.  0.  0.
438  4.37  0.  0.  0.
439  4.38  0.  0.  0.
440  4.39  0.  0.  0.
441  4.40  0.  0.  0.
442  4.41  0.  0.  0.
443  4.42  0.  0.  0.
444  4.43  0.  0.  0.
445  4.44  0.  0.  0.
446  4.45  0.  0.  0.
447  4.46  0.  0.  0.
448  4.47  0.  0.  0.
449  4.48  0.  0.  0.
450  4.49  0.  0.  0.
451  4.50  0.  0.  0.
452  4.51  0.  0.  0.
453  4.52  0.  0.  0.
454  4.53  0.  0.  0.
455  4.54  0.  0.  0.
456  4.55  0.  0.  0.
457  4.56  0.  0.  0.
458  4.57  0.  0.  0.
459  4.58  0.  0.  0.
460  4.59  0.  0.  0.
461  4.60  0.  0.  0.
462  4.61  0.  0.  0.
463  4.62  0.  0.  0.
464  4.63  0.  0.  0.
465  4.64  0.  0.  0.
466  4.65  0.  0.  0.
467  4.66  0.  0.  0.
468  4.67  0.  0.  0.
469  4.68  0.  0.  0.
470  4.69  0.  0.  0.
471  4.70  0.  0.  0.
472  4.71  0.  0.  0.
473  4.72  0.  0.  0.
474  4.73  0.  0.  0.
475  4.74  0.  0.  0.
476  4.75  0.  0.  0.
477  4.76  0.  0.  0.
478  4.77  0.  0.  0.
479  4.78  0.  0.  0.
480  4.79  0.  0.  0.
481  4.80  0.  0.  0.
482  4.81  0.  0.  0.
483  4.82  0.  0.  0.
484  4.83  0.  0.  0.
485  4.84  0.  0.  0.
486  4.85  0.  0.  0.
487  4.86  0.  0.  0.
488  4.87  0.  0.  0.
489  4.88  0.  0.  0.
490  4.89  0.  0.  0.
491  4.90  0.  0.  0.
492  4.91  0.  0.  0.
493  4.92  0.  0.  0.
494  4.93  0.  0.  0.
495  4.94  0.  0.  0.
496  4.95  0.  0.  0.
497  4.96  0.  0.  0.
498  4.97  0.  0.  0.
499  4.98  0.  0.  0.
500  4.99  0.  0.  0.
501  5.00  0.  0.  0.
502  5.01  0.  0.  0.
503  5.02  0.  0.  0.
504  5.03  0.  0.  0.
505  5.04  0.  0.  0.
506  5.05  0.  0.  0.
507  5.06  0.  0.  0.
508  5.07  0.  0.  0.
509  5.08  0.  0.  0.
510  5.09  0.  0.  0.
511  5.10  0.  0.  0.
512  5.11  0.  0.  0.
513  5.12  0.  0.  0.
514  5.13  0.  0.  0.
515  5.14  0.  0.  0.
516  5.15  0.  0.  0.
517  5.16  0.  0.  0.
518  5.17  0.  0.  0.
519  5.18  0.  0.  0.
520  5.19  0.  0.  0.
521  5.20  0.  0.  0.
522  5.21  0.  0.  0.
523  5.22  0.  0.  0.
524  5.23  0.  0.  0.
525  5.24  0.  0.  0.
526  5.25  0.  0.  0.
527  5.26  0.  0.  0.
528  5.27  0.  0.  0.
529  5.28  0.  0.  0.
530  5.29  0.  0.  0.
531  5.30  0.  0.  0.
532  5.31  0.  0.  0.
533  5.32  0.  0.  0.
534  5.33  0.  0.  0.
535  5.34  0.  0.  0.
536  5.35  0.  0.  0.
537  5.36  0.  0.  0.
538  5.37  0.  0.  0.
539  5.38  0.  0.  0.
540  5.39  0.  0.  0.
541  5.40  0.  0.  0.
542  5.41  0.  0.  0.
543  5.42  0.  0.  0.
544  5.43  0.  0.  0.
545  5.44  0.  0.  0.
546  5.45  0.  0.  0.
547  5.46  0.  0.  0.
548  5.47  0.  0.  0.
549  5.48  0.  0.  0.
550  5.49  0.  0.  0.
551  5.50  0.  0.  0.
552  5.51  0.  0.  0.
553  5.52  0.  0.  0.
554  5.53  0.  0.  0.
555  5.54  0.  0.  0.
556  5.55  0.  0.  0.
557  5.56  0.  0.  0.
558  5.57  0.  0.  0.
559  5.58  0.  0.  0.
560  5.59  0.  0.  0.
561  5.60  0.  0.  0.
562  5.61  0.  0.  0.
563  5.62  0.  0.  0.
564  5.63  0.  0.  0.
565  5.64  0.  0.  0.
566  5.65  0.  0.  0.
567  5.66  0.  0.  0.
568  5.67  0.  0.  0.
569  5.68  0.  0.  0.
570  5.69  0.  0.  0.
571  5.70  0.  0.  0.
572  5.71  0.  0.  0.
573  5.72  0.  0.  0.
574  5.73  0.  0.  0.
575  5.74  0.  0.  0.
576  5.75  0.  0.  0.
577  5.76  0.  0.  0.
578  5.77  0.  0.  0.
579  5.78  0.  0.  0.
580  5.79  0.  0.  0.
581  5.80  0.  0.  0.
582  5.81  0.  0.  0.
583  5.82  0.  0.  0.
584  5.83  0.  0.  0.
585  5.84  0.  0.  0.
586  5.85  0.  0.  0.
587  5.86  0.  0.  0.
588  5.87  0.  0.  0.
589  5.88  0.  0.  0.
590  5.89  0.  0.  0.
591  5.90  0.  0.  0.
592  5.91  0.  0.  0.
593  5.92  0.  0.  0.
594  5.93  0.  0.  0.
595  5.94  0.  0.  0.
596  5.95  0.  0.  0.
597  5.96  0.  0.  0.
598  5.97  0.  0.  0.
599  5.98  0.  0.  0.
600  5.99  0.  0.  0.
1                        -4.2945334500656E+00  3.9309150178172E+00  3.8233657269718E-01 -1.2601398942311E-02
1  0.0000000000000E+00  6.1259207428943E-09  9.9400680325656E-08 -3.1571918568396E-07 -1.2306970220699E-08
2  1.0000000000000E-02  2.0083991053390E-03 -2.2171009391547E-03 -9.0962059636924E-03  5.3816181200663E-03
3  2.0000000000000E-02  8.0202602858908E-03 -8.8853001850041E-03 -3.6149387457152E-02  2.1438860776154E-02
4  3.0000000000000E-02  1.7995743854325E-02 -2.0053667915963E-02 -8.0459903233866E-02  4.7909673082033E-02
5  4.0000000000000E-02  3.1869008498018E-02 -3.5798663959226E-02 -1.4088369073975E-01  8.4359917028823E-02
6  5.0000000000000E-02  4.9549033875064E-02 -5.6216405250044E-02 -2.1586451256561E-01  1.3018736775129E-01
7  6.0000000000000E-02  7.0920743489195E-02 -8.1412335570106E-02 -3.0347760503831E-01  1.8462743416187E-01
8  7.0000000000000E-02  9.5846400338042E-02 -1.1148876759243E-01 -4.0148329949920E-01  2.4676071551465E-01
9  8.0000000000000E-02  1.2416724170321E-01 -1.4653086666089E-01 -5.0738887109955E-01  3.1552251776849E-01
10  9.0000000000000E-02  1.5570531452495E-01 -1.8659172101675E-01 -6.1851661860469E-01  3.8971445268069E-01
11  1.0000000000000E-01  1.9026546924012E-01 -2.3167719116401E-01 -7.3207600061848E-01  4.6801822696814E-01
12  1.1000000000000E-01  2.2763746786503E-01 -2.8173124970764E-01 -8.4523755477696E-01  5.4901169799218E-01
13  1.2000000000000E-01  2.6759816152110E-01 -3.3662251151127E-01 -9.5520630965348E-01  6.3118722648126E-01
14  1.3000000000000E-01  3.0991369351385E-01 -3.9613261288402E-01 -1.0592924639801E+00  7.1297229688521E-01
15  1.4000000000000E-01  3.5434168640992E-01 -4.5994702944855E-01 -1.1549772507568E+00  7.9275230396637E-01
16  1.5000000000000E-01  4.0063337517925E-01 -5.2764882827044E-01 -1.2399721182966E+00  8.6889532283885E-01
17  1.6000000000000E-01  4.4853565319695E-01 -5.9871573469497E-01 -1.3122696369462E+00  9.3977859219075E-01
18  1.7000000000000E-01  4.9779300350755E-01 -6.7252076297837E-01 -1.3701848674814E+00  1.0038163506830E+00
19  1.8000000000000E-01  5.4814929398501E-01 -7.4833651772514E-01 -1.4123862915463E+00  1.0594885786911E+00
20  1.9000000000000E-01  5.9934942159752E-01 -8.2534312630187E-01 -1.4379157912545E+00  1.1053701159655E+00
21  2.0000000000000E-01  6.5114079762019E-01 -9.0263961692854E-01 -1.4461975588109E+00  1.1401595547323E+00
22  2.1000000000000E-01  7.0327467204782E-01 -9.7925841911871E-01 -1.4370362023255E+00  1.1627072512940E+00
23  2.2000000000000E-01  7.5550730137833E-01 -1.0541825382881E+00 -1.4106046760870E+00  1.1720417609544E+00
24  2.3000000000000E-01  8.0760096912458E-01 -1.1263648498503E+00 -1.3674229888194E+00  1.1673939841112E+00
25  2.4000000000000E-01  8.5932487266825E-01 -1.1947488743538E+00 -1.3083289200152E+00  1.1482183179076E+00
26  2.5000000000000E-01  9.1045589323722E-01 -1.2582903376050E+00 -1.2344421926493E+00  1.1142101392932E+00
27  2.6000000000000E-01  9.6077926776608E-01 -1.3159787905800E+00 -1.1471237033657E+00  1.0653190021377E+00
28  2.7000000000000E-01  1.0100891821408E+00 -1.3668585643566E+00 -1.0479314943193E+00  1.0017570125521E+00
29  2.8000000000000E-01  1.0581893048457E+00 -1.4100483651589E+00 -9.3857516298437E-01  9.2400195117528E-01
30  2.9000000000000E-01  1.1048932783943E+00 -1.4447588725244E+00 -8.2087034907497E-01  8.3279483623476E-01
31  3.0000000000000E-01  1.1500251832530E+00 -1.4703077870182E+00 -6.9669481584683E-01  7.2913176315346E-01
32  3.1000000000000E-01  1.1934199854397E+00 -1.4861318792108E+00 -5.6794746363616E-01  6.1425001098979E-01
33  3.2000000000000E-01  1.2349239747958E+00 -1.4917957142747E+00 -4.3651138604357E-01  4.8960856807608E-01
34  3.3000000000000E-01  1.2743951963406E+00 -1.4869968612786E+00 -3.0422181504610E-01  3.5686339339445E-01
35  3.4000000000000E-01  1.3117038723797E+00 -1.4715675373220E+00 -1.7283951324265E-01  2.1783789076998E-01
36  3.5000000000000E-01  1.3467328084197E+00 -1.4454727780380E+00 -4.4029872931505E-02  7.4489224097037E-02
37  3.6000000000000E-01  1.3793777717032E+00 -1.4088053617028E+00  8.0652313456005E-02 -7.1128762052384E-02
38  3.7000000000000E-01  1.4095478275717E+00 -1.3617778384394E+00  1.9977272551408E-01 -2.1690513616079E-01
39  3.8000000000000E-01  1.4371656160984E+00 -1.3047121235442E+00  3.1202259287942E-01 -3.6071301643199E-01
40  3.9000000000000E-01  1.4621675496969E+00 -1.2380272002160E+00  4.1621975156377E-01 -5.0045121646252E-01
41  4.0000000000000E-01  1.4845039118296E+00 -1.1622255382909E+00  5.1130661107024E-01 -6.3408533491890E-01
42  4.1000000000000E-01  1.5041388375921E+00 -1.0778788693716E+00  5.9634606884573E-01 -7.5968722638497E-01
43  4.2000000000000E-01  1.5210501588625E+00 -9.8561396357622E-01  6.7051645262440E-01 -8.7547182654874E-01
44  4.3000000000000E-01  1.5352290998242E+00 -8.8609902881928E-01  7.3310655372002E-01 -9.7983037414479E-01
45  4.4000000000000E-01  1.5466798129160E+00 -7.8003130113884E-01  7.8351173675108E-01 -1.0713591727657E+00
46  4.5000000000000E-01  1.5554187504604E+00 -6.6812631636204E-01  8.2123197776197E-01 -1.1488831648331E+00
47  4.6000000000000E-01  1.5614738731818E+00 -5.5110925274776E-01  8.4587249996590E-01 -1.2114737436618E+00
48  4.7000000000000E-01  1.5648837032880E+00 -4.2970861553018E-01  8.5714745337682E-01 -1.2584604026995E+00
49  4.8000000000000E-01  1.5656962364783E+00 -3.0465240269814E-01  8.5488683230440E-01 -1.2894360079503E+00
50  4.9000000000000E-01  1.5639677338594E+00 -1.7666675267185E-01  8.3904655540365E-01 -1.3042556740241E+00
51  5.0000000000000E-01  1.5597614209777E+00 -4.6476934933297E-02  8.0972135992674E-01 -1.3030294195397E+00
52  5.1000000000000E-01  1.5531461267137E+00  8.5189589598678E-02  7.6715989861516E-01 -1.2861089670452E+00
53  5.2000000000000E-01  1.5441948993450E+00  2.1759843445925E-01  7.1178118763642E-01 -1.2540692295769E+00
54  5.3000000000000E-01  1.5329836404008E+00  3.5000238141618E-01  6.4419134964512E-01 -1.2076851842701E+00
55  5.4000000000000E-01  1.5195897988028E+00  4.8163488709883E-01  5.6519943859072E-01 -1.1479049674487E+00
56  5.5000000000000E-01  1.5040911680404E+00  6.1170364428842E-01  4.7583103159796E-01 -1.0758201305717E+00
57  5.6000000000000E-01  1.4865648276673E+00  7.3938486686838E-01  3.7733823510471E-01 -9.9263406854499E-01
58  5.7000000000000E-01  1.4670862672017E+00  8.6381896298795E-01  2.7120478181535E-01 -8.9962966858410E-01
59  5.8000000000000E-01  1.4457287255984E+00  9.8410822424386E-01  1.5914499339345E-01 -7.9813722769327E-01
60  5.9000000000000E-01  1.4225627729507E+00  1.0993170903145E+00  4.3095549664844E-02 -6.8950364986700E-01
61  6.0000000000000E-01  1.3976561531582E+00  1.2084754505228E+00 -7.4800766088331E-02 -5.7506386164562E-01
62  6.1000000000000E-01  1.3710738972122E+00  1.3105853195890E+00 -1.9221989179060E-01 -4.5611527927156E-01
63  6.2000000000000E-01  1.3428787068008E+00  1.4046310788812E+00 -3.0669009734086E-01 -3.3389602625291E-01
64  6.3000000000000E-01  1.3131315974939E+00  1.4895933123319E+00 -4.1563423454881E-01 -2.0956744157151E-01
65  6.4000000000000E-01  1.2818927802028E+00  1.5644660942486E+00 -5.1642009719496E-01 -8.4201241954973E-02
66  6.5000000000000E-01  1.2492227493529E+00  1.6282774114740E+00 -6.0641797652920E-01  4.1228486858632E-02
67  6.6000000000000E-01  1.2151835366631E+00  1.6801122320585E+00 -6.8306412451899E-01  1.6584848802910E-01
68  6.7000000000000E-01  1.1798400810086E+00  1.7191375741146E+00 -7.4392849303672E-01  2.8888492925927E-01
69  6.8000000000000E-01  1.1432616579369E+00  1.7446287889416E+00 -7.8678481758888E-01  4.0965778519975E-01
70  6.9000000000000E-01  1.1055233073401E+00  1.7559961583321E+00 -8.0968087348024E-01  5.2757155923097E-01
71  7.0000000000000E-01  1.0667071948491E+00  1.7528108229508E+00 -8.1100656301641E-01  6.4210303761291E-01
72  7.1000000000000E-01  1.0269038419137E+00  1.7348290114033E+00 -7.8955740448493E-01  7.5278688065201E-01
73  7.2000000000000E-01  9.8621316139035E-01  1.7020135314350E+00 -7.4459099435965E-01  8.5919993400418E-01
74  7.3000000000000E-01  9.4474523982009E-01  1.6545515174816E+00 -6.7587410724547E-01  9.6094518531376E-01
75  7.4000000000000E-01  9.0262081437761E-01  1.5928675028024E+00 -5.8371828375832E-01  1.0576362952369E+00
76  7.5000000000000E-01  8.5997140155881E-01  1.5176309982936E+00 -4.6900203134246E-01  1.1488835971684E+00
77  7.6000000000000E-01  8.1693904579291E-01  1.4297579108086E+00 -3.3317811987855E-01  1.2342823878282E+00
78  7.7000000000000E-01  7.7367566898073E-01  1.3304053167937E+00 -1.7826488213467E-01  1.3134042239325E+00
79  7.8000000000000E-01  7.3034201605145E-01  1.2209593162827E+00 -6.8209148583483E-03  1.3857918025404E+00
80  7.9000000000000E-01  6.8710620651242E-01  1.1030159205056E+00  1.7809689698227E-01  1.4509578396779E+00
81  8.0000000000000E-01  6.4414191710380E-01  9.7835516530728E-01  3.7299156138083E-01  1.5083881799527E+00
82  8.1000000000000E-01  6.0162623549514E-01  8.4890888327171E-01  5.7399934360796E-01  1.5575491764089E+00