Rf    ONCVPSP-4.0.1  r_core=   1.10045   1.10045   1.10045   1.20376
104.0000     44.0000      231012    zatom,zion,pspd
8 -116133   3     4   600     0    pspcod,pspxc,lmax,lloc,mmax,r2well
5.99000000  3.50000000  0.00000000    rchrg fchrg qchrg
3     2     2     2     0    nproj
1     1           extension_switch
0                         1.9189138092718E+01 -4.8988397121391E+00  1.7513301097015E+00
1  0.0000000000000E+00 -7.4618747847310E-08 -8.4895324659051E-09 -2.4288754529866E-07
2  1.0000000000000E-02  1.7935401028141E-01  4.9249021161560E-02  6.3513185045225E-02
3  2.0000000000000E-02  3.5703152607641E-01  9.8419377585229E-02  1.2520265820774E-01
4  3.0000000000000E-02  5.3138107711883E-01  1.4743377796570E-01  1.8329685461253E-01
5  4.0000000000000E-02  7.0080062327639E-01  1.9621762038936E-01  2.3612671675872E-01
6  5.0000000000000E-02  8.6376074438107E-01  2.4470019570232E-01  2.8217254872067E-01
7  6.0000000000000E-02  1.0188260564921E+00  2.9281572778576E-01  3.2010577627238E-01
8  7.0000000000000E-02  1.1646743556547E+00  3.4050420692555E-01  3.4882421599765E-01
9  8.0000000000000E-02  1.3001130648375E+00  3.8771198095279E-01  3.6747969933585E-01
10  9.0000000000000E-02  1.4240926476428E+00  4.3439207877752E-01  3.7549718285766E-01
11  1.0000000000000E-01  1.5357167503323E+00  4.8050425193720E-01  3.7258479277520E-01
12  1.1000000000000E-01  1.6342489380777E+00  5.2601473138703E-01  3.5873458748251E-01
13  1.2000000000000E-01  1.7191159983007E+00  5.7089570850301E-01  3.3421416381139E-01
14  1.3000000000000E-01  1.7899078896285E+00  6.1512456067400E-01  2.9954956749866E-01
15  1.4000000000000E-01  1.8463745155332E+00  6.5868285246688E-01  2.5550028325436E-01
16  1.5000000000000E-01  1.8884195935965E+00  7.0155515273048E-01  2.0302736278677E-01
17  1.6000000000000E-01  1.9160919713157E+00  7.4372771578255E-01  1.4325598948776E-01
18  1.7000000000000E-01  1.9295748047471E+00  7.8518708068641E-01  7.7433967218544E-02
19  1.8000000000000E-01  1.9291730649236E+00  8.2591864633671E-01  6.8877508546221E-03
20  1.9000000000000E-01  1.9152998674365E+00  8.6590528148708E-01 -6.7022296663422E-02
21  2.0000000000000E-01  1.8884621320711E+00  9.0512602791282E-01 -1.4294573416921E-01
22  2.1000000000000E-01  1.8492460719341E+00  9.4355495164547E-01 -2.1958333534793E-01
23  2.2000000000000E-01  1.7983029857959E+00  9.8116019177570E-01 -2.9572434620039E-01
24  2.3000000000000E-01  1.7363357848091E+00  1.0179032489116E+00 -3.7027838937263E-01
25  2.4000000000000E-01  1.6640866273576E+00  1.0537385462977E+00 -4.4230092820477E-01
26  2.5000000000000E-01  1.5823259661130E+00  1.0886132862014E+00 -5.1101147346050E-01
27  2.6000000000000E-01  1.4918432323946E+00  1.1224676128756E+00 -5.7580401475178E-01
28  2.7000000000000E-01  1.3934392979580E+00  1.1552350816405E+00 -6.3624947486477E-01
29  2.8000000000000E-01  1.2879207668279E+00  1.1868434218702E+00 -6.9209030615274E-01
30  2.9000000000000E-01  1.1760960632613E+00  1.2172155703609E+00 -7.4322766143318E-01
31  3.0000000000000E-01  1.0587731997710E+00  1.2462709411530E+00 -7.8970186537193E-01
32  3.1000000000000E-01  9.3675903455137E-01  1.2739268887633E+00 -8.3166717496672E-01
33  3.2000000000000E-01  8.1085976343283E-01  1.3001003143193E+00 -8.6936203956260E-01
34  3.3000000000000E-01  6.8188234004622E-01  1.3247093585449E+00 -9.0307624359873E-01
35  3.4000000000000E-01  5.5063648102360E-01  1.3476751221447E+00 -9.3311643268738E-01
36  3.5000000000000E-01  4.1793689204526E-01  1.3689233529855E+00 -9.5977158154750E-01
37  3.6000000000000E-01  2.8460534595935E-01  1.3883860406241E+00 -9.8327995891004E-01
38  3.7000000000000E-01  1.5147225600373E-01  1.4060028621171E+00 -1.0037990802977E+00
39  3.8000000000000E-01  1.9377414659006E-02  1.4217224285510E+00 -1.0213800173659E+00
40  3.9000000000000E-01 -1.1083038942843E-01  1.4355032891118E+00 -1.0359472572463E+00
41  4.0000000000000E-01 -2.3829510952877E-01  1.4473146585060E+00 -1.0472850839922E+00
42  4.1000000000000E-01 -3.6215670221844E-01  1.4571368437925E+00 -1.0550311953730E+00
43  4.2000000000000E-01 -4.8155600798756E-01  1.4649613578020E+00 -1.0586779818507E+00
44  4.3000000000000E-01 -5.9564126988556E-01  1.4707907178838E+00 -1.0575815914560E+00
45  4.4000000000000E-01 -7.0357623031139E-01  1.4746379403057E+00 -1.0509785958833E+00
46  4.5000000000000E-01 -8.0454966881696E-01  1.4765257517907E+00 -1.0380097709556E+00
47  4.6000000000000E-01 -8.9778617104760E-01  1.4764855500169E+00 -1.0177502198748E+00
48  4.7000000000000E-01 -9.8255785350069E-01  1.4745561540324E+00 -9.8924481083574E-01
49  4.8000000000000E-01 -1.0581967131632E+00  1.4707823931281E+00 -9.5154768102594E-01
50  4.9000000000000E-01 -1.1241072274107E+00  1.4652135884902E+00 -9.0376438471263E-01
51  5.0000000000000E-01 -1.1797787994790E+00  1.4579019857183E+00 -8.4509514027893E-01
52  5.1000000000000E-01 -1.2247976294963E+00  1.4489011979135E+00 -7.7487756408362E-01
53  5.2000000000000E-01 -1.2588575910904E+00  1.4382647184645E+00 -6.9262727019007E-01
54  5.3000000000000E-01 -1.2817697089788E+00  1.4260445599214E+00 -5.9807476457486E-01
55  5.4000000000000E-01 -1.2934698631920E+00  1.4122900705510E+00 -4.9119716852330E-01
56  5.5000000000000E-01 -1.2940243896016E+00  1.3970469734967E+00 -3.7224346471070E-01
57  5.6000000000000E-01 -1.2836333026866E+00  1.3803566651699E+00 -2.4175216526274E-01
58  5.7000000000000E-01 -1.2626309329892E+00  1.3622557998819E+00 -1.0056054660409E-01
59  5.8000000000000E-01 -1.2314838461858E+00  1.3427761771349E+00  5.0195127504749E-02
60  5.9000000000000E-01 -1.1907859905252E+00  1.3219449368099E+00  2.0908867534268E-01
61  6.0000000000000E-01 -1.1412511018382E+00  1.2997850561227E+00  3.7442233054976E-01
62  6.1000000000000E-01 -1.0837024775679E+00  1.2763161310651E+00  5.4425400147178E-01
63  6.2000000000000E-01 -1.0190603105326E+00  1.2515554145098E+00  7.1643281936692E-01
64  6.3000000000000E-01 -9.4832684674724E-01  1.2255190736002E+00  8.8864205949047E-01
65  6.4000000000000E-01 -8.7256969716295E-01  1.1982236208105E+00  1.0584482701101E+00
66  6.5000000000000E-01 -7.9290368848802E-01  1.1696874664271E+00  1.2233552337496E+00
67  6.6000000000000E-01 -7.1047168156075E-01  1.1399325354109E+00  1.3808612194225E+00
68  6.7000000000000E-01 -6.2642481571043E-01  1.1089858887987E+00  1.5285178697191E+00
69  6.8000000000000E-01 -5.4190265328281E-01  1.0768812891074E+00  1.6639890060215E+00
70  6.9000000000000E-01 -4.5801369963998E-01  1.0436606506128E+00  1.7851076306379E+00
71  7.0000000000000E-01 -3.7581676057877E-01  1.0093753188530E+00  1.8899294561491E+00
72  7.1000000000000E-01 -2.9630357184716E-01  9.7408712911791E-01  1.9767813977472E+00
73  7.2000000000000E-01 -2.2038309534868E-01  9.3786920084368E-01  2.0443036199222E+00
74  7.3000000000000E-01 -1.4886782518838E-01  9.0080643347752E-01  2.0914839290396E+00
75  7.4000000000000E-01 -8.2462385803746E-02  8.6299567921579E-01  2.1176835410464E+00
76  7.5000000000000E-01 -2.1754636201072E-02  8.2454557869148E-01  2.1226535204620E+00
77  7.6000000000000E-01  3.2790578827828E-02  7.8557605682574E-01  2.1065414736753E+00
78  7.7000000000000E-01  8.0834965143764E-02  7.4621748726441E-01  2.0698883763584E+00
79  7.8000000000000E-01  1.2216761326461E-01  7.0660954469485E-01  2.0136157112383E+00
80  7.9000000000000E-01  1.5670321230056E-01  6.6689977449230E-01  1.9390033781908E+00
81  8.0000000000000E-01  1.8447779333222E-01  6.2724191820647E-01  1.8476591036291E+00
82  8.1000000000000E-01  2.0564221129686E-01  5.8779404103419E-01  1.7414803111161E+00
83  8.2000000000000E-01  2.2045362437420E-01  5.4871651334081E-01  1.6226096116474E+00
84  8.3000000000000E-01  2.2926526845625E-01  5.1016990225439E-01  1.4933852229981E+00
85  8.4000000000000E-01  2.3251485021877E-01  4.7231283118842E-01  1.3562877272321E+00
86  8.5000000000000E-01  2.3071189467488E-01  4.3529986474338E-01  1.2138846199485E+00
87  8.6000000000000E-01  2.2442438142317E-01  3.9927947375978E-01  1.0687740918782E+00
88  8.7000000000000E-01  2.1426498809904E-01  3.6439213038414E-01  9.2352941274469E-01
89  8.8000000000000E-01  2.0087723025122E-01  3.3076857597469E-01  7.8064516043594E-01
90  8.9000000000000E-01  1.8492174488904E-01  2.9852829569498E-01  6.4248635894816E-01
91  9.0000000000000E-01  1.6706291158164E-01  2.6777822296608E-01  5.1124136144512E-01
92  9.1000000000000E-01  1.4795594190771E-01  2.3861168487061E-01  3.8887904692501E-01
93  9.2000000000000E-01  1.2823449723130E-01  2.1110758647326E-01  2.7711059856455E-01
94  9.3000000000000E-01  1.0849881845099E-01  1.8532981822739E-01  1.7735580814578E-01
95  9.4000000000000E-01  8.9304271927708E-02  1.6132685658432E-01  9.0713514153403E-02
96  9.5000000000000E-01  7.1150135772414E-02  1.3913151403516E-01  1.7935441916175E-02
97  9.6000000000000E-01  5.4468372556903E-02  1.1876078151054E-01 -4.0597616773540E-02
98  9.7000000000000E-01  3.9612060800952E-02  1.0021569375200E-01 -8.4898659007454E-02
99  9.8000000000000E-01  2.6843090597942E-02  8.3481137325623E-02 -1.1539801829495E-01
100  9.9000000000000E-01  1.6318663888532E-02  6.8525511096349E-02 -1.3296953855998E-01
101  1.0000000000000E+00  8.0761462778541E-03  5.5300146706818E-02 -1.3896124454314E-01
102  1.0100000000000E+00  2.0197130418990E-03  4.3738728807877E-02 -1.3521294201656E-01
103  1.0200000000000E+00 -2.0497653186712E-03  3.3760614660755E-02 -1.2386093349166E-01
104  1.0300000000000E+00 -4.3879021614877E-03  2.5276951189704E-02 -1.0708339189977E-01
105  1.0400000000000E+00 -5.2915509197586E-03  1.8194683632099E-02 -8.7019413547046E-02
106  1.0500000000000E+00 -5.0996039367375E-03  1.2414801560845E-02 -6.5743009171756E-02
107  1.0600000000000E+00 -4.2107018011206E-03  7.8195558576341E-03 -4.5290949157455E-02
108  1.0700000000000E+00 -2.9265601584251E-03  4.3411851712606E-03 -2.7222943434275E-02
109  1.0800000000000E+00 -1.5666758936121E-03  1.9185382006757E-03 -1.2903358082104E-02
110  1.0900000000000E+00 -4.7096907981288E-04  4.8871011592273E-04 -3.4929609458143E-03
111  1.1000000000000E+00 -4.6835683806663E-06  4.2044870266899E-06 -3.1546393965609E-05
112  1.1100000000000E+00 -3.1185290694490E-06  2.8415824659013E-06 -2.1335357698451E-05
113  1.1200000000000E+00  8.6102837929415E-08 -8.3793547320762E-08  6.1347621266293E-07
114  1.13  0.  0.  0.
115  1.14  0.  0.  0.
116  1.15  0.  0.  0.
117  1.16  0.  0.  0.
118  1.17  0.  0.  0.
119  1.18  0.  0.  0.
120  1.19  0.  0.  0.
121  1.20  0.  0.  0.
122  1.21  0.  0.  0.
123  1.22  0.  0.  0.
124  1.23  0.  0.  0.
125  1.24  0.  0.  0.
126  1.25  0.  0.  0.
127  1.26  0.  0.  0.
128  1.27  0.  0.  0.
129  1.28  0.  0.  0.
130  1.29  0.  0.  0.
131  1.30  0.  0.  0.
132  1.31  0.  0.  0.
133  1.32  0.  0.  0.
134  1.33  0.  0.  0.
135  1.34  0.  0.  0.
136  1.35  0.  0.  0.
137  1.36  0.  0.  0.
138  1.37  0.  0.  0.
139  1.38  0.  0.  0.
140  1.39  0.  0.  0.
141  1.40  0.  0.  0.
142  1.41  0.  0.  0.
143  1.42  0.  0.  0.
144  1.43  0.  0.  0.
145  1.44  0.  0.  0.
146  1.45  0.  0.  0.
147  1.46  0.  0.  0.
148  1.47  0.  0.  0.
149  1.48  0.  0.  0.
150  1.49  0.  0.  0.
151  1.50  0.  0.  0.
152  1.51  0.  0.  0.
153  1.52  0.  0.  0.
154  1.53  0.  0.  0.
155  1.54  0.  0.  0.
156  1.55  0.  0.  0.
157  1.56  0.  0.  0.
158  1.57  0.  0.  0.
159  1.58  0.  0.  0.
160  1.59  0.  0.  0.
161  1.60  0.  0.  0.
162  1.61  0.  0.  0.
163  1.62  0.  0.  0.
164  1.63  0.  0.  0.
165  1.64  0.  0.  0.
166  1.65  0.  0.  0.
167  1.66  0.  0.  0.
168  1.67  0.  0.  0.
169  1.68  0.  0.  0.
170  1.69  0.  0.  0.
171  1.70  0.  0.  0.
172  1.71  0.  0.  0.
173  1.72  0.  0.  0.
174  1.73  0.  0.  0.
175  1.74  0.  0.  0.
176  1.75  0.  0.  0.
177  1.76  0.  0.  0.
178  1.77  0.  0.  0.
179  1.78  0.  0.  0.
180  1.79  0.  0.  0.
181  1.80  0.  0.  0.
182  1.81  0.  0.  0.
183  1.82  0.  0.  0.
184  1.83  0.  0.  0.
185  1.84  0.  0.  0.
186  1.85  0.  0.  0.
187  1.86  0.  0.  0.
188  1.87  0.  0.  0.
189  1.88  0.  0.  0.
190  1.89  0.  0.  0.
191  1.90  0.  0.  0.
192  1.91  0.  0.  0.
193  1.92  0.  0.  0.
194  1.93  0.  0.  0.
195  1.94  0.  0.  0.
196  1.95  0.  0.  0.
197  1.96  0.  0.  0.
198  1.97  0.  0.  0.
199  1.98  0.  0.  0.
200  1.99  0.  0.  0.
201  2.00  0.  0.  0.
202  2.01  0.  0.  0.
203  2.02  0.  0.  0.
204  2.03  0.  0.  0.
205  2.04  0.  0.  0.
206  2.05  0.  0.  0.
207  2.06  0.  0.  0.
208  2.07  0.  0.  0.
209  2.08  0.  0.  0.
210  2.09  0.  0.  0.
211  2.10  0.  0.  0.
212  2.11  0.  0.  0.
213  2.12  0.  0.  0.
214  2.13  0.  0.  0.
215  2.14  0.  0.  0.
216  2.15  0.  0.  0.
217  2.16  0.  0.  0.
218  2.17  0.  0.  0.
219  2.18  0.  0.  0.
220  2.19  0.  0.  0.
221  2.20  0.  0.  0.
222  2.21  0.  0.  0.
223  2.22  0.  0.  0.
224  2.23  0.  0.  0.
225  2.24  0.  0.  0.
226  2.25  0.  0.  0.
227  2.26  0.  0.  0.
228  2.27  0.  0.  0.
229  2.28  0.  0.  0.
230  2.29  0.  0.  0.
231  2.30  0.  0.  0.
232  2.31  0.  0.  0.
233  2.32  0.  0.  0.
234  2.33  0.  0.  0.
235  2.34  0.  0.  0.
236  2.35  0.  0.  0.
237  2.36  0.  0.  0.
238  2.37  0.  0.  0.
239  2.38  0.  0.  0.
240  2.39  0.  0.  0.
241  2.40  0.  0.  0.
242  2.41  0.  0.  0.
243  2.42  0.  0.  0.
244  2.43  0.  0.  0.
245  2.44  0.  0.  0.
246  2.45  0.  0.  0.
247  2.46  0.  0.  0.
248  2.47  0.  0.  0.
249  2.48  0.  0.  0.
250  2.49  0.  0.  0.
251  2.50  0.  0.  0.
252  2.51  0.  0.  0.
253  2.52  0.  0.  0.
254  2.53  0.  0.  0.
255  2.54  0.  0.  0.
256  2.55  0.  0.  0.
257  2.56  0.  0.  0.
258  2.57  0.  0.  0.
259  2.58  0.  0.  0.
260  2.59  0.  0.  0.
261  2.60  0.  0.  0.
262  2.61  0.  0.  0.
263  2.62  0.  0.  0.
264  2.63  0.  0.  0.
265  2.64  0.  0.  0.
266  2.65  0.  0.  0.
267  2.66  0.  0.  0.
268  2.67  0.  0.  0.
269  2.68  0.  0.  0.
270  2.69  0.  0.  0.
271  2.70  0.  0.  0.
272  2.71  0.  0.  0.
273  2.72  0.  0.  0.
274  2.73  0.  0.  0.
275  2.74  0.  0.  0.
276  2.75  0.  0.  0.
277  2.76  0.  0.  0.
278  2.77  0.  0.  0.
279  2.78  0.  0.  0.
280  2.79  0.  0.  0.
281  2.80  0.  0.  0.
282  2.81  0.  0.  0.
283  2.82  0.  0.  0.
284  2.83  0.  0.  0.
285  2.84  0.  0.  0.
286  2.85  0.  0.  0.
287  2.86  0.  0.  0.
288  2.87  0.  0.  0.
289  2.88  0.  0.  0.
290  2.89  0.  0.  0.
291  2.90  0.  0.  0.
292  2.91  0.  0.  0.
293  2.92  0.  0.  0.
294  2.93  0.  0.  0.
295  2.94  0.  0.  0.
296  2.95  0.  0.  0.
297  2.96  0.  0.  0.
298  2.97  0.  0.  0.
299  2.98  0.  0.  0.
300  2.99  0.  0.  0.
301  3.00  0.  0.  0.
302  3.01  0.  0.  0.
303  3.02  0.  0.  0.
304  3.03  0.  0.  0.
305  3.04  0.  0.  0.
306  3.05  0.  0.  0.
307  3.06  0.  0.  0.
308  3.07  0.  0.  0.
309  3.08  0.  0.  0.
310  3.09  0.  0.  0.
311  3.10  0.  0.  0.
312  3.11  0.  0.  0.
313  3.12  0.  0.  0.
314  3.13  0.  0.  0.
315  3.14  0.  0.  0.
316  3.15  0.  0.  0.
317  3.16  0.  0.  0.
318  3.17  0.  0.  0.
319  3.18  0.  0.  0.
320  3.19  0.  0.  0.
321  3.20  0.  0.  0.
322  3.21  0.  0.  0.
323  3.22  0.  0.  0.
324  3.23  0.  0.  0.
325  3.24  0.  0.  0.
326  3.25  0.  0.  0.
327  3.26  0.  0.  0.
328  3.27  0.  0.  0.
329  3.28  0.  0.  0.
330  3.29  0.  0.  0.
331  3.30  0.  0.  0.
332  3.31  0.  0.  0.
333  3.32  0.  0.  0.
334  3.33  0.  0.  0.
335  3.34  0.  0.  0.
336  3.35  0.  0.  0.
337  3.36  0.  0.  0.
338  3.37  0.  0.  0.
339  3.38  0.  0.  0.
340  3.39  0.  0.  0.
341  3.40  0.  0.  0.
342  3.41  0.  0.  0.
343  3.42  0.  0.  0.
344  3.43  0.  0.  0.
345  3.44  0.  0.  0.
346  3.45  0.  0.  0.
347  3.46  0.  0.  0.
348  3.47  0.  0.  0.
349  3.48  0.  0.  0.
350  3.49  0.  0.  0.
351  3.50  0.  0.  0.
352  3.51  0.  0.  0.
353  3.52  0.  0.  0.
354  3.53  0.  0.  0.
355  3.54  0.  0.  0.
356  3.55  0.  0.  0.
357  3.56  0.  0.  0.
358  3.57  0.  0.  0.
359  3.58  0.  0.  0.
360  3.59  0.  0.  0.
361  3.60  0.  0.  0.
362  3.61  0.  0.  0.
363  3.62  0.  0.  0.
364  3.63  0.  0.  0.
365  3.64  0.  0.  0.
366  3.65  0.  0.  0.
367  3.66  0.  0.  0.
368  3.67  0.  0.  0.
369  3.68  0.  0.  0.
370  3.69  0.  0.  0.
371  3.70  0.  0.  0.
372  3.71  0.  0.  0.
373  3.72  0.  0.  0.
374  3.73  0.  0.  0.
375  3.74  0.  0.  0.
376  3.75  0.  0.  0.
377  3.76  0.  0.  0.
378  3.77  0.  0.  0.
379  3.78  0.  0.  0.
380  3.79  0.  0.  0.
381  3.80  0.  0.  0.
382  3.81  0.  0.  0.
383  3.82  0.  0.  0.
384  3.83  0.  0.  0.
385  3.84  0.  0.  0.
386  3.85  0.  0.  0.
387  3.86  0.  0.  0.
388  3.87  0.  0.  0.
389  3.88  0.  0.  0.
390  3.89  0.  0.  0.
391  3.90  0.  0.  0.
392  3.91  0.  0.  0.
393  3.92  0.  0.  0.
394  3.93  0.  0.  0.
395  3.94  0.  0.  0.
396  3.95  0.  0.  0.
397  3.96  0.  0.  0.
398  3.97  0.  0.  0.
399  3.98  0.  0.  0.
400  3.99  0.  0.  0.
401  4.00  0.  0.  0.
402  4.01  0.  0.  0.
403  4.02  0.  0.  0.
404  4.03  0.  0.  0.
405  4.04  0.  0.  0.
406  4.05  0.  0.  0.
407  4.06  0.  0.  0.
408  4.07  0.  0.  0.
409  4.08  0.  0.  0.
410  4.09  0.  0.  0.
411  4.10  0.  0.  0.
412  4.11  0.  0.  0.
413  4.12  0.  0.  0.
414  4.13  0.  0.  0.
415  4.14  0.  0.  0.
416  4.15  0.  0.  0.
417  4.16  0.  0.  0.
418  4.17  0.  0.  0.
419  4.18  0.  0.  0.
420  4.19  0.  0.  0.
421  4.20  0.  0.  0.
422  4.21  0.  0.  0.
423  4.22  0.  0.  0.
424  4.23  0.  0.  0.
425  4.24  0.  0.  0.
426  4.25  0.  0.  0.
427  4.26  0.  0.  0.
428  4.27  0.  0.  0.
429  4.28  0.  0.  0.
430  4.29  0.  0.  0.
431  4.30  0.  0.  0.
432  4.31  0.  0.  0.
433  4.32  0.  0.  0.
434  4.33  0.  0.  0.
435  4.34  0.  0.  0.
436  4.35  0.  0.  0.
437  4.36  0.  0.  0.
438  4.37  0.  0.  0.
439  4.38  0.  0.  0.
440  4.39  0.  0.  0.
441  4.40  0.  0.  0.
442  4.41  0.  0.  0.
443  4.42  0.  0.  0.
444  4.43  0.  0.  0.
445  4.44  0.  0.  0.
446  4.45  0.  0.  0.
447  4.46  0.  0.  0.
448  4.47  0.  0.  0.
449  4.48  0.  0.  0.
450  4.49  0.  0.  0.
451  4.50  0.  0.  0.
452  4.51  0.  0.  0.
453  4.52  0.  0.  0.
454  4.53  0.  0.  0.
455  4.54  0.  0.  0.
456  4.55  0.  0.  0.
457  4.56  0.  0.  0.
458  4.57  0.  0.  0.
459  4.58  0.  0.  0.
460  4.59  0.  0.  0.
461  4.60  0.  0.  0.
462  4.61  0.  0.  0.
463  4.62  0.  0.  0.
464  4.63  0.  0.  0.
465  4.64  0.  0.  0.
466  4.65  0.  0.  0.
467  4.66  0.  0.  0.
468  4.67  0.  0.  0.
469  4.68  0.  0.  0.
470  4.69  0.  0.  0.
471  4.70  0.  0.  0.
472  4.71  0.  0.  0.
473  4.72  0.  0.  0.
474  4.73  0.  0.  0.
475  4.74  0.  0.  0.
476  4.75  0.  0.  0.
477  4.76  0.  0.  0.
478  4.77  0.  0.  0.
479  4.78  0.  0.  0.
480  4.79  0.  0.  0.
481  4.80  0.  0.  0.
482  4.81  0.  0.  0.
483  4.82  0.  0.  0.
484  4.83  0.  0.  0.
485  4.84  0.  0.  0.
486  4.85  0.  0.  0.
487  4.86  0.  0.  0.
488  4.87  0.  0.  0.
489  4.88  0.  0.  0.
490  4.89  0.  0.  0.
491  4.90  0.  0.  0.
492  4.91  0.  0.  0.
493  4.92  0.  0.  0.
494  4.93  0.  0.  0.
495  4.94  0.  0.  0.
496  4.95  0.  0.  0.
497  4.96  0.  0.  0.
498  4.97  0.  0.  0.
499  4.98  0.  0.  0.
500  4.99  0.  0.  0.
501  5.00  0.  0.  0.
502  5.01  0.  0.  0.
503  5.02  0.  0.  0.
504  5.03  0.  0.  0.
505  5.04  0.  0.  0.
506  5.05  0.  0.  0.
507  5.06  0.  0.  0.
508  5.07  0.  0.  0.
509  5.08  0.  0.  0.
510  5.09  0.  0.  0.
511  5.10  0.  0.  0.
512  5.11  0.  0.  0.
513  5.12  0.  0.  0.
514  5.13  0.  0.  0.
515  5.14  0.  0.  0.
516  5.15  0.  0.  0.
517  5.16  0.  0.  0.
518  5.17  0.  0.  0.
519  5.18  0.  0.  0.
520  5.19  0.  0.  0.
521  5.20  0.  0.  0.
522  5.21  0.  0.  0.
523  5.22  0.  0.  0.
524  5.23  0.  0.  0.
525  5.24  0.  0.  0.
526  5.25  0.  0.  0.
527  5.26  0.  0.  0.
528  5.27  0.  0.  0.
529  5.28  0.  0.  0.
530  5.29  0.  0.  0.
531  5.30  0.  0.  0.
532  5.31  0.  0.  0.
533  5.32  0.  0.  0.
534  5.33  0.  0.  0.
535  5.34  0.  0.  0.
536  5.35  0.  0.  0.
537  5.36  0.  0.  0.
538  5.37  0.  0.  0.
539  5.38  0.  0.  0.
540  5.39  0.  0.  0.
541  5.40  0.  0.  0.
542  5.41  0.  0.  0.
543  5.42  0.  0.  0.
544  5.43  0.  0.  0.
545  5.44  0.  0.  0.
546  5.45  0.  0.  0.
547  5.46  0.  0.  0.
548  5.47  0.  0.  0.
549  5.48  0.  0.  0.
550  5.49  0.  0.  0.
551  5.50  0.  0.  0.
552  5.51  0.  0.  0.
553  5.52  0.  0.  0.
554  5.53  0.  0.  0.
555  5.54  0.  0.  0.
556  5.55  0.  0.  0.
557  5.56  0.  0.  0.
558  5.57  0.  0.  0.
559  5.58  0.  0.  0.
560  5.59  0.  0.  0.
561  5.60  0.  0.  0.
562  5.61  0.  0.  0.
563  5.62  0.  0.  0.
564  5.63  0.  0.  0.
565  5.64  0.  0.  0.
566  5.65  0.  0.  0.
567  5.66  0.  0.  0.
568  5.67  0.  0.  0.
569  5.68  0.  0.  0.
570  5.69  0.  0.  0.
571  5.70  0.  0.  0.
572  5.71  0.  0.  0.
573  5.72  0.  0.  0.
574  5.73  0.  0.  0.
575  5.74  0.  0.  0.
576  5.75  0.  0.  0.
577  5.76  0.  0.  0.
578  5.77  0.  0.  0.
579  5.78  0.  0.  0.
580  5.79  0.  0.  0.
581  5.80  0.  0.  0.
582  5.81  0.  0.  0.
583  5.82  0.  0.  0.
584  5.83  0.  0.  0.
585  5.84  0.  0.  0.
586  5.85  0.  0.  0.
587  5.86  0.  0.  0.
588  5.87  0.  0.  0.
589  5.88  0.  0.  0.
590  5.89  0.  0.  0.
591  5.90  0.  0.  0.
592  5.91  0.  0.  0.
593  5.92  0.  0.  0.
594  5.93  0.  0.  0.
595  5.94  0.  0.  0.
596  5.95  0.  0.  0.
597  5.96  0.  0.  0.
598  5.97  0.  0.  0.
599  5.98  0.  0.  0.
600  5.99  0.  0.  0.
1                         3.9945604776938E+00 -3.9480729902031E+00
1  0.0000000000000E+00 -4.9836641702328E-08  9.1168982779832E-09
2  1.0000000000000E-02  3.7090647163271E-03  1.9636600372043E-03
3  2.0000000000000E-02  1.4815778276090E-02  7.8400767882827E-03
4  3.0000000000000E-02  3.3258129177560E-02  1.7585787178085E-02
5  4.0000000000000E-02  5.8930904434699E-02  3.1129103125556E-02
6  5.0000000000000E-02  9.1683032246844E-02  4.8371215253277E-02
7  6.0000000000000E-02  1.3131412208126E-01  6.9187695187978E-02
8  7.0000000000000E-02  1.7757044776756E-01  9.3430355440123E-02
9  8.0000000000000E-02  2.3014066903951E-01  1.2092941673379E-01
10  9.0000000000000E-02  2.8865162279146E-01  1.5149592534523E-01
11  1.0000000000000E-01  3.5266453534659E-01  1.8492435774503E-01
12  1.1000000000000E-01  4.2167201016649E-01  2.2099534678816E-01
13  1.2000000000000E-01  4.9509613131675E-01  2.5947846293146E-01
14  1.3000000000000E-01  5.7228799205882E-01  3.0013498546377E-01
15  1.4000000000000E-01  6.5252891133158E-01  3.4272060240132E-01
16  1.5000000000000E-01  7.3503354048472E-01  3.8698798334032E-01
17  1.6000000000000E-01  8.1895499091907E-01  4.3268917690173E-01
18  1.7000000000000E-01  9.0339203328416E-01  4.7957779311934E-01
19  1.8000000000000E-01  9.8739833397090E-01  5.2741094083093E-01
20  1.9000000000000E-01  1.0699936084538E+00  5.7595090041950E-01
21  2.0000000000000E-01  1.1501764873022E+00  6.2496652268906E-01
22  2.1000000000000E-01  1.2269388130385E+00  6.7423435482083E-01
23  2.2000000000000E-01  1.2992810178913E+00  7.2353950383618E-01
24  2.3000000000000E-01  1.3662281769031E+00  7.7267625642491E-01
25  2.4000000000000E-01  1.4268462903383E+00  8.2144848106692E-01
26  2.5000000000000E-01  1.4802583257984E+00  8.6966984383378E-01
27  2.6000000000000E-01  1.5256595450932E+00  9.1716387293038E-01
28  2.7000000000000E-01  1.5623316541804E+00  9.6376390883477E-01
29  2.8000000000000E-01  1.5896553460413E+00  1.0093129768100E+00
30  2.9000000000000E-01  1.6071208550957E+00  1.0536636166733E+00
31  3.0000000000000E-01  1.6143362058507E+00  1.0966777011725E+00
32  3.1000000000000E-01  1.6110329154384E+00  1.1382262693668E+00
33  3.2000000000000E-01  1.5970689964915E+00  1.1781893953291E+00
34  3.3000000000000E-01  1.5724291999780E+00  1.2164561056215E+00
35  3.4000000000000E-01  1.5372225334113E+00  1.2529243517057E+00
36  3.5000000000000E-01  1.4916771844011E+00  1.2875010361374E+00
37  3.6000000000000E-01  1.4361330689626E+00  1.3201020844234E+00
38  3.7000000000000E-01  1.3710323047021E+00  1.3506525481731E+00
39  3.8000000000000E-01  1.2969079776310E+00  1.3790867199714E+00
40  3.9000000000000E-01  1.2143716250900E+00  1.4053482365184E+00
41  4.0000000000000E-01  1.1240998938593E+00  1.4293901442400E+00
42  4.1000000000000E-01  1.0268208504483E+00  1.4511749009103E+00
43  4.2000000000000E-01  9.2330041902110E-01  1.4706742879071E+00
44  4.3000000000000E-01  8.1432940144211E-01  1.4878692105194E+00
45  4.4000000000000E-01  7.0071149435181E-01  1.5027493681400E+00
46  4.5000000000000E-01  5.8325266159645E-01  1.5153127820162E+00
47  4.6000000000000E-01  4.6275214906331E-01  1.5255651752468E+00
48  4.7000000000000E-01  3.3999534595243E-01  1.5335192075751E+00
49  4.8000000000000E-01  2.1574860520461E-01  1.5391935758778E+00
50  4.9000000000000E-01  9.0756040035341E-02  1.5426119996771E+00
51  5.0000000000000E-01 -3.4261782650293E-02  1.5438021190955E+00
52  5.1000000000000E-01 -1.5860742364954E-01  1.5427943400105E+00
53  5.2000000000000E-01 -2.8160468408972E-01  1.5396206673561E+00
54  5.3000000000000E-01 -4.0259557900054E-01  1.5343135721965E+00
55  5.4000000000000E-01 -5.2093656004442E-01  1.5269049410649E+00
56  5.5000000000000E-01 -6.3599441659925E-01  1.5174251568794E+00
57  5.6000000000000E-01 -7.4714230578455E-01  1.5059023593674E+00
58  5.7000000000000E-01 -8.5375636254986E-01  1.4923619292794E+00
59  5.8000000000000E-01 -9.5521332016888E-01  1.4768262347990E+00
60  5.9000000000000E-01 -1.0508895298418E+00  1.4593146705699E+00
61  6.0000000000000E-01 -1.1401617069190E+00  1.4398440099088E+00
62  6.1000000000000E-01 -1.2224096526765E+00  1.4184290793553E+00
63  6.2000000000000E-01 -1.2970211075178E+00  1.3950837521319E+00
64  6.3000000000000E-01 -1.3633987875492E+00  1.3698222438056E+00
65  6.4000000000000E-01 -1.4209695457922E+00  1.3426606799757E+00
66  6.5000000000000E-01 -1.4691954863869E+00  1.3136188926927E+00
67  6.6000000000000E-01 -1.5075867497149E+00  1.2827223901110E+00
68  6.7000000000000E-01 -1.5357155831926E+00  1.2500044331144E+00
69  6.8000000000000E-01 -1.5532312211460E+00  1.2155081438549E+00
70  6.9000000000000E-01 -1.5598750219018E+00  1.1792885647511E+00
71  7.0000000000000E-01 -1.5554952547515E+00  1.1414145828820E+00
72  7.1000000000000E-01 -1.5400608967593E+00  1.1019706341718E+00
73  7.2000000000000E-01 -1.5136737916867E+00  1.0610581044544E+00
74  7.3000000000000E-01 -1.4765785418447E+00  1.0187963504955E+00
75  7.4000000000000E-01 -1.4291695486644E+00  9.7532327325575E-01
76  7.5000000000000E-01 -1.3719946883763E+00  9.3079538789534E-01
77  7.6000000000000E-01 -1.3057552035087E+00  8.8538734992579E-01
78  7.7000000000000E-01 -1.2313015060467E+00  8.3929091405178E-01
79  7.8000000000000E-01 -1.1496247202025E+00  7.9271332106550E-01
80  7.9000000000000E-01 -1.0618439371979E+00  7.4587512801454E-01
81  8.0000000000000E-01 -9.6918930596872E-01  6.9900751705140E-01
82  8.1000000000000E-01 -8.7298123652513E-01  6.5234913813787E-01
83  8.2000000000000E-01 -7.7460614087649E-01  6.0614255935513E-01
84  8.3000000000000E-01 -6.7548927396759E-01  5.6063041521094E-01
85  8.4000000000000E-01 -5.7706535821791E-01  5.1605135733144E-01
86  8.5000000000000E-01 -4.8074777472573E-01  4.7263592264785E-01
87  8.6000000000000E-01 -3.8789717739250E-01  4.3060244110416E-01
88  8.7000000000000E-01 -2.9979042944158E-01  3.9015310761851E-01
89  8.8000000000000E-01 -2.1759077241444E-01  3.5147034126674E-01
90  8.9000000000000E-01 -1.4232011430354E-01  3.1471354832472E-01
91  9.0000000000000E-01 -7.4834265894062E-02  2.8001639497716E-01
92  9.1000000000000E-01 -1.5801863853987E-02  2.4748468042051E-01
93  9.2000000000000E-01  3.4312401824605E-02  2.1719488217071E-01
94  9.3000000000000E-01  7.5259785955940E-02  1.8919342320601E-01
95  9.4000000000000E-01  1.0701441095660E-01  1.6349668584456E-01
96  9.5000000000000E-01  1.2977499823786E-01  1.4009177081245E-01
97  9.6000000000000E-01  1.4396148599335E-01  1.1893797271292E-01
98  9.7000000000000E-01  1.5020680680267E-01  9.9968916043610E-02
99  9.8000000000000E-01  1.4934428842249E-01  8.3095270015304E-02
100  9.9000000000000E-01  1.4239132786584E-01  6.8207936329807E-02
101  1.0000000000000E+00  1.3053006658404E-01  5.5181586138799E-02
102  1.0100000000000E+00  1.1507985334179E-01  4.3878585645195E-02
103  1.0200000000000E+00  9.7402534583533E-02  3.4155415042628E-02
104  1.0300000000000E+00  7.8797462485935E-02  2.5871158811382E-02
105  1.0400000000000E+00  6.0456214284551E-02  1.8894891330810E-02
106  1.0500000000000E+00  4.3398982316625E-02  1.3115656891759E-02
107  1.0600000000000E+00  2.8362635639779E-02  8.4561762570586E-03
108  1.0700000000000E+00  1.6114569894063E-02  4.8375763362054E-03
109  1.0800000000000E+00  7.1879791775129E-03  2.2166330815903E-03
110  1.0900000000000E+00  1.8218604041933E-03  5.8849445664292E-04
111  1.1000000000000E+00  1.5312841249630E-05  5.2986676313827E-06
112  1.1100000000000E+00  1.0463294031753E-05  3.5583234463611E-06
113  1.1200000000000E+00 -3.1053324249195E-07 -1.0284171072103E-07
114  1.13  0.  0.
115  1.14  0.  0.
116  1.15  0.  0.
117  1.16  0.  0.
118  1.17  0.  0.
119  1.18  0.  0.
120  1.19  0.  0.
121  1.20  0.  0.
122  1.21  0.  0.
123  1.22  0.  0.
124  1.23  0.  0.
125  1.24  0.  0.
126  1.25  0.  0.
127  1.26  0.  0.
128  1.27  0.  0.
129  1.28  0.  0.
130  1.29  0.  0.
131  1.30  0.  0.
132  1.31  0.  0.
133  1.32  0.  0.
134  1.33  0.  0.
135  1.34  0.  0.
136  1.35  0.  0.
137  1.36  0.  0.
138  1.37  0.  0.
139  1.38  0.  0.
140  1.39  0.  0.
141  1.40  0.  0.
142  1.41  0.  0.
143  1.42  0.  0.
144  1.43  0.  0.
145  1.44  0.  0.
146  1.45  0.  0.
147  1.46  0.  0.
148  1.47  0.  0.
149  1.48  0.  0.
150  1.49  0.  0.
151  1.50  0.  0.
152  1.51  0.  0.
153  1.52  0.  0.
154  1.53  0.  0.
155  1.54  0.  0.
156  1.55  0.  0.
157  1.56  0.  0.
158  1.57  0.  0.
159  1.58  0.  0.
160  1.59  0.  0.
161  1.60  0.  0.
162  1.61  0.  0.
163  1.62  0.  0.
164  1.63  0.  0.
165  1.64  0.  0.
166  1.65  0.  0.
167  1.66  0.  0.
168  1.67  0.  0.
169  1.68  0.  0.
170  1.69  0.  0.
171  1.70  0.  0.
172  1.71  0.  0.
173  1.72  0.  0.
174  1.73  0.  0.
175  1.74  0.  0.
176  1.75  0.  0.
177  1.76  0.  0.
178  1.77  0.  0.
179  1.78  0.  0.
180  1.79  0.  0.
181  1.80  0.  0.
182  1.81  0.  0.
183  1.82  0.  0.
184  1.83  0.  0.
185  1.84  0.  0.
186  1.85  0.  0.
187  1.86  0.  0.
188  1.87  0.  0.
189  1.88  0.  0.
190  1.89  0.  0.
191  1.90  0.  0.
192  1.91  0.  0.
193  1.92  0.  0.
194  1.93  0.  0.
195  1.94  0.  0.
196  1.95  0.  0.
197  1.96  0.  0.