Cf    ONCVPSP-4.0.1  r_core=   1.15394   1.15394   1.15394   1.15394
98.0000     38.0000      220327    zatom,zion,pspd
8      11   3     4   600     0    pspcod,pspxc,lmax,lloc,mmax,r2well
5.99000000  5.00000000  0.00000000    rchrg fchrg qchrg
3     2     2     2     0    nproj
1     1           extension_switch
0                         2.8427819741964E+01  3.3542052965009E+00 -5.8788813860746E-01
1  0.0000000000000E+00 -2.8180934474875E-08  9.4040422338182E-08  4.7317085832832E-08
2  1.0000000000000E-02  1.5643454812261E-01 -5.5255939492924E-02  2.4290051319836E-02
3  2.0000000000000E-02  3.1184285231113E-01 -1.0934202428472E-01  4.8659838971931E-02
4  3.0000000000000E-02  4.6520952889459E-01 -1.6111216062789E-01  7.3181150709167E-02
5  4.0000000000000E-02  6.1554068438935E-01 -2.0946706611447E-01  9.7910220724859E-02
6  5.0000000000000E-02  7.6187409252257E-01 -2.5337592488089E-01  1.2288079887010E-01
7  6.0000000000000E-02  9.0328871104780E-01 -2.9189601392549E-01  1.4809819914479E-01
8  7.0000000000000E-02  1.0389133531898E+00 -3.2418974073117E-01  1.7353459543496E-01
9  8.0000000000000E-02  1.1679343567366E+00 -3.4953862642616E-01  1.9912578515190E-01
10  9.0000000000000E-02  1.2896021269309E+00 -3.6735387927689E-01  2.2476958564148E-01
11  1.0000000000000E-01  1.4032364661259E+00 -3.7718332612936E-01  2.5032596603130E-01
12  1.1000000000000E-01  1.5082306422523E+00 -3.7871459977438E-01  2.7561895086223E-01
13  1.2000000000000E-01  1.6040541879942E+00 -3.7177461309604E-01  3.0044026385368E-01
14  1.3000000000000E-01  1.6902544616810E+00 -3.5632548117123E-01  3.2455461298760E-01
15  1.4000000000000E-01  1.7664570377699E+00 -3.3245717522801E-01  3.4770645424163E-01
16  1.5000000000000E-01  1.8323650280469E+00 -3.0037730285264E-01  3.6962801311494E-01
17  1.6000000000000E-01  1.8877574630558E+00 -2.6039850285751E-01  3.9004829271948E-01
18  1.7000000000000E-01  1.9324868857358E+00 -2.1292401722738E-01  4.0870275652027E-01
19  1.8000000000000E-01  1.9664763250060E+00 -1.5843205378884E-01  4.2534334430752E-01
20  1.9000000000000E-01  1.9897158255379E+00 -9.7459579827131E-02  4.3974846277137E-01
21  2.0000000000000E-01  2.0022587109651E+00 -3.0586187905778E-02  4.5173258777725E-01
22  2.1000000000000E-01  2.0042177513569E+00  4.1581349259668E-02  4.6115512428084E-01
23  2.2000000000000E-01  1.9957613922754E+00  1.1842326675556E-01  4.6792819147515E-01
24  2.3000000000000E-01  1.9771101828059E+00  1.9931924113273E-01  4.7202303446139E-01
25  2.4000000000000E-01  1.9485335144861E+00  2.8365866296255E-01  4.7347480826572E-01
26  2.5000000000000E-01  1.9103467531995E+00  3.7084844739191E-01  4.7238553379390E-01
27  2.6000000000000E-01  1.8629088131523E+00  4.6031819899419E-01  4.6892508638325E-01
28  2.7000000000000E-01  1.8066201874462E+00  5.5152267091711E-01  4.6333014378622E-01
29  2.8000000000000E-01  1.7419214150093E+00  6.4394158350076E-01  4.5590108932171E-01
30  2.9000000000000E-01  1.6692919302641E+00  7.3707698909287E-01  4.4699693509338E-01
31  3.0000000000000E-01  1.5892492113532E+00  8.3044848276695E-01  4.3702839712620E-01
32  3.1000000000000E-01  1.5023481163730E+00  9.2358665843221E-01  4.2644931663115E-01
33  3.2000000000000E-01  1.4091802760610E+00  1.0160252923204E+00  4.1574667716939E-01
34  3.3000000000000E-01  1.3103733967165E+00  1.1072927976243E+00  4.0542951430034E-01
35  3.4000000000000E-01  1.2065903195294E+00  1.1969035325562E+00  3.9601705074100E-01
36  3.5000000000000E-01  1.0985276823694E+00  1.2843495576190E+00  3.8802641489876E-01
37  3.6000000000000E-01  9.8691403758103E-01  1.3690934257733E+00  3.8196031305771E-01
38  3.7000000000000E-01  8.7250729425345E-01  1.4505625517746E+00  3.7829502514312E-01
39  3.8000000000000E-01  7.5609137528406E-01  1.5281456456289E+00  3.7746908097612E-01
40  3.9000000000000E-01  6.3847200756826E-01  1.6011916121777E+00  3.7987294882456E-01
41  4.0000000000000E-01  5.2047159676351E-01  1.6690112174890E+00  3.8584003186798E-01
42  4.1000000000000E-01  4.0292317504409E-01  1.7308817069393E+00  3.9563922231565E-01
43  4.2000000000000E-01  2.8666344964487E-01  1.7860544341693E+00  4.0946920908679E-01
44  4.3000000000000E-01  1.7252502023545E-01  1.8337654294498E+00  4.2745467519058E-01
45  4.4000000000000E-01  6.1327872668281E-02  1.8732487055888E+00  4.4964445742734E-01
46  4.5000000000000E-01 -4.6129706196585E-02  1.9037519745512E+00  4.7601167609181E-01
47  4.6000000000000E-01 -1.4908061459597E-01  1.9245543334777E+00  5.0645577832433E-01
48  4.7000000000000E-01 -2.4679861688024E-01  1.9349853794138E+00  5.4080637790907E-01
49  4.8000000000000E-01 -3.3860799187231E-01  1.9344451318636E+00  5.7882871877407E-01
50  4.9000000000000E-01 -4.2389290689649E-01  1.9224240846123E+00  6.2023054111952E-01
51  5.0000000000000E-01 -5.0210626984415E-01  1.8985226755992E+00  6.6467008958588E-01
52  5.1000000000000E-01 -5.7277781421790E-01  1.8624694574797E+00  7.1176497343451E-01
53  5.2000000000000E-01 -6.3552118327798E-01  1.8141372724007E+00  7.6110157021296E-01
54  5.3000000000000E-01 -6.9003979894692E-01  1.7535567818746E+00  8.1224465726190E-01
55  5.4000000000000E-01 -7.3613132843718E-01  1.6809267749045E+00  8.6474695970176E-01
56  5.5000000000000E-01 -7.7369059578459E-01  1.5966207721609E+00  9.1815831880905E-01
57  5.6000000000000E-01 -8.0271082545898E-01  1.5011895576327E+00  9.7203421013843E-01
58  5.7000000000000E-01 -8.2328314963142E-01  1.3953593976529E+00  1.0259433751919E+00
59  5.8000000000000E-01 -8.3559435797608E-01  1.2800258458270E+00  1.0794743723876E+00
60  5.9000000000000E-01 -8.3992291743889E-01  1.1562431760828E+00  1.1322409007948E+00
61  6.0000000000000E-01 -8.3663333753026E-01  1.0252096295467E+00  1.1838858016502E+00
62  6.1000000000000E-01 -8.2616900272136E-01  8.8824879895158E-01  1.2340836960314E+00
63  6.2000000000000E-01 -8.0904363585834E-01  7.4678760178811E-01  1.2825422701716E+00
64  6.3000000000000E-01 -7.8583159369878E-01  6.0233140575647E-01  1.3290022707703E+00
65  6.4000000000000E-01 -7.5715722646852E-01  4.5643696326239E-01  1.3732363194089E+00
66  6.5000000000000E-01 -7.2368355671432E-01  3.1068388240392E-01  1.4150466961588E+00
67  6.6000000000000E-01 -6.8610054795509E-01  1.6664540771026E-01  1.4542622762639E+00
68  6.7000000000000E-01 -6.4511324027503E-01  2.5859303334533E-02  1.4907348292960E+00
69  6.8000000000000E-01 -6.0143002794167E-01 -1.1020037599997E-01  1.5243349066694E+00
70  6.9000000000000E-01 -5.5575134357391E-01 -2.4014987470212E-01  1.5549475504804E+00
71  7.0000000000000E-01 -5.0875899484001E-01 -3.6271999355278E-01  1.5824680542994E+00
72  7.1000000000000E-01 -4.6110637392812E-01 -4.7677740221164E-01  1.6067979951466E+00
73  7.2000000000000E-01 -4.1340972814983E-01 -5.8134249467413E-01  1.6278417361313E+00
74  7.3000000000000E-01 -3.6624064325654E-01 -6.7560339054124E-01  1.6455035721291E+00
75  7.4000000000000E-01 -3.2011985078027E-01 -7.5892581094057E-01  1.6596856576928E+00
76  7.5000000000000E-01 -2.7551242845534E-01 -8.3085868998431E-01  1.6702868186005E+00
77  7.6000000000000E-01 -2.3282442007411E-01 -8.9113551589023E-01  1.6772023076554E+00
78  7.7000000000000E-01 -1.9240085950086E-01 -9.3967152549829E-01  1.6803245232518E+00
79  7.8000000000000E-01 -1.5452514444764E-01 -9.7655699730664E-01  1.6795446674918E+00
80  7.9000000000000E-01 -1.1941967030156E-01 -1.0020469971780E+00  1.6747552809076E+00
81  8.0000000000000E-01 -8.7247603908756E-02 -1.0165480239132E+00  1.6658535546094E+00
82  8.1000000000000E-01 -5.8115652653304E-02 -1.0206020760815E+00  1.6527452892563E+00
83  8.2000000000000E-01 -3.2077666066143E-02 -1.0148687147288E+00  1.6353493447280E+00
84  8.3000000000000E-01 -9.1388959271431E-03 -1.0001057276231E+00  1.6136024055767E+00
85  8.4000000000000E-01  1.0739263523812E-02 -9.7714900919231E-01  1.5874638758023E+00
86  8.5000000000000E-01  2.7634231252974E-02 -9.4689225679335E-01  1.5569207124506E+00
87  8.6000000000000E-01  4.1657058260805E-02 -9.1026704977445E-01  1.5219920109217E+00
88  8.7000000000000E-01  5.2947262518723E-02 -8.6822382507440E-01  1.4827331653444E+00
89  8.8000000000000E-01  6.1667813852884E-02 -8.2171419458129E-01  1.4392394443080E+00
90  8.9000000000000E-01  6.8000379756116E-02 -7.7167496842311E-01  1.3916488448170E+00
91  9.0000000000000E-01  7.2140917623474E-02 -7.1901415838664E-01  1.3401441145150E+00
92  9.1000000000000E-01  7.4295671975640E-02 -6.6459914058855E-01  1.2849538628727E+00
93  9.2000000000000E-01  7.4677608036545E-02 -6.0924706019411E-01  1.2263527148968E+00
94  9.3000000000000E-01  7.3503286699968E-02 -5.5371746711203E-01  1.1646604947499E+00
95  9.4000000000000E-01  7.0990161493920E-02 -4.9870708363344E-01  1.1002404602151E+00
96  9.5000000000000E-01  6.7354256531356E-02 -4.4484652594747E-01  1.0334966410436E+00
97  9.6000000000000E-01  6.2808166353646E-02 -3.9269873386113E-01  9.6487036383513E-01
98  9.7000000000000E-01  5.7559304562284E-02 -3.4275880875494E-01  8.9483607232845E-01
99  9.8000000000000E-01  5.1808318523313E-02 -2.9545492006297E-01  8.2389657411089E-01
100  9.9000000000000E-01  4.5747582324437E-02 -2.5114991590689E-01  7.5257786228146E-01
101  1.0000000000000E+00  3.9559679458315E-02 -2.1014326379233E-01  6.8142367322406E-01
102  1.0100000000000E+00  3.3415790103548E-02 -1.7267295173296E-01  6.1098994927805E-01
103  1.0200000000000E+00  2.7473904900233E-02 -1.3891699746815E-01  5.4183937782203E-01
104  1.0300000000000E+00  2.1876797136519E-02 -1.0899424170923E-01  4.7453617642311E-01
105  1.0400000000000E+00  1.6749697575092E-02 -8.2964138482351E-02  4.0964128766305E-01
106  1.0500000000000E+00  1.2197629941196E-02 -6.0825299149211E-02  3.4770813759374E-01
107  1.0600000000000E+00  8.3023795356926E-03 -4.2512593984088E-02  2.8927909916913E-01
108  1.0700000000000E+00  5.1190817823616E-03 -2.7892663937353E-02  2.3488278707089E-01
109  1.0800000000000E+00  2.6724370527887E-03 -1.6757760864756E-02  1.8503229812215E-01
110  1.0900000000000E+00  9.5254693494579E-04 -8.8177958042233E-03  1.4022446978040E-01
111  1.1000000000000E+00 -9.9900930995579E-05 -3.6601871876306E-03  1.0093312743562E-01
112  1.1100000000000E+00 -6.5217369978496E-04 -5.7753235490599E-04  6.7564823260090E-02
113  1.1200000000000E+00 -7.8656701790878E-04  8.4790783595051E-04  4.0552425408066E-02
114  1.1300000000000E+00 -6.1128668586754E-04  1.0544021647235E-03  2.0242266450740E-02
115  1.1400000000000E+00 -2.8879831653383E-04  5.8376669422366E-04  6.8675923333416E-03
116  1.1500000000000E+00 -3.4081186653401E-05  7.4316734385116E-05  6.1642541156397E-04
117  1.1600000000000E+00  1.3780482431214E-06 -3.0972696374595E-06 -2.1615021387833E-05
118  1.1700000000000E+00  1.9859687110865E-07 -4.2604288531953E-07 -3.8674248434289E-06
119  1.18 -0.  0. -0.
120  1.19  0.  0.  0.
121  1.20  0.  0.  0.
122  1.21  0.  0.  0.
123  1.22  0.  0.  0.
124  1.23  0.  0.  0.
125  1.24  0.  0.  0.
126  1.25  0.  0.  0.
127  1.26  0.  0.  0.
128  1.27  0.  0.  0.
129  1.28  0.  0.  0.
130  1.29  0.  0.  0.
131  1.30  0.  0.  0.
132  1.31  0.  0.  0.
133  1.32  0.  0.  0.
134  1.33  0.  0.  0.
135  1.34  0.  0.  0.
136  1.35  0.  0.  0.
137  1.36  0.  0.  0.
138  1.37  0.  0.  0.
139  1.38  0.  0.  0.
140  1.39  0.  0.  0.
141  1.40  0.  0.  0.
142  1.41  0.  0.  0.
143  1.42  0.  0.  0.
144  1.43  0.  0.  0.
145  1.44  0.  0.  0.
146  1.45  0.  0.  0.
147  1.46  0.  0.  0.
148  1.47  0.  0.  0.
149  1.48  0.  0.  0.
150  1.49  0.  0.  0.
151  1.50  0.  0.  0.
152  1.51  0.  0.  0.
153  1.52  0.  0.  0.
154  1.53  0.  0.  0.
155  1.54  0.  0.  0.
156  1.55  0.  0.  0.
157  1.56  0.  0.  0.
158  1.57  0.  0.  0.
159  1.58  0.  0.  0.
160  1.59  0.  0.  0.
161  1.60  0.  0.  0.
162  1.61  0.  0.  0.
163  1.62  0.  0.  0.
164  1.63  0.  0.  0.
165  1.64  0.  0.  0.
166  1.65  0.  0.  0.
167  1.66  0.  0.  0.
168  1.67  0.  0.  0.
169  1.68  0.  0.  0.
170  1.69  0.  0.  0.
171  1.70  0.  0.  0.
172  1.71  0.  0.  0.
173  1.72  0.  0.  0.
174  1.73  0.  0.  0.
175  1.74  0.  0.  0.
176  1.75  0.  0.  0.
177  1.76  0.  0.  0.
178  1.77  0.  0.  0.
179  1.78  0.  0.  0.
180  1.79  0.  0.  0.
181  1.80  0.  0.  0.
182  1.81  0.  0.  0.
183  1.82  0.  0.  0.
184  1.83  0.  0.  0.
185  1.84  0.  0.  0.
186  1.85  0.  0.  0.
187  1.86  0.  0.  0.
188  1.87  0.  0.  0.
189  1.88  0.  0.  0.
190  1.89  0.  0.  0.
191  1.90  0.  0.  0.
192  1.91  0.  0.  0.
193  1.92  0.  0.  0.
194  1.93  0.  0.  0.
195  1.94  0.  0.  0.
196  1.95  0.  0.  0.
197  1.96  0.  0.  0.
198  1.97  0.  0.  0.
199  1.98  0.  0.  0.
200  1.99  0.  0.  0.
201  2.00  0.  0.  0.
202  2.01  0.  0.  0.
203  2.02  0.  0.  0.
204  2.03  0.  0.  0.
205  2.04  0.  0.  0.
206  2.05  0.  0.  0.
207  2.06  0.  0.  0.
208  2.07  0.  0.  0.
209  2.08  0.  0.  0.
210  2.09  0.  0.  0.
211  2.10  0.  0.  0.
212  2.11  0.  0.  0.
213  2.12  0.  0.  0.
214  2.13  0.  0.  0.
215  2.14  0.  0.  0.
216  2.15  0.  0.  0.
217  2.16  0.  0.  0.
218  2.17  0.  0.  0.
219  2.18  0.  0.  0.
220  2.19  0.  0.  0.
221  2.20  0.  0.  0.
222  2.21  0.  0.  0.
223  2.22  0.  0.  0.
224  2.23  0.  0.  0.
225  2.24  0.  0.  0.
226  2.25  0.  0.  0.
227  2.26  0.  0.  0.
228  2.27  0.  0.  0.
229  2.28  0.  0.  0.
230  2.29  0.  0.  0.
231  2.30  0.  0.  0.
232  2.31  0.  0.  0.
233  2.32  0.  0.  0.
234  2.33  0.  0.  0.
235  2.34  0.  0.  0.
236  2.35  0.  0.  0.
237  2.36  0.  0.  0.
238  2.37  0.  0.  0.
239  2.38  0.  0.  0.
240  2.39  0.  0.  0.
241  2.40  0.  0.  0.
242  2.41  0.  0.  0.
243  2.42  0.  0.  0.
244  2.43  0.  0.  0.
245  2.44  0.  0.  0.
246  2.45  0.  0.  0.
247  2.46  0.  0.  0.
248  2.47  0.  0.  0.
249  2.48  0.  0.  0.
250  2.49  0.  0.  0.
251  2.50  0.  0.  0.
252  2.51  0.  0.  0.
253  2.52  0.  0.  0.
254  2.53  0.  0.  0.
255  2.54  0.  0.  0.
256  2.55  0.  0.  0.
257  2.56  0.  0.  0.
258  2.57  0.  0.  0.
259  2.58  0.  0.  0.
260  2.59  0.  0.  0.
261  2.60  0.  0.  0.
262  2.61  0.  0.  0.
263  2.62  0.  0.  0.
264  2.63  0.  0.  0.
265  2.64  0.  0.  0.
266  2.65  0.  0.  0.
267  2.66  0.  0.  0.
268  2.67  0.  0.  0.
269  2.68  0.  0.  0.
270  2.69  0.  0.  0.
271  2.70  0.  0.  0.
272  2.71  0.  0.  0.
273  2.72  0.  0.  0.
274  2.73  0.  0.  0.
275  2.74  0.  0.  0.
276  2.75  0.  0.  0.
277  2.76  0.  0.  0.
278  2.77  0.  0.  0.
279  2.78  0.  0.  0.
280  2.79  0.  0.  0.
281  2.80  0.  0.  0.
282  2.81  0.  0.  0.
283  2.82  0.  0.  0.
284  2.83  0.  0.  0.
285  2.84  0.  0.  0.
286  2.85  0.  0.  0.
287  2.86  0.  0.  0.
288  2.87  0.  0.  0.
289  2.88  0.  0.  0.
290  2.89  0.  0.  0.
291  2.90  0.  0.  0.
292  2.91  0.  0.  0.
293  2.92  0.  0.  0.
294  2.93  0.  0.  0.
295  2.94  0.  0.  0.
296  2.95  0.  0.  0.
297  2.96  0.  0.  0.
298  2.97  0.  0.  0.
299  2.98  0.  0.  0.
300  2.99  0.  0.  0.
301  3.00  0.  0.  0.
302  3.01  0.  0.  0.
303  3.02  0.  0.  0.
304  3.03  0.  0.  0.
305  3.04  0.  0.  0.
306  3.05  0.  0.  0.
307  3.06  0.  0.  0.
308  3.07  0.  0.  0.
309  3.08  0.  0.  0.
310  3.09  0.  0.  0.
311  3.10  0.  0.  0.
312  3.11  0.  0.  0.
313  3.12  0.  0.  0.
314  3.13  0.  0.  0.
315  3.14  0.  0.  0.
316  3.15  0.  0.  0.
317  3.16  0.  0.  0.
318  3.17  0.  0.  0.
319  3.18  0.  0.  0.
320  3.19  0.  0.  0.
321  3.20  0.  0.  0.
322  3.21  0.  0.  0.
323  3.22  0.  0.  0.
324  3.23  0.  0.  0.
325  3.24  0.  0.  0.
326  3.25  0.  0.  0.
327  3.26  0.  0.  0.
328  3.27  0.  0.  0.
329  3.28  0.  0.  0.
330  3.29  0.  0.  0.
331  3.30  0.  0.  0.
332  3.31  0.  0.  0.
333  3.32  0.  0.  0.
334  3.33  0.  0.  0.
335  3.34  0.  0.  0.
336  3.35  0.  0.  0.
337  3.36  0.  0.  0.
338  3.37  0.  0.  0.
339  3.38  0.  0.  0.
340  3.39  0.  0.  0.
341  3.40  0.  0.  0.
342  3.41  0.  0.  0.
343  3.42  0.  0.  0.
344  3.43  0.  0.  0.
345  3.44  0.  0.  0.
346  3.45  0.  0.  0.
347  3.46  0.  0.  0.
348  3.47  0.  0.  0.
349  3.48  0.  0.  0.
350  3.49  0.  0.  0.
351  3.50  0.  0.  0.
352  3.51  0.  0.  0.
353  3.52  0.  0.  0.
354  3.53  0.  0.  0.
355  3.54  0.  0.  0.
356  3.55  0.  0.  0.
357  3.56  0.  0.  0.
358  3.57  0.  0.  0.
359  3.58  0.  0.  0.
360  3.59  0.  0.  0.
361  3.60  0.  0.  0.
362  3.61  0.  0.  0.
363  3.62  0.  0.  0.
364  3.63  0.  0.  0.
365  3.64  0.  0.  0.
366  3.65  0.  0.  0.
367  3.66  0.  0.  0.
368  3.67  0.  0.  0.
369  3.68  0.  0.  0.
370  3.69  0.  0.  0.
371  3.70  0.  0.  0.
372  3.71  0.  0.  0.
373  3.72  0.  0.  0.
374  3.73  0.  0.  0.
375  3.74  0.  0.  0.
376  3.75  0.  0.  0.
377  3.76  0.  0.  0.
378  3.77  0.  0.  0.
379  3.78  0.  0.  0.
380  3.79  0.  0.  0.
381  3.80  0.  0.  0.
382  3.81  0.  0.  0.
383  3.82  0.  0.  0.
384  3.83  0.  0.  0.
385  3.84  0.  0.  0.
386  3.85  0.  0.  0.
387  3.86  0.  0.  0.
388  3.87  0.  0.  0.
389  3.88  0.  0.  0.
390  3.89  0.  0.  0.
391  3.90  0.  0.  0.
392  3.91  0.  0.  0.
393  3.92  0.  0.  0.
394  3.93  0.  0.  0.
395  3.94  0.  0.  0.
396  3.95  0.  0.  0.
397  3.96  0.  0.  0.
398  3.97  0.  0.  0.
399  3.98  0.  0.  0.
400  3.99  0.  0.  0.
401  4.00  0.  0.  0.
402  4.01  0.  0.  0.
403  4.02  0.  0.  0.
404  4.03  0.  0.  0.
405  4.04  0.  0.  0.
406  4.05  0.  0.  0.
407  4.06  0.  0.  0.
408  4.07  0.  0.  0.
409  4.08  0.  0.  0.
410  4.09  0.  0.  0.
411  4.10  0.  0.  0.
412  4.11  0.  0.  0.
413  4.12  0.  0.  0.
414  4.13  0.  0.  0.
415  4.14  0.  0.  0.
416  4.15  0.  0.  0.
417  4.16  0.  0.  0.
418  4.17  0.  0.  0.
419  4.18  0.  0.  0.
420  4.19  0.  0.  0.
421  4.20  0.  0.  0.
422  4.21  0.  0.  0.
423  4.22  0.  0.  0.
424  4.23  0.  0.  0.
425  4.24  0.  0.  0.
426  4.25  0.  0.  0.
427  4.26  0.  0.  0.
428  4.27  0.  0.  0.
429  4.28  0.  0.  0.
430  4.29  0.  0.  0.
431  4.30  0.  0.  0.
432  4.31  0.  0.  0.
433  4.32  0.  0.  0.
434  4.33  0.  0.  0.
435  4.34  0.  0.  0.
436  4.35  0.  0.  0.
437  4.36  0.  0.  0.
438  4.37  0.  0.  0.
439  4.38  0.  0.  0.
440  4.39  0.  0.  0.
441  4.40  0.  0.  0.
442  4.41  0.  0.  0.
443  4.42  0.  0.  0.
444  4.43  0.  0.  0.
445  4.44  0.  0.  0.
446  4.45  0.  0.  0.
447  4.46  0.  0.  0.
448  4.47  0.  0.  0.
449  4.48  0.  0.  0.
450  4.49  0.  0.  0.
451  4.50  0.  0.  0.
452  4.51  0.  0.  0.
453  4.52  0.  0.  0.
454  4.53  0.  0.  0.
455  4.54  0.  0.  0.
456  4.55  0.  0.  0.
457  4.56  0.  0.  0.
458  4.57  0.  0.  0.
459  4.58  0.  0.  0.
460  4.59  0.  0.  0.
461  4.60  0.  0.  0.
462  4.61  0.  0.  0.
463  4.62  0.  0.  0.
464  4.63  0.  0.  0.
465  4.64  0.  0.  0.
466  4.65  0.  0.  0.
467  4.66  0.  0.  0.
468  4.67  0.  0.  0.
469  4.68  0.  0.  0.
470  4.69  0.  0.  0.
471  4.70  0.  0.  0.
472  4.71  0.  0.  0.
473  4.72  0.  0.  0.
474  4.73  0.  0.  0.
475  4.74  0.  0.  0.
476  4.75  0.  0.  0.
477  4.76  0.  0.  0.
478  4.77  0.  0.  0.
479  4.78  0.  0.  0.
480  4.79  0.  0.  0.
481  4.80  0.  0.  0.
482  4.81  0.  0.  0.
483  4.82  0.  0.  0.
484  4.83  0.  0.  0.
485  4.84  0.  0.  0.
486  4.85  0.  0.  0.
487  4.86  0.  0.  0.
488  4.87  0.  0.  0.
489  4.88  0.  0.  0.
490  4.89  0.  0.  0.
491  4.90  0.  0.  0.
492  4.91  0.  0.  0.
493  4.92  0.  0.  0.
494  4.93  0.  0.  0.
495  4.94  0.  0.  0.
496  4.95  0.  0.  0.
497  4.96  0.  0.  0.
498  4.97  0.  0.  0.
499  4.98  0.  0.  0.
500  4.99  0.  0.  0.
501  5.00  0.  0.  0.
502  5.01  0.  0.  0.
503  5.02  0.  0.  0.
504  5.03  0.  0.  0.
505  5.04  0.  0.  0.
506  5.05  0.  0.  0.
507  5.06  0.  0.  0.
508  5.07  0.  0.  0.
509  5.08  0.  0.  0.
510  5.09  0.  0.  0.
511  5.10  0.  0.  0.
512  5.11  0.  0.  0.
513  5.12  0.  0.  0.
514  5.13  0.  0.  0.
515  5.14  0.  0.  0.
516  5.15  0.  0.  0.
517  5.16  0.  0.  0.
518  5.17  0.  0.  0.
519  5.18  0.  0.  0.
520  5.19  0.  0.  0.
521  5.20  0.  0.  0.
522  5.21  0.  0.  0.
523  5.22  0.  0.  0.
524  5.23  0.  0.  0.
525  5.24  0.  0.  0.
526  5.25  0.  0.  0.
527  5.26  0.  0.  0.
528  5.27  0.  0.  0.
529  5.28  0.  0.  0.
530  5.29  0.  0.  0.
531  5.30  0.  0.  0.
532  5.31  0.  0.  0.
533  5.32  0.  0.  0.
534  5.33  0.  0.  0.
535  5.34  0.  0.  0.
536  5.35  0.  0.  0.
537  5.36  0.  0.  0.
538  5.37  0.  0.  0.
539  5.38  0.  0.  0.
540  5.39  0.  0.  0.
541  5.40  0.  0.  0.
542  5.41  0.  0.  0.
543  5.42  0.  0.  0.
544  5.43  0.  0.  0.
545  5.44  0.  0.  0.
546  5.45  0.  0.  0.
547  5.46  0.  0.  0.
548  5.47  0.  0.  0.
549  5.48  0.  0.  0.
550  5.49  0.  0.  0.
551  5.50  0.  0.  0.
552  5.51  0.  0.  0.
553  5.52  0.  0.  0.
554  5.53  0.  0.  0.
555  5.54  0.  0.  0.
556  5.55  0.  0.  0.
557  5.56  0.  0.  0.
558  5.57  0.  0.  0.
559  5.58  0.  0.  0.
560  5.59  0.  0.  0.
561  5.60  0.  0.  0.
562  5.61  0.  0.  0.
563  5.62  0.  0.  0.
564  5.63  0.  0.  0.
565  5.64  0.  0.  0.
566  5.65  0.  0.  0.
567  5.66  0.  0.  0.
568  5.67  0.  0.  0.
569  5.68  0.  0.  0.
570  5.69  0.  0.  0.
571  5.70  0.  0.  0.
572  5.71  0.  0.  0.
573  5.72  0.  0.  0.
574  5.73  0.  0.  0.
575  5.74  0.  0.  0.
576  5.75  0.  0.  0.
577  5.76  0.  0.  0.
578  5.77  0.  0.  0.
579  5.78  0.  0.  0.
580  5.79  0.  0.  0.
581  5.80  0.  0.  0.
582  5.81  0.  0.  0.
583  5.82  0.  0.  0.
584  5.83  0.  0.  0.
585  5.84  0.  0.  0.
586  5.85  0.  0.  0.
587  5.86  0.  0.  0.
588  5.87  0.  0.  0.
589  5.88  0.  0.  0.
590  5.89  0.  0.  0.
591  5.90  0.  0.  0.
592  5.91  0.  0.  0.
593  5.92  0.  0.  0.
594  5.93  0.  0.  0.
595  5.94  0.  0.  0.
596  5.95  0.  0.  0.
597  5.96  0.  0.  0.
598  5.97  0.  0.  0.
599  5.98  0.  0.  0.
600  5.99  0.  0.  0.
1                         8.5787311714349E+00 -3.7438265150846E-01
1  0.0000000000000E+00 -8.7859273190105E-09 -1.0491723077821E-07
2  1.0000000000000E-02  3.8719041985523E-03  6.7209215313737E-04
3  2.0000000000000E-02  1.5459797875889E-02  2.7164409426171E-03
4  3.0000000000000E-02  3.4680266515691E-02  6.2155221348890E-03
5  4.0000000000000E-02  6.1394433669046E-02  1.1301065943642E-02
6  5.0000000000000E-02  9.5408206559443E-02  1.8145721408713E-02
7  6.0000000000000E-02  1.3647266670959E-01  2.6951893101313E-02
8  7.0000000000000E-02  1.8428464962826E-01  3.7938232918871E-02
9  8.0000000000000E-02  2.3848756638128E-01  5.1324374650038E-02
10  9.0000000000000E-02  2.9867252601504E-01  6.7314580858430E-02
11  1.0000000000000E-01  3.6437982093509E-01  8.6081027157320E-02
12  1.1000000000000E-01  4.3510083721794E-01  1.0774747582030E-01
13  1.2000000000000E-01  5.1028044833009E-01  1.3237408766947E-01
14  1.3000000000000E-01  5.8931994386075E-01  1.5994408820932E-01
15  1.4000000000000E-01  6.7158053479436E-01  1.9035294207540E-01
16  1.5000000000000E-01  7.5638746383886E-01  2.2340060119250E-01
17  1.6000000000000E-01  8.4303473379178E-01  2.5878727977417E-01
18  1.7000000000000E-01  9.3079044938268E-01  2.9611307754350E-01
19  1.8000000000000E-01  1.0189027490818E+00  3.3488162619439E-01
20  1.9000000000000E-01  1.1066062836868E+00  3.7450777861225E-01
21  2.0000000000000E-01  1.1931291788096E+00  4.1432920160363E-01
22  2.1000000000000E-01  1.2777003994200E+00  4.5362157689102E-01
23  2.2000000000000E-01  1.3595574170961E+00  4.9161696791781E-01
24  2.3000000000000E-01  1.4379540652666E+00  5.2752477730917E-01
25  2.4000000000000E-01  1.5121684551463E+00  5.6055460689579E-01
26  2.5000000000000E-01  1.5815108157990E+00  5.8994024358603E-01
27  2.6000000000000E-01  1.6453311162540E+00  6.1496393376141E-01
28  2.7000000000000E-01  1.7030263261529E+00  6.3498007894941E-01
29  2.8000000000000E-01  1.7540471741931E+00  6.4943748785282E-01
30  2.9000000000000E-01  1.7979042706739E+00  6.5789935474504E-01
31  3.0000000000000E-01  1.8341734716235E+00  6.6006020091305E-01
32  3.1000000000000E-01  1.8625003770004E+00  6.5575911217604E-01
33  3.2000000000000E-01  1.8826038739152E+00  6.4498872831554E-01
34  3.3000000000000E-01  1.8942786571536E+00  6.2789958527411E-01
35  3.4000000000000E-01  1.8973966828481E+00  6.0479957307365E-01
36  3.5000000000000E-01  1.8919075362071E+00  5.7614844571923E-01
37  3.6000000000000E-01  1.8778377199466E+00  5.4254749753872E-01
38  3.7000000000000E-01  1.8552888956700E+00  5.0472469683814E-01
39  3.8000000000000E-01  1.8244351350361E+00  4.6351573578003E-01
40  3.9000000000000E-01  1.7855192603584E+00  4.1984160859110E-01
41  4.0000000000000E-01  1.7388483745157E+00  3.7468346261922E-01
42  4.1000000000000E-01  1.6847886970615E+00  3.2905557312515E-01
43  4.2000000000000E-01  1.6237598366391E+00  2.8397736865982E-01
44  4.3000000000000E-01  1.5562286388046E+00  2.4044547616607E-01
45  4.4000000000000E-01  1.4827027528629E+00  1.9940676150668E-01
46  4.5000000000000E-01  1.4037240611991E+00  1.6173331122138E-01
47  4.6000000000000E-01  1.3198621099051E+00  1.2820023558554E-01
48  4.7000000000000E-01  1.2317076704521E+00  9.9467073475520E-02
49  4.8000000000000E-01  1.1398665491394E+00  7.6063449442073E-02
50  4.9000000000000E-01  1.0449537445606E+00  5.8379477260341E-02
51  5.0000000000000E-01  9.4758803403380E-01  4.6661227624349E-02
52  5.1000000000000E-01  8.4838704859326E-01  4.1011387009349E-02
53  5.2000000000000E-01  7.4796287356998E-01  4.1395037093059E-02
54  5.3000000000000E-01  6.4691818888275E-01  4.7650286942953E-02
55  5.4000000000000E-01  5.4584294081393E-01  5.9503300974383E-02
56  5.5000000000000E-01  4.4531151613216E-01  7.6587091827230E-02
57  5.6000000000000E-01  3.4588037077065E-01  9.8463295684766E-02
58  5.7000000000000E-01  2.4808604961159E-01  1.2464602433947E-01
59  5.8000000000000E-01  1.5244352188637E-01  1.5462679868104E-01
60  5.9000000000000E-01  5.9444748759067E-02  1.8789951624264E-01
61  6.0000000000000E-01 -3.0442603863432E-02  2.2398439363006E-01
62  6.1000000000000E-01 -1.1677639321245E-01  2.6244985422296E-01
63  6.2000000000000E-01 -1.9914124858605E-01  3.0293140207638E-01
64  6.3000000000000E-01 -2.7714991182107E-01  3.4514663248244E-01
65  6.4000000000000E-01 -3.5044472604938E-01  3.8890567468610E-01
66  6.5000000000000E-01 -4.1869931239815E-01  4.3411653785984E-01
67  6.6000000000000E-01 -4.8162045460220E-01  4.8078503146037E-01
68  6.7000000000000E-01 -5.3895019003049E-01  5.2900914829336E-01
69  6.8000000000000E-01 -5.9046808331497E-01  5.7896802496674E-01
70  6.9000000000000E-01 -6.3599363658654E-01  6.3090582142288E-01
71  7.0000000000000E-01 -6.7538876927143E-01  6.8511108014650E-01
72  7.1000000000000E-01 -7.0856028145363E-01  7.4189232790604E-01
73  7.2000000000000E-01 -7.3546219888477E-01  8.0155086032730E-01
74  7.3000000000000E-01 -7.5609788563492E-01  8.6435179490710E-01
75  7.4000000000000E-01 -7.7052180281404E-01  9.3049458492643E-01
76  7.5000000000000E-01 -7.7884078927400E-01  1.0000842501736E+00
77  7.6000000000000E-01 -7.8121474306035E-01  1.0731045969952E+00
78  7.7000000000000E-01 -7.7785659075261E-01  1.1493946682131E+00
79  7.8000000000000E-01 -7.6903144562419E-01  1.2286295829456E+00
80  7.9000000000000E-01 -7.5505487446964E-01  1.3103067991941E+00
81  8.0000000000000E-01 -7.3629021647098E-01  1.3937386618883E+00
82  8.1000000000000E-01 -7.1314492489861E-01  1.4780518912486E+00
83  8.2000000000000E-01 -6.8606593287933E-01  1.5621944276807E+00
84  8.3000000000000E-01 -6.5553407688394E-01  1.6449497881112E+00
85  8.4000000000000E-01 -6.2205764484850E-01  1.7249588138557E+00
86  8.5000000000000E-01 -5.8616514873490E-01  1.8007484116151E+00
87  8.6000000000000E-01 -5.4839745261996E-01  1.8707666172013E+00
88  8.7000000000000E-01 -5.0929941585985E-01  1.9334230562307E+00
89  8.8000000000000E-01 -4.6941123535424E-01  1.9871336470215E+00
90  8.9000000000000E-01 -4.2925969038925E-01  2.0303681972336E+00
91  9.0000000000000E-01 -3.8934950707696E-01  2.0616993952308E+00
92  9.1000000000000E-01 -3.5015506632805E-01  2.0798515961225E+00
93  9.2000000000000E-01 -3.1211267910518E-01  2.0837477556782E+00
94  9.3000000000000E-01 -2.7561364516275E-01  2.0725528756416E+00
95  9.4000000000000E-01 -2.4099829659215E-01  2.0457123922218E+00
96  9.5000000000000E-01 -2.0855120553080E-01  2.0029840644579E+00
97  9.6000000000000E-01 -1.7849770688799E-01  1.9444620973900E+00
98  9.7000000000000E-01 -1.5100185264907E-01  1.8705924613325E+00
99  9.8000000000000E-01 -1.2616587524643E-01  1.7821786358220E+00
100  9.9000000000000E-01 -1.0403119479266E-01  1.6803773064909E+00
101  1.0000000000000E+00 -8.4580960018444E-02  1.5666838650001E+00
102  1.0100000000000E+00 -6.7744066922867E-02  1.4429078958451E+00
103  1.0200000000000E+00 -5.3400553983983E-02  1.3111391674035E+00
104  1.0300000000000E+00 -4.1388229771225E-02  1.1737049665977E+00
105  1.0400000000000E+00 -3.1510349352856E-02  1.0331199160635E+00
106  1.0500000000000E+00 -2.3544121426919E-02  8.9202967854933E-01
107  1.0600000000000E+00 -1.7249799802303E-02  7.5315017604919E-01
108  1.0700000000000E+00 -1.2380091677868E-02  6.1920412317055E-01
109  1.0800000000000E+00 -8.6895990863460E-03  4.9285680552023E-01
110  1.0900000000000E+00 -5.9440167074207E-03  3.7665295933521E-01
111  1.1000000000000E+00 -3.9337256595191E-03  2.7292784596908E-01
112  1.1100000000000E+00 -2.5086049920778E-03  1.8357586432616E-01
113  1.1200000000000E+00 -1.4983516787710E-03  1.1049512608761E-01
114  1.1300000000000E+00 -7.7750917198485E-04  5.5202717601470E-02
115  1.1400000000000E+00 -2.8501451432717E-04  1.8707376583397E-02
116  1.1500000000000E+00 -2.8548800428857E-05  1.6737031952759E-03
117  1.1600000000000E+00  1.0701034737541E-06 -5.8567045146158E-05
118  1.1700000000000E+00  1.7312361129948E-07 -1.0514237555736E-05
119  1.18 -0. -0.
120  1.19  0.  0.
121  1.20  0.  0.
122  1.21  0.  0.
123  1.22  0.  0.
124  1.23  0.  0.
125  1.24  0.  0.
126  1.25  0.  0.
127  1.26  0.  0.
128  1.27  0.  0.
129  1.28  0.  0.
130  1.29  0.  0.
131  1.30  0.  0.
132  1.31  0.  0.
133  1.32  0.  0.
134  1.33  0.  0.
135  1.34  0.  0.
136  1.35  0.  0.
137  1.36  0.  0.
138  1.37  0.  0.
139  1.38  0.  0.
140  1.39  0.  0.
141  1.40  0.  0.
142  1.41  0.  0.
143  1.42  0.  0.
144  1.43  0.  0.
145  1.44  0.  0.
146  1.45  0.  0.
147  1.46  0.  0.
148  1.47  0.  0.
149  1.48  0.  0.
150  1.49  0.  0.
151  1.50  0.  0.
152  1.51  0.  0.
153  1.52  0.  0.
154  1.53  0.  0.
155  1.54  0.  0.
156  1.55  0.  0.
157  1.56  0.  0.
158  1.57  0.  0.
159  1.58  0.  0.
160  1.59  0.  0.
161  1.60  0.  0.
162  1.61  0.  0.
163  1.62  0.  0.
164  1.63  0.  0.
165  1.64  0.  0.