Cf    ONCVPSP-4.0.1  r_core=   1.15394   1.15394   1.15394   1.10001
98.0000     38.0000      220822    zatom,zion,pspd
8      11   3     4   600     0    pspcod,pspxc,lmax,lloc,mmax,r2well
5.99000000  5.00000000  0.00000000    rchrg fchrg qchrg
3     2     2     2     0    nproj
1     1           extension_switch
0                         5.1761021038574E+01  3.0126587254851E+00 -1.8845297207359E+00
1  0.0000000000000E+00 -3.7750153669691E-08  1.9824870878260E-07 -4.3012911399298E-08
2  1.0000000000000E-02  1.9013694954145E-01 -1.2779980471140E-01  2.3023256857832E-02
3  2.0000000000000E-02  3.7874105437231E-01 -2.5301154634046E-01  4.5689368140075E-02
4  3.0000000000000E-02  5.6429795919045E-01 -3.7310164151934E-01  6.7651684205948E-02
5  4.0000000000000E-02  7.4532993577099E-01 -4.8564392964373E-01  8.8584222255423E-02
6  5.0000000000000E-02  9.2041332754910E-01 -5.8836959750039E-01  1.0819119911178E-01
7  6.0000000000000E-02  1.0881949801650E+00 -6.7921271134379E-01  1.2621563617079E-01
8  7.0000000000000E-02  1.2474073666474E+00 -7.5635013833813E-01  1.4244678069144E-01
9  8.0000000000000E-02  1.3968821536623E+00 -8.1823483752975E-01  1.5672613061624E-01
10  9.0000000000000E-02  1.5355619997140E+00 -8.6362173307413E-01  1.6895190050844E-01
11  1.0000000000000E-01  1.6625104257026E+00 -8.9158564008217E-01  1.7908182194574E-01
12  1.1000000000000E-01  1.7769196509948E+00 -9.0153098597478E-01  1.8713423056843E-01
13  1.2000000000000E-01  1.8781163422142E+00 -8.9319334692580E-01  1.9318745159071E-01
14  1.3000000000000E-01  1.9655652753735E+00 -8.6663308897337E-01  1.9737755356440E-01
15  1.4000000000000E-01  2.0388709628459E+00 -8.2222165624329E-01  1.9989459425080E-01
16  1.5000000000000E-01  2.0977773432627E+00 -7.6062127471665E-01  2.0097753048728E-01
17  1.6000000000000E-01  2.1421656731716E+00 -6.8275903061899E-01  2.0090800409568E-01
18  1.7000000000000E-01  2.1720507929107E+00 -5.8979643076244E-01  2.0000324665659E-01
19  1.8000000000000E-01  2.1875759646766E+00 -4.8309565292223E-01  1.9860836628643E-01
20  1.9000000000000E-01  2.1890064975817E+00 -3.6418374440430E-01  1.9708828875612E-01
21  2.0000000000000E-01  2.1767223823567E+00 -2.3471602535276E-01  1.9581962321805E-01
22  2.1000000000000E-01  2.1512101574125E+00 -9.6439901283061E-02  1.9518270979101E-01
23  2.2000000000000E-01  2.1130542187335E+00  4.8839809910704E-02  1.9555408307677E-01
24  2.3000000000000E-01  2.0629277694034E+00  1.9929307233609E-01  1.9729955357444E-01
25  2.4000000000000E-01  2.0015835816142E+00  3.5309355965978E-01  2.0076806952985E-01
26  2.5000000000000E-01  1.9298447162041E+00  5.0844372995579E-01  2.0628647691091E-01
27  2.6000000000000E-01  1.8485953137042E+00  6.6359568107960E-01  2.1415524708947E-01
28  2.7000000000000E-01  1.7587715382588E+00  8.1686764559529E-01  2.2464519269209E-01
29  2.8000000000000E-01  1.6613527233712E+00  9.6665620630868E-01  2.3799514426655E-01
30  2.9000000000000E-01  1.5573527379111E+00  1.1114445216098E+00  2.5441051611751E-01
31  3.0000000000000E-01  1.4478115637956E+00  1.2498070346210E+00  2.7406265095667E-01
32  3.1000000000000E-01  1.3337870545890E+00  1.3804112932816E+00  2.9708880167411E-01
33  3.2000000000000E-01  1.2163468281079E+00  1.5020176231179E+00  3.2359258601387E-01
34  3.3000000000000E-01  1.0965602367692E+00  1.6134774654403E+00  3.5364473726888E-01
35  3.4000000000000E-01  9.7549035734843E-01  1.7137312181299E+00  3.8728397184895E-01
36  3.5000000000000E-01  8.5418594712322E-01  1.8018063930690E+00  4.2451780281300E-01
37  3.6000000000000E-01  7.3367332576539E-01  1.8768168350184E+00  4.6532314676310E-01
38  3.7000000000000E-01  6.1494816115921E-01  1.9379636348748E+00  5.0964659896180E-01
39  3.8000000000000E-01  4.9896716155826E-01  1.9845382212664E+00  5.5740428680452E-01
40  3.9000000000000E-01  3.8663970484082E-01  2.0159279357386E+00  6.0848125309677E-01
41  4.0000000000000E-01  2.7881946654286E-01  2.0316241971090E+00  6.6273036589564E-01
42  4.1000000000000E-01  1.7629614010199E-01  2.0312331499005E+00  7.1997079866547E-01
43  4.2000000000000E-01  7.9787373525480E-02  2.0144884806010E+00  7.7998617076339E-01
44  4.3000000000000E-01 -1.0068925337702E-02  1.9812658846136E+00  8.4252248136592E-01
45  4.4000000000000E-01 -9.2721739351168E-02  1.9315984866129E+00  9.0728600753060E-01
46  4.5000000000000E-01 -1.6771335568502E-01  1.8656923672298E+00  9.7394136702458E-01
47  4.6000000000000E-01 -2.3468483999375E-01  1.7839412380091E+00  1.0421099670064E+00
48  4.7000000000000E-01 -2.9338036765326E-01  1.6869392411671E+00  1.1113690691929E+00
49  4.8000000000000E-01 -3.4365021677269E-01  1.5754908356942E+00  1.1812516998025E+00
50  4.9000000000000E-01 -3.8545224551333E-01  1.4506167692416E+00  1.2512476179258E+00
51  5.0000000000000E-01 -4.1885170352572E-01  1.3135552263577E+00  1.3208055291342E+00
52  5.1000000000000E-01 -4.4401926344289E-01  1.1657573855376E+00  1.3893366928070E+00
53  5.2000000000000E-01 -4.6122720235302E-01  1.0088768056687E+00  1.4562200230808E+00
54  5.3000000000000E-01 -4.7084371360073E-01  8.4475228981129E-01  1.5208087262468E+00
55  5.4000000000000E-01 -4.7332538437296E-01  6.7538413189486E-01  1.5824384540746E+00
56  5.5000000000000E-01 -4.6920793229061E-01  5.0290392935865E-01  1.6404368854610E+00
57  5.6000000000000E-01 -4.5909535240064E-01  3.2953843017914E-01  1.6941345808446E+00
58  5.7000000000000E-01 -4.4364768219691E-01  1.5756816360619E-01  1.7428768879577E+00
59  5.8000000000000E-01 -4.2356764424978E-01 -1.0718132283182E-02  1.7860366166714E+00
60  5.9000000000000E-01 -3.9958647139090E-01 -1.7307203889981E-01  1.8230271478485E+00
61  6.0000000000000E-01 -3.7244925613624E-01 -3.2733550055209E-01  1.8533155988256E+00
62  6.1000000000000E-01 -3.4290019228711E-01 -4.7149079967753E-01  1.8764356387465E+00
63  6.2000000000000E-01 -3.1166809104359E-01 -6.0370879682932E-01  1.8919995321871E+00
64  6.3000000000000E-01 -2.7945255544540E-01 -7.2239374930580E-01  1.8997089906679E+00
65  6.4000000000000E-01 -2.4691118505252E-01 -8.2622307092219E-01  1.8993644293027E+00
66  6.5000000000000E-01 -2.1464815748539E-01 -9.1418051216692E-01  1.8908722599598E+00
67  6.6000000000000E-01 -1.8320449532754E-01 -9.8558142223617E-01  1.8742499021563E+00
68  6.7000000000000E-01 -1.5305027702909E-01 -1.0400889968416E+00  1.8496282570602E+00
69  6.8000000000000E-01 -1.2457899042796E-01 -1.0777207101028E+00  1.8172514663758E+00
70  6.9000000000000E-01 -9.8104159341031E-02 -1.0988444648293E+00  1.7774738639442E+00
71  7.0000000000000E-01 -7.3858299781389E-02 -1.1041643604965E+00  1.7307541204933E+00
72  7.1000000000000E-01 -5.1994185396732E-02 -1.0946963582350E+00  1.6776466777153E+00
73  7.2000000000000E-01 -3.2588324573784E-02 -1.0717345020813E+00  1.6187906630557E+00
74  7.3000000000000E-01 -1.5646477222077E-02 -1.0368087202776E+00  1.5548965675592E+00
75  7.4000000000000E-01 -1.1109704330077E-03 -9.9163556431160E-01  1.4867310521691E+00
76  7.5000000000000E-01  1.1130488299185E-02 -9.3806353251673E-01  1.4151003196044E+00
77  7.6000000000000E-01  2.1234851373283E-02 -8.7801485662260E-01  1.3408325462926E+00
78  7.7000000000000E-01  2.9393012950139E-02 -8.1342579303222E-01  1.2647599092661E+00
79  7.8000000000000E-01  3.5818743066160E-02 -7.4618754768403E-01  1.1877007645049E+00
80  7.9000000000000E-01  4.0737691883817E-02 -6.7808996897354E-01  1.1104425347144E+00
81  8.0000000000000E-01  4.4376873353346E-02 -6.1077006535954E-01  1.0337258454913E+00
82  8.1000000000000E-01  4.6955013280109E-02 -5.4566724433175E-01  9.5823040960626E-01
83  8.2000000000000E-01  4.8674107641210E-02 -4.8398693204687E-01  8.8456310085154E-01
84  8.3000000000000E-01  4.9712484353098E-02 -4.2667392599406E-01  8.1324858346298E-01
85  8.4000000000000E-01  5.0219597490745E-02 -3.7439646734356E-01  7.4472277312814E-01
86  8.5000000000000E-01  5.0312709589209E-02 -3.2754160842075E-01  6.7932930422668E-01
87  8.6000000000000E-01  5.0075537899260E-02 -2.8622200935618E-01  6.1731906889616E-01
88  8.7000000000000E-01  4.9558857360773E-02 -2.5029384306651E-01  5.5885278078190E-01
89  8.8000000000000E-01  4.8782969794309E-02 -2.1938503676508E-01  5.0400640410770E-01
90  8.9000000000000E-01  4.7741868608219E-02 -1.9293264866701E-01  4.5277918119903E-01
91  9.0000000000000E-01  4.6408854272260E-02 -1.7022778719188E-01  4.0510389284099E-01
92  9.1000000000000E-01  4.4743290797132E-02 -1.5046614225646E-01  3.6085889959734E-01
93  9.2000000000000E-01  4.2698139988326E-02 -1.3280192754384E-01  3.1988144169672E-01
94  9.3000000000000E-01  4.0227870375669E-02 -1.1640283979638E-01  2.8198162296285E-01
95  9.4000000000000E-01  3.7296312975466E-02 -1.0050353401346E-01  2.4695647246008E-01
96  9.5000000000000E-01  3.3884027327153E-02 -8.4455096331869E-02  2.1460346717663E-01
97  9.6000000000000E-01  2.9994748831225E-02 -6.7768070179571E-02  1.8473291046700E-01
98  9.7000000000000E-01  2.5660511917588E-02 -5.0146753264181E-02  1.5717859356434E-01
99  9.8000000000000E-01  2.0945081962562E-02 -3.1512726729584E-02  1.3180621984247E-01
100  9.9000000000000E-01  1.5945380528767E-02 -1.2015893811364E-02  1.0851914148119E-01
101  1.0000000000000E+00  1.0790651239702E-02  7.9683191563581E-03  8.7261042850533E-02
102  1.0100000000000E+00  5.6391848943197E-03  2.7856525980040E-02  6.8015300931290E-02
103  1.0200000000000E+00  6.7249927247308E-04  4.6890186268194E-02  5.0800856448037E-02
104  1.0300000000000E+00 -3.9130516737382E-03  6.4183673263900E-02  3.5664535946089E-02
105  1.0400000000000E+00 -7.9171860053318E-03  7.8787172670896E-02  2.2669870704210E-02
106  1.0500000000000E+00 -1.1148991588299E-02  8.9763556488021E-02  1.1882558783001E-02
107  1.0600000000000E+00 -1.3442418173367E-02  9.6277993819853E-02  3.3528077447881E-03
108  1.0700000000000E+00 -1.4673710357158E-02  9.7698735153918E-02 -2.9051256024659E-03
109  1.0800000000000E+00 -1.4780465311271E-02  9.3707163846507E-02 -6.9357935501541E-03
110  1.0900000000000E+00 -1.3782036744747E-02  8.4415427328294E-02 -8.8674760900273E-03
111  1.1000000000000E+00 -1.1828948801167E-02  7.0637634025389E-02 -8.9816328916753E-03
112  1.1100000000000E+00 -9.3709533304835E-03  5.4789890614411E-02 -7.9681315288743E-03
113  1.1200000000000E+00 -6.6254915912969E-03  3.8056331075447E-02 -6.1227014301088E-03
114  1.1300000000000E+00 -3.8706179069711E-03  2.1907601857269E-02 -3.8069361377315E-03
115  1.1400000000000E+00 -1.5259250467712E-03  8.5322197167783E-03 -1.5738341339885E-03
116  1.1500000000000E+00 -1.5852909230907E-04  8.7731967454699E-04 -1.6974827041813E-04
117  1.1600000000000E+00  6.0446257080567E-06 -3.3278192671664E-05  6.5975138475961E-06
118  1.1700000000000E+00  9.5443930486876E-07 -5.2971286959791E-06  1.0125974136200E-06
119  1.18 -0.  0. -0.
120  1.19  0.  0.  0.
121  1.20  0.  0.  0.
122  1.21  0.  0.  0.
123  1.22  0.  0.  0.
124  1.23  0.  0.  0.
125  1.24  0.  0.  0.
126  1.25  0.  0.  0.
127  1.26  0.  0.  0.
128  1.27  0.  0.  0.
129  1.28  0.  0.  0.
130  1.29  0.  0.  0.
131  1.30  0.  0.  0.
132  1.31  0.  0.  0.
133  1.32  0.  0.  0.
134  1.33  0.  0.  0.
135  1.34  0.  0.  0.
136  1.35  0.  0.  0.
137  1.36  0.  0.  0.
138  1.37  0.  0.  0.
139  1.38  0.  0.  0.
140  1.39  0.  0.  0.
141  1.40  0.  0.  0.
142  1.41  0.  0.  0.
143  1.42  0.  0.  0.
144  1.43  0.  0.  0.
145  1.44  0.  0.  0.
146  1.45  0.  0.  0.
147  1.46  0.  0.  0.
148  1.47  0.  0.  0.
149  1.48  0.  0.  0.
150  1.49  0.  0.  0.
151  1.50  0.  0.  0.
152  1.51  0.  0.  0.
153  1.52  0.  0.  0.
154  1.53  0.  0.  0.
155  1.54  0.  0.  0.
156  1.55  0.  0.  0.
157  1.56  0.  0.  0.
158  1.57  0.  0.  0.
159  1.58  0.  0.  0.
160  1.59  0.  0.  0.
161  1.60  0.  0.  0.
162  1.61  0.  0.  0.
163  1.62  0.  0.  0.
164  1.63  0.  0.  0.
165  1.64  0.  0.  0.
166  1.65  0.  0.  0.
167  1.66  0.  0.  0.
168  1.67  0.  0.  0.
169  1.68  0.  0.  0.
170  1.69  0.  0.  0.
171  1.70  0.  0.  0.
172  1.71  0.  0.  0.
173  1.72  0.  0.  0.
174  1.73  0.  0.  0.
175  1.74  0.  0.  0.
176  1.75  0.  0.  0.
177  1.76  0.  0.  0.
178  1.77  0.  0.  0.
179  1.78  0.  0.  0.
180  1.79  0.  0.  0.
181  1.80  0.  0.  0.
182  1.81  0.  0.  0.
183  1.82  0.  0.  0.
184  1.83  0.  0.  0.
185  1.84  0.  0.  0.
186  1.85  0.  0.  0.
187  1.86  0.  0.  0.
188  1.87  0.  0.  0.
189  1.88  0.  0.  0.
190  1.89  0.  0.  0.
191  1.90  0.  0.  0.
192  1.91  0.  0.  0.
193  1.92  0.  0.  0.
194  1.93  0.  0.  0.
195  1.94  0.  0.  0.
196  1.95  0.  0.  0.
197  1.96  0.  0.  0.
198  1.97  0.  0.  0.
199  1.98  0.  0.  0.
200  1.99  0.  0.  0.
201  2.00  0.  0.  0.
202  2.01  0.  0.  0.
203  2.02  0.  0.  0.
204  2.03  0.  0.  0.
205  2.04  0.  0.  0.
206  2.05  0.  0.  0.
207  2.06  0.  0.  0.
208  2.07  0.  0.  0.
209  2.08  0.  0.  0.
210  2.09  0.  0.  0.
211  2.10  0.  0.  0.
212  2.11  0.  0.  0.
213  2.12  0.  0.  0.
214  2.13  0.  0.  0.
215  2.14  0.  0.  0.
216  2.15  0.  0.  0.
217  2.16  0.  0.  0.
218  2.17  0.  0.  0.
219  2.18  0.  0.  0.
220  2.19  0.  0.  0.
221  2.20  0.  0.  0.
222  2.21  0.  0.  0.
223  2.22  0.  0.  0.
224  2.23  0.  0.  0.
225  2.24  0.  0.  0.
226  2.25  0.  0.  0.
227  2.26  0.  0.  0.
228  2.27  0.  0.  0.
229  2.28  0.  0.  0.
230  2.29  0.  0.  0.
231  2.30  0.  0.  0.
232  2.31  0.  0.  0.
233  2.32  0.  0.  0.
234  2.33  0.  0.  0.
235  2.34  0.  0.  0.
236  2.35  0.  0.  0.
237  2.36  0.  0.  0.
238  2.37  0.  0.  0.
239  2.38  0.  0.  0.
240  2.39  0.  0.  0.
241  2.40  0.  0.  0.
242  2.41  0.  0.  0.
243  2.42  0.  0.  0.
244  2.43  0.  0.  0.
245  2.44  0.  0.  0.
246  2.45  0.  0.  0.
247  2.46  0.  0.  0.
248  2.47  0.  0.  0.
249  2.48  0.  0.  0.
250  2.49  0.  0.  0.
251  2.50  0.  0.  0.
252  2.51  0.  0.  0.
253  2.52  0.  0.  0.
254  2.53  0.  0.  0.
255  2.54  0.  0.  0.
256  2.55  0.  0.  0.
257  2.56  0.  0.  0.
258  2.57  0.  0.  0.
259  2.58  0.  0.  0.
260  2.59  0.  0.  0.
261  2.60  0.  0.  0.
262  2.61  0.  0.  0.
263  2.62  0.  0.  0.
264  2.63  0.  0.  0.
265  2.64  0.  0.  0.
266  2.65  0.  0.  0.
267  2.66  0.  0.  0.
268  2.67  0.  0.  0.
269  2.68  0.  0.  0.
270  2.69  0.  0.  0.
271  2.70  0.  0.  0.
272  2.71  0.  0.  0.
273  2.72  0.  0.  0.
274  2.73  0.  0.  0.
275  2.74  0.  0.  0.
276  2.75  0.  0.  0.
277  2.76  0.  0.  0.
278  2.77  0.  0.  0.
279  2.78  0.  0.  0.
280  2.79  0.  0.  0.
281  2.80  0.  0.  0.
282  2.81  0.  0.  0.
283  2.82  0.  0.  0.
284  2.83  0.  0.  0.
285  2.84  0.  0.  0.
286  2.85  0.  0.  0.
287  2.86  0.  0.  0.
288  2.87  0.  0.  0.
289  2.88  0.  0.  0.
290  2.89  0.  0.  0.
291  2.90  0.  0.  0.
292  2.91  0.  0.  0.
293  2.92  0.  0.  0.
294  2.93  0.  0.  0.
295  2.94  0.  0.  0.
296  2.95  0.  0.  0.
297  2.96  0.  0.  0.
298  2.97  0.  0.  0.
299  2.98  0.  0.  0.
300  2.99  0.  0.  0.
301  3.00  0.  0.  0.
302  3.01  0.  0.  0.
303  3.02  0.  0.  0.
304  3.03  0.  0.  0.
305  3.04  0.  0.  0.
306  3.05  0.  0.  0.
307  3.06  0.  0.  0.
308  3.07  0.  0.  0.
309  3.08  0.  0.  0.
310  3.09  0.  0.  0.
311  3.10  0.  0.  0.
312  3.11  0.  0.  0.
313  3.12  0.  0.  0.
314  3.13  0.  0.  0.
315  3.14  0.  0.  0.
316  3.15  0.  0.  0.
317  3.16  0.  0.  0.
318  3.17  0.  0.  0.
319  3.18  0.  0.  0.
320  3.19  0.  0.  0.
321  3.20  0.  0.  0.
322  3.21  0.  0.  0.
323  3.22  0.  0.  0.
324  3.23  0.  0.  0.
325  3.24  0.  0.  0.
326  3.25  0.  0.  0.
327  3.26  0.  0.  0.
328  3.27  0.  0.  0.
329  3.28  0.  0.  0.
330  3.29  0.  0.  0.
331  3.30  0.  0.  0.
332  3.31  0.  0.  0.
333  3.32  0.  0.  0.
334  3.33  0.  0.  0.
335  3.34  0.  0.  0.
336  3.35  0.  0.  0.
337  3.36  0.  0.  0.
338  3.37  0.  0.  0.
339  3.38  0.  0.  0.
340  3.39  0.  0.  0.
341  3.40  0.  0.  0.
342  3.41  0.  0.  0.
343  3.42  0.  0.  0.
344  3.43  0.  0.  0.
345  3.44  0.  0.  0.
346  3.45  0.  0.  0.
347  3.46  0.  0.  0.
348  3.47  0.  0.  0.
349  3.48  0.  0.  0.
350  3.49  0.  0.  0.
351  3.50  0.  0.  0.
352  3.51  0.  0.  0.
353  3.52  0.  0.  0.
354  3.53  0.  0.  0.
355  3.54  0.  0.  0.
356  3.55  0.  0.  0.
357  3.56  0.  0.  0.
358  3.57  0.  0.  0.
359  3.58  0.  0.  0.
360  3.59  0.  0.  0.
361  3.60  0.  0.  0.
362  3.61  0.  0.  0.
363  3.62  0.  0.  0.
364  3.63  0.  0.  0.
365  3.64  0.  0.  0.
366  3.65  0.  0.  0.
367  3.66  0.  0.  0.
368  3.67  0.  0.  0.
369  3.68  0.  0.  0.
370  3.69  0.  0.  0.
371  3.70  0.  0.  0.
372  3.71  0.  0.  0.
373  3.72  0.  0.  0.
374  3.73  0.  0.  0.
375  3.74  0.  0.  0.
376  3.75  0.  0.  0.
377  3.76  0.  0.  0.
378  3.77  0.  0.  0.
379  3.78  0.  0.  0.
380  3.79  0.  0.  0.
381  3.80  0.  0.  0.
382  3.81  0.  0.  0.
383  3.82  0.  0.  0.
384  3.83  0.  0.  0.
385  3.84  0.  0.  0.
386  3.85  0.  0.  0.
387  3.86  0.  0.  0.
388  3.87  0.  0.  0.
389  3.88  0.  0.  0.
390  3.89  0.  0.  0.
391  3.90  0.  0.  0.
392  3.91  0.  0.  0.
393  3.92  0.  0.  0.
394  3.93  0.  0.  0.
395  3.94  0.  0.  0.
396  3.95  0.  0.  0.
397  3.96  0.  0.  0.
398  3.97  0.  0.  0.
399  3.98  0.  0.  0.
400  3.99  0.  0.  0.
401  4.00  0.  0.  0.
402  4.01  0.  0.  0.
403  4.02  0.  0.  0.
404  4.03  0.  0.  0.
405  4.04  0.  0.  0.
406  4.05  0.  0.  0.
407  4.06  0.  0.  0.
408  4.07  0.  0.  0.
409  4.08  0.  0.  0.
410  4.09  0.  0.  0.
411  4.10  0.  0.  0.
412  4.11  0.  0.  0.
413  4.12  0.  0.  0.
414  4.13  0.  0.  0.
415  4.14  0.  0.  0.
416  4.15  0.  0.  0.
417  4.16  0.  0.  0.
418  4.17  0.  0.  0.
419  4.18  0.  0.  0.
420  4.19  0.  0.  0.
421  4.20  0.  0.  0.
422  4.21  0.  0.  0.
423  4.22  0.  0.  0.
424  4.23  0.  0.  0.
425  4.24  0.  0.  0.
426  4.25  0.  0.  0.
427  4.26  0.  0.  0.
428  4.27  0.  0.  0.
429  4.28  0.  0.  0.
430  4.29  0.  0.  0.
431  4.30  0.  0.  0.
432  4.31  0.  0.  0.
433  4.32  0.  0.  0.
434  4.33  0.  0.  0.
435  4.34  0.  0.  0.
436  4.35  0.  0.  0.
437  4.36  0.  0.  0.
438  4.37  0.  0.  0.
439  4.38  0.  0.  0.
440  4.39  0.  0.  0.
441  4.40  0.  0.  0.
442  4.41  0.  0.  0.
443  4.42  0.  0.  0.
444  4.43  0.  0.  0.
445  4.44  0.  0.  0.
446  4.45  0.  0.  0.
447  4.46  0.  0.  0.
448  4.47  0.  0.  0.
449  4.48  0.  0.  0.
450  4.49  0.  0.  0.
451  4.50  0.  0.  0.
452  4.51  0.  0.  0.
453  4.52  0.  0.  0.
454  4.53  0.  0.  0.
455  4.54  0.  0.  0.
456  4.55  0.  0.  0.
457  4.56  0.  0.  0.
458  4.57  0.  0.  0.
459  4.58  0.  0.  0.
460  4.59  0.  0.  0.
461  4.60  0.  0.  0.
462  4.61  0.  0.  0.
463  4.62  0.  0.  0.
464  4.63  0.  0.  0.
465  4.64  0.  0.  0.
466  4.65  0.  0.  0.
467  4.66  0.  0.  0.
468  4.67  0.  0.  0.
469  4.68  0.  0.  0.
470  4.69  0.  0.  0.
471  4.70  0.  0.  0.
472  4.71  0.  0.  0.
473  4.72  0.  0.  0.
474  4.73  0.  0.  0.
475  4.74  0.  0.  0.
476  4.75  0.  0.  0.
477  4.76  0.  0.  0.
478  4.77  0.  0.  0.
479  4.78  0.  0.  0.
480  4.79  0.  0.  0.
481  4.80  0.  0.  0.
482  4.81  0.  0.  0.
483  4.82  0.  0.  0.
484  4.83  0.  0.  0.
485  4.84  0.  0.  0.
486  4.85  0.  0.  0.
487  4.86  0.  0.  0.
488  4.87  0.  0.  0.
489  4.88  0.  0.  0.
490  4.89  0.  0.  0.
491  4.90  0.  0.  0.
492  4.91  0.  0.  0.
493  4.92  0.  0.  0.
494  4.93  0.  0.  0.
495  4.94  0.  0.  0.
496  4.95  0.  0.  0.
497  4.96  0.  0.  0.
498  4.97  0.  0.  0.
499  4.98  0.  0.  0.
500  4.99  0.  0.  0.
501  5.00  0.  0.  0.
502  5.01  0.  0.  0.
503  5.02  0.  0.  0.
504  5.03  0.  0.  0.
505  5.04  0.  0.  0.
506  5.05  0.  0.  0.
507  5.06  0.  0.  0.
508  5.07  0.  0.  0.
509  5.08  0.  0.  0.
510  5.09  0.  0.  0.
511  5.10  0.  0.  0.
512  5.11  0.  0.  0.
513  5.12  0.  0.  0.
514  5.13  0.  0.  0.
515  5.14  0.  0.  0.
516  5.15  0.  0.  0.
517  5.16  0.  0.  0.
518  5.17  0.  0.  0.
519  5.18  0.  0.  0.
520  5.19  0.  0.  0.
521  5.20  0.  0.  0.
522  5.21  0.  0.  0.
523  5.22  0.  0.  0.
524  5.23  0.  0.  0.
525  5.24  0.  0.  0.
526  5.25  0.  0.  0.
527  5.26  0.  0.  0.
528  5.27  0.  0.  0.
529  5.28  0.  0.  0.
530  5.29  0.  0.  0.
531  5.30  0.  0.  0.
532  5.31  0.  0.  0.
533  5.32  0.  0.  0.
534  5.33  0.  0.  0.
535  5.34  0.  0.  0.
536  5.35  0.  0.  0.
537  5.36  0.  0.  0.
538  5.37  0.  0.  0.
539  5.38  0.  0.  0.
540  5.39  0.  0.  0.
541  5.40  0.  0.  0.
542  5.41  0.  0.  0.
543  5.42  0.  0.  0.
544  5.43  0.  0.  0.
545  5.44  0.  0.  0.
546  5.45  0.  0.  0.
547  5.46  0.  0.  0.
548  5.47  0.  0.  0.
549  5.48  0.  0.  0.
550  5.49  0.  0.  0.
551  5.50  0.  0.  0.
552  5.51  0.  0.  0.
553  5.52  0.  0.  0.
554  5.53  0.  0.  0.
555  5.54  0.  0.  0.
556  5.55  0.  0.  0.
557  5.56  0.  0.  0.
558  5.57  0.  0.  0.
559  5.58  0.  0.  0.
560  5.59  0.  0.  0.
561  5.60  0.  0.  0.
562  5.61  0.  0.  0.
563  5.62  0.  0.  0.
564  5.63  0.  0.  0.
565  5.64  0.  0.  0.
566  5.65  0.  0.  0.
567  5.66  0.  0.  0.
568  5.67  0.  0.  0.
569  5.68  0.  0.  0.
570  5.69  0.  0.  0.
571  5.70  0.  0.  0.
572  5.71  0.  0.  0.
573  5.72  0.  0.  0.
574  5.73  0.  0.  0.
575  5.74  0.  0.  0.
576  5.75  0.  0.  0.
577  5.76  0.  0.  0.
578  5.77  0.  0.  0.
579  5.78  0.  0.  0.
580  5.79  0.  0.  0.
581  5.80  0.  0.  0.
582  5.81  0.  0.  0.
583  5.82  0.  0.  0.
584  5.83  0.  0.  0.
585  5.84  0.  0.  0.
586  5.85  0.  0.  0.
587  5.86  0.  0.  0.
588  5.87  0.  0.  0.
589  5.88  0.  0.  0.
590  5.89  0.  0.  0.
591  5.90  0.  0.  0.
592  5.91  0.  0.  0.
593  5.92  0.  0.  0.
594  5.93  0.  0.  0.
595  5.94  0.  0.  0.
596  5.95  0.  0.  0.
597  5.96  0.  0.  0.
598  5.97  0.  0.  0.
599  5.98  0.  0.  0.
600  5.99  0.  0.  0.
1                         1.3608602254435E+01 -5.9689265728299E-01
1  0.0000000000000E+00  1.2890007505817E-08  4.3955321188394E-09
2  1.0000000000000E-02  5.4873828369703E-03  1.3784240543856E-03
3  2.0000000000000E-02  2.1890271260605E-02  5.4933535922222E-03
4  3.0000000000000E-02  4.9031531391969E-02  1.2284043339141E-02
5  4.0000000000000E-02  8.6618087821248E-02  2.1650191671472E-02
6  5.0000000000000E-02  1.3424412113749E-01  3.3453346005229E-02
7  6.0000000000000E-02  1.9139549656269E-01  4.7518859287308E-02
8  7.0000000000000E-02  2.5745537624592E-01  6.3638385783944E-02
9  8.0000000000000E-02  3.3171095488355E-01  8.1572899965939E-02
10  9.0000000000000E-02  4.1336124594549E-01  1.0105621721447E-01
11  1.0000000000000E-01  5.0152583402387E-01  1.2179898925701E-01
12  1.1000000000000E-01  5.9525449779720E-01  1.4349314067914E-01
13  1.2000000000000E-01  6.9353759794224E-01  1.6581670559089E-01
14  1.3000000000000E-01  7.9531711514682E-01  1.8843901565119E-01
15  1.4000000000000E-01  8.9949821530277E-01  2.1102618232752E-01
16  1.5000000000000E-01  1.0049612121042E+00  2.3324680769065E-01
17  1.6000000000000E-01  1.1105737917576E+00  2.5477784946789E-01
18  1.7000000000000E-01  1.2152033604336E+00  2.7531055779172E-01
19  1.8000000000000E-01  1.3177293725491E+00  2.9455639339755E-01
20  1.9000000000000E-01  1.4170554970513E+00  3.1225283028366E-01
21  2.0000000000000E-01  1.5121214796484E+00  3.2816894038518E-01
22  2.1000000000000E-01  1.6019145614432E+00  3.4211065396691E-01
23  2.2000000000000E-01  1.6854803187115E+00  3.5392558751731E-01
24  2.3000000000000E-01  1.7619327946250E+00  3.6350733120621E-01
25  2.4000000000000E-01  1.8304638015297E+00  3.7079909068122E-01
26  2.5000000000000E-01  1.8903512819140E+00  3.7579658329272E-01
27  2.6000000000000E-01  1.9409666273426E+00  3.7855009685810E-01
28  2.7000000000000E-01  1.9817808673051E+00  3.7916562982595E-01
29  2.8000000000000E-01  2.0123696539743E+00  3.7780504512150E-01
30  2.9000000000000E-01  2.0324169841389E+00  3.7468518590262E-01
31  3.0000000000000E-01  2.0417176158627E+00  3.7007591969648E-01
32  3.1000000000000E-01  2.0401781545133E+00  3.6429709760708E-01
33  3.2000000000000E-01  2.0278168004558E+00  3.5771443708591E-01
34  3.3000000000000E-01  2.0047617686567E+00  3.5073435967676E-01
35  3.4000000000000E-01  1.9712484084189E+00  3.4379783865509E-01
36  3.5000000000000E-01  1.9276150691854E+00  3.3737333500906E-01
37  3.6000000000000E-01  1.8742977755169E+00  3.3194892314966E-01
38  3.7000000000000E-01  1.8118237906835E+00  3.2802372947267E-01
39  3.8000000000000E-01  1.7408041635331E+00  3.2609882681032E-01
40  3.9000000000000E-01  1.6619253671435E+00  3.2666774531249E-01
41  4.0000000000000E-01  1.5759401499903E+00  3.3020677483426E-01
42  4.1000000000000E-01  1.4836577307428E+00  3.3716524498270E-01
43  4.2000000000000E-01  1.3859334761549E+00  3.4795597617528E-01
44  4.3000000000000E-01  1.2836582076811E+00  3.6294609805202E-01
45  4.4000000000000E-01  1.1777472863194E+00  3.8244843013839E-01
46  4.5000000000000E-01  1.0691296266778E+00  4.0671361366316E-01
47  4.6000000000000E-01  9.5873679035615E-01  4.3592317289245E-01
48  4.7000000000000E-01  8.4749230545001E-01  4.7018366938143E-01
49  4.8000000000000E-01  7.3630135337630E-01  5.0952209340932E-01
50  4.9000000000000E-01  6.2604095640183E-01  5.5388261391977E-01
51  5.0000000000000E-01  5.1755078937709E-01  6.0312478201098E-01
52  5.1000000000000E-01  4.1162472742713E-01  6.5702325398096E-01
53  5.2000000000000E-01  3.0900322795717E-01  7.1526906879445E-01
54  5.3000000000000E-01  2.1036663054862E-01  7.7747248232188E-01
55  5.4000000000000E-01  1.1632944243545E-01  8.4316732758748E-01
56  5.5000000000000E-01  2.7435660562162E-02  9.1181683735344E-01
57  5.6000000000000E-01 -5.5844835951346E-02  9.8282083347309E-01
58  5.7000000000000E-01 -1.3311880645671E-01  1.0555241573587E+00
59  5.8000000000000E-01 -2.0407108324654E-01  1.1292261883888E+00
60  5.9000000000000E-01 -2.6846493728701E-01  1.2031912728183E+00
61  6.0000000000000E-01 -3.2614140862608E-01  1.2766598653715E+00
62  6.1000000000000E-01 -3.7701764982859E-01  1.3488601697122E+00
63  6.2000000000000E-01 -4.2108434444785E-01  1.4190200528081E+00
64  6.3000000000000E-01 -4.5840227470475E-01  1.4863790021222E+00
65  6.4000000000000E-01 -4.8909812302989E-01  1.5501998937289E+00
66  6.5000000000000E-01 -5.1335960079067E-01  1.6097803438847E+00
67  6.6000000000000E-01 -5.3143000427365E-01  1.6644634261707E+00
68  6.7000000000000E-01 -5.4360230276486E-01  1.7136475508161E+00
69  6.8000000000000E-01 -5.5021286635263E-01  1.7567953218308E+00
70  6.9000000000000E-01 -5.5163494189354E-01  1.7934412106478E+00
71  7.0000000000000E-01 -5.4827198449996E-01  1.8231979114966E+00
72  7.1000000000000E-01 -5.4055094902662E-01  1.8457612730460E+00
73  7.2000000000000E-01 -5.2891564149196E-01  1.8609137322149E+00
74  7.3000000000000E-01 -5.1382022432813E-01  1.8685262086942E+00
75  7.4000000000000E-01 -4.9572296200123E-01  1.8685584518377E+00
76  7.5000000000000E-01 -4.7508028508444E-01  1.8610578643674E+00
77  7.6000000000000E-01 -4.5234124152104E-01  1.8461568590300E+00
78  7.7000000000000E-01 -4.2794239380619E-01  1.8240688341878E+00
79  7.8000000000000E-01 -4.0230321037477E-01  1.7950828816622E+00
80  7.9000000000000E-01 -3.7582198882937E-01  1.7595573643735E+00
81  8.0000000000000E-01 -3.4887233799428E-01  1.7179125219298E+00
82  8.1000000000000E-01 -3.2180023533925E-01  1.6706222789139E+00
83  8.2000000000000E-01 -2.9492166626549E-01  1.6182054429048E+00
84  8.3000000000000E-01 -2.6852084225069E-01  1.5612164870848E+00
85  8.4000000000000E-01 -2.4284898605118E-01  1.5002361155580E+00
86  8.5000000000000E-01 -2.1812366417408E-01  1.4358618083094E+00
87  8.6000000000000E-01 -1.9452863975180E-01  1.3686985372270E+00
88  8.7000000000000E-01 -1.7221421283972E-01  1.2993498350640E+00
89  8.8000000000000E-01 -1.5129801005481E-01  1.2284093859926E+00
90  8.9000000000000E-01 -1.3186618139162E-01  1.1564532899304E+00
91  9.0000000000000E-01 -1.1397495898425E-01  1.0840331336035E+00
92  9.1000000000000E-01 -9.7652530497501E-02  1.0116699798884E+00
93  9.2000000000000E-01 -8.2901178679270E-02  9.3984936392420E-01
94  9.3000000000000E-01 -6.9699638323688E-02  8.6901736039489E-01
95  9.4000000000000E-01 -5.8005622403742E-02  7.9957776182564E-01
96  9.5000000000000E-01 -4.7758470344576E-02  7.3189038329892E-01
97  9.6000000000000E-01 -3.8881873230314E-02  6.6627048519634E-01
98  9.7000000000000E-01 -3.1286633069769E-02  6.0298928291132E-01
99  9.8000000000000E-01 -2.4873415989804E-02  5.4227549139924E-01
100  9.9000000000000E-01 -1.9535462281773E-02  4.8431783330775E-01
101  1.0000000000000E+00 -1.5161219499983E-02  4.2926842258808E-01
102  1.0100000000000E+00 -1.1636868216381E-02  3.7724692115370E-01
103  1.0200000000000E+00 -8.8487134861267E-03  3.2834535452919E-01
104  1.0300000000000E+00 -6.6854185017006E-03  2.8263346360776E-01
105  1.0400000000000E+00 -5.0400602477460E-03  2.4016446365928E-01
106  1.0500000000000E+00 -3.8119901551031E-03  2.0098107859262E-01
107  1.0600000000000E+00 -2.9084857441035E-03  1.6512171809213E-01
108  1.0700000000000E+00 -2.2461820181606E-03  1.3262666751170E-01
109  1.0800000000000E+00 -1.7522706180588E-03  1.0354417968215E-01
110  1.0900000000000E+00 -1.3654720935988E-03  7.7936267068101E-02
111  1.1000000000000E+00 -1.0422531388021E-03  5.5859885027851E-02
112  1.1100000000000E+00 -7.8799683978569E-04  3.7226681075552E-02
113  1.1200000000000E+00 -5.6153434523616E-04  2.2222810388599E-02
114  1.1300000000000E+00 -3.4118257545645E-04  1.1023084374909E-02
115  1.1400000000000E+00 -1.4196859039376E-04  3.7131966345679E-03
116  1.1500000000000E+00 -1.5659874006832E-05  3.3059435456593E-04
117  1.1600000000000E+00  6.1518768240975E-07 -1.1530209550254E-05
118  1.1700000000000E+00  9.2616871721758E-08 -2.0789577826529E-06
119  1.18 -0. -0.
120  1.19  0.  0.
121  1.20  0.  0.
122  1.21  0.  0.
123  1.22  0.  0.
124  1.23  0.  0.
125  1.24  0.  0.
126  1.25  0.  0.
127  1.26  0.  0.
128  1.27  0.  0.
129  1.28  0.  0.
130  1.29  0.  0.
131  1.30  0.  0.
132  1.31  0.  0.
133  1.32  0.  0.
134  1.33  0.  0.
135  1.34  0.  0.
136  1.35  0.  0.
137  1.36  0.  0.
138  1.37  0.  0.
139  1.38  0.  0.
140  1.39  0.  0.
141  1.40  0.  0.
142  1.41  0.  0.
143  1.42  0.  0.
144  1.43  0.  0.
145  1.44  0.  0.
146  1.45  0.  0.
147  1.46  0.  0.
148  1.47  0.  0.
149  1.48  0.  0.
150  1.49  0.  0.
151  1.50  0.  0.
152  1.51  0.  0.
153  1.52  0.  0.
154  1.53  0.  0.
155  1.54  0.  0.
156  1.55  0.  0.
157  1.56  0.  0.
158  1.57  0.  0.
159  1.58  0.  0.
160  1.59  0.  0.
161  1.60  0.  0.
162  1.61  0.  0.
163  1.62  0.  0.
164  1.63  0.  0.
165  1.64  0.  0.