Cf    ONCVPSP-4.0.1  r_core=   1.20328   1.25474   1.10001   1.35621
98.0000     38.0000      220322    zatom,zion,pspd
8      11   3     4   600     0    pspcod,pspxc,lmax,lloc,mmax,r2well
5.99000000  5.00000000  0.00000000    rchrg fchrg qchrg
3     2     2     2     0    nproj
1     1           extension_switch
0                         5.0577608879141E+01  1.4315933666696E+01  1.9795359807547E+00
1  0.0000000000000E+00  2.5484183652225E-09 -5.6671795034546E-10 -2.9891093877854E-08
2  1.0000000000000E-02  1.3100274612751E-01 -2.8046978305872E-02  6.5942218952374E-02
3  2.0000000000000E-02  2.6144908760612E-01 -5.5729389712013E-02  1.3090408180510E-01
4  3.0000000000000E-02  3.9078438665862E-01 -8.2684820341397E-02  1.9392438578349E-01
5  4.0000000000000E-02  5.1845755217327E-01 -1.0855514540997E-01  2.5407981053227E-01
6  5.0000000000000E-02  6.4392284458303E-01 -1.3298863101950E-01  3.1050280596549E-01
7  6.0000000000000E-02  7.6664171652768E-01 -1.5564198370123E-01  3.6239823640782E-01
8  7.0000000000000E-02  8.8608469792037E-01 -1.7618232900374E-01  4.0905840065618E-01
9  8.0000000000000E-02  1.0017333314915E+00 -1.9428909985104E-01  4.4987607748096E-01
10  9.0000000000000E-02  1.1130821620290E+00 -2.0965581530270E-01  4.8435528402052E-01
11  1.0000000000000E-01  1.2196407795569E+00 -2.2199173103870E-01  5.1211948064329E-01
12  1.1000000000000E-01  1.3209359137791E+00 -2.3102334467121E-01  5.3291701014292E-01
13  1.2000000000000E-01  1.4165135744316E+00 -2.3649574209105E-01  5.4662362129650E-01
14  1.3000000000000E-01  1.5059412298885E+00 -2.3817377565302E-01  5.5324199625487E-01
15  1.4000000000000E-01  1.5888100145466E+00 -2.3584307112674E-01  5.5289827691562E-01
16  1.5000000000000E-01  1.6647369542431E+00 -2.2931086790447E-01  5.4583566592714E-01
17  1.6000000000000E-01  1.7333671982354E+00 -2.1840670571958E-01  5.3240526138156E-01
18  1.7000000000000E-01  1.7943762460377E+00 -2.0298298070521E-01  5.1305436825485E-01
19  1.8000000000000E-01  1.8474721575617E+00 -1.8291540348799E-01  4.8831261155135E-01
20  1.9000000000000E-01  1.8923977353840E+00 -1.5810340152169E-01  4.5877625289173E-01
21  2.0000000000000E-01  1.9289326683757E+00 -1.2847051629518E-01  4.2509118077225E-01
22  2.1000000000000E-01  1.9568956261520E+00 -9.3964852631976E-02  3.8793510169495E-01
23  2.2000000000000E-01  1.9761462936172E+00 -5.4559641260910E-02  3.4799950168018E-01
24  2.3000000000000E-01  1.9865873340794E+00 -1.0253976483873E-02  3.0597197252217E-01
25  2.4000000000000E-01  1.9881662678106E+00  3.8926212509242E-02  2.6251950212353E-01
26  2.5000000000000E-01  1.9808772504093E+00  9.2926905746165E-02  2.1827331162550E-01
27  2.6000000000000E-01  1.9647627318264E+00  1.5166441325633E-01  1.7381578282685E-01
28  2.7000000000000E-01  1.9399149724632E+00  2.1502345051599E-01  1.2966995750431E-01
29  2.8000000000000E-01  1.9064773874556E+00  2.8285486750478E-01  8.6292006583895E-02
30  2.9000000000000E-01  1.8646456843358E+00  3.5497305494379E-01  4.4066963612649E-02
31  3.0000000000000E-01  1.8146687529957E+00  4.3115307869887E-01  3.3078965747609E-03
32  3.1000000000000E-01  1.7568492606592E+00  5.1112762242200E-01 -3.5741441307512E-02
33  3.2000000000000E-01  1.6915438988306E+00  5.9458384793458E-01 -7.2900582798551E-02
34  3.3000000000000E-01  1.6191632244196E+00  6.8116031114324E-01 -1.0804318539040E-01
35  3.4000000000000E-01  1.5401710339490E+00  7.7044409683331E-01 -1.4108512443734E-01
36  3.5000000000000E-01  1.4550832084186E+00  8.6196835692064E-01 -1.7197035972933E-01
37  3.6000000000000E-01  1.3644659674661E+00  9.5521045214363E-01 -2.0065521140119E-01
38  3.7000000000000E-01  1.2689334753104E+00  1.0495909053893E+00 -2.2709177682910E-01
39  3.8000000000000E-01  1.1691447478287E+00  1.1444733747693E+00 -2.5121128965515E-01
40  3.9000000000000E-01  1.0657998201373E+00  1.2391658454116E+00 -2.7290826100615E-01
41  4.0000000000000E-01  9.5963514718955E-01  1.3329232203125E+00 -2.9202624811995E-01
42  4.1000000000000E-01  8.5141822596698E-01  1.4249514625286E+00 -3.0834606506297E-01
43  4.2000000000000E-01  7.4194144647116E-01  1.5144134039572E+00 -3.2157718352137E-01
44  4.3000000000000E-01  6.3201519939028E-01  1.6004362908630E+00 -3.3135296978124E-01
45  4.4000000000000E-01  5.2246029036010E-01  1.6821210844711E+00 -3.3723026944778E-01
46  4.5000000000000E-01  4.1409973338254E-01  1.7585534780457E+00 -3.3869368811947E-01
47  4.6000000000000E-01  3.0775001836721E-01  1.8288165318048E+00 -3.3516472924612E-01
48  4.7000000000000E-01  2.0421196904521E-01  1.8920047659050E+00 -3.2601574602497E-01
49  4.8000000000000E-01  1.0426132683197E-01  1.9472394916687E+00 -3.1058844944287E-01
50  4.9000000000000E-01  8.6392128248913E-03  1.9936851042869E+00 -2.8821649706905E-01
51  5.0000000000000E-01 -8.1957366610234E-02  2.0305660082488E+00 -2.5825147479231E-01
52  5.1000000000000E-01 -1.6688479572691E-01  2.0571838012757E+00 -2.2009138430724E-01
53  5.2000000000000E-01 -2.4556172634638E-01  2.0729343047185E+00 -1.7321057050463E-01
54  5.3000000000000E-01 -3.1747737397056E-01  2.0773239989393E+00 -1.1718987249986E-01
55  5.4000000000000E-01 -3.8219905342348E-01  2.0699854014396E+00 -5.1745667064043E-02
56  5.5000000000000E-01 -4.3937877992115E-01  2.0506909133408E+00  2.3243599200551E-02
57  5.6000000000000E-01 -4.8875876965912E-01  2.0193646559919E+00  1.0771481513204E-01
58  5.7000000000000E-01 -5.3017568415015E-01  1.9760918236261E+00  2.0140293853796E-01
59  5.8000000000000E-01 -5.6356347398498E-01  1.9211250900927E+00  3.0383034602585E-01
60  5.9000000000000E-01 -5.8895468996988E-01  1.8548876283039E+00  4.1430390523396E-01
61  6.0000000000000E-01 -6.0648014263438E-01  1.7779723318498E+00  5.3192059921199E-01
62  6.1000000000000E-01 -6.1636680542974E-01  1.6911368725256E+00  6.5558214193723E-01
63  6.2000000000000E-01 -6.1893387392228E-01  1.5952942907900E+00  7.8401849256588E-01
64  6.3000000000000E-01 -6.1458691542781E-01  1.4914989068148E+00  9.1581946988925E-01
65  6.4000000000000E-01 -6.0381007474895E-01  1.3809274697708E+00  1.0494727438475E+00
66  6.5000000000000E-01 -5.8715634762382E-01  1.2648556486504E+00  1.1834052825919E+00
67  6.6000000000000E-01 -5.6523600188097E-01  1.1446302306885E+00  1.3160237927909E+00
68  6.7000000000000E-01 -5.3870332723777E-01  1.0216377607180E+00  1.4457477234494E+00
69  6.8000000000000E-01 -5.0824204100060E-01  8.9727086063366E-01  1.5710259081481E+00
70  6.9000000000000E-01 -4.7454988455900E-01  7.7289415427034E-01  1.6903247757745E+00
71  7.0000000000000E-01 -4.3832323460923E-01  6.4981264337625E-01  1.8020721716514E+00
72  7.1000000000000E-01 -4.0024307361084E-01  5.2924721397578E-01  1.9045442578062E+00
73  7.2000000000000E-01 -3.6096666711457E-01  4.1233473064825E-01  1.9958866774509E+00
74  7.3000000000000E-01 -3.2112376579023E-01  3.0013988345028E-01  2.0743649118873E+00
75  7.4000000000000E-01 -2.8130939080055E-01  1.9364252232618E-01  2.1384492862684E+00
76  7.5000000000000E-01 -2.4207650241654E-01  9.3721828923946E-02  2.1868499435685E+00
77  7.6000000000000E-01 -2.0392962054103E-01  1.1427518737753E-03  2.2185465329879E+00
78  7.7000000000000E-01 -1.6731951470144E-01 -8.3455008082715E-02  2.2328118332201E+00
79  7.8000000000000E-01 -1.3263905017435E-01 -1.5956525347069E-01  2.2292286470232E+00
80  7.9000000000000E-01 -1.0022024609928E-01 -2.2682064963353E-01  2.2076995072771E+00
81  8.0000000000000E-01 -7.0332570017256E-02 -2.8499512846533E-01  2.1684489463464E+00
82  8.1000000000000E-01 -4.3182462214684E-02 -3.3400335275082E-01  2.1120182926447E+00
83  8.2000000000000E-01 -1.8914053422396E-02 -3.7389733173491E-01  2.0392531698009E+00
84  8.3000000000000E-01  2.3889883708095E-03 -4.0486034829047E-01  1.9512840741567E+00
85  8.4000000000000E-01  2.0700571235520E-02 -4.2719842130985E-01  1.8495005909921E+00
86  8.5000000000000E-01  3.6048363543310E-02 -4.4132958184384E-01  1.7355199723543E+00
87  8.6000000000000E-01  4.8509177958600E-02 -4.4777128818855E-01  1.6111509487085E+00
88  8.7000000000000E-01  5.8203696060315E-02 -4.4712633529424E-01  1.4783537166109E+00
89  8.8000000000000E-01  6.5290686054013E-02 -4.4006764662623E-01  1.3391972044533E+00
90  8.9000000000000E-01  6.9960866910631E-02 -4.2732233659582E-01  1.1958146614302E+00
91  9.0000000000000E-01  7.2430574990888E-02 -4.0965544202453E-01  1.0503587147478E+00
92  9.1000000000000E-01  7.2935383385181E-02 -3.8785370563800E-01  9.0495697865254E-01
93  9.2000000000000E-01  7.1723816480930E-02 -3.6270977587983E-01  7.6166926653281E-01
94  9.3000000000000E-01  6.9051290630832E-02 -3.3500715789625E-01  6.2244738202839E-01
95  9.4000000000000E-01  6.5174397408088E-02 -3.0550621385254E-01  4.8909836848112E-01
96  9.5000000000000E-01  6.0345629340809E-02 -2.7493146807246E-01  3.6325197981749E-01
97  9.6000000000000E-01  5.4808629833184E-02 -2.4396042536622E-01  2.4633300383453E-01
98  9.7000000000000E-01  4.8794029910576E-02 -2.1321406114429E-01  1.3953892625115E-01
99  9.8000000000000E-01  4.2515914945457E-02 -1.8324909064000E-01  4.3823272838726E-02
100  9.9000000000000E-01  3.6168945793112E-02 -1.5455207502846E-01 -4.0115179935344E-02
101  1.0000000000000E+00  2.9926139697369E-02 -1.2753537094543E-01 -1.1183729706674E-01
102  1.0100000000000E+00  2.3937300777413E-02 -1.0253488830267E-01 -1.7116267596320E-01
103  1.0200000000000E+00  1.8328073225827E-02 -7.9809575313764E-02 -2.1816318758709E-01
104  1.0300000000000E+00  1.3199578200912E-02 -5.9542516221665E-02 -2.5315132662600E-01
105  1.0400000000000E+00  8.6285839244961E-03 -4.1843494797139E-02 -2.7666384378361E-01
106  1.0500000000000E+00  4.6681499885151E-03 -2.6752852151303E-02 -2.8944122218799E-01
107  1.0600000000000E+00  1.3486805347737E-03 -1.4246448501521E-02 -2.9240363348061E-01
108  1.0700000000000E+00 -1.3206829696623E-03 -4.2415260349290E-03 -2.8662406315529E-01
109  1.0800000000000E+00 -3.3504004527284E-03  3.3967367039505E-03 -2.7329933076502E-01
110  1.0900000000000E+00 -4.7686742927212E-03  8.8481894527275E-03 -2.5371974772177E-01
111  1.1000000000000E+00 -5.6194615714741E-03  1.2330400510811E-02 -2.2923815570141E-01
112  1.1100000000000E+00 -5.9604228463615E-03  1.4091270729363E-02 -2.0123907211504E-01
113  1.1200000000000E+00 -5.8608678107746E-03  1.4401756532204E-02 -1.7110863738678E-01
114  1.1300000000000E+00 -5.3997815923167E-03  1.3548943275067E-02 -1.4020614267168E-01
115  1.1400000000000E+00 -4.6637744029206E-03  1.1829117275811E-02 -1.0983683071400E-01
116  1.1500000000000E+00 -3.7546782975514E-03  9.5649422811507E-03 -8.1269027020194E-02
117  1.1600000000000E+00 -2.7846499706480E-03  7.0926794318382E-03 -5.5698575601116E-02
118  1.1700000000000E+00 -1.8337535733322E-03  4.6552053588160E-03 -3.4050830373010E-02
119  1.1800000000000E+00 -9.9114623939021E-04  2.5021700865904E-03 -1.7153173759162E-02
120  1.1900000000000E+00 -3.5302116703286E-04  8.8483583811978E-04 -5.7142350508429E-03
121  1.2000000000000E+00 -2.8960334302326E-05  7.1957732120729E-05 -4.3851676002272E-04
122  1.2100000000000E+00  8.4529332046760E-07 -2.0914747383163E-06  1.2354915262314E-05
123  1.2200000000000E+00  2.5010437846027E-07 -6.2371877846481E-07  3.8849995495377E-06
124  1.23 -0.  0. -0.
125  1.24  0.  0.  0.
126  1.25  0.  0.  0.
127  1.26  0.  0.  0.
128  1.27  0.  0.  0.
129  1.28  0.  0.  0.
130  1.29  0.  0.  0.
131  1.30  0.  0.  0.
132  1.31  0.  0.  0.
133  1.32  0.  0.  0.
134  1.33  0.  0.  0.
135  1.34  0.  0.  0.
136  1.35  0.  0.  0.
137  1.36  0.  0.  0.
138  1.37  0.  0.  0.
139  1.38  0.  0.  0.
140  1.39  0.  0.  0.
141  1.40  0.  0.  0.
142  1.41  0.  0.  0.
143  1.42  0.  0.  0.
144  1.43  0.  0.  0.
145  1.44  0.  0.  0.
146  1.45  0.  0.  0.
147  1.46  0.  0.  0.
148  1.47  0.  0.  0.
149  1.48  0.  0.  0.
150  1.49  0.  0.  0.
151  1.50  0.  0.  0.
152  1.51  0.  0.  0.
153  1.52  0.  0.  0.
154  1.53  0.  0.  0.
155  1.54  0.  0.  0.
156  1.55  0.  0.  0.
157  1.56  0.  0.  0.
158  1.57  0.  0.  0.
159  1.58  0.  0.  0.
160  1.59  0.  0.  0.
161  1.60  0.  0.  0.
162  1.61  0.  0.  0.
163  1.62  0.  0.  0.
164  1.63  0.  0.  0.
165  1.64  0.  0.  0.
166  1.65  0.  0.  0.
167  1.66  0.  0.  0.
168  1.67  0.  0.  0.
169  1.68  0.  0.  0.
170  1.69  0.  0.  0.
171  1.70  0.  0.  0.
172  1.71  0.  0.  0.
173  1.72  0.  0.  0.
174  1.73  0.  0.  0.
175  1.74  0.  0.  0.
176  1.75  0.  0.  0.
177  1.76  0.  0.  0.
178  1.77  0.  0.  0.
179  1.78  0.  0.  0.
180  1.79  0.  0.  0.
181  1.80  0.  0.  0.
182  1.81  0.  0.  0.
183  1.82  0.  0.  0.
184  1.83  0.  0.  0.
185  1.84  0.  0.  0.
186  1.85  0.  0.  0.
187  1.86  0.  0.  0.
188  1.87  0.  0.  0.
189  1.88  0.  0.  0.
190  1.89  0.  0.  0.
191  1.90  0.  0.  0.
192  1.91  0.  0.  0.
193  1.92  0.  0.  0.
194  1.93  0.  0.  0.
195  1.94  0.  0.  0.
196  1.95  0.  0.  0.
197  1.96  0.  0.  0.
198  1.97  0.  0.  0.
199  1.98  0.  0.  0.
200  1.99  0.  0.  0.
201  2.00  0.  0.  0.
202  2.01  0.  0.  0.
203  2.02  0.  0.  0.
204  2.03  0.  0.  0.
205  2.04  0.  0.  0.
206  2.05  0.  0.  0.
207  2.06  0.  0.  0.
208  2.07  0.  0.  0.
209  2.08  0.  0.  0.
210  2.09  0.  0.  0.
211  2.10  0.  0.  0.
212  2.11  0.  0.  0.
213  2.12  0.  0.  0.
214  2.13  0.  0.  0.
215  2.14  0.  0.  0.
216  2.15  0.  0.  0.
217  2.16  0.  0.  0.
218  2.17  0.  0.  0.
219  2.18  0.  0.  0.
220  2.19  0.  0.  0.
221  2.20  0.  0.  0.
222  2.21  0.  0.  0.
223  2.22  0.  0.  0.
224  2.23  0.  0.  0.
225  2.24  0.  0.  0.
226  2.25  0.  0.  0.
227  2.26  0.  0.  0.
228  2.27  0.  0.  0.
229  2.28  0.  0.  0.
230  2.29  0.  0.  0.
231  2.30  0.  0.  0.
232  2.31  0.  0.  0.
233  2.32  0.  0.  0.
234  2.33  0.  0.  0.
235  2.34  0.  0.  0.
236  2.35  0.  0.  0.
237  2.36  0.  0.  0.
238  2.37  0.  0.  0.
239  2.38  0.  0.  0.
240  2.39  0.  0.  0.
241  2.40  0.  0.  0.
242  2.41  0.  0.  0.
243  2.42  0.  0.  0.
244  2.43  0.  0.  0.
245  2.44  0.  0.  0.
246  2.45  0.  0.  0.
247  2.46  0.  0.  0.
248  2.47  0.  0.  0.
249  2.48  0.  0.  0.
250  2.49  0.  0.  0.
251  2.50  0.  0.  0.
252  2.51  0.  0.  0.
253  2.52  0.  0.  0.
254  2.53  0.  0.  0.
255  2.54  0.  0.  0.
256  2.55  0.  0.  0.
257  2.56  0.  0.  0.
258  2.57  0.  0.  0.
259  2.58  0.  0.  0.
260  2.59  0.  0.  0.
261  2.60  0.  0.  0.
262  2.61  0.  0.  0.
263  2.62  0.  0.  0.
264  2.63  0.  0.  0.
265  2.64  0.  0.  0.
266  2.65  0.  0.  0.
267  2.66  0.  0.  0.
268  2.67  0.  0.  0.
269  2.68  0.  0.  0.
270  2.69  0.  0.  0.
271  2.70  0.  0.  0.
272  2.71  0.  0.  0.
273  2.72  0.  0.  0.
274  2.73  0.  0.  0.
275  2.74  0.  0.  0.
276  2.75  0.  0.  0.
277  2.76  0.  0.  0.
278  2.77  0.  0.  0.
279  2.78  0.  0.  0.
280  2.79  0.  0.  0.
281  2.80  0.  0.  0.
282  2.81  0.  0.  0.
283  2.82  0.  0.  0.
284  2.83  0.  0.  0.
285  2.84  0.  0.  0.
286  2.85  0.  0.  0.
287  2.86  0.  0.  0.
288  2.87  0.  0.  0.
289  2.88  0.  0.  0.
290  2.89  0.  0.  0.
291  2.90  0.  0.  0.
292  2.91  0.  0.  0.
293  2.92  0.  0.  0.
294  2.93  0.  0.  0.
295  2.94  0.  0.  0.
296  2.95  0.  0.  0.
297  2.96  0.  0.  0.
298  2.97  0.  0.  0.
299  2.98  0.  0.  0.
300  2.99  0.  0.  0.
301  3.00  0.  0.  0.
302  3.01  0.  0.  0.
303  3.02  0.  0.  0.
304  3.03  0.  0.  0.
305  3.04  0.  0.  0.
306  3.05  0.  0.  0.
307  3.06  0.  0.  0.
308  3.07  0.  0.  0.
309  3.08  0.  0.  0.
310  3.09  0.  0.  0.
311  3.10  0.  0.  0.
312  3.11  0.  0.  0.
313  3.12  0.  0.  0.
314  3.13  0.  0.  0.
315  3.14  0.  0.  0.
316  3.15  0.  0.  0.
317  3.16  0.  0.  0.
318  3.17  0.  0.  0.
319  3.18  0.  0.  0.
320  3.19  0.  0.  0.
321  3.20  0.  0.  0.
322  3.21  0.  0.  0.
323  3.22  0.  0.  0.
324  3.23  0.  0.  0.
325  3.24  0.  0.  0.
326  3.25  0.  0.  0.
327  3.26  0.  0.  0.
328  3.27  0.  0.  0.
329  3.28  0.  0.  0.
330  3.29  0.  0.  0.
331  3.30  0.  0.  0.
332  3.31  0.  0.  0.
333  3.32  0.  0.  0.
334  3.33  0.  0.  0.
335  3.34  0.  0.  0.
336  3.35  0.  0.  0.
337  3.36  0.  0.  0.
338  3.37  0.  0.  0.
339  3.38  0.  0.  0.
340  3.39  0.  0.  0.
341  3.40  0.  0.  0.
342  3.41  0.  0.  0.
343  3.42  0.  0.  0.
344  3.43  0.  0.  0.
345  3.44  0.  0.  0.
346  3.45  0.  0.  0.
347  3.46  0.  0.  0.
348  3.47  0.  0.  0.
349  3.48  0.  0.  0.
350  3.49  0.  0.  0.
351  3.50  0.  0.  0.
352  3.51  0.  0.  0.
353  3.52  0.  0.  0.
354  3.53  0.  0.  0.
355  3.54  0.  0.  0.
356  3.55  0.  0.  0.
357  3.56  0.  0.  0.
358  3.57  0.  0.  0.
359  3.58  0.  0.  0.
360  3.59  0.  0.  0.
361  3.60  0.  0.  0.
362  3.61  0.  0.  0.
363  3.62  0.  0.  0.
364  3.63  0.  0.  0.
365  3.64  0.  0.  0.
366  3.65  0.  0.  0.
367  3.66  0.  0.  0.
368  3.67  0.  0.  0.
369  3.68  0.  0.  0.
370  3.69  0.  0.  0.
371  3.70  0.  0.  0.
372  3.71  0.  0.  0.
373  3.72  0.  0.  0.
374  3.73  0.  0.  0.
375  3.74  0.  0.  0.
376  3.75  0.  0.  0.
377  3.76  0.  0.  0.
378  3.77  0.  0.  0.
379  3.78  0.  0.  0.
380  3.79  0.  0.  0.
381  3.80  0.  0.  0.
382  3.81  0.  0.  0.
383  3.82  0.  0.  0.
384  3.83  0.  0.  0.
385  3.84  0.  0.  0.
386  3.85  0.  0.  0.
387  3.86  0.  0.  0.
388  3.87  0.  0.  0.
389  3.88  0.  0.  0.
390  3.89  0.  0.  0.
391  3.90  0.  0.  0.
392  3.91  0.  0.  0.
393  3.92  0.  0.  0.
394  3.93  0.  0.  0.
395  3.94  0.  0.  0.
396  3.95  0.  0.  0.
397  3.96  0.  0.  0.
398  3.97  0.  0.  0.
399  3.98  0.  0.  0.
400  3.99  0.  0.  0.
401  4.00  0.  0.  0.
402  4.01  0.  0.  0.
403  4.02  0.  0.  0.
404  4.03  0.  0.  0.
405  4.04  0.  0.  0.
406  4.05  0.  0.  0.
407  4.06  0.  0.  0.
408  4.07  0.  0.  0.
409  4.08  0.  0.  0.
410  4.09  0.  0.  0.
411  4.10  0.  0.  0.
412  4.11  0.  0.  0.
413  4.12  0.  0.  0.
414  4.13  0.  0.  0.
415  4.14  0.  0.  0.
416  4.15  0.  0.  0.
417  4.16  0.  0.  0.
418  4.17  0.  0.  0.
419  4.18  0.  0.  0.
420  4.19  0.  0.  0.
421  4.20  0.  0.  0.
422  4.21  0.  0.  0.
423  4.22  0.  0.  0.
424  4.23  0.  0.  0.
425  4.24  0.  0.  0.
426  4.25  0.  0.  0.
427  4.26  0.  0.  0.
428  4.27  0.  0.  0.
429  4.28  0.  0.  0.
430  4.29  0.  0.  0.
431  4.30  0.  0.  0.
432  4.31  0.  0.  0.
433  4.32  0.  0.  0.
434  4.33  0.  0.  0.
435  4.34  0.  0.  0.
436  4.35  0.  0.  0.
437  4.36  0.  0.  0.
438  4.37  0.  0.  0.
439  4.38  0.  0.  0.
440  4.39  0.  0.  0.
441  4.40  0.  0.  0.
442  4.41  0.  0.  0.
443  4.42  0.  0.  0.
444  4.43  0.  0.  0.
445  4.44  0.  0.  0.
446  4.45  0.  0.  0.
447  4.46  0.  0.  0.
448  4.47  0.  0.  0.
449  4.48  0.  0.  0.
450  4.49  0.  0.  0.
451  4.50  0.  0.  0.
452  4.51  0.  0.  0.
453  4.52  0.  0.  0.
454  4.53  0.  0.  0.
455  4.54  0.  0.  0.
456  4.55  0.  0.  0.
457  4.56  0.  0.  0.
458  4.57  0.  0.  0.
459  4.58  0.  0.  0.
460  4.59  0.  0.  0.
461  4.60  0.  0.  0.
462  4.61  0.  0.  0.
463  4.62  0.  0.  0.
464  4.63  0.  0.  0.
465  4.64  0.  0.  0.
466  4.65  0.  0.  0.
467  4.66  0.  0.  0.
468  4.67  0.  0.  0.
469  4.68  0.  0.  0.
470  4.69  0.  0.  0.
471  4.70  0.  0.  0.
472  4.71  0.  0.  0.
473  4.72  0.  0.  0.
474  4.73  0.  0.  0.
475  4.74  0.  0.  0.
476  4.75  0.  0.  0.
477  4.76  0.  0.  0.
478  4.77  0.  0.  0.
479  4.78  0.  0.  0.
480  4.79  0.  0.  0.
481  4.80  0.  0.  0.
482  4.81  0.  0.  0.
483  4.82  0.  0.  0.
484  4.83  0.  0.  0.
485  4.84  0.  0.  0.
486  4.85  0.  0.  0.
487  4.86  0.  0.  0.
488  4.87  0.  0.  0.
489  4.88  0.  0.  0.
490  4.89  0.  0.  0.
491  4.90  0.  0.  0.
492  4.91  0.  0.  0.
493  4.92  0.  0.  0.
494  4.93  0.  0.  0.
495  4.94  0.  0.  0.
496  4.95  0.  0.  0.
497  4.96  0.  0.  0.
498  4.97  0.  0.  0.
499  4.98  0.  0.  0.
500  4.99  0.  0.  0.
501  5.00  0.  0.  0.
502  5.01  0.  0.  0.
503  5.02  0.  0.  0.
504  5.03  0.  0.  0.
505  5.04  0.  0.  0.
506  5.05  0.  0.  0.
507  5.06  0.  0.  0.
508  5.07  0.  0.  0.
509  5.08  0.  0.  0.
510  5.09  0.  0.  0.
511  5.10  0.  0.  0.
512  5.11  0.  0.  0.
513  5.12  0.  0.  0.
514  5.13  0.  0.  0.
515  5.14  0.  0.  0.
516  5.15  0.  0.  0.
517  5.16  0.  0.  0.
518  5.17  0.  0.  0.
519  5.18  0.  0.  0.
520  5.19  0.  0.  0.
521  5.20  0.  0.  0.
522  5.21  0.  0.  0.
523  5.22  0.  0.  0.
524  5.23  0.  0.  0.
525  5.24  0.  0.  0.
526  5.25  0.  0.  0.
527  5.26  0.  0.  0.
528  5.27  0.  0.  0.
529  5.28  0.  0.  0.
530  5.29  0.  0.  0.
531  5.30  0.  0.  0.
532  5.31  0.  0.  0.
533  5.32  0.  0.  0.
534  5.33  0.  0.  0.
535  5.34  0.  0.  0.
536  5.35  0.  0.  0.
537  5.36  0.  0.  0.
538  5.37  0.  0.  0.
539  5.38  0.  0.  0.
540  5.39  0.  0.  0.
541  5.40  0.  0.  0.
542  5.41  0.  0.  0.
543  5.42  0.  0.  0.
544  5.43  0.  0.  0.
545  5.44  0.  0.  0.
546  5.45  0.  0.  0.
547  5.46  0.  0.  0.
548  5.47  0.  0.  0.
549  5.48  0.  0.  0.
550  5.49  0.  0.  0.
551  5.50  0.  0.  0.
552  5.51  0.  0.  0.
553  5.52  0.  0.  0.
554  5.53  0.  0.  0.
555  5.54  0.  0.  0.
556  5.55  0.  0.  0.
557  5.56  0.  0.  0.
558  5.57  0.  0.  0.
559  5.58  0.  0.  0.
560  5.59  0.  0.  0.
561  5.60  0.  0.  0.
562  5.61  0.  0.  0.
563  5.62  0.  0.  0.
564  5.63  0.  0.  0.
565  5.64  0.  0.  0.
566  5.65  0.  0.  0.
567  5.66  0.  0.  0.
568  5.67  0.  0.  0.
569  5.68  0.  0.  0.
570  5.69  0.  0.  0.
571  5.70  0.  0.  0.
572  5.71  0.  0.  0.
573  5.72  0.  0.  0.
574  5.73  0.  0.  0.
575  5.74  0.  0.  0.
576  5.75  0.  0.  0.
577  5.76  0.  0.  0.
578  5.77  0.  0.  0.
579  5.78  0.  0.  0.
580  5.79  0.  0.  0.
581  5.80  0.  0.  0.
582  5.81  0.  0.  0.
583  5.82  0.  0.  0.
584  5.83  0.  0.  0.
585  5.84  0.  0.  0.
586  5.85  0.  0.  0.
587  5.86  0.  0.  0.
588  5.87  0.  0.  0.
589  5.88  0.  0.  0.
590  5.89  0.  0.  0.
591  5.90  0.  0.  0.
592  5.91  0.  0.  0.
593  5.92  0.  0.  0.
594  5.93  0.  0.  0.
595  5.94  0.  0.  0.
596  5.95  0.  0.  0.
597  5.96  0.  0.  0.
598  5.97  0.  0.  0.
599  5.98  0.  0.  0.
600  5.99  0.  0.  0.
1                         2.9814310516040E+01  4.6508734591859E+00
1  0.0000000000000E+00  6.2202777928455E-09 -2.2176147029818E-10
2  1.0000000000000E-02  4.4784432095478E-03 -2.1252382975642E-03
3  2.0000000000000E-02  1.7872656287116E-02 -8.4721593976284E-03
4  3.0000000000000E-02  4.0059670813538E-02 -1.8954606948894E-02
5  4.0000000000000E-02  7.0835806933358E-02 -3.3429737427059E-02
6  5.0000000000000E-02  1.0991856319376E-01 -5.1699146745577E-02
7  6.0000000000000E-02  1.5694923954066E-01 -7.3510449361102E-02
8  7.0000000000000E-02  2.1149627086321E-01 -9.8559311286522E-02
9  8.0000000000000E-02  2.7305924225770E-01 -1.2649193820279E-01
10  9.0000000000000E-02  3.4107355113627E-01 -1.5690801917100E-01
11  1.0000000000000E-01  4.1491567546903E-01 -1.8936412518803E-01
12  1.1000000000000E-01  4.9390900185289E-01 -2.2337755990698E-01
13  1.2000000000000E-01  5.7733016177669E-01 -2.5843065717229E-01
14  1.3000000000000E-01  6.6441581943157E-01 -2.9397551652483E-01
15  1.4000000000000E-01  7.5436984972714E-01 -3.2943916346194E-01
16  1.5000000000000E-01  8.4637084085075E-01 -3.6422911596015E-01
17  1.6000000000000E-01  9.3957985178298E-01 -3.9773933258552E-01
18  1.7000000000000E-01  1.0331483516957E+00 -4.2935651046447E-01
19  1.8000000000000E-01  1.1262262651530E+00 -4.5846669354489E-01
20  1.9000000000000E-01  1.2179700445589E+00 -4.8446214306532E-01
21  2.0000000000000E-01  1.3075506894048E+00 -5.0674841314199E-01
22  2.1000000000000E-01  1.3941616306230E+00 -5.2475156509842E-01
23  2.2000000000000E-01  1.4770263978257E+00 -5.3792544486827E-01
24  2.3000000000000E-01  1.5554059874621E+00 -5.4575893881089E-01
25  2.4000000000000E-01  1.6286058510452E+00 -5.4778311493733E-01
26  2.5000000000000E-01  1.6959824246591E+00 -5.4357814922977E-01
27  2.6000000000000E-01  1.7569491240204E+00 -5.3277993083768E-01
28  2.7000000000000E-01  1.8109817335128E+00 -5.1508623584246E-01
29  2.8000000000000E-01  1.8576231228893E+00 -4.9026235737294E-01
30  2.9000000000000E-01  1.8964872317798E+00 -4.5814608046638E-01
31  3.0000000000000E-01  1.9272622697734E+00 -4.1865189349135E-01
32  3.1000000000000E-01  1.9497130886547E+00 -3.7177433439147E-01
33  3.2000000000000E-01  1.9636826933218E+00 -3.1759037959459E-01
34  3.3000000000000E-01  1.9690928689194E+00 -2.5626079617280E-01
35  3.4000000000000E-01  1.9659439136790E+00 -1.8803039362309E-01
36  3.5000000000000E-01  1.9543134796988E+00 -1.1322713022432E-01
37  3.6000000000000E-01  1.9343545372277E+00 -3.2260049928241E-02
38  3.7000000000000E-01  1.9062924916941E+00  5.4383951360321E-02
39  3.8000000000000E-01  1.8704214964520E+00  1.4614450712274E-01
40  3.9000000000000E-01  1.8271000176907E+00  2.4239326159530E-01
41  4.0000000000000E-01  1.7767457208042E+00  3.4244037939120E-01
42  4.1000000000000E-01  1.7198297593854E+00  4.4554198877671E-01
43  4.2000000000000E-01  1.6568705584837E+00  5.5090844352641E-01
44  4.3000000000000E-01  1.5884271924814E+00  6.5771327113721E-01
45  4.4000000000000E-01  1.5150924645081E+00  7.6510266229380E-01
46  4.5000000000000E-01  1.4374857983866E+00  8.7220534867051E-01
47  4.6000000000000E-01  1.3562460553975E+00  9.7814271408300E-01
48  4.7000000000000E-01  1.2720243864146E+00  1.0820389880932E+00
49  4.8000000000000E-01  1.1854772250772E+00  1.1830313815581E+00
50  4.9000000000000E-01  1.0972595195630E+00  1.2802800400715E+00
51  5.0000000000000E-01  1.0080182893176E+00  1.3729777131336E+00
52  5.1000000000000E-01  9.1838657899249E-01  1.4603590630564E+00
53  5.2000000000000E-01  8.2897786525166E-01  1.5417095664032E+00
54  5.3000000000000E-01  7.4038095359852E-01  1.6163739898706E+00
55  5.4000000000000E-01  6.5315538272061E-01  1.6837644490326E+00
56  5.5000000000000E-01  5.6782733404225E-01  1.7433680786200E+00
57  5.6000000000000E-01  4.8488602542189E-01  1.7947543526490E+00
58  5.7000000000000E-01  4.0478055168311E-01  1.8375820865653E+00
59  5.8000000000000E-01  3.2791712262041E-01  1.8716061256909E+00
60  5.9000000000000E-01  2.5465664322252E-01  1.8966836678512E+00
61  6.0000000000000E-01  1.8531258331476E-01  1.9127800754856E+00
62  6.1000000000000E-01  1.2014909710963E-01  1.9199738952897E+00
63  6.2000000000000E-01  5.9379380007465E-02  1.9184606121268E+00
64  6.3000000000000E-01  3.1642934087593E-03  1.9085544082829E+00
65  6.4000000000000E-01 -4.8388648446028E-02  1.8906868679586E+00
66  6.5000000000000E-01 -9.5225748977968E-02  1.8654011480956E+00
67  6.6000000000000E-01 -1.3734676271937E-01  1.8333396172451E+00
68  6.7000000000000E-01 -1.7480325236942E-01  1.7952223302610E+00
69  6.8000000000000E-01 -2.0769504971551E-01  1.7518129434184E+00
70  6.9000000000000E-01 -2.3616398028929E-01  1.7038677661700E+00
71  7.0000000000000E-01 -2.6038374832183E-01  1.6520626067030E+00
72  7.1000000000000E-01 -2.8054489107512E-01  1.5968961004634E+00
73  7.2000000000000E-01 -2.9684283443864E-01  1.5386948600471E+00
74  7.3000000000000E-01 -3.0947918870727E-01  1.4777593947884E+00
75  7.4000000000000E-01 -3.1866152194432E-01  1.4143929422810E+00
76  7.5000000000000E-01 -3.2460197830364E-01  1.3488999769606E+00
77  7.6000000000000E-01 -3.2751603205633E-01  1.2815851445552E+00
78  7.7000000000000E-01 -3.2762137648583E-01  1.2127526105220E+00
79  7.8000000000000E-01 -3.2513693908247E-01  1.1427057527750E+00
80  7.9000000000000E-01 -3.2028200969662E-01  1.0717471218065E+00
81  8.0000000000000E-01 -3.1327546467170E-01  1.0001785849634E+00
82  8.1000000000000E-01 -3.0433506729463E-01  9.2830156658495E-01
83  8.2000000000000E-01 -2.9367682348043E-01  8.5641729516558E-01
84  8.3000000000000E-01 -2.8151437117252E-01  7.8482697042769E-01
85  8.4000000000000E-01 -2.6805838251045E-01  7.1383176795595E-01
86  8.5000000000000E-01 -2.5351595923152E-01  6.4373260617567E-01
87  8.6000000000000E-01 -2.3809000481853E-01  5.7482961531167E-01
88  8.7000000000000E-01 -2.2197855736481E-01  5.0742124417287E-01
89  8.8000000000000E-01 -2.0537407609688E-01  4.4180298905713E-01
90  8.9000000000000E-01 -1.8846267187004E-01  3.7826570248300E-01
91  9.0000000000000E-01 -1.7142328202259E-01  3.1709349252513E-01
92  9.1000000000000E-01 -1.5442679172699E-01  2.5856122325805E-01
93  9.2000000000000E-01 -1.3763510958587E-01  2.0293165091972E-01
94  9.3000000000000E-01 -1.2120020963340E-01  1.5045224727868E-01
95  9.4000000000000E-01 -1.0526315616317E-01  1.0135177835807E-01
96  9.5000000000000E-01 -8.9953131609032E-02  5.5836721619414E-02
97  9.6000000000000E-01 -7.5386490885361E-02  1.4087617257963E-02
98  9.7000000000000E-01 -6.1665868082261E-02 -2.3744540743583E-02
99  9.8000000000000E-01 -4.8879362952450E-02 -5.7541761885830E-02
100  9.9000000000000E-01 -3.7099835631119E-02 -8.7222248133267E-02
101  1.0000000000000E+00 -2.6384337068339E-02 -1.1274320191660E-01
102  1.0100000000000E+00 -1.6773702552198E-02 -1.3410313896174E-01
103  1.0200000000000E+00 -8.2923322553709E-03 -1.5134360569167E-01
104  1.0300000000000E+00 -9.4818046916712E-04 -1.6455020797680E-01
105  1.0400000000000E+00  5.2670292005558E-03 -1.7385287456376E-01
106  1.0500000000000E+00  1.0377350031610E-02 -1.7942529541994E-01
107  1.0600000000000E+00  1.4421912520996E-02 -1.8148349520189E-01
108  1.0700000000000E+00  1.7453977410882E-02 -1.8028352362075E-01
109  1.0800000000000E+00  1.9539746102563E-02 -1.7611826741918E-01
110  1.0900000000000E+00  2.0756939396046E-02 -1.6931341202363E-01
111  1.1000000000000E+00  2.1193161720104E-02 -1.6022260436284E-01
112  1.1100000000000E+00  2.0944073958126E-02 -1.4922189076441E-01
113  1.1200000000000E+00  2.0111403565218E-02 -1.3670352508025E-01
114  1.1300000000000E+00  1.8800825643642E-02 -1.2306926120445E-01
115  1.1400000000000E+00  1.7119752913273E-02 -1.0872326063043E-01
116  1.1500000000000E+00  1.5175075939400E-02 -9.4064759138375E-02
117  1.1600000000000E+00  1.3070897409954E-02 -7.9480646481744E-02
118  1.1700000000000E+00  1.0906308453752E-02 -6.5338129871405E-02
119  1.1800000000000E+00  8.7732222070746E-03 -5.1977525930128E-02
120  1.1900000000000E+00  6.7544549008691E-03 -3.9705906885636E-02
121  1.2000000000000E+00  4.9164059038733E-03 -2.8769494286390E-02
122  1.2100000000000E+00  3.3124927397746E-03 -1.9367016221604E-02
123  1.2200000000000E+00  1.9960066430484E-03 -1.1701806210523E-02
124  1.2300000000000E+00  1.0024164630556E-03 -5.9142692185393E-03
125  1.2400000000000E+00  3.4899732300802E-04 -2.0801271331073E-03