Cf    ONCVPSP-4.0.1  r_core=   1.15394   1.15394   1.35621   1.35621
     98.0000     38.0000      211206    zatom,zion,pspd
     8      11   3     4   600     0    pspcod,pspxc,lmax,lloc,mmax,r2well
  5.99000000  5.00000000  0.00000000    rchrg fchrg qchrg
     3     2     2     2     0    nproj
     1     1           extension_switch
   0                         4.1941358912431E+01  1.7671203058194E+00 -1.0274592021231E+00
     1  0.0000000000000E+00 -8.0775262034649E-09  8.4284720092143E-08 -1.3863651046608E-08
     2  1.0000000000000E-02  1.6257125511487E-01 -9.3218717593042E-02  1.5424746811500E-02
     3  2.0000000000000E-02  3.2414155158825E-01 -1.8500475758194E-01  3.0759482680788E-02
     4  3.0000000000000E-02  4.8371772483043E-01 -2.7394785800401E-01  4.5915648760712E-02
     5  4.0000000000000E-02  6.4032211189481E-01 -3.5868199871601E-01  6.0807534014747E-02
     6  5.0000000000000E-02  7.9300008841822E-01 -4.3790607228648E-01  7.5353562227520E-02
     7  6.0000000000000E-02  9.4082735515530E-01 -5.1040288000503E-01  8.9477425849570E-02
     8  7.0000000000000E-02  1.0829169007538E+00 -5.7505600015570E-01  1.0310903341869E-01
     9  8.0000000000000E-02  1.2184255754947E+00 -6.3086415998589E-01  1.1618525116383E-01
    10  9.0000000000000E-02  1.3465602201098E+00 -6.7695284084563E-01  1.2865043506722E-01
    11  1.0000000000000E-01  1.4665833040643E+00 -7.1258295339334E-01  1.4045676616050E-01
    12  1.1000000000000E-01  1.5778180383996E+00 -7.3715653173224E-01  1.5156441810005E-01
    13  1.2000000000000E-01  1.6796529388891E+00 -7.5021950683563E-01  1.6194160102895E-01
    14  1.3000000000000E-01  1.7715458254030E+00 -7.5146172560463E-01  1.7156453833911E-01
    15  1.4000000000000E-01  1.8530272525739E+00 -7.4071447760116E-01  1.8041744224558E-01
    16  1.5000000000000E-01  1.9237033747109E+00 -7.1794587258825E-01  1.8849255926986E-01
    17  1.6000000000000E-01  1.9832582541198E+00 -6.8325447480688E-01  1.9579035718470E-01
    18  1.7000000000000E-01  2.0314556263252E+00 -6.3686164156995E-01  2.0231992031716E-01
    19  1.8000000000000E-01  2.0681401380353E+00 -5.7910303239908E-01  2.0809961023150E-01
    20  1.9000000000000E-01  2.0932380740267E+00 -5.1041974971329E-01  2.1315803387170E-01
    21  2.0000000000000E-01  2.1067575875603E+00 -4.3134954332909E-01  2.1753534170041E-01
    22  2.1000000000000E-01  2.1087884456734E+00 -3.4251846011125E-01  2.2128485493955E-01
    23  2.2000000000000E-01  2.0995012960484E+00 -2.4463324953729E-01  2.2447499469511E-01
    24  2.3000000000000E-01  2.0791464565283E+00 -1.3847474911387E-01  2.2719145772456E-01
    25  2.4000000000000E-01  2.0480522222218E+00 -2.4892374810445E-02  2.2953955526016E-01
    26  2.5000000000000E-01  2.0066226790328E+00  9.5200264126992E-02  2.3164660411905E-01
    27  2.6000000000000E-01  1.9553350069157E+00  2.2082871410398E-01  2.3366423484148E-01
    28  2.7000000000000E-01  1.8947362517602E+00  3.5096018154204E-01  2.3577046132008E-01
    29  2.8000000000000E-01  1.8254395420613E+00  4.8450547854187E-01  2.3817134172660E-01
    30  2.9000000000000E-01  1.7481197259091E+00  6.2032077527130E-01  2.4110205274998E-01
    31  3.0000000000000E-01  1.6635084057224E+00  7.5720958478584E-01  2.4482719925114E-01
    32  3.1000000000000E-01  1.5723883528325E+00  8.9392544313654E-01  2.4964019012174E-01
    33  3.2000000000000E-01  1.4755872916543E+00  1.0291757587502E+00  2.5586152877456E-01
    34  3.3000000000000E-01  1.3739710537766E+00  1.1616272884245E+00  2.6383589327930E-01
    35  3.4000000000000E-01  1.2684361157284E+00  1.2899136523896E+00  2.7392791626709E-01
    36  3.5000000000000E-01  1.1599015501455E+00  1.4126452286178E+00  2.8651661752297E-01
    37  3.6000000000000E-01  1.0493004381375E+00  1.5284216690380E+00  3.0198849145307E-01
    38  3.7000000000000E-01  9.3757081026422E-01  1.6358471610444E+00  3.2072930574215E-01
    39  3.8000000000000E-01  8.2564620398350E-01  1.7335484212423E+00  3.4311472461346E-01
    40  3.9000000000000E-01  7.1444594592673E-01  1.8201952604122E+00  3.6949992798485E-01
    41  4.0000000000000E-01  6.0486528705319E-01  1.8945234055682E+00  4.0020845415865E-01
    42  4.1000000000000E-01  4.9776553671650E-01  1.9553591136765E+00  4.3552054605690E-01
    43  4.2000000000000E-01  3.9396435706546E-01  2.0016449692804E+00  4.7566132700092E-01
    44  4.3000000000000E-01  2.9422639114263E-01  2.0324661319894E+00  5.2078916935289E-01
    45  4.4000000000000E-01  1.9925440575762E-01  2.0470761963310E+00  5.7098464588227E-01
    46  4.5000000000000E-01  1.0968113304792E-01  2.0449217517428E+00  6.2624046774675E-01
    47  4.6000000000000E-01  2.6061992076209E-02  2.0256646896530E+00  6.8645281308587E-01
    48  4.7000000000000E-01 -5.1131136472001E-02  1.9892013013238E+00  7.5141443555197E-01
    49  4.8000000000000E-01 -1.2151492357358E-01  1.9356772468338E+00  8.2080991226500E-01
    50  4.9000000000000E-01 -1.8479825413854E-01  1.8654975529223E+00  8.9421334590253E-01
    51  5.0000000000000E-01 -2.4078442465193E-01  1.7793309144078E+00  9.7108877673604E-01
    52  5.1000000000000E-01 -2.8937179289190E-01  1.6781077278673E+00  1.0507934887784E+00
    53  5.2000000000000E-01 -3.3055283093067E-01  1.5630114727080E+00  1.1325843117967E+00
    54  5.3000000000000E-01 -3.6441157038242E-01  1.4354632678466E+00  1.2156269301982E+00
    55  5.4000000000000E-01 -3.9111946876305E-01  1.2970996644997E+00  1.2990081136188E+00
    56  5.5000000000000E-01 -4.1092976664120E-01  1.1497439787127E+00  1.3817506856552E+00
    57  5.6000000000000E-01 -4.2417044567078E-01  9.9537171197806E-01  1.4628309499989E+00
    58  5.7000000000000E-01 -4.3123593623123E-01  8.3607084489679E-01  1.5411982008280E+00
    59  5.8000000000000E-01 -4.3257775892168E-01  6.7399800766020E-01  1.6157958601479E+00
    60  5.9000000000000E-01 -4.2869431525743E-01  5.1133172270973E-01  1.6855837122040E+00
    61  6.0000000000000E-01 -4.2012006842489E-01  3.5022407062670E-01  1.7495606471288E+00
    62  6.1000000000000E-01 -4.0741437384035E-01  1.9275224254340E-01  1.8067872852319E+00
    63  6.2000000000000E-01 -3.9115023070565E-01  4.0871505007549E-02  1.8564078318494E+00
    64  6.3000000000000E-01 -3.7190322917534E-01 -1.0362888812961E-01  1.8976705118847E+00
    65  6.4000000000000E-01 -3.5024096282160E-01 -2.3916535006800E-01  1.9299459538127E+00
    66  6.5000000000000E-01 -3.2671316276918E-01 -3.6439379958499E-01  1.9527429349844E+00
    67  6.6000000000000E-01 -3.0184278841752E-01 -4.7823646138825E-01  1.9657209628051E+00
    68  6.7000000000000E-01 -2.7611828061030E-01 -5.7990061678653E-01  1.9686992482425E+00
    69  6.8000000000000E-01 -2.4998714725928E-01 -6.6888854914872E-01  1.9616617269710E+00
    70  6.9000000000000E-01 -2.2385100982947E-01 -7.4499822194770E-01  1.9447578964275E+00
    71  7.0000000000000E-01 -1.9806219301832E-01 -8.0831454839427E-01  1.9182993607792E+00
    72  7.1000000000000E-01 -1.7292189083834E-01 -8.5919145013781E-01  1.8827521065103E+00
    73  7.2000000000000E-01 -1.4867989170918E-01 -8.9822524658340E-01  1.8387246649228E+00
    74  7.3000000000000E-01 -1.2553579469588E-01 -9.2622025403519E-01  1.7869524501270E+00
    75  7.4000000000000E-01 -1.0364160034748E-01 -9.4414779288903E-01  1.7282786878086E+00
    76  7.5000000000000E-01 -8.3105514292414E-02 -9.5310008964269E-01  1.6636324671370E+00
    77  7.6000000000000E-01 -6.3996761348332E-02 -9.5424080743905E-01  1.5940045517924E+00
    78  7.7000000000000E-01 -4.6351173793772E-02 -9.4875413405022E-01  1.5204216728035E+00
    79  7.8000000000000E-01 -3.0177290829627E-02 -9.3779449093931E-01  1.4439200927561E+00
    80  7.9000000000000E-01 -1.5462688151844E-02 -9.2243899396799E-01  1.3655192755494E+00
    81  8.0000000000000E-01 -2.1802477558613E-03 -9.0364478988340E-01  1.2861965164385E+00
    82  8.1000000000000E-01  9.7059208177059E-03 -8.8221330888378E-01  1.2068633823807E+00
    83  8.2000000000000E-01  2.0235185244667E-02 -8.5876330995777E-01  1.1283447820750E+00
    84  8.3000000000000E-01  2.9445976861791E-02 -8.3371435126432E-01  1.0513614284028E+00
    85  8.4000000000000E-01  3.7372482251728E-02 -8.0728199266425E-01  9.7651637353496E-01
    86  8.5000000000000E-01  4.4042620862553E-02 -7.7948563245489E-01  9.0428618934717E-01
    87  8.6000000000000E-01  4.9477436816319E-02 -7.5016939656831E-01  8.3501723372770E-01
    88  8.7000000000000E-01  5.3691970311044E-02 -7.1903593691414E-01  7.6892728757316E-01
    89  8.8000000000000E-01  5.6697601372686E-02 -6.8569235646850E-01  7.0611266829757E-01
    90  8.9000000000000E-01  5.8505776143956E-02 -6.4970676110528E-01  6.4656072366110E-01
    91  9.0000000000000E-01  5.9132933185490E-02 -6.1067313920748E-01  5.9016738424229E-01
    92  9.1000000000000E-01  5.8606343919891E-02 -5.6828138455572E-01  5.3675920275014E-01
    93  9.2000000000000E-01  5.6970466548947E-02 -5.2238829777678E-01  4.8611903149999E-01
    94  9.3000000000000E-01  5.4293285298921E-02 -4.7308431524923E-01  4.3801418255976E-01
    95  9.4000000000000E-01  5.0671965038367E-02 -4.2074950658822E-01  3.9222557390415E-01
    96  9.5000000000000E-01  4.6236993014128E-02 -3.6609103330493E-01  3.4857598363239E-01
    97  9.6000000000000E-01  4.1153802014619E-02 -3.1015274846630E-01  3.0695510579667E-01
    98  9.7000000000000E-01  3.5620669412966E-02 -2.5428591140718E-01  2.6733861684541E-01
    99  9.8000000000000E-01  2.9861460578182E-02 -2.0006806070849E-01  2.2979791115871E-01
   100  9.9000000000000E-01  2.4111527261399E-02 -1.4915487960861E-01  1.9449653508376E-01
   101  1.0000000000000E+00  1.8594797876592E-02 -1.0304758737260E-01  1.6166863700857E-01
   102  1.0100000000000E+00  1.3489819668078E-02 -6.2756143659303E-02  1.3157395377661E-01
   103  1.0200000000000E+00  8.9043926456339E-03 -2.8575104172057E-02  1.0443531975910E-01
   104  1.0300000000000E+00  4.9103208297496E-03 -5.0745506222873E-04  8.0411110282607E-02
   105  1.0400000000000E+00  1.5627936598711E-03  2.1509519640361E-02  5.9596761012126E-02
   106  1.0500000000000E+00 -1.1011318394867E-03  3.7613716951385E-02  4.2024769032788E-02
   107  1.0600000000000E+00 -3.0646066016175E-03  4.8034381511228E-02  2.7663396058276E-02
   108  1.0700000000000E+00 -4.3333443636538E-03  5.3111869809822E-02  1.6414303469144E-02
   109  1.0800000000000E+00 -4.9381131861765E-03  5.3319497970045E-02  8.1093975245320E-03
   110  1.0900000000000E+00 -4.9372722996783E-03  4.9286502199322E-02  2.5070839929568E-03
   111  1.1000000000000E+00 -4.4319061154972E-03  4.1918825016525E-02 -7.5712578929996E-04
   112  1.1100000000000E+00 -3.6351205003129E-03  3.2944161378305E-02 -2.4190174105716E-03
   113  1.1200000000000E+00 -2.6423310678597E-03  2.3135570603498E-02 -2.7562158714892E-03
   114  1.1300000000000E+00 -1.5780414270313E-03  1.3439962934117E-02 -2.1033010696456E-03
   115  1.1400000000000E+00 -6.3315948841751E-04  5.2737446555745E-03 -9.8604097668627E-04
   116  1.1500000000000E+00 -6.6739205248736E-05  5.4569792230765E-04 -1.1589112489788E-04
   117  1.1600000000000E+00  2.5631137403737E-06 -2.0767359466687E-05  4.6861988873146E-06
   118  1.1700000000000E+00  4.0022414390436E-07 -3.2894195128990E-06  6.7712801809879E-07
   119  1.18 -0.  0. -0.
   120  1.19  0.  0.  0.
   121  1.20  0.  0.  0.
   122  1.21  0.  0.  0.
   123  1.22  0.  0.  0.
   124  1.23  0.  0.  0.
   125  1.24  0.  0.  0.
   126  1.25  0.  0.  0.
   127  1.26  0.  0.  0.
   128  1.27  0.  0.  0.
   129  1.28  0.  0.  0.
   130  1.29  0.  0.  0.
   131  1.30  0.  0.  0.
   132  1.31  0.  0.  0.
   133  1.32  0.  0.  0.
   134  1.33  0.  0.  0.
   135  1.34  0.  0.  0.
   136  1.35  0.  0.  0.
   137  1.36  0.  0.  0.
   138  1.37  0.  0.  0.
   139  1.38  0.  0.  0.
   140  1.39  0.  0.  0.
   141  1.40  0.  0.  0.
   142  1.41  0.  0.  0.
   143  1.42  0.  0.  0.
   144  1.43  0.  0.  0.
   145  1.44  0.  0.  0.
   146  1.45  0.  0.  0.
   147  1.46  0.  0.  0.
   148  1.47  0.  0.  0.
   149  1.48  0.  0.  0.
   150  1.49  0.  0.  0.
   151  1.50  0.  0.  0.
   152  1.51  0.  0.  0.
   153  1.52  0.  0.  0.
   154  1.53  0.  0.  0.
   155  1.54  0.  0.  0.
   156  1.55  0.  0.  0.
   157  1.56  0.  0.  0.
   158  1.57  0.  0.  0.
   159  1.58  0.  0.  0.
   160  1.59  0.  0.  0.
   161  1.60  0.  0.  0.
   162  1.61  0.  0.  0.
   163  1.62  0.  0.  0.
   164  1.63  0.  0.  0.
   165  1.64  0.  0.  0.
   166  1.65  0.  0.  0.
   167  1.66  0.  0.  0.
   168  1.67  0.  0.  0.
   169  1.68  0.  0.  0.
   170  1.69  0.  0.  0.
   171  1.70  0.  0.  0.
   172  1.71  0.  0.  0.
   173  1.72  0.  0.  0.
   174  1.73  0.  0.  0.
   175  1.74  0.  0.  0.
   176  1.75  0.  0.  0.
   177  1.76  0.  0.  0.
   178  1.77  0.  0.  0.
   179  1.78  0.  0.  0.
   180  1.79  0.  0.  0.
   181  1.80  0.  0.  0.
   182  1.81  0.  0.  0.
   183  1.82  0.  0.  0.
   184  1.83  0.  0.  0.
   185  1.84  0.  0.  0.
   186  1.85  0.  0.  0.
   187  1.86  0.  0.  0.
   188  1.87  0.  0.  0.
   189  1.88  0.  0.  0.
   190  1.89  0.  0.  0.
   191  1.90  0.  0.  0.
   192  1.91  0.  0.  0.
   193  1.92  0.  0.  0.
   194  1.93  0.  0.  0.
   195  1.94  0.  0.  0.
   196  1.95  0.  0.  0.
   197  1.96  0.  0.  0.
   198  1.97  0.  0.  0.
   199  1.98  0.  0.  0.
   200  1.99  0.  0.  0.
   201  2.00  0.  0.  0.
   202  2.01  0.  0.  0.
   203  2.02  0.  0.  0.
   204  2.03  0.  0.  0.
   205  2.04  0.  0.  0.
   206  2.05  0.  0.  0.
   207  2.06  0.  0.  0.
   208  2.07  0.  0.  0.
   209  2.08  0.  0.  0.
   210  2.09  0.  0.  0.
   211  2.10  0.  0.  0.
   212  2.11  0.  0.  0.
   213  2.12  0.  0.  0.
   214  2.13  0.  0.  0.
   215  2.14  0.  0.  0.
   216  2.15  0.  0.  0.
   217  2.16  0.  0.  0.
   218  2.17  0.  0.  0.
   219  2.18  0.  0.  0.
   220  2.19  0.  0.  0.
   221  2.20  0.  0.  0.
   222  2.21  0.  0.  0.
   223  2.22  0.  0.  0.
   224  2.23  0.  0.  0.
   225  2.24  0.  0.  0.
   226  2.25  0.  0.  0.
   227  2.26  0.  0.  0.
   228  2.27  0.  0.  0.
   229  2.28  0.  0.  0.
   230  2.29  0.  0.  0.
   231  2.30  0.  0.  0.
   232  2.31  0.  0.  0.
   233  2.32  0.  0.  0.
   234  2.33  0.  0.  0.
   235  2.34  0.  0.  0.
   236  2.35  0.  0.  0.
   237  2.36  0.  0.  0.
   238  2.37  0.  0.  0.
   239  2.38  0.  0.  0.
   240  2.39  0.  0.  0.
   241  2.40  0.  0.  0.
   242  2.41  0.  0.  0.
   243  2.42  0.  0.  0.
   244  2.43  0.  0.  0.
   245  2.44  0.  0.  0.
   246  2.45  0.  0.  0.
   247  2.46  0.  0.  0.
   248  2.47  0.  0.  0.
   249  2.48  0.  0.  0.
   250  2.49  0.  0.  0.
   251  2.50  0.  0.  0.
   252  2.51  0.  0.  0.
   253  2.52  0.  0.  0.
   254  2.53  0.  0.  0.
   255  2.54  0.  0.  0.
   256  2.55  0.  0.  0.
   257  2.56  0.  0.  0.
   258  2.57  0.  0.  0.
   259  2.58  0.  0.  0.
   260  2.59  0.  0.  0.
   261  2.60  0.  0.  0.
   262  2.61  0.  0.  0.
   263  2.62  0.  0.  0.
   264  2.63  0.  0.  0.
   265  2.64  0.  0.  0.
   266  2.65  0.  0.  0.
   267  2.66  0.  0.  0.
   268  2.67  0.  0.  0.
   269  2.68  0.  0.  0.
   270  2.69  0.  0.  0.
   271  2.70  0.  0.  0.
   272  2.71  0.  0.  0.
   273  2.72  0.  0.  0.
   274  2.73  0.  0.  0.
   275  2.74  0.  0.  0.
   276  2.75  0.  0.  0.
   277  2.76  0.  0.  0.
   278  2.77  0.  0.  0.
   279  2.78  0.  0.  0.
   280  2.79  0.  0.  0.
   281  2.80  0.  0.  0.
   282  2.81  0.  0.  0.
   283  2.82  0.  0.  0.
   284  2.83  0.  0.  0.
   285  2.84  0.  0.  0.
   286  2.85  0.  0.  0.
   287  2.86  0.  0.  0.
   288  2.87  0.  0.  0.
   289  2.88  0.  0.  0.
   290  2.89  0.  0.  0.
   291  2.90  0.  0.  0.
   292  2.91  0.  0.  0.
   293  2.92  0.  0.  0.
   294  2.93  0.  0.  0.
   295  2.94  0.  0.  0.
   296  2.95  0.  0.  0.
   297  2.96  0.  0.  0.
   298  2.97  0.  0.  0.
   299  2.98  0.  0.  0.
   300  2.99  0.  0.  0.
   301  3.00  0.  0.  0.
   302  3.01  0.  0.  0.
   303  3.02  0.  0.  0.
   304  3.03  0.  0.  0.
   305  3.04  0.  0.  0.
   306  3.05  0.  0.  0.
   307  3.06  0.  0.  0.
   308  3.07  0.  0.  0.
   309  3.08  0.  0.  0.
   310  3.09  0.  0.  0.
   311  3.10  0.  0.  0.
   312  3.11  0.  0.  0.
   313  3.12  0.  0.  0.
   314  3.13  0.  0.  0.
   315  3.14  0.  0.  0.
   316  3.15  0.  0.  0.
   317  3.16  0.  0.  0.
   318  3.17  0.  0.  0.
   319  3.18  0.  0.  0.
   320  3.19  0.  0.  0.
   321  3.20  0.  0.  0.
   322  3.21  0.  0.  0.
   323  3.22  0.  0.  0.
   324  3.23  0.  0.  0.
   325  3.24  0.  0.  0.
   326  3.25  0.  0.  0.
   327  3.26  0.  0.  0.
   328  3.27  0.  0.  0.
   329  3.28  0.  0.  0.
   330  3.29  0.  0.  0.
   331  3.30  0.  0.  0.
   332  3.31  0.  0.  0.
   333  3.32  0.  0.  0.
   334  3.33  0.  0.  0.
   335  3.34  0.  0.  0.
   336  3.35  0.  0.  0.
   337  3.36  0.  0.  0.
   338  3.37  0.  0.  0.
   339  3.38  0.  0.  0.
   340  3.39  0.  0.  0.
   341  3.40  0.  0.  0.
   342  3.41  0.  0.  0.
   343  3.42  0.  0.  0.
   344  3.43  0.  0.  0.
   345  3.44  0.  0.  0.
   346  3.45  0.  0.  0.
   347  3.46  0.  0.  0.
   348  3.47  0.  0.  0.
   349  3.48  0.  0.  0.
   350  3.49  0.  0.  0.
   351  3.50  0.  0.  0.
   352  3.51  0.  0.  0.
   353  3.52  0.  0.  0.
   354  3.53  0.  0.  0.
   355  3.54  0.  0.  0.
   356  3.55  0.  0.  0.
   357  3.56  0.  0.  0.
   358  3.57  0.  0.  0.
   359  3.58  0.  0.  0.
   360  3.59  0.  0.  0.
   361  3.60  0.  0.  0.
   362  3.61  0.  0.  0.
   363  3.62  0.  0.  0.
   364  3.63  0.  0.  0.
   365  3.64  0.  0.  0.
   366  3.65  0.  0.  0.
   367  3.66  0.  0.  0.
   368  3.67  0.  0.  0.
   369  3.68  0.  0.  0.
   370  3.69  0.  0.  0.
   371  3.70  0.  0.  0.
   372  3.71  0.  0.  0.
   373  3.72  0.  0.  0.
   374  3.73  0.  0.  0.
   375  3.74  0.  0.  0.
   376  3.75  0.  0.  0.
   377  3.76  0.  0.  0.
   378  3.77  0.  0.  0.
   379  3.78  0.  0.  0.
   380  3.79  0.  0.  0.
   381  3.80  0.  0.  0.
   382  3.81  0.  0.  0.
   383  3.82  0.  0.  0.
   384  3.83  0.  0.  0.
   385  3.84  0.  0.  0.
   386  3.85  0.  0.  0.
   387  3.86  0.  0.  0.
   388  3.87  0.  0.  0.
   389  3.88  0.  0.  0.
   390  3.89  0.  0.  0.
   391  3.90  0.  0.  0.
   392  3.91  0.  0.  0.
   393  3.92  0.  0.  0.
   394  3.93  0.  0.  0.
   395  3.94  0.  0.  0.
   396  3.95  0.  0.  0.
   397  3.96  0.  0.  0.
   398  3.97  0.  0.  0.
   399  3.98  0.  0.  0.
   400  3.99  0.  0.  0.
   401  4.00  0.  0.  0.
   402  4.01  0.  0.  0.
   403  4.02  0.  0.  0.
   404  4.03  0.  0.  0.
   405  4.04  0.  0.  0.
   406  4.05  0.  0.  0.
   407  4.06  0.  0.  0.
   408  4.07  0.  0.  0.
   409  4.08  0.  0.  0.
   410  4.09  0.  0.  0.
   411  4.10  0.  0.  0.
   412  4.11  0.  0.  0.
   413  4.12  0.  0.  0.
   414  4.13  0.  0.  0.
   415  4.14  0.  0.  0.
   416  4.15  0.  0.  0.
   417  4.16  0.  0.  0.
   418  4.17  0.  0.  0.
   419  4.18  0.  0.  0.
   420  4.19  0.  0.  0.
   421  4.20  0.  0.  0.
   422  4.21  0.  0.  0.
   423  4.22  0.  0.  0.
   424  4.23  0.  0.  0.
   425  4.24  0.  0.  0.
   426  4.25  0.  0.  0.
   427  4.26  0.  0.  0.
   428  4.27  0.  0.  0.
   429  4.28  0.  0.  0.
   430  4.29  0.  0.  0.
   431  4.30  0.  0.  0.
   432  4.31  0.  0.  0.
   433  4.32  0.  0.  0.
   434  4.33  0.  0.  0.
   435  4.34  0.  0.  0.
   436  4.35  0.  0.  0.
   437  4.36  0.  0.  0.
   438  4.37  0.  0.  0.
   439  4.38  0.  0.  0.
   440  4.39  0.  0.  0.
   441  4.40  0.  0.  0.
   442  4.41  0.  0.  0.
   443  4.42  0.  0.  0.
   444  4.43  0.  0.  0.
   445  4.44  0.  0.  0.
   446  4.45  0.  0.  0.
   447  4.46  0.  0.  0.
   448  4.47  0.  0.  0.
   449  4.48  0.  0.  0.
   450  4.49  0.  0.  0.
   451  4.50  0.  0.  0.
   452  4.51  0.  0.  0.
   453  4.52  0.  0.  0.
   454  4.53  0.  0.  0.
   455  4.54  0.  0.  0.
   456  4.55  0.  0.  0.
   457  4.56  0.  0.  0.
   458  4.57  0.  0.  0.
   459  4.58  0.  0.  0.
   460  4.59  0.  0.  0.
   461  4.60  0.  0.  0.
   462  4.61  0.  0.  0.
   463  4.62  0.  0.  0.
   464  4.63  0.  0.  0.
   465  4.64  0.  0.  0.
   466  4.65  0.  0.  0.
   467  4.66  0.  0.  0.
   468  4.67  0.  0.  0.
   469  4.68  0.  0.  0.
   470  4.69  0.  0.  0.
   471  4.70  0.  0.  0.
   472  4.71  0.  0.  0.
   473  4.72  0.  0.  0.
   474  4.73  0.  0.  0.
   475  4.74  0.  0.  0.
   476  4.75  0.  0.  0.
   477  4.76  0.  0.  0.
   478  4.77  0.  0.  0.
   479  4.78  0.  0.  0.
   480  4.79  0.  0.  0.
   481  4.80  0.  0.  0.
   482  4.81  0.  0.  0.
   483  4.82  0.  0.  0.
   484  4.83  0.  0.  0.
   485  4.84  0.  0.  0.
   486  4.85  0.  0.  0.
   487  4.86  0.  0.  0.
   488  4.87  0.  0.  0.
   489  4.88  0.  0.  0.
   490  4.89  0.  0.  0.
   491  4.90  0.  0.  0.
   492  4.91  0.  0.  0.
   493  4.92  0.  0.  0.
   494  4.93  0.  0.  0.
   495  4.94  0.  0.  0.
   496  4.95  0.  0.  0.
   497  4.96  0.  0.  0.
   498  4.97  0.  0.  0.
   499  4.98  0.  0.  0.
   500  4.99  0.  0.  0.
   501  5.00  0.  0.  0.
   502  5.01  0.  0.  0.
   503  5.02  0.  0.  0.
   504  5.03  0.  0.  0.
   505  5.04  0.  0.  0.
   506  5.05  0.  0.  0.
   507  5.06  0.  0.  0.
   508  5.07  0.  0.  0.
   509  5.08  0.  0.  0.
   510  5.09  0.  0.  0.
   511  5.10  0.  0.  0.
   512  5.11  0.  0.  0.
   513  5.12  0.  0.  0.
   514  5.13  0.  0.  0.
   515  5.14  0.  0.  0.
   516  5.15  0.  0.  0.
   517  5.16  0.  0.  0.
   518  5.17  0.  0.  0.
   519  5.18  0.  0.  0.
   520  5.19  0.  0.  0.
   521  5.20  0.  0.  0.
   522  5.21  0.  0.  0.
   523  5.22  0.  0.  0.
   524  5.23  0.  0.  0.
   525  5.24  0.  0.  0.
   526  5.25  0.  0.  0.
   527  5.26  0.  0.  0.
   528  5.27  0.  0.  0.
   529  5.28  0.  0.  0.
   530  5.29  0.  0.  0.
   531  5.30  0.  0.  0.
   532  5.31  0.  0.  0.
   533  5.32  0.  0.  0.
   534  5.33  0.  0.  0.
   535  5.34  0.  0.  0.
   536  5.35  0.  0.  0.
   537  5.36  0.  0.  0.
   538  5.37  0.  0.  0.
   539  5.38  0.  0.  0.
   540  5.39  0.  0.  0.
   541  5.40  0.  0.  0.
   542  5.41  0.  0.  0.
   543  5.42  0.  0.  0.
   544  5.43  0.  0.  0.
   545  5.44  0.  0.  0.
   546  5.45  0.  0.  0.
   547  5.46  0.  0.  0.
   548  5.47  0.  0.  0.
   549  5.48  0.  0.  0.
   550  5.49  0.  0.  0.
   551  5.50  0.  0.  0.
   552  5.51  0.  0.  0.
   553  5.52  0.  0.  0.
   554  5.53  0.  0.  0.
   555  5.54  0.  0.  0.
   556  5.55  0.  0.  0.
   557  5.56  0.  0.  0.
   558  5.57  0.  0.  0.
   559  5.58  0.  0.  0.
   560  5.59  0.  0.  0.
   561  5.60  0.  0.  0.
   562  5.61  0.  0.  0.
   563  5.62  0.  0.  0.
   564  5.63  0.  0.  0.
   565  5.64  0.  0.  0.
   566  5.65  0.  0.  0.
   567  5.66  0.  0.  0.
   568  5.67  0.  0.  0.
   569  5.68  0.  0.  0.
   570  5.69  0.  0.  0.
   571  5.70  0.  0.  0.
   572  5.71  0.  0.  0.
   573  5.72  0.  0.  0.
   574  5.73  0.  0.  0.
   575  5.74  0.  0.  0.
   576  5.75  0.  0.  0.
   577  5.76  0.  0.  0.
   578  5.77  0.  0.  0.
   579  5.78  0.  0.  0.
   580  5.79  0.  0.  0.
   581  5.80  0.  0.  0.
   582  5.81  0.  0.  0.
   583  5.82  0.  0.  0.
   584  5.83  0.  0.  0.
   585  5.84  0.  0.  0.
   586  5.85  0.  0.  0.
   587  5.86  0.  0.  0.
   588  5.87  0.  0.  0.
   589  5.88  0.  0.  0.
   590  5.89  0.  0.  0.
   591  5.90  0.  0.  0.
   592  5.91  0.  0.  0.
   593  5.92  0.  0.  0.
   594  5.93  0.  0.  0.
   595  5.94  0.  0.  0.
   596  5.95  0.  0.  0.
   597  5.96  0.  0.  0.
   598  5.97  0.  0.  0.
   599  5.98  0.  0.  0.
   600  5.99  0.  0.  0.
   1                         1.3955860145733E+01 -5.6267058167571E-01
     1  0.0000000000000E+00  7.0014913866601E-09 -8.0431061810771E-09
     2  1.0000000000000E-02  4.8323094989677E-03 -4.9676477229747E-03
     3  2.0000000000000E-02  1.9282805487047E-02 -1.9791393210747E-02
     4  3.0000000000000E-02  4.3212626534516E-02 -4.4234521038408E-02
     5  4.0000000000000E-02  7.6391787025166E-02 -7.7905429603890E-02
     6  5.0000000000000E-02  1.1850133986661E-01 -1.2026201241142E-01
     7  6.0000000000000E-02  1.6913637942706E-01 -1.7061778082842E-01
     8  7.0000000000000E-02  2.2780985989457E-01 -2.2814971433241E-01
     9  8.0000000000000E-02  2.9395719725343E-01 -2.9190781622110E-01
    10  9.0000000000000E-02  3.6694161614889E-01 -3.6082634195264E-01
    11  1.0000000000000E-01  4.4606019609912E-01 -4.3373665338728E-01
    12  1.1000000000000E-01  5.3055056485239E-01 -5.0938163504790E-01
    13  1.2000000000000E-01  6.1959818022740E-01 -5.8643158811313E-01
    14  1.3000000000000E-01  7.1234413557340E-01 -6.6350149438174E-01
    15  1.4000000000000E-01  8.0789341811141E-01 -7.3916951627136E-01
    16  1.5000000000000E-01  9.0532354394257E-01 -8.1199657057655E-01
    17  1.6000000000000E-01  1.0036934885163E+00 -8.8054678391921E-01
    18  1.7000000000000E-01  1.1020528269263E+00 -9.4340860742861E-01
    19  1.8000000000000E-01  1.1994509946366E+00 -9.9921633816198E-01
    20  1.9000000000000E-01  1.2949465762246E+00 -1.0466717661840E+00
    21  2.0000000000000E-01  1.3876165275551E+00 -1.0845656401835E+00
    22  2.1000000000000E-01  1.4765652355504E+00 -1.1117986221614E+00
    23  2.2000000000000E-01  1.5609333194848E+00 -1.1274013841887E+00
    24  2.3000000000000E-01  1.6399060785696E+00 -1.1305534885690E+00
    25  2.4000000000000E-01  1.7127214925694E+00 -1.1206006879032E+00
    26  2.5000000000000E-01  1.7786776853433E+00 -1.0970702843455E+00
    27  2.6000000000000E-01  1.8371397655657E+00 -1.0596841984195E+00
    28  2.7000000000000E-01  1.8875459644480E+00 -1.0083694175377E+00
    29  2.8000000000000E-01  1.9294129970490E+00 -9.4326552304794E-01
    30  2.9000000000000E-01  1.9623405816853E+00 -8.6472903215380E-01
    31  3.0000000000000E-01  1.9860150609722E+00 -7.7333433710333E-01
    32  3.1000000000000E-01  2.0002120780577E+00 -6.6987107801754E-01
    33  3.2000000000000E-01  2.0047982725475E+00 -5.5533784678838E-01
    34  3.3000000000000E-01  1.9997319723278E+00 -4.3093218650375E-01
    35  3.4000000000000E-01  1.9850628698237E+00 -2.9803692252266E-01
    36  3.5000000000000E-01  1.9609306840106E+00 -1.5820293608616E-01
    37  3.6000000000000E-01  1.9275628225469E+00 -1.3128567509625E-02
    38  3.7000000000000E-01  1.8852710715072E+00  1.3536408826596E-01
    39  3.8000000000000E-01  1.8344473531722E+00  2.8535565758189E-01
    40  3.9000000000000E-01  1.7755586049453E+00  4.3485833008813E-01
    41  4.0000000000000E-01  1.7091408445209E+00  5.8184659852801E-01
    42  4.1000000000000E-01  1.6357924976986E+00  7.2428937284125E-01
    43  4.2000000000000E-01  1.5561670755274E+00  8.6018289966794E-01
    44  4.3000000000000E-01  1.4709652965843E+00  9.8758388393478E-01
    45  4.4000000000000E-01  1.3809267579671E+00  1.1046421871088E+00
    46  4.5000000000000E-01  1.2868212648593E+00  1.2096324678670E+00
    47  4.6000000000000E-01  1.1894399331816E+00  1.3009841359885E+00
    48  4.7000000000000E-01  1.0895861827765E+00  1.3773090095254E+00
    49  4.8000000000000E-01  9.8806673971185E-01  1.4374260986912E+00
    50  4.9000000000000E-01  8.8568276559877E-01  1.4803829869927E+00
    51  5.0000000000000E-01  7.8322122929823E-01  1.5054733401404E+00
    52  5.1000000000000E-01  6.8144663206326E-01  1.5122501450750E+00
    53  5.2000000000000E-01  5.8109319110453E-01  1.5005343635844E+00
    54  5.3000000000000E-01  4.8285757886661E-01  1.4704187757256E+00
    55  5.4000000000000E-01  3.8739230609461E-01  1.4222668856209E+00
    56  5.5000000000000E-01  2.9529982621308E-01  1.3567068639839E+00
    57  5.6000000000000E-01  2.0712742681732E-01  1.2746206056455E+00
    58  5.7000000000000E-01  1.2336296139645E-01  1.1771280839795E+00
    59  5.8000000000000E-01  4.4431460995236E-02  1.0655672850860E+00
    60  5.9000000000000E-01 -2.9307348385945E-02  9.4147010049504E-01
    61  6.0000000000000E-01 -9.7560611008319E-02  8.0653464578184E-01
    62  6.1000000000000E-01 -1.6010299173655E-01  6.6259455173925E-01
    63  6.2000000000000E-01 -2.1677642791383E-01  5.1158584280413E-01
    64  6.3000000000000E-01 -2.6748901258742E-01  3.5551207268354E-01
    65  6.4000000000000E-01 -3.1221305158885E-01  1.9640842832247E-01
    66  6.5000000000000E-01 -3.5098234872463E-01  3.6305539557459E-02
    67  6.6000000000000E-01 -3.8388878395853E-01 -1.2280625756029E-01
    68  6.7000000000000E-01 -4.1107825879633E-01 -2.7901146092128E-01
    69  6.8000000000000E-01 -4.3274609097890E-01 -4.3050202389707E-01
    70  6.9000000000000E-01 -4.4913194693861E-01 -5.7560737206011E-01
    71  7.0000000000000E-01 -4.6051440519867E-01 -7.1282117909320E-01
    72  7.1000000000000E-01 -4.6720524694872E-01 -8.4082432936691E-01
    73  7.2000000000000E-01 -4.6954357139811E-01 -9.5850357004794E-01
    74  7.3000000000000E-01 -4.6788983320920E-01 -1.0649654414389E+00
    75  7.4000000000000E-01 -4.6261989739442E-01 -1.1595451689002E+00
    76  7.5000000000000E-01 -4.5411920359868E-01 -1.2418103015184E+00
    77  7.6000000000000E-01 -4.4277712678473E-01 -1.3115589899939E+00
    78  7.7000000000000E-01 -4.2898161511632E-01 -1.3688129074366E+00
    79  7.8000000000000E-01 -4.1311417843439E-01 -1.4138049304159E+00
    80  7.9000000000000E-01 -3.9554529229873E-01 -1.4469618124616E+00
    81  8.0000000000000E-01 -3.7663027328800E-01 -1.4688821972135E+00
    82  8.1000000000000E-01 -3.5670567128148E-01 -1.4803104328298E+00
    83  8.2000000000000E-01 -3.3608621395726E-01 -1.4821067626775E+00
    84  8.3000000000000E-01 -3.1506232789620E-01 -1.4752145796482E+00
    85  8.4000000000000E-01 -2.9389824963620E-01 -1.4606255429604E+00
    86  8.5000000000000E-01 -2.7283072891793E-01 -1.4393434676686E+00
    87  8.6000000000000E-01 -2.5206831532883E-01 -1.4123480092938E+00
    88  8.7000000000000E-01 -2.3179120869278E-01 -1.3805592803717E+00
    89  8.8000000000000E-01 -2.1215164295431E-01 -1.3448046539358E+00
    90  8.9000000000000E-01 -1.9327476303043E-01 -1.3057891329607E+00
    91  9.0000000000000E-01 -1.7525994418809E-01 -1.2640707967707E+00
    92  9.1000000000000E-01 -1.5818249396511E-01 -1.2200429777584E+00
    93  9.2000000000000E-01 -1.4209566747627E-01 -1.1739249770038E+00
    94  9.3000000000000E-01 -1.2703291810437E-01 -1.1257632981614E+00
    95  9.4000000000000E-01 -1.1301029701331E-01 -1.0754455680071E+00