Cf    ONCVPSP-4.0.1  r_core=   1.10001   1.15394   1.10001   1.35621
98.0000     38.0000      220310    zatom,zion,pspd
8      11   3     4   600     0    pspcod,pspxc,lmax,lloc,mmax,r2well
5.99000000  5.00000000  0.00000000    rchrg fchrg qchrg
3     2     2     2     0    nproj
1     1           extension_switch
0                         4.5187896467432E+01  1.2359875785209E+01  2.5934560337738E+00
1  0.0000000000000E+00 -5.2753338208866E-07  8.5275809430518E-07 -1.0518590242148E-06
2  1.0000000000000E-02  1.8242723138539E-01 -7.6449426982845E-02  1.1887657647769E-01
3  2.0000000000000E-02  3.6217277085902E-01 -1.4930151153811E-01  2.3337537298187E-01
4  3.0000000000000E-02  5.3664260738479E-01 -2.1509987718478E-01  3.3929577012056E-01
5  4.0000000000000E-02  7.0341454515643E-01 -2.7066431179429E-01  4.3278427396772E-01
6  5.0000000000000E-02  8.6031539138804E-01 -3.1321466753858E-01  5.1049038107297E-01
7  6.0000000000000E-02  1.0054880844780E+00 -3.4047839510823E-01  5.6970201076119E-01
8  7.0000000000000E-02  1.1374460652372E+00 -3.5077731677664E-01  6.0845500012047E-01
9  8.0000000000000E-02  1.2551127214058E+00 -3.4309009564395E-01  6.2561220893575E-01
10  9.0000000000000E-02  1.3578443534086E+00 -3.1708785739129E-01  6.2090901502751E-01
11  1.0000000000000E-01  1.4454357918963E+00 -2.7314152543628E-01  5.9496334536452E-01
12  1.1000000000000E-01  1.5181085170731E+00 -2.1230059546116E-01  5.4924982991869E-01
13  1.2000000000000E-01  1.5764818565100E+00 -1.3624425327573E-01  4.8603912530521E-01
14  1.3000000000000E-01  1.6215285421060E+00 -4.7206882615356E-02  4.0830487469908E-01
15  1.4000000000000E-01  1.6545165589423E+00  5.2118930192238E-02  3.1960209173575E-01
16  1.5000000000000E-01  1.6769397918603E+00  1.5869785348264E-01  2.2392192526809E-01
17  1.6000000000000E-01  1.6904404457054E+00  2.6928091875125E-01  1.2552873113705E-01
18  1.7000000000000E-01  1.6967265624912E+00  3.8054289719034E-01  2.8786106610233E-02
19  1.8000000000000E-01  1.6974881683855E+00  4.8922220971411E-01 -6.2020997481779E-02
20  1.9000000000000E-01  1.6943156461635E+00  5.9225752096616E-01 -1.4286080210300E-01
21  2.0000000000000E-01  1.6886238413807E+00  6.8691529485331E-01 -2.1011870567345E-01
22  2.1000000000000E-01  1.6815851759780E+00  7.7090295385790E-01 -2.6074403356585E-01
23  2.2000000000000E-01  1.6740746704185E+00  8.4246287260142E-01 -2.9237349254442E-01
24  2.3000000000000E-01  1.6666292796516E+00  9.0044322441209E-01 -3.0342623803901E-01
25  2.4000000000000E-01  1.6594233492732E+00  9.4434265615467E-01 -2.9316662019526E-01
26  2.5000000000000E-01  1.6522613206991E+00  9.7432685232569E-01 -2.6173199713884E-01
27  2.6000000000000E-01  1.6445880858963E+00  9.9121621985983E-01 -2.1012443707762E-01
28  2.7000000000000E-01  1.6355166434463E+00  9.9644513191484E-01 -1.4016661614476E-01
29  2.8000000000000E-01  1.6238719696781E+00  9.9199436200826E-01 -5.4423695246202E-02
30  2.9000000000000E-01  1.6082493223313E+00  9.8029946945949E-01  4.3905634334532E-02
31  3.0000000000000E-01  1.5870845691103E+00  9.6413891571865E-01  1.5112446854703E-01
32  3.1000000000000E-01  1.5587336062359E+00  9.4650655578061E-01  2.6319380663638E-01
33  3.2000000000000E-01  1.5215575253559E+00  9.3047382265869E-01  3.7590303171467E-01
34  3.3000000000000E-01  1.4740099187142E+00  9.1904737679929E-01  4.8504771705747E-01
35  3.4000000000000E-01  1.4147225943046E+00  9.1502820643661E-01  5.8660740474389E-01
36  3.5000000000000E-01  1.3425860105990E+00  9.2087812928361E-01  6.7691599281385E-01
37  3.6000000000000E-01  1.2568209335022E+00  9.3859936120542E-01  7.5281766204899E-01
38  3.7000000000000E-01  1.1570381590214E+00  9.6963229472929E-01  8.1180186221894E-01
39  3.8000000000000E-01  1.0432836200118E+00  1.0147758906574E+00  8.5211173621168E-01
40  3.9000000000000E-01  9.1606678475814E-01  1.0741341602027E+00  8.7282145347276E-01
41  4.0000000000000E-01  7.7637093459248E-01  1.1470911415388E+00  8.7387920621185E-01
42  4.1000000000000E-01  6.2564464879763E-01  1.2323155984570E+00  8.5611403936472E-01
43  4.2000000000000E-01  4.6577459653265E-01  1.3277954394872E+00  8.2120617893765E-01
44  4.3000000000000E-01  2.9904050485344E-01  1.4309006253045E+00  7.7162203037781E-01
45  4.4000000000000E-01  1.2805390649175E-01  1.5384721526459E+00  7.1051647558413E-01
46  4.5000000000000E-01 -4.4317060266041E-02  1.6469336243047E+00  6.4160644278439E-01
47  4.6000000000000E-01 -2.1503395289621E-01  1.7524209828262E+00  5.6902090112230E-01
48  4.7000000000000E-01 -3.8098212476668E-01  1.8509252397532E+00  4.9713339199135E-01
49  4.8000000000000E-01 -5.3906900394058E-01  1.9384425041066E+00  4.3038391184764E-01
50  4.9000000000000E-01 -6.8632276397889E-01  2.0111253252258E+00  3.7309737744659E-01
51  5.0000000000000E-01 -8.1998759145261E-01  2.0654293277574E+00  3.2930601758911E-01
52  5.1000000000000E-01 -9.3761190401694E-01  2.0982493310915E+00  3.0258284206532E-01
53  5.2000000000000E-01 -1.0371261727694E+00  2.1070396016324E+00  2.9589284831944E-01
54  5.3000000000000E-01 -1.1169074396042E+00  2.0899135630988E+00  3.1146786205692E-01
55  5.4000000000000E-01 -1.1758281748533E+00  2.0457191572276E+00  3.5070990395054E-01
56  5.5000000000000E-01 -1.2132877680436E+00  1.9740870661713E+00  4.1412677546220E-01
57  5.6000000000000E-01 -1.2292256565405E+00  1.8754501335354E+00  5.0130221542859E-01
58  5.7000000000000E-01 -1.2241158419606E+00  1.7510335038930E+00  6.1090155421617E-01
59  5.8000000000000E-01 -1.1989432900486E+00  1.6028161891480E+00  7.4071234582810E-01
60  5.9000000000000E-01 -1.1551634239884E+00  1.4334659128051E+00  8.8771805268053E-01
61  6.0000000000000E-01 -1.0946465732965E+00  1.2462501310859E+00  1.0482015527620E+00
62  6.1000000000000E-01 -1.0196098030406E+00  1.0449270386196E+00  1.2178740894034E+00
63  6.2000000000000E-01 -9.3253899794612E-01  8.3362109854688E-01  1.3920243372131E+00
64  6.3000000000000E-01 -8.3610439510457E-01  6.1668816301843E-01  1.5656815516292E+00
65  6.4000000000000E-01 -7.3307293570222E-01  3.9857555059796E-01  1.7337863304890E+00
66  6.5000000000000E-01 -6.2622083522006E-01  1.8368251271273E-01  1.8913623582313E+00
67  6.6000000000000E-01 -5.1824965444018E-01 -2.3773646479063E-02  2.0336826281768E+00
68  6.7000000000000E-01 -4.1170889844283E-01 -2.1988092163896E-01  2.1564240344358E+00
69  6.8000000000000E-01 -3.0892779190142E-01 -4.0114114273060E-01  2.2558048688194E+00
70  6.9000000000000E-01 -2.1195839601497E-01 -5.6456016755532E-01  2.3287006154723E+00
71  7.0000000000000E-01 -1.2253166960468E-01 -7.0771708994534E-01  2.3727344630862E+00
72  7.1000000000000E-01 -4.2027461568428E-02 -8.2881079942147E-01  2.3863401010844E+00
73  7.2000000000000E-01  2.8541216363131E-02 -9.2668324504969E-01  2.3687955764166E+00
74  7.3000000000000E-01  8.8529918856973E-02 -1.0008197661204E+00  2.3202282042630E+00
75  7.4000000000000E-01  1.3765137510455E-01 -1.0513278076773E+00  2.2415916913703E+00
76  7.5000000000000E-01  1.7595238343246E-01 -1.0788961957539E+00  2.1346176905893E+00
77  7.6000000000000E-01  2.0378084228273E-01 -1.0847378657497E+00  2.0017449097358E+00
78  7.7000000000000E-01  2.2174510101067E-01 -1.0705194843178E+00  1.8460296043706E+00
79  7.8000000000000E-01  2.3066802317805E-01 -1.0382817544843E+00  1.6710417581136E+00
80  7.9000000000000E-01  2.3153822942455E-01 -9.9035432753171E-01  1.4807514704909E+00
81  8.0000000000000E-01  2.2546092140236E-01 -9.2926915390138E-01  1.2794100156727E+00
82  8.1000000000000E-01  2.1361048264893E-01 -8.5767578764860E-01  1.0714297000933E+00
83  8.2000000000000E-01  1.9718671135498E-01 -7.7826162100080E-01  8.6126603620579E-01
84  8.3000000000000E-01  1.7737607253182E-01 -6.9367928004152E-01  6.5330487481510E-01
85  8.4000000000000E-01  1.5531877505320E-01 -6.0648247738320E-01  4.5175601739113E-01
86  8.5000000000000E-01  1.3208179652029E-01 -5.1907051433450E-01  2.6055348490279E-01
87  8.6000000000000E-01  1.0863721094311E-01 -4.3364037670783E-01  8.3261076095355E-02
88  8.7000000000000E-01  8.5844335659227E-02 -3.5214399805847E-01 -7.7019868836027E-02
89  8.8000000000000E-01  6.4433318093269E-02 -2.7624679274768E-01 -2.1774544991333E-01
90  8.9000000000000E-01  4.4986839258433E-02 -2.0728200299033E-01 -3.3703388775937E-01
91  9.0000000000000E-01  2.7915678056801E-02 -1.4619387557230E-01 -4.3378876089354E-01
92  9.1000000000000E-01  1.3424341618973E-02 -9.3463986389596E-02 -5.0784566472534E-01
93  9.2000000000000E-01  1.5181575167526E-03 -4.9126045815423E-02 -5.5992157396601E-01
94  9.3000000000000E-01 -7.9118199682614E-03 -1.2936830477928E-02 -5.9125854919082E-01
95  9.4000000000000E-01 -1.5048064335635E-02  1.5546008715817E-02 -6.0348638852116E-01
96  9.5000000000000E-01 -2.0122354733645E-02  3.6918355591883E-02 -5.9855220405616E-01
97  9.6000000000000E-01 -2.3393326918903E-02  5.1885195887157E-02 -5.7864720147862E-01
98  9.7000000000000E-01 -2.5126946661327E-02  6.1219312972025E-02 -5.4613328236130E-01
99  9.8000000000000E-01 -2.5580842916693E-02  6.5724825435605E-02 -5.0347205001251E-01
100  9.9000000000000E-01 -2.4993120927456E-02  6.6206816692125E-02 -4.5315835628947E-01
101  1.0000000000000E+00 -2.3575952412964E-02  6.3447832201024E-02 -3.9766007136052E-01
102  1.0100000000000E+00 -2.1513908301118E-02  5.8191519786232E-02 -3.3936523806515E-01
103  1.0200000000000E+00 -1.8966700831250E-02  5.1133235759903E-02 -2.8053729905914E-01
104  1.0300000000000E+00 -1.6075730720978E-02  4.2917015837480E-02 -2.2327860282907E-01
105  1.0400000000000E+00 -1.2973492029912E-02  3.4137792323998E-02 -1.6950185951052E-01
106  1.0500000000000E+00 -9.8271453444523E-03  2.5392851358784E-02 -1.2094121351591E-01
107  1.0600000000000E+00 -6.9164330058552E-03  1.7384111721869E-02 -7.9202791930172E-02
108  1.0700000000000E+00 -4.3106765913281E-03  1.0458285128705E-02 -4.5422048562811E-02
109  1.0800000000000E+00 -2.1325064284792E-03  4.9692633147991E-03 -2.0513313578242E-02
110  1.0900000000000E+00 -5.9105792908504E-04  1.3197357950685E-03 -5.1676118473920E-03
111  1.1000000000000E+00 -1.2815775211314E-07  3.1583152799735E-07 -1.3740445649830E-06
112  1.1100000000000E+00 -4.0873979336743E-06  8.8171365392115E-06 -3.3035528599397E-05
113  1.1200000000000E+00 -5.2410341824291E-12  6.8079510205952E-12 -3.8698217204712E-12
114  1.13  0.  0.  0.
115  1.14  0.  0.  0.
116  1.15  0.  0.  0.
117  1.16  0.  0.  0.
118  1.17  0.  0.  0.
119  1.18  0.  0.  0.
120  1.19  0.  0.  0.
121  1.20  0.  0.  0.
122  1.21  0.  0.  0.
123  1.22  0.  0.  0.
124  1.23  0.  0.  0.
125  1.24  0.  0.  0.
126  1.25  0.  0.  0.
127  1.26  0.  0.  0.
128  1.27  0.  0.  0.
129  1.28  0.  0.  0.
130  1.29  0.  0.  0.
131  1.30  0.  0.  0.
132  1.31  0.  0.  0.
133  1.32  0.  0.  0.
134  1.33  0.  0.  0.
135  1.34  0.  0.  0.
136  1.35  0.  0.  0.
137  1.36  0.  0.  0.
138  1.37  0.  0.  0.
139  1.38  0.  0.  0.
140  1.39  0.  0.  0.
141  1.40  0.  0.  0.
142  1.41  0.  0.  0.
143  1.42  0.  0.  0.
144  1.43  0.  0.  0.
145  1.44  0.  0.  0.
146  1.45  0.  0.  0.
147  1.46  0.  0.  0.
148  1.47  0.  0.  0.
149  1.48  0.  0.  0.
150  1.49  0.  0.  0.
151  1.50  0.  0.  0.
152  1.51  0.  0.  0.
153  1.52  0.  0.  0.
154  1.53  0.  0.  0.
155  1.54  0.  0.  0.
156  1.55  0.  0.  0.
157  1.56  0.  0.  0.
158  1.57  0.  0.  0.
159  1.58  0.  0.  0.
160  1.59  0.  0.  0.
161  1.60  0.  0.  0.
162  1.61  0.  0.  0.
163  1.62  0.  0.  0.
164  1.63  0.  0.  0.
165  1.64  0.  0.  0.
166  1.65  0.  0.  0.
167  1.66  0.  0.  0.
168  1.67  0.  0.  0.
169  1.68  0.  0.  0.
170  1.69  0.  0.  0.
171  1.70  0.  0.  0.
172  1.71  0.  0.  0.
173  1.72  0.  0.  0.
174  1.73  0.  0.  0.
175  1.74  0.  0.  0.
176  1.75  0.  0.  0.
177  1.76  0.  0.  0.
178  1.77  0.  0.  0.
179  1.78  0.  0.  0.
180  1.79  0.  0.  0.
181  1.80  0.  0.  0.
182  1.81  0.  0.  0.
183  1.82  0.  0.  0.
184  1.83  0.  0.  0.
185  1.84  0.  0.  0.
186  1.85  0.  0.  0.
187  1.86  0.  0.  0.
188  1.87  0.  0.  0.
189  1.88  0.  0.  0.
190  1.89  0.  0.  0.
191  1.90  0.  0.  0.
192  1.91  0.  0.  0.
193  1.92  0.  0.  0.
194  1.93  0.  0.  0.
195  1.94  0.  0.  0.
196  1.95  0.  0.  0.
197  1.96  0.  0.  0.
198  1.97  0.  0.  0.
199  1.98  0.  0.  0.
200  1.99  0.  0.  0.
201  2.00  0.  0.  0.
202  2.01  0.  0.  0.
203  2.02  0.  0.  0.
204  2.03  0.  0.  0.
205  2.04  0.  0.  0.
206  2.05  0.  0.  0.
207  2.06  0.  0.  0.
208  2.07  0.  0.  0.
209  2.08  0.  0.  0.
210  2.09  0.  0.  0.
211  2.10  0.  0.  0.
212  2.11  0.  0.  0.
213  2.12  0.  0.  0.
214  2.13  0.  0.  0.
215  2.14  0.  0.  0.
216  2.15  0.  0.  0.
217  2.16  0.  0.  0.
218  2.17  0.  0.  0.
219  2.18  0.  0.  0.
220  2.19  0.  0.  0.
221  2.20  0.  0.  0.
222  2.21  0.  0.  0.
223  2.22  0.  0.  0.
224  2.23  0.  0.  0.
225  2.24  0.  0.  0.
226  2.25  0.  0.  0.
227  2.26  0.  0.  0.
228  2.27  0.  0.  0.
229  2.28  0.  0.  0.
230  2.29  0.  0.  0.
231  2.30  0.  0.  0.
232  2.31  0.  0.  0.
233  2.32  0.  0.  0.
234  2.33  0.  0.  0.
235  2.34  0.  0.  0.
236  2.35  0.  0.  0.
237  2.36  0.  0.  0.
238  2.37  0.  0.  0.
239  2.38  0.  0.  0.
240  2.39  0.  0.  0.
241  2.40  0.  0.  0.
242  2.41  0.  0.  0.
243  2.42  0.  0.  0.
244  2.43  0.  0.  0.
245  2.44  0.  0.  0.
246  2.45  0.  0.  0.
247  2.46  0.  0.  0.
248  2.47  0.  0.  0.
249  2.48  0.  0.  0.
250  2.49  0.  0.  0.
251  2.50  0.  0.  0.
252  2.51  0.  0.  0.
253  2.52  0.  0.  0.
254  2.53  0.  0.  0.
255  2.54  0.  0.  0.
256  2.55  0.  0.  0.
257  2.56  0.  0.  0.
258  2.57  0.  0.  0.
259  2.58  0.  0.  0.
260  2.59  0.  0.  0.
261  2.60  0.  0.  0.
262  2.61  0.  0.  0.
263  2.62  0.  0.  0.
264  2.63  0.  0.  0.
265  2.64  0.  0.  0.
266  2.65  0.  0.  0.
267  2.66  0.  0.  0.
268  2.67  0.  0.  0.
269  2.68  0.  0.  0.
270  2.69  0.  0.  0.
271  2.70  0.  0.  0.
272  2.71  0.  0.  0.
273  2.72  0.  0.  0.
274  2.73  0.  0.  0.
275  2.74  0.  0.  0.
276  2.75  0.  0.  0.
277  2.76  0.  0.  0.
278  2.77  0.  0.  0.
279  2.78  0.  0.  0.
280  2.79  0.  0.  0.
281  2.80  0.  0.  0.
282  2.81  0.  0.  0.
283  2.82  0.  0.  0.
284  2.83  0.  0.  0.
285  2.84  0.  0.  0.
286  2.85  0.  0.  0.
287  2.86  0.  0.  0.
288  2.87  0.  0.  0.
289  2.88  0.  0.  0.
290  2.89  0.  0.  0.
291  2.90  0.  0.  0.
292  2.91  0.  0.  0.
293  2.92  0.  0.  0.
294  2.93  0.  0.  0.
295  2.94  0.  0.  0.
296  2.95  0.  0.  0.
297  2.96  0.  0.  0.
298  2.97  0.  0.  0.
299  2.98  0.  0.  0.
300  2.99  0.  0.  0.
301  3.00  0.  0.  0.
302  3.01  0.  0.  0.
303  3.02  0.  0.  0.
304  3.03  0.  0.  0.
305  3.04  0.  0.  0.
306  3.05  0.  0.  0.
307  3.06  0.  0.  0.
308  3.07  0.  0.  0.
309  3.08  0.  0.  0.
310  3.09  0.  0.  0.
311  3.10  0.  0.  0.
312  3.11  0.  0.  0.
313  3.12  0.  0.  0.
314  3.13  0.  0.  0.
315  3.14  0.  0.  0.
316  3.15  0.  0.  0.
317  3.16  0.  0.  0.
318  3.17  0.  0.  0.
319  3.18  0.  0.  0.
320  3.19  0.  0.  0.
321  3.20  0.  0.  0.
322  3.21  0.  0.  0.
323  3.22  0.  0.  0.
324  3.23  0.  0.  0.
325  3.24  0.  0.  0.
326  3.25  0.  0.  0.
327  3.26  0.  0.  0.
328  3.27  0.  0.  0.
329  3.28  0.  0.  0.
330  3.29  0.  0.  0.
331  3.30  0.  0.  0.
332  3.31  0.  0.  0.
333  3.32  0.  0.  0.
334  3.33  0.  0.  0.
335  3.34  0.  0.  0.
336  3.35  0.  0.  0.
337  3.36  0.  0.  0.
338  3.37  0.  0.  0.
339  3.38  0.  0.  0.
340  3.39  0.  0.  0.
341  3.40  0.  0.  0.
342  3.41  0.  0.  0.
343  3.42  0.  0.  0.
344  3.43  0.  0.  0.
345  3.44  0.  0.  0.
346  3.45  0.  0.  0.
347  3.46  0.  0.  0.
348  3.47  0.  0.  0.
349  3.48  0.  0.  0.
350  3.49  0.  0.  0.
351  3.50  0.  0.  0.
352  3.51  0.  0.  0.
353  3.52  0.  0.  0.
354  3.53  0.  0.  0.
355  3.54  0.  0.  0.
356  3.55  0.  0.  0.
357  3.56  0.  0.  0.
358  3.57  0.  0.  0.
359  3.58  0.  0.  0.
360  3.59  0.  0.  0.
361  3.60  0.  0.  0.
362  3.61  0.  0.  0.
363  3.62  0.  0.  0.
364  3.63  0.  0.  0.
365  3.64  0.  0.  0.
366  3.65  0.  0.  0.
367  3.66  0.  0.  0.
368  3.67  0.  0.  0.
369  3.68  0.  0.  0.
370  3.69  0.  0.  0.
371  3.70  0.  0.  0.
372  3.71  0.  0.  0.
373  3.72  0.  0.  0.
374  3.73  0.  0.  0.
375  3.74  0.  0.  0.
376  3.75  0.  0.  0.
377  3.76  0.  0.  0.
378  3.77  0.  0.  0.
379  3.78  0.  0.  0.
380  3.79  0.  0.  0.
381  3.80  0.  0.  0.
382  3.81  0.  0.  0.
383  3.82  0.  0.  0.
384  3.83  0.  0.  0.
385  3.84  0.  0.  0.
386  3.85  0.  0.  0.
387  3.86  0.  0.  0.
388  3.87  0.  0.  0.
389  3.88  0.  0.  0.
390  3.89  0.  0.  0.
391  3.90  0.  0.  0.
392  3.91  0.  0.  0.
393  3.92  0.  0.  0.
394  3.93  0.  0.  0.
395  3.94  0.  0.  0.
396  3.95  0.  0.  0.
397  3.96  0.  0.  0.
398  3.97  0.  0.  0.
399  3.98  0.  0.  0.
400  3.99  0.  0.  0.
401  4.00  0.  0.  0.
402  4.01  0.  0.  0.
403  4.02  0.  0.  0.
404  4.03  0.  0.  0.
405  4.04  0.  0.  0.
406  4.05  0.  0.  0.
407  4.06  0.  0.  0.
408  4.07  0.  0.  0.
409  4.08  0.  0.  0.
410  4.09  0.  0.  0.
411  4.10  0.  0.  0.
412  4.11  0.  0.  0.
413  4.12  0.  0.  0.
414  4.13  0.  0.  0.
415  4.14  0.  0.  0.
416  4.15  0.  0.  0.
417  4.16  0.  0.  0.
418  4.17  0.  0.  0.
419  4.18  0.  0.  0.
420  4.19  0.  0.  0.
421  4.20  0.  0.  0.
422  4.21  0.  0.  0.
423  4.22  0.  0.  0.
424  4.23  0.  0.  0.
425  4.24  0.  0.  0.
426  4.25  0.  0.  0.
427  4.26  0.  0.  0.
428  4.27  0.  0.  0.
429  4.28  0.  0.  0.
430  4.29  0.  0.  0.
431  4.30  0.  0.  0.
432  4.31  0.  0.  0.
433  4.32  0.  0.  0.
434  4.33  0.  0.  0.
435  4.34  0.  0.  0.
436  4.35  0.  0.  0.
437  4.36  0.  0.  0.
438  4.37  0.  0.  0.
439  4.38  0.  0.  0.
440  4.39  0.  0.  0.
441  4.40  0.  0.  0.
442  4.41  0.  0.  0.
443  4.42  0.  0.  0.
444  4.43  0.  0.  0.
445  4.44  0.  0.  0.
446  4.45  0.  0.  0.
447  4.46  0.  0.  0.
448  4.47  0.  0.  0.
449  4.48  0.  0.  0.
450  4.49  0.  0.  0.
451  4.50  0.  0.  0.
452  4.51  0.  0.  0.
453  4.52  0.  0.  0.
454  4.53  0.  0.  0.
455  4.54  0.  0.  0.
456  4.55  0.  0.  0.
457  4.56  0.  0.  0.
458  4.57  0.  0.  0.
459  4.58  0.  0.  0.
460  4.59  0.  0.  0.
461  4.60  0.  0.  0.
462  4.61  0.  0.  0.
463  4.62  0.  0.  0.
464  4.63  0.  0.  0.
465  4.64  0.  0.  0.
466  4.65  0.  0.  0.
467  4.66  0.  0.  0.
468  4.67  0.  0.  0.
469  4.68  0.  0.  0.
470  4.69  0.  0.  0.
471  4.70  0.  0.  0.
472  4.71  0.  0.  0.
473  4.72  0.  0.  0.
474  4.73  0.  0.  0.
475  4.74  0.  0.  0.
476  4.75  0.  0.  0.
477  4.76  0.  0.  0.
478  4.77  0.  0.  0.
479  4.78  0.  0.  0.
480  4.79  0.  0.  0.
481  4.80  0.  0.  0.
482  4.81  0.  0.  0.
483  4.82  0.  0.  0.
484  4.83  0.  0.  0.
485  4.84  0.  0.  0.
486  4.85  0.  0.  0.
487  4.86  0.  0.  0.
488  4.87  0.  0.  0.
489  4.88  0.  0.  0.
490  4.89  0.  0.  0.
491  4.90  0.  0.  0.
492  4.91  0.  0.  0.
493  4.92  0.  0.  0.
494  4.93  0.  0.  0.
495  4.94  0.  0.  0.
496  4.95  0.  0.  0.
497  4.96  0.  0.  0.
498  4.97  0.  0.  0.
499  4.98  0.  0.  0.
500  4.99  0.  0.  0.
501  5.00  0.  0.  0.
502  5.01  0.  0.  0.
503  5.02  0.  0.  0.
504  5.03  0.  0.  0.
505  5.04  0.  0.  0.
506  5.05  0.  0.  0.
507  5.06  0.  0.  0.
508  5.07  0.  0.  0.
509  5.08  0.  0.  0.
510  5.09  0.  0.  0.
511  5.10  0.  0.  0.
512  5.11  0.  0.  0.
513  5.12  0.  0.  0.
514  5.13  0.  0.  0.
515  5.14  0.  0.  0.
516  5.15  0.  0.  0.
517  5.16  0.  0.  0.
518  5.17  0.  0.  0.
519  5.18  0.  0.  0.
520  5.19  0.  0.  0.
521  5.20  0.  0.  0.
522  5.21  0.  0.  0.
523  5.22  0.  0.  0.
524  5.23  0.  0.  0.
525  5.24  0.  0.  0.
526  5.25  0.  0.  0.
527  5.26  0.  0.  0.
528  5.27  0.  0.  0.
529  5.28  0.  0.  0.
530  5.29  0.  0.  0.
531  5.30  0.  0.  0.
532  5.31  0.  0.  0.
533  5.32  0.  0.  0.
534  5.33  0.  0.  0.
535  5.34  0.  0.  0.
536  5.35  0.  0.  0.
537  5.36  0.  0.  0.
538  5.37  0.  0.  0.
539  5.38  0.  0.  0.
540  5.39  0.  0.  0.
541  5.40  0.  0.  0.
542  5.41  0.  0.  0.
543  5.42  0.  0.  0.
544  5.43  0.  0.  0.
545  5.44  0.  0.  0.
546  5.45  0.  0.  0.
547  5.46  0.  0.  0.
548  5.47  0.  0.  0.
549  5.48  0.  0.  0.
550  5.49  0.  0.  0.
551  5.50  0.  0.  0.
552  5.51  0.  0.  0.
553  5.52  0.  0.  0.
554  5.53  0.  0.  0.
555  5.54  0.  0.  0.
556  5.55  0.  0.  0.
557  5.56  0.  0.  0.
558  5.57  0.  0.  0.
559  5.58  0.  0.  0.
560  5.59  0.  0.  0.
561  5.60  0.  0.  0.
562  5.61  0.  0.  0.
563  5.62  0.  0.  0.
564  5.63  0.  0.  0.
565  5.64  0.  0.  0.
566  5.65  0.  0.  0.
567  5.66  0.  0.  0.
568  5.67  0.  0.  0.
569  5.68  0.  0.  0.
570  5.69  0.  0.  0.
571  5.70  0.  0.  0.
572  5.71  0.  0.  0.
573  5.72  0.  0.  0.
574  5.73  0.  0.  0.
575  5.74  0.  0.  0.
576  5.75  0.  0.  0.
577  5.76  0.  0.  0.
578  5.77  0.  0.  0.
579  5.78  0.  0.  0.
580  5.79  0.  0.  0.
581  5.80  0.  0.  0.
582  5.81  0.  0.  0.
583  5.82  0.  0.  0.
584  5.83  0.  0.  0.
585  5.84  0.  0.  0.
586  5.85  0.  0.  0.
587  5.86  0.  0.  0.
588  5.87  0.  0.  0.
589  5.88  0.  0.  0.
590  5.89  0.  0.  0.
591  5.90  0.  0.  0.
592  5.91  0.  0.  0.
593  5.92  0.  0.  0.
594  5.93  0.  0.  0.
595  5.94  0.  0.  0.
596  5.95  0.  0.  0.
597  5.96  0.  0.  0.
598  5.97  0.  0.  0.
599  5.98  0.  0.  0.
600  5.99  0.  0.  0.
1                         1.7256112743390E+01  2.9922618348898E+00
1  0.0000000000000E+00 -1.4486497529331E-08  4.7757957907790E-08
2  1.0000000000000E-02  3.9119246653121E-03 -7.9225644703566E-04
3  2.0000000000000E-02  1.5621732114085E-02 -3.1721505954214E-03
4  3.0000000000000E-02  3.5051465532300E-02 -7.1483245610137E-03
5  4.0000000000000E-02  6.2071017039730E-02 -1.2732774334520E-02
6  5.0000000000000E-02  9.6497894964195E-02 -1.9937354418136E-02
7  6.0000000000000E-02  1.3809697052634E-01 -2.8769111727964E-02
8  7.0000000000000E-02  1.8658027271703E-01 -3.9224665899033E-02
9  8.0000000000000E-02  2.4160691463598E-01 -5.1283900887683E-02
10  9.0000000000000E-02  3.0278324542409E-01 -6.4903270491225E-02
11  1.0000000000000E-01  3.6966332862846E-01 -8.0009046596007E-02
12  1.1000000000000E-01  4.4174985000092E-01 -9.6490852521854E-02
13  1.2000000000000E-01  5.1849555512709E-01 -1.1419582409456E-01
14  1.3000000000000E-01  5.9930530986227E-01 -1.3292372786007E-01
15  1.4000000000000E-01  6.8353886444559E-01 -1.5242333944721E-01
16  1.5000000000000E-01  7.7051438567792E-01 -1.7239034626041E-01
17  1.6000000000000E-01  8.5951280116025E-01 -1.9246698866869E-01
18  1.7000000000000E-01  9.4978297592654E-01 -2.1224359430159E-01
19  1.8000000000000E-01  1.0405477156377E+00 -2.3126209298927E-01
20  1.9000000000000E-01  1.1310105627108E+00 -2.4902152761936E-01
21  2.0000000000000E-01  1.2203633233043E+00 -2.6498550128803E-01
22  2.1000000000000E-01  1.3077942349835E+00 -2.7859142629859E-01
23  2.2000000000000E-01  1.3924966581807E+00 -2.8926136856593E-01
24  2.3000000000000E-01  1.4736781502641E+00 -2.9641421452736E-01
25  2.4000000000000E-01  1.5505697600830E+00 -2.9947882931023E-01
26  2.5000000000000E-01  1.6224353641531E+00 -2.9790782699269E-01
27  2.6000000000000E-01  1.6885808539067E+00 -2.9119153832088E-01
28  2.7000000000000E-01  1.7483629772620E+00 -2.7887173980713E-01
29  2.8000000000000E-01  1.8011976375696E+00 -2.6055470185291E-01
30  2.9000000000000E-01  1.8465674589770E+00 -2.3592312300653E-01
31  3.0000000000000E-01  1.8840284394180E+00 -2.0474654271202E-01
32  3.1000000000000E-01  1.9132155305540E+00 -1.6688986538003E-01
33  3.2000000000000E-01  1.9338470076407E+00 -1.2231968319277E-01
34  3.3000000000000E-01  1.9457275208026E+00 -7.1108152072584E-02
35  3.4000000000000E-01  1.9487497517559E+00 -1.3434252524782E-02
36  3.5000000000000E-01  1.9428946356083E+00  5.0417647991855E-02
37  3.6000000000000E-01  1.9282301448591E+00  1.2006192486386E-01
38  3.7000000000000E-01  1.9049086708954E+00  1.9501842082890E-01
39  3.8000000000000E-01  1.8731630758477E+00  2.7472157839152E-01
40  3.9000000000000E-01  1.8333015233416E+00  3.5853170918603E-01
41  4.0000000000000E-01  1.7857012292226E+00  4.4574805355595E-01
42  4.1000000000000E-01  1.7308013015616E+00  5.3562321924240E-01
43  4.2000000000000E-01  1.6690948621615E+00  6.2737853771547E-01
44  4.3000000000000E-01  1.6011206585097E+00  7.2021984250601E-01
45  4.4000000000000E-01  1.5274543850205E+00  8.1335315749448E-01
46  4.5000000000000E-01  1.4486999350788E+00  9.0599978544681E-01
47  4.6000000000000E-01  1.3654808006812E+00  9.9741030841367E-01
48  4.7000000000000E-01  1.2784318245013E+00  1.0868770514746E+00
49  4.8000000000000E-01  1.1881914903663E+00  1.1737446185284E+00
50  4.9000000000000E-01  1.0953949130848E+00  1.2574181815406E+00
51  5.0000000000000E-01  1.0006676582006E+00  1.3373692903428E+00
52  5.1000000000000E-01  9.0462048766329E-01  1.4131390656887E+00
53  5.2000000000000E-01  8.0784508989205E-01  1.4843387402953E+00
54  5.3000000000000E-01  7.1091081364760E-01  1.5506476172178E+00
55  5.4000000000000E-01  6.1436238599933E-01  1.6118086181323E+00
56  5.5000000000000E-01  5.1871855696522E-01  1.6676216919150E+00
57  5.6000000000000E-01  4.2447157854882E-01  1.7179354424313E+00
58  5.7000000000000E-01  3.3208739524792E-01  1.7626374101103E+00
59  5.8000000000000E-01  2.4200639784858E-01  1.8016435015241E+00
60  5.9000000000000E-01  1.5464457343207E-01  1.8348871022494E+00
61  6.0000000000000E-01  7.0394872753248E-02  1.8623084288661E+00
62  6.1000000000000E-01 -1.0371388035741E-02  1.8838446749011E+00
63  6.2000000000000E-01 -8.7303270767084E-02  1.8994214825456E+00
64  6.3000000000000E-01 -1.6006927198748E-01  1.9089462275510E+00
65  6.4000000000000E-01 -2.2835684286040E-01  1.9123035401836E+00
66  6.5000000000000E-01 -2.9187249713218E-01  1.9093534025585E+00
67  6.6000000000000E-01 -3.5034260155319E-01  1.8999320648478E+00
68  6.7000000000000E-01 -4.0351490822476E-01  1.8838559130810E+00
69  6.8000000000000E-01 -4.5116085030692E-01  1.8609283032774E+00
70  6.9000000000000E-01 -4.9307858276371E-01  1.8309492544515E+00
71  7.0000000000000E-01 -5.2909670977759E-01  1.7937277707224E+00
72  7.1000000000000E-01 -5.5907860152138E-01  1.7490964442981E+00
73  7.2000000000000E-01 -5.8292716644249E-01  1.6969278802406E+00
74  7.3000000000000E-01 -6.0058991222083E-01  1.6371523838978E+00
75  7.4000000000000E-01 -6.1206410004730E-01  1.5697762654239E+00
76  7.5000000000000E-01 -6.1740177349498E-01  1.4949000448477E+00
77  7.6000000000000E-01 -6.1671442540061E-01  1.4127357868487E+00
78  7.7000000000000E-01 -6.1017705389378E-01  1.3236227570107E+00
79  7.8000000000000E-01 -5.9803135173271E-01  1.2280405701952E+00
80  7.9000000000000E-01 -5.8058777082462E-01  1.1266189952031E+00
81  8.0000000000000E-01 -5.5822620530650E-01  1.0201435856186E+00
82  8.1000000000000E-01 -5.3139504062468E-01  9.0955632133726E-01
83  8.2000000000000E-01 -5.0060832120614E-01  7.9595046472987E-01
84  8.3000000000000E-01 -4.6644079386828E-01  6.8055885502061E-01
85  8.4000000000000E-01 -4.2952058619990E-01  5.6473487907677E-01
86  8.5000000000000E-01 -3.9051927677416E-01  4.4992536088266E-01
87  8.6000000000000E-01 -3.5013910515776E-01  3.3763459971918E-01
88  8.7000000000000E-01 -3.0909705217027E-01  2.2937875262605E-01
89  8.8000000000000E-01 -2.6810549265594E-01  1.2662969425371E-01
90  8.9000000000000E-01 -2.2784908148448E-01  3.0747388393155E-02
91  9.0000000000000E-01 -1.8895750176625E-01 -5.7100236185315E-02
92  9.1000000000000E-01 -1.5197433949662E-01 -1.3602832110472E-01
93  9.2000000000000E-01 -1.1734811859008E-01 -2.0543645519132E-01
94  9.3000000000000E-01 -8.5458248973086E-02 -2.6488372578298E-01
95  9.4000000000000E-01 -5.6616251100399E-02 -3.1407355976909E-01
96  9.5000000000000E-01 -3.1060076129505E-02 -3.5286910041314E-01
97  9.6000000000000E-01 -8.9500421087018E-03 -3.8130463057296E-01
98  9.7000000000000E-01  9.6334005283831E-03 -3.9959239757731E-01
99  9.8000000000000E-01  2.4689945623739E-02 -4.0812446699626E-01
100  9.9000000000000E-01  3.6297676264707E-02 -4.0746937209347E-01
101  1.0000000000000E+00  4.4609268146010E-02 -3.9836349702421E-01
102  1.0100000000000E+00  4.9846203362821E-02 -3.8169729484794E-01
103  1.0200000000000E+00  5.2291113292153E-02 -3.5849662171357E-01
104  1.0300000000000E+00  5.2278428889828E-02 -3.2989962681317E-01
105  1.0400000000000E+00  5.0183574493236E-02 -2.9712979356369E-01
106  1.0500000000000E+00  4.6410991230997E-02 -2.6146586206682E-01
107  1.0600000000000E+00  4.1381318018616E-02 -2.2420947634324E-01
108  1.0700000000000E+00  3.5518089992001E-02 -1.8665148677948E-01
109  1.0800000000000E+00  2.9234337839389E-02 -1.5003790271911E-01
110  1.0900000000000E+00  2.2919464153283E-02 -1.1553646834846E-01
111  1.1000000000000E+00  1.6921978895308E-02 -8.4193292171047E-02
112  1.1100000000000E+00  1.1511097625521E-02 -5.6836507585349E-02
113  1.1200000000000E+00  6.9557248020003E-03 -3.4266981666993E-02
114  1.1300000000000E+00  3.4638424509130E-03 -1.7114807010647E-02
115  1.1400000000000E+00  1.1616906618551E-03 -5.7871174083368E-03
116  1.1500000000000E+00  1.0205349109468E-04 -5.1555474942749E-04
117  1.1600000000000E+00 -3.5269461780779E-06  1.7988507723351E-05
118  1.1700000000000E+00 -6.4500168599647E-07  3.2433989352049E-06
119  1.18 -0.  0.
120  1.19  0.  0.
121  1.20  0.  0.
122  1.21  0.  0.
123  1.22  0.  0.
124  1.23  0.  0.
125  1.24  0.  0.
126  1.25  0.  0.
127  1.26  0.  0.
128  1.27  0.  0.
129  1.28  0.  0.
130  1.29  0.  0.
131  1.30  0.  0.
132  1.31  0.  0.
133  1.32  0.  0.
134  1.33  0.  0.
135  1.34  0.  0.
136  1.35  0.  0.
137  1.36  0.  0.
138  1.37  0.  0.
139  1.38  0.  0.
140  1.39  0.  0.
141  1.40  0.  0.
142  1.41  0.  0.
143  1.42  0.  0.
144  1.43  0.  0.
145  1.44  0.  0.
146  1.45  0.  0.
147  1.46  0.  0.
148  1.47  0.  0.
149  1.48  0.  0.
150  1.49  0.  0.
151  1.50  0.  0.
152  1.51  0.  0.
153  1.52  0.  0.
154  1.53  0.  0.
155  1.54  0.  0.
156  1.55  0.  0.
157  1.56  0.  0.
158  1.57  0.  0.
159  1.58  0.  0.
160  1.59  0.  0.
161  1.60  0.  0.
162  1.61  0.  0.
163  1.62  0.  0.
164  1.63  0.  0.
165  1.64  0.  0.
166  1.65  0.  0.
167  1.66  0.  0.
168  1.67  0.  0.
169  1.68  0.  0.
170  1.69  0.  0.
171  1.70  0.  0.
172  1.71  0.  0.
173  1.72  0.  0.
174  1.73  0.  0.
175  1.74  0.  0.
176  1.75  0.  0.
177  1.76  0.  0.
178  1.77  0.  0.
179  1.78  0.  0.
180  1.79  0.  0.
181  1.80  0.  0.
182  1.81  0.  0.
183  1.82  0.  0.