Cf    ONCVPSP-4.0.1  r_core=   1.20328   1.25474   1.10001   1.35621
98.0000     38.0000      220322    zatom,zion,pspd
8      11   3     4   600     0    pspcod,pspxc,lmax,lloc,mmax,r2well
5.99000000  5.00000000  0.00000000    rchrg fchrg qchrg
3     2     2     2     0    nproj
1     1           extension_switch
0                         2.1265265481619E+01  3.2302212101930E+00 -1.4220073210993E+00
1  0.0000000000000E+00  5.8223401655511E-09 -3.0304523224167E-08 -2.7099227672966E-07
2  1.0000000000000E-02  1.2293930087654E-01 -6.9287771198698E-05  1.3951057430772E-01
3  2.0000000000000E-02  2.4538804806587E-01 -1.8043608737029E-04  2.7626082250375E-01
4  3.0000000000000E-02  3.6685626496995E-01 -3.6771873832417E-04  4.0756416359752E-01
5  4.0000000000000E-02  4.8685517704864E-01 -6.5050464361318E-04  5.3087922783110E-01
6  5.0000000000000E-02  6.0489793099102E-01 -1.0264688481070E-03  6.4387683836230E-01
7  6.0000000000000E-02  7.2050045134062E-01 -1.4655770012565E-03  7.4450044790169E-01
8  7.0000000000000E-02  8.3318247331933E-01 -1.9050641437135E-03  8.3101818100574E-01
9  8.0000000000000E-02  9.4246878477240E-01 -2.2455983204439E-03  9.0206490372053E-01
10  9.0000000000000E-02  1.0478907031726E+00 -2.3487833765622E-03  9.5667306415488E-01
11  1.0000000000000E-01  1.1489878056599E+00 -2.0361143429945E-03  9.9429140988503E-01
12  1.1000000000000E-01  1.2453099213660E+00 -1.0894542958582E-03  1.0147910791075E+00
13  1.2000000000000E-01  1.3364193860121E+00  7.4694519981892E-04  1.0184589694278E+00
14  1.3000000000000E-01  1.4218935492245E+00  3.7629055879920E-03  1.0059786978768E+00
15  1.4000000000000E-01  1.5013275154375E+00  8.2773373665416E-03  9.7839986480220E-01
16  1.5000000000000E-01  1.5743370899178E+00  1.4631928406395E-02  9.3709670967521E-01
17  1.6000000000000E-01  1.6405618925871E+00  2.3183664086230E-02  8.8371758627519E-01
18  1.7000000000000E-01  1.6996685942088E+00  3.4296376040277E-02  8.2012697704008E-01
19  1.8000000000000E-01  1.7513542223458E+00  4.8331547896111E-02  7.4834200196214E-01
20  1.9000000000000E-01  1.7953494785138E+00  6.5638631328496E-02  6.7046554847624E-01
21  2.0000000000000E-01  1.8314220033124E+00  8.6545143318965E-02  5.8861824962819E-01
22  2.1000000000000E-01  1.8593795231690E+00  1.1134682515015E-01  5.0487156502144E-01
23  2.2000000000000E-01  1.8790728107762E+00  1.4029814507496E-01  4.2118417160946E-01
24  2.3000000000000E-01  1.8903983914174E+00  1.7360341972712E-01  3.3934375080006E-01
25  2.4000000000000E-01  1.8933009291750E+00  2.1140881436791E-01  2.6091606842353E-01
26  2.5000000000000E-01  1.8877752304887E+00  2.5379545942823E-01  1.8720299108739E-01
27  2.6000000000000E-01  1.8738678076111E+00  3.0077389116507E-01  1.1921077456679E-01
28  2.7000000000000E-01  1.8516779510948E+00  3.5227998847971E-01  5.7629607315986E-02
29  2.8000000000000E-01  1.8213582683963E+00  4.0817253709908E-01  2.8250065797163E-03
30  2.9000000000000E-01  1.7831146548100E+00  4.6823250761331E-01 -4.5158741235886E-02
31  3.0000000000000E-01  1.7372056730590E+00  5.3216408661555E-01 -8.6583316811312E-02
32  3.1000000000000E-01  1.6839413287045E+00  5.9959745181576E-01 -1.2198990705112E-01
33  3.2000000000000E-01  1.6236812398615E+00  6.7009323393041E-01 -1.5216255804929E-01
34  3.3000000000000E-01  1.5568322112358E+00  7.4314856181910E-01 -1.7808270372810E-01
35  3.4000000000000E-01  1.4838452339538E+00  8.1820454412030E-01 -2.0087653724694E-01
36  3.5000000000000E-01  1.4052119437733E+00  8.9465500181253E-01 -2.2175714142602E-01
37  3.6000000000000E-01  1.3214605807534E+00  9.7185623283703E-01 -2.4196347888602E-01
38  3.7000000000000E-01  1.2331515030933E+00  1.0491375631385E+00 -2.6269845591792E-01
39  3.8000000000000E-01  1.1408723163710E+00  1.1258124189821E+00 -2.8506831218767E-01
40  3.9000000000000E-01  1.0452326866354E+00  1.2011896437316E+00 -3.1002554971434E-01
41  4.0000000000000E-01  9.4685891155229E-01  1.2745847787382E+00 -3.3831750014831E-01
42  4.1000000000000E-01  8.4638832794478E-01  1.3453310326250E+00 -3.7044244287812E-01
43  4.2000000000000E-01  7.4446363651893E-01  1.4127896758854E+00 -4.0661493394611E-01
44  4.3000000000000E-01  6.4172722527277E-01  1.4763596178615E+00 -4.4674169554096E-01
45  4.4000000000000E-01  5.3881557206040E-01  1.5354859501859E+00 -4.9040905827079E-01
46  4.5000000000000E-01  4.3635380406241E-01  1.5896672737376E+00 -5.3688255553154E-01
47  4.6000000000000E-01  3.3495048759340E-01  1.6384616640285E+00 -5.8511885429529E-01
48  4.7000000000000E-01  2.3519271588618E-01  1.6814911714727E+00 -6.3378978360283E-01
49  4.8000000000000E-01  1.3764155539853E-01  1.7184447968803E+00 -6.8131780531945E-01
50  4.9000000000000E-01  4.2827902993545E-02  1.7490799273633E+00 -7.2592187549125E-01
51  5.0000000000000E-01 -4.8751202727264E-02  1.7732222622551E+00 -7.6567228242042E-01
52  5.1000000000000E-01 -1.3663578235990E-01  1.7907643012284E+00 -7.9855273177928E-01
53  5.2000000000000E-01 -2.2040560539959E-01  1.8016625062671E+00 -8.2252769048066E-01
54  5.3000000000000E-01 -2.9968235539030E-01  1.8059332842962E+00 -8.3561280848926E-01
55  5.4000000000000E-01 -3.7413126724284E-01  1.8036479670795E+00 -8.3594611790633E-01
56  5.5000000000000E-01 -4.4346224308646E-01  1.7949269886047E+00 -8.2185766554532E-01
57  5.6000000000000E-01 -5.0743046203939E-01  1.7799334769436E+00 -7.9193527033467E-01
58  5.7000000000000E-01 -5.6583650747644E-01  1.7588664871227E+00 -7.4508420894266E-01
59  5.8000000000000E-01 -6.1852604256259E-01  1.7319541036803E+00 -6.8057881813798E-01
60  5.9000000000000E-01 -6.6538907087073E-01  1.6994466364352E+00 -5.9810425413456E-01
61  6.0000000000000E-01 -7.0635882370970E-01  1.6616101208622E+00 -4.9778695878402E-01
62  6.1000000000000E-01 -7.4141031929401E-01  1.6187203159311E+00 -3.8021273928315E-01
63  6.2000000000000E-01 -7.7055864107102E-01  1.5710573680732E+00 -2.4643175970833E-01
64  6.3000000000000E-01 -7.9385698340580E-01  1.5189012810457E+00 -9.7950155712953E-02
65  6.4000000000000E-01 -8.1139451246733E-01  1.4625282989345E+00  6.3291596068543E-02
66  6.5000000000000E-01 -8.2329408865776E-01  1.4022082745717E+00  2.3495300931839E-01
67  6.6000000000000E-01 -8.2970989440236E-01  1.3382030594669E+00  4.1433968358833E-01
68  6.7000000000000E-01 -8.3082500772148E-01  1.2707659152287E+00  5.9845987019319E-01
69  6.8000000000000E-01 -8.2684895790375E-01  1.2001419115925E+00  7.8408990336198E-01
70  6.9000000000000E-01 -8.1801529497015E-01  1.1265692437182E+00  9.6784663685416E-01
71  7.0000000000000E-01 -8.0457919964282E-01  1.0502813723923E+00  1.1462648361283E+00
72  7.1000000000000E-01 -7.8681515538796E-01  9.7150986603491E-01  1.3158773563301E+00
73  7.2000000000000E-01 -7.6501469895528E-01  8.9048780363428E-01  1.4732958900296E+00
74  7.3000000000000E-01 -7.3948426083542E-01  8.0745358338803E-01  1.6152900962843E+00
75  7.4000000000000E-01 -7.1054310232611E-01  7.2265497313892E-01  1.7388630219983E+00
76  7.5000000000000E-01 -6.7852135153271E-01  6.3635323565262E-01  1.8413208929009E+00
77  7.6000000000000E-01 -6.4375813669116E-01  5.4882716414262E-01  1.9203355774466E+00
78  7.7000000000000E-01 -6.0659981171794E-01  4.6037687072044E-01  1.9739983030336E+00
79  7.8000000000000E-01 -5.6739826585195E-01  3.7132718193007E-01  2.0008635186745E+00
80  7.9000000000000E-01 -5.2650930660742E-01  2.8203051031198E-01  1.9999821386300E+00
81  8.0000000000000E-01 -4.8429110292363E-01  1.9286908795496E-01  1.9709237532878E+00
82  8.1000000000000E-01 -4.4110267325511E-01  1.0425646601067E-01  1.9137877417524E+00
83  8.2000000000000E-01 -3.9730240125008E-01  1.6638201840656E-02  1.8292035498851E+00
84  8.3000000000000E-01 -3.5324655943889E-01 -6.9508328568048E-02  1.7183206925419E+00
85  8.4000000000000E-01 -3.0928781880477E-01 -1.5367504248485E-01  1.5827892845926E+00
86  8.5000000000000E-01 -2.6577371902638E-01 -2.3532522799865E-01  1.4247320877527E+00
87  8.6000000000000E-01 -2.2304507034504E-01 -3.1389662649995E-01  1.2467091660284E+00
88  8.7000000000000E-01 -1.8143425319755E-01 -3.8880556458024E-01  1.0516762595536E+00
89  8.8000000000000E-01 -1.4126337574483E-01 -4.5945219380930E-01  8.4293790386785E-01
90  8.9000000000000E-01 -1.0284224200366E-01 -5.2522692072281E-01  6.2409612961970E-01
91  9.0000000000000E-01 -6.6466074248908E-02 -5.8551814424536E-01  3.9899526780922E-01
92  9.1000000000000E-01 -3.2412922507659E-02 -6.3972146469387E-01  1.7166295064376E-01
93  9.2000000000000E-01 -9.4068114476356E-04 -6.8725058836928E-01 -5.3753168687663E-02
94  9.3000000000000E-01  2.7716382410375E-02 -7.2755022536683E-01 -2.7305415843493E-01
95  9.4000000000000E-01  5.3351698950487E-02 -7.6011136636966E-01 -4.8206604180861E-01
96  9.5000000000000E-01  7.5791200508454E-02 -7.8448942751358E-01 -6.7672654736196E-01
97  9.6000000000000E-01  9.4899008822479E-02 -8.0032587155298E-01 -8.5318655398378E-01
98  9.7000000000000E-01  1.1058418745584E-01 -8.0737404917376E-01 -1.0079317227505E+00
99  9.8000000000000E-01  1.2280876277574E-01 -8.0553015693148E-01 -1.1379312923961E+00
100  9.9000000000000E-01  1.3159724954250E-01 -7.9487038246717E-01 -1.2408226958045E+00
101  1.0000000000000E+00  1.3704793467267E-01 -7.7569544394161E-01 -1.3151422967823E+00
102  1.0100000000000E+00  1.3934616519959E-01 -7.4858378319178E-01 -1.3606139658810E+00
103  1.0200000000000E+00  1.3876361545460E-01 -7.1439456241845E-01 -1.3782577487232E+00
104  1.0300000000000E+00  1.3561300681613E-01 -6.7410701441580E-01 -1.3698077641280E+00
105  1.0400000000000E+00  1.3022501068597E-01 -6.2874141143799E-01 -1.3374054729960E+00
106  1.0500000000000E+00  1.2294327510987E-01 -5.7934680478724E-01 -1.2835505673126E+00
107  1.0600000000000E+00  1.1411937336487E-01 -5.2698839895263E-01 -1.2110476153252E+00
108  1.0700000000000E+00  1.0410758037587E-01 -4.7273417585657E-01 -1.1229474124483E+00
109  1.0800000000000E+00  9.3259525752819E-02 -4.1764090887806E-01 -1.0224840702319E+00
110  1.0900000000000E+00  8.1918810051343E-02 -3.6273984239168E-01 -9.1300939699079E-01
111  1.1000000000000E+00  7.0415673896970E-02 -3.0902232075715E-01 -7.9792612242380E-01
112  1.1100000000000E+00  5.9061811749632E-02 -2.5742565624814E-01 -6.8062149847927E-01
113  1.1200000000000E+00  4.8145422389365E-02 -2.0881952506800E-01 -5.6440275678032E-01
114  1.1300000000000E+00  3.7926565163007E-02 -1.6399310770546E-01 -4.5243594530848E-01
115  1.1400000000000E+00  2.8633056942545E-02 -1.2364370165758E-01 -3.4768856592540E-01
116  1.1500000000000E+00  2.0449851832288E-02 -8.8343867627384E-02 -2.5291581348090E-01
117  1.1600000000000E+00  1.3517918240167E-02 -5.8535745814095E-02 -1.7059533494579E-01
118  1.1700000000000E+00  7.9622882869102E-03 -3.4626915274166E-02 -1.0273394037310E-01
119  1.1800000000000E+00  3.8596031254843E-03 -1.6890258440671E-02 -5.1018896698947E-02
120  1.1900000000000E+00  1.2354288378677E-03 -5.4513573883765E-03 -1.6766766076206E-02
121  1.2000000000000E+00  9.0763140205753E-05 -4.0488495423577E-04 -1.2693646772495E-03
122  1.2100000000000E+00 -2.4934378487821E-06  1.1193278341362E-05  3.5486895145528E-05
123  1.2200000000000E+00 -8.1797907858737E-07  3.6320894699198E-06  1.1303376850512E-05
124  1.23 -0.  0. -0.
125  1.24  0.  0.  0.
126  1.25  0.  0.  0.
127  1.26  0.  0.  0.
128  1.27  0.  0.  0.
129  1.28  0.  0.  0.
130  1.29  0.  0.  0.
131  1.30  0.  0.  0.
132  1.31  0.  0.  0.
133  1.32  0.  0.  0.
134  1.33  0.  0.  0.
135  1.34  0.  0.  0.
136  1.35  0.  0.  0.
137  1.36  0.  0.  0.
138  1.37  0.  0.  0.
139  1.38  0.  0.  0.
140  1.39  0.  0.  0.
141  1.40  0.  0.  0.
142  1.41  0.  0.  0.
143  1.42  0.  0.  0.
144  1.43  0.  0.  0.
145  1.44  0.  0.  0.
146  1.45  0.  0.  0.
147  1.46  0.  0.  0.
148  1.47  0.  0.  0.
149  1.48  0.  0.  0.
150  1.49  0.  0.  0.
151  1.50  0.  0.  0.
152  1.51  0.  0.  0.
153  1.52  0.  0.  0.
154  1.53  0.  0.  0.
155  1.54  0.  0.  0.
156  1.55  0.  0.  0.
157  1.56  0.  0.  0.
158  1.57  0.  0.  0.
159  1.58  0.  0.  0.
160  1.59  0.  0.  0.
161  1.60  0.  0.  0.
162  1.61  0.  0.  0.
163  1.62  0.  0.  0.
164  1.63  0.  0.  0.
165  1.64  0.  0.  0.
166  1.65  0.  0.  0.
167  1.66  0.  0.  0.
168  1.67  0.  0.  0.
169  1.68  0.  0.  0.
170  1.69  0.  0.  0.
171  1.70  0.  0.  0.
172  1.71  0.  0.  0.
173  1.72  0.  0.  0.
174  1.73  0.  0.  0.
175  1.74  0.  0.  0.
176  1.75  0.  0.  0.
177  1.76  0.  0.  0.
178  1.77  0.  0.  0.
179  1.78  0.  0.  0.
180  1.79  0.  0.  0.
181  1.80  0.  0.  0.
182  1.81  0.  0.  0.
183  1.82  0.  0.  0.
184  1.83  0.  0.  0.
185  1.84  0.  0.  0.
186  1.85  0.  0.  0.
187  1.86  0.  0.  0.
188  1.87  0.  0.  0.
189  1.88  0.  0.  0.
190  1.89  0.  0.  0.
191  1.90  0.  0.  0.
192  1.91  0.  0.  0.
193  1.92  0.  0.  0.
194  1.93  0.  0.  0.
195  1.94  0.  0.  0.
196  1.95  0.  0.  0.
197  1.96  0.  0.  0.
198  1.97  0.  0.  0.
199  1.98  0.  0.  0.
200  1.99  0.  0.  0.
201  2.00  0.  0.  0.
202  2.01  0.  0.  0.
203  2.02  0.  0.  0.
204  2.03  0.  0.  0.
205  2.04  0.  0.  0.
206  2.05  0.  0.  0.
207  2.06  0.  0.  0.
208  2.07  0.  0.  0.
209  2.08  0.  0.  0.
210  2.09  0.  0.  0.
211  2.10  0.  0.  0.
212  2.11  0.  0.  0.
213  2.12  0.  0.  0.
214  2.13  0.  0.  0.
215  2.14  0.  0.  0.
216  2.15  0.  0.  0.
217  2.16  0.  0.  0.
218  2.17  0.  0.  0.
219  2.18  0.  0.  0.
220  2.19  0.  0.  0.
221  2.20  0.  0.  0.
222  2.21  0.  0.  0.
223  2.22  0.  0.  0.
224  2.23  0.  0.  0.
225  2.24  0.  0.  0.
226  2.25  0.  0.  0.
227  2.26  0.  0.  0.
228  2.27  0.  0.  0.
229  2.28  0.  0.  0.
230  2.29  0.  0.  0.
231  2.30  0.  0.  0.
232  2.31  0.  0.  0.
233  2.32  0.  0.  0.
234  2.33  0.  0.  0.
235  2.34  0.  0.  0.
236  2.35  0.  0.  0.
237  2.36  0.  0.  0.
238  2.37  0.  0.  0.
239  2.38  0.  0.  0.
240  2.39  0.  0.  0.
241  2.40  0.  0.  0.
242  2.41  0.  0.  0.
243  2.42  0.  0.  0.
244  2.43  0.  0.  0.
245  2.44  0.  0.  0.
246  2.45  0.  0.  0.
247  2.46  0.  0.  0.
248  2.47  0.  0.  0.
249  2.48  0.  0.  0.
250  2.49  0.  0.  0.
251  2.50  0.  0.  0.
252  2.51  0.  0.  0.
253  2.52  0.  0.  0.
254  2.53  0.  0.  0.
255  2.54  0.  0.  0.
256  2.55  0.  0.  0.
257  2.56  0.  0.  0.
258  2.57  0.  0.  0.
259  2.58  0.  0.  0.
260  2.59  0.  0.  0.
261  2.60  0.  0.  0.
262  2.61  0.  0.  0.
263  2.62  0.  0.  0.
264  2.63  0.  0.  0.
265  2.64  0.  0.  0.
266  2.65  0.  0.  0.
267  2.66  0.  0.  0.
268  2.67  0.  0.  0.
269  2.68  0.  0.  0.
270  2.69  0.  0.  0.
271  2.70  0.  0.  0.
272  2.71  0.  0.  0.
273  2.72  0.  0.  0.
274  2.73  0.  0.  0.
275  2.74  0.  0.  0.
276  2.75  0.  0.  0.
277  2.76  0.  0.  0.
278  2.77  0.  0.  0.
279  2.78  0.  0.  0.
280  2.79  0.  0.  0.
281  2.80  0.  0.  0.
282  2.81  0.  0.  0.
283  2.82  0.  0.  0.
284  2.83  0.  0.  0.
285  2.84  0.  0.  0.
286  2.85  0.  0.  0.
287  2.86  0.  0.  0.
288  2.87  0.  0.  0.
289  2.88  0.  0.  0.
290  2.89  0.  0.  0.
291  2.90  0.  0.  0.
292  2.91  0.  0.  0.
293  2.92  0.  0.  0.
294  2.93  0.  0.  0.
295  2.94  0.  0.  0.
296  2.95  0.  0.  0.
297  2.96  0.  0.  0.
298  2.97  0.  0.  0.
299  2.98  0.  0.  0.
300  2.99  0.  0.  0.
301  3.00  0.  0.  0.
302  3.01  0.  0.  0.
303  3.02  0.  0.  0.
304  3.03  0.  0.  0.
305  3.04  0.  0.  0.
306  3.05  0.  0.  0.
307  3.06  0.  0.  0.
308  3.07  0.  0.  0.
309  3.08  0.  0.  0.
310  3.09  0.  0.  0.
311  3.10  0.  0.  0.
312  3.11  0.  0.  0.
313  3.12  0.  0.  0.
314  3.13  0.  0.  0.
315  3.14  0.  0.  0.
316  3.15  0.  0.  0.
317  3.16  0.  0.  0.
318  3.17  0.  0.  0.
319  3.18  0.  0.  0.
320  3.19  0.  0.  0.
321  3.20  0.  0.  0.
322  3.21  0.  0.  0.
323  3.22  0.  0.  0.
324  3.23  0.  0.  0.
325  3.24  0.  0.  0.
326  3.25  0.  0.  0.
327  3.26  0.  0.  0.
328  3.27  0.  0.  0.
329  3.28  0.  0.  0.
330  3.29  0.  0.  0.
331  3.30  0.  0.  0.
332  3.31  0.  0.  0.
333  3.32  0.  0.  0.
334  3.33  0.  0.  0.
335  3.34  0.  0.  0.
336  3.35  0.  0.  0.
337  3.36  0.  0.  0.
338  3.37  0.  0.  0.
339  3.38  0.  0.  0.
340  3.39  0.  0.  0.
341  3.40  0.  0.  0.
342  3.41  0.  0.  0.
343  3.42  0.  0.  0.
344  3.43  0.  0.  0.
345  3.44  0.  0.  0.
346  3.45  0.  0.  0.
347  3.46  0.  0.  0.
348  3.47  0.  0.  0.
349  3.48  0.  0.  0.
350  3.49  0.  0.  0.
351  3.50  0.  0.  0.
352  3.51  0.  0.  0.
353  3.52  0.  0.  0.
354  3.53  0.  0.  0.
355  3.54  0.  0.  0.
356  3.55  0.  0.  0.
357  3.56  0.  0.  0.
358  3.57  0.  0.  0.
359  3.58  0.  0.  0.
360  3.59  0.  0.  0.
361  3.60  0.  0.  0.
362  3.61  0.  0.  0.
363  3.62  0.  0.  0.
364  3.63  0.  0.  0.
365  3.64  0.  0.  0.
366  3.65  0.  0.  0.
367  3.66  0.  0.  0.
368  3.67  0.  0.  0.
369  3.68  0.  0.  0.
370  3.69  0.  0.  0.
371  3.70  0.  0.  0.
372  3.71  0.  0.  0.
373  3.72  0.  0.  0.
374  3.73  0.  0.  0.
375  3.74  0.  0.  0.
376  3.75  0.  0.  0.
377  3.76  0.  0.  0.
378  3.77  0.  0.  0.
379  3.78  0.  0.  0.
380  3.79  0.  0.  0.
381  3.80  0.  0.  0.
382  3.81  0.  0.  0.
383  3.82  0.  0.  0.
384  3.83  0.  0.  0.
385  3.84  0.  0.  0.
386  3.85  0.  0.  0.
387  3.86  0.  0.  0.
388  3.87  0.  0.  0.
389  3.88  0.  0.  0.
390  3.89  0.  0.  0.
391  3.90  0.  0.  0.
392  3.91  0.  0.  0.
393  3.92  0.  0.  0.
394  3.93  0.  0.  0.
395  3.94  0.  0.  0.
396  3.95  0.  0.  0.
397  3.96  0.  0.  0.
398  3.97  0.  0.  0.
399  3.98  0.  0.  0.
400  3.99  0.  0.  0.
401  4.00  0.  0.  0.
402  4.01  0.  0.  0.
403  4.02  0.  0.  0.
404  4.03  0.  0.  0.
405  4.04  0.  0.  0.
406  4.05  0.  0.  0.
407  4.06  0.  0.  0.
408  4.07  0.  0.  0.
409  4.08  0.  0.  0.
410  4.09  0.  0.  0.
411  4.10  0.  0.  0.
412  4.11  0.  0.  0.
413  4.12  0.  0.  0.
414  4.13  0.  0.  0.
415  4.14  0.  0.  0.
416  4.15  0.  0.  0.
417  4.16  0.  0.  0.
418  4.17  0.  0.  0.
419  4.18  0.  0.  0.
420  4.19  0.  0.  0.
421  4.20  0.  0.  0.
422  4.21  0.  0.  0.
423  4.22  0.  0.  0.
424  4.23  0.  0.  0.
425  4.24  0.  0.  0.
426  4.25  0.  0.  0.
427  4.26  0.  0.  0.
428  4.27  0.  0.  0.
429  4.28  0.  0.  0.
430  4.29  0.  0.  0.
431  4.30  0.  0.  0.
432  4.31  0.  0.  0.
433  4.32  0.  0.  0.
434  4.33  0.  0.  0.
435  4.34  0.  0.  0.
436  4.35  0.  0.  0.
437  4.36  0.  0.  0.
438  4.37  0.  0.  0.
439  4.38  0.  0.  0.
440  4.39  0.  0.  0.
441  4.40  0.  0.  0.
442  4.41  0.  0.  0.
443  4.42  0.  0.  0.
444  4.43  0.  0.  0.
445  4.44  0.  0.  0.
446  4.45  0.  0.  0.
447  4.46  0.  0.  0.
448  4.47  0.  0.  0.
449  4.48  0.  0.  0.
450  4.49  0.  0.  0.
451  4.50  0.  0.  0.
452  4.51  0.  0.  0.
453  4.52  0.  0.  0.
454  4.53  0.  0.  0.
455  4.54  0.  0.  0.
456  4.55  0.  0.  0.
457  4.56  0.  0.  0.
458  4.57  0.  0.  0.
459  4.58  0.  0.  0.
460  4.59  0.  0.  0.
461  4.60  0.  0.  0.
462  4.61  0.  0.  0.
463  4.62  0.  0.  0.
464  4.63  0.  0.  0.
465  4.64  0.  0.  0.
466  4.65  0.  0.  0.
467  4.66  0.  0.  0.
468  4.67  0.  0.  0.
469  4.68  0.  0.  0.
470  4.69  0.  0.  0.
471  4.70  0.  0.  0.
472  4.71  0.  0.  0.
473  4.72  0.  0.  0.
474  4.73  0.  0.  0.
475  4.74  0.  0.  0.
476  4.75  0.  0.  0.
477  4.76  0.  0.  0.
478  4.77  0.  0.  0.
479  4.78  0.  0.  0.
480  4.79  0.  0.  0.
481  4.80  0.  0.  0.
482  4.81  0.  0.  0.
483  4.82  0.  0.  0.
484  4.83  0.  0.  0.
485  4.84  0.  0.  0.
486  4.85  0.  0.  0.
487  4.86  0.  0.  0.
488  4.87  0.  0.  0.
489  4.88  0.  0.  0.
490  4.89  0.  0.  0.
491  4.90  0.  0.  0.
492  4.91  0.  0.  0.
493  4.92  0.  0.  0.
494  4.93  0.  0.  0.
495  4.94  0.  0.  0.
496  4.95  0.  0.  0.
497  4.96  0.  0.  0.
498  4.97  0.  0.  0.
499  4.98  0.  0.  0.
500  4.99  0.  0.  0.
501  5.00  0.  0.  0.
502  5.01  0.  0.  0.
503  5.02  0.  0.  0.
504  5.03  0.  0.  0.
505  5.04  0.  0.  0.
506  5.05  0.  0.  0.
507  5.06  0.  0.  0.
508  5.07  0.  0.  0.
509  5.08  0.  0.  0.
510  5.09  0.  0.  0.
511  5.10  0.  0.  0.
512  5.11  0.  0.  0.
513  5.12  0.  0.  0.
514  5.13  0.  0.  0.
515  5.14  0.  0.  0.
516  5.15  0.  0.  0.
517  5.16  0.  0.  0.
518  5.17  0.  0.  0.
519  5.18  0.  0.  0.
520  5.19  0.  0.  0.
521  5.20  0.  0.  0.
522  5.21  0.  0.  0.
523  5.22  0.  0.  0.
524  5.23  0.  0.  0.
525  5.24  0.  0.  0.
526  5.25  0.  0.  0.
527  5.26  0.  0.  0.
528  5.27  0.  0.  0.
529  5.28  0.  0.  0.
530  5.29  0.  0.  0.
531  5.30  0.  0.  0.
532  5.31  0.  0.  0.
533  5.32  0.  0.  0.
534  5.33  0.  0.  0.
535  5.34  0.  0.  0.
536  5.35  0.  0.  0.
537  5.36  0.  0.  0.
538  5.37  0.  0.  0.
539  5.38  0.  0.  0.
540  5.39  0.  0.  0.
541  5.40  0.  0.  0.
542  5.41  0.  0.  0.
543  5.42  0.  0.  0.
544  5.43  0.  0.  0.
545  5.44  0.  0.  0.
546  5.45  0.  0.  0.
547  5.46  0.  0.  0.
548  5.47  0.  0.  0.
549  5.48  0.  0.  0.
550  5.49  0.  0.  0.
551  5.50  0.  0.  0.
552  5.51  0.  0.  0.
553  5.52  0.  0.  0.
554  5.53  0.  0.  0.
555  5.54  0.  0.  0.
556  5.55  0.  0.  0.
557  5.56  0.  0.  0.
558  5.57  0.  0.  0.
559  5.58  0.  0.  0.
560  5.59  0.  0.  0.
561  5.60  0.  0.  0.
562  5.61  0.  0.  0.
563  5.62  0.  0.  0.
564  5.63  0.  0.  0.
565  5.64  0.  0.  0.
566  5.65  0.  0.  0.
567  5.66  0.  0.  0.
568  5.67  0.  0.  0.
569  5.68  0.  0.  0.
570  5.69  0.  0.  0.
571  5.70  0.  0.  0.
572  5.71  0.  0.  0.
573  5.72  0.  0.  0.
574  5.73  0.  0.  0.
575  5.74  0.  0.  0.
576  5.75  0.  0.  0.
577  5.76  0.  0.  0.
578  5.77  0.  0.  0.
579  5.78  0.  0.  0.
580  5.79  0.  0.  0.
581  5.80  0.  0.  0.
582  5.81  0.  0.  0.
583  5.82  0.  0.  0.
584  5.83  0.  0.  0.
585  5.84  0.  0.  0.
586  5.85  0.  0.  0.
587  5.86  0.  0.  0.
588  5.87  0.  0.  0.
589  5.88  0.  0.  0.
590  5.89  0.  0.  0.
591  5.90  0.  0.  0.
592  5.91  0.  0.  0.
593  5.92  0.  0.  0.
594  5.93  0.  0.  0.
595  5.94  0.  0.  0.
596  5.95  0.  0.  0.
597  5.96  0.  0.  0.
598  5.97  0.  0.  0.
599  5.98  0.  0.  0.
600  5.99  0.  0.  0.
1                         1.1802582886671E+01  1.5242877193402E+00
1  0.0000000000000E+00 -3.5324157487970E-09  2.3795477782640E-08
2  1.0000000000000E-02  3.9047257110236E-03  1.6312371784316E-05
3  2.0000000000000E-02  1.5589433240461E-02  5.9168141094256E-05
4  3.0000000000000E-02  3.4965836875832E-02  1.1075496610639E-04
5  4.0000000000000E-02  6.1887206956715E-02  1.4280896029887E-04
6  5.0000000000000E-02  9.6148999552312E-02  1.1869546861021E-04
7  6.0000000000000E-02  1.3748975727320E-01 -3.7846114027897E-06
8  7.0000000000000E-02  1.8559229930581E-01 -2.6896574070746E-04
9  8.0000000000000E-02  2.4008522229060E-01 -7.1939245501501E-04
10  9.0000000000000E-02  3.0054473604380E-01 -1.3915443008623E-03
11  1.0000000000000E-01  3.6649685917122E-01 -2.3113726554839E-03
12  1.1000000000000E-01  4.3741999920568E-01 -3.4898212444314E-03
13  1.2000000000000E-01  5.1274793993491E-01 -4.9185068681797E-03
14  1.3000000000000E-01  5.9187325503905E-01 -6.5657358952825E-03
15  1.4000000000000E-01  6.7415116205064E-01 -8.3730254494669E-03
16  1.5000000000000E-01  7.5890382406021E-01 -1.0252286050876E-02
17  1.6000000000000E-01  8.4542509864897E-01 -1.2083805078262E-02
18  1.7000000000000E-01  9.3298572441755E-01 -1.3715148266314E-02
19  1.8000000000000E-01  1.0208389254241E+00 -1.4961070158645E-02
20  1.9000000000000E-01  1.1082264031162E+00 -1.5604494749589E-02
21  2.0000000000000E-01  1.1943846742384E+00 -1.5398595327485E-02
22  2.1000000000000E-01  1.2785517020540E+00 -1.4069968725789E-02
23  2.2000000000000E-01  1.3599737573714E+00 -1.1322864804071E-02
24  2.3000000000000E-01  1.4379124356693E+00 -6.8443980596874E-03
25  2.4000000000000E-01  1.5116517474112E+00 -3.1063585437082E-04
26  2.5000000000000E-01  1.5805051907606E+00  8.6065721594244E-03
27  2.6000000000000E-01  1.6438227096560E+00  2.0232185256141E-02
28  2.7000000000000E-01  1.7009974358531E+00  3.4880167438032E-02
29  2.8000000000000E-01  1.7514721113050E+00  5.2845488772543E-02
30  2.9000000000000E-01  1.7947450873191E+00  7.4396144548189E-02
31  3.0000000000000E-01  1.8303757993874E+00  9.9765409728862E-02
32  3.1000000000000E-01  1.8579896215139E+00  1.2914454498989E-01
33  3.2000000000000E-01  1.8772820112062E+00  1.6267616295073E-01
34  3.3000000000000E-01  1.8880218659922E+00  2.0044844920048E-01
35  3.4000000000000E-01  1.8900540241923E+00  2.4249041265614E-01
36  3.5000000000000E-01  1.8833008565005E+00  2.8876831420803E-01
37  3.6000000000000E-01  1.8677629104154E+00  3.3918339217161E-01
38  3.7000000000000E-01  1.8435185863691E+00  3.9357096862642E-01
39  3.8000000000000E-01  1.8107228421382E+00  4.5170098325891E-01
40  3.9000000000000E-01  1.7696049403573E+00  5.1327996193118E-01
41  4.0000000000000E-01  1.7204652722373E+00  5.7795438703763E-01
42  4.1000000000000E-01  1.6636713084589E+00  6.4531539700203E-01
43  4.2000000000000E-01  1.5996527451910E+00  7.1490470422711E-01
44  4.3000000000000E-01  1.5288959288326E+00  7.8622158562676E-01
45  4.4000000000000E-01  1.4519376569673E+00  8.5873076866599E-01
46  4.5000000000000E-01  1.3693584647710E+00  9.3187100962141E-01
47  4.6000000000000E-01  1.2817755153979E+00  1.0050641404312E+00
48  4.7000000000000E-01  1.1898352194183E+00  1.0777243467313E+00
49  4.8000000000000E-01  1.0942057120084E+00  1.1492674329891E+00
50  4.9000000000000E-01  9.9556931717457E-01  1.2191198313439E+00
51  5.0000000000000E-01  8.9461512581198E-01  1.2867271189084E+00
52  5.1000000000000E-01  7.9203180890177E-01  1.3515618237286E+00
53  5.2000000000000E-01  6.8850077878784E-01  1.4131303219280E+00
54  5.3000000000000E-01  5.8468980046790E-01  1.4709786571681E+00
55  5.4000000000000E-01  4.8124714148699E-01  1.5246971476209E+00
56  5.5000000000000E-01  3.7879633370372E-01  1.5739236841443E+00
57  5.6000000000000E-01  2.7793160333997E-01  1.6183456651401E+00
58  5.7000000000000E-01  1.7921400779448E-01  1.6577005573626E+00
59  5.8000000000000E-01  8.3168299205129E-02  1.6917751163783E+00
60  5.9000000000000E-01 -9.7194837988630E-03  1.7204033440739E+00
61  6.0000000000000E-01 -9.9003712785199E-02  1.7434633021735E+00
62  6.1000000000000E-01 -1.8428018837483E-01  1.7608729388354E+00
63  6.2000000000000E-01 -2.6518653064727E-01  1.7725851188295E+00
64  6.3000000000000E-01 -3.4140200425925E-01  1.7785820754409E+00
65  6.4000000000000E-01 -4.1264685299092E-01  1.7788695231945E+00
66  6.5000000000000E-01 -4.7868122745334E-01  1.7734706840339E+00
67  6.6000000000000E-01 -5.3930379596556E-01  1.7624204852167E+00
68  6.7000000000000E-01 -5.9435013200406E-01  1.7457601846664E+00
69  6.8000000000000E-01 -6.4369097209886E-01  1.7235326688487E+00
70  6.9000000000000E-01 -6.8723043563768E-01  1.6957786496540E+00
71  7.0000000000000E-01 -7.2490429286796E-01  1.6625339607601E+00
72  7.1000000000000E-01 -7.5667835965435E-01  1.6238281211941E+00
73  7.2000000000000E-01 -7.8254708752624E-01  1.5796842952106E+00
74  7.3000000000000E-01 -8.0253240555477E-01  1.5301207341598E+00
75  7.4000000000000E-01 -8.1668285699817E-01  1.4751537388873E+00
76  7.5000000000000E-01 -8.2507305883486E-01  1.4148021315822E+00
77  7.6000000000000E-01 -8.2780349666402E-01  1.3490931750786E+00
78  7.7000000000000E-01 -8.2500065138396E-01  1.2780698266123E+00
79  7.8000000000000E-01 -8.1681743792554E-01  1.2017991630224E+00
80  7.9000000000000E-01 -8.0343392044460E-01  1.1203817663350E+00
81  8.0000000000000E-01 -7.8505825303738E-01  1.0339618133748E+00
82  8.1000000000000E-01 -7.6192778043639E-01  9.4273757109318E-01
83  8.2000000000000E-01 -7.3431021939898E-01  8.4697196103067E-01
84  8.3000000000000E-01 -7.0250482865425E-01  7.4700282183230E-01
85  8.4000000000000E-01 -6.6684346327799E-01  6.4325246781440E-01
86  8.5000000000000E-01 -6.2769139807444E-01  5.3623611377069E-01
87  8.6000000000000E-01 -5.8544779372514E-01  4.2656871076167E-01
88  8.7000000000000E-01 -5.4054566879566E-01  3.1496971353901E-01
89  8.8000000000000E-01 -4.9345122976514E-01  2.0226527626069E-01
90  8.9000000000000E-01 -4.4466239958438E-01  8.9387347775062E-02
91  9.0000000000000E-01 -3.9470637233056E-01 -2.2630890682115E-02
92  9.1000000000000E-01 -3.4413600671705E-01 -1.3266383584313E-01
93  9.2000000000000E-01 -2.9352485389576E-01 -2.3950715142471E-01
94  9.3000000000000E-01 -2.4346059449292E-01 -3.4189701541135E-01
95  9.4000000000000E-01 -1.9453663546290E-01 -4.3853566514809E-01
96  9.5000000000000E-01 -1.4734158844304E-01 -5.2812405273911E-01
97  9.6000000000000E-01 -1.0244631717039E-01 -6.0940251126471E-01
98  9.7000000000000E-01 -6.0388201505789E-02 -6.8120043743472E-01
99  9.8000000000000E-01 -2.1652219090344E-02 -7.4249612033898E-01
100  9.9000000000000E-01  1.3351609645887E-02 -7.9248799668510E-01
101  1.0000000000000E+00  4.4314905974349E-02 -8.3067869939399E-01
102  1.0100000000000E+00  7.1062241570742E-02 -8.5697321846779E-01
103  1.0200000000000E+00  9.3561263821986E-02 -8.7169977726637E-01
104  1.0300000000000E+00  1.1186035432436E-01 -8.7537914762734E-01
105  1.0400000000000E+00  1.2605913382714E-01 -8.6862140332312E-01
106  1.0500000000000E+00  1.3630715065562E-01 -8.5212575632103E-01
107  1.0600000000000E+00  1.4280197660429E-01 -8.2667915759191E-01
108  1.0700000000000E+00  1.4578643240569E-01 -7.9315263294007E-01
109  1.0800000000000E+00  1.4554490309613E-01 -7.5249516153689E-01
110  1.0900000000000E+00  1.4239877815122E-01 -7.0572515351183E-01
111  1.1000000000000E+00  1.3670107332929E-01 -6.5391964385073E-01
112  1.1100000000000E+00  1.2883031402781E-01 -5.9820138466868E-01
113  1.1200000000000E+00  1.1918378157149E-01 -5.3972407965629E-01
114  1.1300000000000E+00  1.0817024315893E-01 -4.7965606005328E-01
115  1.1400000000000E+00  9.6202302882488E-02 -4.1916275003062E-01
116  1.1500000000000E+00  8.3688524776037E-02 -3.5938830945099E-01
117  1.1600000000000E+00  7.1025488615014E-02 -3.0143687168820E-01
118  1.1700000000000E+00  5.8589956100167E-02 -2.4635384569443E-01
119  1.1800000000000E+00  4.6731197219945E-02 -1.9510738121016E-01
120  1.1900000000000E+00  3.5764214438265E-02 -1.4857211335739E-01
121  1.2000000000000E+00  2.5941580939793E-02 -1.0744940681046E-01
122  1.2100000000000E+00  1.7466932547940E-02 -7.2306902979734E-02
123  1.2200000000000E+00  1.0546910525138E-02 -4.3737638392274E-02
124  1.2300000000000E+00  5.3225336696028E-03 -2.2163043539916E-02
125  1.2400000000000E+00  1.8675264208724E-03 -7.8270316432916E-03