Cf    ONCVPSP-4.0.1  r_core=   1.15394   1.15394   1.15394   1.35621
98.0000     38.0000      220309    zatom,zion,pspd
8      11   3     4   600     0    pspcod,pspxc,lmax,lloc,mmax,r2well
5.99000000  5.00000000  0.00000000    rchrg fchrg qchrg
3     2     2     2     0    nproj
1     1           extension_switch
0                         3.1315555517239E+01  4.0648518006318E+00 -1.8709959859196E-01
1  0.0000000000000E+00 -1.0674163108959E-08  3.8709539962323E-08  1.5452527529769E-07
2  1.0000000000000E-02  1.4968746380105E-01 -4.7331293998075E-02 -4.8010398379680E-03
3  2.0000000000000E-02  2.9852742145942E-01 -9.3843360301243E-02 -8.8244247676440E-03
4  3.0000000000000E-02  4.4567853968043E-01 -1.3872848512766E-01 -1.1323321808835E-02
5  4.0000000000000E-02  5.9031174381149E-01 -1.8120169750882E-01 -1.1611392950250E-02
6  5.0000000000000E-02  7.3161613251470E-01 -2.2051143892516E-01 -9.0902129037386E-03
7  6.0000000000000E-02  8.6880464309226E-01 -2.5594942050285E-01 -3.2734085700086E-03
8  7.0000000000000E-02  1.0011193976817E+00 -2.8685944512145E-01  6.1933815745403E-03
9  8.0000000000000E-02  1.1278366712121E+00 -3.1264501049199E-01  1.9517475434953E-02
10  9.0000000000000E-02  1.2482714344494E+00 -3.3277555455717E-01  3.6749607768219E-02
11  1.0000000000000E-01  1.3617814391166E+00 -3.4679125456914E-01  5.7780245418435E-02
12  1.1000000000000E-01  1.4677708263437E+00 -3.5430634383419E-01  8.2341903384109E-02
13  1.2000000000000E-01  1.5656932539622E+00 -3.5501096319949E-01  1.1001738633694E-01
14  1.3000000000000E-01  1.6550545517724E+00 -3.4867161567511E-01  1.4025366174062E-01
15  1.4000000000000E-01  1.7354149262680E+00 -3.3513033999793E-01  1.7238086332125E-01
16  1.5000000000000E-01  1.8063907468562E+00 -3.1430276046286E-01  2.0563573501301E-01
17  1.6000000000000E-01  1.8676559538818E+00 -2.8617520422753E-01  2.3918866263096E-01
18  1.7000000000000E-01  1.9189431343685E+00 -2.5080110210486E-01  2.7217330943695E-01
19  1.8000000000000E-01  1.9600443140797E+00 -2.0829690354339E-01  3.0371777728751E-01
20  1.9000000000000E-01  1.9908115141366E+00 -1.5883774042134E-01  3.3297616065896E-01
21  2.0000000000000E-01  2.0111571170305E+00 -1.0265306727906E-01  3.5915934847078E-01
22  2.1000000000000E-01  2.0210540805710E+00 -4.0022487968551E-02  3.8156395867671E-01
23  2.2000000000000E-01  2.0205360294221E+00  2.8728048834507E-02  3.9959836182465E-01
24  2.3000000000000E-01  2.0096972427973E+00  1.0322953904902E-01  4.1280485945812E-01
25  2.4000000000000E-01  1.9886925441555E+00  1.8307259469427E-01  4.2087722712037E-01
26  2.5000000000000E-01  1.9577370849694E+00  2.6780944322751E-01  4.2367300434679E-01
27  2.6000000000000E-01  1.9171060005295E+00  3.5695525209972E-01  4.2122010881095E-01
28  2.7000000000000E-01  1.8671339020186E+00  4.4998882828820E-01  4.1371756133141E-01
29  2.8000000000000E-01  1.8082141564920E+00  5.4635279325474E-01  4.0153032480046E-01
30  2.9000000000000E-01  1.7407978956373E+00  6.4545338040988E-01  3.8517847507195E-01
31  3.0000000000000E-01  1.6653926859292E+00  7.4666004248552E-01  3.6532112734071E-01
32  3.1000000000000E-01  1.5825607876232E+00  8.4930508818488E-01  3.4273572978847E-01
33  3.2000000000000E-01  1.4929169284109E+00  9.5268358939107E-01  3.1829350026033E-01
34  3.3000000000000E-01  1.3971255198206E+00  1.0560538107209E+00  2.9293191530782E-01
35  3.4000000000000E-01  1.2958972507781E+00  1.1586384114518E+00  2.6762525922568E-01
36  3.5000000000000E-01  1.1899850031438E+00  1.2596266554451E+00  2.4335430015731E-01
37  3.6000000000000E-01  1.0801790483684E+00  1.3581778377896E+00  2.2107617892953E-01
38  3.7000000000000E-01  9.6730150231064E-01  1.4534260982007E+00  2.0169557360548E-01
39  3.8000000000000E-01  8.5220003625497E-01  1.5444867419141E+00  1.8603813994212E-01
40  3.9000000000000E-01  7.3574086558710E-01  1.6304641306302E+00  1.7482712783351E-01
41  4.0000000000000E-01  6.1880106266728E-01  1.7104611410902E+00  1.6866394053816E-01
42  4.1000000000000E-01  5.0226026628712E-01  1.7835901195654E+00  1.6801324256490E-01
43  4.2000000000000E-01  3.8699188575776E-01  1.8489851896431E+00  1.7319304005704E-01
44  4.3000000000000E-01  2.7385392215852E-01  1.9058157010689E+00  1.8436996174211E-01
45  4.4000000000000E-01  1.6367955158675E-01  1.9533005419547E+00  2.0155976684333E-01
46  4.5000000000000E-01  5.7267634437452E-02  1.9907229782392E+00  2.2463290687752E-01
47  4.6000000000000E-01 -4.4626670064963E-02  2.0174456355221E+00  2.5332477888960E-01
48  4.7000000000000E-01 -1.4130099441829E-01  2.0329252016229E+00  2.8725013588161E-01
49  4.8000000000000E-01 -2.3211436373359E-01  2.0367264053746E+00  3.2592097271386E-01
50  4.9000000000000E-01 -3.1649511293704E-01  2.0285348196925E+00  3.6876708826975E-01
51  5.0000000000000E-01 -3.9394793300069E-01  2.0081680457299E+00  4.1515844162309E-01
52  5.1000000000000E-01 -4.6405987172378E-01  1.9755848602211E+00  4.6442837433174E-01
53  5.2000000000000E-01 -5.2650513324933E-01  1.9308919495474E+00  5.1589676421591E-01
54  5.3000000000000E-01 -5.8104854461481E-01  1.8743479106493E+00  5.6889220790757E-01
55  5.4000000000000E-01 -6.2754758657994E-01  1.8063642690339E+00  6.2277239825832E-01
56  5.5000000000000E-01 -6.6595291894148E-01  1.7275033456344E+00  6.7694196504512E-01
57  5.6000000000000E-01 -6.9630736656594E-01  1.6384728945123E+00  7.3086717860108E-01
58  5.7000000000000E-01 -7.1874337034126E-01  1.5401175293051E+00  7.8408707006223E-01
59  5.8000000000000E-01 -7.3347894597855E-01  1.4334070546092E+00  8.3622069203418E-01
60  5.9000000000000E-01 -7.4081223183629E-01  1.3194219156379E+00  8.8697042204554E-01
61  6.0000000000000E-01 -7.4111474344619E-01  1.1993360720290E+00  9.3612139034496E-01
62  6.1000000000000E-01 -7.3482348597686E-01  1.0743976861597E+00  9.8353728544749E-01
63  6.2000000000000E-01 -7.2243210535729E-01  9.4590808962359E-01  1.0291529478243E+00
64  6.3000000000000E-01 -7.0448128319070E-01  8.1519955079073E-01  1.0729642972555E+00
65  6.4000000000000E-01 -6.8154859908528E-01  6.8361240930211E-01  1.1150162466537E+00
66  6.5000000000000E-01 -6.5423809596678E-01  5.5247216814008E-01  1.1553893297733E+00
67  6.6000000000000E-01 -6.2316978889075E-01  4.2306713943855E-01  1.1941858087218E+00
68  6.7000000000000E-01 -5.8896935565062E-01  2.9662722598306E-01  1.2315160277113E+00
69  6.8000000000000E-01 -5.5225823812895E-01  1.7430438664258E-01  1.2674857417845E+00
70  6.9000000000000E-01 -5.1364436715438E-01  5.7155281709966E-02  1.3021850747391E+00
71  7.0000000000000E-01 -4.7371370112723E-01 -5.3873475083288E-02  1.3356796521840E+00
72  7.1000000000000E-01 -4.3302274058998E-01 -1.5795711506260E-01  1.3680043181470E+00
73  7.2000000000000E-01 -3.9209214816847E-01 -2.5440131672267E-01  1.3991596827919E+00
74  7.3000000000000E-01 -3.5140156695638E-01 -3.4264746929263E-01  1.4291115716210E+00
75  7.4000000000000E-01 -3.1138569165414E-01 -4.2227456558795E-01  1.4577932609542E+00
76  7.5000000000000E-01 -2.7243160686021E-01 -4.9299780354468E-01  1.4851101989990E+00
77  7.6000000000000E-01 -2.3487736714371E-01 -5.5466408514830E-01  1.5109467352911E+00
78  7.7000000000000E-01 -1.9901175519681E-01 -6.0724470476380E-01  1.5351742225946E+00
79  7.8000000000000E-01 -1.6507511871513E-01 -6.5082561252982E-01  1.5576597231273E+00
80  7.9000000000000E-01 -1.3326115484958E-01 -6.8559571913431E-01  1.5782744534103E+00
81  8.0000000000000E-01 -1.0371948417771E-01 -7.1183377288729E-01  1.5969010466420E+00
82  8.1000000000000E-01 -7.6558835080586E-02 -7.2989438591781E-01  1.6134387049650E+00
83  8.2000000000000E-01 -5.1850644973028E-02 -7.4019381132620E-01  1.6278053621216E+00
84  8.3000000000000E-01 -2.9632877658843E-02 -7.4319607544516E-01  1.6399360846807E+00
85  8.4000000000000E-01 -9.9138566620691E-03 -7.3940004766578E-01  1.6497771112311E+00
86  8.5000000000000E-01  7.3240769116927E-03 -7.2932798358703E-01  1.6572751669833E+00
87  8.6000000000000E-01  2.2121256354753E-02 -7.1351600492081E-01  1.6623619986678E+00
88  8.7000000000000E-01  3.4537879923971E-02 -6.9250688118532E-01  1.6649344538312E+00
89  8.8000000000000E-01  4.4651814445610E-02 -6.6684535345372E-01  1.6648308817451E+00
90  8.9000000000000E-01  5.2557083322125E-02 -6.3707608896775E-01  1.6618051626089E+00
91  9.0000000000000E-01  5.8363058271298E-02 -6.0374417682276E-01  1.6555002804986E+00
92  9.1000000000000E-01  6.2194312908793E-02 -5.6739786843637E-01  1.6454240474577E+00
93  9.2000000000000E-01  6.4191025515066E-02 -5.2859303097001E-01  1.6309303663443E+00
94  9.3000000000000E-01  6.4509737463639E-02 -4.8789851555518E-01  1.6112102952092E+00
95  9.4000000000000E-01  6.3324182073789E-02 -4.4590134267949E-01  1.5852981546326E+00
96  9.5000000000000E-01  6.0825795074748E-02 -4.0321027120866E-01  1.5520990122492E+00
97  9.6000000000000E-01  5.7223401147765E-02 -3.6045594121256E-01  1.5104450984948E+00
98  9.7000000000000E-01  5.2741439487958E-02 -3.1828535881304E-01  1.4591900704110E+00
99  9.8000000000000E-01  4.7615943114910E-02 -2.7734801778596E-01  1.3973515636041E+00
100  9.9000000000000E-01  4.2087318854206E-02 -2.3827041788913E-01  1.3243141995394E+00
101  1.0000000000000E+00  3.6388792961927E-02 -2.0161517145940E-01  1.2401068310583E+00
102  1.0100000000000E+00  3.0729195586851E-02 -1.6782030963371E-01  1.1457690694782E+00
103  1.0200000000000E+00  2.5277366282095E-02 -1.3715202254801E-01  1.0434791006954E+00
104  1.0300000000000E+00  2.0170842827778E-02 -1.0976297184367E-01  9.3575051465329E-01
105  1.0400000000000E+00  1.5522279437044E-02 -8.5730628821113E-02  8.2503685682746E-01
106  1.0500000000000E+00  1.1418855836834E-02 -6.5061756776889E-02  7.1370776122434E-01
107  1.0600000000000E+00  7.9216816532740E-03 -4.7696301030915E-02  6.0403147603476E-01
108  1.0700000000000E+00  5.0652591238935E-03 -3.3510947739048E-02  4.9816046408696E-01
109  1.0800000000000E+00  2.8570221696135E-03 -2.2322389535720E-02  3.9811942702111E-01
110  1.0900000000000E+00  1.2769452877178E-03 -1.3890236411312E-02  3.0579567861013E-01
111  1.1000000000000E+00  2.6829766595894E-04 -7.8933919719882E-03  2.2294724985950E-01
112  1.1100000000000E+00 -3.0977177719266E-04 -3.7913603360730E-03  1.5127115551130E-01
113  1.1200000000000E+00 -5.1900678374380E-04 -1.3072310107024E-03  9.2121863899619E-02
114  1.1300000000000E+00 -4.4455113785447E-04 -1.3344911860393E-04  4.6702757645567E-02
115  1.1400000000000E+00 -2.2022078893129E-04  1.4294966167272E-04  1.6107924279946E-02
116  1.1500000000000E+00 -2.6749478133986E-05  3.1277921850886E-05  1.4718450466117E-03
117  1.1600000000000E+00  1.0947223261599E-06 -1.5110523694183E-06 -5.2192079735086E-05
118  1.1700000000000E+00  1.5478741525556E-07 -1.6230399877972E-07 -9.1857906792312E-06
119  1.18 -0.  0.  0.
120  1.19  0.  0.  0.
121  1.20  0.  0.  0.
122  1.21  0.  0.  0.
123  1.22  0.  0.  0.
124  1.23  0.  0.  0.
125  1.24  0.  0.  0.
126  1.25  0.  0.  0.
127  1.26  0.  0.  0.
128  1.27  0.  0.  0.
129  1.28  0.  0.  0.
130  1.29  0.  0.  0.
131  1.30  0.  0.  0.
132  1.31  0.  0.  0.
133  1.32  0.  0.  0.
134  1.33  0.  0.  0.
135  1.34  0.  0.  0.
136  1.35  0.  0.  0.
137  1.36  0.  0.  0.
138  1.37  0.  0.  0.
139  1.38  0.  0.  0.
140  1.39  0.  0.  0.
141  1.40  0.  0.  0.
142  1.41  0.  0.  0.
143  1.42  0.  0.  0.
144  1.43  0.  0.  0.
145  1.44  0.  0.  0.
146  1.45  0.  0.  0.
147  1.46  0.  0.  0.
148  1.47  0.  0.  0.
149  1.48  0.  0.  0.
150  1.49  0.  0.  0.
151  1.50  0.  0.  0.
152  1.51  0.  0.  0.
153  1.52  0.  0.  0.
154  1.53  0.  0.  0.
155  1.54  0.  0.  0.
156  1.55  0.  0.  0.
157  1.56  0.  0.  0.
158  1.57  0.  0.  0.
159  1.58  0.  0.  0.
160  1.59  0.  0.  0.
161  1.60  0.  0.  0.
162  1.61  0.  0.  0.
163  1.62  0.  0.  0.
164  1.63  0.  0.  0.
165  1.64  0.  0.  0.
166  1.65  0.  0.  0.
167  1.66  0.  0.  0.
168  1.67  0.  0.  0.
169  1.68  0.  0.  0.
170  1.69  0.  0.  0.
171  1.70  0.  0.  0.
172  1.71  0.  0.  0.
173  1.72  0.  0.  0.
174  1.73  0.  0.  0.
175  1.74  0.  0.  0.
176  1.75  0.  0.  0.
177  1.76  0.  0.  0.
178  1.77  0.  0.  0.
179  1.78  0.  0.  0.
180  1.79  0.  0.  0.
181  1.80  0.  0.  0.
182  1.81  0.  0.  0.
183  1.82  0.  0.  0.
184  1.83  0.  0.  0.
185  1.84  0.  0.  0.
186  1.85  0.  0.  0.
187  1.86  0.  0.  0.
188  1.87  0.  0.  0.
189  1.88  0.  0.  0.
190  1.89  0.  0.  0.
191  1.90  0.  0.  0.
192  1.91  0.  0.  0.
193  1.92  0.  0.  0.
194  1.93  0.  0.  0.
195  1.94  0.  0.  0.
196  1.95  0.  0.  0.
197  1.96  0.  0.  0.
198  1.97  0.  0.  0.
199  1.98  0.  0.  0.
200  1.99  0.  0.  0.
201  2.00  0.  0.  0.
202  2.01  0.  0.  0.
203  2.02  0.  0.  0.
204  2.03  0.  0.  0.
205  2.04  0.  0.  0.
206  2.05  0.  0.  0.
207  2.06  0.  0.  0.
208  2.07  0.  0.  0.
209  2.08  0.  0.  0.
210  2.09  0.  0.  0.
211  2.10  0.  0.  0.
212  2.11  0.  0.  0.
213  2.12  0.  0.  0.
214  2.13  0.  0.  0.
215  2.14  0.  0.  0.
216  2.15  0.  0.  0.
217  2.16  0.  0.  0.
218  2.17  0.  0.  0.
219  2.18  0.  0.  0.
220  2.19  0.  0.  0.
221  2.20  0.  0.  0.
222  2.21  0.  0.  0.
223  2.22  0.  0.  0.
224  2.23  0.  0.  0.
225  2.24  0.  0.  0.
226  2.25  0.  0.  0.
227  2.26  0.  0.  0.
228  2.27  0.  0.  0.
229  2.28  0.  0.  0.
230  2.29  0.  0.  0.
231  2.30  0.  0.  0.
232  2.31  0.  0.  0.
233  2.32  0.  0.  0.
234  2.33  0.  0.  0.
235  2.34  0.  0.  0.
236  2.35  0.  0.  0.
237  2.36  0.  0.  0.
238  2.37  0.  0.  0.
239  2.38  0.  0.  0.
240  2.39  0.  0.  0.
241  2.40  0.  0.  0.
242  2.41  0.  0.  0.
243  2.42  0.  0.  0.
244  2.43  0.  0.  0.
245  2.44  0.  0.  0.
246  2.45  0.  0.  0.
247  2.46  0.  0.  0.
248  2.47  0.  0.  0.
249  2.48  0.  0.  0.
250  2.49  0.  0.  0.
251  2.50  0.  0.  0.
252  2.51  0.  0.  0.
253  2.52  0.  0.  0.
254  2.53  0.  0.  0.
255  2.54  0.  0.  0.
256  2.55  0.  0.  0.
257  2.56  0.  0.  0.
258  2.57  0.  0.  0.
259  2.58  0.  0.  0.
260  2.59  0.  0.  0.
261  2.60  0.  0.  0.
262  2.61  0.  0.  0.
263  2.62  0.  0.  0.
264  2.63  0.  0.  0.
265  2.64  0.  0.  0.
266  2.65  0.  0.  0.
267  2.66  0.  0.  0.
268  2.67  0.  0.  0.
269  2.68  0.  0.  0.
270  2.69  0.  0.  0.
271  2.70  0.  0.  0.
272  2.71  0.  0.  0.
273  2.72  0.  0.  0.
274  2.73  0.  0.  0.
275  2.74  0.  0.  0.
276  2.75  0.  0.  0.
277  2.76  0.  0.  0.
278  2.77  0.  0.  0.
279  2.78  0.  0.  0.
280  2.79  0.  0.  0.
281  2.80  0.  0.  0.
282  2.81  0.  0.  0.
283  2.82  0.  0.  0.
284  2.83  0.  0.  0.
285  2.84  0.  0.  0.
286  2.85  0.  0.  0.
287  2.86  0.  0.  0.
288  2.87  0.  0.  0.
289  2.88  0.  0.  0.
290  2.89  0.  0.  0.
291  2.90  0.  0.  0.
292  2.91  0.  0.  0.
293  2.92  0.  0.  0.
294  2.93  0.  0.  0.
295  2.94  0.  0.  0.
296  2.95  0.  0.  0.
297  2.96  0.  0.  0.
298  2.97  0.  0.  0.
299  2.98  0.  0.  0.
300  2.99  0.  0.  0.
301  3.00  0.  0.  0.
302  3.01  0.  0.  0.
303  3.02  0.  0.  0.
304  3.03  0.  0.  0.
305  3.04  0.  0.  0.
306  3.05  0.  0.  0.
307  3.06  0.  0.  0.
308  3.07  0.  0.  0.
309  3.08  0.  0.  0.
310  3.09  0.  0.  0.
311  3.10  0.  0.  0.
312  3.11  0.  0.  0.
313  3.12  0.  0.  0.
314  3.13  0.  0.  0.
315  3.14  0.  0.  0.
316  3.15  0.  0.  0.
317  3.16  0.  0.  0.
318  3.17  0.  0.  0.
319  3.18  0.  0.  0.
320  3.19  0.  0.  0.
321  3.20  0.  0.  0.
322  3.21  0.  0.  0.
323  3.22  0.  0.  0.
324  3.23  0.  0.  0.
325  3.24  0.  0.  0.
326  3.25  0.  0.  0.
327  3.26  0.  0.  0.
328  3.27  0.  0.  0.
329  3.28  0.  0.  0.
330  3.29  0.  0.  0.
331  3.30  0.  0.  0.
332  3.31  0.  0.  0.
333  3.32  0.  0.  0.
334  3.33  0.  0.  0.
335  3.34  0.  0.  0.
336  3.35  0.  0.  0.
337  3.36  0.  0.  0.
338  3.37  0.  0.  0.
339  3.38  0.  0.  0.
340  3.39  0.  0.  0.
341  3.40  0.  0.  0.
342  3.41  0.  0.  0.
343  3.42  0.  0.  0.
344  3.43  0.  0.  0.
345  3.44  0.  0.  0.
346  3.45  0.  0.  0.
347  3.46  0.  0.  0.
348  3.47  0.  0.  0.
349  3.48  0.  0.  0.
350  3.49  0.  0.  0.
351  3.50  0.  0.  0.
352  3.51  0.  0.  0.
353  3.52  0.  0.  0.
354  3.53  0.  0.  0.
355  3.54  0.  0.  0.
356  3.55  0.  0.  0.
357  3.56  0.  0.  0.
358  3.57  0.  0.  0.
359  3.58  0.  0.  0.
360  3.59  0.  0.  0.
361  3.60  0.  0.  0.
362  3.61  0.  0.  0.
363  3.62  0.  0.  0.
364  3.63  0.  0.  0.
365  3.64  0.  0.  0.
366  3.65  0.  0.  0.
367  3.66  0.  0.  0.
368  3.67  0.  0.  0.
369  3.68  0.  0.  0.
370  3.69  0.  0.  0.
371  3.70  0.  0.  0.
372  3.71  0.  0.  0.
373  3.72  0.  0.  0.
374  3.73  0.  0.  0.
375  3.74  0.  0.  0.
376  3.75  0.  0.  0.
377  3.76  0.  0.  0.
378  3.77  0.  0.  0.
379  3.78  0.  0.  0.
380  3.79  0.  0.  0.
381  3.80  0.  0.  0.
382  3.81  0.  0.  0.
383  3.82  0.  0.  0.
384  3.83  0.  0.  0.
385  3.84  0.  0.  0.
386  3.85  0.  0.  0.
387  3.86  0.  0.  0.
388  3.87  0.  0.  0.
389  3.88  0.  0.  0.
390  3.89  0.  0.  0.
391  3.90  0.  0.  0.
392  3.91  0.  0.  0.
393  3.92  0.  0.  0.
394  3.93  0.  0.  0.
395  3.94  0.  0.  0.
396  3.95  0.  0.  0.
397  3.96  0.  0.  0.
398  3.97  0.  0.  0.
399  3.98  0.  0.  0.
400  3.99  0.  0.  0.
401  4.00  0.  0.  0.
402  4.01  0.  0.  0.
403  4.02  0.  0.  0.
404  4.03  0.  0.  0.
405  4.04  0.  0.  0.
406  4.05  0.  0.  0.
407  4.06  0.  0.  0.
408  4.07  0.  0.  0.
409  4.08  0.  0.  0.
410  4.09  0.  0.  0.
411  4.10  0.  0.  0.
412  4.11  0.  0.  0.
413  4.12  0.  0.  0.
414  4.13  0.  0.  0.
415  4.14  0.  0.  0.
416  4.15  0.  0.  0.
417  4.16  0.  0.  0.
418  4.17  0.  0.  0.
419  4.18  0.  0.  0.
420  4.19  0.  0.  0.
421  4.20  0.  0.  0.
422  4.21  0.  0.  0.
423  4.22  0.  0.  0.
424  4.23  0.  0.  0.
425  4.24  0.  0.  0.
426  4.25  0.  0.  0.
427  4.26  0.  0.  0.
428  4.27  0.  0.  0.
429  4.28  0.  0.  0.
430  4.29  0.  0.  0.
431  4.30  0.  0.  0.
432  4.31  0.  0.  0.
433  4.32  0.  0.  0.
434  4.33  0.  0.  0.
435  4.34  0.  0.  0.
436  4.35  0.  0.  0.
437  4.36  0.  0.  0.
438  4.37  0.  0.  0.
439  4.38  0.  0.  0.
440  4.39  0.  0.  0.
441  4.40  0.  0.  0.
442  4.41  0.  0.  0.
443  4.42  0.  0.  0.
444  4.43  0.  0.  0.
445  4.44  0.  0.  0.
446  4.45  0.  0.  0.
447  4.46  0.  0.  0.
448  4.47  0.  0.  0.
449  4.48  0.  0.  0.
450  4.49  0.  0.  0.
451  4.50  0.  0.  0.
452  4.51  0.  0.  0.
453  4.52  0.  0.  0.
454  4.53  0.  0.  0.
455  4.54  0.  0.  0.
456  4.55  0.  0.  0.
457  4.56  0.  0.  0.
458  4.57  0.  0.  0.
459  4.58  0.  0.  0.
460  4.59  0.  0.  0.
461  4.60  0.  0.  0.
462  4.61  0.  0.  0.
463  4.62  0.  0.  0.
464  4.63  0.  0.  0.
465  4.64  0.  0.  0.
466  4.65  0.  0.  0.
467  4.66  0.  0.  0.
468  4.67  0.  0.  0.
469  4.68  0.  0.  0.
470  4.69  0.  0.  0.
471  4.70  0.  0.  0.
472  4.71  0.  0.  0.
473  4.72  0.  0.  0.
474  4.73  0.  0.  0.
475  4.74  0.  0.  0.
476  4.75  0.  0.  0.
477  4.76  0.  0.  0.
478  4.77  0.  0.  0.
479  4.78  0.  0.  0.
480  4.79  0.  0.  0.
481  4.80  0.  0.  0.
482  4.81  0.  0.  0.
483  4.82  0.  0.  0.
484  4.83  0.  0.  0.
485  4.84  0.  0.  0.
486  4.85  0.  0.  0.
487  4.86  0.  0.  0.
488  4.87  0.  0.  0.
489  4.88  0.  0.  0.
490  4.89  0.  0.  0.
491  4.90  0.  0.  0.
492  4.91  0.  0.  0.
493  4.92  0.  0.  0.
494  4.93  0.  0.  0.
495  4.94  0.  0.  0.
496  4.95  0.  0.  0.
497  4.96  0.  0.  0.
498  4.97  0.  0.  0.
499  4.98  0.  0.  0.
500  4.99  0.  0.  0.
501  5.00  0.  0.  0.
502  5.01  0.  0.  0.
503  5.02  0.  0.  0.
504  5.03  0.  0.  0.
505  5.04  0.  0.  0.
506  5.05  0.  0.  0.
507  5.06  0.  0.  0.
508  5.07  0.  0.  0.
509  5.08  0.  0.  0.
510  5.09  0.  0.  0.
511  5.10  0.  0.  0.
512  5.11  0.  0.  0.
513  5.12  0.  0.  0.
514  5.13  0.  0.  0.
515  5.14  0.  0.  0.
516  5.15  0.  0.  0.
517  5.16  0.  0.  0.
518  5.17  0.  0.  0.
519  5.18  0.  0.  0.
520  5.19  0.  0.  0.
521  5.20  0.  0.  0.
522  5.21  0.  0.  0.
523  5.22  0.  0.  0.
524  5.23  0.  0.  0.
525  5.24  0.  0.  0.
526  5.25  0.  0.  0.
527  5.26  0.  0.  0.
528  5.27  0.  0.  0.
529  5.28  0.  0.  0.
530  5.29  0.  0.  0.
531  5.30  0.  0.  0.
532  5.31  0.  0.  0.
533  5.32  0.  0.  0.
534  5.33  0.  0.  0.
535  5.34  0.  0.  0.
536  5.35  0.  0.  0.
537  5.36  0.  0.  0.
538  5.37  0.  0.  0.
539  5.38  0.  0.  0.
540  5.39  0.  0.  0.
541  5.40  0.  0.  0.
542  5.41  0.  0.  0.
543  5.42  0.  0.  0.
544  5.43  0.  0.  0.
545  5.44  0.  0.  0.
546  5.45  0.  0.  0.
547  5.46  0.  0.  0.
548  5.47  0.  0.  0.
549  5.48  0.  0.  0.
550  5.49  0.  0.  0.
551  5.50  0.  0.  0.
552  5.51  0.  0.  0.
553  5.52  0.  0.  0.
554  5.53  0.  0.  0.
555  5.54  0.  0.  0.
556  5.55  0.  0.  0.
557  5.56  0.  0.  0.
558  5.57  0.  0.  0.
559  5.58  0.  0.  0.
560  5.59  0.  0.  0.
561  5.60  0.  0.  0.
562  5.61  0.  0.  0.
563  5.62  0.  0.  0.
564  5.63  0.  0.  0.
565  5.64  0.  0.  0.
566  5.65  0.  0.  0.
567  5.66  0.  0.  0.
568  5.67  0.  0.  0.
569  5.68  0.  0.  0.
570  5.69  0.  0.  0.
571  5.70  0.  0.  0.
572  5.71  0.  0.  0.
573  5.72  0.  0.  0.
574  5.73  0.  0.  0.
575  5.74  0.  0.  0.
576  5.75  0.  0.  0.
577  5.76  0.  0.  0.
578  5.77  0.  0.  0.
579  5.78  0.  0.  0.
580  5.79  0.  0.  0.
581  5.80  0.  0.  0.
582  5.81  0.  0.  0.
583  5.82  0.  0.  0.
584  5.83  0.  0.  0.
585  5.84  0.  0.  0.
586  5.85  0.  0.  0.
587  5.86  0.  0.  0.
588  5.87  0.  0.  0.
589  5.88  0.  0.  0.
590  5.89  0.  0.  0.
591  5.90  0.  0.  0.
592  5.91  0.  0.  0.
593  5.92  0.  0.  0.
594  5.93  0.  0.  0.
595  5.94  0.  0.  0.
596  5.95  0.  0.  0.
597  5.96  0.  0.  0.
598  5.97  0.  0.  0.
599  5.98  0.  0.  0.
600  5.99  0.  0.  0.
1                         7.7981929139723E+00 -5.8924698091166E+00
1  0.0000000000000E+00  1.1723002901753E-08  2.5190698471622E-08
2  1.0000000000000E-02  2.8406693576722E-03 -4.4264967100034E-03
3  2.0000000000000E-02  1.1341643806560E-02 -1.7661092600116E-02
4  3.0000000000000E-02  2.5440108046941E-02 -3.9569095252705E-02
5  4.0000000000000E-02  4.5032313839760E-02 -6.9926004356431E-02
6  5.0000000000000E-02  6.9974968237784E-02 -1.0841755921891E-01
7  6.0000000000000E-02  1.0008712277735E-01 -1.5463993599148E-01
8  7.0000000000000E-02  1.3515251156725E-01 -2.0810021804876E-01
9  8.0000000000000E-02  1.7492227448828E-01 -2.6821728815635E-01
10  9.0000000000000E-02  2.1911799220621E-01 -3.3432330920570E-01
11  1.0000000000000E-01  2.6743495273157E-01 -4.0566597037796E-01
12  1.1000000000000E-01  3.1954556507248E-01 -4.8141167690262E-01
13  1.2000000000000E-01  3.7510283426444E-01 -5.6064985371303E-01
14  1.3000000000000E-01  4.3374381376316E-01 -6.4239851622969E-01
15  1.4000000000000E-01  4.9509295578882E-01 -7.2561123553504E-01
16  1.5000000000000E-01  5.5876528754395E-01 -8.0918559099936E-01
17  1.6000000000000E-01  6.2436935102625E-01 -8.9197316196332E-01
18  1.7000000000000E-01  6.9150985606701E-01 -9.7279106266461E-01
19  1.8000000000000E-01  7.5979000981202E-01 -1.0504349727559E+00
20  1.9000000000000E-01  8.2881350062869E-01 -1.1236935612493E+00
21  2.0000000000000E-01  8.9818612982965E-01 -1.1913641464391E+00
22  2.1000000000000E-01  9.6751710007846E-01 -1.2522693802773E+00
23  2.2000000000000E-01  1.0364199843111E+00 -1.3052746948180E+00
24  2.3000000000000E-01  1.1045134129040E+00 -1.3493062026369E+00
25  2.4000000000000E-01  1.1714215291129E+00 -1.3833687044097E+00
26  2.5000000000000E-01  1.2367742730188E+00 -1.4065634267299E+00
27  2.6000000000000E-01  1.3002075619393E+00 -1.4181050931422E+00
28  2.7000000000000E-01  1.3613634401675E+00 -1.4173379223593E+00
29  2.8000000000000E-01  1.4198902727706E+00 -1.4037501504440E+00
30  2.9000000000000E-01  1.4754430568818E+00 -1.3769866887398E+00
31  3.0000000000000E-01  1.5276839194693E+00 -1.3368595564847E+00
32  3.1000000000000E-01  1.5762828630514E+00 -1.2833557658906E+00
33  3.2000000000000E-01  1.6209188104920E+00 -1.2166423871789E+00
34  3.3000000000000E-01  1.6612809871756E+00 -1.1370685804036E+00
35  3.4000000000000E-01  1.6970706639512E+00 -1.0451644483024E+00
36  3.5000000000000E-01  1.7280032677767E+00 -9.4163663802865E-01
37  3.6000000000000E-01  1.7538108495456E+00 -8.2736069732758E-01
38  3.7000000000000E-01  1.7742448807850E+00 -7.0337027025537E-01
39  3.8000000000000E-01  1.7890793334080E+00 -5.7084329651566E-01
40  3.9000000000000E-01  1.7981139801577E+00 -4.3108545451348E-01
41  4.0000000000000E-01  1.8011778384097E+00 -2.8551115895508E-01
42  4.1000000000000E-01  1.7981326672129E+00 -1.3562248705569E-01
43  4.2000000000000E-01  1.7888764173553E+00  1.7013538834209E-02
44  4.3000000000000E-01  1.7733465272927E+00  1.7078884181665E-01
45  4.4000000000000E-01  1.7515229543057E+00  3.2407885387660E-01
46  4.5000000000000E-01  1.7234308304797E+00  4.7526723530625E-01
47  4.6000000000000E-01  1.6891426371262E+00  6.2277023086558E-01
48  4.7000000000000E-01  1.6487797990530E+00  7.6506015517700E-01
49  4.8000000000000E-01  1.6025136114694E+00  9.0068752541301E-01
50  4.9000000000000E-01  1.5505654269927E+00  1.0283013978960E+00
51  5.0000000000000E-01  1.4932060477843E+00  1.1466675155707E+00
52  5.1000000000000E-01  1.4307542877692E+00  1.2546839338310E+00
53  5.2000000000000E-01  1.3635746915656E+00  1.3513938609593E+00
54  5.3000000000000E-01  1.2920744194946E+00  1.4359955243018E+00
55  5.4000000000000E-01  1.2166993311313E+00  1.5078489518819E+00
56  5.5000000000000E-01  1.1379293225400E+00  1.5664796390091E+00
57  5.6000000000000E-01  1.0562729938833E+00  1.6115791480946E+00
58  5.7000000000000E-01  9.7226174378519E-01  1.6430027649459E+00
59  5.8000000000000E-01  8.8644340402344E-01  1.6607644040560E+00
60  5.9000000000000E-01  7.9937554224590E-01  1.6650290168253E+00
61  6.0000000000000E-01  7.1161857099361E-01  1.6561028085635E+00
62  6.1000000000000E-01  6.2372880801197E-01  1.6344216111964E+00
63  6.2000000000000E-01  5.3625163542645E-01  1.6005377879090E+00
64  6.3000000000000E-01  4.4971490377400E-01  1.5551060630078E+00
65  6.4000000000000E-01  3.6462272117406E-01  1.4988686750296E+00
66  6.5000000000000E-01  2.8144975829811E-01  1.4326402439336E+00
67  6.6000000000000E-01  2.0063618658291E-01  1.3572927248877E+00
68  6.7000000000000E-01  1.2258335077728E-01  1.2737407928492E+00
69  6.8000000000000E-01  4.7650257963117E-02  1.1829279653155E+00
70  6.9000000000000E-01 -2.3849055733206E-02  1.0858137269943E+00
71  7.0000000000000E-01 -9.1647241744057E-02  9.8336187158693E-01
72  7.1000000000000E-01 -1.5552442280860E-01  8.7653022435761E-01
73  7.2000000000000E-01 -2.1530805042551E-01  7.6626185661257E-01
74  7.3000000000000E-01 -2.7087186454894E-01  6.5347785149447E-01
75  7.4000000000000E-01 -3.2213400468669E-01  5.3907163127467E-01
76  7.5000000000000E-01 -3.6905434030952E-01  4.2390481100839E-01
77  7.6000000000000E-01 -4.1163110494842E-01  3.0880450308874E-01
78  7.7000000000000E-01 -4.4989693225863E-01  1.9456196259914E-01
79  7.8000000000000E-01 -4.8391440351937E-01  8.1932434699550E-02
80  7.9000000000000E-01 -5.1377122452067E-01 -2.8363957573433E-02
81  8.0000000000000E-01 -5.3957515571137E-01 -1.3564046436847E-01
82  8.1000000000000E-01 -5.6144882315046E-01 -2.3924129173417E-01
83  8.2000000000000E-01 -5.7952453965318E-01 -3.3853871961301E-01
84  8.3000000000000E-01 -5.9393926612657E-01 -4.3292996873932E-01
85  8.4000000000000E-01 -6.0482984312211E-01 -5.2183404137607E-01
86  8.5000000000000E-01 -6.1232862287004E-01 -6.0468877585692E-01
87  8.6000000000000E-01 -6.1655963333654E-01 -6.8094837622931E-01
88  8.7000000000000E-01 -6.1763540904360E-01 -7.5008170860543E-01
89  8.8000000000000E-01 -6.1565462941178E-01 -8.1157169781910E-01
90  8.9000000000000E-01 -6.1070071511592E-01 -8.6491621429389E-01
91  9.0000000000000E-01 -6.0284154724450E-01 -9.0963091415964E-01
92  9.1000000000000E-01 -5.9213049372237E-01 -9.4525458790327E-01
93  9.2000000000000E-01 -5.7860895322356E-01 -9.7135768624525E-01
94  9.3000000000000E-01 -5.6231065929544E-01 -9.8755482820574E-01
95  9.4000000000000E-01 -5.4326802716531E-01 -9.9352225683489E-01
96  9.5000000000000E-01 -5.2152087310958E-01 -9.8902139379217E-01
97  9.6000000000000E-01 -4.9712789161066E-01 -9.7392985541958E-01
98  9.7000000000000E-01 -4.7018133897798E-01 -9.4828153038591E-01
99  9.8000000000000E-01 -4.4082544365975E-01 -9.1231758201017E-01
100  9.9000000000000E-01 -4.0927914563290E-01 -8.6655053398297E-01
101  1.0000000000000E+00 -3.7586381933144E-01 -8.1184380761944E-01
102  1.0100000000000E+00 -3.4103662513245E-01 -7.4950910941993E-01
103  1.0200000000000E+00 -3.0538976748509E-01 -6.8130612212011E-01
104  1.0300000000000E+00 -2.6954121457296E-01 -6.0912205897071E-01
105  1.0400000000000E+00 -2.3408367108063E-01 -5.3481260481465E-01
106  1.0500000000000E+00 -1.9957978097449E-01 -4.6017558098985E-01
107  1.0600000000000E+00 -1.6655769976181E-01 -3.8692579735802E-01
108  1.0700000000000E+00 -1.3550671671942E-01 -3.1667038656585E-01
109  1.0800000000000E+00 -1.0687296007619E-01 -2.5088493439829E-01
110  1.0900000000000E+00 -8.1055260140321E-02 -1.9089082258025E-01
111  1.1000000000000E+00 -5.8392949574462E-02 -1.3780314838782E-01
112  1.1100000000000E+00 -3.9112087792608E-02 -9.2330025659467E-02
113  1.1200000000000E+00 -2.3479870975476E-02 -5.5339958342050E-02
114  1.1300000000000E+00 -1.1717795958196E-02 -2.7522669375638E-02
115  1.1400000000000E+00 -3.9729511662676E-03 -9.2821500609590E-03
116  1.1500000000000E+00 -3.5620641851756E-04 -8.2610064839861E-04
117  1.1600000000000E+00  1.2482397414248E-05  2.8808296276555E-05
118  1.1700000000000E+00  2.2358523618163E-06  5.1974205672887E-06
119  1.18  0.  0.
120  1.19  0.  0.
121  1.20  0.  0.
122  1.21  0.  0.
123  1.22  0.  0.
124  1.23  0.  0.
125  1.24  0.  0.
126  1.25  0.  0.
127  1.26  0.  0.
128  1.27  0.  0.
129  1.28  0.  0.
130  1.29  0.  0.
131  1.30  0.  0.
132  1.31  0.  0.
133  1.32  0.  0.
134  1.33  0.  0.
135  1.34  0.  0.
136  1.35  0.  0.
137  1.36  0.  0.
138  1.37  0.  0.
139  1.38  0.  0.
140  1.39  0.  0.
141  1.40  0.  0.
142  1.41  0.  0.
143  1.42  0.  0.
144  1.43  0.  0.
145  1.44  0.  0.
146  1.45  0.  0.
147  1.46  0.  0.
148  1.47  0.  0.
149  1.48  0.  0.
150  1.49  0.  0.
151  1.50  0.  0.
152  1.51  0.  0.
153  1.52  0.  0.
154  1.53  0.  0.
155  1.54  0.  0.
156  1.55  0.  0.
157  1.56  0.  0.
158  1.57  0.  0.
159  1.58  0.  0.
160  1.59  0.  0.
161  1.60  0.  0.
162  1.61  0.  0.
163  1.62  0.  0.
164  1.63  0.  0.
165  1.64  0.  0.