Cf    ONCVPSP-4.0.1  r_core=   1.15394   1.15394   1.15394   1.35621
98.0000     38.0000      220310    zatom,zion,pspd
8      11   3     4   600     0    pspcod,pspxc,lmax,lloc,mmax,r2well
5.99000000  5.00000000  0.00000000    rchrg fchrg qchrg
3     2     2     2     0    nproj
1     1           extension_switch
0                         4.1941344183054E+01  1.7671177373440E+00 -1.0274591779422E+00
1  0.0000000000000E+00 -8.0771984656280E-09  8.4281795875718E-08 -1.3862669706599E-08
2  1.0000000000000E-02  1.6257123663719E-01 -9.3218709524668E-02  1.5424728188006E-02
3  2.0000000000000E-02  3.2414151491131E-01 -1.8500474175604E-01  3.0759445691290E-02
4  3.0000000000000E-02  4.8371767050732E-01 -2.7394783504156E-01  4.5915593917951E-02
5  4.0000000000000E-02  6.4032204074603E-01 -3.5868196954677E-01  6.0807462082273E-02
6  5.0000000000000E-02  7.9300000152074E-01 -4.3790603814587E-01  7.5353474212847E-02
7  6.0000000000000E-02  9.4082725382838E-01 -5.1040284242887E-01  8.9477322994846E-02
8  7.0000000000000E-02  1.0829167865417E+00 -5.7505596097246E-01  1.0310891718900E-01
9  8.0000000000000E-02  1.2184254501465E+00 -6.3086412130369E-01  1.1618512323245E-01
10  9.0000000000000E-02  1.3465600855564E+00 -6.7695280503468E-01  1.2865029729819E-01
11  1.0000000000000E-01  1.4665831623938E+00 -7.1258292306153E-01  1.4045662058809E-01
12  1.1000000000000E-01  1.5778178918304E+00 -7.3715650969388E-01  1.5156426690532E-01
13  1.2000000000000E-01  1.6796527897415E+00 -7.5021949607293E-01  1.6194144651350E-01
14  1.3000000000000E-01  1.7715456760700E+00 -7.5146172921876E-01  1.7156438289524E-01
15  1.4000000000000E-01  1.8530271054910E+00 -7.4071449875742E-01  1.8041728832454E-01
16  1.5000000000000E-01  1.9237032323260E+00 -7.1794591445106E-01  1.8849240934693E-01
17  1.6000000000000E-01  1.9832581188627E+00 -6.8325454046866E-01  1.9579021372265E-01
18  1.7000000000000E-01  2.0314555005779E+00 -6.3686173397471E-01  2.0231978572833E-01
19  1.8000000000000E-01  2.0681400241027E+00 -5.7910315425849E-01  2.0809948683812E-01
20  1.9000000000000E-01  2.0932379741088E+00 -5.1041990342392E-01  2.1315792386699E-01
21  2.0000000000000E-01  2.1067575037254E+00 -4.3134973088753E-01  2.1753524710968E-01
22  2.1000000000000E-01  2.1087883798333E+00 -3.4251868303209E-01  2.2128477758271E-01
23  2.2000000000000E-01  2.0995012499348E+00 -2.4463350877701E-01  2.2447493615172E-01
24  2.3000000000000E-01  2.0791464316718E+00 -1.3847504500259E-01  2.2719141930186E-01
25  2.4000000000000E-01  2.0480522199333E+00 -2.4892706996329E-02  2.2953953796562E-01
26  2.5000000000000E-01  2.0066227003867E+00  9.5199896721232E-02  2.3164660863728E-01
27  2.6000000000000E-01  1.9553350527357E+00  2.2082831330835E-01  2.3366426151678E-01
28  2.7000000000000E-01  1.8947363226084E+00  3.5095974994570E-01  2.3577051014591E-01
29  2.8000000000000E-01  1.8254396382295E+00  4.8450501948175E-01  2.3817141234127E-01
30  2.9000000000000E-01  1.7481198474130E+00  6.2032029279901E-01  2.4110214443968E-01
31  3.0000000000000E-01  1.6635085522988E+00  7.5720908361442E-01  2.4482731095991E-01
32  3.1000000000000E-01  1.5723885239399E+00  8.9392492856377E-01  2.4964032046946E-01
33  3.2000000000000E-01  1.4755874864759E+00  1.0291752365667E+00  2.5586167608068E-01
34  3.3000000000000E-01  1.3739712712267E+00  1.1616267647993E+00  2.6383605559447E-01
35  3.4000000000000E-01  1.2684363544622E+00  1.2899131337448E+00  2.7392809140948E-01
36  3.5000000000000E-01  1.1599018085713E+00  1.4126447214894E+00  2.8651680312025E-01
37  3.6000000000000E-01  1.0493007144326E+00  1.5284211799292E+00  3.0198868498822E-01
38  3.7000000000000E-01  9.3757110239372E-01  1.6358466962747E+00  3.2072950460247E-01
39  3.8000000000000E-01  8.2564650972175E-01  1.7335479867968E+00  3.4311492614125E-01
40  3.9000000000000E-01  7.1444626288166E-01  1.8201948617981E+00  3.6950012952809E-01
41  4.0000000000000E-01  6.0486561269331E-01  1.8945230476780E+00  4.0020865312165E-01
42  4.1000000000000E-01  4.9776586840008E-01  1.9553588006681E+00  4.3552073994817E-01
43  4.2000000000000E-01  3.9396469207182E-01  2.0016447044730E+00  4.7566151347816E-01
44  4.3000000000000E-01  2.9422672670499E-01  2.0324659177830E+00  5.2078934626306E-01
45  4.4000000000000E-01  1.9925473909748E-01  2.0470760341473E+00  5.7098481129716E-01
46  4.5000000000000E-01  1.0968146141006E-01  2.0449216419944E+00  6.2624061999172E-01
47  4.6000000000000E-01  2.6062312763923E-02  2.0256646317408E+00  6.8645295076161E-01
48  4.7000000000000E-01 -5.1130826061534E-02  1.9892012936582E+00  7.5141455755012E-01
49  4.8000000000000E-01 -1.2151462591523E-01  1.9356772868880E+00  8.2081001777515E-01
50  4.9000000000000E-01 -1.8479797154589E-01  1.8654976373041E+00  8.9421343441383E-01
51  5.0000000000000E-01 -2.4078415924662E-01  1.7793310389609E+00  9.7108884802994E-01
52  5.1000000000000E-01 -2.8937154657509E-01  1.6781078877867E+00  1.0507935429164E+00
53  5.2000000000000E-01 -3.3055260535764E-01  1.5630116626712E+00  1.1325843491026E+00
54  5.3000000000000E-01 -3.6441136694135E-01  1.4354634821582E+00  1.2156269512343E+00
55  5.4000000000000E-01 -3.9111928855746E-01  1.2970998972384E+00  1.2990081191595E+00
56  5.5000000000000E-01 -4.1092961047724E-01  1.1497442238795E+00  1.3817506766576E+00
57  5.6000000000000E-01 -4.2417031404947E-01  9.9537196364113E-01  1.4628309275717E+00
58  5.7000000000000E-01 -4.3123582934570E-01  8.3607109732389E-01  1.5411981662006E+00
59  5.8000000000000E-01 -4.3257767666006E-01  6.7399825544149E-01  1.6157958146384E+00
60  5.9000000000000E-01 -4.2869425721042E-01  5.1133196085628E-01  1.6855836571914E+00
61  6.0000000000000E-01 -4.2012003389933E-01  3.5022429465528E-01  1.7495605840254E+00
62  6.1000000000000E-01 -4.0741436187704E-01  1.9275244853235E-01  1.8067872154601E+00
63  6.2000000000000E-01 -3.9115024010220E-01  4.0871689631512E-02  1.8564077568213E+00
64  6.3000000000000E-01 -3.7190325851284E-01 -1.0362872759158E-01  1.8976704329867E+00
65  6.4000000000000E-01 -3.5024101049506E-01 -2.3916521574646E-01  1.9299458723928E+00
66  6.5000000000000E-01 -3.2671322702053E-01 -3.6439369305752E-01  1.9527428523447E+00
67  6.6000000000000E-01 -3.0184286737088E-01 -4.7823638373438E-01  1.9657208801967E+00
68  6.7000000000000E-01 -2.7611837230841E-01 -5.7990056865879E-01  1.9686991668643E+00
69  6.8000000000000E-01 -2.4998724970023E-01 -6.6888853085479E-01  1.9616616479703E+00
70  6.9000000000000E-01 -2.2385112100299E-01 -7.4499823353815E-01  1.9447578209024E+00
71  7.0000000000000E-01 -1.9806231094069E-01 -8.0831458975099E-01  1.9182992897817E+00
72  7.1000000000000E-01 -1.7292201358497E-01 -8.5919152105900E-01  1.8827520410496E+00
73  7.2000000000000E-01 -1.4868001744436E-01 -8.9822534685789E-01  1.8387246059666E+00
74  7.3000000000000E-01 -1.2553592169873E-01 -9.2622038350383E-01  1.7869523986017E+00
75  7.4000000000000E-01 -1.0364172703383E-01 -9.4414795148665E-01  1.7282786445967E+00
76  7.5000000000000E-01 -8.3105639231736E-02 -9.5310027742060E-01  1.6636324330715E+00
77  7.6000000000000E-01 -6.3996883276050E-02 -9.5424102456205E-01  1.5940045276473E+00
78  7.7000000000000E-01 -4.6351291618128E-02 -9.4875438077172E-01  1.5204216592814E+00
79  7.8000000000000E-01 -3.0177403633855E-02 -9.3779476754968E-01  1.4439200904714E+00
80  7.9000000000000E-01 -1.5462795191176E-02 -9.2243930072353E-01  1.3655192850098E+00
81  8.0000000000000E-01 -2.1803484502063E-03 -9.0364512691494E-01  1.2861965380227E+00
82  8.1000000000000E-01  9.7058268949687E-03 -8.8221367609058E-01  1.2068634163156E+00
83  8.2000000000000E-01  2.0235098381252E-02 -8.5876370689359E-01  1.1283448284122E+00
84  8.3000000000000E-01  2.9445897223499E-02 -8.3371477702146E-01  1.0513614869970E+00
85  8.4000000000000E-01  3.7372409900832E-02 -8.0728244576243E-01  9.7651644402358E-01
86  8.5000000000000E-01  4.4042555776799E-02 -7.7948611074484E-01  9.0428627113601E-01
87  8.6000000000000E-01  4.9477378907403E-02 -7.5016989715794E-01  8.3501732598162E-01
88  8.7000000000000E-01  5.3691919441612E-02 -7.1903645612596E-01  7.6892738921487E-01
89  8.8000000000000E-01  5.6697557370648E-02 -6.8569288983425E-01  7.0611277801535E-01
90  8.9000000000000E-01  5.8505738813623E-02 -6.4970730340787E-01  6.4656083992738E-01
91  9.0000000000000E-01  5.9132902314435E-02 -6.1067368457153E-01  5.9016750534320E-01
92  9.1000000000000E-01  5.8606319281410E-02 -5.6828192659315E-01  5.3675932682738E-01
93  9.2000000000000E-01  5.6970447899480E-02 -5.2238882978282E-01  4.8611915660333E-01
94  9.3000000000000E-01  5.4293272371160E-02 -4.7308483044988E-01  4.3801430671103E-01
95  9.4000000000000E-01  5.0671957530252E-02 -4.2074999842668E-01  3.9222569516900E-01
96  9.5000000000000E-01  4.6236990574996E-02 -3.6609149575344E-01  3.4857610019704E-01
97  9.6000000000000E-01  4.1153804230835E-02 -3.1015317634641E-01  3.0695521604615E-01
98  9.7000000000000E-01  3.5620675794886E-02 -2.5428630068303E-01  2.6733871943477E-01
99  9.8000000000000E-01  2.9861470553041E-02 -2.0006840872382E-01  2.2979800507144E-01
100  9.9000000000000E-01  2.4111540175770E-02 -1.4915518520983E-01  1.9449661966442E-01
101  1.0000000000000E+00  1.8594813015436E-02 -1.0304785086656E-01  1.6166871195869E-01
102  1.0100000000000E+00  1.3489836296855E-02 -6.2756366522617E-02  1.3157401909594E-01
103  1.0200000000000E+00  8.9044100673808E-03 -2.8575288591995E-02  1.0443537564945E-01
104  1.0300000000000E+00  4.9103384088957E-03 -5.0760375220053E-04  8.0411157111662E-02
105  1.0400000000000E+00  1.5628108280899E-03  2.1509403479280E-02  5.9596799306873E-02
106  1.0500000000000E+00 -1.1011155781633E-03  3.7613629688502E-02  4.2024799468488E-02
107  1.0600000000000E+00 -3.0645916658308E-03  4.8034319165970E-02  2.7663419440778E-02
108  1.0700000000000E+00 -4.3333310895687E-03  5.3111828156099E-02  1.6414320711040E-02
109  1.0800000000000E+00 -4.9381018220698E-03  5.3319472667094E-02  8.1094096144240E-03
110  1.0900000000000E+00 -4.9372629997476E-03  4.9286488945541E-02  2.5070919584408E-03
111  1.1000000000000E+00 -4.4318989268781E-03  4.1918819806186E-02 -7.5712094097162E-04
112  1.1100000000000E+00 -3.6351153123133E-03  3.2944161157486E-02 -2.4190148373290E-03
113  1.1200000000000E+00 -2.6423276858026E-03  2.3135572633233E-02 -2.7562147694579E-03
114  1.1300000000000E+00 -1.5780395681161E-03  1.3439964985020E-02 -2.1033007220361E-03
115  1.1400000000000E+00 -6.3315875694991E-04  5.2737454179694E-03 -9.8604084847307E-04
116  1.1500000000000E+00 -6.6739058430960E-05  5.4569736531826E-04 -1.1589094057073E-04
117  1.1600000000000E+00  2.5631193501089E-06 -2.0767437927964E-05  4.6862191055217E-06
118  1.1700000000000E+00  4.0022529671698E-07 -3.2894343059603E-06  6.7713185382137E-07
119  1.18 -0.  0. -0.
120  1.19  0.  0.  0.
121  1.20  0.  0.  0.
122  1.21  0.  0.  0.
123  1.22  0.  0.  0.
124  1.23  0.  0.  0.
125  1.24  0.  0.  0.
126  1.25  0.  0.  0.
127  1.26  0.  0.  0.
128  1.27  0.  0.  0.
129  1.28  0.  0.  0.
130  1.29  0.  0.  0.
131  1.30  0.  0.  0.
132  1.31  0.  0.  0.
133  1.32  0.  0.  0.
134  1.33  0.  0.  0.
135  1.34  0.  0.  0.
136  1.35  0.  0.  0.
137  1.36  0.  0.  0.
138  1.37  0.  0.  0.
139  1.38  0.  0.  0.
140  1.39  0.  0.  0.
141  1.40  0.  0.  0.
142  1.41  0.  0.  0.
143  1.42  0.  0.  0.
144  1.43  0.  0.  0.
145  1.44  0.  0.  0.
146  1.45  0.  0.  0.
147  1.46  0.  0.  0.
148  1.47  0.  0.  0.
149  1.48  0.  0.  0.
150  1.49  0.  0.  0.
151  1.50  0.  0.  0.
152  1.51  0.  0.  0.
153  1.52  0.  0.  0.
154  1.53  0.  0.  0.
155  1.54  0.  0.  0.
156  1.55  0.  0.  0.
157  1.56  0.  0.  0.
158  1.57  0.  0.  0.
159  1.58  0.  0.  0.
160  1.59  0.  0.  0.
161  1.60  0.  0.  0.
162  1.61  0.  0.  0.
163  1.62  0.  0.  0.
164  1.63  0.  0.  0.
165  1.64  0.  0.  0.
166  1.65  0.  0.  0.
167  1.66  0.  0.  0.
168  1.67  0.  0.  0.
169  1.68  0.  0.  0.
170  1.69  0.  0.  0.
171  1.70  0.  0.  0.
172  1.71  0.  0.  0.
173  1.72  0.  0.  0.
174  1.73  0.  0.  0.
175  1.74  0.  0.  0.
176  1.75  0.  0.  0.
177  1.76  0.  0.  0.
178  1.77  0.  0.  0.
179  1.78  0.  0.  0.
180  1.79  0.  0.  0.
181  1.80  0.  0.  0.
182  1.81  0.  0.  0.
183  1.82  0.  0.  0.
184  1.83  0.  0.  0.
185  1.84  0.  0.  0.
186  1.85  0.  0.  0.
187  1.86  0.  0.  0.
188  1.87  0.  0.  0.
189  1.88  0.  0.  0.
190  1.89  0.  0.  0.
191  1.90  0.  0.  0.
192  1.91  0.  0.  0.
193  1.92  0.  0.  0.
194  1.93  0.  0.  0.
195  1.94  0.  0.  0.
196  1.95  0.  0.  0.
197  1.96  0.  0.  0.
198  1.97  0.  0.  0.
199  1.98  0.  0.  0.
200  1.99  0.  0.  0.
201  2.00  0.  0.  0.
202  2.01  0.  0.  0.
203  2.02  0.  0.  0.
204  2.03  0.  0.  0.
205  2.04  0.  0.  0.
206  2.05  0.  0.  0.
207  2.06  0.  0.  0.
208  2.07  0.  0.  0.
209  2.08  0.  0.  0.
210  2.09  0.  0.  0.
211  2.10  0.  0.  0.
212  2.11  0.  0.  0.
213  2.12  0.  0.  0.
214  2.13  0.  0.  0.
215  2.14  0.  0.  0.
216  2.15  0.  0.  0.
217  2.16  0.  0.  0.
218  2.17  0.  0.  0.
219  2.18  0.  0.  0.
220  2.19  0.  0.  0.
221  2.20  0.  0.  0.
222  2.21  0.  0.  0.
223  2.22  0.  0.  0.
224  2.23  0.  0.  0.
225  2.24  0.  0.  0.
226  2.25  0.  0.  0.
227  2.26  0.  0.  0.
228  2.27  0.  0.  0.
229  2.28  0.  0.  0.
230  2.29  0.  0.  0.
231  2.30  0.  0.  0.
232  2.31  0.  0.  0.
233  2.32  0.  0.  0.
234  2.33  0.  0.  0.
235  2.34  0.  0.  0.
236  2.35  0.  0.  0.
237  2.36  0.  0.  0.
238  2.37  0.  0.  0.
239  2.38  0.  0.  0.
240  2.39  0.  0.  0.
241  2.40  0.  0.  0.
242  2.41  0.  0.  0.
243  2.42  0.  0.  0.
244  2.43  0.  0.  0.
245  2.44  0.  0.  0.
246  2.45  0.  0.  0.
247  2.46  0.  0.  0.
248  2.47  0.  0.  0.
249  2.48  0.  0.  0.
250  2.49  0.  0.  0.
251  2.50  0.  0.  0.
252  2.51  0.  0.  0.
253  2.52  0.  0.  0.
254  2.53  0.  0.  0.
255  2.54  0.  0.  0.
256  2.55  0.  0.  0.
257  2.56  0.  0.  0.
258  2.57  0.  0.  0.
259  2.58  0.  0.  0.
260  2.59  0.  0.  0.
261  2.60  0.  0.  0.
262  2.61  0.  0.  0.
263  2.62  0.  0.  0.
264  2.63  0.  0.  0.
265  2.64  0.  0.  0.
266  2.65  0.  0.  0.
267  2.66  0.  0.  0.
268  2.67  0.  0.  0.
269  2.68  0.  0.  0.
270  2.69  0.  0.  0.
271  2.70  0.  0.  0.
272  2.71  0.  0.  0.
273  2.72  0.  0.  0.
274  2.73  0.  0.  0.
275  2.74  0.  0.  0.
276  2.75  0.  0.  0.
277  2.76  0.  0.  0.
278  2.77  0.  0.  0.
279  2.78  0.  0.  0.
280  2.79  0.  0.  0.
281  2.80  0.  0.  0.
282  2.81  0.  0.  0.
283  2.82  0.  0.  0.
284  2.83  0.  0.  0.
285  2.84  0.  0.  0.
286  2.85  0.  0.  0.
287  2.86  0.  0.  0.
288  2.87  0.  0.  0.
289  2.88  0.  0.  0.
290  2.89  0.  0.  0.
291  2.90  0.  0.  0.
292  2.91  0.  0.  0.
293  2.92  0.  0.  0.
294  2.93  0.  0.  0.
295  2.94  0.  0.  0.
296  2.95  0.  0.  0.
297  2.96  0.  0.  0.
298  2.97  0.  0.  0.
299  2.98  0.  0.  0.
300  2.99  0.  0.  0.
301  3.00  0.  0.  0.
302  3.01  0.  0.  0.
303  3.02  0.  0.  0.
304  3.03  0.  0.  0.
305  3.04  0.  0.  0.
306  3.05  0.  0.  0.
307  3.06  0.  0.  0.
308  3.07  0.  0.  0.
309  3.08  0.  0.  0.
310  3.09  0.  0.  0.
311  3.10  0.  0.  0.
312  3.11  0.  0.  0.
313  3.12  0.  0.  0.
314  3.13  0.  0.  0.
315  3.14  0.  0.  0.
316  3.15  0.  0.  0.
317  3.16  0.  0.  0.
318  3.17  0.  0.  0.
319  3.18  0.  0.  0.
320  3.19  0.  0.  0.
321  3.20  0.  0.  0.
322  3.21  0.  0.  0.
323  3.22  0.  0.  0.
324  3.23  0.  0.  0.
325  3.24  0.  0.  0.
326  3.25  0.  0.  0.
327  3.26  0.  0.  0.
328  3.27  0.  0.  0.
329  3.28  0.  0.  0.
330  3.29  0.  0.  0.
331  3.30  0.  0.  0.
332  3.31  0.  0.  0.
333  3.32  0.  0.  0.
334  3.33  0.  0.  0.
335  3.34  0.  0.  0.
336  3.35  0.  0.  0.
337  3.36  0.  0.  0.
338  3.37  0.  0.  0.
339  3.38  0.  0.  0.
340  3.39  0.  0.  0.
341  3.40  0.  0.  0.
342  3.41  0.  0.  0.
343  3.42  0.  0.  0.
344  3.43  0.  0.  0.
345  3.44  0.  0.  0.
346  3.45  0.  0.  0.
347  3.46  0.  0.  0.
348  3.47  0.  0.  0.
349  3.48  0.  0.  0.
350  3.49  0.  0.  0.
351  3.50  0.  0.  0.
352  3.51  0.  0.  0.
353  3.52  0.  0.  0.
354  3.53  0.  0.  0.
355  3.54  0.  0.  0.
356  3.55  0.  0.  0.
357  3.56  0.  0.  0.
358  3.57  0.  0.  0.
359  3.58  0.  0.  0.
360  3.59  0.  0.  0.
361  3.60  0.  0.  0.
362  3.61  0.  0.  0.
363  3.62  0.  0.  0.
364  3.63  0.  0.  0.
365  3.64  0.  0.  0.
366  3.65  0.  0.  0.
367  3.66  0.  0.  0.
368  3.67  0.  0.  0.
369  3.68  0.  0.  0.
370  3.69  0.  0.  0.
371  3.70  0.  0.  0.
372  3.71  0.  0.  0.
373  3.72  0.  0.  0.
374  3.73  0.  0.  0.
375  3.74  0.  0.  0.
376  3.75  0.  0.  0.
377  3.76  0.  0.  0.
378  3.77  0.  0.  0.
379  3.78  0.  0.  0.
380  3.79  0.  0.  0.
381  3.80  0.  0.  0.
382  3.81  0.  0.  0.
383  3.82  0.  0.  0.
384  3.83  0.  0.  0.
385  3.84  0.  0.  0.
386  3.85  0.  0.  0.
387  3.86  0.  0.  0.
388  3.87  0.  0.  0.
389  3.88  0.  0.  0.
390  3.89  0.  0.  0.
391  3.90  0.  0.  0.
392  3.91  0.  0.  0.
393  3.92  0.  0.  0.
394  3.93  0.  0.  0.
395  3.94  0.  0.  0.
396  3.95  0.  0.  0.
397  3.96  0.  0.  0.
398  3.97  0.  0.  0.
399  3.98  0.  0.  0.
400  3.99  0.  0.  0.
401  4.00  0.  0.  0.
402  4.01  0.  0.  0.
403  4.02  0.  0.  0.
404  4.03  0.  0.  0.
405  4.04  0.  0.  0.
406  4.05  0.  0.  0.
407  4.06  0.  0.  0.
408  4.07  0.  0.  0.
409  4.08  0.  0.  0.
410  4.09  0.  0.  0.
411  4.10  0.  0.  0.
412  4.11  0.  0.  0.
413  4.12  0.  0.  0.
414  4.13  0.  0.  0.
415  4.14  0.  0.  0.
416  4.15  0.  0.  0.
417  4.16  0.  0.  0.
418  4.17  0.  0.  0.
419  4.18  0.  0.  0.
420  4.19  0.  0.  0.
421  4.20  0.  0.  0.
422  4.21  0.  0.  0.
423  4.22  0.  0.  0.
424  4.23  0.  0.  0.
425  4.24  0.  0.  0.
426  4.25  0.  0.  0.
427  4.26  0.  0.  0.
428  4.27  0.  0.  0.
429  4.28  0.  0.  0.
430  4.29  0.  0.  0.
431  4.30  0.  0.  0.
432  4.31  0.  0.  0.
433  4.32  0.  0.  0.
434  4.33  0.  0.  0.
435  4.34  0.  0.  0.
436  4.35  0.  0.  0.
437  4.36  0.  0.  0.
438  4.37  0.  0.  0.
439  4.38  0.  0.  0.
440  4.39  0.  0.  0.
441  4.40  0.  0.  0.
442  4.41  0.  0.  0.
443  4.42  0.  0.  0.
444  4.43  0.  0.  0.
445  4.44  0.  0.  0.
446  4.45  0.  0.  0.
447  4.46  0.  0.  0.
448  4.47  0.  0.  0.
449  4.48  0.  0.  0.
450  4.49  0.  0.  0.
451  4.50  0.  0.  0.
452  4.51  0.  0.  0.
453  4.52  0.  0.  0.
454  4.53  0.  0.  0.
455  4.54  0.  0.  0.
456  4.55  0.  0.  0.
457  4.56  0.  0.  0.
458  4.57  0.  0.  0.
459  4.58  0.  0.  0.
460  4.59  0.  0.  0.
461  4.60  0.  0.  0.
462  4.61  0.  0.  0.
463  4.62  0.  0.  0.
464  4.63  0.  0.  0.
465  4.64  0.  0.  0.
466  4.65  0.  0.  0.
467  4.66  0.  0.  0.
468  4.67  0.  0.  0.
469  4.68  0.  0.  0.
470  4.69  0.  0.  0.
471  4.70  0.  0.  0.
472  4.71  0.  0.  0.
473  4.72  0.  0.  0.
474  4.73  0.  0.  0.
475  4.74  0.  0.  0.
476  4.75  0.  0.  0.
477  4.76  0.  0.  0.
478  4.77  0.  0.  0.
479  4.78  0.  0.  0.
480  4.79  0.  0.  0.
481  4.80  0.  0.  0.
482  4.81  0.  0.  0.
483  4.82  0.  0.  0.
484  4.83  0.  0.  0.
485  4.84  0.  0.  0.
486  4.85  0.  0.  0.
487  4.86  0.  0.  0.
488  4.87  0.  0.  0.
489  4.88  0.  0.  0.
490  4.89  0.  0.  0.
491  4.90  0.  0.  0.
492  4.91  0.  0.  0.
493  4.92  0.  0.  0.
494  4.93  0.  0.  0.
495  4.94  0.  0.  0.
496  4.95  0.  0.  0.
497  4.96  0.  0.  0.
498  4.97  0.  0.  0.
499  4.98  0.  0.  0.
500  4.99  0.  0.  0.
501  5.00  0.  0.  0.
502  5.01  0.  0.  0.
503  5.02  0.  0.  0.
504  5.03  0.  0.  0.
505  5.04  0.  0.  0.
506  5.05  0.  0.  0.
507  5.06  0.  0.  0.
508  5.07  0.  0.  0.
509  5.08  0.  0.  0.
510  5.09  0.  0.  0.
511  5.10  0.  0.  0.
512  5.11  0.  0.  0.
513  5.12  0.  0.  0.
514  5.13  0.  0.  0.
515  5.14  0.  0.  0.
516  5.15  0.  0.  0.
517  5.16  0.  0.  0.
518  5.17  0.  0.  0.
519  5.18  0.  0.  0.
520  5.19  0.  0.  0.
521  5.20  0.  0.  0.
522  5.21  0.  0.  0.
523  5.22  0.  0.  0.
524  5.23  0.  0.  0.
525  5.24  0.  0.  0.
526  5.25  0.  0.  0.
527  5.26  0.  0.  0.
528  5.27  0.  0.  0.
529  5.28  0.  0.  0.
530  5.29  0.  0.  0.
531  5.30  0.  0.  0.
532  5.31  0.  0.  0.
533  5.32  0.  0.  0.
534  5.33  0.  0.  0.
535  5.34  0.  0.  0.
536  5.35  0.  0.  0.
537  5.36  0.  0.  0.
538  5.37  0.  0.  0.
539  5.38  0.  0.  0.
540  5.39  0.  0.  0.
541  5.40  0.  0.  0.
542  5.41  0.  0.  0.
543  5.42  0.  0.  0.
544  5.43  0.  0.  0.
545  5.44  0.  0.  0.
546  5.45  0.  0.  0.
547  5.46  0.  0.  0.
548  5.47  0.  0.  0.
549  5.48  0.  0.  0.
550  5.49  0.  0.  0.
551  5.50  0.  0.  0.
552  5.51  0.  0.  0.
553  5.52  0.  0.  0.
554  5.53  0.  0.  0.
555  5.54  0.  0.  0.
556  5.55  0.  0.  0.
557  5.56  0.  0.  0.
558  5.57  0.  0.  0.
559  5.58  0.  0.  0.
560  5.59  0.  0.  0.
561  5.60  0.  0.  0.
562  5.61  0.  0.  0.
563  5.62  0.  0.  0.
564  5.63  0.  0.  0.
565  5.64  0.  0.  0.
566  5.65  0.  0.  0.
567  5.66  0.  0.  0.
568  5.67  0.  0.  0.
569  5.68  0.  0.  0.
570  5.69  0.  0.  0.
571  5.70  0.  0.  0.
572  5.71  0.  0.  0.
573  5.72  0.  0.  0.
574  5.73  0.  0.  0.
575  5.74  0.  0.  0.
576  5.75  0.  0.  0.
577  5.76  0.  0.  0.
578  5.77  0.  0.  0.
579  5.78  0.  0.  0.
580  5.79  0.  0.  0.
581  5.80  0.  0.  0.
582  5.81  0.  0.  0.
583  5.82  0.  0.  0.
584  5.83  0.  0.  0.
585  5.84  0.  0.  0.
586  5.85  0.  0.  0.
587  5.86  0.  0.  0.
588  5.87  0.  0.  0.
589  5.88  0.  0.  0.
590  5.89  0.  0.  0.
591  5.90  0.  0.  0.
592  5.91  0.  0.  0.
593  5.92  0.  0.  0.
594  5.93  0.  0.  0.
595  5.94  0.  0.  0.
596  5.95  0.  0.  0.
597  5.96  0.  0.  0.
598  5.97  0.  0.  0.
599  5.98  0.  0.  0.
600  5.99  0.  0.  0.
1                         2.4573586829105E+01  3.1805612592673E+00
1  0.0000000000000E+00 -6.9691677595518E-08  1.1092355967079E-07
2  1.0000000000000E-02  3.6184614128246E-03  1.2448457532431E-03
3  2.0000000000000E-02  1.4466626356991E-02  4.9375821001331E-03
4  3.0000000000000E-02  3.2521834051224E-02  1.0954732543363E-02
5  4.0000000000000E-02  5.7743023336469E-02  1.9096845629508E-02
6  5.0000000000000E-02  9.0065965246112E-02  2.9097738642712E-02
7  6.0000000000000E-02  1.2939692633924E-01  4.0636908589713E-02
8  7.0000000000000E-02  1.7560508451134E-01  5.3354604527398E-02
9  8.0000000000000E-02  2.2851408868847E-01  6.6868944360500E-02
10  9.0000000000000E-02  2.8789320795927E-01  8.0794371846636E-02
11  1.0000000000000E-01  3.5344855205455E-01  9.4760689108492E-02
12  1.1000000000000E-01  4.2481486205349E-01  1.0843186890277E-01
13  1.2000000000000E-01  5.0154836690308E-01  1.2152385058957E-01
14  1.3000000000000E-01  5.8312117766211E-01  1.3382055440526E-01
15  1.4000000000000E-01  6.6891764796862E-01  1.4518740933846E-01
16  1.5000000000000E-01  7.5823306747085E-01  1.5558177859120E-01
17  1.6000000000000E-01  8.5027497695347E-01  1.6505978016506E-01
18  1.7000000000000E-01  9.4416730236026E-01  1.7377913448427E-01
19  1.8000000000000E-01  1.0389574031334E+00  1.8199782127493E-01
20  1.9000000000000E-01  1.1336260219508E+00  1.9006848864727E-01
21  2.0000000000000E-01  1.2271000120414E+00  1.9842872250418E-01
22  2.1000000000000E-01  1.3182676089363E+00  2.0758744782945E-01
23  2.2000000000000E-01  1.4059959099205E+00  2.1810788887934E-01
24  2.3000000000000E-01  1.4891501305872E+00  2.3058765682602E-01
25  2.4000000000000E-01  1.5666141274591E+00  2.4563665543181E-01
26  2.5000000000000E-01  1.6373116118990E+00  2.6385359297820E-01
27  2.6000000000000E-01  1.7002274361758E+00  2.8580195788236E-01
28  2.7000000000000E-01  1.7544283096082E+00  3.1198635316323E-01
29  2.8000000000000E-01  1.7990823024409E+00  3.4283008925830E-01
30  2.9000000000000E-01  1.8334765179634E+00  3.7865490495283E-01
31  3.0000000000000E-01  1.8570323589536E+00  4.1966362294326E-01
32  3.1000000000000E-01  1.8693178815746E+00  4.6592645166245E-01
33  3.2000000000000E-01  1.8700568162957E+00  5.1737152151151E-01
34  3.3000000000000E-01  1.8591339384340E+00  5.7378009576106E-01
35  3.4000000000000E-01  1.8365965870307E+00  6.3478672928592E-01
36  3.5000000000000E-01  1.8026522559560E+00  6.9988446797775E-01
37  3.6000000000000E-01  1.7576623109361E+00  7.6843499473476E-01
38  3.7000000000000E-01  1.7021320159362E+00  8.3968344132727E-01
39  3.8000000000000E-01  1.6366971772365E+00  9.1277740625760E-01
40  3.9000000000000E-01  1.5621078289490E+00  9.8678955390233E-01
41  4.0000000000000E-01  1.4792094852361E+00  1.0607430262527E+00
42  4.1000000000000E-01  1.3889225681693E+00  1.1336387812980E+00
43  4.2000000000000E-01  1.2922206826492E+00  1.2044838864620E+00
44  4.3000000000000E-01  1.1901084484949E+00  1.2723197453273E+00
45  4.4000000000000E-01  1.0835996129375E+00  1.3362492237249E+00
46  4.5000000000000E-01  9.7369615349095E-01  1.3954616682622E+00
47  4.6000000000000E-01  8.6136904168724E-01  1.4492548762017E+00
48  4.7000000000000E-01  7.4754127358789E-01  1.4970531784667E+00
49  4.8000000000000E-01  6.3307368545373E-01  1.5384209341713E+00
50  4.9000000000000E-01  5.1875396548270E-01  1.5730709008469E+00
51  5.0000000000000E-01  4.0528914895174E-01  1.6008671336216E+00
52  5.1000000000000E-01  2.9330174892872E-01  1.6218222721930E+00
53  5.2000000000000E-01  1.8332953297945E-01  1.6360892889056E+00
54  5.3000000000000E-01  7.5828813338052E-02  1.6439479865371E+00
55  5.4000000000000E-01 -2.8819020676929E-02  1.6457867422312E+00
56  5.5000000000000E-01 -1.3029812822571E-01  1.6420801862656E+00
57  5.6000000000000E-01 -2.2834651492580E-01  1.6333636733174E+00
58  5.7000000000000E-01 -3.2274261247098E-01  1.6202055426518E+00
59  5.8000000000000E-01 -4.1329082054165E-01  1.6031782663273E+00
60  5.9000000000000E-01 -4.9980673662354E-01  1.5828296464611E+00
61  6.0000000000000E-01 -5.8210281574631E-01  1.5596552407268E+00
62  6.1000000000000E-01 -6.5997518894858E-01  1.5340731680843E+00
63  6.2000000000000E-01 -7.3319232658075E-01  1.5064023745102E+00
64  6.3000000000000E-01 -8.0148616164082E-01  1.4768453232182E+00
65  6.4000000000000E-01 -8.6454619159198E-01  1.4454759192196E+00
66  6.5000000000000E-01 -9.2201695797693E-01  1.4122332893712E+00
67  6.6000000000000E-01 -9.7349916598968E-01  1.3769218229662E+00
68  6.7000000000000E-01 -1.0185545561311E+00  1.3392176423104E+00
69  6.8000000000000E-01 -1.0567144828892E+00  1.2986814263173E+00
70  6.9000000000000E-01 -1.0874919971082E+00  1.2547772622136E+00
71  7.0000000000000E-01 -1.1103970755764E+00  1.2068969604589E+00
72  7.1000000000000E-01 -1.1249544994225E+00  1.1543890451976E+00
73  7.2000000000000E-01 -1.1307237579134E+00  1.0965914357398E+00
74  7.3000000000000E-01 -1.1273202512834E+00  1.0328666714959E+00
75  7.4000000000000E-01 -1.1144369896293E+00  9.6263841009863E-01
76  7.5000000000000E-01 -1.0918659379622E+00  8.8542785118529E-01
77  7.6000000000000E-01 -1.0595181423993E+00  8.0088870986341E-01
78  7.7000000000000E-01 -1.0174417901086E+00  7.0883938568822E-01
79  7.8000000000000E-01 -9.6583740559672E-01  6.0929104452211E-01
80  7.9000000000000E-01 -9.0506946654873E-01  5.0247044942072E-01
81  8.0000000000000E-01 -8.3567383070244E-01  3.8883653824158E-01
82  8.1000000000000E-01 -7.5836049700975E-01  2.6908994376612E-01
83  8.2000000000000E-01 -6.7401137439541E-01  1.4417487894083E-01
84  8.3000000000000E-01 -5.8367289369820E-01  1.5273056222825E-02
85  8.4000000000000E-01 -4.8854346613763E-01 -1.1621043419582E-01
86  8.5000000000000E-01 -3.8995595773417E-01 -2.4866910813405E-01
87  8.6000000000000E-01 -2.8935550619046E-01 -3.8032451212237E-01
88  8.7000000000000E-01 -1.8827314755694E-01 -5.0926244969693E-01
89  8.8000000000000E-01 -8.8295837628924E-02 -6.3347518563103E-01
90  8.9000000000000E-01  8.9664589166416E-03 -7.5090866390436E-01
91  9.0000000000000E-01  1.0191588573111E-01 -8.5951368697156E-01
92  9.1000000000000E-01  1.8900327931991E-01 -9.5729997507049E-01
93  9.2000000000000E-01  2.6876551204955E-01 -1.0423920603697E+00
94  9.3000000000000E-01  3.3986296061122E-01 -1.1130860753160E+00
95  9.4000000000000E-01  4.0111658935680E-01 -1.1679066693090E+00
96  9.5000000000000E-01  4.5154430667945E-01 -1.2056635324887E+00
97  9.6000000000000E-01  4.9039646603766E-01 -1.2255073176814E+00
98  9.7000000000000E-01  5.1719063852563E-01 -1.2269851273507E+00
99  9.8000000000000E-01  5.3174607689541E-01 -1.2100961656345E+00
100  9.9000000000000E-01  5.3421862027260E-01 -1.1753486449240E+00
101  1.0000000000000E+00  5.2513709187198E-01 -1.1238194777690E+00
102  1.0100000000000E+00  5.0544246843174E-01 -1.0572185950706E+00
103  1.0200000000000E+00  4.7647465549608E-01 -9.7786497493083E-01
104  1.0300000000000E+00  4.3979937317232E-01 -8.8839721004170E-01
105  1.0400000000000E+00  3.9710577523871E-01 -7.9160943141976E-01
106  1.0500000000000E+00  3.5016326699605E-01 -6.9038887798376E-01
107  1.0600000000000E+00  3.0077581149950E-01 -5.8764981237259E-01
108  1.0700000000000E+00  2.5073445881662E-01 -4.8626473106387E-01
109  1.0800000000000E+00  2.0176939085919E-01 -3.8899474589472E-01
110  1.0900000000000E+00  1.5550285427267E-01 -2.9842115267796E-01
111  1.1000000000000E+00  1.1338801152452E-01 -2.1685728517845E-01
112  1.1100000000000E+00  7.6573093534948E-02 -1.4615285838286E-01
113  1.1200000000000E+00  4.6171266682245E-02 -8.8073106914342E-02
114  1.1300000000000E+00  2.3057181127688E-02 -4.4016727092380E-02
115  1.1400000000000E+00  7.7933802803834E-03 -1.4909945865575E-02
116  1.1500000000000E+00  6.9382521125544E-04 -1.3322399269794E-03
117  1.1600000000000E+00 -2.4197790535727E-05  4.6577267216752E-05
118  1.1700000000000E+00 -4.3658668804818E-06  8.3730351041408E-06
119  1.18 -0.  0.
120  1.19  0.  0.
121  1.20  0.  0.
122  1.21  0.  0.
123  1.22  0.  0.
124  1.23  0.  0.
125  1.24  0.  0.
126  1.25  0.  0.
127  1.26  0.  0.
128  1.27  0.  0.
129  1.28  0.  0.
130  1.29  0.  0.
131  1.30  0.  0.
132  1.31  0.  0.
133  1.32  0.  0.
134  1.33  0.  0.
135  1.34  0.  0.
136  1.35  0.  0.
137  1.36  0.  0.
138  1.37  0.  0.
139  1.38  0.  0.
140  1.39  0.  0.
141  1.40  0.  0.
142  1.41  0.  0.
143  1.42  0.  0.
144  1.43  0.  0.
145  1.44  0.  0.
146  1.45  0.  0.
147  1.46  0.  0.
148  1.47  0.  0.
149  1.48  0.  0.
150  1.49  0.  0.
151  1.50  0.  0.
152  1.51  0.  0.
153  1.52  0.  0.
154  1.53  0.  0.
155  1.54  0.  0.
156  1.55  0.  0.
157  1.56  0.  0.
158  1.57  0.  0.
159  1.58  0.  0.
160  1.59  0.  0.
161  1.60  0.  0.
162  1.61  0.  0.
163  1.62  0.  0.
164  1.63  0.  0.
165  1.64  0.  0.