Cf    ONCVPSP-4.0.1  r_core=   1.15394   1.15394   1.35621   1.35621
98.0000     38.0000      220307    zatom,zion,pspd
8      11   3     4   600     0    pspcod,pspxc,lmax,lloc,mmax,r2well
5.99000000  5.00000000  0.00000000    rchrg fchrg qchrg
3     2     2     2     0    nproj
1     1           extension_switch
0                         4.1941344183054E+01  1.7671177373440E+00 -1.0274591779422E+00
1  0.0000000000000E+00 -8.0771984656280E-09  8.4281795875718E-08 -1.3862669706599E-08
2  1.0000000000000E-02  1.6257123663719E-01 -9.3218709524668E-02  1.5424728188006E-02
3  2.0000000000000E-02  3.2414151491131E-01 -1.8500474175604E-01  3.0759445691290E-02
4  3.0000000000000E-02  4.8371767050732E-01 -2.7394783504156E-01  4.5915593917951E-02
5  4.0000000000000E-02  6.4032204074603E-01 -3.5868196954677E-01  6.0807462082273E-02
6  5.0000000000000E-02  7.9300000152074E-01 -4.3790603814587E-01  7.5353474212847E-02
7  6.0000000000000E-02  9.4082725382838E-01 -5.1040284242887E-01  8.9477322994846E-02
8  7.0000000000000E-02  1.0829167865417E+00 -5.7505596097246E-01  1.0310891718900E-01
9  8.0000000000000E-02  1.2184254501465E+00 -6.3086412130369E-01  1.1618512323245E-01
10  9.0000000000000E-02  1.3465600855564E+00 -6.7695280503468E-01  1.2865029729819E-01
11  1.0000000000000E-01  1.4665831623938E+00 -7.1258292306153E-01  1.4045662058809E-01
12  1.1000000000000E-01  1.5778178918304E+00 -7.3715650969388E-01  1.5156426690532E-01
13  1.2000000000000E-01  1.6796527897415E+00 -7.5021949607293E-01  1.6194144651350E-01
14  1.3000000000000E-01  1.7715456760700E+00 -7.5146172921876E-01  1.7156438289524E-01
15  1.4000000000000E-01  1.8530271054910E+00 -7.4071449875742E-01  1.8041728832454E-01
16  1.5000000000000E-01  1.9237032323260E+00 -7.1794591445106E-01  1.8849240934693E-01
17  1.6000000000000E-01  1.9832581188627E+00 -6.8325454046866E-01  1.9579021372265E-01
18  1.7000000000000E-01  2.0314555005779E+00 -6.3686173397471E-01  2.0231978572833E-01
19  1.8000000000000E-01  2.0681400241027E+00 -5.7910315425849E-01  2.0809948683812E-01
20  1.9000000000000E-01  2.0932379741088E+00 -5.1041990342392E-01  2.1315792386699E-01
21  2.0000000000000E-01  2.1067575037254E+00 -4.3134973088753E-01  2.1753524710968E-01
22  2.1000000000000E-01  2.1087883798333E+00 -3.4251868303209E-01  2.2128477758271E-01
23  2.2000000000000E-01  2.0995012499348E+00 -2.4463350877701E-01  2.2447493615172E-01
24  2.3000000000000E-01  2.0791464316718E+00 -1.3847504500259E-01  2.2719141930186E-01
25  2.4000000000000E-01  2.0480522199333E+00 -2.4892706996329E-02  2.2953953796562E-01
26  2.5000000000000E-01  2.0066227003867E+00  9.5199896721232E-02  2.3164660863728E-01
27  2.6000000000000E-01  1.9553350527357E+00  2.2082831330835E-01  2.3366426151678E-01
28  2.7000000000000E-01  1.8947363226084E+00  3.5095974994570E-01  2.3577051014591E-01
29  2.8000000000000E-01  1.8254396382295E+00  4.8450501948175E-01  2.3817141234127E-01
30  2.9000000000000E-01  1.7481198474130E+00  6.2032029279901E-01  2.4110214443968E-01
31  3.0000000000000E-01  1.6635085522988E+00  7.5720908361442E-01  2.4482731095991E-01
32  3.1000000000000E-01  1.5723885239399E+00  8.9392492856377E-01  2.4964032046946E-01
33  3.2000000000000E-01  1.4755874864759E+00  1.0291752365667E+00  2.5586167608068E-01
34  3.3000000000000E-01  1.3739712712267E+00  1.1616267647993E+00  2.6383605559447E-01
35  3.4000000000000E-01  1.2684363544622E+00  1.2899131337448E+00  2.7392809140948E-01
36  3.5000000000000E-01  1.1599018085713E+00  1.4126447214894E+00  2.8651680312025E-01
37  3.6000000000000E-01  1.0493007144326E+00  1.5284211799292E+00  3.0198868498822E-01
38  3.7000000000000E-01  9.3757110239372E-01  1.6358466962747E+00  3.2072950460247E-01
39  3.8000000000000E-01  8.2564650972175E-01  1.7335479867968E+00  3.4311492614125E-01
40  3.9000000000000E-01  7.1444626288166E-01  1.8201948617981E+00  3.6950012952809E-01
41  4.0000000000000E-01  6.0486561269331E-01  1.8945230476780E+00  4.0020865312165E-01
42  4.1000000000000E-01  4.9776586840008E-01  1.9553588006681E+00  4.3552073994817E-01
43  4.2000000000000E-01  3.9396469207182E-01  2.0016447044730E+00  4.7566151347816E-01
44  4.3000000000000E-01  2.9422672670499E-01  2.0324659177830E+00  5.2078934626306E-01
45  4.4000000000000E-01  1.9925473909748E-01  2.0470760341473E+00  5.7098481129716E-01
46  4.5000000000000E-01  1.0968146141006E-01  2.0449216419944E+00  6.2624061999172E-01
47  4.6000000000000E-01  2.6062312763923E-02  2.0256646317408E+00  6.8645295076161E-01
48  4.7000000000000E-01 -5.1130826061534E-02  1.9892012936582E+00  7.5141455755012E-01
49  4.8000000000000E-01 -1.2151462591523E-01  1.9356772868880E+00  8.2081001777515E-01
50  4.9000000000000E-01 -1.8479797154589E-01  1.8654976373041E+00  8.9421343441383E-01
51  5.0000000000000E-01 -2.4078415924662E-01  1.7793310389609E+00  9.7108884802994E-01
52  5.1000000000000E-01 -2.8937154657509E-01  1.6781078877867E+00  1.0507935429164E+00
53  5.2000000000000E-01 -3.3055260535764E-01  1.5630116626712E+00  1.1325843491026E+00
54  5.3000000000000E-01 -3.6441136694135E-01  1.4354634821582E+00  1.2156269512343E+00
55  5.4000000000000E-01 -3.9111928855746E-01  1.2970998972384E+00  1.2990081191595E+00
56  5.5000000000000E-01 -4.1092961047724E-01  1.1497442238795E+00  1.3817506766576E+00
57  5.6000000000000E-01 -4.2417031404947E-01  9.9537196364113E-01  1.4628309275717E+00
58  5.7000000000000E-01 -4.3123582934570E-01  8.3607109732389E-01  1.5411981662006E+00
59  5.8000000000000E-01 -4.3257767666006E-01  6.7399825544149E-01  1.6157958146384E+00
60  5.9000000000000E-01 -4.2869425721042E-01  5.1133196085628E-01  1.6855836571914E+00
61  6.0000000000000E-01 -4.2012003389933E-01  3.5022429465528E-01  1.7495605840254E+00
62  6.1000000000000E-01 -4.0741436187704E-01  1.9275244853235E-01  1.8067872154601E+00
63  6.2000000000000E-01 -3.9115024010220E-01  4.0871689631512E-02  1.8564077568213E+00
64  6.3000000000000E-01 -3.7190325851284E-01 -1.0362872759158E-01  1.8976704329867E+00
65  6.4000000000000E-01 -3.5024101049506E-01 -2.3916521574646E-01  1.9299458723928E+00
66  6.5000000000000E-01 -3.2671322702053E-01 -3.6439369305752E-01  1.9527428523447E+00
67  6.6000000000000E-01 -3.0184286737088E-01 -4.7823638373438E-01  1.9657208801967E+00
68  6.7000000000000E-01 -2.7611837230841E-01 -5.7990056865879E-01  1.9686991668643E+00
69  6.8000000000000E-01 -2.4998724970023E-01 -6.6888853085479E-01  1.9616616479703E+00
70  6.9000000000000E-01 -2.2385112100299E-01 -7.4499823353815E-01  1.9447578209024E+00
71  7.0000000000000E-01 -1.9806231094069E-01 -8.0831458975099E-01  1.9182992897817E+00
72  7.1000000000000E-01 -1.7292201358497E-01 -8.5919152105900E-01  1.8827520410496E+00
73  7.2000000000000E-01 -1.4868001744436E-01 -8.9822534685789E-01  1.8387246059666E+00
74  7.3000000000000E-01 -1.2553592169873E-01 -9.2622038350383E-01  1.7869523986017E+00
75  7.4000000000000E-01 -1.0364172703383E-01 -9.4414795148665E-01  1.7282786445967E+00
76  7.5000000000000E-01 -8.3105639231736E-02 -9.5310027742060E-01  1.6636324330715E+00
77  7.6000000000000E-01 -6.3996883276050E-02 -9.5424102456205E-01  1.5940045276473E+00
78  7.7000000000000E-01 -4.6351291618128E-02 -9.4875438077172E-01  1.5204216592814E+00
79  7.8000000000000E-01 -3.0177403633855E-02 -9.3779476754968E-01  1.4439200904714E+00
80  7.9000000000000E-01 -1.5462795191176E-02 -9.2243930072353E-01  1.3655192850098E+00
81  8.0000000000000E-01 -2.1803484502063E-03 -9.0364512691494E-01  1.2861965380227E+00
82  8.1000000000000E-01  9.7058268949687E-03 -8.8221367609058E-01  1.2068634163156E+00
83  8.2000000000000E-01  2.0235098381252E-02 -8.5876370689359E-01  1.1283448284122E+00
84  8.3000000000000E-01  2.9445897223499E-02 -8.3371477702146E-01  1.0513614869970E+00
85  8.4000000000000E-01  3.7372409900832E-02 -8.0728244576243E-01  9.7651644402358E-01
86  8.5000000000000E-01  4.4042555776799E-02 -7.7948611074484E-01  9.0428627113601E-01
87  8.6000000000000E-01  4.9477378907403E-02 -7.5016989715794E-01  8.3501732598162E-01
88  8.7000000000000E-01  5.3691919441612E-02 -7.1903645612596E-01  7.6892738921487E-01
89  8.8000000000000E-01  5.6697557370648E-02 -6.8569288983425E-01  7.0611277801535E-01
90  8.9000000000000E-01  5.8505738813623E-02 -6.4970730340787E-01  6.4656083992738E-01
91  9.0000000000000E-01  5.9132902314435E-02 -6.1067368457153E-01  5.9016750534320E-01
92  9.1000000000000E-01  5.8606319281410E-02 -5.6828192659315E-01  5.3675932682738E-01
93  9.2000000000000E-01  5.6970447899480E-02 -5.2238882978282E-01  4.8611915660333E-01
94  9.3000000000000E-01  5.4293272371160E-02 -4.7308483044988E-01  4.3801430671103E-01
95  9.4000000000000E-01  5.0671957530252E-02 -4.2074999842668E-01  3.9222569516900E-01
96  9.5000000000000E-01  4.6236990574996E-02 -3.6609149575344E-01  3.4857610019704E-01
97  9.6000000000000E-01  4.1153804230835E-02 -3.1015317634641E-01  3.0695521604615E-01
98  9.7000000000000E-01  3.5620675794886E-02 -2.5428630068303E-01  2.6733871943477E-01
99  9.8000000000000E-01  2.9861470553041E-02 -2.0006840872382E-01  2.2979800507144E-01
100  9.9000000000000E-01  2.4111540175770E-02 -1.4915518520983E-01  1.9449661966442E-01
101  1.0000000000000E+00  1.8594813015436E-02 -1.0304785086656E-01  1.6166871195869E-01
102  1.0100000000000E+00  1.3489836296855E-02 -6.2756366522617E-02  1.3157401909594E-01
103  1.0200000000000E+00  8.9044100673808E-03 -2.8575288591995E-02  1.0443537564945E-01
104  1.0300000000000E+00  4.9103384088957E-03 -5.0760375220053E-04  8.0411157111662E-02
105  1.0400000000000E+00  1.5628108280899E-03  2.1509403479280E-02  5.9596799306873E-02
106  1.0500000000000E+00 -1.1011155781633E-03  3.7613629688502E-02  4.2024799468488E-02
107  1.0600000000000E+00 -3.0645916658308E-03  4.8034319165970E-02  2.7663419440778E-02
108  1.0700000000000E+00 -4.3333310895687E-03  5.3111828156099E-02  1.6414320711040E-02
109  1.0800000000000E+00 -4.9381018220698E-03  5.3319472667094E-02  8.1094096144240E-03
110  1.0900000000000E+00 -4.9372629997476E-03  4.9286488945541E-02  2.5070919584408E-03
111  1.1000000000000E+00 -4.4318989268781E-03  4.1918819806186E-02 -7.5712094097162E-04
112  1.1100000000000E+00 -3.6351153123133E-03  3.2944161157486E-02 -2.4190148373290E-03
113  1.1200000000000E+00 -2.6423276858026E-03  2.3135572633233E-02 -2.7562147694579E-03
114  1.1300000000000E+00 -1.5780395681161E-03  1.3439964985020E-02 -2.1033007220361E-03
115  1.1400000000000E+00 -6.3315875694991E-04  5.2737454179694E-03 -9.8604084847307E-04
116  1.1500000000000E+00 -6.6739058430960E-05  5.4569736531826E-04 -1.1589094057073E-04
117  1.1600000000000E+00  2.5631193501089E-06 -2.0767437927964E-05  4.6862191055217E-06
118  1.1700000000000E+00  4.0022529671698E-07 -3.2894343059603E-06  6.7713185382137E-07
119  1.18 -0.  0. -0.
120  1.19  0.  0.  0.
121  1.20  0.  0.  0.
122  1.21  0.  0.  0.
123  1.22  0.  0.  0.
124  1.23  0.  0.  0.
125  1.24  0.  0.  0.
126  1.25  0.  0.  0.
127  1.26  0.  0.  0.
128  1.27  0.  0.  0.
129  1.28  0.  0.  0.
130  1.29  0.  0.  0.
131  1.30  0.  0.  0.
132  1.31  0.  0.  0.
133  1.32  0.  0.  0.
134  1.33  0.  0.  0.
135  1.34  0.  0.  0.
136  1.35  0.  0.  0.
137  1.36  0.  0.  0.
138  1.37  0.  0.  0.
139  1.38  0.  0.  0.
140  1.39  0.  0.  0.
141  1.40  0.  0.  0.
142  1.41  0.  0.  0.
143  1.42  0.  0.  0.
144  1.43  0.  0.  0.
145  1.44  0.  0.  0.
146  1.45  0.  0.  0.
147  1.46  0.  0.  0.
148  1.47  0.  0.  0.
149  1.48  0.  0.  0.
150  1.49  0.  0.  0.
151  1.50  0.  0.  0.
152  1.51  0.  0.  0.
153  1.52  0.  0.  0.
154  1.53  0.  0.  0.
155  1.54  0.  0.  0.
156  1.55  0.  0.  0.
157  1.56  0.  0.  0.
158  1.57  0.  0.  0.
159  1.58  0.  0.  0.
160  1.59  0.  0.  0.
161  1.60  0.  0.  0.
162  1.61  0.  0.  0.
163  1.62  0.  0.  0.
164  1.63  0.  0.  0.
165  1.64  0.  0.  0.
166  1.65  0.  0.  0.
167  1.66  0.  0.  0.
168  1.67  0.  0.  0.
169  1.68  0.  0.  0.
170  1.69  0.  0.  0.
171  1.70  0.  0.  0.
172  1.71  0.  0.  0.
173  1.72  0.  0.  0.
174  1.73  0.  0.  0.
175  1.74  0.  0.  0.
176  1.75  0.  0.  0.
177  1.76  0.  0.  0.
178  1.77  0.  0.  0.
179  1.78  0.  0.  0.
180  1.79  0.  0.  0.
181  1.80  0.  0.  0.
182  1.81  0.  0.  0.
183  1.82  0.  0.  0.
184  1.83  0.  0.  0.
185  1.84  0.  0.  0.
186  1.85  0.  0.  0.
187  1.86  0.  0.  0.
188  1.87  0.  0.  0.
189  1.88  0.  0.  0.
190  1.89  0.  0.  0.
191  1.90  0.  0.  0.
192  1.91  0.  0.  0.
193  1.92  0.  0.  0.
194  1.93  0.  0.  0.
195  1.94  0.  0.  0.
196  1.95  0.  0.  0.
197  1.96  0.  0.  0.
198  1.97  0.  0.  0.
199  1.98  0.  0.  0.
200  1.99  0.  0.  0.
201  2.00  0.  0.  0.
202  2.01  0.  0.  0.
203  2.02  0.  0.  0.
204  2.03  0.  0.  0.
205  2.04  0.  0.  0.
206  2.05  0.  0.  0.
207  2.06  0.  0.  0.
208  2.07  0.  0.  0.
209  2.08  0.  0.  0.
210  2.09  0.  0.  0.
211  2.10  0.  0.  0.
212  2.11  0.  0.  0.
213  2.12  0.  0.  0.
214  2.13  0.  0.  0.
215  2.14  0.  0.  0.
216  2.15  0.  0.  0.
217  2.16  0.  0.  0.
218  2.17  0.  0.  0.
219  2.18  0.  0.  0.
220  2.19  0.  0.  0.
221  2.20  0.  0.  0.
222  2.21  0.  0.  0.
223  2.22  0.  0.  0.
224  2.23  0.  0.  0.
225  2.24  0.  0.  0.
226  2.25  0.  0.  0.
227  2.26  0.  0.  0.
228  2.27  0.  0.  0.
229  2.28  0.  0.  0.
230  2.29  0.  0.  0.
231  2.30  0.  0.  0.
232  2.31  0.  0.  0.
233  2.32  0.  0.  0.
234  2.33  0.  0.  0.
235  2.34  0.  0.  0.
236  2.35  0.  0.  0.
237  2.36  0.  0.  0.
238  2.37  0.  0.  0.
239  2.38  0.  0.  0.
240  2.39  0.  0.  0.
241  2.40  0.  0.  0.
242  2.41  0.  0.  0.
243  2.42  0.  0.  0.
244  2.43  0.  0.  0.
245  2.44  0.  0.  0.
246  2.45  0.  0.  0.
247  2.46  0.  0.  0.
248  2.47  0.  0.  0.
249  2.48  0.  0.  0.
250  2.49  0.  0.  0.
251  2.50  0.  0.  0.
252  2.51  0.  0.  0.
253  2.52  0.  0.  0.
254  2.53  0.  0.  0.
255  2.54  0.  0.  0.
256  2.55  0.  0.  0.
257  2.56  0.  0.  0.
258  2.57  0.  0.  0.
259  2.58  0.  0.  0.
260  2.59  0.  0.  0.
261  2.60  0.  0.  0.
262  2.61  0.  0.  0.
263  2.62  0.  0.  0.
264  2.63  0.  0.  0.
265  2.64  0.  0.  0.
266  2.65  0.  0.  0.
267  2.66  0.  0.  0.
268  2.67  0.  0.  0.
269  2.68  0.  0.  0.
270  2.69  0.  0.  0.
271  2.70  0.  0.  0.
272  2.71  0.  0.  0.
273  2.72  0.  0.  0.
274  2.73  0.  0.  0.
275  2.74  0.  0.  0.
276  2.75  0.  0.  0.
277  2.76  0.  0.  0.
278  2.77  0.  0.  0.
279  2.78  0.  0.  0.
280  2.79  0.  0.  0.
281  2.80  0.  0.  0.
282  2.81  0.  0.  0.
283  2.82  0.  0.  0.
284  2.83  0.  0.  0.
285  2.84  0.  0.  0.
286  2.85  0.  0.  0.
287  2.86  0.  0.  0.
288  2.87  0.  0.  0.
289  2.88  0.  0.  0.
290  2.89  0.  0.  0.
291  2.90  0.  0.  0.
292  2.91  0.  0.  0.
293  2.92  0.  0.  0.
294  2.93  0.  0.  0.
295  2.94  0.  0.  0.
296  2.95  0.  0.  0.
297  2.96  0.  0.  0.
298  2.97  0.  0.  0.
299  2.98  0.  0.  0.
300  2.99  0.  0.  0.
301  3.00  0.  0.  0.
302  3.01  0.  0.  0.
303  3.02  0.  0.  0.
304  3.03  0.  0.  0.
305  3.04  0.  0.  0.
306  3.05  0.  0.  0.
307  3.06  0.  0.  0.
308  3.07  0.  0.  0.
309  3.08  0.  0.  0.
310  3.09  0.  0.  0.
311  3.10  0.  0.  0.
312  3.11  0.  0.  0.
313  3.12  0.  0.  0.
314  3.13  0.  0.  0.
315  3.14  0.  0.  0.
316  3.15  0.  0.  0.
317  3.16  0.  0.  0.
318  3.17  0.  0.  0.
319  3.18  0.  0.  0.
320  3.19  0.  0.  0.
321  3.20  0.  0.  0.
322  3.21  0.  0.  0.
323  3.22  0.  0.  0.
324  3.23  0.  0.  0.
325  3.24  0.  0.  0.
326  3.25  0.  0.  0.
327  3.26  0.  0.  0.
328  3.27  0.  0.  0.
329  3.28  0.  0.  0.
330  3.29  0.  0.  0.
331  3.30  0.  0.  0.
332  3.31  0.  0.  0.
333  3.32  0.  0.  0.
334  3.33  0.  0.  0.
335  3.34  0.  0.  0.
336  3.35  0.  0.  0.
337  3.36  0.  0.  0.
338  3.37  0.  0.  0.
339  3.38  0.  0.  0.
340  3.39  0.  0.  0.
341  3.40  0.  0.  0.
342  3.41  0.  0.  0.
343  3.42  0.  0.  0.
344  3.43  0.  0.  0.
345  3.44  0.  0.  0.
346  3.45  0.  0.  0.
347  3.46  0.  0.  0.
348  3.47  0.  0.  0.
349  3.48  0.  0.  0.
350  3.49  0.  0.  0.
351  3.50  0.  0.  0.
352  3.51  0.  0.  0.
353  3.52  0.  0.  0.
354  3.53  0.  0.  0.
355  3.54  0.  0.  0.
356  3.55  0.  0.  0.
357  3.56  0.  0.  0.
358  3.57  0.  0.  0.
359  3.58  0.  0.  0.
360  3.59  0.  0.  0.
361  3.60  0.  0.  0.
362  3.61  0.  0.  0.
363  3.62  0.  0.  0.
364  3.63  0.  0.  0.
365  3.64  0.  0.  0.
366  3.65  0.  0.  0.
367  3.66  0.  0.  0.
368  3.67  0.  0.  0.
369  3.68  0.  0.  0.
370  3.69  0.  0.  0.
371  3.70  0.  0.  0.
372  3.71  0.  0.  0.
373  3.72  0.  0.  0.
374  3.73  0.  0.  0.
375  3.74  0.  0.  0.
376  3.75  0.  0.  0.
377  3.76  0.  0.  0.
378  3.77  0.  0.  0.
379  3.78  0.  0.  0.
380  3.79  0.  0.  0.
381  3.80  0.  0.  0.
382  3.81  0.  0.  0.
383  3.82  0.  0.  0.
384  3.83  0.  0.  0.
385  3.84  0.  0.  0.
386  3.85  0.  0.  0.
387  3.86  0.  0.  0.
388  3.87  0.  0.  0.
389  3.88  0.  0.  0.
390  3.89  0.  0.  0.
391  3.90  0.  0.  0.
392  3.91  0.  0.  0.
393  3.92  0.  0.  0.
394  3.93  0.  0.  0.
395  3.94  0.  0.  0.
396  3.95  0.  0.  0.
397  3.96  0.  0.  0.
398  3.97  0.  0.  0.
399  3.98  0.  0.  0.
400  3.99  0.  0.  0.
401  4.00  0.  0.  0.
402  4.01  0.  0.  0.
403  4.02  0.  0.  0.
404  4.03  0.  0.  0.
405  4.04  0.  0.  0.
406  4.05  0.  0.  0.
407  4.06  0.  0.  0.
408  4.07  0.  0.  0.
409  4.08  0.  0.  0.
410  4.09  0.  0.  0.
411  4.10  0.  0.  0.
412  4.11  0.  0.  0.
413  4.12  0.  0.  0.
414  4.13  0.  0.  0.
415  4.14  0.  0.  0.
416  4.15  0.  0.  0.
417  4.16  0.  0.  0.
418  4.17  0.  0.  0.
419  4.18  0.  0.  0.
420  4.19  0.  0.  0.
421  4.20  0.  0.  0.
422  4.21  0.  0.  0.
423  4.22  0.  0.  0.
424  4.23  0.  0.  0.
425  4.24  0.  0.  0.
426  4.25  0.  0.  0.
427  4.26  0.  0.  0.
428  4.27  0.  0.  0.
429  4.28  0.  0.  0.
430  4.29  0.  0.  0.
431  4.30  0.  0.  0.
432  4.31  0.  0.  0.
433  4.32  0.  0.  0.
434  4.33  0.  0.  0.
435  4.34  0.  0.  0.
436  4.35  0.  0.  0.
437  4.36  0.  0.  0.
438  4.37  0.  0.  0.
439  4.38  0.  0.  0.
440  4.39  0.  0.  0.
441  4.40  0.  0.  0.
442  4.41  0.  0.  0.
443  4.42  0.  0.  0.
444  4.43  0.  0.  0.
445  4.44  0.  0.  0.
446  4.45  0.  0.  0.
447  4.46  0.  0.  0.
448  4.47  0.  0.  0.
449  4.48  0.  0.  0.
450  4.49  0.  0.  0.
451  4.50  0.  0.  0.
452  4.51  0.  0.  0.
453  4.52  0.  0.  0.
454  4.53  0.  0.  0.
455  4.54  0.  0.  0.
456  4.55  0.  0.  0.
457  4.56  0.  0.  0.
458  4.57  0.  0.  0.
459  4.58  0.  0.  0.
460  4.59  0.  0.  0.
461  4.60  0.  0.  0.
462  4.61  0.  0.  0.
463  4.62  0.  0.  0.
464  4.63  0.  0.  0.
465  4.64  0.  0.  0.
466  4.65  0.  0.  0.
467  4.66  0.  0.  0.
468  4.67  0.  0.  0.
469  4.68  0.  0.  0.
470  4.69  0.  0.  0.
471  4.70  0.  0.  0.
472  4.71  0.  0.  0.
473  4.72  0.  0.  0.
474  4.73  0.  0.  0.
475  4.74  0.  0.  0.
476  4.75  0.  0.  0.
477  4.76  0.  0.  0.
478  4.77  0.  0.  0.
479  4.78  0.  0.  0.
480  4.79  0.  0.  0.
481  4.80  0.  0.  0.
482  4.81  0.  0.  0.
483  4.82  0.  0.  0.
484  4.83  0.  0.  0.
485  4.84  0.  0.  0.
486  4.85  0.  0.  0.
487  4.86  0.  0.  0.
488  4.87  0.  0.  0.
489  4.88  0.  0.  0.
490  4.89  0.  0.  0.
491  4.90  0.  0.  0.
492  4.91  0.  0.  0.
493  4.92  0.  0.  0.
494  4.93  0.  0.  0.
495  4.94  0.  0.  0.
496  4.95  0.  0.  0.
497  4.96  0.  0.  0.
498  4.97  0.  0.  0.
499  4.98  0.  0.  0.
500  4.99  0.  0.  0.
501  5.00  0.  0.  0.
502  5.01  0.  0.  0.
503  5.02  0.  0.  0.
504  5.03  0.  0.  0.
505  5.04  0.  0.  0.
506  5.05  0.  0.  0.
507  5.06  0.  0.  0.
508  5.07  0.  0.  0.
509  5.08  0.  0.  0.
510  5.09  0.  0.  0.
511  5.10  0.  0.  0.
512  5.11  0.  0.  0.
513  5.12  0.  0.  0.
514  5.13  0.  0.  0.
515  5.14  0.  0.  0.
516  5.15  0.  0.  0.
517  5.16  0.  0.  0.
518  5.17  0.  0.  0.
519  5.18  0.  0.  0.
520  5.19  0.  0.  0.
521  5.20  0.  0.  0.
522  5.21  0.  0.  0.
523  5.22  0.  0.  0.
524  5.23  0.  0.  0.
525  5.24  0.  0.  0.
526  5.25  0.  0.  0.
527  5.26  0.  0.  0.
528  5.27  0.  0.  0.
529  5.28  0.  0.  0.
530  5.29  0.  0.  0.
531  5.30  0.  0.  0.
532  5.31  0.  0.  0.
533  5.32  0.  0.  0.
534  5.33  0.  0.  0.
535  5.34  0.  0.  0.
536  5.35  0.  0.  0.
537  5.36  0.  0.  0.
538  5.37  0.  0.  0.
539  5.38  0.  0.  0.
540  5.39  0.  0.  0.
541  5.40  0.  0.  0.
542  5.41  0.  0.  0.
543  5.42  0.  0.  0.
544  5.43  0.  0.  0.
545  5.44  0.  0.  0.
546  5.45  0.  0.  0.
547  5.46  0.  0.  0.
548  5.47  0.  0.  0.
549  5.48  0.  0.  0.
550  5.49  0.  0.  0.
551  5.50  0.  0.  0.
552  5.51  0.  0.  0.
553  5.52  0.  0.  0.
554  5.53  0.  0.  0.
555  5.54  0.  0.  0.
556  5.55  0.  0.  0.
557  5.56  0.  0.  0.
558  5.57  0.  0.  0.
559  5.58  0.  0.  0.
560  5.59  0.  0.  0.
561  5.60  0.  0.  0.
562  5.61  0.  0.  0.
563  5.62  0.  0.  0.
564  5.63  0.  0.  0.
565  5.64  0.  0.  0.
566  5.65  0.  0.  0.
567  5.66  0.  0.  0.
568  5.67  0.  0.  0.
569  5.68  0.  0.  0.
570  5.69  0.  0.  0.
571  5.70  0.  0.  0.
572  5.71  0.  0.  0.
573  5.72  0.  0.  0.
574  5.73  0.  0.  0.
575  5.74  0.  0.  0.
576  5.75  0.  0.  0.
577  5.76  0.  0.  0.
578  5.77  0.  0.  0.
579  5.78  0.  0.  0.
580  5.79  0.  0.  0.
581  5.80  0.  0.  0.
582  5.81  0.  0.  0.
583  5.82  0.  0.  0.
584  5.83  0.  0.  0.
585  5.84  0.  0.  0.
586  5.85  0.  0.  0.
587  5.86  0.  0.  0.
588  5.87  0.  0.  0.
589  5.88  0.  0.  0.
590  5.89  0.  0.  0.
591  5.90  0.  0.  0.
592  5.91  0.  0.  0.
593  5.92  0.  0.  0.
594  5.93  0.  0.  0.
595  5.94  0.  0.  0.
596  5.95  0.  0.  0.
597  5.96  0.  0.  0.
598  5.97  0.  0.  0.
599  5.98  0.  0.  0.
600  5.99  0.  0.  0.
1                         1.3955860160762E+01 -5.6267057178998E-01
1  0.0000000000000E+00  7.0015178099680E-09 -8.0425440196485E-09
2  1.0000000000000E-02  4.8323095016796E-03 -4.9676476954939E-03
3  2.0000000000000E-02  1.9282805497855E-02 -1.9791393101429E-02
4  3.0000000000000E-02  4.3212626558684E-02 -4.4234520794764E-02
5  4.0000000000000E-02  7.6391787067756E-02 -7.7905429176533E-02
6  5.0000000000000E-02  1.1850133993241E-01 -1.2026201175516E-01
7  6.0000000000000E-02  1.6913637952049E-01 -1.7061777990334E-01
8  7.0000000000000E-02  2.2780986001964E-01 -2.2814971310475E-01
9  8.0000000000000E-02  2.9395719741365E-01 -2.9190781466404E-01
10  9.0000000000000E-02  3.6694161634722E-01 -3.6082634004697E-01
11  1.0000000000000E-01  4.4606019633790E-01 -4.3373665112183E-01
12  1.1000000000000E-01  5.3055056513329E-01 -5.0938163241983E-01
13  1.2000000000000E-01  6.1959818055139E-01 -5.8643158512806E-01
14  1.3000000000000E-01  7.1234413594068E-01 -6.6350149105365E-01
15  1.4000000000000E-01  8.0789341852143E-01 -7.3916951262232E-01
16  1.5000000000000E-01  9.0532354439400E-01 -8.1199656663637E-01
17  1.6000000000000E-01  1.0036934890070E+00 -8.8054677972486E-01
18  1.7000000000000E-01  1.1020528274533E+00 -9.4340860302345E-01
19  1.8000000000000E-01  1.1994509951962E+00 -9.9921633359500E-01
20  1.9000000000000E-01  1.2949465768123E+00 -1.0466717615088E+00
21  2.0000000000000E-01  1.3876165281656E+00 -1.0845656354575E+00
22  2.1000000000000E-01  1.4765652361779E+00 -1.1117986174445E+00
23  2.2000000000000E-01  1.5609333201227E+00 -1.1274013795423E+00
24  2.3000000000000E-01  1.6399060792110E+00 -1.1305534840551E+00
25  2.4000000000000E-01  1.7127214932067E+00 -1.1206006835831E+00
26  2.5000000000000E-01  1.7786776859686E+00 -1.0970702802786E+00
27  2.6000000000000E-01  1.8371397661709E+00 -1.0596841946628E+00
28  2.7000000000000E-01  1.8875459650247E+00 -1.0083694141447E+00
29  2.8000000000000E-01  1.9294129975887E+00 -9.4326552006768E-01
30  2.9000000000000E-01  1.9623405821797E+00 -8.6472902963035E-01
31  3.0000000000000E-01  1.9860150614132E+00 -7.7333433507513E-01
32  3.1000000000000E-01  2.0002120784375E+00 -6.6987107651702E-01
33  3.2000000000000E-01  2.0047982728585E+00 -5.5533784584157E-01
34  3.3000000000000E-01  1.9997319725632E+00 -4.3093218613011E-01
35  3.4000000000000E-01  1.9850628699771E+00 -2.9803692273499E-01
36  3.5000000000000E-01  1.9609306840766E+00 -1.5820293689054E-01
37  3.6000000000000E-01  1.9275628225207E+00 -1.3128568905726E-02
38  3.7000000000000E-01  1.8852710713853E+00  1.3536408628479E-01
39  3.8000000000000E-01  1.8344473529518E+00  2.8535565502818E-01
40  3.9000000000000E-01  1.7755586046246E+00  4.3485832698001E-01
41  4.0000000000000E-01  1.7091408440996E+00  5.8184659488868E-01
42  4.1000000000000E-01  1.6357924971773E+00  7.2428936869853E-01
43  4.2000000000000E-01  1.5561670749079E+00  8.6018289505376E-01
44  4.3000000000000E-01  1.4709652958695E+00  9.8758387888436E-01
45  4.4000000000000E-01  1.3809267571611E+00  1.1046421816604E+00
46  4.5000000000000E-01  1.2868212639672E+00  1.2096324620612E+00
47  4.6000000000000E-01  1.1894399322098E+00  1.3009841298677E+00
48  4.7000000000000E-01  1.0895861817322E+00  1.3773090031331E+00
49  4.8000000000000E-01  9.8806673860299E-01  1.4374260920715E+00
50  4.9000000000000E-01  8.8568276443426E-01  1.4803829801899E+00
51  5.0000000000000E-01  7.8322122808759E-01  1.5054733331984E+00
52  5.1000000000000E-01  6.8144663081655E-01  1.5122501380371E+00
53  5.2000000000000E-01  5.8109318983222E-01  1.5005343564923E+00
54  5.3000000000000E-01  4.8285757757948E-01  1.4704187686196E+00
55  5.4000000000000E-01  3.8739230480353E-01  1.4222668785390E+00
56  5.5000000000000E-01  2.9529982492896E-01  1.3567068569618E+00
57  5.6000000000000E-01  2.0712742555091E-01  1.2746205987160E+00
58  5.7000000000000E-01  1.2336296015824E-01  1.1771280771726E+00
59  5.8000000000000E-01  4.4431459795313E-02  1.0655672784280E+00
60  5.9000000000000E-01 -2.9307349538023E-02  9.4147009400903E-01
61  6.0000000000000E-01 -9.7560612103619E-02  8.0653463948667E-01
62  6.1000000000000E-01 -1.6010299276687E-01  6.6259454564996E-01
63  6.2000000000000E-01 -2.1677642887178E-01  5.1158583693143E-01
64  6.3000000000000E-01 -2.6748901346651E-01  3.5551206703380E-01
65  6.4000000000000E-01 -3.1221305238351E-01  1.9640842289761E-01
66  6.5000000000000E-01 -3.5098234943029E-01  3.6305534354900E-02
67  6.6000000000000E-01 -3.8388878457161E-01 -1.2280626254769E-01
68  6.7000000000000E-01 -4.1107825931427E-01 -2.7901146570507E-01
69  6.8000000000000E-01 -4.3274609140016E-01 -4.3050202849321E-01
70  6.9000000000000E-01 -4.4913194726261E-01 -5.7560737648875E-01
71  7.0000000000000E-01 -4.6051440542580E-01 -7.1282118337845E-01
72  7.1000000000000E-01 -4.6720524708026E-01 -8.4082433353658E-01
73  7.2000000000000E-01 -4.6954357143618E-01 -9.5850357413306E-01
74  7.3000000000000E-01 -4.6788983315671E-01 -1.0649654454734E+00
75  7.4000000000000E-01 -4.6261989725497E-01 -1.1595451729205E+00
76  7.5000000000000E-01 -4.5411920337648E-01 -1.2418103055624E+00
77  7.6000000000000E-01 -4.4277712648453E-01 -1.3115589941008E+00
78  7.7000000000000E-01 -4.2898161474332E-01 -1.3688129116462E+00
79  7.8000000000000E-01 -4.1311417799413E-01 -1.4138049347675E+00
80  7.9000000000000E-01 -3.9554529179705E-01 -1.4469618169936E+00
81  8.0000000000000E-01 -3.7663027273090E-01 -1.4688822019622E+00
82  8.1000000000000E-01 -3.5670567067509E-01 -1.4803104378289E+00
83  8.2000000000000E-01 -3.3608621330774E-01 -1.4821067679571E+00
84  8.3000000000000E-01 -3.1506232720972E-01 -1.4752145852339E+00
85  8.4000000000000E-01 -2.9389824891885E-01 -1.4606255488724E+00
86  8.5000000000000E-01 -2.7283072817569E-01 -1.4393434739211E+00
87  8.6000000000000E-01 -2.5206831456754E-01 -1.4123480158939E+00
88  8.7000000000000E-01 -2.3179120791812E-01 -1.3805592873187E+00
89  8.8000000000000E-01 -2.1215164217178E-01 -1.3448046612207E+00
90  8.9000000000000E-01 -1.9327476224534E-01 -1.3057891405655E+00
91  9.0000000000000E-01 -1.7525994340561E-01 -1.2640708046676E+00
92  9.1000000000000E-01 -1.5818249319021E-01 -1.2200429859099E+00
93  9.2000000000000E-01 -1.4209566671380E-01 -1.1739249853624E+00
94  9.3000000000000E-01 -1.2703291735902E-01 -1.1257633066693E+00
95  9.4000000000000E-01 -1.1301029628967E-01 -1.0754455765972E+00
96  9.5000000000000E-01 -1.0002890587346E-01 -1.0227295305800E+00
97  9.6000000000000E-01 -8.8077303880522E-02 -9.6728967509458E-01
98  9.7000000000000E-01 -7.7133747135265E-02 -9.0878449837510E-01
99  9.8000000000000E-01 -6.7168155047698E-02 -8.4694738913822E-01
100  9.9000000000000E-01 -5.8143665039776E-02 -7.8170475416496E-01
101  1.0000000000000E+00 -5.0017643002919E-02 -7.1332501195851E-01
102  1.0100000000000E+00 -4.2742002555040E-02 -6.4260203568068E-01
103  1.0200000000000E+00 -3.6262645196479E-02 -5.7088605962241E-01
104  1.0300000000000E+00 -3.0519412274084E-02 -4.9960189719483E-01
105  1.0400000000000E+00 -2.5448500301188E-02 -4.3003045272161E-01
106  1.0500000000000E+00 -2.0985432142601E-02 -3.6330677427539E-01
107  1.0600000000000E+00 -1.7067834349688E-02 -3.0042149030648E-01
108  1.0700000000000E+00 -1.3637993423571E-02 -2.4222345715950E-01
109  1.0800000000000E+00 -1.0645169587365E-02 -1.8942306204777E-01
110  1.0900000000000E+00 -8.0476534022410E-03 -1.4259579220544E-01
111  1.1000000000000E+00 -5.8165559392543E-03 -1.0213486513576E-01
112  1.1100000000000E+00 -3.9476289662586E-03 -6.7957270637395E-02
113  1.1200000000000E+00 -2.4261400457377E-03 -4.0461902802068E-02
114  1.1300000000000E+00 -1.2512498327825E-03 -1.9997409355229E-02
115  1.1400000000000E+00 -4.4213196556448E-04 -6.7048633187286E-03
116  1.1500000000000E+00 -4.1669419257378E-05 -5.9344294706423E-04
117  1.1600000000000E+00  1.5059961886094E-06  2.0617509749063E-05
118  1.1700000000000E+00  2.5756605058890E-07  3.7386977824800E-06
119  1.18 -0.  0.
120  1.19  0.  0.
121  1.20  0.  0.
122  1.21  0.  0.
123  1.22  0.  0.
124  1.23  0.  0.
125  1.24  0.  0.
126  1.25  0.  0.
127  1.26  0.  0.
128  1.27  0.  0.
129  1.28  0.  0.
130  1.29  0.  0.
131  1.30  0.  0.
132  1.31  0.  0.
133  1.32  0.  0.
134  1.33  0.  0.
135  1.34  0.  0.
136  1.35  0.  0.
137  1.36  0.  0.
138  1.37  0.  0.
139  1.38  0.  0.
140  1.39  0.  0.
141  1.40  0.  0.
142  1.41  0.  0.
143  1.42  0.  0.
144  1.43  0.  0.
145  1.44  0.  0.
146  1.45  0.  0.
147  1.46  0.  0.
148  1.47  0.  0.
149  1.48  0.  0.
150  1.49  0.  0.
151  1.50  0.  0.
152  1.51  0.  0.
153  1.52  0.  0.
154  1.53  0.  0.
155  1.54  0.  0.
156  1.55  0.  0.
157  1.56  0.  0.
158  1.57  0.  0.
159  1.58  0.  0.
160  1.59  0.  0.
161  1.60  0.  0.
162  1.61  0.  0.
163  1.62  0.  0.
164  1.63  0.  0.
165  1.64  0.  0.