Cf    ONCVPSP-4.0.1  r_core=   1.15394   1.15394   1.15394   1.35621
98.0000     38.0000      220310    zatom,zion,pspd
8      11   3     4   600     0    pspcod,pspxc,lmax,lloc,mmax,r2well
5.99000000  5.00000000  0.00000000    rchrg fchrg qchrg
4     3     3     2     0    nproj
1     1           extension_switch
0                         1.8305501876488E+02  2.1935395550094E+01  3.8851313818046E+00 -4.6216811237577E-01
1  0.0000000000000E+00  3.7630865168392E-06 -1.5721763608756E-06  1.0521246122108E-06  1.7620135217555E-07
2  1.0000000000000E-02 -2.5728340610537E-01  2.5229335324511E-01 -1.1196097418216E-01 -1.1465411085833E-01
3  2.0000000000000E-02 -5.0137666669070E-01  4.9835939739725E-01 -2.1967754438161E-01 -2.2659102400809E-01
4  3.0000000000000E-02 -7.1965523569100E-01  7.3221149612552E-01 -3.1906910100252E-01 -3.3316938905372E-01
5  4.0000000000000E-02 -9.0060159163417E-01  9.4833422253259E-01 -4.0637579158661E-01 -4.3189747791879E-01
6  5.0000000000000E-02 -1.0342993694429E+00  1.1418940643596E+00 -4.7830211491456E-01 -5.2050285952263E-01
7  6.0000000000000E-02 -1.1128591434110E+00  1.3089214641875E+00 -5.3214118571247E-01 -5.9699603462222E-01
8  7.0000000000000E-02 -1.1307577855542E+00  1.4464566057396E+00 -5.6587454173369E-01 -6.5972622390082E-01
9  8.0000000000000E-02 -1.0850770866189E+00  1.5526529295664E+00 -5.7824341711092E-01 -7.0742767858582E-01
10  9.0000000000000E-02 -9.7563170594292E-01  1.6268341913297E+00 -5.6878863132530E-01 -7.3925510177978E-01
11  1.0000000000000E-01 -8.0498131635399E-01  1.6695028824912E+00 -5.3785758808041E-01 -7.5480702864182E-01
12  1.1000000000000E-01 -5.7832681844303E-01  1.6822999277341E+00 -4.8657828384774E-01 -7.5413631192334E-01
13  1.2000000000000E-01 -3.0329549299345E-01  1.6679176634151E+00 -4.1680163034033E-01 -7.3774719229218E-01
14  1.3000000000000E-01  1.0375279224662E-02  1.6299700948657E+00 -3.3101473743078E-01 -7.0657879504725E-01
15  1.4000000000000E-01  3.5124178381992E-01  1.5728262401141E+00 -2.3222902474489E-01 -6.6197527930254E-01
16  1.5000000000000E-01  7.0662759337847E-01  1.5014139147414E+00 -1.2384807851931E-01 -6.0564326395431E-01
17  1.6000000000000E-01  1.0631465159669E+00  1.4210025304337E+00 -9.5210004469891E-03 -5.3959755645400E-01
18  1.7000000000000E-01  1.4072523653318E+00  1.3369743165168E+00  1.0701242797460E-01 -4.6609660394620E-01
19  1.8000000000000E-01  1.7257920628974E+00  1.2545937948715E+00  2.2207814233588E-01 -3.8756945873600E-01
20  1.9000000000000E-01  2.0065386308290E+00  1.1787853283471E+00  3.3221911885298E-01 -3.0653638761550E-01
21  2.0000000000000E-01  2.2386817077493E+00  1.1139281246384E+00  4.3433526559407E-01 -2.2552554327323E-01
22  2.1000000000000E-01  2.4132552585991E+00  1.0636772342015E+00  5.2580607092627E-01 -1.4698834207900E-01
23  2.2000000000000E-01  2.5234850591018E+00  1.0308178727149E+00  6.0459099396382E-01 -7.3216343190663E-02
24  2.3000000000000E-01  2.5650421765947E+00  1.0171588823948E+00  6.6930358698771E-01 -6.2624880360705E-03
25  2.4000000000000E-01  2.5361928742029E+00  1.0234693919955E+00  7.1925650912622E-01  5.2130472031979E-02
26  2.5000000000000E-01  2.4378399420325E+00  1.0494608225415E+00  7.5447587128398E-01  1.0059166451594E-01
27  2.6000000000000E-01  2.2734551999400E+00  1.0938144010686E+00  7.7568468716784E-01  1.3817144141264E-01
28  2.7000000000000E-01  2.0489076088167E+00  1.1542523766323E+00  7.8425653517521E-01  1.6437625959571E-01
29  2.8000000000000E-01  1.7721958630401E+00  1.2276492686081E+00  7.8214180260034E-01  1.7918740684736E-01
30  2.9000000000000E-01  1.4530983209390E+00  1.3101777985220E+00  7.7177003205321E-01  1.8306240262544E-01
31  3.0000000000000E-01  1.1027564913466E+00  1.3974827354131E+00  7.5593287119360E-01  1.7691849116242E-01
32  3.1000000000000E-01  7.3321089038141E-01  1.4848747810999E+00  7.3765289961347E-01  1.6209828467754E-01
33  3.2000000000000E-01  3.5690980878657E-01  1.5675358802852E+00  7.2004413974526E-01  1.4031828410076E-01
34  3.3000000000000E-01 -1.3787678669573E-02  1.6407269893781E+00  7.0617033155720E-01  1.1360167894917E-01
35  3.4000000000000E-01 -3.6709329439628E-01  1.6999893867988E+00  6.9890705530239E-01  8.4197480155879E-02
36  3.5000000000000E-01 -6.9223565999316E-01  1.7413310483171E+00  7.0081352619996E-01  5.4488642430822E-02
37  3.6000000000000E-01 -9.7985281490180E-01  1.7613904174944E+00  7.1401937522359E-01  2.6892359225744E-02
38  3.7000000000000E-01 -1.2223157776426E+00  1.7575710313355E+00  7.4013099757409E-01  3.7561383856399E-03
39  3.8000000000000E-01 -1.4139711335544E+00  1.7281418586511E+00  7.8016113085842E-01 -1.2746432119789E-02
40  3.9000000000000E-01 -1.5512944552205E+00  1.6722998057994E+00  8.3448426235851E-01 -2.0716159574085E-02
41  4.0000000000000E-01 -1.6329504659341E+00  1.5901925657352E+00  9.0281930870631E-01 -1.8620889796833E-02
42  4.1000000000000E-01 -1.6597600515120E+00  1.4829017520292E+00  9.8423981454277E-01 -5.3764027473837E-03
43  4.2000000000000E-01 -1.6345783181935E+00  1.3523879889096E+00  1.0772107333714E+00  1.9588034836290E-02
44  4.3000000000000E-01 -1.5620917004676E+00  1.2014012442352E+00  1.1796497359766E+00  5.6282578522998E-02
45  4.4000000000000E-01 -1.4485454748562E+00  1.0333611239069E+00  1.2890099878366E+00  1.0413067633561E-01
46  4.5000000000000E-01 -1.3014157906109E+00  8.5221303265812E-01  1.4023804892256E+00  1.6196565690758E-01
47  4.6000000000000E-01 -1.1290423739595E+00  6.6226699934421E-01  1.5165994143723E+00  2.2805095341474E-01
48  4.7000000000000E-01 -9.4023932134516E-01  4.6802653083353E-01  1.6283754442569E+00  3.0012397617256E-01
49  4.8000000000000E-01 -7.4390183090125E-01  2.7401507975830E-01  1.7344118758697E+00  3.7546271151239E-01
50  4.9000000000000E-01 -5.4862633060541E-01  8.4607586108654E-02  1.8315283129918E+00  4.5097319655006E-01
51  5.0000000000000E-01 -3.6236028593856E-01 -9.6125904229390E-02  1.9167749927773E+00  5.2329513751354E-01
52  5.1000000000000E-01 -1.9209608449731E-01 -2.6455829974059E-01  1.9875352616118E+00  5.8892214136764E-01
53  5.2000000000000E-01 -4.3620907221161E-02 -4.1761997562863E-01  2.0416123565044E+00  6.4433235217485E-01
54  5.3000000000000E-01  7.8668461599519E-02 -5.5288573361237E-01  2.0772974406463E+00  6.8612475650183E-01
55  5.4000000000000E-01  1.7188020912858E-01 -6.6863156892221E-01  2.0934167437716E+00  7.1115607204128E-01
56  5.5000000000000E-01  2.3466920795488E-01 -7.6386004336093E-01  2.0893566255149E+00  7.1667297958932E-01
57  5.6000000000000E-01  2.6720704409894E-01 -8.3829450831421E-01  2.0650663674530E+00  7.0043451156558E-01
58  5.7000000000000E-01  2.7108478301426E-01 -8.9234380496169E-01  2.0210394614852E+00  6.6081967289022E-01
59  5.8000000000000E-01  2.4915582756595E-01 -9.2704032829926E-01  1.9582750559254E+00  5.9691583570711E-01
60  5.9000000000000E-01  2.0532870430633E-01 -9.4395542209712E-01  1.8782220077580E+00  5.0858410281785E-01
61  6.0000000000000E-01  1.4432154607165E-01 -9.4509692908116E-01  1.7827086378213E+00  3.9649865207038E-01
62  6.1000000000000E-01  7.1391346567004E-02 -9.3279432192354E-01  1.6738617705842E+00  2.6215802411908E-01
63  6.2000000000000E-01 -7.9482948099240E-03 -9.0957716684026E-01  1.5540189454669E+00  1.0786736160060E-01
64  6.3000000000000E-01 -8.8207249541184E-02 -8.7805271735161E-01  1.4256378051253E+00 -6.3308293258548E-02
65  6.4000000000000E-01 -1.6418374657510E-01 -8.4078820932618E-01  1.2912065995518E+00 -2.4761842812896E-01
66  6.5000000000000E-01 -2.3120232551766E-01 -8.0020295093184E-01  1.1531595036772E+00 -4.4072693260269E-01
67  6.6000000000000E-01 -2.8531488905864E-01 -7.5847460503062E-01  1.0138000486470E+00 -6.3783414016538E-01
68  6.7000000000000E-01 -3.2345706643477E-01 -7.1746318878969E-01  8.7523543803282E-01 -8.3381690313194E-01
69  6.8000000000000E-01 -3.4355456107269E-01 -6.7865531477129E-01  7.3932389011111E-01 -1.0233818594380E+00
70  6.9000000000000E-01 -3.4457676894269E-01 -6.4313012268706E-01  6.0763644968082E-01 -1.2012265361953E+00
71  7.0000000000000E-01 -3.2653758628115E-01 -6.1154725632132E-01  4.8143398334206E-01 -1.3622026330557E+00
72  7.1000000000000E-01 -2.9044584797396E-01 -5.8415617919884E-01  3.6165934609507E-01 -1.5014757514824E+00
73  7.2000000000000E-01 -2.3821013214778E-01 -5.6082514536369E-01  2.4894401851551E-01 -1.6146759871882E+00
74  7.3000000000000E-01 -1.7250463084777E-01 -5.4108729136818E-01  1.4362789287910E-01 -1.6980341756651E+00
75  7.4000000000000E-01 -9.6604338878442E-02 -5.2420062787519E-01  4.5790359423790E-02 -1.7484991585916E+00
76  7.5000000000000E-01 -1.4198895792653E-02 -5.0921820971845E-01 -4.4709569649416E-02 -1.7638321969105E+00
77  7.6000000000000E-01  7.0805002416964E-02 -4.9506446726277E-01 -1.2818664715382E-01 -1.7426755616624E+00
78  7.7000000000000E-01  1.5448263025365E-01 -4.8061359387708E-01 -2.0507898992448E-01 -1.6845933469439E+00
79  7.8000000000000E-01  2.3308211769416E-01 -4.6476599823153E-01 -2.7589660932375E-01 -1.5900836267857E+00
80  7.9000000000000E-01  3.0319846607581E-01 -4.4651913009252E-01 -3.4117148379725E-01 -1.4605621727621E+00
81  8.0000000000000E-01  3.6192319963341E-01 -4.2502944998335E-01 -4.0141156015082E-01 -1.2983190141859E+00
82  8.1000000000000E-01  4.0696368784257E-01 -3.9966290532037E-01 -4.5706074864551E-01 -1.1064501116841E+00
83  8.2000000000000E-01  4.3672791174493E-01 -3.7003196235896E-01 -5.0846657872571E-01 -8.8876728453961E-01
84  8.3000000000000E-01  4.5037229629223E-01 -3.3601798563394E-01 -5.5585673064437E-01 -6.4969024391409E-01
85  8.4000000000000E-01  4.4781209325433E-01 -2.9777851511067E-01 -5.9932517794741E-01 -3.9412510553418E-01
86  8.5000000000000E-01  4.2969558307580E-01 -2.5573972812171E-01 -6.3882819092273E-01 -1.2733406135537E-01
87  8.6000000000000E-01  3.9734498579388E-01 -2.1057505374639E-01 -6.7418998448779E-01  1.4519903737179E-01
88  8.7000000000000E-01  3.5266836148070E-01 -1.6317150246529E-01 -7.0511736545954E-01  4.1790260265837E-01
89  8.8000000000000E-01  2.9804788576250E-01 -1.1458576058201E-01 -7.3122236023079E-01  6.8524656835792E-01
90  8.9000000000000E-01  2.3621067157544E-01 -6.5992461796337E-02 -7.5205149643458E-01  9.4186346649372E-01
91  9.0000000000000E-01  1.7008875894748E-01 -1.8627279740956E-02 -7.6712017846539E-01  1.1826586800669E+00
92  9.1000000000000E-01  1.0267501488803E-01  2.6272414215249E-02 -7.7595043881384E-01  1.4029083161408E+00
93  9.2000000000000E-01  3.6881498770014E-02  6.7526605774299E-02 -7.7811026209409E-01  1.5983444147315E+00
94  9.3000000000000E-01 -2.4593605248205E-02  1.0406881266834E-01 -7.7325265876020E-01  1.7652286438429E+00
95  9.4000000000000E-01 -7.9385053342613E-02  1.3499700287540E-01 -7.6115269869019E-01  1.9004172047089E+00
96  9.5000000000000E-01 -1.2556098177887E-01  1.5961715421460E-01 -7.4174078530113E-01  2.0014213608303E+00
97  9.6000000000000E-01 -1.6170098299046E-01  1.7747765764266E-01 -7.1513053978558E-01  2.0664697890966E+00
98  9.7000000000000E-01 -1.8694895716105E-01  1.8839306721523E-01 -6.8163975122400E-01  2.0945808151574E+00
99  9.8000000000000E-01 -2.0103866748759E-01  1.9245596267474E-01 -6.4180290893232E-01  2.0856545258930E+00
100  9.9000000000000E-01 -2.0429054797821E-01  1.9003588221650E-01 -5.9637384556005E-01  2.0405967632693E+00
101  1.0000000000000E+00 -1.9757868342051E-01  1.8176436437546E-01 -5.4631694552161E-01  1.9614888059457E+00
102  1.0100000000000E+00 -1.8226692944444E-01  1.6850507499233E-01 -4.9278518137657E-01  1.8518179139100E+00
103  1.0200000000000E+00 -1.6011013521220E-01  1.5130343127274E-01 -4.3707087202497E-01  1.7164899414198E+00
104  1.0300000000000E+00 -1.3312732415237E-01  1.3131558096510E-01 -3.8051863314042E-01  1.5610336685542E+00
105  1.0400000000000E+00 -1.0347974079956E-01  1.0974850007025E-01 -3.2446930210125E-01  1.3911490116514E+00
106  1.0500000000000E+00 -7.3348266007443E-02  8.7804645081365E-02 -2.7022002881243E-01  1.2125714115930E+00
107  1.0600000000000E+00 -4.4807091106825E-02  6.6624858354075E-02 -2.1898285047181E-01  1.0309422567719E+00
108  1.0700000000000E+00 -1.9697837919630E-02  4.7231319074552E-02 -1.7184291959643E-01  8.5168538579793E-01
109  1.0800000000000E+00  4.9190777643422E-04  3.0472302886746E-02 -1.2971767733158E-01  6.7989173772918E-01
110  1.0900000000000E+00  1.4742179695769E-02  1.6970321331886E-02 -9.3318157869010E-02  5.2021438480507E-01
111  1.1000000000000E+00  2.2598149316628E-02  7.0708775380709E-03 -6.3098415836302E-02  3.7679252332132E-01
112  1.1100000000000E+00  2.4270744148701E-02  7.6369888922782E-04 -3.9131741577535E-02  2.5324617589966E-01
113  1.1200000000000E+00  2.0774361444326E-02 -2.2629267911868E-03 -2.1371336243936E-02  1.5231702091636E-01
114  1.1300000000000E+00  1.3854279777216E-02 -2.6678679853583E-03 -9.4793181934128E-03  7.6038362678580E-02
115  1.1400000000000E+00  6.0233374077132E-03 -1.4920464535503E-03 -2.7652440809930E-03  2.5746794506501E-02
116  1.1500000000000E+00  6.7671091135694E-04 -1.9447387195807E-04 -2.0196805265733E-04  2.3011755872782E-03
117  1.1600000000000E+00 -2.6678267403560E-05  8.1355420251423E-06  6.0726567495466E-06 -8.0493565198514E-05
118  1.1700000000000E+00 -3.9732938502320E-06  1.0992992975427E-06  1.3585164173070E-06 -1.4463808392851E-05
119  1.18  0. -0.  0.  0.
120  1.19  0.  0.  0.  0.
121  1.20  0.  0.  0.  0.
122  1.21  0.  0.  0.  0.
123  1.22  0.  0.  0.  0.
124  1.23  0.  0.  0.  0.
125  1.24  0.  0.  0.  0.
126  1.25  0.  0.  0.  0.
127  1.26  0.  0.  0.  0.
128  1.27  0.  0.  0.  0.
129  1.28  0.  0.  0.  0.
130  1.29  0.  0.  0.  0.
131  1.30  0.  0.  0.  0.
132  1.31  0.  0.  0.  0.
133  1.32  0.  0.  0.  0.
134  1.33  0.  0.  0.  0.
135  1.34  0.  0.  0.  0.
136  1.35  0.  0.  0.  0.
137  1.36  0.  0.  0.  0.
138  1.37  0.  0.  0.  0.
139  1.38  0.  0.  0.  0.
140  1.39  0.  0.  0.  0.
141  1.40  0.  0.  0.  0.
142  1.41  0.  0.  0.  0.
143  1.42  0.  0.  0.  0.
144  1.43  0.  0.  0.  0.
145  1.44  0.  0.  0.  0.
146  1.45  0.  0.  0.  0.
147  1.46  0.  0.  0.  0.
148  1.47  0.  0.  0.  0.
149  1.48  0.  0.  0.  0.
150  1.49  0.  0.  0.  0.
151  1.50  0.  0.  0.  0.
152  1.51  0.  0.  0.  0.
153  1.52  0.  0.  0.  0.
154  1.53  0.  0.  0.  0.
155  1.54  0.  0.  0.  0.
156  1.55  0.  0.  0.  0.
157  1.56  0.  0.  0.  0.
158  1.57  0.  0.  0.  0.
159  1.58  0.  0.  0.  0.
160  1.59  0.  0.  0.  0.
161  1.60  0.  0.  0.  0.
162  1.61  0.  0.  0.  0.
163  1.62  0.  0.  0.  0.
164  1.63  0.  0.  0.  0.
165  1.64  0.  0.  0.  0.
166  1.65  0.  0.  0.  0.
167  1.66  0.  0.  0.  0.
168  1.67  0.  0.  0.  0.
169  1.68  0.  0.  0.  0.
170  1.69  0.  0.  0.  0.
171  1.70  0.  0.  0.  0.
172  1.71  0.  0.  0.  0.
173  1.72  0.  0.  0.  0.
174  1.73  0.  0.  0.  0.
175  1.74  0.  0.  0.  0.
176  1.75  0.  0.  0.  0.
177  1.76  0.  0.  0.  0.
178  1.77  0.  0.  0.  0.
179  1.78  0.  0.  0.  0.
180  1.79  0.  0.  0.  0.
181  1.80  0.  0.  0.  0.
182  1.81  0.  0.  0.  0.
183  1.82  0.  0.  0.  0.
184  1.83  0.  0.  0.  0.
185  1.84  0.  0.  0.  0.
186  1.85  0.  0.  0.  0.
187  1.86  0.  0.  0.  0.
188  1.87  0.  0.  0.  0.
189  1.88  0.  0.  0.  0.
190  1.89  0.  0.  0.  0.
191  1.90  0.  0.  0.  0.
192  1.91  0.  0.  0.  0.
193  1.92  0.  0.  0.  0.
194  1.93  0.  0.  0.  0.
195  1.94  0.  0.  0.  0.
196  1.95  0.  0.  0.  0.
197  1.96  0.  0.  0.  0.
198  1.97  0.  0.  0.  0.
199  1.98  0.  0.  0.  0.
200  1.99  0.  0.  0.  0.
201  2.00  0.  0.  0.  0.
202  2.01  0.  0.  0.  0.
203  2.02  0.  0.  0.  0.
204  2.03  0.  0.  0.  0.
205  2.04  0.  0.  0.  0.
206  2.05  0.  0.  0.  0.
207  2.06  0.  0.  0.  0.
208  2.07  0.  0.  0.  0.
209  2.08  0.  0.  0.  0.
210  2.09  0.  0.  0.  0.
211  2.10  0.  0.  0.  0.
212  2.11  0.  0.  0.  0.
213  2.12  0.  0.  0.  0.
214  2.13  0.  0.  0.  0.
215  2.14  0.  0.  0.  0.
216  2.15  0.  0.  0.  0.
217  2.16  0.  0.  0.  0.
218  2.17  0.  0.  0.  0.
219  2.18  0.  0.  0.  0.
220  2.19  0.  0.  0.  0.
221  2.20  0.  0.  0.  0.
222  2.21  0.  0.  0.  0.
223  2.22  0.  0.  0.  0.
224  2.23  0.  0.  0.  0.
225  2.24  0.  0.  0.  0.
226  2.25  0.  0.  0.  0.
227  2.26  0.  0.  0.  0.
228  2.27  0.  0.  0.  0.
229  2.28  0.  0.  0.  0.
230  2.29  0.  0.  0.  0.
231  2.30  0.  0.  0.  0.
232  2.31  0.  0.  0.  0.
233  2.32  0.  0.  0.  0.
234  2.33  0.  0.  0.  0.
235  2.34  0.  0.  0.  0.
236  2.35  0.  0.  0.  0.
237  2.36  0.  0.  0.  0.
238  2.37  0.  0.  0.  0.
239  2.38  0.  0.  0.  0.
240  2.39  0.  0.  0.  0.
241  2.40  0.  0.  0.  0.
242  2.41  0.  0.  0.  0.
243  2.42  0.  0.  0.  0.
244  2.43  0.  0.  0.  0.
245  2.44  0.  0.  0.  0.
246  2.45  0.  0.  0.  0.
247  2.46  0.  0.  0.  0.
248  2.47  0.  0.  0.  0.
249  2.48  0.  0.  0.  0.
250  2.49  0.  0.  0.  0.
251  2.50  0.  0.  0.  0.
252  2.51  0.  0.  0.  0.
253  2.52  0.  0.  0.  0.
254  2.53  0.  0.  0.  0.
255  2.54  0.  0.  0.  0.
256  2.55  0.  0.  0.  0.
257  2.56  0.  0.  0.  0.
258  2.57  0.  0.  0.  0.
259  2.58  0.  0.  0.  0.
260  2.59  0.  0.  0.  0.
261  2.60  0.  0.  0.  0.
262  2.61  0.  0.  0.  0.
263  2.62  0.  0.  0.  0.
264  2.63  0.  0.  0.  0.
265  2.64  0.  0.  0.  0.
266  2.65  0.  0.  0.  0.
267  2.66  0.  0.  0.  0.
268  2.67  0.  0.  0.  0.
269  2.68  0.  0.  0.  0.
270  2.69  0.  0.  0.  0.
271  2.70  0.  0.  0.  0.
272  2.71  0.  0.  0.  0.
273  2.72  0.  0.  0.  0.
274  2.73  0.  0.  0.  0.
275  2.74  0.  0.  0.  0.
276  2.75  0.  0.  0.  0.
277  2.76  0.  0.  0.  0.
278  2.77  0.  0.  0.  0.
279  2.78  0.  0.  0.  0.
280  2.79  0.  0.  0.  0.
281  2.80  0.  0.  0.  0.
282  2.81  0.  0.  0.  0.
283  2.82  0.  0.  0.  0.
284  2.83  0.  0.  0.  0.
285  2.84  0.  0.  0.  0.
286  2.85  0.  0.  0.  0.
287  2.86  0.  0.  0.  0.
288  2.87  0.  0.  0.  0.
289  2.88  0.  0.  0.  0.
290  2.89  0.  0.  0.  0.
291  2.90  0.  0.  0.  0.
292  2.91  0.  0.  0.  0.
293  2.92  0.  0.  0.  0.
294  2.93  0.  0.  0.  0.
295  2.94  0.  0.  0.  0.
296  2.95  0.  0.  0.  0.
297  2.96  0.  0.  0.  0.
298  2.97  0.  0.  0.  0.
299  2.98  0.  0.  0.  0.
300  2.99  0.  0.  0.  0.
301  3.00  0.  0.  0.  0.
302  3.01  0.  0.  0.  0.
303  3.02  0.  0.  0.  0.
304  3.03  0.  0.  0.  0.
305  3.04  0.  0.  0.  0.
306  3.05  0.  0.  0.  0.
307  3.06  0.  0.  0.  0.
308  3.07  0.  0.  0.  0.
309  3.08  0.  0.  0.  0.
310  3.09  0.  0.  0.  0.
311  3.10  0.  0.  0.  0.
312  3.11  0.  0.  0.  0.
313  3.12  0.  0.  0.  0.
314  3.13  0.  0.  0.  0.
315  3.14  0.  0.  0.  0.
316  3.15  0.  0.  0.  0.
317  3.16  0.  0.  0.  0.
318  3.17  0.  0.  0.  0.
319  3.18  0.  0.  0.  0.
320  3.19  0.  0.  0.  0.
321  3.20  0.  0.  0.  0.
322  3.21  0.  0.  0.  0.
323  3.22  0.  0.  0.  0.
324  3.23  0.  0.  0.  0.
325  3.24  0.  0.  0.  0.
326  3.25  0.  0.  0.  0.
327  3.26  0.  0.  0.  0.
328  3.27  0.  0.  0.  0.
329  3.28  0.  0.  0.  0.
330  3.29  0.  0.  0.  0.
331  3.30  0.  0.  0.  0.
332  3.31  0.  0.  0.  0.
333  3.32  0.  0.  0.  0.
334  3.33  0.  0.  0.  0.
335  3.34  0.  0.  0.  0.
336  3.35  0.  0.  0.  0.
337  3.36  0.  0.  0.  0.
338  3.37  0.  0.  0.  0.
339  3.38  0.  0.  0.  0.
340  3.39  0.  0.  0.  0.
341  3.40  0.  0.  0.  0.
342  3.41  0.  0.  0.  0.
343  3.42  0.  0.  0.  0.
344  3.43  0.  0.  0.  0.
345  3.44  0.  0.  0.  0.
346  3.45  0.  0.  0.  0.
347  3.46  0.  0.  0.  0.
348  3.47  0.  0.  0.  0.
349  3.48  0.  0.  0.  0.
350  3.49  0.  0.  0.  0.
351  3.50  0.  0.  0.  0.
352  3.51  0.  0.  0.  0.
353  3.52  0.  0.  0.  0.
354  3.53  0.  0.  0.  0.
355  3.54  0.  0.  0.  0.
356  3.55  0.  0.  0.  0.
357  3.56  0.  0.  0.  0.
358  3.57  0.  0.  0.  0.
359  3.58  0.  0.  0.  0.
360  3.59  0.  0.  0.  0.
361  3.60  0.  0.  0.  0.
362  3.61  0.  0.  0.  0.
363  3.62  0.  0.  0.  0.
364  3.63  0.  0.  0.  0.
365  3.64  0.  0.  0.  0.
366  3.65  0.  0.  0.  0.
367  3.66  0.  0.  0.  0.
368  3.67  0.  0.  0.  0.
369  3.68  0.  0.  0.  0.
370  3.69  0.  0.  0.  0.
371  3.70  0.  0.  0.  0.
372  3.71  0.  0.  0.  0.
373  3.72  0.  0.  0.  0.
374  3.73  0.  0.  0.  0.
375  3.74  0.  0.  0.  0.
376  3.75  0.  0.  0.  0.
377  3.76  0.  0.  0.  0.
378  3.77  0.  0.  0.  0.
379  3.78  0.  0.  0.  0.
380  3.79  0.  0.  0.  0.
381  3.80  0.  0.  0.  0.
382  3.81  0.  0.  0.  0.
383  3.82  0.  0.  0.  0.
384  3.83  0.  0.  0.  0.
385  3.84  0.  0.  0.  0.
386  3.85  0.  0.  0.  0.
387  3.86  0.  0.  0.  0.
388  3.87  0.  0.  0.  0.
389  3.88  0.  0.  0.  0.
390  3.89  0.  0.  0.  0.
391  3.90  0.  0.  0.  0.
392  3.91  0.  0.  0.  0.
393  3.92  0.  0.  0.  0.
394  3.93  0.  0.  0.  0.
395  3.94  0.  0.  0.  0.
396  3.95  0.  0.  0.  0.
397  3.96  0.  0.  0.  0.
398  3.97  0.  0.  0.  0.
399  3.98  0.  0.  0.  0.
400  3.99  0.  0.  0.  0.
401  4.00  0.  0.  0.  0.
402  4.01  0.  0.  0.  0.
403  4.02  0.  0.  0.  0.
404  4.03  0.  0.  0.  0.
405  4.04  0.  0.  0.  0.
406  4.05  0.  0.  0.  0.
407  4.06  0.  0.  0.  0.
408  4.07  0.  0.  0.  0.
409  4.08  0.  0.  0.  0.
410  4.09  0.  0.  0.  0.
411  4.10  0.  0.  0.  0.
412  4.11  0.  0.  0.  0.
413  4.12  0.  0.  0.  0.
414  4.13  0.  0.  0.  0.
415  4.14  0.  0.  0.  0.
416  4.15  0.  0.  0.  0.
417  4.16  0.  0.  0.  0.
418  4.17  0.  0.  0.  0.
419  4.18  0.  0.  0.  0.
420  4.19  0.  0.  0.  0.
421  4.20  0.  0.  0.  0.
422  4.21  0.  0.  0.  0.
423  4.22  0.  0.  0.  0.
424  4.23  0.  0.  0.  0.
425  4.24  0.  0.  0.  0.
426  4.25  0.  0.  0.  0.
427  4.26  0.  0.  0.  0.
428  4.27  0.  0.  0.  0.
429  4.28  0.  0.  0.  0.
430  4.29  0.  0.  0.  0.
431  4.30  0.  0.  0.  0.
432  4.31  0.  0.  0.  0.
433  4.32  0.  0.  0.  0.
434  4.33  0.  0.  0.  0.
435  4.34  0.  0.  0.  0.
436  4.35  0.  0.  0.  0.
437  4.36  0.  0.  0.  0.
438  4.37  0.  0.  0.  0.
439  4.38  0.  0.  0.  0.
440  4.39  0.  0.  0.  0.
441  4.40  0.  0.  0.  0.
442  4.41  0.  0.  0.  0.
443  4.42  0.  0.  0.  0.
444  4.43  0.  0.  0.  0.
445  4.44  0.  0.  0.  0.
446  4.45  0.  0.  0.  0.
447  4.46  0.  0.  0.  0.
448  4.47  0.  0.  0.  0.
449  4.48  0.  0.  0.  0.
450  4.49  0.  0.  0.  0.
451  4.50  0.  0.  0.  0.
452  4.51  0.  0.  0.  0.
453  4.52  0.  0.  0.  0.
454  4.53  0.  0.  0.  0.
455  4.54  0.  0.  0.  0.
456  4.55  0.  0.  0.  0.
457  4.56  0.  0.  0.  0.
458  4.57  0.  0.  0.  0.
459  4.58  0.  0.  0.  0.
460  4.59  0.  0.  0.  0.
461  4.60  0.  0.  0.  0.
462  4.61  0.  0.  0.  0.
463  4.62  0.  0.  0.  0.
464  4.63  0.  0.  0.  0.
465  4.64  0.  0.  0.  0.
466  4.65  0.  0.  0.  0.
467  4.66  0.  0.  0.  0.
468  4.67  0.  0.  0.  0.
469  4.68  0.  0.  0.  0.
470  4.69  0.  0.  0.  0.
471  4.70  0.  0.  0.  0.
472  4.71  0.  0.  0.  0.
473  4.72  0.  0.  0.  0.
474  4.73  0.  0.  0.  0.
475  4.74  0.  0.  0.  0.
476  4.75  0.  0.  0.  0.
477  4.76  0.  0.  0.  0.
478  4.77  0.  0.  0.  0.
479  4.78  0.  0.  0.  0.
480  4.79  0.  0.  0.  0.
481  4.80  0.  0.  0.  0.
482  4.81  0.  0.  0.  0.
483  4.82  0.  0.  0.  0.
484  4.83  0.  0.  0.  0.
485  4.84  0.  0.  0.  0.
486  4.85  0.  0.  0.  0.
487  4.86  0.  0.  0.  0.
488  4.87  0.  0.  0.  0.
489  4.88  0.  0.  0.  0.
490  4.89  0.  0.  0.  0.
491  4.90  0.  0.  0.  0.
492  4.91  0.  0.  0.  0.
493  4.92  0.  0.  0.  0.
494  4.93  0.  0.  0.  0.
495  4.94  0.  0.  0.  0.
496  4.95  0.  0.  0.  0.
497  4.96  0.  0.  0.  0.
498  4.97  0.  0.  0.  0.
499  4.98  0.  0.  0.  0.
500  4.99  0.  0.  0.  0.
501  5.00  0.  0.  0.  0.
502  5.01  0.  0.  0.  0.
503  5.02  0.  0.  0.  0.
504  5.03  0.  0.  0.  0.
505  5.04  0.  0.  0.  0.
506  5.05  0.  0.  0.  0.
507  5.06  0.  0.  0.  0.
508  5.07  0.  0.  0.  0.
509  5.08  0.  0.  0.  0.
510  5.09  0.  0.  0.  0.
511  5.10  0.  0.  0.  0.
512  5.11  0.  0.  0.  0.
513  5.12  0.  0.  0.  0.
514  5.13  0.  0.  0.  0.
515  5.14  0.  0.  0.  0.
516  5.15  0.  0.  0.  0.
517  5.16  0.  0.  0.  0.
518  5.17  0.  0.  0.  0.
519  5.18  0.  0.  0.  0.
520  5.19  0.  0.  0.  0.
521  5.20  0.  0.  0.  0.
522  5.21  0.  0.  0.  0.
523  5.22  0.  0.  0.  0.
524  5.23  0.  0.  0.  0.
525  5.24  0.  0.  0.  0.
526  5.25  0.  0.  0.  0.
527  5.26  0.  0.  0.  0.
528  5.27  0.  0.  0.  0.
529  5.28  0.  0.  0.  0.
530  5.29  0.  0.  0.  0.
531  5.30  0.  0.  0.  0.
532  5.31  0.  0.  0.  0.
533  5.32  0.  0.  0.  0.
534  5.33  0.  0.  0.  0.
535  5.34  0.  0.  0.  0.
536  5.35  0.  0.  0.  0.
537  5.36  0.  0.  0.  0.
538  5.37  0.  0.  0.  0.
539  5.38  0.  0.  0.  0.
540  5.39  0.  0.  0.  0.
541  5.40  0.  0.  0.  0.
542  5.41  0.  0.  0.  0.
543  5.42  0.  0.  0.  0.
544  5.43  0.  0.  0.  0.
545  5.44  0.  0.  0.  0.
546  5.45  0.  0.  0.  0.
547  5.46  0.  0.  0.  0.
548  5.47  0.  0.  0.  0.
549  5.48  0.  0.  0.  0.
550  5.49  0.  0.  0.  0.
551  5.50  0.  0.  0.  0.
552  5.51  0.  0.  0.  0.
553  5.52  0.  0.  0.  0.
554  5.53  0.  0.  0.  0.
555  5.54  0.  0.  0.  0.
556  5.55  0.  0.  0.  0.
557  5.56  0.  0.  0.  0.
558  5.57  0.  0.  0.  0.
559  5.58  0.  0.  0.  0.
560  5.59  0.  0.  0.  0.
561  5.60  0.  0.  0.  0.
562  5.61  0.  0.  0.  0.
563  5.62  0.  0.  0.  0.
564  5.63  0.  0.  0.  0.
565  5.64  0.  0.  0.  0.
566  5.65  0.  0.  0.  0.
567  5.66  0.  0.  0.  0.
568  5.67  0.  0.  0.  0.
569  5.68  0.  0.  0.  0.
570  5.69  0.  0.  0.  0.
571  5.70  0.  0.  0.  0.
572  5.71  0.  0.  0.  0.
573  5.72  0.  0.  0.  0.
574  5.73  0.  0.  0.  0.
575  5.74  0.  0.  0.  0.
576  5.75  0.  0.  0.  0.
577  5.76  0.  0.  0.  0.
578  5.77  0.  0.  0.  0.
579  5.78  0.  0.  0.  0.
580  5.79  0.  0.  0.  0.
581  5.80  0.  0.  0.  0.
582  5.81  0.  0.  0.  0.
583  5.82  0.  0.  0.  0.
584  5.83  0.  0.  0.  0.
585  5.84  0.  0.  0.  0.
586  5.85  0.  0.  0.  0.
587  5.86  0.  0.  0.  0.
588  5.87  0.  0.  0.  0.
589  5.88  0.  0.  0.  0.
590  5.89  0.  0.  0.  0.
591  5.90  0.  0.  0.  0.
592  5.91  0.  0.  0.  0.
593  5.92  0.  0.  0.  0.
594  5.93  0.  0.  0.  0.
595  5.94  0.  0.  0.  0.
596  5.95  0.  0.  0.  0.
597  5.96  0.  0.  0.  0.
598  5.97  0.  0.  0.  0.
599  5.98  0.  0.  0.  0.
600  5.99  0.  0.  0.  0.
1                         1.6430437434501E+01  2.7084968118754E+00 -2.3653390808401E+00
1  0.0000000000000E+00  3.8485945630384E-07 -5.2826500621106E-07  2.2711536049602E-06
2  1.0000000000000E-02  6.9709536601576E-03 -3.9271555041635E-03  1.6236635972312E-02
3  2.0000000000000E-02  2.7710995931039E-02 -1.5513618068783E-02  6.4122251652178E-02
4  3.0000000000000E-02  6.1708291615194E-02 -3.4183180544069E-02  1.4122201895432E-01
5  4.0000000000000E-02  1.0813156010518E-01 -5.9004443314429E-02  2.4360301113843E-01
6  5.0000000000000E-02  1.6586173459462E-01 -8.8732839466783E-02  3.6601597824736E-01
7  6.0000000000000E-02  2.3353431592507E-01 -1.2186674896048E-01  5.0213829266203E-01
8  7.0000000000000E-02  3.0959055883869E-01 -1.5671513054233E-01  6.4486714097933E-01
9  8.0000000000000E-02  3.9233524354769E-01 -1.9147357188518E-01  7.8664976726557E-01
10  9.0000000000000E-02  4.7999850189834E-01 -2.2430527195578E-01  9.1983588719108E-01
11  1.0000000000000E-01  5.7079899780855E-01 -2.5342324273874E-01  1.0370363679557E+00
12  1.1000000000000E-01  6.6300571376989E-01 -2.7716996071050E-01  1.1314719515216E+00
13  1.2000000000000E-01  7.5499567122380E-01 -2.9409081468046E-01  1.1972962035731E+00
14  1.3000000000000E-01  8.4530510916130E-01 -3.0299798073326E-01  1.2298779810655E+00
15  1.4000000000000E-01  9.3267195352061E-01 -3.0302179428387E-01  1.2260304792562E+00
16  1.5000000000000E-01  1.0160678159837E+00 -2.9364726386340E-01  1.1841762676729E+00
17  1.6000000000000E-01  1.0947182462685E+00 -2.7473405513433E-01  1.1044405507036E+00
18  1.7000000000000E-01  1.1681105050321E+00 -2.4651903568778E-01  9.8866806823706E-01
19  1.8000000000000E-01  1.2359887004371E+00 -2.0960127664507E-01  8.4036244496577E-01
20  1.9000000000000E-01  1.2983367141635E+00 -1.6491021913750E-01  6.6455025377007E-01
21  2.0000000000000E-01  1.3553499056556E+00 -1.1365849512783E-01  4.6757542602574E-01
22  2.1000000000000E-01  1.4073971010217E+00 -5.7281606802105E-02  2.5683277026465E-01
23  2.2000000000000E-01  1.4549748215655E+00  2.6327161243972E-03  4.0452111080780E-02
24  2.3000000000000E-01  1.4986560658248E+00  6.4422174963585E-02 -1.7305319044578E-01
25  2.4000000000000E-01  1.5390362116325E+00  1.2643093441207E-01 -3.7515792637054E-01
26  2.5000000000000E-01  1.5766787392974E+00  1.8709021783088E-01 -5.5770056296405E-01
27  2.6000000000000E-01  1.6120634870432E+00  2.4499466114416E-01 -7.1324596656230E-01
28  2.7000000000000E-01  1.6455400345427E+00  2.9897080339023E-01 -8.3541919468460E-01
29  2.8000000000000E-01  1.6772885746054E+00  3.4813444235022E-01 -9.1919541608152E-01
30  2.9000000000000E-01  1.7072902872415E+00  3.9193408667596E-01 -9.6113289147399E-01
31  3.0000000000000E-01  1.7353087898802E+00  4.3017836900381E-01 -9.5953839910341E-01
32  3.1000000000000E-01  1.7608837223094E+00  4.6304601906916E-01 -9.1455741906582E-01
33  3.2000000000000E-01  1.7833369582607E+00  4.9107779841631E-01 -8.2818466947050E-01
34  3.3000000000000E-01  1.8017913432588E+00  5.1515063225439E-01 -7.0419407169211E-01
35  3.4000000000000E-01  1.8152012674491E+00  5.3643500104041E-01 -5.4799075776896E-01
36  3.5000000000000E-01  1.8223938197019E+00  5.5633743634055E-01 -3.6639116410938E-01
37  3.6000000000000E-01  1.8221187612805E+00  5.7643066619243E-01 -1.6734043011536E-01
38  3.7000000000000E-01  1.8131051272712E+00  5.9837454192499E-01  4.0420902823804E-02
39  3.8000000000000E-01  1.7941219318505E+00  6.2383132367131E-01  2.4772664081625E-01
40  3.9000000000000E-01  1.7640402349489E+00  6.5437918452826E-01  4.4537525039345E-01
41  4.0000000000000E-01  1.7218937334508E+00  6.9142789981215E-01  6.2452391088816E-01
42  4.1000000000000E-01  1.6669350745789E+00  7.3614061255174E-01  7.7706928065324E-01
43  4.2000000000000E-01  1.5986852514951E+00  7.8936531208432E-01  8.9599849676813E-01
44  4.3000000000000E-01  1.5169737244713E+00  8.5157924050692E-01  9.7569519637546E-01
45  4.4000000000000E-01  1.4219673027290E+00  9.2284887074224E-01  1.0121872836081E+00
46  4.5000000000000E-01  1.3141863046925E+00  1.0028074060455E+00  1.0033256835394E+00
47  4.6000000000000E-01  1.1945070661798E+00  1.0906509656407E+00  9.4888631207639E-01
48  4.7000000000000E-01  1.0641504619834E+00  1.1851537808964E+00  8.5059081567223E-01