Cf    ONCVPSP-4.0.1  r_core=   1.10001   1.15394   1.10001   1.35621
98.0000     38.0000      220310    zatom,zion,pspd
8      11   3     4   600     0    pspcod,pspxc,lmax,lloc,mmax,r2well
5.99000000  5.00000000  0.00000000    rchrg fchrg qchrg
3     2     2     2     0    nproj
1     1           extension_switch
0                         5.6665321416253E+01  1.6526692394800E+01  2.9193274047409E+00
1  0.0000000000000E+00 -1.5980737488874E-07  3.6985287527047E-07 -7.3877045592141E-07
2  1.0000000000000E-02  1.4322486525117E-01 -5.7748055709520E-02  1.1669197057556E-01
3  2.0000000000000E-02  2.8525947165016E-01 -1.1353926403121E-01  2.2943496429499E-01
4  3.0000000000000E-02  4.2494364970514E-01 -1.6548693425317E-01  3.3442965144540E-01
5  4.0000000000000E-02  5.6117625069411E-01 -2.1184195446292E-01  4.2817035536811E-01
6  5.0000000000000E-02  6.9294180551197E-01 -2.5105484472426E-01  5.0757797550273E-01
7  6.0000000000000E-02  8.1933388165206E-01 -2.8183000411843E-01  5.7011677909939E-01
8  7.0000000000000E-02  9.3957423358103E-01 -3.0317000254338E-01  6.1389058793218E-01
9  8.0000000000000E-02  1.0530270015734E+00 -3.1440813801805E-01  6.3771462511712E-01
10  9.0000000000000E-02  1.1592074039012E+00 -3.1522791998634E-01  6.4116016684260E-01
11  1.0000000000000E-01  1.2577845808031E+00 -3.0566863437449E-01  6.2457013651055E-01
12  1.1000000000000E-01  1.3485784785948E+00 -2.8611668033618E-01  5.8904485217602E-01
13  1.2000000000000E-01  1.4315509005793E+00 -2.5728292335550E-01  5.3639825643620E-01
14  1.3000000000000E-01  1.5067910894290E+00 -2.2016686498306E-01  4.6908608256332E-01
15  1.4000000000000E-01  1.5744964345250E+00 -1.7600896553966E-01  3.9010850164909E-01
16  1.5000000000000E-01  1.6349491083783E+00 -1.2623295211397E-01  3.0289081242084E-01
17  1.6000000000000E-01  1.6884896200643E+00 -7.2380380201995E-02  2.1114663880935E-01
18  1.7000000000000E-01  1.7354884225085E+00 -1.6040074823515E-02  1.1872885332135E-01
19  1.8000000000000E-01  1.7763168173959E+00  4.1224660522286E-02  2.9474013775329E-02
20  1.9000000000000E-01  1.8113184606144E+00  9.7948024680425E-02 -5.2953540616402E-02
21  2.0000000000000E-01  1.8407827783101E+00  1.5282981152071E-01 -1.2521166133543E-01
22  2.1000000000000E-01  1.8649215564906E+00  2.0479662522595E-01 -1.8441827650892E-01
23  2.2000000000000E-01  1.8838498654553E+00  2.5305344285226E-01 -2.2827140299596E-01
24  2.3000000000000E-01  1.8975723261606E+00  2.9712308394952E-01 -2.5514610579936E-01
25  2.4000000000000E-01  1.9059755232653E+00  3.3687159412082E-01 -2.6416406107204E-01
26  2.5000000000000E-01  1.9088271256219E+00  3.7251809408005E-01 -2.5523241398375E-01
27  2.6000000000000E-01  1.9057819980513E+00  4.0462826885117E-01 -2.2904982189037E-01
28  2.7000000000000E-01  1.8963952889161E+00  4.3409134978102E-01 -1.8707889232475E-01
29  2.8000000000000E-01  1.8801421683076E+00  4.6208114808824E-01 -1.3148561297660E-01
30  2.9000000000000E-01  1.8564435846536E+00  4.9000240338224E-01 -6.5047770581822E-02
31  3.0000000000000E-01  1.8246971167985E+00  5.1942438332607E-01  8.9642919066485E-03
32  3.1000000000000E-01  1.7843117375646E+00  5.5200428086150E-01  8.6929985069000E-02
33  3.2000000000000E-01  1.7347450861929E+00  5.8940347413272E-01  1.6503817388146E-01
34  3.3000000000000E-01  1.6755416822465E+00  6.3320011533961E-01  2.3945772956539E-01
35  3.4000000000000E-01  1.6063704119098E+00  6.8480177643535E-01  3.0651178915196E-01
36  3.5000000000000E-01  1.5270595860022E+00  7.4536198560453E-01  3.6284827179813E-01
37  3.6000000000000E-01  1.4376279113350E+00  8.1570442911138E-01  4.0559921068434E-01
38  3.7000000000000E-01  1.3383098338882E+00  8.9625836601786E-01  4.3252179480074E-01
39  3.8000000000000E-01  1.2295739008173E+00  9.8700841376445E-01  4.4211466959362E-01
40  3.9000000000000E-01  1.1121330422037E+00  1.0874613237903E+00  4.3370399780662E-01
41  4.0000000000000E-01  9.8694598313094E-01  1.1966316987625E+00  4.0749499601029E-01
42  4.1000000000000E-01  8.5520934955314E-01  1.3130478337779E+00  3.6458608917805E-01
43  4.2000000000000E-01  7.1834041254901E-01  1.4347780258315E+00  3.0694440498407E-01
44  4.3000000000000E-01  5.7795080819152E-01  1.5594768257356E+00  2.3734299250931E-01
45  4.4000000000000E-01  4.3581195670475E-01  1.6844498437256E+00  1.5926182259600E-01
46  4.5000000000000E-01  2.9381326700745E-01  1.8067349038271E+00  7.6756233297238E-02
47  4.6000000000000E-01  1.5391453413507E-01  1.9231966108032E+00 -5.7020502465934E-03
48  4.7000000000000E-01  1.8094202042741E-02  2.0306307817116E+00 -8.3404934889594E-02
49  4.8000000000000E-01 -1.1170463990683E-01  2.1258747309931E+00 -1.5160164125829E-01
50  4.9000000000000E-01 -2.3362854148719E-01  2.2059191058233E+00 -2.0569799674186E-01
51  5.0000000000000E-01 -3.4596623956773E-01  2.2680168612177E+00 -2.4145295942226E-01
52  5.1000000000000E-01 -4.4719750586822E-01  2.3097850470513E+00 -2.5516402591832E-01
53  5.2000000000000E-01 -5.3603646861644E-01  2.3292953473698E+00 -2.4383356989297E-01
54  5.3000000000000E-01 -6.1146779689909E-01  2.3251497525776E+00 -2.0530889385036E-01
55  5.4000000000000E-01 -6.7277441753883E-01  2.2965383353704E+00 -1.3838982091225E-01
56  5.5000000000000E-01 -7.1955576788212E-01  2.2432768125926E+00 -4.2898958242669E-02
57  5.6000000000000E-01 -7.5173595766977E-01  2.1658223731532E+00  8.0288727543730E-02
58  5.7000000000000E-01 -7.6956160142142E-01  2.0652670991415E+00  2.2925873371924E-01
59  5.8000000000000E-01 -7.7358947137976E-01  1.9433091649905E+00  4.0111222997196E-01
60  5.9000000000000E-01 -7.6466449271664E-01  1.8022028314349E+00  5.9206190060985E-01
61  6.0000000000000E-01 -7.4388894209390E-01  1.6446890250985E+00  7.9756497067944E-01
62  6.1000000000000E-01 -7.1258400565250E-01  1.4739089858624E+00  1.0124883480724E+00
63  6.2000000000000E-01 -6.7224509515476E-01  1.2933040571754E+00  1.2312992984534E+00
64  6.3000000000000E-01 -6.2449250854506E-01  1.1065051850628E+00  1.4482736591331E+00
65  6.4000000000000E-01 -5.7101915675475E-01  9.1721608877877E-01  1.6577122689467E+00
66  6.5000000000000E-01 -5.1353717173338E-01  7.2909439314586E-01  1.8541549942743E+00
67  6.6000000000000E-01 -4.5372527784906E-01  5.4563530806638E-01  2.0325803888822E+00
68  6.7000000000000E-01 -3.9317887338091E-01  3.7006275838835E-01  2.1885775307582E+00
69  6.8000000000000E-01 -3.3336486126778E-01  2.0523327664349E-01  2.3184747974986E+00
70  6.9000000000000E-01 -2.7558342600724E-01  5.3558556931236E-02  2.4194081090273E+00
71  7.0000000000000E-01 -2.2093922061035E-01 -8.3046571124325E-02  2.4893083440332E+00
72  7.1000000000000E-01 -1.7032479629180E-01 -2.0318301176896E-01  2.5267929531965E+00
73  7.2000000000000E-01 -1.2441681027675E-01 -3.0595597269747E-01  2.5311698764289E+00
74  7.3000000000000E-01 -8.3678289046697E-02 -3.9096099853611E-01  2.5026575143069E+00
75  7.4000000000000E-01 -4.8365965029574E-02 -4.5826398856780E-01  2.4423941353352E+00
76  7.5000000000000E-01 -1.8544153507273E-02 -5.0836641490888E-01  2.3523669037655E+00
77  7.6000000000000E-01  5.8956928488593E-03 -5.4215753934611E-01  2.2353143277519E+00
78  7.7000000000000E-01  2.5210930735816E-02 -5.6085626701177E-01  2.0946070423090E+00
79  7.8000000000000E-01  3.9780476360325E-02 -5.6594556642516E-01  1.9341124249254E+00
80  7.9000000000000E-01  5.0075719228838E-02 -5.5910253312239E-01  1.7580489383384E+00
81  8.0000000000000E-01  5.6630953541766E-02 -5.4212717878624E-01  1.5708362189681E+00
82  8.1000000000000E-01  6.0014613243459E-02 -5.1687289459365E-01  1.3769467866305E+00
83  8.2000000000000E-01  6.0802473339957E-02 -4.8518127919028E-01  1.1807648657638E+00
84  8.3000000000000E-01  5.9553809235542E-02 -4.4882365522573E-01  9.8645720471659E-01
85  8.4000000000000E-01  5.6791297795462E-02 -4.0945114578273E-01  7.9785999674459E-01
86  8.5000000000000E-01  5.2985210107310E-02 -3.6855466814031E-01  6.1838508706482E-01
87  8.6000000000000E-01  4.8542200057249E-02 -3.2743565768118E-01  4.5094765761310E-01
88  8.7000000000000E-01  4.3798742026924E-02 -2.8718777101508E-01  2.9791649838999E-01
89  8.8000000000000E-01  3.9019042201627E-02 -2.4868930531960E-01  1.6108703487152E-01
90  8.9000000000000E-01  3.4397026008332E-02 -2.1260555739353E-01  4.1676205449231E-02
91  9.0000000000000E-01  3.0061830902888E-02 -1.7939994812854E-01 -5.9662487343232E-02
92  9.1000000000000E-01  2.6086089281006E-02 -1.4935239205491E-01 -1.4280619902066E-01
93  9.2000000000000E-01  2.2496192351733E-02 -1.2258315812278E-01 -2.0811522951845E-01
94  9.3000000000000E-01  1.9283678819023E-02 -9.9080335002335E-02 -2.5637414352659E-01
95  9.4000000000000E-01  1.6416894085923E-02 -7.8728988247631E-02 -2.8872508218877E-01
96  9.5000000000000E-01  1.3852114038819E-02 -6.1340173183316E-02 -3.0659682493178E-01
97  9.6000000000000E-01  1.1543417673123E-02 -4.6678137077678E-02 -3.1163298795134E-01
98  9.7000000000000E-01  9.4507184753746E-03 -3.4484293892149E-02 -3.0562241932583E-01
99  9.8000000000000E-01  7.5455169400252E-03 -2.4496866325884E-02 -2.9043440017181E-01
100  9.9000000000000E-01  5.8141076445381E-03 -1.6465446123759E-02 -2.6796071059351E-01
101  1.0000000000000E+00  4.2581505081922E-03 -1.0160094434542E-02 -2.4006602933824E-01
102  1.0100000000000E+00  2.8926938965043E-03 -5.3749854120994E-03 -2.0854749314458E-01
103  1.0200000000000E+00  1.7418971628827E-03 -1.9269406002867E-03 -1.7510365805651E-01
104  1.0300000000000E+00  8.3284253583236E-04  3.5048514637914E-04 -1.4131253811989E-01
105  1.0400000000000E+00  1.8801050204462E-04  1.6163103284029E-03 -1.0861773303540E-01
106  1.0500000000000E+00 -2.0130121397461E-04  2.0713372117315E-03 -7.8372032782625E-02
107  1.0600000000000E+00 -4.2065761726520E-04  2.0484470707353E-03 -5.1939989043979E-02
108  1.0700000000000E+00 -4.5068279017891E-04  1.6342933429826E-03 -3.0174968317899E-02
109  1.0800000000000E+00 -3.1747519750204E-04  9.7385811812838E-04 -1.3818921015277E-02
110  1.0900000000000E+00 -1.1318851530926E-04  3.1128774864283E-04 -3.5331747618993E-03
111  1.1000000000000E+00 -1.2131337343802E-08  4.8281634185709E-08 -9.1297772630423E-07
112  1.1100000000000E+00 -9.1457773445016E-07  2.3619730438663E-06 -2.2875715544863E-05
113  1.1200000000000E+00 -3.0562943961515E-12  5.9500829606228E-12 -7.0424383516199E-12
114  1.13  0.  0.  0.
115  1.14  0.  0.  0.
116  1.15  0.  0.  0.
117  1.16  0.  0.  0.
118  1.17  0.  0.  0.
119  1.18  0.  0.  0.
120  1.19  0.  0.  0.
121  1.20  0.  0.  0.
122  1.21  0.  0.  0.
123  1.22  0.  0.  0.
124  1.23  0.  0.  0.
125  1.24  0.  0.  0.
126  1.25  0.  0.  0.
127  1.26  0.  0.  0.
128  1.27  0.  0.  0.
129  1.28  0.  0.  0.
130  1.29  0.  0.  0.
131  1.30  0.  0.  0.
132  1.31  0.  0.  0.
133  1.32  0.  0.  0.
134  1.33  0.  0.  0.
135  1.34  0.  0.  0.
136  1.35  0.  0.  0.
137  1.36  0.  0.  0.
138  1.37  0.  0.  0.
139  1.38  0.  0.  0.
140  1.39  0.  0.  0.
141  1.40  0.  0.  0.
142  1.41  0.  0.  0.
143  1.42  0.  0.  0.
144  1.43  0.  0.  0.
145  1.44  0.  0.  0.
146  1.45  0.  0.  0.
147  1.46  0.  0.  0.
148  1.47  0.  0.  0.
149  1.48  0.  0.  0.
150  1.49  0.  0.  0.
151  1.50  0.  0.  0.
152  1.51  0.  0.  0.
153  1.52  0.  0.  0.
154  1.53  0.  0.  0.
155  1.54  0.  0.  0.
156  1.55  0.  0.  0.
157  1.56  0.  0.  0.
158  1.57  0.  0.  0.
159  1.58  0.  0.  0.
160  1.59  0.  0.  0.
161  1.60  0.  0.  0.
162  1.61  0.  0.  0.
163  1.62  0.  0.  0.
164  1.63  0.  0.  0.
165  1.64  0.  0.  0.
166  1.65  0.  0.  0.
167  1.66  0.  0.  0.
168  1.67  0.  0.  0.
169  1.68  0.  0.  0.
170  1.69  0.  0.  0.
171  1.70  0.  0.  0.
172  1.71  0.  0.  0.
173  1.72  0.  0.  0.
174  1.73  0.  0.  0.
175  1.74  0.  0.  0.
176  1.75  0.  0.  0.
177  1.76  0.  0.  0.
178  1.77  0.  0.  0.
179  1.78  0.  0.  0.
180  1.79  0.  0.  0.
181  1.80  0.  0.  0.
182  1.81  0.  0.  0.
183  1.82  0.  0.  0.
184  1.83  0.  0.  0.
185  1.84  0.  0.  0.
186  1.85  0.  0.  0.
187  1.86  0.  0.  0.
188  1.87  0.  0.  0.
189  1.88  0.  0.  0.
190  1.89  0.  0.  0.
191  1.90  0.  0.  0.
192  1.91  0.  0.  0.
193  1.92  0.  0.  0.
194  1.93  0.  0.  0.
195  1.94  0.  0.  0.
196  1.95  0.  0.  0.
197  1.96  0.  0.  0.
198  1.97  0.  0.  0.
199  1.98  0.  0.  0.
200  1.99  0.  0.  0.
201  2.00  0.  0.  0.
202  2.01  0.  0.  0.
203  2.02  0.  0.  0.
204  2.03  0.  0.  0.
205  2.04  0.  0.  0.
206  2.05  0.  0.  0.
207  2.06  0.  0.  0.
208  2.07  0.  0.  0.
209  2.08  0.  0.  0.
210  2.09  0.  0.  0.
211  2.10  0.  0.  0.
212  2.11  0.  0.  0.
213  2.12  0.  0.  0.
214  2.13  0.  0.  0.
215  2.14  0.  0.  0.
216  2.15  0.  0.  0.
217  2.16  0.  0.  0.
218  2.17  0.  0.  0.
219  2.18  0.  0.  0.
220  2.19  0.  0.  0.
221  2.20  0.  0.  0.
222  2.21  0.  0.  0.
223  2.22  0.  0.  0.
224  2.23  0.  0.  0.
225  2.24  0.  0.  0.
226  2.25  0.  0.  0.
227  2.26  0.  0.  0.
228  2.27  0.  0.  0.
229  2.28  0.  0.  0.
230  2.29  0.  0.  0.
231  2.30  0.  0.  0.
232  2.31  0.  0.  0.
233  2.32  0.  0.  0.
234  2.33  0.  0.  0.
235  2.34  0.  0.  0.
236  2.35  0.  0.  0.
237  2.36  0.  0.  0.
238  2.37  0.  0.  0.
239  2.38  0.  0.  0.
240  2.39  0.  0.  0.
241  2.40  0.  0.  0.
242  2.41  0.  0.  0.
243  2.42  0.  0.  0.
244  2.43  0.  0.  0.
245  2.44  0.  0.  0.
246  2.45  0.  0.  0.
247  2.46  0.  0.  0.
248  2.47  0.  0.  0.
249  2.48  0.  0.  0.
250  2.49  0.  0.  0.
251  2.50  0.  0.  0.
252  2.51  0.  0.  0.
253  2.52  0.  0.  0.
254  2.53  0.  0.  0.
255  2.54  0.  0.  0.
256  2.55  0.  0.  0.
257  2.56  0.  0.  0.
258  2.57  0.  0.  0.
259  2.58  0.  0.  0.
260  2.59  0.  0.  0.
261  2.60  0.  0.  0.
262  2.61  0.  0.  0.
263  2.62  0.  0.  0.
264  2.63  0.  0.  0.
265  2.64  0.  0.  0.
266  2.65  0.  0.  0.
267  2.66  0.  0.  0.
268  2.67  0.  0.  0.
269  2.68  0.  0.  0.
270  2.69  0.  0.  0.
271  2.70  0.  0.  0.
272  2.71  0.  0.  0.
273  2.72  0.  0.  0.
274  2.73  0.  0.  0.
275  2.74  0.  0.  0.
276  2.75  0.  0.  0.
277  2.76  0.  0.  0.
278  2.77  0.  0.  0.
279  2.78  0.  0.  0.
280  2.79  0.  0.  0.
281  2.80  0.  0.  0.
282  2.81  0.  0.  0.
283  2.82  0.  0.  0.
284  2.83  0.  0.  0.
285  2.84  0.  0.  0.
286  2.85  0.  0.  0.
287  2.86  0.  0.  0.
288  2.87  0.  0.  0.
289  2.88  0.  0.  0.
290  2.89  0.  0.  0.
291  2.90  0.  0.  0.
292  2.91  0.  0.  0.
293  2.92  0.  0.  0.
294  2.93  0.  0.  0.
295  2.94  0.  0.  0.
296  2.95  0.  0.  0.
297  2.96  0.  0.  0.
298  2.97  0.  0.  0.
299  2.98  0.  0.  0.
300  2.99  0.  0.  0.
301  3.00  0.  0.  0.
302  3.01  0.  0.  0.
303  3.02  0.  0.  0.
304  3.03  0.  0.  0.
305  3.04  0.  0.  0.
306  3.05  0.  0.  0.
307  3.06  0.  0.  0.
308  3.07  0.  0.  0.
309  3.08  0.  0.  0.
310  3.09  0.  0.  0.
311  3.10  0.  0.  0.
312  3.11  0.  0.  0.
313  3.12  0.  0.  0.
314  3.13  0.  0.  0.
315  3.14  0.  0.  0.
316  3.15  0.  0.  0.
317  3.16  0.  0.  0.
318  3.17  0.  0.  0.
319  3.18  0.  0.  0.
320  3.19  0.  0.  0.
321  3.20  0.  0.  0.
322  3.21  0.  0.  0.
323  3.22  0.  0.  0.
324  3.23  0.  0.  0.
325  3.24  0.  0.  0.
326  3.25  0.  0.  0.
327  3.26  0.  0.  0.
328  3.27  0.  0.  0.
329  3.28  0.  0.  0.
330  3.29  0.  0.  0.
331  3.30  0.  0.  0.
332  3.31  0.  0.  0.
333  3.32  0.  0.  0.
334  3.33  0.  0.  0.
335  3.34  0.  0.  0.
336  3.35  0.  0.  0.
337  3.36  0.  0.  0.
338  3.37  0.  0.  0.
339  3.38  0.  0.  0.
340  3.39  0.  0.  0.
341  3.40  0.  0.  0.
342  3.41  0.  0.  0.
343  3.42  0.  0.  0.
344  3.43  0.  0.  0.
345  3.44  0.  0.  0.
346  3.45  0.  0.  0.
347  3.46  0.  0.  0.
348  3.47  0.  0.  0.
349  3.48  0.  0.  0.
350  3.49  0.  0.  0.
351  3.50  0.  0.  0.
352  3.51  0.  0.  0.
353  3.52  0.  0.  0.
354  3.53  0.  0.  0.
355  3.54  0.  0.  0.
356  3.55  0.  0.  0.
357  3.56  0.  0.  0.
358  3.57  0.  0.  0.
359  3.58  0.  0.  0.
360  3.59  0.  0.  0.
361  3.60  0.  0.  0.
362  3.61  0.  0.  0.
363  3.62  0.  0.  0.
364  3.63  0.  0.  0.
365  3.64  0.  0.  0.
366  3.65  0.  0.  0.
367  3.66  0.  0.  0.
368  3.67  0.  0.  0.
369  3.68  0.  0.  0.
370  3.69  0.  0.  0.
371  3.70  0.  0.  0.
372  3.71  0.  0.  0.
373  3.72  0.  0.  0.
374  3.73  0.  0.  0.
375  3.74  0.  0.  0.
376  3.75  0.  0.  0.
377  3.76  0.  0.  0.
378  3.77  0.  0.  0.
379  3.78  0.  0.  0.
380  3.79  0.  0.  0.
381  3.80  0.  0.  0.
382  3.81  0.  0.  0.
383  3.82  0.  0.  0.
384  3.83  0.  0.  0.
385  3.84  0.  0.  0.
386  3.85  0.  0.  0.
387  3.86  0.  0.  0.
388  3.87  0.  0.  0.
389  3.88  0.  0.  0.
390  3.89  0.  0.  0.
391  3.90  0.  0.  0.
392  3.91  0.  0.  0.
393  3.92  0.  0.  0.
394  3.93  0.  0.  0.
395  3.94  0.  0.  0.
396  3.95  0.  0.  0.
397  3.96  0.  0.  0.
398  3.97  0.  0.  0.
399  3.98  0.  0.  0.
400  3.99  0.  0.  0.
401  4.00  0.  0.  0.
402  4.01  0.  0.  0.
403  4.02  0.  0.  0.
404  4.03  0.  0.  0.
405  4.04  0.  0.  0.
406  4.05  0.  0.  0.
407  4.06  0.  0.  0.
408  4.07  0.  0.  0.
409  4.08  0.  0.  0.
410  4.09  0.  0.  0.
411  4.10  0.  0.  0.
412  4.11  0.  0.  0.
413  4.12  0.  0.  0.
414  4.13  0.  0.  0.
415  4.14  0.  0.  0.
416  4.15  0.  0.  0.
417  4.16  0.  0.  0.
418  4.17  0.  0.  0.
419  4.18  0.  0.  0.
420  4.19  0.  0.  0.
421  4.20  0.  0.  0.
422  4.21  0.  0.  0.
423  4.22  0.  0.  0.
424  4.23  0.  0.  0.
425  4.24  0.  0.  0.
426  4.25  0.  0.  0.
427  4.26  0.  0.  0.
428  4.27  0.  0.  0.
429  4.28  0.  0.  0.
430  4.29  0.  0.  0.
431  4.30  0.  0.  0.
432  4.31  0.  0.  0.
433  4.32  0.  0.  0.
434  4.33  0.  0.  0.
435  4.34  0.  0.  0.
436  4.35  0.  0.  0.
437  4.36  0.  0.  0.
438  4.37  0.  0.  0.
439  4.38  0.  0.  0.
440  4.39  0.  0.  0.
441  4.40  0.  0.  0.
442  4.41  0.  0.  0.
443  4.42  0.  0.  0.
444  4.43  0.  0.  0.
445  4.44  0.  0.  0.
446  4.45  0.  0.  0.
447  4.46  0.  0.  0.
448  4.47  0.  0.  0.
449  4.48  0.  0.  0.
450  4.49  0.  0.  0.
451  4.50  0.  0.  0.
452  4.51  0.  0.  0.
453  4.52  0.  0.  0.
454  4.53  0.  0.  0.
455  4.54  0.  0.  0.
456  4.55  0.  0.  0.
457  4.56  0.  0.  0.
458  4.57  0.  0.  0.
459  4.58  0.  0.  0.
460  4.59  0.  0.  0.
461  4.60  0.  0.  0.
462  4.61  0.  0.  0.
463  4.62  0.  0.  0.
464  4.63  0.  0.  0.
465  4.64  0.  0.  0.
466  4.65  0.  0.  0.
467  4.66  0.  0.  0.
468  4.67  0.  0.  0.
469  4.68  0.  0.  0.
470  4.69  0.  0.  0.
471  4.70  0.  0.  0.
472  4.71  0.  0.  0.
473  4.72  0.  0.  0.
474  4.73  0.  0.  0.
475  4.74  0.  0.  0.
476  4.75  0.  0.  0.
477  4.76  0.  0.  0.
478  4.77  0.  0.  0.
479  4.78  0.  0.  0.
480  4.79  0.  0.  0.
481  4.80  0.  0.  0.
482  4.81  0.  0.  0.
483  4.82  0.  0.  0.
484  4.83  0.  0.  0.
485  4.84  0.  0.  0.
486  4.85  0.  0.  0.
487  4.86  0.  0.  0.
488  4.87  0.  0.  0.
489  4.88  0.  0.  0.
490  4.89  0.  0.  0.
491  4.90  0.  0.  0.
492  4.91  0.  0.  0.
493  4.92  0.  0.  0.
494  4.93  0.  0.  0.
495  4.94  0.  0.  0.
496  4.95  0.  0.  0.
497  4.96  0.  0.  0.
498  4.97  0.  0.  0.
499  4.98  0.  0.  0.
500  4.99  0.  0.  0.
501  5.00  0.  0.  0.
502  5.01  0.  0.  0.
503  5.02  0.  0.  0.
504  5.03  0.  0.  0.
505  5.04  0.  0.  0.
506  5.05  0.  0.  0.
507  5.06  0.  0.  0.
508  5.07  0.  0.  0.
509  5.08  0.  0.  0.
510  5.09  0.  0.  0.
511  5.10  0.  0.  0.
512  5.11  0.  0.  0.
513  5.12  0.  0.  0.
514  5.13  0.  0.  0.
515  5.14  0.  0.  0.
516  5.15  0.  0.  0.
517  5.16  0.  0.  0.
518  5.17  0.  0.  0.
519  5.18  0.  0.  0.
520  5.19  0.  0.  0.
521  5.20  0.  0.  0.
522  5.21  0.  0.  0.
523  5.22  0.  0.  0.
524  5.23  0.  0.  0.
525  5.24  0.  0.  0.
526  5.25  0.  0.  0.
527  5.26  0.  0.  0.
528  5.27  0.  0.  0.
529  5.28  0.  0.  0.
530  5.29  0.  0.  0.
531  5.30  0.  0.  0.
532  5.31  0.  0.  0.
533  5.32  0.  0.  0.
534  5.33  0.  0.  0.
535  5.34  0.  0.  0.
536  5.35  0.  0.  0.
537  5.36  0.  0.  0.
538  5.37  0.  0.  0.
539  5.38  0.  0.  0.
540  5.39  0.  0.  0.
541  5.40  0.  0.  0.
542  5.41  0.  0.  0.
543  5.42  0.  0.  0.
544  5.43  0.  0.  0.
545  5.44  0.  0.  0.
546  5.45  0.  0.  0.
547  5.46  0.  0.  0.
548  5.47  0.  0.  0.
549  5.48  0.  0.  0.
550  5.49  0.  0.  0.
551  5.50  0.  0.  0.
552  5.51  0.  0.  0.
553  5.52  0.  0.  0.
554  5.53  0.  0.  0.
555  5.54  0.  0.  0.
556  5.55  0.  0.  0.
557  5.56  0.  0.  0.
558  5.57  0.  0.  0.
559  5.58  0.  0.  0.
560  5.59  0.  0.  0.
561  5.60  0.  0.  0.
562  5.61  0.  0.  0.
563  5.62  0.  0.  0.
564  5.63  0.  0.  0.
565  5.64  0.  0.  0.
566  5.65  0.  0.  0.
567  5.66  0.  0.  0.
568  5.67  0.  0.  0.
569  5.68  0.  0.  0.
570  5.69  0.  0.  0.
571  5.70  0.  0.  0.
572  5.71  0.  0.  0.
573  5.72  0.  0.  0.
574  5.73  0.  0.  0.
575  5.74  0.  0.  0.
576  5.75  0.  0.  0.
577  5.76  0.  0.  0.
578  5.77  0.  0.  0.
579  5.78  0.  0.  0.
580  5.79  0.  0.  0.
581  5.80  0.  0.  0.
582  5.81  0.  0.  0.
583  5.82  0.  0.  0.
584  5.83  0.  0.  0.
585  5.84  0.  0.  0.
586  5.85  0.  0.  0.
587  5.86  0.  0.  0.
588  5.87  0.  0.  0.
589  5.88  0.  0.  0.
590  5.89  0.  0.  0.
591  5.90  0.  0.  0.
592  5.91  0.  0.  0.
593  5.92  0.  0.  0.
594  5.93  0.  0.  0.
595  5.94  0.  0.  0.
596  5.95  0.  0.  0.
597  5.96  0.  0.  0.
598  5.97  0.  0.  0.
599  5.98  0.  0.  0.
600  5.99  0.  0.  0.
1                         3.1247361186383E+01  5.0834126949079E+00
1  0.0000000000000E+00 -2.0659183253002E-09  2.4409512786039E-08
2  1.0000000000000E-02  4.3815356914682E-03 -1.8310101721408E-03
3  2.0000000000000E-02  1.7489560363253E-02 -7.3073595871098E-03
4  3.0000000000000E-02  3.9214543546193E-02 -1.6378765963361E-02
5  4.0000000000000E-02  6.9374658918428E-02 -2.8960645060123E-02
6  5.0000000000000E-02  1.0771687786447E-01 -4.4932996050437E-02
7  6.0000000000000E-02  1.5391851375478E-01 -6.4138951302439E-02
8  7.0000000000000E-02  2.0758922922057E-01 -8.6383096649455E-02
9  8.0000000000000E-02  2.6827352076450E-01 -1.1142969263897E-01
10  9.0000000000000E-02  3.3545369606722E-01 -1.3900094736093E-01
11  1.0000000000000E-01  4.0855335913055E-01 -1.6877550645970E-01
12  1.1000000000000E-01  4.8694141677487E-01 -2.0038733512250E-01
13  1.2000000000000E-01  5.6993661685178E-01 -2.3342516962469E-01
14  1.3000000000000E-01  6.5681262375222E-01 -2.6743271196354E-01
15  1.4000000000000E-01  7.4680363034700E-01 -3.0190972996976E-01
16  1.5000000000000E-01  8.3911049740682E-01 -3.3631420699476E-01
17  1.6000000000000E-01  9.3290740189242E-01 -3.7006566000280E-01
18  1.7000000000000E-01  1.0273489644304E+00 -4.0254971306861E-01
19  1.8000000000000E-01  1.1215778140156E+00 -4.3312397556343E-01
20  1.9000000000000E-01  1.2147325347993E+00 -4.6112523164098E-01
21  2.0000000000000E-01  1.3059559260920E+00 -4.8587790119271E-01
22  2.1000000000000E-01  1.3944034928610E+00 -5.0670368364953E-01
23  2.2000000000000E-01  1.4792520705121E+00 -5.2293224648661E-01
24  2.3000000000000E-01  1.5597084751351E+00 -5.3391277182009E-01
25  2.4000000000000E-01  1.6350180592189E+00 -5.3902612895533E-01
26  2.5000000000000E-01  1.7044730436500E+00 -5.3769740007679E-01
27  2.6000000000000E-01  1.7674204901446E+00 -5.2940845234537E-01
28  2.7000000000000E-01  1.8232697746302E+00 -5.1371022425294E-01
29  2.8000000000000E-01  1.8714994219159E+00 -4.9023437873805E-01
30  2.9000000000000E-01  1.9116631656267E+00 -4.5870397156427E-01
31  3.0000000000000E-01  1.9433951050607E+00 -4.1894279171276E-01
32  3.1000000000000E-01  1.9664138424543E+00 -3.7088305151842E-01
33  3.2000000000000E-01  1.9805255000750E+00 -3.1457113797048E-01
34  3.3000000000000E-01  1.9856255363891E+00 -2.5017118246514E-01
35  3.4000000000000E-01  1.9816993039079E+00 -1.7796626325709E-01
36  3.5000000000000E-01  1.9688213176587E+00 -9.8357121290088E-02
37  3.6000000000000E-01  1.9471532318707E+00 -1.1858343873391E-02
38  3.7000000000000E-01  1.9169405525753E+00  8.0907950759323E-02
39  3.8000000000000E-01  1.8785081444518E+00  1.7922081455022E-01
40  3.9000000000000E-01  1.8322546203643E+00  2.8227136383965E-01
41  4.0000000000000E-01  1.7786457305598E+00  3.8917559976254E-01
42  4.1000000000000E-01  1.7182068943287E+00  4.9898882145217E-01
43  4.2000000000000E-01  1.6515150390189E+00  6.1072124342511E-01
44  4.3000000000000E-01  1.5791899286579E+00  7.2335438727915E-01
45  4.4000000000000E-01  1.5018851762337E+00  8.3585779301280E-01
46  4.5000000000000E-01  1.4202791392188E+00  9.4720558866715E-01
47  4.6000000000000E-01  1.3350658967295E+00  1.0563924696693E+00
48  4.7000000000000E-01  1.2469464985512E+00  1.1624486714592E+00
49  4.8000000000000E-01  1.1566206611701E+00  1.2644535700329E+00
50  4.9000000000000E-01  1.0647790642445E+00  1.3615476132963E+00
51  5.0000000000000E-01  9.7209637324550E-01  1.4529423689767E+00
52  5.1000000000000E-01  8.7922508120429E-01  1.5379285686904E+00
53  5.2000000000000E-01  7.8679022582325E-01  1.6158821280922E+00
54  5.3000000000000E-01  6.9538499912587E-01  1.6862682244404E+00
55  5.4000000000000E-01  6.0556722706107E-01  1.7486436092328E+00
56  5.5000000000000E-01  5.1785665802156E-01  1.8026574179259E+00
57  5.6000000000000E-01  4.3273296425706E-01  1.8480508037054E+00
58  5.7000000000000E-01  3.5063433102754E-01  1.8846557598734E+00
59  5.8000000000000E-01  2.7195648757620E-01  1.9123934973210E+00
60  5.9000000000000E-01  1.9705202427680E-01  1.9312727010825E+00
61  6.0000000000000E-01  1.2622984442800E-01  1.9413878941429E+00
62  6.1000000000000E-01  5.9754620055333E-02  1.9429179782725E+00
63  6.2000000000000E-01 -2.1538382079108E-03  1.9361247911717E+00
64  6.3000000000000E-01 -5.9321323375206E-02  1.9213512068139E+00
65  6.4000000000000E-01 -1.1162002266878E-01  1.8990179014077E+00
66  6.5000000000000E-01 -1.5896917271937E-01  1.8696174002678E+00
67  6.6000000000000E-01 -2.0133524245356E-01  1.8337034000145E+00
68  6.7000000000000E-01 -2.3873111618154E-01  1.7918726142444E+00
69  6.8000000000000E-01 -2.7121351763658E-01  1.7447355069744E+00
70  6.9000000000000E-01 -2.9887763852179E-01  1.6928712436164E+00
71  7.0000000000000E-01 -3.2184761079286E-01  1.6367610225841E+00
72  7.1000000000000E-01 -3.4026154769345E-01  1.5766980234130E+00
73  7.2000000000000E-01 -3.5426238261763E-01  1.5128029345915E+00
74  7.3000000000000E-01 -3.6400586171757E-01  1.4451853879942E+00
75  7.4000000000000E-01 -3.6966406241384E-01  1.3739848501044E+00
76  7.5000000000000E-01 -3.7142678733443E-01  1.2993796696710E+00
77  7.6000000000000E-01 -3.6950278726021E-01  1.2215955086075E+00
78  7.7000000000000E-01 -3.6412069315403E-01  1.1409127139669E+00
79  7.8000000000000E-01 -3.5552954098314E-01  1.0576721742973E+00
80  7.9000000000000E-01 -3.4399878544291E-01  9.7227925725806E-01
81  8.0000000000000E-01 -3.2981771619024E-01  8.8520549380415E-01
82  8.1000000000000E-01 -3.1329421190032E-01  7.9698775541908E-01
83  8.2000000000000E-01 -2.9475279291110E-01  7.0822476511292E-01
84  8.3000000000000E-01 -2.7453196111371E-01  6.1957088448813E-01
85  8.4000000000000E-01 -2.5298084509426E-01  5.3172722532229E-01
86  8.5000000000000E-01 -2.3045519808769E-01  4.4543024036750E-01
87  8.6000000000000E-01 -2.0731282596381E-01  3.6143805629024E-01
88  8.7000000000000E-01 -1.8390854618498E-01  2.8051489094501E-01
89  8.8000000000000E-01 -1.6058880881728E-01  2.0341401782337E-01
90  8.9000000000000E-01 -1.3768612239265E-01  1.3085976757512E-01
91  9.0000000000000E-01 -1.1551344912530E-01  6.3529148227776E-02
92  9.1000000000000E-01 -9.4358740072501E-02  2.0336823611651E-03
93  9.2000000000000E-01 -7.4479785590604E-02 -5.3097919316187E-02
94  9.3000000000000E-01 -5.6099553764161E-02 -1.0143563590121E-01
95  9.4000000000000E-01 -3.9402180779584E-02 -1.4266198180554E-01
96  9.5000000000000E-01 -2.4529762478030E-02 -1.7658328521583E-01
97  9.6000000000000E-01 -1.1580075922563E-02 -2.0313793413258E-01
98  9.7000000000000E-01 -6.0533441575112E-04 -2.2240121142685E-01
99  9.8000000000000E-01  8.3879503689774E-03 -2.3458644275211E-01
100  9.9000000000000E-01  1.5437958121207E-02 -2.4004229334940E-01
101  1.0000000000000E+00  2.0625396478208E-02 -2.3924617505583E-01
102  1.0100000000000E+00  2.4070214388230E-02 -2.3279384460666E-01
103  1.0200000000000E+00  2.5927259671668E-02 -2.2138540584721E-01
104  1.0300000000000E+00  2.6380981832679E-02 -2.0580804451075E-01
105  1.0400000000000E+00  2.5639313688935E-02 -1.8691593801070E-01
106  1.0500000000000E+00  2.3926893544400E-02 -1.6560788102256E-01
107  1.0600000000000E+00  2.1477813196161E-02 -1.4280325037271E-01
108  1.0700000000000E+00  1.8528094992629E-02 -1.1941699605084E-01
109  1.0800000000000E+00  1.5308114437132E-02 -9.6334392101843E-02
110  1.0900000000000E+00  1.2035180731700E-02 -7.4386265617499E-02
111  1.1000000000000E+00  8.9037665910861E-03 -5.4316736384979E-02
112  1.1100000000000E+00  6.0637741655630E-03 -3.6711530641646E-02
113  1.1200000000000E+00  3.6653568835525E-03 -2.2141372379918E-02
114  1.1300000000000E+00  1.8244775929999E-03 -1.1053492421021E-02
115  1.1400000000000E+00  6.1112469694864E-04 -3.7327888240660E-03
116  1.1500000000000E+00  5.3571207442802E-05 -3.3182167325330E-04
117  1.1600000000000E+00 -1.8486492421585E-06  1.1560819875526E-05
118  1.1700000000000E+00 -3.3882488343705E-07  2.0890079262590E-06
119  1.18 -0.  0.
120  1.19  0.  0.
121  1.20  0.  0.
122  1.21  0.  0.
123  1.22  0.  0.
124  1.23  0.  0.
125  1.24  0.  0.
126  1.25  0.  0.
127  1.26  0.  0.
128  1.27  0.  0.
129  1.28  0.  0.
130  1.29  0.  0.
131  1.30  0.  0.
132  1.31  0.  0.
133  1.32  0.  0.
134  1.33  0.  0.
135  1.34  0.  0.
136  1.35  0.  0.
137  1.36  0.  0.
138  1.37  0.  0.
139  1.38  0.  0.
140  1.39  0.  0.
141  1.40  0.  0.
142  1.41  0.  0.
143  1.42  0.  0.
144  1.43  0.  0.
145  1.44  0.  0.
146  1.45  0.  0.
147  1.46  0.  0.
148  1.47  0.  0.
149  1.48  0.  0.
150  1.49  0.  0.
151  1.50  0.  0.
152  1.51  0.  0.
153  1.52  0.  0.
154  1.53  0.  0.
155  1.54  0.  0.
156  1.55  0.  0.
157  1.56  0.  0.
158  1.57  0.  0.
159  1.58  0.  0.
160  1.59  0.  0.
161  1.60  0.  0.
162  1.61  0.  0.
163  1.62  0.  0.
164  1.63  0.  0.
165  1.64  0.  0.
166  1.65  0.  0.
167  1.66  0.  0.
168  1.67  0.  0.
169  1.68  0.  0.
170  1.69  0.  0.
171  1.70  0.  0.
172  1.71  0.  0.
173  1.72  0.  0.
174  1.73  0.  0.
175  1.74  0.  0.
176  1.75  0.  0.
177  1.76  0.  0.
178  1.77  0.  0.
179  1.78  0.  0.
180  1.79  0.  0.
181  1.80  0.  0.
182  1.81  0.  0.
183  1.82  0.  0.