Cf    ONCVPSP-4.0.1  r_core=   1.15394   1.15394   1.35621   1.35621
98.0000     38.0000      220309    zatom,zion,pspd
8      11   3     4   600     0    pspcod,pspxc,lmax,lloc,mmax,r2well
5.99000000  5.00000000  0.00000000    rchrg fchrg qchrg
3     2     2     2     0    nproj
1     1           extension_switch
0                         2.5089626528559E+01  4.0869858962977E+00 -4.7493543601773E-01
1  0.0000000000000E+00 -4.2637480435204E-08  9.7415373934151E-08  8.6021740042241E-07
2  1.0000000000000E-02  1.3758889104317E-01 -3.1543231586630E-02 -1.6994873524520E-01
3  2.0000000000000E-02  2.7435468791532E-01 -6.2266893891980E-02 -3.3474982696347E-01
4  3.0000000000000E-02  4.0948488830901E-01 -9.1371315463562E-02 -4.8943407416485E-01
5  4.0000000000000E-02  5.4218786401126E-01 -1.1809592402609E-01 -6.2938270249135E-01
6  5.0000000000000E-02  6.7170253564941E-01 -1.4173708176901E-01 -7.5048666757716E-01
7  6.0000000000000E-02  7.9730716520176E-01 -1.6166393775025E-01 -8.4928751905487E-01
8  7.0000000000000E-02  9.1832702504577E-01 -1.7733175716438E-01 -9.2309474084994E-01
9  8.0000000000000E-02  1.0341407449544E+00 -1.8829228463831E-01 -9.7007534362272E-01
10  9.0000000000000E-02  1.1441851885385E+00 -1.9420081319833E-01 -9.8931249994911E-01
11  1.0000000000000E-01  1.2479587662165E+00 -1.9481975765008E-01 -9.8083114497466E-01
12  1.1000000000000E-01  1.3450231506927E+00 -1.9001866588878E-01 -9.4558967342102E-01
13  1.2000000000000E-01  1.4350034208424E+00 -1.7977073885865E-01 -8.8543810373081E-01
14  1.3000000000000E-01  1.5175867184779E+00 -1.6414606415751E-01 -8.0304430639547E-01
15  1.4000000000000E-01  1.5925195573984E+00 -1.4330189438009E-01 -7.0179106113717E-01
16  1.5000000000000E-01  1.6596039732484E+00 -1.1747041426754E-01 -5.8564777376937E-01
17  1.6000000000000E-01  1.7186927440642E+00 -8.6944536127471E-02 -4.5902160902412E-01
18  1.7000000000000E-01  1.7696839433381E+00 -5.2062337033016E-02 -3.2659354636382E-01
19  1.8000000000000E-01  1.8125151086790E+00 -1.3190801037809E-02 -1.9314541405998E-01
20  1.9000000000000E-01  1.8471573188340E+00  2.9290446963136E-02 -6.3384282342128E-02
21  2.0000000000000E-01  1.8736094695339E+00  7.5004733040221E-02  5.8229312949959E-02
22  2.1000000000000E-01  1.8918930243857E+00  1.2359260023703E-01  1.6764299255494E-01
23  2.2000000000000E-01  1.9020474913859E+00  1.7472415467660E-01  2.6135805907800E-01
24  2.3000000000000E-01  1.9041268395366E+00  2.2810897901585E-01  3.3655358282384E-01
25  2.4000000000000E-01  1.8981970249092E+00  2.8350320272983E-01  3.9118450310928E-01
26  2.5000000000000E-01  1.8843347430807E+00  3.4071343787762E-01  4.2405016548194E-01
27  2.6000000000000E-01  1.8626274672182E+00  3.9959742047912E-01  4.3483081319989E-01
28  2.7000000000000E-01  1.8331747704958E+00  4.6006133628218E-01  4.2409074119240E-01
29  2.8000000000000E-01  1.7960908704106E+00  5.2205395007032E-01  3.9324805854572E-01
30  2.9000000000000E-01  1.7515082733690E+00  5.8555779420073E-01  3.4451224548921E-01
31  3.0000000000000E-01  1.6995823430538E+00  6.5057779933655E-01  2.8079188695749E-01
32  3.1000000000000E-01  1.6404965677963E+00  7.1712786323365E-01  2.0557607261381E-01
33  3.2000000000000E-01  1.5744682624811E+00  7.8521594738909E-01  1.2279393160399E-01
34  3.3000000000000E-01  1.5017544110903E+00  8.5482836248439E-01  3.6657582772437E-02
35  3.4000000000000E-01  1.4226573381565E+00  9.2591394887517E-01 -4.8505602604681E-02
36  3.5000000000000E-01  1.3375298919832E+00  9.9836887588259E-01 -1.2842513138807E-01
37  3.6000000000000E-01  1.2467798298940E+00  1.0720227724123E+00 -1.9905745514908E-01
38  3.7000000000000E-01  1.1508731158546E+00  1.1466268616644E+00 -2.5674759244633E-01
39  3.8000000000000E-01  1.0503358729540E+00  1.2218447057225E+00 -2.9837624074040E-01
40  3.9000000000000E-01  9.4575477632584E-01  1.2972460740236E+00 -3.2148685158222E-01
41  4.0000000000000E-01  8.3777572460196E-01  1.3723043365040E+00 -3.2438788764152E-01
42  4.1000000000000E-01  7.2710068798122E-01  1.4463976518374E+00 -3.0622640237256E-01
43  4.2000000000000E-01  6.1448269625031E-01  1.5188140785934E+00 -2.6703014803693E-01
44  4.3000000000000E-01  5.0071899813617E-01  1.5887605877936E+00 -2.0771658548558E-01
45  4.4000000000000E-01  3.8664249162694E-01  1.6553758050095E+00 -1.3006839572381E-01
46  4.5000000000000E-01  2.7311159075171E-01  1.7177461646349E+00 -3.6676332906700E-02
47  4.6000000000000E-01  1.6099875522157E-01  1.7749250239706E+00  6.9148535387899E-02
48  4.7000000000000E-01  5.1177962941555E-02  1.8259541655420E+00  1.8349002703185E-01
49  4.8000000000000E-01 -5.5488550387636E-02  1.8698870173375E+00  3.0196530252866E-01
50  4.9000000000000E-01 -1.5816392729063E-01  1.9058128463008E+00  4.1988155022325E-01
51  5.0000000000000E-01 -2.5605032226256E-01  1.9328811333961E+00  5.3240520886984E-01
52  5.1000000000000E-01 -3.4840214802911E-01  1.9503253208021E+00  6.3473758955741E-01
53  5.2000000000000E-01 -4.3453855543190E-01  1.9574851340175E+00  7.2229054048852E-01
54  5.3000000000000E-01 -5.1385478780681E-01  1.9538267234916E+00  7.9085581552277E-01
55  5.4000000000000E-01 -5.8583208320427E-01  1.9389599402272E+00  8.3676205872519E-01
56  5.5000000000000E-01 -6.5004584180407E-01  1.9126521549955E+00  8.5701379157442E-01
57  5.6000000000000E-01 -7.0617182975866E-01  1.8748381476836E+00  8.4940746770119E-01
58  5.7000000000000E-01 -7.5399025243379E-01  1.8256257273669E+00  8.1262051508560E-01
59  5.8000000000000E-01 -7.9338759728894E-01  1.7652968898002E+00  7.4627028408252E-01
60  5.9000000000000E-01 -8.2435621692728E-01  1.6943044715369E+00  6.5094092271853E-01
61  6.0000000000000E-01 -8.4699169352525E-01  1.6132644129707E+00  5.2817736605528E-01
62  6.1000000000000E-01 -8.6148809430257E-01  1.5229438904187E+00  3.8044680961113E-01
63  6.2000000000000E-01 -8.6813129140205E-01  1.4242457143331E+00  2.1106919327595E-01
64  6.3000000000000E-01 -8.6729057620843E-01  1.3181895117238E+00  2.4119308640894E-02
65  6.4000000000000E-01 -8.5940884573740E-01  1.2058903114375E+00 -1.7569588075295E-01
66  6.5000000000000E-01 -8.4499167563706E-01  1.0885352274696E+00 -3.8318028538690E-01
67  6.6000000000000E-01 -8.2459561936905E-01  9.6735898535420E-01 -5.9280702421606E-01
68  6.7000000000000E-01 -7.9881608555968E-01  8.4361905835486E-01 -7.9888650960138E-01
69  6.8000000000000E-01 -7.6827514512196E-01  7.1857117324747E-01 -9.9573849538802E-01
70  6.9000000000000E-01 -7.3360960684066E-01  5.9344591068038E-01 -1.1778622682752E+00
71  7.0000000000000E-01 -6.9545967546665E-01  4.6942706424543E-01 -1.3400993443880E+00
72  7.1000000000000E-01 -6.5445847120564E-01  3.4763233830637E-01 -1.4777834182748E+00
73  7.2000000000000E-01 -6.1122264543514E-01  2.2909686103472E-01 -1.5868728818406E+00
74  7.3000000000000E-01 -5.6634427646093E-01  1.1475987037612E-01 -1.6640619608343E+00
75  7.4000000000000E-01 -5.2038417330845E-01  5.4548017717677E-03 -1.7068673751827E+00
76  7.5000000000000E-01 -4.7386665722625E-01 -9.8097127398966E-02 -1.7136883813309E+00
77  7.6000000000000E-01 -4.2727583210372E-01 -1.9528987517807E-01 -1.6838390612659E+00
78  7.7000000000000E-01 -3.8105329866408E-01 -2.8563224063747E-01 -1.6175527440525E+00
79  7.8000000000000E-01 -3.3559721522471E-01 -3.6874452169083E-01 -1.5159594416103E+00
80  7.9000000000000E-01 -2.9126256192765E-01 -4.4435255183168E-01 -1.3810381128233E+00
81  8.0000000000000E-01 -2.4836242725381E-01 -5.1227958688894E-01 -1.2155464033235E+00
82  8.1000000000000E-01 -2.0717010659486E-01 -5.7243657603325E-01 -1.0229312111904E+00
83  8.2000000000000E-01 -1.6792178353863E-01 -6.2481139122743E-01 -8.0722397499485E-01
84  8.3000000000000E-01 -1.3081955578473E-01 -6.6945760507573E-01 -5.7292494955519E-01
85  8.4000000000000E-01 -9.6034569301117E-02 -7.0648339849459E-01 -3.2488091205005E-01
86  8.5000000000000E-01 -6.3710036130475E-02 -7.3604114758411E-01 -6.8160718558637E-02
87  8.6000000000000E-01 -3.3963932483478E-02 -7.5831818509318E-01  1.9206709338544E-01
88  8.7000000000000E-01 -6.8912034558528E-03 -7.7352915816530E-01  4.5065088359520E-01
89  8.8000000000000E-01  1.7434662299599E-02 -7.8191031335500E-01  7.0256350980756E-01
90  8.9000000000000E-01  3.8960781639354E-02 -7.8371593525847E-01  9.4299858133429E-01
91  9.0000000000000E-01  5.7654795832801E-02 -7.7921704967358E-01  1.1674539506976E+00
92  9.1000000000000E-01  7.3505554512031E-02 -7.6870237907884E-01  1.3718021277557E+00
93  9.2000000000000E-01  8.6524506882886E-02 -7.5248141019570E-01  1.5523485293643E+00
94  9.3000000000000E-01  9.6747688295849E-02 -7.3088930280172E-01  1.7058798188787E+00
95  9.4000000000000E-01  1.0423813572151E-01 -7.0429323746086E-01  1.8297060297821E+00
96  9.5000000000000E-01  1.0908851101805E-01 -6.7309966830863E-01  1.9217016954600E+00
97  9.6000000000000E-01  1.1142365604037E-01 -6.3776181542771E-01  1.9803528157603E+00
98  9.7000000000000E-01  1.1140274807757E-01 -5.9878659857069E-01  2.0048181790504E+00
99  9.8000000000000E-01  1.0922066684078E-01 -5.5674007795681E-01  1.9950153286908E+00
100  9.9000000000000E-01  1.0510812394499E-01 -5.1225032596593E-01  1.9517433435214E+00
101  1.0000000000000E+00  9.9330037352083E-02 -4.6600649079192E-01  1.8768563225623E+00
102  1.0100000000000E+00  9.2181552257496E-02 -4.1875261750599E-01  1.7735028176818E+00
103  1.0200000000000E+00  8.3978159820255E-02 -3.7126491599023E-01  1.6461575569237E+00
104  1.0300000000000E+00  7.5037662258780E-02 -3.2430303414477E-01  1.4998623633746E+00
105  1.0400000000000E+00  6.5670673447977E-02 -2.7858810110194E-01  1.3398039285862E+00
106  1.0500000000000E+00  5.6175474419988E-02 -2.3479500655276E-01  1.1712028102110E+00
107  1.0600000000000E+00  4.6832642868450E-02 -1.9354412204672E-01  9.9920909243483E-01
108  1.0700000000000E+00  3.7899543798561E-02 -1.5539256616113E-01  8.2880398746056E-01
109  1.0800000000000E+00  2.9604824146085E-02 -1.2082527522169E-01  6.6470868209641E-01
110  1.0900000000000E+00  2.2143063815489E-02 -9.0246158375757E-02  5.1130198720957E-01
111  1.1000000000000E+00  1.5663689367576E-02 -6.3954229056216E-02  3.7256453564877E-01
112  1.1100000000000E+00  1.0234416107379E-02 -4.2051572857698E-02  2.5209728305645E-01
113  1.1200000000000E+00  5.9481112061880E-03 -2.4721270217883E-02  1.5277563466581E-01
114  1.1300000000000E+00  2.8501811362422E-03 -1.2049974480523E-02  7.6914800430106E-02
115  1.1400000000000E+00  9.1926182855643E-04 -3.9790055282273E-03  2.6290864605586E-02
116  1.1500000000000E+00  7.7437199238205E-05 -3.4607981652250E-04  2.3754533014471E-03
117  1.1600000000000E+00 -2.6016911056618E-06  1.1888724667458E-05 -8.3649874743311E-05
118  1.1700000000000E+00 -4.9561713329796E-07  2.1923191187694E-06 -1.4878867140654E-05
119  1.18 -0.  0.  0.
120  1.19  0.  0.  0.
121  1.20  0.  0.  0.
122  1.21  0.  0.  0.
123  1.22  0.  0.  0.
124  1.23  0.  0.  0.
125  1.24  0.  0.  0.
126  1.25  0.  0.  0.
127  1.26  0.  0.  0.
128  1.27  0.  0.  0.
129  1.28  0.  0.  0.
130  1.29  0.  0.  0.
131  1.30  0.  0.  0.
132  1.31  0.  0.  0.
133  1.32  0.  0.  0.
134  1.33  0.  0.  0.
135  1.34  0.  0.  0.
136  1.35  0.  0.  0.
137  1.36  0.  0.  0.
138  1.37  0.  0.  0.
139  1.38  0.  0.  0.
140  1.39  0.  0.  0.
141  1.40  0.  0.  0.
142  1.41  0.  0.  0.
143  1.42  0.  0.  0.
144  1.43  0.  0.  0.
145  1.44  0.  0.  0.
146  1.45  0.  0.  0.
147  1.46  0.  0.  0.
148  1.47  0.  0.  0.
149  1.48  0.  0.  0.
150  1.49  0.  0.  0.
151  1.50  0.  0.  0.
152  1.51  0.  0.  0.
153  1.52  0.  0.  0.
154  1.53  0.  0.  0.
155  1.54  0.  0.  0.
156  1.55  0.  0.  0.
157  1.56  0.  0.  0.
158  1.57  0.  0.  0.
159  1.58  0.  0.  0.
160  1.59  0.  0.  0.
161  1.60  0.  0.  0.
162  1.61  0.  0.  0.
163  1.62  0.  0.  0.
164  1.63  0.  0.  0.
165  1.64  0.  0.  0.
166  1.65  0.  0.  0.
167  1.66  0.  0.  0.
168  1.67  0.  0.  0.
169  1.68  0.  0.  0.
170  1.69  0.  0.  0.
171  1.70  0.  0.  0.
172  1.71  0.  0.  0.
173  1.72  0.  0.  0.
174  1.73  0.  0.  0.
175  1.74  0.  0.  0.
176  1.75  0.  0.  0.
177  1.76  0.  0.  0.
178  1.77  0.  0.  0.
179  1.78  0.  0.  0.
180  1.79  0.  0.  0.
181  1.80  0.  0.  0.
182  1.81  0.  0.  0.
183  1.82  0.  0.  0.
184  1.83  0.  0.  0.
185  1.84  0.  0.  0.
186  1.85  0.  0.  0.
187  1.86  0.  0.  0.
188  1.87  0.  0.  0.
189  1.88  0.  0.  0.
190  1.89  0.  0.  0.
191  1.90  0.  0.  0.
192  1.91  0.  0.  0.
193  1.92  0.  0.  0.
194  1.93  0.  0.  0.
195  1.94  0.  0.  0.
196  1.95  0.  0.  0.
197  1.96  0.  0.  0.
198  1.97  0.  0.  0.
199  1.98  0.  0.  0.
200  1.99  0.  0.  0.
201  2.00  0.  0.  0.
202  2.01  0.  0.  0.
203  2.02  0.  0.  0.
204  2.03  0.  0.  0.
205  2.04  0.  0.  0.
206  2.05  0.  0.  0.
207  2.06  0.  0.  0.
208  2.07  0.  0.  0.
209  2.08  0.  0.  0.
210  2.09  0.  0.  0.
211  2.10  0.  0.  0.
212  2.11  0.  0.  0.
213  2.12  0.  0.  0.
214  2.13  0.  0.  0.
215  2.14  0.  0.  0.
216  2.15  0.  0.  0.
217  2.16  0.  0.  0.
218  2.17  0.  0.  0.
219  2.18  0.  0.  0.
220  2.19  0.  0.  0.
221  2.20  0.  0.  0.
222  2.21  0.  0.  0.
223  2.22  0.  0.  0.
224  2.23  0.  0.  0.
225  2.24  0.  0.  0.
226  2.25  0.  0.  0.
227  2.26  0.  0.  0.
228  2.27  0.  0.  0.
229  2.28  0.  0.  0.
230  2.29  0.  0.  0.
231  2.30  0.  0.  0.
232  2.31  0.  0.  0.
233  2.32  0.  0.  0.
234  2.33  0.  0.  0.
235  2.34  0.  0.  0.
236  2.35  0.  0.  0.
237  2.36  0.  0.  0.
238  2.37  0.  0.  0.
239  2.38  0.  0.  0.
240  2.39  0.  0.  0.
241  2.40  0.  0.  0.
242  2.41  0.  0.  0.
243  2.42  0.  0.  0.
244  2.43  0.  0.  0.
245  2.44  0.  0.  0.
246  2.45  0.  0.  0.
247  2.46  0.  0.  0.
248  2.47  0.  0.  0.
249  2.48  0.  0.  0.
250  2.49  0.  0.  0.
251  2.50  0.  0.  0.
252  2.51  0.  0.  0.
253  2.52  0.  0.  0.
254  2.53  0.  0.  0.
255  2.54  0.  0.  0.
256  2.55  0.  0.  0.
257  2.56  0.  0.  0.
258  2.57  0.  0.  0.
259  2.58  0.  0.  0.
260  2.59  0.  0.  0.
261  2.60  0.  0.  0.
262  2.61  0.  0.  0.
263  2.62  0.  0.  0.
264  2.63  0.  0.  0.
265  2.64  0.  0.  0.
266  2.65  0.  0.  0.
267  2.66  0.  0.  0.
268  2.67  0.  0.  0.
269  2.68  0.  0.  0.
270  2.69  0.  0.  0.
271  2.70  0.  0.  0.
272  2.71  0.  0.  0.
273  2.72  0.  0.  0.
274  2.73  0.  0.  0.
275  2.74  0.  0.  0.
276  2.75  0.  0.  0.
277  2.76  0.  0.  0.
278  2.77  0.  0.  0.
279  2.78  0.  0.  0.
280  2.79  0.  0.  0.
281  2.80  0.  0.  0.
282  2.81  0.  0.  0.
283  2.82  0.  0.  0.
284  2.83  0.  0.  0.
285  2.84  0.  0.  0.
286  2.85  0.  0.  0.
287  2.86  0.  0.  0.
288  2.87  0.  0.  0.
289  2.88  0.  0.  0.
290  2.89  0.  0.  0.
291  2.90  0.  0.  0.
292  2.91  0.  0.  0.
293  2.92  0.  0.  0.
294  2.93  0.  0.  0.
295  2.94  0.  0.  0.
296  2.95  0.  0.  0.
297  2.96  0.  0.  0.
298  2.97  0.  0.  0.
299  2.98  0.  0.  0.
300  2.99  0.  0.  0.
301  3.00  0.  0.  0.
302  3.01  0.  0.  0.
303  3.02  0.  0.  0.
304  3.03  0.  0.  0.
305  3.04  0.  0.  0.
306  3.05  0.  0.  0.
307  3.06  0.  0.  0.
308  3.07  0.  0.  0.
309  3.08  0.  0.  0.
310  3.09  0.  0.  0.
311  3.10  0.  0.  0.
312  3.11  0.  0.  0.
313  3.12  0.  0.  0.
314  3.13  0.  0.  0.
315  3.14  0.  0.  0.
316  3.15  0.  0.  0.
317  3.16  0.  0.  0.
318  3.17  0.  0.  0.
319  3.18  0.  0.  0.
320  3.19  0.  0.  0.
321  3.20  0.  0.  0.
322  3.21  0.  0.  0.
323  3.22  0.  0.  0.
324  3.23  0.  0.  0.
325  3.24  0.  0.  0.
326  3.25  0.  0.  0.
327  3.26  0.  0.  0.
328  3.27  0.  0.  0.
329  3.28  0.  0.  0.
330  3.29  0.  0.  0.
331  3.30  0.  0.  0.
332  3.31  0.  0.  0.
333  3.32  0.  0.  0.
334  3.33  0.  0.  0.
335  3.34  0.  0.  0.
336  3.35  0.  0.  0.
337  3.36  0.  0.  0.
338  3.37  0.  0.  0.
339  3.38  0.  0.  0.
340  3.39  0.  0.  0.
341  3.40  0.  0.  0.
342  3.41  0.  0.  0.
343  3.42  0.  0.  0.
344  3.43  0.  0.  0.
345  3.44  0.  0.  0.
346  3.45  0.  0.  0.
347  3.46  0.  0.  0.
348  3.47  0.  0.  0.
349  3.48  0.  0.  0.
350  3.49  0.  0.  0.
351  3.50  0.  0.  0.
352  3.51  0.  0.  0.
353  3.52  0.  0.  0.
354  3.53  0.  0.  0.
355  3.54  0.  0.  0.
356  3.55  0.  0.  0.
357  3.56  0.  0.  0.
358  3.57  0.  0.  0.
359  3.58  0.  0.  0.
360  3.59  0.  0.  0.
361  3.60  0.  0.  0.
362  3.61  0.  0.  0.
363  3.62  0.  0.  0.
364  3.63  0.  0.  0.
365  3.64  0.  0.  0.
366  3.65  0.  0.  0.
367  3.66  0.  0.  0.
368  3.67  0.  0.  0.
369  3.68  0.  0.  0.
370  3.69  0.  0.  0.
371  3.70  0.  0.  0.
372  3.71  0.  0.  0.
373  3.72  0.  0.  0.
374  3.73  0.  0.  0.
375  3.74  0.  0.  0.
376  3.75  0.  0.  0.
377  3.76  0.  0.  0.
378  3.77  0.  0.  0.
379  3.78  0.  0.  0.
380  3.79  0.  0.  0.
381  3.80  0.  0.  0.
382  3.81  0.  0.  0.
383  3.82  0.  0.  0.
384  3.83  0.  0.  0.
385  3.84  0.  0.  0.
386  3.85  0.  0.  0.
387  3.86  0.  0.  0.
388  3.87  0.  0.  0.
389  3.88  0.  0.  0.
390  3.89  0.  0.  0.
391  3.90  0.  0.  0.
392  3.91  0.  0.  0.
393  3.92  0.  0.  0.
394  3.93  0.  0.  0.
395  3.94  0.  0.  0.
396  3.95  0.  0.  0.
397  3.96  0.  0.  0.
398  3.97  0.  0.  0.
399  3.98  0.  0.  0.
400  3.99  0.  0.  0.
401  4.00  0.  0.  0.
402  4.01  0.  0.  0.
403  4.02  0.  0.  0.
404  4.03  0.  0.  0.
405  4.04  0.  0.  0.
406  4.05  0.  0.  0.
407  4.06  0.  0.  0.
408  4.07  0.  0.  0.
409  4.08  0.  0.  0.
410  4.09  0.  0.  0.
411  4.10  0.  0.  0.
412  4.11  0.  0.  0.
413  4.12  0.  0.  0.
414  4.13  0.  0.  0.
415  4.14  0.  0.  0.
416  4.15  0.  0.  0.
417  4.16  0.  0.  0.
418  4.17  0.  0.  0.
419  4.18  0.  0.  0.
420  4.19  0.  0.  0.
421  4.20  0.  0.  0.
422  4.21  0.  0.  0.
423  4.22  0.  0.  0.
424  4.23  0.  0.  0.
425  4.24  0.  0.  0.
426  4.25  0.  0.  0.
427  4.26  0.  0.  0.
428  4.27  0.  0.  0.
429  4.28  0.  0.  0.
430  4.29  0.  0.  0.
431  4.30  0.  0.  0.
432  4.31  0.  0.  0.
433  4.32  0.  0.  0.
434  4.33  0.  0.  0.
435  4.34  0.  0.  0.
436  4.35  0.  0.  0.
437  4.36  0.  0.  0.
438  4.37  0.  0.  0.
439  4.38  0.  0.  0.
440  4.39  0.  0.  0.
441  4.40  0.  0.  0.
442  4.41  0.  0.  0.
443  4.42  0.  0.  0.
444  4.43  0.  0.  0.
445  4.44  0.  0.  0.
446  4.45  0.  0.  0.
447  4.46  0.  0.  0.
448  4.47  0.  0.  0.
449  4.48  0.  0.  0.
450  4.49  0.  0.  0.
451  4.50  0.  0.  0.
452  4.51  0.  0.  0.
453  4.52  0.  0.  0.
454  4.53  0.  0.  0.
455  4.54  0.  0.  0.
456  4.55  0.  0.  0.
457  4.56  0.  0.  0.
458  4.57  0.  0.  0.
459  4.58  0.  0.  0.
460  4.59  0.  0.  0.
461  4.60  0.  0.  0.
462  4.61  0.  0.  0.
463  4.62  0.  0.  0.
464  4.63  0.  0.  0.
465  4.64  0.  0.  0.
466  4.65  0.  0.  0.
467  4.66  0.  0.  0.
468  4.67  0.  0.  0.
469  4.68  0.  0.  0.
470  4.69  0.  0.  0.
471  4.70  0.  0.  0.
472  4.71  0.  0.  0.
473  4.72  0.  0.  0.
474  4.73  0.  0.  0.
475  4.74  0.  0.  0.
476  4.75  0.  0.  0.
477  4.76  0.  0.  0.
478  4.77  0.  0.  0.
479  4.78  0.  0.  0.
480  4.79  0.  0.  0.
481  4.80  0.  0.  0.
482  4.81  0.  0.  0.
483  4.82  0.  0.  0.
484  4.83  0.  0.  0.
485  4.84  0.  0.  0.
486  4.85  0.  0.  0.
487  4.86  0.  0.  0.
488  4.87  0.  0.  0.
489  4.88  0.  0.  0.
490  4.89  0.  0.  0.
491  4.90  0.  0.  0.
492  4.91  0.  0.  0.
493  4.92  0.  0.  0.
494  4.93  0.  0.  0.
495  4.94  0.  0.  0.
496  4.95  0.  0.  0.
497  4.96  0.  0.  0.
498  4.97  0.  0.  0.
499  4.98  0.  0.  0.
500  4.99  0.  0.  0.
501  5.00  0.  0.  0.
502  5.01  0.  0.  0.
503  5.02  0.  0.  0.
504  5.03  0.  0.  0.
505  5.04  0.  0.  0.
506  5.05  0.  0.  0.
507  5.06  0.  0.  0.
508  5.07  0.  0.  0.
509  5.08  0.  0.  0.
510  5.09  0.  0.  0.
511  5.10  0.  0.  0.
512  5.11  0.  0.  0.
513  5.12  0.  0.  0.
514  5.13  0.  0.  0.
515  5.14  0.  0.  0.
516  5.15  0.  0.  0.
517  5.16  0.  0.  0.
518  5.17  0.  0.  0.
519  5.18  0.  0.  0.
520  5.19  0.  0.  0.
521  5.20  0.  0.  0.
522  5.21  0.  0.  0.
523  5.22  0.  0.  0.
524  5.23  0.  0.  0.
525  5.24  0.  0.  0.
526  5.25  0.  0.  0.
527  5.26  0.  0.  0.
528  5.27  0.  0.  0.
529  5.28  0.  0.  0.
530  5.29  0.  0.  0.
531  5.30  0.  0.  0.
532  5.31  0.  0.  0.
533  5.32  0.  0.  0.
534  5.33  0.  0.  0.
535  5.34  0.  0.  0.
536  5.35  0.  0.  0.
537  5.36  0.  0.  0.
538  5.37  0.  0.  0.
539  5.38  0.  0.  0.
540  5.39  0.  0.  0.
541  5.40  0.  0.  0.
542  5.41  0.  0.  0.
543  5.42  0.  0.  0.
544  5.43  0.  0.  0.
545  5.44  0.  0.  0.
546  5.45  0.  0.  0.
547  5.46  0.  0.  0.
548  5.47  0.  0.  0.
549  5.48  0.  0.  0.
550  5.49  0.  0.  0.
551  5.50  0.  0.  0.
552  5.51  0.  0.  0.
553  5.52  0.  0.  0.
554  5.53  0.  0.  0.
555  5.54  0.  0.  0.
556  5.55  0.  0.  0.
557  5.56  0.  0.  0.
558  5.57  0.  0.  0.
559  5.58  0.  0.  0.
560  5.59  0.  0.  0.
561  5.60  0.  0.  0.
562  5.61  0.  0.  0.
563  5.62  0.  0.  0.
564  5.63  0.  0.  0.
565  5.64  0.  0.  0.
566  5.65  0.  0.  0.
567  5.66  0.  0.  0.
568  5.67  0.  0.  0.
569  5.68  0.  0.  0.
570  5.69  0.  0.  0.
571  5.70  0.  0.  0.
572  5.71  0.  0.  0.
573  5.72  0.  0.  0.
574  5.73  0.  0.  0.
575  5.74  0.  0.  0.
576  5.75  0.  0.  0.
577  5.76  0.  0.  0.
578  5.77  0.  0.  0.
579  5.78  0.  0.  0.
580  5.79  0.  0.  0.
581  5.80  0.  0.  0.
582  5.81  0.  0.  0.
583  5.82  0.  0.  0.
584  5.83  0.  0.  0.
585  5.84  0.  0.  0.
586  5.85  0.  0.  0.
587  5.86  0.  0.  0.
588  5.87  0.  0.  0.
589  5.88  0.  0.  0.
590  5.89  0.  0.  0.
591  5.90  0.  0.  0.
592  5.91  0.  0.  0.
593  5.92  0.  0.  0.
594  5.93  0.  0.  0.
595  5.94  0.  0.  0.
596  5.95  0.  0.  0.
597  5.96  0.  0.  0.
598  5.97  0.  0.  0.
599  5.98  0.  0.  0.
600  5.99  0.  0.  0.
1                         2.4573586829105E+01  3.1805612592673E+00
1  0.0000000000000E+00 -6.9691677595518E-08  1.1092355967079E-07
2  1.0000000000000E-02  3.6184614128246E-03  1.2448457532431E-03
3  2.0000000000000E-02  1.4466626356991E-02  4.9375821001331E-03
4  3.0000000000000E-02  3.2521834051224E-02  1.0954732543363E-02
5  4.0000000000000E-02  5.7743023336469E-02  1.9096845629508E-02
6  5.0000000000000E-02  9.0065965246112E-02  2.9097738642712E-02
7  6.0000000000000E-02  1.2939692633924E-01  4.0636908589713E-02
8  7.0000000000000E-02  1.7560508451134E-01  5.3354604527398E-02
9  8.0000000000000E-02  2.2851408868847E-01  6.6868944360500E-02
10  9.0000000000000E-02  2.8789320795927E-01  8.0794371846636E-02
11  1.0000000000000E-01  3.5344855205455E-01  9.4760689108492E-02
12  1.1000000000000E-01  4.2481486205349E-01  1.0843186890277E-01
13  1.2000000000000E-01  5.0154836690308E-01  1.2152385058957E-01
14  1.3000000000000E-01  5.8312117766211E-01  1.3382055440526E-01
15  1.4000000000000E-01  6.6891764796862E-01  1.4518740933846E-01
16  1.5000000000000E-01  7.5823306747085E-01  1.5558177859120E-01
17  1.6000000000000E-01  8.5027497695347E-01  1.6505978016506E-01
18  1.7000000000000E-01  9.4416730236026E-01  1.7377913448427E-01
19  1.8000000000000E-01  1.0389574031334E+00  1.8199782127493E-01
20  1.9000000000000E-01  1.1336260219508E+00  1.9006848864727E-01
21  2.0000000000000E-01  1.2271000120414E+00  1.9842872250418E-01
22  2.1000000000000E-01  1.3182676089363E+00  2.0758744782945E-01
23  2.2000000000000E-01  1.4059959099205E+00  2.1810788887934E-01
24  2.3000000000000E-01  1.4891501305872E+00  2.3058765682602E-01
25  2.4000000000000E-01  1.5666141274591E+00  2.4563665543181E-01
26  2.5000000000000E-01  1.6373116118990E+00  2.6385359297820E-01
27  2.6000000000000E-01  1.7002274361758E+00  2.8580195788236E-01
28  2.7000000000000E-01  1.7544283096082E+00  3.1198635316323E-01
29  2.8000000000000E-01  1.7990823024409E+00  3.4283008925830E-01
30  2.9000000000000E-01  1.8334765179634E+00  3.7865490495283E-01
31  3.0000000000000E-01  1.8570323589536E+00  4.1966362294326E-01
32  3.1000000000000E-01  1.8693178815746E+00  4.6592645166245E-01
33  3.2000000000000E-01  1.8700568162957E+00  5.1737152151151E-01
34  3.3000000000000E-01  1.8591339384340E+00  5.7378009576106E-01
35  3.4000000000000E-01  1.8365965870307E+00  6.3478672928592E-01
36  3.5000000000000E-01  1.8026522559560E+00  6.9988446797775E-01
37  3.6000000000000E-01  1.7576623109361E+00  7.6843499473476E-01
38  3.7000000000000E-01  1.7021320159362E+00  8.3968344132727E-01
39  3.8000000000000E-01  1.6366971772365E+00  9.1277740625760E-01
40  3.9000000000000E-01  1.5621078289490E+00  9.8678955390233E-01
41  4.0000000000000E-01  1.4792094852361E+00  1.0607430262527E+00
42  4.1000000000000E-01  1.3889225681693E+00  1.1336387812980E+00
43  4.2000000000000E-01  1.2922206826492E+00  1.2044838864620E+00
44  4.3000000000000E-01  1.1901084484949E+00  1.2723197453273E+00
45  4.4000000000000E-01  1.0835996129375E+00  1.3362492237249E+00
46  4.5000000000000E-01  9.7369615349095E-01  1.3954616682622E+00
47  4.6000000000000E-01  8.6136904168724E-01  1.4492548762017E+00
48  4.7000000000000E-01  7.4754127358789E-01  1.4970531784667E+00
49  4.8000000000000E-01  6.3307368545373E-01  1.5384209341713E+00
50  4.9000000000000E-01  5.1875396548270E-01  1.5730709008469E+00
51  5.0000000000000E-01  4.0528914895174E-01  1.6008671336216E+00
52  5.1000000000000E-01  2.9330174892872E-01  1.6218222721930E+00
53  5.2000000000000E-01  1.8332953297945E-01  1.6360892889056E+00
54  5.3000000000000E-01  7.5828813338052E-02  1.6439479865371E+00
55  5.4000000000000E-01 -2.8819020676929E-02  1.6457867422312E+00
56  5.5000000000000E-01 -1.3029812822571E-01  1.6420801862656E+00
57  5.6000000000000E-01 -2.2834651492580E-01  1.6333636733174E+00
58  5.7000000000000E-01 -3.2274261247098E-01  1.6202055426518E+00
59  5.8000000000000E-01 -4.1329082054165E-01  1.6031782663273E+00
60  5.9000000000000E-01 -4.9980673662354E-01  1.5828296464611E+00
61  6.0000000000000E-01 -5.8210281574631E-01  1.5596552407268E+00
62  6.1000000000000E-01 -6.5997518894858E-01  1.5340731680843E+00
63  6.2000000000000E-01 -7.3319232658075E-01  1.5064023745102E+00
64  6.3000000000000E-01 -8.0148616164082E-01  1.4768453232182E+00
65  6.4000000000000E-01 -8.6454619159198E-01  1.4454759192196E+00
66  6.5000000000000E-01 -9.2201695797693E-01  1.4122332893712E+00
67  6.6000000000000E-01 -9.7349916598968E-01  1.3769218229662E+00
68  6.7000000000000E-01 -1.0185545561311E+00  1.3392176423104E+00
69  6.8000000000000E-01 -1.0567144828892E+00  1.2986814263173E+00
70  6.9000000000000E-01 -1.0874919971082E+00  1.2547772622136E+00
71  7.0000000000000E-01 -1.1103970755764E+00  1.2068969604589E+00
72  7.1000000000000E-01 -1.1249544994225E+00  1.1543890451976E+00
73  7.2000000000000E-01 -1.1307237579134E+00  1.0965914357398E+00
74  7.3000000000000E-01 -1.1273202512834E+00  1.0328666714959E+00
75  7.4000000000000E-01 -1.1144369896293E+00  9.6263841009863E-01
76  7.5000000000000E-01 -1.0918659379622E+00  8.8542785118529E-01
77  7.6000000000000E-01 -1.0595181423993E+00  8.0088870986341E-01
78  7.7000000000000E-01 -1.0174417901086E+00  7.0883938568822E-01
79  7.8000000000000E-01 -9.6583740559672E-01  6.0929104452211E-01
80  7.9000000000000E-01 -9.0506946654873E-01  5.0247044942072E-01
81  8.0000000000000E-01 -8.3567383070244E-01  3.8883653824158E-01
82  8.1000000000000E-01 -7.5836049700975E-01  2.6908994376612E-01
83  8.2000000000000E-01 -6.7401137439541E-01  1.4417487894083E-01
84  8.3000000000000E-01 -5.8367289369820E-01  1.5273056222825E-02
85  8.4000000000000E-01 -4.8854346613763E-01 -1.1621043419582E-01
86  8.5000000000000E-01 -3.8995595773417E-01 -2.4866910813405E-01
87  8.6000000000000E-01 -2.8935550619046E-01 -3.8032451212237E-01
88  8.7000000000000E-01 -1.8827314755694E-01 -5.0926244969693E-01
89  8.8000000000000E-01 -8.8295837628924E-02 -6.3347518563103E-01
90  8.9000000000000E-01  8.9664589166416E-03 -7.5090866390436E-01
91  9.0000000000000E-01  1.0191588573111E-01 -8.5951368697156E-01
92  9.1000000000000E-01  1.8900327931991E-01 -9.5729997507049E-01
93  9.2000000000000E-01  2.6876551204955E-01 -1.0423920603697E+00
94  9.3000000000000E-01  3.3986296061122E-01 -1.1130860753160E+00
95  9.4000000000000E-01  4.0111658935680E-01 -1.1679066693090E+00
96  9.5000000000000E-01  4.5154430667945E-01 -1.2056635324887E+00
97  9.6000000000000E-01  4.9039646603766E-01 -1.2255073176814E+00
98  9.7000000000000E-01  5.1719063852563E-01 -1.2269851273507E+00
99  9.8000000000000E-01  5.3174607689541E-01 -1.2100961656345E+00
100  9.9000000000000E-01  5.3421862027260E-01 -1.1753486449240E+00
101  1.0000000000000E+00  5.2513709187198E-01 -1.1238194777690E+00
102  1.0100000000000E+00  5.0544246843174E-01 -1.0572185950706E+00
103  1.0200000000000E+00  4.7647465549608E-01 -9.7786497493083E-01
104  1.0300000000000E+00  4.3979937317232E-01 -8.8839721004170E-01
105  1.0400000000000E+00  3.9710577523871E-01 -7.9160943141976E-01
106  1.0500000000000E+00  3.5016326699605E-01 -6.9038887798376E-01
107  1.0600000000000E+00  3.0077581149950E-01 -5.8764981237259E-01
108  1.0700000000000E+00  2.5073445881662E-01 -4.8626473106387E-01
109  1.0800000000000E+00  2.0176939085919E-01 -3.8899474589472E-01
110  1.0900000000000E+00  1.5550285427267E-01 -2.9842115267796E-01
111  1.1000000000000E+00  1.1338801152452E-01 -2.1685728517845E-01
112  1.1100000000000E+00  7.6573093534948E-02 -1.4615285838286E-01
113  1.1200000000000E+00  4.6171266682245E-02 -8.8073106914342E-02
114  1.1300000000000E+00  2.3057181127688E-02 -4.4016727092380E-02
115  1.1400000000000E+00  7.7933802803834E-03 -1.4909945865575E-02
116  1.1500000000000E+00  6.9382521125544E-04 -1.3322399269794E-03
117  1.1600000000000E+00 -2.4197790535727E-05  4.6577267216752E-05
118  1.1700000000000E+00 -4.3658668804818E-06  8.3730351041408E-06
119  1.18 -0.  0.
120  1.19  0.  0.
121  1.20  0.  0.
122  1.21  0.  0.
123  1.22  0.  0.
124  1.23  0.  0.
125  1.24  0.  0.
126  1.25  0.  0.
127  1.26  0.  0.
128  1.27  0.  0.
129  1.28  0.  0.
130  1.29  0.  0.
131  1.30  0.  0.
132  1.31  0.  0.
133  1.32  0.  0.
134  1.33  0.  0.
135  1.34  0.  0.
136  1.35  0.  0.
137  1.36  0.  0.
138  1.37  0.  0.
139  1.38  0.  0.
140  1.39  0.  0.
141  1.40  0.  0.
142  1.41  0.  0.
143  1.42  0.  0.
144  1.43  0.  0.
145  1.44  0.  0.
146  1.45  0.  0.
147  1.46  0.  0.
148  1.47  0.  0.
149  1.48  0.  0.
150  1.49  0.  0.
151  1.50  0.  0.
152  1.51  0.  0.
153  1.52  0.  0.
154  1.53  0.  0.
155  1.54  0.  0.
156  1.55  0.  0.
157  1.56  0.  0.
158  1.57  0.  0.
159  1.58  0.  0.
160  1.59  0.  0.
161  1.60  0.  0.
162  1.61  0.  0.
163  1.62  0.  0.
164  1.63  0.  0.
165  1.64  0.  0.