Mt    ONCVPSP-4.0.1  r_core=   1.10144   1.10144   1.10144   1.20485
109.0000     49.0000      231012    zatom,zion,pspd
8 -116133   3     4   600     0    pspcod,pspxc,lmax,lloc,mmax,r2well
5.99000000  3.00000000  0.00000000    rchrg fchrg qchrg
3     3     2     2    nproj
3     1           extension_switch
3     3     3    nprojso
0                        -1.4093623215657E+01  1.0147724009381E+01 -3.6190151890671E-01
1  0.0000000000000E+00 -7.8896855715271E-10  3.4303651030854E-08 -8.0670230453994E-08
2  1.0000000000000E-02  7.5724328788202E-02  1.7954341758576E-01 -1.6444098472147E-02
3  2.0000000000000E-02  1.5128140330251E-01  3.5738259926165E-01 -3.2744549749283E-02
4  3.0000000000000E-02  2.2650440541940E-01  5.3182894454235E-01 -4.8759601048162E-02
5  4.0000000000000E-02  3.0122738571410E-01  7.0122511579440E-01 -6.4351498785568E-02
6  5.0000000000000E-02  3.7528568903502E-01  8.6396063940183E-01 -7.9388989771334E-02
7  6.0000000000000E-02  4.4851637017873E-01  1.0184874425709E+00 -9.3750357872463E-02
8  7.0000000000000E-02  5.2075859737675E-01  1.1633352596332E+00 -1.0732706900323E-01
9  8.0000000000000E-02  5.9185404209416E-01  1.2971268074014E+00 -1.2002801662590E-01
10  9.0000000000000E-02  6.6164725453441E-01  1.4185925909915E+00 -1.3178427074719E-01
11  1.0000000000000E-01  7.2998602518899E-01  1.5265851623022E+00 -1.4255414236961E-01
12  1.1000000000000E-01  7.9672173370829E-01  1.6200926159971E+00 -1.5232828957240E-01
13  1.2000000000000E-01  8.6170968723992E-01  1.6982510753226E+00 -1.6113451784440E-01
14  1.3000000000000E-01  9.2480945112651E-01  1.7603558952362E+00 -1.6904187244129E-01
15  1.4000000000000E-01  9.8588517542497E-01  1.8058712955990E+00 -1.7616358992003E-01
16  1.5000000000000E-01  1.0448059210584E+00  1.8344381346413E+00 -1.8265847382948E-01
17  1.6000000000000E-01  1.1014459895082E+00  1.8458795439583E+00 -1.8873028839364E-01
18  1.7000000000000E-01  1.1556852597747E+00  1.8402041716802E+00 -1.9462482466276E-01
19  1.8000000000000E-01  1.2074095358782E+00  1.8176068201579E+00 -2.0062438481249E-01
20  1.9000000000000E-01  1.2565109074375E+00  1.7784663177240E+00 -2.0703954885340E-01
21  2.0000000000000E-01  1.3028881248815E+00  1.7233405292522E+00 -2.1419822892100E-01
22  2.1000000000000E-01  1.3464469896534E+00  1.6529584850942E+00 -2.2243217284021E-01
23  2.2000000000000E-01  1.3871007584039E+00  1.5682096896308E+00 -2.3206124273843E-01
24  2.3000000000000E-01  1.4247705586984E+00  1.4701307557886E+00 -2.4337595712927E-01
25  2.4000000000000E-01  1.4593858122561E+00  1.3598895967484E+00 -2.5661893661795E-01
26  2.5000000000000E-01  1.4908846602557E+00  1.2387674868920E+00 -2.7196602474213E-01
27  2.6000000000000E-01  1.5192143838685E+00  1.1081393770001E+00 -2.8950795756296E-01
28  2.7000000000000E-01  1.5443318119704E+00  9.6945291027162E-01 -3.0923352062302E-01
29  2.8000000000000E-01  1.5662037070204E+00  8.2420663273912E-01 -3.3101515350745E-01
30  2.9000000000000E-01  1.5848071194140E+00  6.7392792153861E-01 -3.5459793613961E-01
31  3.0000000000000E-01  1.6001297002805E+00  5.2015116541256E-01 -3.7959281506237E-01
32  3.1000000000000E-01  1.6121699627234E+00  3.6439672276214E-01 -4.0547480272937E-01
33  3.2000000000000E-01  1.6209374819045E+00  2.0815115340549E-01 -4.3158671128721E-01
34  3.3000000000000E-01  1.6264530251663E+00  5.2849171748885E-02 -4.5714877004576E-01
35  3.4000000000000E-01  1.6287486045292E+00 -1.0014229694365E-01 -4.8127423077443E-01
36  3.5000000000000E-01  1.6278674453780E+00 -2.4953765652286E-01 -5.0299079718641E-01
37  3.6000000000000E-01  1.6238638668976E+00 -3.9414356823162E-01 -5.2126743621114E-01
38  3.7000000000000E-01  1.6168030717856E+00 -5.3286715985313E-01 -5.3504585181315E-01
39  3.8000000000000E-01  1.6067608448696E+00 -6.6472151223779E-01 -5.4327564067442E-01
40  3.9000000000000E-01  1.5938231624271E+00 -7.8882852252014E-01 -5.4495191642991E-01
41  4.0000000000000E-01  1.5780857161459E+00 -9.0441934040236E-01 -5.3915399804135E-01
42  4.1000000000000E-01  1.5596533577008E+00 -1.0108326608035E+00 -5.2508361962744E-01
43  4.2000000000000E-01  1.5386394717767E+00 -1.1075112289529E+00 -5.0210104300026E-01
44  4.3000000000000E-01  1.5151652869592E+00 -1.1939969692396E+00 -4.6975744712492E-01
45  4.4000000000000E-01  1.4893591351882E+00 -1.2699251841926E+00 -4.2782203463284E-01
46  4.5000000000000E-01  1.4613556713741E+00 -1.3350182831229E+00 -3.7630243503278E-01
47  4.6000000000000E-01  1.4312950652798E+00 -1.3890794905076E+00 -3.1545719463622E-01
48  4.7000000000000E-01  1.3993221778526E+00 -1.4319869524486E+00 -2.4579941829357E-01
49  4.8000000000000E-01  1.3655857338623E+00 -1.4636886069080E+00 -1.6809095839526E-01
50  4.9000000000000E-01  1.3302375019666E+00 -1.4841981122900E+00 -8.3326919886567E-02
51  5.0000000000000E-01  1.2934314922410E+00 -1.4935920426357E+00  7.2893485878803E-03
52  5.1000000000000E-01  1.2553231798106E+00 -1.4920084602946E+00  1.0238019458372E-01
53  5.2000000000000E-01  1.2160687615801E+00 -1.4796468731433E+00  2.0043554387025E-01
54  5.3000000000000E-01  1.1758244512542E+00 -1.4567694782822E+00  2.9986135448469E-01
55  5.4000000000000E-01  1.1347458159484E+00 -1.4237034929151E+00  3.9903293454403E-01
56  5.5000000000000E-01  1.0929871557997E+00 -1.3808442809222E+00  4.9635113698373E-01
57  5.6000000000000E-01  1.0507009261868E+00 -1.3286589053076E+00  5.9029924022501E-01
58  5.7000000000000E-01  1.0080372005325E+00 -1.2676896764862E+00  6.7949820592880E-01
59  5.8000000000000E-01  9.6514317026735E-01 -1.1985572277551E+00  7.6275798204026E-01
60  5.9000000000000E-01  9.2216267744430E-01 -1.1219626348136E+00  8.3912259592696E-01
61  6.0000000000000E-01  8.7923577474865E-01 -1.0386881072950E+00  9.0790695900580E-01
62  6.1000000000000E-01  8.3649830728853E-01 -9.4959581722419E-01  9.6872357688709E-01
63  6.2000000000000E-01  7.9408151058238E-01 -8.5562449117090E-01  1.0214977194214E+00
64  6.3000000000000E-01  7.5211161958135E-01 -7.5778347747609E-01  1.0664700406622E+00
65  6.4000000000000E-01  7.1070948435001E-01 -6.5714410401041E-01  1.1041861334836E+00
66  6.5000000000000E-01  6.6999018913959E-01 -5.5482826119542E-01  1.1354730380996E+00
67  6.6000000000000E-01  6.3006267296574E-01 -4.5199427436507E-01  1.1614032763492E+00
68  6.7000000000000E-01  5.9102935137991E-01 -3.4982026322980E-01  1.1832475311138E+00
69  6.8000000000000E-01  5.5298574081933E-01 -2.4948531813139E-01  1.2024176088960E+00
70  6.9000000000000E-01  5.1602008865007E-01 -1.5214894674076E-01  1.2204017901538E+00
71  7.0000000000000E-01  4.8021301369260E-01 -5.8929354823935E-02  1.2386950646512E+00
72  7.1000000000000E-01  4.4563716355214E-01  2.9118784867375E-02  1.2587270486496E+00
73  7.2000000000000E-01  4.1235689638629E-01  1.1102635549202E-01  1.2817905713031E+00
74  7.3000000000000E-01  3.8042799575726E-01  1.8593085295188E-01  1.3089739875227E+00
75  7.4000000000000E-01  3.4989742787538E-01  2.5309571205212E-01  1.3411002169744E+00
76  7.5000000000000E-01  3.2080315080123E-01  3.1192716303683E-01  1.3786753222229E+00
77  7.6000000000000E-01  2.9317398500707E-01  3.6198793762903E-01  1.4218491272331E+00
78  7.7000000000000E-01  2.6702955409800E-01  4.0300723277546E-01  1.4703899498994E+00
79  7.8000000000000E-01  2.4238030346932E-01  4.3488645750796E-01  1.5236749936162E+00
80  7.9000000000000E-01  2.1922760326064E-01  4.5770042950084E-01  1.5806973325611E+00
81  8.0000000000000E-01  1.9756394020657E-01  4.7169384769931E-01  1.6400897567022E+00
82  8.1000000000000E-01  1.7737320094375E-01  4.7727303947779E-01  1.7001650423066E+00
83  8.2000000000000E-01  1.5863104709131E-01  4.7499315815519E-01  1.7589715105822E+00
84  8.3000000000000E-01  1.4130538006434E-01  4.6554118189142E-01  1.8143620607956E+00
85  8.4000000000000E-01  1.2535689120069E-01  4.4971523047865E-01  1.8640742441758E+00
86  8.5000000000000E-01  1.1073969047626E-01  4.2840086499932E-01  1.9058184090473E+00
87  8.6000000000000E-01  9.7402004945470E-02  4.0254515999088E-01  1.9373705210389E+00
88  8.7000000000000E-01  8.5286936158969E-02  3.7312943272945E-01  1.9566659661060E+00
89  8.8000000000000E-01  7.4333264255971E-02  3.4114157475892E-01  1.9618904947809E+00
90  8.9000000000000E-01  6.4476285266825E-02  3.0754895345608E-01  1.9515644741029E+00
91  9.0000000000000E-01  5.5648667438604E-02  2.7327283439481E-01  1.9246167833290E+00
92  9.1000000000000E-01  4.7781312140272E-02  2.3916521837161E-01  1.8804450183937E+00
93  9.2000000000000E-01  4.0804205121846E-02  2.0598889170845E-01  1.8189591490538E+00
94  9.3000000000000E-01  3.4647244581566E-02  1.7440135804683E-01  1.7406063861403E+00
95  9.4000000000000E-01  2.9241033603788E-02  1.4494315907217E-01  1.6463757426901E+00
96  9.5000000000000E-01  2.4517626017754E-02  1.1803090659731E-01  1.5377815852195E+00
97  9.6000000000000E-01  2.0411216527299E-02  9.3955146486279E-02  1.4168263390614E+00
98  9.7000000000000E-01  1.6858767994025E-02  7.2882964209008E-02  1.2859434003739E+00
99  9.8000000000000E-01  1.3800570933695E-02  5.4865030989522E-02  1.1479221818229E+00
100  9.9000000000000E-01  1.1180732512318E-02  3.9846587492091E-02  1.0058180427579E+00
101  1.0000000000000E+00  8.9475945124380E-03  2.7681677139656E-02  8.6285059444097E-01
102  1.0100000000000E+00  7.0540817876713E-03  1.8149781715573E-02  7.2229449387581E-01
103  1.0200000000000E+00  5.4579845523461E-03  1.0973884717490E-02  5.8736731926006E-01
104  1.0300000000000E+00  4.1221811624055E-03  5.8388927124230E-03  4.6111944223033E-01
105  1.0400000000000E+00  3.0147931370516E-03  2.4093926548399E-03  3.4633080348278E-01
106  1.0500000000000E+00  2.1081784445708E-03  3.4910136745598E-04  2.4541495414411E-01
107  1.0600000000000E+00  1.3715768367684E-03 -6.3071506327928E-04  1.6029284152057E-01
108  1.0700000000000E+00  7.9420927522649E-04 -8.4442382527843E-04  9.2450269930211E-02
109  1.0800000000000E+00  3.7284049264609E-04 -6.1117426710662E-04  4.2896899452382E-02
110  1.0900000000000E+00  1.0722017281380E-04 -2.3419490296665E-04  1.2102812537036E-02
111  1.1000000000000E+00  3.2241659403246E-06 -8.8496365452186E-06  3.5269633959585E-04
112  1.1100000000000E+00  4.7181236846048E-07 -1.2628038874037E-06  5.2172362563503E-05
113  1.1200000000000E+00 -5.3750320386052E-08  1.3149414450715E-07 -6.0084302433575E-06
114  1.13  0.  0.  0.
115  1.14  0.  0.  0.
116  1.15  0.  0.  0.
117  1.16  0.  0.  0.
118  1.17  0.  0.  0.
119  1.18  0.  0.  0.
120  1.19  0.  0.  0.
121  1.20  0.  0.  0.
122  1.21  0.  0.  0.
123  1.22  0.  0.  0.
124  1.23  0.  0.  0.
125  1.24  0.  0.  0.
126  1.25  0.  0.  0.
127  1.26  0.  0.  0.
128  1.27  0.  0.  0.
129  1.28  0.  0.  0.
130  1.29  0.  0.  0.
131  1.30  0.  0.  0.
132  1.31  0.  0.  0.
133  1.32  0.  0.  0.
134  1.33  0.  0.  0.
135  1.34  0.  0.  0.
136  1.35  0.  0.  0.
137  1.36  0.  0.  0.
138  1.37  0.  0.  0.
139  1.38  0.  0.  0.
140  1.39  0.  0.  0.
141  1.40  0.  0.  0.
142  1.41  0.  0.  0.
143  1.42  0.  0.  0.
144  1.43  0.  0.  0.
145  1.44  0.  0.  0.
146  1.45  0.  0.  0.
147  1.46  0.  0.  0.
148  1.47  0.  0.  0.
149  1.48  0.  0.  0.
150  1.49  0.  0.  0.
151  1.50  0.  0.  0.
152  1.51  0.  0.  0.
153  1.52  0.  0.  0.
154  1.53  0.  0.  0.
155  1.54  0.  0.  0.
156  1.55  0.  0.  0.
157  1.56  0.  0.  0.
158  1.57  0.  0.  0.
159  1.58  0.  0.  0.
160  1.59  0.  0.  0.
161  1.60  0.  0.  0.
162  1.61  0.  0.  0.
163  1.62  0.  0.  0.
164  1.63  0.  0.  0.
165  1.64  0.  0.  0.
166  1.65  0.  0.  0.
167  1.66  0.  0.  0.
168  1.67  0.  0.  0.
169  1.68  0.  0.  0.
170  1.69  0.  0.  0.
171  1.70  0.  0.  0.
172  1.71  0.  0.  0.
173  1.72  0.  0.  0.
174  1.73  0.  0.  0.
175  1.74  0.  0.  0.
176  1.75  0.  0.  0.
177  1.76  0.  0.  0.
178  1.77  0.  0.  0.
179  1.78  0.  0.  0.
180  1.79  0.  0.  0.
181  1.80  0.  0.  0.
182  1.81  0.  0.  0.
183  1.82  0.  0.  0.
184  1.83  0.  0.  0.
185  1.84  0.  0.  0.
186  1.85  0.  0.  0.
187  1.86  0.  0.  0.
188  1.87  0.  0.  0.
189  1.88  0.  0.  0.
190  1.89  0.  0.  0.
191  1.90  0.  0.  0.
192  1.91  0.  0.  0.
193  1.92  0.  0.  0.
194  1.93  0.  0.  0.
195  1.94  0.  0.  0.
196  1.95  0.  0.  0.
197  1.96  0.  0.  0.
198  1.97  0.  0.  0.
199  1.98  0.  0.  0.
200  1.99  0.  0.  0.
201  2.00  0.  0.  0.
202  2.01  0.  0.  0.
203  2.02  0.  0.  0.
204  2.03  0.  0.  0.
205  2.04  0.  0.  0.
206  2.05  0.  0.  0.
207  2.06  0.  0.  0.
208  2.07  0.  0.  0.
209  2.08  0.  0.  0.
210  2.09  0.  0.  0.
211  2.10  0.  0.  0.
212  2.11  0.  0.  0.
213  2.12  0.  0.  0.
214  2.13  0.  0.  0.
215  2.14  0.  0.  0.
216  2.15  0.  0.  0.
217  2.16  0.  0.  0.
218  2.17  0.  0.  0.
219  2.18  0.  0.  0.
220  2.19  0.  0.  0.
221  2.20  0.  0.  0.
222  2.21  0.  0.  0.
223  2.22  0.  0.  0.
224  2.23  0.  0.  0.
225  2.24  0.  0.  0.
226  2.25  0.  0.  0.
227  2.26  0.  0.  0.
228  2.27  0.  0.  0.
229  2.28  0.  0.  0.
230  2.29  0.  0.  0.
231  2.30  0.  0.  0.
232  2.31  0.  0.  0.
233  2.32  0.  0.  0.
234  2.33  0.  0.  0.
235  2.34  0.  0.  0.
236  2.35  0.  0.  0.
237  2.36  0.  0.  0.
238  2.37  0.  0.  0.
239  2.38  0.  0.  0.
240  2.39  0.  0.  0.
241  2.40  0.  0.  0.
242  2.41  0.  0.  0.
243  2.42  0.  0.  0.
244  2.43  0.  0.  0.
245  2.44  0.  0.  0.
246  2.45  0.  0.  0.
247  2.46  0.  0.  0.
248  2.47  0.  0.  0.
249  2.48  0.  0.  0.
250  2.49  0.  0.  0.
251  2.50  0.  0.  0.
252  2.51  0.  0.  0.
253  2.52  0.  0.  0.
254  2.53  0.  0.  0.
255  2.54  0.  0.  0.
256  2.55  0.  0.  0.
257  2.56  0.  0.  0.
258  2.57  0.  0.  0.
259  2.58  0.  0.  0.
260  2.59  0.  0.  0.
261  2.60  0.  0.  0.
262  2.61  0.  0.  0.
263  2.62  0.  0.  0.
264  2.63  0.  0.  0.
265  2.64  0.  0.  0.
266  2.65  0.  0.  0.
267  2.66  0.  0.  0.
268  2.67  0.  0.  0.
269  2.68  0.  0.  0.
270  2.69  0.  0.  0.
271  2.70  0.  0.  0.
272  2.71  0.  0.  0.
273  2.72  0.  0.  0.
274  2.73  0.  0.  0.
275  2.74  0.  0.  0.
276  2.75  0.  0.  0.
277  2.76  0.  0.  0.
278  2.77  0.  0.  0.
279  2.78  0.  0.  0.
280  2.79  0.  0.  0.
281  2.80  0.  0.  0.
282  2.81  0.  0.  0.
283  2.82  0.  0.  0.
284  2.83  0.  0.  0.
285  2.84  0.  0.  0.
286  2.85  0.  0.  0.
287  2.86  0.  0.  0.
288  2.87  0.  0.  0.
289  2.88  0.  0.  0.
290  2.89  0.  0.  0.
291  2.90  0.  0.  0.
292  2.91  0.  0.  0.
293  2.92  0.  0.  0.
294  2.93  0.  0.  0.
295  2.94  0.  0.  0.
296  2.95  0.  0.  0.
297  2.96  0.  0.  0.
298  2.97  0.  0.  0.
299  2.98  0.  0.  0.
300  2.99  0.  0.  0.
301  3.00  0.  0.  0.
302  3.01  0.  0.  0.
303  3.02  0.  0.  0.
304  3.03  0.  0.  0.
305  3.04  0.  0.  0.
306  3.05  0.  0.  0.
307  3.06  0.  0.  0.
308  3.07  0.  0.  0.
309  3.08  0.  0.  0.
310  3.09  0.  0.  0.
311  3.10  0.  0.  0.
312  3.11  0.  0.  0.
313  3.12  0.  0.  0.
314  3.13  0.  0.  0.
315  3.14  0.  0.  0.
316  3.15  0.  0.  0.
317  3.16  0.  0.  0.
318  3.17  0.  0.  0.
319  3.18  0.  0.  0.
320  3.19  0.  0.  0.
321  3.20  0.  0.  0.
322  3.21  0.  0.  0.
323  3.22  0.  0.  0.
324  3.23  0.  0.  0.
325  3.24  0.  0.  0.
326  3.25  0.  0.  0.
327  3.26  0.  0.  0.
328  3.27  0.  0.  0.
329  3.28  0.  0.  0.
330  3.29  0.  0.  0.
331  3.30  0.  0.  0.
332  3.31  0.  0.  0.
333  3.32  0.  0.  0.
334  3.33  0.  0.  0.
335  3.34  0.  0.  0.
336  3.35  0.  0.  0.
337  3.36  0.  0.  0.
338  3.37  0.  0.  0.
339  3.38  0.  0.  0.
340  3.39  0.  0.  0.
341  3.40  0.  0.  0.
342  3.41  0.  0.  0.
343  3.42  0.  0.  0.
344  3.43  0.  0.  0.
345  3.44  0.  0.  0.
346  3.45  0.  0.  0.
347  3.46  0.  0.  0.
348  3.47  0.  0.  0.
349  3.48  0.  0.  0.
350  3.49  0.  0.  0.
351  3.50  0.  0.  0.
352  3.51  0.  0.  0.
353  3.52  0.  0.  0.
354  3.53  0.  0.  0.
355  3.54  0.  0.  0.
356  3.55  0.  0.  0.
357  3.56  0.  0.  0.
358  3.57  0.  0.  0.
359  3.58  0.  0.  0.
360  3.59  0.  0.  0.
361  3.60  0.  0.  0.
362  3.61  0.  0.  0.
363  3.62  0.  0.  0.
364  3.63  0.  0.  0.
365  3.64  0.  0.  0.
366  3.65  0.  0.  0.
367  3.66  0.  0.  0.
368  3.67  0.  0.  0.
369  3.68  0.  0.  0.
370  3.69  0.  0.  0.
371  3.70  0.  0.  0.
372  3.71  0.  0.  0.
373  3.72  0.  0.  0.
374  3.73  0.  0.  0.
375  3.74  0.  0.  0.
376  3.75  0.  0.  0.
377  3.76  0.  0.  0.
378  3.77  0.  0.  0.
379  3.78  0.  0.  0.
380  3.79  0.  0.  0.
381  3.80  0.  0.  0.
382  3.81  0.  0.  0.
383  3.82  0.  0.  0.
384  3.83  0.  0.  0.
385  3.84  0.  0.  0.
386  3.85  0.  0.  0.
387  3.86  0.  0.  0.
388  3.87  0.  0.  0.
389  3.88  0.  0.  0.
390  3.89  0.  0.  0.
391  3.90  0.  0.  0.
392  3.91  0.  0.  0.
393  3.92  0.  0.  0.
394  3.93  0.  0.  0.
395  3.94  0.  0.  0.
396  3.95  0.  0.  0.
397  3.96  0.  0.  0.
398  3.97  0.  0.  0.
399  3.98  0.  0.  0.
400  3.99  0.  0.  0.
401  4.00  0.  0.  0.
402  4.01  0.  0.  0.
403  4.02  0.  0.  0.
404  4.03  0.  0.  0.
405  4.04  0.  0.  0.
406  4.05  0.  0.  0.
407  4.06  0.  0.  0.
408  4.07  0.  0.  0.
409  4.08  0.  0.  0.
410  4.09  0.  0.  0.
411  4.10  0.  0.  0.
412  4.11  0.  0.  0.
413  4.12  0.  0.  0.
414  4.13  0.  0.  0.
415  4.14  0.  0.  0.
416  4.15  0.  0.  0.
417  4.16  0.  0.  0.
418  4.17  0.  0.  0.
419  4.18  0.  0.  0.
420  4.19  0.  0.  0.
421  4.20  0.  0.  0.
422  4.21  0.  0.  0.
423  4.22  0.  0.  0.
424  4.23  0.  0.  0.
425  4.24  0.  0.  0.
426  4.25  0.  0.  0.
427  4.26  0.  0.  0.
428  4.27  0.  0.  0.
429  4.28  0.  0.  0.
430  4.29  0.  0.  0.
431  4.30  0.  0.  0.
432  4.31  0.  0.  0.
433  4.32  0.  0.  0.
434  4.33  0.  0.  0.
435  4.34  0.  0.  0.
436  4.35  0.  0.  0.
437  4.36  0.  0.  0.
438  4.37  0.  0.  0.
439  4.38  0.  0.  0.
440  4.39  0.  0.  0.
441  4.40  0.  0.  0.
442  4.41  0.  0.  0.
443  4.42  0.  0.  0.
444  4.43  0.  0.  0.
445  4.44  0.  0.  0.
446  4.45  0.  0.  0.
447  4.46  0.  0.  0.
448  4.47  0.  0.  0.
449  4.48  0.  0.  0.
450  4.49  0.  0.  0.
451  4.50  0.  0.  0.
452  4.51  0.  0.  0.
453  4.52  0.  0.  0.
454  4.53  0.  0.  0.
455  4.54  0.  0.  0.
456  4.55  0.  0.  0.
457  4.56  0.  0.  0.
458  4.57  0.  0.  0.
459  4.58  0.  0.  0.
460  4.59  0.  0.  0.
461  4.60  0.  0.  0.
462  4.61  0.  0.  0.
463  4.62  0.  0.  0.
464  4.63  0.  0.  0.
465  4.64  0.  0.  0.
466  4.65  0.  0.  0.
467  4.66  0.  0.  0.
468  4.67  0.  0.  0.
469  4.68  0.  0.  0.
470  4.69  0.  0.  0.
471  4.70  0.  0.  0.
472  4.71  0.  0.  0.
473  4.72  0.  0.  0.
474  4.73  0.  0.  0.
475  4.74  0.  0.  0.
476  4.75  0.  0.  0.
477  4.76  0.  0.  0.
478  4.77  0.  0.  0.
479  4.78  0.  0.  0.
480  4.79  0.  0.  0.
481  4.80  0.  0.  0.
482  4.81  0.  0.  0.
483  4.82  0.  0.  0.
484  4.83  0.  0.  0.
485  4.84  0.  0.  0.
486  4.85  0.  0.  0.
487  4.86  0.  0.  0.
488  4.87  0.  0.  0.
489  4.88  0.  0.  0.
490  4.89  0.  0.  0.
491  4.90  0.  0.  0.
492  4.91  0.  0.  0.
493  4.92  0.  0.  0.
494  4.93  0.  0.  0.
495  4.94  0.  0.  0.
496  4.95  0.  0.  0.
497  4.96  0.  0.  0.
498  4.97  0.  0.  0.
499  4.98  0.  0.  0.
500  4.99  0.  0.  0.
501  5.00  0.  0.  0.
502  5.01  0.  0.  0.
503  5.02  0.  0.  0.
504  5.03  0.  0.  0.
505  5.04  0.  0.  0.
506  5.05  0.  0.  0.
507  5.06  0.  0.  0.
508  5.07  0.  0.  0.
509  5.08  0.  0.  0.
510  5.09  0.  0.  0.
511  5.10  0.  0.  0.
512  5.11  0.  0.  0.
513  5.12  0.  0.  0.
514  5.13  0.  0.  0.
515  5.14  0.  0.  0.
516  5.15  0.  0.  0.
517  5.16  0.  0.  0.
518  5.17  0.  0.  0.
519  5.18  0.  0.  0.
520  5.19  0.  0.  0.
521  5.20  0.  0.  0.
522  5.21  0.  0.  0.
523  5.22  0.  0.  0.
524  5.23  0.  0.  0.
525  5.24  0.  0.  0.
526  5.25  0.  0.  0.
527  5.26  0.  0.  0.
528  5.27  0.  0.  0.
529  5.28  0.  0.  0.
530  5.29  0.  0.  0.
531  5.30  0.  0.  0.
532  5.31  0.  0.  0.
533  5.32  0.  0.  0.
534  5.33  0.  0.  0.
535  5.34  0.  0.  0.
536  5.35  0.  0.  0.
537  5.36  0.  0.  0.
538  5.37  0.  0.  0.
539  5.38  0.  0.  0.
540  5.39  0.  0.  0.
541  5.40  0.  0.  0.
542  5.41  0.  0.  0.
543  5.42  0.  0.  0.
544  5.43  0.  0.  0.
545  5.44  0.  0.  0.
546  5.45  0.  0.  0.
547  5.46  0.  0.  0.
548  5.47  0.  0.  0.
549  5.48  0.  0.  0.
550  5.49  0.  0.  0.
551  5.50  0.  0.  0.
552  5.51  0.  0.  0.
553  5.52  0.  0.  0.
554  5.53  0.  0.  0.
555  5.54  0.  0.  0.
556  5.55  0.  0.  0.
557  5.56  0.  0.  0.
558  5.57  0.  0.  0.
559  5.58  0.  0.  0.
560  5.59  0.  0.  0.
561  5.60  0.  0.  0.
562  5.61  0.  0.  0.
563  5.62  0.  0.  0.
564  5.63  0.  0.  0.
565  5.64  0.  0.  0.
566  5.65  0.  0.  0.
567  5.66  0.  0.  0.
568  5.67  0.  0.  0.
569  5.68  0.  0.  0.
570  5.69  0.  0.  0.
571  5.70  0.  0.  0.
572  5.71  0.  0.  0.
573  5.72  0.  0.  0.
574  5.73  0.  0.  0.
575  5.74  0.  0.  0.
576  5.75  0.  0.  0.
577  5.76  0.  0.  0.
578  5.77  0.  0.  0.
579  5.78  0.  0.  0.
580  5.79  0.  0.  0.
581  5.80  0.  0.  0.
582  5.81  0.  0.  0.
583  5.82  0.  0.  0.
584  5.83  0.  0.  0.
585  5.84  0.  0.  0.
586  5.85  0.  0.  0.
587  5.86  0.  0.  0.
588  5.87  0.  0.  0.
589  5.88  0.  0.  0.
590  5.89  0.  0.  0.
591  5.90  0.  0.  0.
592  5.91  0.  0.  0.
593  5.92  0.  0.  0.
594  5.93  0.  0.  0.
595  5.94  0.  0.  0.
596  5.95  0.  0.  0.
597  5.96  0.  0.  0.
598  5.97  0.  0.  0.
599  5.98  0.  0.  0.
600  5.99  0.  0.  0.
1                        -1.2772032292988E+01 -1.5846765086920E+00 -4.0122606660435E-01
1  0.0000000000000E+00  4.7071792574904E-09 -6.5816410099728E-09 -1.1475596350952E-07
2  1.0000000000000E-02  3.0835298150824E-03 -4.8658412104089E-03  2.5985354478896E-03
3  2.0000000000000E-02  1.2310586733843E-02 -1.9400153227084E-02  1.0380582369146E-02
4  3.0000000000000E-02  2.7610794135057E-02 -4.3413942880065E-02  2.3304104389780E-02
5  4.0000000000000E-02  4.8867591454297E-02 -7.6594359628501E-02  4.1294604708916E-02
6  5.0000000000000E-02  7.5919325406938E-02 -1.1850789941571E-01  6.4238785364904E-02
7  6.0000000000000E-02  1.0856075890405E-01 -1.6860488237750E-01  9.1976281534261E-02
8  7.0000000000000E-02  1.4654497925821E-01 -2.2622519405218E-01  1.2429004618485E-01
9  8.0000000000000E-02  1.8958568256918E-01 -2.9060527315917E-01  1.6089607516070E-01
10  9.0000000000000E-02  2.3735980686561E-01 -3.6088632001860E-01  2.0143324340450E-01
11  1.0000000000000E-01  2.8951048272636E-01 -4.3612368806182E-01  2.4545406520600E-01
12  1.1000000000000E-01  3.4565026676790E-01 -5.1529740658644E-01  2.9241719251592E-01
13  1.2000000000000E-01  4.0536462060711E-01 -5.9732376606907E-01  3.4168242475715E-01
14  1.3000000000000E-01  4.6821559572010E-01 -6.8106787827791E-01  3.9250892236942E-01
15  1.4000000000000E-01  5.3374568303573E-01 -7.6535710260675E-01  4.4405719757348E-01
16  1.5000000000000E-01  6.0148178512862E-01 -8.4899520812250E-01  4.9539530430444E-01
17  1.6000000000000E-01  6.7093926850288E-01 -9.3077711854991E-01  5.4550947125134E-01
18  1.7000000000000E-01  7.4162605366157E-01 -1.0095040656827E+00  5.9331922503680E-01
19  1.8000000000000E-01  8.1304670140722E-01 -1.0839989564444E+00  6.3769684331074E-01
20  1.9000000000000E-01  8.8470645507271E-01 -1.1531217409864E+00  6.7749076903957E-01
21  2.0000000000000E-01  9.5611520009259E-01 -1.2157845547396E+00  7.1155241686125E-01
22  2.1000000000000E-01  1.0267913044361E+00 -1.2709663971143E+00  7.3876561915351E-01
23  2.2000000000000E-01  1.0962653058787E+00 -1.3177271043288E+00  7.5807780192459E-01
24  2.3000000000000E-01  1.1640834148258E+00 -1.3552203742774E+00  7.6853185630032E-01
25  2.4000000000000E-01  1.2298108043675E+00 -1.3827056078663E+00  7.6929758645259E-01
26  2.5000000000000E-01  1.2930346623660E+00 -1.3995583440914E+00  7.5970157389761E-01
27  2.6000000000000E-01  1.3533669836213E+00 -1.4052790853279E+00  7.3925430399029E-01
28  2.7000000000000E-01  1.4104470834550E+00 -1.3995003346345E+00  7.0767345400299E-01
29  2.8000000000000E-01  1.4639438173700E+00 -1.3819916978837E+00  6.6490234225363E-01
30  2.9000000000000E-01  1.5135574947320E+00 -1.3526629395514E+00  6.1112268120624E-01
31  3.0000000000000E-01  1.5590214776581E+00 -1.3115649211413E+00  5.4676095931320E-01
32  3.1000000000000E-01  1.6001034594476E+00 -1.2588883944180E+00  4.7248798992493E-01
33  3.2000000000000E-01  1.6366064199451E+00 -1.1949606666811E+00  3.8921140277370E-01
34  3.3000000000000E-01  1.6683692581602E+00 -1.1202402008959E+00  2.9806110515364E-01
35  3.4000000000000E-01  1.6952671052791E+00 -1.0353092582692E+00  2.0036799606826E-01
36  3.5000000000000E-01  1.7172113238824E+00 -9.4086473341643E-01  9.7636467064484E-02
37  3.6000000000000E-01  1.7341492017265E+00 -8.3770737129982E-01 -8.4885419044875E-03
38  3.7000000000000E-01  1.7460633508548E+00 -7.2672958938989E-01 -1.1625895406521E-01
39  3.8000000000000E-01  1.7529708250784E+00 -6.0890215691160E-01 -2.2386428229168E-01
40  3.9000000000000E-01  1.7549219709969E+00 -4.8526000469041E-01 -3.2947438439432E-01
41  4.0000000000000E-01  1.7519990297276E+00 -3.5688745331332E-01 -4.3128287504574E-01
42  4.1000000000000E-01  1.7443145083564E+00 -2.2490315363397E-01 -5.2754978737075E-01
43  4.2000000000000E-01  1.7320093418223E+00 -9.0445031904834E-02 -6.1664209571651E-01
44  4.3000000000000E-01  1.7152508674809E+00  4.5344477880719E-02 -6.9707078270064E-01
45  4.4000000000000E-01  1.6942306359467E+00  1.8133264913168E-01 -7.6752325598447E-01
46  4.5000000000000E-01  1.6691620829823E+00  3.1640988419783E-01 -8.2689008895642E-01
47  4.6000000000000E-01  1.6402780881525E+00  4.4950213148661E-01 -8.7428526834589E-01
48  4.7000000000000E-01  1.6078284466883E+00  5.7958212258780E-01 -9.0905937277258E-01
49  4.8000000000000E-01  1.5720772814722E+00  7.0567929279859E-01 -9.3080537005418E-01
50  4.9000000000000E-01  1.5333004222590E+00  8.2688828974741E-01 -9.3935699743968E-01
51  5.0000000000000E-01  1.4917827791526E+00  9.4237601701613E-01 -9.3477996691050E-01
52  5.1000000000000E-01  1.4478157369604E+00  1.0513872012941E+00 -9.1735650623337E-01
53  5.2000000000000E-01  1.4016945963317E+00  1.1532485112404E+00 -8.8756399479909E-01
54  5.3000000000000E-01  1.3537160865438E+00  1.2473712925492E+00 -8.4604867137678E-01
55  5.4000000000000E-01  1.3041759734292E+00  1.3332530155185E+00 -7.9359556985226E-01
56  5.5000000000000E-01  1.2533667842582E+00  1.4104775577143E+00 -7.3109597136891E-01
57  5.6000000000000E-01  1.2015756693948E+00  1.4787144643146E+00 -6.5951374145547E-01
58  5.7000000000000E-01  1.1490824182782E+00  1.5377173419034E+00 -5.7985194514988E-01
59  5.8000000000000E-01  1.0961576447615E+00  1.5873215475967E+00 -4.9312110048126E-01
60  5.9000000000000E-01  1.0430611541099E+00  1.6274413344665E+00 -4.0031034191339E-01
61  6.0000000000000E-01  9.9004050106497E-01  1.6580666065994E+00 -3.0236262372577E-01
62  6.1000000000000E-01  9.3732974538016E-01  1.6792594233542E+00 -2.0015490422796E-01
63  6.2000000000000E-01  8.8514840817268E-01  1.6911503733081E+00 -9.4484022574933E-02
64  6.3000000000000E-01  8.3370062939075E-01  1.6939349150311E+00  1.3941280116766E-02
65  6.4000000000000E-01  7.8317452372013E-01  1.6878697554097E+00  1.2450202417823E-01
66  6.5000000000000E-01  7.3374172941703E-01  1.6732693080844E+00  2.3666445769020E-01
67  6.6000000000000E-01  6.8555714191823E-01  1.6505022460514E+00  3.4996973065032E-01
68  6.7000000000000E-01  6.3875882170101E-01  1.6199881350222E+00  4.6401845362870E-01
69  6.8000000000000E-01  5.9346806379939E-01  1.5821941090766E+00  5.7845106267471E-01
70  6.9000000000000E-01  5.4978961467372E-01  1.5376315287353E+00  6.9292512020159E-01
71  7.0000000000000E-01  5.0781202081429E-01  1.4868525449136E+00  8.0709084304031E-01
72  7.1000000000000E-01  4.6760809256102E-01  1.4304464811738E+00  9.2056625626275E-01
73  7.2000000000000E-01  4.2923546615483E-01  1.3690359419231E+00  1.0329134192158E+00
74  7.3000000000000E-01  3.9273724700203E-01  1.3032725560667E+00  1.1436171553268E+00
75  7.4000000000000E-01  3.5814271752007E-01  1.2338322741981E+00  1.2520676389598E+00
76  7.5000000000000E-01  3.2546809371642E-01  1.1614101524751E+00  1.3575480528428E+00
77  7.6000000000000E-01  2.9471731579521E-01  1.0867145773476E+00  1.4592283327726E+00
78  7.7000000000000E-01  2.6588285954214E-01  1.0104609114924E+00  1.5561657693174E+00
79  7.8000000000000E-01  2.3894655694779E-01  9.3336457159234E-01  1.6473129481241E+00
80  7.9000000000000E-01  2.1388041642949E-01  8.5613358171758E-01  1.7315331921282E+00
81  8.0000000000000E-01  1.9064743502917E-01  7.7946068057766E-01  1.8076233328347E+00
82  8.1000000000000E-01  1.6920239702608E-01  7.0401509527308E-01  1.8743432973430E+00
83  8.2000000000000E-01  1.4949265543204E-01  6.3043412677985E-01  1.9304516668126E+00
84  8.3000000000000E-01  1.3145889475940E-01  5.5931472167352E-01  1.9747460545047E+00
85  8.4000000000000E-01  1.1503587519822E-01  4.9120522903487E-01  2.0061068806739E+00
86  8.5000000000000E-01  1.0015315984626E-01  4.2659755972214E-01  2.0235428995843E+00
87  8.6000000000000E-01  8.6735827848451E-02  3.6591997609178E-01  2.0262366713211E+00
88  8.7000000000000E-01  7.4705177179844E-02  3.0953074290654E-01  2.0135880762890E+00
89  8.8000000000000E-01  6.3979421315391E-02  2.5771286399205E-01  1.9852539493229E+00
90  8.9000000000000E-01  5.4474384156713E-02  2.1067011393324E-01  1.9411819663830E+00
91  9.0000000000000E-01  4.6104197327161E-02  1.6852454983580E-01  1.8816370501410E+00
92  9.1000000000000E-01  3.8782003315889E-02  1.3131565537619E-01  1.8072187686248E+00
93  9.2000000000000E-01  3.2420666976722E-02  9.9001228840584E-02  1.7188684777164E+00
94  9.3000000000000E-01  2.6933496609980E-02  7.1460079758286E-02  1.6178652951381E+00
95  9.4000000000000E-01  2.2234974328860E-02  4.8496546521922E-02  1.5058103794207E+00
96  9.5000000000000E-01  1.8241493700737E-02  2.9846791751260E-02  1.3845994089575E+00
97  9.6000000000000E-01  1.4872100830100E-02  1.5186774994435E-02  1.2563835985644E+00
98  9.7000000000000E-01  1.2049233192082E-02  4.1417456983260E-03  1.1235200377242E+00
99  9.8000000000000E-01  9.6994487137502E-03 -3.7029547267353E-03  9.8851256925303E-01
100  9.9000000000000E-01  7.7541359155248E-03 -8.7900424002761E-03  8.5394483255989E-01
101  1.0000000000000E+00  6.1501944422943E-03 -1.1577695640703E-02  7.2240745645484E-01
102  1.0100000000000E+00  4.8306741051312E-03 -1.2526553065111E-02  5.9642168748135E-01