Mt    ONCVPSP-4.0.1  r_core=   1.10144   1.10144   1.10144   1.20485
109.0000     49.0000      231012    zatom,zion,pspd
8 -116133   3     4   600     0    pspcod,pspxc,lmax,lloc,mmax,r2well
5.99000000  3.00000000  0.00000000    rchrg fchrg qchrg
3     2     2     2     0    nproj
1     1           extension_switch
0                        -1.4338893668532E+01  9.9477382049768E+00 -3.8509516648803E-01
1  0.0000000000000E+00 -9.0568641475386E-10  3.8304437177672E-08 -8.2665800746340E-08
2  1.0000000000000E-02  7.6674474345984E-02  1.7912885951258E-01 -1.4568998121376E-02
3  2.0000000000000E-02  1.5317472605334E-01  3.5655740623662E-01 -2.9055063875892E-02
4  3.0000000000000E-02  2.2932703204296E-01  5.3060059706082E-01 -4.3375518529367E-02
5  4.0000000000000E-02  3.0495866373274E-01  6.9960394206037E-01 -5.7448438510721E-02
6  5.0000000000000E-02  3.7989837299392E-01  8.6195880426458E-01 -7.1193627951916E-02
7  6.0000000000000E-02  4.5397686527757E-01  1.0161176960546E+00 -8.4534237485852E-02
8  7.0000000000000E-02  5.2702725679161E-01  1.1606095213303E+00 -9.7399136923350E-02
9  8.0000000000000E-02  5.9888551351453E-01  1.2940546742818E+00 -1.0972606676460E-01
10  9.0000000000000E-02  6.6939087086179E-01  1.4151798628457E+00 -1.2146550164603E-01
11  1.0000000000000E-01  7.3838623391435E-01  1.5228324807186E+00 -1.3258506440925E-01
12  1.1000000000000E-01  8.0571855921175E-01  1.6159943093362E+00 -1.4307423950420E-01
13  1.2000000000000E-01  8.7123922013730E-01  1.6937942937292E+00 -1.5294905585258E-01
14  1.3000000000000E-01  9.3480435881772E-01  1.7555201067068E+00 -1.6225634855935E-01
15  1.4000000000000E-01  9.9627522816484E-01  1.8006281971148E+00 -1.7107717152800E-01
16  1.5000000000000E-01  1.0555185281538E+00  1.8287520122094E+00 -1.7952892340978E-01
17  1.6000000000000E-01  1.1124067406237E+00  1.8397080930607E+00 -1.8776577011341E-01
18  1.7000000000000E-01  1.1668184667765E+00  1.8334997662177E+00 -1.9597699927030E-01
19  1.8000000000000E-01  1.2186387711339E+00  1.8103181946614E+00 -2.0438302460878E-01
20  1.9000000000000E-01  1.2677595349927E+00  1.7705406055525E+00 -2.1322886825496E-01
21  2.0000000000000E-01  1.3140798214220E+00  1.7147255798351E+00 -2.2277508181470E-01
22  2.1000000000000E-01  1.3575062526126E+00  1.6436053670019E+00 -2.3328621634933E-01
23  2.2000000000000E-01  1.3979533989652E+00  1.5580752742312E+00 -2.4501710934296E-01
24  2.3000000000000E-01  1.4353441777608E+00  1.4591802691149E+00 -2.5819741483029E-01
25  2.4000000000000E-01  1.4696102576579E+00  1.3480990253764E+00 -2.7301495184853E-01
26  2.5000000000000E-01  1.5006924636946E+00  1.2261257272638E+00 -2.8959857713682E-01
27  2.6000000000000E-01  1.5285411760011E+00  1.0946500266253E+00 -3.0800139182447E-01
28  2.7000000000000E-01  1.5531167141475E+00  9.5513561321436E-01 -3.2818516104133E-01
29  2.8000000000000E-01  1.5743896980097E+00  8.0909791014045E-01 -3.5000685367290E-01
30  2.9000000000000E-01  1.5923413753129E+00  6.5808143979827E-01 -3.7320819247512E-01
31  3.0000000000000E-01  1.6069639056410E+00  5.0363741903731E-01 -3.9740904019693E-01
32  3.1000000000000E-01  1.6182605907245E+00  3.4730213464332E-01 -4.2210533538623E-01
33  3.2000000000000E-01  1.6262460412468E+00  1.9057662118808E-01 -4.4667213478306E-01
34  3.3000000000000E-01  1.6309462712435E+00  3.4908113760215E-02 -4.7037212271602E-01
35  3.4000000000000E-01  1.6323987123868E+00 -1.1832632022151E-01 -4.9236971910307E-01
36  3.5000000000000E-01  1.6306521420115E+00 -2.6783365032607E-01 -5.1175066592402E-01
37  3.6000000000000E-01  1.6257665205969E+00 -4.1241603082478E-01 -5.2754670845390E-01
38  3.7000000000000E-01  1.6178127365007E+00 -5.5097910964355E-01 -5.3876472434385E-01
39  3.8000000000000E-01  1.6068722579687E+00 -6.8253749091142E-01 -5.4441940363985E-01
40  3.9000000000000E-01  1.5930366947329E+00 -8.0621745208136E-01 -5.4356835886915E-01
41  4.0000000000000E-01  1.5764072737649E+00 -9.2125711944130E-01 -5.3534835857866E-01
42  4.1000000000000E-01  1.5570942358892E+00 -1.0270043982138E+00 -5.1901124112010E-01
43  4.2000000000000E-01  1.5352161618894E+00 -1.1229130310987E+00 -4.9395798712685E-01
44  4.3000000000000E-01  1.5108992383832E+00 -1.2085372184000E+00 -4.5976941575834E-01
45  4.4000000000000E-01  1.4842764750350E+00 -1.2835252709707E+00 -4.1623202536775E-01
46  4.5000000000000E-01  1.4554868855680E+00 -1.3476127822164E+00 -3.6335762467245E-01
47  4.6000000000000E-01  1.4246746454870E+00 -1.4006157965147E+00 -3.0139559343758E-01
48  4.7000000000000E-01  1.3919882394283E+00 -1.4424244189157E+00 -2.3083686653172E-01
49  4.8000000000000E-01  1.3575796106019E+00 -1.4729972563094E+00 -1.5240904328644E-01
50  4.9000000000000E-01  1.3216033239198E+00 -1.4923570058604E+00 -6.7062373851714E-02
51  5.0000000000000E-01  1.2842157531472E+00 -1.5005874158829E+00  2.4053248222851E-02
52  5.1000000000000E-01  1.2455743008300E+00 -1.4978317417365E+00  1.1961976840803E-01
53  5.2000000000000E-01  1.2058366579175E+00 -1.4842927097031E+00  2.1819002523494E-01
54  5.3000000000000E-01  1.1651601079977E+00 -1.4602338904896E+00  3.1823311030154E-01
55  5.4000000000000E-01  1.1237008789790E+00 -1.4259822765275E+00  4.1818444571972E-01
56  5.5000000000000E-01  1.0816135429881E+00 -1.3819317590388E+00  5.1649872295824E-01
57  5.6000000000000E-01  1.0390504632988E+00 -1.3285471170261E+00  6.1170364894709E-01
58  5.7000000000000E-01  9.9616128534939E-01 -1.2663680654439E+00  7.0245232813900E-01
59  5.8000000000000E-01  9.5309246742042E-01 -1.1960128675417E+00  7.8757208129455E-01
60  5.9000000000000E-01  9.0998684541003E-01 -1.1181809994661E+00  8.6610756771108E-01
61  6.0000000000000E-01  8.6698322539130E-01 -1.0336543652427E+00  9.3735623811239E-01
62  6.1000000000000E-01  8.2421599731379E-01 -9.4329659758854E-01  1.0008943969511E+00
63  6.2000000000000E-01  7.8181476332257E-01 -8.4805004367064E-01  1.0565924878197E+00
64  6.3000000000000E-01  7.3990397470647E-01 -7.4893012272865E-01  1.1046186224407E+00
65  6.4000000000000E-01  6.9860257242614E-01 -6.4701685101037E-01  1.1454298372074E+00
66  6.5000000000000E-01  6.5802362746239E-01 -5.4344345424833E-01  1.1797510633507E+00
67  6.6000000000000E-01  6.1827397880353E-01 -4.3938212359104E-01  1.2085423171357E+00
68  6.7000000000000E-01  5.7945386867820E-01 -3.3602711146343E-01  1.2329551331523E+00
69  6.8000000000000E-01  5.4165657654827E-01 -2.3457550286158E-01  1.2542797543510E+00
70  6.9000000000000E-01  5.0496805531069E-01 -1.3620612855448E-01  1.2738850349781E+00
71  7.0000000000000E-01  4.6946657501778E-01 -4.2057203210505E-02  1.2931533863305E+00
72  7.1000000000000E-01  4.3522238111874E-01  4.6796632277756E-02  1.3134133819986E+00
73  7.2000000000000E-01  4.0229737566028E-01  1.2936711417371E-01  1.3358728238505E+00
74  7.3000000000000E-01  3.7074483098361E-01  2.0477421361066E-01  1.3615551412627E+00
75  7.4000000000000E-01  3.4060914615357E-01  2.7226624846468E-01  1.3912419473797E+00
76  7.5000000000000E-01  3.1192565660662E-01  3.3123747441300E-01  1.4254244058114E+00
77  7.6000000000000E-01  2.8472050728079E-01  3.8124243948002E-01  1.4642657726461E+00
78  7.7000000000000E-01  2.5901059878539E-01  4.2200647826038E-01  1.5075770806571E+00
79  7.8000000000000E-01  2.3480361499745E-01  4.5343184356767E-01  1.5548074387460E+00
80  7.9000000000000E-01  2.1209813887169E-01  4.7559912013397E-01  1.6050498481545E+00
81  8.0000000000000E-01  1.9088386127803E-01  4.8876373161728E-01  1.6570628097491E+00
82  8.1000000000000E-01  1.7114188540775E-01  4.9334753193734E-01  1.7093073388210E+00
83  8.2000000000000E-01  1.5284512680656E-01  4.8992565751088E-01  1.7599983423735E+00
84  8.3000000000000E-01  1.3595880649644E-01  4.7920900048710E-01  1.8071686767957E+00
85  8.4000000000000E-01  1.2044103204451E-01  4.6202283667325E-01  1.8487436189056E+00
86  8.5000000000000E-01  1.0624345893215E-01  4.3928229780091E-01  1.8826229769181E+00
87  8.6000000000000E-01  9.3312022274805E-02  4.1196550899973E-01  1.9067676637125E+00
88  8.7000000000000E-01  8.1587726937615E-02  3.8108531260330E-01  1.9192872729013E+00
89  8.8000000000000E-01  7.1007482468373E-02  3.4766056368232E-01  1.9185250541387E+00
90  8.9000000000000E-01  6.1504968094667E-02  3.1268800739695E-01  1.9031366879051E+00
91  9.0000000000000E-01  5.3011512355407E-02  2.7711573141538E-01  1.8721594158293E+00
92  9.1000000000000E-01  4.5456971786053E-02  2.4181912803816E-01  1.8250683883010E+00
93  9.2000000000000E-01  3.8770593456655E-02  2.0758020186606E-01  1.7618175382309E+00
94  9.3000000000000E-01  3.2881847054707E-02  1.7507092316915E-01  1.6828628637599E+00
95  9.4000000000000E-01  2.7721213570897E-02  1.4484115954710E-01  1.5891666831920E+00
96  9.5000000000000E-01  2.3220919424756E-02  1.1731152542730E-01  1.4821821873427E+00
97  9.6000000000000E-01  1.9315606981566E-02  9.2771278064691E-02  1.3638184287369E+00
98  9.7000000000000E-01  1.5942934768766E-02  7.1381168563463E-02  1.2363867215541E+00
99  9.8000000000000E-01  1.3044103198452E-02  5.3180936049512E-02  1.1025302476593E+00
100  9.9000000000000E-01  1.0564304133154E-02  3.8100921860881E-02  9.6513943831637E-01
101  1.0000000000000E+00  8.4530950898350E-03  2.5977087252555E-02  8.2725639671004E-01
102  1.0100000000000E+00  6.6647011555017E-03  1.6568551269247E-02  6.9197221241648E-01
103  1.0200000000000E+00  5.1582496941343E-03  9.5766323179153E-03  5.6232147024702E-01
104  1.0300000000000E+00  3.8979463493828E-03  4.6642768191297E-03  4.4117855982499E-01
105  1.0400000000000E+00  2.8531859945891E-03  1.4748106440383E-03  3.3116038391825E-01
106  1.0500000000000E+00  1.9975066653950E-03 -3.4722703151314E-04  2.3453550354823E-01
107  1.0600000000000E+00  1.3012037414283E-03 -1.1037318769325E-03  1.5310394827726E-01
108  1.0700000000000E+00  7.5439912600840E-04 -1.1250766809494E-03  8.8255982039140E-02
109  1.0800000000000E+00  3.5458828744453E-04 -7.4383329963157E-04  4.0927898212300E-02
110  1.0900000000000E+00  1.0209408587315E-04 -2.7195928512292E-04  1.1540527354016E-02
111  1.1000000000000E+00  3.0714523172510E-06 -9.8939317840180E-06  3.3605082803024E-04
112  1.1100000000000E+00  4.5001310083358E-07 -1.4318016222996E-06  4.9722554468677E-05
113  1.1200000000000E+00 -5.1243906867446E-08  1.5100766094426E-07 -5.7279112019729E-06
114  1.13  0.  0.  0.
115  1.14  0.  0.  0.
116  1.15  0.  0.  0.
117  1.16  0.  0.  0.
118  1.17  0.  0.  0.
119  1.18  0.  0.  0.
120  1.19  0.  0.  0.
121  1.20  0.  0.  0.
122  1.21  0.  0.  0.
123  1.22  0.  0.  0.
124  1.23  0.  0.  0.
125  1.24  0.  0.  0.
126  1.25  0.  0.  0.
127  1.26  0.  0.  0.
128  1.27  0.  0.  0.
129  1.28  0.  0.  0.
130  1.29  0.  0.  0.
131  1.30  0.  0.  0.
132  1.31  0.  0.  0.
133  1.32  0.  0.  0.
134  1.33  0.  0.  0.
135  1.34  0.  0.  0.
136  1.35  0.  0.  0.
137  1.36  0.  0.  0.
138  1.37  0.  0.  0.
139  1.38  0.  0.  0.
140  1.39  0.  0.  0.
141  1.40  0.  0.  0.
142  1.41  0.  0.  0.
143  1.42  0.  0.  0.
144  1.43  0.  0.  0.
145  1.44  0.  0.  0.
146  1.45  0.  0.  0.
147  1.46  0.  0.  0.
148  1.47  0.  0.  0.
149  1.48  0.  0.  0.
150  1.49  0.  0.  0.
151  1.50  0.  0.  0.
152  1.51  0.  0.  0.
153  1.52  0.  0.  0.
154  1.53  0.  0.  0.
155  1.54  0.  0.  0.
156  1.55  0.  0.  0.
157  1.56  0.  0.  0.
158  1.57  0.  0.  0.
159  1.58  0.  0.  0.
160  1.59  0.  0.  0.
161  1.60  0.  0.  0.
162  1.61  0.  0.  0.
163  1.62  0.  0.  0.
164  1.63  0.  0.  0.
165  1.64  0.  0.  0.
166  1.65  0.  0.  0.
167  1.66  0.  0.  0.
168  1.67  0.  0.  0.
169  1.68  0.  0.  0.
170  1.69  0.  0.  0.
171  1.70  0.  0.  0.
172  1.71  0.  0.  0.
173  1.72  0.  0.  0.
174  1.73  0.  0.  0.
175  1.74  0.  0.  0.
176  1.75  0.  0.  0.
177  1.76  0.  0.  0.
178  1.77  0.  0.  0.
179  1.78  0.  0.  0.
180  1.79  0.  0.  0.
181  1.80  0.  0.  0.
182  1.81  0.  0.  0.
183  1.82  0.  0.  0.
184  1.83  0.  0.  0.
185  1.84  0.  0.  0.
186  1.85  0.  0.  0.
187  1.86  0.  0.  0.
188  1.87  0.  0.  0.
189  1.88  0.  0.  0.
190  1.89  0.  0.  0.
191  1.90  0.  0.  0.
192  1.91  0.  0.  0.
193  1.92  0.  0.  0.
194  1.93  0.  0.  0.
195  1.94  0.  0.  0.
196  1.95  0.  0.  0.
197  1.96  0.  0.  0.
198  1.97  0.  0.  0.
199  1.98  0.  0.  0.
200  1.99  0.  0.  0.
201  2.00  0.  0.  0.
202  2.01  0.  0.  0.
203  2.02  0.  0.  0.
204  2.03  0.  0.  0.
205  2.04  0.  0.  0.
206  2.05  0.  0.  0.
207  2.06  0.  0.  0.
208  2.07  0.  0.  0.
209  2.08  0.  0.  0.
210  2.09  0.  0.  0.
211  2.10  0.  0.  0.
212  2.11  0.  0.  0.
213  2.12  0.  0.  0.
214  2.13  0.  0.  0.
215  2.14  0.  0.  0.
216  2.15  0.  0.  0.
217  2.16  0.  0.  0.
218  2.17  0.  0.  0.
219  2.18  0.  0.  0.
220  2.19  0.  0.  0.
221  2.20  0.  0.  0.
222  2.21  0.  0.  0.
223  2.22  0.  0.  0.
224  2.23  0.  0.  0.
225  2.24  0.  0.  0.
226  2.25  0.  0.  0.
227  2.26  0.  0.  0.
228  2.27  0.  0.  0.
229  2.28  0.  0.  0.
230  2.29  0.  0.  0.
231  2.30  0.  0.  0.
232  2.31  0.  0.  0.
233  2.32  0.  0.  0.
234  2.33  0.  0.  0.
235  2.34  0.  0.  0.
236  2.35  0.  0.  0.
237  2.36  0.  0.  0.
238  2.37  0.  0.  0.
239  2.38  0.  0.  0.
240  2.39  0.  0.  0.
241  2.40  0.  0.  0.
242  2.41  0.  0.  0.
243  2.42  0.  0.  0.
244  2.43  0.  0.  0.
245  2.44  0.  0.  0.
246  2.45  0.  0.  0.
247  2.46  0.  0.  0.
248  2.47  0.  0.  0.
249  2.48  0.  0.  0.
250  2.49  0.  0.  0.
251  2.50  0.  0.  0.
252  2.51  0.  0.  0.
253  2.52  0.  0.  0.
254  2.53  0.  0.  0.
255  2.54  0.  0.  0.
256  2.55  0.  0.  0.
257  2.56  0.  0.  0.
258  2.57  0.  0.  0.
259  2.58  0.  0.  0.
260  2.59  0.  0.  0.
261  2.60  0.  0.  0.
262  2.61  0.  0.  0.
263  2.62  0.  0.  0.
264  2.63  0.  0.  0.
265  2.64  0.  0.  0.
266  2.65  0.  0.  0.
267  2.66  0.  0.  0.
268  2.67  0.  0.  0.
269  2.68  0.  0.  0.
270  2.69  0.  0.  0.
271  2.70  0.  0.  0.
272  2.71  0.  0.  0.
273  2.72  0.  0.  0.
274  2.73  0.  0.  0.
275  2.74  0.  0.  0.
276  2.75  0.  0.  0.
277  2.76  0.  0.  0.
278  2.77  0.  0.  0.
279  2.78  0.  0.  0.
280  2.79  0.  0.  0.
281  2.80  0.  0.  0.
282  2.81  0.  0.  0.
283  2.82  0.  0.  0.
284  2.83  0.  0.  0.
285  2.84  0.  0.  0.
286  2.85  0.  0.  0.
287  2.86  0.  0.  0.
288  2.87  0.  0.  0.
289  2.88  0.  0.  0.
290  2.89  0.  0.  0.
291  2.90  0.  0.  0.
292  2.91  0.  0.  0.
293  2.92  0.  0.  0.
294  2.93  0.  0.  0.
295  2.94  0.  0.  0.
296  2.95  0.  0.  0.
297  2.96  0.  0.  0.
298  2.97  0.  0.  0.
299  2.98  0.  0.  0.
300  2.99  0.  0.  0.
301  3.00  0.  0.  0.
302  3.01  0.  0.  0.
303  3.02  0.  0.  0.
304  3.03  0.  0.  0.
305  3.04  0.  0.  0.
306  3.05  0.  0.  0.
307  3.06  0.  0.  0.
308  3.07  0.  0.  0.
309  3.08  0.  0.  0.
310  3.09  0.  0.  0.
311  3.10  0.  0.  0.
312  3.11  0.  0.  0.
313  3.12  0.  0.  0.
314  3.13  0.  0.  0.
315  3.14  0.  0.  0.
316  3.15  0.  0.  0.
317  3.16  0.  0.  0.
318  3.17  0.  0.  0.
319  3.18  0.  0.  0.
320  3.19  0.  0.  0.
321  3.20  0.  0.  0.
322  3.21  0.  0.  0.
323  3.22  0.  0.  0.
324  3.23  0.  0.  0.
325  3.24  0.  0.  0.
326  3.25  0.  0.  0.
327  3.26  0.  0.  0.
328  3.27  0.  0.  0.
329  3.28  0.  0.  0.
330  3.29  0.  0.  0.
331  3.30  0.  0.  0.
332  3.31  0.  0.  0.
333  3.32  0.  0.  0.
334  3.33  0.  0.  0.
335  3.34  0.  0.  0.
336  3.35  0.  0.  0.
337  3.36  0.  0.  0.
338  3.37  0.  0.  0.
339  3.38  0.  0.  0.
340  3.39  0.  0.  0.
341  3.40  0.  0.  0.
342  3.41  0.  0.  0.
343  3.42  0.  0.  0.
344  3.43  0.  0.  0.
345  3.44  0.  0.  0.
346  3.45  0.  0.  0.
347  3.46  0.  0.  0.
348  3.47  0.  0.  0.
349  3.48  0.  0.  0.
350  3.49  0.  0.  0.
351  3.50  0.  0.  0.
352  3.51  0.  0.  0.
353  3.52  0.  0.  0.
354  3.53  0.  0.  0.
355  3.54  0.  0.  0.
356  3.55  0.  0.  0.
357  3.56  0.  0.  0.
358  3.57  0.  0.  0.
359  3.58  0.  0.  0.
360  3.59  0.  0.  0.
361  3.60  0.  0.  0.
362  3.61  0.  0.  0.
363  3.62  0.  0.  0.
364  3.63  0.  0.  0.
365  3.64  0.  0.  0.
366  3.65  0.  0.  0.
367  3.66  0.  0.  0.
368  3.67  0.  0.  0.
369  3.68  0.  0.  0.
370  3.69  0.  0.  0.
371  3.70  0.  0.  0.
372  3.71  0.  0.  0.
373  3.72  0.  0.  0.
374  3.73  0.  0.  0.
375  3.74  0.  0.  0.
376  3.75  0.  0.  0.
377  3.76  0.  0.  0.
378  3.77  0.  0.  0.
379  3.78  0.  0.  0.
380  3.79  0.  0.  0.
381  3.80  0.  0.  0.
382  3.81  0.  0.  0.
383  3.82  0.  0.  0.
384  3.83  0.  0.  0.
385  3.84  0.  0.  0.
386  3.85  0.  0.  0.
387  3.86  0.  0.  0.
388  3.87  0.  0.  0.
389  3.88  0.  0.  0.
390  3.89  0.  0.  0.
391  3.90  0.  0.  0.
392  3.91  0.  0.  0.
393  3.92  0.  0.  0.
394  3.93  0.  0.  0.
395  3.94  0.  0.  0.
396  3.95  0.  0.  0.
397  3.96  0.  0.  0.
398  3.97  0.  0.  0.
399  3.98  0.  0.  0.
400  3.99  0.  0.  0.
401  4.00  0.  0.  0.
402  4.01  0.  0.  0.
403  4.02  0.  0.  0.
404  4.03  0.  0.  0.
405  4.04  0.  0.  0.
406  4.05  0.  0.  0.
407  4.06  0.  0.  0.
408  4.07  0.  0.  0.
409  4.08  0.  0.  0.
410  4.09  0.  0.  0.
411  4.10  0.  0.  0.
412  4.11  0.  0.  0.
413  4.12  0.  0.  0.
414  4.13  0.  0.  0.
415  4.14  0.  0.  0.
416  4.15  0.  0.  0.
417  4.16  0.  0.  0.
418  4.17  0.  0.  0.
419  4.18  0.  0.  0.
420  4.19  0.  0.  0.
421  4.20  0.  0.  0.
422  4.21  0.  0.  0.
423  4.22  0.  0.  0.
424  4.23  0.  0.  0.
425  4.24  0.  0.  0.
426  4.25  0.  0.  0.
427  4.26  0.  0.  0.
428  4.27  0.  0.  0.
429  4.28  0.  0.  0.
430  4.29  0.  0.  0.
431  4.30  0.  0.  0.
432  4.31  0.  0.  0.
433  4.32  0.  0.  0.
434  4.33  0.  0.  0.
435  4.34  0.  0.  0.
436  4.35  0.  0.  0.
437  4.36  0.  0.  0.
438  4.37  0.  0.  0.
439  4.38  0.  0.  0.
440  4.39  0.  0.  0.
441  4.40  0.  0.  0.
442  4.41  0.  0.  0.
443  4.42  0.  0.  0.
444  4.43  0.  0.  0.
445  4.44  0.  0.  0.
446  4.45  0.  0.  0.
447  4.46  0.  0.  0.
448  4.47  0.  0.  0.
449  4.48  0.  0.  0.
450  4.49  0.  0.  0.
451  4.50  0.  0.  0.
452  4.51  0.  0.  0.
453  4.52  0.  0.  0.
454  4.53  0.  0.  0.
455  4.54  0.  0.  0.
456  4.55  0.  0.  0.
457  4.56  0.  0.  0.
458  4.57  0.  0.  0.
459  4.58  0.  0.  0.
460  4.59  0.  0.  0.
461  4.60  0.  0.  0.
462  4.61  0.  0.  0.
463  4.62  0.  0.  0.
464  4.63  0.  0.  0.
465  4.64  0.  0.  0.
466  4.65  0.  0.  0.
467  4.66  0.  0.  0.
468  4.67  0.  0.  0.
469  4.68  0.  0.  0.
470  4.69  0.  0.  0.
471  4.70  0.  0.  0.
472  4.71  0.  0.  0.
473  4.72  0.  0.  0.
474  4.73  0.  0.  0.
475  4.74  0.  0.  0.
476  4.75  0.  0.  0.
477  4.76  0.  0.  0.
478  4.77  0.  0.  0.
479  4.78  0.  0.  0.
480  4.79  0.  0.  0.
481  4.80  0.  0.  0.
482  4.81  0.  0.  0.
483  4.82  0.  0.  0.
484  4.83  0.  0.  0.
485  4.84  0.  0.  0.
486  4.85  0.  0.  0.
487  4.86  0.  0.  0.
488  4.87  0.  0.  0.
489  4.88  0.  0.  0.
490  4.89  0.  0.  0.
491  4.90  0.  0.  0.
492  4.91  0.  0.  0.
493  4.92  0.  0.  0.
494  4.93  0.  0.  0.
495  4.94  0.  0.  0.
496  4.95  0.  0.  0.
497  4.96  0.  0.  0.
498  4.97  0.  0.  0.
499  4.98  0.  0.  0.
500  4.99  0.  0.  0.
501  5.00  0.  0.  0.
502  5.01  0.  0.  0.
503  5.02  0.  0.  0.
504  5.03  0.  0.  0.
505  5.04  0.  0.  0.
506  5.05  0.  0.  0.
507  5.06  0.  0.  0.
508  5.07  0.  0.  0.
509  5.08  0.  0.  0.
510  5.09  0.  0.  0.
511  5.10  0.  0.  0.
512  5.11  0.  0.  0.
513  5.12  0.  0.  0.
514  5.13  0.  0.  0.
515  5.14  0.  0.  0.
516  5.15  0.  0.  0.
517  5.16  0.  0.  0.
518  5.17  0.  0.  0.
519  5.18  0.  0.  0.
520  5.19  0.  0.  0.
521  5.20  0.  0.  0.
522  5.21  0.  0.  0.
523  5.22  0.  0.  0.
524  5.23  0.  0.  0.
525  5.24  0.  0.  0.
526  5.25  0.  0.  0.
527  5.26  0.  0.  0.
528  5.27  0.  0.  0.
529  5.28  0.  0.  0.
530  5.29  0.  0.  0.
531  5.30  0.  0.  0.
532  5.31  0.  0.  0.
533  5.32  0.  0.  0.
534  5.33  0.  0.  0.
535  5.34  0.  0.  0.
536  5.35  0.  0.  0.
537  5.36  0.  0.  0.
538  5.37  0.  0.  0.
539  5.38  0.  0.  0.
540  5.39  0.  0.  0.
541  5.40  0.  0.  0.
542  5.41  0.  0.  0.
543  5.42  0.  0.  0.
544  5.43  0.  0.  0.
545  5.44  0.  0.  0.
546  5.45  0.  0.  0.
547  5.46  0.  0.  0.
548  5.47  0.  0.  0.
549  5.48  0.  0.  0.
550  5.49  0.  0.  0.
551  5.50  0.  0.  0.
552  5.51  0.  0.  0.
553  5.52  0.  0.  0.
554  5.53  0.  0.  0.
555  5.54  0.  0.  0.
556  5.55  0.  0.  0.
557  5.56  0.  0.  0.
558  5.57  0.  0.  0.
559  5.58  0.  0.  0.
560  5.59  0.  0.  0.
561  5.60  0.  0.  0.
562  5.61  0.  0.  0.
563  5.62  0.  0.  0.
564  5.63  0.  0.  0.
565  5.64  0.  0.  0.
566  5.65  0.  0.  0.
567  5.66  0.  0.  0.
568  5.67  0.  0.  0.
569  5.68  0.  0.  0.
570  5.69  0.  0.  0.
571  5.70  0.  0.  0.
572  5.71  0.  0.  0.
573  5.72  0.  0.  0.
574  5.73  0.  0.  0.
575  5.74  0.  0.  0.
576  5.75  0.  0.  0.
577  5.76  0.  0.  0.
578  5.77  0.  0.  0.
579  5.78  0.  0.  0.
580  5.79  0.  0.  0.
581  5.80  0.  0.  0.
582  5.81  0.  0.  0.
583  5.82  0.  0.  0.
584  5.83  0.  0.  0.
585  5.84  0.  0.  0.
586  5.85  0.  0.  0.
587  5.86  0.  0.  0.
588  5.87  0.  0.  0.
589  5.88  0.  0.  0.
590  5.89  0.  0.  0.
591  5.90  0.  0.  0.
592  5.91  0.  0.  0.
593  5.92  0.  0.  0.
594  5.93  0.  0.  0.
595  5.94  0.  0.  0.
596  5.95  0.  0.  0.
597  5.96  0.  0.  0.
598  5.97  0.  0.  0.
599  5.98  0.  0.  0.
600  5.99  0.  0.  0.
1                        -1.2017057325687E+01 -6.4695436684252E-01
1  0.0000000000000E+00  5.2069904776797E-09 -8.0208348934852E-08
2  1.0000000000000E-02  2.8964906264356E-03 -1.9428971829721E-03
3  2.0000000000000E-02  1.1564619881284E-02 -7.7335562173103E-03
4  3.0000000000000E-02  2.5940568787686E-02 -1.7259246644076E-02
5  4.0000000000000E-02  4.5918665457351E-02 -3.0336581058606E-02
6  5.0000000000000E-02  7.1352413414539E-02 -4.6718051916789E-02
7  6.0000000000000E-02  1.0205590897872E-01 -6.6100776059329E-02
8  7.0000000000000E-02  1.3780562612551E-01 -8.8137061612027E-02
9  8.0000000000000E-02  1.7834254203832E-01 -1.1244633171179E-01
10  9.0000000000000E-02  2.2337457202868E-01 -1.3862787991387E-01
11  1.0000000000000E-01  2.7257927873975E-01 -1.6627389583142E-01
12  1.1000000000000E-01  3.2560681762940E-01 -1.9498218820529E-01
13  1.2000000000000E-01  3.8208307869932E-01 -2.2436804677434E-01
14  1.3000000000000E-01  4.4161298330924E-01 -2.5407472347402E-01
15  1.4000000000000E-01  5.0378389467488E-01 -2.8378207600077E-01
16  1.5000000000000E-01  5.6816910125097E-01 -3.1321299998382E-01
17  1.6000000000000E-01  6.3433133357499E-01 -3.4213737633162E-01
18  1.7000000000000E-01  7.0182627720253E-01 -3.7037337343598E-01
19  1.8000000000000E-01  7.7020604698813E-01 -3.9778606491295E-01
20  1.9000000000000E-01  8.3902259103277E-01 -4.2428344715951E-01
21  2.0000000000000E-01  9.0783099599783E-01 -4.4981006179225E-01
22  2.1000000000000E-01  9.7619266903933E-01 -4.7433854068354E-01
23  2.2000000000000E-01  1.0436783752141E+00 -4.9785949081763E-01
24  2.3000000000000E-01  1.1098711127264E+00 -5.2037021808813E-01
25  2.4000000000000E-01  1.1743688117097E+00 -5.4186284971379E-01
26  2.5000000000000E-01  1.2367868452761E+00 -5.6231245132256E-01
27  2.6000000000000E-01  1.2967603442504E+00 -5.8166574512531E-01
28  2.7000000000000E-01  1.3539463092758E+00 -5.9983101925785E-01
29  2.8000000000000E-01  1.4080255158189E+00 -6.1666977573798E-01
30  2.9000000000000E-01  1.4587042090033E+00 -6.3199059712317E-01
31  3.0000000000000E-01  1.5057155861922E+00 -6.4554562248888E-01
32  3.1000000000000E-01  1.5488210658609E+00 -6.5702991537231E-01
33  3.2000000000000E-01  1.5878113416169E+00 -6.6608388425608E-01
34  3.3000000000000E-01  1.6225072203133E+00 -6.7229878505090E-01
35  3.4000000000000E-01  1.6527602431514E+00 -6.7522520036418E-01
36  3.5000000000000E-01  1.6784530885790E+00 -6.7438425779609E-01
37  3.6000000000000E-01  1.6994997557489E+00 -6.6928122474110E-01
38  3.7000000000000E-01  1.7158455274147E+00 -6.5942100557378E-01
39  3.8000000000000E-01  1.7274667114745E+00 -6.4432497354516E-01
40  3.9000000000000E-01  1.7343701610111E+00 -6.2354849838993E-01
41  4.0000000000000E-01  1.7365925736665E+00 -5.9669848483684E-01
42  4.1000000000000E-01  1.7341995725586E+00 -5.6345021918532E-01
43  4.2000000000000E-01  1.7272845727189E+00 -5.2356283199459E-01
44  4.3000000000000E-01  1.7159674391730E+00 -4.7689272466300E-01
45  4.4000000000000E-01  1.7003929452807E+00 -4.2340437500235E-01
46  4.5000000000000E-01  1.6807290427228E+00 -3.6317802942005E-01
47  4.6000000000000E-01  1.6571649575037E+00 -2.9641390353058E-01
48  4.7000000000000E-01  1.6299091294166E+00 -2.2343264451260E-01
49  4.8000000000000E-01  1.5991870154995E+00 -1.4467195213032E-01
50  4.9000000000000E-01  1.5652387809562E+00 -6.0679405312049E-02
51  5.0000000000000E-01  1.5283169037198E+00  2.7898308539926E-02
52  5.1000000000000E-01  1.4886837211586E+00  1.2032941989792E-01
53  5.2000000000000E-01  1.4466089492647E+00  2.1581388489903E-01
54  5.3000000000000E-01  1.4023672059057E+00  3.1350238516032E-01
55  5.4000000000000E-01  1.3562355702893E+00  4.1251683734475E-01
56  5.5000000000000E-01  1.3084912106082E+00  5.1197166377434E-01
57  5.6000000000000E-01  1.2594091108726E+00  6.1099503845029E-01
58  5.7000000000000E-01  1.2092599261788E+00  7.0874931729660E-01
59  5.8000000000000E-01  1.1583079931281E+00  8.0444988794862E-01
60  5.9000000000000E-01  1.1068095188407E+00  8.9738173231591E-01
61  6.0000000000000E-01  1.0550109680890E+00  9.8691308253848E-01
62  6.1000000000000E-01  1.0031476635985E+00  1.0725056646737E+00
63  6.2000000000000E-01  9.5144260966178E-01  1.1537211602406E+00
64  6.3000000000000E-01  9.0010554403165E-01  1.2302236683841E+00
65  6.4000000000000E-01  8.4933221775453E-01  1.3017781149306E+00
66  6.5000000000000E-01  7.9930389735808E-01  1.3682447224607E+00
67  6.6000000000000E-01  7.5018707877557E-01  1.4295698209549E+00
68  6.7000000000000E-01  7.0213339775445E-01  1.4857734347374E+00
69  6.8000000000000E-01  6.5527971740915E-01  1.5369342218390E+00
70  6.9000000000000E-01  6.0974837018343E-01  1.5831724604793E+00
71  7.0000000000000E-01  5.6564752890460E-01  1.6246318689005E+00
72  7.1000000000000E-01  5.2307167993306E-01  1.6614611050252E+00
73  7.2000000000000E-01  4.8210217069700E-01  1.6937958182897E+00
74  7.3000000000000E-01  4.4280780418045E-01  1.7217421158004E+00
75  7.4000000000000E-01  4.0524545419295E-01  1.7453622583556E+00
76  7.5000000000000E-01  3.6946067744541E-01  1.7646633200203E+00
77  7.6000000000000E-01  3.3548830150658E-01  1.7795894304245E+00
78  7.7000000000000E-01  3.0335297150270E-01  1.7900180757376E+00
79  7.8000000000000E-01  2.7306964280500E-01  1.7957607675389E+00
80  7.9000000000000E-01  2.4464401175453E-01  1.7965682048239E+00
81  8.0000000000000E-01  2.1807288151461E-01  1.7921398602037E+00
82  8.1000000000000E-01  1.9334446521547E-01  1.7821377246549E+00
83  8.2000000000000E-01  1.7043863345951E-01  1.7662037538501E+00
84  8.3000000000000E-01  1.4932711778604E-01  1.7439803810467E+00
85  8.4000000000000E-01  1.2997368566057E-01  1.7151333042786E+00
86  8.5000000000000E-01  1.1233430578268E-01  1.6793756260776E+00
87  8.6000000000000E-01  9.6357324851405E-02  1.6364923281118E+00
88  8.7000000000000E-01  8.1983678271354E-02  1.5863640057486E+00
89  8.8000000000000E-01  6.9147157549502E-02  1.5289887719903E+00
90  8.9000000000000E-01  5.7774756281258E-02  1.4645012683169E+00
91  9.0000000000000E-01  4.7787114662208E-02  1.3931877918203E+00
92  9.1000000000000E-01  3.9099079435773E-02  1.3154966620771E+00
93  9.2000000000000E-01  3.1620392189136E-02  1.2320431041922E+00
94  9.3000000000000E-01  2.5256514071134E-02  1.1436081115388E+00
95  9.4000000000000E-01  1.9909589494847E-02  1.0511309665650E+00
96  9.5000000000000E-01  1.5479545401107E-02  9.5569533316887E-01
97  9.6000000000000E-01  1.1865316418780E-02  8.5850908106323E-01
98  9.7000000000000E-01  8.9661800006347E-03  7.6087825209794E-01
99  9.8000000000000E-01  6.6831795813600E-03  6.6417582133338E-01
100  9.9000000000000E-01  4.9206082406823E-03  5.6980613223055E-01
101  1.0000000000000E+00  3.5875204818768E-03  4.7916608695566E-01
102  1.0100000000000E+00  2.5992357689801E-03  3.9360434101048E-01
103  1.0200000000000E+00  1.8787945778217E-03  3.1437987932181E-01
104  1.0300000000000E+00  1.3583255778393E-03  2.4262148072952E-01
105  1.0400000000000E+00  9.8028272266370E-04  1.7928926766642E-01
106  1.0500000000000E+00  6.9883015721968E-04  1.2510943194886E-01
107  1.0600000000000E+00  4.8172313999475E-04  8.0367714702507E-02
108  1.0700000000000E+00  3.0523081337216E-04  4.5499121361707E-02
109  1.0800000000000E+00  1.6013834639119E-04  2.0678361247396E-02
110  1.0900000000000E+00  5.1994689409941E-05  5.7010829862478E-03
111  1.1000000000000E+00  1.7828489767195E-06  1.6173461659135E-04
112  1.1100000000000E+00  2.5642486733794E-07  2.3975542015883E-05
113  1.1200000000000E+00 -2.7774287965016E-08 -2.7922978082779E-06
114  1.13  0.  0.
115  1.14  0.  0.
116  1.15  0.  0.
117  1.16  0.  0.
118  1.17  0.  0.
119  1.18  0.  0.
120  1.19  0.  0.
121  1.20  0.  0.
122  1.21  0.  0.
123  1.22  0.  0.
124  1.23  0.  0.
125  1.24  0.  0.
126  1.25  0.  0.
127  1.26  0.  0.
128  1.27  0.  0.
129  1.28  0.  0.
130  1.29  0.  0.
131  1.30  0.  0.
132  1.31  0.  0.
133  1.32  0.  0.
134  1.33  0.  0.
135  1.34  0.  0.
136  1.35  0.  0.
137  1.36  0.  0.
138  1.37  0.  0.
139  1.38  0.  0.
140  1.39  0.  0.
141  1.40  0.  0.
142  1.41  0.  0.
143  1.42  0.  0.
144  1.43  0.  0.
145  1.44  0.  0.
146  1.45  0.  0.
147  1.46  0.  0.
148  1.47  0.  0.
149  1.48  0.  0.
150  1.49  0.  0.
151  1.50  0.  0.
152  1.51  0.  0.
153  1.52  0.  0.
154  1.53  0.  0.
155  1.54  0.  0.
156  1.55  0.  0.
157  1.56  0.  0.
158  1.57  0.  0.
159  1.58  0.  0.
160  1.59  0.  0.
161  1.60  0.  0.
162  1.61  0.  0.
163  1.62  0.  0.
164  1.63  0.  0.
165  1.64  0.  0.
166  1.65  0.  0.
167  1.66  0.  0.
168  1.67  0.  0.
169  1.68  0.  0.
170  1.69  0.  0.
171  1.70  0.  0.
172  1.71  0.  0.
173  1.72  0.  0.
174  1.73  0.  0.
175  1.74  0.  0.
176  1.75  0.  0.
177  1.76  0.  0.
178  1.77  0.  0.
179  1.78  0.  0.
180  1.79  0.  0.
181  1.80  0.  0.
182  1.81  0.  0.
183  1.82  0.  0.
184  1.83  0.  0.
185  1.84  0.  0.
186  1.85  0.  0.
187  1.86  0.  0.
188  1.87  0.  0.
189  1.88  0.  0.
190  1.89  0.  0.
191  1.90  0.  0.
192  1.91  0.  0.
193  1.92  0.  0.
194  1.93  0.  0.
195  1.94  0.  0.
196  1.95  0.  0.
197  1.96  0.  0.