U     ONCVPSP-4.0.1  r_core=   1.25145   1.30497   1.45333   1.45333
92.0000     32.0000      231012    zatom,zion,pspd
8 -116133   3     4   600     0    pspcod,pspxc,lmax,lloc,mmax,r2well
5.99000000  4.00000000  0.00000000    rchrg fchrg qchrg
3     3     3     3    nproj
3     1           extension_switch
4     4     4    nprojso
0                         3.4126517278156E+01  7.6422962089395E+00  1.3298712629222E+00
1  0.0000000000000E+00 -5.3836386570971E-08  1.0894876861789E-07 -1.8839864635023E-07
2  1.0000000000000E-02  1.3117024786260E-01 -4.2044377046062E-02  8.0832148752057E-02
3  2.0000000000000E-02  2.6146391731923E-01 -8.2944374129871E-02  1.5984627060965E-01
4  3.0000000000000E-02  3.9001956553354E-01 -1.2158532012968E-01  2.3527706635345E-01
5  4.0000000000000E-02  5.1600557195343E-01 -1.5691104027675E-01  3.0546306335369E-01
6  5.0000000000000E-02  6.3863394192514E-01 -1.8795083054196E-01  3.6889450794430E-01
7  6.0000000000000E-02  7.5717282171194E-01 -2.1384378522451E-01  4.2425657385759E-01
8  7.0000000000000E-02  8.7095736139017E-01 -2.3385972895162E-01  4.7046655598553E-01
9  8.0000000000000E-02  9.7939861593127E-01 -2.4741611324690E-01  5.0670390713209E-01
10  9.0000000000000E-02  1.0819902387492E+00 -2.5409036738220E-01  5.3243219969289E-01
11  1.0000000000000E-01  1.1783127940373E+00 -2.5362733928527E-01  5.4741234737610E-01
12  1.1000000000000E-01  1.2680355920058E+00 -2.4594162017887E-01  5.5170669626475E-01
13  1.2000000000000E-01  1.3509160321478E+00 -2.3111471134954E-01  5.4567388117003E-01
14  1.3000000000000E-01  1.4267965212643E+00 -2.0938715771388E-01  5.2995463336620E-01
15  1.4000000000000E-01  1.4955991125169E+00 -1.8114593533946E-01  5.0544901034296E-01
16  1.5000000000000E-01  1.5573180866333E+00 -1.4690753355404E-01  4.7328578821469E-01
17  1.6000000000000E-01  1.6120107640999E+00 -1.0729731177425E-01  4.3478500436571E-01
18  1.7000000000000E-01  1.6597868954864E+00 -6.3025832167955E-02  3.9141485397449E-01
19  1.8000000000000E-01  1.7007970239983E+00 -1.4862967756680E-02  3.4474432234862E-01
20  1.9000000000000E-01  1.7352202483360E+00  3.6389341701475E-02  2.9639306979984E-01
21  2.0000000000000E-01  1.7632518337682E+00  8.9924769193795E-02  2.4798017271412E-01
22  2.1000000000000E-01  1.7850911242482E+00  1.4495978373162E-01  2.0107336061710E-01
23  2.2000000000000E-01  1.8009301981554E+00  2.0075942156224E-01  1.5714037310602E-01
24  2.3000000000000E-01  1.8109436850613E+00  2.5666077523164E-01  1.1750399283327E-01
25  2.4000000000000E-01  1.8152801215050E+00  3.1209340495176E-01  8.3302193256420E-02
26  2.5000000000000E-01  1.8140551713150E+00  3.6659597776496E-01  5.5454676160962E-02
27  2.6000000000000E-01  1.8073469721436E+00  4.1982856441323E-01  3.4636869057346E-02
28  2.7000000000000E-01  1.7951937966089E+00  4.7158016770576E-01  2.1262212823535E-02
29  2.8000000000000E-01  1.7775941360915E+00  5.2177121497490E-01  1.5473302921977E-02
30  2.9000000000000E-01  1.7545092304166E+00  5.7045091582710E-01  1.7142161603940E-02
31  3.0000000000000E-01  1.7258679801160E+00  6.1778955939901E-01  2.5879622792846E-02
32  3.1000000000000E-01  1.6915740925733E+00  6.6406599708120E-01  4.1053515270302E-02
33  3.2000000000000E-01  1.6515152319444E+00  7.0965072154302E-01  6.1815042883446E-02
34  3.3000000000000E-01  1.6055738680574E+00  7.5498510542120E-01  8.7132492025155E-02
35  3.4000000000000E-01  1.5536394540905E+00  8.0055749812202E-01  1.1583115534904E-01
36  3.5000000000000E-01  1.4956215089685E+00  8.4687699225254E-01  1.4663815448680E-01
37  3.6000000000000E-01  1.4314631400356E+00  8.9444575835334E-01  1.7823068025311E-01
38  3.7000000000000E-01  1.3611545161529E+00  9.4373090476609E-01  2.0928605197849E-01
39  3.8000000000000E-01  1.2847457919439E+00  9.9513684649242E-01  2.3853193218925E-01
40  3.9000000000000E-01  1.2023589909941E+00  1.0489791616242E+00  2.6479502123350E-01
41  4.0000000000000E-01  1.1141983793460E+00  1.1054608762716E+00  2.8704659922369E-01
42  4.1000000000000E-01  1.0205589000605E+00  1.1646520498383E+00  3.0444337870722E-01
43  4.2000000000000E-01  9.2183229381287E-01  1.2264734340310E+00  3.1636227784484E-01
44  4.3000000000000E-01  8.1851059786435E-01  1.2906848541244E+00  3.2242791605597E-01
45  4.4000000000000E-01  7.1118679421861E-01  1.3568788136677E+00  3.2253186592497E-01
46  4.5000000000000E-01  6.0055246489678E-01  1.4244796586647E+00  3.1684295928577E-01
47  4.6000000000000E-01  4.8739240527629E-01  1.4927484596182E+00  3.0580823323575E-01
48  4.7000000000000E-01  3.7257624235331E-01  1.5607935854534E+00  2.9014440405769E-01
49  4.8000000000000E-01  2.5704720049543E-01  1.6275867582498E+00  2.7082006377127E-01
50  4.9000000000000E-01  1.4180824961473E-01  1.6919841980321E+00  2.4902909523868E-01
51  5.0000000000000E-01  2.7905956671192E-02  1.7527522985182E+00  2.2615608752994E-01
52  5.1000000000000E-01 -8.3587561865126E-02  1.8085971233558E+00  2.0373479415254E-01
53  5.2000000000000E-01 -1.9159412406391E-01  1.8581968830270E+00  1.8340090420734E-01
54  5.3000000000000E-01 -2.9504988970904E-01  1.9002364496793E+00  1.6684058296634E-01
55  5.4000000000000E-01 -3.9292614212563E-01  1.9334428941189E+00  1.5573637767878E-01
56  5.5000000000000E-01 -4.8424987812474E-01  1.9566209886106E+00  1.5171217197496E-01
57  5.6000000000000E-01 -5.6812363915243E-01  1.9686876123917E+00  1.5627890524647E-01
58  5.7000000000000E-01 -6.4374403413351E-01  1.9687040242322E+00  1.7078275079125E-01
59  5.8000000000000E-01 -7.1041843916100E-01  1.9559050270738E+00  1.9635736925957E-01
60  5.9000000000000E-01 -7.6757941002470E-01  1.9297241417993E+00  2.3388172470620E-01
61  6.0000000000000E-01 -8.1479640894823E-01  1.8898140274383E+00  2.8394477388667E-01
62  6.1000000000000E-01 -8.5178452468675E-01  1.8360615295957E+00  3.4681812143664E-01
63  6.2000000000000E-01 -8.7840995277175E-01  1.7685969027341E+00  4.2243748176789E-01
64  6.3000000000000E-01 -8.9469209728807E-01  1.6877969296481E+00  5.1039351156127E-01
65  6.4000000000000E-01 -9.0080225399755E-01  1.5942818470172E+00  6.0993228415659E-01
66  6.5000000000000E-01 -8.9705893363320E-01  1.4889061730908E+00  7.1996537891624E-01
67  6.6000000000000E-01 -8.8391998049425E-01  1.3727437160078E+00  8.3908926495976E-01
68  6.7000000000000E-01 -8.6197173189610E-01  1.2470672128552E+00  9.6561337947726E-01
69  6.8000000000000E-01 -8.3191554560474E-01  1.1133232046011E+00  1.0975960454970E+00
70  6.9000000000000E-01 -7.9455209242817E-01  9.7310288529562E-01  1.2328871510597E+00
71  7.0000000000000E-01 -7.5076386741294E-01  8.2810977109392E-01  1.3691763284496E+00
72  7.1000000000000E-01 -7.0149641379808E-01  6.8012511220997E-01  1.5040452343498E+00
73  7.2000000000000E-01 -6.4773877779771E-01  5.3097201651020E-01  1.6350224436143E+00
74  7.3000000000000E-01 -5.9050371876605E-01  3.8247926581780E-01  1.7596394331123E+00
75  7.4000000000000E-01 -5.3080818831808E-01  2.3644578507658E-01  1.8754861481669E+00
76  7.5000000000000E-01 -4.6965456412727E-01  9.4606671456906E-02  1.9802647108974E+00
77  7.6000000000000E-01 -4.0801308059168E-01 -4.1398392405050E-02  2.0718399437658E+00
78  7.7000000000000E-01 -3.4680584110710E-01 -1.7005362614253E-01  2.1482855374880E+00
79  7.8000000000000E-01 -2.8689272758273E-01 -2.8999195675625E-01  2.2079248832024E+00
80  7.9000000000000E-01 -2.2905944480266E-01 -4.0001570541798E-01  2.2493658058800E+00
81  8.0000000000000E-01 -1.7400785334731E-01 -4.9911287894986E-01  2.2715286697491E+00
82  8.1000000000000E-01 -1.2234865841667E-01 -5.8646895165932E-01  2.2736675662818E+00
83  8.2000000000000E-01 -7.4596436572107E-02 -6.6147418309024E-01  2.2553845297619E+00
84  8.3000000000000E-01 -3.1166901789894E-02 -7.2372666714857E-01  2.2166369428704E+00
85  8.4000000000000E-01  7.6237600654225E-03 -7.7303144084189E-01  2.1577384832916E+00
86  8.5000000000000E-01  4.1557719610446E-02 -8.0939608951678E-01  2.0793541103936E+00
87  8.6000000000000E-01  7.0512771448233E-02 -8.3302336325239E-01  1.9824896872938E+00
88  8.7000000000000E-01  9.4458343561384E-02 -8.4430135960980E-01  1.8684768673610E+00
89  8.8000000000000E-01  1.1345055624071E-01 -8.4379182534733E-01  1.7389538354116E+00
90  8.9000000000000E-01  1.2762661879217E-01 -8.3221707858175E-01  1.5958423732506E+00
91  9.0000000000000E-01  1.3719880608491E-01 -8.1044594830704E-01  1.4413215083112E+00
92  9.1000000000000E-01  1.4244818179533E-01 -7.7947896570613E-01  1.2777976951557E+00
93  9.2000000000000E-01  1.4371812895573E-01 -7.4043281730822E-01  1.1078710654361E+00
94  9.3000000000000E-01  1.4140760919805E-01 -6.9452377990431E-01  9.3429675573722E-01
95  9.4000000000000E-01  1.3596389811201E-01 -6.4304949768427E-01  7.5993967817495E-01
96  9.5000000000000E-01  1.2787433356463E-01 -5.8736802961480E-01  5.8772032911419E-01
97  9.6000000000000E-01  1.1765636471964E-01 -5.2887258578535E-01  4.2054833005362E-01
98  9.7000000000000E-01  1.0584489970900E-01 -4.6895978105745E-01  2.6123935412286E-01
99  9.8000000000000E-01  9.2975617060591E-02 -4.0898855813878E-01  1.1240990354861E-01
100  9.9000000000000E-01  7.9562526034920E-02 -3.5022616175986E-01 -2.3656948984077E-02
101  1.0000000000000E+00  6.6067684364194E-02 -2.9377680448936E-01 -1.4518291003023E-01
102  1.0100000000000E+00  5.2861456660565E-02 -2.4049000098740E-01 -2.5110632016865E-01
103  1.0200000000000E+00  4.0212894080391E-02 -1.9094447245975E-01 -3.4107113832623E-01
104  1.0300000000000E+00  2.8336318824046E-02 -1.4556623283082E-01 -4.1506776735863E-01
105  1.0400000000000E+00  1.7404403990654E-02 -1.0466244511185E-01 -4.7333583540437E-01
106  1.0500000000000E+00  7.5497980112002E-03 -6.8427146553343E-02 -5.1634947858679E-01
107  1.0600000000000E+00 -1.1325259555604E-03 -3.6948768129141E-02 -5.4479876337138E-01
108  1.0700000000000E+00 -8.5823989200388E-03 -1.0219030668722E-02 -5.5956792322018E-01
109  1.0800000000000E+00 -1.4771268236813E-02  1.1857214787125E-02 -5.6171116381207E-01
110  1.0900000000000E+00 -1.9698888533260E-02  2.9451624236414E-02 -5.5242680338394E-01
111  1.1000000000000E+00 -2.3390066396366E-02  4.2801863437923E-02 -5.3303047936308E-01
112  1.1100000000000E+00 -2.5891609382809E-02  5.2201322557975E-02 -5.0492810834735E-01
113  1.1200000000000E+00 -2.7269601260407E-02  5.7989338798307E-02 -4.6958922552435E-01
114  1.1300000000000E+00 -2.7607088540865E-02  6.0542154150681E-02 -4.2852122776958E-01
115  1.1400000000000E+00 -2.7002235607700E-02  6.0264786621523E-02 -3.8324498962298E-01
116  1.1500000000000E+00 -2.5566972685866E-02  5.7583930842518E-02 -3.3527222934064E-01
117  1.1600000000000E+00 -2.3426118256338E-02  5.2941918391758E-02 -2.8608485353620E-01
118  1.1700000000000E+00 -2.0716921322584E-02  4.6791707291579E-02 -2.3711646091004E-01
119  1.1800000000000E+00 -1.7589171386048E-02  3.9593217878438E-02 -1.8973652387517E-01
120  1.1900000000000E+00 -1.4208013639248E-02  3.1814831015087E-02 -1.4524183964263E-01
121  1.2000000000000E+00 -1.0833990248247E-02  2.4072690510826E-02 -1.0500845501855E-01
122  1.2100000000000E+00 -7.6514911155075E-03  1.6824303647809E-02 -7.0128857592534E-02
123  1.2200000000000E+00 -4.7895420529662E-03  1.0401607752784E-02 -4.1446231519831E-02
124  1.2300000000000E+00 -2.4193346524251E-03  5.1824691182595E-03 -1.9750189228095E-02
125  1.2400000000000E+00 -7.4229409611952E-04  1.5672410553999E-03 -5.7183409728776E-03
126  1.2500000000000E+00 -2.6243898567880E-05  5.4518526365305E-05 -1.9002175772187E-04
127  1.2600000000000E+00 -2.6113941201220E-06  5.4428058544259E-06 -1.9101063596901E-05
128  1.2700000000000E+00  8.6466559286347E-07 -1.8140980238395E-06  6.4942129638214E-06
129  1.28  0.  0.  0.
130  1.29  0.  0.  0.
131  1.30  0.  0.  0.
132  1.31  0.  0.  0.
133  1.32  0.  0.  0.
134  1.33  0.  0.  0.
135  1.34  0.  0.  0.
136  1.35  0.  0.  0.
137  1.36  0.  0.  0.
138  1.37  0.  0.  0.
139  1.38  0.  0.  0.
140  1.39  0.  0.  0.
141  1.40  0.  0.  0.
142  1.41  0.  0.  0.
143  1.42  0.  0.  0.
144  1.43  0.  0.  0.
145  1.44  0.  0.  0.
146  1.45  0.  0.  0.
147  1.46  0.  0.  0.
148  1.47  0.  0.  0.
149  1.48  0.  0.  0.
150  1.49  0.  0.  0.
151  1.50  0.  0.  0.
152  1.51  0.  0.  0.
153  1.52  0.  0.  0.
154  1.53  0.  0.  0.
155  1.54  0.  0.  0.
156  1.55  0.  0.  0.
157  1.56  0.  0.  0.
158  1.57  0.  0.  0.
159  1.58  0.  0.  0.
160  1.59  0.  0.  0.
161  1.60  0.  0.  0.
162  1.61  0.  0.  0.
163  1.62  0.  0.  0.
164  1.63  0.  0.  0.
165  1.64  0.  0.  0.
166  1.65  0.  0.  0.
167  1.66  0.  0.  0.
168  1.67  0.  0.  0.
169  1.68  0.  0.  0.
170  1.69  0.  0.  0.
171  1.70  0.  0.  0.
172  1.71  0.  0.  0.
173  1.72  0.  0.  0.
174  1.73  0.  0.  0.
175  1.74  0.  0.  0.
176  1.75  0.  0.  0.
177  1.76  0.  0.  0.
178  1.77  0.  0.  0.
179  1.78  0.  0.  0.
180  1.79  0.  0.  0.
181  1.80  0.  0.  0.
182  1.81  0.  0.  0.
183  1.82  0.  0.  0.
184  1.83  0.  0.  0.
185  1.84  0.  0.  0.
186  1.85  0.  0.  0.
187  1.86  0.  0.  0.
188  1.87  0.  0.  0.
189  1.88  0.  0.  0.
190  1.89  0.  0.  0.
191  1.90  0.  0.  0.
192  1.91  0.  0.  0.
193  1.92  0.  0.  0.
194  1.93  0.  0.  0.
195  1.94  0.  0.  0.
196  1.95  0.  0.  0.
197  1.96  0.  0.  0.
198  1.97  0.  0.  0.
199  1.98  0.  0.  0.
200  1.99  0.  0.  0.
201  2.00  0.  0.  0.
202  2.01  0.  0.  0.
203  2.02  0.  0.  0.
204  2.03  0.  0.  0.
205  2.04  0.  0.  0.
206  2.05  0.  0.  0.
207  2.06  0.  0.  0.
208  2.07  0.  0.  0.
209  2.08  0.  0.  0.
210  2.09  0.  0.  0.
211  2.10  0.  0.  0.
212  2.11  0.  0.  0.
213  2.12  0.  0.  0.
214  2.13  0.  0.  0.
215  2.14  0.  0.  0.
216  2.15  0.  0.  0.
217  2.16  0.  0.  0.
218  2.17  0.  0.  0.
219  2.18  0.  0.  0.
220  2.19  0.  0.  0.
221  2.20  0.  0.  0.
222  2.21  0.  0.  0.
223  2.22  0.  0.  0.
224  2.23  0.  0.  0.
225  2.24  0.  0.  0.
226  2.25  0.  0.  0.
227  2.26  0.  0.  0.
228  2.27  0.  0.  0.
229  2.28  0.  0.  0.
230  2.29  0.  0.  0.
231  2.30  0.  0.  0.
232  2.31  0.  0.  0.
233  2.32  0.  0.  0.
234  2.33  0.  0.  0.
235  2.34  0.  0.  0.
236  2.35  0.  0.  0.
237  2.36  0.  0.  0.
238  2.37  0.  0.  0.
239  2.38  0.  0.  0.
240  2.39  0.  0.  0.
241  2.40  0.  0.  0.
242  2.41  0.  0.  0.
243  2.42  0.  0.  0.
244  2.43  0.  0.  0.
245  2.44  0.  0.  0.
246  2.45  0.  0.  0.
247  2.46  0.  0.  0.
248  2.47  0.  0.  0.
249  2.48  0.  0.  0.
250  2.49  0.  0.  0.
251  2.50  0.  0.  0.
252  2.51  0.  0.  0.
253  2.52  0.  0.  0.
254  2.53  0.  0.  0.
255  2.54  0.  0.  0.
256  2.55  0.  0.  0.
257  2.56  0.  0.  0.
258  2.57  0.  0.  0.
259  2.58  0.  0.  0.
260  2.59  0.  0.  0.
261  2.60  0.  0.  0.
262  2.61  0.  0.  0.
263  2.62  0.  0.  0.
264  2.63  0.  0.  0.
265  2.64  0.  0.  0.
266  2.65  0.  0.  0.
267  2.66  0.  0.  0.
268  2.67  0.  0.  0.
269  2.68  0.  0.  0.
270  2.69  0.  0.  0.
271  2.70  0.  0.  0.
272  2.71  0.  0.  0.
273  2.72  0.  0.  0.
274  2.73  0.  0.  0.
275  2.74  0.  0.  0.
276  2.75  0.  0.  0.
277  2.76  0.  0.  0.
278  2.77  0.  0.  0.
279  2.78  0.  0.  0.
280  2.79  0.  0.  0.
281  2.80  0.  0.  0.
282  2.81  0.  0.  0.
283  2.82  0.  0.  0.
284  2.83  0.  0.  0.
285  2.84  0.  0.  0.
286  2.85  0.  0.  0.
287  2.86  0.  0.  0.
288  2.87  0.  0.  0.
289  2.88  0.  0.  0.
290  2.89  0.  0.  0.
291  2.90  0.  0.  0.
292  2.91  0.  0.  0.
293  2.92  0.  0.  0.
294  2.93  0.  0.  0.
295  2.94  0.  0.  0.
296  2.95  0.  0.  0.
297  2.96  0.  0.  0.
298  2.97  0.  0.  0.
299  2.98  0.  0.  0.
300  2.99  0.  0.  0.
301  3.00  0.  0.  0.
302  3.01  0.  0.  0.
303  3.02  0.  0.  0.
304  3.03  0.  0.  0.
305  3.04  0.  0.  0.
306  3.05  0.  0.  0.
307  3.06  0.  0.  0.
308  3.07  0.  0.  0.
309  3.08  0.  0.  0.
310  3.09  0.  0.  0.
311  3.10  0.  0.  0.
312  3.11  0.  0.  0.
313  3.12  0.  0.  0.
314  3.13  0.  0.  0.
315  3.14  0.  0.  0.
316  3.15  0.  0.  0.
317  3.16  0.  0.  0.
318  3.17  0.  0.  0.
319  3.18  0.  0.  0.
320  3.19  0.  0.  0.
321  3.20  0.  0.  0.
322  3.21  0.  0.  0.
323  3.22  0.  0.  0.
324  3.23  0.  0.  0.
325  3.24  0.  0.  0.
326  3.25  0.  0.  0.
327  3.26  0.  0.  0.
328  3.27  0.  0.  0.
329  3.28  0.  0.  0.
330  3.29  0.  0.  0.
331  3.30  0.  0.  0.
332  3.31  0.  0.  0.
333  3.32  0.  0.  0.
334  3.33  0.  0.  0.
335  3.34  0.  0.  0.
336  3.35  0.  0.  0.
337  3.36  0.  0.  0.
338  3.37  0.  0.  0.
339  3.38  0.  0.  0.
340  3.39  0.  0.  0.
341  3.40  0.  0.  0.
342  3.41  0.  0.  0.
343  3.42  0.  0.  0.
344  3.43  0.  0.  0.
345  3.44  0.  0.  0.
346  3.45  0.  0.  0.
347  3.46  0.  0.  0.
348  3.47  0.  0.  0.
349  3.48  0.  0.  0.
350  3.49  0.  0.  0.
351  3.50  0.  0.  0.
352  3.51  0.  0.  0.
353  3.52  0.  0.  0.
354  3.53  0.  0.  0.
355  3.54  0.  0.  0.
356  3.55  0.  0.  0.
357  3.56  0.  0.  0.
358  3.57  0.  0.  0.
359  3.58  0.  0.  0.
360  3.59  0.  0.  0.
361  3.60  0.  0.  0.
362  3.61  0.  0.  0.
363  3.62  0.  0.  0.
364  3.63  0.  0.  0.
365  3.64  0.  0.  0.
366  3.65  0.  0.  0.
367  3.66  0.  0.  0.
368  3.67  0.  0.  0.
369  3.68  0.  0.  0.
370  3.69  0.  0.  0.
371  3.70  0.  0.  0.
372  3.71  0.  0.  0.
373  3.72  0.  0.  0.
374  3.73  0.  0.  0.
375  3.74  0.  0.  0.
376  3.75  0.  0.  0.
377  3.76  0.  0.  0.
378  3.77  0.  0.  0.
379  3.78  0.  0.  0.
380  3.79  0.  0.  0.
381  3.80  0.  0.  0.
382  3.81  0.  0.  0.
383  3.82  0.  0.  0.
384  3.83  0.  0.  0.
385  3.84  0.  0.  0.
386  3.85  0.  0.  0.
387  3.86  0.  0.  0.
388  3.87  0.  0.  0.
389  3.88  0.  0.  0.
390  3.89  0.  0.  0.
391  3.90  0.  0.  0.
392  3.91  0.  0.  0.
393  3.92  0.  0.  0.
394  3.93  0.  0.  0.
395  3.94  0.  0.  0.
396  3.95  0.  0.  0.
397  3.96  0.  0.  0.
398  3.97  0.  0.  0.
399  3.98  0.  0.  0.
400  3.99  0.  0.  0.
401  4.00  0.  0.  0.
402  4.01  0.  0.  0.
403  4.02  0.  0.  0.
404  4.03  0.  0.  0.
405  4.04  0.  0.  0.
406  4.05  0.  0.  0.
407  4.06  0.  0.  0.
408  4.07  0.  0.  0.
409  4.08  0.  0.  0.
410  4.09  0.  0.  0.
411  4.10  0.  0.  0.
412  4.11  0.  0.  0.
413  4.12  0.  0.  0.
414  4.13  0.  0.  0.
415  4.14  0.  0.  0.
416  4.15  0.  0.  0.
417  4.16  0.  0.  0.
418  4.17  0.  0.  0.
419  4.18  0.  0.  0.
420  4.19  0.  0.  0.
421  4.20  0.  0.  0.
422  4.21  0.  0.  0.
423  4.22  0.  0.  0.
424  4.23  0.  0.  0.
425  4.24  0.  0.  0.
426  4.25  0.  0.  0.
427  4.26  0.  0.  0.
428  4.27  0.  0.  0.
429  4.28  0.  0.  0.
430  4.29  0.  0.  0.
431  4.30  0.  0.  0.
432  4.31  0.  0.  0.
433  4.32  0.  0.  0.
434  4.33  0.  0.  0.
435  4.34  0.  0.  0.
436  4.35  0.  0.  0.
437  4.36  0.  0.  0.
438  4.37  0.  0.  0.
439  4.38  0.  0.  0.
440  4.39  0.  0.  0.
441  4.40  0.  0.  0.
442  4.41  0.  0.  0.
443  4.42  0.  0.  0.
444  4.43  0.  0.  0.
445  4.44  0.  0.  0.
446  4.45  0.  0.  0.
447  4.46  0.  0.  0.
448  4.47  0.  0.  0.
449  4.48  0.  0.  0.
450  4.49  0.  0.  0.
451  4.50  0.  0.  0.
452  4.51  0.  0.  0.
453  4.52  0.  0.  0.
454  4.53  0.  0.  0.
455  4.54  0.  0.  0.
456  4.55  0.  0.  0.
457  4.56  0.  0.  0.
458  4.57  0.  0.  0.
459  4.58  0.  0.  0.
460  4.59  0.  0.  0.
461  4.60  0.  0.  0.
462  4.61  0.  0.  0.
463  4.62  0.  0.  0.
464  4.63  0.  0.  0.
465  4.64  0.  0.  0.
466  4.65  0.  0.  0.
467  4.66  0.  0.  0.
468  4.67  0.  0.  0.
469  4.68  0.  0.  0.
470  4.69  0.  0.  0.
471  4.70  0.  0.  0.
472  4.71  0.  0.  0.
473  4.72  0.  0.  0.
474  4.73  0.  0.  0.
475  4.74  0.  0.  0.
476  4.75  0.  0.  0.
477  4.76  0.  0.  0.
478  4.77  0.  0.  0.
479  4.78  0.  0.  0.
480  4.79  0.  0.  0.
481  4.80  0.  0.  0.
482  4.81  0.  0.  0.
483  4.82  0.  0.  0.
484  4.83  0.  0.  0.
485  4.84  0.  0.  0.
486  4.85  0.  0.  0.
487  4.86  0.  0.  0.
488  4.87  0.  0.  0.
489  4.88  0.  0.  0.
490  4.89  0.  0.  0.
491  4.90  0.  0.  0.
492  4.91  0.  0.  0.
493  4.92  0.  0.  0.
494  4.93  0.  0.  0.
495  4.94  0.  0.  0.
496  4.95  0.  0.  0.
497  4.96  0.  0.  0.
498  4.97  0.  0.  0.
499  4.98  0.  0.  0.
500  4.99  0.  0.  0.
501  5.00  0.  0.  0.
502  5.01  0.  0.  0.
503  5.02  0.  0.  0.
504  5.03  0.  0.  0.
505  5.04  0.  0.  0.
506  5.05  0.  0.  0.
507  5.06  0.  0.  0.
508  5.07  0.  0.  0.
509  5.08  0.  0.  0.
510  5.09  0.  0.  0.
511  5.10  0.  0.  0.
512  5.11  0.  0.  0.
513  5.12  0.  0.  0.
514  5.13  0.  0.  0.
515  5.14  0.  0.  0.
516  5.15  0.  0.  0.
517  5.16  0.  0.  0.
518  5.17  0.  0.  0.
519  5.18  0.  0.  0.
520  5.19  0.  0.  0.
521  5.20  0.  0.  0.
522  5.21  0.  0.  0.
523  5.22  0.  0.  0.
524  5.23  0.  0.  0.
525  5.24  0.  0.  0.
526  5.25  0.  0.  0.
527  5.26  0.  0.  0.
528  5.27  0.  0.  0.
529  5.28  0.  0.  0.
530  5.29  0.  0.  0.
531  5.30  0.  0.  0.
532  5.31  0.  0.  0.
533  5.32  0.  0.  0.
534  5.33  0.  0.  0.
535  5.34  0.  0.  0.
536  5.35  0.  0.  0.
537  5.36  0.  0.  0.
538  5.37  0.  0.  0.
539  5.38  0.  0.  0.
540  5.39  0.  0.  0.
541  5.40  0.  0.  0.
542  5.41  0.  0.  0.
543  5.42  0.  0.  0.
544  5.43  0.  0.  0.
545  5.44  0.  0.  0.
546  5.45  0.  0.  0.
547  5.46  0.  0.  0.
548  5.47  0.  0.  0.
549  5.48  0.  0.  0.
550  5.49  0.  0.  0.
551  5.50  0.  0.  0.
552  5.51  0.  0.  0.
553  5.52  0.  0.  0.
554  5.53  0.  0.  0.
555  5.54  0.  0.  0.
556  5.55  0.  0.  0.
557  5.56  0.  0.  0.
558  5.57  0.  0.  0.
559  5.58  0.  0.  0.
560  5.59  0.  0.  0.
561  5.60  0.  0.  0.
562  5.61  0.  0.  0.
563  5.62  0.  0.  0.
564  5.63  0.  0.  0.
565  5.64  0.  0.  0.
566  5.65  0.  0.  0.
567  5.66  0.  0.  0.
568  5.67  0.  0.  0.
569  5.68  0.  0.  0.
570  5.69  0.  0.  0.
571  5.70  0.  0.  0.
572  5.71  0.  0.  0.
573  5.72  0.  0.  0.
574  5.73  0.  0.  0.
575  5.74  0.  0.  0.
576  5.75  0.  0.  0.
577  5.76  0.  0.  0.
578  5.77  0.  0.  0.
579  5.78  0.  0.  0.
580  5.79  0.  0.  0.
581  5.80  0.  0.  0.
582  5.81  0.  0.  0.
583  5.82  0.  0.  0.
584  5.83  0.  0.  0.
585  5.84  0.  0.  0.
586  5.85  0.  0.  0.
587  5.86  0.  0.  0.
588  5.87  0.  0.  0.
589  5.88  0.  0.  0.
590  5.89  0.  0.  0.
591  5.90  0.  0.  0.
592  5.91  0.  0.  0.
593  5.92  0.  0.  0.
594  5.93  0.  0.  0.
595  5.94  0.  0.  0.
596  5.95  0.  0.  0.
597  5.96  0.  0.  0.
598  5.97  0.  0.  0.
599  5.98  0.  0.  0.
600  5.99  0.  0.  0.
1                         1.2832333020438E+01  2.1180292511049E+00  1.8755690528934E-02
1  0.0000000000000E+00 -2.2231819440943E-09  9.3575211676522E-09  3.9738204782314E-08
2  1.0000000000000E-02  3.1558163197846E-03 -8.6495416941927E-04  5.5444350376492E-03
3  2.0000000000000E-02  1.2603642047034E-02 -3.4536816043994E-03  2.2088333307043E-02
4  3.0000000000000E-02  2.8284670772150E-02 -7.7476529898600E-03  4.9364866675041E-02
5  4.0000000000000E-02  5.0101104404260E-02 -1.3715578611404E-02  8.6933939767934E-02
6  5.0000000000000E-02  7.7916477717251E-02 -2.1312818333048E-02  1.3418903665611E-01
7  6.0000000000000E-02  1.1155612378834E-01 -3.0480597419718E-02  1.9036664654025E-01
8  7.0000000000000E-02  1.5080779084422E-01 -4.1145068514492E-02  2.5455811224066E-01
9  8.0000000000000E-02  1.9542242325312E-01 -5.3216269438042E-02  3.2572370555315E-01
10  9.0000000000000E-02  2.4511512106886E-01 -6.6587034296132E-02  4.0270869733049E-01
11  1.0000000000000E-01  2.9956629355527E-01 -8.1131921403100E-02  4.8426115812494E-01
12  1.1000000000000E-01  3.5842302242311E-01 -9.6706225548830E-02  5.6905119794625E-01
13  1.2000000000000E-01  4.2130065004663E-01 -1.1314514399977E-01  6.5569133162236E-01
14  1.3000000000000E-01  4.8778460666370E-01 -1.3026316523778E-01  7.4275763976796E-01
15  1.4000000000000E-01  5.5743248849670E-01 -1.4785374677196E-01  8.2881138473094E-01
16  1.5000000000000E-01  6.2977639588076E-01 -1.6568934343995E-01  9.1242073625315E-01
17  1.6000000000000E-01  7.0432553689401E-01 -1.8352184054277E-01  9.9218226297733E-01
18  1.7000000000000E-01  7.8056909771830E-01 -2.0108343708790E-01  1.0667418532886E+00
19  1.8000000000000E-01  8.5797937610752E-01 -2.1808801356706E-01  1.1348147420888E+00
20  1.9000000000000E-01  9.3601516901257E-01 -2.3423300633644E-01  1.1952043386792E+00
21  2.0000000000000E-01  1.0141253997353E+00 -2.4920179711789E-01  1.2468195745500E+00
22  2.1000000000000E-01  1.0917529640991E+00 -2.6266661175574E-01  1.2886905180633E+00
23  2.2000000000000E-01  1.1683387691855E+00 -2.7429190753512E-01  1.3199820351730E+00
24  2.3000000000000E-01  1.2433259323525E+00 -2.8373821350186E-01  1.3400053108107E+00
25  2.4000000000000E-01  1.3161641026893E+00 -2.9066637374229E-01  1.3482270836646E+00
26  2.5000000000000E-01  1.3863138619306E+00 -2.9474212989995E-01  1.3442764870485E+00
27  2.6000000000000E-01  1.4532511573153E+00 -2.9564096673286E-01  1.3279494296119E+00
28  2.7000000000000E-01  1.5164717150735E+00 -2.9305313363039E-01  1.2992104910091E+00
29  2.8000000000000E-01  1.5754953802916E+00 -2.8668874606075E-01  1.2581923485389E+00
30  2.9000000000000E-01  1.6298703269669E+00 -2.7628286421006E-01  1.2051927904351E+00
31  3.0000000000000E-01  1.6791770811926E+00 -2.6160044184992E-01  1.1406694092210E+00
32  3.1000000000000E-01  1.7230323007065E+00 -2.4244103691674E-01  1.0652321036691E+00
33  3.2000000000000E-01  1.7610922555035E+00 -2.1864317651848E-01  9.7963354985008E-01
34  3.3000000000000E-01  1.7930559568988E+00 -1.9008827314509E-01  8.8475782998471E-01
35  3.4000000000000E-01  1.8186678862818E+00 -1.5670399571152E-01  7.8160743191327E-01
36  3.5000000000000E-01  1.8377202798033E+00 -1.1846700859465E-01  6.7128885163483E-01
37  3.6000000000000E-01  1.8500549312854E+00 -7.5405003846661E-02  5.5499704632017E-01
38  3.7000000000000E-01  1.8555644826459E+00 -2.7597966015855E-02  4.3399899533580E-01
39  3.8000000000000E-01  1.8541931789335E+00  2.4821374850058E-02  3.0961663212827E-01
40  3.9000000000000E-01  1.8459370735341E+00  8.1667928793488E-02  1.8320941037225E-01
41  4.0000000000000E-01  1.8308436780392E+00  1.4270547819040E-01  5.6156763781832E-02
42  4.1000000000000E-01  1.8090110604760E+00  2.0764874540999E-01 -7.0159289320526E-02
43  4.2000000000000E-01  1.7805864048753E+00  2.7616626527682E-01 -1.9437115782833E-01
44  4.3000000000000E-01  1.7457640542848E+00  3.4788401278757E-01 -3.1514208299136E-01
45  4.4000000000000E-01  1.7047830681117E+00  4.2238971856190E-01 -4.3118173260417E-01
46  4.5000000000000E-01  1.6579243328851E+00  4.9923778799670E-01 -5.4126080131447E-01
47  4.6000000000000E-01  1.6055072729737E+00  5.7795472551871E-01 -6.4422445742545E-01
48  4.7000000000000E-01  1.5478862142997E+00  6.5804495311801E-01 -7.3900450128161E-01
49  4.8000000000000E-01  1.4854464594817E+00  7.3899690286347E-01 -8.2463012588525E-01
50  4.9000000000000E-01  1.4186001370090E+00  8.2028925665306E-01 -9.0023719623930E-01
51  5.0000000000000E-01  1.3477818898679E+00  9.0139720325359E-01 -9.6507598954622E-01
52  5.1000000000000E-01  1.2734444704589E+00  9.8179858287448E-01 -1.0185173633077E+00
53  5.2000000000000E-01  1.1960543086143E+00  1.0609797931350E+00 -1.0600573421681E+00
54  5.3000000000000E-01  1.1160871180588E+00  1.1384413372742E+00 -1.0893201366211E+00
55  5.4000000000000E-01  1.0340236037872E+00  1.2137029056633E+00 -1.1060596271797E+00
56  5.5000000000000E-01  9.5034532863675E-01  1.2863078948766E+00 -1.1101593660270E+00
57  5.6000000000000E-01  8.6553079192752E-01  1.3558272844233E+00 -1.1016311643727E+00
58  5.7000000000000E-01  7.8005176655659E-01  1.4218628093351E+00 -1.0806123476181E+00
59  5.8000000000000E-01  6.9436993354548E-01  1.4840493866729E+00 -1.0473617719603E+00
60  5.9000000000000E-01  6.0893384493788E-01  1.5420567751188E+00 -1.0022547052393E+00
61  6.0000000000000E-01  5.2417623733723E-01  1.5955904686002E+00 -9.4577668175930E-01
62  6.1000000000000E-01  4.4051170948327E-01  1.6443918467460E+00 -8.7851644557196E-01
63  6.2000000000000E-01  3.5833476831857E-01  1.6882376263019E+00 -8.0115809947622E-01
64  6.3000000000000E-01  2.7801823921636E-01  1.7269386778435E+00 -7.1447257791500E-01
65  6.4000000000000E-01  1.9991202764894E-01  1.7603382906423E+00 -6.1930856123025E-01
66  6.5000000000000E-01  1.2434221177775E-01  1.7883099848527E+00 -5.1658294655434E-01
67  6.6000000000000E-01  5.1610438430109E-02  1.8107549838085E+00 -4.0727098714863E-01
68  6.7000000000000E-01 -1.8006411140243E-02  1.8275994697589E+00 -2.9239620742230E-01
69  6.8000000000000E-01 -8.4256324292467E-02  1.8387917535019E+00 -1.7302019531489E-01
70  6.9000000000000E-01 -1.4691207120486E-01  1.8442994918575E+00 -5.0232367342793E-02
71  7.0000000000000E-01 -2.0577097512171E-01  1.8441070866084E+00  7.4860205510732E-02
72  7.1000000000000E-01 -2.6065458469692E-01  1.8382133943679E+00  2.0114283065484E-01
73  7.2000000000000E-01 -3.1140829433110E-01  1.8266298688464E+00  3.2750301344597E-01
74  7.3000000000000E-01 -3.5790095691019E-01  1.8093792452845E+00  4.5284000027199E-01
75  7.4000000000000E-01 -4.0002453057217E-01  1.7864948615959E+00  5.7607399135429E-01
76  7.5000000000000E-01 -4.3769379711525E-01  1.7580206922659E+00  6.9615497921805E-01
77  7.6000000000000E-01 -4.7084618449206E-01  1.7240121495775E+00  8.1207117886276E-01
78  7.7000000000000E-01 -4.9944171959890E-01  1.6845376826194E+00  9.2285702592682E-01
79  7.8000000000000E-01 -5.2346313036179E-01  1.6396811781213E+00  1.0276007294200E+00
80  7.9000000000000E-01 -5.4291610803622E-01  1.5895451388012E+00  1.1254513756274E+00
81  8.0000000000000E-01 -5.5782973176333E-01  1.5342545849331E+00  1.2156255892566E+00
82  8.1000000000000E-01 -5.6825704783736E-01  1.4739615935344E+00  1.2974137663625E+00
83  8.2000000000000E-01 -5.7427578589449E-01  1.4088503571757E+00  1.3701859005210E+00
84  8.3000000000000E-01 -5.7598918336764E-01  1.3391426110948E+00  1.4333970284656E+00
85  8.4000000000000E-01 -5.7352687807086E-01  1.2651032431501E+00  1.4865923231766E+00
86  8.5000000000000E-01 -5.6704581665846E-01  1.1870458661598E+00  1.5294118602976E+00
87  8.6000000000000E-01 -5.5673111388931E-01  1.1053380962626E+00  1.5615950766972E+00
88  8.7000000000000E-01 -5.4279678402540E-01  1.0204062438741E+00  1.5829849267943E+00
89  8.8000000000000E-01 -5.2548625117514E-01  9.3273908530852E-01  1.5935317215986E+00
90  8.9000000000000E-01 -5.0507252979452E-01  8.4289034275325E-01  1.5932966057974E+00
91  9.0000000000000E-01 -4.8185794968156E-01  7.5147945750991E-01  1.5824545880543E+00