U     ONCVPSP-4.0.1  r_core=   1.25145   1.30497   1.45333   1.45333
92.0000     32.0000      231012    zatom,zion,pspd
8 -116133   3     4   600     0    pspcod,pspxc,lmax,lloc,mmax,r2well
5.99000000  4.00000000  0.00000000    rchrg fchrg qchrg
3     2     2     2     0    nproj
1     1           extension_switch
0                         3.4068930904124E+01  7.6499686046151E+00  1.3331292467331E+00
1  0.0000000000000E+00 -5.3311512426824E-08  1.0747545695078E-07 -1.8574411153605E-07
2  1.0000000000000E-02  1.3150403069585E-01 -4.1592223237559E-02  8.0521232208689E-02
3  2.0000000000000E-02  2.6212901684595E-01 -8.2047146219349E-02  1.5923986635802E-01
4  3.0000000000000E-02  3.9101099147188E-01 -1.2025689013636E-01  2.3440545244388E-01
5  4.0000000000000E-02  5.1731569748660E-01 -1.5517150891447E-01  3.0437022863626E-01
6  5.0000000000000E-02  6.4025234399754E-01 -1.8582570931347E-01  3.6763649578310E-01
7  6.0000000000000E-02  7.5908608427982E-01 -2.1136295614217E-01  4.2289936757933E-01
8  7.0000000000000E-02  8.7314885466699E-01 -2.3105622262503E-01  4.6908358227417E-01
9  8.0000000000000E-02  9.8184826691854E-01 -2.4432475343098E-01  5.0537324753361E-01
10  9.0000000000000E-02  1.0846743099746E+00 -2.5074633569010E-01  5.3123361120385E-01
11  1.0000000000000E-01  1.1812036883610E+00 -2.5006471742682E-01  5.4642420036992E-01
12  1.1000000000000E-01  1.2711017015563E+00 -2.4219196864541E-01  5.5100294149612E-01
13  1.2000000000000E-01  1.3541216488872E+00 -2.2720574285891E-01  5.4532115715577E-01
14  1.3000000000000E-01  1.4301018253719E+00 -2.0534156096183E-01  5.3000962106892E-01
15  1.4000000000000E-01  1.4989602527488E+00 -1.7698039975627E-01  5.0595613391608E-01
16  1.5000000000000E-01  1.5606873641306E+00 -1.4263201899316E-01  4.7427534886678E-01
17  1.6000000000000E-01  1.6153369278647E+00 -1.0291459858824E-01  4.3627181956132E-01
18  1.7000000000000E-01  1.6630155540306E+00 -5.8531377235767E-02  3.9339745669389E-01
19  1.8000000000000E-01  1.7038711736251E+00 -1.0245081061604E-02  3.4720475558774E-01
20  1.9000000000000E-01  1.7380809142791E+00  4.1148997011186E-02  2.9929729055919E-01
21  2.0000000000000E-01  1.7658388161375E+00  9.4850362292653E-02  2.5127905811849E-01
22  2.1000000000000E-01  1.7873438365709E+00  1.5008020801552E-01  2.0470428728550E-01
23  2.2000000000000E-01  1.8027885824119E+00  2.0610692510819E-01  1.6102932018817E-01
24  2.3000000000000E-01  1.8123491836401E+00  2.6226937229924E-01  1.2156809998329E-01
25  2.4000000000000E-01  1.8161766835757E+00  3.1799712000498E-01  8.7452687900455E-02
26  2.5000000000000E-01  1.8143902688643E+00  3.7282698082373E-01  5.9600070340787E-02
27  2.6000000000000E-01  1.8070725994264E+00  4.2641526192364E-01  3.8686315414194E-02
28  2.7000000000000E-01  1.7942674261099E+00  4.7854531633009E-01  2.5128902327658E-02
29  2.8000000000000E-01  1.7759796043149E+00  5.2913012660474E-01  1.9077784028981E-02
30  2.9000000000000E-01  1.7521775279341E+00  5.7820982064386E-01  2.0415461776826E-02
31  3.0000000000000E-01  1.7227979222855E+00  6.2594418997360E-01  2.8766058748021E-02
32  3.1000000000000E-01  1.6877528501519E+00  6.7260045039994E-01  4.3513087767056E-02
33  3.2000000000000E-01  1.6469387043675E+00  7.1853664767041E-01  6.3825325054449E-02
34  3.3000000000000E-01  1.6002468863487E+00  7.6418126149558E-01  8.8689936752834E-02
35  3.4000000000000E-01  1.5475758050640E+00  8.1000969486132E-01  1.1695176646530E-01
36  3.5000000000000E-01  1.4888437774383E+00  8.5651844749998E-01  1.4735748797204E-01
37  3.6000000000000E-01  1.4240023709994E+00  9.0419785882982E-01  1.7860316442640E-01
38  3.7000000000000E-01  1.3530497041773E+00  9.5350436358556E-01  2.0938363909573E-01
39  3.8000000000000E-01  1.2760432100900E+00  1.0048332305878E+00  2.3844211712057E-01
40  3.9000000000000E-01  1.1931113763896E+00  1.0584927505068E+00  2.6461828513566E-01
41  4.0000000000000E-01  1.1044639967834E+00  1.1146808019379E+00  2.8689335659865E-01
42  4.1000000000000E-01  1.0104005086193E+00  1.1734646575773E+00  3.0443052418456E-01
43  4.2000000000000E-01  9.1131604434511E-01  1.2347647957156E+00  3.1660944383032E-01
44  4.3000000000000E-01  8.0770489113378E-01  1.2983433596263E+00  3.2305356345764E-01
45  4.4000000000000E-01  7.0016113047908E-01  1.3637977625097E+00  3.2364933713578E-01
46  4.5000000000000E-01  5.8937631568550E-01  1.4305597731016E+00  3.1855662514015E-01
47  4.6000000000000E-01  4.7613413718037E-01  1.4979002420477E+00  3.0820986367322E-01
48  4.7000000000000E-01  3.6130212050819E-01  1.5649394473866E+00  2.9330988573390E-01
49  4.8000000000000E-01  2.4582049665563E-01  1.6306628548838E+00  2.7480657705323E-01
50  4.9000000000000E-01  1.3068847589828E-01  1.6939419115529E+00  2.5387284825243E-01
51  5.0000000000000E-01  1.6948241642322E-02  1.7535593243252E+00  2.3187068668109E-01
52  5.1000000000000E-01 -9.4332943088366E-02  1.8082381260713E+00  2.1031030943620E-01
53  5.2000000000000E-01 -2.0208205934220E-01  1.8566737030104E+00  1.9080366437530E-01
54  5.3000000000000E-01 -3.0524057825270E-01  1.8975678553281E+00  1.7501371104281E-01
55  5.4000000000000E-01 -4.0278508642286E-01  1.9296638900043E+00  1.6460105226405E-01
56  5.5000000000000E-01 -4.9374772945784E-01  1.9517817039598E+00  1.6116957513277E-01
57  5.6000000000000E-01 -5.7723591164561E-01  1.9628518080739E+00  1.6621279439967E-01
58  5.7000000000000E-01 -6.5245070660736E-01  1.9619472687545E+00  1.8106257080850E-01
59  5.8000000000000E-01 -7.1870346766884E-01  1.9483126027116E+00  2.0684180253269E-01
60  5.9000000000000E-01 -7.7543017667464E-01  1.9213887504899E+00  2.4442256218660E-01
61  6.0000000000000E-01 -8.2220313437415E-01  1.8808333721476E+00  2.9439097929695E-01
62  6.1000000000000E-01 -8.5873967225549E-01  1.8265358503149E+00  3.5701995459210E-01
63  6.2000000000000E-01 -8.8490765226961E-01  1.7586265469369E+00  4.3225054538250E-01
64  6.3000000000000E-01 -9.0072761443182E-01  1.6774800349194E+00  5.1968258912340E-01
65  6.4000000000000E-01 -9.0637152970741E-01  1.5837122087177E+00  6.1857484434929E-01
66  6.5000000000000E-01 -9.0215821367783E-01  1.4781713625249E+00  7.2785463433812E-01
67  6.6000000000000E-01 -8.8854555198748E-01  1.3619235048661E+00  8.4613668914556E-01
68  6.7000000000000E-01 -8.6611977834864E-01  1.2362323480769E+00  9.7175060582278E-01
69  6.8000000000000E-01 -8.3558212697891E-01  1.1025345646375E+00  1.1027760939752E+00
70  6.9000000000000E-01 -7.9773325111575E-01  9.6241103455681E-01  1.2370849527298E+00
71  7.0000000000000E-01 -7.5345585545036E-01  8.1755491461909E-01  1.3723885428615E+00
72  7.1000000000000E-01 -7.0369603116894E-01  6.6973743787470E-01  1.5062893800830E+00
73  7.2000000000000E-01 -6.4944380655235E-01  5.2077239789583E-01  1.6363353864564E+00
74  7.3000000000000E-01 -5.9171343310800E-01  3.7248028574730E-01  1.7600752988652E+00
75  7.4000000000000E-01 -5.3152391694642E-01  2.2665302825165E-01  1.8751137469478E+00
76  7.5000000000000E-01 -4.6988027813254E-01  8.5020225039138E-02  1.9791645763211E+00
77  7.6000000000000E-01 -4.0775597820626E-01 -5.0782298674483E-02  2.0701011029367E+00
78  7.7000000000000E-01 -3.4607689969200E-01 -1.7924091332500E-01  2.1460021358237E+00
79  7.8000000000000E-01 -2.8570719344570E-01 -2.9898899847086E-01  2.2051927914258E+00
80  7.9000000000000E-01 -2.2743723279311E-01 -4.0882771178995E-01  2.2462793349300E+00
81  8.0000000000000E-01 -1.7197383063525E-01 -5.0774243265452E-01  2.2681775129018E+00
82  8.1000000000000E-01 -1.1993279036461E-01 -5.9491475930712E-01  2.2701340766803E+00
83  8.2000000000000E-01 -7.1833777049768E-02 -6.6973009601848E-01  2.2517414262173E+00
84  8.3000000000000E-01 -2.8097415522821E-02 -7.3178101430330E-01  2.2129455178032E+00
85  8.4000000000000E-01  1.0955549638975E-02 -7.8086670323772E-01  2.1540473647398E+00
86  8.5000000000000E-01  4.5103257161556E-02 -8.1698893122764E-01  2.0756986059873E+00
87  8.6000000000000E-01  7.4220164844143E-02 -8.4034501852539E-01  1.9788917129352E+00
88  8.7000000000000E-01  9.8273214145153E-02 -8.5131836007668E-01  1.8649454381040E+00
89  8.8000000000000E-01  1.1731702471878E-01 -8.5046703601537E-01  1.7354860718014E+00
90  8.9000000000000E-01  1.3148840097387E-01 -8.3851099691789E-01  1.5924249542893E+00
91  9.0000000000000E-01  1.4100038706920E-01 -8.1631820787102E-01  1.4379324833955E+00
92  9.1000000000000E-01  1.4613603224166E-01 -7.8488997502180E-01  1.2744085529053E+00
93  9.2000000000000E-01  1.4724192294102E-01 -7.4534545651923E-01  1.1044489483773E+00
94  9.3000000000000E-01  1.4472139997105E-01 -6.9890507276163E-01  9.3080670737016E-01
95  9.4000000000000E-01  1.3902720588683E-01 -6.4687217501315E-01  7.5634681400839E-01
96  9.5000000000000E-01  1.3065309840762E-01 -5.9061190304416E-01  5.8399183673678E-01
97  9.6000000000000E-01  1.2012371759949E-01 -5.3152565756987E-01  4.1665522609270E-01
98  9.7000000000000E-01  1.0798170590346E-01 -4.7101902764355E-01  2.5715795886792E-01
99  9.8000000000000E-01  9.4770748320438E-02 -4.1046034204736E-01  1.0812303789744E-01
100  9.9000000000000E-01  8.1012821155430E-02 -3.5112624870532E-01 -2.8158983922413E-02
101  1.0000000000000E+00  6.7177562437677E-02 -2.9412999107677E-01 -1.4990144252486E-01
102  1.0100000000000E+00  5.3642159498671E-02 -2.4032939805151E-01 -2.5603330734000E-01
103  1.0200000000000E+00  4.0681622865055E-02 -1.9031072832887E-01 -3.4618824614969E-01
104  1.0300000000000E+00  2.8515620939488E-02 -1.4450690846411E-01 -4.2034624292657E-01
105  1.0400000000000E+00  1.7321508393857E-02 -1.0323119002523E-01 -4.7873701066159E-01
106  1.0500000000000E+00  7.2358221803914E-03 -6.6682611273184E-02 -5.2182577276921E-01
107  1.0600000000000E+00 -1.6434738273300E-03 -3.4953290398299E-02 -5.5029513568708E-01
108  1.0700000000000E+00 -9.2541953209575E-03 -8.0371413224916E-03 -5.6502371139564E-01
109  1.0800000000000E+00 -1.5566797628890E-02  1.4160413469469E-02 -5.6706223066725E-01
110  1.0900000000000E+00 -2.0581083151631E-02  3.1812149577303E-02 -5.5760790213908E-01
111  1.1000000000000E+00 -2.4322930765379E-02  4.5158552096304E-02 -5.3797774185983E-01
112  1.1100000000000E+00 -2.6841198438403E-02  5.4497477919840E-02 -5.0958155743482E-01
113  1.1200000000000E+00 -2.8204917214217E-02  6.0174254538502E-02 -4.7389518502115E-01
114  1.1300000000000E+00 -2.8500876998362E-02  6.2572475457633E-02 -4.3243457607893E-01
115  1.1400000000000E+00 -2.7831645503381E-02  6.2105632382750E-02 -3.8673110756140E-01
116  1.1500000000000E+00 -2.6314060851101E-02  5.9209735261034E-02 -3.3830856942682E-01
117  1.1600000000000E+00 -2.4078183377059E-02  5.4336957586786E-02 -2.8866206610466E-01
118  1.1700000000000E+00 -2.1266650492540E-02  4.7950271513007E-02 -2.3923899370869E-01
119  1.1800000000000E+00 -1.8034589944291E-02  4.0519405292866E-02 -1.9142264476994E-01
120  1.1900000000000E+00 -1.4552207700743E-02  3.2521885676469E-02 -1.4652295028232E-01
121  1.2000000000000E+00 -1.1083584357703E-02  2.4579498183855E-02 -1.0592410315279E-01
122  1.2100000000000E+00 -7.8170747827241E-03  1.7156590143601E-02 -7.0728782998765E-02
123  1.2200000000000E+00 -4.8858522105724E-03  1.0592524688017E-02 -4.1791403277693E-02
124  1.2300000000000E+00 -2.4640795084384E-03  5.2700141314985E-03 -1.9909029418283E-02
125  1.2400000000000E+00 -7.5480633313061E-04  1.5913815446335E-03 -5.7623993198154E-03
126  1.2500000000000E+00 -2.6636058268622E-05  5.5275438164709E-05 -1.9142566417155E-04
127  1.2600000000000E+00 -2.6519057484485E-06  5.5190365284040E-06 -1.9240535778619E-05
128  1.2700000000000E+00  8.7871849413729E-07 -1.8407149110666E-06  6.5427142563489E-06
129  1.28 -0.  0. -0.
130  1.29  0.  0.  0.
131  1.30  0.  0.  0.
132  1.31  0.  0.  0.
133  1.32  0.  0.  0.
134  1.33  0.  0.  0.
135  1.34  0.  0.  0.
136  1.35  0.  0.  0.
137  1.36  0.  0.  0.
138  1.37  0.  0.  0.
139  1.38  0.  0.  0.
140  1.39  0.  0.  0.
141  1.40  0.  0.  0.
142  1.41  0.  0.  0.
143  1.42  0.  0.  0.
144  1.43  0.  0.  0.
145  1.44  0.  0.  0.
146  1.45  0.  0.  0.
147  1.46  0.  0.  0.
148  1.47  0.  0.  0.
149  1.48  0.  0.  0.
150  1.49  0.  0.  0.
151  1.50  0.  0.  0.
152  1.51  0.  0.  0.
153  1.52  0.  0.  0.
154  1.53  0.  0.  0.
155  1.54  0.  0.  0.
156  1.55  0.  0.  0.
157  1.56  0.  0.  0.
158  1.57  0.  0.  0.
159  1.58  0.  0.  0.
160  1.59  0.  0.  0.
161  1.60  0.  0.  0.
162  1.61  0.  0.  0.
163  1.62  0.  0.  0.
164  1.63  0.  0.  0.
165  1.64  0.  0.  0.
166  1.65  0.  0.  0.
167  1.66  0.  0.  0.
168  1.67  0.  0.  0.
169  1.68  0.  0.  0.
170  1.69  0.  0.  0.
171  1.70  0.  0.  0.
172  1.71  0.  0.  0.
173  1.72  0.  0.  0.
174  1.73  0.  0.  0.
175  1.74  0.  0.  0.
176  1.75  0.  0.  0.
177  1.76  0.  0.  0.
178  1.77  0.  0.  0.
179  1.78  0.  0.  0.
180  1.79  0.  0.  0.
181  1.80  0.  0.  0.
182  1.81  0.  0.  0.
183  1.82  0.  0.  0.
184  1.83  0.  0.  0.
185  1.84  0.  0.  0.
186  1.85  0.  0.  0.
187  1.86  0.  0.  0.
188  1.87  0.  0.  0.
189  1.88  0.  0.  0.
190  1.89  0.  0.  0.
191  1.90  0.  0.  0.
192  1.91  0.  0.  0.
193  1.92  0.  0.  0.
194  1.93  0.  0.  0.
195  1.94  0.  0.  0.
196  1.95  0.  0.  0.
197  1.96  0.  0.  0.
198  1.97  0.  0.  0.
199  1.98  0.  0.  0.
200  1.99  0.  0.  0.
201  2.00  0.  0.  0.
202  2.01  0.  0.  0.
203  2.02  0.  0.  0.
204  2.03  0.  0.  0.
205  2.04  0.  0.  0.
206  2.05  0.  0.  0.
207  2.06  0.  0.  0.
208  2.07  0.  0.  0.
209  2.08  0.  0.  0.
210  2.09  0.  0.  0.
211  2.10  0.  0.  0.
212  2.11  0.  0.  0.
213  2.12  0.  0.  0.
214  2.13  0.  0.  0.
215  2.14  0.  0.  0.
216  2.15  0.  0.  0.
217  2.16  0.  0.  0.
218  2.17  0.  0.  0.
219  2.18  0.  0.  0.
220  2.19  0.  0.  0.
221  2.20  0.  0.  0.
222  2.21  0.  0.  0.
223  2.22  0.  0.  0.
224  2.23  0.  0.  0.
225  2.24  0.  0.  0.
226  2.25  0.  0.  0.
227  2.26  0.  0.  0.
228  2.27  0.  0.  0.
229  2.28  0.  0.  0.
230  2.29  0.  0.  0.
231  2.30  0.  0.  0.
232  2.31  0.  0.  0.
233  2.32  0.  0.  0.
234  2.33  0.  0.  0.
235  2.34  0.  0.  0.
236  2.35  0.  0.  0.
237  2.36  0.  0.  0.
238  2.37  0.  0.  0.
239  2.38  0.  0.  0.
240  2.39  0.  0.  0.
241  2.40  0.  0.  0.
242  2.41  0.  0.  0.
243  2.42  0.  0.  0.
244  2.43  0.  0.  0.
245  2.44  0.  0.  0.
246  2.45  0.  0.  0.
247  2.46  0.  0.  0.
248  2.47  0.  0.  0.
249  2.48  0.  0.  0.
250  2.49  0.  0.  0.
251  2.50  0.  0.  0.
252  2.51  0.  0.  0.
253  2.52  0.  0.  0.
254  2.53  0.  0.  0.
255  2.54  0.  0.  0.
256  2.55  0.  0.  0.
257  2.56  0.  0.  0.
258  2.57  0.  0.  0.
259  2.58  0.  0.  0.
260  2.59  0.  0.  0.
261  2.60  0.  0.  0.
262  2.61  0.  0.  0.
263  2.62  0.  0.  0.
264  2.63  0.  0.  0.
265  2.64  0.  0.  0.
266  2.65  0.  0.  0.
267  2.66  0.  0.  0.
268  2.67  0.  0.  0.
269  2.68  0.  0.  0.
270  2.69  0.  0.  0.
271  2.70  0.  0.  0.
272  2.71  0.  0.  0.
273  2.72  0.  0.  0.
274  2.73  0.  0.  0.
275  2.74  0.  0.  0.
276  2.75  0.  0.  0.
277  2.76  0.  0.  0.
278  2.77  0.  0.  0.
279  2.78  0.  0.  0.
280  2.79  0.  0.  0.
281  2.80  0.  0.  0.
282  2.81  0.  0.  0.
283  2.82  0.  0.  0.
284  2.83  0.  0.  0.
285  2.84  0.  0.  0.
286  2.85  0.  0.  0.
287  2.86  0.  0.  0.
288  2.87  0.  0.  0.
289  2.88  0.  0.  0.
290  2.89  0.  0.  0.
291  2.90  0.  0.  0.
292  2.91  0.  0.  0.
293  2.92  0.  0.  0.
294  2.93  0.  0.  0.
295  2.94  0.  0.  0.
296  2.95  0.  0.  0.
297  2.96  0.  0.  0.
298  2.97  0.  0.  0.
299  2.98  0.  0.  0.
300  2.99  0.  0.  0.
301  3.00  0.  0.  0.
302  3.01  0.  0.  0.
303  3.02  0.  0.  0.
304  3.03  0.  0.  0.
305  3.04  0.  0.  0.
306  3.05  0.  0.  0.
307  3.06  0.  0.  0.
308  3.07  0.  0.  0.
309  3.08  0.  0.  0.
310  3.09  0.  0.  0.
311  3.10  0.  0.  0.
312  3.11  0.  0.  0.
313  3.12  0.  0.  0.
314  3.13  0.  0.  0.
315  3.14  0.  0.  0.
316  3.15  0.  0.  0.
317  3.16  0.  0.  0.
318  3.17  0.  0.  0.
319  3.18  0.  0.  0.
320  3.19  0.  0.  0.
321  3.20  0.  0.  0.
322  3.21  0.  0.  0.
323  3.22  0.  0.  0.
324  3.23  0.  0.  0.
325  3.24  0.  0.  0.
326  3.25  0.  0.  0.
327  3.26  0.  0.  0.
328  3.27  0.  0.  0.
329  3.28  0.  0.  0.
330  3.29  0.  0.  0.
331  3.30  0.  0.  0.
332  3.31  0.  0.  0.
333  3.32  0.  0.  0.
334  3.33  0.  0.  0.
335  3.34  0.  0.  0.
336  3.35  0.  0.  0.
337  3.36  0.  0.  0.
338  3.37  0.  0.  0.
339  3.38  0.  0.  0.
340  3.39  0.  0.  0.
341  3.40  0.  0.  0.
342  3.41  0.  0.  0.
343  3.42  0.  0.  0.
344  3.43  0.  0.  0.
345  3.44  0.  0.  0.
346  3.45  0.  0.  0.
347  3.46  0.  0.  0.
348  3.47  0.  0.  0.
349  3.48  0.  0.  0.
350  3.49  0.  0.  0.
351  3.50  0.  0.  0.
352  3.51  0.  0.  0.
353  3.52  0.  0.  0.
354  3.53  0.  0.  0.
355  3.54  0.  0.  0.
356  3.55  0.  0.  0.
357  3.56  0.  0.  0.
358  3.57  0.  0.  0.
359  3.58  0.  0.  0.
360  3.59  0.  0.  0.
361  3.60  0.  0.  0.
362  3.61  0.  0.  0.
363  3.62  0.  0.  0.
364  3.63  0.  0.  0.
365  3.64  0.  0.  0.
366  3.65  0.  0.  0.
367  3.66  0.  0.  0.
368  3.67  0.  0.  0.
369  3.68  0.  0.  0.
370  3.69  0.  0.  0.
371  3.70  0.  0.  0.
372  3.71  0.  0.  0.
373  3.72  0.  0.  0.
374  3.73  0.  0.  0.
375  3.74  0.  0.  0.
376  3.75  0.  0.  0.
377  3.76  0.  0.  0.
378  3.77  0.  0.  0.
379  3.78  0.  0.  0.
380  3.79  0.  0.  0.
381  3.80  0.  0.  0.
382  3.81  0.  0.  0.
383  3.82  0.  0.  0.
384  3.83  0.  0.  0.
385  3.84  0.  0.  0.
386  3.85  0.  0.  0.
387  3.86  0.  0.  0.
388  3.87  0.  0.  0.
389  3.88  0.  0.  0.
390  3.89  0.  0.  0.
391  3.90  0.  0.  0.
392  3.91  0.  0.  0.
393  3.92  0.  0.  0.
394  3.93  0.  0.  0.
395  3.94  0.  0.  0.
396  3.95  0.  0.  0.
397  3.96  0.  0.  0.
398  3.97  0.  0.  0.
399  3.98  0.  0.  0.
400  3.99  0.  0.  0.
401  4.00  0.  0.  0.
402  4.01  0.  0.  0.
403  4.02  0.  0.  0.
404  4.03  0.  0.  0.
405  4.04  0.  0.  0.
406  4.05  0.  0.  0.
407  4.06  0.  0.  0.
408  4.07  0.  0.  0.
409  4.08  0.  0.  0.
410  4.09  0.  0.  0.
411  4.10  0.  0.  0.
412  4.11  0.  0.  0.
413  4.12  0.  0.  0.
414  4.13  0.  0.  0.
415  4.14  0.  0.  0.
416  4.15  0.  0.  0.
417  4.16  0.  0.  0.
418  4.17  0.  0.  0.
419  4.18  0.  0.  0.
420  4.19  0.  0.  0.
421  4.20  0.  0.  0.
422  4.21  0.  0.  0.
423  4.22  0.  0.  0.
424  4.23  0.  0.  0.
425  4.24  0.  0.  0.
426  4.25  0.  0.  0.
427  4.26  0.  0.  0.
428  4.27  0.  0.  0.
429  4.28  0.  0.  0.
430  4.29  0.  0.  0.
431  4.30  0.  0.  0.
432  4.31  0.  0.  0.
433  4.32  0.  0.  0.
434  4.33  0.  0.  0.
435  4.34  0.  0.  0.
436  4.35  0.  0.  0.
437  4.36  0.  0.  0.
438  4.37  0.  0.  0.
439  4.38  0.  0.  0.
440  4.39  0.  0.  0.
441  4.40  0.  0.  0.
442  4.41  0.  0.  0.
443  4.42  0.  0.  0.
444  4.43  0.  0.  0.
445  4.44  0.  0.  0.
446  4.45  0.  0.  0.
447  4.46  0.  0.  0.
448  4.47  0.  0.  0.
449  4.48  0.  0.  0.
450  4.49  0.  0.  0.
451  4.50  0.  0.  0.
452  4.51  0.  0.  0.
453  4.52  0.  0.  0.
454  4.53  0.  0.  0.
455  4.54  0.  0.  0.
456  4.55  0.  0.  0.
457  4.56  0.  0.  0.
458  4.57  0.  0.  0.
459  4.58  0.  0.  0.
460  4.59  0.  0.  0.
461  4.60  0.  0.  0.
462  4.61  0.  0.  0.
463  4.62  0.  0.  0.
464  4.63  0.  0.  0.
465  4.64  0.  0.  0.
466  4.65  0.  0.  0.
467  4.66  0.  0.  0.
468  4.67  0.  0.  0.
469  4.68  0.  0.  0.
470  4.69  0.  0.  0.
471  4.70  0.  0.  0.
472  4.71  0.  0.  0.
473  4.72  0.  0.  0.
474  4.73  0.  0.  0.
475  4.74  0.  0.  0.
476  4.75  0.  0.  0.
477  4.76  0.  0.  0.
478  4.77  0.  0.  0.
479  4.78  0.  0.  0.
480  4.79  0.  0.  0.
481  4.80  0.  0.  0.
482  4.81  0.  0.  0.
483  4.82  0.  0.  0.
484  4.83  0.  0.  0.
485  4.84  0.  0.  0.
486  4.85  0.  0.  0.
487  4.86  0.  0.  0.
488  4.87  0.  0.  0.
489  4.88  0.  0.  0.
490  4.89  0.  0.  0.
491  4.90  0.  0.  0.
492  4.91  0.  0.  0.
493  4.92  0.  0.  0.
494  4.93  0.  0.  0.
495  4.94  0.  0.  0.
496  4.95  0.  0.  0.
497  4.96  0.  0.  0.
498  4.97  0.  0.  0.
499  4.98  0.  0.  0.
500  4.99  0.  0.  0.
501  5.00  0.  0.  0.
502  5.01  0.  0.  0.
503  5.02  0.  0.  0.
504  5.03  0.  0.  0.
505  5.04  0.  0.  0.
506  5.05  0.  0.  0.
507  5.06  0.  0.  0.
508  5.07  0.  0.  0.
509  5.08  0.  0.  0.
510  5.09  0.  0.  0.
511  5.10  0.  0.  0.
512  5.11  0.  0.  0.
513  5.12  0.  0.  0.
514  5.13  0.  0.  0.
515  5.14  0.  0.  0.
516  5.15  0.  0.  0.
517  5.16  0.  0.  0.
518  5.17  0.  0.  0.
519  5.18  0.  0.  0.
520  5.19  0.  0.  0.
521  5.20  0.  0.  0.
522  5.21  0.  0.  0.
523  5.22  0.  0.  0.
524  5.23  0.  0.  0.
525  5.24  0.  0.  0.
526  5.25  0.  0.  0.
527  5.26  0.  0.  0.
528  5.27  0.  0.  0.
529  5.28  0.  0.  0.
530  5.29  0.  0.  0.
531  5.30  0.  0.  0.
532  5.31  0.  0.  0.
533  5.32  0.  0.  0.
534  5.33  0.  0.  0.
535  5.34  0.  0.  0.
536  5.35  0.  0.  0.
537  5.36  0.  0.  0.
538  5.37  0.  0.  0.
539  5.38  0.  0.  0.
540  5.39  0.  0.  0.
541  5.40  0.  0.  0.
542  5.41  0.  0.  0.
543  5.42  0.  0.  0.
544  5.43  0.  0.  0.
545  5.44  0.  0.  0.
546  5.45  0.  0.  0.
547  5.46  0.  0.  0.
548  5.47  0.  0.  0.
549  5.48  0.  0.  0.
550  5.49  0.  0.  0.
551  5.50  0.  0.  0.
552  5.51  0.  0.  0.
553  5.52  0.  0.  0.
554  5.53  0.  0.  0.
555  5.54  0.  0.  0.
556  5.55  0.  0.  0.
557  5.56  0.  0.  0.
558  5.57  0.  0.  0.
559  5.58  0.  0.  0.
560  5.59  0.  0.  0.
561  5.60  0.  0.  0.
562  5.61  0.  0.  0.
563  5.62  0.  0.  0.
564  5.63  0.  0.  0.
565  5.64  0.  0.  0.
566  5.65  0.  0.  0.
567  5.66  0.  0.  0.
568  5.67  0.  0.  0.
569  5.68  0.  0.  0.
570  5.69  0.  0.  0.
571  5.70  0.  0.  0.
572  5.71  0.  0.  0.
573  5.72  0.  0.  0.
574  5.73  0.  0.  0.
575  5.74  0.  0.  0.
576  5.75  0.  0.  0.
577  5.76  0.  0.  0.
578  5.77  0.  0.  0.
579  5.78  0.  0.  0.
580  5.79  0.  0.  0.
581  5.80  0.  0.  0.
582  5.81  0.  0.  0.
583  5.82  0.  0.  0.
584  5.83  0.  0.  0.
585  5.84  0.  0.  0.
586  5.85  0.  0.  0.
587  5.86  0.  0.  0.
588  5.87  0.  0.  0.
589  5.88  0.  0.  0.
590  5.89  0.  0.  0.
591  5.90  0.  0.  0.
592  5.91  0.  0.  0.
593  5.92  0.  0.  0.
594  5.93  0.  0.  0.
595  5.94  0.  0.  0.
596  5.95  0.  0.  0.
597  5.96  0.  0.  0.
598  5.97  0.  0.  0.
599  5.98  0.  0.  0.
600  5.99  0.  0.  0.
1                         1.3104517408637E+01  2.1382117483467E+00
1  0.0000000000000E+00 -2.3228437229239E-09  9.9941746475873E-09
2  1.0000000000000E-02  3.1331155489790E-03 -7.8765128139958E-04
3  2.0000000000000E-02  1.2513173224033E-02 -3.1458359042010E-03
4  3.0000000000000E-02  2.8082365078905E-02 -7.0601000489694E-03
5  4.0000000000000E-02  4.9744542792578E-02 -1.2505873330968E-02
6  5.0000000000000E-02  7.7365520904649E-02 -1.9447770321833E-02
7  6.0000000000000E-02  1.1077351280231E-01 -2.7838657087145E-02
8  7.0000000000000E-02  1.4975971035139E-01 -3.7618525548067E-02
9  8.0000000000000E-02  1.9407902038688E-01 -4.8713228469434E-02
10  9.0000000000000E-02  2.4345097303949E-01 -6.1033136274807E-02
11  1.0000000000000E-01  2.9756081798322E-01 -7.4471783425472E-02
12  1.1000000000000E-01  3.5606082507089E-01 -8.8904576558014E-02
13  1.2000000000000E-01  4.1857180542755E-01 -1.0418763879422E-01
14  1.3000000000000E-01  4.8468486786704E-01 -1.2015686451678E-01
15  1.4000000000000E-01  5.5396342347736E-01 -1.3662725640945E-01
16  1.5000000000000E-01  6.2594544840539E-01 -1.5339261171959E-01
17  1.6000000000000E-01  7.0014601130317E-01 -1.7022561760983E-01
18  1.7000000000000E-01  7.7606006764267E-01 -1.8687840628284E-01
19  1.8000000000000E-01  8.5316551825309E-01 -2.0308360950808E-01
20  1.9000000000000E-01  9.3092652409258E-01 -2.1855593952662E-01
21  2.0000000000000E-01  1.0087970635629E+00 -2.3299430938504E-01
22  2.1000000000000E-01  1.0862247127518E+00 -2.4608449091506E-01
23  2.2000000000000E-01  1.1626546230001E+00 -2.5750229323195E-01
24  2.3000000000000E-01  1.2375336642932E+00 -2.6691722918898E-01
25  2.4000000000000E-01  1.3103146973470E+00 -2.7399662212897E-01
26  2.5000000000000E-01  1.3804609320414E+00 -2.7841009094749E-01
27  2.6000000000000E-01  1.4474503252314E+00 -2.7983433834208E-01
28  2.7000000000000E-01  1.5107799670612E+00 -2.7795815556455E-01
29  2.8000000000000E-01  1.5699704018779E+00 -2.7248754737623E-01
30  2.9000000000000E-01  1.6245698277858E+00 -2.6315087354460E-01
31  3.0000000000000E-01  1.6741581179102E+00 -2.4970389837226E-01
32  3.1000000000000E-01  1.7183506066079E+00 -2.3193463761083E-01
33  3.2000000000000E-01  1.7568015852271E+00 -2.0966789281021E-01
34  3.3000000000000E-01  1.7892074545816E+00 -1.8276936673505E-01
35  3.4000000000000E-01  1.8153094850559E+00 -1.5114925992037E-01
36  3.5000000000000E-01  1.8348961401493E+00 -1.1476525762722E-01
37  3.6000000000000E-01  1.8478049252160E+00 -7.3624828212264E-02
38  3.7000000000000E-01  1.8539237300647E+00 -2.7786767982910E-02
39  3.8000000000000E-01  1.8531916418019E+00  2.2638056358857E-02
40  3.9000000000000E-01  1.8455992126889E+00  7.7486798965601E-02
41  4.0000000000000E-01  1.8311881766501E+00  1.3654557231187E-01
42  4.1000000000000E-01  1.8100506172209E+00  1.9955122399267E-01
43  4.2000000000000E-01  1.7823275989620E+00  2.6619392640685E-01
44  4.3000000000000E-01  1.7482072834668E+00  3.3612053370121E-01
45  4.4000000000000E-01  1.7079225598511E+00  4.0893864207810E-01
46  4.5000000000000E-01  1.6617482278185E+00  4.8422127271198E-01
47  4.6000000000000E-01  1.6099977788564E+00  5.6151208155795E-01
48  4.7000000000000E-01  1.5530198276421E+00  6.4033098770440E-01
49  4.8000000000000E-01  1.4911942511823E+00  7.2018010199881E-01
50  4.9000000000000E-01  1.4249280974238E+00  8.0054983077076E-01
51  5.0000000000000E-01  1.3546513279637E+00  8.8092502581645E-01
52  5.1000000000000E-01  1.2808124609854E+00  9.6079105153753E-01
53  5.2000000000000E-01  1.2038741806050E+00  1.0396396432902E+00
54  5.3000000000000E-01  1.1243089774507E+00  1.1169744375525E+00
55  5.4000000000000E-01  1.0425948825336E+00  1.1923160643136E+00
56  5.5000000000000E-01  9.5921135239548E-01  1.2652067048928E+00
57  5.6000000000000E-01  8.7463535822909E-01  1.3352140338809E+00
58  5.7000000000000E-01  7.8933772531137E-01  1.4019344816631E+00
59  5.8000000000000E-01  7.0377976183003E-01  1.4649957735527E+00
60  5.9000000000000E-01  6.1841020820936E-01  1.5240587224153E+00
61  6.0000000000000E-01  5.3366252956221E-01  1.5788182732169E+00
62  6.1000000000000E-01  4.4995256512718E-01  1.6290038196066E+00
63  6.2000000000000E-01  3.6767653972087E-01  1.6743788338201E+00
64  6.3000000000000E-01  2.8720943356534E-01  1.7147398712945E+00
65  6.4000000000000E-01  2.0890369856137E-01  1.7499150298345E+00
66  6.5000000000000E-01  1.3308830136965E-01  1.7797619594382E+00
67  6.6000000000000E-01  6.0068066725070E-02  1.8041655325198E+00
68  6.7000000000000E-01 -9.8767115956262E-03  1.8230352948401E+00
69  6.8000000000000E-01 -7.6490429664344E-02  1.8363028246571E+00
70  6.9000000000000E-01 -1.3954214341406E-01  1.8439191312024E+00
71  7.0000000000000E-01 -1.9882539353012E-01  1.8458522234219E+00
72  7.1000000000000E-01 -2.5415793016545E-01  1.8420849759406E+00
73  7.2000000000000E-01 -3.0538138229124E-01  1.8326134114451E+00
74  7.3000000000000E-01 -3.5236091505185E-01  1.8174455072507E+00
75  7.4000000000000E-01 -3.9498491577988E-01  1.7966006189081E+00
76  7.5000000000000E-01 -4.3316474540329E-01  1.7701095955698E+00
77  7.6000000000000E-01 -4.6683458692052E-01  1.7380156407760E+00
78  7.7000000000000E-01 -4.9595141651953E-01  1.7003759486639E+00
79  7.8000000000000E-01 -5.2049511586801E-01  1.6572641197098E+00
80  7.9000000000000E-01 -5.4046873620126E-01  1.6087733323167E+00
81  8.0000000000000E-01 -5.5589891616703E-01  1.5550202172043E+00
82  8.1000000000000E-01 -5.6683644603334E-01  1.4961493509130E+00
83  8.2000000000000E-01 -5.7335696088050E-01  1.4323382530534E+00
84  8.3000000000000E-01 -5.7556173482129E-01  1.3638027393692E+00
85  8.4000000000000E-01 -5.7357853713039E-01  1.2908024493289E+00
86  8.5000000000000E-01 -5.6756249939457E-01  1.2136463328069E+00
87  8.6000000000000E-01 -5.5769693036395E-01  1.1326978453496E+00
88  8.7000000000000E-01 -5.4419400200221E-01  1.0483795653348E+00
89  8.8000000000000E-01 -5.2729521617508E-01  9.6117690870067E-01
90  8.9000000000000E-01 -5.0727154632154E-01  8.7164057740884E-01
91  9.0000000000000E-01 -4.8442313212582E-01  7.8038733588152E-01
92  9.1000000000000E-01 -4.5907838742167E-01  6.8809866467364E-01
93  9.2000000000000E-01 -4.3159236205649E-01  5.9551679187049E-01
94  9.3000000000000E-01 -4.0234417692804E-01  5.0343754930747E-01
95  9.4000000000000E-01 -3.7173332756959E-01  4.1269944178662E-01
96  9.5000000000000E-01 -3.4017462515601E-01  3.2416825202186E-01
97  9.6000000000000E-01 -3.0809151427142E-01  2.3871643102562E-01
98  9.7000000000000E-01 -2.7590747383357E-01  1.5719644193857E-01
99  9.8000000000000E-01 -2.4403517081714E-01  8.0407133750417E-02
100  9.9000000000000E-01 -2.1286299491115E-01  9.0521166984217E-03
101  1.0000000000000E+00 -1.8273858418633E-01 -5.6310895000168E-02
102  1.0100000000000E+00 -1.5394940351074E-01 -1.1532896660345E-01
103  1.0200000000000E+00 -1.2672155843408E-01 -1.6783889681521E-01
104  1.0300000000000E+00 -1.0124616864687E-01 -2.1375129486965E-01
105  1.0400000000000E+00 -7.7684437314987E-02 -2.5302698740087E-01
106  1.0500000000000E+00 -5.6166080355184E-02 -2.8568115440099E-01
107  1.0600000000000E+00 -3.6788137669490E-02 -3.1178671205817E-01
108  1.0700000000000E+00 -1.9614218519953E-02 -3.3147678222998E-01
109  1.0800000000000E+00 -4.6742212753335E-03 -3.4494612801415E-01
110  1.0900000000000E+00  8.0354420590062E-03 -3.5245146013692E-01
111  1.1000000000000E+00  1.8551095506990E-02 -3.5431054125922E-01
112  1.1100000000000E+00  2.6940513204377E-02 -3.5090004370985E-01
113  1.1200000000000E+00  3.3301097984049E-02 -3.4265213945089E-01
114  1.1300000000000E+00  3.7757542090951E-02 -3.3004985062065E-01
115  1.1400000000000E+00  4.0458989650536E-02 -3.1362118517871E-01
116  1.1500000000000E+00  4.1575744953545E-02 -2.9393215590299E-01
117  1.1600000000000E+00  4.1295572685897E-02 -2.7157877838378E-01
118  1.1700000000000E+00  3.9819651596855E-02 -2.4717818764925E-01
119  1.1800000000000E+00  3.7358251482644E-02 -2.2135903420144E-01
120  1.1900000000000E+00  3.4126211762585E-02 -1.9475134275273E-01