Fm    ONCVPSP-4.0.1  r_core=   1.00334   1.00334   1.00334   1.05253
100.0000     40.0000      230615    zatom,zion,pspd
8      11   3     4   600     0    pspcod,pspxc,lmax,lloc,mmax,r2well
5.99000000  2.50000000  0.00000000    rchrg fchrg qchrg
3     2     2     2     0    nproj
1     1           extension_switch
0                         4.1927130110399E+01  5.1425077157076E+00 -4.7953340882107E-01
1  0.0000000000000E+00 -5.7821354126908E-07  1.8067831678570E-06  1.5784288812659E-06
2  1.0000000000000E-02  1.8486449211148E-01 -1.1545673870374E-01 -4.8026407396031E-02
3  2.0000000000000E-02  3.6755894943584E-01 -2.2641161656007E-01 -9.2619537658292E-02
4  3.0000000000000E-02  5.4598118855634E-01 -3.2856335201277E-01 -1.3052439350825E-01
5  4.0000000000000E-02  7.1816150820945E-01 -4.1800177686114E-01 -1.5883356583579E-01
6  5.0000000000000E-02  8.8232104421773E-01 -4.9137879617189E-01 -1.7513904827297E-01
7  6.0000000000000E-02  1.0369211153871E+00 -5.4605125105158E-01 -1.7765891194726E-01
8  7.0000000000000E-02  1.1807012893098E+00 -5.8018860492664E-01 -1.6533245321644E-01
9  8.0000000000000E-02  1.3127044752279E+00 -5.9284018076116E-01 -1.3787900561664E-01
10  9.0000000000000E-02  1.4322880154291E+00 -5.8395875328220E-01 -9.5817425978845E-02
11  1.0000000000000E-01  1.5391204626233E+00 -5.5437953957061E-01 -4.0445232410696E-02
12  1.1000000000000E-01  1.6331644612601E+00 -5.0575591770304E-01  2.6221610124427E-02
13  1.2000000000000E-01  1.7146468579330E+00 -4.4045541850953E-01  1.0154529373442E-01
14  1.3000000000000E-01  1.7840178132129E+00 -3.6142156562064E-01  1.8239438038997E-01
15  1.4000000000000E-01  1.8419012409440E+00 -2.7200887912839E-01  2.6529726554681E-01
16  1.5000000000000E-01  1.8890393325451E+00 -1.7579971869122E-01  3.4661327630653E-01
17  1.6000000000000E-01  1.9262342108777E+00 -7.6412552756877E-02  4.2271291134081E-01
18  1.7000000000000E-01  1.9542898859733E+00  2.2688344977069E-02  4.9015827848111E-01
19  1.8000000000000E-01  1.9739576468343E+00  1.1837187375396E-01  5.4587478167395E-01
20  1.9000000000000E-01  1.9858878217488E+00  2.0799847520737E-01  5.8730555136709E-01
21  2.0000000000000E-01  1.9905904847065E+00  2.8954970490285E-01  6.1254097833464E-01
22  2.1000000000000E-01  1.9884071961524E+00  3.6172233354620E-01  6.2041695624041E-01
23  2.2000000000000E-01  1.9794952680478E+00  4.2398216583556E-01  6.1057699965123E-01
24  2.3000000000000E-01  1.9638253672548E+00  4.7657487244978E-01  5.8349520279814E-01
25  2.4000000000000E-01  1.9411925529023E+00  5.2049337599171E-01  5.4045894944074E-01
26  2.5000000000000E-01  1.9112401200891E+00  5.5740359853839E-01  4.8351227792200E-01
27  2.6000000000000E-01  1.8734949317541E+00  5.8953254945183E-01  4.1536274791996E-01
28  2.7000000000000E-01  1.8274122987793E+00  6.1952469507556E-01  3.3925644945168E-01
29  2.8000000000000E-01  1.7724279477794E+00  6.5027420557598E-01  2.5882735108412E-01
30  2.9000000000000E-01  1.7080142236829E+00  6.8474193336636E-01  1.7792842607410E-01
31  3.0000000000000E-01  1.6337374305233E+00  7.2576677774127E-01  1.0045286146968E-01
32  3.1000000000000E-01  1.5493131314911E+00  7.7588139091252E-01  3.0154104382840E-02
33  3.2000000000000E-01  1.4546563124849E+00  8.3714196694025E-01 -2.9526488759927E-02
34  3.3000000000000E-01  1.3499235577561E+00  9.1098113915973E-01 -7.5616058467013E-02
35  3.4000000000000E-01  1.2355447790121E+00  9.9809183167320E-01 -1.0574319892821E-01
36  3.5000000000000E-01  1.1122425600408E+00  1.0983483284188E+00 -1.1824116463144E-01
37  3.6000000000000E-01  9.8103780048189E-01  1.2107689219283E+00 -1.1221653586974E-01
38  3.7000000000000E-01  8.4324103250663E-01  1.3335223822630E+00 -8.7580289348838E-02
39  3.8000000000000E-01  7.0042950712960E-01  1.4639782548653E+00 -4.5040096222133E-02
40  3.9000000000000E-01  5.5441086530024E-01  1.5987987696591E+00  1.3945410178447E-02
41  4.0000000000000E-01  4.0717488580445E-01  1.7340680373367E+00  8.7247787473235E-02
42  4.1000000000000E-01  2.6083540264670E-01  1.8654523303066E+00  1.7218102757577E-01
43  4.2000000000000E-01  1.1756497838730E-01  1.9883836907959E+00  2.6563906942201E-01
44  4.3000000000000E-01 -2.0474718008512E-02  2.0982579552741E+00  3.6425157377019E-01
45  4.4000000000000E-01 -1.5120366780174E-01  2.1906375895684E+00  4.6455012657490E-01
46  4.5000000000000E-01 -2.7269217977011E-01  2.2614495253697E+00  5.6313660940214E-01
47  4.6000000000000E-01 -3.8322438279388E-01  2.3071684831046E+00  6.5684546274961E-01
48  4.7000000000000E-01 -4.8135369131968E-01  2.3249770391892E+00  7.4289196701387E-01
49  4.8000000000000E-01 -5.6594780392456E-01  2.3128949034769E+00  8.1899945139868E-01
50  4.9000000000000E-01 -6.3622131557776E-01  2.2698714489310E+00  8.8349946916661E-01
51  5.0000000000000E-01 -6.9175463439158E-01  2.1958373952376E+00  9.3540038728826E-01
52  5.1000000000000E-01 -7.3249856131578E-01  2.0917135922318E+00  9.7442145520823E-01
53  5.2000000000000E-01 -7.5876458134401E-01  1.9593769700479E+00  1.0009911570502E+00
54  5.3000000000000E-01 -7.7120159155810E-01  1.8015858103789E+00  1.0162104249697E+00
55  5.4000000000000E-01 -7.7076042005279E-01  1.6218684397301E+00  1.0217830089416E+00
56  5.5000000000000E-01 -7.5864803875884E-01  1.4243811524890E+00  1.0199168746788E+00
57  5.6000000000000E-01 -7.3627381534437E-01  1.2137425542663E+00  1.0132018598030E+00
58  5.7000000000000E-01 -7.0519046369409E-01  9.9485250793283E-01  1.0044698944036E+00
59  5.8000000000000E-01 -6.6703252502426E-01  7.7270442132655E-01  9.9664483686899E-01
60  5.9000000000000E-01 -6.2345523633327E-01  5.5219971582931E-01  9.9258935828873E-01
61  6.0000000000000E-01 -5.7607652146457E-01  3.3797296257684E-01  9.9495631685379E-01
62  6.1000000000000E-01 -5.2642458222893E-01  1.3423539579210E-01  1.0060517049742E+00
63  6.2000000000000E-01 -4.7589318961554E-01 -5.5356639347007E-02  1.0277155523323E+00
64  6.3000000000000E-01 -4.2570630110060E-01 -2.2780320446479E-01  1.0612261707685E+00
65  6.4000000000000E-01 -3.7689308720342E-01 -3.8082883018647E-01  1.1072318889595E+00
66  6.5000000000000E-01 -3.3027386973414E-01 -5.1291550655282E-01  1.1657130145328E+00
67  6.6000000000000E-01 -2.8645688804514E-01 -6.2330081698490E-01  1.2359752539199E+00
68  6.7000000000000E-01 -2.4584525008608E-01 -7.1194319021457E-01  1.3166742942424E+00
69  6.8000000000000E-01 -2.0865292205200E-01 -7.7945783823964E-01  1.4058697839868E+00
70  6.9000000000000E-01 -1.7492819004346E-01 -8.2702829459556E-01  1.5011056121898E+00
71  7.0000000000000E-01 -1.4458271028178E-01 -8.5629949989453E-01  1.5995122421212E+00
72  7.1000000000000E-01 -1.1742406573877E-01 -8.6925905302219E-01  1.6979259562830E+00
73  7.2000000000000E-01 -9.3189674121274E-02 -8.6811353061560E-01  1.7930192512770E+00
74  7.3000000000000E-01 -7.1579945347819E-02 -8.5516667048230E-01  1.8814363046851E+00
75  7.4000000000000E-01 -5.2288759052079E-02 -8.3270573480289E-01  1.9599274256160E+00
76  7.5000000000000E-01 -3.5029610694934E-02 -8.0290155510822E-01  2.0254766841602E+00
77  7.6000000000000E-01 -1.9556139164604E-02 -7.6772667017545E-01  2.0754174656641E+00
78  7.7000000000000E-01 -5.6761753958952E-03 -7.2889467138136E-01  2.1075314736474E+00
79  7.8000000000000E-01  6.7410864790409E-03 -6.8782244901354E-01  2.1201276601935E+00
80  7.9000000000000E-01  1.7764725140229E-02 -6.4561557407759E-01  2.1120986373596E+00
81  8.0000000000000E-01  2.7408017547623E-02 -6.0307563950333E-01  2.0829532566888E+00
82  8.1000000000000E-01  3.5639736559270E-02 -5.6072710369118E-01  2.0328251751029E+00
83  8.2000000000000E-01  4.2399574502761E-02 -5.1886009951084E-01  1.9624582965679E+00
84  8.3000000000000E-01  4.7616206543159E-02 -4.7758485085804E-01  1.8731709386091E+00
85  8.4000000000000E-01  5.1226369142822E-02 -4.3689281745883E-01  1.7668013787079E+00
86  8.5000000000000E-01  5.3193297838497E-02 -3.9671948843037E-01  1.6456380566689E+00
87  8.6000000000000E-01  5.3522944384516E-02 -3.5700386787473E-01  1.5123381263323E+00
88  8.7000000000000E-01  5.2276568912299E-02 -3.1774012350710E-01  1.3698382574649E+00
89  8.8000000000000E-01  4.9578565001414E-02 -2.7901756573187E-01  1.2212615927960E+00
90  8.9000000000000E-01  4.5618706199986E-02 -2.4104603775603E-01  1.0698245838562E+00
91  9.0000000000000E-01  4.0648379373034E-02 -2.0416486307608E-01  9.1874709019928E-01
92  9.1000000000000E-01  3.4970768557395E-02 -1.6883464271465E-01  7.7116866483966E-01
93  9.2000000000000E-01  2.8925347037295E-02 -1.3561234515282E-01  6.3007340427061E-01
94  9.3000000000000E-01  2.2867400055008E-02 -1.0511121265907E-01  4.9822515607912E-01
95  9.4000000000000E-01  1.7143562166273E-02 -7.7947811482154E-02  3.7811429303672E-01
96  9.5000000000000E-01  1.2065196591658E-02 -5.4680937028532E-02  2.7191669879528E-01
97  9.6000000000000E-01  7.7802599704893E-03 -3.5468932357539E-02  1.8146494697114E-01
98  9.7000000000000E-01  4.2819803813622E-03 -2.0093905034329E-02  1.0822551052906E-01
99  9.8000000000000E-01  1.8320850903044E-03 -9.1389749997846E-03  5.3302687467376E-02
100  9.9000000000000E-01  4.7606696412523E-04 -2.6658031696149E-03  1.7458444728941E-02
101  1.0000000000000E+00  2.2430592756811E-05 -1.6007556092105E-04  1.2434358476906E-03
102  1.0100000000000E+00  3.7092510748334E-07 -2.7198181587090E-06  2.1433961936711E-05
103  1.0200000000000E+00 -1.2767096806136E-07  8.3618379376601E-07 -6.1578036236109E-06
104  1.03  0.  0.  0.
105  1.04  0.  0.  0.
106  1.05  0.  0.  0.
107  1.06  0.  0.  0.
108  1.07  0.  0.  0.
109  1.08  0.  0.  0.
110  1.09  0.  0.  0.
111  1.10  0.  0.  0.
112  1.11  0.  0.  0.
113  1.12  0.  0.  0.
114  1.13  0.  0.  0.
115  1.14  0.  0.  0.
116  1.15  0.  0.  0.
117  1.16  0.  0.  0.
118  1.17  0.  0.  0.
119  1.18  0.  0.  0.
120  1.19  0.  0.  0.
121  1.20  0.  0.  0.
122  1.21  0.  0.  0.
123  1.22  0.  0.  0.
124  1.23  0.  0.  0.
125  1.24  0.  0.  0.
126  1.25  0.  0.  0.
127  1.26  0.  0.  0.
128  1.27  0.  0.  0.
129  1.28  0.  0.  0.
130  1.29  0.  0.  0.
131  1.30  0.  0.  0.
132  1.31  0.  0.  0.
133  1.32  0.  0.  0.
134  1.33  0.  0.  0.
135  1.34  0.  0.  0.
136  1.35  0.  0.  0.
137  1.36  0.  0.  0.
138  1.37  0.  0.  0.
139  1.38  0.  0.  0.
140  1.39  0.  0.  0.
141  1.40  0.  0.  0.
142  1.41  0.  0.  0.
143  1.42  0.  0.  0.
144  1.43  0.  0.  0.
145  1.44  0.  0.  0.
146  1.45  0.  0.  0.
147  1.46  0.  0.  0.
148  1.47  0.  0.  0.
149  1.48  0.  0.  0.
150  1.49  0.  0.  0.
151  1.50  0.  0.  0.
152  1.51  0.  0.  0.
153  1.52  0.  0.  0.
154  1.53  0.  0.  0.
155  1.54  0.  0.  0.
156  1.55  0.  0.  0.
157  1.56  0.  0.  0.
158  1.57  0.  0.  0.
159  1.58  0.  0.  0.
160  1.59  0.  0.  0.
161  1.60  0.  0.  0.
162  1.61  0.  0.  0.
163  1.62  0.  0.  0.
164  1.63  0.  0.  0.
165  1.64  0.  0.  0.
166  1.65  0.  0.  0.
167  1.66  0.  0.  0.
168  1.67  0.  0.  0.
169  1.68  0.  0.  0.
170  1.69  0.  0.  0.
171  1.70  0.  0.  0.
172  1.71  0.  0.  0.
173  1.72  0.  0.  0.
174  1.73  0.  0.  0.
175  1.74  0.  0.  0.
176  1.75  0.  0.  0.
177  1.76  0.  0.  0.
178  1.77  0.  0.  0.
179  1.78  0.  0.  0.
180  1.79  0.  0.  0.
181  1.80  0.  0.  0.
182  1.81  0.  0.  0.
183  1.82  0.  0.  0.
184  1.83  0.  0.  0.
185  1.84  0.  0.  0.
186  1.85  0.  0.  0.
187  1.86  0.  0.  0.
188  1.87  0.  0.  0.
189  1.88  0.  0.  0.
190  1.89  0.  0.  0.
191  1.90  0.  0.  0.
192  1.91  0.  0.  0.
193  1.92  0.  0.  0.
194  1.93  0.  0.  0.
195  1.94  0.  0.  0.
196  1.95  0.  0.  0.
197  1.96  0.  0.  0.
198  1.97  0.  0.  0.
199  1.98  0.  0.  0.
200  1.99  0.  0.  0.
201  2.00  0.  0.  0.
202  2.01  0.  0.  0.
203  2.02  0.  0.  0.
204  2.03  0.  0.  0.
205  2.04  0.  0.  0.
206  2.05  0.  0.  0.
207  2.06  0.  0.  0.
208  2.07  0.  0.  0.
209  2.08  0.  0.  0.
210  2.09  0.  0.  0.
211  2.10  0.  0.  0.
212  2.11  0.  0.  0.
213  2.12  0.  0.  0.
214  2.13  0.  0.  0.
215  2.14  0.  0.  0.
216  2.15  0.  0.  0.
217  2.16  0.  0.  0.
218  2.17  0.  0.  0.
219  2.18  0.  0.  0.
220  2.19  0.  0.  0.
221  2.20  0.  0.  0.
222  2.21  0.  0.  0.
223  2.22  0.  0.  0.
224  2.23  0.  0.  0.
225  2.24  0.  0.  0.
226  2.25  0.  0.  0.
227  2.26  0.  0.  0.
228  2.27  0.  0.  0.
229  2.28  0.  0.  0.
230  2.29  0.  0.  0.
231  2.30  0.  0.  0.
232  2.31  0.  0.  0.
233  2.32  0.  0.  0.
234  2.33  0.  0.  0.
235  2.34  0.  0.  0.
236  2.35  0.  0.  0.
237  2.36  0.  0.  0.
238  2.37  0.  0.  0.
239  2.38  0.  0.  0.
240  2.39  0.  0.  0.
241  2.40  0.  0.  0.
242  2.41  0.  0.  0.
243  2.42  0.  0.  0.
244  2.43  0.  0.  0.
245  2.44  0.  0.  0.
246  2.45  0.  0.  0.
247  2.46  0.  0.  0.
248  2.47  0.  0.  0.
249  2.48  0.  0.  0.
250  2.49  0.  0.  0.
251  2.50  0.  0.  0.
252  2.51  0.  0.  0.
253  2.52  0.  0.  0.
254  2.53  0.  0.  0.
255  2.54  0.  0.  0.
256  2.55  0.  0.  0.
257  2.56  0.  0.  0.
258  2.57  0.  0.  0.
259  2.58  0.  0.  0.
260  2.59  0.  0.  0.
261  2.60  0.  0.  0.
262  2.61  0.  0.  0.
263  2.62  0.  0.  0.
264  2.63  0.  0.  0.
265  2.64  0.  0.  0.
266  2.65  0.  0.  0.
267  2.66  0.  0.  0.
268  2.67  0.  0.  0.
269  2.68  0.  0.  0.
270  2.69  0.  0.  0.
271  2.70  0.  0.  0.
272  2.71  0.  0.  0.
273  2.72  0.  0.  0.
274  2.73  0.  0.  0.
275  2.74  0.  0.  0.
276  2.75  0.  0.  0.
277  2.76  0.  0.  0.
278  2.77  0.  0.  0.
279  2.78  0.  0.  0.
280  2.79  0.  0.  0.
281  2.80  0.  0.  0.
282  2.81  0.  0.  0.
283  2.82  0.  0.  0.
284  2.83  0.  0.  0.
285  2.84  0.  0.  0.
286  2.85  0.  0.  0.
287  2.86  0.  0.  0.
288  2.87  0.  0.  0.
289  2.88  0.  0.  0.
290  2.89  0.  0.  0.
291  2.90  0.  0.  0.
292  2.91  0.  0.  0.
293  2.92  0.  0.  0.
294  2.93  0.  0.  0.
295  2.94  0.  0.  0.
296  2.95  0.  0.  0.
297  2.96  0.  0.  0.
298  2.97  0.  0.  0.
299  2.98  0.  0.  0.
300  2.99  0.  0.  0.
301  3.00  0.  0.  0.
302  3.01  0.  0.  0.
303  3.02  0.  0.  0.
304  3.03  0.  0.  0.
305  3.04  0.  0.  0.
306  3.05  0.  0.  0.
307  3.06  0.  0.  0.
308  3.07  0.  0.  0.
309  3.08  0.  0.  0.
310  3.09  0.  0.  0.
311  3.10  0.  0.  0.
312  3.11  0.  0.  0.
313  3.12  0.  0.  0.
314  3.13  0.  0.  0.
315  3.14  0.  0.  0.
316  3.15  0.  0.  0.
317  3.16  0.  0.  0.
318  3.17  0.  0.  0.
319  3.18  0.  0.  0.
320  3.19  0.  0.  0.
321  3.20  0.  0.  0.
322  3.21  0.  0.  0.
323  3.22  0.  0.  0.
324  3.23  0.  0.  0.
325  3.24  0.  0.  0.
326  3.25  0.  0.  0.
327  3.26  0.  0.  0.
328  3.27  0.  0.  0.
329  3.28  0.  0.  0.
330  3.29  0.  0.  0.
331  3.30  0.  0.  0.
332  3.31  0.  0.  0.
333  3.32  0.  0.  0.
334  3.33  0.  0.  0.
335  3.34  0.  0.  0.
336  3.35  0.  0.  0.
337  3.36  0.  0.  0.
338  3.37  0.  0.  0.
339  3.38  0.  0.  0.
340  3.39  0.  0.  0.
341  3.40  0.  0.  0.
342  3.41  0.  0.  0.
343  3.42  0.  0.  0.
344  3.43  0.  0.  0.
345  3.44  0.  0.  0.
346  3.45  0.  0.  0.
347  3.46  0.  0.  0.
348  3.47  0.  0.  0.
349  3.48  0.  0.  0.
350  3.49  0.  0.  0.
351  3.50  0.  0.  0.
352  3.51  0.  0.  0.
353  3.52  0.  0.  0.
354  3.53  0.  0.  0.
355  3.54  0.  0.  0.
356  3.55  0.  0.  0.
357  3.56  0.  0.  0.
358  3.57  0.  0.  0.
359  3.58  0.  0.  0.
360  3.59  0.  0.  0.
361  3.60  0.  0.  0.
362  3.61  0.  0.  0.
363  3.62  0.  0.  0.
364  3.63  0.  0.  0.
365  3.64  0.  0.  0.
366  3.65  0.  0.  0.
367  3.66  0.  0.  0.
368  3.67  0.  0.  0.
369  3.68  0.  0.  0.
370  3.69  0.  0.  0.
371  3.70  0.  0.  0.
372  3.71  0.  0.  0.
373  3.72  0.  0.  0.
374  3.73  0.  0.  0.
375  3.74  0.  0.  0.
376  3.75  0.  0.  0.
377  3.76  0.  0.  0.
378  3.77  0.  0.  0.
379  3.78  0.  0.  0.
380  3.79  0.  0.  0.
381  3.80  0.  0.  0.
382  3.81  0.  0.  0.
383  3.82  0.  0.  0.
384  3.83  0.  0.  0.
385  3.84  0.  0.  0.
386  3.85  0.  0.  0.
387  3.86  0.  0.  0.
388  3.87  0.  0.  0.
389  3.88  0.  0.  0.
390  3.89  0.  0.  0.
391  3.90  0.  0.  0.
392  3.91  0.  0.  0.
393  3.92  0.  0.  0.
394  3.93  0.  0.  0.
395  3.94  0.  0.  0.
396  3.95  0.  0.  0.
397  3.96  0.  0.  0.
398  3.97  0.  0.  0.
399  3.98  0.  0.  0.
400  3.99  0.  0.  0.
401  4.00  0.  0.  0.
402  4.01  0.  0.  0.
403  4.02  0.  0.  0.
404  4.03  0.  0.  0.
405  4.04  0.  0.  0.
406  4.05  0.  0.  0.
407  4.06  0.  0.  0.
408  4.07  0.  0.  0.
409  4.08  0.  0.  0.
410  4.09  0.  0.  0.
411  4.10  0.  0.  0.
412  4.11  0.  0.  0.
413  4.12  0.  0.  0.
414  4.13  0.  0.  0.
415  4.14  0.  0.  0.
416  4.15  0.  0.  0.
417  4.16  0.  0.  0.
418  4.17  0.  0.  0.
419  4.18  0.  0.  0.
420  4.19  0.  0.  0.
421  4.20  0.  0.  0.
422  4.21  0.  0.  0.
423  4.22  0.  0.  0.
424  4.23  0.  0.  0.
425  4.24  0.  0.  0.
426  4.25  0.  0.  0.
427  4.26  0.  0.  0.
428  4.27  0.  0.  0.
429  4.28  0.  0.  0.
430  4.29  0.  0.  0.
431  4.30  0.  0.  0.
432  4.31  0.  0.  0.
433  4.32  0.  0.  0.
434  4.33  0.  0.  0.
435  4.34  0.  0.  0.
436  4.35  0.  0.  0.
437  4.36  0.  0.  0.
438  4.37  0.  0.  0.
439  4.38  0.  0.  0.
440  4.39  0.  0.  0.
441  4.40  0.  0.  0.
442  4.41  0.  0.  0.
443  4.42  0.  0.  0.
444  4.43  0.  0.  0.
445  4.44  0.  0.  0.
446  4.45  0.  0.  0.
447  4.46  0.  0.  0.
448  4.47  0.  0.  0.
449  4.48  0.  0.  0.
450  4.49  0.  0.  0.
451  4.50  0.  0.  0.
452  4.51  0.  0.  0.
453  4.52  0.  0.  0.
454  4.53  0.  0.  0.
455  4.54  0.  0.  0.
456  4.55  0.  0.  0.
457  4.56  0.  0.  0.
458  4.57  0.  0.  0.
459  4.58  0.  0.  0.
460  4.59  0.  0.  0.
461  4.60  0.  0.  0.
462  4.61  0.  0.  0.
463  4.62  0.  0.  0.
464  4.63  0.  0.  0.
465  4.64  0.  0.  0.
466  4.65  0.  0.  0.
467  4.66  0.  0.  0.
468  4.67  0.  0.  0.
469  4.68  0.  0.  0.
470  4.69  0.  0.  0.
471  4.70  0.  0.  0.
472  4.71  0.  0.  0.
473  4.72  0.  0.  0.
474  4.73  0.  0.  0.
475  4.74  0.  0.  0.
476  4.75  0.  0.  0.
477  4.76  0.  0.  0.
478  4.77  0.  0.  0.
479  4.78  0.  0.  0.
480  4.79  0.  0.  0.
481  4.80  0.  0.  0.
482  4.81  0.  0.  0.
483  4.82  0.  0.  0.
484  4.83  0.  0.  0.
485  4.84  0.  0.  0.
486  4.85  0.  0.  0.
487  4.86  0.  0.  0.
488  4.87  0.  0.  0.
489  4.88  0.  0.  0.
490  4.89  0.  0.  0.
491  4.90  0.  0.  0.
492  4.91  0.  0.  0.
493  4.92  0.  0.  0.
494  4.93  0.  0.  0.
495  4.94  0.  0.  0.
496  4.95  0.  0.  0.
497  4.96  0.  0.  0.
498  4.97  0.  0.  0.
499  4.98  0.  0.  0.
500  4.99  0.  0.  0.
501  5.00  0.  0.  0.
502  5.01  0.  0.  0.
503  5.02  0.  0.  0.
504  5.03  0.  0.  0.
505  5.04  0.  0.  0.
506  5.05  0.  0.  0.
507  5.06  0.  0.  0.
508  5.07  0.  0.  0.
509  5.08  0.  0.  0.
510  5.09  0.  0.  0.
511  5.10  0.  0.  0.
512  5.11  0.  0.  0.
513  5.12  0.  0.  0.
514  5.13  0.  0.  0.
515  5.14  0.  0.  0.
516  5.15  0.  0.  0.
517  5.16  0.  0.  0.
518  5.17  0.  0.  0.
519  5.18  0.  0.  0.
520  5.19  0.  0.  0.
521  5.20  0.  0.  0.
522  5.21  0.  0.  0.
523  5.22  0.  0.  0.
524  5.23  0.  0.  0.
525  5.24  0.  0.  0.
526  5.25  0.  0.  0.
527  5.26  0.  0.  0.
528  5.27  0.  0.  0.
529  5.28  0.  0.  0.
530  5.29  0.  0.  0.
531  5.30  0.  0.  0.
532  5.31  0.  0.  0.
533  5.32  0.  0.  0.
534  5.33  0.  0.  0.
535  5.34  0.  0.  0.
536  5.35  0.  0.  0.
537  5.36  0.  0.  0.
538  5.37  0.  0.  0.
539  5.38  0.  0.  0.
540  5.39  0.  0.  0.
541  5.40  0.  0.  0.
542  5.41  0.  0.  0.
543  5.42  0.  0.  0.
544  5.43  0.  0.  0.
545  5.44  0.  0.  0.
546  5.45  0.  0.  0.
547  5.46  0.  0.  0.
548  5.47  0.  0.  0.
549  5.48  0.  0.  0.
550  5.49  0.  0.  0.
551  5.50  0.  0.  0.
552  5.51  0.  0.  0.
553  5.52  0.  0.  0.
554  5.53  0.  0.  0.
555  5.54  0.  0.  0.
556  5.55  0.  0.  0.
557  5.56  0.  0.  0.
558  5.57  0.  0.  0.
559  5.58  0.  0.  0.
560  5.59  0.  0.  0.
561  5.60  0.  0.  0.
562  5.61  0.  0.  0.
563  5.62  0.  0.  0.
564  5.63  0.  0.  0.
565  5.64  0.  0.  0.
566  5.65  0.  0.  0.
567  5.66  0.  0.  0.
568  5.67  0.  0.  0.
569  5.68  0.  0.  0.
570  5.69  0.  0.  0.
571  5.70  0.  0.  0.
572  5.71  0.  0.  0.
573  5.72  0.  0.  0.
574  5.73  0.  0.  0.
575  5.74  0.  0.  0.
576  5.75  0.  0.  0.
577  5.76  0.  0.  0.
578  5.77  0.  0.  0.
579  5.78  0.  0.  0.
580  5.79  0.  0.  0.
581  5.80  0.  0.  0.
582  5.81  0.  0.  0.
583  5.82  0.  0.  0.
584  5.83  0.  0.  0.
585  5.84  0.  0.  0.
586  5.85  0.  0.  0.
587  5.86  0.  0.  0.
588  5.87  0.  0.  0.
589  5.88  0.  0.  0.
590  5.89  0.  0.  0.
591  5.90  0.  0.  0.
592  5.91  0.  0.  0.
593  5.92  0.  0.  0.
594  5.93  0.  0.  0.
595  5.94  0.  0.  0.
596  5.95  0.  0.  0.
597  5.96  0.  0.  0.
598  5.97  0.  0.  0.
599  5.98  0.  0.  0.
600  5.99  0.  0.  0.
1                         1.2375289584302E+01 -2.8023016081705E+00
1  0.0000000000000E+00  3.6020101845669E-08 -3.9894944392493E-07
2  1.0000000000000E-02  4.1929555976747E-03  2.8008184125738E-03
3  2.0000000000000E-02  1.6729692726132E-02  1.1247799740991E-02
4  3.0000000000000E-02  3.7484578989790E-02  2.5469002954602E-02
5  4.0000000000000E-02  6.6250720623954E-02  4.5659791035858E-02
6  5.0000000000000E-02  1.0274360471089E-01  7.2056862426148E-02
7  6.0000000000000E-02  1.4660600695722E-01  1.0490410259091E-01
8  7.0000000000000E-02  1.9741398495246E-01  1.4441232344847E-01
9  8.0000000000000E-02  2.5468374080828E-01  1.9071535735655E-01
10  9.0000000000000E-02  3.1787911155890E-01  2.4382524078525E-01
11  1.0000000000000E-01  3.8641943189044E-01  3.0358934576562E-01
12  1.1000000000000E-01  4.5968751227951E-01  3.6965228705897E-01
13  1.2000000000000E-01  5.3703748645553E-01  4.4142524987310E-01
14  1.3000000000000E-01  6.1780230463109E-01  5.1806505477189E-01
15  1.4000000000000E-01  7.0130068194765E-01  5.9846481854141E-01
16  1.5000000000000E-01  7.8684335330424E-01  6.8125750427269E-01
17  1.6000000000000E-01  8.7373853396508E-01  7.6483300855080E-01
18  1.7000000000000E-01  9.6129653752901E-01  8.4736874049001E-01
19  1.8000000000000E-01  1.0488335562227E+00  9.2687294127906E-01
20  1.9000000000000E-01  1.1356746602086E+00  1.0012393098056E+00
21  2.0000000000000E-01  1.2211561198988E+00  1.0683108749974E+00
22  2.1000000000000E-01  1.3046271955704E+00  1.1259505214357E+00
23  2.2000000000000E-01  1.3854515696552E+00  1.1721151601128E+00
24  2.3000000000000E-01  1.4630086171577E+00  1.2049302638352E+00
25  2.4000000000000E-01  1.5366947175206E+00  1.2227613728258E+00
26  2.5000000000000E-01  1.6059248063172E+00  1.2242792289242E+00
27  2.6000000000000E-01  1.6701343474670E+00  1.2085154165807E+00
28  2.7000000000000E-01  1.7287818769902E+00  1.1749057673873E+00
29  2.8000000000000E-01  1.7813522290132E+00  1.1233193059359E+00
30  2.9000000000000E-01  1.8273605057837E+00  1.0540711547244E+00
31  3.0000000000000E-01  1.8663567982985E+00  9.6791854474212E-01
32  3.1000000000000E-01  1.8979316056466E+00  8.6603986144820E-01
33  3.2000000000000E-01  1.9217218423865E+00  7.4999745507137E-01
34  3.3000000000000E-01  1.9374172674033E+00  6.2168572004446E-01
35  3.4000000000000E-01  1.9447671178196E+00  4.8326666204479E-01
36  3.5000000000000E-01  1.9435866905610E+00  3.3709578609606E-01
37  3.6000000000000E-01  1.9337635845980E+00  1.8564162340347E-01
38  3.7000000000000E-01  1.9152633007097E+00  3.1402541926928E-02
39  3.8000000000000E-01  1.8881338942094E+00 -1.2317536256459E-01
40  3.9000000000000E-01  1.8525093901142E+00 -2.7577553234053E-01
41  4.0000000000000E-01  1.8086116996408E+00 -4.2427982899409E-01
42  4.1000000000000E-01  1.7567508208178E+00 -5.6682588872977E-01
43  4.2000000000000E-01  1.6973231628067E+00 -7.0185037188675E-01
44  4.3000000000000E-01  1.6308079009505E+00 -8.2811622463448E-01
45  4.4000000000000E-01  1.5577613447148E+00 -9.4472287164320E-01
46  4.5000000000000E-01  1.4788093802335E+00 -1.0510991239426E+00
47  4.6000000000000E-01  1.3946381294522E+00 -1.1469794735824E+00
48  4.7000000000000E-01  1.3059830450826E+00 -1.2323653116579E+00
49  4.8000000000000E-01  1.2136167310055E+00 -1.3074734046044E+00
50  4.9000000000000E-01  1.1183358378396E+00 -1.3726746537557E+00
51  5.0000000000000E-01  1.0209474300339E+00 -1.4284267079569E+00
52  5.1000000000000E-01  9.2225525146083E-01 -1.4752043680682E+00
53  5.2000000000000E-01  8.2304632924899E-01 -1.5134318932302E+00
54  5.3000000000000E-01  7.2407834943632E-01 -1.5434212790174E+00
55  5.4000000000000E-01  6.2606821277956E-01 -1.5653203246423E+00
56  5.5000000000000E-01  5.2968213545556E-01 -1.5790738483981E+00
57  5.6000000000000E-01  4.3552759904982E-01 -1.5844007662298E+00
58  5.7000000000000E-01  3.4414737959986E-01 -1.5807889461504E+00
59  5.8000000000000E-01  2.5601579972157E-01 -1.5675088281891E+00
60  5.9000000000000E-01  1.7153725476539E-01 -1.5436457995750E+00
61  6.0000000000000E-01  9.1046967717336E-02 -1.5081502867340E+00
62  6.1000000000000E-01  1.4813832598470E-02 -1.4599035207388E+00
63  6.2000000000000E-01 -5.6954883132937E-02 -1.3977960025457E+00
64  6.3000000000000E-01 -1.2410728595679E-01 -1.3208148876229E+00
65  6.4000000000000E-01 -1.8653942769332E-01 -1.2281358704148E+00
66  6.5000000000000E-01 -2.4418712357123E-01 -1.1192147142922E+00
67  6.6000000000000E-01 -2.9701746840789E-01 -9.9387336974559E-01
68  6.7000000000000E-01 -3.4502050996031E-01 -8.5237566938947E-01
69  6.8000000000000E-01 -3.8820152428999E-01 -6.9548788783357E-01
70  6.9000000000000E-01 -4.2657430235028E-01 -5.2452000017087E-01
71  7.0000000000000E-01 -4.6015580136810E-01 -3.4134424522518E-01
72  7.1000000000000E-01 -4.8896244137733E-01 -1.4838856733333E-01
73  7.2000000000000E-01 -5.1300823972854E-01  5.1396367932841E-02
74  7.3000000000000E-01 -5.3230487858795E-01  2.5459666341429E-01
75  7.4000000000000E-01 -5.4686369689659E-01  4.5741999182838E-01
76  7.5000000000000E-01 -5.5669949390340E-01  6.5580325511651E-01
77  7.6000000000000E-01 -5.6183593123549E-01  8.4553946071569E-01
78  7.7000000000000E-01 -5.6231222940551E-01  1.0224191187609E+00
79  7.8000000000000E-01 -5.5819077721006E-01  1.1823805950452E+00
80  7.9000000000000E-01 -5.4956521258272E-01  1.3216632174382E+00
81  8.0000000000000E-01 -5.3656849428080E-01  1.4369565645213E+00
82  8.1000000000000E-01 -5.1938046751719E-01  1.5255392887527E+00
83  8.2000000000000E-01 -4.9823443444214E-01  1.5854010534745E+00
84  8.3000000000000E-01 -4.7342227224903E-01  1.6153416904815E+00
85  8.4000000000000E-01 -4.4529769648718E-01  1.6150424953816E+00
86  8.5000000000000E-01 -4.1427734267542E-01  1.5851056407916E+00
87  8.6000000000000E-01 -3.8083943226808E-01  1.5270589593263E+00
88  8.7000000000000E-01 -3.4551989530765E-01  1.4433247756281E+00
89  8.8000000000000E-01 -3.0890593690058E-01  1.3371529875041E+00
90  8.9000000000000E-01 -2.7162715270672E-01  1.2125201433537E+00
91  9.0000000000000E-01 -2.3434441445747E-01  1.0739977669943E+00
92  9.1000000000000E-01 -1.9773685467105E-01  9.2659457314272E-01
93  9.2000000000000E-01 -1.6248737507571E-01  7.7557843277993E-01
94  9.3000000000000E-01 -1.2926718119975E-01  6.2628493032549E-01
95  9.4000000000000E-01 -9.8719900665566E-02  4.8391996207107E-01
96  9.5000000000000E-01 -7.1445891158070E-02  3.5336530886267E-01
97  9.6000000000000E-01 -4.7982513624623E-02  2.3879673783035E-01
98  9.7000000000000E-01 -2.8787525089938E-02  1.4355588892546E-01
99  9.8000000000000E-01 -1.4254800339677E-02  7.0932982608903E-02
100  9.9000000000000E-01 -4.6906461329472E-03  2.3196391521439E-02
101  1.0000000000000E+00 -3.3532724225442E-04  1.6410582800582E-03
102  1.0100000000000E+00 -5.7858433394586E-06  2.8293417684532E-05
103  1.0200000000000E+00  1.6598439705585E-06 -8.1481282636079E-06
104  1.03  0.  0.
105  1.04  0.  0.
106  1.05  0.  0.
107  1.06  0.  0.
108  1.07  0.  0.
109  1.08  0.  0.
110  1.09  0.  0.
111  1.10  0.  0.
112  1.11  0.  0.
113  1.12  0.  0.
114  1.13  0.  0.
115  1.14  0.  0.
116  1.15  0.  0.
117  1.16  0.  0.
118  1.17  0.  0.
119  1.18  0.  0.
120  1.19  0.  0.
121  1.20  0.  0.
122  1.21  0.  0.
123  1.22  0.  0.
124  1.23  0.  0.
125  1.24  0.  0.
126  1.25  0.  0.
127  1.26  0.  0.
128  1.27  0.  0.
129  1.28  0.  0.
130  1.29  0.  0.
131  1.30  0.  0.
132  1.31  0.  0.
133  1.32  0.  0.
134  1.33  0.  0.
135  1.34  0.  0.
136  1.35  0.  0.
137  1.36  0.  0.
138  1.37  0.  0.
139  1.38  0.  0.
140  1.39  0.  0.
141  1.40  0.  0.
142  1.41  0.  0.
143  1.42  0.  0.
144  1.43  0.  0.
145  1.44  0.  0.
146  1.45  0.  0.
147  1.46  0.  0.
148  1.47  0.  0.
149  1.48  0.  0.
150  1.49  0.  0.
151  1.50  0.  0.
152  1.51  0.  0.
153  1.52  0.  0.
154  1.53  0.  0.
155  1.54  0.  0.
156  1.55  0.  0.
157  1.56  0.  0.
158  1.57  0.  0.
159  1.58  0.  0.
160  1.59  0.  0.
161  1.60  0.  0.
162  1.61  0.  0.
163  1.62  0.  0.
164  1.63  0.  0.
165  1.64  0.  0.
166  1.65  0.  0.
167  1.66  0.  0.
168  1.67  0.  0.
169  1.68  0.  0.
170  1.69  0.  0.
171  1.70  0.  0.
172  1.71  0.  0.
173  1.72  0.  0.
174  1.73  0.  0.
175  1.74  0.  0.
176  1.75  0.  0.
177  1.76  0.  0.
178  1.77  0.  0.
179  1.78  0.  0.
180  1.79  0.  0.
181  1.80  0.  0.
182  1.81  0.  0.
183  1.82  0.  0.
184  1.83  0.  0.
185  1.84  0.  0.
186  1.85  0.  0.
187  1.86  0.  0.
188  1.87  0.  0.
189  1.88  0.  0.
190  1.89  0.  0.
191  1.90  0.  0.
192  1.91  0.  0.
193  1.92  0.  0.
194  1.93  0.  0.
195  1.94  0.  0.
196  1.95  0.  0.
197  1.96  0.  0.
198  1.97  0.  0.
199  1.98  0.  0.
200  1.99  0.  0.
201  2.00  0.  0.
202  2.01  0.  0.
203  2.02  0.  0.
204  2.03  0.  0.
205  2.04  0.  0.
206  2.05  0.  0.
207  2.06  0.  0.
208  2.07  0.  0.
209  2.08  0.  0.
210  2.09  0.  0.
211  2.10  0.  0.
212  2.11  0.  0.
213  2.12  0.  0.
214  2.13  0.  0.
215  2.14  0.  0.
216  2.15  0.  0.
217  2.16  0.  0.
218  2.17  0.  0.
219  2.18  0.  0.
220  2.19  0.  0.
221  2.20  0.  0.
222  2.21  0.  0.
223  2.22  0.  0.
224  2.23  0.  0.
225  2.24  0.  0.
226  2.25  0.  0.
227  2.26  0.  0.
228  2.27  0.  0.
229  2.28  0.  0.
230  2.29  0.  0.
231  2.30  0.  0.
232  2.31  0.  0.
233  2.32  0.  0.
234  2.33  0.  0.
235  2.34  0.  0.
236  2.35  0.  0.
237  2.36  0.  0.
238  2.37  0.  0.
239  2.38  0.  0.
240  2.39  0.  0.
241  2.40  0.  0.
242  2.41  0.  0.
243  2.42  0.  0.
244  2.43  0.  0.
245  2.44  0.  0.
246  2.45  0.  0.
247  2.46  0.  0.
248  2.47  0.  0.
249  2.48  0.  0.
250  2.49  0.  0.
251  2.50  0.  0.
252  2.51  0.  0.
253  2.52  0.  0.
254  2.53  0.  0.
255  2.54  0.  0.
256  2.55  0.  0.
257  2.56  0.  0.
258  2.57  0.  0.
259  2.58  0.  0.
260  2.59  0.  0.
261  2.60  0.  0.