Fm    ONCVPSP-4.0.1  r_core=   1.15134   1.15134   1.15134   1.25191
100.0000     40.0000      221022    zatom,zion,pspd
8      11   3     4   600     0    pspcod,pspxc,lmax,lloc,mmax,r2well
5.99000000  5.00000000  0.00000000    rchrg fchrg qchrg
3     2     2     2     0    nproj
1     1           extension_switch
0                         2.5706263665773E+01  2.9408064656753E+00 -1.0882195000844E+00
1  0.0000000000000E+00 -2.4955842059526E-08  8.5126620696929E-08  7.5763132989515E-09
2  1.0000000000000E-02  1.6188728255267E-01 -5.3073183717766E-02  3.4780713373223E-02
3  2.0000000000000E-02  3.2264895619872E-01 -1.0494699064541E-01  6.9442969099761E-02
4  3.0000000000000E-02  4.8117106630318E-01 -1.5444592644070E-01  1.0386813678133E-01
5  4.0000000000000E-02  6.3636274550933E-01 -2.0044158970244E-01  1.3793729103864E-01
6  5.0000000000000E-02  7.8716721107476E-01 -2.4187456197588E-01  1.7153118826247E-01
7  6.0000000000000E-02  9.3257212559606E-01 -2.7777437470642E-01  2.0453038674521E-01
8  7.0000000000000E-02  1.0716191397530E+00 -3.0727701737245E-01  2.3681554867585E-01
9  8.0000000000000E-02  1.2034124606596E+00 -3.2963953615494E-01  2.6826795490528E-01
10  9.0000000000000E-02  1.3271263188267E+00 -3.4425137277845E-01  2.9877025440803E-01
11  1.0000000000000E-01  1.4420112395425E+00 -3.5064220484611E-01  3.2820746028554E-01
12  1.1000000000000E-01  1.5473990594521E+00 -3.4848616792861E-01  3.5646819331526E-01
13  1.2000000000000E-01  1.6427066649936E+00 -3.3760246143135E-01  3.8344616282038E-01
14  1.3000000000000E-01  1.7274384648253E+00 -3.1795246033745E-01  4.0904186340020E-01
15  1.4000000000000E-01  1.8011876421682E+00 -2.8963356887284E-01  4.3316445521093E-01
16  1.5000000000000E-01  1.8636362639010E+00 -2.5287015576432E-01  4.5573378539930E-01
17  1.6000000000000E-01  1.9145543501815E+00 -2.0800200028399E-01  4.7668249932542E-01
18  1.7000000000000E-01  1.9537980304223E+00 -1.5547075045071E-01  4.9595818269115E-01
19  1.8000000000000E-01  1.9813069278747E+00 -9.5804947028115E-02  5.1352546989818E-01
20  1.9000000000000E-01  1.9971009253924E+00 -2.9604197526795E-02  5.2936805012364E-01
21  2.0000000000000E-01  2.0012764688765E+00  4.2476907682233E-02  5.4349050088975E-01
22  2.1000000000000E-01  1.9940025624541E+00  1.1974455988018E-01  5.5591987942005E-01
23  2.2000000000000E-01  1.9755166008560E+00  2.0148063668971E-01  5.6670700484986E-01
24  2.3000000000000E-01  1.9461201702148E+00  2.8695626363534E-01  5.7592736935656E-01
25  2.4000000000000E-01  1.9061749293300E+00  3.7544362433456E-01  5.8368162338523E-01
26  2.5000000000000E-01  1.8560986602258E+00  4.6622570097855E-01  5.9009558919312E-01
27  2.6000000000000E-01  1.7963615506406E+00  5.5860372782247E-01  5.9531976768333E-01
28  2.7000000000000E-01  1.7274827430959E+00  6.5190224855301E-01  5.9952831565127E-01
29  2.8000000000000E-01  1.6500271566580E+00  7.4547177928254E-01  6.0291748378734E-01
30  2.9000000000000E-01  1.5646025596789E+00  8.3868918808838E-01  6.0570351969088E-01
31  3.0000000000000E-01  1.4718568459325E+00  9.3095600509749E-01  6.0812005435290E-01
32  3.1000000000000E-01  1.3724754437878E+00  1.0216949699970E+00  6.1041500464749E-01
33  3.2000000000000E-01  1.2671787694173E+00  1.1103452027940E+00  6.1284703791991E-01
34  3.3000000000000E-01  1.1567196213849E+00  1.1963564454991E+00  6.1568165737623E-01
35  3.4000000000000E-01  1.0418804059373E+00  1.2791828646568E+00  6.1918697828809E-01
36  3.5000000000000E-01  9.2347008037072E-01  1.3582769255842E+00  6.2362927469093E-01
37  3.6000000000000E-01  8.0232070613289E-01  1.4330838479033E+00  6.2926838398233E-01
38  3.7000000000000E-01  6.7928351375881E-01  1.5030371284721E+00  6.3635306238401E-01
39  3.8000000000000E-01  5.5522439800100E-01  1.5675555729842E+00  6.4511638744345E-01
40  3.9000000000000E-01  4.3101878301425E-01  1.6260422130345E+00  6.5577130451412E-01
41  4.0000000000000E-01  3.0754582338587E-01  1.6778854038360E+00  6.6850641243399E-01
42  4.1000000000000E-01  1.8568193617627E-01  1.7224623021752E+00  6.8348207945623E-01
43  4.2000000000000E-01  6.6293690796739E-02  1.7591448183669E+00  7.0082697398505E-01
44  4.3000000000000E-01 -4.9769883754147E-02  1.7873080240475E+00  7.2063508600719E-01
45  4.4000000000000E-01 -1.6168548236837E-01  1.8063408840609E+00  7.4296330452397E-01
46  4.5000000000000E-01 -2.6866407530531E-01  1.8156590699168E+00  7.6782960407035E-01
47  4.6000000000000E-01 -3.6995967706952E-01  1.8147195087707E+00  7.9521187989412E-01
48  4.7000000000000E-01 -4.6487815831188E-01  1.8030362297371E+00  8.2504745693046E-01
49  4.8000000000000E-01 -5.5278590774986E-01  1.7801969923317E+00  8.5723328273889E-01
50  4.9000000000000E-01 -6.3311813850934E-01  1.7458801231356E+00  8.9162679947924E-01
51  5.0000000000000E-01 -7.0538662738165E-01  1.6998709488575E+00  9.2804747519392E-01
52  5.1000000000000E-01 -7.6918667668414E-01  1.6420771985734E+00  9.6627896053019E-01
53  5.2000000000000E-01 -8.2420309685734E-01  1.5725427558695E+00  1.0060718239450E+00
54  5.3000000000000E-01 -8.7021502351695E-01  1.4914591729290E+00  1.0471468067215E+00
55  5.4000000000000E-01 -9.0709940501775E-01  1.3991744123431E+00  1.0891985290758E+00
56  5.5000000000000E-01 -9.3483302504734E-01  1.2961983568701E+00  1.1318995704880E+00
57  5.6000000000000E-01 -9.5349295848544E-01  1.1832047199701E+00  1.1749048413196E+00
58  5.7000000000000E-01 -9.6325539667663E-01  1.0610290975019E+00  1.2178561589068E+00
59  5.8000000000000E-01 -9.6439281914691E-01  9.3066301969616E-01  1.2603869396855E+00
60  5.9000000000000E-01 -9.5726953131335E-01  7.9324398823599E-01  1.3021269194925E+00
61  6.0000000000000E-01 -9.4233563048583E-01  6.5004161151670E-01  1.3427068169281E+00
62  6.1000000000000E-01 -9.2011950402805E-01  5.0244007737865E-01  1.3817628593974E+00
63  6.2000000000000E-01 -8.9121900255328E-01  3.5191732234988E-01  1.4189410979941E+00
64  6.3000000000000E-01 -8.5629146619050E-01  2.0002136546344E-01  1.4539014454991E+00
65  6.4000000000000E-01 -8.1604281211852E-01  4.8344369222149E-02  1.4863213811472E+00
66  6.5000000000000E-01 -7.7121591575161E-01 -1.0150493302622E-01  1.5158992761760E+00
67  6.6000000000000E-01 -7.2257853540843E-01 -2.4792974777705E-01  1.5423573051561E+00
68  6.7000000000000E-01 -6.7091104047896E-01 -3.8937394064413E-01  1.5654439193923E+00
69  6.8000000000000E-01 -6.1699420574964E-01 -5.2435022416351E-01  1.5849358699309E+00
70  6.9000000000000E-01 -5.6159732964536E-01 -6.5146708707866E-01  1.6006397785914E+00
71  7.0000000000000E-01 -5.0546692194399E-01 -7.6945377404399E-01  1.6123932656537E+00
72  7.1000000000000E-01 -4.4931618751171E-01 -8.7718268221385E-01  1.6200656521120E+00
73  7.2000000000000E-01 -3.9381550751154E-01 -9.7368861809295E-01  1.6235582625174E+00
74  7.3000000000000E-01 -3.3958408926802E-01 -1.0581844514912E+00  1.6228043611853E+00
75  7.4000000000000E-01 -2.8718292160084E-01 -1.1300728100864E+00  1.6177687598157E+00
76  7.5000000000000E-01 -2.3710913515454E-01 -1.1889535741991E+00  1.6084471382712E+00
77  7.6000000000000E-01 -1.8979182831407E-01 -1.2346270528850E+00  1.5948651223542E+00
78  7.7000000000000E-01 -1.4558937998773E-01 -1.2670928452337E+00  1.5770771629534E+00
79  7.8000000000000E-01 -1.0478823212021E-01 -1.2865445107296E+00  1.5551652599560E+00
80  7.9000000000000E-01 -6.7603088463969E-02 -1.2933602857949E+00  1.5292375719754E+00
81  8.0000000000000E-01 -3.4178442968556E-02 -1.2880901866228E+00  1.4994269493902E+00
82  8.1000000000000E-01 -4.5913220819267E-03 -1.2714399280210E+00  1.4658894236264E+00
83  8.2000000000000E-01  2.1144898937796E-02 -1.2442521616404E+00  1.4288026802656E+00
84  8.3000000000000E-01  4.3075764365251E-02 -1.2074855927488E+00  1.3883645376790E+00
85  8.4000000000000E-01  6.1300262641374E-02 -1.1621925713537E+00  1.3447914467201E+00
86  8.5000000000000E-01  7.5964785970770E-02 -1.1094957704294E+00  1.2983170208131E+00
87  8.6000000000000E-01  8.7256704732014E-02 -1.0505645614111E+00  1.2491905998062E+00
88  8.7000000000000E-01  9.5397732130597E-02 -9.8659167577718E-01  1.1976758454354E+00
89  8.8000000000000E-01  1.0063724496448E-01 -9.1877070287844E-01  1.1440493613877E+00
90  8.9000000000000E-01  1.0324571227532E-01 -8.4827492011616E-01  1.0885993269316E+00
91  9.0000000000000E-01  1.0350836576134E-01 -7.7623788453121E-01  1.0316241300371E+00
92  9.1000000000000E-01  1.0171922494806E-01 -7.0373613752239E-01  9.7343098394494E-01
93  9.2000000000000E-01  9.8175567139578E-02 -6.3177428972864E-01  9.1433451031650E-01
94  9.3000000000000E-01  9.3172907992666E-02 -5.6127266406936E-01  8.5465527241843E-01
95  9.4000000000000E-01  8.7000534061275E-02 -4.9305758457545E-01  7.9471824324016E-01
96  9.5000000000000E-01  7.9937604677772E-02 -4.2785430981699E-01  7.3485119593600E-01
97  9.6000000000000E-01  7.2249817821791E-02 -3.6628252507902E-01  6.7538300741577E-01
98  9.7000000000000E-01  6.4186613838522E-02 -3.0885422931772E-01  6.1664187013467E-01
99  9.8000000000000E-01  5.5978872525544E-02 -2.5597378326273E-01  5.5895341198262E-01
100  9.9000000000000E-01  4.7837043618338E-02 -2.0793982538293E-01  5.0263872944904E-01
101  1.0000000000000E+00  3.9949638326686E-02 -1.6494871388068E-01  4.4801234473371E-01
102  1.0100000000000E+00  3.2482000431021E-02 -1.2709911606181E-01  3.9538010296492E-01
103  1.0200000000000E+00  2.5575269527086E-02 -9.4397341520639E-02  3.4503703096548E-01
104  1.0300000000000E+00  1.9345446193292E-02 -6.6763002413913E-02  2.9726518385710E-01
105  1.0400000000000E+00  1.3882468909321E-02 -4.4034582062424E-02  2.5233151002337E-01
106  1.0500000000000E+00  9.2492151778122E-03 -2.5974501376818E-02  2.1048576839395E-01
107  1.0600000000000E+00  5.4803441275862E-03 -1.2273290067298E-02  1.7195853451622E-01
108  1.0700000000000E+00  2.5809044867383E-03 -2.5524949251326E-03  1.3695933333903E-01
109  1.0800000000000E+00  5.2459009782809E-04  3.6341604400548E-03  1.0567488319752E-01
110  1.0900000000000E+00 -7.4799275342679E-04  6.8003922060985E-03  7.8267939404062E-02
111  1.1000000000000E+00 -1.3527597452999E-03  7.5942990266273E-03  5.4851875906292E-02
112  1.1100000000000E+00 -1.4685240276103E-03  6.8177939213063E-03  3.5479980146124E-02
113  1.1200000000000E+00 -1.2128237141287E-03  5.0335019882048E-03  2.0282956192336E-02
114  1.1300000000000E+00 -7.4538370325419E-04  2.8594727238888E-03  9.3270468990973E-03
115  1.1400000000000E+00 -2.6371798602676E-04  9.5232044935022E-04  2.5936369064095E-03
116  1.1500000000000E+00 -9.1153386282633E-06  3.1210030755495E-05  7.1763872777704E-05
117  1.1600000000000E+00 -1.4060252238061E-06  4.8578620308126E-06  1.1397143489175E-05
118  1.1700000000000E+00  2.2439505923843E-07 -7.9093345422773E-07 -1.9908937578954E-06
119  1.18  0.  0.  0.
120  1.19  0.  0.  0.
121  1.20  0.  0.  0.
122  1.21  0.  0.  0.
123  1.22  0.  0.  0.
124  1.23  0.  0.  0.
125  1.24  0.  0.  0.
126  1.25  0.  0.  0.
127  1.26  0.  0.  0.
128  1.27  0.  0.  0.
129  1.28  0.  0.  0.
130  1.29  0.  0.  0.
131  1.30  0.  0.  0.
132  1.31  0.  0.  0.
133  1.32  0.  0.  0.
134  1.33  0.  0.  0.
135  1.34  0.  0.  0.
136  1.35  0.  0.  0.
137  1.36  0.  0.  0.
138  1.37  0.  0.  0.
139  1.38  0.  0.  0.
140  1.39  0.  0.  0.
141  1.40  0.  0.  0.
142  1.41  0.  0.  0.
143  1.42  0.  0.  0.
144  1.43  0.  0.  0.
145  1.44  0.  0.  0.
146  1.45  0.  0.  0.
147  1.46  0.  0.  0.
148  1.47  0.  0.  0.
149  1.48  0.  0.  0.
150  1.49  0.  0.  0.
151  1.50  0.  0.  0.
152  1.51  0.  0.  0.
153  1.52  0.  0.  0.
154  1.53  0.  0.  0.
155  1.54  0.  0.  0.
156  1.55  0.  0.  0.
157  1.56  0.  0.  0.
158  1.57  0.  0.  0.
159  1.58  0.  0.  0.
160  1.59  0.  0.  0.
161  1.60  0.  0.  0.
162  1.61  0.  0.  0.
163  1.62  0.  0.  0.
164  1.63  0.  0.  0.
165  1.64  0.  0.  0.
166  1.65  0.  0.  0.
167  1.66  0.  0.  0.
168  1.67  0.  0.  0.
169  1.68  0.  0.  0.
170  1.69  0.  0.  0.
171  1.70  0.  0.  0.
172  1.71  0.  0.  0.
173  1.72  0.  0.  0.
174  1.73  0.  0.  0.
175  1.74  0.  0.  0.
176  1.75  0.  0.  0.
177  1.76  0.  0.  0.
178  1.77  0.  0.  0.
179  1.78  0.  0.  0.
180  1.79  0.  0.  0.
181  1.80  0.  0.  0.
182  1.81  0.  0.  0.
183  1.82  0.  0.  0.
184  1.83  0.  0.  0.
185  1.84  0.  0.  0.
186  1.85  0.  0.  0.
187  1.86  0.  0.  0.
188  1.87  0.  0.  0.
189  1.88  0.  0.  0.
190  1.89  0.  0.  0.
191  1.90  0.  0.  0.
192  1.91  0.  0.  0.
193  1.92  0.  0.  0.
194  1.93  0.  0.  0.
195  1.94  0.  0.  0.
196  1.95  0.  0.  0.
197  1.96  0.  0.  0.
198  1.97  0.  0.  0.
199  1.98  0.  0.  0.
200  1.99  0.  0.  0.
201  2.00  0.  0.  0.
202  2.01  0.  0.  0.
203  2.02  0.  0.  0.
204  2.03  0.  0.  0.
205  2.04  0.  0.  0.
206  2.05  0.  0.  0.
207  2.06  0.  0.  0.
208  2.07  0.  0.  0.
209  2.08  0.  0.  0.
210  2.09  0.  0.  0.
211  2.10  0.  0.  0.
212  2.11  0.  0.  0.
213  2.12  0.  0.  0.
214  2.13  0.  0.  0.
215  2.14  0.  0.  0.
216  2.15  0.  0.  0.
217  2.16  0.  0.  0.
218  2.17  0.  0.  0.
219  2.18  0.  0.  0.
220  2.19  0.  0.  0.
221  2.20  0.  0.  0.
222  2.21  0.  0.  0.
223  2.22  0.  0.  0.
224  2.23  0.  0.  0.
225  2.24  0.  0.  0.
226  2.25  0.  0.  0.
227  2.26  0.  0.  0.
228  2.27  0.  0.  0.
229  2.28  0.  0.  0.
230  2.29  0.  0.  0.
231  2.30  0.  0.  0.
232  2.31  0.  0.  0.
233  2.32  0.  0.  0.
234  2.33  0.  0.  0.
235  2.34  0.  0.  0.
236  2.35  0.  0.  0.
237  2.36  0.  0.  0.
238  2.37  0.  0.  0.
239  2.38  0.  0.  0.
240  2.39  0.  0.  0.
241  2.40  0.  0.  0.
242  2.41  0.  0.  0.
243  2.42  0.  0.  0.
244  2.43  0.  0.  0.
245  2.44  0.  0.  0.
246  2.45  0.  0.  0.
247  2.46  0.  0.  0.
248  2.47  0.  0.  0.
249  2.48  0.  0.  0.
250  2.49  0.  0.  0.
251  2.50  0.  0.  0.
252  2.51  0.  0.  0.
253  2.52  0.  0.  0.
254  2.53  0.  0.  0.
255  2.54  0.  0.  0.
256  2.55  0.  0.  0.
257  2.56  0.  0.  0.
258  2.57  0.  0.  0.
259  2.58  0.  0.  0.
260  2.59  0.  0.  0.
261  2.60  0.  0.  0.
262  2.61  0.  0.  0.
263  2.62  0.  0.  0.
264  2.63  0.  0.  0.
265  2.64  0.  0.  0.
266  2.65  0.  0.  0.
267  2.66  0.  0.  0.
268  2.67  0.  0.  0.
269  2.68  0.  0.  0.
270  2.69  0.  0.  0.
271  2.70  0.  0.  0.
272  2.71  0.  0.  0.
273  2.72  0.  0.  0.
274  2.73  0.  0.  0.
275  2.74  0.  0.  0.
276  2.75  0.  0.  0.
277  2.76  0.  0.  0.
278  2.77  0.  0.  0.
279  2.78  0.  0.  0.
280  2.79  0.  0.  0.
281  2.80  0.  0.  0.
282  2.81  0.  0.  0.
283  2.82  0.  0.  0.
284  2.83  0.  0.  0.
285  2.84  0.  0.  0.
286  2.85  0.  0.  0.
287  2.86  0.  0.  0.
288  2.87  0.  0.  0.
289  2.88  0.  0.  0.
290  2.89  0.  0.  0.
291  2.90  0.  0.  0.
292  2.91  0.  0.  0.
293  2.92  0.  0.  0.
294  2.93  0.  0.  0.
295  2.94  0.  0.  0.
296  2.95  0.  0.  0.
297  2.96  0.  0.  0.
298  2.97  0.  0.  0.
299  2.98  0.  0.  0.
300  2.99  0.  0.  0.
301  3.00  0.  0.  0.
302  3.01  0.  0.  0.
303  3.02  0.  0.  0.
304  3.03  0.  0.  0.
305  3.04  0.  0.  0.
306  3.05  0.  0.  0.
307  3.06  0.  0.  0.
308  3.07  0.  0.  0.
309  3.08  0.  0.  0.
310  3.09  0.  0.  0.
311  3.10  0.  0.  0.
312  3.11  0.  0.  0.
313  3.12  0.  0.  0.
314  3.13  0.  0.  0.
315  3.14  0.  0.  0.
316  3.15  0.  0.  0.
317  3.16  0.  0.  0.
318  3.17  0.  0.  0.
319  3.18  0.  0.  0.
320  3.19  0.  0.  0.
321  3.20  0.  0.  0.
322  3.21  0.  0.  0.
323  3.22  0.  0.  0.
324  3.23  0.  0.  0.
325  3.24  0.  0.  0.
326  3.25  0.  0.  0.
327  3.26  0.  0.  0.
328  3.27  0.  0.  0.
329  3.28  0.  0.  0.
330  3.29  0.  0.  0.
331  3.30  0.  0.  0.
332  3.31  0.  0.  0.
333  3.32  0.  0.  0.
334  3.33  0.  0.  0.
335  3.34  0.  0.  0.
336  3.35  0.  0.  0.
337  3.36  0.  0.  0.
338  3.37  0.  0.  0.
339  3.38  0.  0.  0.
340  3.39  0.  0.  0.
341  3.40  0.  0.  0.
342  3.41  0.  0.  0.
343  3.42  0.  0.  0.
344  3.43  0.  0.  0.
345  3.44  0.  0.  0.
346  3.45  0.  0.  0.
347  3.46  0.  0.  0.
348  3.47  0.  0.  0.
349  3.48  0.  0.  0.
350  3.49  0.  0.  0.
351  3.50  0.  0.  0.
352  3.51  0.  0.  0.
353  3.52  0.  0.  0.
354  3.53  0.  0.  0.
355  3.54  0.  0.  0.
356  3.55  0.  0.  0.
357  3.56  0.  0.  0.
358  3.57  0.  0.  0.
359  3.58  0.  0.  0.
360  3.59  0.  0.  0.
361  3.60  0.  0.  0.
362  3.61  0.  0.  0.
363  3.62  0.  0.  0.
364  3.63  0.  0.  0.
365  3.64  0.  0.  0.
366  3.65  0.  0.  0.
367  3.66  0.  0.  0.
368  3.67  0.  0.  0.
369  3.68  0.  0.  0.
370  3.69  0.  0.  0.
371  3.70  0.  0.  0.
372  3.71  0.  0.  0.
373  3.72  0.  0.  0.
374  3.73  0.  0.  0.
375  3.74  0.  0.  0.
376  3.75  0.  0.  0.
377  3.76  0.  0.  0.
378  3.77  0.  0.  0.
379  3.78  0.  0.  0.
380  3.79  0.  0.  0.
381  3.80  0.  0.  0.
382  3.81  0.  0.  0.
383  3.82  0.  0.  0.
384  3.83  0.  0.  0.
385  3.84  0.  0.  0.
386  3.85  0.  0.  0.
387  3.86  0.  0.  0.
388  3.87  0.  0.  0.
389  3.88  0.  0.  0.
390  3.89  0.  0.  0.
391  3.90  0.  0.  0.
392  3.91  0.  0.  0.
393  3.92  0.  0.  0.
394  3.93  0.  0.  0.
395  3.94  0.  0.  0.
396  3.95  0.  0.  0.
397  3.96  0.  0.  0.
398  3.97  0.  0.  0.
399  3.98  0.  0.  0.
400  3.99  0.  0.  0.
401  4.00  0.  0.  0.
402  4.01  0.  0.  0.
403  4.02  0.  0.  0.
404  4.03  0.  0.  0.
405  4.04  0.  0.  0.
406  4.05  0.  0.  0.
407  4.06  0.  0.  0.
408  4.07  0.  0.  0.
409  4.08  0.  0.  0.
410  4.09  0.  0.  0.
411  4.10  0.  0.  0.
412  4.11  0.  0.  0.
413  4.12  0.  0.  0.
414  4.13  0.  0.  0.
415  4.14  0.  0.  0.
416  4.15  0.  0.  0.
417  4.16  0.  0.  0.
418  4.17  0.  0.  0.
419  4.18  0.  0.  0.
420  4.19  0.  0.  0.
421  4.20  0.  0.  0.
422  4.21  0.  0.  0.
423  4.22  0.  0.  0.
424  4.23  0.  0.  0.
425  4.24  0.  0.  0.
426  4.25  0.  0.  0.
427  4.26  0.  0.  0.
428  4.27  0.  0.  0.
429  4.28  0.  0.  0.
430  4.29  0.  0.  0.
431  4.30  0.  0.  0.
432  4.31  0.  0.  0.
433  4.32  0.  0.  0.
434  4.33  0.  0.  0.
435  4.34  0.  0.  0.
436  4.35  0.  0.  0.
437  4.36  0.  0.  0.
438  4.37  0.  0.  0.
439  4.38  0.  0.  0.
440  4.39  0.  0.  0.
441  4.40  0.  0.  0.
442  4.41  0.  0.  0.
443  4.42  0.  0.  0.
444  4.43  0.  0.  0.
445  4.44  0.  0.  0.
446  4.45  0.  0.  0.
447  4.46  0.  0.  0.
448  4.47  0.  0.  0.
449  4.48  0.  0.  0.
450  4.49  0.  0.  0.
451  4.50  0.  0.  0.
452  4.51  0.  0.  0.
453  4.52  0.  0.  0.
454  4.53  0.  0.  0.
455  4.54  0.  0.  0.
456  4.55  0.  0.  0.
457  4.56  0.  0.  0.
458  4.57  0.  0.  0.
459  4.58  0.  0.  0.
460  4.59  0.  0.  0.
461  4.60  0.  0.  0.
462  4.61  0.  0.  0.
463  4.62  0.  0.  0.
464  4.63  0.  0.  0.
465  4.64  0.  0.  0.
466  4.65  0.  0.  0.
467  4.66  0.  0.  0.
468  4.67  0.  0.  0.
469  4.68  0.  0.  0.
470  4.69  0.  0.  0.
471  4.70  0.  0.  0.
472  4.71  0.  0.  0.
473  4.72  0.  0.  0.
474  4.73  0.  0.  0.
475  4.74  0.  0.  0.
476  4.75  0.  0.  0.
477  4.76  0.  0.  0.
478  4.77  0.  0.  0.
479  4.78  0.  0.  0.
480  4.79  0.  0.  0.
481  4.80  0.  0.  0.
482  4.81  0.  0.  0.
483  4.82  0.  0.  0.
484  4.83  0.  0.  0.
485  4.84  0.  0.  0.
486  4.85  0.  0.  0.
487  4.86  0.  0.  0.
488  4.87  0.  0.  0.
489  4.88  0.  0.  0.
490  4.89  0.  0.  0.
491  4.90  0.  0.  0.
492  4.91  0.  0.  0.
493  4.92  0.  0.  0.
494  4.93  0.  0.  0.
495  4.94  0.  0.  0.
496  4.95  0.  0.  0.
497  4.96  0.  0.  0.
498  4.97  0.  0.  0.
499  4.98  0.  0.  0.
500  4.99  0.  0.  0.
501  5.00  0.  0.  0.
502  5.01  0.  0.  0.
503  5.02  0.  0.  0.
504  5.03  0.  0.  0.
505  5.04  0.  0.  0.
506  5.05  0.  0.  0.
507  5.06  0.  0.  0.
508  5.07  0.  0.  0.
509  5.08  0.  0.  0.
510  5.09  0.  0.  0.
511  5.10  0.  0.  0.
512  5.11  0.  0.  0.
513  5.12  0.  0.  0.
514  5.13  0.  0.  0.
515  5.14  0.  0.  0.
516  5.15  0.  0.  0.
517  5.16  0.  0.  0.
518  5.17  0.  0.  0.
519  5.18  0.  0.  0.
520  5.19  0.  0.  0.
521  5.20  0.  0.  0.
522  5.21  0.  0.  0.
523  5.22  0.  0.  0.
524  5.23  0.  0.  0.
525  5.24  0.  0.  0.
526  5.25  0.  0.  0.
527  5.26  0.  0.  0.
528  5.27  0.  0.  0.
529  5.28  0.  0.  0.
530  5.29  0.  0.  0.
531  5.30  0.  0.  0.
532  5.31  0.  0.  0.
533  5.32  0.  0.  0.
534  5.33  0.  0.  0.
535  5.34  0.  0.  0.
536  5.35  0.  0.  0.
537  5.36  0.  0.  0.
538  5.37  0.  0.  0.
539  5.38  0.  0.  0.
540  5.39  0.  0.  0.
541  5.40  0.  0.  0.
542  5.41  0.  0.  0.
543  5.42  0.  0.  0.
544  5.43  0.  0.  0.
545  5.44  0.  0.  0.
546  5.45  0.  0.  0.
547  5.46  0.  0.  0.
548  5.47  0.  0.  0.
549  5.48  0.  0.  0.
550  5.49  0.  0.  0.
551  5.50  0.  0.  0.
552  5.51  0.  0.  0.
553  5.52  0.  0.  0.
554  5.53  0.  0.  0.
555  5.54  0.  0.  0.
556  5.55  0.  0.  0.
557  5.56  0.  0.  0.
558  5.57  0.  0.  0.
559  5.58  0.  0.  0.
560  5.59  0.  0.  0.
561  5.60  0.  0.  0.
562  5.61  0.  0.  0.
563  5.62  0.  0.  0.
564  5.63  0.  0.  0.
565  5.64  0.  0.  0.
566  5.65  0.  0.  0.
567  5.66  0.  0.  0.
568  5.67  0.  0.  0.
569  5.68  0.  0.  0.
570  5.69  0.  0.  0.
571  5.70  0.  0.  0.
572  5.71  0.  0.  0.
573  5.72  0.  0.  0.
574  5.73  0.  0.  0.
575  5.74  0.  0.  0.
576  5.75  0.  0.  0.
577  5.76  0.  0.  0.
578  5.77  0.  0.  0.
579  5.78  0.  0.  0.
580  5.79  0.  0.  0.
581  5.80  0.  0.  0.
582  5.81  0.  0.  0.
583  5.82  0.  0.  0.
584  5.83  0.  0.  0.
585  5.84  0.  0.  0.
586  5.85  0.  0.  0.
587  5.86  0.  0.  0.
588  5.87  0.  0.  0.
589  5.88  0.  0.  0.
590  5.89  0.  0.  0.
591  5.90  0.  0.  0.
592  5.91  0.  0.  0.
593  5.92  0.  0.  0.
594  5.93  0.  0.  0.
595  5.94  0.  0.  0.
596  5.95  0.  0.  0.
597  5.96  0.  0.  0.
598  5.97  0.  0.  0.
599  5.98  0.  0.  0.
600  5.99  0.  0.  0.
1                         7.9715622293739E+00 -8.4451859491768E-01
1  0.0000000000000E+00 -7.9686984233440E-09 -2.7646167709283E-08
2  1.0000000000000E-02  4.3450280413079E-03  3.5285572431833E-04
3  2.0000000000000E-02  1.7344573753613E-02  1.4226310074197E-03
4  3.0000000000000E-02  3.8892144728152E-02  3.2424544766119E-03
5  4.0000000000000E-02  6.8810669798299E-02  5.8659076575126E-03
6  5.0000000000000E-02  1.0685314660989E-01  9.3646431682425E-03
7  6.0000000000000E-02  1.5270359351655E-01  1.3825182494408E-02
8  7.0000000000000E-02  2.0597834811735E-01  1.9345019576133E-02
9  8.0000000000000E-02  2.6622776272277E-01  2.6028184084561E-02
10  9.0000000000000E-02  3.3293835214276E-01  3.3980440029690E-02
11  1.0000000000000E-01  4.0553545104664E-01  4.3304310380648E-02
12  1.1000000000000E-01  4.8338643649128E-01  5.4094126099833E-02
13  1.2000000000000E-01  5.6580456593810E-01  6.6431298073979E-02
14  1.3000000000000E-01  6.5205347221739E-01  8.0380002835608E-02
15  1.4000000000000E-01  7.4135234464055E-01  9.5983457962743E-02
16  1.5000000000000E-01  8.3288181013948E-01  1.1326094115969E-01
17  1.6000000000000E-01  9.2579051039976E-01  1.3220567905544E-01
18  1.7000000000000E-01  1.0192023510386E+00  1.5278369873968E-01
19  1.8000000000000E-01  1.1122243776479E+00  1.7493369821800E-01
20  1.9000000000000E-01  1.2039552117397E+00  1.9856795268621E-01
21  2.0000000000000E-01  1.2934939581056E+00  2.2357423328017E-01
22  2.1000000000000E-01  1.3799494746539E+00  2.4981867527785E-01
23  2.2000000000000E-01  1.4624498772336E+00  2.7714949513327E-01
24  2.3000000000000E-01  1.5401521360581E+00  3.0540142165584E-01
25  2.4000000000000E-01  1.6122516077860E+00  3.3440067744403E-01
26  2.5000000000000E-01  1.6779913387016E+00  3.6397032349332E-01
27  2.6000000000000E-01  1.7366709702211E+00  3.9393576366834E-01
28  2.7000000000000E-01  1.7876550784404E+00  4.2413019713906E-01
29  2.8000000000000E-01  1.8303807848166E+00  4.5439980633924E-01
30  2.9000000000000E-01  1.8643644852984E+00  4.8460847561207E-01
31  3.0000000000000E-01  1.8892075601339E+00  5.1464185126235E-01
32  3.1000000000000E-01  1.9046009458172E+00  5.4441057673077E-01
33  3.2000000000000E-01  1.9103284736951E+00  5.7385256625110E-01
34  3.3000000000000E-01  1.9062689059779E+00  6.0293421559446E-01
35  3.4000000000000E-01  1.8923966285197E+00  6.3165048807004E-01
36  3.5000000000000E-01  1.8687809898861E+00  6.6002385638447E-01
37  3.6000000000000E-01  1.8355843069678E+00  6.8810212468340E-01
38  3.7000000000000E-01  1.7930585877729E+00  7.1595519846079E-01
39  3.8000000000000E-01  1.7415410510644E+00  7.4367091136874E-01
40  3.9000000000000E-01  1.6814485492709E+00  7.7135005569561E-01
41  4.0000000000000E-01  1.6132710247352E+00  7.9910079591773E-01
42  4.1000000000000E-01  1.5375641491094E+00  8.2703267096232E-01
43  4.2000000000000E-01  1.4549413109249E+00  8.5525040956091E-01
44  4.3000000000000E-01  1.3660651265951E+00  8.8384779350886E-01
45  4.4000000000000E-01  1.2716386550294E+00  9.1290180526588E-01
46  4.5000000000000E-01  1.1723964955394E+00  9.4246728895001E-01
47  4.6000000000000E-01  1.0690959428668E+00  9.7257233754826E-01
48  4.7000000000000E-01  9.6250836222481E-01  1.0032145945826E+00
49  4.8000000000000E-01  8.5341093165443E-01  1.0343586263468E+00
50  4.9000000000000E-01  7.4257887936930E-01  1.0659344822833E+00
51  5.0000000000000E-01  6.3077832085195E-01  1.0978375174711E+00
52  5.1000000000000E-01  5.1875977513690E-01  1.1299295041412E+00
53  5.2000000000000E-01  4.0725241293828E-01  1.1620410103559E+00
54  5.3000000000000E-01  2.9695906205708E-01  1.1939749753309E+00
55  5.4000000000000E-01  1.8855196886121E-01  1.2255113641948E+00
56  5.5000000000000E-01  8.2669289569360E-02  1.2564127420835E+00
57  5.6000000000000E-01 -2.0087737479262E-02  1.2864305700610E+00
58  5.7000000000000E-01 -1.1915700658425E-01  1.3153119949497E+00
59  5.8000000000000E-01 -2.1401722963155E-01  1.3428068830272E+00
60  5.9000000000000E-01 -3.0418918493471E-01  1.3686748346731E+00
61  6.0000000000000E-01 -3.8923662926453E-01  1.3926919140831E+00
62  6.1000000000000E-01 -4.6876697283207E-01  1.4146568353733E+00
63  6.2000000000000E-01 -5.4243181238641E-01  1.4343963636853E+00
64  6.3000000000000E-01 -6.0992740816357E-01  1.4517697167711E+00
65  6.4000000000000E-01 -6.7099517662877E-01  1.4666717881292E+00
66  6.5000000000000E-01 -7.2542225342598E-01  1.4790350558661E+00
67  6.6000000000000E-01 -7.7304216048471E-01  1.4888300905639E+00
68  6.7000000000000E-01 -8.1373558876201E-01  1.4960646287579E+00
69  6.8000000000000E-01 -8.4743128464268E-01  1.5007812342312E+00
70  6.9000000000000E-01 -8.7410700466800E-01  1.5030536251009E+00
71  7.0000000000000E-01 -8.9379048110417E-01  1.5029817985162E+00
72  7.1000000000000E-01 -9.0656032097270E-01  1.5006861345820E+00
73  7.2000000000000E-01 -9.1254674453319E-01  1.4963007049189E+00
74  7.3000000000000E-01 -9.1193205672460E-01  1.4899660472709E+00
75  7.4000000000000E-01 -9.0495073746004E-01  1.4818216942642E+00
76  7.5000000000000E-01 -8.9188903448324E-01  1.4719987606020E+00
77  7.6000000000000E-01 -8.7308394606777E-01  1.4606128978391E+00
78  7.7000000000000E-01 -8.4892149028418E-01  1.4477579189970E+00
79  7.8000000000000E-01 -8.1983417274665E-01  1.4335003766966E+00
80  7.9000000000000E-01 -7.8629758531254E-01  1.4178753486505E+00
81  8.0000000000000E-01 -7.4882609354831E-01  1.4008836441884E+00
82  8.1000000000000E-01 -7.0796760008357E-01  1.3824905962740E+00
83  8.2000000000000E-01 -6.6429740325402E-01  1.3626265468861E+00
84  8.3000000000000E-01 -6.1841120453472E-01  1.3411890716425E+00
85  8.4000000000000E-01 -5.7091735292358E-01  1.3180469243575E+00
86  8.5000000000000E-01 -5.2242844832217E-01  1.2930456162012E+00
87  8.6000000000000E-01 -4.7355245772985E-01  1.2660144797168E+00
88  8.7000000000000E-01 -4.2488352640290E-01  1.2367750075620E+00
89  8.8000000000000E-01 -3.7699268980212E-01  1.2051502017935E+00
90  8.9000000000000E-01 -3.3041871006387E-01  1.1709746239246E+00
91  9.0000000000000E-01 -2.8565927195773E-01  1.1341048006889E+00
92  9.1000000000000E-01 -2.4316277713729E-01  1.0944296169417E+00
93  9.2000000000000E-01 -2.0332097149114E-01  1.0518803164944E+00
94  9.3000000000000E-01 -1.6646262837442E-01  1.0064397345403E+00
95  9.4000000000000E-01 -1.3284849054707E-01  9.5815040182938E-01
96  9.5000000000000E-01 -1.0266764615128E-01  9.0712119053614E-01
97  9.6000000000000E-01 -7.6035479691634E-02  8.5353221399110E-01
98  9.7000000000000E-01 -5.2993298678273E-02  7.9763774579647E-01
99  9.8000000000000E-01 -3.3509691507882E-02  7.3976698660227E-01
100  9.9000000000000E-01 -1.7483623658118E-02  6.8032257688026E-01
101  1.0000000000000E+00 -4.7492288740913E-03  6.1977682901201E-01
102  1.0100000000000E+00  4.9177986310711E-03  5.5866572927646E-01
103  1.0200000000000E+00  1.1792354246864E-02  4.9758083725839E-01
104  1.0300000000000E+00  1.6190804839025E-02  4.3715928398682E-01
105  1.0400000000000E+00  1.8460833571603E-02  3.7807213811344E-01
106  1.0500000000000E+00  1.8970514403625E-02  3.2101146928275E-01
107  1.0600000000000E+00  1.8096911185360E-02  2.6667648721366E-01
108  1.0700000000000E+00  1.6214516086919E-02  2.1575917210423E-01
109  1.0800000000000E+00  1.3683812792006E-02  1.6892977783387E-01
110  1.0900000000000E+00  1.0840627690770E-02  1.2682313242882E-01
111  1.1000000000000E+00  7.9684533658192E-03  8.9998237734574E-02
112  1.1100000000000E+00  5.2836919094371E-03  5.8910762032990E-02
113  1.1200000000000E+00  3.0289993911593E-03  3.4061356418769E-02
114  1.1300000000000E+00  1.3660409702551E-03  1.5832156214788E-02
115  1.1400000000000E+00  3.6378527506800E-04  4.4472290883891E-03
116  1.1500000000000E+00  9.3272651470346E-06  1.2430801751063E-04
117  1.1600000000000E+00  1.5075711943813E-06  1.9722739983043E-05
118  1.1700000000000E+00 -2.7105070069687E-07 -3.4297662425837E-06
119  1.18  0.  0.
120  1.19  0.  0.
121  1.20  0.  0.
122  1.21  0.  0.
123  1.22  0.  0.
124  1.23  0.  0.
125  1.24  0.  0.
126  1.25  0.  0.
127  1.26  0.  0.
128  1.27  0.  0.
129  1.28  0.  0.
130  1.29  0.  0.
131  1.30  0.  0.
132  1.31  0.  0.
133  1.32  0.  0.
134  1.33  0.  0.
135  1.34  0.  0.
136  1.35  0.  0.
137  1.36  0.  0.
138  1.37  0.  0.
139  1.38  0.  0.
140  1.39  0.  0.
141  1.40  0.  0.
142  1.41  0.  0.
143  1.42  0.  0.
144  1.43  0.  0.
145  1.44  0.  0.
146  1.45  0.  0.
147  1.46  0.  0.
148  1.47  0.  0.
149  1.48  0.  0.
150  1.49  0.  0.
151  1.50  0.  0.
152  1.51  0.  0.
153  1.52  0.  0.
154  1.53  0.  0.
155  1.54  0.  0.
156  1.55  0.  0.
157  1.56  0.  0.
158  1.57  0.  0.
159  1.58  0.  0.
160  1.59  0.  0.
161  1.60  0.  0.
162  1.61  0.  0.
163  1.62  0.  0.
164  1.63  0.  0.
165  1.64  0.  0.