Fm    ONCVPSP-4.0.1  r_core=   1.20057   1.20057   1.20057   1.35316
100.0000     40.0000      221023    zatom,zion,pspd
8      11   3     4   600     0    pspcod,pspxc,lmax,lloc,mmax,r2well
5.99000000  2.50000000  0.00000000    rchrg fchrg qchrg
3     2     2     2     0    nproj
1     1           extension_switch
0                         2.2990845208371E+01  2.7785771755686E+00 -8.8545111641276E-01
1  0.0000000000000E+00 -5.1225670372190E-09  1.7228489856969E-08  4.2921470821966E-09
2  1.0000000000000E-02  1.5438464073104E-01 -4.0517770368119E-02  3.4890484027785E-02
3  2.0000000000000E-02  3.0779585710498E-01 -8.0224529899034E-02  6.9673260288975E-02
4  3.0000000000000E-02  4.5926766948246E-01 -1.1831992005316E-01  1.0424062595116E-01
5  4.0000000000000E-02  6.0784891124142E-01 -1.5402470373490E-01  1.3848491883809E-01
6  5.0000000000000E-02  7.5261044562075E-01 -1.8659087280687E-01  1.7229861356839E-01
7  6.0000000000000E-02  8.9265215879030E-01 -2.1531122468384E-01  2.0557450545717E-01
8  7.0000000000000E-02  1.0271096608089E+00 -2.3952825214058E-01  2.3820600618902E-01
9  8.0000000000000E-02  1.1551606312551E+00 -2.5864220769669E-01  2.7008757097851E-01
10  9.0000000000000E-02  1.2760307524297E+00 -2.7211822442886E-01  3.0111527181805E-01
11  1.0000000000000E-01  1.3889991799652E+00 -2.7949239816667E-01  3.3118752562723E-01
12  1.1000000000000E-01  1.4934035082266E+00 -2.8037676102217E-01  3.6020597983900E-01
13  1.2000000000000E-01  1.5886441958493E+00 -2.7446310231314E-01  3.8807655137882E-01
14  1.3000000000000E-01  1.6741884249055E+00 -2.6152561935257E-01  4.1471060831474E-01
15  1.4000000000000E-01  1.7495733753084E+00 -2.4142240648979E-01  4.4002627688737E-01
16  1.5000000000000E-01  1.8144089039319E+00 -2.1409581541477E-01  4.6394985037380E-01
17  1.6000000000000E-01  1.8683796253652E+00 -1.7957174235292E-01  4.8641727049763E-01
18  1.7000000000000E-01  1.9112463980366E+00 -1.3795791772261E-01  5.0737564705391E-01
19  1.8000000000000E-01  1.9428472255123E+00 -8.9441290560167E-02  5.2678477723936E-01
20  1.9000000000000E-01  1.9630975879613E+00 -3.4284613085681E-02  5.4461862301009E-01
21  2.0000000000000E-01  1.9719902230247E+00  2.7177660101375E-02  5.6086670274548E-01
22  2.1000000000000E-01  1.9695943785745E+00  9.4544038721100E-02  5.7553535266603E-01
23  2.2000000000000E-01  1.9560545621167E+00  1.6735110908098E-01  5.8864881388418E-01
24  2.3000000000000E-01  1.9315888129013E+00  2.4507897475005E-01  6.0025010267988E-01
25  2.4000000000000E-01  1.8964865232475E+00  3.2715691537851E-01  6.1040162456592E-01
26  2.5000000000000E-01  1.8511058352657E+00  4.1296916364320E-01  6.1918549688876E-01
27  2.6000000000000E-01  1.7958706382110E+00  5.0186071336418E-01  6.2670355001009E-01
28  2.7000000000000E-01  1.7312671902927E+00  5.9314308710541E-01  6.3307698341124E-01
29  2.8000000000000E-01  1.6578403870656E+00  6.8610000836492E-01  6.3844566020899E-01
30  2.9000000000000E-01  1.5761896967406E+00  7.7999294102618E-01  6.4296703139286E-01
31  3.0000000000000E-01  1.4869647810496E+00  8.7406647633277E-01  6.4681468939640E-01
32  3.1000000000000E-01  1.3908608188779E+00  9.6755356449667E-01  6.5017655919018E-01
33  3.2000000000000E-01  1.2886135488978E+00  1.0596806034403E+00  6.5325274371370E-01
34  3.3000000000000E-01  1.1809940470520E+00  1.1496724104384E+00  6.5625304892667E-01
35  3.4000000000000E-01  1.0688032550629E+00  1.2367571129843E+00  6.5939422183696E-01
36  3.5000000000000E-01  9.5286627726567E-01  1.3201710025937E+00  6.6289694234592E-01
37  3.6000000000000E-01  8.3402646504112E-01  1.3991633991112E+00  6.6698261644127E-01
38  3.7000000000000E-01  7.1313931094491E-01  1.4730015732174E+00  6.7187002399320E-01
39  3.8000000000000E-01  5.9106617827911E-01  1.5409757711529E+00  6.7777187901155E-01
40  3.9000000000000E-01  4.6866789623567E-01  1.6024043782981E+00  6.8489136358336E-01
41  4.0000000000000E-01  3.4679825574824E-01  1.6566392473965E+00  6.9341869873385E-01
42  4.1000000000000E-01  2.2629744666034E-01  1.7030712032692E+00  7.0352781608291E-01
43  4.2000000000000E-01  1.0798548256083E-01  1.7411357193585E+00  7.1537319338045E-01
44  4.3000000000000E-01 -7.3443345613235E-03  1.7703187429807E+00  7.2908691480805E-01
45  4.4000000000000E-01 -1.1893185207342E-01  1.7901626264824E+00  7.4477601338072E-01
46  4.5000000000000E-01 -2.2605634391000E-01  1.8002721013765E+00  7.6252014795042E-01
47  4.6000000000000E-01 -3.2804255977965E-01  1.8003202128052E+00  7.8236966131680E-01
48  4.7000000000000E-01 -4.2426647533571E-01  1.7900541131766E+00  8.0434405892951E-01
49  4.8000000000000E-01 -5.1416066987001E-01  1.7693005973895E+00  8.2843093978712E-01
50  4.9000000000000E-01 -5.9721925704644E-01  1.7379712484417E+00  8.5458540258410E-01
51  5.0000000000000E-01 -6.7300229469280E-01  1.6960670521348E+00  8.8272994112990E-01
52  5.1000000000000E-01 -7.4113960184958E-01  1.6436823336222E+00  9.1275483377254E-01
53  5.2000000000000E-01 -8.0133391521756E-01  1.5810078671636E+00  9.4451902221551E-01
54  5.3000000000000E-01 -8.5336332289413E-01  1.5083330139752E+00  9.7785146593514E-01
55  5.4000000000000E-01 -8.9708292081833E-01  1.4260467516612E+00  1.0125529495887E+00
56  5.5000000000000E-01 -9.3242564658673E-01  1.3346374723654E+00  1.0483983125466E+00
57  5.6000000000000E-01 -9.5940225612270E-01  1.2346914453165E+00  1.0851390621589E+00
58  5.7000000000000E-01 -9.7810042090280E-01  1.1268898625147E+00  1.1225063257352E+00
59  5.8000000000000E-01 -9.8868293682489E-01  1.0120044133919E+00  1.1602140906087E+00
60  5.9000000000000E-01 -9.9138505007464E-01  8.9089136473170E-01  1.1979626771680E+00
61  6.0000000000000E-01 -9.8651092018933E-01  7.6448415516364E-01  1.2354423864592E+00
62  6.1000000000000E-01 -9.7442925559303E-01  6.3378454825314E-01  1.2723372619239E+00
63  6.2000000000000E-01 -9.5556817182083E-01  4.9985242362806E-01  1.3083289040541E+00
64  6.3000000000000E-01 -9.3040933709636E-01  3.6379432069372E-01  1.3431002772156E+00
65  6.4000000000000E-01 -8.9948148350541E-01  2.2675088325067E-01  1.3763394495446E+00
66  6.5000000000000E-01 -8.6335337437073E-01  8.9883384732908E-02  1.4077432096151E+00
67  6.6000000000000E-01 -8.2262632924473E-01 -4.5640458153185E-02  1.4370205073845E+00
68  6.7000000000000E-01 -7.7792641690780E-01 -1.7866115176381E-01  1.4638956716573E+00
69  6.8000000000000E-01 -7.2989643363439E-01 -3.0804232136726E-01  1.4881113618078E+00
70  6.9000000000000E-01 -6.7918778856858E-01 -4.3268557285994E-01  1.5094312176408E+00
71  7.0000000000000E-01 -6.2645242019139E-01 -5.5154504965665E-01  1.5276421778779E+00
72  7.1000000000000E-01 -5.7233486748248E-01 -6.6364141347309E-01  1.5425564446764E+00
73  7.2000000000000E-01 -5.1746461646332E-01 -7.6807498372210E-01  1.5540130786621E+00
74  7.3000000000000E-01 -4.6244883740736E-01 -8.6403778278098E-01  1.5618792160162E+00
75  7.4000000000000E-01 -4.0786562022936E-01 -9.5082425321690E-01  1.5660509060668E+00
76  7.5000000000000E-01 -3.5425780559858E-01 -1.0278404377489E+00  1.5664535744369E+00
77  7.6000000000000E-01 -3.0212749739215E-01 -1.0946114426865E+00  1.5630421229850E+00
78  7.7000000000000E-01 -2.5193132850079E-01 -1.1507870400627E+00  1.5558006834250E+00
79  7.8000000000000E-01 -2.0407653704564E-01 -1.1961453017996E+00  1.5447420465299E+00
80  7.9000000000000E-01 -1.5891789412442E-01 -1.2305942000148E+00  1.5299067931583E+00
81  8.0000000000000E-01 -1.1675550766092E-01 -1.2541711499416E+00  1.5113621569197E+00
82  8.1000000000000E-01 -7.7833510181582E-02 -1.2670405147889E+00  1.4892006510971E+00
83  8.2000000000000E-01 -4.2339621786786E-02 -1.2694891340815E+00  1.4635384944664E+00
84  8.3000000000000E-01 -1.0405563610552E-02 -1.2619199775110E+00  1.4345138718841E+00
85  8.4000000000000E-01  1.7891717954488E-02 -1.2448440640244E+00  1.4022850660061E+00
86  8.5000000000000E-01  4.2528069712115E-02 -1.2188708198339E+00  1.3670284962756E+00
87  8.6000000000000E-01  6.3529458362614E-02 -1.1846970783591E+00  1.3289367004441E+00
88  8.7000000000000E-01  8.0968681273832E-02 -1.1430949491013E+00  1.2882162924312E+00
89  8.8000000000000E-01  9.4961545342843E-02 -1.0948988004958E+00  1.2450859283635E+00
90  8.9000000000000E-01  1.0566260394429E-01 -1.0409916134831E+00  1.1997743102413E+00
91  9.0000000000000E-01  1.1326054562607E-01 -9.8229096761928E-01  1.1525182539566E+00
92  9.1000000000000E-01  1.1797332953774E-01 -9.1973491995525E-01  1.1035608454023E+00
93  9.2000000000000E-01  1.2004316158366E-01 -8.5426802873468E-01  1.0531497052776E+00
94  9.3000000000000E-01  1.1973140207109E-01 -7.8682775948037E-01  1.0015353799623E+00
95  9.4000000000000E-01  1.1731349030785E-01 -7.1833149067935E-01  9.4896987261160E-01
96  9.5000000000000E-01  1.1307396438283E-01 -6.4966431061829E-01  8.9570532545298E-01
97  9.6000000000000E-01  1.0730164546440E-01 -5.8166776666056E-01  8.4199286123599E-01
98  9.7000000000000E-01  1.0028504564181E-01 -5.1512969420948E-01  7.8808158892422E-01
99  9.8000000000000E-01  9.2308046902870E-02 -4.5077521564771E-01  7.3421777608453E-01
100  9.9000000000000E-01  8.3645886599219E-02 -3.8925896062725E-01  6.8064418804497E-01
101  1.0000000000000E+00  7.4561472019136E-02 -3.3115851918838E-01  6.2759959178507E-01
102  1.0100000000000E+00  6.5302033798270E-02 -2.7696909930340E-01  5.7531842070279E-01
103  1.0200000000000E+00  5.6096115152322E-02 -2.2709932149242E-01  5.2403059487244E-01
104  1.0300000000000E+00  4.7150881635244E-02 -1.8186804611298E-01  4.7396149016521E-01
105  1.0400000000000E+00  3.8649724592765E-02 -1.4150209462941E-01  4.2533204863534E-01
106  1.0500000000000E+00  3.0750120939888E-02 -1.0613469535689E-01  3.7835902186161E-01
107  1.0600000000000E+00  2.3581702586006E-02 -7.5804457577960E-02  3.3325533845569E-01
108  1.0700000000000E+00  1.7244480954533E-02 -5.0454656102662E-02  2.9023058667764E-01
109  1.0800000000000E+00  1.1807165725558E-02 -2.9932591676501E-02  2.4949160300941E-01
110  1.0900000000000E+00  7.3055121567681E-03 -1.3988780845074E-02  2.1124315796756E-01
111  1.1000000000000E+00  3.7406376317545E-03 -2.2757625284860E-03  1.7568871017973E-01
112  1.1100000000000E+00  1.0772631553969E-03  5.6536229370175E-03  1.4303116531703E-01
113  1.1200000000000E+00 -7.5375563110789E-04  1.0330110906513E-02  1.1346437760825E-01
114  1.1300000000000E+00 -1.8451634830517E-03  1.2321184839950E-02  8.7151361324336E-02
115  1.1400000000000E+00 -2.3082141102239E-03  1.2208970277293E-02  6.4218943905671E-02
116  1.1500000000000E+00 -2.2918987676278E-03  1.0650754164692E-02  4.4718550640579E-02
117  1.1600000000000E+00 -1.9406394542529E-03  8.2445182358290E-03  2.8691161871871E-02
118  1.1700000000000E+00 -1.3786409903159E-03  5.4705633559674E-03  1.6206422481305E-02
119  1.1800000000000E+00 -7.5444938294771E-04  2.8328021960485E-03  7.2863315212253E-03
120  1.1900000000000E+00 -2.3283275245330E-04  8.3469103960476E-04  1.8946579996979E-03
121  1.2000000000000E+00 -3.2557651914884E-06  1.1163587616391E-05  2.2590633466769E-05
122  1.2100000000000E+00 -1.6352801377177E-06  5.6714826010630E-06  1.1662208581338E-05
123  1.2200000000000E+00  2.4074577368408E-07 -8.5010328954152E-07 -1.8454022854658E-06
124  1.23  0.  0.  0.
125  1.24  0.  0.  0.
126  1.25  0.  0.  0.
127  1.26  0.  0.  0.
128  1.27  0.  0.  0.
129  1.28  0.  0.  0.
130  1.29  0.  0.  0.
131  1.30  0.  0.  0.
132  1.31  0.  0.  0.
133  1.32  0.  0.  0.
134  1.33  0.  0.  0.
135  1.34  0.  0.  0.
136  1.35  0.  0.  0.
137  1.36  0.  0.  0.
138  1.37  0.  0.  0.
139  1.38  0.  0.  0.
140  1.39  0.  0.  0.
141  1.40  0.  0.  0.
142  1.41  0.  0.  0.
143  1.42  0.  0.  0.
144  1.43  0.  0.  0.
145  1.44  0.  0.  0.
146  1.45  0.  0.  0.
147  1.46  0.  0.  0.
148  1.47  0.  0.  0.
149  1.48  0.  0.  0.
150  1.49  0.  0.  0.
151  1.50  0.  0.  0.
152  1.51  0.  0.  0.
153  1.52  0.  0.  0.
154  1.53  0.  0.  0.
155  1.54  0.  0.  0.
156  1.55  0.  0.  0.
157  1.56  0.  0.  0.
158  1.57  0.  0.  0.
159  1.58  0.  0.  0.
160  1.59  0.  0.  0.
161  1.60  0.  0.  0.
162  1.61  0.  0.  0.
163  1.62  0.  0.  0.
164  1.63  0.  0.  0.
165  1.64  0.  0.  0.
166  1.65  0.  0.  0.
167  1.66  0.  0.  0.
168  1.67  0.  0.  0.
169  1.68  0.  0.  0.
170  1.69  0.  0.  0.
171  1.70  0.  0.  0.
172  1.71  0.  0.  0.
173  1.72  0.  0.  0.
174  1.73  0.  0.  0.
175  1.74  0.  0.  0.
176  1.75  0.  0.  0.
177  1.76  0.  0.  0.
178  1.77  0.  0.  0.
179  1.78  0.  0.  0.
180  1.79  0.  0.  0.
181  1.80  0.  0.  0.
182  1.81  0.  0.  0.
183  1.82  0.  0.  0.
184  1.83  0.  0.  0.
185  1.84  0.  0.  0.
186  1.85  0.  0.  0.
187  1.86  0.  0.  0.
188  1.87  0.  0.  0.
189  1.88  0.  0.  0.
190  1.89  0.  0.  0.
191  1.90  0.  0.  0.
192  1.91  0.  0.  0.
193  1.92  0.  0.  0.
194  1.93  0.  0.  0.
195  1.94  0.  0.  0.
196  1.95  0.  0.  0.
197  1.96  0.  0.  0.
198  1.97  0.  0.  0.
199  1.98  0.  0.  0.
200  1.99  0.  0.  0.
201  2.00  0.  0.  0.
202  2.01  0.  0.  0.
203  2.02  0.  0.  0.
204  2.03  0.  0.  0.
205  2.04  0.  0.  0.
206  2.05  0.  0.  0.
207  2.06  0.  0.  0.
208  2.07  0.  0.  0.
209  2.08  0.  0.  0.
210  2.09  0.  0.  0.
211  2.10  0.  0.  0.
212  2.11  0.  0.  0.
213  2.12  0.  0.  0.
214  2.13  0.  0.  0.
215  2.14  0.  0.  0.
216  2.15  0.  0.  0.
217  2.16  0.  0.  0.
218  2.17  0.  0.  0.
219  2.18  0.  0.  0.
220  2.19  0.  0.  0.
221  2.20  0.  0.  0.
222  2.21  0.  0.  0.
223  2.22  0.  0.  0.
224  2.23  0.  0.  0.
225  2.24  0.  0.  0.
226  2.25  0.  0.  0.
227  2.26  0.  0.  0.
228  2.27  0.  0.  0.
229  2.28  0.  0.  0.
230  2.29  0.  0.  0.
231  2.30  0.  0.  0.
232  2.31  0.  0.  0.
233  2.32  0.  0.  0.
234  2.33  0.  0.  0.
235  2.34  0.  0.  0.
236  2.35  0.  0.  0.
237  2.36  0.  0.  0.
238  2.37  0.  0.  0.
239  2.38  0.  0.  0.
240  2.39  0.  0.  0.
241  2.40  0.  0.  0.
242  2.41  0.  0.  0.
243  2.42  0.  0.  0.
244  2.43  0.  0.  0.
245  2.44  0.  0.  0.
246  2.45  0.  0.  0.
247  2.46  0.  0.  0.
248  2.47  0.  0.  0.
249  2.48  0.  0.  0.
250  2.49  0.  0.  0.
251  2.50  0.  0.  0.
252  2.51  0.  0.  0.
253  2.52  0.  0.  0.
254  2.53  0.  0.  0.
255  2.54  0.  0.  0.
256  2.55  0.  0.  0.
257  2.56  0.  0.  0.
258  2.57  0.  0.  0.
259  2.58  0.  0.  0.
260  2.59  0.  0.  0.
261  2.60  0.  0.  0.
262  2.61  0.  0.  0.
263  2.62  0.  0.  0.
264  2.63  0.  0.  0.
265  2.64  0.  0.  0.
266  2.65  0.  0.  0.
267  2.66  0.  0.  0.
268  2.67  0.  0.  0.
269  2.68  0.  0.  0.
270  2.69  0.  0.  0.
271  2.70  0.  0.  0.
272  2.71  0.  0.  0.
273  2.72  0.  0.  0.
274  2.73  0.  0.  0.
275  2.74  0.  0.  0.
276  2.75  0.  0.  0.
277  2.76  0.  0.  0.
278  2.77  0.  0.  0.
279  2.78  0.  0.  0.
280  2.79  0.  0.  0.
281  2.80  0.  0.  0.
282  2.81  0.  0.  0.
283  2.82  0.  0.  0.
284  2.83  0.  0.  0.
285  2.84  0.  0.  0.
286  2.85  0.  0.  0.
287  2.86  0.  0.  0.
288  2.87  0.  0.  0.
289  2.88  0.  0.  0.
290  2.89  0.  0.  0.
291  2.90  0.  0.  0.
292  2.91  0.  0.  0.
293  2.92  0.  0.  0.
294  2.93  0.  0.  0.
295  2.94  0.  0.  0.
296  2.95  0.  0.  0.
297  2.96  0.  0.  0.
298  2.97  0.  0.  0.
299  2.98  0.  0.  0.
300  2.99  0.  0.  0.
301  3.00  0.  0.  0.
302  3.01  0.  0.  0.
303  3.02  0.  0.  0.
304  3.03  0.  0.  0.
305  3.04  0.  0.  0.
306  3.05  0.  0.  0.
307  3.06  0.  0.  0.
308  3.07  0.  0.  0.
309  3.08  0.  0.  0.
310  3.09  0.  0.  0.
311  3.10  0.  0.  0.
312  3.11  0.  0.  0.
313  3.12  0.  0.  0.
314  3.13  0.  0.  0.
315  3.14  0.  0.  0.
316  3.15  0.  0.  0.
317  3.16  0.  0.  0.
318  3.17  0.  0.  0.
319  3.18  0.  0.  0.
320  3.19  0.  0.  0.
321  3.20  0.  0.  0.
322  3.21  0.  0.  0.
323  3.22  0.  0.  0.
324  3.23  0.  0.  0.
325  3.24  0.  0.  0.
326  3.25  0.  0.  0.
327  3.26  0.  0.  0.
328  3.27  0.  0.  0.
329  3.28  0.  0.  0.
330  3.29  0.  0.  0.
331  3.30  0.  0.  0.
332  3.31  0.  0.  0.
333  3.32  0.  0.  0.
334  3.33  0.  0.  0.
335  3.34  0.  0.  0.
336  3.35  0.  0.  0.
337  3.36  0.  0.  0.
338  3.37  0.  0.  0.
339  3.38  0.  0.  0.
340  3.39  0.  0.  0.
341  3.40  0.  0.  0.
342  3.41  0.  0.  0.
343  3.42  0.  0.  0.
344  3.43  0.  0.  0.
345  3.44  0.  0.  0.
346  3.45  0.  0.  0.
347  3.46  0.  0.  0.
348  3.47  0.  0.  0.
349  3.48  0.  0.  0.
350  3.49  0.  0.  0.
351  3.50  0.  0.  0.
352  3.51  0.  0.  0.
353  3.52  0.  0.  0.
354  3.53  0.  0.  0.
355  3.54  0.  0.  0.
356  3.55  0.  0.  0.
357  3.56  0.  0.  0.
358  3.57  0.  0.  0.
359  3.58  0.  0.  0.
360  3.59  0.  0.  0.
361  3.60  0.  0.  0.
362  3.61  0.  0.  0.
363  3.62  0.  0.  0.
364  3.63  0.  0.  0.
365  3.64  0.  0.  0.
366  3.65  0.  0.  0.
367  3.66  0.  0.  0.
368  3.67  0.  0.  0.
369  3.68  0.  0.  0.
370  3.69  0.  0.  0.
371  3.70  0.  0.  0.
372  3.71  0.  0.  0.
373  3.72  0.  0.  0.
374  3.73  0.  0.  0.
375  3.74  0.  0.  0.
376  3.75  0.  0.  0.
377  3.76  0.  0.  0.
378  3.77  0.  0.  0.
379  3.78  0.  0.  0.
380  3.79  0.  0.  0.
381  3.80  0.  0.  0.
382  3.81  0.  0.  0.
383  3.82  0.  0.  0.
384  3.83  0.  0.  0.
385  3.84  0.  0.  0.
386  3.85  0.  0.  0.
387  3.86  0.  0.  0.
388  3.87  0.  0.  0.
389  3.88  0.  0.  0.
390  3.89  0.  0.  0.
391  3.90  0.  0.  0.
392  3.91  0.  0.  0.
393  3.92  0.  0.  0.
394  3.93  0.  0.  0.
395  3.94  0.  0.  0.
396  3.95  0.  0.  0.
397  3.96  0.  0.  0.
398  3.97  0.  0.  0.
399  3.98  0.  0.  0.
400  3.99  0.  0.  0.
401  4.00  0.  0.  0.
402  4.01  0.  0.  0.
403  4.02  0.  0.  0.
404  4.03  0.  0.  0.
405  4.04  0.  0.  0.
406  4.05  0.  0.  0.
407  4.06  0.  0.  0.
408  4.07  0.  0.  0.
409  4.08  0.  0.  0.
410  4.09  0.  0.  0.
411  4.10  0.  0.  0.
412  4.11  0.  0.  0.
413  4.12  0.  0.  0.
414  4.13  0.  0.  0.
415  4.14  0.  0.  0.
416  4.15  0.  0.  0.
417  4.16  0.  0.  0.
418  4.17  0.  0.  0.
419  4.18  0.  0.  0.
420  4.19  0.  0.  0.
421  4.20  0.  0.  0.
422  4.21  0.  0.  0.
423  4.22  0.  0.  0.
424  4.23  0.  0.  0.
425  4.24  0.  0.  0.
426  4.25  0.  0.  0.
427  4.26  0.  0.  0.
428  4.27  0.  0.  0.
429  4.28  0.  0.  0.
430  4.29  0.  0.  0.
431  4.30  0.  0.  0.
432  4.31  0.  0.  0.
433  4.32  0.  0.  0.
434  4.33  0.  0.  0.
435  4.34  0.  0.  0.
436  4.35  0.  0.  0.
437  4.36  0.  0.  0.
438  4.37  0.  0.  0.
439  4.38  0.  0.  0.
440  4.39  0.  0.  0.
441  4.40  0.  0.  0.
442  4.41  0.  0.  0.
443  4.42  0.  0.  0.
444  4.43  0.  0.  0.
445  4.44  0.  0.  0.
446  4.45  0.  0.  0.
447  4.46  0.  0.  0.
448  4.47  0.  0.  0.
449  4.48  0.  0.  0.
450  4.49  0.  0.  0.
451  4.50  0.  0.  0.
452  4.51  0.  0.  0.
453  4.52  0.  0.  0.
454  4.53  0.  0.  0.
455  4.54  0.  0.  0.
456  4.55  0.  0.  0.
457  4.56  0.  0.  0.
458  4.57  0.  0.  0.
459  4.58  0.  0.  0.
460  4.59  0.  0.  0.
461  4.60  0.  0.  0.
462  4.61  0.  0.  0.
463  4.62  0.  0.  0.
464  4.63  0.  0.  0.
465  4.64  0.  0.  0.
466  4.65  0.  0.  0.
467  4.66  0.  0.  0.
468  4.67  0.  0.  0.
469  4.68  0.  0.  0.
470  4.69  0.  0.  0.
471  4.70  0.  0.  0.
472  4.71  0.  0.  0.
473  4.72  0.  0.  0.
474  4.73  0.  0.  0.
475  4.74  0.  0.  0.
476  4.75  0.  0.  0.
477  4.76  0.  0.  0.
478  4.77  0.  0.  0.
479  4.78  0.  0.  0.
480  4.79  0.  0.  0.
481  4.80  0.  0.  0.
482  4.81  0.  0.  0.
483  4.82  0.  0.  0.
484  4.83  0.  0.  0.
485  4.84  0.  0.  0.
486  4.85  0.  0.  0.
487  4.86  0.  0.  0.
488  4.87  0.  0.  0.
489  4.88  0.  0.  0.
490  4.89  0.  0.  0.
491  4.90  0.  0.  0.
492  4.91  0.  0.  0.
493  4.92  0.  0.  0.
494  4.93  0.  0.  0.
495  4.94  0.  0.  0.
496  4.95  0.  0.  0.
497  4.96  0.  0.  0.
498  4.97  0.  0.  0.
499  4.98  0.  0.  0.
500  4.99  0.  0.  0.
501  5.00  0.  0.  0.
502  5.01  0.  0.  0.
503  5.02  0.  0.  0.
504  5.03  0.  0.  0.
505  5.04  0.  0.  0.
506  5.05  0.  0.  0.
507  5.06  0.  0.  0.
508  5.07  0.  0.  0.
509  5.08  0.  0.  0.
510  5.09  0.  0.  0.
511  5.10  0.  0.  0.
512  5.11  0.  0.  0.
513  5.12  0.  0.  0.
514  5.13  0.  0.  0.
515  5.14  0.  0.  0.
516  5.15  0.  0.  0.
517  5.16  0.  0.  0.
518  5.17  0.  0.  0.
519  5.18  0.  0.  0.
520  5.19  0.  0.  0.
521  5.20  0.  0.  0.
522  5.21  0.  0.  0.
523  5.22  0.  0.  0.
524  5.23  0.  0.  0.
525  5.24  0.  0.  0.
526  5.25  0.  0.  0.
527  5.26  0.  0.  0.
528  5.27  0.  0.  0.
529  5.28  0.  0.  0.
530  5.29  0.  0.  0.
531  5.30  0.  0.  0.
532  5.31  0.  0.  0.
533  5.32  0.  0.  0.
534  5.33  0.  0.  0.
535  5.34  0.  0.  0.
536  5.35  0.  0.  0.
537  5.36  0.  0.  0.
538  5.37  0.  0.  0.
539  5.38  0.  0.  0.
540  5.39  0.  0.  0.
541  5.40  0.  0.  0.
542  5.41  0.  0.  0.
543  5.42  0.  0.  0.
544  5.43  0.  0.  0.
545  5.44  0.  0.  0.
546  5.45  0.  0.  0.
547  5.46  0.  0.  0.
548  5.47  0.  0.  0.
549  5.48  0.  0.  0.
550  5.49  0.  0.  0.
551  5.50  0.  0.  0.
552  5.51  0.  0.  0.
553  5.52  0.  0.  0.
554  5.53  0.  0.  0.
555  5.54  0.  0.  0.
556  5.55  0.  0.  0.
557  5.56  0.  0.  0.
558  5.57  0.  0.  0.
559  5.58  0.  0.  0.
560  5.59  0.  0.  0.
561  5.60  0.  0.  0.
562  5.61  0.  0.  0.
563  5.62  0.  0.  0.
564  5.63  0.  0.  0.
565  5.64  0.  0.  0.
566  5.65  0.  0.  0.
567  5.66  0.  0.  0.
568  5.67  0.  0.  0.
569  5.68  0.  0.  0.
570  5.69  0.  0.  0.
571  5.70  0.  0.  0.
572  5.71  0.  0.  0.
573  5.72  0.  0.  0.
574  5.73  0.  0.  0.
575  5.74  0.  0.  0.
576  5.75  0.  0.  0.
577  5.76  0.  0.  0.
578  5.77  0.  0.  0.
579  5.78  0.  0.  0.
580  5.79  0.  0.  0.
581  5.80  0.  0.  0.
582  5.81  0.  0.  0.
583  5.82  0.  0.  0.
584  5.83  0.  0.  0.
585  5.84  0.  0.  0.
586  5.85  0.  0.  0.
587  5.86  0.  0.  0.
588  5.87  0.  0.  0.
589  5.88  0.  0.  0.
590  5.89  0.  0.  0.
591  5.90  0.  0.  0.
592  5.91  0.  0.  0.
593  5.92  0.  0.  0.
594  5.93  0.  0.  0.
595  5.94  0.  0.  0.
596  5.95  0.  0.  0.
597  5.96  0.  0.  0.
598  5.97  0.  0.  0.
599  5.98  0.  0.  0.
600  5.99  0.  0.  0.
1                         7.5454688439856E+00 -7.8386073299342E-01
1  0.0000000000000E+00  2.9281068125719E-09 -8.5325762289035E-09
2  1.0000000000000E-02  4.4400345912385E-03  5.7510495965467E-04
3  2.0000000000000E-02  1.7719921120545E-02  2.3034711151892E-03
4  3.0000000000000E-02  3.9719324691605E-02  5.1940907307800E-03
5  4.0000000000000E-02  7.0238742249088E-02  9.2614181061696E-03
6  5.0000000000000E-02  1.0900108161426E-01  1.4524590279049E-02
7  6.0000000000000E-02  1.5565386467994E-01  2.1006375148195E-02
8  7.0000000000000E-02  2.0977204682888E-01  2.8731884577633E-02
9  8.0000000000000E-02  2.7086144171136E-01  3.7727098574655E-02
10  9.0000000000000E-02  3.3836273714033E-01  4.8017253617668E-02
11  1.0000000000000E-01  4.1165608398250E-01  5.9625153404261E-02
12  1.1000000000000E-01  4.9006623551871E-01  7.2569463517077E-02
13  1.2000000000000E-01  5.7286820981804E-01  8.6863052648466E-02
14  1.3000000000000E-01  6.5929344225381E-01  1.0251144203861E-01
15  1.4000000000000E-01  7.4853638944768E-01  1.1951142168795E-01
16  1.5000000000000E-01  8.3976153975691E-01  1.3784988679672E-01
17  1.6000000000000E-01  9.3211077903885E-01  1.5750294092104E-01
18  1.7000000000000E-01  1.0247110539825E+00  1.7843530373887E-01
19  1.8000000000000E-01  1.1166822689559E+00  2.0060005136457E-01
20  1.9000000000000E-01  1.2071453462614E+00  2.2393870616345E-01
21  2.0000000000000E-01  1.2952303741083E+00  2.4838168135245E-01
22  2.1000000000000E-01  1.3800847617015E+00  2.7384907371694E-01
23  2.2000000000000E-01  1.4608813167950E+00  3.0025178591761E-01
24  2.3000000000000E-01  1.5368261580514E+00  3.2749294850349E-01
25  2.4000000000000E-01  1.6071663727514E+00  3.5546960126494E-01
26  2.5000000000000E-01  1.6711973299513E+00  3.8407458431010E-01
27  2.6000000000000E-01  1.7282695602052E+00  4.1319858154620E-01
28  2.7000000000000E-01  1.7777951155372E+00  4.4273225335933E-01
29  2.8000000000000E-01  1.8192533275066E+00  4.7256839142583E-01
30  2.9000000000000E-01  1.8521958869611E+00  5.0260402689719E-01
31  3.0000000000000E-01  1.8762511763810E+00  5.3274242375612E-01
32  3.1000000000000E-01  1.8911277944996E+00  5.6289489194321E-01
33  3.2000000000000E-01  1.8966172230123E+00  5.9298235983101E-01
34  3.3000000000000E-01  1.8925955965090E+00  6.2293665263011E-01
35  3.4000000000000E-01  1.8790245490589E+00  6.5270143213754E-01
36  3.5000000000000E-01  1.8559511239397E+00  6.8223276360870E-01
37  3.6000000000000E-01  1.8235067465480E+00  7.1149928712221E-01
38  3.7000000000000E-01  1.7819052742979E+00  7.4048198324432E-01
39  3.8000000000000E-01  1.7314401510119E+00  7.6917353568537E-01
40  3.9000000000000E-01  1.6724807066349E+00  7.9757730655692E-01
41  4.0000000000000E-01  1.6054676557770E+00  8.2570595236372E-01
42  4.1000000000000E-01  1.5309078603303E+00  8.5357972058563E-01
43  4.2000000000000E-01  1.4493684319516E+00  8.8122447723354E-01
44  4.3000000000000E-01  1.3614702593321E+00  9.0866952474717E-01
45  4.4000000000000E-01  1.2678810526805E+00  9.3594527673734E-01
46  4.5000000000000E-01  1.1693080035895E+00  9.6308086111640E-01
47  4.6000000000000E-01  1.0664901623064E+00  9.9010172593015E-01
48  4.7000000000000E-01  9.6019063634119E-01  1.0170273225998E+00
49  4.8000000000000E-01  8.5118871429860E-01  1.0438689392772E+00
50  4.9000000000000E-01  7.4027201685326E-01  1.0706277526657E+00
51  5.0000000000000E-01  6.2822877298967E-01  1.0972931600933E+00
52  5.1000000000000E-01  5.1584031412927E-01  1.1238414450517E+00
53  5.2000000000000E-01  4.0387387174603E-01  1.1502348191099E+00
54  5.3000000000000E-01  2.9307575573821E-01  1.1764208714038E+00
55  5.4000000000000E-01  1.8416498142181E-01  1.2023324441814E+00
56  5.5000000000000E-01  7.7827402804299E-02  1.2278879395588E+00
57  5.6000000000000E-01 -2.5289600934317E-02  1.2529920491621E+00
58  5.7000000000000E-01 -1.2458184979830E-01  1.2775368851300E+00
59  5.8000000000000E-01 -2.1949247314718E-01  1.3014034784891E+00
60  5.9000000000000E-01 -3.0951539127759E-01  1.3244635995798E+00
61  6.0000000000000E-01 -3.9419816407323E-01  1.3465818454156E+00
62  6.1000000000000E-01 -4.7314421165904E-01  1.3676179308973E+00
63  6.2000000000000E-01 -5.4601442030566E-01  1.3874291149782E+00
64  6.3000000000000E-01 -6.1252815402341E-01  1.4058726893518E+00
65  6.4000000000000E-01 -6.7246369825683E-01  1.4228084561536E+00
66  6.5000000000000E-01 -7.2565816678386E-01  1.4381011225480E+00
67  6.6000000000000E-01 -7.7200690632491E-01  1.4516225438764E+00
68  6.7000000000000E-01 -8.1146243551211E-01  1.4632537531288E+00
69  6.8000000000000E-01 -8.4403295583519E-01  1.4728867226657E+00
70  6.9000000000000E-01 -8.6978047208424E-01  1.4804258140690E+00
71  7.0000000000000E-01 -8.8881855880378E-01  1.4857888834006E+00
72  7.1000000000000E-01 -9.0130980753432E-01  1.4889080215911E+00
73  7.2000000000000E-01 -9.0746298734631E-01  1.4897299227364E+00
74  7.3000000000000E-01 -9.0752994857744E-01  1.4882158862942E+00
75  7.4000000000000E-01 -9.0180229697969E-01  1.4843414720730E+00
76  7.5000000000000E-01 -8.9060786287592E-01  1.4780958390473E+00
77  7.6000000000000E-01 -8.7430698760879E-01  1.4694808099811E+00
78  7.7000000000000E-01 -8.5328864770891E-01  1.4585097132109E+00
79  7.8000000000000E-01 -8.2796643595453E-01  1.4452060604006E+00
80  7.9000000000000E-01 -7.9877441794796E-01  1.4296021243594E+00
81  8.0000000000000E-01 -7.6616288305969E-01  1.4117374839298E+00
82  8.1000000000000E-01 -7.3059400961184E-01  1.3916576033922E+00
83  8.2000000000000E-01 -6.9253746596633E-01  1.3694125117836E+00
84  8.3000000000000E-01 -6.5246597168327E-01  1.3450556430528E+00
85  8.4000000000000E-01 -6.1085084601312E-01  1.3186428912407E+00
86  8.5000000000000E-01 -5.6815757453527E-01  1.2902319261087E+00
87  8.6000000000000E-01 -5.2484142857593E-01  1.2598818041640E+00
88  8.7000000000000E-01 -4.8134317592390E-01  1.2276528982139E+00
89  8.8000000000000E-01 -4.3808492508979E-01  1.1936071558522E+00
90  8.9000000000000E-01 -3.9546614868917E-01  1.1578086840961E+00
91  9.0000000000000E-01 -3.5385993423972E-01  1.1203246442312E+00
92  9.1000000000000E-01 -3.1360951252294E-01  1.0812264282627E+00
93  9.2000000000000E-01 -2.7502511446915E-01  1.0405910766808E+00
94  9.3000000000000E-01 -2.3838120710244E-01  9.9850288695223E-01
95  9.4000000000000E-01 -2.0391415729232E-01  9.5505515364310E-01
96  9.5000000000000E-01 -1.7182036880379E-01  9.1035197466649E-01
97  9.6000000000000E-01 -1.4225493337020E-01  8.6451005409888E-01
98  9.7000000000000E-01 -1.1533083024073E-01  8.1766043046973E-01
99  9.8000000000000E-01 -9.1118700936289E-02  7.6995006048567E-01
100  9.9000000000000E-01 -6.9647216899823E-02  7.2154319178267E-01
101  1.0000000000000E+00 -5.0904047518049E-02  6.7262246439938E-01
102  1.0100000000000E+00 -3.4837424847132E-02  6.2338968902622E-01
103  1.0200000000000E+00 -2.1358289541391E-02  5.7406626043853E-01
104  1.0300000000000E+00 -1.0342990273459E-02  5.2489317650606E-01
105  1.0400000000000E+00 -1.6364966729493E-03  4.7613064636172E-01
106  1.0500000000000E+00  4.9439261769110E-03  4.2805728527068E-01
107  1.0600000000000E+00  9.6046449948556E-03  3.8096890796036E-01
108  1.0700000000000E+00  1.2571260981111E-02  3.3517694613012E-01
109  1.0800000000000E+00  1.4083970680233E-02  2.9100652911907E-01
110  1.0900000000000E+00  1.4392775385677E-02  2.4879427908416E-01
111  1.1000000000000E+00  1.3752627246656E-02  2.0888586166193E-01
112  1.1100000000000E+00  1.2418590458154E-02  1.7163330624768E-01
113  1.1200000000000E+00  1.0637530532806E-02  1.3738281785423E-01
114  1.1300000000000E+00  8.6345086894050E-03  1.0644933441013E-01
115  1.1400000000000E+00  6.6054808099468E-03  7.9108208812493E-02
116  1.1500000000000E+00  4.6877407383120E-03  5.5545126422529E-02
117  1.1600000000000E+00  2.9979730840156E-03  3.5927664454023E-02
118  1.1700000000000E+00  1.6506986929667E-03  2.0455137008311E-02
119  1.1800000000000E+00  7.0597688462454E-04  9.2675474108182E-03
120  1.1900000000000E+00  1.6985789121446E-04  2.4277346737838E-03
121  1.2000000000000E+00  1.7948439771509E-06  2.9169632347573E-05
122  1.2100000000000E+00  9.5913763196700E-07  1.5037315707493E-05
123  1.2200000000000E+00 -1.5940895296457E-07 -2.3709911054971E-06
124  1.23  0.  0.
125  1.24  0.  0.
126  1.25  0.  0.
127  1.26  0.  0.
128  1.27  0.  0.
129  1.28  0.  0.
130  1.29  0.  0.
131  1.30  0.  0.
132  1.31  0.  0.
133  1.32  0.  0.