Fm    ONCVPSP-4.0.1  r_core=   1.10412   1.10412   1.10412   1.15134
100.0000     40.0000      230615    zatom,zion,pspd
8      11   3     4   600     0    pspcod,pspxc,lmax,lloc,mmax,r2well
5.99000000  2.50000000  0.00000000    rchrg fchrg qchrg
3     2     2     2     0    nproj
1     1           extension_switch
0                         3.2180575429917E+01  4.0214998247307E+00 -5.3044401022964E-01
1  0.0000000000000E+00 -4.2101812258721E-08  1.4229028988400E-07  1.2199631135856E-07
2  1.0000000000000E-02  1.6281789228708E-01 -5.7453228764671E-02  1.9293160685703E-02
3  2.0000000000000E-02  3.2452248516123E-01 -1.1360648982223E-01  3.8908268528354E-02
4  3.0000000000000E-02  4.8401298694282E-01 -1.6718878696925E-01  5.9147900702006E-02
5  4.0000000000000E-02  6.4021331876378E-01 -2.1698609300444E-01  8.0276732463178E-02
6  5.0000000000000E-02  7.9208372609571E-01 -2.6186743888992E-01  1.0250464752905E-01
7  6.0000000000000E-02  9.3863152884484E-01 -3.0080823790586E-01  1.2597222881214E-01
8  7.0000000000000E-02  1.0789207754058E+00 -3.3291010049081E-01  1.5073927153256E-01
9  8.0000000000000E-02  1.2120806081679E+00 -3.5741653775017E-01  1.7677683873264E-01
10  9.0000000000000E-02  1.3373121970836E+00 -3.7372411780320E-01  2.0396323610391E-01
11  1.0000000000000E-01  1.4538941519217E+00 -3.8138882216684E-01  2.3208412450844E-01
12  1.1000000000000E-01  1.5611863804097E+00 -3.8012754147838E-01  2.6083682094629E-01
13  1.2000000000000E-01  1.6586324161811E+00 -3.6981484287917E-01  2.8983866866951E-01
14  1.3000000000000E-01  1.7457602948414E+00 -3.5047532712148E-01  3.1863919144310E-01
15  1.4000000000000E-01  1.8221821062107E+00 -3.2227206403211E-01  3.4673559220713E-01
16  1.5000000000000E-01  1.8875923937434E+00 -2.8549174312428E-01  3.7359101876448E-01
17  1.6000000000000E-01  1.9417656064409E+00 -2.4052729560407E-01  3.9865490409052E-01
18  1.7000000000000E-01  1.9845528327766E+00 -1.8785882971063E-01  4.2138460101139E-01
19  1.8000000000000E-01  2.0158780592460E+00 -1.2803376964134E-01  4.4126747382651E-01
20  1.9000000000000E-01  2.0357341975985E+00 -6.1647097237850E-02  4.5784258523050E-01
21  2.0000000000000E-01  2.0441791145901E+00  1.0677435166143E-02  4.7072112657830E-01
22  2.1000000000000E-01  2.0413318767374E+00  8.8304321405831E-02  4.7960478274788E-01
23  2.2000000000000E-01  2.0273693910502E+00  1.7060085261956E-01  4.8430129785292E-01
24  2.3000000000000E-01  2.0025235825571E+00  2.5694864273439E-01  4.8473661186014E-01
25  2.4000000000000E-01  1.9670792024729E+00  3.4675172775351E-01  4.8096306663072E-01
26  2.5000000000000E-01  1.9213723092933E+00  4.3944101547627E-01  4.7316332792425E-01
27  2.6000000000000E-01  1.8657894113475E+00  5.3447504921394E-01  4.6164983159415E-01
28  2.7000000000000E-01  1.8007672059339E+00  6.3133723743343E-01  4.4685973115384E-01
29  2.8000000000000E-01  1.7267927996700E+00  7.2952988263586E-01  4.2934549341315E-01
30  2.9000000000000E-01  1.6444042495369E+00  8.2856550899300E-01  4.0976145229119E-01
31  3.0000000000000E-01  1.5541912265489E+00  9.2795613175820E-01  3.8884678177970E-01
32  3.1000000000000E-01  1.4567955759485E+00  1.0272012256259E+00  3.6740548146643E-01
33  3.2000000000000E-01  1.3529115308502E+00  1.1257752286561E+00  3.4628407690169E-01
34  3.3000000000000E-01  1.2432853313887E+00  1.2231154592095E+00  3.2634781824074E-01
35  3.4000000000000E-01  1.1287140092022E+00  1.3186113233144E+00  3.0845621099519E-01
36  3.5000000000000E-01  1.0100431174746E+00  1.4115956485430E+00  2.9343873060550E-01
37  3.6000000000000E-01  8.8816321918740E-01  1.5013388991487E+00  2.8207155745765E-01
38  3.7000000000000E-01  7.6400498956329E-01  1.5870469090240E+00  2.7505612179740E-01
39  3.8000000000000E-01  6.3853284128162E-01  1.6678626186999E+00  2.7300017090799E-01
40  3.9000000000000E-01  5.1273704084478E-01  1.7428721263673E+00  2.7640196731193E-01
41  4.0000000000000E-01  3.8762434903711E-01  1.8111151681207E+00  2.8563810102823E-01
42  4.1000000000000E-01  2.6420728506329E-01  1.8715999376208E+00  3.0095525637180E-01
43  4.2000000000000E-01  1.4349217985091E-01  1.9233219489606E+00  3.2246612033267E-01
44  4.3000000000000E-01  2.6466246294476E-02  1.9652864477027E+00  3.5014946154227E-01
45  4.4000000000000E-01 -8.5916049844725E-02  1.9965336925807E+00  3.8385425264448E-01
46  4.5000000000000E-01 -1.9274698763318E-01  2.0161662724079E+00  4.2330756085046E-01
47  4.6000000000000E-01 -2.9317959057383E-01  2.0233774964920E+00  4.6812579742864E-01
48  4.7000000000000E-01 -3.8644123841315E-01  2.0174798082413E+00  5.1782880211991E-01
49  4.8000000000000E-01 -4.7184649256006E-01  1.9979321250406E+00  5.7185614731906E-01
50  4.9000000000000E-01 -5.4880874253620E-01  1.9643650054992E+00  6.2958498266970E-01
51  5.0000000000000E-01 -6.1685030185837E-01  1.9166025885823E+00  6.9034870561949E-01
52  5.1000000000000E-01 -6.7561061720240E-01  1.8546803367832E+00  7.5345573838316E-01
53  5.2000000000000E-01 -7.2485230349900E-01  1.7788577443268E+00  8.1820771628032E-01
54  5.3000000000000E-01 -7.6446477809845E-01  1.6896253366242E+00  8.8391644492081E-01
55  5.4000000000000E-01 -7.9446533714834E-01  1.5877054824529E+00  9.4991906140702E-01
56  5.5000000000000E-01 -8.1499759429188E-01  1.4740467579573E+00  1.0155909337797E+00
57  5.6000000000000E-01 -8.2632728284177E-01  1.3498118328964E+00  1.0803559486580E+00
58  5.7000000000000E-01 -8.2883550466474E-01  1.2163590853429E+00  1.1436939640757E+00
59  5.8000000000000E-01 -8.2300958901665E-01  1.0752183817767E+00  1.2051453371622E+00
60  5.9000000000000E-01 -8.0943179945535E-01  9.2806167588988E-01  1.2643125686355E+00
61  6.0000000000000E-01 -7.8876619389065E-01  7.7666927268655E-01  1.3208592322980E+00
62  6.1000000000000E-01 -7.6174399927565E-01  6.2289276681311E-01  1.3745064723887E+00
63  6.2000000000000E-01 -7.2914790629470E-01  4.6861578893847E-01  1.4250274499102E+00
64  6.3000000000000E-01 -6.9179571904863E-01  3.1571377642281E-01  1.4722401968500E+00
65  6.4000000000000E-01 -6.5052380914024E-01  1.6601402119876E-01  1.5159993914546E+00
66  6.5000000000000E-01 -6.0617082228115E-01  2.1257237341472E-02  1.5561875963719E+00
67  6.6000000000000E-01 -5.5956206876082E-01 -1.1693816624652E-01  1.5927065036978E+00
68  6.7000000000000E-01 -5.1149499762433E-01 -2.4710802386319E-01  1.6254687070706E+00
69  6.8000000000000E-01 -4.6272610954678E-01 -3.6796961887294E-01  1.6543904724147E+00
70  6.9000000000000E-01 -4.1395960702926E-01 -4.7844339011786E-01  1.6793859083052E+00
71  7.0000000000000E-01 -3.6583801493720E-01 -5.7766857442623E-01  1.7003628476904E+00
72  7.1000000000000E-01 -3.1893493216487E-01 -6.6501244276619E-01  1.7172206491644E+00
73  7.2000000000000E-01 -2.7374999912358E-01 -7.4007302007008E-01  1.7298500129965E+00
74  7.3000000000000E-01 -2.3070608872668E-01 -8.0267541263850E-01  1.7381347899689E+00
75  7.4000000000000E-01 -1.9014865343709E-01 -8.5286209340879E-01  1.7419556451708E+00
76  7.5000000000000E-01 -1.5234709048151E-01 -8.9087770571395E-01  1.7411953296067E+00
77  7.6000000000000E-01 -1.1749792400955E-01 -9.1714913268247E-01  1.7357452148980E+00
78  7.7000000000000E-01 -8.5729548932136E-02 -9.3226173542235E-01  1.7255126651330E+00
79  7.8000000000000E-01 -5.7108238168023E-02 -9.3693278309869E-01  1.7104287590663E+00
80  7.9000000000000E-01 -3.1645084370092E-02 -9.3198317786291E-01  1.6904558386949E+00
81  8.0000000000000E-01 -9.3035297254856E-03 -9.1830861472924E-01  1.6655943492139E+00
82  8.1000000000000E-01  9.9928664989141E-03 -8.9685130976683E-01  1.6358884521470E+00
83  8.2000000000000E-01  2.6352763442120E-02 -8.6857337966680E-01  1.6014299388587E+00
84  8.3000000000000E-01  3.9909795371888E-02 -8.3443286332212E-01  1.5623600457794E+00
85  8.4000000000000E-01  5.0816033062481E-02 -7.9536324408959E-01  1.5188688748931E+00
86  8.5000000000000E-01  5.9236387256118E-02 -7.5225716313982E-01  1.4711922522617E+00
87  8.6000000000000E-01  6.5344135618871E-02 -7.0595481349515E-01  1.4196060121163E+00
88  8.7000000000000E-01  6.9317689749909E-02 -6.5723727484452E-01  1.3644178727130E+00
89  8.8000000000000E-01  7.1338646234723E-02 -6.0682479460988E-01  1.3059572711415E+00
90  8.9000000000000E-01  7.1591086385787E-02 -5.5537974407158E-01  1.2445637462198E+00
91  9.0000000000000E-01  7.0262003825768E-02 -5.0351368175313E-01  1.1805747005845E+00
92  9.1000000000000E-01  6.7542647713607E-02 -4.5179764070295E-01  1.1143136347463E+00
93  9.2000000000000E-01  6.3630472002349E-02 -4.0077442132051E-01  1.0460802276122E+00
94  9.3000000000000E-01  5.8731276937517E-02 -3.5097131484704E-01  9.7614394109978E-01
95  9.4000000000000E-01  5.3061016817758E-02 -3.0291130082829E-01  9.0474315312166E-01
96  9.5000000000000E-01  4.6846625997414E-02 -2.5712034908830E-01  8.3209217666364E-01
97  9.6000000000000E-01  4.0325080801517E-02 -2.1412800559561E-01  7.5839890712199E-01
98  9.7000000000000E-01  3.3739765513420E-02 -1.7445794299520E-01  6.8389626057930E-01
99  9.8000000000000E-01  2.7333042348833E-02 -1.3860459955685E-01  6.0889102849961E-01
100  9.9000000000000E-01  2.1333733648291E-02 -1.0699139942264E-01  5.3383429296538E-01
101  1.0000000000000E+00  1.5938039164351E-02 -7.9905473960880E-02  4.5941782120297E-01
102  1.0100000000000E+00  1.1282600757359E-02 -5.7404847480248E-02  3.8669763995351E-01
103  1.0200000000000E+00  7.4332253277053E-03 -3.9297422734055E-02  3.1703940500034E-01
104  1.0300000000000E+00  4.4113590923088E-03 -2.5273799706483E-02  2.5177940561118E-01
105  1.0400000000000E+00  2.2017383027372E-03 -1.4950569391686E-02  1.9212696203046E-01
106  1.0500000000000E+00  7.4969296633342E-04 -7.8701751821494E-03  1.3915161909723E-01
107  1.0600000000000E+00 -1.1245794428478E-04 -3.2897825690426E-03  9.3736335203473E-02
108  1.0700000000000E+00 -4.9521385146487E-04 -6.8421317976464E-04  5.6645368109044E-02
109  1.0800000000000E+00 -4.9022767570777E-04  3.5391336570142E-04  2.8516427040958E-02
110  1.0900000000000E+00 -2.6048703710253E-04  3.7673179916867E-04  9.8183209611066E-03
111  1.1000000000000E+00 -3.3880040327844E-05  6.0820997973428E-05  9.1705477060095E-04
112  1.1100000000000E+00  1.0941775687830E-06 -2.1145600760314E-06 -2.4984149975757E-05
113  1.1200000000000E+00  1.8700804119557E-07 -3.2375441709707E-07 -5.4454973366662E-06
114  1.13 -0.  0. -0.
115  1.14  0.  0.  0.
116  1.15  0.  0.  0.
117  1.16  0.  0.  0.
118  1.17  0.  0.  0.
119  1.18  0.  0.  0.
120  1.19  0.  0.  0.
121  1.20  0.  0.  0.
122  1.21  0.  0.  0.
123  1.22  0.  0.  0.
124  1.23  0.  0.  0.
125  1.24  0.  0.  0.
126  1.25  0.  0.  0.
127  1.26  0.  0.  0.
128  1.27  0.  0.  0.
129  1.28  0.  0.  0.
130  1.29  0.  0.  0.
131  1.30  0.  0.  0.
132  1.31  0.  0.  0.
133  1.32  0.  0.  0.
134  1.33  0.  0.  0.
135  1.34  0.  0.  0.
136  1.35  0.  0.  0.
137  1.36  0.  0.  0.
138  1.37  0.  0.  0.
139  1.38  0.  0.  0.
140  1.39  0.  0.  0.
141  1.40  0.  0.  0.
142  1.41  0.  0.  0.
143  1.42  0.  0.  0.
144  1.43  0.  0.  0.
145  1.44  0.  0.  0.
146  1.45  0.  0.  0.
147  1.46  0.  0.  0.
148  1.47  0.  0.  0.
149  1.48  0.  0.  0.
150  1.49  0.  0.  0.
151  1.50  0.  0.  0.
152  1.51  0.  0.  0.
153  1.52  0.  0.  0.
154  1.53  0.  0.  0.
155  1.54  0.  0.  0.
156  1.55  0.  0.  0.
157  1.56  0.  0.  0.
158  1.57  0.  0.  0.
159  1.58  0.  0.  0.
160  1.59  0.  0.  0.
161  1.60  0.  0.  0.
162  1.61  0.  0.  0.
163  1.62  0.  0.  0.
164  1.63  0.  0.  0.
165  1.64  0.  0.  0.
166  1.65  0.  0.  0.
167  1.66  0.  0.  0.
168  1.67  0.  0.  0.
169  1.68  0.  0.  0.
170  1.69  0.  0.  0.
171  1.70  0.  0.  0.
172  1.71  0.  0.  0.
173  1.72  0.  0.  0.
174  1.73  0.  0.  0.
175  1.74  0.  0.  0.
176  1.75  0.  0.  0.
177  1.76  0.  0.  0.
178  1.77  0.  0.  0.
179  1.78  0.  0.  0.
180  1.79  0.  0.  0.
181  1.80  0.  0.  0.
182  1.81  0.  0.  0.
183  1.82  0.  0.  0.
184  1.83  0.  0.  0.
185  1.84  0.  0.  0.
186  1.85  0.  0.  0.
187  1.86  0.  0.  0.
188  1.87  0.  0.  0.
189  1.88  0.  0.  0.
190  1.89  0.  0.  0.
191  1.90  0.  0.  0.
192  1.91  0.  0.  0.
193  1.92  0.  0.  0.
194  1.93  0.  0.  0.
195  1.94  0.  0.  0.
196  1.95  0.  0.  0.
197  1.96  0.  0.  0.
198  1.97  0.  0.  0.
199  1.98  0.  0.  0.
200  1.99  0.  0.  0.
201  2.00  0.  0.  0.
202  2.01  0.  0.  0.
203  2.02  0.  0.  0.
204  2.03  0.  0.  0.
205  2.04  0.  0.  0.
206  2.05  0.  0.  0.
207  2.06  0.  0.  0.
208  2.07  0.  0.  0.
209  2.08  0.  0.  0.
210  2.09  0.  0.  0.
211  2.10  0.  0.  0.
212  2.11  0.  0.  0.
213  2.12  0.  0.  0.
214  2.13  0.  0.  0.
215  2.14  0.  0.  0.
216  2.15  0.  0.  0.
217  2.16  0.  0.  0.
218  2.17  0.  0.  0.
219  2.18  0.  0.  0.
220  2.19  0.  0.  0.
221  2.20  0.  0.  0.
222  2.21  0.  0.  0.
223  2.22  0.  0.  0.
224  2.23  0.  0.  0.
225  2.24  0.  0.  0.
226  2.25  0.  0.  0.
227  2.26  0.  0.  0.
228  2.27  0.  0.  0.
229  2.28  0.  0.  0.
230  2.29  0.  0.  0.
231  2.30  0.  0.  0.
232  2.31  0.  0.  0.
233  2.32  0.  0.  0.
234  2.33  0.  0.  0.
235  2.34  0.  0.  0.
236  2.35  0.  0.  0.
237  2.36  0.  0.  0.
238  2.37  0.  0.  0.
239  2.38  0.  0.  0.
240  2.39  0.  0.  0.
241  2.40  0.  0.  0.
242  2.41  0.  0.  0.
243  2.42  0.  0.  0.
244  2.43  0.  0.  0.
245  2.44  0.  0.  0.
246  2.45  0.  0.  0.
247  2.46  0.  0.  0.
248  2.47  0.  0.  0.
249  2.48  0.  0.  0.
250  2.49  0.  0.  0.
251  2.50  0.  0.  0.
252  2.51  0.  0.  0.
253  2.52  0.  0.  0.
254  2.53  0.  0.  0.
255  2.54  0.  0.  0.
256  2.55  0.  0.  0.
257  2.56  0.  0.  0.
258  2.57  0.  0.  0.
259  2.58  0.  0.  0.
260  2.59  0.  0.  0.
261  2.60  0.  0.  0.
262  2.61  0.  0.  0.
263  2.62  0.  0.  0.
264  2.63  0.  0.  0.
265  2.64  0.  0.  0.
266  2.65  0.  0.  0.
267  2.66  0.  0.  0.
268  2.67  0.  0.  0.
269  2.68  0.  0.  0.
270  2.69  0.  0.  0.
271  2.70  0.  0.  0.
272  2.71  0.  0.  0.
273  2.72  0.  0.  0.
274  2.73  0.  0.  0.
275  2.74  0.  0.  0.
276  2.75  0.  0.  0.
277  2.76  0.  0.  0.
278  2.77  0.  0.  0.
279  2.78  0.  0.  0.
280  2.79  0.  0.  0.
281  2.80  0.  0.  0.
282  2.81  0.  0.  0.
283  2.82  0.  0.  0.
284  2.83  0.  0.  0.
285  2.84  0.  0.  0.
286  2.85  0.  0.  0.
287  2.86  0.  0.  0.
288  2.87  0.  0.  0.
289  2.88  0.  0.  0.
290  2.89  0.  0.  0.
291  2.90  0.  0.  0.
292  2.91  0.  0.  0.
293  2.92  0.  0.  0.
294  2.93  0.  0.  0.
295  2.94  0.  0.  0.
296  2.95  0.  0.  0.
297  2.96  0.  0.  0.
298  2.97  0.  0.  0.
299  2.98  0.  0.  0.
300  2.99  0.  0.  0.
301  3.00  0.  0.  0.
302  3.01  0.  0.  0.
303  3.02  0.  0.  0.
304  3.03  0.  0.  0.
305  3.04  0.  0.  0.
306  3.05  0.  0.  0.
307  3.06  0.  0.  0.
308  3.07  0.  0.  0.
309  3.08  0.  0.  0.
310  3.09  0.  0.  0.
311  3.10  0.  0.  0.
312  3.11  0.  0.  0.
313  3.12  0.  0.  0.
314  3.13  0.  0.  0.
315  3.14  0.  0.  0.
316  3.15  0.  0.  0.
317  3.16  0.  0.  0.
318  3.17  0.  0.  0.
319  3.18  0.  0.  0.
320  3.19  0.  0.  0.
321  3.20  0.  0.  0.
322  3.21  0.  0.  0.
323  3.22  0.  0.  0.
324  3.23  0.  0.  0.
325  3.24  0.  0.  0.
326  3.25  0.  0.  0.
327  3.26  0.  0.  0.
328  3.27  0.  0.  0.
329  3.28  0.  0.  0.
330  3.29  0.  0.  0.
331  3.30  0.  0.  0.
332  3.31  0.  0.  0.
333  3.32  0.  0.  0.
334  3.33  0.  0.  0.
335  3.34  0.  0.  0.
336  3.35  0.  0.  0.
337  3.36  0.  0.  0.
338  3.37  0.  0.  0.
339  3.38  0.  0.  0.
340  3.39  0.  0.  0.
341  3.40  0.  0.  0.
342  3.41  0.  0.  0.
343  3.42  0.  0.  0.
344  3.43  0.  0.  0.
345  3.44  0.  0.  0.
346  3.45  0.  0.  0.
347  3.46  0.  0.  0.
348  3.47  0.  0.  0.
349  3.48  0.  0.  0.
350  3.49  0.  0.  0.
351  3.50  0.  0.  0.
352  3.51  0.  0.  0.
353  3.52  0.  0.  0.
354  3.53  0.  0.  0.
355  3.54  0.  0.  0.
356  3.55  0.  0.  0.
357  3.56  0.  0.  0.
358  3.57  0.  0.  0.
359  3.58  0.  0.  0.
360  3.59  0.  0.  0.
361  3.60  0.  0.  0.
362  3.61  0.  0.  0.
363  3.62  0.  0.  0.
364  3.63  0.  0.  0.
365  3.64  0.  0.  0.
366  3.65  0.  0.  0.
367  3.66  0.  0.  0.
368  3.67  0.  0.  0.
369  3.68  0.  0.  0.
370  3.69  0.  0.  0.
371  3.70  0.  0.  0.
372  3.71  0.  0.  0.
373  3.72  0.  0.  0.
374  3.73  0.  0.  0.
375  3.74  0.  0.  0.
376  3.75  0.  0.  0.
377  3.76  0.  0.  0.
378  3.77  0.  0.  0.
379  3.78  0.  0.  0.
380  3.79  0.  0.  0.
381  3.80  0.  0.  0.
382  3.81  0.  0.  0.
383  3.82  0.  0.  0.
384  3.83  0.  0.  0.
385  3.84  0.  0.  0.
386  3.85  0.  0.  0.
387  3.86  0.  0.  0.
388  3.87  0.  0.  0.
389  3.88  0.  0.  0.
390  3.89  0.  0.  0.
391  3.90  0.  0.  0.
392  3.91  0.  0.  0.
393  3.92  0.  0.  0.
394  3.93  0.  0.  0.
395  3.94  0.  0.  0.
396  3.95  0.  0.  0.
397  3.96  0.  0.  0.
398  3.97  0.  0.  0.
399  3.98  0.  0.  0.
400  3.99  0.  0.  0.
401  4.00  0.  0.  0.
402  4.01  0.  0.  0.
403  4.02  0.  0.  0.
404  4.03  0.  0.  0.
405  4.04  0.  0.  0.
406  4.05  0.  0.  0.
407  4.06  0.  0.  0.
408  4.07  0.  0.  0.
409  4.08  0.  0.  0.
410  4.09  0.  0.  0.
411  4.10  0.  0.  0.
412  4.11  0.  0.  0.
413  4.12  0.  0.  0.
414  4.13  0.  0.  0.
415  4.14  0.  0.  0.
416  4.15  0.  0.  0.
417  4.16  0.  0.  0.
418  4.17  0.  0.  0.
419  4.18  0.  0.  0.
420  4.19  0.  0.  0.
421  4.20  0.  0.  0.
422  4.21  0.  0.  0.
423  4.22  0.  0.  0.
424  4.23  0.  0.  0.
425  4.24  0.  0.  0.
426  4.25  0.  0.  0.
427  4.26  0.  0.  0.
428  4.27  0.  0.  0.
429  4.28  0.  0.  0.
430  4.29  0.  0.  0.
431  4.30  0.  0.  0.
432  4.31  0.  0.  0.
433  4.32  0.  0.  0.
434  4.33  0.  0.  0.
435  4.34  0.  0.  0.
436  4.35  0.  0.  0.
437  4.36  0.  0.  0.
438  4.37  0.  0.  0.
439  4.38  0.  0.  0.
440  4.39  0.  0.  0.
441  4.40  0.  0.  0.
442  4.41  0.  0.  0.
443  4.42  0.  0.  0.
444  4.43  0.  0.  0.
445  4.44  0.  0.  0.
446  4.45  0.  0.  0.
447  4.46  0.  0.  0.
448  4.47  0.  0.  0.
449  4.48  0.  0.  0.
450  4.49  0.  0.  0.
451  4.50  0.  0.  0.
452  4.51  0.  0.  0.
453  4.52  0.  0.  0.
454  4.53  0.  0.  0.
455  4.54  0.  0.  0.
456  4.55  0.  0.  0.
457  4.56  0.  0.  0.
458  4.57  0.  0.  0.
459  4.58  0.  0.  0.
460  4.59  0.  0.  0.
461  4.60  0.  0.  0.
462  4.61  0.  0.  0.
463  4.62  0.  0.  0.
464  4.63  0.  0.  0.
465  4.64  0.  0.  0.
466  4.65  0.  0.  0.
467  4.66  0.  0.  0.
468  4.67  0.  0.  0.
469  4.68  0.  0.  0.
470  4.69  0.  0.  0.
471  4.70  0.  0.  0.
472  4.71  0.  0.  0.
473  4.72  0.  0.  0.
474  4.73  0.  0.  0.
475  4.74  0.  0.  0.
476  4.75  0.  0.  0.
477  4.76  0.  0.  0.
478  4.77  0.  0.  0.
479  4.78  0.  0.  0.
480  4.79  0.  0.  0.
481  4.80  0.  0.  0.
482  4.81  0.  0.  0.
483  4.82  0.  0.  0.
484  4.83  0.  0.  0.
485  4.84  0.  0.  0.
486  4.85  0.  0.  0.
487  4.86  0.  0.  0.
488  4.87  0.  0.  0.
489  4.88  0.  0.  0.
490  4.89  0.  0.  0.
491  4.90  0.  0.  0.
492  4.91  0.  0.  0.
493  4.92  0.  0.  0.
494  4.93  0.  0.  0.
495  4.94  0.  0.  0.
496  4.95  0.  0.  0.
497  4.96  0.  0.  0.
498  4.97  0.  0.  0.
499  4.98  0.  0.  0.
500  4.99  0.  0.  0.
501  5.00  0.  0.  0.
502  5.01  0.  0.  0.
503  5.02  0.  0.  0.
504  5.03  0.  0.  0.
505  5.04  0.  0.  0.
506  5.05  0.  0.  0.
507  5.06  0.  0.  0.
508  5.07  0.  0.  0.
509  5.08  0.  0.  0.
510  5.09  0.  0.  0.
511  5.10  0.  0.  0.
512  5.11  0.  0.  0.
513  5.12  0.  0.  0.
514  5.13  0.  0.  0.
515  5.14  0.  0.  0.
516  5.15  0.  0.  0.
517  5.16  0.  0.  0.
518  5.17  0.  0.  0.
519  5.18  0.  0.  0.
520  5.19  0.  0.  0.
521  5.20  0.  0.  0.
522  5.21  0.  0.  0.
523  5.22  0.  0.  0.
524  5.23  0.  0.  0.
525  5.24  0.  0.  0.
526  5.25  0.  0.  0.
527  5.26  0.  0.  0.
528  5.27  0.  0.  0.
529  5.28  0.  0.  0.
530  5.29  0.  0.  0.
531  5.30  0.  0.  0.
532  5.31  0.  0.  0.
533  5.32  0.  0.  0.
534  5.33  0.  0.  0.
535  5.34  0.  0.  0.
536  5.35  0.  0.  0.
537  5.36  0.  0.  0.
538  5.37  0.  0.  0.
539  5.38  0.  0.  0.
540  5.39  0.  0.  0.
541  5.40  0.  0.  0.
542  5.41  0.  0.  0.
543  5.42  0.  0.  0.
544  5.43  0.  0.  0.
545  5.44  0.  0.  0.
546  5.45  0.  0.  0.
547  5.46  0.  0.  0.
548  5.47  0.  0.  0.
549  5.48  0.  0.  0.
550  5.49  0.  0.  0.
551  5.50  0.  0.  0.
552  5.51  0.  0.  0.
553  5.52  0.  0.  0.
554  5.53  0.  0.  0.
555  5.54  0.  0.  0.
556  5.55  0.  0.  0.
557  5.56  0.  0.  0.
558  5.57  0.  0.  0.
559  5.58  0.  0.  0.
560  5.59  0.  0.  0.
561  5.60  0.  0.  0.
562  5.61  0.  0.  0.
563  5.62  0.  0.  0.
564  5.63  0.  0.  0.
565  5.64  0.  0.  0.
566  5.65  0.  0.  0.
567  5.66  0.  0.  0.
568  5.67  0.  0.  0.
569  5.68  0.  0.  0.
570  5.69  0.  0.  0.
571  5.70  0.  0.  0.
572  5.71  0.  0.  0.
573  5.72  0.  0.  0.
574  5.73  0.  0.  0.
575  5.74  0.  0.  0.
576  5.75  0.  0.  0.
577  5.76  0.  0.  0.
578  5.77  0.  0.  0.
579  5.78  0.  0.  0.
580  5.79  0.  0.  0.
581  5.80  0.  0.  0.
582  5.81  0.  0.  0.
583  5.82  0.  0.  0.
584  5.83  0.  0.  0.
585  5.84  0.  0.  0.
586  5.85  0.  0.  0.
587  5.86  0.  0.  0.
588  5.87  0.  0.  0.
589  5.88  0.  0.  0.
590  5.89  0.  0.  0.
591  5.90  0.  0.  0.
592  5.91  0.  0.  0.
593  5.92  0.  0.  0.
594  5.93  0.  0.  0.
595  5.94  0.  0.  0.
596  5.95  0.  0.  0.
597  5.96  0.  0.  0.
598  5.97  0.  0.  0.
599  5.98  0.  0.  0.
600  5.99  0.  0.  0.
1                         1.1380222748723E+01 -4.3032251645180E-01
1  0.0000000000000E+00  7.1167183257614E-11 -8.6973822865932E-08
2  1.0000000000000E-02  4.6395124890763E-03  2.4566038713679E-03
3  2.0000000000000E-02  1.8516463301834E-02  9.8164137849683E-03
4  3.0000000000000E-02  4.1506384452733E-02  2.2048333610661E-02
5  4.0000000000000E-02  7.3402803837122E-02  3.9096965113685E-02
6  5.0000000000000E-02  1.1391871133827E-01  6.0877476979484E-02
7  6.0000000000000E-02  1.6268861935921E-01  8.7268863289918E-02
8  7.0000000000000E-02  2.1927122434718E-01  1.1810600976532E-01
9  8.0000000000000E-02  2.8315267580732E-01  1.5317107306066E-01
10  9.0000000000000E-02  3.5375045789429E-01  1.9218474278655E-01
11  1.0000000000000E-01  4.3041788575997E-01  2.3479799462941E-01
12  1.1000000000000E-01  5.1244921432833E-01  2.8058495392762E-01
13  1.2000000000000E-01  5.9908535104573E-01  3.2903747140574E-01
14  1.3000000000000E-01  6.8952015647914E-01  3.7956196674143E-01
15  1.4000000000000E-01  7.8290730754473E-01  4.3147902267681E-01
16  1.5000000000000E-01  8.7836768786184E-01  4.8402611505355E-01
17  1.6000000000000E-01  9.7499725852641E-01  5.3636374605135E-01
18  1.7000000000000E-01  1.0718753508265E+00  5.8758511354908E-01
19  1.8000000000000E-01  1.1680733104711E+00  6.3672930414643E-01
20  1.9000000000000E-01  1.2626634111971E+00  6.8279784675493E-01
21  2.0000000000000E-01  1.3547279445907E+00  7.2477431387473E-01
22  2.1000000000000E-01  1.4433683830630E+00  7.6164651487299E-01
23  2.2000000000000E-01  1.5277145045597E+00  7.9243069575662E-01
24  2.3000000000000E-01  1.6069333611656E+00  8.1619704865741E-01
25  2.4000000000000E-01  1.6802379696221E+00  8.3209574645712E-01
26  2.5000000000000E-01  1.7468956001747E+00  8.3938265776187E-01
27  2.6000000000000E-01  1.8062355413263E+00  8.3744386786189E-01
28  2.7000000000000E-01  1.8576562220821E+00  8.2581813429862E-01
29  2.8000000000000E-01  1.9006315801729E+00  8.0421644187221E-01
30  2.9000000000000E-01  1.9347165744459E+00  7.7253789072695E-01
31  3.0000000000000E-01  1.9595517519579E+00  7.3088125063070E-01
32  3.1000000000000E-01  1.9748667950259E+00  6.7955164155407E-01
33  3.2000000000000E-01  1.9804829902467E+00  6.1906195086935E-01
34  3.3000000000000E-01  1.9763145798704E+00  5.5012876565525E-01
35  3.4000000000000E-01  1.9623689754277E+00  4.7366277865162E-01
36  3.5000000000000E-01  1.9387458336510E+00  3.9075381173795E-01
37  3.6000000000000E-01  1.9056350149491E+00  3.0265078447940E-01
38  3.7000000000000E-01  1.8633134644447E+00  2.1073713032072E-01
39  3.8000000000000E-01  1.8121410743271E+00  1.1650232267349E-01
40  3.9000000000000E-01  1.7525556035070E+00  2.1510311200070E-02
41  4.0000000000000E-01  1.6850667458263E+00 -7.2634220435133E-02
42  4.1000000000000E-01  1.6102494509947E+00 -1.6432078469079E-01
43  4.2000000000000E-01  1.5287366126776E+00 -2.5196817301654E-01
44  4.3000000000000E-01  1.4412112455435E+00 -3.3405864875310E-01
45  4.4000000000000E-01  1.3483982774617E+00 -4.0917023726010E-01
46  4.5000000000000E-01  1.2510560844181E+00 -4.7600616697089E-01
47  4.6000000000000E-01  1.1499678941619E+00 -5.3342061585244E-01
48  4.7000000000000E-01  1.0459331803019E+00 -5.8044004910695E-01
49  4.8000000000000E-01  9.3975916179269E-01 -6.1627959097035E-01
50  4.9000000000000E-01  8.3225251384824E-01 -6.4035405015799E-01
51  5.0000000000000E-01  7.2421138569037E-01 -6.5228340809600E-01
52  5.1000000000000E-01  6.1641780863711E-01 -6.5189277420222E-01
53  5.2000000000000E-01  5.0963056533680E-01 -6.3920700555015E-01
54  5.3000000000000E-01  4.0457857793887E-01 -6.1444037169832E-01
55  5.4000000000000E-01  3.0195486012626E-01 -5.7798181211043E-01
56  5.5000000000000E-01  2.0241106564985E-01 -5.3037647688363E-01
57  5.6000000000000E-01  1.0655265467938E-01 -4.7230435584738E-01
58  5.7000000000000E-01  1.4934689230333E-02 -4.0455688205724E-01
59  5.8000000000000E-01 -7.1941739627936E-02 -3.2801244022889E-01
60  5.9000000000000E-01 -1.5363245698749E-01 -2.4361171717572E-01
61  6.0000000000000E-01 -2.2975253116202E-01 -1.5233379985299E-01
62  6.1000000000000E-01 -2.9997799558072E-01 -5.5173858787366E-02
63  6.2000000000000E-01 -3.6404698055462E-01  4.6876846372500E-02
64  6.3000000000000E-01 -4.2176027070083E-01  1.5284803214848E-01
65  6.4000000000000E-01 -4.7298130353394E-01  2.6180407291492E-01
66  6.5000000000000E-01 -5.1763562377020E-01  3.7285401321096E-01
67  6.6000000000000E-01 -5.5570980660524E-01  4.8515780227311E-01
68  6.7000000000000E-01 -5.8724986200440E-01  5.9792882054031E-01
69  6.8000000000000E-01 -6.1235913125942E-01  7.1043293899215E-01
70  6.9000000000000E-01 -6.3119568706357E-01  8.2198450865157E-01
71  7.0000000000000E-01 -6.4396924943742E-01  9.3193981252244E-01
72  7.1000000000000E-01 -6.5093763223022E-01  1.0396886196514E+00
73  7.2000000000000E-01 -6.5240273877655E-01  1.1446445562063E+00
74  7.3000000000000E-01 -6.4870613065947E-01  1.2462350481724E+00
75  7.4000000000000E-01 -6.4022420037369E-01  1.3438915928679E+00
76  7.5000000000000E-01 -6.2736298684420E-01  1.4370410820719E+00
77  7.6000000000000E-01 -6.1055268198290E-01  1.5250988300053E+00
78  7.7000000000000E-01 -5.9024188640966E-01  1.6074638582947E+00
79  7.8000000000000E-01 -5.6689168268843E-01  1.6835168625407E+00
80  7.9000000000000E-01 -5.4096960442977E-01  1.7526211378118E+00
81  8.0000000000000E-01 -5.1294358883339E-01  1.8141265810340E+00
82  8.1000000000000E-01 -4.8327600810139E-01  1.8673767254781E+00
83  8.2000000000000E-01 -4.5241788105615E-01  1.9117186055400E+00
84  8.3000000000000E-01 -4.2080336967027E-01  1.9465151081271E+00
85  8.4000000000000E-01 -3.8884466552915E-01  1.9711593494155E+00
86  8.5000000000000E-01 -3.5692736803107E-01  1.9850905312181E+00
87  8.6000000000000E-01 -3.2540644900056E-01  1.9878106875381E+00
88  8.7000000000000E-01 -2.9460288706627E-01  1.9789017357844E+00
89  8.8000000000000E-01 -2.6480103946582E-01  1.9580423039123E+00
90  8.9000000000000E-01 -2.3624679884345E-01  1.9250239181504E+00
91  9.0000000000000E-01 -2.0914655818605E-01  1.8797663080200E+00
92  9.1000000000000E-01 -1.8366697851301E-01  1.8223318162913E+00
93  9.2000000000000E-01 -1.5993552163375E-01  1.7529391898046E+00
94  9.3000000000000E-01 -1.3804167466342E-01  1.6719773695417E+00
95  9.4000000000000E-01 -1.1803875460268E-01  1.5800202900618E+00
96  9.5000000000000E-01 -9.9946140780188E-02  1.4778441332432E+00
97  9.6000000000000E-01 -8.3751741033448E-02  1.3664489518013E+00
98  9.7000000000000E-01 -6.9414454928793E-02  1.2470870758037E+00
99  9.8000000000000E-01 -5.6866354856561E-02  1.1213012315643E+00
100  9.9000000000000E-01 -4.6014264009483E-02  9.9097583522908E-01
101  1.0000000000000E+00 -3.6740381345854E-02  8.5840510506371E-01
102  1.0100000000000E+00 -2.8901711965004E-02  7.2637768463901E-01
103  1.0200000000000E+00 -2.2336144871359E-02  5.9804077035562E-01
104  1.0300000000000E+00 -1.6880820731609E-02  4.7644386421550E-01
105  1.0400000000000E+00 -1.2382920217147E-02  3.6438054355316E-01
106  1.0500000000000E+00 -8.7077810906837E-03  2.6432559096449E-01
107  1.0600000000000E+00 -5.7739325378983E-03  1.7808791179856E-01
108  1.0700000000000E+00 -3.4932405303431E-03  1.0741004030626E-01
109  1.0800000000000E+00 -1.7894024597928E-03  5.3854058837662E-02
110  1.0900000000000E+00 -6.3639921991305E-04  1.8428172091190E-02
111  1.1000000000000E+00 -6.2266493127697E-05  1.7066887678052E-03
112  1.1100000000000E+00  1.7498340085640E-06 -4.6233741134021E-05
113  1.1200000000000E+00  3.6530321025502E-07 -1.0158391700757E-05
114  1.13 -0. -0.
115  1.14  0.  0.
116  1.15  0.  0.
117  1.16  0.  0.
118  1.17  0.  0.
119  1.18  0.  0.
120  1.19  0.  0.
121  1.20  0.  0.
122  1.21  0.  0.
123  1.22  0.  0.
124  1.23  0.  0.
125  1.24  0.  0.
126  1.25  0.  0.
127  1.26  0.  0.
128  1.27  0.  0.
129  1.28  0.  0.
130  1.29  0.  0.
131  1.30  0.  0.
132  1.31  0.  0.
133  1.32  0.  0.
134  1.33  0.  0.
135  1.34  0.  0.
136  1.35  0.  0.
137  1.36  0.  0.
138  1.37  0.  0.
139  1.38  0.  0.
140  1.39  0.  0.
141  1.40  0.  0.
142  1.41  0.  0.
143  1.42  0.  0.
144  1.43  0.  0.
145  1.44  0.  0.
146  1.45  0.  0.
147  1.46  0.  0.
148  1.47  0.  0.
149  1.48  0.  0.
150  1.49  0.  0.
151  1.50  0.  0.
152  1.51  0.  0.
153  1.52  0.  0.
154  1.53  0.  0.
155  1.54  0.  0.
156  1.55  0.  0.
157  1.56  0.  0.
158  1.57  0.  0.
159  1.58  0.  0.
160  1.59  0.  0.
161  1.60  0.  0.
162  1.61  0.  0.
163  1.62  0.  0.
164  1.63  0.  0.
165  1.64  0.  0.
166  1.65  0.  0.
167  1.66  0.  0.
168  1.67  0.  0.
169  1.68  0.  0.
170  1.69  0.  0.
171  1.70  0.  0.
172  1.71  0.  0.
173  1.72  0.  0.
174  1.73  0.  0.
175  1.74  0.  0.
176  1.75  0.  0.
177  1.76  0.  0.
178  1.77  0.  0.
179  1.78  0.  0.
180  1.79  0.  0.
181  1.80  0.  0.
182  1.81  0.  0.
183  1.82  0.  0.
184  1.83  0.  0.
185  1.84  0.  0.
186  1.85  0.  0.
187  1.86  0.  0.
188  1.87  0.  0.
189  1.88  0.  0.
190  1.89  0.  0.
191  1.90  0.  0.
192  1.91  0.  0.
193  1.92  0.  0.
194  1.93  0.  0.
195  1.94  0.  0.
196  1.95  0.  0.
197  1.96  0.  0.