Fm    ONCVPSP-4.0.1  r_core=   1.15134   1.15134   1.20057   1.35316
100.0000     40.0000      230613    zatom,zion,pspd
8      11   3     4   600     0    pspcod,pspxc,lmax,lloc,mmax,r2well
5.99000000  2.50000000  0.00000000    rchrg fchrg qchrg
3     2     2     2     0    nproj
1     1           extension_switch
0                         2.6593720914713E+01  2.6032420953921E+00 -2.1910005708838E+00
1  0.0000000000000E+00 -3.3254452747045E-08  1.2490116035879E-07 -7.1463335249433E-09
2  1.0000000000000E-02  1.7134618230462E-01 -6.9588345600467E-02  3.8088590016839E-02
3  2.0000000000000E-02  3.4139497368293E-01 -1.3757930336371E-01  7.5993547002822E-02
4  3.0000000000000E-02  5.0886371437019E-01 -2.0240989433436E-01  1.1353409301652E-01
5  4.0000000000000E-02  6.7249891272562E-01 -2.6258496695978E-01  1.5053509832216E-01
6  5.0000000000000E-02  8.3109010292991E-01 -3.1670866923123E-01  1.8682975253305E-01
7  6.0000000000000E-02  9.8348285628386E-01 -3.6351308583663E-01  2.2226205765357E-01
8  7.0000000000000E-02  1.1285907050451E+00 -4.0188324968817E-01  2.5668909250801E-01
9  8.0000000000000E-02  1.2654057709940E+00 -4.3087786208959E-01  2.8998300519133E-01
10  9.0000000000000E-02  1.3930079301395E+00 -4.4974520300181E-01  3.2203269857517E-01
11  1.0000000000000E-01  1.5105723887296E+00 -4.5793387690613E-01  3.5274518322980E-01
12  1.1000000000000E-01  1.6173755924251E+00 -4.5509821457887E-01  3.8204658202000E-01
13  1.2000000000000E-01  1.7127994384406E+00 -4.4109833023542E-01  4.0988278072272E-01
14  1.3000000000000E-01  1.7963338079241E+00 -4.1599501037370E-01  4.3621972891388E-01
15  1.4000000000000E-01  1.8675774811435E+00 -3.8003977877661E-01  4.6104340471047E-01
16  1.5000000000000E-01  1.9262375395736E+00 -3.3366063537141E-01  4.8435946538663E-01
17  1.6000000000000E-01  1.9721273952895E+00 -2.7744409946254E-01  5.0619261310471E-01
18  1.7000000000000E-01  2.0051636179387E+00 -2.1211429548787E-01  5.2658571076300E-01
19  1.8000000000000E-01  2.0253617520135E+00 -1.3850989812102E-01  5.4559868707147E-01
20  1.9000000000000E-01  2.0328313314977E+00 -5.7559800594711E-02  5.6330727230958E-01
21  2.0000000000000E-01  2.0277703048593E+00  2.9741615909468E-02  5.7980160675205E-01
22  2.1000000000000E-01  2.0104590807811E+00  1.2235875323940E-01  5.9518476250667E-01
23  2.2000000000000E-01  1.9812543942653E+00  2.1923780050906E-01  6.0957121660282E-01
24  2.3000000000000E-01  1.9405831744525E+00  3.1932774578483E-01  6.2308530878356E-01
25  2.4000000000000E-01  1.8889365705755E+00  4.2159877711296E-01  6.3585971183387E-01
26  2.5000000000000E-01  1.8268642621050E+00  5.2505758441754E-01  6.4803393572204E-01
27  2.6000000000000E-01  1.7549691447310E+00  6.2875922008892E-01  6.5975287968057E-01
28  2.7000000000000E-01  1.6739024468995E+00  7.3181533310935E-01  6.7116543897356E-01
29  2.8000000000000E-01  1.5843592938326E+00  8.3339875303071E-01  6.8242316586496E-01
30  2.9000000000000E-01  1.4870746989644E+00  9.3274455955793E-01  6.9367897758959E-01
31  3.0000000000000E-01  1.3828199281545E+00  1.0291479245502E+00  7.0508589828281E-01
32  3.1000000000000E-01  1.2723991514210E+00  1.1219591499242E+00  7.1679581716037E-01
33  3.2000000000000E-01  1.1566462716191E+00  1.2105764417930E+00  7.2895824201449E-01
34  3.3000000000000E-01  1.0364218006312E+00  1.2944370535638E+00  7.4171902550749E-01
35  3.4000000000000E-01  9.1260964208387E-01  1.3730074949905E+00  7.5521904192072E-01
36  3.5000000000000E-01  7.8611363595874E-01  1.4457735377773E+00  7.6959279400313E-01
37  3.6000000000000E-01  6.5785372493793E-01  1.5122307499311E+00  7.8496693332088E-01
38  3.7000000000000E-01  5.2876161484406E-01  1.5718762606127E+00  8.0145868291800E-01
39  3.8000000000000E-01  3.9977582165334E-01  1.6242023959341E+00  8.1917415795815E-01
40  3.9000000000000E-01  2.7183602453090E-01  1.6686927364663E+00  8.3820658805763E-01
41  4.0000000000000E-01  1.4587667710741E-01  1.7048210327201E+00  8.5863445390475E-01
42  4.1000000000000E-01  2.2819866486317E-02  1.7320532801266E+00  8.8051956010728E-01
43  4.2000000000000E-01 -9.6432550270209E-02  1.7498531054854E+00  9.0390507559778E-01
44  4.3000000000000E-01 -2.1100746082966E-01  1.7576904584642E+00  9.2881358192062E-01
45  4.4000000000000E-01 -3.2006955090609E-01  1.7550534409437E+00  9.5524517788537E-01
46  4.5000000000000E-01 -4.2283074460362E-01  1.7414629502908E+00  9.8317569598107E-01
47  4.6000000000000E-01 -5.1855984496838E-01  1.7164896664469E+00  1.0125550912209E+00
48  4.7000000000000E-01 -6.0659215812516E-01  1.6797727830404E+00  1.0433060663936E+00
49  4.8000000000000E-01 -6.8633886135948E-01  1.6310397749797E+00  1.0753229987745E+00
50  4.9000000000000E-01 -7.5729586042969E-01  1.5701264137625E+00  1.1084712320116E+00
51  5.0000000000000E-01 -8.1905187510613E-01  1.4969961906135E+00  1.1425867930476E+00
52  5.1000000000000E-01 -8.7129549496858E-01  1.4117582889840E+00  1.1774765875813E+00
53  5.2000000000000E-01 -9.1382096002573E-01  1.3146832630930E+00  1.2129191187896E+00
54  5.3000000000000E-01 -9.4653244257833E-01  1.2062156279619E+00  1.2486657630371E+00
55  5.4000000000000E-01 -9.6944663739434E-01  1.0869826473901E+00  1.2844426233654E+00
56  5.5000000000000E-01 -9.8269350583069E-01  9.5779871688225E-01  1.3199529670493E+00
57  5.6000000000000E-01 -9.8651506484382E-01  8.1966487488723E-01  1.3548802378745E+00
58  5.7000000000000E-01 -9.8126216243593E-01  6.7376313303651E-01  1.3888916175163E+00
59  5.8000000000000E-01 -9.6738923532911E-01  5.2144548875564E-01  1.4216420940138E+00
60  5.9000000000000E-01 -9.4544710073825E-01  3.6421766544028E-01  1.4527789793928E+00
61  6.0000000000000E-01 -9.1607389012867E-01  2.0371780972181E-01  1.4819468035276E+00
62  6.1000000000000E-01 -8.7998428688980E-01  4.1690555476484E-02  1.5087924978895E+00
63  6.2000000000000E-01 -8.3795728007454E-01 -1.2004296645042E-01  1.5329707713764E+00
64  6.3000000000000E-01 -7.9082269101308E-01 -2.7961844155765E-01  1.5541495713873E+00
65  6.4000000000000E-01 -7.3944676716710E-01 -4.3516414715878E-01  1.5720155170462E+00
66  6.5000000000000E-01 -6.8471716673857E-01 -5.8483822695944E-01  1.5862791882459E+00
67  6.6000000000000E-01 -6.2752767727604E-01 -7.2686643077286E-01  1.5966801541468E+00
68  6.7000000000000E-01 -5.6876302113900E-01 -8.5957924843411E-01  1.6029916279702E+00
69  6.8000000000000E-01 -5.0928409984639E-01 -9.8144736540397E-01  1.6050246413347E+00
70  6.9000000000000E-01 -4.4991401806535E-01 -1.0911144015827E+00  1.6026316408275E+00
71  7.0000000000000E-01 -3.9142520665666E-01 -1.1874259634280E+00  1.5957094217331E+00
72  7.1000000000000E-01 -3.3452793349604E-01 -1.2694541403033E+00  1.5842013285020E+00
73  7.2000000000000E-01 -2.7986045174159E-01 -1.3365167057047E+00  1.5680986682184E+00
74  7.3000000000000E-01 -2.2798098910462E-01 -1.3881904382592E+00  1.5474413015102E+00
75  7.4000000000000E-01 -1.7936172999912E-01 -1.4243181509805E+00  1.5223173945248E+00
76  7.5000000000000E-01 -1.3438488685356E-01 -1.4450092044638E+00  1.4928623351915E+00
77  7.6000000000000E-01 -9.3340899129635E-02 -1.4506334743058E+00  1.4592568364471E+00
78  7.7000000000000E-01 -5.6428740501380E-02 -1.4418089387453E+00  1.4217242678658E+00
79  7.8000000000000E-01 -2.3758257971339E-02 -1.4193832430588E+00  1.3805272746797E+00
80  7.9000000000000E-01  4.6455868735422E-03 -1.3844097766219E+00  1.3359637590355E+00
81  8.0000000000000E-01  2.8836753196410E-02 -1.3381189612484E+00  1.2883623121047E+00
82  8.1000000000000E-01  4.8940654504531E-02 -1.2818855905797E+00  1.2380771970057E+00
83  8.2000000000000E-01  6.5145447985070E-02 -1.2171931758337E+00  1.1854829911802E+00
84  8.3000000000000E-01  7.7692364883777E-02 -1.1455963399430E+00  1.1309690027233E+00
85  8.4000000000000E-01  8.6865386442378E-02 -1.0686823577942E+00  1.0749335781446E+00
86  8.5000000000000E-01  9.2980580189182E-02 -9.8803296362848E-01  1.0177784191538E+00
87  8.6000000000000E-01  9.6375412654931E-02 -9.0518753740145E-01  9.5990302344034E-01
88  8.7000000000000E-01  9.7398347034004E-02 -8.2160874055346E-01  9.0169935921667E-01
89  8.8000000000000E-01  9.6399018328530E-02 -7.3865159960246E-01  8.4354687578147E-01
90  8.9000000000000E-01  9.3719254664545E-02 -6.5753693521096E-01  7.8580794280620E-01
91  9.0000000000000E-01  8.9685182466398E-02 -5.7932990743323E-01  7.2882379978354E-01
92  9.1000000000000E-01  8.4600615796263E-02 -5.0492429750402E-01  6.7291108442764E-01
93  9.2000000000000E-01  7.8741887240466E-02 -4.3503297578646E-01  6.1835899511186E-01
94  9.3000000000000E-01  7.2354230034214E-02 -3.7018481719623E-01  5.6542712797037E-01
95  9.4000000000000E-01  6.5649769399391E-02 -3.1072812227782E-01  5.1434401434463E-01
96  9.5000000000000E-01  5.8807125919255E-02 -2.5684038633775E-01  4.6530636903209E-01
97  9.6000000000000E-01  5.1972575625211E-02 -2.0854403230836E-01  4.1847904443925E-01
98  9.7000000000000E-01  4.5262650579856E-02 -1.6572748636795E-01  3.7399567032526E-01
99  9.8000000000000E-01  3.8768000097946E-02 -1.2817072887501E-01  3.3195994332865E-01
100  9.9000000000000E-01  3.2558266132819E-02 -9.5574196248630E-02  2.9244751479801E-01
101  1.0000000000000E+00  2.6687656269356E-02 -6.7589640399510E-02  2.5550840940553E-01
102  1.0100000000000E+00  2.1200823498768E-02 -4.3851268817804E-02  2.2116989033957E-01
103  1.0200000000000E+00  1.6138582421209E-02 -2.4005186707187E-02  1.8943966916707E-01
104  1.0300000000000E+00  1.1542905550041E-02 -7.7348385657465E-03  1.6030933930028E-01
105  1.0400000000000E+00  7.4605495642512E-03  5.2202045609229E-03  1.3375789089121E-01
106  1.0500000000000E+00  3.9445578828687E-03  1.5055150586483E-02  1.0975514130807E-01
107  1.0600000000000E+00  1.0527710343491E-03  2.1904047466407E-02  8.8264888494473E-02
108  1.0700000000000E+00 -1.1576516987681E-03  2.5860932629213E-02  6.9247563881968E-02
109  1.0800000000000E+00 -2.6409014769668E-03  2.7022730617839E-02  5.2662080625191E-02
110  1.0900000000000E+00 -3.3791572471415E-03  2.5557238099212E-02  3.8466962197609E-02
111  1.1000000000000E+00 -3.4335279297752E-03  2.1890610885925E-02  2.6599647399827E-02
112  1.1100000000000E+00 -2.9827364824129E-03  1.6865039647884E-02  1.6967339744016E-02
113  1.1200000000000E+00 -2.1798515610958E-03  1.1250134235306E-02  9.5591406752051E-03
114  1.1300000000000E+00 -1.2391729058338E-03  5.9432447688890E-03  4.3288834042985E-03
115  1.1400000000000E+00 -4.1531935806972E-04  1.8742998073684E-03  1.1846371714079E-03
116  1.1500000000000E+00 -1.3755878415792E-05  5.8698604715788E-05  3.2191605008609E-05
117  1.1600000000000E+00 -2.1336982275030E-06  9.1842133307169E-06  5.1240831880342E-06
118  1.1700000000000E+00  3.4623786542137E-07 -1.5231359470163E-06 -9.0207401041006E-07
119  1.18  0.  0.  0.
120  1.19  0.  0.  0.
121  1.20  0.  0.  0.
122  1.21  0.  0.  0.
123  1.22  0.  0.  0.
124  1.23  0.  0.  0.
125  1.24  0.  0.  0.
126  1.25  0.  0.  0.
127  1.26  0.  0.  0.
128  1.27  0.  0.  0.
129  1.28  0.  0.  0.
130  1.29  0.  0.  0.
131  1.30  0.  0.  0.
132  1.31  0.  0.  0.
133  1.32  0.  0.  0.
134  1.33  0.  0.  0.
135  1.34  0.  0.  0.
136  1.35  0.  0.  0.
137  1.36  0.  0.  0.
138  1.37  0.  0.  0.
139  1.38  0.  0.  0.
140  1.39  0.  0.  0.
141  1.40  0.  0.  0.
142  1.41  0.  0.  0.
143  1.42  0.  0.  0.
144  1.43  0.  0.  0.
145  1.44  0.  0.  0.
146  1.45  0.  0.  0.
147  1.46  0.  0.  0.
148  1.47  0.  0.  0.
149  1.48  0.  0.  0.
150  1.49  0.  0.  0.
151  1.50  0.  0.  0.
152  1.51  0.  0.  0.
153  1.52  0.  0.  0.
154  1.53  0.  0.  0.
155  1.54  0.  0.  0.
156  1.55  0.  0.  0.
157  1.56  0.  0.  0.
158  1.57  0.  0.  0.
159  1.58  0.  0.  0.
160  1.59  0.  0.  0.
161  1.60  0.  0.  0.
162  1.61  0.  0.  0.
163  1.62  0.  0.  0.
164  1.63  0.  0.  0.
165  1.64  0.  0.  0.
166  1.65  0.  0.  0.
167  1.66  0.  0.  0.
168  1.67  0.  0.  0.
169  1.68  0.  0.  0.
170  1.69  0.  0.  0.
171  1.70  0.  0.  0.
172  1.71  0.  0.  0.
173  1.72  0.  0.  0.
174  1.73  0.  0.  0.
175  1.74  0.  0.  0.
176  1.75  0.  0.  0.
177  1.76  0.  0.  0.
178  1.77  0.  0.  0.
179  1.78  0.  0.  0.
180  1.79  0.  0.  0.
181  1.80  0.  0.  0.
182  1.81  0.  0.  0.
183  1.82  0.  0.  0.
184  1.83  0.  0.  0.
185  1.84  0.  0.  0.
186  1.85  0.  0.  0.
187  1.86  0.  0.  0.
188  1.87  0.  0.  0.
189  1.88  0.  0.  0.
190  1.89  0.  0.  0.
191  1.90  0.  0.  0.
192  1.91  0.  0.  0.
193  1.92  0.  0.  0.
194  1.93  0.  0.  0.
195  1.94  0.  0.  0.
196  1.95  0.  0.  0.
197  1.96  0.  0.  0.
198  1.97  0.  0.  0.
199  1.98  0.  0.  0.
200  1.99  0.  0.  0.
201  2.00  0.  0.  0.
202  2.01  0.  0.  0.
203  2.02  0.  0.  0.
204  2.03  0.  0.  0.
205  2.04  0.  0.  0.
206  2.05  0.  0.  0.
207  2.06  0.  0.  0.
208  2.07  0.  0.  0.
209  2.08  0.  0.  0.
210  2.09  0.  0.  0.
211  2.10  0.  0.  0.
212  2.11  0.  0.  0.
213  2.12  0.  0.  0.
214  2.13  0.  0.  0.
215  2.14  0.  0.  0.
216  2.15  0.  0.  0.
217  2.16  0.  0.  0.
218  2.17  0.  0.  0.
219  2.18  0.  0.  0.
220  2.19  0.  0.  0.
221  2.20  0.  0.  0.
222  2.21  0.  0.  0.
223  2.22  0.  0.  0.
224  2.23  0.  0.  0.
225  2.24  0.  0.  0.
226  2.25  0.  0.  0.
227  2.26  0.  0.  0.
228  2.27  0.  0.  0.
229  2.28  0.  0.  0.
230  2.29  0.  0.  0.
231  2.30  0.  0.  0.
232  2.31  0.  0.  0.
233  2.32  0.  0.  0.
234  2.33  0.  0.  0.
235  2.34  0.  0.  0.
236  2.35  0.  0.  0.
237  2.36  0.  0.  0.
238  2.37  0.  0.  0.
239  2.38  0.  0.  0.
240  2.39  0.  0.  0.
241  2.40  0.  0.  0.
242  2.41  0.  0.  0.
243  2.42  0.  0.  0.
244  2.43  0.  0.  0.
245  2.44  0.  0.  0.
246  2.45  0.  0.  0.
247  2.46  0.  0.  0.
248  2.47  0.  0.  0.
249  2.48  0.  0.  0.
250  2.49  0.  0.  0.
251  2.50  0.  0.  0.
252  2.51  0.  0.  0.
253  2.52  0.  0.  0.
254  2.53  0.  0.  0.
255  2.54  0.  0.  0.
256  2.55  0.  0.  0.
257  2.56  0.  0.  0.
258  2.57  0.  0.  0.
259  2.58  0.  0.  0.
260  2.59  0.  0.  0.
261  2.60  0.  0.  0.
262  2.61  0.  0.  0.
263  2.62  0.  0.  0.
264  2.63  0.  0.  0.
265  2.64  0.  0.  0.
266  2.65  0.  0.  0.
267  2.66  0.  0.  0.
268  2.67  0.  0.  0.
269  2.68  0.  0.  0.
270  2.69  0.  0.  0.
271  2.70  0.  0.  0.
272  2.71  0.  0.  0.
273  2.72  0.  0.  0.
274  2.73  0.  0.  0.
275  2.74  0.  0.  0.
276  2.75  0.  0.  0.
277  2.76  0.  0.  0.
278  2.77  0.  0.  0.
279  2.78  0.  0.  0.
280  2.79  0.  0.  0.
281  2.80  0.  0.  0.
282  2.81  0.  0.  0.
283  2.82  0.  0.  0.
284  2.83  0.  0.  0.
285  2.84  0.  0.  0.
286  2.85  0.  0.  0.
287  2.86  0.  0.  0.
288  2.87  0.  0.  0.
289  2.88  0.  0.  0.
290  2.89  0.  0.  0.
291  2.90  0.  0.  0.
292  2.91  0.  0.  0.
293  2.92  0.  0.  0.
294  2.93  0.  0.  0.
295  2.94  0.  0.  0.
296  2.95  0.  0.  0.
297  2.96  0.  0.  0.
298  2.97  0.  0.  0.
299  2.98  0.  0.  0.
300  2.99  0.  0.  0.
301  3.00  0.  0.  0.
302  3.01  0.  0.  0.
303  3.02  0.  0.  0.
304  3.03  0.  0.  0.
305  3.04  0.  0.  0.
306  3.05  0.  0.  0.
307  3.06  0.  0.  0.
308  3.07  0.  0.  0.
309  3.08  0.  0.  0.
310  3.09  0.  0.  0.
311  3.10  0.  0.  0.
312  3.11  0.  0.  0.
313  3.12  0.  0.  0.
314  3.13  0.  0.  0.
315  3.14  0.  0.  0.
316  3.15  0.  0.  0.
317  3.16  0.  0.  0.
318  3.17  0.  0.  0.
319  3.18  0.  0.  0.
320  3.19  0.  0.  0.
321  3.20  0.  0.  0.
322  3.21  0.  0.  0.
323  3.22  0.  0.  0.
324  3.23  0.  0.  0.
325  3.24  0.  0.  0.
326  3.25  0.  0.  0.
327  3.26  0.  0.  0.
328  3.27  0.  0.  0.
329  3.28  0.  0.  0.
330  3.29  0.  0.  0.
331  3.30  0.  0.  0.
332  3.31  0.  0.  0.
333  3.32  0.  0.  0.
334  3.33  0.  0.  0.
335  3.34  0.  0.  0.
336  3.35  0.  0.  0.
337  3.36  0.  0.  0.
338  3.37  0.  0.  0.
339  3.38  0.  0.  0.
340  3.39  0.  0.  0.
341  3.40  0.  0.  0.
342  3.41  0.  0.  0.
343  3.42  0.  0.  0.
344  3.43  0.  0.  0.
345  3.44  0.  0.  0.
346  3.45  0.  0.  0.
347  3.46  0.  0.  0.
348  3.47  0.  0.  0.
349  3.48  0.  0.  0.
350  3.49  0.  0.  0.
351  3.50  0.  0.  0.
352  3.51  0.  0.  0.
353  3.52  0.  0.  0.
354  3.53  0.  0.  0.
355  3.54  0.  0.  0.
356  3.55  0.  0.  0.
357  3.56  0.  0.  0.
358  3.57  0.  0.  0.
359  3.58  0.  0.  0.
360  3.59  0.  0.  0.
361  3.60  0.  0.  0.
362  3.61  0.  0.  0.
363  3.62  0.  0.  0.
364  3.63  0.  0.  0.
365  3.64  0.  0.  0.
366  3.65  0.  0.  0.
367  3.66  0.  0.  0.
368  3.67  0.  0.  0.
369  3.68  0.  0.  0.
370  3.69  0.  0.  0.
371  3.70  0.  0.  0.
372  3.71  0.  0.  0.
373  3.72  0.  0.  0.
374  3.73  0.  0.  0.
375  3.74  0.  0.  0.
376  3.75  0.  0.  0.
377  3.76  0.  0.  0.
378  3.77  0.  0.  0.
379  3.78  0.  0.  0.
380  3.79  0.  0.  0.
381  3.80  0.  0.  0.
382  3.81  0.  0.  0.
383  3.82  0.  0.  0.
384  3.83  0.  0.  0.
385  3.84  0.  0.  0.
386  3.85  0.  0.  0.
387  3.86  0.  0.  0.
388  3.87  0.  0.  0.
389  3.88  0.  0.  0.
390  3.89  0.  0.  0.
391  3.90  0.  0.  0.
392  3.91  0.  0.  0.
393  3.92  0.  0.  0.
394  3.93  0.  0.  0.
395  3.94  0.  0.  0.
396  3.95  0.  0.  0.
397  3.96  0.  0.  0.
398  3.97  0.  0.  0.
399  3.98  0.  0.  0.
400  3.99  0.  0.  0.
401  4.00  0.  0.  0.
402  4.01  0.  0.  0.
403  4.02  0.  0.  0.
404  4.03  0.  0.  0.
405  4.04  0.  0.  0.
406  4.05  0.  0.  0.
407  4.06  0.  0.  0.
408  4.07  0.  0.  0.
409  4.08  0.  0.  0.
410  4.09  0.  0.  0.
411  4.10  0.  0.  0.
412  4.11  0.  0.  0.
413  4.12  0.  0.  0.
414  4.13  0.  0.  0.
415  4.14  0.  0.  0.
416  4.15  0.  0.  0.
417  4.16  0.  0.  0.
418  4.17  0.  0.  0.
419  4.18  0.  0.  0.
420  4.19  0.  0.  0.
421  4.20  0.  0.  0.
422  4.21  0.  0.  0.
423  4.22  0.  0.  0.
424  4.23  0.  0.  0.
425  4.24  0.  0.  0.
426  4.25  0.  0.  0.
427  4.26  0.  0.  0.
428  4.27  0.  0.  0.
429  4.28  0.  0.  0.
430  4.29  0.  0.  0.
431  4.30  0.  0.  0.
432  4.31  0.  0.  0.
433  4.32  0.  0.  0.
434  4.33  0.  0.  0.
435  4.34  0.  0.  0.
436  4.35  0.  0.  0.
437  4.36  0.  0.  0.
438  4.37  0.  0.  0.
439  4.38  0.  0.  0.
440  4.39  0.  0.  0.
441  4.40  0.  0.  0.
442  4.41  0.  0.  0.
443  4.42  0.  0.  0.
444  4.43  0.  0.  0.
445  4.44  0.  0.  0.
446  4.45  0.  0.  0.
447  4.46  0.  0.  0.
448  4.47  0.  0.  0.
449  4.48  0.  0.  0.
450  4.49  0.  0.  0.
451  4.50  0.  0.  0.
452  4.51  0.  0.  0.
453  4.52  0.  0.  0.
454  4.53  0.  0.  0.
455  4.54  0.  0.  0.
456  4.55  0.  0.  0.
457  4.56  0.  0.  0.
458  4.57  0.  0.  0.
459  4.58  0.  0.  0.
460  4.59  0.  0.  0.
461  4.60  0.  0.  0.
462  4.61  0.  0.  0.
463  4.62  0.  0.  0.
464  4.63  0.  0.  0.
465  4.64  0.  0.  0.
466  4.65  0.  0.  0.
467  4.66  0.  0.  0.
468  4.67  0.  0.  0.
469  4.68  0.  0.  0.
470  4.69  0.  0.  0.
471  4.70  0.  0.  0.
472  4.71  0.  0.  0.
473  4.72  0.  0.  0.
474  4.73  0.  0.  0.
475  4.74  0.  0.  0.
476  4.75  0.  0.  0.
477  4.76  0.  0.  0.
478  4.77  0.  0.  0.
479  4.78  0.  0.  0.
480  4.79  0.  0.  0.
481  4.80  0.  0.  0.
482  4.81  0.  0.  0.
483  4.82  0.  0.  0.
484  4.83  0.  0.  0.
485  4.84  0.  0.  0.
486  4.85  0.  0.  0.
487  4.86  0.  0.  0.
488  4.87  0.  0.  0.
489  4.88  0.  0.  0.
490  4.89  0.  0.  0.
491  4.90  0.  0.  0.
492  4.91  0.  0.  0.
493  4.92  0.  0.  0.
494  4.93  0.  0.  0.
495  4.94  0.  0.  0.
496  4.95  0.  0.  0.
497  4.96  0.  0.  0.
498  4.97  0.  0.  0.
499  4.98  0.  0.  0.
500  4.99  0.  0.  0.
501  5.00  0.  0.  0.
502  5.01  0.  0.  0.
503  5.02  0.  0.  0.
504  5.03  0.  0.  0.
505  5.04  0.  0.  0.
506  5.05  0.  0.  0.
507  5.06  0.  0.  0.
508  5.07  0.  0.  0.
509  5.08  0.  0.  0.
510  5.09  0.  0.  0.
511  5.10  0.  0.  0.
512  5.11  0.  0.  0.
513  5.12  0.  0.  0.
514  5.13  0.  0.  0.
515  5.14  0.  0.  0.
516  5.15  0.  0.  0.
517  5.16  0.  0.  0.
518  5.17  0.  0.  0.
519  5.18  0.  0.  0.
520  5.19  0.  0.  0.
521  5.20  0.  0.  0.
522  5.21  0.  0.  0.
523  5.22  0.  0.  0.
524  5.23  0.  0.  0.
525  5.24  0.  0.  0.
526  5.25  0.  0.  0.
527  5.26  0.  0.  0.
528  5.27  0.  0.  0.
529  5.28  0.  0.  0.
530  5.29  0.  0.  0.
531  5.30  0.  0.  0.
532  5.31  0.  0.  0.
533  5.32  0.  0.  0.
534  5.33  0.  0.  0.
535  5.34  0.  0.  0.
536  5.35  0.  0.  0.
537  5.36  0.  0.  0.
538  5.37  0.  0.  0.
539  5.38  0.  0.  0.
540  5.39  0.  0.  0.
541  5.40  0.  0.  0.
542  5.41  0.  0.  0.
543  5.42  0.  0.  0.
544  5.43  0.  0.  0.
545  5.44  0.  0.  0.
546  5.45  0.  0.  0.
547  5.46  0.  0.  0.
548  5.47  0.  0.  0.
549  5.48  0.  0.  0.
550  5.49  0.  0.  0.
551  5.50  0.  0.  0.
552  5.51  0.  0.  0.
553  5.52  0.  0.  0.
554  5.53  0.  0.  0.
555  5.54  0.  0.  0.
556  5.55  0.  0.  0.
557  5.56  0.  0.  0.
558  5.57  0.  0.  0.
559  5.58  0.  0.  0.
560  5.59  0.  0.  0.
561  5.60  0.  0.  0.
562  5.61  0.  0.  0.
563  5.62  0.  0.  0.
564  5.63  0.  0.  0.
565  5.64  0.  0.  0.
566  5.65  0.  0.  0.
567  5.66  0.  0.  0.
568  5.67  0.  0.  0.
569  5.68  0.  0.  0.
570  5.69  0.  0.  0.
571  5.70  0.  0.  0.
572  5.71  0.  0.  0.
573  5.72  0.  0.  0.
574  5.73  0.  0.  0.
575  5.74  0.  0.  0.
576  5.75  0.  0.  0.
577  5.76  0.  0.  0.
578  5.77  0.  0.  0.
579  5.78  0.  0.  0.
580  5.79  0.  0.  0.
581  5.80  0.  0.  0.
582  5.81  0.  0.  0.
583  5.82  0.  0.  0.
584  5.83  0.  0.  0.
585  5.84  0.  0.  0.
586  5.85  0.  0.  0.
587  5.86  0.  0.  0.
588  5.87  0.  0.  0.
589  5.88  0.  0.  0.
590  5.89  0.  0.  0.
591  5.90  0.  0.  0.
592  5.91  0.  0.  0.
593  5.92  0.  0.  0.
594  5.93  0.  0.  0.
595  5.94  0.  0.  0.
596  5.95  0.  0.  0.
597  5.96  0.  0.  0.
598  5.97  0.  0.  0.
599  5.98  0.  0.  0.
600  5.99  0.  0.  0.
1                         8.1835242541547E+00 -1.9724946374198E+00
1  0.0000000000000E+00 -3.2797327631506E-09 -8.4753439509588E-09
2  1.0000000000000E-02  4.9634729658790E-03  4.2380565517073E-04
3  2.0000000000000E-02  1.9807123538605E-02  1.7008821294435E-03
4  3.0000000000000E-02  4.4390939302225E-02  3.8480306983411E-03
5  4.0000000000000E-02  7.8482545354258E-02  6.8926684955724E-03
6  5.0000000000000E-02  1.2175868643866E-01  1.0871971267398E-02
7  6.0000000000000E-02  1.7380732775234E-01  1.5831712965069E-02
8  7.0000000000000E-02  2.3413039778713E-01  2.1824840191766E-02
9  8.0000000000000E-02  3.0214719984891E-01  2.8909827995813E-02
10  9.0000000000000E-02  3.7719851982880E-01  3.7148870307255E-02
11  1.0000000000000E-01  4.5855145607910E-01  4.6605963207823E-02
12  1.1000000000000E-01  5.4540499267533E-01  5.7344942031459E-02
13  1.2000000000000E-01  6.3689632985643E-01  6.9427533916884E-02
14  1.3000000000000E-01  7.3210797508968E-01  8.2911485858075E-02
15  1.4000000000000E-01  8.3007558519718E-01  9.7848824586130E-02
16  1.5000000000000E-01  9.2979653462547E-01  1.1428429890882E-01
17  1.6000000000000E-01  1.0302391676736E+00  1.3225404764731E-01
18  1.7000000000000E-01  1.1303526738552E+00  1.5178452732439E-01
19  1.8000000000000E-01  1.2290775061763E+00  1.7289172361215E-01
20  1.9000000000000E-01  1.3253562426503E+00  1.9558065961965E-01
21  2.0000000000000E-01  1.4181447725581E+00  2.1984520280388E-01
22  2.1000000000000E-01  1.5064236715371E+00  2.4566816104419E-01
23  2.2000000000000E-01  1.5892096142537E+00  2.7302164765793E-01
24  2.3000000000000E-01  1.6655666608631E+00  3.0186768525891E-01
25  2.4000000000000E-01  1.7346172442824E+00  3.3215900974895E-01
26  2.5000000000000E-01  1.7955526800160E+00  3.6384002871560E-01
27  2.6000000000000E-01  1.8476430192660E+00  3.9684788335874E-01
28  2.7000000000000E-01  1.8902460696053E+00  4.3111355998845E-01
29  2.8000000000000E-01  1.9228154156943E+00  4.6656299625265E-01
30  2.9000000000000E-01  1.9449072853652E+00  5.0311812860872E-01
31  3.0000000000000E-01  1.9561861236750E+00  5.4069783110919E-01
32  3.1000000000000E-01  1.9564287589060E+00  5.7921870120074E-01
33  3.2000000000000E-01  1.9455270694826E+00  6.1859565573532E-01
34  3.3000000000000E-01  1.9234890887542E+00  6.5874230948181E-01
35  3.4000000000000E-01  1.8904385148402E+00  6.9957111876602E-01
36  3.5000000000000E-01  1.8466126244248E+00  7.4099328406110E-01
37  3.6000000000000E-01  1.7923586216455E+00  7.8291841696964E-01
38  3.7000000000000E-01  1.7281284851267E+00  8.2525398862970E-01
39  3.8000000000000E-01  1.6544724068480E+00  8.6790458768262E-01
40  3.9000000000000E-01  1.5720309450268E+00  9.1077102611531E-01
41  4.0000000000000E-01  1.4815260386936E+00  9.5374934011749E-01
42  4.1000000000000E-01  1.3837510534191E+00  9.9672974020464E-01
43  4.2000000000000E-01  1.2795600450812E+00  1.0395955699382E+00
44  4.3000000000000E-01  1.1698564411455E+00  1.0822223353876E+00
45  4.4000000000000E-01  1.0555813463500E+00  1.1244768678672E+00
46  4.5000000000000E-01  9.3770168175262E-01  1.1662166803776E+00
47  4.6000000000000E-01  8.1719836283479E-01  1.2072895736122E+00
48  4.7000000000000E-01  6.9505471392991E-01  1.2475335404763E+00
49  4.8000000000000E-01  5.7224530300970E-01  1.2867770090153E+00
50  4.9000000000000E-01  4.4972536332036E-01  1.3248394527614E+00
51  5.0000000000000E-01  3.2842094715249E-01  1.3615323851477E+00
52  5.1000000000000E-01  2.0921993291366E-01  1.3966607412389E+00
53  5.2000000000000E-01  9.2963980493407E-02  1.4300246360674E+00
54  5.3000000000000E-01 -1.9558497428599E-02  1.4614214748468E+00
55  5.4000000000000E-01 -1.2761830805414E-01  1.4906483767782E+00
56  5.5000000000000E-01 -2.3055038192987E-01  1.5175048615870E+00
57  5.6000000000000E-01 -3.2775761934727E-01  1.5417957367907E+00
58  5.7000000000000E-01 -4.1871371479939E-01  1.5633341144648E+00
59  5.8000000000000E-01 -5.0296501454243E-01  1.5819444792863E+00
60  5.9000000000000E-01 -5.8013147862528E-01  1.5974657252127E+00
61  6.0000000000000E-01 -6.4990683104422E-01  1.6097540764860E+00
62  6.1000000000000E-01 -7.1205798970686E-01  1.6186858098491E+00
63  6.2000000000000E-01 -7.6642387158137E-01  1.6241596989261E+00
64  6.3000000000000E-01 -8.1291366787029E-01  1.6260991085404E+00
65  6.4000000000000E-01 -8.5150467956314E-01  1.6244536761211E+00
66  6.5000000000000E-01 -8.8223979572562E-01  1.6192005289737E+00
67  6.6000000000000E-01 -9.0522468595632E-01  1.6103449996695E+00
68  6.7000000000000E-01 -9.2062476527983E-01  1.5979208166863E+00
69  6.8000000000000E-01 -9.2866197513125E-01  1.5819897631767E+00
70  6.9000000000000E-01 -9.2961140886211E-01  1.5626408128059E+00
71  7.0000000000000E-01 -9.2379779521636E-01  1.5399887674085E+00
72  7.1000000000000E-01 -9.1159183933219E-01  1.5141724361894E+00
73  7.2000000000000E-01 -8.9340640880530E-01  1.4853524098077E+00
74  7.3000000000000E-01 -8.6969254290536E-01  1.4537084944263E+00
75  7.4000000000000E-01 -8.4093525674967E-01  1.4194368802624E+00
76  7.5000000000000E-01 -8.0764910954401E-01  1.3827471259878E+00
77  7.6000000000000E-01 -7.7037350717040E-01  1.3438590442486E+00
78  7.7000000000000E-01 -7.2966771452340E-01  1.3029995744737E+00
79  7.8000000000000E-01 -6.8610556197280E-01  1.2603997269760E+00
80  7.9000000000000E-01 -6.4026984287164E-01  1.2162916772234E+00
81  8.0000000000000E-01 -5.9274641466718E-01  1.1709060812605E+00
82  8.1000000000000E-01 -5.4411803427347E-01  1.1244696729160E+00
83  8.2000000000000E-01 -4.9495797815000E-01  1.0772031910339E+00
84  8.3000000000000E-01 -4.4582351810721E-01  1.0293196710110E+00
85  8.4000000000000E-01 -3.9724934424844E-01  9.8102311997372E-01
86  8.5000000000000E-01 -3.4974104563597E-01  9.3250757956423E-01
87  8.6000000000000E-01 -3.0376877620393E-01  8.8395656517724E-01
88  8.7000000000000E-01 -2.5976124713331E-01  8.3554285620537E-01
89  8.8000000000000E-01 -2.1810019642454E-01  7.8742859902355E-01
90  8.9000000000000E-01 -1.7911549093000E-01  7.3976567363728E-01
91  9.0000000000000E-01 -1.4308101495913E-01  6.9269626663293E-01
92  9.1000000000000E-01 -1.1021149222954E-01  6.4635358772442E-01
93  9.2000000000000E-01 -8.0660374085563E-02  6.0086266511551E-01
94  9.3000000000000E-01 -5.4518906418876E-02  5.5634115631186E-01
95  9.4000000000000E-01 -3.1816460700866E-02  5.1290011603173E-01
96  9.5000000000000E-01 -1.2522181277861E-02  4.7064467147108E-01
97  9.6000000000000E-01  3.4520379042914E-03  4.2967456725971E-01
98  9.7000000000000E-01  1.6247277978016E-02  3.9008455776576E-01
99  9.8000000000000E-01  2.6052100222005E-02  3.5196464264326E-01
100  9.9000000000000E-01  3.3095961801829E-02  3.1540016225254E-01
101  1.0000000000000E+00  3.7641725779432E-02  2.8047179232948E-01
102  1.0100000000000E+00  3.9977503099874E-02  2.4725550148263E-01
103  1.0200000000000E+00  4.0408118001468E-02  2.1582256020672E-01
104  1.0300000000000E+00  3.9246540369251E-02  1.8623971549834E-01
105  1.0400000000000E+00  3.6805677775118E-02  1.5856967025188E-01
106  1.0500000000000E+00  3.3390965281401E-02  1.3287203087145E-01
107  1.0600000000000E+00  2.9294231464914E-02  1.0920490940114E-01
108  1.0700000000000E+00  2.4789353701690E-02  8.7627387467915E-02
109  1.0800000000000E+00  2.0130192574273E-02  6.8203045783518E-02
110  1.0900000000000E+00  1.5551801620366E-02  5.1004986389482E-02
111  1.1000000000000E+00  1.1252007565546E-02  3.6111597745753E-02
112  1.1100000000000E+00  7.3917759670826E-03  2.3608186138987E-02
113  1.1200000000000E+00  4.2197881619964E-03  1.3644677321030E-02
114  1.1300000000000E+00  1.9046268137285E-03  6.3452886592767E-03
115  1.1400000000000E+00  5.1040688945936E-04  1.7847701696826E-03
116  1.1500000000000E+00  1.3270889624232E-05  5.0005700738285E-05
117  1.1600000000000E+00  2.1369872361215E-06  7.9292410403240E-06
118  1.1700000000000E+00 -3.8227145831959E-07 -1.3777001050607E-06
119  1.18  0.  0.
120  1.19  0.  0.
121  1.20  0.  0.
122  1.21  0.  0.
123  1.22  0.  0.
124  1.23  0.  0.
125  1.24  0.  0.
126  1.25  0.  0.
127  1.26  0.  0.
128  1.27  0.  0.
129  1.28  0.  0.
130  1.29  0.  0.
131  1.30  0.  0.
132  1.31  0.  0.
133  1.32  0.  0.
134  1.33  0.  0.
135  1.34  0.  0.
136  1.35  0.  0.
137  1.36  0.  0.
138  1.37  0.  0.
139  1.38  0.  0.
140  1.39  0.  0.
141  1.40  0.  0.
142  1.41  0.  0.
143  1.42  0.  0.
144  1.43  0.  0.
145  1.44  0.  0.
146  1.45  0.  0.
147  1.46  0.  0.
148  1.47  0.  0.
149  1.48  0.  0.
150  1.49  0.  0.
151  1.50  0.  0.
152  1.51  0.  0.
153  1.52  0.  0.
154  1.53  0.  0.
155  1.54  0.  0.
156  1.55  0.  0.
157  1.56  0.  0.
158  1.57  0.  0.
159  1.58  0.  0.
160  1.59  0.  0.
161  1.60  0.  0.
162  1.61  0.  0.
163  1.62  0.  0.
164  1.63  0.  0.
165  1.64  0.  0.