Fm    ONCVPSP-4.0.1  r_core=   1.15134   1.15134   1.33706   1.35316
100.0000     40.0000      230504    zatom,zion,pspd
8      11   3     4   600     0    pspcod,pspxc,lmax,lloc,mmax,r2well
5.99000000  5.00000000  0.00000000    rchrg fchrg qchrg
3     2     2     2     0    nproj
1     1           extension_switch
0                         2.4501537888112E+01  2.5516723358523E+00 -2.0801628463536E+00
1  0.0000000000000E+00 -4.4195404447223E-08  1.6367285998742E-07 -8.7530833137173E-09
2  1.0000000000000E-02  1.6632890006797E-01 -6.6673705674609E-02  3.7841989223268E-02
3  2.0000000000000E-02  3.3139015832292E-01 -1.3167310934660E-01  7.5514912645204E-02
4  3.0000000000000E-02  4.9393206183795E-01 -1.9336466436127E-01  1.1285248548346E-01
5  4.0000000000000E-02  6.5273438754119E-01 -2.5019506338724E-01  1.4969391540066E-01
6  5.0000000000000E-02  8.0662323948943E-01 -3.0072822460847E-01  1.8588647716606E-01
7  6.0000000000000E-02  9.5448483050084E-01 -3.4367864199071E-01  2.2128788812907E-01
8  7.0000000000000E-02  1.0952779108508E+00 -3.7794008981087E-01  2.5576842896703E-01
9  8.0000000000000E-02  1.2280445909307E+00 -4.0260883531087E-01  2.8921276292286E-01
10  9.0000000000000E-02  1.3519193568884E+00 -4.1700070633632E-01  3.2152141702313E-01
11  1.0000000000000E-01  1.4661361364062E+00 -4.2066157605980E-01  3.5261190015988E-01
12  1.1000000000000E-01  1.5700333337975E+00 -4.1337105646287E-01  3.8241944498220E-01
13  1.2000000000000E-01  1.6630568172570E+00 -3.9513942774684E-01  4.1089737280351E-01
14  1.3000000000000E-01  1.7447609040706E+00 -3.6619806363566E-01  4.3801709270937E-01
15  1.4000000000000E-01  1.8148074495962E+00 -3.2698383411738E-01  4.6376775728233E-01
16  1.5000000000000E-01  1.8729632007105E+00 -2.7811816946664E-01  4.8815560741286E-01
17  1.6000000000000E-01  1.9190956222234E+00 -2.2038164505231E-01  5.1120304715360E-01
18  1.7000000000000E-01  1.9531674438103E+00 -1.5468508912213E-01  5.3294749618193E-01
19  1.8000000000000E-01  1.9752302039525E+00 -8.2038320359158E-02  5.5344007192165E-01
20  1.9000000000000E-01  1.9854170852655E+00 -3.5176848525897E-03  5.7274415558833E-01
21  2.0000000000000E-01  1.9839353418869E+00  7.9766418901028E-02  5.9093389630663E-01
22  2.1000000000000E-01  1.9710586142140E+00  1.6670086371736E-01  6.0809270504302E-01
23  2.2000000000000E-01  1.9471194095747E+00  2.5619887144399E-01  6.2431178553768E-01
24  2.3000000000000E-01  1.9125020001812E+00  3.4722585884669E-01  6.3968874293383E-01
25  2.4000000000000E-01  1.8676359531365E+00  4.3882121077341E-01  6.5432630269500E-01
26  2.5000000000000E-01  1.8129904628944E+00  5.3011531505756E-01  6.6833116305091E-01
27  2.6000000000000E-01  1.7490696062497E+00  6.2034139260752E-01  6.8181299404623E-01
28  2.7000000000000E-01  1.6764085857270E+00  7.0884187108157E-01  6.9488358575276E-01
29  2.8000000000000E-01  1.5955709713601E+00  7.9506927323529E-01  7.0765613782386E-01
30  2.9000000000000E-01  1.5071468955826E+00  8.7858181291859E-01  7.2024467280136E-01
31  3.0000000000000E-01  1.4117521035270E+00  9.5903410432716E-01  7.3276354688395E-01
32  3.1000000000000E-01  1.3100277136043E+00  1.0361635853397E+00  7.4532702464709E-01
33  3.2000000000000E-01  1.2026405027276E+00  1.1097734261763E+00  7.5804887881889E-01
34  3.3000000000000E-01  1.0902834986421E+00  1.1797128336674E+00  7.7104197294395E-01
35  3.4000000000000E-01  9.7367663984406E-01  1.2458557638441E+00  7.8441778379546E-01
36  3.5000000000000E-01  8.5356725247396E-01  1.3080791174186E+00  7.9828582181887E-01
37  3.6000000000000E-01  7.3073009386311E-01  1.3662415116651E+00  8.1275291169874E-01
38  3.7000000000000E-01  6.0596672417751E-01  1.4201636974891E+00  8.2792230122037E-01
39  3.8000000000000E-01  4.8010399045995E-01  1.4696116230115E+00  8.4389257473961E-01
40  3.9000000000000E-01  3.5399144050367E-01  1.5142830373546E+00  8.6075635747067E-01
41  4.0000000000000E-01  2.2849752617756E-01  1.5537983845600E+00  8.7859880806897E-01
42  4.1000000000000E-01  1.0450450547917E-01  1.5876965631688E+00  8.9749590917008E-01
43  4.2000000000000E-01 -1.7097992175725E-02  1.6154359285697E+00  9.1751257814495E-01
44  4.3000000000000E-01 -1.3542071422274E-01  1.6364007003244E+00  9.3870063281453E-01
45  4.4000000000000E-01 -2.4958376369346E-01  1.6499127134895E+00  9.6109665869302E-01
46  4.5000000000000E-01 -3.5872666661873E-01  1.6552482299977E+00  9.8471983497159E-01
47  4.6000000000000E-01 -4.6201933100678E-01  1.6516593119351E+00  1.0095697854217E+00
48  4.7000000000000E-01 -5.5867365070942E-01  1.6383990612890E+00  1.0356245272512E+00
49  4.8000000000000E-01 -6.4795546555768E-01  1.6147498579901E+00  1.0628385953231E+00
50  4.9000000000000E-01 -7.2919655662180E-01  1.5800535865437E+00  1.0911414207763E+00
51  5.0000000000000E-01 -8.0180633372151E-01  1.5337427367150E+00  1.1204360417840E+00
52  5.1000000000000E-01 -8.6528286238527E-01  1.4753711997829E+00  1.1505982199054E+00
53  5.2000000000000E-01 -9.1922287989845E-01  1.4046435614101E+00  1.1814760282586E+00
54  5.3000000000000E-01 -9.6333046500838E-01  1.3214417162250E+00  1.2128899677475E+00
55  5.4000000000000E-01 -9.9742405292354E-01  1.2258476971209E+00  1.2446336550807E+00
56  5.5000000000000E-01 -1.0214415256636E+00  1.1181617217956E+00  1.2764751116957E+00
57  5.6000000000000E-01 -1.0354431563784E+00  9.9891460636611E-01  1.3081586664165E+00
58  5.7000000000000E-01 -1.0396122433702E+00  8.6887387581847E-01  1.3394074672443E+00
59  5.8000000000000E-01 -1.0342533333310E+00  7.2904310718731E-01  1.3699265797065E+00
60  5.9000000000000E-01 -1.0197880015953E+00  5.8065426637363E-01  1.3994066312643E+00
61  6.0000000000000E-01 -9.9674822770226E-01  4.2515303536863E-01  1.4275279440311E+00
62  6.1000000000000E-01 -9.6576747486904E-01  2.6417736496574E-01  1.4539650820786E+00
63  6.2000000000000E-01 -9.2756964971069E-01  9.9529720329822E-02  1.4783917254695E+00
64  6.3000000000000E-01 -8.8295618141429E-01 -6.6856295164095E-02  1.5004857713544E+00
65  6.4000000000000E-01 -8.3279151546674E-01 -2.3295405630271E-01  1.5199345534278E+00
66  6.5000000000000E-01 -7.7798736408389E-01 -3.9668572378916E-01  1.5364400650876E+00
67  6.6000000000000E-01 -7.1948609214216E-01 -5.5596656184734E-01  1.5497240689935E+00
68  6.7000000000000E-01 -6.5824364249343E-01 -7.0875049058453E-01  1.5595329764985E+00
69  6.8000000000000E-01 -5.9521241727505E-01 -8.5307554673494E-01  1.5656423845954E+00
70  6.9000000000000E-01 -5.3132453186433E-01 -9.8710791901465E-01  1.5678611654791E+00
71  7.0000000000000E-01 -4.6747584556251E-01 -1.1091832608902E+00  1.5660350143078E+00
72  7.1000000000000E-01 -4.0451114844576E-01 -1.2178440626294E+00  1.5600493739317E+00
73  7.2000000000000E-01 -3.4321084800187E-01 -1.3118719831718E+00  1.5498316708012E+00
74  7.3000000000000E-01 -2.8427945346778E-01 -1.3903141963596E+00  1.5353528134810E+00
75  7.4000000000000E-01 -2.2833610177246E-01 -1.4525029900356E+00  1.5166279236170E+00
76  7.5000000000000E-01 -1.7590730850785E-01 -1.4980680641102E+00  1.4937162882557E+00
77  7.6000000000000E-01 -1.2742206240592E-01 -1.5269411978835E+00  1.4667205415075E+00
78  7.7000000000000E-01 -8.3209314498996E-02 -1.5393531902290E+00  1.4357851020907E+00
79  7.8000000000000E-01 -4.3497845617632E-02 -1.5358232110736E+00  1.4010939107581E+00
80  7.9000000000000E-01 -8.4184302226922E-03 -1.5171409314056E+00  1.3628675274908E+00
81  8.0000000000000E-01  2.1991847257370E-02 -1.4843420146381E+00  1.3213596622270E+00
82  8.1000000000000E-01  4.7783323624581E-02 -1.4386777479731E+00  1.2768532244327E+00
83  8.2000000000000E-01  6.9085784725496E-02 -1.3815797626326E+00  1.2296559857716E+00
84  8.3000000000000E-01  8.6099079560173E-02 -1.3146209316062E+00  1.1800959563327E+00
85  8.4000000000000E-01  9.9082641544547E-02 -1.2394736391159E+00  1.1285165782817E+00
86  8.5000000000000E-01  1.0834425889592E-01 -1.1578666846553E+00  1.0752718414479E+00
87  8.6000000000000E-01  1.1422844682018E-01 -1.0715421147308E+00  1.0207214233738E+00
88  8.7000000000000E-01  1.1710477446317E-01 -9.8221326693021E-01  9.6522595194773E-01
89  8.8000000000000E-01  1.1735648970586E-01 -8.9152526435664E-01  9.0914248217361E-01
90  8.9000000000000E-01  1.1536976534315E-01 -8.0101911540626E-01  8.5282027022766E-01
91  9.0000000000000E-01  1.1152386169921E-01 -7.1210045675557E-01  7.9659691804996E-01
92  9.1000000000000E-01  1.0618246416283E-01 -6.2601382928783E-01  7.4079495067807E-01
93  9.2000000000000E-01  9.9686410431816E-02 -5.4382320098463E-01  6.8571887669341E-01
94  9.3000000000000E-01  9.2347972426346E-02 -4.6639925118973E-01  6.3165276983753E-01
95  9.4000000000000E-01  8.4446802846707E-02 -3.9441371083050E-01  5.7885839734033E-01
96  9.5000000000000E-01  7.6227597096629E-02 -3.2834081660721E-01  5.2757390799579E-01
97  9.6000000000000E-01  6.7899458535111E-02 -2.6846568694725E-01  4.7801308066567E-01
98  9.7000000000000E-01  5.9636889357447E-02 -2.1489916626385E-01  4.3036512174597E-01
99  9.8000000000000E-01  5.1582261201603E-02 -1.6759841355827E-01  3.8479498816066E-01
100  9.9000000000000E-01  4.3849548981778E-02 -1.2639223277395E-01  3.4144420053063E-01
101  1.0000000000000E+00  3.6529038341045E-02 -9.1009855710985E-02  3.0043209908245E-01
102  1.0100000000000E+00  2.9692641150145E-02 -6.1111593165146E-02  2.6185748231218E-01
103  1.0200000000000E+00  2.3399373927593E-02 -3.6319464276190E-02  2.2580055499772E-01
104  1.0300000000000E+00  1.7700470083009E-02 -1.6245595543848E-02  1.9232509739901E-01
105  1.0400000000000E+00  1.2643507387341E-02 -5.1584626885340E-04  1.6148075087367E-01
106  1.0500000000000E+00  8.2748355604196E-03  1.1214238447163E-02  1.3330529604889E-01
107  1.0600000000000E+00  4.6394838432135E-03  1.9254427313705E-02  1.0782677749514E-01
108  1.0700000000000E+00  1.7776134239905E-03  2.3889447020920E-02  8.5065302940624E-02
109  1.0800000000000E+00 -2.8360363337616E-04  2.5407588535705E-02  6.5034269871497E-02
110  1.0900000000000E+00 -1.5434082523876E-03  2.4151430371037E-02  4.7741158257964E-02
111  1.1000000000000E+00 -2.0716847075548E-03  2.0672615748214E-02  3.3167227066384E-02
112  1.1100000000000E+00 -2.0416761023975E-03  1.5860715205507E-02  2.1258857956406E-02
113  1.1200000000000E+00 -1.6009484673123E-03  1.0515123510138E-02  1.2037062214731E-02
114  1.1300000000000E+00 -9.5098547231418E-04  5.5134649170315E-03  5.4795115377260E-03
115  1.1400000000000E+00 -3.2818388845369E-04  1.7242764097987E-03  1.5076425631072E-03
116  1.1500000000000E+00 -1.1099624029170E-05  5.3452098992561E-05  4.1218229046038E-05
117  1.1600000000000E+00 -1.7199879499951E-06  8.3867614754730E-06  6.5559346527490E-06
118  1.1700000000000E+00  2.7669772072647E-07 -1.3959691547574E-06 -1.1511178326331E-06
119  1.18  0.  0.  0.
120  1.19  0.  0.  0.
121  1.20  0.  0.  0.
122  1.21  0.  0.  0.
123  1.22  0.  0.  0.
124  1.23  0.  0.  0.
125  1.24  0.  0.  0.
126  1.25  0.  0.  0.
127  1.26  0.  0.  0.
128  1.27  0.  0.  0.
129  1.28  0.  0.  0.
130  1.29  0.  0.  0.
131  1.30  0.  0.  0.
132  1.31  0.  0.  0.
133  1.32  0.  0.  0.
134  1.33  0.  0.  0.
135  1.34  0.  0.  0.
136  1.35  0.  0.  0.
137  1.36  0.  0.  0.
138  1.37  0.  0.  0.
139  1.38  0.  0.  0.
140  1.39  0.  0.  0.
141  1.40  0.  0.  0.
142  1.41  0.  0.  0.
143  1.42  0.  0.  0.
144  1.43  0.  0.  0.
145  1.44  0.  0.  0.
146  1.45  0.  0.  0.
147  1.46  0.  0.  0.
148  1.47  0.  0.  0.
149  1.48  0.  0.  0.
150  1.49  0.  0.  0.
151  1.50  0.  0.  0.
152  1.51  0.  0.  0.
153  1.52  0.  0.  0.
154  1.53  0.  0.  0.
155  1.54  0.  0.  0.
156  1.55  0.  0.  0.
157  1.56  0.  0.  0.
158  1.57  0.  0.  0.
159  1.58  0.  0.  0.
160  1.59  0.  0.  0.
161  1.60  0.  0.  0.
162  1.61  0.  0.  0.
163  1.62  0.  0.  0.
164  1.63  0.  0.  0.
165  1.64  0.  0.  0.
166  1.65  0.  0.  0.
167  1.66  0.  0.  0.
168  1.67  0.  0.  0.
169  1.68  0.  0.  0.
170  1.69  0.  0.  0.
171  1.70  0.  0.  0.
172  1.71  0.  0.  0.
173  1.72  0.  0.  0.
174  1.73  0.  0.  0.
175  1.74  0.  0.  0.
176  1.75  0.  0.  0.
177  1.76  0.  0.  0.
178  1.77  0.  0.  0.
179  1.78  0.  0.  0.
180  1.79  0.  0.  0.
181  1.80  0.  0.  0.
182  1.81  0.  0.  0.
183  1.82  0.  0.  0.
184  1.83  0.  0.  0.
185  1.84  0.  0.  0.
186  1.85  0.  0.  0.
187  1.86  0.  0.  0.
188  1.87  0.  0.  0.
189  1.88  0.  0.  0.
190  1.89  0.  0.  0.
191  1.90  0.  0.  0.
192  1.91  0.  0.  0.
193  1.92  0.  0.  0.
194  1.93  0.  0.  0.
195  1.94  0.  0.  0.
196  1.95  0.  0.  0.
197  1.96  0.  0.  0.
198  1.97  0.  0.  0.
199  1.98  0.  0.  0.
200  1.99  0.  0.  0.
201  2.00  0.  0.  0.
202  2.01  0.  0.  0.
203  2.02  0.  0.  0.
204  2.03  0.  0.  0.
205  2.04  0.  0.  0.
206  2.05  0.  0.  0.
207  2.06  0.  0.  0.
208  2.07  0.  0.  0.
209  2.08  0.  0.  0.
210  2.09  0.  0.  0.
211  2.10  0.  0.  0.
212  2.11  0.  0.  0.
213  2.12  0.  0.  0.
214  2.13  0.  0.  0.
215  2.14  0.  0.  0.
216  2.15  0.  0.  0.
217  2.16  0.  0.  0.
218  2.17  0.  0.  0.
219  2.18  0.  0.  0.
220  2.19  0.  0.  0.
221  2.20  0.  0.  0.
222  2.21  0.  0.  0.
223  2.22  0.  0.  0.
224  2.23  0.  0.  0.
225  2.24  0.  0.  0.
226  2.25  0.  0.  0.
227  2.26  0.  0.  0.
228  2.27  0.  0.  0.
229  2.28  0.  0.  0.
230  2.29  0.  0.  0.
231  2.30  0.  0.  0.
232  2.31  0.  0.  0.
233  2.32  0.  0.  0.
234  2.33  0.  0.  0.
235  2.34  0.  0.  0.
236  2.35  0.  0.  0.
237  2.36  0.  0.  0.
238  2.37  0.  0.  0.
239  2.38  0.  0.  0.
240  2.39  0.  0.  0.
241  2.40  0.  0.  0.
242  2.41  0.  0.  0.
243  2.42  0.  0.  0.
244  2.43  0.  0.  0.
245  2.44  0.  0.  0.
246  2.45  0.  0.  0.
247  2.46  0.  0.  0.
248  2.47  0.  0.  0.
249  2.48  0.  0.  0.
250  2.49  0.  0.  0.
251  2.50  0.  0.  0.
252  2.51  0.  0.  0.
253  2.52  0.  0.  0.
254  2.53  0.  0.  0.
255  2.54  0.  0.  0.
256  2.55  0.  0.  0.
257  2.56  0.  0.  0.
258  2.57  0.  0.  0.
259  2.58  0.  0.  0.
260  2.59  0.  0.  0.
261  2.60  0.  0.  0.
262  2.61  0.  0.  0.
263  2.62  0.  0.  0.
264  2.63  0.  0.  0.
265  2.64  0.  0.  0.
266  2.65  0.  0.  0.
267  2.66  0.  0.  0.
268  2.67  0.  0.  0.
269  2.68  0.  0.  0.
270  2.69  0.  0.  0.
271  2.70  0.  0.  0.
272  2.71  0.  0.  0.
273  2.72  0.  0.  0.
274  2.73  0.  0.  0.
275  2.74  0.  0.  0.
276  2.75  0.  0.  0.
277  2.76  0.  0.  0.
278  2.77  0.  0.  0.
279  2.78  0.  0.  0.
280  2.79  0.  0.  0.
281  2.80  0.  0.  0.
282  2.81  0.  0.  0.
283  2.82  0.  0.  0.
284  2.83  0.  0.  0.
285  2.84  0.  0.  0.
286  2.85  0.  0.  0.
287  2.86  0.  0.  0.
288  2.87  0.  0.  0.
289  2.88  0.  0.  0.
290  2.89  0.  0.  0.
291  2.90  0.  0.  0.
292  2.91  0.  0.  0.
293  2.92  0.  0.  0.
294  2.93  0.  0.  0.
295  2.94  0.  0.  0.
296  2.95  0.  0.  0.
297  2.96  0.  0.  0.
298  2.97  0.  0.  0.
299  2.98  0.  0.  0.
300  2.99  0.  0.  0.
301  3.00  0.  0.  0.
302  3.01  0.  0.  0.
303  3.02  0.  0.  0.
304  3.03  0.  0.  0.
305  3.04  0.  0.  0.
306  3.05  0.  0.  0.
307  3.06  0.  0.  0.
308  3.07  0.  0.  0.
309  3.08  0.  0.  0.
310  3.09  0.  0.  0.
311  3.10  0.  0.  0.
312  3.11  0.  0.  0.
313  3.12  0.  0.  0.
314  3.13  0.  0.  0.
315  3.14  0.  0.  0.
316  3.15  0.  0.  0.
317  3.16  0.  0.  0.
318  3.17  0.  0.  0.
319  3.18  0.  0.  0.
320  3.19  0.  0.  0.
321  3.20  0.  0.  0.
322  3.21  0.  0.  0.
323  3.22  0.  0.  0.
324  3.23  0.  0.  0.
325  3.24  0.  0.  0.
326  3.25  0.  0.  0.
327  3.26  0.  0.  0.
328  3.27  0.  0.  0.
329  3.28  0.  0.  0.
330  3.29  0.  0.  0.
331  3.30  0.  0.  0.
332  3.31  0.  0.  0.
333  3.32  0.  0.  0.
334  3.33  0.  0.  0.
335  3.34  0.  0.  0.
336  3.35  0.  0.  0.
337  3.36  0.  0.  0.
338  3.37  0.  0.  0.
339  3.38  0.  0.  0.
340  3.39  0.  0.  0.
341  3.40  0.  0.  0.
342  3.41  0.  0.  0.
343  3.42  0.  0.  0.
344  3.43  0.  0.  0.
345  3.44  0.  0.  0.
346  3.45  0.  0.  0.
347  3.46  0.  0.  0.
348  3.47  0.  0.  0.
349  3.48  0.  0.  0.
350  3.49  0.  0.  0.
351  3.50  0.  0.  0.
352  3.51  0.  0.  0.
353  3.52  0.  0.  0.
354  3.53  0.  0.  0.
355  3.54  0.  0.  0.
356  3.55  0.  0.  0.
357  3.56  0.  0.  0.
358  3.57  0.  0.  0.
359  3.58  0.  0.  0.
360  3.59  0.  0.  0.
361  3.60  0.  0.  0.
362  3.61  0.  0.  0.
363  3.62  0.  0.  0.
364  3.63  0.  0.  0.
365  3.64  0.  0.  0.
366  3.65  0.  0.  0.
367  3.66  0.  0.  0.
368  3.67  0.  0.  0.
369  3.68  0.  0.  0.
370  3.69  0.  0.  0.
371  3.70  0.  0.  0.
372  3.71  0.  0.  0.
373  3.72  0.  0.  0.
374  3.73  0.  0.  0.
375  3.74  0.  0.  0.
376  3.75  0.  0.  0.
377  3.76  0.  0.  0.
378  3.77  0.  0.  0.
379  3.78  0.  0.  0.
380  3.79  0.  0.  0.
381  3.80  0.  0.  0.
382  3.81  0.  0.  0.
383  3.82  0.  0.  0.
384  3.83  0.  0.  0.
385  3.84  0.  0.  0.
386  3.85  0.  0.  0.
387  3.86  0.  0.  0.
388  3.87  0.  0.  0.
389  3.88  0.  0.  0.
390  3.89  0.  0.  0.
391  3.90  0.  0.  0.
392  3.91  0.  0.  0.
393  3.92  0.  0.  0.
394  3.93  0.  0.  0.
395  3.94  0.  0.  0.
396  3.95  0.  0.  0.
397  3.96  0.  0.  0.
398  3.97  0.  0.  0.
399  3.98  0.  0.  0.
400  3.99  0.  0.  0.
401  4.00  0.  0.  0.
402  4.01  0.  0.  0.
403  4.02  0.  0.  0.
404  4.03  0.  0.  0.
405  4.04  0.  0.  0.
406  4.05  0.  0.  0.
407  4.06  0.  0.  0.
408  4.07  0.  0.  0.
409  4.08  0.  0.  0.
410  4.09  0.  0.  0.
411  4.10  0.  0.  0.
412  4.11  0.  0.  0.
413  4.12  0.  0.  0.
414  4.13  0.  0.  0.
415  4.14  0.  0.  0.
416  4.15  0.  0.  0.
417  4.16  0.  0.  0.
418  4.17  0.  0.  0.
419  4.18  0.  0.  0.
420  4.19  0.  0.  0.
421  4.20  0.  0.  0.
422  4.21  0.  0.  0.
423  4.22  0.  0.  0.
424  4.23  0.  0.  0.
425  4.24  0.  0.  0.
426  4.25  0.  0.  0.
427  4.26  0.  0.  0.
428  4.27  0.  0.  0.
429  4.28  0.  0.  0.
430  4.29  0.  0.  0.
431  4.30  0.  0.  0.
432  4.31  0.  0.  0.
433  4.32  0.  0.  0.
434  4.33  0.  0.  0.
435  4.34  0.  0.  0.
436  4.35  0.  0.  0.
437  4.36  0.  0.  0.
438  4.37  0.  0.  0.
439  4.38  0.  0.  0.
440  4.39  0.  0.  0.
441  4.40  0.  0.  0.
442  4.41  0.  0.  0.
443  4.42  0.  0.  0.
444  4.43  0.  0.  0.
445  4.44  0.  0.  0.
446  4.45  0.  0.  0.
447  4.46  0.  0.  0.
448  4.47  0.  0.  0.
449  4.48  0.  0.  0.
450  4.49  0.  0.  0.
451  4.50  0.  0.  0.
452  4.51  0.  0.  0.
453  4.52  0.  0.  0.
454  4.53  0.  0.  0.
455  4.54  0.  0.  0.
456  4.55  0.  0.  0.
457  4.56  0.  0.  0.
458  4.57  0.  0.  0.
459  4.58  0.  0.  0.
460  4.59  0.  0.  0.
461  4.60  0.  0.  0.
462  4.61  0.  0.  0.
463  4.62  0.  0.  0.
464  4.63  0.  0.  0.
465  4.64  0.  0.  0.
466  4.65  0.  0.  0.
467  4.66  0.  0.  0.
468  4.67  0.  0.  0.
469  4.68  0.  0.  0.
470  4.69  0.  0.  0.
471  4.70  0.  0.  0.
472  4.71  0.  0.  0.
473  4.72  0.  0.  0.
474  4.73  0.  0.  0.
475  4.74  0.  0.  0.
476  4.75  0.  0.  0.
477  4.76  0.  0.  0.
478  4.77  0.  0.  0.
479  4.78  0.  0.  0.
480  4.79  0.  0.  0.
481  4.80  0.  0.  0.
482  4.81  0.  0.  0.
483  4.82  0.  0.  0.
484  4.83  0.  0.  0.
485  4.84  0.  0.  0.
486  4.85  0.  0.  0.
487  4.86  0.  0.  0.
488  4.87  0.  0.  0.
489  4.88  0.  0.  0.
490  4.89  0.  0.  0.
491  4.90  0.  0.  0.
492  4.91  0.  0.  0.
493  4.92  0.  0.  0.
494  4.93  0.  0.  0.
495  4.94  0.  0.  0.
496  4.95  0.  0.  0.
497  4.96  0.  0.  0.
498  4.97  0.  0.  0.
499  4.98  0.  0.  0.
500  4.99  0.  0.  0.
501  5.00  0.  0.  0.
502  5.01  0.  0.  0.
503  5.02  0.  0.  0.
504  5.03  0.  0.  0.
505  5.04  0.  0.  0.
506  5.05  0.  0.  0.
507  5.06  0.  0.  0.
508  5.07  0.  0.  0.
509  5.08  0.  0.  0.
510  5.09  0.  0.  0.
511  5.10  0.  0.  0.
512  5.11  0.  0.  0.
513  5.12  0.  0.  0.
514  5.13  0.  0.  0.
515  5.14  0.  0.  0.
516  5.15  0.  0.  0.
517  5.16  0.  0.  0.
518  5.17  0.  0.  0.
519  5.18  0.  0.  0.
520  5.19  0.  0.  0.
521  5.20  0.  0.  0.
522  5.21  0.  0.  0.
523  5.22  0.  0.  0.
524  5.23  0.  0.  0.
525  5.24  0.  0.  0.
526  5.25  0.  0.  0.
527  5.26  0.  0.  0.
528  5.27  0.  0.  0.
529  5.28  0.  0.  0.
530  5.29  0.  0.  0.
531  5.30  0.  0.  0.
532  5.31  0.  0.  0.
533  5.32  0.  0.  0.
534  5.33  0.  0.  0.
535  5.34  0.  0.  0.
536  5.35  0.  0.  0.
537  5.36  0.  0.  0.
538  5.37  0.  0.  0.
539  5.38  0.  0.  0.
540  5.39  0.  0.  0.
541  5.40  0.  0.  0.
542  5.41  0.  0.  0.
543  5.42  0.  0.  0.
544  5.43  0.  0.  0.
545  5.44  0.  0.  0.
546  5.45  0.  0.  0.
547  5.46  0.  0.  0.
548  5.47  0.  0.  0.
549  5.48  0.  0.  0.
550  5.49  0.  0.  0.
551  5.50  0.  0.  0.
552  5.51  0.  0.  0.
553  5.52  0.  0.  0.
554  5.53  0.  0.  0.
555  5.54  0.  0.  0.
556  5.55  0.  0.  0.
557  5.56  0.  0.  0.
558  5.57  0.  0.  0.
559  5.58  0.  0.  0.
560  5.59  0.  0.  0.
561  5.60  0.  0.  0.
562  5.61  0.  0.  0.
563  5.62  0.  0.  0.
564  5.63  0.  0.  0.
565  5.64  0.  0.  0.
566  5.65  0.  0.  0.
567  5.66  0.  0.  0.
568  5.67  0.  0.  0.
569  5.68  0.  0.  0.
570  5.69  0.  0.  0.
571  5.70  0.  0.  0.
572  5.71  0.  0.  0.
573  5.72  0.  0.  0.
574  5.73  0.  0.  0.
575  5.74  0.  0.  0.
576  5.75  0.  0.  0.
577  5.76  0.  0.  0.
578  5.77  0.  0.  0.
579  5.78  0.  0.  0.
580  5.79  0.  0.  0.
581  5.80  0.  0.  0.
582  5.81  0.  0.  0.
583  5.82  0.  0.  0.
584  5.83  0.  0.  0.
585  5.84  0.  0.  0.
586  5.85  0.  0.  0.
587  5.86  0.  0.  0.
588  5.87  0.  0.  0.
589  5.88  0.  0.  0.
590  5.89  0.  0.  0.
591  5.90  0.  0.  0.
592  5.91  0.  0.  0.
593  5.92  0.  0.  0.
594  5.93  0.  0.  0.
595  5.94  0.  0.  0.
596  5.95  0.  0.  0.
597  5.96  0.  0.  0.
598  5.97  0.  0.  0.
599  5.98  0.  0.  0.
600  5.99  0.  0.  0.
1                         7.6136024637319E+00 -1.9398010970793E+00
1  0.0000000000000E+00 -1.1312728809276E-08 -1.1991480145662E-08
2  1.0000000000000E-02  4.6893131049771E-03  3.5289362888281E-04
3  2.0000000000000E-02  1.8717027810803E-02  1.4194011269654E-03
4  3.0000000000000E-02  4.1962590004838E-02  3.2227556487903E-03
5  4.0000000000000E-02  7.4225484655161E-02  5.8008651464456E-03
6  5.0000000000000E-02  1.1522588108783E-01  9.2051201388506E-03
7  6.0000000000000E-02  1.6460559969104E-01  1.3498780971776E-02
8  7.0000000000000E-02  2.2192945930202E-01  1.8754998490436E-02
9  8.0000000000000E-02  2.8668707584514E-01  2.5054534037974E-02
10  9.0000000000000E-02  3.5829519020193E-01  3.2483254296825E-02
11  1.0000000000000E-01  4.3610060627187E-01  4.1129483359990E-02
12  1.1000000000000E-01  5.1938381837263E-01  5.1081298310173E-02
13  1.2000000000000E-01  6.0736340037359E-01  6.2423855360315E-02
14  1.3000000000000E-01  6.9920121730379E-01  7.5236831248230E-02
15  1.4000000000000E-01  7.9400850387775E-01  8.9592059174971E-02
16  1.5000000000000E-01  8.9085283389326E-01  1.0555143033823E-01
17  1.6000000000000E-01  9.8876598040871E-01  1.2316512135076E-01
18  1.7000000000000E-01  1.0867526398050E+00  1.4247019495545E-01
19  1.8000000000000E-01  1.1837999642107E+00  1.6348960693921E-01
20  1.9000000000000E-01  1.2788878173563E+00  1.8623163655398E-01
21  2.0000000000000E-01  1.3709996398203E+00  2.1068974166467E-01
22  2.1000000000000E-01  1.4591337819647E+00  2.3684282386820E-01
23  2.2000000000000E-01  1.5423151377256E+00  2.6465587357339E-01
24  2.3000000000000E-01  1.6196068908784E+00  2.9408095107730E-01
25  2.4000000000000E-01  1.6901221683731E+00  3.2505844755524E-01
26  2.5000000000000E-01  1.7530353836393E+00  3.5751856006607E-01
27  2.6000000000000E-01  1.8075930470292E+00  3.9138290754200E-01
28  2.7000000000000E-01  1.8531238212320E+00  4.2656621056610E-01
29  2.8000000000000E-01  1.8890476067831E+00  4.6297795670973E-01
30  2.9000000000000E-01  1.9148834566810E+00  5.0052397535845E-01
31  3.0000000000000E-01  1.9302561393898E+00  5.3910785122698E-01
32  3.1000000000000E-01  1.9349011956550E+00  5.7863211396178E-01
33  3.2000000000000E-01  1.9286683659161E+00  6.1899915204731E-01
34  3.3000000000000E-01  1.9115233007726E+00  6.6011181226171E-01
35  3.4000000000000E-01  1.8835475059020E+00  7.0187366066911E-01
36  3.5000000000000E-01  1.8449365138520E+00  7.4418889702079E-01
37  3.6000000000000E-01  1.7959963169627E+00  7.8696193084382E-01
38  3.7000000000000E-01  1.7371381369965E+00  8.3009664377585E-01
39  3.8000000000000E-01  1.6688716465415E+00  8.7349537820537E-01
40  3.9000000000000E-01  1.5917967936275E+00  9.1705770636821E-01
41  4.0000000000000E-01  1.5065944130810E+00  9.6067904614714E-01
42  4.1000000000000E-01  1.4140158348875E+00  1.0042491994066E+00
43  4.2000000000000E-01  1.3148717203711E+00  1.0476508953402E+00
44  4.3000000000000E-01  1.2100203706639E+00  1.0907584246969E+00
45  4.4000000000000E-01  1.1003557583133E+00  1.1334364506790E+00
46  4.5000000000000E-01  9.8679553177674E-01  1.1755390787089E+00
47  4.6000000000000E-01  8.7026923407174E-01  1.2169092601993E+00
48  4.7000000000000E-01  7.5170696133557E-01  1.2573785951442E+00
49  4.8000000000000E-01  6.3202866509216E-01  1.2967675850964E+00
50  4.9000000000000E-01  5.1213427445479E-01  1.3348863723668E+00
51  5.0000000000000E-01  3.9289478233457E-01  1.3715359836248E+00
52  5.1000000000000E-01  2.7514440416590E-01  1.4065100771289E+00
53  5.2000000000000E-01  1.5967388000971E-01  1.4395971732826E+00
54  5.3000000000000E-01  4.7224952535142E-02  1.4705833288154E+00
55  5.4000000000000E-01 -6.1513984290148E-02  1.4992551963902E+00
56  5.5000000000000E-01 -1.6591110658029E-01  1.5254033945508E+00
57  5.6000000000000E-01 -2.6539332502814E-01  1.5488260983284E+00
58  5.7000000000000E-01 -3.5944749333681E-01  1.5693327491295E+00
59  5.8000000000000E-01 -4.4762078371121E-01  1.5867477742309E+00
60  5.9000000000000E-01 -5.2952036862349E-01  1.6009142016971E+00
61  6.0000000000000E-01 -6.0481255743128E-01  1.6116970560642E+00
62  6.1000000000000E-01 -6.7322153883183E-01  1.6189864237997E+00
63  6.2000000000000E-01 -7.3452787562363E-01  1.6227000853029E+00
64  6.3000000000000E-01 -7.8856688714336E-01  1.6227856218411E+00
65  6.4000000000000E-01 -8.3522703764463E-01  1.6192219209736E+00
66  6.5000000000000E-01 -8.7444842662673E-01  1.6120200222000E+00
67  6.6000000000000E-01 -9.0622145076590E-01  1.6012232651598E+00
68  6.7000000000000E-01 -9.3058567788050E-01  1.5869067249971E+00
69  6.8000000000000E-01 -9.4762894263644E-01  1.5691759426919E+00
70  6.9000000000000E-01 -9.5748664290687E-01  1.5481649814008E+00
71  7.0000000000000E-01 -9.6034118628667E-01  1.5240338623098E+00
72  7.1000000000000E-01 -9.5642150964241E-01  1.4969654543242E+00
73  7.2000000000000E-01 -9.4600257205166E-01  1.4671619103354E+00
74  7.3000000000000E-01 -9.2940470420915E-01  1.4348407580925E+00
75  7.4000000000000E-01 -9.0699268629276E-01  1.4002307652796E+00
76  7.5000000000000E-01 -8.7917442208782E-01  1.3635677057823E+00
77  7.6000000000000E-01 -8.4639908028199E-01  1.3250901570096E+00
78  7.7000000000000E-01 -8.0915458437465E-01  1.2850354563664E+00
79  7.8000000000000E-01 -7.6796435039804E-01  1.2436359385784E+00
80  7.9000000000000E-01 -7.2338319610354E-01  1.2011155647380E+00
81  8.0000000000000E-01 -6.7599237561688E-01  1.1576870390591E+00
82  8.1000000000000E-01 -6.2639372872214E-01  1.1135494908997E+00
83  8.2000000000000E-01 -5.7520297257318E-01  1.0688867783260E+00
84  8.3000000000000E-01 -5.2304220424184E-01  1.0238664461123E+00
85  8.4000000000000E-01 -4.7053172344093E-01  9.7863934648892E-01
86  8.5000000000000E-01 -4.1828132428506E-01  9.3333990608635E-01
87  8.6000000000000E-01 -3.6688124133360E-01  8.8808699834202E-01
88  8.7000000000000E-01 -3.1689296671479E-01  8.4298535808087E-01
89  8.8000000000000E-01 -2.6884018028797E-01  7.9812745496182E-01
90  8.9000000000000E-01 -2.2320005217343E-01  7.5359572582380E-01
91  9.0000000000000E-01 -1.8039518540338E-01  7.0946505339372E-01
92  9.1000000000000E-01 -1.4078646503971E-01  6.6580537092346E-01
93  9.2000000000000E-01 -1.0466706829358E-01  6.2268426954241E-01
94  9.3000000000000E-01 -7.2257867730003E-02  5.8016948771614E-01
95  9.4000000000000E-01 -4.3704426665299E-02  5.3833117028091E-01
96  9.5000000000000E-01 -1.9075742830831E-02  4.9724379798929E-01
97  9.6000000000000E-01  1.6351559208859E-03  4.5698770708936E-01
98  9.7000000000000E-01  1.8508720519142E-02  4.1765014172934E-01
99  9.8000000000000E-01  3.1694518021065E-02  3.7932580935257E-01
100  9.9000000000000E-01  4.1405093533415E-02  3.4211694000594E-01
101  1.0000000000000E+00  4.7908228447920E-02  3.0613288380648E-01
102  1.0100000000000E+00  5.1517843668978E-02  2.7148931577943E-01
103  1.0200000000000E+00  5.2583872877368E-02  2.3830715299005E-01
104  1.0300000000000E+00  5.1481504580469E-02  2.0671132434003E-01
105  1.0400000000000E+00  4.8600260824186E-02  1.7682956763995E-01
106  1.0500000000000E+00  4.4333443279726E-02  1.4879146075082E-01
107  1.0600000000000E+00  3.9068532252284E-02  1.2272792283767E-01
108  1.0700000000000E+00  3.3179169628170E-02  9.8771447366235E-02
109  1.0800000000000E+00  2.7019339363746E-02  7.7057328399361E-02
110  1.0900000000000E+00  2.0920879085056E-02  5.7726357434729E-02
111  1.1000000000000E+00  1.5171038572458E-02  4.0918686050473E-02
112  1.1100000000000E+00  1.0009515682121E-02  2.6773380118069E-02
113  1.1200000000000E+00  5.7528755616694E-03  1.5482334486548E-02
114  1.1300000000000E+00  2.6213080594414E-03  7.2014799363660E-03
115  1.1400000000000E+00  7.1146689469852E-04  2.0254104518910E-03
116  1.1500000000000E+00  1.8842656493052E-05  5.6722479271336E-05
117  1.1600000000000E+00  3.0236792729926E-06  8.9958988007759E-06
118  1.1700000000000E+00 -5.3686282496274E-07 -1.5632391472391E-06
119  1.18  0.  0.
120  1.19  0.  0.
121  1.20  0.  0.
122  1.21  0.  0.
123  1.22  0.  0.
124  1.23  0.  0.
125  1.24  0.  0.
126  1.25  0.  0.
127  1.26  0.  0.
128  1.27  0.  0.
129  1.28  0.  0.
130  1.29  0.  0.
131  1.30  0.  0.
132  1.31  0.  0.
133  1.32  0.  0.
134  1.33  0.  0.
135  1.34  0.  0.
136  1.35  0.  0.
137  1.36  0.  0.
138  1.37  0.  0.
139  1.38  0.  0.
140  1.39  0.  0.
141  1.40  0.  0.
142  1.41  0.  0.
143  1.42  0.  0.
144  1.43  0.  0.
145  1.44  0.  0.
146  1.45  0.  0.
147  1.46  0.  0.
148  1.47  0.  0.
149  1.48  0.  0.
150  1.49  0.  0.
151  1.50  0.  0.
152  1.51  0.  0.
153  1.52  0.  0.
154  1.53  0.  0.
155  1.54  0.  0.
156  1.55  0.  0.
157  1.56  0.  0.
158  1.57  0.  0.
159  1.58  0.  0.
160  1.59  0.  0.
161  1.60  0.  0.
162  1.61  0.  0.
163  1.62  0.  0.
164  1.63  0.  0.
165  1.64  0.  0.