Fm    ONCVPSP-4.0.1  r_core=   1.15134   1.15134   1.13086   1.35316
100.0000     40.0000      230509    zatom,zion,pspd
8      11   3     4   600     0    pspcod,pspxc,lmax,lloc,mmax,r2well
5.99000000  5.00000000  0.00000000    rchrg fchrg qchrg
3     3     2     2     0    nproj
1     1           extension_switch
0                         2.4540700198423E+01  2.5588101213762E+00 -2.0903882087738E+00
1  0.0000000000000E+00 -4.9398094059683E-08  1.8104738813696E-07 -1.0393488403260E-08
2  1.0000000000000E-02  1.6704567544254E-01 -6.8526096022347E-02  3.8044021975779E-02
3  2.0000000000000E-02  3.3279918330851E-01 -1.3530373754146E-01  7.5911957624111E-02
4  3.0000000000000E-02  4.9598519561262E-01 -1.9862817725433E-01  1.1343078653320E-01
5  4.0000000000000E-02  6.5536165975854E-01 -2.5688069199904E-01  1.5043353914956E-01
6  5.0000000000000E-02  8.0973544033168E-01 -3.0856816895987E-01  1.8676212265062E-01
7  6.0000000000000E-02  9.5797680333561E-01 -3.5235871837529E-01  2.2226991528890E-01
8  7.0000000000000E-02  1.0990324180687E+00 -3.8711221200721E-01  2.5682406492645E-01
9  8.0000000000000E-02  1.2319366012361E+00 -4.1190482767720E-01  2.9030743787230E-01
10  9.0000000000000E-02  1.3558205861082E+00 -4.2604689353204E-01  3.2262017633412E-01
11  1.0000000000000E-01  1.4699196644215E+00 -4.2909356344988E-01  3.5368083631853E-01
12  1.1000000000000E-01  1.5735781178589E+00 -4.2084810832343E-01  3.8342709212821E-01
13  1.2000000000000E-01  1.6662519268156E+00 -4.0135786748027E-01  4.1181600814688E-01
14  1.3000000000000E-01  1.7475093141271E+00 -3.7090316061573E-01  4.3882389280382E-01
15  1.4000000000000E-01  1.8170292479566E+00 -3.2997970387139E-01  4.6444576291484E-01
16  1.5000000000000E-01  1.8745980886950E+00 -2.7927529512977E-01  4.8869445848966E-01
17  1.6000000000000E-01  1.9201046173049E+00 -2.1964172508671E-01  5.1159945811924E-01
18  1.7000000000000E-01  1.9535337251987E+00 -1.5206302521913E-01  5.3320545283186E-01
19  1.8000000000000E-01  1.9749590769546E+00 -7.7621275801876E-02  5.5357074154654E-01
20  1.9000000000000E-01  1.9845350759292E+00  2.5387373460975E-03  5.7276551377595E-01
21  2.0000000000000E-01  1.9824884685275E+00  8.7244711903750E-02  5.9087008496814E-01
22  2.1000000000000E-01  1.9691099154944E+00  1.7533059070947E-01  6.0797314687466E-01
23  2.2000000000000E-01  1.9447458385298E+00  2.6566770283167E-01  6.2417008975075E-01
24  2.3000000000000E-01  1.9097908187261E+00  3.5719221517862E-01  6.3956144529959E-01
25  2.4000000000000E-01  1.8646807811661E+00  4.4892798956504E-01  6.5425148943060E-01
26  2.5000000000000E-01  1.8098871492690E+00  5.4000413697135E-01  6.6834703255813E-01
27  2.6000000000000E-01  1.7459120952430E+00  6.2966678291804E-01  6.8195641283099E-01
28  2.7000000000000E-01  1.6732849516370E+00  7.1728479683011E-01  6.9518869490947E-01
29  2.8000000000000E-01  1.5925597859959E+00  8.0234948475639E-01  7.0815306426653E-01
30  2.9000000000000E-01  1.5043140785765E+00  8.8446848933047E-01  7.2095839505649E-01
31  3.0000000000000E-01  1.4091483845025E+00  9.6335437400957E-01  7.3371295890802E-01
32  3.1000000000000E-01  1.3076868090117E+00  1.0388085814378E+00  7.4652423305524E-01
33  3.2000000000000E-01  1.2005780797430E+00  1.1107016400807E+00  7.5949875944057E-01
34  3.3000000000000E-01  1.0884969651550E+00  1.1789506419810E+00  7.7274200214285E-01
35  3.4000000000000E-01  9.7214576463252E-01  1.2434951219021E+00  7.8635814893103E-01
36  3.5000000000000E-01  8.5225558461294E-01  1.3042725301200E+00  8.0044980403565E-01
37  3.6000000000000E-01  7.2958711670055E-01  1.3611945053183E+00  8.1511752336139E-01
38  3.7000000000000E-01  6.0493064823069E-01  1.4141251199058E+00  8.3045915020870E-01
39  3.8000000000000E-01  4.7910506262193E-01  1.4628621888985E+00  8.4656891888659E-01
40  3.9000000000000E-01  3.5295562512806E-01  1.5071226084242E+00  8.6353630502958E-01
41  4.0000000000000E-01  2.2735039783460E-01  1.5465325257066E+00  8.8144461452940E-01
42  4.1000000000000E-01  1.0317518410766E-01  1.5806229453721E+00  9.0036931722933E-01
43  4.2000000000000E-01 -1.8673034978016E-02  1.6088311546709E+00  9.2037614631802E-01
44  4.3000000000000E-01 -1.3729414383679E-01  1.6305081112419E+00  9.4151899908056E-01
45  4.4000000000000E-01 -2.5179431995951E-01  1.6449316905755E+00  9.6383768868308E-01
46  4.5000000000000E-01 -3.6129668546399E-01  1.6513254458211E+00  9.8735560936770E-01
47  4.6000000000000E-01 -4.6495296122524E-01  1.6488822994655E+00  1.0120773882406E+00
48  4.7000000000000E-01 -5.6195584792163E-01  1.6367923736747E+00  1.0379866052333E+00
49  4.8000000000000E-01 -6.5155181292646E-01  1.6142739819731E+00  1.0650436683809E+00
50  4.9000000000000E-01 -7.3305392732506E-01  1.5806066565852E+00  1.0931839339670E+00
51  5.0000000000000E-01 -8.0585437492660E-01  1.5351649789878E+00  1.1223161601278E+00
52  5.1000000000000E-01 -8.6943624600050E-01  1.4774519202482E+00  1.1523213781141E+00
53  5.2000000000000E-01 -9.2338423313524E-01  1.4071303850664E+00  1.1830522576312E+00
54  5.3000000000000E-01 -9.6739386511840E-01  1.3240516897796E+00  1.2143330317058E+00
55  5.4000000000000E-01 -1.0012789465772E+00  1.2282797887800E+00  1.2459600326760E+00
56  5.5000000000000E-01 -1.0249769153069E+00  1.1201101928794E+00  1.2777028746052E+00
57  5.6000000000000E-01 -1.0385518843014E+00  1.0000826925215E+00  1.3093062991981E+00
58  5.7000000000000E-01 -1.0421951996297E+00  8.6898720225165E-01  1.3404926827784E+00
59  5.8000000000000E-01 -1.0362234162762E+00  7.2786227313837E-01  1.3709651817274E+00
60  5.9000000000000E-01 -1.0210736694412E+00  5.7798606852334E-01  1.4004114736853E+00
61  6.0000000000000E-01 -9.9729649597415E-01  4.2085985655141E-01  1.4285080325009E+00
62  6.1000000000000E-01 -9.6554623690545E-01  2.5818433104261E-01  1.4549248570544E+00
63  6.2000000000000E-01 -9.2656922483113E-01  9.1829321123536E-02  1.4793305583158E+00
64  6.3000000000000E-01 -8.8119002667562E-01 -7.6202319300099E-02  1.5013976959174E+00
65  6.4000000000000E-01 -8.3029607083690E-01 -2.4381564688766E-01  1.5208082455682E+00
66  6.5000000000000E-01 -7.7482103593489E-01 -4.0886822302691E-01  1.5372590722071E+00
67  6.6000000000000E-01 -7.1572741473984E-01 -5.6921706972143E-01  1.5504672810994E+00
68  6.7000000000000E-01 -6.5398869019229E-01 -7.2276660301177E-01  1.5601753202517E+00
69  6.8000000000000E-01 -5.9057157003785E-01 -8.6751611951893E-01  1.5661557125129E+00
70  6.9000000000000E-01 -5.2641872228739E-01 -1.0016054194607E+00  1.5682153043767E+00
71  7.0000000000000E-01 -4.6243243574743E-01 -1.1233572046805E+00  1.5661989305234E+00
72  7.1000000000000E-01 -3.9945959900407E-01 -1.2313149905544E+00  1.5599924081159E+00
73  7.2000000000000E-01 -3.3827834866217E-01 -1.3242754123106E+00  1.5495247922905E+00
74  7.3000000000000E-01 -2.7958668491477E-01 -1.4013139840388E+00  1.5347698435846E+00
75  7.4000000000000E-01 -2.2399329152348E-01 -1.4618035761205E+00  1.5157466785603E+00
76  7.5000000000000E-01 -1.7201073015970E-01 -1.5054251066133E+00  1.4925195959602E+00
77  7.6000000000000E-01 -1.2405110807873E-01 -1.5321701863030E+00  1.4651970916852E+00
78  7.7000000000000E-01 -8.0424245630844E-02 -1.5423357074026E+00  1.4339300960534E+00
79  7.8000000000000E-01 -4.1338298505415E-02 -1.5365106138744E+00  1.3989094855878E+00
80  7.9000000000000E-01 -6.9027211085275E-03 -1.5155553290097E+00  1.3603629384215E+00
81  8.0000000000000E-01  2.2866605831805E-02 -1.4805745356857E+00  1.3185512168624E+00
82  8.1000000000000E-01  4.8040316620246E-02 -1.4328841999111E+00  1.2737639723520E+00
83  8.2000000000000E-01  6.8766851805638E-02 -1.3739738930963E+00  1.2263151767367E+00
84  8.3000000000000E-01  8.5262418084826E-02 -1.3054655983855E+00  1.1765382893096E+00
85  8.4000000000000E-01  9.7799963049259E-02 -1.2290702780049E+00  1.1247812714522E+00
86  8.5000000000000E-01  1.0669752714695E-01 -1.1465435299036E+00  1.0714015600047E+00
87  8.6000000000000E-01  1.1230634024981E-01 -1.0596416722686E+00  1.0167611068980E+00
88  8.7000000000000E-01  1.1499902425686E-01 -9.7007956427391E-01  9.6122158638182E-01
89  8.8000000000000E-01  1.1515824676570E-01 -8.7949140232965E-01  9.0513986272062E-01
90  8.9000000000000E-01  1.1316614479954E-01 -7.8939562572264E-01  8.4886380090403E-01
91  9.0000000000000E-01  1.0939480287649E-01 -7.0116492726210E-01  7.9272849115573E-01
92  9.1000000000000E-01  1.0419802747910E-01 -6.1600219730257E-01  7.3705294526242E-01
93  9.2000000000000E-01  9.7904611423496E-02 -5.3492303757869E-01  6.8213730939461E-01
94  9.3000000000000E-01  9.0813227918843E-02 -4.5874526895463E-01  6.2826062453233E-01
95  9.4000000000000E-01  8.3189036385006E-02 -3.8808562869590E-01  5.7567915216434E-01
96  9.5000000000000E-01  7.5262021335226E-02 -3.2336361196749E-01  5.2462526983918E-01
97  9.6000000000000E-01  6.7227022632000E-02 -2.6481216216246E-01  4.7530692856694E-01
98  9.7000000000000E-01  5.9245350764370E-02 -2.1249465787360E-01  4.2790765205591E-01
99  9.8000000000000E-01  5.1447814745750E-02 -1.6632738231127E-01  3.8258704626294E-01
100  9.9000000000000E-01  4.3938922800778E-02 -1.2610639434802E-01  3.3948177657836E-01
101  1.0000000000000E+00  3.6801946876857E-02 -9.1537448611604E-02  2.9870695888262E-01
102  1.0100000000000E+00  3.0104470591680E-02 -6.2267333709021E-02  2.6035789933336E-01
103  1.0200000000000E+00  2.3903965512264E-02 -3.7914709827176E-02  2.2451210558416E-01
104  1.0300000000000E+00  1.8252861504494E-02 -1.8098226220609E-02  1.9123147865350E-01
105  1.0400000000000E+00  1.3202491876212E-02 -2.4593810509393E-03  1.6056457923525E-01
106  1.0500000000000E+00  8.8052013544825E-03  9.3227551473484E-03  1.3254884416398E-01
107  1.0600000000000E+00  5.1138027734067E-03  1.7528201289758E-02  1.0721260729139E-01
108  1.0700000000000E+00  2.1774549497335E-03  2.2407766729030E-02  8.4576753508186E-02
109  1.0800000000000E+00  3.2849824759620E-05  2.4214072457420E-02  6.4655759050934E-02
110  1.0900000000000E+00 -1.3100042902506E-03  2.3254986668582E-02  4.7458259763633E-02
111  1.1000000000000E+00 -1.9135536620465E-03  2.0053094628577E-02  3.2966295193747E-02
112  1.1100000000000E+00 -1.9469419418844E-03  1.5479420502400E-02  2.1126174186230E-02
113  1.1200000000000E+00 -1.5536160148508E-03  1.0316846758361E-02  1.1959036600915E-02
114  1.1300000000000E+00 -9.3361500418218E-04  5.4356555291322E-03  5.4423174363999E-03
115  1.1400000000000E+00 -3.2494585125494E-04  1.7076286422355E-03  1.4968411337749E-03
116  1.1500000000000E+00 -1.1078214930169E-05  5.3211004556022E-05  4.0899771324751E-05
117  1.1600000000000E+00 -1.7125827184866E-06  8.3350781536583E-06  6.5065772372822E-06
118  1.1700000000000E+00  2.7473100707459E-07 -1.3848013673160E-06 -1.1426873700729E-06
119  1.18  0.  0.  0.
120  1.19  0.  0.  0.
121  1.20  0.  0.  0.
122  1.21  0.  0.  0.
123  1.22  0.  0.  0.
124  1.23  0.  0.  0.
125  1.24  0.  0.  0.
126  1.25  0.  0.  0.
127  1.26  0.  0.  0.
128  1.27  0.  0.  0.
129  1.28  0.  0.  0.
130  1.29  0.  0.  0.
131  1.30  0.  0.  0.
132  1.31  0.  0.  0.
133  1.32  0.  0.  0.
134  1.33  0.  0.  0.
135  1.34  0.  0.  0.
136  1.35  0.  0.  0.
137  1.36  0.  0.  0.
138  1.37  0.  0.  0.
139  1.38  0.  0.  0.
140  1.39  0.  0.  0.
141  1.40  0.  0.  0.
142  1.41  0.  0.  0.
143  1.42  0.  0.  0.
144  1.43  0.  0.  0.
145  1.44  0.  0.  0.
146  1.45  0.  0.  0.
147  1.46  0.  0.  0.
148  1.47  0.  0.  0.
149  1.48  0.  0.  0.
150  1.49  0.  0.  0.
151  1.50  0.  0.  0.
152  1.51  0.  0.  0.
153  1.52  0.  0.  0.
154  1.53  0.  0.  0.
155  1.54  0.  0.  0.
156  1.55  0.  0.  0.
157  1.56  0.  0.  0.
158  1.57  0.  0.  0.
159  1.58  0.  0.  0.
160  1.59  0.  0.  0.
161  1.60  0.  0.  0.
162  1.61  0.  0.  0.
163  1.62  0.  0.  0.
164  1.63  0.  0.  0.
165  1.64  0.  0.  0.
166  1.65  0.  0.  0.
167  1.66  0.  0.  0.
168  1.67  0.  0.  0.
169  1.68  0.  0.  0.
170  1.69  0.  0.  0.
171  1.70  0.  0.  0.
172  1.71  0.  0.  0.
173  1.72  0.  0.  0.
174  1.73  0.  0.  0.
175  1.74  0.  0.  0.
176  1.75  0.  0.  0.
177  1.76  0.  0.  0.
178  1.77  0.  0.  0.
179  1.78  0.  0.  0.
180  1.79  0.  0.  0.
181  1.80  0.  0.  0.
182  1.81  0.  0.  0.
183  1.82  0.  0.  0.
184  1.83  0.  0.  0.
185  1.84  0.  0.  0.
186  1.85  0.  0.  0.
187  1.86  0.  0.  0.
188  1.87  0.  0.  0.
189  1.88  0.  0.  0.
190  1.89  0.  0.  0.
191  1.90  0.  0.  0.
192  1.91  0.  0.  0.
193  1.92  0.  0.  0.
194  1.93  0.  0.  0.
195  1.94  0.  0.  0.
196  1.95  0.  0.  0.
197  1.96  0.  0.  0.
198  1.97  0.  0.  0.
199  1.98  0.  0.  0.
200  1.99  0.  0.  0.
201  2.00  0.  0.  0.
202  2.01  0.  0.  0.
203  2.02  0.  0.  0.
204  2.03  0.  0.  0.
205  2.04  0.  0.  0.
206  2.05  0.  0.  0.
207  2.06  0.  0.  0.
208  2.07  0.  0.  0.
209  2.08  0.  0.  0.
210  2.09  0.  0.  0.
211  2.10  0.  0.  0.
212  2.11  0.  0.  0.
213  2.12  0.  0.  0.
214  2.13  0.  0.  0.
215  2.14  0.  0.  0.
216  2.15  0.  0.  0.
217  2.16  0.  0.  0.
218  2.17  0.  0.  0.
219  2.18  0.  0.  0.
220  2.19  0.  0.  0.
221  2.20  0.  0.  0.
222  2.21  0.  0.  0.
223  2.22  0.  0.  0.
224  2.23  0.  0.  0.
225  2.24  0.  0.  0.
226  2.25  0.  0.  0.
227  2.26  0.  0.  0.
228  2.27  0.  0.  0.
229  2.28  0.  0.  0.
230  2.29  0.  0.  0.
231  2.30  0.  0.  0.
232  2.31  0.  0.  0.
233  2.32  0.  0.  0.
234  2.33  0.  0.  0.
235  2.34  0.  0.  0.
236  2.35  0.  0.  0.
237  2.36  0.  0.  0.
238  2.37  0.  0.  0.
239  2.38  0.  0.  0.
240  2.39  0.  0.  0.
241  2.40  0.  0.  0.
242  2.41  0.  0.  0.
243  2.42  0.  0.  0.
244  2.43  0.  0.  0.
245  2.44  0.  0.  0.
246  2.45  0.  0.  0.
247  2.46  0.  0.  0.
248  2.47  0.  0.  0.
249  2.48  0.  0.  0.
250  2.49  0.  0.  0.
251  2.50  0.  0.  0.
252  2.51  0.  0.  0.
253  2.52  0.  0.  0.
254  2.53  0.  0.  0.
255  2.54  0.  0.  0.
256  2.55  0.  0.  0.
257  2.56  0.  0.  0.
258  2.57  0.  0.  0.
259  2.58  0.  0.  0.
260  2.59  0.  0.  0.
261  2.60  0.  0.  0.
262  2.61  0.  0.  0.
263  2.62  0.  0.  0.
264  2.63  0.  0.  0.
265  2.64  0.  0.  0.
266  2.65  0.  0.  0.
267  2.66  0.  0.  0.
268  2.67  0.  0.  0.
269  2.68  0.  0.  0.
270  2.69  0.  0.  0.
271  2.70  0.  0.  0.
272  2.71  0.  0.  0.
273  2.72  0.  0.  0.
274  2.73  0.  0.  0.
275  2.74  0.  0.  0.
276  2.75  0.  0.  0.
277  2.76  0.  0.  0.
278  2.77  0.  0.  0.
279  2.78  0.  0.  0.
280  2.79  0.  0.  0.
281  2.80  0.  0.  0.
282  2.81  0.  0.  0.
283  2.82  0.  0.  0.
284  2.83  0.  0.  0.
285  2.84  0.  0.  0.
286  2.85  0.  0.  0.
287  2.86  0.  0.  0.
288  2.87  0.  0.  0.
289  2.88  0.  0.  0.
290  2.89  0.  0.  0.
291  2.90  0.  0.  0.
292  2.91  0.  0.  0.
293  2.92  0.  0.  0.
294  2.93  0.  0.  0.
295  2.94  0.  0.  0.
296  2.95  0.  0.  0.
297  2.96  0.  0.  0.
298  2.97  0.  0.  0.
299  2.98  0.  0.  0.
300  2.99  0.  0.  0.
301  3.00  0.  0.  0.
302  3.01  0.  0.  0.
303  3.02  0.  0.  0.
304  3.03  0.  0.  0.
305  3.04  0.  0.  0.
306  3.05  0.  0.  0.
307  3.06  0.  0.  0.
308  3.07  0.  0.  0.
309  3.08  0.  0.  0.
310  3.09  0.  0.  0.
311  3.10  0.  0.  0.
312  3.11  0.  0.  0.
313  3.12  0.  0.  0.
314  3.13  0.  0.  0.
315  3.14  0.  0.  0.
316  3.15  0.  0.  0.
317  3.16  0.  0.  0.
318  3.17  0.  0.  0.
319  3.18  0.  0.  0.
320  3.19  0.  0.  0.
321  3.20  0.  0.  0.
322  3.21  0.  0.  0.
323  3.22  0.  0.  0.
324  3.23  0.  0.  0.
325  3.24  0.  0.  0.
326  3.25  0.  0.  0.
327  3.26  0.  0.  0.
328  3.27  0.  0.  0.
329  3.28  0.  0.  0.
330  3.29  0.  0.  0.
331  3.30  0.  0.  0.
332  3.31  0.  0.  0.
333  3.32  0.  0.  0.
334  3.33  0.  0.  0.
335  3.34  0.  0.  0.
336  3.35  0.  0.  0.
337  3.36  0.  0.  0.
338  3.37  0.  0.  0.
339  3.38  0.  0.  0.
340  3.39  0.  0.  0.
341  3.40  0.  0.  0.
342  3.41  0.  0.  0.
343  3.42  0.  0.  0.
344  3.43  0.  0.  0.
345  3.44  0.  0.  0.
346  3.45  0.  0.  0.
347  3.46  0.  0.  0.
348  3.47  0.  0.  0.
349  3.48  0.  0.  0.
350  3.49  0.  0.  0.
351  3.50  0.  0.  0.
352  3.51  0.  0.  0.
353  3.52  0.  0.  0.
354  3.53  0.  0.  0.
355  3.54  0.  0.  0.
356  3.55  0.  0.  0.
357  3.56  0.  0.  0.
358  3.57  0.  0.  0.
359  3.58  0.  0.  0.
360  3.59  0.  0.  0.
361  3.60  0.  0.  0.
362  3.61  0.  0.  0.
363  3.62  0.  0.  0.
364  3.63  0.  0.  0.
365  3.64  0.  0.  0.
366  3.65  0.  0.  0.
367  3.66  0.  0.  0.
368  3.67  0.  0.  0.
369  3.68  0.  0.  0.
370  3.69  0.  0.  0.
371  3.70  0.  0.  0.
372  3.71  0.  0.  0.
373  3.72  0.  0.  0.
374  3.73  0.  0.  0.
375  3.74  0.  0.  0.
376  3.75  0.  0.  0.
377  3.76  0.  0.  0.
378  3.77  0.  0.  0.
379  3.78  0.  0.  0.
380  3.79  0.  0.  0.
381  3.80  0.  0.  0.
382  3.81  0.  0.  0.
383  3.82  0.  0.  0.
384  3.83  0.  0.  0.
385  3.84  0.  0.  0.
386  3.85  0.  0.  0.
387  3.86  0.  0.  0.
388  3.87  0.  0.  0.
389  3.88  0.  0.  0.
390  3.89  0.  0.  0.
391  3.90  0.  0.  0.
392  3.91  0.  0.  0.
393  3.92  0.  0.  0.
394  3.93  0.  0.  0.
395  3.94  0.  0.  0.
396  3.95  0.  0.  0.
397  3.96  0.  0.  0.
398  3.97  0.  0.  0.
399  3.98  0.  0.  0.
400  3.99  0.  0.  0.
401  4.00  0.  0.  0.
402  4.01  0.  0.  0.
403  4.02  0.  0.  0.
404  4.03  0.  0.  0.
405  4.04  0.  0.  0.
406  4.05  0.  0.  0.
407  4.06  0.  0.  0.
408  4.07  0.  0.  0.
409  4.08  0.  0.  0.
410  4.09  0.  0.  0.
411  4.10  0.  0.  0.
412  4.11  0.  0.  0.
413  4.12  0.  0.  0.
414  4.13  0.  0.  0.
415  4.14  0.  0.  0.
416  4.15  0.  0.  0.
417  4.16  0.  0.  0.
418  4.17  0.  0.  0.
419  4.18  0.  0.  0.
420  4.19  0.  0.  0.
421  4.20  0.  0.  0.
422  4.21  0.  0.  0.
423  4.22  0.  0.  0.
424  4.23  0.  0.  0.
425  4.24  0.  0.  0.
426  4.25  0.  0.  0.
427  4.26  0.  0.  0.
428  4.27  0.  0.  0.
429  4.28  0.  0.  0.
430  4.29  0.  0.  0.
431  4.30  0.  0.  0.
432  4.31  0.  0.  0.
433  4.32  0.  0.  0.
434  4.33  0.  0.  0.
435  4.34  0.  0.  0.
436  4.35  0.  0.  0.
437  4.36  0.  0.  0.
438  4.37  0.  0.  0.
439  4.38  0.  0.  0.
440  4.39  0.  0.  0.
441  4.40  0.  0.  0.
442  4.41  0.  0.  0.
443  4.42  0.  0.  0.
444  4.43  0.  0.  0.
445  4.44  0.  0.  0.
446  4.45  0.  0.  0.
447  4.46  0.  0.  0.
448  4.47  0.  0.  0.
449  4.48  0.  0.  0.
450  4.49  0.  0.  0.
451  4.50  0.  0.  0.
452  4.51  0.  0.  0.
453  4.52  0.  0.  0.
454  4.53  0.  0.  0.
455  4.54  0.  0.  0.
456  4.55  0.  0.  0.
457  4.56  0.  0.  0.
458  4.57  0.  0.  0.
459  4.58  0.  0.  0.
460  4.59  0.  0.  0.
461  4.60  0.  0.  0.
462  4.61  0.  0.  0.
463  4.62  0.  0.  0.
464  4.63  0.  0.  0.
465  4.64  0.  0.  0.
466  4.65  0.  0.  0.
467  4.66  0.  0.  0.
468  4.67  0.  0.  0.
469  4.68  0.  0.  0.
470  4.69  0.  0.  0.
471  4.70  0.  0.  0.
472  4.71  0.  0.  0.
473  4.72  0.  0.  0.
474  4.73  0.  0.  0.
475  4.74  0.  0.  0.
476  4.75  0.  0.  0.
477  4.76  0.  0.  0.
478  4.77  0.  0.  0.
479  4.78  0.  0.  0.
480  4.79  0.  0.  0.
481  4.80  0.  0.  0.
482  4.81  0.  0.  0.
483  4.82  0.  0.  0.
484  4.83  0.  0.  0.
485  4.84  0.  0.  0.
486  4.85  0.  0.  0.
487  4.86  0.  0.  0.
488  4.87  0.  0.  0.
489  4.88  0.  0.  0.
490  4.89  0.  0.  0.
491  4.90  0.  0.  0.
492  4.91  0.  0.  0.
493  4.92  0.  0.  0.
494  4.93  0.  0.  0.
495  4.94  0.  0.  0.
496  4.95  0.  0.  0.
497  4.96  0.  0.  0.
498  4.97  0.  0.  0.
499  4.98  0.  0.  0.
500  4.99  0.  0.  0.
501  5.00  0.  0.  0.
502  5.01  0.  0.  0.
503  5.02  0.  0.  0.
504  5.03  0.  0.  0.
505  5.04  0.  0.  0.
506  5.05  0.  0.  0.
507  5.06  0.  0.  0.
508  5.07  0.  0.  0.
509  5.08  0.  0.  0.
510  5.09  0.  0.  0.
511  5.10  0.  0.  0.
512  5.11  0.  0.  0.
513  5.12  0.  0.  0.
514  5.13  0.  0.  0.
515  5.14  0.  0.  0.
516  5.15  0.  0.  0.
517  5.16  0.  0.  0.
518  5.17  0.  0.  0.
519  5.18  0.  0.  0.
520  5.19  0.  0.  0.
521  5.20  0.  0.  0.
522  5.21  0.  0.  0.
523  5.22  0.  0.  0.
524  5.23  0.  0.  0.
525  5.24  0.  0.  0.
526  5.25  0.  0.  0.
527  5.26  0.  0.  0.
528  5.27  0.  0.  0.
529  5.28  0.  0.  0.
530  5.29  0.  0.  0.
531  5.30  0.  0.  0.
532  5.31  0.  0.  0.
533  5.32  0.  0.  0.
534  5.33  0.  0.  0.
535  5.34  0.  0.  0.
536  5.35  0.  0.  0.
537  5.36  0.  0.  0.
538  5.37  0.  0.  0.
539  5.38  0.  0.  0.
540  5.39  0.  0.  0.
541  5.40  0.  0.  0.
542  5.41  0.  0.  0.
543  5.42  0.  0.  0.
544  5.43  0.  0.  0.
545  5.44  0.  0.  0.
546  5.45  0.  0.  0.
547  5.46  0.  0.  0.
548  5.47  0.  0.  0.
549  5.48  0.  0.  0.
550  5.49  0.  0.  0.
551  5.50  0.  0.  0.
552  5.51  0.  0.  0.
553  5.52  0.  0.  0.
554  5.53  0.  0.  0.
555  5.54  0.  0.  0.
556  5.55  0.  0.  0.
557  5.56  0.  0.  0.
558  5.57  0.  0.  0.
559  5.58  0.  0.  0.
560  5.59  0.  0.  0.
561  5.60  0.  0.  0.
562  5.61  0.  0.  0.
563  5.62  0.  0.  0.
564  5.63  0.  0.  0.
565  5.64  0.  0.  0.
566  5.65  0.  0.  0.
567  5.66  0.  0.  0.
568  5.67  0.  0.  0.
569  5.68  0.  0.  0.
570  5.69  0.  0.  0.
571  5.70  0.  0.  0.
572  5.71  0.  0.  0.
573  5.72  0.  0.  0.
574  5.73  0.  0.  0.
575  5.74  0.  0.  0.
576  5.75  0.  0.  0.
577  5.76  0.  0.  0.
578  5.77  0.  0.  0.
579  5.78  0.  0.  0.
580  5.79  0.  0.  0.
581  5.80  0.  0.  0.
582  5.81  0.  0.  0.
583  5.82  0.  0.  0.
584  5.83  0.  0.  0.
585  5.84  0.  0.  0.
586  5.85  0.  0.  0.
587  5.86  0.  0.  0.
588  5.87  0.  0.  0.
589  5.88  0.  0.  0.
590  5.89  0.  0.  0.
591  5.90  0.  0.  0.
592  5.91  0.  0.  0.
593  5.92  0.  0.  0.
594  5.93  0.  0.  0.
595  5.94  0.  0.  0.
596  5.95  0.  0.  0.
597  5.96  0.  0.  0.
598  5.97  0.  0.  0.
599  5.98  0.  0.  0.
600  5.99  0.  0.  0.
1                         1.6980776518760E+01  2.9144633728146E+00 -1.9116041104686E+00
1  0.0000000000000E+00  1.0583887378735E-06  1.8307137626961E-06  2.3191563242042E-07
2  1.0000000000000E-02  1.2176039731288E-02  1.1538817883394E-02  2.3185921458783E-03
3  2.0000000000000E-02  4.8282115668894E-02  4.5514003153382E-02  9.1928320364976E-03
4  3.0000000000000E-02  1.0706998684135E-01  1.0003207529390E-01  2.0381930694106E-02
5  4.0000000000000E-02  1.8651807354100E-01  1.7203691728609E-01  3.5497130778262E-02
6  5.0000000000000E-02  2.8391690108176E-01  2.5745447145461E-01  5.4019928500060E-02
7  6.0000000000000E-02  3.9598327378071E-01  3.5138588106433E-01  7.5326384433466E-02
8  7.0000000000000E-02  5.1899803133119E-01  4.4834016478418E-01  9.8716390056909E-02
9  8.0000000000000E-02  6.4896118134618E-01  5.4249568042059E-01  1.2344652494267E-01
10  9.0000000000000E-02  7.8175742666673E-01  6.2797829524199E-01  1.4876497063012E-01
11  1.0000000000000E-01  9.1332464943224E-01  6.9914339427777E-01  1.7394684920751E-01
12  1.1000000000000E-01  1.0398177967602E+00  7.5084866152368E-01  1.9832833207114E-01
13  1.2000000000000E-01  1.1577608405428E+00  7.7870497149018E-01  2.2133791834710E-01
14  1.3000000000000E-01  1.2641800459432E+00  7.7929371212915E-01  2.4252341064345E-01
15  1.4000000000000E-01  1.3567126540126E+00  7.5034038053023E-01  2.6157331233640E-01
16  1.5000000000000E-01  1.4336862236415E+00  6.9083628097256E-01  2.7833162650963E-01
17  1.6000000000000E-01  1.4941652347130E+00  6.0110252066585E-01  2.9280534025371E-01
18  1.7000000000000E-01  1.5379630657846E+00  4.8279313420119E-01  3.0516421537320E-01
19  1.8000000000000E-01  1.5656190566973E+00  3.3883695328072E-01  3.1573286214830E-01
20  1.9000000000000E-01  1.5783419760775E+00  1.7332064669206E-01  3.2497543030379E-01
21  2.0000000000000E-01  1.5779227619480E+00 -8.6819415262635E-03  3.3347359427801E-01
22  2.1000000000000E-01  1.5666208195848E+00 -2.0132655380677E-01  3.4189882243446E-01
23  2.2000000000000E-01  1.5470293792921E+00 -3.9825164710677E-01  3.5098018755948E-01
24  2.3000000000000E-01  1.5219263818399E+00 -5.9285646231490E-01  3.6146918642344E-01
25  2.4000000000000E-01  1.4941180264086E+00 -7.7859143675077E-01  3.7410317953958E-01
26  2.5000000000000E-01  1.4662824540810E+00 -9.4924776077663E-01  3.8956913179299E-01
27  2.6000000000000E-01  1.4408210333488E+00 -1.0992328797488E+00  4.0846932697290E-01
28  2.7000000000000E-01  1.4197243626497E+00 -1.2238193446950E+00  4.3129064460682E-01
29  2.8000000000000E-01  1.4044594243622E+00 -1.3193555927597E+00  4.5837882959200E-01
30  2.9000000000000E-01  1.3958833457853E+00 -1.3834289388874E+00  4.8991896104989E-01
31  3.0000000000000E-01  1.3941879899924E+00 -1.4149732067652E+00  5.2592304675355E-01
32  3.1000000000000E-01  1.3988781693447E+00 -1.4143159226186E+00  5.6622534615097E-01
33  3.2000000000000E-01  1.4087847122961E+00 -1.3831627268952E+00  6.1048567319949E-01
34  3.3000000000000E-01  1.4221119914827E+00 -1.3245195021397E+00  6.5820056604392E-01
35  3.4000000000000E-01  1.4365179124206E+00 -1.2425555411562E+00  7.0872185071769E-01
36  3.5000000000000E-01  1.4492228413476E+00 -1.1424137592167E+00  7.6128178705908E-01
37  3.6000000000000E-01  1.4571425878236E+00 -1.0299763655337E+00  8.1502368251168E-01
38  3.7000000000000E-01  1.4570394154838E+00 -9.1159644244962E-01  8.6903660737009E-01
39  3.8000000000000E-01  1.4456841856160E+00 -7.9380744303385E-01  9.2239265498403E-01
40  3.9000000000000E-01  1.4200221832919E+00 -6.8302363762491E-01  9.7418507125429E-01
41  4.0000000000000E-01  1.3773349605873E+00 -5.8524497066350E-01  1.0235655349941E+00
42  4.1000000000000E-01  1.3153906663427E+00 -5.0577961112877E-01  1.0697789064340E+00
43  4.2000000000000E-01  1.2325758112769E+00 -4.4899670103576E-01  1.1121938737401E+00
44  4.3000000000000E-01  1.1280022195764E+00 -4.1812046217926E-01  1.1503281117861E+00
45  4.4000000000000E-01  1.0015840070260E+00 -4.1507497288593E-01  1.1838668151340E+00
46  4.5000000000000E-01  8.5408075183876E-01 -4.4038665816199E-01  1.2126737668952E+00
47  4.6000000000000E-01  6.8710452718831E-01 -4.9314895170337E-01  1.2367944431052E+00
48  4.7000000000000E-01  5.0309007558534E-01 -5.7105080445279E-01  1.2564510129367E+00
49  4.8000000000000E-01  3.0522905120399E-01 -6.7046785844863E-01  1.2720294619428E+00
50  4.9000000000000E-01  9.7370862083198E-02 -7.8661230638347E-01  1.2840594217165E+00
51  5.0000000000000E-01 -1.1610586329816E-01 -9.1373484349355E-01  1.2931876185423E+00
52  5.1000000000000E-01 -3.3044584904743E-01 -1.0453698073479E+00  1.3001461407428E+00
53  5.2000000000000E-01 -5.4068737736022E-01 -1.1746126968361E+00  1.3057169563553E+00
54  5.3000000000000E-01 -7.4184293696055E-01 -1.2944178493512E+00  1.3106942790068E+00
55  5.4000000000000E-01 -9.2908266604360E-01 -1.3979031970912E+00  1.3158464728916E+00
56  5.5000000000000E-01 -1.0979128258597E+00 -1.4786487563484E+00  1.3218792035445E+00
57  5.6000000000000E-01 -1.2443417731351E+00 -1.5309758369829E+00  1.3294014791603E+00
58  5.7000000000000E-01 -1.3650264671566E+00 -1.5501948748865E+00  1.3388960906661E+00
59  5.8000000000000E-01 -1.4573934231959E+00 -1.5328112432885E+00  1.3506957541973E+00
60  5.9000000000000E-01 -1.5197291666099E+00 -1.4766803199270E+00  1.3649659967705E+00
61  6.0000000000000E-01 -1.5512365979228E+00 -1.3811053859859E+00  1.3816955171866E+00
62  6.1000000000000E-01 -1.5520551854047E+00 -1.2468745019242E+00  1.4006944140050E+00
63  6.2000000000000E-01 -1.5232444885064E+00 -1.0762352258912E+00  1.4216003166734E+00
64  6.3000000000000E-01 -1.4667321100722E+00 -8.7280878703627E-01  1.4438921010983E+00
65  6.4000000000000E-01 -1.3852287048089E+00 -6.4144797328152E-01  1.4669105334620E+00
66  6.5000000000000E-01 -1.2821140668332E+00 -3.8804542106409E-01  1.4898848814143E+00
67  6.6000000000000E-01 -1.1612995178553E+00 -1.1930109450141E-01  1.5119642737177E+00
68  6.7000000000000E-01 -1.0270727669618E+00  1.5754057914387E-01  1.5322523895544E+00
69  6.8000000000000E-01 -8.8393207239290E-01  4.3497226404738E-01  1.5498439257524E+00
70  6.9000000000000E-01 -7.3641687842669E-01  7.0551166116205E-01  1.5638612296809E+00
71  7.0000000000000E-01 -5.8894211482398E-01  9.6198346329901E-01  1.5734894995723E+00
72  7.1000000000000E-01 -4.4564303610207E-01  1.1977834172944E+00  1.5780090410755E+00
73  7.2000000000000E-01 -3.1023686207784E-01  1.4071135993219E+00  1.5768232240729E+00
74  7.3000000000000E-01 -1.8590659289102E-01  1.5851794939296E+00  1.5694809990803E+00
75  7.4000000000000E-01 -7.5211256459705E-02  1.7283413519877E+00  1.5556930971120E+00
76  7.5000000000000E-01  1.9974440333832E-02  1.8342144937294E+00  1.5353413376529E+00
77  7.6000000000000E-01  9.8489480480125E-02  1.9017156135719E+00  1.5084807917078E+00
78  7.7000000000000E-01  1.5988478583745E-01  1.9310546190320E+00  1.4753348753243E+00
79  7.8000000000000E-01  2.0439161599654E-01  1.9236739799532E+00  1.4362837679305E+00
80  7.9000000000000E-01  2.3286270363353E-01  1.8821398628519E+00  1.3918468443393E+00
81  8.0000000000000E-01  2.4668987699714E-01  1.8099913739959E+00  1.3426600658131E+00
82  8.1000000000000E-01  2.4770287927202E-01  1.7115559427418E+00  1.2894494825904E+00
83  8.2000000000000E-01  2.3805480747687E-01  1.5917401706073E+00  1.2330021487542E+00
84  8.3000000000000E-01  2.2010003159962E-01  1.4558062995353E+00  1.1741358342298E+00
85  8.4000000000000E-01  1.9627060291294E-01  1.3091447860729E+00  1.1136689352093E+00
86  8.5000000000000E-01  1.6895701827713E-01  1.1570533023858E+00  1.0523919339056E+00
87  8.6000000000000E-01  1.4039878820183E-01  1.0045318397904E+00  9.9104164497203E-01
88  8.7000000000000E-01  1.1258958722749E-01  8.5610250819391E-01  9.3027931595420E-01
89  8.8000000000000E-01  8.7200884186206E-02  7.1566116801719E-01  8.7067343215752E-01
90  8.9000000000000E-01  6.5526905075342E-02  5.8636627909326E-01  8.1268782387984E-01
91  9.0000000000000E-01  4.8452627582987E-02  4.7056839534579E-01  7.5667539914532E-01
92  9.1000000000000E-01  3.6445302881702E-02  3.6978167409129E-01  7.0287754184312E-01
93  9.2000000000000E-01  2.9568807367942E-02  2.8469670637676E-01  6.5142893762189E-01
94  9.3000000000000E-01  2.7519002665161E-02  2.1523200867715E-01  6.0236733152858E-01
95  9.4000000000000E-01  2.9677279915198E-02  1.6061973818286E-01  5.5564749454698E-01
96  9.5000000000000E-01  3.5178629663528E-02  1.1951968248624E-01  5.1115849128361E-01
97  9.6000000000000E-01  4.2989947428153E-02  9.0154392692558E-02  4.6874320615786E-01
98  9.7000000000000E-01  5.1993881574681E-02  7.0457520485949E-02  4.2821900588203E-01
99  9.8000000000000E-01  6.1073365736246E-02  5.8227006532861E-02  3.8939839402390E-01