Fm    ONCVPSP-4.0.1  r_core=   1.15134   1.15134   1.13086   1.35316
100.0000     40.0000      230509    zatom,zion,pspd
8      11   3     4   600     0    pspcod,pspxc,lmax,lloc,mmax,r2well
5.99000000  5.00000000  0.00000000    rchrg fchrg qchrg
3     3     3     2    nproj
3     1           extension_switch
4     3     3    nprojso
0                         2.4742145493537E+01  2.5850652231301E+00 -2.0459335717019E+00
1  0.0000000000000E+00 -5.1411200852058E-08  1.8766224080258E-07 -1.0697372876400E-08
2  1.0000000000000E-02  1.6705401043187E-01 -6.9314851817074E-02  3.7799898617557E-02
3  2.0000000000000E-02  3.3281300661243E-01 -1.3685653012998E-01  7.5421167804031E-02
4  3.0000000000000E-02  4.9599907983564E-01 -2.0089657906968E-01  1.1268830009181E-01
5  4.0000000000000E-02  6.5536811573924E-01 -2.5979454437684E-01  1.4943194912245E-01
6  5.0000000000000E-02  8.0972566375249E-01 -3.1203844167883E-01  1.8549180611872E-01
7  6.0000000000000E-02  9.5794161234597E-01 -3.5628112835446E-01  2.2071923963345E-01
8  7.0000000000000E-02  1.0989633355729E+00 -3.9137144550907E-01  2.5497963294444E-01
9  8.0000000000000E-02  1.2318270278024E+00 -4.1637918424472E-01  2.8815436416237E-01
10  9.0000000000000E-02  1.3556670041147E+00 -4.3061315149826E-01  3.2014238666861E-01
11  1.0000000000000E-01  1.4697228113073E+00 -4.3363185699227E-01  3.5086138140525E-01
12  1.1000000000000E-01  1.5733440663307E+00 -4.2524660512963E-01  3.8024846724763E-01
13  1.2000000000000E-01  1.6659930125850E+00 -4.0551704420232E-01  4.0826047062000E-01
14  1.3000000000000E-01  1.7472448571288E+00 -3.7473949009689E-01  4.3487377007681E-01
15  1.4000000000000E-01  1.8167860208102E+00 -3.3342859294244E-01  4.6008374519481E-01
16  1.5000000000000E-01  1.8744104961059E+00 -2.8229314356186E-01  4.8390387127134E-01
17  1.6000000000000E-01  1.9200145617599E+00 -2.2220701373089E-01  5.0636451153208E-01
18  1.7000000000000E-01  1.9535901472058E+00 -1.5417638289009E-01  5.2751146642749E-01
19  1.8000000000000E-01  1.9752171716820E+00 -7.9304518328249E-02  5.4740434484866E-01
20  1.9000000000000E-01  1.9850552018440E+00  1.2445581260410E-03  5.6611482453686E-01
21  2.0000000000000E-01  1.9833347769454E+00  8.6282168455943E-02  5.8372486853052E-01
22  2.1000000000000E-01  1.9703487422691E+00  1.7462952892936E-01  6.0032496124075E-01
23  2.2000000000000E-01  1.9464439099057E+00  2.6514952464327E-01  6.1601242184407E-01
24  2.3000000000000E-01  1.9120133321973E+00  3.5677461083898E-01  6.3088984440920E-01
25  2.4000000000000E-01  1.8674894286323E+00  4.4852991512490E-01  6.4506370391635E-01
26  2.5000000000000E-01  1.8133381535815E+00  5.3955082011878E-01  6.5864315554848E-01
27  2.6000000000000E-01  1.7500543321959E+00  6.2909453734403E-01  6.7173904186386E-01
28  2.7000000000000E-01  1.6781582275316E+00  7.1654543146329E-01  6.8446310927687E-01
29  2.8000000000000E-01  1.5981933361364E+00  8.0141410952532E-01  6.9692742226893E-01
30  2.9000000000000E-01  1.5107253446173E+00  8.8333054291985E-01  7.0924395151865E-01
31  3.0000000000000E-01  1.4163421187518E+00  9.6203173043101E-01  7.2152430123631E-01
32  3.1000000000000E-01  1.3156545419798E+00  1.0373446298559E+00  7.3387953192288E-01
33  3.2000000000000E-01  1.2092979738822E+00  1.1091652746687E+00  7.4642002797852E-01
34  3.3000000000000E-01  1.0979340633992E+00  1.1774351438820E+00  7.5925535540025E-01
35  3.4000000000000E-01  9.8225262759023E-01  1.2421159617334E+00  7.7249405346336E-01
36  3.5000000000000E-01  8.6297329569478E-01  1.3031641649549E+00  7.8624330588661E-01
37  3.6000000000000E-01  7.4084662066064E-01  1.3605062867726E+00  8.0060844152509E-01
38  3.7000000000000E-01  6.1665437613332E-01  1.4140164680532E+00  8.1569222197262E-01
39  3.8000000000000E-01  4.9120878562556E-01  1.4634972185939E+00  8.3159388332992E-01
40  3.9000000000000E-01  3.6535047113367E-01  1.5086644188701E+00  8.4840791142572E-01
41  4.0000000000000E-01  2.3994495932570E-01  1.5491373796813E+00  8.6622254349434E-01
42  4.1000000000000E-01  1.1587764264247E-01  1.5844345707635E+00  8.8511800415983E-01
43  4.2000000000000E-01 -5.9528420544781E-03  1.6139753975048E+00  9.0516449893858E-01
44  4.3000000000000E-01 -1.2464278581965E-01  1.6370881563659E+00  9.2642000370445E-01
45  4.4000000000000E-01 -2.3929302979850E-01  1.6530240440597E+00  9.4892790300270E-01
46  4.5000000000000E-01 -3.4901986831334E-01  1.6609768428546E+00  9.7271454311550E-01
47  4.6000000000000E-01 -4.5296700074089E-01  1.6601076642978E+00  9.9778677677747E-01
48  4.7000000000000E-01 -5.5031824399639E-01  1.6495739155230E+00  1.0241295848878E+00
49  4.8000000000000E-01 -6.4031067076888E-01  1.6285614645535E+00  1.0517038660342E+00
50  4.9000000000000E-01 -7.2224780331729E-01  1.5963188309723E+00  1.0804444868079E+00
51  5.0000000000000E-01 -7.9551247014480E-01  1.5521921218786E+00  1.1102586845450E+00
52  5.1000000000000E-01 -8.5957892425715E-01  1.4956593744110E+00  1.1410249092211E+00
53  5.2000000000000E-01 -9.1402382749326E-01  1.4263629577219E+00  1.1725921828124E+00
54  5.3000000000000E-01 -9.5853572556960E-01  1.3441387296317E+00  1.2047800427419E+00
55  5.4000000000000E-01 -9.9292267244114E-01  1.2490407348846E+00  1.2373791213859E+00
56  5.5000000000000E-01 -1.0171177092709E+00  1.1413603697086E+00  1.2701523964865E+00
57  5.6000000000000E-01 -1.0311819611572E+00  1.0216391162488E+00  1.3028371282644E+00
58  5.7000000000000E-01 -1.0353051818209E+00  8.9067416388183E-01  1.3351474786989E+00
59  5.8000000000000E-01 -1.0298036503822E+00  7.4951647461492E-01  1.3667777875336E+00
60  5.9000000000000E-01 -1.0151154025893E+00  5.9946110794350E-01  1.3974064588199E+00
61  6.0000000000000E-01 -9.9179285866574E-01  4.4202988725382E-01  1.4267003919534E+00
62  6.1000000000000E-01 -9.6049298853771E-01  2.7894675540041E-01  1.4543198729037E+00
63  6.2000000000000E-01 -9.2196522985346E-01  1.1210642183167E-01  1.4799238253454E+00
64  6.3000000000000E-01 -8.7703744232497E-01 -5.6462861602933E-02  1.5031753082471E+00
65  6.4000000000000E-01 -8.2660024118036E-01 -2.2464135265101E-01  1.5237471366403E+00
66  6.5000000000000E-01 -7.7159010090025E-01 -3.9026348425301E-01  1.5413274961429E+00
67  6.6000000000000E-01 -7.1297165632460E-01 -5.5116580046404E-01  1.5556254195718E+00
68  6.7000000000000E-01 -6.5171965051121E-01 -7.0523573638168E-01  1.5663759957469E+00
69  6.8000000000000E-01 -5.8880098675293E-01 -8.5045978140010E-01  1.5733451862975E+00
70  6.9000000000000E-01 -5.2515733577758E-01 -9.8496958032809E-01  1.5763341357538E+00
71  7.0000000000000E-01 -4.6168872873186E-01 -1.1070845908039E+00  1.5751828731009E+00
72  7.1000000000000E-01 -3.9923853294767E-01 -1.2153500253636E+00  1.5697733188575E+00
73  7.2000000000000E-01 -3.3858016200441E-01 -1.3085689582460E+00  1.5600315300683E+00
74  7.3000000000000E-01 -2.8040581593501E-01 -1.3858276648674E+00  1.5459291357397E+00
75  7.4000000000000E-01 -2.2531748358680E-01 -1.4465134790210E+00  1.5274839365410E+00
76  7.5000000000000E-01 -1.7382036938985E-01 -1.4903246915279E+00  1.5047596643134E+00
77  7.6000000000000E-01 -1.2631883352104E-01 -1.5172722658618E+00  1.4778649183944E+00
78  7.7000000000000E-01 -8.3114860129937E-02 -1.5276734026083E+00  1.4469513162762E+00
79  7.8000000000000E-01 -4.4408995351521E-02 -1.5221372368546E+00  1.4122109150659E+00
80  7.9000000000000E-01 -1.0303627582563E-02 -1.5015431924712E+00  1.3738729770354E+00
81  8.0000000000000E-01  1.9191580950653E-02 -1.4670127371323E+00  1.3322001667880E+00
82  8.1000000000000E-01  4.4152358104077E-02 -1.4198754750586E+00  1.2874842788754E+00
83  8.2000000000000E-01  6.4730874608362E-02 -1.3616306752052E+00  1.2400416028296E+00
84  8.3000000000000E-01  8.1145515443154E-02 -1.2939054565382E+00  1.1902080374310E+00
85  8.4000000000000E-01  9.3669724690395E-02 -1.2184109360773E+00  1.1383340676107E+00
86  8.5000000000000E-01  1.0262029247441E-01 -1.1368976878228E+00  1.0847797158196E+00
87  8.6000000000000E-01  1.0834545481986E-01 -1.0511118612062E+00  1.0299095752111E+00
88  8.7000000000000E-01  1.1121316834823E-01 -9.6275326723565E-01  9.7408802489487E-01
89  8.8000000000000E-01  1.1159990235420E-01 -8.7343666113996E-01  9.1767471823358E-01
90  8.9000000000000E-01  1.0988026187876E-01 -7.8465733509895E-01  8.6102042408396E-01
91  9.0000000000000E-01  1.0641771804726E-01 -6.9776198741518E-01  8.0446328852366E-01
92  9.1000000000000E-01  1.0155667741060E-01 -6.1392565955017E-01  7.4832557140050E-01
93  9.2000000000000E-01  9.5616071615953E-02 -5.3413533444918E-01  6.9291089844759E-01
94  9.3000000000000E-01  8.8884593707202E-02 -4.5918057309519E-01  6.3850205612083E-01
95  9.4000000000000E-01  8.1617648905309E-02 -3.8965133568416E-01  5.8535934306899E-01
96  9.5000000000000E-01  7.4036026856979E-02 -3.2594289307001E-01  5.3371947948837E-01
97  9.6000000000000E-01  6.6326239873110E-02 -2.6826748641151E-01  4.8379506369449E-01
98  9.7000000000000E-01  5.8642408158552E-02 -2.1667214067931E-01  4.3577455410364E-01
99  9.8000000000000E-01  5.1109508685581E-02 -1.7106178214619E-01  3.8982274438150E-01
100  9.9000000000000E-01  4.3827739115271E-02 -1.3122655151873E-01  3.4608168959273E-01
101  1.0000000000000E+00  3.6877681605925E-02 -9.6871942108272E-02  3.0467203146799E-01
102  1.0100000000000E+00  3.0325882754500E-02 -6.7650124514004E-02  2.6569466098069E-01
103  1.0200000000000E+00  2.4230394166789E-02 -4.3190542334289E-02  2.2923264577183E-01
104  1.0300000000000E+00  1.8645741951260E-02 -2.3127573535050E-02  1.9535333798043E-01
105  1.0400000000000E+00  1.3626711208900E-02 -7.1227443453488E-03  1.6411056406584E-01
106  1.0500000000000E+00  9.2302414038076E-03  5.1213493787560E-03  1.3554678149673E-01
107  1.0600000000000E+00  5.5146283811829E-03  1.3858620852595E-02  1.0969506695621E-01
108  1.0700000000000E+00  2.5351168748175E-03  1.9312177859124E-02  8.6580776252279E-02
109  1.0800000000000E+00  3.3478257019139E-04  2.1706348681605E-02  6.6222640466872E-02
110  1.0900000000000E+00 -1.0699876122425E-03  2.1321065356483E-02  4.8633460636030E-02
111  1.1000000000000E+00 -1.7361235265105E-03  1.8653722177959E-02  3.3799123801656E-02
112  1.1100000000000E+00 -1.8287251201281E-03  1.4554593714405E-02  2.1669538909171E-02
113  1.1200000000000E+00 -1.4856367539617E-03  9.7824119862726E-03  1.2271466013367E-02
114  1.1300000000000E+00 -9.0293849609460E-04  5.1899299640825E-03  5.5864037412672E-03
115  1.1400000000000E+00 -3.1680712137074E-04  1.6400894897824E-03  1.5369036567447E-03
116  1.1500000000000E+00 -1.0892517818526E-05  5.1418136781572E-05  4.1999221098382E-05
117  1.1600000000000E+00 -1.6770828954548E-06  8.0410231581075E-06  6.6827819713295E-06
118  1.1700000000000E+00  2.6830009033959E-07 -1.3329226854216E-06 -1.1735056066939E-06
119  1.18  0.  0.  0.
120  1.19  0.  0.  0.
121  1.20  0.  0.  0.
122  1.21  0.  0.  0.
123  1.22  0.  0.  0.
124  1.23  0.  0.  0.
125  1.24  0.  0.  0.
126  1.25  0.  0.  0.
127  1.26  0.  0.  0.
128  1.27  0.  0.  0.
129  1.28  0.  0.  0.
130  1.29  0.  0.  0.
131  1.30  0.  0.  0.
132  1.31  0.  0.  0.
133  1.32  0.  0.  0.
134  1.33  0.  0.  0.
135  1.34  0.  0.  0.
136  1.35  0.  0.  0.
137  1.36  0.  0.  0.
138  1.37  0.  0.  0.
139  1.38  0.  0.  0.
140  1.39  0.  0.  0.
141  1.40  0.  0.  0.
142  1.41  0.  0.  0.
143  1.42  0.  0.  0.
144  1.43  0.  0.  0.
145  1.44  0.  0.  0.
146  1.45  0.  0.  0.
147  1.46  0.  0.  0.
148  1.47  0.  0.  0.
149  1.48  0.  0.  0.
150  1.49  0.  0.  0.
151  1.50  0.  0.  0.
152  1.51  0.  0.  0.
153  1.52  0.  0.  0.
154  1.53  0.  0.  0.
155  1.54  0.  0.  0.
156  1.55  0.  0.  0.
157  1.56  0.  0.  0.
158  1.57  0.  0.  0.
159  1.58  0.  0.  0.
160  1.59  0.  0.  0.
161  1.60  0.  0.  0.
162  1.61  0.  0.  0.
163  1.62  0.  0.  0.
164  1.63  0.  0.  0.
165  1.64  0.  0.  0.
166  1.65  0.  0.  0.
167  1.66  0.  0.  0.
168  1.67  0.  0.  0.
169  1.68  0.  0.  0.
170  1.69  0.  0.  0.
171  1.70  0.  0.  0.
172  1.71  0.  0.  0.
173  1.72  0.  0.  0.
174  1.73  0.  0.  0.
175  1.74  0.  0.  0.
176  1.75  0.  0.  0.
177  1.76  0.  0.  0.
178  1.77  0.  0.  0.
179  1.78  0.  0.  0.
180  1.79  0.  0.  0.
181  1.80  0.  0.  0.
182  1.81  0.  0.  0.
183  1.82  0.  0.  0.
184  1.83  0.  0.  0.
185  1.84  0.  0.  0.
186  1.85  0.  0.  0.
187  1.86  0.  0.  0.
188  1.87  0.  0.  0.
189  1.88  0.  0.  0.
190  1.89  0.  0.  0.
191  1.90  0.  0.  0.
192  1.91  0.  0.  0.
193  1.92  0.  0.  0.
194  1.93  0.  0.  0.
195  1.94  0.  0.  0.
196  1.95  0.  0.  0.
197  1.96  0.  0.  0.
198  1.97  0.  0.  0.
199  1.98  0.  0.  0.
200  1.99  0.  0.  0.
201  2.00  0.  0.  0.
202  2.01  0.  0.  0.
203  2.02  0.  0.  0.
204  2.03  0.  0.  0.
205  2.04  0.  0.  0.
206  2.05  0.  0.  0.
207  2.06  0.  0.  0.
208  2.07  0.  0.  0.
209  2.08  0.  0.  0.
210  2.09  0.  0.  0.
211  2.10  0.  0.  0.
212  2.11  0.  0.  0.
213  2.12  0.  0.  0.
214  2.13  0.  0.  0.
215  2.14  0.  0.  0.
216  2.15  0.  0.  0.
217  2.16  0.  0.  0.
218  2.17  0.  0.  0.
219  2.18  0.  0.  0.
220  2.19  0.  0.  0.
221  2.20  0.  0.  0.
222  2.21  0.  0.  0.
223  2.22  0.  0.  0.
224  2.23  0.  0.  0.
225  2.24  0.  0.  0.
226  2.25  0.  0.  0.
227  2.26  0.  0.  0.
228  2.27  0.  0.  0.
229  2.28  0.  0.  0.
230  2.29  0.  0.  0.
231  2.30  0.  0.  0.
232  2.31  0.  0.  0.
233  2.32  0.  0.  0.
234  2.33  0.  0.  0.
235  2.34  0.  0.  0.
236  2.35  0.  0.  0.
237  2.36  0.  0.  0.
238  2.37  0.  0.  0.
239  2.38  0.  0.  0.
240  2.39  0.  0.  0.
241  2.40  0.  0.  0.
242  2.41  0.  0.  0.
243  2.42  0.  0.  0.
244  2.43  0.  0.  0.
245  2.44  0.  0.  0.
246  2.45  0.  0.  0.
247  2.46  0.  0.  0.
248  2.47  0.  0.  0.
249  2.48  0.  0.  0.
250  2.49  0.  0.  0.
251  2.50  0.  0.  0.
252  2.51  0.  0.  0.
253  2.52  0.  0.  0.
254  2.53  0.  0.  0.
255  2.54  0.  0.  0.
256  2.55  0.  0.  0.
257  2.56  0.  0.  0.
258  2.57  0.  0.  0.
259  2.58  0.  0.  0.
260  2.59  0.  0.  0.
261  2.60  0.  0.  0.
262  2.61  0.  0.  0.
263  2.62  0.  0.  0.
264  2.63  0.  0.  0.
265  2.64  0.  0.  0.
266  2.65  0.  0.  0.
267  2.66  0.  0.  0.
268  2.67  0.  0.  0.
269  2.68  0.  0.  0.
270  2.69  0.  0.  0.
271  2.70  0.  0.  0.
272  2.71  0.  0.  0.
273  2.72  0.  0.  0.
274  2.73  0.  0.  0.
275  2.74  0.  0.  0.
276  2.75  0.  0.  0.
277  2.76  0.  0.  0.
278  2.77  0.  0.  0.
279  2.78  0.  0.  0.
280  2.79  0.  0.  0.
281  2.80  0.  0.  0.
282  2.81  0.  0.  0.
283  2.82  0.  0.  0.
284  2.83  0.  0.  0.
285  2.84  0.  0.  0.
286  2.85  0.  0.  0.
287  2.86  0.  0.  0.
288  2.87  0.  0.  0.
289  2.88  0.  0.  0.
290  2.89  0.  0.  0.
291  2.90  0.  0.  0.
292  2.91  0.  0.  0.
293  2.92  0.  0.  0.
294  2.93  0.  0.  0.
295  2.94  0.  0.  0.
296  2.95  0.  0.  0.
297  2.96  0.  0.  0.
298  2.97  0.  0.  0.
299  2.98  0.  0.  0.
300  2.99  0.  0.  0.
301  3.00  0.  0.  0.
302  3.01  0.  0.  0.
303  3.02  0.  0.  0.
304  3.03  0.  0.  0.
305  3.04  0.  0.  0.
306  3.05  0.  0.  0.
307  3.06  0.  0.  0.
308  3.07  0.  0.  0.
309  3.08  0.  0.  0.
310  3.09  0.  0.  0.
311  3.10  0.  0.  0.
312  3.11  0.  0.  0.
313  3.12  0.  0.  0.
314  3.13  0.  0.  0.
315  3.14  0.  0.  0.
316  3.15  0.  0.  0.
317  3.16  0.  0.  0.
318  3.17  0.  0.  0.
319  3.18  0.  0.  0.
320  3.19  0.  0.  0.
321  3.20  0.  0.  0.
322  3.21  0.  0.  0.
323  3.22  0.  0.  0.
324  3.23  0.  0.  0.
325  3.24  0.  0.  0.
326  3.25  0.  0.  0.
327  3.26  0.  0.  0.
328  3.27  0.  0.  0.
329  3.28  0.  0.  0.
330  3.29  0.  0.  0.
331  3.30  0.  0.  0.
332  3.31  0.  0.  0.
333  3.32  0.  0.  0.
334  3.33  0.  0.  0.
335  3.34  0.  0.  0.
336  3.35  0.  0.  0.
337  3.36  0.  0.  0.
338  3.37  0.  0.  0.
339  3.38  0.  0.  0.
340  3.39  0.  0.  0.
341  3.40  0.  0.  0.
342  3.41  0.  0.  0.
343  3.42  0.  0.  0.
344  3.43  0.  0.  0.
345  3.44  0.  0.  0.
346  3.45  0.  0.  0.
347  3.46  0.  0.  0.
348  3.47  0.  0.  0.
349  3.48  0.  0.  0.
350  3.49  0.  0.  0.
351  3.50  0.  0.  0.
352  3.51  0.  0.  0.
353  3.52  0.  0.  0.
354  3.53  0.  0.  0.
355  3.54  0.  0.  0.
356  3.55  0.  0.  0.
357  3.56  0.  0.  0.
358  3.57  0.  0.  0.
359  3.58  0.  0.  0.
360  3.59  0.  0.  0.
361  3.60  0.  0.  0.
362  3.61  0.  0.  0.
363  3.62  0.  0.  0.
364  3.63  0.  0.  0.
365  3.64  0.  0.  0.
366  3.65  0.  0.  0.
367  3.66  0.  0.  0.
368  3.67  0.  0.  0.
369  3.68  0.  0.  0.
370  3.69  0.  0.  0.
371  3.70  0.  0.  0.
372  3.71  0.  0.  0.
373  3.72  0.  0.  0.
374  3.73  0.  0.  0.
375  3.74  0.  0.  0.
376  3.75  0.  0.  0.
377  3.76  0.  0.  0.
378  3.77  0.  0.  0.
379  3.78  0.  0.  0.
380  3.79  0.  0.  0.
381  3.80  0.  0.  0.
382  3.81  0.  0.  0.
383  3.82  0.  0.  0.
384  3.83  0.  0.  0.
385  3.84  0.  0.  0.
386  3.85  0.  0.  0.
387  3.86  0.  0.  0.
388  3.87  0.  0.  0.
389  3.88  0.  0.  0.
390  3.89  0.  0.  0.
391  3.90  0.  0.  0.
392  3.91  0.  0.  0.
393  3.92  0.  0.  0.
394  3.93  0.  0.  0.
395  3.94  0.  0.  0.
396  3.95  0.  0.  0.
397  3.96  0.  0.  0.
398  3.97  0.  0.  0.
399  3.98  0.  0.  0.
400  3.99  0.  0.  0.
401  4.00  0.  0.  0.
402  4.01  0.  0.  0.
403  4.02  0.  0.  0.
404  4.03  0.  0.  0.
405  4.04  0.  0.  0.
406  4.05  0.  0.  0.
407  4.06  0.  0.  0.
408  4.07  0.  0.  0.
409  4.08  0.  0.  0.
410  4.09  0.  0.  0.
411  4.10  0.  0.  0.
412  4.11  0.  0.  0.
413  4.12  0.  0.  0.
414  4.13  0.  0.  0.
415  4.14  0.  0.  0.
416  4.15  0.  0.  0.
417  4.16  0.  0.  0.
418  4.17  0.  0.  0.
419  4.18  0.  0.  0.
420  4.19  0.  0.  0.
421  4.20  0.  0.  0.
422  4.21  0.  0.  0.
423  4.22  0.  0.  0.
424  4.23  0.  0.  0.
425  4.24  0.  0.  0.
426  4.25  0.  0.  0.
427  4.26  0.  0.  0.
428  4.27  0.  0.  0.
429  4.28  0.  0.  0.
430  4.29  0.  0.  0.
431  4.30  0.  0.  0.
432  4.31  0.  0.  0.
433  4.32  0.  0.  0.
434  4.33  0.  0.  0.
435  4.34  0.  0.  0.
436  4.35  0.  0.  0.
437  4.36  0.  0.  0.
438  4.37  0.  0.  0.
439  4.38  0.  0.  0.
440  4.39  0.  0.  0.
441  4.40  0.  0.  0.
442  4.41  0.  0.  0.
443  4.42  0.  0.  0.
444  4.43  0.  0.  0.
445  4.44  0.  0.  0.
446  4.45  0.  0.  0.
447  4.46  0.  0.  0.
448  4.47  0.  0.  0.
449  4.48  0.  0.  0.
450  4.49  0.  0.  0.
451  4.50  0.  0.  0.
452  4.51  0.  0.  0.
453  4.52  0.  0.  0.
454  4.53  0.  0.  0.
455  4.54  0.  0.  0.
456  4.55  0.  0.  0.
457  4.56  0.  0.  0.
458  4.57  0.  0.  0.
459  4.58  0.  0.  0.
460  4.59  0.  0.  0.
461  4.60  0.  0.  0.
462  4.61  0.  0.  0.
463  4.62  0.  0.  0.
464  4.63  0.  0.  0.
465  4.64  0.  0.  0.
466  4.65  0.  0.  0.
467  4.66  0.  0.  0.
468  4.67  0.  0.  0.
469  4.68  0.  0.  0.
470  4.69  0.  0.  0.
471  4.70  0.  0.  0.
472  4.71  0.  0.  0.
473  4.72  0.  0.  0.
474  4.73  0.  0.  0.
475  4.74  0.  0.  0.
476  4.75  0.  0.  0.
477  4.76  0.  0.  0.
478  4.77  0.  0.  0.
479  4.78  0.  0.  0.
480  4.79  0.  0.  0.
481  4.80  0.  0.  0.
482  4.81  0.  0.  0.
483  4.82  0.  0.  0.
484  4.83  0.  0.  0.
485  4.84  0.  0.  0.
486  4.85  0.  0.  0.
487  4.86  0.  0.  0.
488  4.87  0.  0.  0.
489  4.88  0.  0.  0.
490  4.89  0.  0.  0.
491  4.90  0.  0.  0.
492  4.91  0.  0.  0.
493  4.92  0.  0.  0.
494  4.93  0.  0.  0.
495  4.94  0.  0.  0.
496  4.95  0.  0.  0.
497  4.96  0.  0.  0.
498  4.97  0.  0.  0.
499  4.98  0.  0.  0.
500  4.99  0.  0.  0.
501  5.00  0.  0.  0.
502  5.01  0.  0.  0.
503  5.02  0.  0.  0.
504  5.03  0.  0.  0.
505  5.04  0.  0.  0.
506  5.05  0.  0.  0.
507  5.06  0.  0.  0.
508  5.07  0.  0.  0.
509  5.08  0.  0.  0.
510  5.09  0.  0.  0.
511  5.10  0.  0.  0.
512  5.11  0.  0.  0.
513  5.12  0.  0.  0.
514  5.13  0.  0.  0.
515  5.14  0.  0.  0.
516  5.15  0.  0.  0.
517  5.16  0.  0.  0.
518  5.17  0.  0.  0.
519  5.18  0.  0.  0.
520  5.19  0.  0.  0.
521  5.20  0.  0.  0.
522  5.21  0.  0.  0.
523  5.22  0.  0.  0.
524  5.23  0.  0.  0.
525  5.24  0.  0.  0.
526  5.25  0.  0.  0.
527  5.26  0.  0.  0.
528  5.27  0.  0.  0.
529  5.28  0.  0.  0.
530  5.29  0.  0.  0.
531  5.30  0.  0.  0.
532  5.31  0.  0.  0.
533  5.32  0.  0.  0.
534  5.33  0.  0.  0.
535  5.34  0.  0.  0.
536  5.35  0.  0.  0.
537  5.36  0.  0.  0.
538  5.37  0.  0.  0.
539  5.38  0.  0.  0.
540  5.39  0.  0.  0.
541  5.40  0.  0.  0.
542  5.41  0.  0.  0.
543  5.42  0.  0.  0.
544  5.43  0.  0.  0.
545  5.44  0.  0.  0.
546  5.45  0.  0.  0.
547  5.46  0.  0.  0.
548  5.47  0.  0.  0.
549  5.48  0.  0.  0.
550  5.49  0.  0.  0.
551  5.50  0.  0.  0.
552  5.51  0.  0.  0.
553  5.52  0.  0.  0.
554  5.53  0.  0.  0.
555  5.54  0.  0.  0.
556  5.55  0.  0.  0.
557  5.56  0.  0.  0.
558  5.57  0.  0.  0.
559  5.58  0.  0.  0.
560  5.59  0.  0.  0.
561  5.60  0.  0.  0.
562  5.61  0.  0.  0.
563  5.62  0.  0.  0.
564  5.63  0.  0.  0.
565  5.64  0.  0.  0.
566  5.65  0.  0.  0.
567  5.66  0.  0.  0.
568  5.67  0.  0.  0.
569  5.68  0.  0.  0.
570  5.69  0.  0.  0.
571  5.70  0.  0.  0.
572  5.71  0.  0.  0.
573  5.72  0.  0.  0.
574  5.73  0.  0.  0.
575  5.74  0.  0.  0.
576  5.75  0.  0.  0.
577  5.76  0.  0.  0.
578  5.77  0.  0.  0.
579  5.78  0.  0.  0.
580  5.79  0.  0.  0.
581  5.80  0.  0.  0.
582  5.81  0.  0.  0.
583  5.82  0.  0.  0.
584  5.83  0.  0.  0.
585  5.84  0.  0.  0.
586  5.85  0.  0.  0.
587  5.86  0.  0.  0.
588  5.87  0.  0.  0.
589  5.88  0.  0.  0.
590  5.89  0.  0.  0.
591  5.90  0.  0.  0.
592  5.91  0.  0.  0.
593  5.92  0.  0.  0.
594  5.93  0.  0.  0.
595  5.94  0.  0.  0.
596  5.95  0.  0.  0.
597  5.96  0.  0.  0.
598  5.97  0.  0.  0.
599  5.98  0.  0.  0.
600  5.99  0.  0.  0.
1                         7.3185754363592E+00 -2.0754808557309E+00  1.7562097586345E-01
1  0.0000000000000E+00 -1.1349820805417E-08 -9.6822520140316E-09 -2.8749776725956E-09
2  1.0000000000000E-02  4.8672175819854E-03  5.5344388176569E-04  4.1729703263923E-03
3  2.0000000000000E-02  1.9425545970913E-02  2.2182959184661E-03  1.6624036825280E-02
4  3.0000000000000E-02  4.3545162403029E-02  5.0079335150256E-03  3.7150309639006E-02
5  4.0000000000000E-02  7.7010206321025E-02  8.9440466041872E-03  6.5415791417072E-02
6  5.0000000000000E-02  1.1951957883855E-01  1.4055752651409E-02  1.0095463014954E-01
7  6.0000000000000E-02  1.7068812689201E-01  2.0378403973108E-02  1.4317571887827E-01
8  7.0000000000000E-02  2.3004827267054E-01  2.7952131556902E-02  1.9136868189512E-01
9  8.0000000000000E-02  2.9705216026490E-01  3.6820179254750E-02  2.4471128991108E-01
10  9.0000000000000E-02  3.7107439869035E-01  4.7027089847702E-02  3.0227834378559E-01
11  1.0000000000000E-01  4.5141548295533E-01  5.8616809760343E-02  3.6305205704189E-01
12  1.1000000000000E-01  5.3730597229911E-01  7.1630781929075E-02  4.2593395119315E-01
13  1.2000000000000E-01  6.2791149694903E-01  8.6106096391634E-02  4.8975825483159E-01
14  1.3000000000000E-01  7.2233865181344E-01  1.0207376555761E-01  5.5330676781042E-01
15  1.4000000000000E-01  8.1964181771123E-01  1.1955718593417E-01  6.1532511635374E-01
16  1.5000000000000E-01  9.1883092853789E-01  1.3857084050979E-01  6.7454028456878E-01
17  1.6000000000000E-01  1.0188801768712E+00  1.5911928632404E-01  7.2967926392064E-01
18  1.7000000000000E-01  1.1187376217937E+00  1.8119646033962E-01  7.7948861633278E-01
19  1.8000000000000E-01  1.2173356321583E+00  2.0478532401638E-01  8.2275470046430E-01
20  1.9000000000000E-01  1.3136020672671E+00  2.2985785345276E-01  8.5832426629919E-01
21  2.0000000000000E-01  1.4064720661474E+00  2.5637536812842E-01  8.8512508242779E-01
22  2.1000000000000E-01  1.4949002875010E+00  2.8428917768937E-01  9.0218622526386E-01
23  2.2000000000000E-01  1.5778734161501E+00  3.1354151339473E-01  9.0865763177949E-01
24  2.3000000000000E-01  1.6544227295247E+00  3.4406669929941E-01  9.0382849884249E-01
25  2.4000000000000E-01  1.7236365004246E+00  3.7579250844192E-01  8.8714410434485E-01
26  2.5000000000000E-01  1.7846720008071E+00  4.0864164164133E-01  8.5822062914618E-01
27  2.6000000000000E-01  1.8367668663515E+00  4.4253326130567E-01  8.1685757517911E-01
28  2.7000000000000E-01  1.8792495834981E+00  4.7738451014640E-01  7.6304740421791E-01
29  2.8000000000000E-01  1.9115488697533E+00  5.1311194501182E-01  6.9698206369941E-01
30  2.9000000000000E-01  1.9332017342715E+00  5.4963281922075E-01  6.1905612004783E-01
31  3.0000000000000E-01  1.9438600287759E+00  5.8686615271037E-01  5.2986628517909E-01
32  3.1000000000000E-01  1.9432953282315E+00  6.2473353781786E-01  4.3020719679910E-01
33  3.2000000000000E-01  1.9314020155711E+00  6.6315963929953E-01  3.2106339591105E-01
34  3.3000000000000E-01  1.9081984842145E+00  7.0207235986794E-01  2.0359753341495E-01
35  3.4000000000000E-01  1.8738264149717E+00  7.4140265663250E-01  7.9134929337330E-02
36  3.5000000000000E-01  1.8285481288663E+00  7.8108400883586E-01 -5.0855299617459E-02
37  3.6000000000000E-01  1.7727420630872E+00  8.2105155261686E-01 -1.8478223864487E-01
38  3.7000000000000E-01  1.7068964622152E+00  8.6124091360815E-01 -3.2095790926718E-01
39  3.8000000000000E-01  1.6316014196496E+00  9.0158678240090E-01 -4.5762427246898E-01
40  3.9000000000000E-01  1.5475394433943E+00  9.4202129070823E-01 -5.9298196699011E-01
41  4.0000000000000E-01  1.4554747547670E+00  9.8247225690752E-01 -7.2522019557145E-01
42  4.1000000000000E-01  1.3562415570465E+00  1.0228613780758E+00 -8.5254713301399E-01
43  4.2000000000000E-01  1.2507315326387E+00  1.0631024512733E+00 -9.7322020721986E-01
44  4.3000000000000E-01  1.1398808413064E+00  1.1030997093979E+00 -1.0855755989782E+00
45  4.4000000000000E-01  1.0246568979331E+00  1.1427463562560E+00 -1.1880563186356E+00
46  4.5000000000000E-01  9.0604520600215E-01  1.1819233815250E+00 -1.2792382478862E+00
47  4.6000000000000E-01  7.8503651257293E-01  1.2204987290938E+00 -1.3578535820927E+00
48  4.7000000000000E-01  6.6261453243820E-01  1.2583268820502E+00 -1.4228111716001E+00
49  4.8000000000000E-01  5.3974446399924E-01  1.2952489146603E+00 -1.4732133376907E+00
50  4.9000000000000E-01  4.1736248813023E-01  1.3310930464700E+00 -1.5083688279442E+00
51  5.0000000000000E-01  2.9636640504408E-01  1.3656757166723E+00 -1.5278016741690E+00
52  5.1000000000000E-01  1.7760752423483E-01  1.3988031787123E+00 -1.5312558208083E+00
53  5.2000000000000E-01  6.1883880396028E-02  1.4302735964043E+00 -1.5186954996105E+00
54  5.3000000000000E-01 -5.0065194680490E-02  1.4598796042757E+00 -1.4903014340706E+00
55  5.4000000000000E-01 -1.5756315629566E-01  1.4874112771319E+00 -1.4464630613760E+00
56  5.5000000000000E-01 -2.5999903894550E-01  1.5126594376161E+00 -1.3877670571100E+00
57  5.6000000000000E-01 -3.5682904417338E-01  1.5354192164417E+00 -1.3149825357773E+00
58  5.7000000000000E-01 -4.4757704303210E-01  1.5554937685689E+00 -1.2290433756309E+00
59  5.8000000000000E-01 -5.3183413697285E-01  1.5726980403336E+00 -1.1310281770476E+00
60  5.9000000000000E-01 -6.0925743904439E-01  1.5868624777898E+00 -1.0221384080542E+00
61  6.0000000000000E-01 -6.7956824790201E-01  1.5978365655182E+00 -9.0367531734297E-01
62  6.1000000000000E-01 -7.4254979003004E-01  1.6054920879915E+00 -7.7701620365299E-01
63  6.2000000000000E-01 -7.9804470081678E-01  1.6097260122243E+00 -6.4359062076792E-01
64  6.3000000000000E-01 -8.4595240303624E-01  1.6104629006947E+00 -5.0485707025293E-01
65  6.4000000000000E-01 -8.8622652253198E-01  1.6076567770848E+00 -3.6228069070989E-01
66  6.5000000000000E-01 -9.1887245637939E-01  1.6012923838053E+00 -2.1731239459096E-01
67  6.6000000000000E-01 -9.4394517967786E-01  1.5913857889874E+00 -7.1369833810630E-02
68  6.7000000000000E-01 -9.6154734473724E-01  1.5779843209973E+00  7.4179503738453E-02
69  6.8000000000000E-01 -9.7182769226036E-01  1.5611658298350E+00  2.1803285009687E-01
70  6.9000000000000E-01 -9.7497975975355E-01  1.5410372962634E+00  3.5896423740761E-01
71  7.0000000000000E-01 -9.7124083940447E-01  1.5177328303984E+00  4.9583406246038E-01
72  7.1000000000000E-01 -9.6089110759784E-01  1.4914111210136E+00  6.2759618053300E-01
73  7.2000000000000E-01 -9.4425282252381E-01  1.4622524142659E+00  7.5330265173611E-01
74  7.3000000000000E-01 -9.2168946624284E-01  1.4304551152691E+00  8.7210633203270E-01
75  7.4000000000000E-01 -8.9360469414456E-01  1.3962321173945E+00  9.8326155839585E-01
76  7.5000000000000E-01 -8.6044094875641E-01  1.3598069719203E+00  1.0861232212857E+00
77  7.6000000000000E-01 -8.2267759679185E-01  1.3214100143827E+00  1.1801445464519E+00
78  7.7000000000000E-01 -7.8082845832033E-01  1.2812745635620E+00  1.2648739212841E+00
79  7.8000000000000E-01 -7.3543861479844E-01  1.2396333044621E+00  1.3399510984618E+00
80  7.9000000000000E-01 -6.8708040788248E-01  1.1967149580750E+00  1.4051030920633E+00
81  8.0000000000000E-01 -6.3634857258955E-01  1.1527413284801E+00  1.4601400497568E+00
82  8.1000000000000E-01 -5.8385448532543E-01  1.1079248023653E+00  1.5049513409810E+00
83  8.2000000000000E-01 -5.3021954813543E-01  1.0624663579519E+00  1.5395020473655E+00
84  8.3000000000000E-01 -4.7606777363518E-01  1.0165541202552E+00  1.5638299807341E+00
85  8.4000000000000E-01 -4.2201767866246E-01  9.7036247837279E-01  1.5780432888432E+00
86  8.5000000000000E-01 -3.6867363690050E-01  9.2405175890345E-01  1.5823186427222E+00
87  8.6000000000000E-01 -3.1661687967967E-01  8.7776842849120E-01  1.5768999353352E+00
88  8.7000000000000E-01 -2.6639636804606E-01  8.3164577871683E-01  1.5620973624807E+00
89  8.8000000000000E-01 -2.1851978629169E-01  7.8580502891523E-01  1.5382867063791E+00
90  8.9000000000000E-01 -1.7344492596248E-01  7.4035676772495E-01  1.5059086029943E+00
91  9.0000000000000E-01 -1.3157173863038E-01  6.9540264291837E-01  1.4654675480842E+00
92  9.1000000000000E-01 -9.3235334466247E-02  6.5103720184482E-01  1.4175303861030E+00
93  9.2000000000000E-01 -5.8700191249735E-02  6.0734978203805E-01  1.3627240316090E+00
94  9.3000000000000E-01 -2.8155814624248E-02  5.6442635343886E-01  1.3017321954117E+00
95  9.4000000000000E-01 -1.7140552590593E-03  5.2235122035071E-01  1.2352909272792E+00
96  9.5000000000000E-01  2.0591757403914E-02  4.8120850260724E-01  1.1641828429708E+00
97  9.6000000000000E-01  3.8805761125470E-02  4.4108333126115E-01  1.0892299743572E+00
98  9.7000000000000E-01  5.3046547656408E-02  4.0206271401947E-01  1.0112852655402E+00
99  9.8000000000000E-01  6.3502223546468E-02  3.6423604914902E-01  9.3122283281189E-01