Fm    ONCVPSP-4.0.1  r_core=   1.15134   1.15134   1.33706   1.35316
100.0000     40.0000      230504    zatom,zion,pspd
8      11   3     4   600     0    pspcod,pspxc,lmax,lloc,mmax,r2well
5.99000000  5.00000000  0.00000000    rchrg fchrg qchrg
3     2     2     2     0    nproj
1     1           extension_switch
0                         2.4525934527500E+01  2.5559674198133E+00 -2.0867861205025E+00
1  0.0000000000000E+00 -4.7487973775517E-08  1.7469413776672E-07 -9.7935980436503E-09
2  1.0000000000000E-02  1.6678356446437E-01 -6.7853370035556E-02  3.7970712162549E-02
3  2.0000000000000E-02  3.3228395193435E-01 -1.3398534868901E-01  7.5767900556911E-02
4  3.0000000000000E-02  4.9523449079967E-01 -1.9671717299534E-01  1.1322100331514E-01
5  4.0000000000000E-02  6.5440112959604E-01 -2.5445399003401E-01  1.5016530555529E-01
6  5.0000000000000E-02  8.0859778357463E-01 -3.0572349299623E-01  1.8644467354815E-01
7  6.0000000000000E-02  9.5670056113132E-01 -3.4921070718324E-01  2.2191406917268E-01
8  7.0000000000000E-02  1.0976605553904E+00 -3.8378785843908E-01  2.5644178357366E-01
9  8.0000000000000E-02  1.2305149337260E+00 -4.0853843121507E-01  2.8991133872803E-01
10  9.0000000000000E-02  1.3543961139823E+00 -4.2277472937679E-01  3.2222301712217E-01
11  1.0000000000000E-01  1.4685388785596E+00 -4.2604848237794E-01  3.5329499248619E-01
12  1.1000000000000E-01  1.5722853440625E+00 -4.1815428406935E-01  3.8306404802196E-01
13  1.2000000000000E-01  1.6650877724279E+00 -3.9912590214484E-01  4.1148588226979E-01
14  1.3000000000000E-01  1.7465092768457E+00 -3.6922574381440E-01  4.3853501614738E-01
15  1.4000000000000E-01  1.8162225399221E+00 -3.2892799862685E-01  4.6420432724171E-01
16  1.5000000000000E-01  1.8740067200614E+00 -2.7889619380111E-01  4.8850424865524E-01
17  1.6000000000000E-01  1.9197427728801E+00 -2.1995608312985E-01  5.1146167917086E-01
18  1.7000000000000E-01  1.9534074557884E+00 -1.5306494073540E-01  5.3311865884871E-01
19  1.8000000000000E-01  1.9750663142639E+00 -7.9278440276478E-02  5.5353086913360E-01
20  1.9000000000000E-01  1.9848659667721E+00  2.8363524634459E-04  5.7276601896268E-01
21  2.0000000000000E-01  1.9830260112102E+00  8.4471590340722E-02  5.9090217815525E-01
22  2.1000000000000E-01  1.9698308690944E+00  1.7213868755672E-01  6.0802611658409E-01
23  2.2000000000000E-01  1.9456218648804E+00  2.6217153450466E-01  6.2423170242105E-01
24  2.3000000000000E-01  1.9107898076803E+00  3.5351694885048E-01  6.3961840537170E-01
25  2.4000000000000E-01  1.8657683025311E+00  4.4520441967164E-01  6.5428994160742E-01
26  2.5000000000000E-01  1.8110279699600E+00  5.3636347252478E-01  6.6835308648918E-01
27  2.6000000000000E-01  1.7470716978999E+00  6.2623545927770E-01  6.8191666963570E-01
28  2.7000000000000E-01  1.6744309912702E+00  7.1417952392995E-01  6.9509075494142E-01
29  2.8000000000000E-01  1.5936634241637E+00  7.9967273343169E-01  7.0798599633589E-01
30  2.9000000000000E-01  1.5053511400180E+00  8.8230459875683E-01  7.2071314893375E-01
31  3.0000000000000E-01  1.4101002888358E+00  9.6176643712685E-01  7.3338270526381E-01
32  3.1000000000000E-01  1.3085412397367E+00  1.0378362326644E+00  7.4610461795170E-01
33  3.2000000000000E-01  1.2013293639603E+00  1.1103598319742E+00  7.5898806395942E-01
34  3.3000000000000E-01  1.0891461496712E+00  1.1792294563205E+00  7.7214120157175E-01
35  3.4000000000000E-01  9.7270038695035E-01  1.2443606176660E+00  7.8567086997689E-01
36  3.5000000000000E-01  8.5272915018136E-01  1.3056685877775E+00  7.9968218262655E-01
37  3.6000000000000E-01  7.2999830618402E-01  1.3630455855408E+00  8.1427796957154E-01
38  3.7000000000000E-01  6.0530228993837E-01  1.4163398169295E+00  8.2955803053152E-01
39  3.8000000000000E-01  4.7946291514417E-01  1.4653374259202E+00  8.4561816934075E-01
40  3.9000000000000E-01  3.5332702324539E-01  1.5097482959372E+00  8.6254899127926E-01
41  4.0000000000000E-01  2.2776282056284E-01  1.5491964846944E+00  8.8043445722507E-01
42  4.1000000000000E-01  1.0365480707748E-01  1.5832158865541E+00  8.9935020204775E-01
43  4.2000000000000E-01 -1.8102739876144E-02  1.6112515029908E+00  9.1936163865085E-01
44  4.3000000000000E-01 -1.3661370051404E-01  1.6326664715895E+00  9.4052188297152E-01
45  4.4000000000000E-01 -2.5098937532675E-01  1.6467547660459E+00  9.6286954846293E-01
46  4.5000000000000E-01 -3.6035892202874E-01  1.6527592430167E+00  9.8642647053256E-01
47  4.6000000000000E-01 -4.6388075427166E-01  1.6498944854557E+00  1.0111954315438E+00
48  4.7000000000000E-01 -5.6075463709792E-01  1.6373736849977E+00  1.0371579648227E+00
49  4.8000000000000E-01 -6.5023416998280E-01  1.6144386259935E+00  1.0642723212427E+00
50  4.9000000000000E-01 -7.3163931444358E-01  1.5803916879423E+00  1.0924716840838E+00
51  5.0000000000000E-01 -8.0436860103620E-01  1.5346286770060E+00  1.1216627167840E+00
52  5.1000000000000E-01 -8.6791064113217E-01  1.4766712352268E+00  1.1517245238463E+00
53  5.2000000000000E-01 -9.2185457272001E-01  1.4061975605557E+00  1.1825080975969E+00
54  5.3000000000000E-01 -9.6589908666667E-01  1.3230702026454E+00  1.2138363128731E+00
55  5.4000000000000E-01 -9.9985970996251E-01  1.2273597775970E+00  1.2455045183723E+00
56  5.5000000000000E-01 -1.0236740645451E+00  1.1193635667763E+00  1.2772817577052E+00
57  5.6000000000000E-01 -1.0374048729890E+00  9.9961812611793E-01  1.3089126356929E+00
58  5.7000000000000E-01 -1.0412405439006E+00  8.6890522721691E-01  1.3401198266885E+00
59  5.8000000000000E-01 -1.0354932381928E+00  7.2825067295781E-01  1.3706072023486E+00
60  5.9000000000000E-01 -1.0205943901846E+00  5.7891577046188E-01  1.4000635369781E+00
61  6.0000000000000E-01 -9.9708773219507E-01  4.2238149407584E-01  1.4281667300114E+00
62  6.1000000000000E-01 -9.6561994539576E-01  2.6032562200129E-01  1.4545884680208E+00
63  6.2000000000000E-01 -9.2692913061378E-01  9.4593372955828E-02  1.4789992334781E+00
64  6.3000000000000E-01 -8.8183135811885E-01 -7.2837704694102E-02  1.5010735548720E+00
65  6.4000000000000E-01 -8.3120561295267E-01 -2.3989763760888E-01  1.5204953831710E+00
66  6.5000000000000E-01 -7.7597750014480E-01 -4.0446760281195E-01  1.5369634733560E+00
67  6.6000000000000E-01 -7.1710211062292E-01 -5.6442591884968E-01  1.5501966470732E+00
68  6.7000000000000E-01 -6.5554647259725E-01 -7.1769510848381E-01  1.5599388134780E+00
69  6.8000000000000E-01 -5.9227202395515E-01 -8.6228864435335E-01  1.5659636300283E+00
70  6.9000000000000E-01 -5.2821753848352E-01 -9.9635599126483E-01  1.5680786931954E+00
71  7.0000000000000E-01 -4.6428292275215E-01 -1.1182246071520E+00  1.5661291605175E+00
72  7.1000000000000E-01 -4.0131427191055E-01 -1.2264376572929E+00  1.5600007197326E+00
73  7.2000000000000E-01 -3.4009053254974E-01 -1.3197863296347E+00  1.5496218374368E+00
74  7.3000000000000E-01 -2.8131207063239E-01 -1.3973358081352E+00  1.5349652382364E+00
75  7.4000000000000E-01 -2.2559138406358E-01 -1.4584441598950E+00  1.5160485851205E+00
76  7.5000000000000E-01 -1.7344613478489E-01 -1.5027736135375E+00  1.4929343521130E+00
77  7.6000000000000E-01 -1.2529460651196E-01 -1.5302939431617E+00  1.4657289005331E+00
78  7.7000000000000E-01 -8.1453623666077E-02 -1.5412779162615E+00  1.4345807897744E+00
79  7.8000000000000E-01 -4.2138896942199E-02 -1.5362890071934E+00  1.3996783718132E+00
80  7.9000000000000E-01 -7.4676935052339E-03 -1.5161618121851E+00  1.3612467351546E+00
81  8.0000000000000E-01  2.2536332956718E-02 -1.4819758201468E+00  1.3195440781699E+00
82  8.1000000000000E-01  4.7936373345173E-02 -1.4350233889553E+00  1.2748576034201E+00
83  8.2000000000000E-01  6.8874024651259E-02 -1.3767729436957E+00  1.2274990333463E+00
84  8.3000000000000E-01  8.5559489975517E-02 -1.3088285468565E+00  1.1777998534934E+00
85  8.4000000000000E-01  9.8260753932558E-02 -1.2328870871915E+00  1.1261063921922E+00
86  8.5000000000000E-01  1.0729208832113E-01 -1.1506943916304E+00  1.0727748454152E+00
87  8.6000000000000E-01  1.1300225004507E-01 -1.0640015822259E+00  1.0181663525288E+00
88  8.7000000000000E-01  1.1576272960146E-01 -9.7452297784940E-01  9.6264222311843E-01
89  8.8000000000000E-01  1.1595639444643E-01 -8.8389677949180E-01  9.0655940730157E-01
90  8.9000000000000E-01  1.1396684788980E-01 -7.9364968080501E-01  8.5026629232447E-01
91  9.0000000000000E-01  1.1016879175100E-01 -7.0516641499121E-01  7.9409889715680E-01
92  9.1000000000000E-01  1.0491964085697E-01 -6.1966508888419E-01  7.3837752466816E-01
93  9.2000000000000E-01  9.8552590690236E-02 -5.3817896906874E-01  6.8340391817352E-01
94  9.3000000000000E-01  9.1371287210800E-02 -4.6154517719281E-01  6.2945895602980E-01
95  9.4000000000000E-01  8.3646191158186E-02 -3.9040052629768E-01  5.7680090485831E-01
96  9.5000000000000E-01  7.5612668932880E-02 -3.2518449066160E-01  5.2566423908705E-01
97  9.6000000000000E-01  6.7470779244475E-02 -2.6614905149265E-01  4.7625902200321E-01
98  9.7000000000000E-01  5.9386659686855E-02 -2.1337490236933E-01  4.2877083143704E-01
99  9.8000000000000E-01  5.1495350557855E-02 -1.6679323318569E-01  3.8336120151403E-01
100  9.9000000000000E-01  4.3904824646728E-02 -1.2621204031748E-01  3.4016854046747E-01
101  1.0000000000000E+00  3.6700921116634E-02 -9.1345633505894E-02  2.9930947304350E-01
102  1.0100000000000E+00  2.9952808513149E-02 -6.1845725431614E-02  2.6088054421212E-01
103  1.0200000000000E+00  2.3718525430950E-02 -3.7332195538269E-02  2.2496020826552E-01
104  1.0300000000000E+00  1.8050066438294E-02 -1.7421312372084E-02  1.9161101342355E-01
105  1.0400000000000E+00  1.2997394184780E-02 -1.7488744981153E-03  1.6088187619230E-01
106  1.0500000000000E+00  8.6106645161727E-03  1.0014616485370E-02  1.3281032125981E-01
107  1.0600000000000E+00  4.9398481869933E-03  1.8160011660342E-02  1.0742454097113E-01
108  1.0700000000000E+00  2.0308187567012E-03  2.2950467599801E-02  8.4745102746754E-02
109  1.0800000000000E+00 -8.3207762914947E-05  2.4651591458002E-02  6.4786057335741E-02
110  1.0900000000000E+00 -1.3956005441766E-03  2.3583894799778E-02  4.7555588422755E-02
111  1.1000000000000E+00 -1.9715341926966E-03  2.0280603093559E-02  3.3035416644174E-02
112  1.1100000000000E+00 -1.9816825761968E-03  1.5619646170319E-02  2.1171835279743E-02
113  1.1200000000000E+00 -1.5709851698071E-03  1.0389933074010E-02  1.1985911421037E-02
114  1.1300000000000E+00 -9.3999972331115E-04  5.4644481329805E-03  5.4551457915014E-03
115  1.1400000000000E+00 -3.2614124241235E-04  1.7138351842851E-03  1.5005732128597E-03
116  1.1500000000000E+00 -1.1086668445007E-05  5.3304087697785E-05  4.1010042495027E-05
117  1.1600000000000E+00 -1.7153310236570E-06  8.3545399788659E-06  6.5236641000862E-06
118  1.1700000000000E+00  2.7545585768376E-07 -1.3889722817328E-06 -1.1456033055512E-06
119  1.18  0.  0.  0.
120  1.19  0.  0.  0.
121  1.20  0.  0.  0.
122  1.21  0.  0.  0.
123  1.22  0.  0.  0.
124  1.23  0.  0.  0.
125  1.24  0.  0.  0.
126  1.25  0.  0.  0.
127  1.26  0.  0.  0.
128  1.27  0.  0.  0.
129  1.28  0.  0.  0.
130  1.29  0.  0.  0.
131  1.30  0.  0.  0.
132  1.31  0.  0.  0.
133  1.32  0.  0.  0.
134  1.33  0.  0.  0.
135  1.34  0.  0.  0.
136  1.35  0.  0.  0.
137  1.36  0.  0.  0.
138  1.37  0.  0.  0.
139  1.38  0.  0.  0.
140  1.39  0.  0.  0.
141  1.40  0.  0.  0.
142  1.41  0.  0.  0.
143  1.42  0.  0.  0.
144  1.43  0.  0.  0.
145  1.44  0.  0.  0.
146  1.45  0.  0.  0.
147  1.46  0.  0.  0.
148  1.47  0.  0.  0.
149  1.48  0.  0.  0.
150  1.49  0.  0.  0.
151  1.50  0.  0.  0.
152  1.51  0.  0.  0.
153  1.52  0.  0.  0.
154  1.53  0.  0.  0.
155  1.54  0.  0.  0.
156  1.55  0.  0.  0.
157  1.56  0.  0.  0.
158  1.57  0.  0.  0.
159  1.58  0.  0.  0.
160  1.59  0.  0.  0.
161  1.60  0.  0.  0.
162  1.61  0.  0.  0.
163  1.62  0.  0.  0.
164  1.63  0.  0.  0.
165  1.64  0.  0.  0.
166  1.65  0.  0.  0.
167  1.66  0.  0.  0.
168  1.67  0.  0.  0.
169  1.68  0.  0.  0.
170  1.69  0.  0.  0.
171  1.70  0.  0.  0.
172  1.71  0.  0.  0.
173  1.72  0.  0.  0.
174  1.73  0.  0.  0.
175  1.74  0.  0.  0.
176  1.75  0.  0.  0.
177  1.76  0.  0.  0.
178  1.77  0.  0.  0.
179  1.78  0.  0.  0.
180  1.79  0.  0.  0.
181  1.80  0.  0.  0.
182  1.81  0.  0.  0.
183  1.82  0.  0.  0.
184  1.83  0.  0.  0.
185  1.84  0.  0.  0.
186  1.85  0.  0.  0.
187  1.86  0.  0.  0.
188  1.87  0.  0.  0.
189  1.88  0.  0.  0.
190  1.89  0.  0.  0.
191  1.90  0.  0.  0.
192  1.91  0.  0.  0.
193  1.92  0.  0.  0.
194  1.93  0.  0.  0.
195  1.94  0.  0.  0.
196  1.95  0.  0.  0.
197  1.96  0.  0.  0.
198  1.97  0.  0.  0.
199  1.98  0.  0.  0.
200  1.99  0.  0.  0.
201  2.00  0.  0.  0.
202  2.01  0.  0.  0.
203  2.02  0.  0.  0.
204  2.03  0.  0.  0.
205  2.04  0.  0.  0.
206  2.05  0.  0.  0.
207  2.06  0.  0.  0.
208  2.07  0.  0.  0.
209  2.08  0.  0.  0.
210  2.09  0.  0.  0.
211  2.10  0.  0.  0.
212  2.11  0.  0.  0.
213  2.12  0.  0.  0.
214  2.13  0.  0.  0.
215  2.14  0.  0.  0.
216  2.15  0.  0.  0.
217  2.16  0.  0.  0.
218  2.17  0.  0.  0.
219  2.18  0.  0.  0.
220  2.19  0.  0.  0.
221  2.20  0.  0.  0.
222  2.21  0.  0.  0.
223  2.22  0.  0.  0.
224  2.23  0.  0.  0.
225  2.24  0.  0.  0.
226  2.25  0.  0.  0.
227  2.26  0.  0.  0.
228  2.27  0.  0.  0.
229  2.28  0.  0.  0.
230  2.29  0.  0.  0.
231  2.30  0.  0.  0.
232  2.31  0.  0.  0.
233  2.32  0.  0.  0.
234  2.33  0.  0.  0.
235  2.34  0.  0.  0.
236  2.35  0.  0.  0.
237  2.36  0.  0.  0.
238  2.37  0.  0.  0.
239  2.38  0.  0.  0.
240  2.39  0.  0.  0.
241  2.40  0.  0.  0.
242  2.41  0.  0.  0.
243  2.42  0.  0.  0.
244  2.43  0.  0.  0.
245  2.44  0.  0.  0.
246  2.45  0.  0.  0.
247  2.46  0.  0.  0.
248  2.47  0.  0.  0.
249  2.48  0.  0.  0.
250  2.49  0.  0.  0.
251  2.50  0.  0.  0.
252  2.51  0.  0.  0.
253  2.52  0.  0.  0.
254  2.53  0.  0.  0.
255  2.54  0.  0.  0.
256  2.55  0.  0.  0.
257  2.56  0.  0.  0.
258  2.57  0.  0.  0.
259  2.58  0.  0.  0.
260  2.59  0.  0.  0.
261  2.60  0.  0.  0.
262  2.61  0.  0.  0.
263  2.62  0.  0.  0.
264  2.63  0.  0.  0.
265  2.64  0.  0.  0.
266  2.65  0.  0.  0.
267  2.66  0.  0.  0.
268  2.67  0.  0.  0.
269  2.68  0.  0.  0.
270  2.69  0.  0.  0.
271  2.70  0.  0.  0.
272  2.71  0.  0.  0.
273  2.72  0.  0.  0.
274  2.73  0.  0.  0.
275  2.74  0.  0.  0.
276  2.75  0.  0.  0.
277  2.76  0.  0.  0.
278  2.77  0.  0.  0.
279  2.78  0.  0.  0.
280  2.79  0.  0.  0.
281  2.80  0.  0.  0.
282  2.81  0.  0.  0.
283  2.82  0.  0.  0.
284  2.83  0.  0.  0.
285  2.84  0.  0.  0.
286  2.85  0.  0.  0.
287  2.86  0.  0.  0.
288  2.87  0.  0.  0.
289  2.88  0.  0.  0.
290  2.89  0.  0.  0.
291  2.90  0.  0.  0.
292  2.91  0.  0.  0.
293  2.92  0.  0.  0.
294  2.93  0.  0.  0.
295  2.94  0.  0.  0.
296  2.95  0.  0.  0.
297  2.96  0.  0.  0.
298  2.97  0.  0.  0.
299  2.98  0.  0.  0.
300  2.99  0.  0.  0.
301  3.00  0.  0.  0.
302  3.01  0.  0.  0.
303  3.02  0.  0.  0.
304  3.03  0.  0.  0.
305  3.04  0.  0.  0.
306  3.05  0.  0.  0.
307  3.06  0.  0.  0.
308  3.07  0.  0.  0.
309  3.08  0.  0.  0.
310  3.09  0.  0.  0.
311  3.10  0.  0.  0.
312  3.11  0.  0.  0.
313  3.12  0.  0.  0.
314  3.13  0.  0.  0.
315  3.14  0.  0.  0.
316  3.15  0.  0.  0.
317  3.16  0.  0.  0.
318  3.17  0.  0.  0.
319  3.18  0.  0.  0.
320  3.19  0.  0.  0.
321  3.20  0.  0.  0.
322  3.21  0.  0.  0.
323  3.22  0.  0.  0.
324  3.23  0.  0.  0.
325  3.24  0.  0.  0.
326  3.25  0.  0.  0.
327  3.26  0.  0.  0.
328  3.27  0.  0.  0.
329  3.28  0.  0.  0.
330  3.29  0.  0.  0.
331  3.30  0.  0.  0.
332  3.31  0.  0.  0.
333  3.32  0.  0.  0.
334  3.33  0.  0.  0.
335  3.34  0.  0.  0.
336  3.35  0.  0.  0.
337  3.36  0.  0.  0.
338  3.37  0.  0.  0.
339  3.38  0.  0.  0.
340  3.39  0.  0.  0.
341  3.40  0.  0.  0.
342  3.41  0.  0.  0.
343  3.42  0.  0.  0.
344  3.43  0.  0.  0.
345  3.44  0.  0.  0.
346  3.45  0.  0.  0.
347  3.46  0.  0.  0.
348  3.47  0.  0.  0.
349  3.48  0.  0.  0.
350  3.49  0.  0.  0.
351  3.50  0.  0.  0.
352  3.51  0.  0.  0.
353  3.52  0.  0.  0.
354  3.53  0.  0.  0.
355  3.54  0.  0.  0.
356  3.55  0.  0.  0.
357  3.56  0.  0.  0.
358  3.57  0.  0.  0.
359  3.58  0.  0.  0.
360  3.59  0.  0.  0.
361  3.60  0.  0.  0.
362  3.61  0.  0.  0.
363  3.62  0.  0.  0.
364  3.63  0.  0.  0.
365  3.64  0.  0.  0.
366  3.65  0.  0.  0.
367  3.66  0.  0.  0.
368  3.67  0.  0.  0.
369  3.68  0.  0.  0.
370  3.69  0.  0.  0.
371  3.70  0.  0.  0.
372  3.71  0.  0.  0.
373  3.72  0.  0.  0.
374  3.73  0.  0.  0.
375  3.74  0.  0.  0.
376  3.75  0.  0.  0.
377  3.76  0.  0.  0.
378  3.77  0.  0.  0.
379  3.78  0.  0.  0.
380  3.79  0.  0.  0.
381  3.80  0.  0.  0.
382  3.81  0.  0.  0.
383  3.82  0.  0.  0.
384  3.83  0.  0.  0.
385  3.84  0.  0.  0.
386  3.85  0.  0.  0.
387  3.86  0.  0.  0.
388  3.87  0.  0.  0.
389  3.88  0.  0.  0.
390  3.89  0.  0.  0.
391  3.90  0.  0.  0.
392  3.91  0.  0.  0.
393  3.92  0.  0.  0.
394  3.93  0.  0.  0.
395  3.94  0.  0.  0.
396  3.95  0.  0.  0.
397  3.96  0.  0.  0.
398  3.97  0.  0.  0.
399  3.98  0.  0.  0.
400  3.99  0.  0.  0.
401  4.00  0.  0.  0.
402  4.01  0.  0.  0.
403  4.02  0.  0.  0.
404  4.03  0.  0.  0.
405  4.04  0.  0.  0.
406  4.05  0.  0.  0.
407  4.06  0.  0.  0.
408  4.07  0.  0.  0.
409  4.08  0.  0.  0.
410  4.09  0.  0.  0.
411  4.10  0.  0.  0.
412  4.11  0.  0.  0.
413  4.12  0.  0.  0.
414  4.13  0.  0.  0.
415  4.14  0.  0.  0.
416  4.15  0.  0.  0.
417  4.16  0.  0.  0.
418  4.17  0.  0.  0.
419  4.18  0.  0.  0.
420  4.19  0.  0.  0.
421  4.20  0.  0.  0.
422  4.21  0.  0.  0.
423  4.22  0.  0.  0.
424  4.23  0.  0.  0.
425  4.24  0.  0.  0.
426  4.25  0.  0.  0.
427  4.26  0.  0.  0.
428  4.27  0.  0.  0.
429  4.28  0.  0.  0.
430  4.29  0.  0.  0.
431  4.30  0.  0.  0.
432  4.31  0.  0.  0.
433  4.32  0.  0.  0.
434  4.33  0.  0.  0.
435  4.34  0.  0.  0.
436  4.35  0.  0.  0.
437  4.36  0.  0.  0.
438  4.37  0.  0.  0.
439  4.38  0.  0.  0.
440  4.39  0.  0.  0.
441  4.40  0.  0.  0.
442  4.41  0.  0.  0.
443  4.42  0.  0.  0.
444  4.43  0.  0.  0.
445  4.44  0.  0.  0.
446  4.45  0.  0.  0.
447  4.46  0.  0.  0.
448  4.47  0.  0.  0.
449  4.48  0.  0.  0.
450  4.49  0.  0.  0.
451  4.50  0.  0.  0.
452  4.51  0.  0.  0.
453  4.52  0.  0.  0.
454  4.53  0.  0.  0.
455  4.54  0.  0.  0.
456  4.55  0.  0.  0.
457  4.56  0.  0.  0.
458  4.57  0.  0.  0.
459  4.58  0.  0.  0.
460  4.59  0.  0.  0.
461  4.60  0.  0.  0.
462  4.61  0.  0.  0.
463  4.62  0.  0.  0.
464  4.63  0.  0.  0.
465  4.64  0.  0.  0.
466  4.65  0.  0.  0.
467  4.66  0.  0.  0.
468  4.67  0.  0.  0.
469  4.68  0.  0.  0.
470  4.69  0.  0.  0.
471  4.70  0.  0.  0.
472  4.71  0.  0.  0.
473  4.72  0.  0.  0.
474  4.73  0.  0.  0.
475  4.74  0.  0.  0.
476  4.75  0.  0.  0.
477  4.76  0.  0.  0.
478  4.77  0.  0.  0.
479  4.78  0.  0.  0.
480  4.79  0.  0.  0.
481  4.80  0.  0.  0.
482  4.81  0.  0.  0.
483  4.82  0.  0.  0.
484  4.83  0.  0.  0.
485  4.84  0.  0.  0.
486  4.85  0.  0.  0.
487  4.86  0.  0.  0.
488  4.87  0.  0.  0.
489  4.88  0.  0.  0.
490  4.89  0.  0.  0.
491  4.90  0.  0.  0.
492  4.91  0.  0.  0.
493  4.92  0.  0.  0.
494  4.93  0.  0.  0.
495  4.94  0.  0.  0.
496  4.95  0.  0.  0.
497  4.96  0.  0.  0.
498  4.97  0.  0.  0.
499  4.98  0.  0.  0.
500  4.99  0.  0.  0.
501  5.00  0.  0.  0.
502  5.01  0.  0.  0.
503  5.02  0.  0.  0.
504  5.03  0.  0.  0.
505  5.04  0.  0.  0.
506  5.05  0.  0.  0.
507  5.06  0.  0.  0.
508  5.07  0.  0.  0.
509  5.08  0.  0.  0.
510  5.09  0.  0.  0.
511  5.10  0.  0.  0.
512  5.11  0.  0.  0.
513  5.12  0.  0.  0.
514  5.13  0.  0.  0.
515  5.14  0.  0.  0.
516  5.15  0.  0.  0.
517  5.16  0.  0.  0.
518  5.17  0.  0.  0.
519  5.18  0.  0.  0.
520  5.19  0.  0.  0.
521  5.20  0.  0.  0.
522  5.21  0.  0.  0.
523  5.22  0.  0.  0.
524  5.23  0.  0.  0.
525  5.24  0.  0.  0.
526  5.25  0.  0.  0.
527  5.26  0.  0.  0.
528  5.27  0.  0.  0.
529  5.28  0.  0.  0.
530  5.29  0.  0.  0.
531  5.30  0.  0.  0.
532  5.31  0.  0.  0.
533  5.32  0.  0.  0.
534  5.33  0.  0.  0.
535  5.34  0.  0.  0.
536  5.35  0.  0.  0.
537  5.36  0.  0.  0.
538  5.37  0.  0.  0.
539  5.38  0.  0.  0.
540  5.39  0.  0.  0.
541  5.40  0.  0.  0.
542  5.41  0.  0.  0.
543  5.42  0.  0.  0.
544  5.43  0.  0.  0.
545  5.44  0.  0.  0.
546  5.45  0.  0.  0.
547  5.46  0.  0.  0.
548  5.47  0.  0.  0.
549  5.48  0.  0.  0.
550  5.49  0.  0.  0.
551  5.50  0.  0.  0.
552  5.51  0.  0.  0.
553  5.52  0.  0.  0.
554  5.53  0.  0.  0.
555  5.54  0.  0.  0.
556  5.55  0.  0.  0.
557  5.56  0.  0.  0.
558  5.57  0.  0.  0.
559  5.58  0.  0.  0.
560  5.59  0.  0.  0.
561  5.60  0.  0.  0.
562  5.61  0.  0.  0.
563  5.62  0.  0.  0.
564  5.63  0.  0.  0.
565  5.64  0.  0.  0.
566  5.65  0.  0.  0.
567  5.66  0.  0.  0.
568  5.67  0.  0.  0.
569  5.68  0.  0.  0.
570  5.69  0.  0.  0.
571  5.70  0.  0.  0.
572  5.71  0.  0.  0.
573  5.72  0.  0.  0.
574  5.73  0.  0.  0.
575  5.74  0.  0.  0.
576  5.75  0.  0.  0.
577  5.76  0.  0.  0.
578  5.77  0.  0.  0.
579  5.78  0.  0.  0.
580  5.79  0.  0.  0.
581  5.80  0.  0.  0.
582  5.81  0.  0.  0.
583  5.82  0.  0.  0.
584  5.83  0.  0.  0.
585  5.84  0.  0.  0.
586  5.85  0.  0.  0.
587  5.86  0.  0.  0.
588  5.87  0.  0.  0.
589  5.88  0.  0.  0.
590  5.89  0.  0.  0.
591  5.90  0.  0.  0.
592  5.91  0.  0.  0.
593  5.92  0.  0.  0.
594  5.93  0.  0.  0.
595  5.94  0.  0.  0.
596  5.95  0.  0.  0.
597  5.96  0.  0.  0.
598  5.97  0.  0.  0.
599  5.98  0.  0.  0.
600  5.99  0.  0.  0.
1                         7.6005487654784E+00 -1.9459619260221E+00
1  0.0000000000000E+00 -1.1308784686470E-08 -1.1910128366183E-08
2  1.0000000000000E-02  4.6902885968183E-03  3.5277932660159E-04
3  2.0000000000000E-02  1.8720911068165E-02  1.4189299008547E-03
4  3.0000000000000E-02  4.1971257400825E-02  3.2216440652544E-03
5  4.0000000000000E-02  7.4240720158184E-02  5.7987658229317E-03
6  5.0000000000000E-02  1.1524934089512E-01  9.2016045106972E-03
7  6.0000000000000E-02  1.6463877844145E-01  1.3493329926927E-02
8  7.0000000000000E-02  2.2197365829615E-01  1.8747002458050E-02
9  8.0000000000000E-02  2.8674337368332E-01  2.5043303657528E-02
10  9.0000000000000E-02  3.5836441622919E-01  3.2468042272430E-02
11  1.0000000000000E-01  4.3618331719327E-01  4.1109517541351E-02
12  1.1000000000000E-01  5.1948027837278E-01  5.1055825460227E-02
13  1.2000000000000E-01  6.0747356504058E-01  6.2392194494319E-02
14  1.3000000000000E-01  6.9932472161981E-01  7.5198434883774E-02
15  1.4000000000000E-01  7.9414465449751E-01  8.9546580340705E-02
16  1.5000000000000E-01  8.9100060588585E-01  1.0549879277210E-01
17  1.6000000000000E-01  9.8892401859025E-01  1.2310558999530E-01
18  1.7000000000000E-01  1.0869192647377E+00  1.4240444364362E-01
19  1.8000000000000E-01  1.1839731828900E+00  1.6341878007026E-01
20  1.9000000000000E-01  1.2790653385512E+00  1.8615740159270E-01
21  2.0000000000000E-01  1.3711788939752E+00  2.1061432945983E-01
22  2.1000000000000E-01  1.4593119455118E+00  2.3676905407564E-01
23  2.2000000000000E-01  1.5424891615980E+00  2.6458716287660E-01
24  2.3000000000000E-01  1.6197735329581E+00  2.9402130241185E-01
25  2.4000000000000E-01  1.6902780295497E+00  3.2501241914637E-01
26  2.5000000000000E-01  1.7531769471016E+00  3.5749121375931E-01
27  2.6000000000000E-01  1.8077167203616E+00  3.9137973662266E-01
28  2.7000000000000E-01  1.8532259808399E+00  4.2659304799838E-01
29  2.8000000000000E-01  1.8891246441286E+00  4.6304086545294E-01
30  2.9000000000000E-01  1.9149318257732E+00  5.0062912310972E-01
31  3.0000000000000E-01  1.9302724049434E+00  5.3926137257012E-01
32  3.1000000000000E-01  1.9348820813044E+00  5.7883996344608E-01
33  3.2000000000000E-01  1.9286108018562E+00  6.1926695215623E-01
34  3.3000000000000E-01  1.9114244701870E+00  6.6044470054108E-01
35  3.4000000000000E-01  1.8834048895357E+00  7.0227614045440E-01
36  3.5000000000000E-01  1.8447479320924E+00  7.4466469622315E-01
37  3.6000000000000E-01  1.7957599688062E+00  7.8751387312229E-01
38  3.7000000000000E-01  1.7368526353018E+00  8.3072653613972E-01
39  3.8000000000000E-01  1.6685360489978E+00  8.7420391866370E-01
40  3.9000000000000E-01  1.5914106289087E+00  9.1784441468611E-01
41  4.0000000000000E-01  1.5061577017008E+00  9.6154222009815E-01
42  4.1000000000000E-01  1.4135291043277E+00  1.0051858981496E+00
43  4.2000000000000E-01  1.3143360141157E+00  1.0486569507242E+00
44  4.3000000000000E-01  1.2094372508422E+00  1.0918284804355E+00
45  4.4000000000000E-01  1.0997273017305E+00  1.1345640284696E+00
46  4.5000000000000E-01  9.8612431919349E-01  1.1767166695294E+00
47  4.6000000000000E-01  8.6955833267960E-01  1.2181284382300E+00
48  4.7000000000000E-01  7.5095990046834E-01  1.2586301510604E+00
49  4.8000000000000E-01  6.3124940530666E-01  1.2980416748843E+00
50  4.9000000000000E-01  5.1132717021212E-01  1.3361726773590E+00
51  5.0000000000000E-01  3.9206453861115E-01  1.3728238771394E+00
52  5.1000000000000E-01  2.7429602742074E-01  1.4077887929493E+00
53  5.2000000000000E-01  1.5881262403100E-01  1.4408559712359E+00
54  5.3000000000000E-01  4.6356259781434E-02  1.4718116528939E+00
55  5.4000000000000E-01 -6.2384545150731E-02  1.5004428212112E+00
56  5.5000000000000E-01 -1.6677790614840E-01  1.5265405564460E+00
57  5.6000000000000E-01 -2.6625074081164E-01  1.5499036079853E+00
58  5.7000000000000E-01 -3.6028997862905E-01  1.5703420834422E+00
59  5.8000000000000E-01 -4.4844293673719E-01  1.5876811458323E+00
60  5.9000000000000E-01 -5.3031700094424E-01  1.6017646055127E+00
61  6.0000000000000E-01 -6.0557876057260E-01  1.6124582931041E+00
62  6.1000000000000E-01 -6.7395274809585E-01  1.6196531032715E+00
63  6.2000000000000E-01 -7.3521993005013E-01  1.6232676069367E+00
64  6.3000000000000E-01 -7.8921608461405E-01  1.6232501410470E+00
65  6.4000000000000E-01 -8.3583018416725E-01  1.6195803000673E+00
66  6.5000000000000E-01 -8.7500287889754E-01  1.6122697714101E+00
67  6.6000000000000E-01 -9.0672515118819E-01  1.6013624774528E+00
68  6.7000000000000E-01 -9.3103718131270E-01  1.5869340089096E+00
69  6.8000000000000E-01 -9.4802743425502E-01  1.5690903573306E+00
70  6.9000000000000E-01 -9.5783194669549E-01  1.5479659775708E+00
71  7.0000000000000E-01 -9.6063376380158E-01  1.5237212333555E+00
72  7.1000000000000E-01 -9.5666244885382E-01  1.4965392997370E+00
73  7.2000000000000E-01 -9.4619356621861E-01  1.4666226145106E+00
74  7.3000000000000E-01 -9.2954802090990E-01  1.4341889858405E+00
75  7.4000000000000E-01 -9.0709112690004E-01  1.3994674748296E+00
76  7.5000000000000E-01 -8.7923127214792E-01  1.3626941791094E+00
77  7.6000000000000E-01 -8.4641805142356E-01  1.3241080463929E+00
78  7.7000000000000E-01 -8.0913974853772E-01  1.2839468451923E+00
79  7.8000000000000E-01 -7.6792006733089E-01  1.2424434135665E+00
80  7.9000000000000E-01 -7.2331403522535E-01  1.1998222960374E+00
81  8.0000000000000E-01 -6.7590303348359E-01  1.1562968640531E+00
82  8.1000000000000E-01 -6.2628894346081E-01  1.1120669971107E+00
83  8.2000000000000E-01 -5.7508743676542E-01  1.0673173805384E+00
84  8.3000000000000E-01 -5.2292047783683E-01  1.0222164527557E+00
85  8.4000000000000E-01 -4.7040814836322E-01  9.7691601044140E-01
86  8.5000000000000E-01 -4.1815994246953E-01  9.3155145538220E-01
87  8.6000000000000E-01 -3.6676571796880E-01  8.8624264277807E-01
88  8.7000000000000E-01 -3.1678652050388E-01  8.4109526840784E-01
89  8.8000000000000E-01 -2.6874552254201E-01  7.9620271218992E-01
90  8.9000000000000E-01 -2.2311933653124E-01  7.5164823914237E-01
91  9.0000000000000E-01 -1.8032996992200E-01  7.0750744626680E-01
92  9.1000000000000E-01 -1.4073768831387E-01  6.6385083604025E-01
93  9.2000000000000E-01 -1.0463504113591E-01  6.2074639443340E-01
94  9.3000000000000E-01 -7.2242281766006E-02  5.7826205395115E-01
95  9.4000000000000E-01 -4.3704380959819E-02  5.3646793020489E-01
96  9.5000000000000E-01 -1.9089789351430E-02  4.9543823388697E-01
97  9.6000000000000E-01  1.6089475976410E-03  4.5525277846833E-01
98  9.7000000000000E-01  1.8472679358518E-02  4.1599802704301E-01
99  9.8000000000000E-01  3.1651269272000E-02  3.7776764893039E-01
100  9.9000000000000E-01  4.1357439581105E-02  3.4066258720371E-01
101  1.0000000000000E+00  4.7859015262875E-02  3.0479067143126E-01
102  1.0100000000000E+00  5.1469816515700E-02  2.7026584468682E-01
103  1.0200000000000E+00  5.2539526370379E-02  2.3720710941238E-01
104  1.0300000000000E+00  5.1442933886366E-02  2.0573733200866E-01
105  1.0400000000000E+00  4.8569022848871E-02  1.7598208014895E-01
106  1.0500000000000E+00  4.4310439098057E-02  1.4806869891991E-01
107  1.0600000000000E+00  3.9053924884367E-02  1.2212586112389E-01
108  1.0700000000000E+00  3.3172354597849E-02  9.8283852709121E-02
109  1.0800000000000E+00  2.7018989348929E-02  7.6675854542910E-02
110  1.0900000000000E+00  2.0925088431852E-02  5.7440695660274E-02
111  1.1000000000000E+00  1.5177586082979E-02  4.0716868062690E-02
112  1.1100000000000E+00  1.0016248626255E-02  2.6642175390871E-02
113  1.1200000000000E+00  5.7582226955969E-03  1.5407175845370E-02
114  1.1300000000000E+00  2.6244879590084E-03  7.1669559932786E-03
115  1.1400000000000E+00  7.1255914375577E-04  2.0158510971016E-03
116  1.1500000000000E+00  1.8878799523416E-05  5.6459910430688E-05
117  1.1600000000000E+00  3.0294164157801E-06  8.9541693443396E-06
118  1.1700000000000E+00 -5.3778968734961E-07 -1.5559284793519E-06
119  1.18  0.  0.
120  1.19  0.  0.
121  1.20  0.  0.
122  1.21  0.  0.
123  1.22  0.  0.
124  1.23  0.  0.
125  1.24  0.  0.
126  1.25  0.  0.
127  1.26  0.  0.
128  1.27  0.  0.
129  1.28  0.  0.
130  1.29  0.  0.
131  1.30  0.  0.
132  1.31  0.  0.
133  1.32  0.  0.
134  1.33  0.  0.
135  1.34  0.  0.
136  1.35  0.  0.
137  1.36  0.  0.
138  1.37  0.  0.
139  1.38  0.  0.
140  1.39  0.  0.
141  1.40  0.  0.
142  1.41  0.  0.
143  1.42  0.  0.
144  1.43  0.  0.
145  1.44  0.  0.
146  1.45  0.  0.
147  1.46  0.  0.
148  1.47  0.  0.
149  1.48  0.  0.
150  1.49  0.  0.
151  1.50  0.  0.
152  1.51  0.  0.
153  1.52  0.  0.
154  1.53  0.  0.
155  1.54  0.  0.
156  1.55  0.  0.
157  1.56  0.  0.
158  1.57  0.  0.
159  1.58  0.  0.
160  1.59  0.  0.
161  1.60  0.  0.
162  1.61  0.  0.
163  1.62  0.  0.
164  1.63  0.  0.
165  1.64  0.  0.