Fm    ONCVPSP-4.0.1  r_core=   1.15134   1.15134   1.33706   1.35316
    100.0000     40.0000      211211    zatom,zion,pspd
     8      11   3     4   600     0    pspcod,pspxc,lmax,lloc,mmax,r2well
  5.99000000  5.00000000  0.00000000    rchrg fchrg qchrg
     3     2     2     2     0    nproj
     1     1           extension_switch
   0                         2.4549540299786E+01  2.5611914758610E+00 -2.0910248029890E+00
     1  0.0000000000000E+00 -5.0361335768301E-08  1.8422015318764E-07 -1.0672833616887E-08
     2  1.0000000000000E-02  1.6717097515031E-01 -6.8845660327418E-02  3.8074756214052E-02
     3  2.0000000000000E-02  3.3304537544583E-01 -1.3592962608358E-01  7.5972253267988E-02
     4  3.0000000000000E-02  4.9634363223944E-01 -1.9953444348871E-01  1.1351834538650E-01
     5  4.0000000000000E-02  6.5581977888723E-01 -2.5802972845125E-01  1.5054503067467E-01
     6  5.0000000000000E-02  8.1027723956912E-01 -3.0991222233874E-01  1.8689331878878E-01
     7  6.0000000000000E-02  9.5858344175555E-01 -3.5384181283290E-01  2.2241586163675E-01
     8  7.0000000000000E-02  1.0996829224484E+00 -3.8867240259984E-01  2.5697928136076E-01
     9  8.0000000000000E-02  1.2326086486860E+00 -4.1347669272640E-01  2.9046614052697E-01
    10  9.0000000000000E-02  1.3564913321478E+00 -4.2756416494990E-01  3.2277651197421E-01
    11  1.0000000000000E-01  1.4705665838262E+00 -4.3049178856478E-01  3.5382911965796E-01
    12  1.1000000000000E-01  1.5741798251953E+00 -4.2206723555326E-01  3.8356203652292E-01
    13  1.2000000000000E-01  1.6667889445041E+00 -4.0234465139095E-01  4.1193294036646E-01
    14  1.3000000000000E-01  1.7479647580917E+00 -3.7161328934833E-01  4.3891894323229E-01
    15  1.4000000000000E-01  1.8173894043455E+00 -3.3037956331635E-01  4.6451602352825E-01
    16  1.5000000000000E-01  1.8748528596404E+00 -2.7934329910249E-01  4.8873810226426E-01
    17  1.6000000000000E-01  1.9202478190640E+00 -2.1936915851345E-01  5.1161581508617E-01
    18  1.7000000000000E-01  1.9535632280443E+00 -1.5145436724640E-01  5.3319503974916E-01
    19  1.8000000000000E-01  1.9748767826349E+00 -7.6693990981158E-02  5.5353524403561E-01
    20  1.9000000000000E-01  1.9843467351167E+00  3.7549299363609E-03  5.7270772169089E-01
    21  2.0000000000000E-01  1.9822033471613E+00  8.8709060451121E-02  5.9079378365522E-01
    22  2.1000000000000E-01  1.9687403250309E+00  1.7699297223089E-01  6.0788296875801E-01
    23  2.2000000000000E-01  1.9443065505892E+00  2.6747065548145E-01  6.2407133227758E-01
    24  2.3000000000000E-01  1.9092983892522E+00  3.5907325723420E-01  6.3945986262870E-01
    25  2.4000000000000E-01  1.8641528127993E+00  4.5082212945045E-01  6.5415306629669E-01
    26  2.5000000000000E-01  1.8093415230334E+00  5.4184647103721E-01  6.6825774944866E-01
    27  2.6000000000000E-01  1.7453662037625E+00  6.3139507431188E-01  6.8188201194454E-01
    28  2.7000000000000E-01  1.6727549658824E+00  7.1884192979339E-01  6.9513445630971E-01
    29  2.8000000000000E-01  1.5920599860322E+00  8.0368569403906E-01  7.0812360120842E-01
    30  2.9000000000000E-01  1.5038562759933E+00  8.8554327389817E-01  7.2095747665738E-01
    31  3.0000000000000E-01  1.4087414602810E+00  9.6413801743976E-01  7.3374336720084E-01
    32  3.1000000000000E-01  1.3073363856801E+00  1.0392832178185E+00  7.4658766003908E-01
    33  3.2000000000000E-01  1.2002863409908E+00  1.1108618231555E+00  7.5959574809555E-01
    34  3.3000000000000E-01  1.0882626298608E+00  1.1788033959508E+00  7.7287193356795E-01
    35  3.4000000000000E-01  9.7196421575597E-01  1.2430594738369E+00  7.8651927587049E-01
    36  3.5000000000000E-01  8.5211914689040E-01  1.3035785454619E+00  8.0063932915941E-01
    37  3.6000000000000E-01  7.2948547082495E-01  1.3602818685836E+00  8.1533171883591E-01
    38  3.7000000000000E-01  6.0485136345548E-01  1.4130413215493E+00  8.3069351341185E-01
    39  3.8000000000000E-01  4.7903422474277E-01  1.4616603956221E+00  8.4681835765312E-01
    40  3.9000000000000E-01  3.5287853277169E-01  1.5058593072954E+00  8.6379534462280E-01
    41  4.0000000000000E-01  2.2725229709060E-01  1.5452650417690E+00  8.8170761766859E-01
    42  4.1000000000000E-01  1.0304200989404E-01  1.5794069375903E+00  9.0063070799650E-01
    43  4.2000000000000E-01 -1.8853942745521E-02  1.6077181958231E+00  9.2063062864388E-01
    44  4.3000000000000E-01 -1.3753338019238E-01  1.6295434537451E+00  9.4176176077033E-01
    45  4.4000000000000E-01 -2.5209983956674E-01  1.6441523123305E+00  9.6406458257931E-01
    46  4.5000000000000E-01 -3.6167333713852E-01  1.6507584583353E+00  9.8756330423116E-01
    47  4.6000000000000E-01 -4.6540215285604E-01  1.6485437852416E+00  1.0122634832208E+00
    48  4.7000000000000E-01 -5.6247535692376E-01  1.6366867017793E+00  1.0381497033437E+00
    49  4.8000000000000E-01 -6.5213575129913E-01  1.6143936305814E+00  1.0651834061245E+00
    50  4.9000000000000E-01 -7.3369286394029E-01  1.5809325499665E+00  1.0933009661050E+00
    51  5.0000000000000E-01 -8.0653561110939E-01  1.5356673247647E+00  1.1224121004691E+00
    52  5.1000000000000E-01 -8.7014423405045E-01  1.4780915117175E+00  1.1523986990480E+00
    53  5.2000000000000E-01 -9.2410112145361E-01  1.4078603138110E+00  1.1831141528527E+00
    54  5.3000000000000E-01 -9.6810014829073E-01  1.3248193965423E+00  1.2143832481189E+00
    55  5.4000000000000E-01 -1.0019541943424E+00  1.2290293663362E+00  1.2460026787467E+00
    56  5.5000000000000E-01 -1.0256005510058E+00  1.1207848440468E+00  1.2777422134083E+00
    57  5.6000000000000E-01 -1.0391039812782E+00  1.0006272399073E+00  1.3093465350332E+00
    58  5.7000000000000E-01 -1.0426572632459E+00  8.6935054415838E-01  1.3405377504837E+00
    59  5.8000000000000E-01 -1.0365791197275E+00  7.2799968229908E-01  1.3710185476891E+00
    60  5.9000000000000E-01 -1.0213095134132E+00  5.7786123693222E-01  1.4004759570374E+00
    61  6.0000000000000E-01 -9.9740236525939E-01  4.2044660030915E-01  1.4285856541438E+00
    62  6.1000000000000E-01 -9.6551583130087E-01  2.5746788339744E-01  1.4550167229411E+00
    63  6.2000000000000E-01 -9.2640034676402E-01  9.0807159153214E-02  1.4794367820054E+00
    64  6.3000000000000E-01 -8.8088471385143E-01 -7.7520149388944E-02  1.5015173637390E+00
    65  6.4000000000000E-01 -8.2986056851985E-01 -2.4540671989030E-01  1.5209394259471E+00
    66  6.5000000000000E-01 -7.7426560999497E-01 -4.1069843282575E-01  1.5373988688506E+00
    67  6.6000000000000E-01 -7.1506601305608E-01 -5.7124180668128E-01  1.5506119279085E+00
    68  6.7000000000000E-01 -6.5323846612003E-01 -7.2493236213389E-01  1.5603203140847E+00
    69  6.8000000000000E-01 -5.8975228717504E-01 -8.6976247298607E-01  1.5662959783546E+00
    70  6.9000000000000E-01 -5.2555206448026E-01 -1.0038672722375E+00  1.5683453861349E+00
    71  7.0000000000000E-01 -4.6154124996665E-01 -1.1255672403390E+00  1.5663131996267E+00
    72  7.1000000000000E-01 -3.9856710124972E-01 -1.2334062069485E+00  1.5600852813714E+00
    73  7.2000000000000E-01 -3.3740732431780E-01 -1.3261836434322E+00  1.5495909501128E+00
    74  7.3000000000000E-01 -2.7875871492358E-01 -1.4029803054860E+00  1.5348044397268E+00
    75  7.4000000000000E-01 -2.2322803441223E-01 -1.4631764970131E+00  1.5157455328734E+00
    76  7.5000000000000E-01 -1.7132528735490E-01 -1.5064624602701E+00  1.4924793624561E+00
    77  7.6000000000000E-01 -1.2345949626114E-01 -1.5328406451180E+00  1.4651153952428E+00
    78  7.7000000000000E-01 -7.9936995224938E-02 -1.5426198635443E+00  1.4338056324466E+00
    79  7.8000000000000E-01 -4.0962192002352E-02 -1.5364015859819E+00  1.3987420810648E+00
    80  7.9000000000000E-01 -6.6406790111744E-03 -1.5150588751565E+00  1.3601535667601E+00
    81  8.0000000000000E-01  2.3015489821406E-02 -1.4797086736662E+00  1.3183019735959E+00
    82  8.1000000000000E-01  4.8080595711296E-02 -1.4316783564702E+00  1.2734780076225E+00
    83  8.2000000000000E-01  6.8706411960097E-02 -1.3724676231991E+00  1.2259965899180E+00
    84  8.3000000000000E-01  8.5112045397545E-02 -1.3037069331693E+00  1.1761919900759E+00
    85  8.4000000000000E-01  9.7572813108198E-02 -1.2271137749374E+00  1.1244128132876E+00
    86  8.5000000000000E-01  1.0640852051786E-01 -1.1444481102670E+00  1.0710169531976E+00
    87  8.6000000000000E-01  1.1197151085263E-01 -1.0574683389122E+00  1.0163666188021E+00
    88  8.7000000000000E-01  1.1463484884468E-01 -9.6788909633499E-01  9.6082353712258E-01
    89  8.8000000000000E-01  1.1478098393491E-01 -8.7734212317523E-01  9.0474442456976E-01
    90  8.9000000000000E-01  1.1279121095400E-01 -7.8734133576350E-01  8.4847680923476E-01
    91  9.0000000000000E-01  1.0903621040214E-01 -6.9925308478368E-01  7.9235527425012E-01
    92  9.1000000000000E-01  1.0386790716374E-01 -6.1427241843462E-01  7.3669817929633E-01
    93  9.2000000000000E-01  9.7612837035120E-02 -5.3340597155434E-01  6.8180490372248E-01
    94  9.3000000000000E-01  9.0567156022181E-02 -4.5746188755746E-01  6.2795364098906E-01
    95  9.4000000000000E-01  8.2993369152325E-02 -3.8704695004750E-01  5.7539976055738E-01
    96  9.5000000000000E-01  7.5118794526606E-02 -3.2257085938694E-01  5.2437474019098E-01
    97  9.6000000000000E-01  6.7135715327445E-02 -2.6425733959350E-01  4.7508565905580E-01
    98  9.7000000000000E-01  5.9203108065221E-02 -2.1216150516135E-01  4.2771523006367E-01
    99  9.8000000000000E-01  5.1449769744190E-02 -1.6619265717998E-01  3.8242233853437E-01
   100  9.9000000000000E-01  4.3978599845935E-02 -1.2614141398954E-01  3.3934304328898E-01
   101  1.0000000000000E+00  3.6871724698128E-02 -9.1709812875885E-02  2.9859198544621E-01
   102  1.0100000000000E+00  3.0196081292999E-02 -6.2542744410514E-02  2.6026413909127E-01
   103  1.0200000000000E+00  2.4009003885425E-02 -3.8258796856760E-02  2.2443682612775E-01
   104  1.0300000000000E+00  1.8363278535887E-02 -1.8478291028150E-02  1.9117190444126E-01
   105  1.0400000000000E+00  1.3311046683887E-02 -2.8459714566890E-03  1.6051802336544E-01
   106  1.0500000000000E+00  8.9058469851254E-03  8.9545182949792E-03  1.3251282262280E-01
   107  1.0600000000000E+00  5.2019831407307E-03  1.7197615938944E-02  1.0718492967004E-01
   108  1.0700000000000E+00  2.2502924884638E-03  2.2127919244182E-02  8.4555585009158E-02
   109  1.0800000000000E+00  8.9205788213739E-05  2.3991632546101E-02  6.4639649488040E-02
   110  1.0900000000000E+00 -1.2696117550410E-03  2.3090461878756E-02  4.7446136329424E-02
   111  1.1000000000000E+00 -1.8872458329647E-03  1.9941680855152E-02  3.2957403194878E-02
   112  1.1100000000000E+00 -1.9319987323672E-03  1.5412510750269E-02  2.1119959928565E-02
   113  1.1200000000000E+00 -1.5467428436420E-03  1.0283192322567E-02  1.1955089195641E-02
   114  1.1300000000000E+00 -9.3146479120730E-04  5.4231199477303E-03  5.4402549663559E-03
   115  1.1400000000000E+00 -3.2470006760463E-04  1.7052037473561E-03  1.4961794634012E-03
   116  1.1500000000000E+00 -1.1085574000632E-05  5.3188071082137E-05  4.0877782938932E-05
   117  1.1600000000000E+00 -1.7130386514198E-06  8.3290745809820E-06  6.5032889749560E-06
   118  1.1700000000000E+00  2.7466528951566E-07 -1.3833069115587E-06 -1.1421498750302E-06
   119  1.18  0.  0.  0.
   120  1.19  0.  0.  0.
   121  1.20  0.  0.  0.
   122  1.21  0.  0.  0.
   123  1.22  0.  0.  0.
   124  1.23  0.  0.  0.
   125  1.24  0.  0.  0.
   126  1.25  0.  0.  0.
   127  1.26  0.  0.  0.
   128  1.27  0.  0.  0.
   129  1.28  0.  0.  0.
   130  1.29  0.  0.  0.
   131  1.30  0.  0.  0.
   132  1.31  0.  0.  0.
   133  1.32  0.  0.  0.
   134  1.33  0.  0.  0.
   135  1.34  0.  0.  0.
   136  1.35  0.  0.  0.
   137  1.36  0.  0.  0.
   138  1.37  0.  0.  0.
   139  1.38  0.  0.  0.
   140  1.39  0.  0.  0.
   141  1.40  0.  0.  0.
   142  1.41  0.  0.  0.
   143  1.42  0.  0.  0.
   144  1.43  0.  0.  0.
   145  1.44  0.  0.  0.
   146  1.45  0.  0.  0.
   147  1.46  0.  0.  0.
   148  1.47  0.  0.  0.
   149  1.48  0.  0.  0.
   150  1.49  0.  0.  0.
   151  1.50  0.  0.  0.
   152  1.51  0.  0.  0.
   153  1.52  0.  0.  0.
   154  1.53  0.  0.  0.
   155  1.54  0.  0.  0.
   156  1.55  0.  0.  0.
   157  1.56  0.  0.  0.
   158  1.57  0.  0.  0.
   159  1.58  0.  0.  0.
   160  1.59  0.  0.  0.
   161  1.60  0.  0.  0.
   162  1.61  0.  0.  0.
   163  1.62  0.  0.  0.
   164  1.63  0.  0.  0.
   165  1.64  0.  0.  0.
   166  1.65  0.  0.  0.
   167  1.66  0.  0.  0.
   168  1.67  0.  0.  0.
   169  1.68  0.  0.  0.
   170  1.69  0.  0.  0.
   171  1.70  0.  0.  0.
   172  1.71  0.  0.  0.
   173  1.72  0.  0.  0.
   174  1.73  0.  0.  0.
   175  1.74  0.  0.  0.
   176  1.75  0.  0.  0.
   177  1.76  0.  0.  0.
   178  1.77  0.  0.  0.
   179  1.78  0.  0.  0.
   180  1.79  0.  0.  0.
   181  1.80  0.  0.  0.
   182  1.81  0.  0.  0.
   183  1.82  0.  0.  0.
   184  1.83  0.  0.  0.
   185  1.84  0.  0.  0.
   186  1.85  0.  0.  0.
   187  1.86  0.  0.  0.
   188  1.87  0.  0.  0.
   189  1.88  0.  0.  0.
   190  1.89  0.  0.  0.
   191  1.90  0.  0.  0.
   192  1.91  0.  0.  0.
   193  1.92  0.  0.  0.
   194  1.93  0.  0.  0.
   195  1.94  0.  0.  0.
   196  1.95  0.  0.  0.
   197  1.96  0.  0.  0.
   198  1.97  0.  0.  0.
   199  1.98  0.  0.  0.
   200  1.99  0.  0.  0.
   201  2.00  0.  0.  0.
   202  2.01  0.  0.  0.
   203  2.02  0.  0.  0.
   204  2.03  0.  0.  0.
   205  2.04  0.  0.  0.
   206  2.05  0.  0.  0.
   207  2.06  0.  0.  0.
   208  2.07  0.  0.  0.
   209  2.08  0.  0.  0.
   210  2.09  0.  0.  0.
   211  2.10  0.  0.  0.
   212  2.11  0.  0.  0.
   213  2.12  0.  0.  0.
   214  2.13  0.  0.  0.
   215  2.14  0.  0.  0.
   216  2.15  0.  0.  0.
   217  2.16  0.  0.  0.
   218  2.17  0.  0.  0.
   219  2.18  0.  0.  0.
   220  2.19  0.  0.  0.
   221  2.20  0.  0.  0.
   222  2.21  0.  0.  0.
   223  2.22  0.  0.  0.
   224  2.23  0.  0.  0.
   225  2.24  0.  0.  0.
   226  2.25  0.  0.  0.
   227  2.26  0.  0.  0.
   228  2.27  0.  0.  0.
   229  2.28  0.  0.  0.
   230  2.29  0.  0.  0.
   231  2.30  0.  0.  0.
   232  2.31  0.  0.  0.
   233  2.32  0.  0.  0.
   234  2.33  0.  0.  0.
   235  2.34  0.  0.  0.
   236  2.35  0.  0.  0.
   237  2.36  0.  0.  0.
   238  2.37  0.  0.  0.
   239  2.38  0.  0.  0.
   240  2.39  0.  0.  0.
   241  2.40  0.  0.  0.
   242  2.41  0.  0.  0.
   243  2.42  0.  0.  0.
   244  2.43  0.  0.  0.
   245  2.44  0.  0.  0.
   246  2.45  0.  0.  0.
   247  2.46  0.  0.  0.
   248  2.47  0.  0.  0.
   249  2.48  0.  0.  0.
   250  2.49  0.  0.  0.
   251  2.50  0.  0.  0.
   252  2.51  0.  0.  0.
   253  2.52  0.  0.  0.
   254  2.53  0.  0.  0.
   255  2.54  0.  0.  0.
   256  2.55  0.  0.  0.
   257  2.56  0.  0.  0.
   258  2.57  0.  0.  0.
   259  2.58  0.  0.  0.
   260  2.59  0.  0.  0.
   261  2.60  0.  0.  0.
   262  2.61  0.  0.  0.
   263  2.62  0.  0.  0.
   264  2.63  0.  0.  0.
   265  2.64  0.  0.  0.
   266  2.65  0.  0.  0.
   267  2.66  0.  0.  0.
   268  2.67  0.  0.  0.
   269  2.68  0.  0.  0.
   270  2.69  0.  0.  0.
   271  2.70  0.  0.  0.
   272  2.71  0.  0.  0.
   273  2.72  0.  0.  0.
   274  2.73  0.  0.  0.
   275  2.74  0.  0.  0.
   276  2.75  0.  0.  0.
   277  2.76  0.  0.  0.
   278  2.77  0.  0.  0.
   279  2.78  0.  0.  0.
   280  2.79  0.  0.  0.
   281  2.80  0.  0.  0.
   282  2.81  0.  0.  0.
   283  2.82  0.  0.  0.
   284  2.83  0.  0.  0.
   285  2.84  0.  0.  0.
   286  2.85  0.  0.  0.
   287  2.86  0.  0.  0.
   288  2.87  0.  0.  0.
   289  2.88  0.  0.  0.
   290  2.89  0.  0.  0.
   291  2.90  0.  0.  0.
   292  2.91  0.  0.  0.
   293  2.92  0.  0.  0.
   294  2.93  0.  0.  0.
   295  2.94  0.  0.  0.
   296  2.95  0.  0.  0.
   297  2.96  0.  0.  0.
   298  2.97  0.  0.  0.
   299  2.98  0.  0.  0.
   300  2.99  0.  0.  0.
   301  3.00  0.  0.  0.
   302  3.01  0.  0.  0.
   303  3.02  0.  0.  0.
   304  3.03  0.  0.  0.
   305  3.04  0.  0.  0.
   306  3.05  0.  0.  0.
   307  3.06  0.  0.  0.
   308  3.07  0.  0.  0.
   309  3.08  0.  0.  0.
   310  3.09  0.  0.  0.
   311  3.10  0.  0.  0.
   312  3.11  0.  0.  0.
   313  3.12  0.  0.  0.
   314  3.13  0.  0.  0.
   315  3.14  0.  0.  0.
   316  3.15  0.  0.  0.
   317  3.16  0.  0.  0.
   318  3.17  0.  0.  0.
   319  3.18  0.  0.  0.
   320  3.19  0.  0.  0.
   321  3.20  0.  0.  0.
   322  3.21  0.  0.  0.
   323  3.22  0.  0.  0.
   324  3.23  0.  0.  0.
   325  3.24  0.  0.  0.
   326  3.25  0.  0.  0.
   327  3.26  0.  0.  0.
   328  3.27  0.  0.  0.
   329  3.28  0.  0.  0.
   330  3.29  0.  0.  0.
   331  3.30  0.  0.  0.
   332  3.31  0.  0.  0.
   333  3.32  0.  0.  0.
   334  3.33  0.  0.  0.
   335  3.34  0.  0.  0.
   336  3.35  0.  0.  0.
   337  3.36  0.  0.  0.
   338  3.37  0.  0.  0.
   339  3.38  0.  0.  0.
   340  3.39  0.  0.  0.
   341  3.40  0.  0.  0.
   342  3.41  0.  0.  0.
   343  3.42  0.  0.  0.
   344  3.43  0.  0.  0.
   345  3.44  0.  0.  0.
   346  3.45  0.  0.  0.
   347  3.46  0.  0.  0.
   348  3.47  0.  0.  0.
   349  3.48  0.  0.  0.
   350  3.49  0.  0.  0.
   351  3.50  0.  0.  0.
   352  3.51  0.  0.  0.
   353  3.52  0.  0.  0.
   354  3.53  0.  0.  0.
   355  3.54  0.  0.  0.
   356  3.55  0.  0.  0.
   357  3.56  0.  0.  0.
   358  3.57  0.  0.  0.
   359  3.58  0.  0.  0.
   360  3.59  0.  0.  0.
   361  3.60  0.  0.  0.
   362  3.61  0.  0.  0.
   363  3.62  0.  0.  0.
   364  3.63  0.  0.  0.
   365  3.64  0.  0.  0.
   366  3.65  0.  0.  0.
   367  3.66  0.  0.  0.
   368  3.67  0.  0.  0.
   369  3.68  0.  0.  0.
   370  3.69  0.  0.  0.
   371  3.70  0.  0.  0.
   372  3.71  0.  0.  0.
   373  3.72  0.  0.  0.
   374  3.73  0.  0.  0.
   375  3.74  0.  0.  0.
   376  3.75  0.  0.  0.
   377  3.76  0.  0.  0.
   378  3.77  0.  0.  0.
   379  3.78  0.  0.  0.
   380  3.79  0.  0.  0.
   381  3.80  0.  0.  0.
   382  3.81  0.  0.  0.
   383  3.82  0.  0.  0.
   384  3.83  0.  0.  0.
   385  3.84  0.  0.  0.
   386  3.85  0.  0.  0.
   387  3.86  0.  0.  0.
   388  3.87  0.  0.  0.
   389  3.88  0.  0.  0.
   390  3.89  0.  0.  0.
   391  3.90  0.  0.  0.
   392  3.91  0.  0.  0.
   393  3.92  0.  0.  0.
   394  3.93  0.  0.  0.
   395  3.94  0.  0.  0.
   396  3.95  0.  0.  0.
   397  3.96  0.  0.  0.
   398  3.97  0.  0.  0.
   399  3.98  0.  0.  0.
   400  3.99  0.  0.  0.
   401  4.00  0.  0.  0.
   402  4.01  0.  0.  0.
   403  4.02  0.  0.  0.
   404  4.03  0.  0.  0.
   405  4.04  0.  0.  0.
   406  4.05  0.  0.  0.
   407  4.06  0.  0.  0.
   408  4.07  0.  0.  0.
   409  4.08  0.  0.  0.
   410  4.09  0.  0.  0.
   411  4.10  0.  0.  0.
   412  4.11  0.  0.  0.
   413  4.12  0.  0.  0.
   414  4.13  0.  0.  0.
   415  4.14  0.  0.  0.
   416  4.15  0.  0.  0.
   417  4.16  0.  0.  0.
   418  4.17  0.  0.  0.
   419  4.18  0.  0.  0.
   420  4.19  0.  0.  0.
   421  4.20  0.  0.  0.
   422  4.21  0.  0.  0.
   423  4.22  0.  0.  0.
   424  4.23  0.  0.  0.
   425  4.24  0.  0.  0.
   426  4.25  0.  0.  0.
   427  4.26  0.  0.  0.
   428  4.27  0.  0.  0.
   429  4.28  0.  0.  0.
   430  4.29  0.  0.  0.
   431  4.30  0.  0.  0.
   432  4.31  0.  0.  0.
   433  4.32  0.  0.  0.
   434  4.33  0.  0.  0.
   435  4.34  0.  0.  0.
   436  4.35  0.  0.  0.
   437  4.36  0.  0.  0.
   438  4.37  0.  0.  0.
   439  4.38  0.  0.  0.
   440  4.39  0.  0.  0.
   441  4.40  0.  0.  0.
   442  4.41  0.  0.  0.
   443  4.42  0.  0.  0.
   444  4.43  0.  0.  0.
   445  4.44  0.  0.  0.
   446  4.45  0.  0.  0.
   447  4.46  0.  0.  0.
   448  4.47  0.  0.  0.
   449  4.48  0.  0.  0.
   450  4.49  0.  0.  0.
   451  4.50  0.  0.  0.
   452  4.51  0.  0.  0.
   453  4.52  0.  0.  0.
   454  4.53  0.  0.  0.
   455  4.54  0.  0.  0.
   456  4.55  0.  0.  0.
   457  4.56  0.  0.  0.
   458  4.57  0.  0.  0.
   459  4.58  0.  0.  0.
   460  4.59  0.  0.  0.
   461  4.60  0.  0.  0.
   462  4.61  0.  0.  0.
   463  4.62  0.  0.  0.
   464  4.63  0.  0.  0.
   465  4.64  0.  0.  0.
   466  4.65  0.  0.  0.
   467  4.66  0.  0.  0.
   468  4.67  0.  0.  0.
   469  4.68  0.  0.  0.
   470  4.69  0.  0.  0.
   471  4.70  0.  0.  0.
   472  4.71  0.  0.  0.
   473  4.72  0.  0.  0.
   474  4.73  0.  0.  0.
   475  4.74  0.  0.  0.
   476  4.75  0.  0.  0.
   477  4.76  0.  0.  0.
   478  4.77  0.  0.  0.
   479  4.78  0.  0.  0.
   480  4.79  0.  0.  0.
   481  4.80  0.  0.  0.
   482  4.81  0.  0.  0.
   483  4.82  0.  0.  0.
   484  4.83  0.  0.  0.
   485  4.84  0.  0.  0.
   486  4.85  0.  0.  0.
   487  4.86  0.  0.  0.
   488  4.87  0.  0.  0.
   489  4.88  0.  0.  0.
   490  4.89  0.  0.  0.
   491  4.90  0.  0.  0.
   492  4.91  0.  0.  0.
   493  4.92  0.  0.  0.
   494  4.93  0.  0.  0.
   495  4.94  0.  0.  0.
   496  4.95  0.  0.  0.
   497  4.96  0.  0.  0.
   498  4.97  0.  0.  0.
   499  4.98  0.  0.  0.
   500  4.99  0.  0.  0.
   501  5.00  0.  0.  0.
   502  5.01  0.  0.  0.
   503  5.02  0.  0.  0.
   504  5.03  0.  0.  0.
   505  5.04  0.  0.  0.
   506  5.05  0.  0.  0.
   507  5.06  0.  0.  0.
   508  5.07  0.  0.  0.
   509  5.08  0.  0.  0.
   510  5.09  0.  0.  0.
   511  5.10  0.  0.  0.
   512  5.11  0.  0.  0.
   513  5.12  0.  0.  0.
   514  5.13  0.  0.  0.
   515  5.14  0.  0.  0.
   516  5.15  0.  0.  0.
   517  5.16  0.  0.  0.
   518  5.17  0.  0.  0.
   519  5.18  0.  0.  0.
   520  5.19  0.  0.  0.
   521  5.20  0.  0.  0.
   522  5.21  0.  0.  0.
   523  5.22  0.  0.  0.
   524  5.23  0.  0.  0.
   525  5.24  0.  0.  0.
   526  5.25  0.  0.  0.
   527  5.26  0.  0.  0.
   528  5.27  0.  0.  0.
   529  5.28  0.  0.  0.
   530  5.29  0.  0.  0.
   531  5.30  0.  0.  0.
   532  5.31  0.  0.  0.
   533  5.32  0.  0.  0.
   534  5.33  0.  0.  0.
   535  5.34  0.  0.  0.
   536  5.35  0.  0.  0.
   537  5.36  0.  0.  0.
   538  5.37  0.  0.  0.
   539  5.38  0.  0.  0.
   540  5.39  0.  0.  0.
   541  5.40  0.  0.  0.
   542  5.41  0.  0.  0.
   543  5.42  0.  0.  0.
   544  5.43  0.  0.  0.
   545  5.44  0.  0.  0.
   546  5.45  0.  0.  0.
   547  5.46  0.  0.  0.
   548  5.47  0.  0.  0.
   549  5.48  0.  0.  0.
   550  5.49  0.  0.  0.
   551  5.50  0.  0.  0.
   552  5.51  0.  0.  0.
   553  5.52  0.  0.  0.
   554  5.53  0.  0.  0.
   555  5.54  0.  0.  0.
   556  5.55  0.  0.  0.
   557  5.56  0.  0.  0.
   558  5.57  0.  0.  0.
   559  5.58  0.  0.  0.
   560  5.59  0.  0.  0.
   561  5.60  0.  0.  0.
   562  5.61  0.  0.  0.
   563  5.62  0.  0.  0.
   564  5.63  0.  0.  0.
   565  5.64  0.  0.  0.
   566  5.65  0.  0.  0.
   567  5.66  0.  0.  0.
   568  5.67  0.  0.  0.
   569  5.68  0.  0.  0.
   570  5.69  0.  0.  0.
   571  5.70  0.  0.  0.
   572  5.71  0.  0.  0.
   573  5.72  0.  0.  0.
   574  5.73  0.  0.  0.
   575  5.74  0.  0.  0.
   576  5.75  0.  0.  0.
   577  5.76  0.  0.  0.
   578  5.77  0.  0.  0.
   579  5.78  0.  0.  0.
   580  5.79  0.  0.  0.
   581  5.80  0.  0.  0.
   582  5.81  0.  0.  0.
   583  5.82  0.  0.  0.
   584  5.83  0.  0.  0.
   585  5.84  0.  0.  0.
   586  5.85  0.  0.  0.
   587  5.86  0.  0.  0.
   588  5.87  0.  0.  0.
   589  5.88  0.  0.  0.
   590  5.89  0.  0.  0.
   591  5.90  0.  0.  0.
   592  5.91  0.  0.  0.
   593  5.92  0.  0.  0.
   594  5.93  0.  0.  0.
   595  5.94  0.  0.  0.
   596  5.95  0.  0.  0.
   597  5.96  0.  0.  0.
   598  5.97  0.  0.  0.
   599  5.98  0.  0.  0.
   600  5.99  0.  0.  0.
   1                         7.5915981778208E+00 -1.9498971768795E+00
     1  0.0000000000000E+00 -1.1303213309777E-08 -1.1856941675020E-08
     2  1.0000000000000E-02  4.6909234566774E-03  3.5264544704084E-04
     3  2.0000000000000E-02  1.8723437678128E-02  1.4183856915728E-03
     4  3.0000000000000E-02  4.1976894357880E-02  3.2203878124592E-03
     5  4.0000000000000E-02  7.4250622884431E-02  5.7964563666691E-03
     6  5.0000000000000E-02  1.1526457771520E-01  9.1978509187426E-03
     7  6.0000000000000E-02  1.6466030797948E-01  1.3487686306597E-02
     8  7.0000000000000E-02  2.2200230853001E-01  1.8738968938934E-02
     9  8.0000000000000E-02  2.8677982296630E-01  2.5032334276446E-02
    10  9.0000000000000E-02  3.5840917655585E-01  3.2453560149004E-02
    11  1.0000000000000E-01  4.3623671994964E-01  4.1090937362731E-02
    12  1.1000000000000E-01  5.1954246277073E-01  5.1032582911940E-02
    13  1.2000000000000E-01  6.0754446939363E-01  6.2363781896524E-02
    14  1.3000000000000E-01  6.9940407757380E-01  7.5164441934768E-02
    15  1.4000000000000E-01  7.9423198428500E-01  8.9506738547116E-02
    16  1.5000000000000E-01  8.9109522262916E-01  1.0545302187242E-01
    17  1.6000000000000E-01  9.8902502963534E-01  1.2305404447222E-01
    18  1.7000000000000E-01  1.0870255779603E+00  1.4234755728119E-01
    19  1.8000000000000E-01  1.1840835158773E+00  1.6335730645223E-01
    20  1.9000000000000E-01  1.2791782305281E+00  1.8609244846177E-01
    21  2.0000000000000E-01  1.3712927203122E+00  2.1054738496673E-01
    22  2.1000000000000E-01  1.4594249346245E+00  2.3670200313878E-01
    23  2.2000000000000E-01  1.5425994140269E+00  2.6452229214273E-01
    24  2.3000000000000E-01  1.6198790423946E+00  2.9396129264782E-01
    25  2.4000000000000E-01  1.6903767055629E+00  3.2496032428931E-01
    26  2.5000000000000E-01  1.7532666393064E+00  3.5745042629538E-01
    27  2.6000000000000E-01  1.8077952437610E+00  3.9135393943609E-01
    28  2.7000000000000E-01  1.8532911420697E+00  4.2658615331622E-01
    29  2.8000000000000E-01  1.8891742683275E+00  4.6305694198950E-01
    30  2.9000000000000E-01  1.9149637838027E+00  5.0067231296940E-01
    31  3.0000000000000E-01  1.9302846406791E+00  5.3933579988143E-01
    32  3.1000000000000E-01  1.9348726387231E+00  5.7894963705648E-01
    33  3.2000000000000E-01  1.9285778516431E+00  6.1941566500310E-01
    34  3.3000000000000E-01  1.9113663355885E+00  6.6063592851643E-01
    35  3.4000000000000E-01  1.8833200711857E+00  7.0251294369014E-01
    36  3.5000000000000E-01  1.8446351315394E+00  7.4494962573548E-01
    37  3.6000000000000E-01  1.7956181104709E+00  7.8784888566406E-01
    38  3.7000000000000E-01  1.7366808865949E+00  8.3111291992053E-01
    39  3.8000000000000E-01  1.6683338383303E+00  8.7464223231473E-01
    40  3.9000000000000E-01  1.5911776613298E+00  9.1833444147692E-01
    41  4.0000000000000E-01  1.5058939719033E+00  9.6208293896999E-01
    42  4.1000000000000E-01  1.4132349067685E+00  1.0057754726270E+00
    43  4.2000000000000E-01  1.3140119500086E+00  1.0492927362224E+00
    44  4.3000000000000E-01  1.2090842317964E+00  1.0925070499122E+00
    45  4.4000000000000E-01  1.0993465498286E+00  1.1352812158005E+00
    46  4.5000000000000E-01  9.8571736332602E-01  1.1774676294301E+00
    47  4.6000000000000E-01  8.6912700098816E-01  1.2189077210326E+00
    48  4.7000000000000E-01  7.5050630878625E-01  1.2594317901898E+00
    49  4.8000000000000E-01  6.3077594153257E-01  1.2988592844932E+00
    50  4.9000000000000E-01  5.1083647460481E-01  1.3369995572791E+00
    51  5.0000000000000E-01  3.9155948005287E-01  1.3736531221046E+00
    52  5.1000000000000E-01  2.7377967576245E-01  1.4086134029536E+00
    53  5.2000000000000E-01  1.5828821870331E-01  1.4416689599029E+00
    54  5.3000000000000E-01  4.5827174929697E-02  1.4726061508631E+00
    55  5.4000000000000E-01 -6.2914838671274E-02  1.5012121717783E+00
    56  5.5000000000000E-01 -1.6730588150393E-01  1.5272784010267E+00
    57  5.6000000000000E-01 -2.6677285815725E-01  1.5506039593874E+00
    58  5.7000000000000E-01 -3.6080272974879E-01  1.5709993854199E+00
    59  5.8000000000000E-01 -4.4894289072579E-01  1.5882903179353E+00
    60  5.9000000000000E-01 -5.3080085023944E-01  1.6023210728139E+00
    61  6.0000000000000E-01 -6.0604336659777E-01  1.6129580009719E+00
    62  6.1000000000000E-01 -6.7439518573506E-01  1.6200925179202E+00
    63  6.2000000000000E-01 -7.3563753015469E-01  1.6236437030244E+00
    64  6.3000000000000E-01 -7.8960647373184E-01  1.6235603780678E+00
    65  6.4000000000000E-01 -8.3619132069574E-01  1.6198225896906E+00
    66  6.5000000000000E-01 -8.7533308488877E-01  1.6124424382320E+00
    67  6.6000000000000E-01 -9.0702313907928E-01  1.6014642158365E+00
    68  6.7000000000000E-01 -9.3130207491947E-01  1.5869638386867E+00
    69  6.8000000000000E-01 -9.4825878344742E-01  1.5690475811183E+00
    70  6.9000000000000E-01 -9.5802973527123E-01  1.5478501423208E+00
    71  7.0000000000000E-01 -9.6079841018728E-01  1.5235320985012E+00
    72  7.1000000000000E-01 -9.5679479938839E-01  1.4962768139512E+00
    73  7.2000000000000E-01 -9.4629488090988E-01  1.4662869026427E+00
    74  7.3000000000000E-01 -9.2961995169952E-01  1.4337803470819E+00
    75  7.4000000000000E-01 -9.0713568862088E-01  1.3989863925859E+00
    76  7.5000000000000E-01 -8.7925080650877E-01  1.3621413424538E+00
    77  7.6000000000000E-01 -8.4641518450640E-01  1.3234843823652E+00
    78  7.7000000000000E-01 -8.0911734243775E-01  1.2832535606144E+00
    79  7.8000000000000E-01 -7.6788116670890E-01  1.2416820444957E+00
    80  7.9000000000000E-01 -7.2326180967039E-01  1.1989947624896E+00
    81  8.0000000000000E-01 -6.7584071670110E-01  1.1554055272288E+00
    82  8.1000000000000E-01 -6.2621977040439E-01  1.1111147160584E+00
    83  8.2000000000000E-01 -5.7501457991718E-01  1.0663075650089E+00
    84  8.3000000000000E-01 -5.2284698391181E-01  1.0211531089469E+00
    85  8.4000000000000E-01 -4.7033687676524E-01  9.7580377641353E-01
    86  8.5000000000000E-01 -4.1809350685923E-01  9.3039562313013E-01
    87  8.6000000000000E-01 -3.6670643231878E-01  8.8504916428690E-01
    88  8.7000000000000E-01 -3.1673635100970E-01  8.3987074346939E-01
    89  8.8000000000000E-01 -2.6870604673164E-01  7.9495435631324E-01
    90  8.9000000000000E-01 -2.2309171086711E-01  7.5038383052967E-01
    91  9.0000000000000E-01 -1.8031490711886E-01  7.0623525152520E-01
    92  9.1000000000000E-01 -1.4073544549885E-01  6.6257951503595E-01
    93  9.2000000000000E-01 -1.0464541985172E-01  6.1948488544103E-01
    94  9.3000000000000E-01 -7.2264640659682E-02  5.7701944098182E-01
    95  9.4000000000000E-01 -4.3737661801097E-02  5.3525329508469E-01