Fm    ONCVPSP-4.0.1  r_core=   1.15134   1.15134   1.13086   1.35316
100.0000     40.0000      220205    zatom,zion,pspd
8      11   3     4   600     0    pspcod,pspxc,lmax,lloc,mmax,r2well
5.99000000  5.00000000  0.00000000    rchrg fchrg qchrg
3     2     2     2     0    nproj
1     1           extension_switch
0                         2.4549540231875E+01  2.5611914681444E+00 -2.0910248066433E+00
1  0.0000000000000E+00 -5.0361712577995E-08  1.8422155262376E-07 -1.0672984995796E-08
2  1.0000000000000E-02  1.6717097521859E-01 -6.8845660920558E-02  3.8074756219876E-02
3  2.0000000000000E-02  3.3304537558018E-01 -1.3592962725552E-01  7.5972253279087E-02
4  3.0000000000000E-02  4.9634363243554E-01 -1.9953444521130E-01  1.1351834540181E-01
5  4.0000000000000E-02  6.5581977913884E-01 -2.5802973068348E-01  1.5054503069268E-01
6  5.0000000000000E-02  8.1027723986832E-01 -3.0991222502814E-01  1.8689331880761E-01
7  6.0000000000000E-02  9.5858344209314E-01 -3.5384181591742E-01  2.2241586165431E-01
8  7.0000000000000E-02  1.0996829228143E+00 -3.8867240600985E-01  2.5697928137483E-01
9  8.0000000000000E-02  1.2326086490695E+00 -4.1347669638723E-01  2.9046614053541E-01
10  9.0000000000000E-02  1.3564913325384E+00 -4.2756416878407E-01  3.2277651197507E-01
11  1.0000000000000E-01  1.4705665842137E+00 -4.3049179249473E-01  3.5382911964966E-01
12  1.1000000000000E-01  1.5741798255705E+00 -4.2206723950387E-01  3.8356203650442E-01
13  1.2000000000000E-01  1.6667889448590E+00 -4.0234465529160E-01  4.1193294033734E-01
14  1.3000000000000E-01  1.7479647584201E+00 -3.7161329313530E-01  4.3891894319291E-01
15  1.4000000000000E-01  1.8173894046430E+00 -3.3037956693427E-01  4.6451602347982E-01
16  1.5000000000000E-01  1.8748528599047E+00 -2.7934330250596E-01  4.8873810220888E-01
17  1.6000000000000E-01  1.9202478192952E+00 -2.1936916166801E-01  5.1161581502688E-01
18  1.7000000000000E-01  1.9535632282446E+00 -1.5145437012892E-01  5.3319503968988E-01
19  1.8000000000000E-01  1.9748767828089E+00 -7.6693993579935E-02  5.5353524398112E-01
20  1.9000000000000E-01  1.9843467352705E+00  3.7549276221802E-03  5.7270772164673E-01
21  2.0000000000000E-01  1.9822033473033E+00  8.8709058411964E-02  5.9079378362757E-01
22  2.1000000000000E-01  1.9687403251705E+00  1.7699297044877E-01  6.0788296875351E-01
23  2.2000000000000E-01  1.9443065507369E+00  2.6747065393060E-01  6.2407133230318E-01
24  2.3000000000000E-01  1.9092983894191E+00  3.5907325588344E-01  6.3945986269148E-01
25  2.4000000000000E-01  1.8641528129964E+00  4.5082212826527E-01  6.5415306640360E-01
26  2.5000000000000E-01  1.8093415232714E+00  5.4184646998157E-01  6.6825774960636E-01
27  2.6000000000000E-01  1.7453662040514E+00  6.3139507335016E-01  6.8188201215917E-01
28  2.7000000000000E-01  1.6727549662308E+00  7.1884192889230E-01  6.9513445658672E-01
29  2.8000000000000E-01  1.5920599864472E+00  8.0368569316976E-01  7.0812360155237E-01
30  2.9000000000000E-01  1.5038562764802E+00  8.8554327303721E-01  7.2095747707182E-01
31  3.0000000000000E-01  1.4087414608428E+00  9.6413801657047E-01  7.3374336768816E-01
32  3.1000000000000E-01  1.3073363863177E+00  1.0392832169318E+00  7.4658766060045E-01
33  3.2000000000000E-01  1.2002863417028E+00  1.1108618222498E+00  7.5959574873087E-01
34  3.3000000000000E-01  1.0882626306439E+00  1.1788033950323E+00  7.7287193427585E-01
35  3.4000000000000E-01  9.7196421660467E-01  1.2430594729186E+00  7.8651927664836E-01
36  3.5000000000000E-01  8.5211914779758E-01  1.3035785445631E+00  8.0063933000345E-01
37  3.6000000000000E-01  7.2948547178216E-01  1.3602818677281E+00  8.1533171974127E-01
38  3.7000000000000E-01  6.0485136445312E-01  1.4130413207646E+00  8.3069351437270E-01
39  3.8000000000000E-01  4.7903422577076E-01  1.4616603949369E+00  8.4681835866288E-01
40  3.9000000000000E-01  3.5287853381979E-01  1.5058593067377E+00  8.6379534567427E-01
41  4.0000000000000E-01  2.2725229814883E-01  1.5452650413646E+00  8.8170761875413E-01
42  4.1000000000000E-01  1.0304201095321E-01  1.5794069373603E+00  9.0063070910823E-01
43  4.2000000000000E-01 -1.8853941693547E-02  1.6077181957827E+00  9.2063062977384E-01
44  4.3000000000000E-01 -1.3753337915429E-01  1.6295434539016E+00  9.4176176191070E-01
45  4.4000000000000E-01 -2.5209983854764E-01  1.6441523126825E+00  9.6406458372248E-01
46  4.5000000000000E-01 -3.6167333614163E-01  1.6507584588716E+00  9.8756330536992E-01
47  4.6000000000000E-01 -4.6540215188273E-01  1.6485437859407E+00  1.0122634843484E+00
48  4.7000000000000E-01 -5.6247535597365E-01  1.6366867026104E+00  1.0381497044540E+00
49  4.8000000000000E-01 -6.5213575037007E-01  1.6143936315034E+00  1.0651834072119E+00
50  4.9000000000000E-01 -7.3369286302879E-01  1.5809325509304E+00  1.0933009671644E+00
51  5.0000000000000E-01 -8.0653561021080E-01  1.5356673257144E+00  1.1224121014960E+00
52  5.1000000000000E-01 -8.7014423315940E-01  1.4780915125917E+00  1.1523987000386E+00
53  5.2000000000000E-01 -9.2410112056455E-01  1.4078603145458E+00  1.1831141538035E+00
54  5.3000000000000E-01 -9.6810014739827E-01  1.3248193970729E+00  1.2143832490266E+00
55  5.4000000000000E-01 -1.0019541934419E+00  1.2290293666001E+00  1.2460026796084E+00
56  5.5000000000000E-01 -1.0256005500939E+00  1.1207848439859E+00  1.2777422142212E+00
57  5.6000000000000E-01 -1.0391039803532E+00  1.0006272394707E+00  1.3093465357945E+00
58  5.7000000000000E-01 -1.0426572623082E+00  8.6935054330502E-01  1.3405377511904E+00
59  5.8000000000000E-01 -1.0365791187798E+00  7.2799968099922E-01  1.3710185483381E+00
60  5.9000000000000E-01 -1.0213095124608E+00  5.7786123516961E-01  1.4004759576252E+00
61  6.0000000000000E-01 -9.9740236431036E-01  4.2044659808212E-01  1.4285856546669E+00
62  6.1000000000000E-01 -9.6551583036600E-01  2.5746788071975E-01  1.4550167233954E+00
63  6.2000000000000E-01 -9.2640034585667E-01  9.0807156054278E-02  1.4794367823867E+00
64  6.3000000000000E-01 -8.8088471298726E-01 -7.7520152864425E-02  1.5015173640429E+00
65  6.4000000000000E-01 -8.2986056771646E-01 -2.4540672368322E-01  1.5209394261688E+00
66  6.5000000000000E-01 -7.7426560927140E-01 -4.1069843686410E-01  1.5373988689854E+00
67  6.6000000000000E-01 -7.1506601243226E-01 -5.7124181088204E-01  1.5506119279520E+00
68  6.7000000000000E-01 -6.5323846561606E-01 -7.2493236640566E-01  1.5603203140326E+00
69  6.8000000000000E-01 -5.8975228681055E-01 -8.6976247723160E-01  1.5662959782030E+00
70  6.9000000000000E-01 -5.2555206427370E-01 -1.0038672763567E+00  1.5683453858808E+00
71  7.0000000000000E-01 -4.6154124993450E-01 -1.1255672442325E+00  1.5663131992677E+00
72  7.1000000000000E-01 -3.9856710140585E-01 -1.2334062105204E+00  1.5600852809062E+00
73  7.2000000000000E-01 -3.3740732467288E-01 -1.3261836465934E+00  1.5495909495413E+00
74  7.3000000000000E-01 -2.7875871548445E-01 -1.4029803081572E+00  1.5348044390501E+00
75  7.4000000000000E-01 -2.2322803518158E-01 -1.4631764991272E+00  1.5157455320941E+00
76  7.5000000000000E-01 -1.7132528833082E-01 -1.5064624617748E+00  1.4924793615785E+00
77  7.6000000000000E-01 -1.2345949743714E-01 -1.5328406459772E+00  1.4651153942723E+00
78  7.7000000000000E-01 -7.9936996589820E-02 -1.5426198637394E+00  1.4338056313905E+00
79  7.8000000000000E-01 -4.0962193540377E-02 -1.5364015855126E+00  1.3987420799315E+00
80  7.9000000000000E-01 -6.6406807023841E-03 -1.5150588740404E+00  1.3601535655596E+00
81  8.0000000000000E-01  2.3015488000735E-02 -1.4797086719385E+00  1.3183019723392E+00
82  8.1000000000000E-01  4.8080593788128E-02 -1.4316783541824E+00  1.2734780063216E+00
83  8.2000000000000E-01  6.8706409963909E-02 -1.3724676204172E+00  1.2259965885859E+00
84  8.3000000000000E-01  8.5112043359532E-02 -1.3037069299716E+00  1.1761919887258E+00
85  8.4000000000000E-01  9.7572811060487E-02 -1.2271137714121E+00  1.1244128119331E+00
86  8.5000000000000E-01  1.0640851849264E-01 -1.1444481065090E+00  1.0710169518523E+00
87  8.6000000000000E-01  1.1197150888121E-01 -1.0574683350201E+00  1.0163666174790E+00
88  8.7000000000000E-01  1.1463484695676E-01 -9.6788909240842E-01  9.6082353583426E-01
89  8.8000000000000E-01  1.1478098215772E-01 -8.7734211931106E-01  9.0474442332788E-01
90  8.9000000000000E-01  1.1279120931158E-01 -7.8734133205321E-01  8.4847680804981E-01
91  9.0000000000000E-01  1.0903620891476E-01 -6.9925308131063E-01  7.9235527313127E-01
92  9.1000000000000E-01  1.0386790584759E-01 -6.1427241527211E-01  7.3669817825126E-01
93  9.2000000000000E-01  9.7612835901747E-02 -5.3340596876303E-01  6.8180490275725E-01
94  9.3000000000000E-01  9.0567155078478E-02 -4.5746188518448E-01  6.2795364010800E-01
95  9.4000000000000E-01  8.2993368400473E-02 -3.8704694812535E-01  5.7539975976312E-01
96  9.5000000000000E-01  7.5118793964143E-02 -3.2257085793297E-01  5.2437473948444E-01
97  9.6000000000000E-01  6.7135714947751E-02 -2.6425733861082E-01  4.7508565843630E-01
98  9.7000000000000E-01  5.9203107857648E-02 -2.1216150463856E-01  4.2771522952902E-01
99  9.8000000000000E-01  5.1449769694777E-02 -1.6619265709310E-01  3.8242233808101E-01
100  9.9000000000000E-01  4.3978599937946E-02 -1.2614141430335E-01  3.3934304291224E-01
101  1.0000000000000E+00  3.6871724912733E-02 -9.1709813545989E-02  2.9859198514045E-01
102  1.0100000000000E+00  3.0196081609927E-02 -6.2542745385360E-02  2.6026413885014E-01
103  1.0200000000000E+00  2.4009004283747E-02 -3.8258798080282E-02  2.2443682594443E-01
104  1.0300000000000E+00  1.8363278994678E-02 -1.8478292442116E-02  1.9117190430869E-01
105  1.0400000000000E+00  1.3311047182801E-02 -2.8459730027967E-03  1.6051802327654E-01
106  1.0500000000000E+00  8.9058475051378E-03  8.9545166722566E-03  1.3251282257069E-01
107  1.0600000000000E+00  5.2019836644462E-03  1.7197614291094E-02  1.0718492964817E-01
108  1.0700000000000E+00  2.2502930006538E-03  2.2127917616570E-02  8.4555585011457E-02
109  1.0800000000000E+00  8.9206275982919E-05  2.3991630977298E-02  6.4639649508978E-02
110  1.0900000000000E+00 -1.2696113019976E-03  2.3090460399772E-02  4.7446136364052E-02
111  1.1000000000000E+00 -1.8872454222765E-03  1.9941679489796E-02  3.2957403238795E-02
112  1.1100000000000E+00 -1.9319983691868E-03  1.5412509517184E-02  2.1119959977832E-02
113  1.1200000000000E+00 -1.5467425306377E-03  1.0283191234687E-02  1.1955089246596E-02
114  1.1300000000000E+00 -9.3146452996501E-04  5.4231190183293E-03  5.4402550156840E-03
115  1.1400000000000E+00 -3.2469986020132E-04  1.7052029948070E-03  1.4961795074753E-03
116  1.1500000000000E+00 -1.1085406863778E-05  5.3187460804615E-05  4.0877821937363E-05
117  1.1600000000000E+00 -1.7130514930392E-06  8.3291214499404E-06  6.5032859243076E-06
118  1.1700000000000E+00  2.7466788684722E-07 -1.3833163937193E-06 -1.1421492600589E-06
119  1.18  0.  0.  0.
120  1.19  0.  0.  0.
121  1.20  0.  0.  0.
122  1.21  0.  0.  0.
123  1.22  0.  0.  0.
124  1.23  0.  0.  0.
125  1.24  0.  0.  0.
126  1.25  0.  0.  0.
127  1.26  0.  0.  0.
128  1.27  0.  0.  0.
129  1.28  0.  0.  0.
130  1.29  0.  0.  0.
131  1.30  0.  0.  0.
132  1.31  0.  0.  0.
133  1.32  0.  0.  0.
134  1.33  0.  0.  0.
135  1.34  0.  0.  0.
136  1.35  0.  0.  0.
137  1.36  0.  0.  0.
138  1.37  0.  0.  0.
139  1.38  0.  0.  0.
140  1.39  0.  0.  0.
141  1.40  0.  0.  0.
142  1.41  0.  0.  0.
143  1.42  0.  0.  0.
144  1.43  0.  0.  0.
145  1.44  0.  0.  0.
146  1.45  0.  0.  0.
147  1.46  0.  0.  0.
148  1.47  0.  0.  0.
149  1.48  0.  0.  0.
150  1.49  0.  0.  0.
151  1.50  0.  0.  0.
152  1.51  0.  0.  0.
153  1.52  0.  0.  0.
154  1.53  0.  0.  0.
155  1.54  0.  0.  0.
156  1.55  0.  0.  0.
157  1.56  0.  0.  0.
158  1.57  0.  0.  0.
159  1.58  0.  0.  0.
160  1.59  0.  0.  0.
161  1.60  0.  0.  0.
162  1.61  0.  0.  0.
163  1.62  0.  0.  0.
164  1.63  0.  0.  0.
165  1.64  0.  0.  0.
166  1.65  0.  0.  0.
167  1.66  0.  0.  0.
168  1.67  0.  0.  0.
169  1.68  0.  0.  0.
170  1.69  0.  0.  0.
171  1.70  0.  0.  0.
172  1.71  0.  0.  0.
173  1.72  0.  0.  0.
174  1.73  0.  0.  0.
175  1.74  0.  0.  0.
176  1.75  0.  0.  0.
177  1.76  0.  0.  0.
178  1.77  0.  0.  0.
179  1.78  0.  0.  0.
180  1.79  0.  0.  0.
181  1.80  0.  0.  0.
182  1.81  0.  0.  0.
183  1.82  0.  0.  0.
184  1.83  0.  0.  0.
185  1.84  0.  0.  0.
186  1.85  0.  0.  0.
187  1.86  0.  0.  0.
188  1.87  0.  0.  0.
189  1.88  0.  0.  0.
190  1.89  0.  0.  0.
191  1.90  0.  0.  0.
192  1.91  0.  0.  0.
193  1.92  0.  0.  0.
194  1.93  0.  0.  0.
195  1.94  0.  0.  0.
196  1.95  0.  0.  0.
197  1.96  0.  0.  0.
198  1.97  0.  0.  0.
199  1.98  0.  0.  0.
200  1.99  0.  0.  0.
201  2.00  0.  0.  0.
202  2.01  0.  0.  0.
203  2.02  0.  0.  0.
204  2.03  0.  0.  0.
205  2.04  0.  0.  0.
206  2.05  0.  0.  0.
207  2.06  0.  0.  0.
208  2.07  0.  0.  0.
209  2.08  0.  0.  0.
210  2.09  0.  0.  0.
211  2.10  0.  0.  0.
212  2.11  0.  0.  0.
213  2.12  0.  0.  0.
214  2.13  0.  0.  0.
215  2.14  0.  0.  0.
216  2.15  0.  0.  0.
217  2.16  0.  0.  0.
218  2.17  0.  0.  0.
219  2.18  0.  0.  0.
220  2.19  0.  0.  0.
221  2.20  0.  0.  0.
222  2.21  0.  0.  0.
223  2.22  0.  0.  0.
224  2.23  0.  0.  0.
225  2.24  0.  0.  0.
226  2.25  0.  0.  0.
227  2.26  0.  0.  0.
228  2.27  0.  0.  0.
229  2.28  0.  0.  0.
230  2.29  0.  0.  0.
231  2.30  0.  0.  0.
232  2.31  0.  0.  0.
233  2.32  0.  0.  0.
234  2.33  0.  0.  0.
235  2.34  0.  0.  0.
236  2.35  0.  0.  0.
237  2.36  0.  0.  0.
238  2.37  0.  0.  0.
239  2.38  0.  0.  0.
240  2.39  0.  0.  0.
241  2.40  0.  0.  0.
242  2.41  0.  0.  0.
243  2.42  0.  0.  0.
244  2.43  0.  0.  0.
245  2.44  0.  0.  0.
246  2.45  0.  0.  0.
247  2.46  0.  0.  0.
248  2.47  0.  0.  0.
249  2.48  0.  0.  0.
250  2.49  0.  0.  0.
251  2.50  0.  0.  0.
252  2.51  0.  0.  0.
253  2.52  0.  0.  0.
254  2.53  0.  0.  0.
255  2.54  0.  0.  0.
256  2.55  0.  0.  0.
257  2.56  0.  0.  0.
258  2.57  0.  0.  0.
259  2.58  0.  0.  0.
260  2.59  0.  0.  0.
261  2.60  0.  0.  0.
262  2.61  0.  0.  0.
263  2.62  0.  0.  0.
264  2.63  0.  0.  0.
265  2.64  0.  0.  0.
266  2.65  0.  0.  0.
267  2.66  0.  0.  0.
268  2.67  0.  0.  0.
269  2.68  0.  0.  0.
270  2.69  0.  0.  0.
271  2.70  0.  0.  0.
272  2.71  0.  0.  0.
273  2.72  0.  0.  0.
274  2.73  0.  0.  0.
275  2.74  0.  0.  0.
276  2.75  0.  0.  0.
277  2.76  0.  0.  0.
278  2.77  0.  0.  0.
279  2.78  0.  0.  0.
280  2.79  0.  0.  0.
281  2.80  0.  0.  0.
282  2.81  0.  0.  0.
283  2.82  0.  0.  0.
284  2.83  0.  0.  0.
285  2.84  0.  0.  0.
286  2.85  0.  0.  0.
287  2.86  0.  0.  0.
288  2.87  0.  0.  0.
289  2.88  0.  0.  0.
290  2.89  0.  0.  0.
291  2.90  0.  0.  0.
292  2.91  0.  0.  0.
293  2.92  0.  0.  0.
294  2.93  0.  0.  0.
295  2.94  0.  0.  0.
296  2.95  0.  0.  0.
297  2.96  0.  0.  0.
298  2.97  0.  0.  0.
299  2.98  0.  0.  0.
300  2.99  0.  0.  0.
301  3.00  0.  0.  0.
302  3.01  0.  0.  0.
303  3.02  0.  0.  0.
304  3.03  0.  0.  0.
305  3.04  0.  0.  0.
306  3.05  0.  0.  0.
307  3.06  0.  0.  0.
308  3.07  0.  0.  0.
309  3.08  0.  0.  0.
310  3.09  0.  0.  0.
311  3.10  0.  0.  0.
312  3.11  0.  0.  0.
313  3.12  0.  0.  0.
314  3.13  0.  0.  0.
315  3.14  0.  0.  0.
316  3.15  0.  0.  0.
317  3.16  0.  0.  0.
318  3.17  0.  0.  0.
319  3.18  0.  0.  0.
320  3.19  0.  0.  0.
321  3.20  0.  0.  0.
322  3.21  0.  0.  0.
323  3.22  0.  0.  0.
324  3.23  0.  0.  0.
325  3.24  0.  0.  0.
326  3.25  0.  0.  0.
327  3.26  0.  0.  0.
328  3.27  0.  0.  0.
329  3.28  0.  0.  0.
330  3.29  0.  0.  0.
331  3.30  0.  0.  0.
332  3.31  0.  0.  0.
333  3.32  0.  0.  0.
334  3.33  0.  0.  0.
335  3.34  0.  0.  0.
336  3.35  0.  0.  0.
337  3.36  0.  0.  0.
338  3.37  0.  0.  0.
339  3.38  0.  0.  0.
340  3.39  0.  0.  0.
341  3.40  0.  0.  0.
342  3.41  0.  0.  0.
343  3.42  0.  0.  0.
344  3.43  0.  0.  0.
345  3.44  0.  0.  0.
346  3.45  0.  0.  0.
347  3.46  0.  0.  0.
348  3.47  0.  0.  0.
349  3.48  0.  0.  0.
350  3.49  0.  0.  0.
351  3.50  0.  0.  0.
352  3.51  0.  0.  0.
353  3.52  0.  0.  0.
354  3.53  0.  0.  0.
355  3.54  0.  0.  0.
356  3.55  0.  0.  0.
357  3.56  0.  0.  0.
358  3.57  0.  0.  0.
359  3.58  0.  0.  0.
360  3.59  0.  0.  0.
361  3.60  0.  0.  0.
362  3.61  0.  0.  0.
363  3.62  0.  0.  0.
364  3.63  0.  0.  0.
365  3.64  0.  0.  0.
366  3.65  0.  0.  0.
367  3.66  0.  0.  0.
368  3.67  0.  0.  0.
369  3.68  0.  0.  0.
370  3.69  0.  0.  0.
371  3.70  0.  0.  0.
372  3.71  0.  0.  0.
373  3.72  0.  0.  0.
374  3.73  0.  0.  0.
375  3.74  0.  0.  0.
376  3.75  0.  0.  0.
377  3.76  0.  0.  0.
378  3.77  0.  0.  0.
379  3.78  0.  0.  0.
380  3.79  0.  0.  0.
381  3.80  0.  0.  0.
382  3.81  0.  0.  0.
383  3.82  0.  0.  0.
384  3.83  0.  0.  0.
385  3.84  0.  0.  0.
386  3.85  0.  0.  0.
387  3.86  0.  0.  0.
388  3.87  0.  0.  0.
389  3.88  0.  0.  0.
390  3.89  0.  0.  0.
391  3.90  0.  0.  0.
392  3.91  0.  0.  0.
393  3.92  0.  0.  0.
394  3.93  0.  0.  0.
395  3.94  0.  0.  0.
396  3.95  0.  0.  0.
397  3.96  0.  0.  0.
398  3.97  0.  0.  0.
399  3.98  0.  0.  0.
400  3.99  0.  0.  0.
401  4.00  0.  0.  0.
402  4.01  0.  0.  0.
403  4.02  0.  0.  0.
404  4.03  0.  0.  0.
405  4.04  0.  0.  0.
406  4.05  0.  0.  0.
407  4.06  0.  0.  0.
408  4.07  0.  0.  0.
409  4.08  0.  0.  0.
410  4.09  0.  0.  0.
411  4.10  0.  0.  0.
412  4.11  0.  0.  0.
413  4.12  0.  0.  0.
414  4.13  0.  0.  0.
415  4.14  0.  0.  0.
416  4.15  0.  0.  0.
417  4.16  0.  0.  0.
418  4.17  0.  0.  0.
419  4.18  0.  0.  0.
420  4.19  0.  0.  0.
421  4.20  0.  0.  0.
422  4.21  0.  0.  0.
423  4.22  0.  0.  0.
424  4.23  0.  0.  0.
425  4.24  0.  0.  0.
426  4.25  0.  0.  0.
427  4.26  0.  0.  0.
428  4.27  0.  0.  0.
429  4.28  0.  0.  0.
430  4.29  0.  0.  0.
431  4.30  0.  0.  0.
432  4.31  0.  0.  0.
433  4.32  0.  0.  0.
434  4.33  0.  0.  0.
435  4.34  0.  0.  0.
436  4.35  0.  0.  0.
437  4.36  0.  0.  0.
438  4.37  0.  0.  0.
439  4.38  0.  0.  0.
440  4.39  0.  0.  0.
441  4.40  0.  0.  0.
442  4.41  0.  0.  0.
443  4.42  0.  0.  0.
444  4.43  0.  0.  0.
445  4.44  0.  0.  0.
446  4.45  0.  0.  0.
447  4.46  0.  0.  0.
448  4.47  0.  0.  0.
449  4.48  0.  0.  0.
450  4.49  0.  0.  0.
451  4.50  0.  0.  0.
452  4.51  0.  0.  0.
453  4.52  0.  0.  0.
454  4.53  0.  0.  0.
455  4.54  0.  0.  0.
456  4.55  0.  0.  0.
457  4.56  0.  0.  0.
458  4.57  0.  0.  0.
459  4.58  0.  0.  0.
460  4.59  0.  0.  0.
461  4.60  0.  0.  0.
462  4.61  0.  0.  0.
463  4.62  0.  0.  0.
464  4.63  0.  0.  0.
465  4.64  0.  0.  0.
466  4.65  0.  0.  0.
467  4.66  0.  0.  0.
468  4.67  0.  0.  0.
469  4.68  0.  0.  0.
470  4.69  0.  0.  0.
471  4.70  0.  0.  0.
472  4.71  0.  0.  0.
473  4.72  0.  0.  0.
474  4.73  0.  0.  0.
475  4.74  0.  0.  0.
476  4.75  0.  0.  0.
477  4.76  0.  0.  0.
478  4.77  0.  0.  0.
479  4.78  0.  0.  0.
480  4.79  0.  0.  0.
481  4.80  0.  0.  0.
482  4.81  0.  0.  0.
483  4.82  0.  0.  0.
484  4.83  0.  0.  0.
485  4.84  0.  0.  0.
486  4.85  0.  0.  0.
487  4.86  0.  0.  0.
488  4.87  0.  0.  0.
489  4.88  0.  0.  0.
490  4.89  0.  0.  0.
491  4.90  0.  0.  0.
492  4.91  0.  0.  0.
493  4.92  0.  0.  0.
494  4.93  0.  0.  0.
495  4.94  0.  0.  0.
496  4.95  0.  0.  0.
497  4.96  0.  0.  0.
498  4.97  0.  0.  0.
499  4.98  0.  0.  0.
500  4.99  0.  0.  0.
501  5.00  0.  0.  0.
502  5.01  0.  0.  0.
503  5.02  0.  0.  0.
504  5.03  0.  0.  0.
505  5.04  0.  0.  0.
506  5.05  0.  0.  0.
507  5.06  0.  0.  0.
508  5.07  0.  0.  0.
509  5.08  0.  0.  0.
510  5.09  0.  0.  0.
511  5.10  0.  0.  0.
512  5.11  0.  0.  0.
513  5.12  0.  0.  0.
514  5.13  0.  0.  0.
515  5.14  0.  0.  0.
516  5.15  0.  0.  0.
517  5.16  0.  0.  0.
518  5.17  0.  0.  0.
519  5.18  0.  0.  0.
520  5.19  0.  0.  0.
521  5.20  0.  0.  0.
522  5.21  0.  0.  0.
523  5.22  0.  0.  0.
524  5.23  0.  0.  0.
525  5.24  0.  0.  0.
526  5.25  0.  0.  0.
527  5.26  0.  0.  0.
528  5.27  0.  0.  0.
529  5.28  0.  0.  0.
530  5.29  0.  0.  0.
531  5.30  0.  0.  0.
532  5.31  0.  0.  0.
533  5.32  0.  0.  0.
534  5.33  0.  0.  0.
535  5.34  0.  0.  0.
536  5.35  0.  0.  0.
537  5.36  0.  0.  0.
538  5.37  0.  0.  0.
539  5.38  0.  0.  0.
540  5.39  0.  0.  0.
541  5.40  0.  0.  0.
542  5.41  0.  0.  0.
543  5.42  0.  0.  0.
544  5.43  0.  0.  0.
545  5.44  0.  0.  0.
546  5.45  0.  0.  0.
547  5.46  0.  0.  0.
548  5.47  0.  0.  0.
549  5.48  0.  0.  0.
550  5.49  0.  0.  0.
551  5.50  0.  0.  0.
552  5.51  0.  0.  0.
553  5.52  0.  0.  0.
554  5.53  0.  0.  0.
555  5.54  0.  0.  0.
556  5.55  0.  0.  0.
557  5.56  0.  0.  0.
558  5.57  0.  0.  0.
559  5.58  0.  0.  0.
560  5.59  0.  0.  0.
561  5.60  0.  0.  0.
562  5.61  0.  0.  0.
563  5.62  0.  0.  0.
564  5.63  0.  0.  0.
565  5.64  0.  0.  0.
566  5.65  0.  0.  0.
567  5.66  0.  0.  0.
568  5.67  0.  0.  0.
569  5.68  0.  0.  0.
570  5.69  0.  0.  0.
571  5.70  0.  0.  0.
572  5.71  0.  0.  0.
573  5.72  0.  0.  0.
574  5.73  0.  0.  0.
575  5.74  0.  0.  0.
576  5.75  0.  0.  0.
577  5.76  0.  0.  0.
578  5.77  0.  0.  0.
579  5.78  0.  0.  0.
580  5.79  0.  0.  0.
581  5.80  0.  0.  0.
582  5.81  0.  0.  0.
583  5.82  0.  0.  0.
584  5.83  0.  0.  0.
585  5.84  0.  0.  0.
586  5.85  0.  0.  0.
587  5.86  0.  0.  0.
588  5.87  0.  0.  0.
589  5.88  0.  0.  0.
590  5.89  0.  0.  0.
591  5.90  0.  0.  0.
592  5.91  0.  0.  0.
593  5.92  0.  0.  0.
594  5.93  0.  0.  0.
595  5.94  0.  0.  0.
596  5.95  0.  0.  0.
597  5.96  0.  0.  0.
598  5.97  0.  0.  0.
599  5.98  0.  0.  0.
600  5.99  0.  0.  0.
1                         7.5915981756276E+00 -1.9498971804090E+00
1  0.0000000000000E+00 -1.1303202263058E-08 -1.1856997550463E-08
2  1.0000000000000E-02  4.6909234574099E-03  3.5264544767681E-04
3  2.0000000000000E-02  1.8723437681049E-02  1.4183856941018E-03
4  3.0000000000000E-02  4.1976894364413E-02  3.2203878181118E-03
5  4.0000000000000E-02  7.4250622895934E-02  5.7964563766090E-03
6  5.0000000000000E-02  1.1526457773295E-01  9.1978509340524E-03
7  6.0000000000000E-02  1.6466030800465E-01  1.3487686328272E-02
8  7.0000000000000E-02  2.2200230856366E-01  1.8738968967863E-02
9  8.0000000000000E-02  2.8677982300931E-01  2.5032334313400E-02
10  9.0000000000000E-02  3.5840917660895E-01  3.2453560194634E-02
11  1.0000000000000E-01  4.3623672001335E-01  4.1090937417575E-02
12  1.1000000000000E-01  5.1954246284537E-01  5.1032582976434E-02
13  1.2000000000000E-01  6.0754446947929E-01  6.2363781971010E-02
14  1.3000000000000E-01  6.9940407767032E-01  7.5164442019507E-02
15  1.4000000000000E-01  7.9423198439194E-01  8.9506738642317E-02
16  1.5000000000000E-01  8.9109522274583E-01  1.0545302197826E-01
17  1.6000000000000E-01  9.8902502976076E-01  1.2305404458884E-01
18  1.7000000000000E-01  1.0870255780932E+00  1.4234755740880E-01
19  1.8000000000000E-01  1.1840835160162E+00  1.6335730659104E-01
20  1.9000000000000E-01  1.2791782306712E+00  1.8609244861205E-01
21  2.0000000000000E-01  1.3712927204573E+00  2.1054738512886E-01
22  2.1000000000000E-01  1.4594249347694E+00  2.3670200331320E-01
23  2.2000000000000E-01  1.5425994141689E+00  2.6452229233003E-01
24  2.3000000000000E-01  1.6198790425310E+00  2.9396129284866E-01
25  2.4000000000000E-01  1.6903767056908E+00  3.2496032450448E-01
26  2.5000000000000E-01  1.7532666394227E+00  3.5745042652576E-01
27  2.6000000000000E-01  1.8077952438625E+00  3.9135393968264E-01
28  2.7000000000000E-01  1.8532911421532E+00  4.2658615357996E-01
29  2.8000000000000E-01  1.8891742683897E+00  4.6305694227149E-01
30  2.9000000000000E-01  1.9149637838404E+00  5.0067231327069E-01
31  3.0000000000000E-01  1.9302846406892E+00  5.3933580020302E-01
32  3.1000000000000E-01  1.9348726387026E+00  5.7894963739929E-01
33  3.2000000000000E-01  1.9285778515892E+00  6.1941566536791E-01
34  3.3000000000000E-01  1.9113663354986E+00  6.6063592890386E-01
35  3.4000000000000E-01  1.8833200710575E+00  7.0251294410057E-01
36  3.5000000000000E-01  1.8446351313709E+00  7.4494962616905E-01
37  3.6000000000000E-01  1.7956181102606E+00  7.8784888612057E-01
38  3.7000000000000E-01  1.7366808863415E+00  8.3111292039949E-01
39  3.8000000000000E-01  1.6683338380329E+00  8.7464223281525E-01
40  3.9000000000000E-01  1.5911776609880E+00  9.1833444199776E-01
41  4.0000000000000E-01  1.5058939715172E+00  9.6208293950950E-01
42  4.1000000000000E-01  1.4132349063387E+00  1.0057754731832E+00
43  4.2000000000000E-01  1.3140119495359E+00  1.0492927367927E+00
44  4.3000000000000E-01  1.2090842312823E+00  1.0925070504940E+00
45  4.4000000000000E-01  1.0993465492749E+00  1.1352812163906E+00
46  4.5000000000000E-01  9.8571736273498E-01  1.1774676300251E+00
47  4.6000000000000E-01  8.6912700036238E-01  1.2189077216289E+00
48  4.7000000000000E-01  7.5050630812872E-01  1.2594317907834E+00
49  4.8000000000000E-01  6.3077594084657E-01  1.2988592850801E+00
50  4.9000000000000E-01  5.1083647389393E-01  1.3369995578552E+00
51  5.0000000000000E-01  3.9155947932090E-01  1.3736531226657E+00
52  5.1000000000000E-01  2.7377967501341E-01  1.4086134034957E+00
53  5.2000000000000E-01  1.5828821794133E-01  1.4416689604218E+00
54  5.3000000000000E-01  4.5827174159039E-02  1.4726061513550E+00
55  5.4000000000000E-01 -6.2914839446290E-02  1.5012121722396E+00
56  5.5000000000000E-01 -1.6730588227897E-01  1.5272784014540E+00
57  5.6000000000000E-01 -2.6677285892798E-01  1.5506039597776E+00
58  5.7000000000000E-01 -3.6080273051096E-01  1.5709993857701E+00
59  5.8000000000000E-01 -4.4894289147524E-01  1.5882903182432E+00
60  5.9000000000000E-01 -5.3080085097211E-01  1.6023210730774E+00
61  6.0000000000000E-01 -6.0604336730976E-01  1.6129580011893E+00
62  6.1000000000000E-01 -6.7439518642267E-01  1.6200925180902E+00
63  6.2000000000000E-01 -7.3563753081440E-01  1.6236437031461E+00
64  6.3000000000000E-01 -7.8960647436035E-01  1.6235603781405E+00
65  6.4000000000000E-01 -8.3619132129002E-01  1.6198225897141E+00
66  6.5000000000000E-01 -8.7533308544601E-01  1.6124424382064E+00
67  6.6000000000000E-01 -9.0702313959695E-01  1.6014642157619E+00
68  6.7000000000000E-01 -9.3130207539534E-01  1.5869638385638E+00
69  6.8000000000000E-01 -9.4825878387953E-01  1.5690475809479E+00
70  6.9000000000000E-01 -9.5802973565794E-01  1.5478501421037E+00
71  7.0000000000000E-01 -9.6079841052728E-01  1.5235320982384E+00
72  7.1000000000000E-01 -9.5679479968068E-01  1.4962768136439E+00
73  7.2000000000000E-01 -9.4629488115380E-01  1.4662869022923E+00
74  7.3000000000000E-01 -9.2961995189477E-01  1.4337803466897E+00
75  7.4000000000000E-01 -9.0713568876750E-01  1.3989863921534E+00
76  7.5000000000000E-01 -8.7925080660717E-01  1.3621413419825E+00
77  7.6000000000000E-01 -8.4641518455736E-01  1.3234843818567E+00
78  7.7000000000000E-01 -8.0911734244242E-01  1.2832535600704E+00
79  7.8000000000000E-01 -7.6788116666881E-01  1.2416820439180E+00
80  7.9000000000000E-01 -7.2326180958742E-01  1.1989947618802E+00
81  8.0000000000000E-01 -6.7584071657752E-01  1.1554055265898E+00
82  8.1000000000000E-01 -6.2621977024280E-01  1.1111147153920E+00
83  8.2000000000000E-01 -5.7501457972052E-01  1.0663075643176E+00
84  8.3000000000000E-01 -5.2284698368335E-01  1.0211531082333E+00
85  8.4000000000000E-01 -4.7033687650850E-01  9.7580377568061E-01
86  8.5000000000000E-01 -4.1809350657801E-01  9.3039562238097E-01
87  8.6000000000000E-01 -3.6670643201706E-01  8.8504916352487E-01
88  8.7000000000000E-01 -3.1673635069166E-01  8.3987074269807E-01
89  8.8000000000000E-01 -2.6870604640152E-01  7.9495435553642E-01
90  8.9000000000000E-01 -2.2309171052925E-01  7.5038382975133E-01
91  9.0000000000000E-01 -1.8031490677757E-01  7.0623525074951E-01
92  9.1000000000000E-01 -1.4073544515835E-01  6.6257951426716E-01
93  9.2000000000000E-01 -1.0464541951611E-01  6.1948488468348E-01
94  9.3000000000000E-01 -7.2264640332847E-02  5.7701944023985E-01
95  9.4000000000000E-01 -4.3737661486660E-02  5.3525329436258E-01
96  9.5000000000000E-01 -1.9132556480779E-02  4.9426049558225E-01
97  9.6000000000000E-01  1.5584527827863E-03  4.5412052690475E-01
98  9.7000000000000E-01  1.8416472214746E-02  4.1491934848759E-01
99  9.8000000000000E-01  3.1591541659204E-02  3.7674995454276E-01
100  9.9000000000000E-01  4.1296468400252E-02  3.3971244581993E-01
101  1.0000000000000E+00  4.7799061438558E-02  3.0391365201395E-01
102  1.0100000000000E+00  5.1413017220447E-02  2.6946637308922E-01
103  1.0200000000000E+00  5.2487784286553E-02  2.3648834392946E-01
104  1.0300000000000E+00  5.1397808503415E-02  2.0510106192369E-01
105  1.0400000000000E+00  4.8531630232263E-02  1.7542865115426E-01
106  1.0500000000000E+00  4.4281368278515E-02  1.4759696892882E-01
107  1.0600000000000E+00  3.9033181043549E-02  1.2173318963635E-01
108  1.0700000000000E+00  3.3159341612314E-02  9.7966126590223E-02
109  1.0800000000000E+00  2.7012547072184E-02  7.6427553016010E-02
110  1.0900000000000E+00  2.0923603111542E-02  5.7254996055116E-02
111  1.1000000000000E+00  1.5179199796914E-02  4.0585859837390E-02
112  1.1100000000000E+00  1.0019164725125E-02  2.6557143712010E-02
113  1.1200000000000E+00  5.7610310865309E-03  1.5358556334038E-02
114  1.1300000000000E+00  2.6263373125645E-03  7.1446692197643E-03
115  1.1400000000000E+00  7.1323683059610E-04  2.0096945956044E-03
116  1.1500000000000E+00  1.8902472198807E-05  5.6291356460604E-05
117  1.1600000000000E+00  3.0331189402784E-06  8.9273534884874E-06
118  1.1700000000000E+00 -5.3837637509903E-07 -1.5512248227411E-06
119  1.18  0.  0.
120  1.19  0.  0.
121  1.20  0.  0.
122  1.21  0.  0.
123  1.22  0.  0.
124  1.23  0.  0.
125  1.24  0.  0.
126  1.25  0.  0.
127  1.26  0.  0.
128  1.27  0.  0.
129  1.28  0.  0.
130  1.29  0.  0.
131  1.30  0.  0.
132  1.31  0.  0.
133  1.32  0.  0.
134  1.33  0.  0.
135  1.34  0.  0.
136  1.35  0.  0.
137  1.36  0.  0.
138  1.37  0.  0.
139  1.38  0.  0.
140  1.39  0.  0.
141  1.40  0.  0.
142  1.41  0.  0.
143  1.42  0.  0.
144  1.43  0.  0.
145  1.44  0.  0.
146  1.45  0.  0.
147  1.46  0.  0.
148  1.47  0.  0.
149  1.48  0.  0.
150  1.49  0.  0.
151  1.50  0.  0.
152  1.51  0.  0.
153  1.52  0.  0.
154  1.53  0.  0.
155  1.54  0.  0.
156  1.55  0.  0.
157  1.56  0.  0.
158  1.57  0.  0.
159  1.58  0.  0.
160  1.59  0.  0.
161  1.60  0.  0.
162  1.61  0.  0.
163  1.62  0.  0.
164  1.63  0.  0.
165  1.64  0.  0.