Nh    ONCVPSP-4.0.1  r_core=   1.10128   1.10128   1.10128   1.10128
113.0000     53.0000      231012    zatom,zion,pspd
8 -116133   3     4   600     0    pspcod,pspxc,lmax,lloc,mmax,r2well
5.99000000  5.00000000  0.00000000    rchrg fchrg qchrg
3     3     3     2    nproj
3     1           extension_switch
3     4     3    nprojso
0                         2.7041986789582E+01 -7.9531575172768E+00  2.9055804019492E+00
1  0.0000000000000E+00  2.6671562736169E-09  2.1381315606916E-09  2.9402154877456E-08
2  1.0000000000000E-02  2.2084129621674E-01  6.6071675170774E-02  5.0910203289956E-02
3  2.0000000000000E-02  4.3924828541650E-01  1.3200261708010E-01  1.0030083632776E-01
4  3.0000000000000E-02  6.5281480229720E-01  1.9765264506523E-01  1.4667621162134E-01
5  4.0000000000000E-02  8.5919069797229E-01  2.6288268848700E-01  1.8858824809542E-01
6  5.0000000000000E-02  1.0561091794137E+00  3.2755535318981E-01  2.2465986757981E-01
7  6.0000000000000E-02  1.2414133431690E+00  3.9153550000503E-01  2.5360787880508E-01
8  7.0000000000000E-02  1.4130816301140E+00  4.5469083658887E-01  2.7426513932060E-01
9  8.0000000000000E-02  1.5692519253370E+00  5.1689252174769E-01  2.8560175634795E-01
10  9.0000000000000E-02  1.7082440254902E+00  5.7801577896539E-01  2.8674505537233E-01
11  1.0000000000000E-01  1.8285801960251E+00  6.3794051324918E-01  2.7699801294476E-01
12  1.1000000000000E-01  1.9290035436241E+00  6.9655192280372E-01  2.5585582061481E-01
13  1.2000000000000E-01  2.0084939358537E+00  7.5374109458764E-01  2.2302022310872E-01
14  1.3000000000000E-01  2.0662812115407E+00  8.0940557065536E-01  1.7841125867977E-01
15  1.4000000000000E-01  2.1018554424439E+00  8.6344987048782E-01  1.2217602561276E-01
16  1.5000000000000E-01  2.1149740301268E+00  9.1578595339487E-01  5.4694108389782E-02
17  1.6000000000000E-01  2.1056654520019E+00  9.6633360463631E-01 -2.3420678283628E-02
18  1.7000000000000E-01  2.0742295075049E+00  1.0150207292322E+00 -1.1132252846988E-01
19  1.8000000000000E-01  2.0212339591901E+00  1.0617835385578E+00 -2.0794011040342E-01
20  1.9000000000000E-01  1.9475075138407E+00  1.1065666167526E+00 -3.1198742809339E-01
21  2.0000000000000E-01  1.8541291447461E+00  1.1493228566791E+00 -4.2197916041394E-01
22  2.1000000000000E-01  1.7424138171410E+00  1.1900132585812E+00 -5.3625045758969E-01
23  2.2000000000000E-01  1.6138947431318E+00  1.2286065886075E+00 -6.5298106345418E-01
24  2.3000000000000E-01  1.4703023587520E+00  1.2650788988398E+00 -7.7022351354146E-01
25  2.4000000000000E-01  1.3135402823651E+00  1.2994129152508E+00 -8.8593503784483E-01
26  2.5000000000000E-01  1.1456585786144E+00  1.3315973049087E+00 -9.9801267719310E-01
27  2.6000000000000E-01  9.6882471357503E-01  1.3616258385665E+00 -1.1043310081005E+00
28  2.7000000000000E-01  7.8529264275340E-01  1.3894964693150E+00 -1.2027817671256E+00
29  2.8000000000000E-01  5.9737052223688E-01  1.4152103520413E+00 -1.2913145765267E+00
30  2.9000000000000E-01  4.0738757288916E-01  1.4387708318376E+00 -1.3679779023078E+00
31  3.0000000000000E-01  2.1766065650353E-01  1.4601824320873E+00 -1.4309593270458E+00
32  3.1000000000000E-01  3.0461140019482E-02  1.4794498745699E+00 -1.4786241959405E+00
33  3.2000000000000E-01 -1.5201737163719E-01  1.4965771644794E+00 -1.5095516973013E+00
34  3.3000000000000E-01 -3.2768986235439E-01  1.5115667726817E+00 -1.5225674691986E+00
35  3.4000000000000E-01 -4.9460874178836E-01  1.5244189458074E+00 -1.5167718823511E+00
36  3.5000000000000E-01 -6.5099017838831E-01  1.5351311719336E+00 -1.4915632345105E+00
37  3.6000000000000E-01 -7.9523746227470E-01  1.5436978256997E+00 -1.4466552017288E+00
38  3.7000000000000E-01 -9.2596099100549E-01  1.5501100118454E+00 -1.3820880240479E+00
39  3.8000000000000E-01 -1.0419945404432E+00  1.5543556205054E+00 -1.2982330535927E+00
40  3.9000000000000E-01 -1.1424075602790E+00  1.5564196013115E+00 -1.1957904573455E+00
41  4.0000000000000E-01 -1.2265133172355E+00  1.5562844566651E+00 -1.0757800399777E+00
42  4.1000000000000E-01 -1.2938727963403E+00  1.5539309476589E+00 -9.3952532864809E-01
43  4.2000000000000E-01 -1.3442943595833E+00  1.5493389992902E+00 -7.8863123604904E-01
44  4.3000000000000E-01 -1.3778292493660E+00  1.5424887850563E+00 -6.2495578465227E-01
45  4.4000000000000E-01 -1.3947631090750E+00  1.5333619649742E+00 -4.5057652878236E-01
46  4.5000000000000E-01 -1.3956037726488E+00  1.5219430457402E+00 -2.6775244694718E-01
47  4.6000000000000E-01 -1.3810656471356E+00  1.5082208273164E+00 -7.8882190555221E-02
48  4.7000000000000E-01 -1.3520510751902E+00  1.4921898968575E+00  1.1354033671519E-01
49  4.8000000000000E-01 -1.3096291168039E+00  1.4738521286822E+00  3.0697203460753E-01
50  4.9000000000000E-01 -1.2550122301903E+00  1.4532181480201E+00  4.9886723240980E-01
51  5.0000000000000E-01 -1.1895313599883E+00  1.4303087165514E+00  6.8672382070766E-01
52  5.1000000000000E-01 -1.1146099564662E+00  1.4051559992890E+00  8.6812785345725E-01
53  5.2000000000000E-01 -1.0317374523203E+00  1.3778046750593E+00  1.0407956426545E+00
54  5.3000000000000E-01 -9.4244271442164E-01  1.3483128566241E+00  1.2026124510942E+00
55  5.4000000000000E-01 -8.4826796727925E-01  1.3167527912068E+00  1.3516669942689E+00
56  5.5000000000000E-01 -7.5074365417272E-01  1.2832113176782E+00  1.4862810863898E+00
57  5.6000000000000E-01 -6.5136466219690E-01  1.2477900627259E+00  1.6050339033780E+00
58  5.7000000000000E-01 -5.5156829039868E-01  1.2106053647815E+00  1.7067804827117E+00
59  5.8000000000000E-01 -4.5271428740223E-01  1.1717879210953E+00  1.7906642313676E+00
60  5.9000000000000E-01 -3.5606722810587E-01  1.1314821599299E+00  1.8561233639926E+00
61  6.0000000000000E-01 -2.6278143985902E-01  1.0898453462003E+00  1.9028913393887E+00
62  6.1000000000000E-01 -1.7388862857175E-01  1.0470464348403E+00  1.9309915003608E+00
63  6.2000000000000E-01 -9.0288295928897E-02  1.0032646915825E+00  1.9407262464927E+00
64  6.3000000000000E-01 -1.2740981543282E-02  9.5868810557637E-01  1.9326611787405E+00
65  6.4000000000000E-01  5.8135690448795E-02  9.1351162225800E-01  1.9076047468855E+00
66  6.5000000000000E-01  1.2186823133484E-01  8.6793522806969E-01  1.8665840046916E+00
67  6.6000000000000E-01  1.7812589135251E-01  8.2216192099755E-01  1.8108171327006E+00
68  6.7000000000000E-01  2.2671680506728E-01  7.7639560246149E-01  1.7416834253487E+00
69  6.8000000000000E-01  2.6758187312981E-01  7.3083892690347E-01  1.6606914585365E+00
70  6.9000000000000E-01  3.0078660622868E-01  6.8569114554126E-01  1.5694461575394E+00
71  7.0000000000000E-01  3.2651118351142E-01  6.4114598027332E-01  1.4696154751851E+00
72  7.1000000000000E-01  3.4503899961446E-01  5.9738956272911E-01  1.3628973687964E+00
73  7.2000000000000E-01  3.5674399198642E-01  5.5459847205532E-01  1.2509877337979E+00
74  7.3000000000000E-01  3.6207705367618E-01  5.1293790330546E-01  1.1355499143100E+00
75  7.4000000000000E-01  3.6155184637932E-01  4.7255999633455E-01  1.0181863684081E+00
76  7.5000000000000E-01  3.5573033439017E-01  4.3360235295496E-01  9.0041301949848E-01
77  7.6000000000000E-01  3.4520836213454E-01  3.9618676781705E-01  7.8363677634998E-01
78  7.7000000000000E-01  3.3060159593183E-01  3.6041819604565E-01  6.6913665297554E-01
79  7.8000000000000E-01  3.1253214412875E-01  3.2638397806353E-01  5.5804886525494E-01
80  7.9000000000000E-01  2.9161615813281E-01  2.9415333920584E-01  4.5135622265344E-01
81  8.0000000000000E-01  2.6845269931671E-01  2.6377717857974E-01  3.4988206852635E-01
82  8.1000000000000E-01  2.4361413224784E-01  2.3528815802515E-01  2.5428894849275E-01
83  8.2000000000000E-01  2.1763827202604E-01  2.0870109782914E-01  1.6508209968283E-01
84  8.3000000000000E-01  1.9102247136483E-01  1.8401368085730E-01  8.2617750213001E-02
85  8.4000000000000E-01  1.6421977999333E-01  1.6120746078820E-01  7.1160934224579E-03
86  8.5000000000000E-01  1.3763724350179E-01  1.4024916295702E-01 -6.1321349713536E-02
87  8.6000000000000E-01  1.1163632938904E-01  1.2109225770643E-01 -1.2269044914835E-01
88  8.7000000000000E-01  8.6535373307190E-02  1.0367877588130E-01 -1.7705995369372E-01
89  8.8000000000000E-01  6.2613826902491E-02  8.7941323964161E-02 -2.2454469775495E-01
90  8.9000000000000E-01  4.0117958877570E-02  7.3805242117429E-02 -2.6527778415776E-01
91  9.0000000000000E-01  1.9267511716555E-02  6.1190831872058E-02 -2.9938335968447E-01
92  9.1000000000000E-01  2.6264681682067E-04  5.0015561195790E-02 -3.2695201509677E-01
93  9.2000000000000E-01 -1.6709680410260E-02  4.0196133017157E-02 -3.4802131634177E-01
94  9.3000000000000E-01 -3.1470987418325E-02  3.1650278823888E-02 -3.6256451185297E-01
95  9.4000000000000E-01 -4.3849481890549E-02  2.4298111563435E-02 -3.7049106545530E-01
96  9.5000000000000E-01 -5.3682798322738E-02  1.8062841633553E-02 -3.7166333808577E-01
97  9.6000000000000E-01 -6.0827107086794E-02  1.2870626149611E-02 -3.6593448695232E-01
98  9.7000000000000E-01 -6.5174758523508E-02  8.6492848278964E-03 -3.5321346986597E-01
99  9.8000000000000E-01 -6.6682959388196E-02  5.3255756184024E-03 -3.3356393785257E-01
100  9.9000000000000E-01 -6.5416357825818E-02  2.8206775537607E-03 -3.0734483013896E-01
101  1.0000000000000E+00 -6.1606598862321E-02  1.0435036035534E-03 -2.7540089615406E-01
102  1.0100000000000E+00 -5.5721336817150E-02 -1.1736532750417E-04 -2.3927730660729E-01
103  1.0200000000000E+00 -4.8387132645318E-02 -7.8570137337210E-04 -2.0096288896422E-01
104  1.0300000000000E+00 -4.0225607913336E-02 -1.0794147168597E-03 -1.6236910544377E-01
105  1.0400000000000E+00 -3.1819507850348E-02 -1.1063621825723E-03 -1.2523529466207E-01
106  1.0500000000000E+00 -2.3682557177167E-02 -9.6233632452503E-04 -9.1061135223764E-02
107  1.0600000000000E+00 -1.6137760307110E-02 -7.2629009970808E-04 -6.0826067233234E-02
108  1.0700000000000E+00 -9.6347995842073E-03 -4.6417565693324E-04 -3.5718102163465E-02
109  1.0800000000000E+00 -4.5889526357885E-03 -2.3090091911544E-04 -1.6778783016355E-02
110  1.0900000000000E+00 -1.3098063902067E-03 -6.7487038899485E-05 -4.7345190237483E-03
111  1.1000000000000E+00 -3.4398938857147E-05 -1.7818569507692E-06 -1.2291989843100E-04
112  1.1100000000000E+00 -6.1609288363472E-06 -3.2138136481561E-07 -2.2076333012898E-05
113  1.1200000000000E+00  6.0337183296231E-07  3.1310909060484E-08  2.1719537674941E-06
114  1.13  0.  0.  0.
115  1.14  0.  0.  0.
116  1.15  0.  0.  0.
117  1.16  0.  0.  0.
118  1.17  0.  0.  0.
119  1.18  0.  0.  0.
120  1.19  0.  0.  0.
121  1.20  0.  0.  0.
122  1.21  0.  0.  0.
123  1.22  0.  0.  0.
124  1.23  0.  0.  0.
125  1.24  0.  0.  0.
126  1.25  0.  0.  0.
127  1.26  0.  0.  0.
128  1.27  0.  0.  0.
129  1.28  0.  0.  0.
130  1.29  0.  0.  0.
131  1.30  0.  0.  0.
132  1.31  0.  0.  0.
133  1.32  0.  0.  0.
134  1.33  0.  0.  0.
135  1.34  0.  0.  0.
136  1.35  0.  0.  0.
137  1.36  0.  0.  0.
138  1.37  0.  0.  0.
139  1.38  0.  0.  0.
140  1.39  0.  0.  0.
141  1.40  0.  0.  0.
142  1.41  0.  0.  0.
143  1.42  0.  0.  0.
144  1.43  0.  0.  0.
145  1.44  0.  0.  0.
146  1.45  0.  0.  0.
147  1.46  0.  0.  0.
148  1.47  0.  0.  0.
149  1.48  0.  0.  0.
150  1.49  0.  0.  0.
151  1.50  0.  0.  0.
152  1.51  0.  0.  0.
153  1.52  0.  0.  0.
154  1.53  0.  0.  0.
155  1.54  0.  0.  0.
156  1.55  0.  0.  0.
157  1.56  0.  0.  0.
158  1.57  0.  0.  0.
159  1.58  0.  0.  0.
160  1.59  0.  0.  0.
161  1.60  0.  0.  0.
162  1.61  0.  0.  0.
163  1.62  0.  0.  0.
164  1.63  0.  0.  0.
165  1.64  0.  0.  0.
166  1.65  0.  0.  0.
167  1.66  0.  0.  0.
168  1.67  0.  0.  0.
169  1.68  0.  0.  0.
170  1.69  0.  0.  0.
171  1.70  0.  0.  0.
172  1.71  0.  0.  0.
173  1.72  0.  0.  0.
174  1.73  0.  0.  0.
175  1.74  0.  0.  0.
176  1.75  0.  0.  0.
177  1.76  0.  0.  0.
178  1.77  0.  0.  0.
179  1.78  0.  0.  0.
180  1.79  0.  0.  0.
181  1.80  0.  0.  0.
182  1.81  0.  0.  0.
183  1.82  0.  0.  0.
184  1.83  0.  0.  0.
185  1.84  0.  0.  0.
186  1.85  0.  0.  0.
187  1.86  0.  0.  0.
188  1.87  0.  0.  0.
189  1.88  0.  0.  0.
190  1.89  0.  0.  0.
191  1.90  0.  0.  0.
192  1.91  0.  0.  0.
193  1.92  0.  0.  0.
194  1.93  0.  0.  0.
195  1.94  0.  0.  0.
196  1.95  0.  0.  0.
197  1.96  0.  0.  0.
198  1.97  0.  0.  0.
199  1.98  0.  0.  0.
200  1.99  0.  0.  0.
201  2.00  0.  0.  0.
202  2.01  0.  0.  0.
203  2.02  0.  0.  0.
204  2.03  0.  0.  0.
205  2.04  0.  0.  0.
206  2.05  0.  0.  0.
207  2.06  0.  0.  0.
208  2.07  0.  0.  0.
209  2.08  0.  0.  0.
210  2.09  0.  0.  0.
211  2.10  0.  0.  0.
212  2.11  0.  0.  0.
213  2.12  0.  0.  0.
214  2.13  0.  0.  0.
215  2.14  0.  0.  0.
216  2.15  0.  0.  0.
217  2.16  0.  0.  0.
218  2.17  0.  0.  0.
219  2.18  0.  0.  0.
220  2.19  0.  0.  0.
221  2.20  0.  0.  0.
222  2.21  0.  0.  0.
223  2.22  0.  0.  0.
224  2.23  0.  0.  0.
225  2.24  0.  0.  0.
226  2.25  0.  0.  0.
227  2.26  0.  0.  0.
228  2.27  0.  0.  0.
229  2.28  0.  0.  0.
230  2.29  0.  0.  0.
231  2.30  0.  0.  0.
232  2.31  0.  0.  0.
233  2.32  0.  0.  0.
234  2.33  0.  0.  0.
235  2.34  0.  0.  0.
236  2.35  0.  0.  0.
237  2.36  0.  0.  0.
238  2.37  0.  0.  0.
239  2.38  0.  0.  0.
240  2.39  0.  0.  0.
241  2.40  0.  0.  0.
242  2.41  0.  0.  0.
243  2.42  0.  0.  0.
244  2.43  0.  0.  0.
245  2.44  0.  0.  0.
246  2.45  0.  0.  0.
247  2.46  0.  0.  0.
248  2.47  0.  0.  0.
249  2.48  0.  0.  0.
250  2.49  0.  0.  0.
251  2.50  0.  0.  0.
252  2.51  0.  0.  0.
253  2.52  0.  0.  0.
254  2.53  0.  0.  0.
255  2.54  0.  0.  0.
256  2.55  0.  0.  0.
257  2.56  0.  0.  0.
258  2.57  0.  0.  0.
259  2.58  0.  0.  0.
260  2.59  0.  0.  0.
261  2.60  0.  0.  0.
262  2.61  0.  0.  0.
263  2.62  0.  0.  0.
264  2.63  0.  0.  0.
265  2.64  0.  0.  0.
266  2.65  0.  0.  0.
267  2.66  0.  0.  0.
268  2.67  0.  0.  0.
269  2.68  0.  0.  0.
270  2.69  0.  0.  0.
271  2.70  0.  0.  0.
272  2.71  0.  0.  0.
273  2.72  0.  0.  0.
274  2.73  0.  0.  0.
275  2.74  0.  0.  0.
276  2.75  0.  0.  0.
277  2.76  0.  0.  0.
278  2.77  0.  0.  0.
279  2.78  0.  0.  0.
280  2.79  0.  0.  0.
281  2.80  0.  0.  0.
282  2.81  0.  0.  0.
283  2.82  0.  0.  0.
284  2.83  0.  0.  0.
285  2.84  0.  0.  0.
286  2.85  0.  0.  0.
287  2.86  0.  0.  0.
288  2.87  0.  0.  0.
289  2.88  0.  0.  0.
290  2.89  0.  0.  0.
291  2.90  0.  0.  0.
292  2.91  0.  0.  0.
293  2.92  0.  0.  0.
294  2.93  0.  0.  0.
295  2.94  0.  0.  0.
296  2.95  0.  0.  0.
297  2.96  0.  0.  0.
298  2.97  0.  0.  0.
299  2.98  0.  0.  0.
300  2.99  0.  0.  0.
301  3.00  0.  0.  0.
302  3.01  0.  0.  0.
303  3.02  0.  0.  0.
304  3.03  0.  0.  0.
305  3.04  0.  0.  0.
306  3.05  0.  0.  0.
307  3.06  0.  0.  0.
308  3.07  0.  0.  0.
309  3.08  0.  0.  0.
310  3.09  0.  0.  0.
311  3.10  0.  0.  0.
312  3.11  0.  0.  0.
313  3.12  0.  0.  0.
314  3.13  0.  0.  0.
315  3.14  0.  0.  0.
316  3.15  0.  0.  0.
317  3.16  0.  0.  0.
318  3.17  0.  0.  0.
319  3.18  0.  0.  0.
320  3.19  0.  0.  0.
321  3.20  0.  0.  0.
322  3.21  0.  0.  0.
323  3.22  0.  0.  0.
324  3.23  0.  0.  0.
325  3.24  0.  0.  0.
326  3.25  0.  0.  0.
327  3.26  0.  0.  0.
328  3.27  0.  0.  0.
329  3.28  0.  0.  0.
330  3.29  0.  0.  0.
331  3.30  0.  0.  0.
332  3.31  0.  0.  0.
333  3.32  0.  0.  0.
334  3.33  0.  0.  0.
335  3.34  0.  0.  0.
336  3.35  0.  0.  0.
337  3.36  0.  0.  0.
338  3.37  0.  0.  0.
339  3.38  0.  0.  0.
340  3.39  0.  0.  0.
341  3.40  0.  0.  0.
342  3.41  0.  0.  0.
343  3.42  0.  0.  0.
344  3.43  0.  0.  0.
345  3.44  0.  0.  0.
346  3.45  0.  0.  0.
347  3.46  0.  0.  0.
348  3.47  0.  0.  0.
349  3.48  0.  0.  0.
350  3.49  0.  0.  0.
351  3.50  0.  0.  0.
352  3.51  0.  0.  0.
353  3.52  0.  0.  0.
354  3.53  0.  0.  0.
355  3.54  0.  0.  0.
356  3.55  0.  0.  0.
357  3.56  0.  0.  0.
358  3.57  0.  0.  0.
359  3.58  0.  0.  0.
360  3.59  0.  0.  0.
361  3.60  0.  0.  0.
362  3.61  0.  0.  0.
363  3.62  0.  0.  0.
364  3.63  0.  0.  0.
365  3.64  0.  0.  0.
366  3.65  0.  0.  0.
367  3.66  0.  0.  0.
368  3.67  0.  0.  0.
369  3.68  0.  0.  0.
370  3.69  0.  0.  0.
371  3.70  0.  0.  0.
372  3.71  0.  0.  0.
373  3.72  0.  0.  0.
374  3.73  0.  0.  0.
375  3.74  0.  0.  0.
376  3.75  0.  0.  0.
377  3.76  0.  0.  0.
378  3.77  0.  0.  0.
379  3.78  0.  0.  0.
380  3.79  0.  0.  0.
381  3.80  0.  0.  0.
382  3.81  0.  0.  0.
383  3.82  0.  0.  0.
384  3.83  0.  0.  0.
385  3.84  0.  0.  0.
386  3.85  0.  0.  0.
387  3.86  0.  0.  0.
388  3.87  0.  0.  0.
389  3.88  0.  0.  0.
390  3.89  0.  0.  0.
391  3.90  0.  0.  0.
392  3.91  0.  0.  0.
393  3.92  0.  0.  0.
394  3.93  0.  0.  0.
395  3.94  0.  0.  0.
396  3.95  0.  0.  0.
397  3.96  0.  0.  0.
398  3.97  0.  0.  0.
399  3.98  0.  0.  0.
400  3.99  0.  0.  0.
401  4.00  0.  0.  0.
402  4.01  0.  0.  0.
403  4.02  0.  0.  0.
404  4.03  0.  0.  0.
405  4.04  0.  0.  0.
406  4.05  0.  0.  0.
407  4.06  0.  0.  0.
408  4.07  0.  0.  0.
409  4.08  0.  0.  0.
410  4.09  0.  0.  0.
411  4.10  0.  0.  0.
412  4.11  0.  0.  0.
413  4.12  0.  0.  0.
414  4.13  0.  0.  0.
415  4.14  0.  0.  0.
416  4.15  0.  0.  0.
417  4.16  0.  0.  0.
418  4.17  0.  0.  0.
419  4.18  0.  0.  0.
420  4.19  0.  0.  0.
421  4.20  0.  0.  0.
422  4.21  0.  0.  0.
423  4.22  0.  0.  0.
424  4.23  0.  0.  0.
425  4.24  0.  0.  0.
426  4.25  0.  0.  0.
427  4.26  0.  0.  0.
428  4.27  0.  0.  0.
429  4.28  0.  0.  0.
430  4.29  0.  0.  0.
431  4.30  0.  0.  0.
432  4.31  0.  0.  0.
433  4.32  0.  0.  0.
434  4.33  0.  0.  0.
435  4.34  0.  0.  0.
436  4.35  0.  0.  0.
437  4.36  0.  0.  0.
438  4.37  0.  0.  0.
439  4.38  0.  0.  0.
440  4.39  0.  0.  0.
441  4.40  0.  0.  0.
442  4.41  0.  0.  0.
443  4.42  0.  0.  0.
444  4.43  0.  0.  0.
445  4.44  0.  0.  0.
446  4.45  0.  0.  0.
447  4.46  0.  0.  0.
448  4.47  0.  0.  0.
449  4.48  0.  0.  0.
450  4.49  0.  0.  0.
451  4.50  0.  0.  0.
452  4.51  0.  0.  0.
453  4.52  0.  0.  0.
454  4.53  0.  0.  0.
455  4.54  0.  0.  0.
456  4.55  0.  0.  0.
457  4.56  0.  0.  0.
458  4.57  0.  0.  0.
459  4.58  0.  0.  0.
460  4.59  0.  0.  0.
461  4.60  0.  0.  0.
462  4.61  0.  0.  0.
463  4.62  0.  0.  0.
464  4.63  0.  0.  0.
465  4.64  0.  0.  0.
466  4.65  0.  0.  0.
467  4.66  0.  0.  0.
468  4.67  0.  0.  0.
469  4.68  0.  0.  0.
470  4.69  0.  0.  0.
471  4.70  0.  0.  0.
472  4.71  0.  0.  0.
473  4.72  0.  0.  0.
474  4.73  0.  0.  0.
475  4.74  0.  0.  0.
476  4.75  0.  0.  0.
477  4.76  0.  0.  0.
478  4.77  0.  0.  0.
479  4.78  0.  0.  0.
480  4.79  0.  0.  0.
481  4.80  0.  0.  0.
482  4.81  0.  0.  0.
483  4.82  0.  0.  0.
484  4.83  0.  0.  0.
485  4.84  0.  0.  0.
486  4.85  0.  0.  0.
487  4.86  0.  0.  0.
488  4.87  0.  0.  0.
489  4.88  0.  0.  0.
490  4.89  0.  0.  0.
491  4.90  0.  0.  0.
492  4.91  0.  0.  0.
493  4.92  0.  0.  0.
494  4.93  0.  0.  0.
495  4.94  0.  0.  0.
496  4.95  0.  0.  0.
497  4.96  0.  0.  0.
498  4.97  0.  0.  0.
499  4.98  0.  0.  0.
500  4.99  0.  0.  0.
501  5.00  0.  0.  0.
502  5.01  0.  0.  0.
503  5.02  0.  0.  0.
504  5.03  0.  0.  0.
505  5.04  0.  0.  0.
506  5.05  0.  0.  0.
507  5.06  0.  0.  0.
508  5.07  0.  0.  0.
509  5.08  0.  0.  0.
510  5.09  0.  0.  0.
511  5.10  0.  0.  0.
512  5.11  0.  0.  0.
513  5.12  0.  0.  0.
514  5.13  0.  0.  0.
515  5.14  0.  0.  0.
516  5.15  0.  0.  0.
517  5.16  0.  0.  0.
518  5.17  0.  0.  0.
519  5.18  0.  0.  0.
520  5.19  0.  0.  0.
521  5.20  0.  0.  0.
522  5.21  0.  0.  0.
523  5.22  0.  0.  0.
524  5.23  0.  0.  0.
525  5.24  0.  0.  0.
526  5.25  0.  0.  0.
527  5.26  0.  0.  0.
528  5.27  0.  0.  0.
529  5.28  0.  0.  0.
530  5.29  0.  0.  0.
531  5.30  0.  0.  0.
532  5.31  0.  0.  0.
533  5.32  0.  0.  0.
534  5.33  0.  0.  0.
535  5.34  0.  0.  0.
536  5.35  0.  0.  0.
537  5.36  0.  0.  0.
538  5.37  0.  0.  0.
539  5.38  0.  0.  0.
540  5.39  0.  0.  0.
541  5.40  0.  0.  0.
542  5.41  0.  0.  0.
543  5.42  0.  0.  0.
544  5.43  0.  0.  0.
545  5.44  0.  0.  0.
546  5.45  0.  0.  0.
547  5.46  0.  0.  0.
548  5.47  0.  0.  0.
549  5.48  0.  0.  0.
550  5.49  0.  0.  0.
551  5.50  0.  0.  0.
552  5.51  0.  0.  0.
553  5.52  0.  0.  0.
554  5.53  0.  0.  0.
555  5.54  0.  0.  0.
556  5.55  0.  0.  0.
557  5.56  0.  0.  0.
558  5.57  0.  0.  0.
559  5.58  0.  0.  0.
560  5.59  0.  0.  0.
561  5.60  0.  0.  0.
562  5.61  0.  0.  0.
563  5.62  0.  0.  0.
564  5.63  0.  0.  0.
565  5.64  0.  0.  0.
566  5.65  0.  0.  0.
567  5.66  0.  0.  0.
568  5.67  0.  0.  0.
569  5.68  0.  0.  0.
570  5.69  0.  0.  0.
571  5.70  0.  0.  0.
572  5.71  0.  0.  0.
573  5.72  0.  0.  0.
574  5.73  0.  0.  0.
575  5.74  0.  0.  0.
576  5.75  0.  0.  0.
577  5.76  0.  0.  0.
578  5.77  0.  0.  0.
579  5.78  0.  0.  0.
580  5.79  0.  0.  0.
581  5.80  0.  0.  0.
582  5.81  0.  0.  0.
583  5.82  0.  0.  0.
584  5.83  0.  0.  0.
585  5.84  0.  0.  0.
586  5.85  0.  0.  0.
587  5.86  0.  0.  0.
588  5.87  0.  0.  0.
589  5.88  0.  0.  0.
590  5.89  0.  0.  0.
591  5.90  0.  0.  0.
592  5.91  0.  0.  0.
593  5.92  0.  0.  0.
594  5.93  0.  0.  0.
595  5.94  0.  0.  0.
596  5.95  0.  0.  0.
597  5.96  0.  0.  0.
598  5.97  0.  0.  0.
599  5.98  0.  0.  0.
600  5.99  0.  0.  0.
1                        -6.9886907997795E+00  6.0623374649116E+00 -3.3216860699804E-01
1  0.0000000000000E+00 -8.2991977734537E-09  5.3685112022528E-08  9.2930380890532E-08
2  1.0000000000000E-02  1.3728047451306E-03  8.2757093334378E-03  4.8250585474433E-03
3  2.0000000000000E-02  5.4958188122713E-03  3.2971012800540E-02  1.9174768182736E-02
4  3.0000000000000E-02  1.2382612977194E-02  7.3692440584055E-02  4.2675433173609E-02
5  4.0000000000000E-02  2.2055047641496E-02  1.2979085876815E-01  7.4713179889763E-02
6  5.0000000000000E-02  3.4542153348271E-02  2.0037133786213E-01  1.1444719414768E-01
7  6.0000000000000E-02  4.9878596893647E-02  2.8430675995049E-01  1.6082787434645E-01
8  7.0000000000000E-02  6.8102765692230E-02  3.8025495919046E-01  2.1261953034620E-01
9  8.0000000000000E-02  8.9254511353642E-02  4.8667913669273E-01  2.6842716511023E-01
10  9.0000000000000E-02  1.1337260097628E-01  6.0187124079125E-01  3.2672679245439E-01
11  1.0000000000000E-01  1.4049193132179E-01  7.2397795806704E-01  3.8589867149912E-01
12  1.1000000000000E-01  1.7064056667340E-01  8.5102891992563E-01  4.4426277806750E-01
13  1.2000000000000E-01  2.0383666569403E-01  9.8096669466941E-01  5.0011578653526E-01
14  1.3000000000000E-01  2.4008536589537E-01  1.1116781064181E+00  5.5176880346890E-01
15  1.4000000000000E-01  2.7937569633816E-01  1.2410264004026E+00  5.9758507744778E-01
16  1.5000000000000E-01  3.2167758985827E-01  1.3668837594978E+00  6.3601690811989E-01
17  1.6000000000000E-01  3.6693906542998E-01  1.4871636696766E+00  6.6564099183995E-01
18  1.7000000000000E-01  4.1508364923571E-01  1.5998526325816E+00  6.8519147092453E-01
19  1.8000000000000E-01  4.6600809963490E-01  1.7030407317176E+00  6.9358999806574E-01
20  1.9000000000000E-01  5.1958049656191E-01  1.7949505748696E+00  6.8997218591041E-01
21  2.0000000000000E-01  5.7563875000581E-01  1.8739641591076E+00  6.7370988308933E-01
22  2.1000000000000E-01  6.3398957522748E-01  1.9386472359106E+00  6.4442880067005E-01
23  2.2000000000000E-01  6.9440797436932E-01  1.9877707921489E+00  6.0202110546893E-01
24  2.3000000000000E-01  7.5663725524483E-01  2.0203293074044E+00  5.4665269705736E-01
25  2.4000000000000E-01  8.2038960851380E-01  2.0355554987752E+00  4.7876499163254E-01
26  2.5000000000000E-01  8.8534725432294E-01  2.0329313201533E+00  3.9907114606596E-01
27  2.6000000000000E-01  9.5116415900263E-01  2.0121950431589E+00  3.0854676718402E-01
28  2.7000000000000E-01  1.0174683117493E+00  1.9733443104984E+00  2.0841526242349E-01
29  2.8000000000000E-01  1.0838645405870E+00  1.9166351184890E+00  1.0012809619671E-01
30  2.9000000000000E-01  1.1499378364884E+00  1.8425767527354E+00 -1.4659680595818E-02
31  3.0000000000000E-01  1.2152571445471E+00  1.7519227683363E+00 -1.3411816455165E-01
32  3.1000000000000E-01  1.2793795717162E+00  1.6456581723389E+00 -2.5627504712547E-01
33  3.2000000000000E-01  1.3418549520553E+00  1.5249830302727E+00 -3.7905114938649E-01
34  3.3000000000000E-01  1.4022307028202E+00  1.3912927792966E+00 -5.0029835483484E-01
35  3.4000000000000E-01  1.4600568982569E+00  1.2461555866464E+00 -6.1783920136984E-01
36  3.5000000000000E-01  1.5148914827439E+00  1.0912871425875E+00 -7.2950735876598E-01
37  3.6000000000000E-01  1.5663055410925E+00  9.2852332096489E-01 -8.3318819883763E-01
38  3.7000000000000E-01  1.6138885414417E+00  7.5979117680439E-01 -9.2685866227905E-01
39  3.8000000000000E-01  1.6572534653462E+00  5.8707877849011E-01 -1.0086256390387E+00
40  3.9000000000000E-01  1.6960417403683E+00  4.1240439120908E-01 -1.0767621077843E+00
41  4.0000000000000E-01  1.7299278927720E+00  2.3778553815668E-01 -1.1297403239666E+00
42  4.1000000000000E-01  1.7586238417296E+00  6.5208466166515E-02 -1.1662614043101E+00
43  4.2000000000000E-01  1.7818827617492E+00 -1.0340146712290E-01 -1.1852807270597E+00
44  4.3000000000000E-01  1.7995024467132E+00 -2.6620798661548E-01 -1.1860286505303E+00
45  4.4000000000000E-01  1.8113281168718E+00 -4.2149020413612E-01 -1.1680261457360E+00
46  4.5000000000000E-01  1.8172546192231E+00 -5.6766660162826E-01 -1.1310950401930E+00
47  4.6000000000000E-01  1.8172279817555E+00 -7.0331630634098E-01 -1.0753626773077E+00
48  4.7000000000000E-01  1.8112462928510E+00 -8.2719732380743E-01 -1.0012609068618E+00
49  4.8000000000000E-01  1.7993598885362E+00 -9.3826145326850E-01 -9.0951943469034E-01
50  4.9000000000000E-01  1.7816708420162E+00 -1.0356656741034E+00 -8.0115367139376E-01
51  5.0000000000000E-01  1.7583317617880E+00 -1.1187798595095E+00 -6.7744732851774E-01
52  5.1000000000000E-01  1.7295439164049E+00 -1.1871907437582E+00 -5.3993011384540E-01
53  5.2000000000000E-01  1.6955547153880E+00 -1.2407021404063E+00 -3.9035097314694E-01
54  5.3000000000000E-01  1.6566545866646E+00 -1.2793314794174E+00 -2.3064741197409E-01
55  5.4000000000000E-01  1.6131733010212E+00 -1.3033027997774E+00 -6.2911506119760E-02
56  5.5000000000000E-01  1.5654758032074E+00 -1.3130363994820E+00  1.1064672831409E-01
57  5.6000000000000E-01  1.5139576173319E+00 -1.3091354053680E+00  2.8773788591116E-01
58  5.7000000000000E-01  1.4590399009078E+00 -1.2923695799413E+00  4.6603289113650E-01
59  5.8000000000000E-01  1.4011642271946E+00 -1.2636567300018E+00  6.4320311479246E-01
60  5.9000000000000E-01  1.3407871792677E+00 -1.2240421215445E+00  8.1696011442722E-01
61  6.0000000000000E-01  1.2783748414422E+00 -1.1746763363554E+00  9.8509423865620E-01
62  6.1000000000000E-01  1.2143972742721E+00 -1.1167920273660E+00  1.1455113638454E+00
63  6.2000000000000E-01  1.1493230583287E+00 -1.0516800418119E+00  1.2962670745788E+00
64  6.3000000000000E-01  1.0836139893845E+00 -9.8066538344663E-01  1.4355976557497E+00
65  6.4000000000000E-01  1.0177200035477E+00 -9.0508347755429E-01  1.5619473326597E+00
66  6.5000000000000E-01  9.5207440542310E-01 -8.2625718561031E-01  1.6739912746233E+00
67  6.6000000000000E-01  8.8708946564094E-01 -7.4547499065520E-01  1.7706539654987E+00
68  6.7000000000000E-01  8.2315244625274E-01 -6.6397074048240E-01  1.8511226393735E+00
69  6.8000000000000E-01  7.6062210372460E-01 -5.8290529447575E-01  1.9148555793005E+00
70  6.9000000000000E-01  6.9982570975548E-01 -5.0335037238578E-01  1.9615851794232E+00
71  7.0000000000000E-01  6.4105662012024E-01 -4.2627485065873E-01  1.9913157739328E+00
72  7.1000000000000E-01  5.8457241139954E-01 -3.5253369535177E-01  2.0043163380449E+00
73  7.2000000000000E-01  5.3059359502935E-01 -2.8285966148295E-01  2.0011082645755E+00
74  7.3000000000000E-01  4.7930290779625E-01 -2.1785782817204E-01  1.9824485129578E+00
75  7.4000000000000E-01  4.3084516792717E-01 -1.5800297843103E-01  1.9493085140148E+00
76  7.5000000000000E-01  3.8532767646938E-01 -1.0363977320730E-01  1.9028492920938E+00
77  7.6000000000000E-01  3.4282113490156E-01 -5.4985612426869E-02  1.8443933351319E+00
78  7.7000000000000E-01  3.0336104201892E-01 -1.2136022396882E-02  1.7753938019629E+00
79  7.8000000000000E-01  2.6694952622095E-01  2.4927640082067E-02  1.6974017041422E+00
80  7.9000000000000E-01  2.3355756350594E-01  5.6328420401037E-02  1.6120317364573E+00
81  8.0000000000000E-01  2.0312752681277E-01  8.2282227256905E-02  1.5209274561570E+00
82  8.1000000000000E-01  1.7557600889346E-01  1.0308484580365E-01  1.4257265260771E+00
83  8.2000000000000E-01  1.5079685866013E-01  1.1909785207056E-01  1.3280267418841E+00
84  8.3000000000000E-01  1.2866436991150E-01  1.3073379711638E-01  1.2293535594414E+00
85  8.4000000000000E-01  1.0903656145930E-01  1.3844104241052E-01  1.1311298259295E+00
86  8.5000000000000E-01  9.1758488871219E-02  1.4268863507560E-01  1.0346483990822E+00
87  8.6000000000000E-01  7.6665530227078E-02  1.4395161338973E-01  9.4104831418293E-01
88  8.7000000000000E-01  6.3586591330327E-02  1.4269712997514E-01  8.5129512982407E-01
89  8.8000000000000E-01  5.2347179592591E-02  1.3937177315224E-01  7.6616605249932E-01
90  8.9000000000000E-01  4.2772300166581E-02  1.3439045687153E-01  6.8624040849425E-01
91  9.0000000000000E-01  3.4689132685408E-02  1.2812723737320E-01  6.1189600089895E-01
92  9.1000000000000E-01  2.7929452012829E-02  1.2090840122826E-01  5.4331186145019E-01
93  9.2000000000000E-01  2.2331761558244E-02  1.1300815566088E-01  4.8047788279823E-01
94  9.3000000000000E-01  1.7743112805764E-02  1.0464723899863E-01  4.2321179803955E-01
95  9.4000000000000E-01  1.4020589599622E-02  9.5994757664658E-02  3.7118396217133E-01
96  9.5000000000000E-01  1.1032440282214E-02  8.7173547168431E-02  3.2395038554004E-01
97  9.6000000000000E-01  8.6588448751520E-03  7.8269348838753E-02  2.8099447323349E-01
98  9.7000000000000E-01  6.7923080227068E-03  6.9344092244602E-02  2.4177793735683E-01
99  9.8000000000000E-01  5.3376712974841E-03  6.0453575918129E-02  2.0580137170330E-01
100  9.9000000000000E-01  4.2117405348116E-03  5.1669854612091E-02  1.7267503373930E-01
101  1.0000000000000E+00  3.3425263365715E-03  4.3108563467524E-02  1.4220016157117E-01
102  1.0100000000000E+00  2.6681480862800E-03  3.4956395533876E-02  1.1444671755394E-01