Nh    ONCVPSP-4.0.1  r_core=   1.10128   1.10128   1.10128   1.10128
113.0000     53.0000      231012    zatom,zion,pspd
8 -116133   3     4   600     0    pspcod,pspxc,lmax,lloc,mmax,r2well
5.99000000  5.00000000  0.00000000    rchrg fchrg qchrg
3     2     2     2     0    nproj
1     1           extension_switch
0                         2.8811057760763E+01 -8.2216970907210E+00  3.1468059483672E+00
1  0.0000000000000E+00  4.0045720073323E-09  2.1851218612312E-09  3.1178484211081E-08
2  1.0000000000000E-02  2.2275801574862E-01  6.7613019758188E-02  4.4206991212259E-02
3  2.0000000000000E-02  4.4301225109778E-01  1.3507589801383E-01  8.6964576209585E-02
4  3.0000000000000E-02  6.5828820075150E-01  2.0223910419170E-01  1.2684645958171E-01
5  4.0000000000000E-02  8.6616963431793E-01  2.6895433422109E-01  1.6247242213424E-01
6  5.0000000000000E-02  1.0643270438630E+00  3.3507513478128E-01  1.9253098604801E-01
7  6.0000000000000E-02  1.2505452592554E+00  4.0045753900620E-01  2.1580160668699E-01
8  7.0000000000000E-02  1.4227499474604E+00  4.6496071468309E-01  2.3117619228048E-01
9  8.0000000000000E-02  1.5790327079360E+00  5.2844762379525E-01  2.3767972152640E-01
10  9.0000000000000E-02  1.7176744730771E+00  5.9078568976819E-01  2.3448969489988E-01
11  1.0000000000000E-01  1.8371669212884E+00  6.5184746612676E-01  2.2095412088575E-01
12  1.1000000000000E-01  1.9362316118876E+00  7.1151129761350E-01  1.9660770650265E-01
13  1.2000000000000E-01  2.0138365567597E+00  7.6966196231869E-01  1.6118589541605E-01
14  1.3000000000000E-01  2.0692099546089E+00  8.2619128118869E-01  1.1463637963654E-01
15  1.4000000000000E-01  2.1018508307196E+00  8.8099867956131E-01  5.7127704993667E-02
16  1.5000000000000E-01  2.1115363491374E+00  9.3399168425577E-01 -1.0945401429879E-02
17  1.6000000000000E-01  2.0983255956352E+00  9.8508633932817E-01 -8.8960330139913E-02
18  1.7000000000000E-01  2.0625596689923E+00  1.0342075239674E+00 -1.7606882232802E-01
19  1.8000000000000E-01  2.0048579649144E+00  1.0812891571939E+00 -2.7120338789243E-01
20  1.9000000000000E-01  1.9261105909405E+00  1.1262742760393E+00 -3.7308808514036E-01
21  2.0000000000000E-01  1.8274669111591E+00  1.1691149766937E+00 -4.8025374966387E-01
22  2.1000000000000E-01  1.7103202853936E+00  1.2097722116399E+00 -5.9105765732630E-01
23  2.2000000000000E-01  1.5762891372892E+00  1.2482154399353E+00 -7.0370749326255E-01
24  2.3000000000000E-01  1.4271945577645E+00  1.2844221324184E+00 -8.1628937871803E-01
25  2.4000000000000E-01  1.2650347226634E+00  1.3183771385363E+00 -9.2679958444451E-01
26  2.5000000000000E-01  1.0919564740832E+00  1.3500719265188E+00 -1.0331794375775E+00
27  2.6000000000000E-01  9.1022448162612E-01  1.3795037135738E+00 -1.1333528130258E+00
28  2.7000000000000E-01  7.2218846055632E-01  1.4066745074263E+00 -1.2252654949995E+00
29  2.8000000000000E-01  5.3024897647167E-01  1.4315900846821E+00 -1.3069256038232E+00
30  2.9000000000000E-01  3.3682240870714E-01  1.4542589349667E+00 -1.3764442116717E+00
31  3.0000000000000E-01  1.4430567559263E-01  1.4746912024097E+00 -1.4320752218784E+00
32  3.1000000000000E-01 -4.4958657467764E-02  1.4928976576706E+00 -1.4722535627956E+00
33  3.2000000000000E-01 -2.2871626234599E-01  1.5088887342377E+00 -1.4956307508378E+00
34  3.3000000000000E-01 -4.0483331107554E-01  1.5226736621016E+00 -1.5011069093394E+00
35  3.4000000000000E-01 -5.7132652899879E-01  1.5342597301064E+00 -1.4878583902388E+00
36  3.5000000000000E-01 -7.2639048995259E-01  1.5436517053229E+00 -1.4553602333579E+00
37  3.6000000000000E-01 -8.6842165894454E-01  1.5508514337547E+00 -1.4034028111333E+00
38  3.7000000000000E-01 -9.9603875383065E-01  1.5558576416909E+00 -1.3321021420799E+00
39  3.8000000000000E-01 -1.1080990742948E+00  1.5586659512014E+00 -1.2419035101538E+00
40  3.9000000000000E-01 -1.2037105319455E+00  1.5592691168422E+00 -1.1335781949175E+00
41  4.0000000000000E-01 -1.2822392072958E+00  1.5576574837876E+00 -1.0082132938228E+00
42  4.1000000000000E-01 -1.3433123552739E+00  1.5538196605870E+00 -8.6719479745369E-01
43  4.2000000000000E-01 -1.3868168781048E+00  1.5477433927844E+00 -7.1218425547693E-01
44  4.3000000000000E-01 -1.4128933802517E+00  1.5394166169879E+00 -5.4508953965935E-01
45  4.4000000000000E-01 -1.4219260120059E+00  1.5288286688636E+00 -3.6803036518500E-01
46  4.5000000000000E-01 -1.4145283938324E+00  1.5159716131684E+00 -1.8329936769730E-01
47  4.6000000000000E-01 -1.3915259904838E+00  1.5008416595100E+00  6.6803533086421E-03
48  4.7000000000000E-01 -1.3539353702884E+00  1.4834406241968E+00  1.9940022739823E-01
49  4.8000000000000E-01 -1.3029408393429E+00  1.4637773964036E+00  3.9231268737087E-01
50  4.9000000000000E-01 -1.2398689814733E+00  1.4418693660266E+00  5.8287804247693E-01
51  5.0000000000000E-01 -1.1661616620552E+00  1.4177437710298E+00  7.6861067225631E-01
52  5.1000000000000E-01 -1.0833480668806E+00  1.3914389237874E+00  9.4712349666363E-01
53  5.2000000000000E-01 -9.9301634640791E-01  1.3630052788243E+00  1.1161697408509E+00
54  5.3000000000000E-01 -8.9678542156112E-01  1.3325063083386E+00  1.2736811016354E+00
55  5.4000000000000E-01 -7.9627748075462E-01  1.3000191568135E+00  1.4178015338177E+00
56  5.5000000000000E-01 -6.9309166033419E-01  1.2656350517076E+00  1.5469160039645E+00
57  5.6000000000000E-01 -5.8877935374238E-01  1.2294594534619E+00  1.6596737023787E+00
58  5.7000000000000E-01 -4.8482154021096E-01  1.1916119346554E+00  1.7550053558027E+00
59  5.8000000000000E-01 -3.8260846355368E-01  1.1522257848818E+00  1.8321344388779E+00
60  5.9000000000000E-01 -2.8342192760643E-01  1.1114473445736E+00  1.8905822366115E+00
61  6.0000000000000E-01 -1.8842040892665E-01  1.0694350773937E+00  1.9301668584406E+00
62  6.1000000000000E-01 -9.8627121298472E-02  1.0263583967505E+00  1.9509964428074E+00
63  6.2000000000000E-01 -1.4921101999290E-02  9.8239626733680E-01  1.9534569159703E+00
64  6.3000000000000E-01  6.1968671941573E-02  9.3773560721923E-01  1.9381947772881E+00
65  6.4000000000000E-01  1.3146618699143E-01  8.9256951983442E-01  1.9060954735156E+00
66  6.5000000000000E-01  1.9314841823928E-01  8.4709538823551E-01  1.8582579956095E+00
67  6.6000000000000E-01  2.4674262619816E-01  8.0151286606636E-01  1.7959663829292E+00
68  6.7000000000000E-01  2.9212111675835E-01  7.5602180104716E-01  1.7206588520302E+00
69  6.8000000000000E-01  3.2929369160811E-01  7.1082012728575E-01  1.6338952817313E+00
70  6.9000000000000E-01  3.5839804657575E-01  6.6610176256250E-01  1.5373237845386E+00
71  7.0000000000000E-01  3.7968840006322E-01  6.2205454596746E-01  1.4326470790682E+00
72  7.1000000000000E-01  3.9352265341710E-01  5.7885825000168E-01  1.3215893512192E+00
73  7.2000000000000E-01  4.0034840013889E-01  5.3668269959614E-01  1.2058642560482E+00
74  7.3000000000000E-01  4.0068811167162E-01  4.9568602855257E-01  1.0871446699215E+00
75  7.4000000000000E-01  3.9512383443286E-01  4.5601310175629E-01  9.6703475565770E-01
76  7.5000000000000E-01  3.8428173597974E-01  4.1779412921799E-01  8.4704485361789E-01
77  7.6000000000000E-01  3.6881683769510E-01  3.8114349560782E-01  7.2856966003809E-01
78  7.7000000000000E-01  3.4939826697055E-01  3.4615882645845E-01  6.1287010063538E-01
79  7.8000000000000E-01  3.2669535308128E-01  3.1292030960683E-01  5.0105925211960E-01
80  7.9000000000000E-01  3.0136487711697E-01  2.8149028765408E-01  3.9409260541550E-01
81  8.0000000000000E-01  2.7403976650684E-01  2.5191313415034E-01  2.9276289995769E-01
82  8.1000000000000E-01  2.4531949769924E-01  2.2421542272363E-01  1.9769968545253E-01
83  8.2000000000000E-01  2.1576243505561E-01  1.9840639430504E-01  1.0937368233688E-01
84  8.3000000000000E-01  1.8588028846410E-01  1.7447872276698E-01  2.8105910540249E-02
85  8.4000000000000E-01  1.5613481491579E-01  1.5240957347587E-01 -4.5918566685001E-02
86  8.5000000000000E-01  1.2693681858393E-01  1.3216194224042E-01 -1.1263258628034E-01
87  8.6000000000000E-01  9.8647418053557E-02  1.1368625367749E-01 -1.7206499948454E-01
88  8.7000000000000E-01  7.1581446529876E-02  9.6922187884359E-02 -2.2431565762381E-01
89  8.8000000000000E-01  4.6012729452335E-02  8.1800692268266E-02 -2.6952823085724E-01
90  8.9000000000000E-01  2.2180842397124E-02  6.8246121219525E-02 -3.0786212872342E-01
91  9.0000000000000E-01  2.9878904924299E-04  5.6178429817371E-02 -3.3946515107478E-01
92  9.1000000000000E-01 -1.9439146897636E-02  4.5515328737975E-02 -3.6444891427003E-01
93  9.2000000000000E-01 -3.6850331895550E-02  3.6174285822994E-02 -3.8286957424990E-01
94  9.3000000000000E-01 -5.1758685433340E-02  2.8074235214728E-02 -3.9471690882967E-01
95  9.4000000000000E-01 -6.3993006686638E-02  2.1136827442203E-02 -3.9991542919823E-01
96  9.5000000000000E-01 -7.3390462589891E-02  1.5287023240768E-02 -3.9834186781166E-01
97  9.6000000000000E-01 -7.9807288584006E-02  1.0452800101806E-02 -3.8986413903881E-01
98  9.7000000000000E-01 -8.3139094278327E-02  6.5637035025662E-03 -3.7440769185921E-01
99  9.8000000000000E-01 -8.3353535371714E-02  3.5479343574718E-03 -3.5205607296076E-01
100  9.9000000000000E-01 -8.0538531383491E-02  1.3276182885142E-03 -3.2319355389569E-01
101  1.0000000000000E+00 -7.4969406953041E-02 -1.8812161579954E-04 -2.8869807732292E-01
102  1.0100000000000E+00 -6.7186314579423E-02 -1.1114468924816E-03 -2.5015805888791E-01
103  1.0200000000000E+00 -5.7905523382875E-02 -1.5673136474157E-03 -2.0960862193821E-01
104  1.0300000000000E+00 -4.7833183824596E-02 -1.6744731770578E-03 -1.6900005007252E-01
105  1.0400000000000E+00 -3.7627315516455E-02 -1.5412104220091E-03 -1.3010158231964E-01
106  1.0500000000000E+00 -2.7864322070362E-02 -1.2632480059311E-03 -9.4432372490793E-02
107  1.0600000000000E+00 -1.8902837724232E-02 -9.1835260769744E-04 -6.2972518892778E-02
108  1.0700000000000E+00 -1.1241598539993E-02 -5.7240641025977E-04 -3.6920502999158E-02
109  1.0800000000000E+00 -5.3353081440685E-03 -2.7985450628686E-04 -1.7317026923402E-02
110  1.0900000000000E+00 -1.5178958953928E-03 -8.0832861334509E-05 -4.8790759656277E-03
111  1.1000000000000E+00 -3.9664997230508E-05 -2.1093210938957E-06 -1.2633392302511E-04
112  1.1100000000000E+00 -7.1262244270777E-06 -3.8251938377545E-07 -2.2732751525256E-05
113  1.1200000000000E+00  6.9895418116655E-07  3.7423235676557E-08  2.2381931631615E-06
114  1.13  0.  0.  0.
115  1.14  0.  0.  0.
116  1.15  0.  0.  0.
117  1.16  0.  0.  0.
118  1.17  0.  0.  0.
119  1.18  0.  0.  0.
120  1.19  0.  0.  0.
121  1.20  0.  0.  0.
122  1.21  0.  0.  0.
123  1.22  0.  0.  0.
124  1.23  0.  0.  0.
125  1.24  0.  0.  0.
126  1.25  0.  0.  0.
127  1.26  0.  0.  0.
128  1.27  0.  0.  0.
129  1.28  0.  0.  0.
130  1.29  0.  0.  0.
131  1.30  0.  0.  0.
132  1.31  0.  0.  0.
133  1.32  0.  0.  0.
134  1.33  0.  0.  0.
135  1.34  0.  0.  0.
136  1.35  0.  0.  0.
137  1.36  0.  0.  0.
138  1.37  0.  0.  0.
139  1.38  0.  0.  0.
140  1.39  0.  0.  0.
141  1.40  0.  0.  0.
142  1.41  0.  0.  0.
143  1.42  0.  0.  0.
144  1.43  0.  0.  0.
145  1.44  0.  0.  0.
146  1.45  0.  0.  0.
147  1.46  0.  0.  0.
148  1.47  0.  0.  0.
149  1.48  0.  0.  0.
150  1.49  0.  0.  0.
151  1.50  0.  0.  0.
152  1.51  0.  0.  0.
153  1.52  0.  0.  0.
154  1.53  0.  0.  0.
155  1.54  0.  0.  0.
156  1.55  0.  0.  0.
157  1.56  0.  0.  0.
158  1.57  0.  0.  0.
159  1.58  0.  0.  0.
160  1.59  0.  0.  0.
161  1.60  0.  0.  0.
162  1.61  0.  0.  0.
163  1.62  0.  0.  0.
164  1.63  0.  0.  0.
165  1.64  0.  0.  0.
166  1.65  0.  0.  0.
167  1.66  0.  0.  0.
168  1.67  0.  0.  0.
169  1.68  0.  0.  0.
170  1.69  0.  0.  0.
171  1.70  0.  0.  0.
172  1.71  0.  0.  0.
173  1.72  0.  0.  0.
174  1.73  0.  0.  0.
175  1.74  0.  0.  0.
176  1.75  0.  0.  0.
177  1.76  0.  0.  0.
178  1.77  0.  0.  0.
179  1.78  0.  0.  0.
180  1.79  0.  0.  0.
181  1.80  0.  0.  0.
182  1.81  0.  0.  0.
183  1.82  0.  0.  0.
184  1.83  0.  0.  0.
185  1.84  0.  0.  0.
186  1.85  0.  0.  0.
187  1.86  0.  0.  0.
188  1.87  0.  0.  0.
189  1.88  0.  0.  0.
190  1.89  0.  0.  0.
191  1.90  0.  0.  0.
192  1.91  0.  0.  0.
193  1.92  0.  0.  0.
194  1.93  0.  0.  0.
195  1.94  0.  0.  0.
196  1.95  0.  0.  0.
197  1.96  0.  0.  0.
198  1.97  0.  0.  0.
199  1.98  0.  0.  0.
200  1.99  0.  0.  0.
201  2.00  0.  0.  0.
202  2.01  0.  0.  0.
203  2.02  0.  0.  0.
204  2.03  0.  0.  0.
205  2.04  0.  0.  0.
206  2.05  0.  0.  0.
207  2.06  0.  0.  0.
208  2.07  0.  0.  0.
209  2.08  0.  0.  0.
210  2.09  0.  0.  0.
211  2.10  0.  0.  0.
212  2.11  0.  0.  0.
213  2.12  0.  0.  0.
214  2.13  0.  0.  0.
215  2.14  0.  0.  0.
216  2.15  0.  0.  0.
217  2.16  0.  0.  0.
218  2.17  0.  0.  0.
219  2.18  0.  0.  0.
220  2.19  0.  0.  0.
221  2.20  0.  0.  0.
222  2.21  0.  0.  0.
223  2.22  0.  0.  0.
224  2.23  0.  0.  0.
225  2.24  0.  0.  0.
226  2.25  0.  0.  0.
227  2.26  0.  0.  0.
228  2.27  0.  0.  0.
229  2.28  0.  0.  0.
230  2.29  0.  0.  0.
231  2.30  0.  0.  0.
232  2.31  0.  0.  0.
233  2.32  0.  0.  0.
234  2.33  0.  0.  0.
235  2.34  0.  0.  0.
236  2.35  0.  0.  0.
237  2.36  0.  0.  0.
238  2.37  0.  0.  0.
239  2.38  0.  0.  0.
240  2.39  0.  0.  0.
241  2.40  0.  0.  0.
242  2.41  0.  0.  0.
243  2.42  0.  0.  0.
244  2.43  0.  0.  0.
245  2.44  0.  0.  0.
246  2.45  0.  0.  0.
247  2.46  0.  0.  0.
248  2.47  0.  0.  0.
249  2.48  0.  0.  0.
250  2.49  0.  0.  0.
251  2.50  0.  0.  0.
252  2.51  0.  0.  0.
253  2.52  0.  0.  0.
254  2.53  0.  0.  0.
255  2.54  0.  0.  0.
256  2.55  0.  0.  0.
257  2.56  0.  0.  0.
258  2.57  0.  0.  0.
259  2.58  0.  0.  0.
260  2.59  0.  0.  0.
261  2.60  0.  0.  0.
262  2.61  0.  0.  0.
263  2.62  0.  0.  0.
264  2.63  0.  0.  0.
265  2.64  0.  0.  0.
266  2.65  0.  0.  0.
267  2.66  0.  0.  0.
268  2.67  0.  0.  0.
269  2.68  0.  0.  0.
270  2.69  0.  0.  0.
271  2.70  0.  0.  0.
272  2.71  0.  0.  0.
273  2.72  0.  0.  0.
274  2.73  0.  0.  0.
275  2.74  0.  0.  0.
276  2.75  0.  0.  0.
277  2.76  0.  0.  0.
278  2.77  0.  0.  0.
279  2.78  0.  0.  0.
280  2.79  0.  0.  0.
281  2.80  0.  0.  0.
282  2.81  0.  0.  0.
283  2.82  0.  0.  0.
284  2.83  0.  0.  0.
285  2.84  0.  0.  0.
286  2.85  0.  0.  0.
287  2.86  0.  0.  0.
288  2.87  0.  0.  0.
289  2.88  0.  0.  0.
290  2.89  0.  0.  0.
291  2.90  0.  0.  0.
292  2.91  0.  0.  0.
293  2.92  0.  0.  0.
294  2.93  0.  0.  0.
295  2.94  0.  0.  0.
296  2.95  0.  0.  0.
297  2.96  0.  0.  0.
298  2.97  0.  0.  0.
299  2.98  0.  0.  0.
300  2.99  0.  0.  0.
301  3.00  0.  0.  0.
302  3.01  0.  0.  0.
303  3.02  0.  0.  0.
304  3.03  0.  0.  0.
305  3.04  0.  0.  0.
306  3.05  0.  0.  0.
307  3.06  0.  0.  0.
308  3.07  0.  0.  0.
309  3.08  0.  0.  0.
310  3.09  0.  0.  0.
311  3.10  0.  0.  0.
312  3.11  0.  0.  0.
313  3.12  0.  0.  0.
314  3.13  0.  0.  0.
315  3.14  0.  0.  0.
316  3.15  0.  0.  0.
317  3.16  0.  0.  0.
318  3.17  0.  0.  0.
319  3.18  0.  0.  0.
320  3.19  0.  0.  0.
321  3.20  0.  0.  0.
322  3.21  0.  0.  0.
323  3.22  0.  0.  0.
324  3.23  0.  0.  0.
325  3.24  0.  0.  0.
326  3.25  0.  0.  0.
327  3.26  0.  0.  0.
328  3.27  0.  0.  0.
329  3.28  0.  0.  0.
330  3.29  0.  0.  0.
331  3.30  0.  0.  0.
332  3.31  0.  0.  0.
333  3.32  0.  0.  0.
334  3.33  0.  0.  0.
335  3.34  0.  0.  0.
336  3.35  0.  0.  0.
337  3.36  0.  0.  0.
338  3.37  0.  0.  0.
339  3.38  0.  0.  0.
340  3.39  0.  0.  0.
341  3.40  0.  0.  0.
342  3.41  0.  0.  0.
343  3.42  0.  0.  0.
344  3.43  0.  0.  0.
345  3.44  0.  0.  0.
346  3.45  0.  0.  0.
347  3.46  0.  0.  0.
348  3.47  0.  0.  0.
349  3.48  0.  0.  0.
350  3.49  0.  0.  0.
351  3.50  0.  0.  0.
352  3.51  0.  0.  0.
353  3.52  0.  0.  0.
354  3.53  0.  0.  0.
355  3.54  0.  0.  0.
356  3.55  0.  0.  0.
357  3.56  0.  0.  0.
358  3.57  0.  0.  0.
359  3.58  0.  0.  0.
360  3.59  0.  0.  0.
361  3.60  0.  0.  0.
362  3.61  0.  0.  0.
363  3.62  0.  0.  0.
364  3.63  0.  0.  0.
365  3.64  0.  0.  0.
366  3.65  0.  0.  0.
367  3.66  0.  0.  0.
368  3.67  0.  0.  0.
369  3.68  0.  0.  0.
370  3.69  0.  0.  0.
371  3.70  0.  0.  0.
372  3.71  0.  0.  0.
373  3.72  0.  0.  0.
374  3.73  0.  0.  0.
375  3.74  0.  0.  0.
376  3.75  0.  0.  0.
377  3.76  0.  0.  0.
378  3.77  0.  0.  0.
379  3.78  0.  0.  0.
380  3.79  0.  0.  0.
381  3.80  0.  0.  0.
382  3.81  0.  0.  0.
383  3.82  0.  0.  0.
384  3.83  0.  0.  0.
385  3.84  0.  0.  0.
386  3.85  0.  0.  0.
387  3.86  0.  0.  0.
388  3.87  0.  0.  0.
389  3.88  0.  0.  0.
390  3.89  0.  0.  0.
391  3.90  0.  0.  0.
392  3.91  0.  0.  0.
393  3.92  0.  0.  0.
394  3.93  0.  0.  0.
395  3.94  0.  0.  0.
396  3.95  0.  0.  0.
397  3.96  0.  0.  0.
398  3.97  0.  0.  0.
399  3.98  0.  0.  0.
400  3.99  0.  0.  0.
401  4.00  0.  0.  0.
402  4.01  0.  0.  0.
403  4.02  0.  0.  0.
404  4.03  0.  0.  0.
405  4.04  0.  0.  0.
406  4.05  0.  0.  0.
407  4.06  0.  0.  0.
408  4.07  0.  0.  0.
409  4.08  0.  0.  0.
410  4.09  0.  0.  0.
411  4.10  0.  0.  0.
412  4.11  0.  0.  0.
413  4.12  0.  0.  0.
414  4.13  0.  0.  0.
415  4.14  0.  0.  0.
416  4.15  0.  0.  0.
417  4.16  0.  0.  0.
418  4.17  0.  0.  0.
419  4.18  0.  0.  0.
420  4.19  0.  0.  0.
421  4.20  0.  0.  0.
422  4.21  0.  0.  0.
423  4.22  0.  0.  0.
424  4.23  0.  0.  0.
425  4.24  0.  0.  0.
426  4.25  0.  0.  0.
427  4.26  0.  0.  0.
428  4.27  0.  0.  0.
429  4.28  0.  0.  0.
430  4.29  0.  0.  0.
431  4.30  0.  0.  0.
432  4.31  0.  0.  0.
433  4.32  0.  0.  0.
434  4.33  0.  0.  0.
435  4.34  0.  0.  0.
436  4.35  0.  0.  0.
437  4.36  0.  0.  0.
438  4.37  0.  0.  0.
439  4.38  0.  0.  0.
440  4.39  0.  0.  0.
441  4.40  0.  0.  0.
442  4.41  0.  0.  0.
443  4.42  0.  0.  0.
444  4.43  0.  0.  0.
445  4.44  0.  0.  0.
446  4.45  0.  0.  0.
447  4.46  0.  0.  0.
448  4.47  0.  0.  0.
449  4.48  0.  0.  0.
450  4.49  0.  0.  0.
451  4.50  0.  0.  0.
452  4.51  0.  0.  0.
453  4.52  0.  0.  0.
454  4.53  0.  0.  0.
455  4.54  0.  0.  0.
456  4.55  0.  0.  0.
457  4.56  0.  0.  0.
458  4.57  0.  0.  0.
459  4.58  0.  0.  0.
460  4.59  0.  0.  0.
461  4.60  0.  0.  0.
462  4.61  0.  0.  0.
463  4.62  0.  0.  0.
464  4.63  0.  0.  0.
465  4.64  0.  0.  0.
466  4.65  0.  0.  0.
467  4.66  0.  0.  0.
468  4.67  0.  0.  0.
469  4.68  0.  0.  0.
470  4.69  0.  0.  0.
471  4.70  0.  0.  0.
472  4.71  0.  0.  0.
473  4.72  0.  0.  0.
474  4.73  0.  0.  0.
475  4.74  0.  0.  0.
476  4.75  0.  0.  0.
477  4.76  0.  0.  0.
478  4.77  0.  0.  0.
479  4.78  0.  0.  0.
480  4.79  0.  0.  0.
481  4.80  0.  0.  0.
482  4.81  0.  0.  0.
483  4.82  0.  0.  0.
484  4.83  0.  0.  0.
485  4.84  0.  0.  0.
486  4.85  0.  0.  0.
487  4.86  0.  0.  0.
488  4.87  0.  0.  0.
489  4.88  0.  0.  0.
490  4.89  0.  0.  0.
491  4.90  0.  0.  0.
492  4.91  0.  0.  0.
493  4.92  0.  0.  0.
494  4.93  0.  0.  0.
495  4.94  0.  0.  0.
496  4.95  0.  0.  0.
497  4.96  0.  0.  0.
498  4.97  0.  0.  0.
499  4.98  0.  0.  0.
500  4.99  0.  0.  0.
501  5.00  0.  0.  0.
502  5.01  0.  0.  0.
503  5.02  0.  0.  0.
504  5.03  0.  0.  0.
505  5.04  0.  0.  0.
506  5.05  0.  0.  0.
507  5.06  0.  0.  0.
508  5.07  0.  0.  0.
509  5.08  0.  0.  0.
510  5.09  0.  0.  0.
511  5.10  0.  0.  0.
512  5.11  0.  0.  0.
513  5.12  0.  0.  0.
514  5.13  0.  0.  0.
515  5.14  0.  0.  0.
516  5.15  0.  0.  0.
517  5.16  0.  0.  0.
518  5.17  0.  0.  0.
519  5.18  0.  0.  0.
520  5.19  0.  0.  0.
521  5.20  0.  0.  0.
522  5.21  0.  0.  0.
523  5.22  0.  0.  0.
524  5.23  0.  0.  0.
525  5.24  0.  0.  0.
526  5.25  0.  0.  0.
527  5.26  0.  0.  0.
528  5.27  0.  0.  0.
529  5.28  0.  0.  0.
530  5.29  0.  0.  0.
531  5.30  0.  0.  0.
532  5.31  0.  0.  0.
533  5.32  0.  0.  0.
534  5.33  0.  0.  0.
535  5.34  0.  0.  0.
536  5.35  0.  0.  0.
537  5.36  0.  0.  0.
538  5.37  0.  0.  0.
539  5.38  0.  0.  0.
540  5.39  0.  0.  0.
541  5.40  0.  0.  0.
542  5.41  0.  0.  0.
543  5.42  0.  0.  0.
544  5.43  0.  0.  0.
545  5.44  0.  0.  0.
546  5.45  0.  0.  0.
547  5.46  0.  0.  0.
548  5.47  0.  0.  0.
549  5.48  0.  0.  0.
550  5.49  0.  0.  0.
551  5.50  0.  0.  0.
552  5.51  0.  0.  0.
553  5.52  0.  0.  0.
554  5.53  0.  0.  0.
555  5.54  0.  0.  0.
556  5.55  0.  0.  0.
557  5.56  0.  0.  0.
558  5.57  0.  0.  0.
559  5.58  0.  0.  0.
560  5.59  0.  0.  0.
561  5.60  0.  0.  0.
562  5.61  0.  0.  0.
563  5.62  0.  0.  0.
564  5.63  0.  0.  0.
565  5.64  0.  0.  0.
566  5.65  0.  0.  0.
567  5.66  0.  0.  0.
568  5.67  0.  0.  0.
569  5.68  0.  0.  0.
570  5.69  0.  0.  0.
571  5.70  0.  0.  0.
572  5.71  0.  0.  0.
573  5.72  0.  0.  0.
574  5.73  0.  0.  0.
575  5.74  0.  0.  0.
576  5.75  0.  0.  0.
577  5.76  0.  0.  0.
578  5.77  0.  0.  0.
579  5.78  0.  0.  0.
580  5.79  0.  0.  0.
581  5.80  0.  0.  0.
582  5.81  0.  0.  0.
583  5.82  0.  0.  0.
584  5.83  0.  0.  0.
585  5.84  0.  0.  0.
586  5.85  0.  0.  0.
587  5.86  0.  0.  0.
588  5.87  0.  0.  0.
589  5.88  0.  0.  0.
590  5.89  0.  0.  0.
591  5.90  0.  0.  0.
592  5.91  0.  0.  0.
593  5.92  0.  0.  0.
594  5.93  0.  0.  0.
595  5.94  0.  0.  0.
596  5.95  0.  0.  0.
597  5.96  0.  0.  0.
598  5.97  0.  0.  0.
599  5.98  0.  0.  0.
600  5.99  0.  0.  0.
1                         9.9250911121200E+00 -6.2721436847270E+00
1  0.0000000000000E+00  6.0403631874095E-08 -5.9489357467912E-09
2  1.0000000000000E-02  8.5834260689579E-03  1.5174330803097E-03
3  2.0000000000000E-02  3.4193518420749E-02  6.0705213273967E-03
4  3.0000000000000E-02  7.6411910855531E-02  1.3661479300729E-02
5  4.0000000000000E-02  1.3454859671773E-01  2.4293493247893E-02
6  5.0000000000000E-02  2.0765271519429E-01  3.7969976299768E-02
7  6.0000000000000E-02  2.9452741552077E-01  5.4693549942440E-02
8  7.0000000000000E-02  3.9374856671712E-01  7.4464775394647E-02
9  8.0000000000000E-02  5.0368702007137E-01  9.7280664468468E-02
10  9.0000000000000E-02  6.2253407557656E-01  1.2313300485915E-01
11  1.0000000000000E-01  7.4832975276724E-01  1.5200653949080E-01
12  1.1000000000000E-01  8.7899342169423E-01  1.8387704344485E-01
13  1.2000000000000E-01  1.0123563118368E+00  2.1870934503880E-01
14  1.3000000000000E-01  1.1461953862103E+00  2.5645533974098E-01
15  1.4000000000000E-01  1.2782680453112E+00  2.9705204675848E-01
16  1.5000000000000E-01  1.4063471112729E+00  3.4041975829202E-01
17  1.6000000000000E-01  1.5282555369816E+00  3.8646033060675E-01
18  1.7000000000000E-01  1.6419002880987E+00  4.3505566423138E-01
19  1.8000000000000E-01  1.7453048579994E+00  4.8606641780131E-01
20  1.9000000000000E-01  1.8366398964628E+00  5.3933099635156E-01
21  2.0000000000000E-01  1.9142514623151E+00  5.9466485030893E-01
22  2.1000000000000E-01  1.9766864477484E+00  6.5186011611267E-01
23  2.2000000000000E-01  2.0227147672007E+00  7.1068562340511E-01
24  2.3000000000000E-01  2.0513479558402E+00  7.7088728719001E-01
25  2.4000000000000E-01  2.0618538810672E+00  8.3218889637644E-01
26  2.5000000000000E-01  2.0537673341260E+00  8.9429330284135E-01
27  2.6000000000000E-01  2.0268963368990E+00  9.5688400769054E-01
28  2.7000000000000E-01  1.9813240701350E+00  1.0196271339149E+00
29  2.8000000000000E-01  1.9174064025480E+00  1.0821737672692E+00
30  2.9000000000000E-01  1.8357650741787E+00  1.1441626400840E+00
31  3.0000000000000E-01  1.7372766608482E+00  1.2052231259889E+00
32  3.1000000000000E-01  1.6230575181552E+00  1.2649785073163E+00
33  3.2000000000000E-01  1.4944449719740E+00  1.3230494713710E+00
34  3.3000000000000E-01  1.3529750865534E+00  1.3790577869224E+00
35  3.4000000000000E-01  1.2003573998743E+00  1.4326301082728E+00
36  3.5000000000000E-01  1.0384470677880E+00  1.4834018511760E+00
37  3.6000000000000E-01  8.6921490260410E-01  1.5310210827721E+00
38  3.7000000000000E-01  6.9471582734214E-01  1.5751523666186E+00
39  3.8000000000000E-01  5.1705629306590E-01  1.6154805038510E+00
40  3.9000000000000E-01  3.3836122302083E-01  1.6517141125094E+00
41  4.0000000000000E-01  1.6074105330245E-01  1.6835889890981E+00
42  4.1000000000000E-01 -1.3740564681585E-02  1.7108711994708E+00
43  4.2000000000000E-01 -1.8309784961844E-01  1.7333598501037E+00
44  4.3000000000000E-01 -3.4545223838266E-01  1.7508894956476E+00
45  4.4000000000000E-01 -4.9905950658091E-01  1.7633321442685E+00
46  4.5000000000000E-01 -6.4233421542034E-01  1.7705988285704E+00
47  4.6000000000000E-01 -7.7387109120198E-01  1.7726407167469E+00
48  4.7000000000000E-01 -8.9246300348381E-01  1.7694497458818E+00
49  4.8000000000000E-01 -9.9711527384682E-01  1.7610587669052E+00
50  4.9000000000000E-01 -1.0870561179233E+00  1.7475411984418E+00
51  5.0000000000000E-01 -1.1617430974965E+00  1.7290101945459E+00
52  5.1000000000000E-01 -1.2208655355573E+00  1.7056173389414E+00
53  5.2000000000000E-01 -1.2643429236639E+00  1.6775508857488E+00
54  5.3000000000000E-01 -1.2923194262397E+00  1.6450335736463E+00
55  5.4000000000000E-01 -1.3051546590229E+00  1.6083200468534E+00
56  5.5000000000000E-01 -1.3034109872722E+00  1.5676939221350E+00
57  5.6000000000000E-01 -1.2878376521435E+00  1.5234645460934E+00
58  5.7000000000000E-01 -1.2593520896152E+00  1.4759634912721E+00
59  5.8000000000000E-01 -1.2190188543338E+00  1.4255408429533E+00
60  5.9000000000000E-01 -1.1680265998406E+00  1.3725613309619E+00
61  6.0000000000000E-01 -1.1076635960798E+00  1.3174003622417E+00
62  6.1000000000000E-01 -1.0392922843510E+00  1.2604400104450E+00
63  6.2000000000000E-01 -9.6432337866641E-01  1.2020650182824E+00
64  6.3000000000000E-01 -8.8419002072811E-01  1.1426588669343E+00
65  6.4000000000000E-01 -8.0032248364115E-01  1.0825999644853E+00
66  6.5000000000000E-01 -7.1412389741048E-01  1.0222580021651E+00
67  6.6000000000000E-01 -6.2694743786026E-01  9.6199052324579E-01
68  6.7000000000000E-01 -5.4007538067799E-01  9.0213974484515E-01
69  6.8000000000000E-01 -4.5470037481920E-01  8.4302966773255E-01
70  6.9000000000000E-01 -3.7190923565571E-01  7.8496350363048E-01
71  7.0000000000000E-01 -2.9266949928556E-01  7.2822144358521E-01
72  7.1000000000000E-01 -2.1781891668770E-01  6.7305878486072E-01
73  7.2000000000000E-01 -1.4805800131748E-01  6.1970442762372E-01
74  7.3000000000000E-01 -8.3945677706266E-02  5.6835974655902E-01
75  7.4000000000000E-01 -2.5898013050688E-02  5.1919783660571E-01
76  7.5000000000000E-01  2.5810050004962E-02  4.7236312635282E-01
77  7.6000000000000E-01  7.1040101943687E-02  4.2797134738325E-01
78  7.7000000000000E-01  1.0978301544992E-01  3.8610984310481E-01
79  7.8000000000000E-01  1.4214928559299E-01  3.4683819643899E-01
80  7.9000000000000E-01  1.6835725726885E-01  3.1018915221980E-01
81  8.0000000000000E-01  1.8871957505837E-01  2.7616980734107E-01
82  8.1000000000000E-01  2.0362822272091E-01  2.4476303961527E-01
83  8.2000000000000E-01  2.1353854446139E-01  2.1592914499241E-01
84  8.3000000000000E-01  2.1895265788597E-01  1.8960765223456E-01
85  8.4000000000000E-01  2.2040267940160E-01  1.6571928433863E-01
86  8.5000000000000E-01  2.1843418711101E-01  1.4416803691740E-01
87  8.6000000000000E-01  2.1359034456883E-01  1.2484334534424E-01
88  8.7000000000000E-01  2.0639710181461E-01  1.0762231468481E-01
89  8.8000000000000E-01  1.9734987872085E-01  9.2371989212942E-02
90  8.9000000000000E-01  1.8690212083305E-01  7.8951641563082E-02
91  9.0000000000000E-01  1.7545610054019E-01  6.7215065226189E-02
92  9.1000000000000E-01  1.6335631764953E-01  5.7012858064682E-02
93  9.2000000000000E-01  1.5088583430828E-01  4.8194688717014E-02
94  9.3000000000000E-01  1.3826586075626E-01  4.0611542097206E-02
95  9.4000000000000E-01  1.2565889160423E-01  3.4117944585327E-02
96  9.5000000000000E-01  1.1317567813414E-01  2.8574173872590E-02
97  9.6000000000000E-01  1.0088631133823E-01  2.3848462698360E-02
98  9.7000000000000E-01  8.8835683776567E-02  1.9819209831933E-02
99  9.8000000000000E-01  7.7063596424957E-02  1.6377215557398E-02
100  9.9000000000000E-01  6.5629788839469E-02  1.3427963327130E-02
101  1.0000000000000E+00  5.4644079816319E-02  1.0893964033652E-02
102  1.0100000000000E+00  4.4296261441454E-02  8.7166967239003E-03
103  1.0200000000000E+00  3.4809024446706E-02  6.8516720224571E-03
104  1.0300000000000E+00  2.6357249437292E-02  5.2612426210619E-03
105  1.0400000000000E+00  1.9060956136377E-02  3.9142329630836E-03
106  1.0500000000000E+00  1.2982306121586E-02  2.7845649220504E-03
107  1.0600000000000E+00  8.1008744759138E-03  1.8410497072691E-03
108  1.0700000000000E+00  4.4283247908745E-03  1.0814176335046E-03
109  1.0800000000000E+00  1.9278017765954E-03  5.1327475196306E-04
110  1.0900000000000E+00  5.0131404528095E-04  1.4774017310071E-04
111  1.1000000000000E+00  1.1813091287043E-05  3.9684774392719E-06
112  1.1100000000000E+00  2.1505318975311E-06  7.0468999192512E-07
113  1.1200000000000E+00 -2.2028890412062E-07 -6.8530708305365E-08
114  1.13  0.  0.
115  1.14  0.  0.
116  1.15  0.  0.
117  1.16  0.  0.
118  1.17  0.  0.
119  1.18  0.  0.
120  1.19  0.  0.
121  1.20  0.  0.
122  1.21  0.  0.
123  1.22  0.  0.
124  1.23  0.  0.
125  1.24  0.  0.
126  1.25  0.  0.
127  1.26  0.  0.
128  1.27  0.  0.
129  1.28  0.  0.
130  1.29  0.  0.
131  1.30  0.  0.
132  1.31  0.  0.
133  1.32  0.  0.
134  1.33  0.  0.
135  1.34  0.  0.
136  1.35  0.  0.
137  1.36  0.  0.
138  1.37  0.  0.
139  1.38  0.  0.
140  1.39  0.  0.
141  1.40  0.  0.
142  1.41  0.  0.
143  1.42  0.  0.
144  1.43  0.  0.
145  1.44  0.  0.
146  1.45  0.  0.
147  1.46  0.  0.
148  1.47  0.  0.
149  1.48  0.  0.
150  1.49  0.  0.
151  1.50  0.  0.
152  1.51  0.  0.
153  1.52  0.  0.
154  1.53  0.  0.
155  1.54  0.  0.
156  1.55  0.  0.
157  1.56  0.  0.
158  1.57  0.  0.
159  1.58  0.  0.
160  1.59  0.  0.
161  1.60  0.  0.
162  1.61  0.  0.
163  1.62  0.  0.
164  1.63  0.  0.
165  1.64  0.  0.
166  1.65  0.  0.
167  1.66  0.  0.
168  1.67  0.  0.
169  1.68  0.  0.
170  1.69  0.  0.
171  1.70  0.  0.
172  1.71  0.  0.
173  1.72  0.  0.
174  1.73  0.  0.
175  1.74  0.  0.
176  1.75  0.  0.
177  1.76  0.  0.
178  1.77  0.  0.
179  1.78  0.  0.
180  1.79  0.  0.
181  1.80  0.  0.
182  1.81  0.  0.
183  1.82  0.  0.
184  1.83  0.  0.
185  1.84  0.  0.
186  1.85  0.  0.
187  1.86  0.  0.
188  1.87  0.  0.
189  1.88  0.  0.
190  1.89  0.  0.
191  1.90  0.  0.
192  1.91  0.  0.
193  1.92  0.  0.
194  1.93  0.  0.
195  1.94  0.  0.
196  1.95  0.  0.
197  1.96  0.  0.