Md    ONCVPSP-4.0.1  r_core=   1.10635   1.10635   1.00536   1.10635
101.0000     41.0000      230730    zatom,zion,pspd
8      11   3     4   600     0    pspcod,pspxc,lmax,lloc,mmax,r2well
5.99000000  2.70000000  0.00000000    rchrg fchrg qchrg
3     2     2     2     0    nproj
1     1           extension_switch
0                         2.9035850864316E+01  3.9140005055340E+00 -6.1258420638702E-01
1  0.0000000000000E+00 -5.4330422605275E-08  1.7346237946025E-07  1.1450186981898E-07
2  1.0000000000000E-02  1.6300230337782E-01 -5.3210727622174E-02  1.8002573585045E-02
3  2.0000000000000E-02  3.2483135509536E-01 -1.0503410286356E-01  3.6378800948226E-02
4  3.0000000000000E-02  4.8432873732909E-01 -1.5411737436761E-01  5.5482775582960E-02
5  4.0000000000000E-02  6.4036530775347E-01 -1.9917578838439E-01  7.5630278427361E-02
6  5.0000000000000E-02  7.9185487197053E-01 -2.3902362467751E-01  9.7081610004960E-02
7  6.0000000000000E-02  9.3776673925978E-01 -2.7260180995333E-01  1.2002672136458E-01
8  7.0000000000000E-02  1.0771368570636E+00 -2.9900118377490E-01  1.4457326820807E-01
9  8.0000000000000E-02  1.2090772739537E+00 -3.1748066538517E-01  1.7073809809280E-01
10  9.0000000000000E-02  1.3327837443574E+00 -3.2747977287957E-01  1.9844254602740E-01
11  1.0000000000000E-01  1.4475413584096E+00 -3.2862517036768E-01  2.2751176435886E-01
12  1.1000000000000E-01  1.5527281540169E+00 -3.2073115490762E-01  2.5767815436828E-01
13  1.2000000000000E-01  1.6478167424960E+00 -3.0379423335017E-01  2.8858880559223E-01
14  1.3000000000000E-01  1.7323740508962E+00 -2.7798216996344E-01  3.1981669082467E-01
15  1.4000000000000E-01  1.8060593503366E+00 -2.4361809930935E-01  3.5087521615794E-01
16  1.5000000000000E-01  1.8686207976371E+00 -2.0116048650385E-01  3.8123559205221E-01
17  1.6000000000000E-01  1.9198907647931E+00 -1.5117987097902E-01  4.1034637845313E-01
18  1.7000000000000E-01  1.9597802654914E+00 -9.4333443841931E-02  4.3765446878793E-01
19  1.8000000000000E-01  1.9882728084653E+00 -3.1338578212599E-02  4.6262671768355E-01
20  1.9000000000000E-01  2.0054180132331E+00  3.7053546294411E-02  4.8477138779283E-01
21  2.0000000000000E-01  2.0113253144703E+00  1.1008311033523E-01  5.0365859332775E-01
22  2.1000000000000E-01  2.0061580573906E+00  1.8700457195882E-01  5.1893895170389E-01
23  2.2000000000000E-01  1.9901282491423E+00  2.6710641090728E-01  5.3035971878098E-01
24  2.3000000000000E-01  1.9634921820475E+00  3.4972693361707E-01  5.3777777506360E-01
25  2.4000000000000E-01  1.9265470856916E+00  4.3426556147191E-01  5.4116894634376E-01
26  2.5000000000000E-01  1.8796288990446E+00  5.2018923818290E-01  5.4063327812869E-01
27  2.6000000000000E-01  1.8231111838745E+00  6.0703382071172E-01  5.3639603354710E-01
28  2.7000000000000E-01  1.7574051298356E+00  6.9440055217146E-01  5.2880434345852E-01
29  2.8000000000000E-01  1.6829605329588E+00  7.8194794461748E-01  5.1831959906294E-01
30  2.9000000000000E-01  1.6002675659460E+00  8.6937961474391E-01  5.0550583520634E-01
31  3.0000000000000E-01  1.5098591035943E+00  9.5642880692964E-01  4.9101450072960E-01
32  3.1000000000000E-01  1.4123133224040E+00  1.0428404975331E+00  4.7556614495586E-01
33  3.2000000000000E-01  1.3082562620960E+00  1.1283520947993E+00  4.5992966169386E-01
34  3.3000000000000E-01  1.1983640199665E+00  1.2126738248449E+00  4.4489981972383E-01
35  3.4000000000000E-01  1.0833642477078E+00  1.2954699223821E+00  4.3127386836774E-01
36  3.5000000000000E-01  9.6403663485272E-01  1.3763417236253E+00  4.1982803627745E-01
37  3.6000000000000E-01  8.4121209298682E-01  1.4548136887300E+00  4.1129474003667E-01
38  3.7000000000000E-01  7.1577039929028E-01  1.5303232648115E+00  4.0634128682614E-01
39  3.8000000000000E-01  5.8863611516135E-01  1.6022153426403E+00  4.0555079370050E-01
40  3.9000000000000E-01  4.6077266339815E-01  1.6697418669532E+00  4.0940595758776E-01
41  4.0000000000000E-01  3.3317452297931E-01  1.7320669398231E+00  4.1827619857425E-01
42  4.1000000000000E-01  2.0685758079975E-01  1.7882775178682E+00  4.3240856892034E-01
43  4.2000000000000E-01  8.2847761478454E-02  1.8373995571561E+00  4.5192267677646E-01
44  4.3000000000000E-01 -3.7831863866661E-02  1.8784192148547E+00  4.7680972245654E-01
45  4.4000000000000E-01 -1.5417521456505E-01  1.9103084843253E+00  5.0693559234368E-01
46  4.5000000000000E-01 -2.6520824189227E-01  1.9320544303060E+00  5.4204780702812E-01
47  4.6000000000000E-01 -3.7000447954222E-01  1.9426910121143E+00  5.8178598187705E-01
48  4.7000000000000E-01 -4.6770066696745E-01  1.9413323431271E+00  6.2569533520344E-01
49  4.8000000000000E-01 -5.5751198473830E-01  1.9272061403414E+00  6.7324267617317E-01
50  4.9000000000000E-01 -6.3874643337733E-01  1.8996860728740E+00  7.2383422535663E-01
51  5.0000000000000E-01 -7.1081789706127E-01  1.8583217250896E+00  7.7683456817779E-01
52  5.1000000000000E-01 -7.7325746102018E-01  1.8028649487893E+00  8.3158601713775E-01
53  5.2000000000000E-01 -8.2572259555556E-01  1.7332914875109E+00  8.8742766311923E-01
54  5.3000000000000E-01 -8.6800387882902E-01  1.6498169104217E+00  9.4371342868136E-01
55  5.4000000000000E-01 -9.0002900279646E-01  1.5529060875291E+00  9.9982849525999E-01
56  5.5000000000000E-01 -9.2186388920898E-01  1.4432756643669E+00  1.0552035587822E+00
57  5.6000000000000E-01 -9.3371083237922E-01  1.3218892439892E+00  1.1093264706515E+00
58  5.7000000000000E-01 -9.3590367902739E-01  1.1899452470857E+00  1.1617509388624E+00
59  5.8000000000000E-01 -9.2890014943586E-01  1.0488576869022E+00  1.2121020921113E+00
60  5.9000000000000E-01 -9.1327149479733E-01  9.0023035382299E-01  1.2600788427674E+00
61  6.0000000000000E-01 -8.8968976962435E-01  7.4582514476579E-01  1.3054531169370E+00
62  6.1000000000000E-01 -8.5891307225373E-01  5.8752548546989E-01  1.3480661461720E+00
63  6.2000000000000E-01 -8.2176916808886E-01  4.2729597103685E-01  1.3878221305458E+00
64  6.3000000000000E-01 -7.7913795704781E-01  2.6713948487687E-01  1.4246796823171E+00
65  6.4000000000000E-01 -7.3193327709389E-01  1.0905314345561E-01  1.4586415393605E+00
66  6.5000000000000E-01 -6.8108454874632E-01 -4.5015549193052E-02  1.4897430950336E+00
67  6.6000000000000E-01 -6.2751876081975E-01 -1.9321096838381E-01  1.5180403241517E+00
68  6.7000000000000E-01 -5.7214327573269E-01 -3.3380875420070E-01  1.5435976923354E+00
69  6.8000000000000E-01 -5.1582989463522E-01 -4.6525112605786E-01  1.5664766182952E+00
70  6.9000000000000E-01 -4.5940057001939E-01 -5.8617709340753E-01  1.5867250167916E+00
71  7.0000000000000E-01 -4.0361508861923E-01 -6.9544672224398E-01  1.6043683862256E+00
72  7.1000000000000E-01 -3.4916097292076E-01 -7.9215883814346E-01  1.6194028220930E+00
73  7.2000000000000E-01 -2.9664576846925E-01 -8.7566178722820E-01  1.6317902396664E+00
74  7.3000000000000E-01 -2.4659179951585E-01 -9.4555712723855E-01  1.6414559806015E+00
75  7.4000000000000E-01 -1.9943339062374E-01 -1.0016963720923E+00  1.6482888634589E+00
76  7.5000000000000E-01 -1.5551646977738E-01 -1.0441711554315E+00  1.6521436223557E+00
77  7.6000000000000E-01 -1.1510039226644E-01 -1.0732974026883E+00  1.6528455660764E+00
78  7.7000000000000E-01 -7.8361756792765E-02 -1.0895942990294E+00  1.6501971867985E+00
79  7.8000000000000E-01 -4.5399928130148E-02 -1.0937590051808E+00  1.6439863575857E+00
80  7.9000000000000E-01 -1.6243936045748E-02 -1.0866381989963E+00  1.6339956849313E+00
81  8.0000000000000E-01  9.1396106287395E-03 -1.0691976035688E+00  1.6200125303047E+00
82  8.1000000000000E-01  3.0837972140343E-02 -1.0424907001621E+00  1.6018391855161E+00
83  8.2000000000000E-01  4.8983466949493E-02 -1.0076278152544E+00  1.5793026827671E+00
84  8.3000000000000E-01  6.3744767413244E-02 -9.6574671595934E-01  1.5522637426892E+00
85  8.4000000000000E-01  7.5318640341380E-02 -9.1798574877125E-01  1.5206244130252E+00
86  8.5000000000000E-01  8.3922430458165E-02 -8.6546041572433E-01  1.4843340267412E+00
87  8.6000000000000E-01  8.9787532643367E-02 -8.0924410321478E-01  1.4433932105898E+00
88  8.7000000000000E-01  9.3154036124470E-02 -7.5035346591227E-01  1.3978558023645E+00
89  8.8000000000000E-01  9.4266651887518E-02 -6.8973872549223E-01  1.3478286858876E+00
90  8.9000000000000E-01  9.3371954712280E-02 -6.2827887524912E-01  1.2934697255920E+00
91  9.0000000000000E-01  9.0716884455018E-02 -5.6678149032972E-01  1.2349841758448E+00
92  9.1000000000000E-01  8.6548358228645E-02 -5.0598653182290E-01  1.1726201525057E+00
93  9.2000000000000E-01  8.1113746297808E-02 -4.4657320258586E-01  1.1066639844950E+00
94  9.3000000000000E-01  7.4661859677930E-02 -3.8916856344670E-01  1.0374365106549E+00
95  9.4000000000000E-01  6.7443985945993E-02 -3.3435624875110E-01  9.6529165170712E-01
96  9.5000000000000E-01  5.9714390414648E-02 -2.8268322690628E-01  8.9061886902766E-01
97  9.6000000000000E-01  5.1729570851264E-02 -2.3466212989413E-01  8.1385142218012E-01
98  9.7000000000000E-01  4.3745412920451E-02 -1.9076621890050E-01  7.3548265749324E-01
99  9.8000000000000E-01  3.6011237735332E-02 -1.5141355350674E-01  6.5609290245883E-01
100  9.9000000000000E-01  2.8759557921756E-02 -1.1693637556116E-01  5.7638991506357E-01
101  1.0000000000000E+00  2.2190177641664E-02 -8.7531165524348E-02  4.9726612446602E-01
102  1.0100000000000E+00  1.6447092226325E-02 -6.3184311690365E-02  4.1987603370506E-01
103  1.0200000000000E+00  1.1601820190211E-02 -4.3630542817712E-02  3.4563281357711E-01
104  1.0300000000000E+00  7.6763313536816E-03 -2.8472072978824E-02  2.7594432947641E-01
105  1.0400000000000E+00  4.6561058312403E-03 -1.7245517938448E-02  2.1208812365683E-01
106  1.0500000000000E+00  2.4911528265011E-03 -9.4348678059293E-03  1.5519296343628E-01
107  1.0600000000000E+00  1.0488779675375E-03 -4.3460901647179E-03  1.0617473752350E-01
108  1.0700000000000E+00  1.9235074647624E-04 -1.3318431961232E-03  6.5792381640034E-02
109  1.0800000000000E+00 -1.6638060661820E-04  4.4231585185319E-05  3.4706149265786E-02
110  1.0900000000000E+00 -1.7766663590656E-04  3.1669429998406E-04  1.3370559456730E-02
111  1.1000000000000E+00 -4.5484875675254E-05  9.4778484664398E-05  2.0166051531809E-03
112  1.1100000000000E+00  2.8384797305501E-06 -6.1949363402893E-06 -9.4487667884846E-05
113  1.1200000000000E+00  2.4221165261144E-08 -5.0525021348755E-08 -1.0765081418748E-06
114  1.13 -0.  0. -0.
115  1.14  0.  0.  0.
116  1.15  0.  0.  0.
117  1.16  0.  0.  0.
118  1.17  0.  0.  0.
119  1.18  0.  0.  0.
120  1.19  0.  0.  0.
121  1.20  0.  0.  0.
122  1.21  0.  0.  0.
123  1.22  0.  0.  0.
124  1.23  0.  0.  0.
125  1.24  0.  0.  0.
126  1.25  0.  0.  0.
127  1.26  0.  0.  0.
128  1.27  0.  0.  0.
129  1.28  0.  0.  0.
130  1.29  0.  0.  0.
131  1.30  0.  0.  0.
132  1.31  0.  0.  0.
133  1.32  0.  0.  0.
134  1.33  0.  0.  0.
135  1.34  0.  0.  0.
136  1.35  0.  0.  0.
137  1.36  0.  0.  0.
138  1.37  0.  0.  0.
139  1.38  0.  0.  0.
140  1.39  0.  0.  0.
141  1.40  0.  0.  0.
142  1.41  0.  0.  0.
143  1.42  0.  0.  0.
144  1.43  0.  0.  0.
145  1.44  0.  0.  0.
146  1.45  0.  0.  0.
147  1.46  0.  0.  0.
148  1.47  0.  0.  0.
149  1.48  0.  0.  0.
150  1.49  0.  0.  0.
151  1.50  0.  0.  0.
152  1.51  0.  0.  0.
153  1.52  0.  0.  0.
154  1.53  0.  0.  0.
155  1.54  0.  0.  0.
156  1.55  0.  0.  0.
157  1.56  0.  0.  0.
158  1.57  0.  0.  0.
159  1.58  0.  0.  0.
160  1.59  0.  0.  0.
161  1.60  0.  0.  0.
162  1.61  0.  0.  0.
163  1.62  0.  0.  0.
164  1.63  0.  0.  0.
165  1.64  0.  0.  0.
166  1.65  0.  0.  0.
167  1.66  0.  0.  0.
168  1.67  0.  0.  0.
169  1.68  0.  0.  0.
170  1.69  0.  0.  0.
171  1.70  0.  0.  0.
172  1.71  0.  0.  0.
173  1.72  0.  0.  0.
174  1.73  0.  0.  0.
175  1.74  0.  0.  0.
176  1.75  0.  0.  0.
177  1.76  0.  0.  0.
178  1.77  0.  0.  0.
179  1.78  0.  0.  0.
180  1.79  0.  0.  0.
181  1.80  0.  0.  0.
182  1.81  0.  0.  0.
183  1.82  0.  0.  0.
184  1.83  0.  0.  0.
185  1.84  0.  0.  0.
186  1.85  0.  0.  0.
187  1.86  0.  0.  0.
188  1.87  0.  0.  0.
189  1.88  0.  0.  0.
190  1.89  0.  0.  0.
191  1.90  0.  0.  0.
192  1.91  0.  0.  0.
193  1.92  0.  0.  0.
194  1.93  0.  0.  0.
195  1.94  0.  0.  0.
196  1.95  0.  0.  0.
197  1.96  0.  0.  0.
198  1.97  0.  0.  0.
199  1.98  0.  0.  0.
200  1.99  0.  0.  0.
201  2.00  0.  0.  0.
202  2.01  0.  0.  0.
203  2.02  0.  0.  0.
204  2.03  0.  0.  0.
205  2.04  0.  0.  0.
206  2.05  0.  0.  0.
207  2.06  0.  0.  0.
208  2.07  0.  0.  0.
209  2.08  0.  0.  0.
210  2.09  0.  0.  0.
211  2.10  0.  0.  0.
212  2.11  0.  0.  0.
213  2.12  0.  0.  0.
214  2.13  0.  0.  0.
215  2.14  0.  0.  0.
216  2.15  0.  0.  0.
217  2.16  0.  0.  0.
218  2.17  0.  0.  0.
219  2.18  0.  0.  0.
220  2.19  0.  0.  0.
221  2.20  0.  0.  0.
222  2.21  0.  0.  0.
223  2.22  0.  0.  0.
224  2.23  0.  0.  0.
225  2.24  0.  0.  0.
226  2.25  0.  0.  0.
227  2.26  0.  0.  0.
228  2.27  0.  0.  0.
229  2.28  0.  0.  0.
230  2.29  0.  0.  0.
231  2.30  0.  0.  0.
232  2.31  0.  0.  0.
233  2.32  0.  0.  0.
234  2.33  0.  0.  0.
235  2.34  0.  0.  0.
236  2.35  0.  0.  0.
237  2.36  0.  0.  0.
238  2.37  0.  0.  0.
239  2.38  0.  0.  0.
240  2.39  0.  0.  0.
241  2.40  0.  0.  0.
242  2.41  0.  0.  0.
243  2.42  0.  0.  0.
244  2.43  0.  0.  0.
245  2.44  0.  0.  0.
246  2.45  0.  0.  0.
247  2.46  0.  0.  0.
248  2.47  0.  0.  0.
249  2.48  0.  0.  0.
250  2.49  0.  0.  0.
251  2.50  0.  0.  0.
252  2.51  0.  0.  0.
253  2.52  0.  0.  0.
254  2.53  0.  0.  0.
255  2.54  0.  0.  0.
256  2.55  0.  0.  0.
257  2.56  0.  0.  0.
258  2.57  0.  0.  0.
259  2.58  0.  0.  0.
260  2.59  0.  0.  0.
261  2.60  0.  0.  0.
262  2.61  0.  0.  0.
263  2.62  0.  0.  0.
264  2.63  0.  0.  0.
265  2.64  0.  0.  0.
266  2.65  0.  0.  0.
267  2.66  0.  0.  0.
268  2.67  0.  0.  0.
269  2.68  0.  0.  0.
270  2.69  0.  0.  0.
271  2.70  0.  0.  0.
272  2.71  0.  0.  0.
273  2.72  0.  0.  0.
274  2.73  0.  0.  0.
275  2.74  0.  0.  0.
276  2.75  0.  0.  0.
277  2.76  0.  0.  0.
278  2.77  0.  0.  0.
279  2.78  0.  0.  0.
280  2.79  0.  0.  0.
281  2.80  0.  0.  0.
282  2.81  0.  0.  0.
283  2.82  0.  0.  0.
284  2.83  0.  0.  0.
285  2.84  0.  0.  0.
286  2.85  0.  0.  0.
287  2.86  0.  0.  0.
288  2.87  0.  0.  0.
289  2.88  0.  0.  0.
290  2.89  0.  0.  0.
291  2.90  0.  0.  0.
292  2.91  0.  0.  0.
293  2.92  0.  0.  0.
294  2.93  0.  0.  0.
295  2.94  0.  0.  0.
296  2.95  0.  0.  0.
297  2.96  0.  0.  0.
298  2.97  0.  0.  0.
299  2.98  0.  0.  0.
300  2.99  0.  0.  0.
301  3.00  0.  0.  0.
302  3.01  0.  0.  0.
303  3.02  0.  0.  0.
304  3.03  0.  0.  0.
305  3.04  0.  0.  0.
306  3.05  0.  0.  0.
307  3.06  0.  0.  0.
308  3.07  0.  0.  0.
309  3.08  0.  0.  0.
310  3.09  0.  0.  0.
311  3.10  0.  0.  0.
312  3.11  0.  0.  0.
313  3.12  0.  0.  0.
314  3.13  0.  0.  0.
315  3.14  0.  0.  0.
316  3.15  0.  0.  0.
317  3.16  0.  0.  0.
318  3.17  0.  0.  0.
319  3.18  0.  0.  0.
320  3.19  0.  0.  0.
321  3.20  0.  0.  0.
322  3.21  0.  0.  0.
323  3.22  0.  0.  0.
324  3.23  0.  0.  0.
325  3.24  0.  0.  0.
326  3.25  0.  0.  0.
327  3.26  0.  0.  0.
328  3.27  0.  0.  0.
329  3.28  0.  0.  0.
330  3.29  0.  0.  0.
331  3.30  0.  0.  0.
332  3.31  0.  0.  0.
333  3.32  0.  0.  0.
334  3.33  0.  0.  0.
335  3.34  0.  0.  0.
336  3.35  0.  0.  0.
337  3.36  0.  0.  0.
338  3.37  0.  0.  0.
339  3.38  0.  0.  0.
340  3.39  0.  0.  0.
341  3.40  0.  0.  0.
342  3.41  0.  0.  0.
343  3.42  0.  0.  0.
344  3.43  0.  0.  0.
345  3.44  0.  0.  0.
346  3.45  0.  0.  0.
347  3.46  0.  0.  0.
348  3.47  0.  0.  0.
349  3.48  0.  0.  0.
350  3.49  0.  0.  0.
351  3.50  0.  0.  0.
352  3.51  0.  0.  0.
353  3.52  0.  0.  0.
354  3.53  0.  0.  0.
355  3.54  0.  0.  0.
356  3.55  0.  0.  0.
357  3.56  0.  0.  0.
358  3.57  0.  0.  0.
359  3.58  0.  0.  0.
360  3.59  0.  0.  0.
361  3.60  0.  0.  0.
362  3.61  0.  0.  0.
363  3.62  0.  0.  0.
364  3.63  0.  0.  0.
365  3.64  0.  0.  0.
366  3.65  0.  0.  0.
367  3.66  0.  0.  0.
368  3.67  0.  0.  0.
369  3.68  0.  0.  0.
370  3.69  0.  0.  0.
371  3.70  0.  0.  0.
372  3.71  0.  0.  0.
373  3.72  0.  0.  0.
374  3.73  0.  0.  0.
375  3.74  0.  0.  0.
376  3.75  0.  0.  0.
377  3.76  0.  0.  0.
378  3.77  0.  0.  0.
379  3.78  0.  0.  0.
380  3.79  0.  0.  0.
381  3.80  0.  0.  0.
382  3.81  0.  0.  0.
383  3.82  0.  0.  0.
384  3.83  0.  0.  0.
385  3.84  0.  0.  0.
386  3.85  0.  0.  0.
387  3.86  0.  0.  0.
388  3.87  0.  0.  0.
389  3.88  0.  0.  0.
390  3.89  0.  0.  0.
391  3.90  0.  0.  0.
392  3.91  0.  0.  0.
393  3.92  0.  0.  0.
394  3.93  0.  0.  0.
395  3.94  0.  0.  0.
396  3.95  0.  0.  0.
397  3.96  0.  0.  0.
398  3.97  0.  0.  0.
399  3.98  0.  0.  0.
400  3.99  0.  0.  0.
401  4.00  0.  0.  0.
402  4.01  0.  0.  0.
403  4.02  0.  0.  0.
404  4.03  0.  0.  0.
405  4.04  0.  0.  0.
406  4.05  0.  0.  0.
407  4.06  0.  0.  0.
408  4.07  0.  0.  0.
409  4.08  0.  0.  0.
410  4.09  0.  0.  0.
411  4.10  0.  0.  0.
412  4.11  0.  0.  0.
413  4.12  0.  0.  0.
414  4.13  0.  0.  0.
415  4.14  0.  0.  0.
416  4.15  0.  0.  0.
417  4.16  0.  0.  0.
418  4.17  0.  0.  0.
419  4.18  0.  0.  0.
420  4.19  0.  0.  0.
421  4.20  0.  0.  0.
422  4.21  0.  0.  0.
423  4.22  0.  0.  0.
424  4.23  0.  0.  0.
425  4.24  0.  0.  0.
426  4.25  0.  0.  0.
427  4.26  0.  0.  0.
428  4.27  0.  0.  0.
429  4.28  0.  0.  0.
430  4.29  0.  0.  0.
431  4.30  0.  0.  0.
432  4.31  0.  0.  0.
433  4.32  0.  0.  0.
434  4.33  0.  0.  0.
435  4.34  0.  0.  0.
436  4.35  0.  0.  0.
437  4.36  0.  0.  0.
438  4.37  0.  0.  0.
439  4.38  0.  0.  0.
440  4.39  0.  0.  0.
441  4.40  0.  0.  0.
442  4.41  0.  0.  0.
443  4.42  0.  0.  0.
444  4.43  0.  0.  0.
445  4.44  0.  0.  0.
446  4.45  0.  0.  0.
447  4.46  0.  0.  0.
448  4.47  0.  0.  0.
449  4.48  0.  0.  0.
450  4.49  0.  0.  0.
451  4.50  0.  0.  0.
452  4.51  0.  0.  0.
453  4.52  0.  0.  0.
454  4.53  0.  0.  0.
455  4.54  0.  0.  0.
456  4.55  0.  0.  0.
457  4.56  0.  0.  0.
458  4.57  0.  0.  0.
459  4.58  0.  0.  0.
460  4.59  0.  0.  0.
461  4.60  0.  0.  0.
462  4.61  0.  0.  0.
463  4.62  0.  0.  0.
464  4.63  0.  0.  0.
465  4.64  0.  0.  0.
466  4.65  0.  0.  0.
467  4.66  0.  0.  0.
468  4.67  0.  0.  0.
469  4.68  0.  0.  0.
470  4.69  0.  0.  0.
471  4.70  0.  0.  0.
472  4.71  0.  0.  0.
473  4.72  0.  0.  0.
474  4.73  0.  0.  0.
475  4.74  0.  0.  0.
476  4.75  0.  0.  0.
477  4.76  0.  0.  0.
478  4.77  0.  0.  0.
479  4.78  0.  0.  0.
480  4.79  0.  0.  0.
481  4.80  0.  0.  0.
482  4.81  0.  0.  0.
483  4.82  0.  0.  0.
484  4.83  0.  0.  0.
485  4.84  0.  0.  0.
486  4.85  0.  0.  0.
487  4.86  0.  0.  0.
488  4.87  0.  0.  0.
489  4.88  0.  0.  0.
490  4.89  0.  0.  0.
491  4.90  0.  0.  0.
492  4.91  0.  0.  0.
493  4.92  0.  0.  0.
494  4.93  0.  0.  0.
495  4.94  0.  0.  0.
496  4.95  0.  0.  0.
497  4.96  0.  0.  0.
498  4.97  0.  0.  0.
499  4.98  0.  0.  0.
500  4.99  0.  0.  0.
501  5.00  0.  0.  0.
502  5.01  0.  0.  0.
503  5.02  0.  0.  0.
504  5.03  0.  0.  0.
505  5.04  0.  0.  0.
506  5.05  0.  0.  0.
507  5.06  0.  0.  0.
508  5.07  0.  0.  0.
509  5.08  0.  0.  0.
510  5.09  0.  0.  0.
511  5.10  0.  0.  0.
512  5.11  0.  0.  0.
513  5.12  0.  0.  0.
514  5.13  0.  0.  0.
515  5.14  0.  0.  0.
516  5.15  0.  0.  0.
517  5.16  0.  0.  0.
518  5.17  0.  0.  0.
519  5.18  0.  0.  0.
520  5.19  0.  0.  0.
521  5.20  0.  0.  0.
522  5.21  0.  0.  0.
523  5.22  0.  0.  0.
524  5.23  0.  0.  0.
525  5.24  0.  0.  0.
526  5.25  0.  0.  0.
527  5.26  0.  0.  0.
528  5.27  0.  0.  0.
529  5.28  0.  0.  0.
530  5.29  0.  0.  0.
531  5.30  0.  0.  0.
532  5.31  0.  0.  0.
533  5.32  0.  0.  0.
534  5.33  0.  0.  0.
535  5.34  0.  0.  0.
536  5.35  0.  0.  0.
537  5.36  0.  0.  0.
538  5.37  0.  0.  0.
539  5.38  0.  0.  0.
540  5.39  0.  0.  0.
541  5.40  0.  0.  0.
542  5.41  0.  0.  0.
543  5.42  0.  0.  0.
544  5.43  0.  0.  0.
545  5.44  0.  0.  0.
546  5.45  0.  0.  0.
547  5.46  0.  0.  0.
548  5.47  0.  0.  0.
549  5.48  0.  0.  0.
550  5.49  0.  0.  0.
551  5.50  0.  0.  0.
552  5.51  0.  0.  0.
553  5.52  0.  0.  0.
554  5.53  0.  0.  0.
555  5.54  0.  0.  0.
556  5.55  0.  0.  0.
557  5.56  0.  0.  0.
558  5.57  0.  0.  0.
559  5.58  0.  0.  0.
560  5.59  0.  0.  0.
561  5.60  0.  0.  0.
562  5.61  0.  0.  0.
563  5.62  0.  0.  0.
564  5.63  0.  0.  0.
565  5.64  0.  0.  0.
566  5.65  0.  0.  0.
567  5.66  0.  0.  0.
568  5.67  0.  0.  0.
569  5.68  0.  0.  0.
570  5.69  0.  0.  0.
571  5.70  0.  0.  0.
572  5.71  0.  0.  0.
573  5.72  0.  0.  0.
574  5.73  0.  0.  0.
575  5.74  0.  0.  0.
576  5.75  0.  0.  0.
577  5.76  0.  0.  0.
578  5.77  0.  0.  0.
579  5.78  0.  0.  0.
580  5.79  0.  0.  0.
581  5.80  0.  0.  0.
582  5.81  0.  0.  0.
583  5.82  0.  0.  0.
584  5.83  0.  0.  0.
585  5.84  0.  0.  0.
586  5.85  0.  0.  0.
587  5.86  0.  0.  0.
588  5.87  0.  0.  0.
589  5.88  0.  0.  0.
590  5.89  0.  0.  0.
591  5.90  0.  0.  0.
592  5.91  0.  0.  0.
593  5.92  0.  0.  0.
594  5.93  0.  0.  0.
595  5.94  0.  0.  0.
596  5.95  0.  0.  0.
597  5.96  0.  0.  0.
598  5.97  0.  0.  0.
599  5.98  0.  0.  0.
600  5.99  0.  0.  0.
1                         1.0425929869778E+01 -4.2416580716764E-01
1  0.0000000000000E+00 -5.3856349935266E-09 -9.7705162446782E-08
2  1.0000000000000E-02  4.6822853492552E-03  8.6479197200018E-04
3  2.0000000000000E-02  1.8688028302272E-02  3.4784726365647E-03
4  3.0000000000000E-02  4.1894103715328E-02  7.8974451772535E-03
5  4.0000000000000E-02  7.4096022187953E-02  1.4210749855228E-02
6  5.0000000000000E-02  1.1500902726557E-01  2.2532864824936E-02
7  6.0000000000000E-02  1.6426966715400E-01  3.2994113289037E-02
8  7.0000000000000E-02  2.2143787369820E-01  4.5729138353089E-02
9  8.0000000000000E-02  2.8599958676354E-01  6.0864004645673E-02
10  9.0000000000000E-02  3.5736996480309E-01  7.8502559776844E-02
11  1.0000000000000E-01  4.3489722194497E-01  9.8712735761696E-02
12  1.1000000000000E-01  5.1786712816926E-01  1.2151348845842E-01
13  1.2000000000000E-01  6.0550820199567E-01  1.4686306086141E-01
14  1.3000000000000E-01  6.9699761465156E-01  1.7464921397037E-01
15  1.4000000000000E-01  7.9146781117103E-01  2.0468199836493E-01
16  1.5000000000000E-01  8.8801383767101E-01  2.3668954316325E-01
17  1.6000000000000E-01  9.8570134567145E-01  2.7031722041956E-01
18  1.7000000000000E-01  1.0835752244053E+00  3.0513040684544E-01
19  1.8000000000000E-01  1.1806687913169E+00  3.4062091640966E-01
20  1.9000000000000E-01  1.2760134501635E+00  3.7621702282354E-01
21  2.0000000000000E-01  1.3686487061277E+00  4.1129683641786E-01
22  2.1000000000000E-01  1.4576324089465E+00  4.4520465180218E-01
23  2.2000000000000E-01  1.5420510790501E+00  4.7726974713418E-01
24  2.3000000000000E-01  1.6210301588149E+00  5.0682699855149E-01
25  2.4000000000000E-01  1.6937440219016E+00  5.3323857941533E-01
26  2.5000000000000E-01  1.7594255687929E+00  5.5591594768827E-01
27  2.6000000000000E-01  1.8173752364299E+00  5.7434128918043E-01
28  2.7000000000000E-01  1.8669692545026E+00  5.8808758151347E-01
29  2.8000000000000E-01  1.9076669904945E+00  5.9683647415038E-01
30  2.9000000000000E-01  1.9390172399012E+00  6.0039324307063E-01
31  3.0000000000000E-01  1.9606633368103E+00  5.9869817265459E-01
32  3.1000000000000E-01  1.9723469827635E+00  5.9183383883640E-01
33  3.2000000000000E-01  1.9739107179003E+00  5.8002791218838E-01
34  3.3000000000000E-01  1.9652989870207E+00  5.6365126192159E-01
35  3.4000000000000E-01  1.9465577835477E+00  5.4321131562957E-01
36  3.5000000000000E-01  1.9178328854639E+00  5.1934080822286E-01
37  3.6000000000000E-01  1.8793667281571E+00  4.9278222984981E-01
38  3.7000000000000E-01  1.8314939887540E+00  4.6436844961693E-01
39  3.8000000000000E-01  1.7746359839886E+00  4.3500014281267E-01
40  3.9000000000000E-01  1.7092940080681E+00  4.0562077785596E-01
41  4.0000000000000E-01  1.6360417575842E+00  3.7719001989307E-01
42  4.1000000000000E-01  1.5555170066253E+00  3.5065647645667E-01
43  4.2000000000000E-01  1.4684127064091E+00  3.2693074371058E-01
44  4.3000000000000E-01  1.3754676896596E+00  3.0685970775902E-01
45  4.4000000000000E-01  1.2774571605091E+00  2.9120301399139E-01
46  4.5000000000000E-01  1.1751831459906E+00  2.8061253968143E-01
47  4.6000000000000E-01  1.0694650755046E+00  2.7561559375852E-01
48  4.7000000000000E-01  9.6113064045399E-01  2.7660242692397E-01
49  4.8000000000000E-01  8.5100706819265E-01  2.8381847045371E-01
50  4.9000000000000E-01  7.3991292329564E-01  2.9736153951995E-01
51  5.0000000000000E-01  6.2865052583477E-01  3.1718404390254E-01
52  5.1000000000000E-01  5.1799905177812E-01  3.4310005328168E-01
53  5.2000000000000E-01  4.0870835583555E-01  3.7479687386231E-01
54  5.3000000000000E-01  3.0149353302254E-01  4.1185061571131E-01
55  5.4000000000000E-01  1.9703021285500E-01  4.5374507328165E-01
56  5.5000000000000E-01  9.5950560265509E-02  4.9989311178910E-01
57  5.6000000000000E-01 -1.1600592280335E-03  5.4965965498657E-01
58  5.7000000000000E-01 -9.3765805298719E-02  6.0238530974101E-01
59  5.8000000000000E-01 -1.8138254323928E-01  6.5740964246421E-01
60  5.9000000000000E-01 -2.6357954685215E-01  7.1409314304851E-01
61  6.0000000000000E-01 -3.3998079132068E-01  7.7183697297867E-01
62  6.1000000000000E-01 -4.1026589912432E-01  8.3009969349043E-01
63  6.2000000000000E-01 -4.7417079385543E-01  8.8841030314962E-01
64  6.3000000000000E-01 -5.3148810544100E-01  9.4637707666167E-01
65  6.4000000000000E-01 -5.8206735651900E-01  1.0036918814350E+00
66  6.5000000000000E-01 -6.2581494443428E-01  1.0601298477353E+00
67  6.6000000000000E-01 -6.6269391745140E-01  1.1155444737955E+00
68  6.7000000000000E-01 -6.9272352831147E-01  1.1698584502558E+00
69  6.8000000000000E-01 -7.1597853416175E-01  1.2230506800498E+00
70  6.9000000000000E-01 -7.3258820007123E-01  1.2751401420111E+00
71  7.0000000000000E-01 -7.4273495462951E-01  1.3261673914364E+00
72  7.1000000000000E-01 -7.4665264117845E-01  1.3761746021216E+00
73  7.2000000000000E-01 -7.4462430754221E-01  1.4251851268720E+00
74  7.3000000000000E-01 -7.3697948098965E-01  1.4731835836977E+00
75  7.4000000000000E-01 -7.2409088364934E-01  1.5200974611736E+00
76  7.5000000000000E-01 -7.0637055653212E-01  1.5657811790145E+00
77  7.6000000000000E-01 -6.8426537729807E-01  1.6100034409681E+00
78  7.7000000000000E-01 -6.5825197730736E-01  1.6524385807330E+00
79  7.8000000000000E-01 -6.2883108648918E-01  1.6926624335885E+00
80  7.9000000000000E-01 -5.9652135915177E-01  1.7301530741121E+00
81  8.0000000000000E-01 -5.6185275889697E-01  1.7642965524206E+00
82  8.1000000000000E-01 -5.2535960506890E-01  1.7943975473511E+00
83  8.2000000000000E-01 -4.8757340538121E-01  1.8196946450656E+00
84  8.3000000000000E-01 -4.4901561826269E-01  1.8393797560616E+00
85  8.4000000000000E-01 -4.1019050282368E-01  1.8526210126300E+00
86  8.5000000000000E-01 -3.7157822306822E-01  1.8585883519771E+00
87  8.6000000000000E-01 -3.3362837510186E-01  1.8564808960841E+00
88  8.7000000000000E-01 -2.9675410084460E-01  1.8455551952127E+00
89  8.8000000000000E-01 -2.6132693860609E-01  1.8251534135089E+00
90  8.9000000000000E-01 -2.2767253951638E-01  1.7947306063555E+00
91  9.0000000000000E-01 -1.9606734918788E-01  1.7538803720097E+00
92  9.1000000000000E-01 -1.6673631633910E-01  1.7023583546754E+00
93  9.2000000000000E-01 -1.3985164492119E-01  1.6401033305512E+00
94  9.3000000000000E-01 -1.1553255428573E-01  1.5672559186902E+00
95  9.4000000000000E-01 -9.3845954071153E-02  1.4841753190800E+00
96  9.5000000000000E-01 -7.4807877907954E-02  1.3914548840022E+00
97  9.6000000000000E-01 -5.8385454073681E-02  1.2899377668037E+00
98  9.7000000000000E-01 -4.4499123242389E-02  1.1807343554183E+00
99  9.8000000000000E-01 -3.3024745011867E-02  1.0652436756726E+00
100  9.9000000000000E-01 -2.3795166818494E-02  9.4518143904571E-01
101  1.0000000000000E+00 -1.6600773647624E-02  8.2261775556001E-01
102  1.0100000000000E+00 -1.1188502445116E-02  7.0002764438413E-01
103  1.0200000000000E+00 -7.2683142643329E-03  5.8023519001950E-01
104  1.0300000000000E+00 -4.5444953518713E-03  4.6605155122095E-01
105  1.0400000000000E+00 -2.7362732145111E-03  3.6008925519293E-01
106  1.0500000000000E+00 -1.5885893338464E-03  2.6470647946863E-01
107  1.0600000000000E+00 -9.1027353259611E-04  1.8177964202448E-01
108  1.0700000000000E+00 -5.3884682209882E-04  1.1290790548677E-01
109  1.0800000000000E+00 -3.1425562241583E-04  5.9617890755100E-02
110  1.0900000000000E+00 -1.4919403080248E-04  2.2957879392683E-02
111  1.1000000000000E+00 -2.9220948010079E-05  3.4561923704735E-03
112  1.1100000000000E+00  1.6537805910556E-06 -1.6163570520398E-04
113  1.1200000000000E+00  1.5574065119698E-08 -1.8451051412423E-06
114  1.13 -0. -0.
115  1.14  0.  0.
116  1.15  0.  0.
117  1.16  0.  0.
118  1.17  0.  0.
119  1.18  0.  0.
120  1.19  0.  0.
121  1.20  0.  0.
122  1.21  0.  0.
123  1.22  0.  0.
124  1.23  0.  0.
125  1.24  0.  0.
126  1.25  0.  0.
127  1.26  0.  0.
128  1.27  0.  0.
129  1.28  0.  0.
130  1.29  0.  0.
131  1.30  0.  0.
132  1.31  0.  0.
133  1.32  0.  0.
134  1.33  0.  0.
135  1.34  0.  0.
136  1.35  0.  0.
137  1.36  0.  0.
138  1.37  0.  0.
139  1.38  0.  0.
140  1.39  0.  0.
141  1.40  0.  0.
142  1.41  0.  0.
143  1.42  0.  0.
144  1.43  0.  0.
145  1.44  0.  0.
146  1.45  0.  0.
147  1.46  0.  0.
148  1.47  0.  0.
149  1.48  0.  0.
150  1.49  0.  0.
151  1.50  0.  0.
152  1.51  0.  0.
153  1.52  0.  0.
154  1.53  0.  0.
155  1.54  0.  0.
156  1.55  0.  0.
157  1.56  0.  0.
158  1.57  0.  0.
159  1.58  0.  0.
160  1.59  0.  0.
161  1.60  0.  0.
162  1.61  0.  0.
163  1.62  0.  0.
164  1.63  0.  0.
165  1.64  0.  0.
166  1.65  0.  0.
167  1.66  0.  0.
168  1.67  0.  0.
169  1.68  0.  0.
170  1.69  0.  0.
171  1.70  0.  0.
172  1.71  0.  0.
173  1.72  0.  0.
174  1.73  0.  0.
175  1.74  0.  0.
176  1.75  0.  0.
177  1.76  0.  0.
178  1.77  0.  0.
179  1.78  0.  0.
180  1.79  0.  0.
181  1.80  0.  0.
182  1.81  0.  0.
183  1.82  0.  0.
184  1.83  0.  0.
185  1.84  0.  0.
186  1.85  0.  0.
187  1.86  0.  0.
188  1.87  0.  0.
189  1.88  0.  0.
190  1.89  0.  0.
191  1.90  0.  0.
192  1.91  0.  0.
193  1.92  0.  0.
194  1.93  0.  0.
195  1.94  0.  0.
196  1.95  0.  0.
197  1.96  0.  0.