Md    ONCVPSP-4.0.1  r_core=   1.15366   1.15366   1.33177   1.35588
    101.0000     41.0000      211211    zatom,zion,pspd
     8      11   3     4   600     0    pspcod,pspxc,lmax,lloc,mmax,r2well
  5.99000000  5.00000000  0.00000000    rchrg fchrg qchrg
     3     2     2     2     0    nproj
     1     1           extension_switch
   0                         2.5055247987684E+01 -2.6585784502892E+00  2.4208588299214E+00
     1  0.0000000000000E+00 -2.7795242996120E-08 -6.3982818487851E-09  1.0465699323836E-07
     2  1.0000000000000E-02  1.7319204363787E-01  4.0267489332927E-02 -6.7343943870161E-02
     3  2.0000000000000E-02  3.4504865108914E-01  8.0371419062271E-02 -1.3313877564538E-01
     4  3.0000000000000E-02  5.1424900160757E-01  1.2015079340631E-01 -1.9586740550975E-01
     5  4.0000000000000E-02  6.7950123991396E-01  1.5944968716548E-01 -2.5407592052449E-01
     6  5.0000000000000E-02  8.3955630299689E-01  1.9811964011763E-01 -3.0640303254394E-01
     7  6.0000000000000E-02  9.9322098081197E-01  2.3602188719551E-01 -3.5160703677930E-01
     8  7.0000000000000E-02  1.1393699897503E+00  2.7302937761115E-01 -3.8858958030216E-01
     9  8.0000000000000E-02  1.2769568655422E+00  3.0902854248965E-01 -4.1641564443689E-01
    10  9.0000000000000E-02  1.4050235151351E+00  3.4392077811966E-01 -4.3432926859648E-01
    11  1.0000000000000E-01  1.5227083038873E+00  3.7762362034301E-01 -4.4176468125560E-01
    12  1.1000000000000E-01  1.6292525938833E+00  4.1007159458459E-01 -4.3835265149782E-01
    13  1.2000000000000E-01  1.7240056899303E+00  4.4121673524114E-01 -4.2392202666733E-01
    14  1.3000000000000E-01  1.8064281904582E+00  4.7102877727346E-01 -3.9849657271362E-01
    15  1.4000000000000E-01  1.8760937797346E+00  4.9949503155449E-01 -3.6228737849989E-01
    16  1.5000000000000E-01  1.9326895342134E+00  5.2661996351370E-01 -3.1568121859566E-01
    17  1.6000000000000E-01  1.9760148482801E+00  5.5242450161009E-01 -2.5922538625145E-01
    18  1.7000000000000E-01  2.0059791120977E+00  5.7694510793100E-01 -1.9360960534520E-01
    19  1.8000000000000E-01  2.0225982958723E+00  6.0023264757127E-01 -1.1964570384685E-01
    20  1.9000000000000E-01  2.0259906100385E+00  6.2235109627134E-01 -3.8245779368653E-02
    21  2.0000000000000E-01  2.0163714192599E+00  6.4337612702467E-01  4.9600391742187E-02
    22  2.1000000000000E-01  1.9940475896550E+00  6.6339361600593E-01  1.4284795697473E-01
    23  2.2000000000000E-01  1.9594114434684E+00  6.8249810628938E-01  2.4041889069357E-01
    24  2.3000000000000E-01  1.9129344839342E+00  7.0079126455011E-01  3.4122254535894E-01
    25  2.4000000000000E-01  1.8551610359904E+00  7.1838036145443E-01  4.4417428031037E-01
    26  2.5000000000000E-01  1.7867019266713E+00  7.3537680098059E-01  5.4821169854699E-01
    27  2.6000000000000E-01  1.7082283034892E+00  7.5189471774025E-01  6.5230813825776E-01
    28  2.7000000000000E-01  1.6204656610954E+00  7.6804965479254E-01  7.5548319280215E-01
    29  2.8000000000000E-01  1.5241881172632E+00  7.8395732777051E-01  8.5681016539133E-01
    30  2.9000000000000E-01  1.4202129500734E+00  7.9973247469040E-01  9.5542049765668E-01
    31  3.0000000000000E-01  1.3093953804074E+00  8.1548778489390E-01  1.0505053394154E+00
    32  3.1000000000000E-01  1.1926235586906E+00  8.3133289546333E-01  1.1413145452632E+00
    33  3.2000000000000E-01  1.0708136934127E+00  8.4737343939596E-01  1.2271534875524E+00
    34  3.3000000000000E-01  9.4490524222295E-01  8.6371012702766E-01  1.3073781608213E+00
    35  3.4000000000000E-01  8.1585607514955E-01  8.8043784080191E-01  1.3813891165356E+00
    36  3.5000000000000E-01  6.8463751422672E-01  8.9764472357165E-01  1.4486248066559E+00
    37  3.6000000000000E-01  5.5222915484980E-01  9.1541124221830E-01  1.5085549285218E+00
    38  3.7000000000000E-01  4.1961338151450E-01  9.3380921142229E-01  1.5606743513952E+00
    39  3.8000000000000E-01  2.8776950400586E-01  9.5290076680938E-01  1.6044981672125E+00
    40  3.9000000000000E-01  1.5766745907868E-01  9.7273728224792E-01  1.6395583462159E+00
    41  4.0000000000000E-01  3.0261046474414E-02  9.9335823254977E-01  1.6654023946369E+00
    42  4.1000000000000E-01 -9.3519304199860E-02  1.0147900099509E+00  1.6815943098123E+00
    43  4.2000000000000E-01 -2.1277420877864E-01  1.0370447101988E+00  1.6877180120948E+00
    44  4.3000000000000E-01 -3.2664338717067E-01  1.0601189115101E+00  1.6833833073016E+00
    45  4.4000000000000E-01 -4.3431401441468E-01  1.0839924767328E+00  1.6682343032601E+00
    46  4.5000000000000E-01 -5.3502924246429E-01  1.1086274153986E+00  1.6419600745019E+00
    47  4.6000000000000E-01 -6.2809674283159E-01  1.1339668476609E+00  1.6043072455692E+00
    48  4.7000000000000E-01 -7.1289709594942E-01  1.1599341160710E+00  1.5550940507946E+00
    49  4.8000000000000E-01 -7.8889183391372E-01  1.1864320935052E+00  1.4942253314612E+00
    50  4.9000000000000E-01 -8.5563093014055E-01  1.2133427361109E+00  1.4217078540504E+00
    51  5.0000000000000E-01 -9.1275952319967E-01  1.2405269287610E+00  1.3376652792329E+00
    52  5.1000000000000E-01 -9.6002366321036E-01  1.2678246671295E+00  1.2423520828576E+00
    53  5.2000000000000E-01 -9.9727487798115E-01  1.2950556151340E+00  1.1361657290446E+00
    54  5.3000000000000E-01 -1.0244733725306E+00  1.3220200692331E+00  1.0196564221081E+00
    55  5.4000000000000E-01 -1.0416896994550E+00  1.3485003520766E+00  8.9353381796126E-01
    56  5.5000000000000E-01 -1.0491047682326E+00  1.3742626475194E+00  7.5867015533996E-01
    57  5.6000000000000E-01 -1.0470080981480E+00  1.3990592773370E+00  6.1609937012290E-01
    58  5.7000000000000E-01 -1.0357942610163E+00  1.4226314074595E+00  4.6701187883609E-01
    59  5.8000000000000E-01 -1.0159575050242E+00  1.4447121585835E+00  3.1274485592316E-01
    60  5.9000000000000E-01 -9.8808459837779E-01  1.4650300830396E+00  1.5476797877493E-01
    61  6.0000000000000E-01 -9.5284597952385E-01  1.4833129572325E+00 -5.3352304091808E-03
    62  6.1000000000000E-01 -9.1098534794525E-01  1.4992918272581E+00 -1.6589018157282E-01
    63  6.2000000000000E-01 -8.6330787433940E-01  1.5127052348634E+00 -3.2515767828955E-01
    64  6.3000000000000E-01 -8.1066724988915E-01  1.5233035421218E+00 -4.8136349032113E-01
    65  6.4000000000000E-01 -7.5395182992938E-01  1.5308532663980E+00 -6.3273034040101E-01
    66  6.5000000000000E-01 -6.9407015637854E-01  1.5351413326375E+00 -7.7751150535239E-01
    67  6.6000000000000E-01 -6.3193616482531E-01  1.5359791479499E+00 -9.1402515278508E-01
    68  6.7000000000000E-01 -5.6845439535422E-01  1.5332064039920E+00 -1.0406884829726E+00
    69  6.8000000000000E-01 -5.0450553055157E-01  1.5266945158342E+00 -1.1560507231883E+00
    70  6.9000000000000E-01 -4.4093257942804E-01  1.5163496117874E+00 -1.2588240298847E+00
    71  7.0000000000000E-01 -3.7852801228929E-01  1.5021149969425E+00 -1.3479113927203E+00
    72  7.1000000000000E-01 -3.1802212923348E-01  1.4839730237389E+00 -1.4224307026145E+00
    73  7.2000000000000E-01 -2.6007291458316E-01  1.4619463154513E+00 -1.4817342418034E+00
    74  7.3000000000000E-01 -2.0525759203823E-01  1.4360983027376E+00 -1.5254229744379E+00
    75  7.4000000000000E-01 -1.5406605177137E-01  1.4065330489195E+00 -1.5533551579158E+00
    76  7.5000000000000E-01 -1.0689627234394E-01  1.3733943560639E+00 -1.5656489535707E+00
    77  7.6000000000000E-01 -6.4051808619715E-02  1.3368641607265E+00 -1.5626788856441E+00
    78  7.7000000000000E-01 -2.5741363291992E-02  1.2971602449563E+00 -1.5450661744520E+00
    79  7.8000000000000E-01  7.9195942365904E-03  1.2545333043855E+00 -1.5136631478923E+00
    80  7.9000000000000E-01  3.6905250549899E-02  1.2092634304993E+00 -1.4695321095438E+00
    81  8.0000000000000E-01  6.1274051393294E-02  1.1616560780993E+00 -1.4139192063134E+00
    82  8.1000000000000E-01  8.1161670148318E-02  1.1120376011761E+00 -1.3482239889959E+00
    83  8.2000000000000E-01  9.6772567047638E-02  1.0607504505949E+00 -1.2739654907701E+00
    84  8.3000000000000E-01  1.0837039883181E-01  1.0081481349226E+00 -1.1927457577005E+00
    85  8.4000000000000E-01  1.1626756557720E-01  9.5459005121546E-01 -1.1062118485541E+00
    86  8.5000000000000E-01  1.2081420055954E-01  9.0043629553525E-01 -1.0160173762236E+00
    87  8.6000000000000E-01  1.2238691980916E-01  8.4604256332674E-01 -9.2378468807842E-01
    88  8.7000000000000E-01  1.2137765022704E-01  7.9175524759857E-01 -8.3106877670617E-01
    89  8.8000000000000E-01  1.1818284872771E-01  7.3790683818559E-01 -7.3932397554341E-01
    90  8.9000000000000E-01  1.1319341000205E-01  6.8481171836649E-01 -6.4987442628102E-01
    91  9.0000000000000E-01  1.0678553744940E-01  6.3276244594056E-01 -5.6388920767727E-01
    92  9.1000000000000E-01  9.9312821035667E-02  5.8202659473484E-01 -4.8236288999294E-01
    93  9.2000000000000E-01  9.1099727805115E-02  5.3284421963574E-01 -4.0610212749769E-01
    94  9.3000000000000E-01  8.2436666064460E-02  4.8542599384110E-01 -3.3571872537947E-01
    95  9.4000000000000E-01  7.3576733436227E-02  4.3995205132266E-01 -2.7162941897833E-01
    96  9.5000000000000E-01  6.4734202572061E-02  3.9657155066441E-01 -2.1406238450118E-01
    97  9.6000000000000E-01  5.6084736812765E-02  3.5540295866454E-01 -1.6307026307021E-01
    98  9.7000000000000E-01  4.7767261792527E-02  3.1653503345883E-01 -1.1854922531120E-01
    99  9.8000000000000E-01  3.9887348188702E-02  2.8002846751963E-01 -8.0263332812284E-02
   100  9.9000000000000E-01  3.2521885511551E-02  2.4591813069248E-01 -4.7873165765661E-02
   101  1.0000000000000E+00  2.5724746971144E-02  2.1421583241245E-01 -2.0967382949354E-02
   102  1.0100000000000E+00  1.9533060593253E-02  1.8491350023014E-01  9.0444062132937E-04
   103  1.0200000000000E+00  1.3973611469245E-02  1.5798664860370E-01  1.8199692855026E-02
   104  1.0300000000000E+00  9.0688035442688E-03  1.3339798730206E-01  3.1353676476099E-02
   105  1.0400000000000E+00  4.8415056317296E-03  1.1110099235689E-01  4.0756376225320E-02
   106  1.0500000000000E+00  1.3179942623752E-03  9.1043233902212E-02  4.6738199726106E-02
   107  1.0600000000000E+00 -1.4719156353596E-03  7.3169224035951E-02  4.9568299318966E-02
   108  1.0700000000000E+00 -3.4985943824090E-03  5.7422513384667E-02  4.9469571413246E-02
   109  1.0800000000000E+00 -4.7413614059316E-03  4.3746728507152E-02  4.6654956311445E-02
   110  1.0900000000000E+00 -5.2036105587075E-03  3.2085207740679E-02  4.1390182530635E-02
   111  1.1000000000000E+00 -4.9455704909612E-03  2.2371675745440E-02  3.4121323635024E-02
   112  1.1100000000000E+00 -4.1561984180212E-03  1.4493999988840E-02  2.5743888541530E-02
   113  1.1200000000000E+00 -3.0209109823366E-03  8.4029271222616E-03  1.7163182262327E-02
   114  1.1300000000000E+00 -1.7752047351907E-03  4.0361579148436E-03  9.3856026503445E-03
   115  1.1400000000000E+00 -6.8863407925099E-04  1.3033495335149E-03  3.4228944470496E-03
   116  1.1500000000000E+00 -6.5590823385588E-05  1.0426919948000E-04  3.0833622372170E-04
   117  1.1600000000000E+00  1.8672220987439E-06 -2.6879921352366E-06 -8.5310739873648E-06
   118  1.1700000000000E+00  4.7249334295075E-07 -7.9296036767538E-07 -2.2603867223839E-06
   119  1.18 -0. -0.  0.
   120  1.19  0.  0.  0.
   121  1.20  0.  0.  0.
   122  1.21  0.  0.  0.
   123  1.22  0.  0.  0.
   124  1.23  0.  0.  0.
   125  1.24  0.  0.  0.
   126  1.25  0.  0.  0.
   127  1.26  0.  0.  0.
   128  1.27  0.  0.  0.
   129  1.28  0.  0.  0.
   130  1.29  0.  0.  0.
   131  1.30  0.  0.  0.
   132  1.31  0.  0.  0.
   133  1.32  0.  0.  0.
   134  1.33  0.  0.  0.
   135  1.34  0.  0.  0.
   136  1.35  0.  0.  0.
   137  1.36  0.  0.  0.
   138  1.37  0.  0.  0.
   139  1.38  0.  0.  0.
   140  1.39  0.  0.  0.
   141  1.40  0.  0.  0.
   142  1.41  0.  0.  0.
   143  1.42  0.  0.  0.
   144  1.43  0.  0.  0.
   145  1.44  0.  0.  0.
   146  1.45  0.  0.  0.
   147  1.46  0.  0.  0.
   148  1.47  0.  0.  0.
   149  1.48  0.  0.  0.
   150  1.49  0.  0.  0.
   151  1.50  0.  0.  0.
   152  1.51  0.  0.  0.
   153  1.52  0.  0.  0.
   154  1.53  0.  0.  0.
   155  1.54  0.  0.  0.
   156  1.55  0.  0.  0.
   157  1.56  0.  0.  0.
   158  1.57  0.  0.  0.
   159  1.58  0.  0.  0.
   160  1.59  0.  0.  0.
   161  1.60  0.  0.  0.
   162  1.61  0.  0.  0.
   163  1.62  0.  0.  0.
   164  1.63  0.  0.  0.
   165  1.64  0.  0.  0.
   166  1.65  0.  0.  0.
   167  1.66  0.  0.  0.
   168  1.67  0.  0.  0.
   169  1.68  0.  0.  0.
   170  1.69  0.  0.  0.
   171  1.70  0.  0.  0.
   172  1.71  0.  0.  0.
   173  1.72  0.  0.  0.
   174  1.73  0.  0.  0.
   175  1.74  0.  0.  0.
   176  1.75  0.  0.  0.
   177  1.76  0.  0.  0.
   178  1.77  0.  0.  0.
   179  1.78  0.  0.  0.
   180  1.79  0.  0.  0.
   181  1.80  0.  0.  0.
   182  1.81  0.  0.  0.
   183  1.82  0.  0.  0.
   184  1.83  0.  0.  0.
   185  1.84  0.  0.  0.
   186  1.85  0.  0.  0.
   187  1.86  0.  0.  0.
   188  1.87  0.  0.  0.
   189  1.88  0.  0.  0.
   190  1.89  0.  0.  0.
   191  1.90  0.  0.  0.
   192  1.91  0.  0.  0.
   193  1.92  0.  0.  0.
   194  1.93  0.  0.  0.
   195  1.94  0.  0.  0.
   196  1.95  0.  0.  0.
   197  1.96  0.  0.  0.
   198  1.97  0.  0.  0.
   199  1.98  0.  0.  0.
   200  1.99  0.  0.  0.
   201  2.00  0.  0.  0.
   202  2.01  0.  0.  0.
   203  2.02  0.  0.  0.
   204  2.03  0.  0.  0.
   205  2.04  0.  0.  0.
   206  2.05  0.  0.  0.
   207  2.06  0.  0.  0.
   208  2.07  0.  0.  0.
   209  2.08  0.  0.  0.
   210  2.09  0.  0.  0.
   211  2.10  0.  0.  0.
   212  2.11  0.  0.  0.
   213  2.12  0.  0.  0.
   214  2.13  0.  0.  0.
   215  2.14  0.  0.  0.
   216  2.15  0.  0.  0.
   217  2.16  0.  0.  0.
   218  2.17  0.  0.  0.
   219  2.18  0.  0.  0.
   220  2.19  0.  0.  0.
   221  2.20  0.  0.  0.
   222  2.21  0.  0.  0.
   223  2.22  0.  0.  0.
   224  2.23  0.  0.  0.
   225  2.24  0.  0.  0.
   226  2.25  0.  0.  0.
   227  2.26  0.  0.  0.
   228  2.27  0.  0.  0.
   229  2.28  0.  0.  0.
   230  2.29  0.  0.  0.
   231  2.30  0.  0.  0.
   232  2.31  0.  0.  0.
   233  2.32  0.  0.  0.
   234  2.33  0.  0.  0.
   235  2.34  0.  0.  0.
   236  2.35  0.  0.  0.
   237  2.36  0.  0.  0.
   238  2.37  0.  0.  0.
   239  2.38  0.  0.  0.
   240  2.39  0.  0.  0.
   241  2.40  0.  0.  0.
   242  2.41  0.  0.  0.
   243  2.42  0.  0.  0.
   244  2.43  0.  0.  0.
   245  2.44  0.  0.  0.
   246  2.45  0.  0.  0.
   247  2.46  0.  0.  0.
   248  2.47  0.  0.  0.
   249  2.48  0.  0.  0.
   250  2.49  0.  0.  0.
   251  2.50  0.  0.  0.
   252  2.51  0.  0.  0.
   253  2.52  0.  0.  0.
   254  2.53  0.  0.  0.
   255  2.54  0.  0.  0.
   256  2.55  0.  0.  0.
   257  2.56  0.  0.  0.
   258  2.57  0.  0.  0.
   259  2.58  0.  0.  0.
   260  2.59  0.  0.  0.
   261  2.60  0.  0.  0.
   262  2.61  0.  0.  0.
   263  2.62  0.  0.  0.
   264  2.63  0.  0.  0.
   265  2.64  0.  0.  0.
   266  2.65  0.  0.  0.
   267  2.66  0.  0.  0.
   268  2.67  0.  0.  0.
   269  2.68  0.  0.  0.
   270  2.69  0.  0.  0.
   271  2.70  0.  0.  0.
   272  2.71  0.  0.  0.
   273  2.72  0.  0.  0.
   274  2.73  0.  0.  0.
   275  2.74  0.  0.  0.
   276  2.75  0.  0.  0.
   277  2.76  0.  0.  0.
   278  2.77  0.  0.  0.
   279  2.78  0.  0.  0.
   280  2.79  0.  0.  0.
   281  2.80  0.  0.  0.
   282  2.81  0.  0.  0.
   283  2.82  0.  0.  0.
   284  2.83  0.  0.  0.
   285  2.84  0.  0.  0.
   286  2.85  0.  0.  0.
   287  2.86  0.  0.  0.
   288  2.87  0.  0.  0.
   289  2.88  0.  0.  0.
   290  2.89  0.  0.  0.
   291  2.90  0.  0.  0.
   292  2.91  0.  0.  0.
   293  2.92  0.  0.  0.
   294  2.93  0.  0.  0.
   295  2.94  0.  0.  0.
   296  2.95  0.  0.  0.
   297  2.96  0.  0.  0.
   298  2.97  0.  0.  0.
   299  2.98  0.  0.  0.
   300  2.99  0.  0.  0.
   301  3.00  0.  0.  0.
   302  3.01  0.  0.  0.
   303  3.02  0.  0.  0.
   304  3.03  0.  0.  0.
   305  3.04  0.  0.  0.
   306  3.05  0.  0.  0.
   307  3.06  0.  0.  0.
   308  3.07  0.  0.  0.
   309  3.08  0.  0.  0.
   310  3.09  0.  0.  0.
   311  3.10  0.  0.  0.
   312  3.11  0.  0.  0.
   313  3.12  0.  0.  0.
   314  3.13  0.  0.  0.
   315  3.14  0.  0.  0.
   316  3.15  0.  0.  0.
   317  3.16  0.  0.  0.
   318  3.17  0.  0.  0.
   319  3.18  0.  0.  0.
   320  3.19  0.  0.  0.
   321  3.20  0.  0.  0.
   322  3.21  0.  0.  0.
   323  3.22  0.  0.  0.
   324  3.23  0.  0.  0.
   325  3.24  0.  0.  0.
   326  3.25  0.  0.  0.
   327  3.26  0.  0.  0.
   328  3.27  0.  0.  0.
   329  3.28  0.  0.  0.
   330  3.29  0.  0.  0.
   331  3.30  0.  0.  0.
   332  3.31  0.  0.  0.
   333  3.32  0.  0.  0.
   334  3.33  0.  0.  0.
   335  3.34  0.  0.  0.
   336  3.35  0.  0.  0.
   337  3.36  0.  0.  0.
   338  3.37  0.  0.  0.
   339  3.38  0.  0.  0.
   340  3.39  0.  0.  0.
   341  3.40  0.  0.  0.
   342  3.41  0.  0.  0.
   343  3.42  0.  0.  0.
   344  3.43  0.  0.  0.
   345  3.44  0.  0.  0.
   346  3.45  0.  0.  0.
   347  3.46  0.  0.  0.
   348  3.47  0.  0.  0.
   349  3.48  0.  0.  0.
   350  3.49  0.  0.  0.
   351  3.50  0.  0.  0.
   352  3.51  0.  0.  0.
   353  3.52  0.  0.  0.
   354  3.53  0.  0.  0.
   355  3.54  0.  0.  0.
   356  3.55  0.  0.  0.
   357  3.56  0.  0.  0.
   358  3.57  0.  0.  0.
   359  3.58  0.  0.  0.
   360  3.59  0.  0.  0.
   361  3.60  0.  0.  0.
   362  3.61  0.  0.  0.
   363  3.62  0.  0.  0.
   364  3.63  0.  0.  0.
   365  3.64  0.  0.  0.
   366  3.65  0.  0.  0.
   367  3.66  0.  0.  0.
   368  3.67  0.  0.  0.
   369  3.68  0.  0.  0.
   370  3.69  0.  0.  0.
   371  3.70  0.  0.  0.
   372  3.71  0.  0.  0.
   373  3.72  0.  0.  0.
   374  3.73  0.  0.  0.
   375  3.74  0.  0.  0.
   376  3.75  0.  0.  0.
   377  3.76  0.  0.  0.
   378  3.77  0.  0.  0.
   379  3.78  0.  0.  0.
   380  3.79  0.  0.  0.
   381  3.80  0.  0.  0.
   382  3.81  0.  0.  0.
   383  3.82  0.  0.  0.
   384  3.83  0.  0.  0.
   385  3.84  0.  0.  0.
   386  3.85  0.  0.  0.
   387  3.86  0.  0.  0.
   388  3.87  0.  0.  0.
   389  3.88  0.  0.  0.
   390  3.89  0.  0.  0.
   391  3.90  0.  0.  0.
   392  3.91  0.  0.  0.
   393  3.92  0.  0.  0.
   394  3.93  0.  0.  0.
   395  3.94  0.  0.  0.
   396  3.95  0.  0.  0.
   397  3.96  0.  0.  0.
   398  3.97  0.  0.  0.
   399  3.98  0.  0.  0.
   400  3.99  0.  0.  0.
   401  4.00  0.  0.  0.
   402  4.01  0.  0.  0.
   403  4.02  0.  0.  0.
   404  4.03  0.  0.  0.
   405  4.04  0.  0.  0.
   406  4.05  0.  0.  0.
   407  4.06  0.  0.  0.
   408  4.07  0.  0.  0.
   409  4.08  0.  0.  0.
   410  4.09  0.  0.  0.
   411  4.10  0.  0.  0.
   412  4.11  0.  0.  0.
   413  4.12  0.  0.  0.
   414  4.13  0.  0.  0.
   415  4.14  0.  0.  0.
   416  4.15  0.  0.  0.
   417  4.16  0.  0.  0.
   418  4.17  0.  0.  0.
   419  4.18  0.  0.  0.
   420  4.19  0.  0.  0.
   421  4.20  0.  0.  0.
   422  4.21  0.  0.  0.
   423  4.22  0.  0.  0.
   424  4.23  0.  0.  0.
   425  4.24  0.  0.  0.
   426  4.25  0.  0.  0.
   427  4.26  0.  0.  0.
   428  4.27  0.  0.  0.
   429  4.28  0.  0.  0.
   430  4.29  0.  0.  0.
   431  4.30  0.  0.  0.
   432  4.31  0.  0.  0.
   433  4.32  0.  0.  0.
   434  4.33  0.  0.  0.
   435  4.34  0.  0.  0.
   436  4.35  0.  0.  0.
   437  4.36  0.  0.  0.
   438  4.37  0.  0.  0.
   439  4.38  0.  0.  0.
   440  4.39  0.  0.  0.
   441  4.40  0.  0.  0.
   442  4.41  0.  0.  0.
   443  4.42  0.  0.  0.
   444  4.43  0.  0.  0.
   445  4.44  0.  0.  0.
   446  4.45  0.  0.  0.
   447  4.46  0.  0.  0.
   448  4.47  0.  0.  0.
   449  4.48  0.  0.  0.
   450  4.49  0.  0.  0.
   451  4.50  0.  0.  0.
   452  4.51  0.  0.  0.
   453  4.52  0.  0.  0.
   454  4.53  0.  0.  0.
   455  4.54  0.  0.  0.
   456  4.55  0.  0.  0.
   457  4.56  0.  0.  0.
   458  4.57  0.  0.  0.
   459  4.58  0.  0.  0.
   460  4.59  0.  0.  0.
   461  4.60  0.  0.  0.
   462  4.61  0.  0.  0.
   463  4.62  0.  0.  0.
   464  4.63  0.  0.  0.
   465  4.64  0.  0.  0.
   466  4.65  0.  0.  0.
   467  4.66  0.  0.  0.
   468  4.67  0.  0.  0.
   469  4.68  0.  0.  0.
   470  4.69  0.  0.  0.
   471  4.70  0.  0.  0.
   472  4.71  0.  0.  0.
   473  4.72  0.  0.  0.
   474  4.73  0.  0.  0.
   475  4.74  0.  0.  0.
   476  4.75  0.  0.  0.
   477  4.76  0.  0.  0.
   478  4.77  0.  0.  0.
   479  4.78  0.  0.  0.
   480  4.79  0.  0.  0.
   481  4.80  0.  0.  0.
   482  4.81  0.  0.  0.
   483  4.82  0.  0.  0.
   484  4.83  0.  0.  0.
   485  4.84  0.  0.  0.
   486  4.85  0.  0.  0.
   487  4.86  0.  0.  0.
   488  4.87  0.  0.  0.
   489  4.88  0.  0.  0.
   490  4.89  0.  0.  0.
   491  4.90  0.  0.  0.
   492  4.91  0.  0.  0.
   493  4.92  0.  0.  0.
   494  4.93  0.  0.  0.
   495  4.94  0.  0.  0.
   496  4.95  0.  0.  0.
   497  4.96  0.  0.  0.
   498  4.97  0.  0.  0.
   499  4.98  0.  0.  0.
   500  4.99  0.  0.  0.
   501  5.00  0.  0.  0.
   502  5.01  0.  0.  0.
   503  5.02  0.  0.  0.
   504  5.03  0.  0.  0.
   505  5.04  0.  0.  0.
   506  5.05  0.  0.  0.
   507  5.06  0.  0.  0.
   508  5.07  0.  0.  0.
   509  5.08  0.  0.  0.
   510  5.09  0.  0.  0.
   511  5.10  0.  0.  0.
   512  5.11  0.  0.  0.
   513  5.12  0.  0.  0.
   514  5.13  0.  0.  0.
   515  5.14  0.  0.  0.
   516  5.15  0.  0.  0.
   517  5.16  0.  0.  0.
   518  5.17  0.  0.  0.
   519  5.18  0.  0.  0.
   520  5.19  0.  0.  0.
   521  5.20  0.  0.  0.
   522  5.21  0.  0.  0.
   523  5.22  0.  0.  0.
   524  5.23  0.  0.  0.
   525  5.24  0.  0.  0.
   526  5.25  0.  0.  0.
   527  5.26  0.  0.  0.
   528  5.27  0.  0.  0.
   529  5.28  0.  0.  0.
   530  5.29  0.  0.  0.
   531  5.30  0.  0.  0.
   532  5.31  0.  0.  0.
   533  5.32  0.  0.  0.
   534  5.33  0.  0.  0.
   535  5.34  0.  0.  0.
   536  5.35  0.  0.  0.
   537  5.36  0.  0.  0.
   538  5.37  0.  0.  0.
   539  5.38  0.  0.  0.
   540  5.39  0.  0.  0.
   541  5.40  0.  0.  0.
   542  5.41  0.  0.  0.
   543  5.42  0.  0.  0.
   544  5.43  0.  0.  0.
   545  5.44  0.  0.  0.
   546  5.45  0.  0.  0.
   547  5.46  0.  0.  0.
   548  5.47  0.  0.  0.
   549  5.48  0.  0.  0.
   550  5.49  0.  0.  0.
   551  5.50  0.  0.  0.
   552  5.51  0.  0.  0.
   553  5.52  0.  0.  0.
   554  5.53  0.  0.  0.
   555  5.54  0.  0.  0.
   556  5.55  0.  0.  0.
   557  5.56  0.  0.  0.
   558  5.57  0.  0.  0.
   559  5.58  0.  0.  0.
   560  5.59  0.  0.  0.
   561  5.60  0.  0.  0.
   562  5.61  0.  0.  0.
   563  5.62  0.  0.  0.
   564  5.63  0.  0.  0.
   565  5.64  0.  0.  0.
   566  5.65  0.  0.  0.
   567  5.66  0.  0.  0.
   568  5.67  0.  0.  0.
   569  5.68  0.  0.  0.
   570  5.69  0.  0.  0.
   571  5.70  0.  0.  0.
   572  5.71  0.  0.  0.
   573  5.72  0.  0.  0.
   574  5.73  0.  0.  0.
   575  5.74  0.  0.  0.
   576  5.75  0.  0.  0.
   577  5.76  0.  0.  0.
   578  5.77  0.  0.  0.
   579  5.78  0.  0.  0.
   580  5.79  0.  0.  0.
   581  5.80  0.  0.  0.
   582  5.81  0.  0.  0.
   583  5.82  0.  0.  0.
   584  5.83  0.  0.  0.
   585  5.84  0.  0.  0.
   586  5.85  0.  0.  0.
   587  5.86  0.  0.  0.
   588  5.87  0.  0.  0.
   589  5.88  0.  0.  0.
   590  5.89  0.  0.  0.
   591  5.90  0.  0.  0.
   592  5.91  0.  0.  0.
   593  5.92  0.  0.  0.
   594  5.93  0.  0.  0.
   595  5.94  0.  0.  0.
   596  5.95  0.  0.  0.
   597  5.96  0.  0.  0.
   598  5.97  0.  0.  0.
   599  5.98  0.  0.  0.
   600  5.99  0.  0.  0.
   1                         7.5582350448086E+00 -2.4680163660771E+00
     1  0.0000000000000E+00 -2.8049028655275E-09 -6.0776325361278E-09
     2  1.0000000000000E-02  5.1045494789781E-03  5.3822722422866E-04
     3  2.0000000000000E-02  2.0368408603352E-02  2.1577761066539E-03
     4  3.0000000000000E-02  4.5642538460065E-02  4.8731057497867E-03
     5  4.0000000000000E-02  8.0679641379400E-02  8.7078436417189E-03
     6  5.0000000000000E-02  1.2513582459560E-01  1.3694093252380E-02
     7  6.0000000000000E-02  1.7857295402589E-01  1.9871492427331E-02
     8  7.0000000000000E-02  2.4046172027757E-01  2.7286049231614E-02
     9  8.0000000000000E-02  3.1018544179812E-01  3.5988787973812E-02
    10  9.0000000000000E-02  3.8704463046215E-01  4.6034243139802E-02
    11  1.0000000000000E-01  4.7026234252772E-01  5.7478842726790E-02
    12  1.1000000000000E-01  5.5899033259421E-01  7.0379224874237E-02
    13  1.2000000000000E-01  6.5231601989120E-01  8.4790532670282E-02
    14  1.3000000000000E-01  7.4927026499313E-01  1.0076473155080E-01
    15  1.4000000000000E-01  8.4883594109451E-01  1.1834899183437E-01
    16  1.5000000000000E-01  9.4995726763587E-01  1.3758417573052E-01
    17  1.6000000000000E-01  1.0515498558012E+00  1.5850346374804E-01
    18  1.7000000000000E-01  1.1525113957807E+00  1.8113114998230E-01
    19  1.8000000000000E-01  1.2517328953644E+00  2.0548162948166E-01
    20  1.9000000000000E-01  1.3481103591184E+00  2.3155859401419E-01
    21  2.0000000000000E-01  1.4405567778607E+00  2.5935444533152E-01
    22  2.1000000000000E-01  1.5280142801568E+00  2.8884992771953E-01
    23  2.2000000000000E-01  1.6094662818593E+00  3.2001397450150E-01
    24  2.3000000000000E-01  1.6839494570145E+00  3.5280375647522E-01
    25  2.4000000000000E-01  1.7505653443906E+00  3.8716491426053E-01
    26  2.5000000000000E-01  1.8084913989772E+00  4.2303195142112E-01
    27  2.6000000000000E-01  1.8569912974682E+00  4.6032876118262E-01
    28  2.7000000000000E-01  1.8954243112490E+00  4.9896925673633E-01
    29  2.8000000000000E-01  1.9232535698760E+00  5.3885807358591E-01
    30  2.9000000000000E-01  1.9400530524120E+00  5.7989131220521E-01
    31  3.0000000000000E-01  1.9455131630641E+00  6.2195729042079E-01
    32  3.1000000000000E-01  1.9394447709838E+00  6.6493727735145E-01
    33  3.2000000000000E-01  1.9217816213049E+00  7.0870618432079E-01
    34  3.3000000000000E-01  1.8925810548575E+00  7.5313319275232E-01
    35  3.4000000000000E-01  1.8520230067208E+00  7.9808230446618E-01
    36  3.5000000000000E-01  1.8004072879845E+00  8.4341280579470E-01
    37  3.6000000000000E-01  1.7381491898473E+00  8.8897964326999E-01
    38  3.7000000000000E-01  1.6657734834995E+00  9.3463371504483E-01
    39  3.8000000000000E-01  1.5839069221478E+00  9.8022208841644E-01
    40  3.9000000000000E-01  1.4932693820855E+00  1.0255881595670E+00
    41  4.0000000000000E-01  1.3946638070091E+00  1.0705717766637E+00
    42  4.1000000000000E-01  1.2889651430338E+00  1.1150093515522E+00
    43  4.2000000000000E-01  1.1771084703988E+00  1.1587339882372E+00
    44  4.3000000000000E-01  1.0600765511470E+00  1.2015756580279E+00
    45  4.4000000000000E-01  9.3888701975581E-01  1.2433614515311E+00
    46  4.5000000000000E-01  8.1457944560014E-01  1.2839159365555E+00
    47  4.6000000000000E-01  6.8820249224095E-01  1.3230616484556E+00
    48  4.7000000000000E-01  5.6080138905583E-01  1.3606197355518E+00
    49  4.8000000000000E-01  4.3340591601091E-01  1.3964107771464E+00
    50  4.9000000000000E-01  3.0701908296703E-01  1.4302557854621E+00
    51  5.0000000000000E-01  1.8260666149469E-01  1.4619773957952E+00
    52  5.1000000000000E-01  6.1087700554983E-02  1.4914012415420E+00
    53  5.2000000000000E-01 -5.6673871505230E-02  1.5183575028012E+00
    54  5.3000000000000E-01 -1.6987648642444E-01  1.5426826092896E+00
    55  5.4000000000000E-01 -2.7778697529331E-01  1.5642210706298E+00
    56  5.5000000000000E-01 -3.7974539581944E-01  1.5828273999829E+00
    57  5.6000000000000E-01 -4.7516866403946E-01  1.5983680908000E+00
    58  5.7000000000000E-01 -5.6355303267519E-01  1.6107236014067E+00
    59  5.8000000000000E-01 -6.4447548081249E-01  1.6197902984451E+00
    60  5.9000000000000E-01 -7.1759409817268E-01  1.6254823080563E+00
    61  6.0000000000000E-01 -7.8264756147806E-01  1.6277332232139E+00
    62  6.1000000000000E-01 -8.3945380999512E-01  1.6264976168850E+00
    63  6.2000000000000E-01 -8.8790803216751E-01  1.6217523137033E+00
    64  6.3000000000000E-01 -9.2798007541078E-01  1.6134973775221E+00
    65  6.4000000000000E-01 -9.5971138690283E-01  1.6017567784586E+00
    66  6.5000000000000E-01 -9.8321158501070E-01  1.5865787106548E+00
    67  6.6000000000000E-01 -9.9865474944448E-01  1.5680355407325E+00
    68  6.7000000000000E-01 -1.0062755040476E+00  1.5462233765266E+00
    69  6.8000000000000E-01 -1.0063649501495E+00  1.5212612558309E+00
    70  6.9000000000000E-01 -9.9926649150908E-01  1.4932899652366E+00
    71  7.0000000000000E-01 -9.8537157498828E-01  1.4624705093346E+00
    72  7.1000000000000E-01 -9.6511535512110E-01  1.4289822602451E+00
    73  7.2000000000000E-01 -9.3897227654444E-01  1.3930208262795E+00
    74  7.3000000000000E-01 -9.0745155660705E-01  1.3547956862353E+00
    75  7.4000000000000E-01 -8.7109254202579E-01  1.3145276420909E+00
    76  7.5000000000000E-01 -8.3045990871809E-01  1.2724461474870E+00
    77  7.6000000000000E-01 -7.8613867324097E-01  1.2287865721924E+00
    78  7.7000000000000E-01 -7.3872898775222E-01  1.1837874636424E+00
    79  7.8000000000000E-01 -6.8884069802387E-01  1.1376878655952E+00
    80  7.9000000000000E-01 -6.3708765552922E-01  1.0907247509960E+00
    81  8.0000000000000E-01 -5.8408178954191E-01  1.0431306213965E+00
    82  8.1000000000000E-01 -5.3042696290421E-01  9.9513131891261E-01
    83  8.2000000000000E-01 -4.7671265485617E-01  9.4694408896551E-01
    84  8.3000000000000E-01 -4.2350753515535E-01  8.9877592321699E-01
    85  8.4000000000000E-01 -3.7135301464873E-01  8.5082220252723E-01
    86  8.5000000000000E-01 -3.2075687741752E-01  8.0326564978395E-01
    87  8.6000000000000E-01 -2.7218711751873E-01  7.5627559246468E-01
    88  8.7000000000000E-01 -2.2606611813279E-01  7.1000752518415E-01
    89  8.8000000000000E-01 -1.8276532160176E-01  6.6460295362443E-01
    90  8.9000000000000E-01 -1.4260054451487E-01  6.2018949350263E-01
    91  9.0000000000000E-01 -1.0582809191858E-01  5.7688119192177E-01
    92  9.1000000000000E-01 -7.2641818313705E-02  5.3477903385045E-01
    93  9.2000000000000E-01 -4.3171269967429E-02  4.9397159380870E-01
    94  9.3000000000000E-01 -1.7481023036389E-02  4.5453579225936E-01
    95  9.4000000000000E-01  4.4286948850688E-03  4.1653771781094E-01