Md    ONCVPSP-4.0.1  r_core=   1.15366   1.15366   1.15366   1.15366
101.0000     41.0000      230504    zatom,zion,pspd
8      11   3     4   600     0    pspcod,pspxc,lmax,lloc,mmax,r2well
5.99000000  5.00000000  0.00000000    rchrg fchrg qchrg
3     2     2     2     0    nproj
1     1           extension_switch
0                         2.3045439023013E+01 -2.5563917115719E+00  2.3423729693062E+00
1  0.0000000000000E+00 -3.6703410755123E-08 -8.1765421655611E-09 -1.3838292189927E-07
2  1.0000000000000E-02  1.6777560876515E-01  4.0336696543976E-02  6.4269994552559E-02
3  2.0000000000000E-02  3.3425763405426E-01  8.0518174414795E-02  1.2693300844305E-01
4  3.0000000000000E-02  4.9816791467274E-01  1.2039183710309E-01  1.8641961875730E-01
5  4.0000000000000E-02  6.5825880915612E-01  1.5981026508358E-01  2.4123440285398E-01
6  5.0000000000000E-02  8.1332765359662E-01  1.9863363819703E-01  2.8999018833583E-01
7  6.0000000000000E-02  9.6223028478943E-01  2.3673196491242E-01  3.3143910757251E-01
8  7.0000000000000E-02  1.1038933623650E+00  2.7398706420222E-01  3.6449956221600E-01
9  8.0000000000000E-02  1.2373252602763E+00  3.1029425394013E-01  3.8827834153219E-01
10  9.0000000000000E-02  1.3616253414019E+00  3.4556370936594E-01  4.0208730188685E-01
11  1.0000000000000E-01  1.4759914775771E+00  3.7972146589904E-01  4.0545419756773E-01
12  1.1000000000000E-01  1.5797257293789E+00  4.1271005202302E-01  3.9812744880928E-01
13  1.2000000000000E-01  1.6722381536487E+00  4.4448874968764E-01  3.8007483448301E-01
14  1.3000000000000E-01  1.7530487601628E+00  4.7503349124891E-01  3.5147629729149E-01
15  1.4000000000000E-01  1.8217876902263E+00  5.0433641297146E-01  3.1271124138892E-01
16  1.5000000000000E-01  1.8781937374837E+00  5.3240509514954E-01  2.6434087938537E-01
17  1.6000000000000E-01  1.9221113733178E+00  5.5926152760358E-01  2.0708634146667E-01
18  1.7000000000000E-01  1.9534864744283E+00  5.8494084637125E-01  1.4180338846040E-01
19  1.8000000000000E-01  1.9723609774014E+00  6.0948989259211E-01  6.9454668639839E-02
20  1.9000000000000E-01  1.9788667034549E+00  6.3296564771391E-01 -8.9194784369439E-03
21  2.0000000000000E-01  1.9732186055550E+00  6.5543360013858E-01 -9.2230640766870E-02
22  2.1000000000000E-01  1.9557076895797E+00  6.7696609727006E-01 -1.7937135541837E-01
23  2.2000000000000E-01  1.9266938513423E+00  6.9764073370535E-01 -2.6924255965692E-01
24  2.3000000000000E-01  1.8865988526127E+00  7.1753882118136E-01 -3.6077858027334E-01
25  2.4000000000000E-01  1.8358996326503E+00  7.3674397908977E-01 -4.5296888289203E-01
26  2.5000000000000E-01  1.7751221183365E+00  7.5534087619725E-01 -5.4487594342357E-01
27  2.6000000000000E-01  1.7048356571682E+00  7.7341414501384E-01 -6.3564876609092E-01
28  2.7000000000000E-01  1.6256481547559E+00  7.9104748042991E-01 -7.2453175050832E-01
29  2.8000000000000E-01  1.5382019537812E+00  8.0832292421035E-01 -8.1086879745601E-01
30  2.9000000000000E-01  1.4431704464310E+00  8.2532032711790E-01 -8.9410273229626E-01
31  3.0000000000000E-01  1.3412553689491E+00  8.4211697125515E-01 -9.7377030934193E-01
32  3.1000000000000E-01  1.2331846868734E+00  8.5878732705558E-01 -1.0494932330845E+00
33  3.2000000000000E-01  1.1197109443855E+00  8.7540291257188E-01 -1.1209657865759E+00
34  3.3000000000000E-01  1.0016099224174E+00  8.9203221759971E-01 -1.1879397876961E+00
35  3.4000000000000E-01  8.7967942891127E-01  9.0874065196547E-01 -1.2502076956940E+00
36  3.5000000000000E-01  7.5473803182097E-01  9.2559047615236E-01 -1.3075847594404E+00
37  3.6000000000000E-01  6.2762354163221E-01  9.4264067340716E-01 -1.3598911327373E+00
38  3.7000000000000E-01  4.9919105559267E-01  9.5994672554582E-01 -1.4069348794706E+00
39  3.8000000000000E-01  3.7031039034324E-01  9.7756025975477E-01 -1.4484967524691E+00
40  3.9000000000000E-01  2.4186275273921E-01  9.9552854057987E-01 -1.4843175560437E+00
41  4.0000000000000E-01  1.1473652951987E-01  1.0138937897433E+00 -1.5140887960498E+00
42  4.1000000000000E-01 -1.0177886005559E-02  1.0326923261004E+00 -1.5374471868475E+00
43  4.2000000000000E-01 -1.3199426933940E-01  1.0519535285552E+00 -1.5539734267168E+00
44  4.3000000000000E-01 -2.4983773495128E-01  1.0716986356759E+00 -1.5631954779505E+00
45  4.4000000000000E-01 -3.6285284568497E-01  1.0919394066311E+00 -1.5645964015229E+00
46  4.5000000000000E-01 -4.7021255766498E-01  1.1126766784567E+00 -1.5576266058513E+00
47  4.6000000000000E-01 -5.7112785061470E-01  1.1338988641093E+00 -1.5417201818476E+00
48  4.7000000000000E-01 -6.6485785088390E-01  1.1555804438525E+00 -1.5163148192278E+00
49  4.8000000000000E-01 -7.5072021731433E-01  1.1776805088778E+00 -1.4808746385902E+00
50  4.9000000000000E-01 -8.2810152988781E-01  1.2001414203799E+00 -1.4349151361943E+00
51  5.0000000000000E-01 -8.9646739920400E-01  1.2228876493303E+00 -1.3780293289550E+00
52  5.1000000000000E-01 -9.5537200223810E-01  1.2458248617811E+00 -1.3099141102016E+00
53  5.2000000000000E-01 -1.0044667472251E+00  1.2688393116025E+00 -1.2303957853598E+00
54  5.3000000000000E-01 -1.0435077782380E+00  1.2917975971370E+00 -1.1394537527534E+00
55  5.4000000000000E-01 -1.0723620480447E+00  1.3145468304696E+00 -1.0372413286891E+00
56  5.5000000000000E-01 -1.0910117157415E+00  1.3369152580552E+00 -9.2410278703448E-01
57  5.6000000000000E-01 -1.0995566627158E+00  1.3587133596211E+00 -8.0058578943360E-01
58  5.7000000000000E-01 -1.0982149655969E+00  1.3797354389247E+00 -6.6744851967296E-01
59  5.8000000000000E-01 -1.0873212166439E+00  1.3997617055270E+00 -5.2566099994599E-01
60  5.9000000000000E-01 -1.0673226388531E+00  1.4185608317110E+00 -3.7640025230665E-01
61  6.0000000000000E-01 -1.0387730031518E+00  1.4358929535256E+00 -2.2103916914356E-01
62  6.1000000000000E-01 -1.0023244164242E+00  1.4515130701915E+00 -6.1129165164331E-02
63  6.2000000000000E-01 -9.5871710980913E-01  1.4651747822592E+00  1.0162310700081E-01
64  6.3000000000000E-01 -9.0876741472305E-01  1.4766342964504E+00  2.6538449211443E-01
65  6.4000000000000E-01 -8.5335416749935E-01  1.4856546144716E+00  4.2822884303613E-01
66  6.5000000000000E-01 -7.9340383063666E-01  1.4920098146492E+00  5.8817446106374E-01
67  6.6000000000000E-01 -7.2987465786149E-01  1.4954893293031E+00  7.4322447568662E-01
68  6.7000000000000E-01 -6.6374026024342E-01  1.4959021175802E+00  8.9140905980649E-01
69  6.8000000000000E-01 -5.9597295045750E-01  1.4930806331437E+00  1.0308282975011E+00
70  6.9000000000000E-01 -5.2752725131030E-01  1.4868844887099E+00  1.1596944799432E+00
71  7.0000000000000E-01 -4.5932395252215E-01  1.4772037248784E+00  1.2763726026878E+00
72  7.1000000000000E-01 -3.9223508653876E-01  1.4639615988783E+00  1.3794178744240E+00
73  7.2000000000000E-01 -3.2707017023813E-01  1.4471168195183E+00  1.4676091223673E+00
74  7.3000000000000E-01 -2.6456402553648E-01  1.4266651674675E+00  1.5399770904426E+00
75  7.4000000000000E-01 -2.0536644913935E-01  1.4026404546393E+00  1.5958267697412E+00
76  7.5000000000000E-01 -1.5003395133817E-01  1.3751147924598E+00  1.6347530719461E+00
77  7.6000000000000E-01 -9.9023727364516E-02  1.3441981557200E+00  1.6566493500813E+00
78  7.7000000000000E-01 -5.2689964090040E-02  1.3100372460335E+00  1.6617084809988E+00
79  7.8000000000000E-01 -1.1282521620965E-02  1.2728136761627E+00  1.6504164438927E+00
80  7.9000000000000E-01  2.5052034554893E-02  1.2327415131472E+00  1.6235385520640E+00
81  8.0000000000000E-01  5.6267137883165E-02  1.1900642338052E+00  1.5820987142591E+00
82  8.1000000000000E-01  8.2410808201092E-02  1.1450511603726E+00  1.5273523105417E+00
83  8.2000000000000E-01  1.0361832400046E-01  1.0979934564186E+00  1.4607534595347E+00
84  8.3000000000000E-01  1.2010322994195E-01  1.0491997734282E+00  1.3839176232591E+00
85  8.4000000000000E-01  1.3214697134772E-01  9.9899164634129E-01  1.2985806376904E+00
86  8.5000000000000E-01  1.4008748009926E-01  9.4769874170316E-01  1.2065553673580E+00
87  8.6000000000000E-01  1.4430705966448E-01  8.9565406484147E-01  1.1096872575641E+00
88  8.7000000000000E-01  1.4521993030868E-01  8.4318923260036E-01  1.0098100958009E+00
89  8.8000000000000E-01  1.4325979860498E-01  7.9062991569123E-01  9.0870329334756E-01
90  8.9000000000000E-01  1.3886780809769E-01  7.3829154976147E-01  8.0805195847479E-01
91  9.0000000000000E-01  1.3248121055840E-01  6.8647540699182E-01  7.0941095465591E-01
92  9.1000000000000E-01  1.2452307008494E-01  6.3546511060325E-01  6.1417402198557E-01
93  9.2000000000000E-01  1.1539327586440E-01  5.8552366330416E-01  5.2354888960286E-01
94  9.3000000000000E-01  1.0546109441662E-01  5.3689104766864E-01  4.3853912380358E-01
95  9.4000000000000E-01  9.5059439298035E-02  4.8978244193785E-01  3.5993324357745E-01
96  9.5000000000000E-01  8.4480976352795E-02  4.4438707899630E-01  2.8830139558968E-01
97  9.6000000000000E-01  7.3976116439372E-02  4.0086775948617E-01  2.2399961734298E-01
98  9.7000000000000E-01  6.3752875809818E-02  3.5936101233186E-01  1.6718143323674E-01
99  9.8000000000000E-01  5.3978507656052E-02  3.1997787747154E-01  1.1781622643767E-01
100  9.9000000000000E-01  4.4782727191992E-02  2.8280526636981E-01  7.5713511942275E-02
101  1.0000000000000E+00  3.6262267433947E-02  2.4790783592608E-01  4.0551905060219E-02
102  1.0100000000000E+00  2.8486413580466E-02  2.1533029058960E-01  1.1911235355391E-02
103  1.0200000000000E+00  2.1503070641698E-02  1.8510000572827E-01 -1.0694100270536E-02
104  1.0300000000000E+00  1.5344821414289E-02  1.5722984235659E-01 -2.7782820724558E-02
105  1.0400000000000E+00  1.0034329448452E-02  1.3172099890727E-01 -3.9878138783556E-02
106  1.0500000000000E+00  5.5883336139901E-03  1.0856571949303E-01 -4.7485892237033E-02
107  1.0600000000000E+00  2.0193664469166E-03  8.7749649688164E-02 -5.1082904285503E-02
108  1.0700000000000E+00 -6.6579396659717E-04  6.9253599685352E-02 -5.1119491239022E-02
109  1.0800000000000E+00 -2.4720582114711E-03  5.3054441913452E-02 -4.8040497849399E-02
110  1.0900000000000E+00 -3.4275828335512E-03  3.9124839748370E-02 -4.2329682323357E-02
111  1.1000000000000E+00 -3.6110520172615E-03  2.7424471396647E-02 -3.4610956761493E-02
112  1.1100000000000E+00 -3.2133692470880E-03  1.7865235169626E-02 -2.5872040827771E-02
113  1.1200000000000E+00 -2.4188829850586E-03  1.0417535127559E-02 -1.7077991893837E-02
114  1.1300000000000E+00 -1.4540742020783E-03  5.0345050817308E-03 -9.2417259467151E-03
115  1.1400000000000E+00 -5.7270163832589E-04  1.6362649053196E-03 -3.3337814354795E-03
116  1.1500000000000E+00 -5.5124072210473E-05  1.3182950065490E-04 -2.9680489212418E-04
117  1.1600000000000E+00  1.5782509889047E-06 -3.4139871027953E-06  8.1628797044426E-06
118  1.1700000000000E+00  3.9617237560896E-07 -1.0002538487076E-06  2.1850047803308E-06
119  1.18 -0. -0. -0.
120  1.19  0.  0.  0.
121  1.20  0.  0.  0.
122  1.21  0.  0.  0.
123  1.22  0.  0.  0.
124  1.23  0.  0.  0.
125  1.24  0.  0.  0.
126  1.25  0.  0.  0.
127  1.26  0.  0.  0.
128  1.27  0.  0.  0.
129  1.28  0.  0.  0.
130  1.29  0.  0.  0.
131  1.30  0.  0.  0.
132  1.31  0.  0.  0.
133  1.32  0.  0.  0.
134  1.33  0.  0.  0.
135  1.34  0.  0.  0.
136  1.35  0.  0.  0.
137  1.36  0.  0.  0.
138  1.37  0.  0.  0.
139  1.38  0.  0.  0.
140  1.39  0.  0.  0.
141  1.40  0.  0.  0.
142  1.41  0.  0.  0.
143  1.42  0.  0.  0.
144  1.43  0.  0.  0.
145  1.44  0.  0.  0.
146  1.45  0.  0.  0.
147  1.46  0.  0.  0.
148  1.47  0.  0.  0.
149  1.48  0.  0.  0.
150  1.49  0.  0.  0.
151  1.50  0.  0.  0.
152  1.51  0.  0.  0.
153  1.52  0.  0.  0.
154  1.53  0.  0.  0.
155  1.54  0.  0.  0.
156  1.55  0.  0.  0.
157  1.56  0.  0.  0.
158  1.57  0.  0.  0.
159  1.58  0.  0.  0.
160  1.59  0.  0.  0.
161  1.60  0.  0.  0.
162  1.61  0.  0.  0.
163  1.62  0.  0.  0.
164  1.63  0.  0.  0.
165  1.64  0.  0.  0.
166  1.65  0.  0.  0.
167  1.66  0.  0.  0.
168  1.67  0.  0.  0.
169  1.68  0.  0.  0.
170  1.69  0.  0.  0.
171  1.70  0.  0.  0.
172  1.71  0.  0.  0.
173  1.72  0.  0.  0.
174  1.73  0.  0.  0.
175  1.74  0.  0.  0.
176  1.75  0.  0.  0.
177  1.76  0.  0.  0.
178  1.77  0.  0.  0.
179  1.78  0.  0.  0.
180  1.79  0.  0.  0.
181  1.80  0.  0.  0.
182  1.81  0.  0.  0.
183  1.82  0.  0.  0.
184  1.83  0.  0.  0.
185  1.84  0.  0.  0.
186  1.85  0.  0.  0.
187  1.86  0.  0.  0.
188  1.87  0.  0.  0.
189  1.88  0.  0.  0.
190  1.89  0.  0.  0.
191  1.90  0.  0.  0.
192  1.91  0.  0.  0.
193  1.92  0.  0.  0.
194  1.93  0.  0.  0.
195  1.94  0.  0.  0.
196  1.95  0.  0.  0.
197  1.96  0.  0.  0.
198  1.97  0.  0.  0.
199  1.98  0.  0.  0.
200  1.99  0.  0.  0.
201  2.00  0.  0.  0.
202  2.01  0.  0.  0.
203  2.02  0.  0.  0.
204  2.03  0.  0.  0.
205  2.04  0.  0.  0.
206  2.05  0.  0.  0.
207  2.06  0.  0.  0.
208  2.07  0.  0.  0.
209  2.08  0.  0.  0.
210  2.09  0.  0.  0.
211  2.10  0.  0.  0.
212  2.11  0.  0.  0.
213  2.12  0.  0.  0.
214  2.13  0.  0.  0.
215  2.14  0.  0.  0.
216  2.15  0.  0.  0.
217  2.16  0.  0.  0.
218  2.17  0.  0.  0.
219  2.18  0.  0.  0.
220  2.19  0.  0.  0.
221  2.20  0.  0.  0.
222  2.21  0.  0.  0.
223  2.22  0.  0.  0.
224  2.23  0.  0.  0.
225  2.24  0.  0.  0.
226  2.25  0.  0.  0.
227  2.26  0.  0.  0.
228  2.27  0.  0.  0.
229  2.28  0.  0.  0.
230  2.29  0.  0.  0.
231  2.30  0.  0.  0.
232  2.31  0.  0.  0.
233  2.32  0.  0.  0.
234  2.33  0.  0.  0.
235  2.34  0.  0.  0.
236  2.35  0.  0.  0.
237  2.36  0.  0.  0.
238  2.37  0.  0.  0.
239  2.38  0.  0.  0.
240  2.39  0.  0.  0.
241  2.40  0.  0.  0.
242  2.41  0.  0.  0.
243  2.42  0.  0.  0.
244  2.43  0.  0.  0.
245  2.44  0.  0.  0.
246  2.45  0.  0.  0.
247  2.46  0.  0.  0.
248  2.47  0.  0.  0.
249  2.48  0.  0.  0.
250  2.49  0.  0.  0.
251  2.50  0.  0.  0.
252  2.51  0.  0.  0.
253  2.52  0.  0.  0.
254  2.53  0.  0.  0.
255  2.54  0.  0.  0.
256  2.55  0.  0.  0.
257  2.56  0.  0.  0.
258  2.57  0.  0.  0.
259  2.58  0.  0.  0.
260  2.59  0.  0.  0.
261  2.60  0.  0.  0.
262  2.61  0.  0.  0.
263  2.62  0.  0.  0.
264  2.63  0.  0.  0.
265  2.64  0.  0.  0.
266  2.65  0.  0.  0.
267  2.66  0.  0.  0.
268  2.67  0.  0.  0.
269  2.68  0.  0.  0.
270  2.69  0.  0.  0.
271  2.70  0.  0.  0.
272  2.71  0.  0.  0.
273  2.72  0.  0.  0.
274  2.73  0.  0.  0.
275  2.74  0.  0.  0.
276  2.75  0.  0.  0.
277  2.76  0.  0.  0.
278  2.77  0.  0.  0.
279  2.78  0.  0.  0.
280  2.79  0.  0.  0.
281  2.80  0.  0.  0.
282  2.81  0.  0.  0.
283  2.82  0.  0.  0.
284  2.83  0.  0.  0.
285  2.84  0.  0.  0.
286  2.85  0.  0.  0.
287  2.86  0.  0.  0.
288  2.87  0.  0.  0.
289  2.88  0.  0.  0.
290  2.89  0.  0.  0.
291  2.90  0.  0.  0.
292  2.91  0.  0.  0.
293  2.92  0.  0.  0.
294  2.93  0.  0.  0.
295  2.94  0.  0.  0.
296  2.95  0.  0.  0.
297  2.96  0.  0.  0.
298  2.97  0.  0.  0.
299  2.98  0.  0.  0.
300  2.99  0.  0.  0.
301  3.00  0.  0.  0.
302  3.01  0.  0.  0.
303  3.02  0.  0.  0.
304  3.03  0.  0.  0.
305  3.04  0.  0.  0.
306  3.05  0.  0.  0.
307  3.06  0.  0.  0.
308  3.07  0.  0.  0.
309  3.08  0.  0.  0.
310  3.09  0.  0.  0.
311  3.10  0.  0.  0.
312  3.11  0.  0.  0.
313  3.12  0.  0.  0.
314  3.13  0.  0.  0.
315  3.14  0.  0.  0.
316  3.15  0.  0.  0.
317  3.16  0.  0.  0.
318  3.17  0.  0.  0.
319  3.18  0.  0.  0.
320  3.19  0.  0.  0.
321  3.20  0.  0.  0.
322  3.21  0.  0.  0.
323  3.22  0.  0.  0.
324  3.23  0.  0.  0.
325  3.24  0.  0.  0.
326  3.25  0.  0.  0.
327  3.26  0.  0.  0.
328  3.27  0.  0.  0.
329  3.28  0.  0.  0.
330  3.29  0.  0.  0.
331  3.30  0.  0.  0.
332  3.31  0.  0.  0.
333  3.32  0.  0.  0.
334  3.33  0.  0.  0.
335  3.34  0.  0.  0.
336  3.35  0.  0.  0.
337  3.36  0.  0.  0.
338  3.37  0.  0.  0.
339  3.38  0.  0.  0.
340  3.39  0.  0.  0.
341  3.40  0.  0.  0.
342  3.41  0.  0.  0.
343  3.42  0.  0.  0.
344  3.43  0.  0.  0.
345  3.44  0.  0.  0.
346  3.45  0.  0.  0.
347  3.46  0.  0.  0.
348  3.47  0.  0.  0.
349  3.48  0.  0.  0.
350  3.49  0.  0.  0.
351  3.50  0.  0.  0.
352  3.51  0.  0.  0.
353  3.52  0.  0.  0.
354  3.53  0.  0.  0.
355  3.54  0.  0.  0.
356  3.55  0.  0.  0.
357  3.56  0.  0.  0.
358  3.57  0.  0.  0.
359  3.58  0.  0.  0.
360  3.59  0.  0.  0.
361  3.60  0.  0.  0.
362  3.61  0.  0.  0.
363  3.62  0.  0.  0.
364  3.63  0.  0.  0.
365  3.64  0.  0.  0.
366  3.65  0.  0.  0.
367  3.66  0.  0.  0.
368  3.67  0.  0.  0.
369  3.68  0.  0.  0.
370  3.69  0.  0.  0.
371  3.70  0.  0.  0.
372  3.71  0.  0.  0.
373  3.72  0.  0.  0.
374  3.73  0.  0.  0.
375  3.74  0.  0.  0.
376  3.75  0.  0.  0.
377  3.76  0.  0.  0.
378  3.77  0.  0.  0.
379  3.78  0.  0.  0.
380  3.79  0.  0.  0.
381  3.80  0.  0.  0.
382  3.81  0.  0.  0.
383  3.82  0.  0.  0.
384  3.83  0.  0.  0.
385  3.84  0.  0.  0.
386  3.85  0.  0.  0.
387  3.86  0.  0.  0.
388  3.87  0.  0.  0.
389  3.88  0.  0.  0.
390  3.89  0.  0.  0.
391  3.90  0.  0.  0.
392  3.91  0.  0.  0.
393  3.92  0.  0.  0.
394  3.93  0.  0.  0.
395  3.94  0.  0.  0.
396  3.95  0.  0.  0.
397  3.96  0.  0.  0.
398  3.97  0.  0.  0.
399  3.98  0.  0.  0.
400  3.99  0.  0.  0.
401  4.00  0.  0.  0.
402  4.01  0.  0.  0.
403  4.02  0.  0.  0.
404  4.03  0.  0.  0.
405  4.04  0.  0.  0.
406  4.05  0.  0.  0.
407  4.06  0.  0.  0.
408  4.07  0.  0.  0.
409  4.08  0.  0.  0.
410  4.09  0.  0.  0.
411  4.10  0.  0.  0.
412  4.11  0.  0.  0.
413  4.12  0.  0.  0.
414  4.13  0.  0.  0.
415  4.14  0.  0.  0.
416  4.15  0.  0.  0.
417  4.16  0.  0.  0.
418  4.17  0.  0.  0.
419  4.18  0.  0.  0.
420  4.19  0.  0.  0.
421  4.20  0.  0.  0.
422  4.21  0.  0.  0.
423  4.22  0.  0.  0.
424  4.23  0.  0.  0.
425  4.24  0.  0.  0.
426  4.25  0.  0.  0.
427  4.26  0.  0.  0.
428  4.27  0.  0.  0.
429  4.28  0.  0.  0.
430  4.29  0.  0.  0.
431  4.30  0.  0.  0.
432  4.31  0.  0.  0.
433  4.32  0.  0.  0.
434  4.33  0.  0.  0.
435  4.34  0.  0.  0.
436  4.35  0.  0.  0.
437  4.36  0.  0.  0.
438  4.37  0.  0.  0.
439  4.38  0.  0.  0.
440  4.39  0.  0.  0.
441  4.40  0.  0.  0.
442  4.41  0.  0.  0.
443  4.42  0.  0.  0.
444  4.43  0.  0.  0.
445  4.44  0.  0.  0.
446  4.45  0.  0.  0.
447  4.46  0.  0.  0.
448  4.47  0.  0.  0.
449  4.48  0.  0.  0.
450  4.49  0.  0.  0.
451  4.50  0.  0.  0.
452  4.51  0.  0.  0.
453  4.52  0.  0.  0.
454  4.53  0.  0.  0.
455  4.54  0.  0.  0.
456  4.55  0.  0.  0.
457  4.56  0.  0.  0.
458  4.57  0.  0.  0.
459  4.58  0.  0.  0.
460  4.59  0.  0.  0.
461  4.60  0.  0.  0.
462  4.61  0.  0.  0.
463  4.62  0.  0.  0.
464  4.63  0.  0.  0.
465  4.64  0.  0.  0.
466  4.65  0.  0.  0.
467  4.66  0.  0.  0.
468  4.67  0.  0.  0.
469  4.68  0.  0.  0.
470  4.69  0.  0.  0.
471  4.70  0.  0.  0.
472  4.71  0.  0.  0.
473  4.72  0.  0.  0.
474  4.73  0.  0.  0.
475  4.74  0.  0.  0.
476  4.75  0.  0.  0.
477  4.76  0.  0.  0.
478  4.77  0.  0.  0.
479  4.78  0.  0.  0.
480  4.79  0.  0.  0.
481  4.80  0.  0.  0.
482  4.81  0.  0.  0.
483  4.82  0.  0.  0.
484  4.83  0.  0.  0.
485  4.84  0.  0.  0.
486  4.85  0.  0.  0.
487  4.86  0.  0.  0.
488  4.87  0.  0.  0.
489  4.88  0.  0.  0.
490  4.89  0.  0.  0.
491  4.90  0.  0.  0.
492  4.91  0.  0.  0.
493  4.92  0.  0.  0.
494  4.93  0.  0.  0.
495  4.94  0.  0.  0.
496  4.95  0.  0.  0.
497  4.96  0.  0.  0.
498  4.97  0.  0.  0.
499  4.98  0.  0.  0.
500  4.99  0.  0.  0.
501  5.00  0.  0.  0.
502  5.01  0.  0.  0.
503  5.02  0.  0.  0.
504  5.03  0.  0.  0.
505  5.04  0.  0.  0.
506  5.05  0.  0.  0.
507  5.06  0.  0.  0.
508  5.07  0.  0.  0.
509  5.08  0.  0.  0.
510  5.09  0.  0.  0.
511  5.10  0.  0.  0.
512  5.11  0.  0.  0.
513  5.12  0.  0.  0.
514  5.13  0.  0.  0.
515  5.14  0.  0.  0.
516  5.15  0.  0.  0.
517  5.16  0.  0.  0.
518  5.17  0.  0.  0.
519  5.18  0.  0.  0.
520  5.19  0.  0.  0.
521  5.20  0.  0.  0.
522  5.21  0.  0.  0.
523  5.22  0.  0.  0.
524  5.23  0.  0.  0.
525  5.24  0.  0.  0.
526  5.25  0.  0.  0.
527  5.26  0.  0.  0.
528  5.27  0.  0.  0.
529  5.28  0.  0.  0.
530  5.29  0.  0.  0.
531  5.30  0.  0.  0.
532  5.31  0.  0.  0.
533  5.32  0.  0.  0.
534  5.33  0.  0.  0.
535  5.34  0.  0.  0.
536  5.35  0.  0.  0.
537  5.36  0.  0.  0.
538  5.37  0.  0.  0.
539  5.38  0.  0.  0.
540  5.39  0.  0.  0.
541  5.40  0.  0.  0.
542  5.41  0.  0.  0.
543  5.42  0.  0.  0.
544  5.43  0.  0.  0.
545  5.44  0.  0.  0.
546  5.45  0.  0.  0.
547  5.46  0.  0.  0.
548  5.47  0.  0.  0.
549  5.48  0.  0.  0.
550  5.49  0.  0.  0.
551  5.50  0.  0.  0.
552  5.51  0.  0.  0.
553  5.52  0.  0.  0.
554  5.53  0.  0.  0.
555  5.54  0.  0.  0.
556  5.55  0.  0.  0.
557  5.56  0.  0.  0.
558  5.57  0.  0.  0.
559  5.58  0.  0.  0.
560  5.59  0.  0.  0.
561  5.60  0.  0.  0.
562  5.61  0.  0.  0.
563  5.62  0.  0.  0.
564  5.63  0.  0.  0.
565  5.64  0.  0.  0.
566  5.65  0.  0.  0.
567  5.66  0.  0.  0.
568  5.67  0.  0.  0.
569  5.68  0.  0.  0.
570  5.69  0.  0.  0.
571  5.70  0.  0.  0.
572  5.71  0.  0.  0.
573  5.72  0.  0.  0.
574  5.73  0.  0.  0.
575  5.74  0.  0.  0.
576  5.75  0.  0.  0.
577  5.76  0.  0.  0.
578  5.77  0.  0.  0.
579  5.78  0.  0.  0.
580  5.79  0.  0.  0.
581  5.80  0.  0.  0.
582  5.81  0.  0.  0.
583  5.82  0.  0.  0.
584  5.83  0.  0.  0.
585  5.84  0.  0.  0.
586  5.85  0.  0.  0.
587  5.86  0.  0.  0.
588  5.87  0.  0.  0.
589  5.88  0.  0.  0.
590  5.89  0.  0.  0.
591  5.90  0.  0.  0.
592  5.91  0.  0.  0.
593  5.92  0.  0.  0.
594  5.93  0.  0.  0.
595  5.94  0.  0.  0.
596  5.95  0.  0.  0.
597  5.96  0.  0.  0.
598  5.97  0.  0.  0.
599  5.98  0.  0.  0.
600  5.99  0.  0.  0.
1                         6.9980926744119E+00 -2.4427628164260E+00
1  0.0000000000000E+00 -1.1405512811979E-08 -8.1447642172328E-09
2  1.0000000000000E-02  4.8233791474008E-03  4.9177000749840E-04
3  2.0000000000000E-02  1.9250595705463E-02  1.9732888435887E-03
4  3.0000000000000E-02  4.3153031917804E-02  4.4629989339647E-03
5  4.0000000000000E-02  7.6316817513095E-02  7.9910297783176E-03
6  5.0000000000000E-02  1.1844360200929E-01  1.2598305222987E-02
7  6.0000000000000E-02  1.6915170072356E-01  1.8335331148902E-02
8  7.0000000000000E-02  2.2797767501501E-01  2.5260699545122E-02
9  8.0000000000000E-02  2.9437841869278E-01  3.3439353083076E-02
10  9.0000000000000E-02  3.6773382984026E-01  4.2940660956803E-02
11  1.0000000000000E-01  4.4735014998033E-01  5.3836361690817E-02
12  1.1000000000000E-01  5.3246405016872E-01  6.6198431680194E-02
13  1.2000000000000E-01  6.2224753609190E-01  8.0096939325312E-02
14  1.3000000000000E-01  7.1581373161796E-01  9.5597943733936E-02
15  1.4000000000000E-01  8.1222358277384E-01  1.1276149413432E-01
16  1.5000000000000E-01  9.1049350228284E-01  1.3163978149242E-01
17  1.6000000000000E-01  1.0096039492661E+00  1.5227548753598E-01
18  1.7000000000000E-01  1.1085089103384E+00  1.7470036869863E-01
19  1.8000000000000E-01  1.2061462180995E+00  1.9893410369790E-01
20  1.9000000000000E-01  1.3014486120350E+00  2.2498342388079E-01
21  2.0000000000000E-01  1.3933554162513E+00  2.5284153546506E-01
22  2.1000000000000E-01  1.4808246794750E+00  2.8248783274361E-01
23  2.2000000000000E-01  1.5628455964970E+00  3.1388789157258E-01
24  2.3000000000000E-01  1.6384510078578E+00  3.4699372338976E-01
25  2.4000000000000E-01  1.7067297570286E+00  3.8174426193802E-01
26  2.5000000000000E-01  1.7668386725020E+00  4.1806604809153E-01
27  2.6000000000000E-01  1.8180139367334E+00  4.5587407294416E-01
28  2.7000000000000E-01  1.8595816052192E+00  4.9507273580201E-01
29  2.8000000000000E-01  1.8909670474010E+00  5.3555687204589E-01
30  2.9000000000000E-01  1.9117030965197E+00  5.7721280604081E-01
31  3.0000000000000E-01  1.9214367177495E+00  6.1991938634483E-01
32  3.1000000000000E-01  1.9199340324165E+00  6.6354896431133E-01
33  3.2000000000000E-01  1.9070835701028E+00  7.0796828262197E-01
34  3.3000000000000E-01  1.8828976590212E+00  7.5303924710360E-01
35  3.4000000000000E-01  1.8475119070862E+00  7.9861956308772E-01
36  3.5000000000000E-01  1.8011827703437E+00  8.4456322623934E-01
37  3.6000000000000E-01  1.7442832504970E+00  8.9072086685227E-01
38  3.7000000000000E-01  1.6772968077580E+00  9.3693995570257E-01
39  3.8000000000000E-01  1.6008096177578E+00  9.8306488828846E-01
40  3.9000000000000E-01  1.5155013403922E+00  1.0289369722903E+00
41  4.0000000000000E-01  1.4221346029973E+00  1.0743943500122E+00
42  4.1000000000000E-01  1.3215434290161E+00  1.1192718931061E+00
43  4.2000000000000E-01  1.2146208653992E+00  1.1634011107763E+00
44  4.3000000000000E-01  1.1023060766555E+00  1.2066101147143E+00
45  4.4000000000000E-01  9.8557118027926E-01  1.2487236841022E+00
46  4.5000000000000E-01  8.6540809701280E-01  1.2895634720915E+00
47  4.6000000000000E-01  7.4281568016103E-01  1.3289483912467E+00
48  4.7000000000000E-01  6.1878737129363E-01  1.3666952096461E+00
49  4.8000000000000E-01  4.9429960579581E-01  1.4026193818415E+00
50  4.9000000000000E-01  3.7030116172124E-01  1.4365361299550E+00
51  5.0000000000000E-01  2.4770361035556E-01  1.4682617801438E+00
52  5.1000000000000E-01  1.2737298808075E-01  1.4976153488751E+00
53  5.2000000000000E-01  1.0122767940485E-02  1.5244203623215E+00
54  5.3000000000000E-01 -1.0329183277554E-01  1.5485068811459E+00
55  5.4000000000000E-01 -2.1217821407608E-01  1.5697136924349E+00
56  5.5000000000000E-01 -3.1590946846019E-01  1.5878906209826E+00
57  5.6000000000000E-01 -4.1392625015793E-01  1.6029009039284E+00
58  5.7000000000000E-01 -5.0573754996090E-01  1.6146235662728E+00
59  5.8000000000000E-01 -5.9092051251076E-01  1.6229557303277E+00
60  5.9000000000000E-01 -6.6911945158884E-01  1.6278147899493E+00
61  6.0000000000000E-01 -7.4004423039354E-01  1.6291403805892E+00
62  6.1000000000000E-01 -8.0346817771118E-01  1.6268960788633E+00
63  6.2000000000000E-01 -8.5922570728606E-01  1.6210707704394E+00
64  6.3000000000000E-01 -9.0720979688094E-01  1.6116796324757E+00
65  6.4000000000000E-01 -9.4736946608571E-01  1.5987646863920E+00
66  6.5000000000000E-01 -9.7970736874260E-01  1.5823948881301E+00
67  6.6000000000000E-01 -1.0042775880107E+00  1.5626657358996E+00
68  6.7000000000000E-01 -1.0211836908821E+00  1.5396983892837E+00
69  6.8000000000000E-01 -1.0305770658281E+00  1.5136383080200E+00
70  6.9000000000000E-01 -1.0326555337146E+00  1.4846534332726E+00
71  7.0000000000000E-01 -1.0276621897412E+00  1.4529319482682E+00
72  7.1000000000000E-01 -1.0158844044341E+00  1.4186796682583E+00
73  7.2000000000000E-01 -9.9765288608851E-01  1.3821171214320E+00
74  7.3000000000000E-01 -9.7334068676152E-01  1.3434763921872E+00
75  7.4000000000000E-01 -9.4336202002260E-01  1.3029978057183E+00
76  7.5000000000000E-01 -9.0817075196708E-01  1.2609265378815E+00
77  7.6000000000000E-01 -8.6825842798827E-01  1.2175092365703E+00
78  7.7000000000000E-01 -8.2415170667674E-01  1.1729907402416E+00
79  7.8000000000000E-01 -7.7640908881540E-01  1.1276109757976E+00
80  7.9000000000000E-01 -7.2561685329330E-01  1.0816021118247E+00
81  8.0000000000000E-01 -6.7238414206299E-01  1.0351860344454E+00
82  8.1000000000000E-01 -6.1733717192426E-01  9.8857220202554E-01
83  8.2000000000000E-01 -5.6111259057591E-01  9.4195592210867E-01
84  8.3000000000000E-01 -5.0435003647245E-01  8.9551707965470E-01
85  8.4000000000000E-01 -4.4768400483484E-01  8.4941933047646E-01
86  8.5000000000000E-01 -3.9173516388190E-01  8.0380975823844E-01
87  8.6000000000000E-01 -3.3710130413497E-01  7.5881897808695E-01
88  8.7000000000000E-01 -2.8434813770875E-01  7.1456165549061E-01
89  8.8000000000000E-01 -2.3400019215301E-01  6.7113739573979E-01
90  8.9000000000000E-01 -1.8653206314611E-01  6.2863194829298E-01
91  9.0000000000000E-01 -1.4236030088544E-01  5.8711866122083E-01
92  9.1000000000000E-01 -1.0183620538184E-01  5.4666011476285E-01
93  9.2000000000000E-01 -6.5239795374103E-02  5.0730985976657E-01
94  9.3000000000000E-01 -3.2775193918784E-02  4.6911418671721E-01
95  9.4000000000000E-01 -4.5676409279593E-03  4.3211385427393E-01
96  9.5000000000000E-01  1.9337700563577E-02  3.9634571268889E-01
97  9.6000000000000E-01  3.8975031021912E-02  3.6184416706781E-01
98  9.7000000000000E-01  5.4455242790235E-02  3.2864243791805E-01
99  9.8000000000000E-01  6.5961308693290E-02  2.9677359149331E-01
100  9.9000000000000E-01  7.3741824716234E-02  2.6627132969684E-01
101  1.0000000000000E+00  7.8102879776641E-02  2.3717054826126E-01
102  1.0100000000000E+00  7.9398506691755E-02  2.0950769209967E-01
103  1.0200000000000E+00  7.8020049213342E-02  1.8332095753956E-01
104  1.0300000000000E+00  7.4384858400757E-02  1.5865041205609E-01
105  1.0400000000000E+00  6.8924805638585E-02  1.3553812257339E-01
106  1.0500000000000E+00  6.2075167275845E-02  1.1402840284917E-01
107  1.0600000000000E+00  5.4264495402882E-02  9.4168308389363E-02
108  1.0700000000000E+00  4.5906139358487E-02  7.6008523369912E-02
109  1.0800000000000E+00  3.7392124125209E-02  5.9604798373612E-02
110  1.0900000000000E+00  2.9090132299162E-02  4.5020103746647E-02
111  1.1000000000000E+00  2.1333580080451E-02  3.2324807761233E-02
112  1.1100000000000E+00  1.4379010438002E-02  2.1585844887766E-02
113  1.1200000000000E+00  8.5729756155897E-03  1.2912547278246E-02
114  1.1300000000000E+00  4.1865875010816E-03  6.4062534788915E-03
115  1.1400000000000E+00  1.3583432282355E-03  2.1390201386034E-03
116  1.1500000000000E+00  1.0779181757331E-04  1.7733079318326E-04
117  1.1600000000000E+00 -2.7628909314813E-06 -4.6760822893736E-06
118  1.1700000000000E+00 -8.2331913732604E-07 -1.3333275547761E-06
119  1.18 -0. -0.
120  1.19  0.  0.
121  1.20  0.  0.
122  1.21  0.  0.
123  1.22  0.  0.
124  1.23  0.  0.
125  1.24  0.  0.
126  1.25  0.  0.
127  1.26  0.  0.
128  1.27  0.  0.
129  1.28  0.  0.
130  1.29  0.  0.
131  1.30  0.  0.
132  1.31  0.  0.
133  1.32  0.  0.
134  1.33  0.  0.
135  1.34  0.  0.
136  1.35  0.  0.
137  1.36  0.  0.
138  1.37  0.  0.
139  1.38  0.  0.
140  1.39  0.  0.
141  1.40  0.  0.
142  1.41  0.  0.
143  1.42  0.  0.
144  1.43  0.  0.
145  1.44  0.  0.
146  1.45  0.  0.
147  1.46  0.  0.
148  1.47  0.  0.
149  1.48  0.  0.
150  1.49  0.  0.
151  1.50  0.  0.
152  1.51  0.  0.
153  1.52  0.  0.
154  1.53  0.  0.
155  1.54  0.  0.
156  1.55  0.  0.
157  1.56  0.  0.
158  1.57  0.  0.
159  1.58  0.  0.
160  1.59  0.  0.
161  1.60  0.  0.
162  1.61  0.  0.
163  1.62  0.  0.
164  1.63  0.  0.
165  1.64  0.  0.