Md    ONCVPSP-4.0.1  r_core=   1.15366   1.15366   1.15366   1.35588
101.0000     41.0000      230504    zatom,zion,pspd
8      11   3     4   600     0    pspcod,pspxc,lmax,lloc,mmax,r2well
5.99000000  2.70000000  0.00000000    rchrg fchrg qchrg
3     2     2     2     0    nproj
1     1           extension_switch
0                         2.3091215034808E+01 -2.5693239420431E+00  2.3515577808527E+00
1  0.0000000000000E+00 -4.3420026463181E-08 -1.0208465295314E-08 -1.6112935657953E-07
2  1.0000000000000E-02  1.6868628774388E-01  4.0586438610907E-02  6.6691475926532E-02
3  2.0000000000000E-02  3.3604742758152E-01  8.1009027001966E-02  1.3167889812585E-01
4  3.0000000000000E-02  5.0077487124130E-01  1.2110688632210E-01  1.9329964009607E-01
5  4.0000000000000E-02  6.6159289851344E-01  1.6072499908976E-01  2.4997265876169E-01
6  5.0000000000000E-02  8.1727411516764E-01  1.9971693926934E-01  3.0023615282796E-01
7  6.0000000000000E-02  9.6665388444045E-01  2.3794736938429E-01  3.4278158326774E-01
8  7.0000000000000E-02  1.1086433901850E+00  2.7529423964194E-01  3.7648304217186E-01
9  8.0000000000000E-02  1.2422410731960E+00  3.1165063425364E-01  4.0042111732366E-01
10  9.0000000000000E-02  1.3665422334844E+00  3.4692622215122E-01  4.1390059002363E-01
11  1.0000000000000E-01  1.4807466485421E+00  3.8104828267421E-01  4.1646151601000E-01
12  1.1000000000000E-01  1.5841641188454E+00  4.1396229102908E-01  4.0788346611374E-01
13  1.2000000000000E-01  1.6762179148144E+00  4.4563206286674E-01  3.8818293635561E-01
14  1.3000000000000E-01  1.7564461619327E+00  4.7603947164491E-01  3.5760416813666E-01
15  1.4000000000000E-01  1.8245012605140E+00  5.0518376600261E-01  3.1660383967112E-01
16  1.5000000000000E-01  1.8801474915872E+00  5.3308052667390E-01  2.6583029195468E-01
17  1.6000000000000E-01  1.9232570086408E+00  5.5976031305453E-01  2.0609812911983E-01
18  1.7000000000000E-01  1.9538044548598E+00  5.8526705802552E-01  1.3835917773763E-01
19  1.8000000000000E-01  1.9718604756781E+00  6.0965627573120E-01  6.3670897383514E-02
20  1.9000000000000E-01  1.9775844159826E+00  6.3299315049979E-01 -1.6836598114716E-02
21  2.0000000000000E-01  1.9712164995834E+00  6.5535057587888E-01 -1.0199372511958E-01
22  2.1000000000000E-01  1.9530697854700E+00  6.7680721084003E-01 -1.9062365598518E-01
23  2.2000000000000E-01  1.9235221811985E+00  6.9744561569389E-01 -2.8157248373017E-01
24  2.3000000000000E-01  1.8830087692042E+00  7.1735052336384E-01 -3.7373632493509E-01
25  2.4000000000000E-01  1.8320146680130E+00  7.3660729269508E-01 -4.6608449804287E-01
26  2.5000000000000E-01  1.7710686086723E+00  7.5530057981593E-01 -5.5767808271867E-01
27  2.6000000000000E-01  1.7007373589742E+00  7.7351325167261E-01 -6.4768335858781E-01
28  2.7000000000000E-01  1.6216210761783E+00  7.9132555322945E-01 -7.3537983117629E-01
29  2.8000000000000E-01  1.5343496150482E+00  8.0881452699563E-01 -8.2016277128110E-01
30  2.9000000000000E-01  1.4395797643047E+00  8.2605367104619E-01 -9.0154041301472E-01
31  3.0000000000000E-01  1.3379933332306E+00  8.4311281007508E-01 -9.7912616713735E-01
32  3.1000000000000E-01  1.2302959632095E+00  8.6005814374235E-01 -1.0526264020386E+00
33  3.2000000000000E-01  1.1172164983596E+00  8.7695242809372E-01 -1.1218245174766E+00
34  3.3000000000000E-01  9.9950671677632E-01  8.9385523950501E-01 -1.1865621794259E+00
35  3.4000000000000E-01  8.7794120057310E-01  9.1082326671212E-01 -1.2467186927580E+00
36  3.5000000000000E-01  7.5331710988542E-01  9.2791057521351E-01 -1.3021895578791E+00
37  3.6000000000000E-01  6.2645362386091E-01  9.4516878974796E-01 -1.3528652853038E+00
38  3.7000000000000E-01  4.9819082054524E-01  9.6264714462058E-01 -1.3986115274080E+00
39  3.8000000000000E-01  3.6938778722020E-01  9.8039235823244E-01 -1.4392515298290E+00
40  3.9000000000000E-01  2.4091978244863E-01  9.9844829701173E-01 -1.4745518083432E+00
41  4.0000000000000E-01  1.1367430973769E-01  1.0168554047063E+00 -1.5042118241831E+00
42  4.1000000000000E-01 -1.1453991107604E-02  1.0356498852513E+00 -1.5278582666817E+00
43  4.2000000000000E-01 -1.3356967695999E-01  1.0548626406811E+00 -1.5450443630505E+00
44  4.3000000000000E-01 -2.5178404503420E-01  1.0745179792709E+00 -1.5552544281635E+00
45  4.4000000000000E-01 -3.6522381633798E-01  1.0946321227067E+00 -1.5579136502411E+00
46  4.5000000000000E-01 -4.7304083138587E-01  1.1152115540247E+00 -1.5524028895427E+00
47  4.6000000000000E-01 -5.7442257690020E-01  1.1362512597771E+00 -1.5380780548745E+00
48  4.7000000000000E-01 -6.6860331348792E-01  1.1577329298631E+00 -1.5142934249781E+00
49  4.8000000000000E-01 -7.5487553253770E-01  1.1796231862627E+00 -1.4804281062252E+00
50  4.9000000000000E-01 -8.3260143756295E-01  1.2018719171440E+00 -1.4359146712561E+00
51  5.0000000000000E-01 -9.0122412234273E-01  1.2244107952186E+00 -1.3802689109352E+00
52  5.1000000000000E-01 -9.6027810654286E-01  1.2471520586051E+00 -1.3131195586626E+00
53  5.2000000000000E-01 -1.0093988896862E+00  1.2699876287807E+00 -1.2342368146759E+00
54  5.3000000000000E-01 -1.0483311966043E+00  1.2927886335009E+00 -1.1435585099100E+00
55  5.4000000000000E-01 -1.0769356116217E+00  1.3154053930259E+00 -1.0412128041266E+00
56  5.5000000000000E-01 -1.0951933340499E+00  1.3376679158882E+00 -9.2753640961384E-01
57  5.6000000000000E-01 -1.1032088330310E+00  1.3593869361492E+00 -8.0308746655061E-01
58  5.7000000000000E-01 -1.1012102339350E+00  1.3803555080927E+00 -6.6865236445052E-01
59  5.8000000000000E-01 -1.0895473296301E+00  1.4003511571283E+00 -5.2524600008549E-01
60  5.9000000000000E-01 -1.0686871759867E+00  1.4191385679102E+00 -3.7410517903964E-01
61  6.0000000000000E-01 -1.0392072997523E+00  1.4364727729353E+00 -2.1667509793321E-01
62  6.1000000000000E-01 -1.0017866161477E+00  1.4521027877916E+00 -5.4589079275229E-02
63  6.2000000000000E-01 -9.5719422085224E-01  1.4657756233768E+00  1.1035803742213E-01
64  6.3000000000000E-01 -9.0627628421842E-01  1.4772405913736E+00  2.7624222435802E-01
65  6.4000000000000E-01 -8.4994133245690E-01  1.4862538075430E+00  4.4104748892220E-01
66  6.5000000000000E-01 -7.8914424926839E-01  1.4925827884169E+00  6.0270699188356E-01
67  6.6000000000000E-01 -7.2486937034859E-01  1.4960110310496E+00  7.5914691748012E-01
68  6.7000000000000E-01 -6.5811307107836E-01  1.4963424628712E+00  9.0833184703760E-01
69  6.8000000000000E-01 -5.8986626363539E-01  1.4934056494598E+00  1.0483103229750E+00
70  6.9000000000000E-01 -5.2109722323595E-01  1.4870576522340E+00  1.1772592682628E+00
71  7.0000000000000E-01 -4.5273515416454E-01  1.4771874355199E+00  1.2935259482755E+00
72  7.1000000000000E-01 -3.8565488502230E-01  1.4637187329540E+00  1.3956662267024E+00
73  7.2000000000000E-01 -3.2066304997163E-01  1.4466122963957E+00  1.4824779724786E+00
74  7.3000000000000E-01 -2.5848606978024E-01  1.4258674660450E+00  1.5530286169610E+00
75  7.4000000000000E-01 -1.9976019461854E-01  1.4015230177693E+00  1.6066760349516E+00
76  7.5000000000000E-01 -1.4502381153268E-01  1.3736572622299E+00  1.6430821238365E+00
77  7.6000000000000E-01 -9.4712155211628E-02  1.3423873896554E+00  1.6622186754093E+00
78  7.7000000000000E-01 -4.9154493129370E-02  1.3078680734675E+00  1.6643653676754E+00
79  7.8000000000000E-01 -8.5737874737869E-03  1.2702893648324E+00  1.6500999415889E+00
80  7.9000000000000E-01  2.6911231441704E-02  1.2298739280438E+00  1.6202808627318E+00
81  8.0000000000000E-01  5.7281710329430E-02  1.1868736829288E+00  1.5760229930413E+00
82  8.1000000000000E-01  8.2612226591703E-02  1.1415659347716E+00  1.5186670059611E+00
83  8.2000000000000E-01  1.0306249384310E-01  1.0942490841914E+00  1.4497434636079E+00
84  8.3000000000000E-01  1.1886750808992E-01  1.0452380187277E+00  1.3709326312743E+00
85  8.4000000000000E-01  1.3032645973502E-01  9.9485929436089E-01  1.2840212284418E+00
86  8.5000000000000E-01  1.3779076300452E-01  9.4344621875241E-01  1.1908574030416E+00
87  8.6000000000000E-01  1.4165157034315E-01  8.9133394860122E-01  1.0933052647441E+00
88  8.7000000000000E-01  1.4232714455997E-01  8.3885471126140E-01  9.9320032241873E-01
89  8.8000000000000E-01  1.4025045607761E-01  7.8633325580276E-01  8.9230714051011E-01
90  8.9000000000000E-01  1.3585735686413E-01  7.3408263122952E-01  7.9228045985096E-01
91  9.0000000000000E-01  1.2957565704275E-01  6.8240037986752E-01  6.9463092213104E-01
92  9.1000000000000E-01  1.2181539550615E-01  6.3156522228267E-01  6.0069639640309E-01
93  9.2000000000000E-01  1.1296055295488E-01  5.8183429681251E-01  5.1161973364230E-01
94  9.3000000000000E-01  1.0336240556178E-01  5.3344100218973E-01  4.2833357491202E-01
95  9.4000000000000E-01  9.3334660881739E-02  4.8659347610227E-01  3.5155261367762E-01
96  9.5000000000000E-01  8.3150455584597E-02  4.4147372612536E-01  2.8177346675664E-01
97  9.6000000000000E-01  7.3041227936076E-02  3.9823741249096E-01  2.1928204468277E-01
98  9.7000000000000E-01  6.3197407333718E-02  3.5701426476537E-01  1.6416803360416E-01
99  9.8000000000000E-01  5.3770789200796E-02  3.1790909678030E-01  1.1634580981322E-01
100  9.9000000000000E-01  4.4878386399767E-02  2.8100336608904E-01  7.5580806019292E-02
101  1.0000000000000E+00  3.6607468214984E-02  2.4635720573683E-01  4.1520036731238E-02
102  1.0100000000000E+00  2.9021414578681E-02  2.1401183704864E-01  1.3725168135953E-02
103  1.0200000000000E+00  2.2165926271860E-02  1.8399225222600E-01 -8.2938147776781E-03
104  1.0300000000000E+00  1.6075040615141E-02  1.5631003447535E-01 -2.5046636319103E-02
105  1.0400000000000E+00  1.0776305677699E-02  1.3096616074378E-01 -3.7035106652543E-02
106  1.0500000000000E+00  6.2943631450072E-03  1.0795360745170E-01 -4.4732879780012E-02
107  1.0600000000000E+00  2.6520794985837E-03  8.7259552403474E-02 -4.8576028399042E-02
108  1.0700000000000E+00 -1.3175492459328E-04  6.8866935637876E-02 -4.8968302957380E-02
109  1.0800000000000E+00 -2.0492683714987E-03  5.2755109425607E-02 -4.6305401111644E-02
110  1.0900000000000E+00 -3.1161213015462E-03  3.8899276310782E-02 -4.1023024043206E-02
111  1.1000000000000E+00 -3.4003334193164E-03  2.7261290732542E-02 -3.3703116055981E-02
112  1.1100000000000E+00 -3.0872219062919E-03  1.7753966546695E-02 -2.5307319371445E-02
113  1.1200000000000E+00 -2.3559653541348E-03  1.0348601510166E-02 -1.6778578985238E-02
114  1.1300000000000E+00 -1.4310739041540E-03  4.9986032705608E-03 -9.1192914747923E-03
115  1.1400000000000E+00 -5.6845995005302E-04  1.6235245341208E-03 -3.3040839996276E-03
116  1.1500000000000E+00 -5.5136792884416E-05  1.3068959422100E-04 -2.9554738774906E-04
117  1.1600000000000E+00  1.5832715985242E-06 -3.3829648030148E-06  8.1450704139271E-06
118  1.1700000000000E+00  3.9503627172151E-07 -9.9199542968146E-07  2.1714283274967E-06
119  1.18 -0. -0. -0.
120  1.19  0.  0.  0.
121  1.20  0.  0.  0.
122  1.21  0.  0.  0.
123  1.22  0.  0.  0.
124  1.23  0.  0.  0.
125  1.24  0.  0.  0.
126  1.25  0.  0.  0.
127  1.26  0.  0.  0.
128  1.27  0.  0.  0.
129  1.28  0.  0.  0.
130  1.29  0.  0.  0.
131  1.30  0.  0.  0.
132  1.31  0.  0.  0.
133  1.32  0.  0.  0.
134  1.33  0.  0.  0.
135  1.34  0.  0.  0.
136  1.35  0.  0.  0.
137  1.36  0.  0.  0.
138  1.37  0.  0.  0.
139  1.38  0.  0.  0.
140  1.39  0.  0.  0.
141  1.40  0.  0.  0.
142  1.41  0.  0.  0.
143  1.42  0.  0.  0.
144  1.43  0.  0.  0.
145  1.44  0.  0.  0.
146  1.45  0.  0.  0.
147  1.46  0.  0.  0.
148  1.47  0.  0.  0.
149  1.48  0.  0.  0.
150  1.49  0.  0.  0.
151  1.50  0.  0.  0.
152  1.51  0.  0.  0.
153  1.52  0.  0.  0.
154  1.53  0.  0.  0.
155  1.54  0.  0.  0.
156  1.55  0.  0.  0.
157  1.56  0.  0.  0.
158  1.57  0.  0.  0.
159  1.58  0.  0.  0.
160  1.59  0.  0.  0.
161  1.60  0.  0.  0.
162  1.61  0.  0.  0.
163  1.62  0.  0.  0.
164  1.63  0.  0.  0.
165  1.64  0.  0.  0.
166  1.65  0.  0.  0.
167  1.66  0.  0.  0.
168  1.67  0.  0.  0.
169  1.68  0.  0.  0.
170  1.69  0.  0.  0.
171  1.70  0.  0.  0.
172  1.71  0.  0.  0.
173  1.72  0.  0.  0.
174  1.73  0.  0.  0.
175  1.74  0.  0.  0.
176  1.75  0.  0.  0.
177  1.76  0.  0.  0.
178  1.77  0.  0.  0.
179  1.78  0.  0.  0.
180  1.79  0.  0.  0.
181  1.80  0.  0.  0.
182  1.81  0.  0.  0.
183  1.82  0.  0.  0.
184  1.83  0.  0.  0.
185  1.84  0.  0.  0.
186  1.85  0.  0.  0.
187  1.86  0.  0.  0.
188  1.87  0.  0.  0.
189  1.88  0.  0.  0.
190  1.89  0.  0.  0.
191  1.90  0.  0.  0.
192  1.91  0.  0.  0.
193  1.92  0.  0.  0.
194  1.93  0.  0.  0.
195  1.94  0.  0.  0.
196  1.95  0.  0.  0.
197  1.96  0.  0.  0.
198  1.97  0.  0.  0.
199  1.98  0.  0.  0.
200  1.99  0.  0.  0.
201  2.00  0.  0.  0.
202  2.01  0.  0.  0.
203  2.02  0.  0.  0.
204  2.03  0.  0.  0.
205  2.04  0.  0.  0.
206  2.05  0.  0.  0.
207  2.06  0.  0.  0.
208  2.07  0.  0.  0.
209  2.08  0.  0.  0.
210  2.09  0.  0.  0.
211  2.10  0.  0.  0.
212  2.11  0.  0.  0.
213  2.12  0.  0.  0.
214  2.13  0.  0.  0.
215  2.14  0.  0.  0.
216  2.15  0.  0.  0.
217  2.16  0.  0.  0.
218  2.17  0.  0.  0.
219  2.18  0.  0.  0.
220  2.19  0.  0.  0.
221  2.20  0.  0.  0.
222  2.21  0.  0.  0.
223  2.22  0.  0.  0.
224  2.23  0.  0.  0.
225  2.24  0.  0.  0.
226  2.25  0.  0.  0.
227  2.26  0.  0.  0.
228  2.27  0.  0.  0.
229  2.28  0.  0.  0.
230  2.29  0.  0.  0.
231  2.30  0.  0.  0.
232  2.31  0.  0.  0.
233  2.32  0.  0.  0.
234  2.33  0.  0.  0.
235  2.34  0.  0.  0.
236  2.35  0.  0.  0.
237  2.36  0.  0.  0.
238  2.37  0.  0.  0.
239  2.38  0.  0.  0.
240  2.39  0.  0.  0.
241  2.40  0.  0.  0.
242  2.41  0.  0.  0.
243  2.42  0.  0.  0.
244  2.43  0.  0.  0.
245  2.44  0.  0.  0.
246  2.45  0.  0.  0.
247  2.46  0.  0.  0.
248  2.47  0.  0.  0.
249  2.48  0.  0.  0.
250  2.49  0.  0.  0.
251  2.50  0.  0.  0.
252  2.51  0.  0.  0.
253  2.52  0.  0.  0.
254  2.53  0.  0.  0.
255  2.54  0.  0.  0.
256  2.55  0.  0.  0.
257  2.56  0.  0.  0.
258  2.57  0.  0.  0.
259  2.58  0.  0.  0.
260  2.59  0.  0.  0.
261  2.60  0.  0.  0.
262  2.61  0.  0.  0.
263  2.62  0.  0.  0.
264  2.63  0.  0.  0.
265  2.64  0.  0.  0.
266  2.65  0.  0.  0.
267  2.66  0.  0.  0.
268  2.67  0.  0.  0.
269  2.68  0.  0.  0.
270  2.69  0.  0.  0.
271  2.70  0.  0.  0.
272  2.71  0.  0.  0.
273  2.72  0.  0.  0.
274  2.73  0.  0.  0.
275  2.74  0.  0.  0.
276  2.75  0.  0.  0.
277  2.76  0.  0.  0.
278  2.77  0.  0.  0.
279  2.78  0.  0.  0.
280  2.79  0.  0.  0.
281  2.80  0.  0.  0.
282  2.81  0.  0.  0.
283  2.82  0.  0.  0.
284  2.83  0.  0.  0.
285  2.84  0.  0.  0.
286  2.85  0.  0.  0.
287  2.86  0.  0.  0.
288  2.87  0.  0.  0.
289  2.88  0.  0.  0.
290  2.89  0.  0.  0.
291  2.90  0.  0.  0.
292  2.91  0.  0.  0.
293  2.92  0.  0.  0.
294  2.93  0.  0.  0.
295  2.94  0.  0.  0.
296  2.95  0.  0.  0.
297  2.96  0.  0.  0.
298  2.97  0.  0.  0.
299  2.98  0.  0.  0.
300  2.99  0.  0.  0.
301  3.00  0.  0.  0.
302  3.01  0.  0.  0.
303  3.02  0.  0.  0.
304  3.03  0.  0.  0.
305  3.04  0.  0.  0.
306  3.05  0.  0.  0.
307  3.06  0.  0.  0.
308  3.07  0.  0.  0.
309  3.08  0.  0.  0.
310  3.09  0.  0.  0.
311  3.10  0.  0.  0.
312  3.11  0.  0.  0.
313  3.12  0.  0.  0.
314  3.13  0.  0.  0.
315  3.14  0.  0.  0.
316  3.15  0.  0.  0.
317  3.16  0.  0.  0.
318  3.17  0.  0.  0.
319  3.18  0.  0.  0.
320  3.19  0.  0.  0.
321  3.20  0.  0.  0.
322  3.21  0.  0.  0.
323  3.22  0.  0.  0.
324  3.23  0.  0.  0.
325  3.24  0.  0.  0.
326  3.25  0.  0.  0.
327  3.26  0.  0.  0.
328  3.27  0.  0.  0.
329  3.28  0.  0.  0.
330  3.29  0.  0.  0.
331  3.30  0.  0.  0.
332  3.31  0.  0.  0.
333  3.32  0.  0.  0.
334  3.33  0.  0.  0.
335  3.34  0.  0.  0.
336  3.35  0.  0.  0.
337  3.36  0.  0.  0.
338  3.37  0.  0.  0.
339  3.38  0.  0.  0.
340  3.39  0.  0.  0.
341  3.40  0.  0.  0.
342  3.41  0.  0.  0.
343  3.42  0.  0.  0.
344  3.43  0.  0.  0.
345  3.44  0.  0.  0.
346  3.45  0.  0.  0.
347  3.46  0.  0.  0.
348  3.47  0.  0.  0.
349  3.48  0.  0.  0.
350  3.49  0.  0.  0.
351  3.50  0.  0.  0.
352  3.51  0.  0.  0.
353  3.52  0.  0.  0.
354  3.53  0.  0.  0.
355  3.54  0.  0.  0.
356  3.55  0.  0.  0.
357  3.56  0.  0.  0.
358  3.57  0.  0.  0.
359  3.58  0.  0.  0.
360  3.59  0.  0.  0.
361  3.60  0.  0.  0.
362  3.61  0.  0.  0.
363  3.62  0.  0.  0.
364  3.63  0.  0.  0.
365  3.64  0.  0.  0.
366  3.65  0.  0.  0.
367  3.66  0.  0.  0.
368  3.67  0.  0.  0.
369  3.68  0.  0.  0.
370  3.69  0.  0.  0.
371  3.70  0.  0.  0.
372  3.71  0.  0.  0.
373  3.72  0.  0.  0.
374  3.73  0.  0.  0.
375  3.74  0.  0.  0.
376  3.75  0.  0.  0.
377  3.76  0.  0.  0.
378  3.77  0.  0.  0.
379  3.78  0.  0.  0.
380  3.79  0.  0.  0.
381  3.80  0.  0.  0.
382  3.81  0.  0.  0.
383  3.82  0.  0.  0.
384  3.83  0.  0.  0.
385  3.84  0.  0.  0.
386  3.85  0.  0.  0.
387  3.86  0.  0.  0.
388  3.87  0.  0.  0.
389  3.88  0.  0.  0.
390  3.89  0.  0.  0.
391  3.90  0.  0.  0.
392  3.91  0.  0.  0.
393  3.92  0.  0.  0.
394  3.93  0.  0.  0.
395  3.94  0.  0.  0.
396  3.95  0.  0.  0.
397  3.96  0.  0.  0.
398  3.97  0.  0.  0.
399  3.98  0.  0.  0.
400  3.99  0.  0.  0.
401  4.00  0.  0.  0.
402  4.01  0.  0.  0.
403  4.02  0.  0.  0.
404  4.03  0.  0.  0.
405  4.04  0.  0.  0.
406  4.05  0.  0.  0.
407  4.06  0.  0.  0.
408  4.07  0.  0.  0.
409  4.08  0.  0.  0.
410  4.09  0.  0.  0.
411  4.10  0.  0.  0.
412  4.11  0.  0.  0.
413  4.12  0.  0.  0.
414  4.13  0.  0.  0.
415  4.14  0.  0.  0.
416  4.15  0.  0.  0.
417  4.16  0.  0.  0.
418  4.17  0.  0.  0.
419  4.18  0.  0.  0.
420  4.19  0.  0.  0.
421  4.20  0.  0.  0.
422  4.21  0.  0.  0.
423  4.22  0.  0.  0.
424  4.23  0.  0.  0.
425  4.24  0.  0.  0.
426  4.25  0.  0.  0.
427  4.26  0.  0.  0.
428  4.27  0.  0.  0.
429  4.28  0.  0.  0.
430  4.29  0.  0.  0.
431  4.30  0.  0.  0.
432  4.31  0.  0.  0.
433  4.32  0.  0.  0.
434  4.33  0.  0.  0.
435  4.34  0.  0.  0.
436  4.35  0.  0.  0.
437  4.36  0.  0.  0.
438  4.37  0.  0.  0.
439  4.38  0.  0.  0.
440  4.39  0.  0.  0.
441  4.40  0.  0.  0.
442  4.41  0.  0.  0.
443  4.42  0.  0.  0.
444  4.43  0.  0.  0.
445  4.44  0.  0.  0.
446  4.45  0.  0.  0.
447  4.46  0.  0.  0.
448  4.47  0.  0.  0.
449  4.48  0.  0.  0.
450  4.49  0.  0.  0.
451  4.50  0.  0.  0.
452  4.51  0.  0.  0.
453  4.52  0.  0.  0.
454  4.53  0.  0.  0.
455  4.54  0.  0.  0.
456  4.55  0.  0.  0.
457  4.56  0.  0.  0.
458  4.57  0.  0.  0.
459  4.58  0.  0.  0.
460  4.59  0.  0.  0.
461  4.60  0.  0.  0.
462  4.61  0.  0.  0.
463  4.62  0.  0.  0.
464  4.63  0.  0.  0.
465  4.64  0.  0.  0.
466  4.65  0.  0.  0.
467  4.66  0.  0.  0.
468  4.67  0.  0.  0.
469  4.68  0.  0.  0.
470  4.69  0.  0.  0.
471  4.70  0.  0.  0.
472  4.71  0.  0.  0.
473  4.72  0.  0.  0.
474  4.73  0.  0.  0.
475  4.74  0.  0.  0.
476  4.75  0.  0.  0.
477  4.76  0.  0.  0.
478  4.77  0.  0.  0.
479  4.78  0.  0.  0.
480  4.79  0.  0.  0.
481  4.80  0.  0.  0.
482  4.81  0.  0.  0.
483  4.82  0.  0.  0.
484  4.83  0.  0.  0.
485  4.84  0.  0.  0.
486  4.85  0.  0.  0.
487  4.86  0.  0.  0.
488  4.87  0.  0.  0.
489  4.88  0.  0.  0.
490  4.89  0.  0.  0.
491  4.90  0.  0.  0.
492  4.91  0.  0.  0.
493  4.92  0.  0.  0.
494  4.93  0.  0.  0.
495  4.94  0.  0.  0.
496  4.95  0.  0.  0.
497  4.96  0.  0.  0.
498  4.97  0.  0.  0.
499  4.98  0.  0.  0.
500  4.99  0.  0.  0.
501  5.00  0.  0.  0.
502  5.01  0.  0.  0.
503  5.02  0.  0.  0.
504  5.03  0.  0.  0.
505  5.04  0.  0.  0.
506  5.05  0.  0.  0.
507  5.06  0.  0.  0.
508  5.07  0.  0.  0.
509  5.08  0.  0.  0.
510  5.09  0.  0.  0.
511  5.10  0.  0.  0.
512  5.11  0.  0.  0.
513  5.12  0.  0.  0.
514  5.13  0.  0.  0.
515  5.14  0.  0.  0.
516  5.15  0.  0.  0.
517  5.16  0.  0.  0.
518  5.17  0.  0.  0.
519  5.18  0.  0.  0.
520  5.19  0.  0.  0.
521  5.20  0.  0.  0.
522  5.21  0.  0.  0.
523  5.22  0.  0.  0.
524  5.23  0.  0.  0.
525  5.24  0.  0.  0.
526  5.25  0.  0.  0.
527  5.26  0.  0.  0.
528  5.27  0.  0.  0.
529  5.28  0.  0.  0.
530  5.29  0.  0.  0.
531  5.30  0.  0.  0.
532  5.31  0.  0.  0.
533  5.32  0.  0.  0.
534  5.33  0.  0.  0.
535  5.34  0.  0.  0.
536  5.35  0.  0.  0.
537  5.36  0.  0.  0.
538  5.37  0.  0.  0.
539  5.38  0.  0.  0.
540  5.39  0.  0.  0.
541  5.40  0.  0.  0.
542  5.41  0.  0.  0.
543  5.42  0.  0.  0.
544  5.43  0.  0.  0.
545  5.44  0.  0.  0.
546  5.45  0.  0.  0.
547  5.46  0.  0.  0.
548  5.47  0.  0.  0.
549  5.48  0.  0.  0.
550  5.49  0.  0.  0.
551  5.50  0.  0.  0.
552  5.51  0.  0.  0.
553  5.52  0.  0.  0.
554  5.53  0.  0.  0.
555  5.54  0.  0.  0.
556  5.55  0.  0.  0.
557  5.56  0.  0.  0.
558  5.57  0.  0.  0.
559  5.58  0.  0.  0.
560  5.59  0.  0.  0.
561  5.60  0.  0.  0.
562  5.61  0.  0.  0.
563  5.62  0.  0.  0.
564  5.63  0.  0.  0.
565  5.64  0.  0.  0.
566  5.65  0.  0.  0.
567  5.66  0.  0.  0.
568  5.67  0.  0.  0.
569  5.68  0.  0.  0.
570  5.69  0.  0.  0.
571  5.70  0.  0.  0.
572  5.71  0.  0.  0.
573  5.72  0.  0.  0.
574  5.73  0.  0.  0.
575  5.74  0.  0.  0.
576  5.75  0.  0.  0.
577  5.76  0.  0.  0.
578  5.77  0.  0.  0.
579  5.78  0.  0.  0.
580  5.79  0.  0.  0.
581  5.80  0.  0.  0.
582  5.81  0.  0.  0.
583  5.82  0.  0.  0.
584  5.83  0.  0.  0.
585  5.84  0.  0.  0.
586  5.85  0.  0.  0.
587  5.86  0.  0.  0.
588  5.87  0.  0.  0.
589  5.88  0.  0.  0.
590  5.89  0.  0.  0.
591  5.90  0.  0.  0.
592  5.91  0.  0.  0.
593  5.92  0.  0.  0.
594  5.93  0.  0.  0.
595  5.94  0.  0.  0.
596  5.95  0.  0.  0.
597  5.96  0.  0.  0.
598  5.97  0.  0.  0.
599  5.98  0.  0.  0.
600  5.99  0.  0.  0.
1                         6.9763429588954E+00 -2.4541963509107E+00
1  0.0000000000000E+00 -1.1398516408523E-08 -8.0505183144841E-09
2  1.0000000000000E-02  4.8250866940762E-03  4.9265372085481E-04
3  2.0000000000000E-02  1.9257392088911E-02  1.9767982114604E-03
4  3.0000000000000E-02  4.3168197427486E-02  4.4708009387773E-03
5  4.0000000000000E-02  7.6343465464453E-02  8.0046713967257E-03
6  5.0000000000000E-02  1.1848461479963E-01  1.2619175533238E-02
7  6.0000000000000E-02  1.6920966870593E-01  1.8364632996229E-02
8  7.0000000000000E-02  2.2805483895599E-01  2.5299432732788E-02
9  8.0000000000000E-02  2.9447661655032E-01  3.3488310526434E-02
10  9.0000000000000E-02  3.6785444856110E-01  4.3000438634788E-02
11  1.0000000000000E-01  4.4749408297322E-01  5.3907382577686E-02
12  1.1000000000000E-01  5.3263166105920E-01  6.6280983166762E-02
13  1.2000000000000E-01  6.2243862930709E-01  8.0191222970723E-02
14  1.3000000000000E-01  7.1602753028561E-01  9.5704135553884E-02
15  1.4000000000000E-01  8.1245871434920E-01  1.1287981305617E-01
16  1.5000000000000E-01  9.1074799223935E-01  1.3177056311638E-01
17  1.6000000000000E-01  1.0098752231028E+00  1.5241925995599E-01
18  1.7000000000000E-01  1.1087938040681E+00  1.7485792687482E-01
19  1.8000000000000E-01  1.2064409972880E+00  1.9910657874708E-01
20  1.9000000000000E-01  1.3017489993629E+00  2.2517234367121E-01
21  2.0000000000000E-01  1.3936566274714E+00  2.5304887306857E-01
22  2.1000000000000E-01  1.4811214675305E+00  2.8271603960962E-01
23  2.2000000000000E-01  1.5631323034656E+00  3.1413991273520E-01
24  2.3000000000000E-01  1.6387216242792E+00  3.4727299258802E-01
25  2.4000000000000E-01  1.7069779880702E+00  3.8205467520006E-01
26  2.5000000000000E-01  1.7670580103178E+00  4.1841191508477E-01
27  2.6000000000000E-01  1.8181977382719E+00  4.5626004619652E-01
28  2.7000000000000E-01  1.8597231746476E+00  4.9550371872690E-01
29  2.8000000000000E-01  1.8910597222241E+00  5.3603790752403E-01
30  2.9000000000000E-01  1.9117403363975E+00  5.7774894809471E-01
31  3.0000000000000E-01  1.9214121949479E+00  6.2051555815688E-01
32  3.1000000000000E-01  1.9198417227682E+00  6.6420980645594E-01
33  3.2000000000000E-01  1.9069178433090E+00  7.0869799588043E-01
34  3.3000000000000E-01  1.8826533670913E+00  7.5384143458736E-01
35  3.4000000000000E-01  1.8471844696924E+00  7.9949707659478E-01
36  3.5000000000000E-01  1.8007682558624E+00  8.4551802179889E-01
37  3.6000000000000E-01  1.7437784515177E+00  8.9175387427058E-01
38  3.7000000000000E-01  1.6766993098677E+00  9.3805096660967E-01
39  3.8000000000000E-01  1.6001178604485E+00  9.8425246670887E-01
40  3.9000000000000E-01  1.5147146690018E+00  1.0301983911360E+00
41  4.0000000000000E-01  1.4212533106660E+00  1.0757255561421E+00
42  4.1000000000000E-01  1.3205687877384E+00  1.1206675027384E+00
43  4.2000000000000E-01  1.2135551453575E+00  1.1648544361084E+00
44  4.3000000000000E-01  1.1011525531510E+00  1.2081132216291E+00
45  4.4000000000000E-01  9.8433412771735E-01  1.2502674798571E+00
46  4.5000000000000E-01  8.6409276955790E-01  1.2911378209314E+00
47  4.6000000000000E-01  7.4142827884696E-01  1.3305422549866E+00
48  4.7000000000000E-01  6.1733499755938E-01  1.3682968094695E+00
49  4.8000000000000E-01  4.9279020160973E-01  1.4042163768853E+00
50  4.9000000000000E-01  3.6874343665824E-01  1.4381158077233E+00
51  5.0000000000000E-01  2.4610695619871E-01  1.4698112534376E+00
52  5.1000000000000E-01  1.2574738172745E-01  1.4991217537506E+00
53  5.2000000000000E-01  8.4786636018559E-03  1.5258710516072E+00
54  5.3000000000000E-01 -1.0494362089030E-01  1.5498896082596E+00
55  5.4000000000000E-01 -2.1382663720283E-01  1.5710167806345E+00
56  5.5000000000000E-01 -3.1754337528011E-01  1.5891031137529E+00
57  5.6000000000000E-01 -4.1553452361735E-01  1.6040126929216E+00
58  5.7000000000000E-01 -5.0730924702647E-01  1.6156254940641E+00
59  5.8000000000000E-01 -5.9244500485275E-01  1.6238396661839E+00
60  5.9000000000000E-01 -6.7058656509052E-01  1.6285736778044E+00
61  6.0000000000000E-01 -7.4144438132014E-01  1.6297682594393E+00
62  6.1000000000000E-01 -8.0479250334226E-01  1.6273880767952E+00
63  6.2000000000000E-01 -8.6046618882075E-01  1.6214230744523E+00
64  6.3000000000000E-01 -9.0835937247009E-01  1.6118894371145E+00
65  6.4000000000000E-01 -9.4842213192793E-01  1.5988301249365E+00
66  6.5000000000000E-01 -9.8065826630390E-01  1.5823149506660E+00
67  6.6000000000000E-01 -1.0051230755886E+00  1.5624401789950E+00
68  6.7000000000000E-01 -1.0219213979340E+00  1.5393276422032E+00
69  6.8000000000000E-01 -1.0312059287170E+00  1.5131233804116E+00
70  6.9000000000000E-01 -1.0331758117928E+00  1.4839958290653E+00
71  7.0000000000000E-01 -1.0280754609854E+00  1.4521335901182E+00
72  7.1000000000000E-01 -1.0161935401664E+00  1.4177428363040E+00
73  7.2000000000000E-01 -9.9786200465442E-01  1.3810444093722E+00
74  7.3000000000000E-01 -9.7345508638984E-01  1.3422706828236E+00
75  7.4000000000000E-01 -9.4338809145449E-01  1.3016622671239E+00
76  7.5000000000000E-01 -9.0811587180436E-01  1.2594646403210E+00
77  7.6000000000000E-01 -8.6813083407578E-01  1.2159247892343E+00
78  7.7000000000000E-01 -8.2396035718783E-01  1.1712879458209E+00
79  7.8000000000000E-01 -7.7616350705298E-01  1.1257944999447E+00
80  7.9000000000000E-01 -7.2532696054434E-01  1.0796771636776E+00
81  8.0000000000000E-01 -6.7206008114913E-01  1.0331584536531E+00
82  8.1000000000000E-01 -6.1698912437061E-01  9.8644854715354E-01
83  8.2000000000000E-01 -5.6075059057140E-01  9.3974355493435E-01
84  8.3000000000000E-01 -5.0398378501510E-01  8.9322423971279E-01
85  8.4000000000000E-01 -4.4732268764081E-01  8.4705519428716E-01
86  8.5000000000000E-01 -3.9138727678625E-01  8.0138447795205E-01
87  8.6000000000000E-01 -3.3677448982002E-01  7.5634369479840E-01
88  8.7000000000000E-01 -2.8404903766008E-01  7.1204848320247E-01
89  8.8000000000000E-01 -2.3373431775820E-01  6.6859937285768E-01
90  8.9000000000000E-01 -1.8630368981010E-01  6.2608295459350E-01
91  9.0000000000000E-01 -1.4217238893152E-01  5.8457329940243E-01
92  9.1000000000000E-01 -1.0169035132683E-01  5.4413355693311E-01
93  9.2000000000000E-01 -6.5136216896612E-02  5.0481766049162E-01
94  9.3000000000000E-01 -3.2712751462654E-02  4.6667206551466E-01
95  9.4000000000000E-01 -4.5438983768634E-03  4.2973745162525E-01
96  9.5000000000000E-01  1.9326374366223E-02  3.9405032473837E-01
97  9.6000000000000E-01  3.8933318984327E-02  3.5964446512490E-01
98  9.7000000000000E-01  5.4388694668318E-02  3.2655217965553E-01
99  9.8000000000000E-01  6.5876116073679E-02  2.9480533131232E-01
100  9.9000000000000E-01  7.3644559060619E-02  2.6443613609348E-01
101  1.0000000000000E+00  7.8000198756484E-02  2.3547773617496E-01
102  1.0100000000000E+00  7.9296836547316E-02  2.0796457815494E-01
103  1.0200000000000E+00  7.7925253901503E-02  1.8193264582722E-01
104  1.0300000000000E+00  7.4301909935916E-02  1.5741961766633E-01
105  1.0400000000000E+00  6.8857474373371E-02  1.3446503953138E-01
106  1.0500000000000E+00  6.2025756015600E-02  1.1311062246516E-01
107  1.0600000000000E+00  5.4233647309371E-02  9.3400793381762E-02
108  1.0700000000000E+00  4.5892756696382E-02  7.5383642522843E-02
109  1.0800000000000E+00  3.7393443170695E-02  5.9112426019083E-02
110  1.0900000000000E+00  2.9102009015403E-02  4.4647788076694E-02
111  1.1000000000000E+00  2.1351038443857E-02  3.2058059947589E-02
112  1.1100000000000E+00  1.4397004419073E-02  2.1408722883517E-02
113  1.1200000000000E+00  8.5876284764022E-03  1.2807554742098E-02
114  1.1300000000000E+00  4.1958295006150E-03  6.3548159915138E-03
115  1.1400000000000E+00  1.3621000082526E-03  2.1221209838347E-03
116  1.1500000000000E+00  1.0816070589794E-04  1.7595802040791E-04
117  1.1600000000000E+00 -2.7736550618360E-06 -4.6403699964000E-06
118  1.1700000000000E+00 -8.2597987965669E-07 -1.3229398823461E-06
119  1.18 -0. -0.
120  1.19  0.  0.
121  1.20  0.  0.
122  1.21  0.  0.
123  1.22  0.  0.
124  1.23  0.  0.
125  1.24  0.  0.
126  1.25  0.  0.
127  1.26  0.  0.
128  1.27  0.  0.
129  1.28  0.  0.
130  1.29  0.  0.
131  1.30  0.  0.
132  1.31  0.  0.
133  1.32  0.  0.
134  1.33  0.  0.
135  1.34  0.  0.
136  1.35  0.  0.
137  1.36  0.  0.
138  1.37  0.  0.
139  1.38  0.  0.
140  1.39  0.  0.
141  1.40  0.  0.
142  1.41  0.  0.
143  1.42  0.  0.
144  1.43  0.  0.
145  1.44  0.  0.
146  1.45  0.  0.
147  1.46  0.  0.
148  1.47  0.  0.
149  1.48  0.  0.
150  1.49  0.  0.
151  1.50  0.  0.
152  1.51  0.  0.
153  1.52  0.  0.
154  1.53  0.  0.
155  1.54  0.  0.
156  1.55  0.  0.
157  1.56  0.  0.
158  1.57  0.  0.
159  1.58  0.  0.
160  1.59  0.  0.
161  1.60  0.  0.
162  1.61  0.  0.
163  1.62  0.  0.
164  1.63  0.  0.
165  1.64  0.  0.