Md    ONCVPSP-4.0.1  r_core=   1.15366   1.15366   1.33177   1.35588
101.0000     41.0000      220307    zatom,zion,pspd
8      11   3     4   600     0    pspcod,pspxc,lmax,lloc,mmax,r2well
5.99000000  5.00000000  0.00000000    rchrg fchrg qchrg
3     2     2     2     0    nproj
1     1           extension_switch
0                         2.5055245973561E+01 -2.6585784513038E+00  2.4208584534596E+00
1  0.0000000000000E+00 -2.7795247881102E-08 -6.3982585341016E-09  1.0465715316599E-07
2  1.0000000000000E-02  1.7319204123757E-01  4.0267489245278E-02 -6.7343951510127E-02
3  2.0000000000000E-02  3.4504864632852E-01  8.0371418883756E-02 -1.3313879079826E-01
4  3.0000000000000E-02  5.1424899456638E-01  1.2015079313074E-01 -1.9586742792570E-01
5  4.0000000000000E-02  6.7950123071120E-01  1.5944968678418E-01 -2.5407594983928E-01
6  5.0000000000000E-02  8.3955629179013E-01  1.9811963962012E-01 -3.0640306829111E-01
7  6.0000000000000E-02  9.9322096779629E-01  2.3602188657039E-01 -3.5160707840558E-01
8  7.0000000000000E-02  1.1393699751569E+00  2.7302937684709E-01 -3.8858962718553E-01
9  8.0000000000000E-02  1.2769568496367E+00  3.0902854157647E-01 -4.1641569590656E-01
10  9.0000000000000E-02  1.4050234982154E+00  3.4392077704950E-01 -4.3432932395399E-01
11  1.0000000000000E-01  1.5227082862809E+00  3.7762361911140E-01 -4.4176473979634E-01
12  1.1000000000000E-01  1.6292525759443E+00  4.1007159319143E-01 -4.3835271253143E-01
13  1.2000000000000E-01  1.7240056720358E+00  4.4121673369168E-01 -4.2392208953752E-01
14  1.3000000000000E-01  1.8064281730042E+00  4.7102877557891E-01 -3.9849663681486E-01
15  1.4000000000000E-01  1.8760937631313E+00  4.9949502973251E-01 -3.6228744329189E-01
16  1.5000000000000E-01  1.9326895188804E+00  5.2661996158868E-01 -3.1568128361450E-01
17  1.6000000000000E-01  1.9760148346404E+00  5.5242449961296E-01 -2.5922545111599E-01
18  1.7000000000000E-01  2.0059791005722E+00  5.7694510589903E-01 -1.9360966976116E-01
19  1.8000000000000E-01  2.0225982868733E+00  6.0023264554730E-01 -1.1964576760505E-01
20  1.9000000000000E-01  2.0259906039636E+00  6.2235109430292E-01 -3.8245842340013E-02
21  2.0000000000000E-01  2.0163714164853E+00  6.4337612516285E-01  4.9600329615100E-02
22  2.1000000000000E-01  1.9940475905290E+00  6.6339361430396E-01  1.4284789568966E-01
23  2.2000000000000E-01  1.9594114483053E+00  6.8249810480107E-01  2.4041883020377E-01
24  2.3000000000000E-01  1.9129344930086E+00  7.0079126332827E-01  3.4122248558893E-01
25  2.4000000000000E-01  1.8551610495312E+00  7.1838036054912E-01  4.4417422117444E-01
26  2.5000000000000E-01  1.7867019448573E+00  7.3537680043744E-01  5.4821163996730E-01
27  2.6000000000000E-01  1.7082283264447E+00  7.5189471759889E-01  6.5230808018201E-01
28  2.7000000000000E-01  1.6204656888873E+00  7.6804965508517E-01  7.5548313521959E-01
29  2.8000000000000E-01  1.5241881498981E+00  7.8395732852058E-01  8.5681010834759E-01
30  2.9000000000000E-01  1.4202129874969E+00  7.9973247591167E-01  9.5542044126487E-01
31  3.0000000000000E-01  1.3093954225032E+00  8.1548778658973E-01  1.0505052838640E+00
32  3.1000000000000E-01  1.1926236052819E+00  8.3133289762627E-01  1.1413144908206E+00
33  3.2000000000000E-01  1.0708137442635E+00  8.4737344200775E-01  1.2271534345669E+00
34  3.3000000000000E-01  9.4490529704146E-01  8.6371013005957E-01  1.3073781097166E+00
35  3.4000000000000E-01  8.1585613359145E-01  8.8043784421533E-01  1.3813890678034E+00
36  3.5000000000000E-01  6.8463757590015E-01  8.9764472731910E-01  1.4486247608430E+00
37  3.6000000000000E-01  5.5222921932072E-01  9.1541124624473E-01  1.5085548862149E+00
38  3.7000000000000E-01  4.1961344831251E-01  9.3380921566651E-01  1.5606743132033E+00
39  3.8000000000000E-01  2.8776957263084E-01  9.5290077120580E-01  1.6044981337453E+00
40  3.9000000000000E-01  1.5766752900746E-01  9.7273728672837E-01  1.6395583180628E+00
41  4.0000000000000E-01  3.0261117167638E-02  9.9335823704533E-01  1.6654023723446E+00
42  4.1000000000000E-01 -9.3519233290890E-02  1.0147900143938E+00  1.6815942938631E+00
43  4.2000000000000E-01 -2.1277413820517E-01  1.0370447145241E+00  1.6877180028861E+00
44  4.3000000000000E-01 -3.2664331748024E-01  1.0601189156577E+00  1.6833833051284E+00
45  4.4000000000000E-01 -4.3431394614504E-01  1.0839924806483E+00  1.6682343082992E+00
46  4.5000000000000E-01 -5.3502917613790E-01  1.1086274190349E+00  1.6419600868010E+00
47  4.6000000000000E-01 -6.2809667895075E-01  1.1339668509791E+00  1.6043072650391E+00
48  4.7000000000000E-01 -7.1289703499198E-01  1.1599341190408E+00  1.5550940772075E+00
49  4.8000000000000E-01 -7.8889177632931E-01  1.1864320961055E+00  1.4942253644517E+00
50  4.9000000000000E-01 -8.5563087634754E-01  1.2133427383293E+00  1.4217078931228E+00
51  5.0000000000000E-01 -9.1275947358264E-01  1.2405269305937E+00  1.3376653237721E+00
52  5.1000000000000E-01 -9.6002361811825E-01  1.2678246685807E+00  1.2423521321447E+00
53  5.2000000000000E-01 -9.9727483772561E-01  1.2950556162148E+00  1.1361657822757E+00
54  5.3000000000000E-01 -1.0244733373849E+00  1.3220200699604E+00  1.0196564784159E+00
55  5.4000000000000E-01 -1.0416896696530E+00  1.3485003524719E+00  8.9353387643919E-01
56  5.5000000000000E-01 -1.0491047439682E+00  1.3742626476074E+00  7.5867021506665E-01
57  5.6000000000000E-01 -1.0470080795748E+00  1.3990592771443E+00  6.1609943018774E-01
58  5.7000000000000E-01 -1.0357942482465E+00  1.4226314070131E+00  4.6701193836321E-01
59  5.8000000000000E-01 -1.0159574981285E+00  1.4447121579097E+00  3.1274491409465E-01
60  5.9000000000000E-01 -9.8808459738436E-01  1.4650300821628E+00  1.5476803485051E-01
61  6.0000000000000E-01 -9.5284598441796E-01  1.4833129561745E+00 -5.3351770751111E-03
62  6.1000000000000E-01 -9.1098535866834E-01  1.4992918260372E+00 -1.6589013151796E-01
63  6.2000000000000E-01 -8.6330789078821E-01  1.5127052334942E+00 -3.2515763193517E-01
64  6.3000000000000E-01 -8.1066727191500E-01  1.5233035406151E+00 -4.8136344796802E-01
65  6.4000000000000E-01 -7.5395185733743E-01  1.5308532647609E+00 -6.3273030223016E-01
66  6.5000000000000E-01 -6.9407018892741E-01  1.5351413308738E+00 -7.7751147142981E-01
67  6.6000000000000E-01 -6.3193620222686E-01  1.5359791460611E+00 -9.1402512307160E-01
68  6.7000000000000E-01 -5.6845443727387E-01  1.5332064019779E+00 -1.0406884573371E+00
69  6.8000000000000E-01 -5.0450557660922E-01  1.5266945136940E+00 -1.1560507014239E+00
70  6.9000000000000E-01 -4.4093262919968E-01  1.5163496095209E+00 -1.2588240117277E+00
71  7.0000000000000E-01 -3.7852806530937E-01  1.5021149945512E+00 -1.3479113778705E+00
72  7.1000000000000E-01 -3.1802218499824E-01  1.4839730212271E+00 -1.4224306907560E+00
73  7.2000000000000E-01 -2.6007297255489E-01  1.4619463128274E+00 -1.4817342326254E+00
74  7.3000000000000E-01 -2.0525765165061E-01  1.4360983000148E+00 -1.5254229676536E+00
75  7.4000000000000E-01 -1.5406611243563E-01  1.4065330461164E+00 -1.5533551532805E+00
76  7.5000000000000E-01 -1.0689633345619E-01  1.3733943532053E+00 -1.5656489508953E+00
77  7.6000000000000E-01 -6.4051869568950E-02  1.3368641578431E+00 -1.5626788848063E+00
78  7.7000000000000E-01 -2.5741423468939E-02  1.2971602420847E+00 -1.5450661754031E+00
79  7.8000000000000E-01  7.9195354300786E-03  1.2545333015679E+00 -1.5136631506596E+00
80  7.9000000000000E-01  3.6905193691138E-02  1.2092634277826E+00 -1.4695321142288E+00
81  8.0000000000000E-01  6.1273997028871E-02  1.1616560755338E+00 -1.4139192130855E+00
82  8.1000000000000E-01  8.1161618784367E-02  1.1120375988143E+00 -1.3482239980816E+00
83  8.2000000000000E-01  9.6772519140505E-02  1.0607504484900E+00 -1.2739655024392E+00
84  8.3000000000000E-01  1.0837035477954E-01  1.0081481331266E+00 -1.1927457722492E+00
85  8.4000000000000E-01  1.1626752571179E-01  9.5459004977741E-01 -1.1062118662855E+00
86  8.5000000000000E-01  1.2081416514056E-01  9.0043629449944E-01 -1.0160173974266E+00
87  8.6000000000000E-01  1.2238688901890E-01  8.4604256273084E-01 -9.2378471300706E-01
88  8.7000000000000E-01  1.2137762416718E-01  7.9175524747200E-01 -8.3106880555840E-01
89  8.8000000000000E-01  1.1818282741792E-01  7.3790683854809E-01 -7.3932400844201E-01
90  8.9000000000000E-01  1.1319339338053E-01  6.8481171922691E-01 -6.4987446325684E-01
91  9.0000000000000E-01  1.0678552537535E-01  6.3276244729605E-01 -5.6388924865553E-01
92  9.1000000000000E-01  9.9312813293788E-02  5.8202659657036E-01 -4.8236293478391E-01
93  9.2000000000000E-01  9.1099724111843E-02  5.3284422192402E-01 -4.0610217579141E-01
94  9.3000000000000E-01  8.2436666076020E-02  4.8542599654302E-01 -3.3571877674596E-01
95  9.4000000000000E-01  7.3576736758277E-02  4.3995205438811E-01 -2.7162947287338E-01
96  9.5000000000000E-01  6.4734208770221E-02  3.9657155403349E-01 -2.1406244027623E-01
97  9.6000000000000E-01  5.6084745424479E-02  3.5540296226922E-01 -1.6307031998889E-01
98  9.7000000000000E-01  4.7767272339114E-02  3.1653503722498E-01 -1.1854928256942E-01
99  9.8000000000000E-01  3.9887360187777E-02  2.8002847136926E-01 -8.0263389563150E-02
100  9.9000000000000E-01  3.2521898489189E-02  2.4591813454628E-01 -4.7873221147875E-02
101  1.0000000000000E+00  2.5724760473334E-02  2.1421583619244E-01 -2.0967436117625E-02
102  1.0100000000000E+00  1.9533074196460E-02  1.8491350386235E-01  9.0439046416739E-04
103  1.0200000000000E+00  1.3973624789684E-02  1.5798665202080E-01  1.8199646425646E-02
104  1.0300000000000E+00  9.0688162455507E-03  1.3339799044584E-01  3.1353634379991E-02
105  1.0400000000000E+00  4.8415174308378E-03  1.1110099518046E-01  4.0756338928527E-02
106  1.0500000000000E+00  1.3180049337922E-03  9.1043236371817E-02  4.6738167531647E-02
107  1.0600000000000E+00 -1.4719062573521E-03  7.3169226132262E-02  4.9568272349580E-02
108  1.0700000000000E+00 -3.4985864028745E-03  5.7422515103507E-02  4.9469549601688E-02
109  1.0800000000000E+00 -4.7413548700158E-03  4.3746729859426E-02  4.6654939402138E-02
110  1.0900000000000E+00 -5.2036054530907E-03  3.2085208751438E-02  4.1390170093422E-02
111  1.1000000000000E+00 -4.9455667449913E-03  2.2371676451828E-02  3.4121315097304E-02
112  1.1100000000000E+00 -4.1561959022085E-03  1.4494000436130E-02  2.5743883252013E-02
113  1.1200000000000E+00 -3.0209095154084E-03  8.4029273617234E-03  1.7163179518059E-02
114  1.1300000000000E+00 -1.7752040915377E-03  4.0361580006922E-03  9.3856017403955E-03
115  1.1400000000000E+00 -6.8863399865695E-04  1.3033495200861E-03  3.4228946899359E-03
116  1.1500000000000E+00 -6.5591041448341E-05  1.0426913211468E-04  3.0833708404270E-04
117  1.1600000000000E+00  1.8672055525364E-06 -2.6879969118720E-06 -8.5310138397315E-06
118  1.1700000000000E+00  4.7248823251470E-07 -7.9296184622061E-07 -2.2603680806075E-06
119  1.18 -0. -0.  0.
120  1.19  0.  0.  0.
121  1.20  0.  0.  0.
122  1.21  0.  0.  0.
123  1.22  0.  0.  0.
124  1.23  0.  0.  0.
125  1.24  0.  0.  0.
126  1.25  0.  0.  0.
127  1.26  0.  0.  0.
128  1.27  0.  0.  0.
129  1.28  0.  0.  0.
130  1.29  0.  0.  0.
131  1.30  0.  0.  0.
132  1.31  0.  0.  0.
133  1.32  0.  0.  0.
134  1.33  0.  0.  0.
135  1.34  0.  0.  0.
136  1.35  0.  0.  0.
137  1.36  0.  0.  0.
138  1.37  0.  0.  0.
139  1.38  0.  0.  0.
140  1.39  0.  0.  0.
141  1.40  0.  0.  0.
142  1.41  0.  0.  0.
143  1.42  0.  0.  0.
144  1.43  0.  0.  0.
145  1.44  0.  0.  0.
146  1.45  0.  0.  0.
147  1.46  0.  0.  0.
148  1.47  0.  0.  0.
149  1.48  0.  0.  0.
150  1.49  0.  0.  0.
151  1.50  0.  0.  0.
152  1.51  0.  0.  0.
153  1.52  0.  0.  0.
154  1.53  0.  0.  0.
155  1.54  0.  0.  0.
156  1.55  0.  0.  0.
157  1.56  0.  0.  0.
158  1.57  0.  0.  0.
159  1.58  0.  0.  0.
160  1.59  0.  0.  0.
161  1.60  0.  0.  0.
162  1.61  0.  0.  0.
163  1.62  0.  0.  0.
164  1.63  0.  0.  0.
165  1.64  0.  0.  0.
166  1.65  0.  0.  0.
167  1.66  0.  0.  0.
168  1.67  0.  0.  0.
169  1.68  0.  0.  0.
170  1.69  0.  0.  0.
171  1.70  0.  0.  0.
172  1.71  0.  0.  0.
173  1.72  0.  0.  0.
174  1.73  0.  0.  0.
175  1.74  0.  0.  0.
176  1.75  0.  0.  0.
177  1.76  0.  0.  0.
178  1.77  0.  0.  0.
179  1.78  0.  0.  0.
180  1.79  0.  0.  0.
181  1.80  0.  0.  0.
182  1.81  0.  0.  0.
183  1.82  0.  0.  0.
184  1.83  0.  0.  0.
185  1.84  0.  0.  0.
186  1.85  0.  0.  0.
187  1.86  0.  0.  0.
188  1.87  0.  0.  0.
189  1.88  0.  0.  0.
190  1.89  0.  0.  0.
191  1.90  0.  0.  0.
192  1.91  0.  0.  0.
193  1.92  0.  0.  0.
194  1.93  0.  0.  0.
195  1.94  0.  0.  0.
196  1.95  0.  0.  0.
197  1.96  0.  0.  0.
198  1.97  0.  0.  0.
199  1.98  0.  0.  0.
200  1.99  0.  0.  0.
201  2.00  0.  0.  0.
202  2.01  0.  0.  0.
203  2.02  0.  0.  0.
204  2.03  0.  0.  0.
205  2.04  0.  0.  0.
206  2.05  0.  0.  0.
207  2.06  0.  0.  0.
208  2.07  0.  0.  0.
209  2.08  0.  0.  0.
210  2.09  0.  0.  0.
211  2.10  0.  0.  0.
212  2.11  0.  0.  0.
213  2.12  0.  0.  0.
214  2.13  0.  0.  0.
215  2.14  0.  0.  0.
216  2.15  0.  0.  0.
217  2.16  0.  0.  0.
218  2.17  0.  0.  0.
219  2.18  0.  0.  0.
220  2.19  0.  0.  0.
221  2.20  0.  0.  0.
222  2.21  0.  0.  0.
223  2.22  0.  0.  0.
224  2.23  0.  0.  0.
225  2.24  0.  0.  0.
226  2.25  0.  0.  0.
227  2.26  0.  0.  0.
228  2.27  0.  0.  0.
229  2.28  0.  0.  0.
230  2.29  0.  0.  0.
231  2.30  0.  0.  0.
232  2.31  0.  0.  0.
233  2.32  0.  0.  0.
234  2.33  0.  0.  0.
235  2.34  0.  0.  0.
236  2.35  0.  0.  0.
237  2.36  0.  0.  0.
238  2.37  0.  0.  0.
239  2.38  0.  0.  0.
240  2.39  0.  0.  0.
241  2.40  0.  0.  0.
242  2.41  0.  0.  0.
243  2.42  0.  0.  0.
244  2.43  0.  0.  0.
245  2.44  0.  0.  0.
246  2.45  0.  0.  0.
247  2.46  0.  0.  0.
248  2.47  0.  0.  0.
249  2.48  0.  0.  0.
250  2.49  0.  0.  0.
251  2.50  0.  0.  0.
252  2.51  0.  0.  0.
253  2.52  0.  0.  0.
254  2.53  0.  0.  0.
255  2.54  0.  0.  0.
256  2.55  0.  0.  0.
257  2.56  0.  0.  0.
258  2.57  0.  0.  0.
259  2.58  0.  0.  0.
260  2.59  0.  0.  0.
261  2.60  0.  0.  0.
262  2.61  0.  0.  0.
263  2.62  0.  0.  0.
264  2.63  0.  0.  0.
265  2.64  0.  0.  0.
266  2.65  0.  0.  0.
267  2.66  0.  0.  0.
268  2.67  0.  0.  0.
269  2.68  0.  0.  0.
270  2.69  0.  0.  0.
271  2.70  0.  0.  0.
272  2.71  0.  0.  0.
273  2.72  0.  0.  0.
274  2.73  0.  0.  0.
275  2.74  0.  0.  0.
276  2.75  0.  0.  0.
277  2.76  0.  0.  0.
278  2.77  0.  0.  0.
279  2.78  0.  0.  0.
280  2.79  0.  0.  0.
281  2.80  0.  0.  0.
282  2.81  0.  0.  0.
283  2.82  0.  0.  0.
284  2.83  0.  0.  0.
285  2.84  0.  0.  0.
286  2.85  0.  0.  0.
287  2.86  0.  0.  0.
288  2.87  0.  0.  0.
289  2.88  0.  0.  0.
290  2.89  0.  0.  0.
291  2.90  0.  0.  0.
292  2.91  0.  0.  0.
293  2.92  0.  0.  0.
294  2.93  0.  0.  0.
295  2.94  0.  0.  0.
296  2.95  0.  0.  0.
297  2.96  0.  0.  0.
298  2.97  0.  0.  0.
299  2.98  0.  0.  0.
300  2.99  0.  0.  0.
301  3.00  0.  0.  0.
302  3.01  0.  0.  0.
303  3.02  0.  0.  0.
304  3.03  0.  0.  0.
305  3.04  0.  0.  0.
306  3.05  0.  0.  0.
307  3.06  0.  0.  0.
308  3.07  0.  0.  0.
309  3.08  0.  0.  0.
310  3.09  0.  0.  0.
311  3.10  0.  0.  0.
312  3.11  0.  0.  0.
313  3.12  0.  0.  0.
314  3.13  0.  0.  0.
315  3.14  0.  0.  0.
316  3.15  0.  0.  0.
317  3.16  0.  0.  0.
318  3.17  0.  0.  0.
319  3.18  0.  0.  0.
320  3.19  0.  0.  0.
321  3.20  0.  0.  0.
322  3.21  0.  0.  0.
323  3.22  0.  0.  0.
324  3.23  0.  0.  0.
325  3.24  0.  0.  0.
326  3.25  0.  0.  0.
327  3.26  0.  0.  0.
328  3.27  0.  0.  0.
329  3.28  0.  0.  0.
330  3.29  0.  0.  0.
331  3.30  0.  0.  0.
332  3.31  0.  0.  0.
333  3.32  0.  0.  0.
334  3.33  0.  0.  0.
335  3.34  0.  0.  0.
336  3.35  0.  0.  0.
337  3.36  0.  0.  0.
338  3.37  0.  0.  0.
339  3.38  0.  0.  0.
340  3.39  0.  0.  0.
341  3.40  0.  0.  0.
342  3.41  0.  0.  0.
343  3.42  0.  0.  0.
344  3.43  0.  0.  0.
345  3.44  0.  0.  0.
346  3.45  0.  0.  0.
347  3.46  0.  0.  0.
348  3.47  0.  0.  0.
349  3.48  0.  0.  0.
350  3.49  0.  0.  0.
351  3.50  0.  0.  0.
352  3.51  0.  0.  0.
353  3.52  0.  0.  0.
354  3.53  0.  0.  0.
355  3.54  0.  0.  0.
356  3.55  0.  0.  0.
357  3.56  0.  0.  0.
358  3.57  0.  0.  0.
359  3.58  0.  0.  0.
360  3.59  0.  0.  0.
361  3.60  0.  0.  0.
362  3.61  0.  0.  0.
363  3.62  0.  0.  0.
364  3.63  0.  0.  0.
365  3.64  0.  0.  0.
366  3.65  0.  0.  0.
367  3.66  0.  0.  0.
368  3.67  0.  0.  0.
369  3.68  0.  0.  0.
370  3.69  0.  0.  0.
371  3.70  0.  0.  0.
372  3.71  0.  0.  0.
373  3.72  0.  0.  0.
374  3.73  0.  0.  0.
375  3.74  0.  0.  0.
376  3.75  0.  0.  0.
377  3.76  0.  0.  0.
378  3.77  0.  0.  0.
379  3.78  0.  0.  0.
380  3.79  0.  0.  0.
381  3.80  0.  0.  0.
382  3.81  0.  0.  0.
383  3.82  0.  0.  0.
384  3.83  0.  0.  0.
385  3.84  0.  0.  0.
386  3.85  0.  0.  0.
387  3.86  0.  0.  0.
388  3.87  0.  0.  0.
389  3.88  0.  0.  0.
390  3.89  0.  0.  0.
391  3.90  0.  0.  0.
392  3.91  0.  0.  0.
393  3.92  0.  0.  0.
394  3.93  0.  0.  0.
395  3.94  0.  0.  0.
396  3.95  0.  0.  0.
397  3.96  0.  0.  0.
398  3.97  0.  0.  0.
399  3.98  0.  0.  0.
400  3.99  0.  0.  0.
401  4.00  0.  0.  0.
402  4.01  0.  0.  0.
403  4.02  0.  0.  0.
404  4.03  0.  0.  0.
405  4.04  0.  0.  0.
406  4.05  0.  0.  0.
407  4.06  0.  0.  0.
408  4.07  0.  0.  0.
409  4.08  0.  0.  0.
410  4.09  0.  0.  0.
411  4.10  0.  0.  0.
412  4.11  0.  0.  0.
413  4.12  0.  0.  0.
414  4.13  0.  0.  0.
415  4.14  0.  0.  0.
416  4.15  0.  0.  0.
417  4.16  0.  0.  0.
418  4.17  0.  0.  0.
419  4.18  0.  0.  0.
420  4.19  0.  0.  0.
421  4.20  0.  0.  0.
422  4.21  0.  0.  0.
423  4.22  0.  0.  0.
424  4.23  0.  0.  0.
425  4.24  0.  0.  0.
426  4.25  0.  0.  0.
427  4.26  0.  0.  0.
428  4.27  0.  0.  0.
429  4.28  0.  0.  0.
430  4.29  0.  0.  0.
431  4.30  0.  0.  0.
432  4.31  0.  0.  0.
433  4.32  0.  0.  0.
434  4.33  0.  0.  0.
435  4.34  0.  0.  0.
436  4.35  0.  0.  0.
437  4.36  0.  0.  0.
438  4.37  0.  0.  0.
439  4.38  0.  0.  0.
440  4.39  0.  0.  0.
441  4.40  0.  0.  0.
442  4.41  0.  0.  0.
443  4.42  0.  0.  0.
444  4.43  0.  0.  0.
445  4.44  0.  0.  0.
446  4.45  0.  0.  0.
447  4.46  0.  0.  0.
448  4.47  0.  0.  0.
449  4.48  0.  0.  0.
450  4.49  0.  0.  0.
451  4.50  0.  0.  0.
452  4.51  0.  0.  0.
453  4.52  0.  0.  0.
454  4.53  0.  0.  0.
455  4.54  0.  0.  0.
456  4.55  0.  0.  0.
457  4.56  0.  0.  0.
458  4.57  0.  0.  0.
459  4.58  0.  0.  0.
460  4.59  0.  0.  0.
461  4.60  0.  0.  0.
462  4.61  0.  0.  0.
463  4.62  0.  0.  0.
464  4.63  0.  0.  0.
465  4.64  0.  0.  0.
466  4.65  0.  0.  0.
467  4.66  0.  0.  0.
468  4.67  0.  0.  0.
469  4.68  0.  0.  0.
470  4.69  0.  0.  0.
471  4.70  0.  0.  0.
472  4.71  0.  0.  0.
473  4.72  0.  0.  0.
474  4.73  0.  0.  0.
475  4.74  0.  0.  0.
476  4.75  0.  0.  0.
477  4.76  0.  0.  0.
478  4.77  0.  0.  0.
479  4.78  0.  0.  0.
480  4.79  0.  0.  0.
481  4.80  0.  0.  0.
482  4.81  0.  0.  0.
483  4.82  0.  0.  0.
484  4.83  0.  0.  0.
485  4.84  0.  0.  0.
486  4.85  0.  0.  0.
487  4.86  0.  0.  0.
488  4.87  0.  0.  0.
489  4.88  0.  0.  0.
490  4.89  0.  0.  0.
491  4.90  0.  0.  0.
492  4.91  0.  0.  0.
493  4.92  0.  0.  0.
494  4.93  0.  0.  0.
495  4.94  0.  0.  0.
496  4.95  0.  0.  0.
497  4.96  0.  0.  0.
498  4.97  0.  0.  0.
499  4.98  0.  0.  0.
500  4.99  0.  0.  0.
501  5.00  0.  0.  0.
502  5.01  0.  0.  0.
503  5.02  0.  0.  0.
504  5.03  0.  0.  0.
505  5.04  0.  0.  0.
506  5.05  0.  0.  0.
507  5.06  0.  0.  0.
508  5.07  0.  0.  0.
509  5.08  0.  0.  0.
510  5.09  0.  0.  0.
511  5.10  0.  0.  0.
512  5.11  0.  0.  0.
513  5.12  0.  0.  0.
514  5.13  0.  0.  0.
515  5.14  0.  0.  0.
516  5.15  0.  0.  0.
517  5.16  0.  0.  0.
518  5.17  0.  0.  0.
519  5.18  0.  0.  0.
520  5.19  0.  0.  0.
521  5.20  0.  0.  0.
522  5.21  0.  0.  0.
523  5.22  0.  0.  0.
524  5.23  0.  0.  0.
525  5.24  0.  0.  0.
526  5.25  0.  0.  0.
527  5.26  0.  0.  0.
528  5.27  0.  0.  0.
529  5.28  0.  0.  0.
530  5.29  0.  0.  0.
531  5.30  0.  0.  0.
532  5.31  0.  0.  0.
533  5.32  0.  0.  0.
534  5.33  0.  0.  0.
535  5.34  0.  0.  0.
536  5.35  0.  0.  0.
537  5.36  0.  0.  0.
538  5.37  0.  0.  0.
539  5.38  0.  0.  0.
540  5.39  0.  0.  0.
541  5.40  0.  0.  0.
542  5.41  0.  0.  0.
543  5.42  0.  0.  0.
544  5.43  0.  0.  0.
545  5.44  0.  0.  0.
546  5.45  0.  0.  0.
547  5.46  0.  0.  0.
548  5.47  0.  0.  0.
549  5.48  0.  0.  0.
550  5.49  0.  0.  0.
551  5.50  0.  0.  0.
552  5.51  0.  0.  0.
553  5.52  0.  0.  0.
554  5.53  0.  0.  0.
555  5.54  0.  0.  0.
556  5.55  0.  0.  0.
557  5.56  0.  0.  0.
558  5.57  0.  0.  0.
559  5.58  0.  0.  0.
560  5.59  0.  0.  0.
561  5.60  0.  0.  0.
562  5.61  0.  0.  0.
563  5.62  0.  0.  0.
564  5.63  0.  0.  0.
565  5.64  0.  0.  0.
566  5.65  0.  0.  0.
567  5.66  0.  0.  0.
568  5.67  0.  0.  0.
569  5.68  0.  0.  0.
570  5.69  0.  0.  0.
571  5.70  0.  0.  0.
572  5.71  0.  0.  0.
573  5.72  0.  0.  0.
574  5.73  0.  0.  0.
575  5.74  0.  0.  0.
576  5.75  0.  0.  0.
577  5.76  0.  0.  0.
578  5.77  0.  0.  0.
579  5.78  0.  0.  0.
580  5.79  0.  0.  0.
581  5.80  0.  0.  0.
582  5.81  0.  0.  0.
583  5.82  0.  0.  0.
584  5.83  0.  0.  0.
585  5.84  0.  0.  0.
586  5.85  0.  0.  0.
587  5.86  0.  0.  0.
588  5.87  0.  0.  0.
589  5.88  0.  0.  0.
590  5.89  0.  0.  0.
591  5.90  0.  0.  0.
592  5.91  0.  0.  0.
593  5.92  0.  0.  0.
594  5.93  0.  0.  0.
595  5.94  0.  0.  0.
596  5.95  0.  0.  0.
597  5.96  0.  0.  0.
598  5.97  0.  0.  0.
599  5.98  0.  0.  0.
600  5.99  0.  0.  0.
1                         7.5582350436207E+00 -2.4680163678556E+00
1  0.0000000000000E+00 -2.8047827949074E-09 -6.0776769728044E-09
2  1.0000000000000E-02  5.1045494795581E-03  5.3822722521078E-04
3  2.0000000000000E-02  2.0368408605660E-02  2.1577761105619E-03
4  3.0000000000000E-02  4.5642538465220E-02  4.8731057585280E-03
5  4.0000000000000E-02  8.0679641388471E-02  8.7078436571428E-03
6  5.0000000000000E-02  1.2513582460960E-01  1.3694093276249E-02
7  6.0000000000000E-02  1.7857295404572E-01  1.9871492461301E-02
8  7.0000000000000E-02  2.4046172030405E-01  2.7286049277216E-02
9  8.0000000000000E-02  3.1018544183192E-01  3.5988788032431E-02
10  9.0000000000000E-02  3.8704463050382E-01  4.6034243212669E-02
11  1.0000000000000E-01  4.7026234257765E-01  5.7478842814963E-02
12  1.1000000000000E-01  5.5899033265258E-01  7.0379224978598E-02
13  1.2000000000000E-01  6.5231601995802E-01  8.4790532791525E-02
14  1.3000000000000E-01  7.4927026506821E-01  1.0076473168944E-01
15  1.4000000000000E-01  8.4883594117742E-01  1.1834899199071E-01
16  1.5000000000000E-01  9.4995726772597E-01  1.3758417590471E-01
17  1.6000000000000E-01  1.0515498558976E+00  1.5850346394002E-01
18  1.7000000000000E-01  1.1525113958823E+00  1.8113115019186E-01
19  1.8000000000000E-01  1.2517328954698E+00  2.0548162970839E-01
20  1.9000000000000E-01  1.3481103592261E+00  2.3155859425755E-01
21  2.0000000000000E-01  1.4405567779688E+00  2.5935444559081E-01
22  2.1000000000000E-01  1.5280142802633E+00  2.8884992799393E-01
23  2.2000000000000E-01  1.6094662819621E+00  3.2001397479005E-01
24  2.3000000000000E-01  1.6839494571112E+00  3.5280375677687E-01
25  2.4000000000000E-01  1.7505653444786E+00  3.8716491457412E-01
26  2.5000000000000E-01  1.8084913990541E+00  4.2303195174542E-01
27  2.6000000000000E-01  1.8569912975311E+00  4.6032876151629E-01
28  2.7000000000000E-01  1.8954243112953E+00  4.9896925707801E-01
29  2.8000000000000E-01  1.9232535699031E+00  5.3885807393416E-01
30  2.9000000000000E-01  1.9400530524172E+00  5.7989131255855E-01
31  3.0000000000000E-01  1.9455131630449E+00  6.2195729077771E-01
32  3.1000000000000E-01  1.9394447709379E+00  6.6493727771041E-01
33  3.2000000000000E-01  1.9217816212300E+00  7.0870618468021E-01
34  3.3000000000000E-01  1.8925810547519E+00  7.5313319311060E-01
35  3.4000000000000E-01  1.8520230065827E+00  7.9808230482175E-01
36  3.5000000000000E-01  1.8004072878125E+00  8.4341280614593E-01
37  3.6000000000000E-01  1.7381491896405E+00  8.8897964361528E-01
38  3.7000000000000E-01  1.6657734832574E+00  9.3463371538258E-01
39  3.8000000000000E-01  1.5839069218702E+00  9.8022208874507E-01
40  3.9000000000000E-01  1.4932693817726E+00  1.0255881598849E+00
41  4.0000000000000E-01  1.3946638066615E+00  1.0705717769694E+00
42  4.1000000000000E-01  1.2889651426527E+00  1.1150093518442E+00
43  4.2000000000000E-01  1.1771084699856E+00  1.1587339885140E+00
44  4.3000000000000E-01  1.0600765507036E+00  1.2015756582881E+00
45  4.4000000000000E-01  9.3888701928460E-01  1.2433614517733E+00
46  4.5000000000000E-01  8.1457944510370E-01  1.2839159367787E+00
47  4.6000000000000E-01  6.8820249172226E-01  1.3230616486584E+00
48  4.7000000000000E-01  5.6080138851812E-01  1.3606197357333E+00
49  4.8000000000000E-01  4.3340591545765E-01  1.3964107773057E+00
50  4.9000000000000E-01  3.0701908240187E-01  1.4302557855984E+00
51  5.0000000000000E-01  1.8260666092143E-01  1.4619773959078E+00
52  5.1000000000000E-01  6.1087699977460E-02  1.4914012416306E+00
53  5.2000000000000E-01 -5.6673872083123E-02  1.5183575028654E+00
54  5.3000000000000E-01 -1.6987648699887E-01  1.5426826093293E+00
55  5.4000000000000E-01 -2.7778697586051E-01  1.5642210706451E+00
56  5.5000000000000E-01 -3.7974539637577E-01  1.5828273999741E+00
57  5.6000000000000E-01 -4.7516866458148E-01  1.5983680907676E+00
58  5.7000000000000E-01 -5.6355303319970E-01  1.6107236013513E+00
59  5.8000000000000E-01 -6.4447548131651E-01  1.6197902983675E+00
60  5.9000000000000E-01 -7.1759409865354E-01  1.6254823079575E+00
61  6.0000000000000E-01 -7.8264756193341E-01  1.6277332230950E+00
62  6.1000000000000E-01 -8.3945381042295E-01  1.6264976167474E+00
63  6.2000000000000E-01 -8.8790803256614E-01  1.6217523135485E+00
64  6.3000000000000E-01 -9.2798007577890E-01  1.6134973773517E+00
65  6.4000000000000E-01 -9.5971138723947E-01  1.6017567782742E+00
66  6.5000000000000E-01 -9.8321158531524E-01  1.5865787104582E+00
67  6.6000000000000E-01 -9.9865474971665E-01  1.5680355405254E+00
68  6.7000000000000E-01 -1.0062755042874E+00  1.5462233763109E+00
69  6.8000000000000E-01 -1.0063649503573E+00  1.5212612556085E+00
70  6.9000000000000E-01 -9.9926649168554E-01  1.4932899650092E+00
71  7.0000000000000E-01 -9.8537157513423E-01  1.4624705091040E+00
72  7.1000000000000E-01 -9.6511535523765E-01  1.4289822600130E+00
73  7.2000000000000E-01 -9.3897227663289E-01  1.3930208260476E+00
74  7.3000000000000E-01 -9.0745155666888E-01  1.3547956860051E+00
75  7.4000000000000E-01 -8.7109254206261E-01  1.3145276418638E+00
76  7.5000000000000E-01 -8.3045990873162E-01  1.2724461472643E+00
77  7.6000000000000E-01 -7.8613867323305E-01  1.2287865719752E+00
78  7.7000000000000E-01 -7.3872898772474E-01  1.1837874634318E+00
79  7.8000000000000E-01 -6.8884069797876E-01  1.1376878653921E+00
80  7.9000000000000E-01 -6.3708765546844E-01  1.0907247508011E+00
81  8.0000000000000E-01 -5.8408178946742E-01  1.0431306212103E+00
82  8.1000000000000E-01 -5.3042696281795E-01  9.9513131873556E-01
83  8.2000000000000E-01 -4.7671265476006E-01  9.4694408879795E-01
84  8.3000000000000E-01 -4.2350753505128E-01  8.9877592305909E-01
85  8.4000000000000E-01 -3.7135301453851E-01  8.5082220237906E-01
86  8.5000000000000E-01 -3.2075687730292E-01  8.0326564964547E-01
87  8.6000000000000E-01 -2.7218711740142E-01  7.5627559233575E-01
88  8.7000000000000E-01 -2.2606611801437E-01  7.1000752506457E-01
89  8.8000000000000E-01 -1.8276532148372E-01  6.6460295351391E-01
90  8.9000000000000E-01 -1.4260054439860E-01  6.2018949340085E-01
91  9.0000000000000E-01 -1.0582809180535E-01  5.7688119182834E-01
92  9.1000000000000E-01 -7.2641818204670E-02  5.3477903376496E-01
93  9.2000000000000E-01 -4.3171269863597E-02  4.9397159373072E-01
94  9.3000000000000E-01 -1.7481022938636E-02  4.5453579218844E-01
95  9.4000000000000E-01  4.4286949760288E-03  4.1653771774664E-01
96  9.5000000000000E-01  2.2620045728127E-02  3.8003348009420E-01
97  9.6000000000000E-01  3.7214269322117E-02  3.4507006456184E-01
98  9.7000000000000E-01  4.8387050857113E-02  3.1168616723421E-01
99  9.8000000000000E-01  5.6362645578163E-02  2.7991299943784E-01
100  9.9000000000000E-01  6.1406894968286E-02  2.4977506198553E-01
101  1.0000000000000E+00  6.3819322177697E-02  2.2129090247711E-01
102  1.0100000000000E+00  6.3924551642108E-02  1.9447388295345E-01
103  1.0200000000000E+00  6.2063354114149E-02  1.6933299991659E-01
104  1.0300000000000E+00  5.8583673267022E-02  1.4587381382389E-01
105  1.0400000000000E+00  5.3832042315435E-02  1.2409956029851E-01
106  1.0500000000000E+00  4.8145847509627E-02  1.0401253012377E-01
107  1.0600000000000E+00  4.1846938803880E-02  8.5615819270533E-02
108  1.0700000000000E+00  3.5237125694261E-02  6.8915563503128E-02
109  1.0800000000000E+00  2.8596129587867E-02  5.3923784891708E-02
110  1.0900000000000E+00  2.2182600361832E-02  4.0661983426171E-02
111  1.1000000000000E+00  1.6228302415828E-02  2.9162608636682E-02
112  1.1100000000000E+00  1.0900102726027E-02  1.9459004736179E-02
113  1.1200000000000E+00  6.4661633314452E-03  1.1634610600380E-02
114  1.1300000000000E+00  3.1365013447821E-03  5.7711420318637E-03
115  1.1400000000000E+00  1.0087581543235E-03  1.9271770124272E-03
116  1.1500000000000E+00  7.9120992798176E-05  1.5983719695276E-04
117  1.1600000000000E+00 -2.0121919147120E-06 -4.2158751552658E-06
118  1.1700000000000E+00 -6.0681512980912E-07 -1.2015665882988E-06
119  1.18 -0. -0.
120  1.19  0.  0.
121  1.20  0.  0.
122  1.21  0.  0.
123  1.22  0.  0.
124  1.23  0.  0.
125  1.24  0.  0.
126  1.25  0.  0.
127  1.26  0.  0.
128  1.27  0.  0.
129  1.28  0.  0.
130  1.29  0.  0.
131  1.30  0.  0.
132  1.31  0.  0.
133  1.32  0.  0.
134  1.33  0.  0.
135  1.34  0.  0.
136  1.35  0.  0.
137  1.36  0.  0.
138  1.37  0.  0.
139  1.38  0.  0.
140  1.39  0.  0.
141  1.40  0.  0.
142  1.41  0.  0.
143  1.42  0.  0.
144  1.43  0.  0.
145  1.44  0.  0.
146  1.45  0.  0.
147  1.46  0.  0.
148  1.47  0.  0.
149  1.48  0.  0.
150  1.49  0.  0.
151  1.50  0.  0.
152  1.51  0.  0.
153  1.52  0.  0.
154  1.53  0.  0.
155  1.54  0.  0.
156  1.55  0.  0.
157  1.56  0.  0.
158  1.57  0.  0.
159  1.58  0.  0.
160  1.59  0.  0.
161  1.60  0.  0.
162  1.61  0.  0.
163  1.62  0.  0.
164  1.63  0.  0.
165  1.64  0.  0.