Md    ONCVPSP-4.0.1  r_core=   1.15366   1.15366   1.15366   1.20299
101.0000     41.0000      230504    zatom,zion,pspd
8      11   3     4   600     0    pspcod,pspxc,lmax,lloc,mmax,r2well
5.99000000  2.70000000  0.00000000    rchrg fchrg qchrg
3     2     2     2     0    nproj
1     1           extension_switch
0                         3.6226145785887E+01  9.5015965886062E+00  1.7939388001214E+00
1  0.0000000000000E+00 -2.4347569516081E-08  5.0887062480465E-08 -1.1547272138479E-07
2  1.0000000000000E-02  1.5194043410466E-01 -2.2977009320756E-02  7.7165917997087E-02
3  2.0000000000000E-02  3.0292980032959E-01 -4.5217635206444E-02  1.5307440609233E-01
4  3.0000000000000E-02  4.5202617235953E-01 -6.5999362490665E-02  2.2649878975117E-01
5  4.0000000000000E-02  5.9830571350990E-01 -8.4627015357823E-02  2.9627296736833E-01
6  5.0000000000000E-02  7.4087124448542E-01 -1.0044544798623E-01  3.6131938369505E-01
7  6.0000000000000E-02  8.7886025715325E-01 -1.1285109887262E-01  4.2067431468988E-01
8  7.0000000000000E-02  1.0114522197437E+00 -1.2130209279640E-01  4.7350970955538E-01
9  8.0000000000000E-02  1.1378750432388E+00 -1.2532662526872E-01  5.1915095119579E-01
10  9.0000000000000E-02  1.2574106074113E+00 -1.2452942442669E-01  5.5709003314437E-01
11  1.0000000000000E-01  1.3693992769693E+00 -1.1859615252979E-01  5.8699380452623E-01
12  1.1000000000000E-01  1.4732433723564E+00 -1.0729568107627E-01  6.0870709960109E-01
13  1.2000000000000E-01  1.5684095946700E+00 -9.0480247491310E-02  6.2225073924009E-01
14  1.3000000000000E-01  1.6544304385846E+00 -6.8083574662337E-02  6.2781456246439E-01
15  1.4000000000000E-01  1.7309046597832E+00 -4.0117104633076E-02  6.2574581103286E-01
16  1.5000000000000E-01  1.7974968929697E+00 -6.6645619368336E-03  6.1653334329623E-01
17  1.6000000000000E-01  1.8539365418938E+00  3.2124882033730E-02  6.0078828980403E-01
18  1.7000000000000E-01  1.9000160829790E+00  7.6044526672095E-02  5.7922187766192E-01
19  1.8000000000000E-01  1.9355889382718E+00  1.2483879142799E-01  5.5262123934943E-01
20  1.9000000000000E-01  1.9605670809387E+00  1.7821222631594E-01  5.2182408140801E-01
21  2.0000000000000E-01  1.9749185370615E+00  2.3583850756331E-01  4.8769311692345E-01
22  2.1000000000000E-01  1.9786649409367E+00  2.9736905121035E-01  4.5109116191384E-01
23  2.2000000000000E-01  1.9718792876413E+00  3.6244090080510E-01  4.1285775960561E-01
24  2.3000000000000E-01  1.9546840067385E+00  4.3068358233680E-01  3.7378812929775E-01
25  2.4000000000000E-01  1.9272494553655E+00  5.0172466897269E-01  3.3461514032216E-01
26  2.5000000000000E-01  1.8897928985191E+00  5.7519385824945E-01  2.9599488984543E-01
27  2.6000000000000E-01  1.8425780102785E+00  6.5072543295726E-01  2.5849632017378E-01
28  2.7000000000000E-01  1.7859148933133E+00  7.2795905150431E-01  2.2259515191149E-01
29  2.8000000000000E-01  1.7201605767482E+00  8.0653889127098E-01  1.8867223948466E-01
30  2.9000000000000E-01  1.6457199158276E+00  8.8611124637526E-01  1.5701628135611E-01
31  3.0000000000000E-01  1.5630467823687E+00  9.6632075634115E-01  1.2783064511008E-01
32  3.1000000000000E-01  1.4726454042068E+00  1.0468055113944E+00  1.0124390387722E-01
33  3.2000000000000E-01  1.3750716861225E+00  1.1271913406757E+00  7.7323531467240E-02
34  3.3000000000000E-01  1.2709343253264E+00  1.2070856389821E+00  5.6092074805417E-02
35  3.4000000000000E-01  1.1608955225117E+00  1.2860711235457E+00  3.7545018848424E-02
36  3.5000000000000E-01  1.0456710855319E+00  1.3636999330788E+00  2.1669485276389E-02
37  3.6000000000000E-01  9.2602972743682E-01  1.4394884856683E+00  8.4628650529988E-03
38  3.7000000000000E-01  8.0279137405594E-01  1.5129134994881E+00 -2.0495216232033E-03
39  3.8000000000000E-01  6.7682431842373E-01  1.5834095507271E+00 -9.7986156701260E-03
40  3.9000000000000E-01  5.4904108958538E-01  1.6503684972885E+00 -1.4658473934639E-02
41  4.0000000000000E-01  4.2039294089963E-01  1.7131410359973E+00 -1.6436506240674E-02
42  4.1000000000000E-01  2.9186290673255E-01  1.7710405871636E+00 -1.4867686382028E-02
43  4.2000000000000E-01  1.6445742502193E-01  1.8233496158377E+00 -9.6131773291149E-03
44  4.3000000000000E-01  3.9196574957551E-02  1.8693284068590E+00 -2.6363945019565E-04
45  4.4000000000000E-01 -8.2896967825368E-02  1.9082262141156E+00  1.3652694799685E-02
46  4.5000000000000E-01 -2.0081010351625E-01  1.9392946068170E+00  3.2657288700303E-02
47  4.6000000000000E-01 -3.1355240267968E-01  1.9618027406496E+00  5.7304212974159E-02
48  4.7000000000000E-01 -4.2016987213306E-01  1.9750541930775E+00  8.8159187857341E-02
49  4.8000000000000E-01 -5.1975910162371E-01  1.9784049232055E+00  1.2577541276092E-01
50  4.9000000000000E-01 -6.1148146904145E-01  1.9712818507316E+00  1.7066699050660E-01
51  5.0000000000000E-01 -6.9457705939774E-01  1.9532014983257E+00  2.2328087596470E-01
52  5.1000000000000E-01 -7.6837794062917E-01  1.9237881095263E+00  2.8396836985556E-01
53  5.2000000000000E-01 -8.3232043819735E-01  1.8827906415558E+00  3.5295723361951E-01
54  5.3000000000000E-01 -8.8595606082165E-01  1.8300980402298E+00  4.3032551808636E-01
55  5.4000000000000E-01 -9.2896075147447E-01  1.7657522325726E+00  5.1597817598051E-01
56  5.5000000000000E-01 -9.6114217053823E-01  1.6899583212600E+00  6.0962746642885E-01
57  5.6000000000000E-01 -9.8244476092820E-01  1.6030915322639E+00  7.1077806036112E-01
58  5.7000000000000E-01 -9.9295239680551E-01  1.5057005510500E+00  8.1871762219793E-01
59  5.8000000000000E-01 -9.9288847667520E-01  1.3985069806881E+00  9.3251348002107E-01
60  5.9000000000000E-01 -9.8261338634234E-01  1.2824007640574E+00  1.0510158091483E+00
61  6.0000000000000E-01 -9.6261932531866E-01  1.1584315283169E+00  1.1728675492569E+00
62  6.1000000000000E-01 -9.3352255961665E-01  1.0277959289989E+00  1.2965210601721E+00
63  6.2000000000000E-01 -8.9605323216104E-01  8.9182118938337E-01  1.4202613038056E+00
64  6.3000000000000E-01 -8.5104292702825E-01  7.5194514412614E-01  1.5422351272344E+00
65  6.4000000000000E-01 -7.9941024323598E-01  6.0969320051733E-01  1.6604860221040E+00
66  6.5000000000000E-01 -7.4214468587870E-01  4.6665272263820E-01  1.7729935554426E+00
67  6.6000000000000E-01 -6.8028922533757E-01  3.2444541992415E-01  1.8777165128124E+00
68  6.7000000000000E-01 -6.1492190771124E-01  1.8469837968922E-01  1.9726386716623E+00
69  6.8000000000000E-01 -5.4713692053597E-01  4.9014421182919E-02  2.0558160346687E+00
70  6.9000000000000E-01 -4.7802552674427E-01 -8.1057534304857E-02  2.1254243021333E+00
71  7.0000000000000E-01 -4.0865727656703E-01 -2.0405138710150E-01  2.1798053499752E+00
72  7.1000000000000E-01 -3.4006189211204E-01 -3.1861141128944E-01  2.2175115045859E+00
73  7.2000000000000E-01 -2.7321219353213E-01 -4.2351781395372E-01  2.2373464652381E+00
74  7.3000000000000E-01 -2.0900840035824E-01 -5.1770974067079E-01  2.2384018145665E+00
75  7.4000000000000E-01 -1.4826409850068E-01 -6.0030524020787E-01  2.2200881720033E+00
76  7.5000000000000E-01 -9.1694114766811E-02 -6.7061778462915E-01  2.1821601766359E+00
77  7.6000000000000E-01 -3.9904489015587E-02 -7.2816902900676E-01  2.1247346261219E+00
78  7.7000000000000E-01  6.6153179471891E-03 -7.7269758257675E-01  2.0483012373313E+00
79  7.8000000000000E-01  4.7497891929991E-02 -8.0416364491053E-01  1.9537256216638E+00
80  7.9000000000000E-01  8.2500962997075E-02 -8.2274943064178E-01  1.8422441722535E+00
81  8.0000000000000E-01  1.1150812209991E-01 -8.2885535843660E-01  1.7154506297648E+00
82  8.1000000000000E-01  1.3452716746282E-01 -8.2309200810624E-01  1.5752741162470E+00
83  8.2000000000000E-01  1.5168609760711E-01 -8.0626784788688E-01  1.4239483904762E+00
84  8.3000000000000E-01  1.6322675503621E-01 -7.7937269589337E-01  1.2639719713776E+00
85  8.4000000000000E-01  1.6949608956504E-01 -7.4355679962703E-01  1.0980585866430E+00
86  8.5000000000000E-01  1.7093494995015E-01 -7.0010528936041E-01  9.2907711989233E-01
87  8.6000000000000E-01  1.6806422381368E-01 -6.5040757952548E-01  7.5997984024141E-01
88  8.7000000000000E-01  1.6146802585930E-01 -5.9592105127729E-01  5.9371719163207E-01
89  8.8000000000000E-01  1.5177348007440E-01 -5.3812804360408E-01  4.3313678451768E-01
90  8.9000000000000E-01  1.3962644939373E-01 -4.7848480263660E-01  2.8086345355213E-01
91  9.0000000000000E-01  1.2566235600797E-01 -4.1836063808705E-01  1.3915648740465E-01
92  9.1000000000000E-01  1.1047171249732E-01 -3.5896678894944E-01  9.7447852756626E-03
93  9.2000000000000E-01  9.4584956379651E-02 -3.0133329371119E-01 -1.0617512826621E-01
94  9.3000000000000E-01  7.8490442402172E-02 -2.4636283892835E-01 -2.0771511468302E-01
95  9.4000000000000E-01  6.2632806158146E-02 -1.9483483821300E-01 -2.9425792831345E-01
96  9.5000000000000E-01  4.7406103867754E-02 -1.4739626430500E-01 -3.6546863907464E-01
97  9.6000000000000E-01  3.3148551959860E-02 -1.0455572786647E-01 -4.2129939253923E-01
98  9.7000000000000E-01  2.0138909881266E-02 -6.6680867651719E-02 -4.6198730651854E-01
99  9.8000000000000E-01  8.5944769579150E-03 -3.3998959141180E-02 -4.8804573239886E-01
100  9.9000000000000E-01 -1.3293596857961E-03 -6.6005838578489E-03 -5.0024923269354E-01
101  1.0000000000000E+00 -9.5381247244509E-03  1.5553869295982E-02 -4.9961277942097E-01
102  1.0100000000000E+00 -1.5995931480375E-02  3.2625161535139E-02 -4.8736581353047E-01
103  1.0200000000000E+00 -2.0721991795808E-02  4.4883963393706E-02 -4.6492192024371E-01
104  1.0300000000000E+00 -2.3786135671340E-02  5.2697800464150E-02 -4.3384496932725E-01
105  1.0400000000000E+00 -2.5303532685643E-02  5.6516600937740E-02 -3.9581263883901E-01
106  1.0500000000000E+00 -2.5428817085829E-02  5.6857279697815E-02 -3.5257828713944E-01
107  1.0600000000000E+00 -2.4349822629309E-02  5.4287801511231E-02 -3.0593215845079E-01
108  1.0700000000000E+00 -2.2281132405060E-02  4.9411163224811E-02 -2.5766290480589E-01
109  1.0800000000000E+00 -1.9457641356274E-02  4.2849718706261E-02 -2.0952037724349E-01
110  1.0900000000000E+00 -1.6128298049488E-02  3.5230215070264E-02 -1.6318054025705E-01
111  1.1000000000000E+00 -1.2556734051801E-02  2.7181680950159E-02 -1.2022564171175E-01
112  1.1100000000000E+00 -9.0416021047078E-03  1.9370495449673E-02 -8.2161226229187E-02
113  1.1200000000000E+00 -5.8097141910141E-03  1.2304614888680E-02 -5.0201931966473E-02
114  1.1300000000000E+00 -3.0851437231932E-03  6.4543370257157E-03 -2.5395463029007E-02
115  1.1400000000000E+00 -1.0990361407320E-03  2.2697570538796E-03 -8.6316499265208E-03
116  1.1500000000000E+00 -9.7107869719023E-05  1.9779697811555E-04 -7.2766607948996E-04
117  1.1600000000000E+00  2.6577368259588E-06 -5.3723427601021E-06  1.9386039310449E-05
118  1.1700000000000E+00  7.1569362366833E-07 -1.4645573675100E-06  5.4440031395464E-06
119  1.18 -0.  0. -0.
120  1.19  0.  0.  0.
121  1.20  0.  0.  0.
122  1.21  0.  0.  0.
123  1.22  0.  0.  0.
124  1.23  0.  0.  0.
125  1.24  0.  0.  0.
126  1.25  0.  0.  0.
127  1.26  0.  0.  0.
128  1.27  0.  0.  0.
129  1.28  0.  0.  0.
130  1.29  0.  0.  0.
131  1.30  0.  0.  0.
132  1.31  0.  0.  0.
133  1.32  0.  0.  0.
134  1.33  0.  0.  0.
135  1.34  0.  0.  0.
136  1.35  0.  0.  0.
137  1.36  0.  0.  0.
138  1.37  0.  0.  0.
139  1.38  0.  0.  0.
140  1.39  0.  0.  0.
141  1.40  0.  0.  0.
142  1.41  0.  0.  0.
143  1.42  0.  0.  0.
144  1.43  0.  0.  0.
145  1.44  0.  0.  0.
146  1.45  0.  0.  0.
147  1.46  0.  0.  0.
148  1.47  0.  0.  0.
149  1.48  0.  0.  0.
150  1.49  0.  0.  0.
151  1.50  0.  0.  0.
152  1.51  0.  0.  0.
153  1.52  0.  0.  0.
154  1.53  0.  0.  0.
155  1.54  0.  0.  0.
156  1.55  0.  0.  0.
157  1.56  0.  0.  0.
158  1.57  0.  0.  0.
159  1.58  0.  0.  0.
160  1.59  0.  0.  0.
161  1.60  0.  0.  0.
162  1.61  0.  0.  0.
163  1.62  0.  0.  0.
164  1.63  0.  0.  0.
165  1.64  0.  0.  0.
166  1.65  0.  0.  0.
167  1.66  0.  0.  0.
168  1.67  0.  0.  0.
169  1.68  0.  0.  0.
170  1.69  0.  0.  0.
171  1.70  0.  0.  0.
172  1.71  0.  0.  0.
173  1.72  0.  0.  0.
174  1.73  0.  0.  0.
175  1.74  0.  0.  0.
176  1.75  0.  0.  0.
177  1.76  0.  0.  0.
178  1.77  0.  0.  0.
179  1.78  0.  0.  0.
180  1.79  0.  0.  0.
181  1.80  0.  0.  0.
182  1.81  0.  0.  0.
183  1.82  0.  0.  0.
184  1.83  0.  0.  0.
185  1.84  0.  0.  0.
186  1.85  0.  0.  0.
187  1.86  0.  0.  0.
188  1.87  0.  0.  0.
189  1.88  0.  0.  0.
190  1.89  0.  0.  0.
191  1.90  0.  0.  0.
192  1.91  0.  0.  0.
193  1.92  0.  0.  0.
194  1.93  0.  0.  0.
195  1.94  0.  0.  0.
196  1.95  0.  0.  0.
197  1.96  0.  0.  0.
198  1.97  0.  0.  0.
199  1.98  0.  0.  0.
200  1.99  0.  0.  0.
201  2.00  0.  0.  0.
202  2.01  0.  0.  0.
203  2.02  0.  0.  0.
204  2.03  0.  0.  0.
205  2.04  0.  0.  0.
206  2.05  0.  0.  0.
207  2.06  0.  0.  0.
208  2.07  0.  0.  0.
209  2.08  0.  0.  0.
210  2.09  0.  0.  0.
211  2.10  0.  0.  0.
212  2.11  0.  0.  0.
213  2.12  0.  0.  0.
214  2.13  0.  0.  0.
215  2.14  0.  0.  0.
216  2.15  0.  0.  0.
217  2.16  0.  0.  0.
218  2.17  0.  0.  0.
219  2.18  0.  0.  0.
220  2.19  0.  0.  0.
221  2.20  0.  0.  0.
222  2.21  0.  0.  0.
223  2.22  0.  0.  0.
224  2.23  0.  0.  0.
225  2.24  0.  0.  0.
226  2.25  0.  0.  0.
227  2.26  0.  0.  0.
228  2.27  0.  0.  0.
229  2.28  0.  0.  0.
230  2.29  0.  0.  0.
231  2.30  0.  0.  0.
232  2.31  0.  0.  0.
233  2.32  0.  0.  0.
234  2.33  0.  0.  0.
235  2.34  0.  0.  0.
236  2.35  0.  0.  0.
237  2.36  0.  0.  0.
238  2.37  0.  0.  0.
239  2.38  0.  0.  0.
240  2.39  0.  0.  0.
241  2.40  0.  0.  0.
242  2.41  0.  0.  0.
243  2.42  0.  0.  0.
244  2.43  0.  0.  0.
245  2.44  0.  0.  0.
246  2.45  0.  0.  0.
247  2.46  0.  0.  0.
248  2.47  0.  0.  0.
249  2.48  0.  0.  0.
250  2.49  0.  0.  0.
251  2.50  0.  0.  0.
252  2.51  0.  0.  0.
253  2.52  0.  0.  0.
254  2.53  0.  0.  0.
255  2.54  0.  0.  0.
256  2.55  0.  0.  0.
257  2.56  0.  0.  0.
258  2.57  0.  0.  0.
259  2.58  0.  0.  0.
260  2.59  0.  0.  0.
261  2.60  0.  0.  0.
262  2.61  0.  0.  0.
263  2.62  0.  0.  0.
264  2.63  0.  0.  0.
265  2.64  0.  0.  0.
266  2.65  0.  0.  0.
267  2.66  0.  0.  0.
268  2.67  0.  0.  0.
269  2.68  0.  0.  0.
270  2.69  0.  0.  0.
271  2.70  0.  0.  0.
272  2.71  0.  0.  0.
273  2.72  0.  0.  0.
274  2.73  0.  0.  0.
275  2.74  0.  0.  0.
276  2.75  0.  0.  0.
277  2.76  0.  0.  0.
278  2.77  0.  0.  0.
279  2.78  0.  0.  0.
280  2.79  0.  0.  0.
281  2.80  0.  0.  0.
282  2.81  0.  0.  0.
283  2.82  0.  0.  0.
284  2.83  0.  0.  0.
285  2.84  0.  0.  0.
286  2.85  0.  0.  0.
287  2.86  0.  0.  0.
288  2.87  0.  0.  0.
289  2.88  0.  0.  0.
290  2.89  0.  0.  0.
291  2.90  0.  0.  0.
292  2.91  0.  0.  0.
293  2.92  0.  0.  0.
294  2.93  0.  0.  0.
295  2.94  0.  0.  0.
296  2.95  0.  0.  0.
297  2.96  0.  0.  0.
298  2.97  0.  0.  0.
299  2.98  0.  0.  0.
300  2.99  0.  0.  0.
301  3.00  0.  0.  0.
302  3.01  0.  0.  0.
303  3.02  0.  0.  0.
304  3.03  0.  0.  0.
305  3.04  0.  0.  0.
306  3.05  0.  0.  0.
307  3.06  0.  0.  0.
308  3.07  0.  0.  0.
309  3.08  0.  0.  0.
310  3.09  0.  0.  0.
311  3.10  0.  0.  0.
312  3.11  0.  0.  0.
313  3.12  0.  0.  0.
314  3.13  0.  0.  0.
315  3.14  0.  0.  0.
316  3.15  0.  0.  0.
317  3.16  0.  0.  0.
318  3.17  0.  0.  0.
319  3.18  0.  0.  0.
320  3.19  0.  0.  0.
321  3.20  0.  0.  0.
322  3.21  0.  0.  0.
323  3.22  0.  0.  0.
324  3.23  0.  0.  0.
325  3.24  0.  0.  0.
326  3.25  0.  0.  0.
327  3.26  0.  0.  0.
328  3.27  0.  0.  0.
329  3.28  0.  0.  0.
330  3.29  0.  0.  0.
331  3.30  0.  0.  0.
332  3.31  0.  0.  0.
333  3.32  0.  0.  0.
334  3.33  0.  0.  0.
335  3.34  0.  0.  0.
336  3.35  0.  0.  0.
337  3.36  0.  0.  0.
338  3.37  0.  0.  0.
339  3.38  0.  0.  0.
340  3.39  0.  0.  0.
341  3.40  0.  0.  0.
342  3.41  0.  0.  0.
343  3.42  0.  0.  0.
344  3.43  0.  0.  0.
345  3.44  0.  0.  0.
346  3.45  0.  0.  0.
347  3.46  0.  0.  0.
348  3.47  0.  0.  0.
349  3.48  0.  0.  0.
350  3.49  0.  0.  0.
351  3.50  0.  0.  0.
352  3.51  0.  0.  0.
353  3.52  0.  0.  0.
354  3.53  0.  0.  0.
355  3.54  0.  0.  0.
356  3.55  0.  0.  0.
357  3.56  0.  0.  0.
358  3.57  0.  0.  0.
359  3.58  0.  0.  0.
360  3.59  0.  0.  0.
361  3.60  0.  0.  0.
362  3.61  0.  0.  0.
363  3.62  0.  0.  0.
364  3.63  0.  0.  0.
365  3.64  0.  0.  0.
366  3.65  0.  0.  0.
367  3.66  0.  0.  0.
368  3.67  0.  0.  0.
369  3.68  0.  0.  0.
370  3.69  0.  0.  0.
371  3.70  0.  0.  0.
372  3.71  0.  0.  0.
373  3.72  0.  0.  0.
374  3.73  0.  0.  0.
375  3.74  0.  0.  0.
376  3.75  0.  0.  0.
377  3.76  0.  0.  0.
378  3.77  0.  0.  0.
379  3.78  0.  0.  0.
380  3.79  0.  0.  0.
381  3.80  0.  0.  0.
382  3.81  0.  0.  0.
383  3.82  0.  0.  0.
384  3.83  0.  0.  0.
385  3.84  0.  0.  0.
386  3.85  0.  0.  0.
387  3.86  0.  0.  0.
388  3.87  0.  0.  0.
389  3.88  0.  0.  0.
390  3.89  0.  0.  0.
391  3.90  0.  0.  0.
392  3.91  0.  0.  0.
393  3.92  0.  0.  0.
394  3.93  0.  0.  0.
395  3.94  0.  0.  0.
396  3.95  0.  0.  0.
397  3.96  0.  0.  0.
398  3.97  0.  0.  0.
399  3.98  0.  0.  0.
400  3.99  0.  0.  0.
401  4.00  0.  0.  0.
402  4.01  0.  0.  0.
403  4.02  0.  0.  0.
404  4.03  0.  0.  0.
405  4.04  0.  0.  0.
406  4.05  0.  0.  0.
407  4.06  0.  0.  0.
408  4.07  0.  0.  0.
409  4.08  0.  0.  0.
410  4.09  0.  0.  0.
411  4.10  0.  0.  0.
412  4.11  0.  0.  0.
413  4.12  0.  0.  0.
414  4.13  0.  0.  0.
415  4.14  0.  0.  0.
416  4.15  0.  0.  0.
417  4.16  0.  0.  0.
418  4.17  0.  0.  0.
419  4.18  0.  0.  0.
420  4.19  0.  0.  0.
421  4.20  0.  0.  0.
422  4.21  0.  0.  0.
423  4.22  0.  0.  0.
424  4.23  0.  0.  0.
425  4.24  0.  0.  0.
426  4.25  0.  0.  0.
427  4.26  0.  0.  0.
428  4.27  0.  0.  0.
429  4.28  0.  0.  0.
430  4.29  0.  0.  0.
431  4.30  0.  0.  0.
432  4.31  0.  0.  0.
433  4.32  0.  0.  0.
434  4.33  0.  0.  0.
435  4.34  0.  0.  0.
436  4.35  0.  0.  0.
437  4.36  0.  0.  0.
438  4.37  0.  0.  0.
439  4.38  0.  0.  0.
440  4.39  0.  0.  0.
441  4.40  0.  0.  0.
442  4.41  0.  0.  0.
443  4.42  0.  0.  0.
444  4.43  0.  0.  0.
445  4.44  0.  0.  0.
446  4.45  0.  0.  0.
447  4.46  0.  0.  0.
448  4.47  0.  0.  0.
449  4.48  0.  0.  0.
450  4.49  0.  0.  0.
451  4.50  0.  0.  0.
452  4.51  0.  0.  0.
453  4.52  0.  0.  0.
454  4.53  0.  0.  0.
455  4.54  0.  0.  0.
456  4.55  0.  0.  0.
457  4.56  0.  0.  0.
458  4.57  0.  0.  0.
459  4.58  0.  0.  0.
460  4.59  0.  0.  0.
461  4.60  0.  0.  0.
462  4.61  0.  0.  0.
463  4.62  0.  0.  0.
464  4.63  0.  0.  0.
465  4.64  0.  0.  0.
466  4.65  0.  0.  0.
467  4.66  0.  0.  0.
468  4.67  0.  0.  0.
469  4.68  0.  0.  0.
470  4.69  0.  0.  0.
471  4.70  0.  0.  0.
472  4.71  0.  0.  0.
473  4.72  0.  0.  0.
474  4.73  0.  0.  0.
475  4.74  0.  0.  0.
476  4.75  0.  0.  0.
477  4.76  0.  0.  0.
478  4.77  0.  0.  0.
479  4.78  0.  0.  0.
480  4.79  0.  0.  0.
481  4.80  0.  0.  0.
482  4.81  0.  0.  0.
483  4.82  0.  0.  0.
484  4.83  0.  0.  0.
485  4.84  0.  0.  0.
486  4.85  0.  0.  0.
487  4.86  0.  0.  0.
488  4.87  0.  0.  0.
489  4.88  0.  0.  0.
490  4.89  0.  0.  0.
491  4.90  0.  0.  0.
492  4.91  0.  0.  0.
493  4.92  0.  0.  0.
494  4.93  0.  0.  0.
495  4.94  0.  0.  0.
496  4.95  0.  0.  0.
497  4.96  0.  0.  0.
498  4.97  0.  0.  0.
499  4.98  0.  0.  0.
500  4.99  0.  0.  0.
501  5.00  0.  0.  0.
502  5.01  0.  0.  0.
503  5.02  0.  0.  0.
504  5.03  0.  0.  0.
505  5.04  0.  0.  0.
506  5.05  0.  0.  0.
507  5.06  0.  0.  0.
508  5.07  0.  0.  0.
509  5.08  0.  0.  0.
510  5.09  0.  0.  0.
511  5.10  0.  0.  0.
512  5.11  0.  0.  0.
513  5.12  0.  0.  0.
514  5.13  0.  0.  0.
515  5.14  0.  0.  0.
516  5.15  0.  0.  0.
517  5.16  0.  0.  0.
518  5.17  0.  0.  0.
519  5.18  0.  0.  0.
520  5.19  0.  0.  0.
521  5.20  0.  0.  0.
522  5.21  0.  0.  0.
523  5.22  0.  0.  0.
524  5.23  0.  0.  0.
525  5.24  0.  0.  0.
526  5.25  0.  0.  0.
527  5.26  0.  0.  0.
528  5.27  0.  0.  0.
529  5.28  0.  0.  0.
530  5.29  0.  0.  0.
531  5.30  0.  0.  0.
532  5.31  0.  0.  0.
533  5.32  0.  0.  0.
534  5.33  0.  0.  0.
535  5.34  0.  0.  0.
536  5.35  0.  0.  0.
537  5.36  0.  0.  0.
538  5.37  0.  0.  0.
539  5.38  0.  0.  0.
540  5.39  0.  0.  0.
541  5.40  0.  0.  0.
542  5.41  0.  0.  0.
543  5.42  0.  0.  0.
544  5.43  0.  0.  0.
545  5.44  0.  0.  0.
546  5.45  0.  0.  0.
547  5.46  0.  0.  0.
548  5.47  0.  0.  0.
549  5.48  0.  0.  0.
550  5.49  0.  0.  0.
551  5.50  0.  0.  0.
552  5.51  0.  0.  0.
553  5.52  0.  0.  0.
554  5.53  0.  0.  0.
555  5.54  0.  0.  0.
556  5.55  0.  0.  0.
557  5.56  0.  0.  0.
558  5.57  0.  0.  0.
559  5.58  0.  0.  0.
560  5.59  0.  0.  0.
561  5.60  0.  0.  0.
562  5.61  0.  0.  0.
563  5.62  0.  0.  0.
564  5.63  0.  0.  0.
565  5.64  0.  0.  0.
566  5.65  0.  0.  0.
567  5.66  0.  0.  0.
568  5.67  0.  0.  0.
569  5.68  0.  0.  0.
570  5.69  0.  0.  0.
571  5.70  0.  0.  0.
572  5.71  0.  0.  0.
573  5.72  0.  0.  0.
574  5.73  0.  0.  0.
575  5.74  0.  0.  0.
576  5.75  0.  0.  0.
577  5.76  0.  0.  0.
578  5.77  0.  0.  0.
579  5.78  0.  0.  0.
580  5.79  0.  0.  0.
581  5.80  0.  0.  0.
582  5.81  0.  0.  0.
583  5.82  0.  0.  0.
584  5.83  0.  0.  0.
585  5.84  0.  0.  0.
586  5.85  0.  0.  0.
587  5.86  0.  0.  0.
588  5.87  0.  0.  0.
589  5.88  0.  0.  0.
590  5.89  0.  0.  0.
591  5.90  0.  0.  0.
592  5.91  0.  0.  0.
593  5.92  0.  0.  0.
594  5.93  0.  0.  0.
595  5.94  0.  0.  0.
596  5.95  0.  0.  0.
597  5.96  0.  0.  0.
598  5.97  0.  0.  0.
599  5.98  0.  0.  0.
600  5.99  0.  0.  0.
1                         1.6850578601909E+01  2.9453546621093E+00
1  0.0000000000000E+00 -3.2049616849328E-09  2.2337501320857E-08
2  1.0000000000000E-02  4.4661932435414E-03 -1.0815578180889E-03
3  2.0000000000000E-02  1.7827273038267E-02 -4.3155557021372E-03
4  3.0000000000000E-02  3.9970943417284E-02 -9.6697195535636E-03
5  4.0000000000000E-02  7.0710727085196E-02 -1.7089450481319E-02
6  5.0000000000000E-02  1.0978700031571E-01 -2.6496666742872E-02
7  6.0000000000000E-02  1.5686846291879E-01 -3.7788290323084E-02
8  7.0000000000000E-02  2.1155406269734E-01 -5.0834480952961E-02
9  8.0000000000000E-02  2.7337539701847E-01 -6.5476742707771E-02
10  9.0000000000000E-02  3.4179961569369E-01 -8.1526045717185E-02
11  1.0000000000000E-01  4.1623284906395E-01 -9.8761117225985E-02
12  1.1000000000000E-01  4.9602418285871E-01 -1.1692706171615E-01
13  1.2000000000000E-01  5.8047019696197E-01 -1.3573446870915E-01
14  1.3000000000000E-01  6.6882007867628E-01 -1.5485915911227E-01
15  1.4000000000000E-01  7.6028131251659E-01 -1.7394270669137E-01
16  1.5000000000000E-01  8.5402593816477E-01 -1.9259385081753E-01
17  1.6000000000000E-01  9.4919735622774E-01 -2.1039089064471E-01
18  1.7000000000000E-01  1.0449176481985E+00 -2.2688512013869E-01
19  1.8000000000000E-01  1.1402953629147E+00 -2.4160532888585E-01
20  1.9000000000000E-01  1.2344337072911E+00 -2.5406335651276E-01
21  2.0000000000000E-01  1.3264390646625E+00 -2.6376065010734E-01
22  2.1000000000000E-01  1.4154297502113E+00 -2.7019573559275E-01
23  2.2000000000000E-01  1.5005449002011E+00 -2.7287247693685E-01
24  2.3000000000000E-01  1.5809533805817E+00 -2.7130896274209E-01
25  2.4000000000000E-01  1.6558625914539E+00 -2.6504682944505E-01
26  2.5000000000000E-01  1.7245270373117E+00 -2.5366080524639E-01
27  2.6000000000000E-01  1.7862565292649E+00 -2.3676824002042E-01
28  2.7000000000000E-01  1.8404238848816E+00 -2.1403837465499E-01
29  2.8000000000000E-01  1.8864719940544E+00 -1.8520109915550E-01
30  2.9000000000000E-01  1.9239201254853E+00 -1.5005495276603E-01
31  3.0000000000000E-01  1.9523693579696E+00 -1.0847413139570E-01
32  3.1000000000000E-01  1.9715070335182E+00 -6.0414287588841E-02
33  3.2000000000000E-01  1.9811101452366E+00 -5.9169356572909E-03
34  3.3000000000000E-01  1.9810475914384E+00  5.4887691351903E-02
35  3.4000000000000E-01  1.9712812482575E+00  1.2177944645882E-01
36  3.5000000000000E-01  1.9518658355121E+00  1.9444880476855E-01
37  3.6000000000000E-01  1.9229475741544E+00  2.7249915296156E-01
38  3.7000000000000E-01  1.8847616576781E+00  3.5545080584206E-01
39  3.8000000000000E-01  1.8376285836493E+00  4.4274667500379E-01
40  3.9000000000000E-01  1.7819494144057E+00  5.3375946794274E-01
41  4.0000000000000E-01  1.7182000572517E+00  6.2780025263328E-01
42  4.1000000000000E-01  1.6469246735314E+00  7.2412818420775E-01
43  4.2000000000000E-01  1.5687283422245E+00  8.2196115831288E-01
44  4.3000000000000E-01  1.4842691166908E+00  9.2048713112189E-01
45  4.4000000000000E-01  1.3942496224979E+00  1.0188758297698E+00
46  4.5000000000000E-01  1.2994083496542E+00  1.1162905697706E+00
47  4.6000000000000E-01  1.2005107938746E+00  1.2118998980655E+00
48  4.7000000000000E-01  1.0983405987403E+00  1.3048887917053E+00
49  4.8000000000000E-01  9.9369084390582E-01  1.3944691624017E+00
50  4.9000000000000E-01  8.8735561411781E-01  1.4798894455876E+00
51  5.0000000000000E-01  7.8012197013298E-01  1.5604430881708E+00
52  5.1000000000000E-01  6.7276242616279E-01  1.6354757905614E+00
53  5.2000000000000E-01  5.6602801981852E-01  1.7043914042602E+00
54  5.3000000000000E-01  4.6064204035637E-01  1.7666564346181E+00
55  5.4000000000000E-01  3.5729446004057E-01  1.8218031474882E+00
56  5.5000000000000E-01  2.5663709239183E-01  1.8694313265506E+00
57  5.6000000000000E-01  1.5927948069938E-01  1.9092087732494E+00
58  5.7000000000000E-01  6.5785501143585E-02  1.9408706818279E+00
59  5.8000000000000E-01 -2.3329352160410E-02  1.9642180563157E+00
60  5.9000000000000E-01 -1.0760004737852E-01  1.9791153631908E+00
61  6.0000000000000E-01 -1.8661351911313E-01  1.9854876317620E+00
62  6.1000000000000E-01 -2.6000966336224E-01  1.9833172233862E+00
63  6.2000000000000E-01 -3.2748189482638E-01  1.9726404900948E+00
64  6.3000000000000E-01 -3.8877733923238E-01  1.9535445330614E+00
65  6.4000000000000E-01 -4.4369673100415E-01  1.9261642520006E+00
66  6.5000000000000E-01 -4.9209408103243E-01  1.8906798487713E+00
67  6.6000000000000E-01 -5.3387617082458E-01  1.8473149132390E+00
68  6.7000000000000E-01 -5.6900191840450E-01  1.7963351781664E+00
69  6.8000000000000E-01 -5.9748164851868E-01  1.7380479841053E+00
70  6.9000000000000E-01 -6.1937628557986E-01  1.6728024466602E+00
71  7.0000000000000E-01 -6.3479647296964E-01  1.6009902688564E+00
72  7.1000000000000E-01 -6.4390160744717E-01  1.5230470924444E+00
73  7.2000000000000E-01 -6.4689876306692E-01  1.4394542354777E+00
74  7.3000000000000E-01 -6.4404146572237E-01  1.3507406209215E+00
75  7.4000000000000E-01 -6.3562826765154E-01  1.2574846636416E+00
76  7.5000000000000E-01 -6.2200106129396E-01  1.1603158518502E+00
77  7.6000000000000E-01 -6.0354306397817E-01  1.0599157345283E+00
78  7.7000000000000E-01 -5.8067639909997E-01  9.5701800870549E-01
79  7.8000000000000E-01 -5.5385919562334E-01  8.5240738952754E-01
80  7.9000000000000E-01 -5.2358212564305E-01  7.4691694110381E-01
81  8.0000000000000E-01 -4.9036429897918E-01  6.4142354613441E-01
82  8.1000000000000E-01 -4.5474843377523E-01  5.3684119576538E-01
83  8.2000000000000E-01 -4.1729522215727E-01  4.3411178617419E-01
84  8.3000000000000E-01 -3.7857680938839E-01  3.3419311288605E-01
85  8.4000000000000E-01 -3.3916930273555E-01  2.3804375535829E-01
86  8.5000000000000E-01 -2.9964422151265E-01  1.4660454036466E-01
87  8.6000000000000E-01 -2.6055879149511E-01  6.0776260474653E-02
88  8.7000000000000E-01 -2.2244497413535E-01 -1.8606699255188E-02
89  8.8000000000000E-01 -1.8579710278581E-01 -9.0807210043312E-02
90  8.9000000000000E-01 -1.5105797307152E-01 -1.5522116189819E-01
91  9.0000000000000E-01 -1.1860322028535E-01 -2.1141858653809E-01
92  9.1000000000000E-01 -8.8724371960666E-02 -2.5918854943022E-01
93  9.2000000000000E-01 -6.1629913439609E-02 -2.9851959677324E-01
94  9.3000000000000E-01 -3.7469686953250E-02 -3.2950408999458E-01
95  9.4000000000000E-01 -1.6339276630838E-02 -3.5232188724205E-01
96  9.5000000000000E-01  1.7205993560827E-03 -3.6724394027163E-01
97  9.6000000000000E-01  1.6723753370750E-02 -3.7463387145795E-01
98  9.7000000000000E-01  2.8737168863538E-02 -3.7494725239920E-01
99  9.8000000000000E-01  3.7878590089257E-02 -3.6872847261947E-01
100  9.9000000000000E-01  4.4313059136645E-02 -3.5660514393406E-01
101  1.0000000000000E+00  4.8248429313759E-02 -3.3928006381900E-01
102  1.0100000000000E+00  4.9929915152406E-02 -3.1752084013685E-01
103  1.0200000000000E+00  4.9633769717438E-02 -2.9214735702251E-01
104  1.0300000000000E+00  4.7660208749473E-02 -2.6401733581055E-01
105  1.0400000000000E+00  4.4325727202104E-02 -2.3401031228637E-01
106  1.0500000000000E+00  3.9954976215265E-02 -2.0301041051464E-01
107  1.0600000000000E+00  3.4872386464879E-02 -1.7188834125718E-01
108  1.0700000000000E+00  2.9393736729748E-02 -1.4148308859463E-01
109  1.0800000000000E+00  2.3817874715613E-02 -1.1258377238235E-01
110  1.0900000000000E+00  1.8418802269804E-02 -8.5912181388631E-02
111  1.1000000000000E+00  1.3433274017032E-02 -6.2093636523796E-02
112  1.1100000000000E+00  9.0312791221650E-03 -4.1581840965815E-02
113  1.1200000000000E+00  5.3917001722801E-03 -2.4854565252069E-02
114  1.1300000000000E+00  2.6467106228256E-03 -1.2277899788668E-02
115  1.1400000000000E+00  8.6676450184457E-04 -4.0675410438620E-03
116  1.1500000000000E+00  6.9780023172227E-05 -3.3328630550799E-04
117  1.1600000000000E+00 -1.8058168487541E-06  8.7238666109453E-06
118  1.1700000000000E+00 -5.3022209760417E-07  2.5164416220608E-06
119  1.18 -0.  0.
120  1.19  0.  0.
121  1.20  0.  0.
122  1.21  0.  0.
123  1.22  0.  0.
124  1.23  0.  0.
125  1.24  0.  0.
126  1.25  0.  0.
127  1.26  0.  0.
128  1.27  0.  0.
129  1.28  0.  0.
130  1.29  0.  0.
131  1.30  0.  0.
132  1.31  0.  0.
133  1.32  0.  0.
134  1.33  0.  0.
135  1.34  0.  0.
136  1.35  0.  0.
137  1.36  0.  0.
138  1.37  0.  0.
139  1.38  0.  0.
140  1.39  0.  0.
141  1.40  0.  0.
142  1.41  0.  0.
143  1.42  0.  0.
144  1.43  0.  0.
145  1.44  0.  0.
146  1.45  0.  0.
147  1.46  0.  0.
148  1.47  0.  0.
149  1.48  0.  0.
150  1.49  0.  0.
151  1.50  0.  0.
152  1.51  0.  0.
153  1.52  0.  0.
154  1.53  0.  0.
155  1.54  0.  0.
156  1.55  0.  0.
157  1.56  0.  0.
158  1.57  0.  0.
159  1.58  0.  0.
160  1.59  0.  0.
161  1.60  0.  0.
162  1.61  0.  0.
163  1.62  0.  0.
164  1.63  0.  0.
165  1.64  0.  0.