Md    ONCVPSP-4.0.1  r_core=   1.15366   1.15366   1.15366   1.35588
101.0000     41.0000      220205    zatom,zion,pspd
8      11   3     4   600     0    pspcod,pspxc,lmax,lloc,mmax,r2well
5.99000000  5.00000000  0.00000000    rchrg fchrg qchrg
3     2     2     2     0    nproj
1     1           extension_switch
0                         2.0323820520342E+01  2.4935857164451E+00 -2.4127261464554E+00
1  0.0000000000000E+00 -1.1191918636300E-07 -3.6422710036899E-07 -2.5285638249883E-08
2  1.0000000000000E-02  1.6543598459453E-01  7.4902012814023E-02  4.1250229013009E-02
3  2.0000000000000E-02  3.2934575460832E-01  1.4730283505212E-01  8.2303224512739E-02
4  3.0000000000000E-02  4.9023144753127E-01  2.1477997138415E-01  1.2296698664611E-01
5  4.0000000000000E-02  6.4665104323011E-01  2.7506556590091E-01  1.6305979826756E-01
6  5.0000000000000E-02  7.9724416148921E-01  3.2611694420285E-01  2.0241491173764E-01
7  6.0000000000000E-02  9.4075539617249E-01  3.6617929881479E-01  2.4088470952291E-01
8  7.0000000000000E-02  1.0760545031708E+00  3.9383834891842E-01  2.7834419451487E-01
9  8.0000000000000E-02  1.2021528712179E+00  4.0806116962133E-01  3.1469369127144E-01
10  9.0000000000000E-02  1.3182158365792E+00  4.0822381546376E-01  3.4986066911517E-01
11  1.0000000000000E-01  1.4235705496631E+00  3.9412484181446E-01  3.8380063105516E-01
12  1.1000000000000E-01  1.5177092583429E+00  3.6598433862242E-01  4.1649704756346E-01
13  1.2000000000000E-01  1.6002880334171E+00  3.2442861490538E-01  4.4796034998557E-01
14  1.3000000000000E-01  1.6711211202644E+00  2.7046119013271E-01  4.7822603342305E-01
15  1.4000000000000E-01  1.7301712515112E+00  2.0542124129749E-01  5.0735195195036E-01
16  1.5000000000000E-01  1.7775363929019E+00  1.3093110391141E-01  5.3541491875000E-01
17  1.6000000000000E-01  1.8134335134962E+00  4.8834814942352E-02  5.6250674903293E-01
18  1.7000000000000E-01  1.8381800674944E+00 -3.8869998397623E-02  5.8872990348798E-01
19  1.8000000000000E-01  1.8521739449140E+00 -1.3010434962029E-01  6.1419290372068E-01
20  1.9000000000000E-01  1.8558726895256E+00 -2.2278157255389E-01  6.3900569817957E-01
21  2.0000000000000E-01  1.8497727934812E+00 -3.1487974031432E-01  6.6327515717056E-01
22  2.1000000000000E-01  1.8343898586484E+00 -4.0451017615602E-01  6.8710086873716E-01
23  2.2000000000000E-01  1.8102403656509E+00 -4.8997956784754E-01  7.1057139371731E-01
24  2.3000000000000E-01  1.7778257149750E+00 -5.6984344771211E-01  7.3376111871235E-01
25  2.4000000000000E-01  1.7376191032192E+00 -6.4294913289727E-01  7.5672782079613E-01
26  2.5000000000000E-01  1.6900556755541E+00 -7.0846662235501E-01  7.7951102853240E-01
27  2.6000000000000E-01  1.6355262574107E+00 -7.6590640343143E-01  8.0213123140684E-01
28  2.7000000000000E-01  1.5743748195934E+00 -8.1512361490424E-01  8.2458995538992E-01
29  2.8000000000000E-01  1.5068996771040E+00 -8.5630852641014E-01  8.4687068737615E-01
30  2.9000000000000E-01  1.4333582688159E+00 -8.8996380744945E-01  8.6894059706444E-01
31  3.0000000000000E-01  1.3539752185678E+00 -9.1686955353606E-01  8.9075297279041E-01
32  3.1000000000000E-01  1.2689532438155E+00 -9.3803749429917E-01  9.1225025915028E-01
33  3.2000000000000E-01  1.1784863607861E+00 -9.5465621157817E-01  9.3336756008826E-01
34  3.3000000000000E-01  1.0827747395445E+00 -9.6802952995037E-01  9.5403645240008E-01
35  3.4000000000000E-01  9.8204049213272E-01 -9.7951049543173E-01  9.7418894206684E-01
36  3.5000000000000E-01  8.7654363461904E-01 -9.9043352108207E-01  9.9376138996483E-01
37  3.6000000000000E-01  7.6659745109524E-01 -1.0020473450618E+00  1.0126982345267E+00
38  3.7000000000000E-01  6.5258250486592E-01 -1.0154514150541E+00  1.0309553468162E+00
39  3.8000000000000E-01  5.3495858862485E-01 -1.0315381842636E+00  1.0485028679143E+00
40  3.9000000000000E-01  4.1427397955523E-01 -1.0509435833906E+00  1.0653273989275E+00
41  4.0000000000000E-01  2.9117146422182E-01 -1.0740076284399E+00  1.0814334395334E+00
42  4.1000000000000E-01  1.6639071812138E-01 -1.1007467473900E+00  1.0968440007520E+00
43  4.2000000000000E-01  4.0766761308128E-02 -1.1308389737226E+00  1.1116003504353E+00
44  4.3000000000000E-01 -8.4775640511950E-02 -1.1636226777752E+00  1.1257608844977E+00
45  4.4000000000000E-01 -2.0923160616606E-01 -1.1981090055387E+00  1.1393991518377E+00
46  4.5000000000000E-01 -3.3152962324301E-01 -1.2330076873924E+00  1.1526010948548E+00
47  4.6000000000000E-01 -4.5054856076352E-01 -1.2667653850200E+00  1.1654615991304E+00
48  4.7000000000000E-01 -5.6513774746308E-01 -1.2976152814809E+00  1.1780804739910E+00
49  4.8000000000000E-01 -6.7413953185528E-01 -1.3236362040062E+00  1.1905580092092E+00
50  4.9000000000000E-01 -7.7641363992790E-01 -1.3428192165670E+00  1.2029902711335E+00
51  5.0000000000000E-01 -8.7086257037417E-01 -1.3531393422476E+00  1.2154643133617E+00
52  5.1000000000000E-01 -9.5645721842815E-01 -1.3526298837146E+00  1.2280534822650E+00
53  5.2000000000000E-01 -1.0322618993929E+00 -1.3394567101775E+00  1.2408129960226E+00
54  5.3000000000000E-01 -1.0974579524748E+00 -1.3119898743130E+00  1.2537759674412E+00
55  5.4000000000000E-01 -1.1513651441250E+00 -1.2688700123122E+00  1.2669500260418E+00
56  5.5000000000000E-01 -1.1934601562296E+00 -1.2090671606625E+00  1.2803146742930E+00
57  5.6000000000000E-01 -1.2233915356579E+00 -1.1319298873270E+00  1.2938194872689E+00
58  5.7000000000000E-01 -1.2409905944542E+00 -1.0372229725145E+00  1.3073832354100E+00
59  5.8000000000000E-01 -1.2462778801609E+00 -9.2515227246329E-01  1.3208939776121E+00
60  5.9000000000000E-01 -1.2394649785908E+00 -7.9637584378226E-01  1.3342101378236E+00
61  6.0000000000000E-01 -1.2209515616367E+00 -6.5200087951730E-01  1.3471625439729E+00
62  6.1000000000000E-01 -1.1913177449931E+00 -4.9356649400803E-01  1.3595573746986E+00
63  6.2000000000000E-01 -1.1513119695588E+00 -3.2301287427034E-01  1.3711799282404E+00
64  6.3000000000000E-01 -1.1018347605571E+00 -1.4263777401457E-01  1.3817991001254E+00
65  6.4000000000000E-01 -1.0439188452277E+00  4.4958253541442E-02  1.3911724329388E+00
66  6.5000000000000E-01 -9.7870621904579E-01  2.3693612058781E-01  1.3990515833244E+00
67  6.6000000000000E-01 -9.0742283825234E-01  4.3028990156257E-01  1.4051880390085E+00
68  6.7000000000000E-01 -8.3135168034104E-01  6.2192366849160E-01  1.4093389124472E+00
69  6.8000000000000E-01 -7.5180495223764E-01  8.0873102533288E-01  1.4112726377833E+00
70  6.9000000000000E-01 -6.7009623743156E-01  9.8767484106327E-01  1.4107744040326E+00
71  7.0000000000000E-01 -5.8751335843960E-01  1.1558647064087E+00  1.4076511694302E+00
72  7.1000000000000E-01 -5.0529269082450E-01  1.3106297477227E+00  1.4017361190837E+00
73  7.2000000000000E-01 -4.2459560158328E-01  1.4495846180931E+00  1.3928924497102E+00
74  7.3000000000000E-01 -3.4648760085312E-01  1.5706867422424E+00  1.3810163903633E+00
75  7.4000000000000E-01 -2.7192069505080E-01  1.6722832076749E+00  1.3660393956268E+00
76  7.5000000000000E-01 -2.0171931573385E-01  1.7531460575991E+00  1.3479294766649E+00
77  7.6000000000000E-01 -1.3657007599559E-01  1.8124951377145E+00  1.3266916646287E+00
78  7.7000000000000E-01 -7.7015479590567E-02  1.8500080645423E+00  1.3023676291227E+00
79  7.8000000000000E-01 -2.3451581740502E-02  1.8658173028745E+00  1.2750345006956E+00
80  7.9000000000000E-01  2.3870520982635E-02  1.8604947497098E+00  1.2448029697105E+00
81  8.0000000000000E-01  6.4839607141307E-02  1.8350246080796E+00  1.2118147536929E+00
82  8.1000000000000E-01  9.9475989344634E-02  1.7907656841535E+00  1.1762395407459E+00
83  8.2000000000000E-01  1.2792033708229E-01  1.7294045442972E+00  1.1382715274598E+00
84  8.3000000000000E-01  1.5042015296160E-01  1.6529012167091E+00  1.0981256757186E+00
85  8.4000000000000E-01  1.6731444082030E-01  1.5634293084883E+00  1.0560338139322E+00
86  8.5000000000000E-01  1.7901713339127E-01  1.4633125294499E+00  1.0122407047027E+00
87  8.6000000000000E-01  1.8599985655677E-01  1.3549596670674E+00  9.6700019315564E-01
88  8.7000000000000E-01  1.8877459738913E-01  1.2408000432311E+00  9.2057153867875E-01
89  8.8000000000000E-01  1.8787681541034E-01  1.1232214059075E+00  8.7321601828563E-01
90  8.9000000000000E-01  1.8384949261814E-01  1.0045120719556E+00  8.2519387302559E-01
91  9.0000000000000E-01  1.7722856005061E-01  8.8680894761998E-01  7.7676165060136E-01
92  9.1000000000000E-01  1.6853006951986E-01  7.7205281808256E-01  7.2816997846367E-01
93  9.2000000000000E-01  1.5823940131671E-01  6.6195202524316E-01  6.7966178290983E-01
94  9.3000000000000E-01  1.4680271487744E-01  5.5795535234876E-01  6.3147095184189E-01
95  9.4000000000000E-01  1.3462076220195E-01  4.6123461389324E-01  5.8382142244849E-01
96  9.5000000000000E-01  1.2204509557348E-01  3.7267711764534E-01  5.3692666063306E-01
97  9.6000000000000E-01  1.0937661389496E-01  2.9288783033609E-01  4.9098948683135E-01
98  9.7000000000000E-01  9.6866307259190E-02  2.2220074567773E-01  4.4620219306811E-01
99  9.8000000000000E-01  8.4717978372439E-02  1.6069862837078E-01  4.0274688864425E-01
100  9.9000000000000E-01  7.3092642633291E-02  1.0823999390667E-01  3.6079600647051E-01
101  1.0000000000000E+00  6.2114236104490E-02  6.4491883580199E-02  3.2051289834353E-01
102  1.0100000000000E+00  5.1876191642342E-02  2.8966707071325E-02  2.8205244479761E-01
103  1.0200000000000E+00  4.2448377091798E-02  1.0611503867615E-03  2.4556160281474E-01
104  1.0300000000000E+00  3.3883824124384E-02 -1.9905118134919E-02  2.1117981177029E-01
105  1.0400000000000E+00  2.6224609995395E-02 -3.4653470999049E-02  1.7903917357154E-01
106  1.0500000000000E+00  1.9506184955235E-02 -4.3915861219590E-02  1.4926431597949E-01
107  1.0600000000000E+00  1.3759362861076E-02 -4.8412931936446E-02  1.2197183757547E-01
108  1.0700000000000E+00  9.0091087196062E-03 -4.8844029734700E-02  9.7269217644024E-02
109  1.0800000000000E+00  5.2691638192969E-03 -4.5892751268469E-02  7.5253054965434E-02
110  1.0900000000000E+00  2.5314619833029E-03 -4.0251941248398E-02  5.6006478046446E-02
111  1.1000000000000E+00  7.4104269126881E-04 -3.2694880332356E-02  3.9588668004603E-02
112  1.1100000000000E+00 -2.6121319449729E-04 -2.4246548213446E-02  2.5999020116437E-02
113  1.1200000000000E+00 -6.2786062630657E-04 -1.5867587037752E-02  1.5280415667306E-02
114  1.1300000000000E+00 -5.5449479886537E-04 -8.5087379035833E-03  7.4411433472939E-03
115  1.1400000000000E+00 -2.6920024745949E-04 -3.0402761033322E-03  2.4362711142950E-03
116  1.1500000000000E+00 -2.9755208149178E-05 -2.6797174151002E-04  1.9770675433553E-04
117  1.1600000000000E+00  9.0451133507024E-07  7.3248075695620E-06 -5.1447659284704E-06
118  1.1700000000000E+00  2.0552831636161E-07  1.9782332331224E-06 -1.4970020904087E-06
119  1.18 -0. -0. -0.
120  1.19  0.  0.  0.
121  1.20  0.  0.  0.
122  1.21  0.  0.  0.
123  1.22  0.  0.  0.
124  1.23  0.  0.  0.
125  1.24  0.  0.  0.
126  1.25  0.  0.  0.
127  1.26  0.  0.  0.
128  1.27  0.  0.  0.
129  1.28  0.  0.  0.
130  1.29  0.  0.  0.
131  1.30  0.  0.  0.
132  1.31  0.  0.  0.
133  1.32  0.  0.  0.
134  1.33  0.  0.  0.
135  1.34  0.  0.  0.
136  1.35  0.  0.  0.
137  1.36  0.  0.  0.
138  1.37  0.  0.  0.
139  1.38  0.  0.  0.
140  1.39  0.  0.  0.
141  1.40  0.  0.  0.
142  1.41  0.  0.  0.
143  1.42  0.  0.  0.
144  1.43  0.  0.  0.
145  1.44  0.  0.  0.
146  1.45  0.  0.  0.
147  1.46  0.  0.  0.
148  1.47  0.  0.  0.
149  1.48  0.  0.  0.
150  1.49  0.  0.  0.
151  1.50  0.  0.  0.
152  1.51  0.  0.  0.
153  1.52  0.  0.  0.
154  1.53  0.  0.  0.
155  1.54  0.  0.  0.
156  1.55  0.  0.  0.
157  1.56  0.  0.  0.
158  1.57  0.  0.  0.
159  1.58  0.  0.  0.
160  1.59  0.  0.  0.
161  1.60  0.  0.  0.
162  1.61  0.  0.  0.
163  1.62  0.  0.  0.
164  1.63  0.  0.  0.
165  1.64  0.  0.  0.
166  1.65  0.  0.  0.
167  1.66  0.  0.  0.
168  1.67  0.  0.  0.
169  1.68  0.  0.  0.
170  1.69  0.  0.  0.
171  1.70  0.  0.  0.
172  1.71  0.  0.  0.
173  1.72  0.  0.  0.
174  1.73  0.  0.  0.
175  1.74  0.  0.  0.
176  1.75  0.  0.  0.
177  1.76  0.  0.  0.
178  1.77  0.  0.  0.
179  1.78  0.  0.  0.
180  1.79  0.  0.  0.
181  1.80  0.  0.  0.
182  1.81  0.  0.  0.
183  1.82  0.  0.  0.
184  1.83  0.  0.  0.
185  1.84  0.  0.  0.
186  1.85  0.  0.  0.
187  1.86  0.  0.  0.
188  1.87  0.  0.  0.
189  1.88  0.  0.  0.
190  1.89  0.  0.  0.
191  1.90  0.  0.  0.
192  1.91  0.  0.  0.
193  1.92  0.  0.  0.
194  1.93  0.  0.  0.
195  1.94  0.  0.  0.
196  1.95  0.  0.  0.
197  1.96  0.  0.  0.
198  1.97  0.  0.  0.
199  1.98  0.  0.  0.
200  1.99  0.  0.  0.
201  2.00  0.  0.  0.
202  2.01  0.  0.  0.
203  2.02  0.  0.  0.
204  2.03  0.  0.  0.
205  2.04  0.  0.  0.
206  2.05  0.  0.  0.
207  2.06  0.  0.  0.
208  2.07  0.  0.  0.
209  2.08  0.  0.  0.
210  2.09  0.  0.  0.
211  2.10  0.  0.  0.
212  2.11  0.  0.  0.
213  2.12  0.  0.  0.
214  2.13  0.  0.  0.
215  2.14  0.  0.  0.
216  2.15  0.  0.  0.
217  2.16  0.  0.  0.
218  2.17  0.  0.  0.
219  2.18  0.  0.  0.
220  2.19  0.  0.  0.
221  2.20  0.  0.  0.
222  2.21  0.  0.  0.
223  2.22  0.  0.  0.
224  2.23  0.  0.  0.
225  2.24  0.  0.  0.
226  2.25  0.  0.  0.
227  2.26  0.  0.  0.
228  2.27  0.  0.  0.
229  2.28  0.  0.  0.
230  2.29  0.  0.  0.
231  2.30  0.  0.  0.
232  2.31  0.  0.  0.
233  2.32  0.  0.  0.
234  2.33  0.  0.  0.
235  2.34  0.  0.  0.
236  2.35  0.  0.  0.
237  2.36  0.  0.  0.
238  2.37  0.  0.  0.
239  2.38  0.  0.  0.
240  2.39  0.  0.  0.
241  2.40  0.  0.  0.
242  2.41  0.  0.  0.
243  2.42  0.  0.  0.
244  2.43  0.  0.  0.
245  2.44  0.  0.  0.
246  2.45  0.  0.  0.
247  2.46  0.  0.  0.
248  2.47  0.  0.  0.
249  2.48  0.  0.  0.
250  2.49  0.  0.  0.
251  2.50  0.  0.  0.
252  2.51  0.  0.  0.
253  2.52  0.  0.  0.
254  2.53  0.  0.  0.
255  2.54  0.  0.  0.
256  2.55  0.  0.  0.
257  2.56  0.  0.  0.
258  2.57  0.  0.  0.
259  2.58  0.  0.  0.
260  2.59  0.  0.  0.
261  2.60  0.  0.  0.
262  2.61  0.  0.  0.
263  2.62  0.  0.  0.
264  2.63  0.  0.  0.
265  2.64  0.  0.  0.
266  2.65  0.  0.  0.
267  2.66  0.  0.  0.
268  2.67  0.  0.  0.
269  2.68  0.  0.  0.
270  2.69  0.  0.  0.
271  2.70  0.  0.  0.
272  2.71  0.  0.  0.
273  2.72  0.  0.  0.
274  2.73  0.  0.  0.
275  2.74  0.  0.  0.
276  2.75  0.  0.  0.
277  2.76  0.  0.  0.
278  2.77  0.  0.  0.
279  2.78  0.  0.  0.
280  2.79  0.  0.  0.
281  2.80  0.  0.  0.
282  2.81  0.  0.  0.
283  2.82  0.  0.  0.
284  2.83  0.  0.  0.
285  2.84  0.  0.  0.
286  2.85  0.  0.  0.
287  2.86  0.  0.  0.
288  2.87  0.  0.  0.
289  2.88  0.  0.  0.
290  2.89  0.  0.  0.
291  2.90  0.  0.  0.
292  2.91  0.  0.  0.
293  2.92  0.  0.  0.
294  2.93  0.  0.  0.
295  2.94  0.  0.  0.
296  2.95  0.  0.  0.
297  2.96  0.  0.  0.
298  2.97  0.  0.  0.
299  2.98  0.  0.  0.
300  2.99  0.  0.  0.
301  3.00  0.  0.  0.
302  3.01  0.  0.  0.
303  3.02  0.  0.  0.
304  3.03  0.  0.  0.
305  3.04  0.  0.  0.
306  3.05  0.  0.  0.
307  3.06  0.  0.  0.
308  3.07  0.  0.  0.
309  3.08  0.  0.  0.
310  3.09  0.  0.  0.
311  3.10  0.  0.  0.
312  3.11  0.  0.  0.
313  3.12  0.  0.  0.
314  3.13  0.  0.  0.
315  3.14  0.  0.  0.
316  3.15  0.  0.  0.
317  3.16  0.  0.  0.
318  3.17  0.  0.  0.
319  3.18  0.  0.  0.
320  3.19  0.  0.  0.
321  3.20  0.  0.  0.
322  3.21  0.  0.  0.
323  3.22  0.  0.  0.
324  3.23  0.  0.  0.
325  3.24  0.  0.  0.
326  3.25  0.  0.  0.
327  3.26  0.  0.  0.
328  3.27  0.  0.  0.
329  3.28  0.  0.  0.
330  3.29  0.  0.  0.
331  3.30  0.  0.  0.
332  3.31  0.  0.  0.
333  3.32  0.  0.  0.
334  3.33  0.  0.  0.
335  3.34  0.  0.  0.
336  3.35  0.  0.  0.
337  3.36  0.  0.  0.
338  3.37  0.  0.  0.
339  3.38  0.  0.  0.
340  3.39  0.  0.  0.
341  3.40  0.  0.  0.
342  3.41  0.  0.  0.
343  3.42  0.  0.  0.
344  3.43  0.  0.  0.
345  3.44  0.  0.  0.
346  3.45  0.  0.  0.
347  3.46  0.  0.  0.
348  3.47  0.  0.  0.
349  3.48  0.  0.  0.
350  3.49  0.  0.  0.
351  3.50  0.  0.  0.
352  3.51  0.  0.  0.
353  3.52  0.  0.  0.
354  3.53  0.  0.  0.
355  3.54  0.  0.  0.
356  3.55  0.  0.  0.
357  3.56  0.  0.  0.
358  3.57  0.  0.  0.
359  3.58  0.  0.  0.
360  3.59  0.  0.  0.
361  3.60  0.  0.  0.
362  3.61  0.  0.  0.
363  3.62  0.  0.  0.
364  3.63  0.  0.  0.
365  3.64  0.  0.  0.
366  3.65  0.  0.  0.
367  3.66  0.  0.  0.
368  3.67  0.  0.  0.
369  3.68  0.  0.  0.
370  3.69  0.  0.  0.
371  3.70  0.  0.  0.
372  3.71  0.  0.  0.
373  3.72  0.  0.  0.
374  3.73  0.  0.  0.
375  3.74  0.  0.  0.
376  3.75  0.  0.  0.
377  3.76  0.  0.  0.
378  3.77  0.  0.  0.
379  3.78  0.  0.  0.
380  3.79  0.  0.  0.
381  3.80  0.  0.  0.
382  3.81  0.  0.  0.
383  3.82  0.  0.  0.
384  3.83  0.  0.  0.
385  3.84  0.  0.  0.
386  3.85  0.  0.  0.
387  3.86  0.  0.  0.
388  3.87  0.  0.  0.
389  3.88  0.  0.  0.
390  3.89  0.  0.  0.
391  3.90  0.  0.  0.
392  3.91  0.  0.  0.
393  3.92  0.  0.  0.
394  3.93  0.  0.  0.
395  3.94  0.  0.  0.
396  3.95  0.  0.  0.
397  3.96  0.  0.  0.
398  3.97  0.  0.  0.
399  3.98  0.  0.  0.
400  3.99  0.  0.  0.
401  4.00  0.  0.  0.
402  4.01  0.  0.  0.
403  4.02  0.  0.  0.
404  4.03  0.  0.  0.
405  4.04  0.  0.  0.
406  4.05  0.  0.  0.
407  4.06  0.  0.  0.
408  4.07  0.  0.  0.
409  4.08  0.  0.  0.
410  4.09  0.  0.  0.
411  4.10  0.  0.  0.
412  4.11  0.  0.  0.
413  4.12  0.  0.  0.
414  4.13  0.  0.  0.
415  4.14  0.  0.  0.
416  4.15  0.  0.  0.
417  4.16  0.  0.  0.
418  4.17  0.  0.  0.
419  4.18  0.  0.  0.
420  4.19  0.  0.  0.
421  4.20  0.  0.  0.
422  4.21  0.  0.  0.
423  4.22  0.  0.  0.
424  4.23  0.  0.  0.
425  4.24  0.  0.  0.
426  4.25  0.  0.  0.
427  4.26  0.  0.  0.
428  4.27  0.  0.  0.
429  4.28  0.  0.  0.
430  4.29  0.  0.  0.
431  4.30  0.  0.  0.
432  4.31  0.  0.  0.
433  4.32  0.  0.  0.
434  4.33  0.  0.  0.
435  4.34  0.  0.  0.
436  4.35  0.  0.  0.
437  4.36  0.  0.  0.
438  4.37  0.  0.  0.
439  4.38  0.  0.  0.
440  4.39  0.  0.  0.
441  4.40  0.  0.  0.
442  4.41  0.  0.  0.
443  4.42  0.  0.  0.
444  4.43  0.  0.  0.
445  4.44  0.  0.  0.
446  4.45  0.  0.  0.
447  4.46  0.  0.  0.
448  4.47  0.  0.  0.
449  4.48  0.  0.  0.
450  4.49  0.  0.  0.
451  4.50  0.  0.  0.
452  4.51  0.  0.  0.
453  4.52  0.  0.  0.
454  4.53  0.  0.  0.
455  4.54  0.  0.  0.
456  4.55  0.  0.  0.
457  4.56  0.  0.  0.
458  4.57  0.  0.  0.
459  4.58  0.  0.  0.
460  4.59  0.  0.  0.
461  4.60  0.  0.  0.
462  4.61  0.  0.  0.
463  4.62  0.  0.  0.
464  4.63  0.  0.  0.
465  4.64  0.  0.  0.
466  4.65  0.  0.  0.
467  4.66  0.  0.  0.
468  4.67  0.  0.  0.
469  4.68  0.  0.  0.
470  4.69  0.  0.  0.
471  4.70  0.  0.  0.
472  4.71  0.  0.  0.
473  4.72  0.  0.  0.
474  4.73  0.  0.  0.
475  4.74  0.  0.  0.
476  4.75  0.  0.  0.
477  4.76  0.  0.  0.
478  4.77  0.  0.  0.
479  4.78  0.  0.  0.
480  4.79  0.  0.  0.
481  4.80  0.  0.  0.
482  4.81  0.  0.  0.
483  4.82  0.  0.  0.
484  4.83  0.  0.  0.
485  4.84  0.  0.  0.
486  4.85  0.  0.  0.
487  4.86  0.  0.  0.
488  4.87  0.  0.  0.
489  4.88  0.  0.  0.
490  4.89  0.  0.  0.
491  4.90  0.  0.  0.
492  4.91  0.  0.  0.
493  4.92  0.  0.  0.
494  4.93  0.  0.  0.
495  4.94  0.  0.  0.
496  4.95  0.  0.  0.
497  4.96  0.  0.  0.
498  4.97  0.  0.  0.
499  4.98  0.  0.  0.
500  4.99  0.  0.  0.
501  5.00  0.  0.  0.
502  5.01  0.  0.  0.
503  5.02  0.  0.  0.
504  5.03  0.  0.  0.
505  5.04  0.  0.  0.
506  5.05  0.  0.  0.
507  5.06  0.  0.  0.
508  5.07  0.  0.  0.
509  5.08  0.  0.  0.
510  5.09  0.  0.  0.
511  5.10  0.  0.  0.
512  5.11  0.  0.  0.
513  5.12  0.  0.  0.
514  5.13  0.  0.  0.
515  5.14  0.  0.  0.
516  5.15  0.  0.  0.
517  5.16  0.  0.  0.
518  5.17  0.  0.  0.
519  5.18  0.  0.  0.
520  5.19  0.  0.  0.
521  5.20  0.  0.  0.
522  5.21  0.  0.  0.
523  5.22  0.  0.  0.
524  5.23  0.  0.  0.
525  5.24  0.  0.  0.
526  5.25  0.  0.  0.
527  5.26  0.  0.  0.
528  5.27  0.  0.  0.
529  5.28  0.  0.  0.
530  5.29  0.  0.  0.
531  5.30  0.  0.  0.
532  5.31  0.  0.  0.
533  5.32  0.  0.  0.
534  5.33  0.  0.  0.
535  5.34  0.  0.  0.
536  5.35  0.  0.  0.
537  5.36  0.  0.  0.
538  5.37  0.  0.  0.
539  5.38  0.  0.  0.
540  5.39  0.  0.  0.
541  5.40  0.  0.  0.
542  5.41  0.  0.  0.
543  5.42  0.  0.  0.
544  5.43  0.  0.  0.
545  5.44  0.  0.  0.
546  5.45  0.  0.  0.
547  5.46  0.  0.  0.
548  5.47  0.  0.  0.
549  5.48  0.  0.  0.
550  5.49  0.  0.  0.
551  5.50  0.  0.  0.
552  5.51  0.  0.  0.
553  5.52  0.  0.  0.
554  5.53  0.  0.  0.
555  5.54  0.  0.  0.
556  5.55  0.  0.  0.
557  5.56  0.  0.  0.
558  5.57  0.  0.  0.
559  5.58  0.  0.  0.
560  5.59  0.  0.  0.
561  5.60  0.  0.  0.
562  5.61  0.  0.  0.
563  5.62  0.  0.  0.
564  5.63  0.  0.  0.
565  5.64  0.  0.  0.
566  5.65  0.  0.  0.
567  5.66  0.  0.  0.
568  5.67  0.  0.  0.
569  5.68  0.  0.  0.
570  5.69  0.  0.  0.
571  5.70  0.  0.  0.
572  5.71  0.  0.  0.
573  5.72  0.  0.  0.
574  5.73  0.  0.  0.
575  5.74  0.  0.  0.
576  5.75  0.  0.  0.
577  5.76  0.  0.  0.
578  5.77  0.  0.  0.
579  5.78  0.  0.  0.
580  5.79  0.  0.  0.
581  5.80  0.  0.  0.
582  5.81  0.  0.  0.
583  5.82  0.  0.  0.
584  5.83  0.  0.  0.
585  5.84  0.  0.  0.
586  5.85  0.  0.  0.
587  5.86  0.  0.  0.
588  5.87  0.  0.  0.
589  5.88  0.  0.  0.
590  5.89  0.  0.  0.
591  5.90  0.  0.  0.
592  5.91  0.  0.  0.
593  5.92  0.  0.  0.
594  5.93  0.  0.  0.
595  5.94  0.  0.  0.
596  5.95  0.  0.  0.
597  5.96  0.  0.  0.
598  5.97  0.  0.  0.
599  5.98  0.  0.  0.
600  5.99  0.  0.  0.
1                         6.0776064747242E+00 -2.4361388710649E+00
1  0.0000000000000E+00 -3.7430825272633E-08 -1.3409919431828E-08
2  1.0000000000000E-02  4.2494380498908E-03  3.7900786855206E-04
3  2.0000000000000E-02  1.6970908266590E-02  1.5254107324168E-03
4  3.0000000000000E-02  3.8083514885474E-02  3.4670603005140E-03
5  4.0000000000000E-02  6.7451246248476E-02  6.2494317325777E-03
6  5.0000000000000E-02  1.0488129295566E-01  9.9342389709412E-03
7  6.0000000000000E-02  1.5012188147009E-01  1.4597558771703E-02
8  7.0000000000000E-02  2.0285980159122E-01  2.0327523333048E-02
9  8.0000000000000E-02  2.6271784364264E-01  2.7221654828416E-02
10  9.0000000000000E-02  3.2925238921432E-01  3.5383925970936E-02
11  1.0000000000000E-01  4.0195141653021E-01  4.4921638586254E-02
12  1.1000000000000E-01  4.8023318706962E-01  5.5942216784753E-02
13  1.2000000000000E-01  5.6344587349983E-01  6.8550012550190E-02
14  1.3000000000000E-01  6.5086837029861E-01  8.2843219372932E-02
15  1.4000000000000E-01  7.4171249815669E-01  9.8910984049359E-02
16  1.5000000000000E-01  8.3512677231410E-01  1.1683079816345E-01
17  1.6000000000000E-01  9.3020185479387E-01  1.3666623939410E-01
18  1.7000000000000E-01  1.0259777528280E+00  1.5846511908610E-01
19  1.8000000000000E-01  1.1214527627187E+00  1.8225807700279E-01
20  1.9000000000000E-01  1.2155940922832E+00  2.0805764743088E-01
21  2.0000000000000E-01  1.3073500283877E+00  2.3585780346304E-01
22  2.1000000000000E-01  1.3956634514517E+00  2.6563396899564E-01
23  2.2000000000000E-01  1.4794864387280E+00  2.9734347139775E-01
24  2.3000000000000E-01  1.5577956450472E+00  3.3092639255759E-01
25  2.4000000000000E-01  1.6296081057452E+00  3.6630676266845E-01
26  2.5000000000000E-01  1.6939970735569E+00  4.0339403018040E-01
27  2.6000000000000E-01  1.7501074808686E+00  4.4208473322759E-01
28  2.7000000000000E-01  1.7971706119440E+00  4.8226429284970E-01
29  2.8000000000000E-01  1.8345175771523E+00  5.2380884664353E-01
30  2.9000000000000E-01  1.8615912029124E+00  5.6658704316701E-01
31  3.0000000000000E-01  1.8779559865447E+00  6.1046172239973E-01
32  3.1000000000000E-01  1.8833058135374E+00  6.5529141564244E-01
33  3.2000000000000E-01  1.8774691944089E+00  7.0093160908899E-01
34  3.3000000000000E-01  1.8604118474785E+00  7.4723572849697E-01
35  3.4000000000000E-01  1.8322365301636E+00  7.9405581738725E-01
36  3.5000000000000E-01  1.7931801023148E+00  8.4124289741496E-01
37  3.6000000000000E-01  1.7436078877864E+00  8.8864701631672E-01
38  3.7000000000000E-01  1.6840054820232E+00  9.3611700546355E-01
39  3.8000000000000E-01  1.6149682310171E+00  9.8349998484668E-01
40  3.9000000000000E-01  1.5371886777491E+00  1.0306406676281E+00
41  4.0000000000000E-01  1.4514423335974E+00  1.0773805285820E+00
42  4.1000000000000E-01  1.3585721818756E+00  1.1235569102964E+00
43  4.2000000000000E-01  1.2594723567859E+00  1.1690021474496E+00
44  4.3000000000000E-01  1.1550714622177E+00  1.2135427924952E+00
45  4.4000000000000E-01  1.0463160001138E+00  1.2569990254780E+00
46  4.5000000000000E-01  9.3415436726184E-01  1.2991843264067E+00
47  4.6000000000000E-01  8.1952185262349E-01  1.3399054807101E+00
48  4.7000000000000E-01  7.0332702557798E-01  1.3789629770245E+00
49  4.8000000000000E-01  5.8643985014963E-01  1.4161518422833E+00
50  4.9000000000000E-01  4.6968179338578E-01  1.4512629422803E+00
51  5.0000000000000E-01  3.5381811994938E-01  1.4840847571756E+00
52  5.1000000000000E-01  2.3955248247226E-01  1.5144056214923E+00
53  5.2000000000000E-01  1.2752383132341E-01  1.5420163977675E+00
54  5.3000000000000E-01  1.8305581384301E-02  1.5667135329762E+00
55  5.4000000000000E-01 -8.7593109570381E-02  1.5883024279295E+00
56  5.5000000000000E-01 -1.8972417305730E-01  1.6066010328391E+00
57  5.6000000000000E-01 -2.8769586239908E-01  1.6214435678623E+00
58  5.7000000000000E-01 -3.8116673112322E-01  1.6326842563295E+00
59  5.8000000000000E-01 -4.6983874457783E-01  1.6402009510355E+00
60  5.9000000000000E-01 -5.5344993817414E-01  1.6438985308516E+00
61  6.0000000000000E-01 -6.3176704493772E-01  1.6437119462253E+00
62  6.1000000000000E-01 -7.0457850704997E-01  1.6396087979659E+00
63  6.2000000000000E-01 -7.7168826098596E-01  1.6315913439850E+00
64  6.3000000000000E-01 -8.3291064456555E-01  1.6196978431103E+00
65  6.4000000000000E-01 -8.8806671823788E-01  1.6040031633062E+00
66  6.5000000000000E-01 -9.3698222431055E-01  1.5846186030457E+00
67  6.6000000000000E-01 -9.7948732923388E-01  1.5616908984829E+00
68  6.7000000000000E-01 -1.0154182084983E+00  1.5354004146636E+00
69  6.8000000000000E-01 -1.0446204445668E+00  1.5059585453975E+00
70  6.9000000000000E-01 -1.0669541190819E+00  1.4736043726558E+00
71  7.0000000000000E-01 -1.0823003949765E+00  1.4386006615037E+00
72  7.1000000000000E-01 -1.0905693055863E+00  1.4012292897016E+00
73  7.2000000000000E-01 -1.0917083997160E+00  1.3617862313261E+00
74  7.3000000000000E-01 -1.0857118367925E+00  1.3205762303096E+00
75  7.4000000000000E-01 -1.0726294872133E+00  1.2779073119890E+00
76  7.5000000000000E-01 -1.0525755716702E+00  1.2340852881014E+00
77  7.6000000000000E-01 -1.0257363708200E+00  1.1894084128029E+00
78  7.7000000000000E-01 -9.9237655371430E-01  1.1441623440689E+00
79  7.8000000000000E-01 -9.5284370964467E-01  1.0986155562936E+00
80  7.9000000000000E-01 -9.0757072253635E-01  1.0530153362653E+00
81  8.0000000000000E-01 -8.5707569800614E-01  1.0075844763806E+00
82  8.1000000000000E-01 -8.0195923831431E-01  9.6251875656654E-01
83  8.2000000000000E-01 -7.4289895669787E-01  9.1798528065368E-01
84  8.3000000000000E-01 -6.8064122650659E-01  8.7412170477495E-01
85  8.4000000000000E-01 -6.1599026833320E-01  8.3103636573480E-01
86  8.5000000000000E-01 -5.4979478586696E-01  7.8880928725051E-01
87  8.6000000000000E-01 -4.8293246435473E-01  7.4749401259215E-01
88  8.7000000000000E-01 -4.1629274024526E-01  7.0712018450631E-01
89  8.8000000000000E-01 -3.5075833296203E-01  6.6769676842152E-01
90  8.9000000000000E-01 -2.8718609630132E-01  6.2921579373423E-01
91  9.0000000000000E-01 -2.2638779468862E-01  5.9165647127915E-01
92  9.1000000000000E-01 -1.6911143605433E-01  5.5498953356373E-01
93  9.2000000000000E-01 -1.1602379672073E-01  5.1918163848871E-01
94  9.3000000000000E-01 -6.7694753502026E-02  4.8419967739058E-01
95  9.4000000000000E-01 -2.4583994088073E-02  4.5001483443093E-01
96  9.5000000000000E-01  1.2969390600012E-02  4.1660625652467E-01
97  9.6000000000000E-01  4.4754017502298E-02  3.8396421083492E-01
98  9.7000000000000E-01  7.0689720043384E-02  3.5209262989096E-01
99  9.8000000000000E-01  9.0827273582807E-02  3.2101097192523E-01
100  9.9000000000000E-01  1.0534429535214E-01  2.9075535528163E-01
101  1.0000000000000E+00  1.1453742394694E-01  2.6137895975348E-01
102  1.0100000000000E+00  1.1881103584150E-01  2.3295172349332E-01
103  1.0200000000000E+00  1.1866290906552E-01  2.0555940056597E-01
104  1.0300000000000E+00  1.1466739269140E-01  1.7930208020842E-01
105  1.0400000000000E+00  1.0745678083107E-01  1.5429230336602E-01
106  1.0500000000000E+00  9.7701717127532E-02  1.3065294403029E-01
107  1.0600000000000E+00  8.6091566441289E-02  1.0851505135411E-01
108  1.0700000000000E+00  7.3315781632400E-02  8.8015872720111E-02
109  1.0800000000000E+00  6.0047364473358E-02  6.9297297663164E-02
110  1.0900000000000E+00  4.6929577586661E-02  5.2504970703765E-02
111  1.1000000000000E+00  3.4555798263431E-02  3.7785803359831E-02
112  1.1100000000000E+00  2.3415815005791E-02  2.5275757399017E-02
113  1.1200000000000E+00  1.4062607229328E-02  1.5138007646747E-02
114  1.1300000000000E+00  6.9316913668513E-03  7.5155143791373E-03
115  1.1400000000000E+00  2.2753932513029E-03  2.5098075356983E-03
116  1.1500000000000E+00  1.8329008149487E-04  2.0799238923508E-04
117  1.1600000000000E+00 -4.7447587577723E-06 -5.4834236832051E-06
118  1.1700000000000E+00 -1.3928031512980E-06 -1.5642018596916E-06
119  1.18 -0. -0.
120  1.19  0.  0.
121  1.20  0.  0.
122  1.21  0.  0.
123  1.22  0.  0.
124  1.23  0.  0.
125  1.24  0.  0.
126  1.25  0.  0.
127  1.26  0.  0.
128  1.27  0.  0.
129  1.28  0.  0.
130  1.29  0.  0.
131  1.30  0.  0.
132  1.31  0.  0.
133  1.32  0.  0.
134  1.33  0.  0.
135  1.34  0.  0.
136  1.35  0.  0.
137  1.36  0.  0.
138  1.37  0.  0.
139  1.38  0.  0.
140  1.39  0.  0.
141  1.40  0.  0.
142  1.41  0.  0.
143  1.42  0.  0.
144  1.43  0.  0.
145  1.44  0.  0.
146  1.45  0.  0.
147  1.46  0.  0.
148  1.47  0.  0.
149  1.48  0.  0.
150  1.49  0.  0.
151  1.50  0.  0.
152  1.51  0.  0.
153  1.52  0.  0.
154  1.53  0.  0.
155  1.54  0.  0.
156  1.55  0.  0.
157  1.56  0.  0.
158  1.57  0.  0.
159  1.58  0.  0.
160  1.59  0.  0.
161  1.60  0.  0.
162  1.61  0.  0.
163  1.62  0.  0.
164  1.63  0.  0.
165  1.64  0.  0.