Md    ONCVPSP-4.0.1  r_core=   1.15366   1.15366   1.15366   1.35588
101.0000     41.0000      221007    zatom,zion,pspd
8      11   3     4   600     0    pspcod,pspxc,lmax,lloc,mmax,r2well
5.99000000  5.00000000  0.00000000    rchrg fchrg qchrg
3     2     2     2     0    nproj
1     1           extension_switch
0                         2.3085433129083E+01 -2.5683587989886E+00  2.3501401012804E+00
1  0.0000000000000E+00 -4.2665211585913E-08 -9.9847137779996E-09 -1.5859541246943E-07
2  1.0000000000000E-02  1.6858642053550E-01  4.0560025513584E-02  6.6429493172150E-02
3  2.0000000000000E-02  3.3585119684476E-01  8.0957149811103E-02  1.3116563273842E-01
4  3.0000000000000E-02  5.0048915264720E-01  1.2103140480193E-01  1.9255606317261E-01
5  4.0000000000000E-02  6.6122768155182E-01  1.6062860881798E-01  2.4902917141752E-01
6  5.0000000000000E-02  8.1684212869378E-01  1.9960306300373E-01  2.9913136739248E-01
7  6.0000000000000E-02  9.6617012072880E-01  2.3782001911625E-01  3.4156077585054E-01
8  7.0000000000000E-02  1.1081245462691E+00  2.7515785488974E-01  3.7519633907164E-01
9  8.0000000000000E-02  1.2417049315096E+00  3.1150990310421E-01  3.9912148847366E-01
10  9.0000000000000E-02  1.3660070061709E+00  3.4678589225239E-01  4.1264173041673E-01
11  1.0000000000000E-01  1.4802303111689E+00  3.8091296978274E-01  4.1529570051390E-01
12  1.1000000000000E-01  1.5836837595988E+00  4.1383629281585E-01  4.0685946408545E-01
13  1.2000000000000E-01  1.6757891245435E+00  4.4551918546697E-01  3.8734406996115E-01
14  1.3000000000000E-01  1.7560824886802E+00  4.7594287592508E-01  3.5698659237001E-01
15  1.4000000000000E-01  1.8242137495038E+00  5.0510583971966E-01  3.1623511299713E-01
16  1.5000000000000E-01  1.8799443281254E+00  5.3302278765644E-01  2.6572829463089E-01
17  1.6000000000000E-01  1.9231432771818E+00  5.5972334728452E-01  2.0627037207975E-01
18  1.7000000000000E-01  1.9537820227608E+00  5.8525049509119E-01  1.3880252900335E-01
19  1.8000000000000E-01  1.9719280051029E+00  6.0965880261577E-01  6.4371735986491E-02
20  1.9000000000000E-01  1.9777375022287E+00  6.3301256312618E-01 -1.5901808118109E-02
21  2.0000000000000E-01  1.9714479290030E+00  6.5538386631135E-01 -1.0085746501458E-01
22  2.1000000000000E-01  1.9533699013458E+00  6.7685068660981E-01 -1.8932602768310E-01
23  2.2000000000000E-01  1.9238793416083E+00  6.9749504642716E-01 -2.8015958488970E-01
24  2.3000000000000E-01  1.8834098772499E+00  7.1740130879693E-01 -3.7225839096821E-01
25  2.4000000000000E-01  1.8324457519378E+00  7.3665464530987E-01 -4.6459388742717E-01
26  2.5000000000000E-01  1.7715154274670E+00  7.5533971475125E-01 -5.5622718827494E-01
27  2.6000000000000E-01  1.7011860081565E+00  7.7353957628841E-01 -6.4632253022668E-01
28  2.7000000000000E-01  1.6220585685491E+00  7.9133484873140E-01 -7.3415539495538E-01
29  2.8000000000000E-01  1.5347644123884E+00  8.0880311486678E-01 -8.1911522546537E-01
30  2.9000000000000E-01  1.4399622381220E+00  8.2601855766506E-01 -9.0070287437835E-01
31  3.0000000000000E-01  1.3383361357059E+00  8.4305180380092E-01 -9.7852313028276E-01
32  3.1000000000000E-01  1.2305942933116E+00  8.5996993988031E-01 -1.0522728614705E+00
33  3.2000000000000E-01  1.1174682525256E+00  8.7683665847001E-01 -1.1217254870950E+00
34  3.3000000000000E-01  9.9971251841945E-01  8.9371248482961E-01 -1.1867126276134E+00
35  3.4000000000000E-01  8.7810430777355E-01  9.1065503142626E-01 -1.2471038940024E+00
36  3.5000000000000E-01  7.5344320573662E-01  9.2771922604749E-01 -1.3027858446267E+00
37  3.6000000000000E-01  6.2655049886765E-01  9.4495746068966E-01 -1.3536411671710E+00
38  3.7000000000000E-01  4.9826796100297E-01  9.6241961235682E-01 -1.3995291296852E+00
39  3.8000000000000E-01  3.6945588745307E-01  9.8015289331591E-01 -1.4402682900281E+00
40  3.9000000000000E-01  2.4099020198758E-01  9.9820149697955E-01 -1.4756223588998E+00
41  4.0000000000000E-01  1.1375849884531E-01  1.0166060160906E+00 -1.5052899817795E+00
42  4.1000000000000E-01 -1.1345072810288E-02  1.0354026218491E+00 -1.5288990443237E+00
43  4.2000000000000E-01 -1.3342612369327E-01  1.0546220055734E+00 -1.5460059201928E+00
44  4.3000000000000E-01 -2.5159752554408E-01  1.0742880978919E+00 -1.5560998768613E+00
45  4.4000000000000E-01 -3.6498802946982E-01  1.0944165937774E+00 -1.5586126414175E+00
46  4.5000000000000E-01 -4.7275187664395E-01  1.1150133243940E+00 -1.5529329127299E+00
47  4.6000000000000E-01 -5.7407922361528E-01  1.1360725281950E+00 -1.5384253968432E+00
48  4.7000000000000E-01 -6.6820715642833E-01  1.1575750834879E+00 -1.5144537469979E+00
49  4.8000000000000E-01 -7.5443102652650E-01  1.1794867723223E+00 -1.4804066157139E+00
50  4.9000000000000E-01 -8.3211580870747E-01  1.2017566506975E+00 -1.4357258806030E+00
51  5.0000000000000E-01 -9.0070715863407E-01  1.2243156024484E+00 -1.3799359936091E+00
52  5.1000000000000E-01 -9.5974183562665E-01  1.2470751535884E+00 -1.3126733296208E+00
53  5.2000000000000E-01 -1.0088571563338E+00  1.2699266202892E+00 -1.2337143778663E+00
54  5.3000000000000E-01 -1.0477991566253E+00  1.2927406571307E+00 -1.1430016296359E+00
55  5.4000000000000E-01 -1.0764291624825E+00  1.3153672629093E+00 -1.0406660686493E+00
56  5.5000000000000E-01 -1.0947285051492E+00  1.3376362894317E+00 -9.2704526410702E-01
57  5.6000000000000E-01 -1.1028011603184E+00  1.3593584847116E+00 -8.0269619802098E-01
58  5.7000000000000E-01 -1.1008741442780E+00  1.3803270862841E+00 -6.6840212328635E-01
59  5.8000000000000E-01 -1.0892955599959E+00  1.4003199634856E+00 -5.2517294138574E-01
60  5.9000000000000E-01 -1.0685302511348E+00  1.4191022900808E+00 -3.7423880188585E-01
61  6.0000000000000E-01 -1.0391530897819E+00  1.4364297111689E+00 -2.1703685250386E-01
62  6.1000000000000E-01 -1.0018399920119E+00  1.4520519514604E+00 -5.5191300515769E-02
63  6.2000000000000E-01 -9.5735682197437E-01  1.4657167963887E+00  1.0951282449895E-01
64  6.3000000000000E-01 -9.0654640779006E-01  1.4771743636567E+00  2.7516159817676E-01
65  6.4000000000000E-01 -8.5031394905535E-01  1.4861815712082E+00  4.3974901082031E-01
66  6.5000000000000E-01 -7.8961114430723E-01  1.4925066986879E+00  6.0121767596525E-01
67  6.6000000000000E-01 -7.2541940578480E-01  1.4959339335271E+00  7.5750231228339E-01
68  6.7000000000000E-01 -6.5873255695458E-01  1.4962677901005E+00  9.0657476654060E-01
69  6.8000000000000E-01 -5.9053942463712E-01  1.4933372910508E+00  1.0464892789516E+00
70  6.9000000000000E-01 -5.2180674167360E-01  1.4869998038745E+00  1.1754266682599E+00
71  7.0000000000000E-01 -4.5346276780309E-01  1.4771444330904E+00  1.2917361330180E+00
72  7.1000000000000E-01 -3.8638201609891E-01  1.4636948785552E+00  1.3939734271390E+00
73  7.2000000000000E-01 -3.2137144064620E-01  1.4466116834165E+00  1.4809342697004E+00
74  7.3000000000000E-01 -2.5915839919545E-01  1.4258938104117E+00  1.5516819877437E+00
75  7.4000000000000E-01 -2.0038065370269E-01  1.4015795022377E+00  1.6055685617173E+00
76  7.5000000000000E-01 -1.4557861361215E-01  1.3737464000110E+00  1.6422484405935E+00
77  7.6000000000000E-01 -9.5189963323462E-02  1.3425109128390E+00  1.6616847110218E+00
78  7.7000000000000E-01 -4.9546748513243E-02  1.3080268506567E+00  1.6641474350921E+00
79  7.8000000000000E-01 -8.8749279191956E-03  1.2704833511751E+00  1.6502042069708E+00
80  7.9000000000000E-01  2.6703670095145E-02  1.2301021494950E+00  1.6207032124054E+00
81  8.0000000000000E-01  5.7167111389238E-02  1.1871342551611E+00  1.5767492995421E+00
82  8.1000000000000E-01  8.2587025388003E-02  1.1418561157281E+00  1.5196737778599E+00
83  8.2000000000000E-01  1.0312041857556E-01  1.0945653579098E+00  1.4509988480018E+00
84  8.3000000000000E-01  1.1899991663698E-01  1.0455762068092E+00  1.3723977234871E+00
85  8.4000000000000E-01  1.3052275667097E-01  9.9521469037124E-01  1.2856516311777E+00
86  8.5000000000000E-01  1.3803887803999E-01  9.4381373996164E-01  1.1926049675113E+00
87  8.6000000000000E-01  1.4193847720805E-01  8.9170829883797E-01  1.0951199395179E+00
88  8.7000000000000E-01  1.4263939806815E-01  8.3923054829404E-01  9.9503203222377E-01
89  8.8000000000000E-01  1.4057472479527E-01  7.8670535657923E-01  8.9410761701038E-01
90  8.9000000000000E-01  1.3618092944781E-01  7.3444604851038E-01  7.9400494959671E-01
91  9.0000000000000E-01  1.2988690188001E-01  6.8275058425982E-01  6.9623970318635E-01
92  9.1000000000000E-01  1.2210415570219E-01  6.3189822440262E-01  6.0215604434391E-01
93  9.2000000000000E-01  1.1321846184617E-01  5.8214674523840E-01  5.1290408924403E-01
94  9.3000000000000E-01  1.0358311166057E-01  5.3373025397022E-01  4.2942437939292E-01
95  9.4000000000000E-01  9.3513955293692E-02  4.8685763780963E-01  3.5243979222273E-01
96  9.5000000000000E-01  8.3286299313847E-02  4.4171166473415E-01  2.8245505656898E-01
97  9.6000000000000E-01  7.3133680909916E-02  3.9844873666373E-01  2.1976377931927E-01
98  9.7000000000000E-01  6.3248465254716E-02  3.5719927838358E-01  1.6446261019243E-01
99  9.8000000000000E-01  5.3784138294743E-02  3.1806872771750E-01  1.1647187929433E-01
100  9.9000000000000E-01  4.4859089616712E-02  2.8113907423930E-01  7.5561738270110E-02
101  1.0000000000000E+00  3.6561599333222E-02  2.4647087514575E-01  4.1382521847029E-02
102  1.0100000000000E+00  2.8955658864483E-02  2.1410565761853E-01  1.3497721967945E-02
103  1.0200000000000E+00  2.2087167808887E-02  1.8406859686548E-01 -8.5823687189522E-03
104  1.0300000000000E+00  1.5989957131087E-02  1.5637133773221E-01 -2.5368635291149E-02
105  1.0400000000000E+00  1.0690991697390E-02  1.3101480490888E-01 -3.7365395646105E-02
106  1.0500000000000E+00  6.2140016775711E-03  1.0799182187475E-01 -4.5049969141508E-02
107  1.0600000000000E+00  2.5806813506733E-03  8.7289331354766E-02 -4.8863000098990E-02
108  1.0700000000000E+00 -1.9152655148135E-04  6.8889979534228E-02 -4.9213410719430E-02
109  1.0800000000000E+00 -2.0961718862026E-03  5.2772793672169E-02 -4.6502317480399E-02
110  1.0900000000000E+00 -3.1502945159352E-03  3.8912651503789E-02 -4.1170694734122E-02
111  1.1000000000000E+00 -3.4230929089800E-03  2.7271124527920E-02 -3.3805118925026E-02
112  1.1100000000000E+00 -3.1005594173499E-03  1.7760865677619E-02 -2.5370347485163E-02
113  1.1200000000000E+00 -2.3624013188959E-03  1.0353044698379E-02 -1.6811718439741E-02
114  1.1300000000000E+00 -1.4332781713850E-03  5.0010260751978E-03 -9.1326768245401E-03
115  1.1400000000000E+00 -5.6878784918326E-04  1.6244280121284E-03 -3.3072568712763E-03
116  1.1500000000000E+00 -5.5121541710825E-05  1.3077470450909E-04 -2.9567299653311E-04
117  1.1600000000000E+00  1.5822737340229E-06 -3.3853447526492E-06  8.1464667039015E-06
118  1.1700000000000E+00  3.9505277599459E-07 -9.9260167882073E-07  2.1728031530819E-06
119  1.18 -0. -0. -0.
120  1.19  0.  0.  0.
121  1.20  0.  0.  0.
122  1.21  0.  0.  0.
123  1.22  0.  0.  0.
124  1.23  0.  0.  0.
125  1.24  0.  0.  0.
126  1.25  0.  0.  0.
127  1.26  0.  0.  0.
128  1.27  0.  0.  0.
129  1.28  0.  0.  0.
130  1.29  0.  0.  0.
131  1.30  0.  0.  0.
132  1.31  0.  0.  0.
133  1.32  0.  0.  0.
134  1.33  0.  0.  0.
135  1.34  0.  0.  0.
136  1.35  0.  0.  0.
137  1.36  0.  0.  0.
138  1.37  0.  0.  0.
139  1.38  0.  0.  0.
140  1.39  0.  0.  0.
141  1.40  0.  0.  0.
142  1.41  0.  0.  0.
143  1.42  0.  0.  0.
144  1.43  0.  0.  0.
145  1.44  0.  0.  0.
146  1.45  0.  0.  0.
147  1.46  0.  0.  0.
148  1.47  0.  0.  0.
149  1.48  0.  0.  0.
150  1.49  0.  0.  0.
151  1.50  0.  0.  0.
152  1.51  0.  0.  0.
153  1.52  0.  0.  0.
154  1.53  0.  0.  0.
155  1.54  0.  0.  0.
156  1.55  0.  0.  0.
157  1.56  0.  0.  0.
158  1.57  0.  0.  0.
159  1.58  0.  0.  0.
160  1.59  0.  0.  0.
161  1.60  0.  0.  0.
162  1.61  0.  0.  0.
163  1.62  0.  0.  0.
164  1.63  0.  0.  0.
165  1.64  0.  0.  0.
166  1.65  0.  0.  0.
167  1.66  0.  0.  0.
168  1.67  0.  0.  0.
169  1.68  0.  0.  0.
170  1.69  0.  0.  0.
171  1.70  0.  0.  0.
172  1.71  0.  0.  0.
173  1.72  0.  0.  0.
174  1.73  0.  0.  0.
175  1.74  0.  0.  0.
176  1.75  0.  0.  0.
177  1.76  0.  0.  0.
178  1.77  0.  0.  0.
179  1.78  0.  0.  0.
180  1.79  0.  0.  0.
181  1.80  0.  0.  0.
182  1.81  0.  0.  0.
183  1.82  0.  0.  0.
184  1.83  0.  0.  0.
185  1.84  0.  0.  0.
186  1.85  0.  0.  0.
187  1.86  0.  0.  0.
188  1.87  0.  0.  0.
189  1.88  0.  0.  0.
190  1.89  0.  0.  0.
191  1.90  0.  0.  0.
192  1.91  0.  0.  0.
193  1.92  0.  0.  0.
194  1.93  0.  0.  0.
195  1.94  0.  0.  0.
196  1.95  0.  0.  0.
197  1.96  0.  0.  0.
198  1.97  0.  0.  0.
199  1.98  0.  0.  0.
200  1.99  0.  0.  0.
201  2.00  0.  0.  0.
202  2.01  0.  0.  0.
203  2.02  0.  0.  0.
204  2.03  0.  0.  0.
205  2.04  0.  0.  0.
206  2.05  0.  0.  0.
207  2.06  0.  0.  0.
208  2.07  0.  0.  0.
209  2.08  0.  0.  0.
210  2.09  0.  0.  0.
211  2.10  0.  0.  0.
212  2.11  0.  0.  0.
213  2.12  0.  0.  0.
214  2.13  0.  0.  0.
215  2.14  0.  0.  0.
216  2.15  0.  0.  0.
217  2.16  0.  0.  0.
218  2.17  0.  0.  0.
219  2.18  0.  0.  0.
220  2.19  0.  0.  0.
221  2.20  0.  0.  0.
222  2.21  0.  0.  0.
223  2.22  0.  0.  0.
224  2.23  0.  0.  0.
225  2.24  0.  0.  0.
226  2.25  0.  0.  0.
227  2.26  0.  0.  0.
228  2.27  0.  0.  0.
229  2.28  0.  0.  0.
230  2.29  0.  0.  0.
231  2.30  0.  0.  0.
232  2.31  0.  0.  0.
233  2.32  0.  0.  0.
234  2.33  0.  0.  0.
235  2.34  0.  0.  0.
236  2.35  0.  0.  0.
237  2.36  0.  0.  0.
238  2.37  0.  0.  0.
239  2.38  0.  0.  0.
240  2.39  0.  0.  0.
241  2.40  0.  0.  0.
242  2.41  0.  0.  0.
243  2.42  0.  0.  0.
244  2.43  0.  0.  0.
245  2.44  0.  0.  0.
246  2.45  0.  0.  0.
247  2.46  0.  0.  0.
248  2.47  0.  0.  0.
249  2.48  0.  0.  0.
250  2.49  0.  0.  0.
251  2.50  0.  0.  0.
252  2.51  0.  0.  0.
253  2.52  0.  0.  0.
254  2.53  0.  0.  0.
255  2.54  0.  0.  0.
256  2.55  0.  0.  0.
257  2.56  0.  0.  0.
258  2.57  0.  0.  0.
259  2.58  0.  0.  0.
260  2.59  0.  0.  0.
261  2.60  0.  0.  0.
262  2.61  0.  0.  0.
263  2.62  0.  0.  0.
264  2.63  0.  0.  0.
265  2.64  0.  0.  0.
266  2.65  0.  0.  0.
267  2.66  0.  0.  0.
268  2.67  0.  0.  0.
269  2.68  0.  0.  0.
270  2.69  0.  0.  0.
271  2.70  0.  0.  0.
272  2.71  0.  0.  0.
273  2.72  0.  0.  0.
274  2.73  0.  0.  0.
275  2.74  0.  0.  0.
276  2.75  0.  0.  0.
277  2.76  0.  0.  0.
278  2.77  0.  0.  0.
279  2.78  0.  0.  0.
280  2.79  0.  0.  0.
281  2.80  0.  0.  0.
282  2.81  0.  0.  0.
283  2.82  0.  0.  0.
284  2.83  0.  0.  0.
285  2.84  0.  0.  0.
286  2.85  0.  0.  0.
287  2.86  0.  0.  0.
288  2.87  0.  0.  0.
289  2.88  0.  0.  0.
290  2.89  0.  0.  0.
291  2.90  0.  0.  0.
292  2.91  0.  0.  0.
293  2.92  0.  0.  0.
294  2.93  0.  0.  0.
295  2.94  0.  0.  0.
296  2.95  0.  0.  0.
297  2.96  0.  0.  0.
298  2.97  0.  0.  0.
299  2.98  0.  0.  0.
300  2.99  0.  0.  0.
301  3.00  0.  0.  0.
302  3.01  0.  0.  0.
303  3.02  0.  0.  0.
304  3.03  0.  0.  0.
305  3.04  0.  0.  0.
306  3.05  0.  0.  0.
307  3.06  0.  0.  0.
308  3.07  0.  0.  0.
309  3.08  0.  0.  0.
310  3.09  0.  0.  0.
311  3.10  0.  0.  0.
312  3.11  0.  0.  0.
313  3.12  0.  0.  0.
314  3.13  0.  0.  0.
315  3.14  0.  0.  0.
316  3.15  0.  0.  0.
317  3.16  0.  0.  0.
318  3.17  0.  0.  0.
319  3.18  0.  0.  0.
320  3.19  0.  0.  0.
321  3.20  0.  0.  0.
322  3.21  0.  0.  0.
323  3.22  0.  0.  0.
324  3.23  0.  0.  0.
325  3.24  0.  0.  0.
326  3.25  0.  0.  0.
327  3.26  0.  0.  0.
328  3.27  0.  0.  0.
329  3.28  0.  0.  0.
330  3.29  0.  0.  0.
331  3.30  0.  0.  0.
332  3.31  0.  0.  0.
333  3.32  0.  0.  0.
334  3.33  0.  0.  0.
335  3.34  0.  0.  0.
336  3.35  0.  0.  0.
337  3.36  0.  0.  0.
338  3.37  0.  0.  0.
339  3.38  0.  0.  0.
340  3.39  0.  0.  0.
341  3.40  0.  0.  0.
342  3.41  0.  0.  0.
343  3.42  0.  0.  0.
344  3.43  0.  0.  0.
345  3.44  0.  0.  0.
346  3.45  0.  0.  0.
347  3.46  0.  0.  0.
348  3.47  0.  0.  0.
349  3.48  0.  0.  0.
350  3.49  0.  0.  0.
351  3.50  0.  0.  0.
352  3.51  0.  0.  0.
353  3.52  0.  0.  0.
354  3.53  0.  0.  0.
355  3.54  0.  0.  0.
356  3.55  0.  0.  0.
357  3.56  0.  0.  0.
358  3.57  0.  0.  0.
359  3.58  0.  0.  0.
360  3.59  0.  0.  0.
361  3.60  0.  0.  0.
362  3.61  0.  0.  0.
363  3.62  0.  0.  0.
364  3.63  0.  0.  0.
365  3.64  0.  0.  0.
366  3.65  0.  0.  0.
367  3.66  0.  0.  0.
368  3.67  0.  0.  0.
369  3.68  0.  0.  0.
370  3.69  0.  0.  0.
371  3.70  0.  0.  0.
372  3.71  0.  0.  0.
373  3.72  0.  0.  0.
374  3.73  0.  0.  0.
375  3.74  0.  0.  0.
376  3.75  0.  0.  0.
377  3.76  0.  0.  0.
378  3.77  0.  0.  0.
379  3.78  0.  0.  0.
380  3.79  0.  0.  0.
381  3.80  0.  0.  0.
382  3.81  0.  0.  0.
383  3.82  0.  0.  0.
384  3.83  0.  0.  0.
385  3.84  0.  0.  0.
386  3.85  0.  0.  0.
387  3.86  0.  0.  0.
388  3.87  0.  0.  0.
389  3.88  0.  0.  0.
390  3.89  0.  0.  0.
391  3.90  0.  0.  0.
392  3.91  0.  0.  0.
393  3.92  0.  0.  0.
394  3.93  0.  0.  0.
395  3.94  0.  0.  0.
396  3.95  0.  0.  0.
397  3.96  0.  0.  0.
398  3.97  0.  0.  0.
399  3.98  0.  0.  0.
400  3.99  0.  0.  0.
401  4.00  0.  0.  0.
402  4.01  0.  0.  0.
403  4.02  0.  0.  0.
404  4.03  0.  0.  0.
405  4.04  0.  0.  0.
406  4.05  0.  0.  0.
407  4.06  0.  0.  0.
408  4.07  0.  0.  0.
409  4.08  0.  0.  0.
410  4.09  0.  0.  0.
411  4.10  0.  0.  0.
412  4.11  0.  0.  0.
413  4.12  0.  0.  0.
414  4.13  0.  0.  0.
415  4.14  0.  0.  0.
416  4.15  0.  0.  0.
417  4.16  0.  0.  0.
418  4.17  0.  0.  0.
419  4.18  0.  0.  0.
420  4.19  0.  0.  0.
421  4.20  0.  0.  0.
422  4.21  0.  0.  0.
423  4.22  0.  0.  0.
424  4.23  0.  0.  0.
425  4.24  0.  0.  0.
426  4.25  0.  0.  0.
427  4.26  0.  0.  0.
428  4.27  0.  0.  0.
429  4.28  0.  0.  0.
430  4.29  0.  0.  0.
431  4.30  0.  0.  0.
432  4.31  0.  0.  0.
433  4.32  0.  0.  0.
434  4.33  0.  0.  0.
435  4.34  0.  0.  0.
436  4.35  0.  0.  0.
437  4.36  0.  0.  0.
438  4.37  0.  0.  0.
439  4.38  0.  0.  0.
440  4.39  0.  0.  0.
441  4.40  0.  0.  0.
442  4.41  0.  0.  0.
443  4.42  0.  0.  0.
444  4.43  0.  0.  0.
445  4.44  0.  0.  0.
446  4.45  0.  0.  0.
447  4.46  0.  0.  0.
448  4.47  0.  0.  0.
449  4.48  0.  0.  0.
450  4.49  0.  0.  0.
451  4.50  0.  0.  0.
452  4.51  0.  0.  0.
453  4.52  0.  0.  0.
454  4.53  0.  0.  0.
455  4.54  0.  0.  0.
456  4.55  0.  0.  0.
457  4.56  0.  0.  0.
458  4.57  0.  0.  0.
459  4.58  0.  0.  0.
460  4.59  0.  0.  0.
461  4.60  0.  0.  0.
462  4.61  0.  0.  0.
463  4.62  0.  0.  0.
464  4.63  0.  0.  0.
465  4.64  0.  0.  0.
466  4.65  0.  0.  0.
467  4.66  0.  0.  0.
468  4.67  0.  0.  0.
469  4.68  0.  0.  0.
470  4.69  0.  0.  0.
471  4.70  0.  0.  0.
472  4.71  0.  0.  0.
473  4.72  0.  0.  0.
474  4.73  0.  0.  0.
475  4.74  0.  0.  0.
476  4.75  0.  0.  0.
477  4.76  0.  0.  0.
478  4.77  0.  0.  0.
479  4.78  0.  0.  0.
480  4.79  0.  0.  0.
481  4.80  0.  0.  0.
482  4.81  0.  0.  0.
483  4.82  0.  0.  0.
484  4.83  0.  0.  0.
485  4.84  0.  0.  0.
486  4.85  0.  0.  0.
487  4.86  0.  0.  0.
488  4.87  0.  0.  0.
489  4.88  0.  0.  0.
490  4.89  0.  0.  0.
491  4.90  0.  0.  0.
492  4.91  0.  0.  0.
493  4.92  0.  0.  0.
494  4.93  0.  0.  0.
495  4.94  0.  0.  0.
496  4.95  0.  0.  0.
497  4.96  0.  0.  0.
498  4.97  0.  0.  0.
499  4.98  0.  0.  0.
500  4.99  0.  0.  0.
501  5.00  0.  0.  0.
502  5.01  0.  0.  0.
503  5.02  0.  0.  0.
504  5.03  0.  0.  0.
505  5.04  0.  0.  0.
506  5.05  0.  0.  0.
507  5.06  0.  0.  0.
508  5.07  0.  0.  0.
509  5.08  0.  0.  0.
510  5.09  0.  0.  0.
511  5.10  0.  0.  0.
512  5.11  0.  0.  0.
513  5.12  0.  0.  0.
514  5.13  0.  0.  0.
515  5.14  0.  0.  0.
516  5.15  0.  0.  0.
517  5.16  0.  0.  0.
518  5.17  0.  0.  0.
519  5.18  0.  0.  0.
520  5.19  0.  0.  0.
521  5.20  0.  0.  0.
522  5.21  0.  0.  0.
523  5.22  0.  0.  0.
524  5.23  0.  0.  0.
525  5.24  0.  0.  0.
526  5.25  0.  0.  0.
527  5.26  0.  0.  0.
528  5.27  0.  0.  0.
529  5.28  0.  0.  0.
530  5.29  0.  0.  0.
531  5.30  0.  0.  0.
532  5.31  0.  0.  0.
533  5.32  0.  0.  0.
534  5.33  0.  0.  0.
535  5.34  0.  0.  0.
536  5.35  0.  0.  0.
537  5.36  0.  0.  0.
538  5.37  0.  0.  0.
539  5.38  0.  0.  0.
540  5.39  0.  0.  0.
541  5.40  0.  0.  0.
542  5.41  0.  0.  0.
543  5.42  0.  0.  0.
544  5.43  0.  0.  0.
545  5.44  0.  0.  0.
546  5.45  0.  0.  0.
547  5.46  0.  0.  0.
548  5.47  0.  0.  0.
549  5.48  0.  0.  0.
550  5.49  0.  0.  0.
551  5.50  0.  0.  0.
552  5.51  0.  0.  0.
553  5.52  0.  0.  0.
554  5.53  0.  0.  0.
555  5.54  0.  0.  0.
556  5.55  0.  0.  0.
557  5.56  0.  0.  0.
558  5.57  0.  0.  0.
559  5.58  0.  0.  0.
560  5.59  0.  0.  0.
561  5.60  0.  0.  0.
562  5.61  0.  0.  0.
563  5.62  0.  0.  0.
564  5.63  0.  0.  0.
565  5.64  0.  0.  0.
566  5.65  0.  0.  0.
567  5.66  0.  0.  0.
568  5.67  0.  0.  0.
569  5.68  0.  0.  0.
570  5.69  0.  0.  0.
571  5.70  0.  0.  0.
572  5.71  0.  0.  0.
573  5.72  0.  0.  0.
574  5.73  0.  0.  0.
575  5.74  0.  0.  0.
576  5.75  0.  0.  0.
577  5.76  0.  0.  0.
578  5.77  0.  0.  0.
579  5.78  0.  0.  0.
580  5.79  0.  0.  0.
581  5.80  0.  0.  0.
582  5.81  0.  0.  0.
583  5.82  0.  0.  0.
584  5.83  0.  0.  0.
585  5.84  0.  0.  0.
586  5.85  0.  0.  0.
587  5.86  0.  0.  0.
588  5.87  0.  0.  0.
589  5.88  0.  0.  0.
590  5.89  0.  0.  0.
591  5.90  0.  0.  0.
592  5.91  0.  0.  0.
593  5.92  0.  0.  0.
594  5.93  0.  0.  0.
595  5.94  0.  0.  0.
596  5.95  0.  0.  0.
597  5.96  0.  0.  0.
598  5.97  0.  0.  0.
599  5.98  0.  0.  0.
600  5.99  0.  0.  0.
1                         6.9781446280660E+00 -2.4533494269093E+00
1  0.0000000000000E+00 -1.1399996113770E-08 -8.0578438990675E-09
2  1.0000000000000E-02  4.8249534899161E-03  4.9260460094996E-04
3  2.0000000000000E-02  1.9256862093455E-02  1.9766035292357E-03
4  3.0000000000000E-02  4.3167015471172E-02  4.4703695290362E-03
5  4.0000000000000E-02  7.6341390254802E-02  8.0039205117708E-03
6  5.0000000000000E-02  1.1848142415559E-01  1.2618033434510E-02
7  6.0000000000000E-02  1.6920516448336E-01  1.8363040813500E-02
8  7.0000000000000E-02  2.2804885158656E-01  2.5297345441006E-02
9  8.0000000000000E-02  2.9446900912371E-01  3.3485696931522E-02
10  9.0000000000000E-02  3.6784512038917E-01  4.2997280306611E-02
11  1.0000000000000E-01  4.4748297258439E-01  5.3903671718945E-02
12  1.1000000000000E-01  5.3261874858186E-01  6.6276719458938E-02
13  1.2000000000000E-01  6.2242393821185E-01  8.0186409489988E-02
14  1.3000000000000E-01  7.1601112846696E-01  9.5698773899112E-02
15  1.4000000000000E-01  8.1244071453825E-01  1.1287389787570E-01
16  1.5000000000000E-01  9.1072855174996E-01  1.3176407625808E-01
17  1.6000000000000E-01  1.0098545429230E+00  1.5241216449484E-01
18  1.7000000000000E-01  1.1087721273180E+00  1.7485016129208E-01
19  1.8000000000000E-01  1.2064186070734E+00  1.9909805154442E-01
20  1.9000000000000E-01  1.3017262160608E+00  2.2516292870117E-01
21  2.0000000000000E-01  1.3936338054890E+00  2.5303840584911E-01
22  2.1000000000000E-01  1.4810989915845E+00  2.8270431486563E-01
23  2.2000000000000E-01  1.5631105844307E+00  3.1412668337460E-01
24  2.3000000000000E-01  1.6387010946589E+00  3.4725797027515E-01
25  2.4000000000000E-01  1.7069590971415E+00  3.8203753263627E-01
26  2.5000000000000E-01  1.7670412190037E+00  4.1839229004718E-01
27  2.6000000000000E-01  1.8181835137953E+00  4.5623754732283E-01
28  2.7000000000000E-01  1.8597119850167E+00  4.9547793296949E-01
29  2.8000000000000E-01  1.8910520306023E+00  5.3600840913216E-01
30  2.9000000000000E-01  1.9117365954057E+00  5.7771530892282E-01
31  3.0000000000000E-01  1.9214128409490E+00  6.2047735904091E-01
32  3.1000000000000E-01  1.9198471701803E+00  6.6416664935152E-01
33  3.2000000000000E-01  1.9069284789954E+00  7.0864951641816E-01
34  3.3000000000000E-01  1.8826695448754E+00  7.5378731467284E-01
35  3.4000000000000E-01  1.8472065050443E+00  7.9943705666578E-01
36  3.5000000000000E-01  1.8007964208089E+00  8.4545191235041E-01
37  3.6000000000000E-01  1.7438129698266E+00  8.9168156626993E-01
38  3.7000000000000E-01  1.6767403525598E+00  9.3797244044888E-01
39  3.8000000000000E-01  1.6001655416966E+00  9.8416779937942E-01
40  3.9000000000000E-01  1.5147690424735E+00  1.0301077613604E+00
41  4.0000000000000E-01  1.4213143663744E+00  1.0756292472559E+00
42  4.1000000000000E-01  1.3206364494637E+00  1.1205659031848E+00
43  4.2000000000000E-01  1.2136292687048E+00  1.1647480374787E+00
44  4.3000000000000E-01  1.1012329243100E+00  1.2080026142616E+00
45  4.4000000000000E-01  9.8442046298658E-01  1.2501533460822E+00
46  4.5000000000000E-01  8.6418471569442E-01  1.2910209261257E+00
47  4.6000000000000E-01  7.4152541429629E-01  1.3304234366696E+00
48  4.7000000000000E-01  6.1743683461299E-01  1.3681769647382E+00
49  4.8000000000000E-01  4.9289618952763E-01  1.4040964485355E+00
50  4.9000000000000E-01  3.6885296578199E-01  1.4379967694463E+00
51  5.0000000000000E-01  2.4621936306511E-01  1.4696940945097E+00
52  5.1000000000000E-01  1.2586195517694E-01  1.4990074636446E+00
53  5.2000000000000E-01  8.5946518561034E-03  1.5257606049556E+00
54  5.3000000000000E-01 -1.0482700222706E-01  1.5497839505786E+00
55  5.4000000000000E-01 -2.1371019628620E-01  1.5709168151912E+00
56  5.5000000000000E-01 -3.1742793440144E-01  1.5890096899081E+00
57  5.6000000000000E-01 -4.1542090892539E-01  1.6039265962291E+00
58  5.7000000000000E-01 -5.0719827772907E-01  1.6155474383366E+00
59  5.8000000000000E-01 -5.9233748205352E-01  1.6237702876653E+00
60  5.9000000000000E-01 -6.7048326043418E-01  1.6285135315073E+00
61  6.0000000000000E-01 -7.4134602563690E-01  1.6297178176294E+00
62  6.1000000000000E-01 -8.0469977549373E-01  1.6273477295220E+00
63  6.2000000000000E-01 -8.6037970495996E-01  1.6213931319562E+00
64  6.3000000000000E-01 -9.0827967593215E-01  1.6118701338684E+00
65  6.4000000000000E-01 -9.4834968396843E-01  1.5988216250274E+00
66  6.5000000000000E-01 -9.8059343789662E-01  1.5823173541740E+00
67  6.6000000000000E-01 -1.0050661404841E+00  1.5624535289980E+00
68  6.7000000000000E-01 -1.0218725271650E+00  1.5393519320189E+00
69  6.8000000000000E-01 -1.0311651867155E+00  1.5131585606893E+00
70  6.9000000000000E-01 -1.0331431542588E+00  1.4840418143552E+00
71  7.0000000000000E-01 -1.0280507346173E+00  1.4521902645791E+00
72  7.1000000000000E-01 -1.0161764843281E+00  1.4178100582543E+00
73  7.2000000000000E-01 -9.9785225501905E-01  1.3811220144502E+00
74  7.3000000000000E-01 -9.7345218055950E-01  1.3423584855915E+00
75  7.4000000000000E-01 -9.4339147651395E-01  1.3017600610256E+00
76  7.5000000000000E-01 -9.0812491372637E-01  1.2595721959886E+00
77  7.6000000000000E-01 -8.6814482885274E-01  1.2160418512186E+00
78  7.7000000000000E-01 -8.2397854352496E-01  1.1714142279067E+00
79  7.8000000000000E-01 -7.7618508041896E-01  1.1259296792847E+00
80  7.9000000000000E-01 -7.2535108833992E-01  1.0798208740513E+00
81  8.0000000000000E-01 -6.7208591872129E-01  1.0333102782124E+00
82  8.1000000000000E-01 -6.1701583157148E-01  9.8660801106204E-01
83  8.2000000000000E-01 -5.6077734853711E-01  9.3991011833763E-01
84  8.3000000000000E-01 -5.0400981282007E-01  8.9339729148639E-01
85  8.4000000000000E-01 -4.4734725846940E-01  8.4723404700622E-01
86  8.5000000000000E-01 -3.9140973325444E-01  8.0156836450177E-01
87  8.6000000000000E-01 -3.3679425807665E-01  7.5653176700457E-01
88  8.7000000000000E-01 -2.8406563989954E-01  7.1223981280459E-01
89  8.8000000000000E-01 -2.3374738278438E-01  6.6879295507660E-01
90  8.9000000000000E-01 -1.8631296130529E-01  6.2627771446290E-01
91  9.0000000000000E-01 -1.4217773110452E-01  5.8476810094189E-01
92  9.1000000000000E-01 -1.0169175164121E-01  5.4432721514315E-01
93  9.2000000000000E-01 -6.5133785614893E-02  5.0500895605116E-01
94  9.3000000000000E-01 -3.2706717785468E-02  4.6685976196257E-01
95  9.4000000000000E-01 -4.5346030093772E-03  4.2992031471329E-01
96  9.5000000000000E-01  1.9338490322352E-02  3.9422714355600E-01
97  9.6000000000000E-01  3.8947728835299E-02  3.5981407452020E-01
98  9.7000000000000E-01  5.4404804552440E-02  3.2671348341322E-01
99  9.8000000000000E-01  6.5893286809363E-02  2.9495732550059E-01
100  9.9000000000000E-01  7.3662131076265E-02  2.6457793195854E-01
101  1.0000000000000E+00  7.8017519582835E-02  2.3560858194425E-01
102  1.0100000000000E+00  7.9313290137769E-02  2.0808387910752E-01
103  1.0200000000000E+00  7.7940290785605E-02  1.8203998200061E-01
104  1.0300000000000E+00  7.4315076898631E-02  1.5751475859080E-01
105  1.0400000000000E+00  6.8868441977380E-02  1.3454795541100E-01
106  1.0500000000000E+00  6.2034341837442E-02  1.1318149125678E-01
107  1.0600000000000E+00  5.4239832230411E-02  9.3460003251537E-02
108  1.0700000000000E+00  4.5896690965249E-02  7.5431789179983E-02
109  1.0800000000000E+00  3.7395438221625E-02  5.9150304431458E-02
110  1.0900000000000E+00  2.9102510196495E-02  4.4676378058009E-02
111  1.1000000000000E+00  2.1350572315751E-02  3.2078501077472E-02
112  1.1100000000000E+00  1.4396098069791E-02  2.1422264085029E-02
113  1.1200000000000E+00  8.5867139434043E-03  1.2815560383163E-02
114  1.1300000000000E+00  4.1951834281746E-03  6.3587264330157E-03
115  1.1400000000000E+00  1.3618176754954E-03  2.1234014070253E-03
116  1.1500000000000E+00  1.0813146293346E-04  1.7606162957877E-04
117  1.1600000000000E+00 -2.7727829063990E-06 -4.6430582706560E-06
118  1.1700000000000E+00 -8.2577262260080E-07 -1.3237248103865E-06
119  1.18 -0. -0.
120  1.19  0.  0.
121  1.20  0.  0.
122  1.21  0.  0.
123  1.22  0.  0.
124  1.23  0.  0.
125  1.24  0.  0.
126  1.25  0.  0.
127  1.26  0.  0.
128  1.27  0.  0.
129  1.28  0.  0.
130  1.29  0.  0.
131  1.30  0.  0.
132  1.31  0.  0.
133  1.32  0.  0.
134  1.33  0.  0.
135  1.34  0.  0.
136  1.35  0.  0.
137  1.36  0.  0.
138  1.37  0.  0.
139  1.38  0.  0.
140  1.39  0.  0.
141  1.40  0.  0.
142  1.41  0.  0.
143  1.42  0.  0.
144  1.43  0.  0.
145  1.44  0.  0.
146  1.45  0.  0.
147  1.46  0.  0.
148  1.47  0.  0.
149  1.48  0.  0.
150  1.49  0.  0.
151  1.50  0.  0.
152  1.51  0.  0.
153  1.52  0.  0.
154  1.53  0.  0.
155  1.54  0.  0.
156  1.55  0.  0.
157  1.56  0.  0.
158  1.57  0.  0.
159  1.58  0.  0.
160  1.59  0.  0.
161  1.60  0.  0.
162  1.61  0.  0.
163  1.62  0.  0.
164  1.63  0.  0.
165  1.64  0.  0.