Md    ONCVPSP-4.0.1  r_core=   1.15366   1.15366   1.15366   1.15366
101.0000     41.0000      230504    zatom,zion,pspd
8      11   3     4   600     0    pspcod,pspxc,lmax,lloc,mmax,r2well
5.99000000  2.80000000  0.00000000    rchrg fchrg qchrg
3     2     2     2     0    nproj
1     1           extension_switch
0                         2.2879831103169E+01  2.7721207270961E+00 -1.3545227662976E+00
1  0.0000000000000E+00 -2.9607026830192E-08  9.8831038908287E-08  3.1499012842495E-09
2  1.0000000000000E-02  1.5961080876226E-01 -4.8393474795771E-02  3.6494550859103E-02
3  2.0000000000000E-02  3.1807994327955E-01 -9.5564114429217E-02  7.2893767295428E-02
4  3.0000000000000E-02  4.7427837732646E-01 -1.4031598669166E-01  1.0910241036514E-01
5  4.0000000000000E-02  6.2710212104804E-01 -1.8150617562731E-01  1.4502545485201E-01
6  5.0000000000000E-02  7.7548409808494E-01 -2.1806934261474E-01  1.8056825221290E-01
7  6.0000000000000E-02  9.1840527584753E-01 -2.4904002587481E-01  2.1563675848391E-01
8  7.0000000000000E-02  1.0549048364981E+00 -2.7357204645983E-01  2.5013784497214E-01
9  8.0000000000000E-02  1.1840892058070E+00 -2.9095448760992E-01  2.8397970640794E-01
10  9.0000000000000E-02  1.3051397920217E+00 -3.0062383106109E-01  3.1707237745700E-01
11  1.0000000000000E-01  1.4173193259837E+00 -3.0217196426789E-01  3.4932836419271E-01
12  1.1000000000000E-01  1.5199767355547E+00 -2.9534991187838E-01  3.8066339242552E-01
13  1.2000000000000E-01  1.6125505304889E+00 -2.8006728818208E-01  4.1099726980941E-01
14  1.3000000000000E-01  1.6945707166970E+00 -2.5638760950293E-01  4.4025485353580E-01
15  1.4000000000000E-01  1.7656592998830E+00 -2.2451974155797E-01  4.6836711033271E-01
16  1.5000000000000E-01  1.8255294763679E+00 -1.8480588179353E-01  4.9527225056101E-01
17  1.6000000000000E-01  1.8739836422450E+00 -1.3770658621738E-01  5.2091691359242E-01
18  1.7000000000000E-01  1.9109103797070E+00 -8.3783440401367E-02  5.4525737751178E-01
19  1.8000000000000E-01  1.9362806005235E+00 -2.3680041984169E-02  5.6826076264748E-01
20  1.9000000000000E-01  1.9501430405761E+00  4.1897995161688E-02  5.8990619562557E-01
21  2.0000000000000E-01  1.9526193056562E+00  1.1220328834039E-01  6.1018589867564E-01
22  2.1000000000000E-01  1.9438986673154E+00  1.8646646835382E-01  6.2910616788167E-01
23  2.2000000000000E-01  1.9242327985881E+00  2.6391481632364E-01  6.4668820403889E-01
24  2.3000000000000E-01  1.8939306233514E+00  3.4378913554317E-01  6.6296876079122E-01
25  2.4000000000000E-01  1.8533534306786E+00  4.2535832212587E-01  6.7800057680251E-01
26  2.5000000000000E-01  1.8029103777368E+00  5.0793120055467E-01  6.9185256184526E-01
27  2.6000000000000E-01  1.7430544727435E+00  5.9086530778098E-01  7.0460971083318E-01
28  2.7000000000000E-01  1.6742790945566E+00  6.7357243782800E-01  7.1637272490841E-01
29  2.8000000000000E-01  1.5971150690486E+00  7.5552089307976E-01  7.2725732462052E-01
30  2.9000000000000E-01  1.5121282859966E+00  8.3623452354043E-01  7.3739324687673E-01
31  3.0000000000000E-01  1.4199178052797E+00  9.1528876624906E-01  7.4692292454973E-01
32  3.1000000000000E-01  1.3211143691342E+00  9.9230401882846E-01  7.5599985522794E-01
33  3.2000000000000E-01  1.2163792093882E+00  1.0669367892415E+00  7.6478667339217E-01
34  3.3000000000000E-01  1.1064030161169E+00  1.1388691541819E+00  7.7345294810002E-01
35  3.4000000000000E-01  9.9190491797752E-01  1.2077971277170E+00  7.8217273584295E-01
36  3.5000000000000E-01  8.7363131529438E-01  1.2734185872112E+00  7.9112192539836E-01
37  3.6000000000000E-01  7.5235440519676E-01  1.3354214234541E+00  8.0047541802129E-01
38  3.7000000000000E-01  6.2887024392071E-01  1.3934725754889E+00  8.1040419201009E-01
39  3.8000000000000E-01  5.0399620461267E-01  1.4472085780775E+00  8.2107230535419E-01
40  3.9000000000000E-01  3.7856770919590E-01  1.4962281921798E+00  8.3263389367256E-01
41  4.0000000000000E-01  2.5343413936653E-01  1.5400876083508E+00  8.4523022284600E-01
42  4.1000000000000E-01  1.2945386362937E-01  1.5782986124849E+00  8.5898685653651E-01
43  4.2000000000000E-01  7.4883532984283E-03  1.6103299865363E+00  8.7401099811152E-01
44  4.3000000000000E-01 -1.1160460075921E-01  1.6356122879896E+00  8.9038906432696E-01
45  4.4000000000000E-01 -2.2697851861535E-01  1.6535460156813E+00  9.0818454449062E-01
46  4.5000000000000E-01 -3.3780661687882E-01  1.6635130310897E+00  9.2743619378892E-01
47  4.6000000000000E-01 -4.4329081882387E-01  1.6648909685320E+00  9.4815660311865E-01
48  4.7000000000000E-01 -5.4267122317436E-01  1.6570702398554E+00  9.7033118026548E-01
49  4.8000000000000E-01 -6.3523583490163E-01  1.6394731239281E+00  9.9391756879192E-01
50  4.9000000000000E-01 -7.2033033639216E-01  1.6115743328570E+00  1.0188455217530E+00
51  5.0000000000000E-01 -7.9736765913777E-01  1.5729223690649E+00  1.0450172375854E+00
52  5.1000000000000E-01 -8.6583710549862E-01  1.5231609331556E+00  1.0723081554746E+00
53  5.2000000000000E-01 -9.2531276761963E-01  1.4620496139996E+00  1.1005681974647E+00
54  5.3000000000000E-01 -9.7546099649613E-01  1.3894830909277E+00  1.1296234348140E+00
55  5.4000000000000E-01 -1.0160466884356E+00  1.3055081035750E+00  1.1592781468805E+00
56  5.5000000000000E-01 -1.0469381784142E+00  1.2103374970890E+00  1.1893172324133E+00
57  5.6000000000000E-01 -1.0681105594528E+00  1.1043607274544E+00  1.2195089257524E+00
58  5.7000000000000E-01 -1.0796472832641E+00  9.8815031108989E-01  1.2496077643185E+00
59  5.8000000000000E-01 -1.0817399389317E+00  8.6246382133085E-01  1.2793577490696E+00
60  5.9000000000000E-01 -1.0746861519863E+00  7.2824116796839E-01  1.3084956364488E+00
61  6.0000000000000E-01 -1.0588855944934E+00  5.8659704018462E-01  1.3367542988253E+00
62  6.1000000000000E-01 -1.0348341461322E+00  4.3880854315388E-01  1.3638660905676E+00
63  6.2000000000000E-01 -1.0031162951599E+00  2.8629820924404E-01  1.3895661586824E+00
64  6.3000000000000E-01 -9.6439591505666E-01  1.3061271109362E-01  1.4135956403070E+00
65  6.4000000000000E-01 -9.1940559605765E-01 -2.6602259008654E-02  1.4357046941629E+00
66  6.5000000000000E-01 -8.6893474933434E-01 -1.8363035561469E-01  1.4556553191849E+00
67  6.6000000000000E-01 -8.1381673409423E-01 -3.3871549904704E-01  1.4732239207223E+00
68  6.7000000000000E-01 -7.5491528333375E-01 -4.9009456896717E-01  1.4882035927417E+00
69  6.8000000000000E-01 -6.9311052165637E-01 -6.3603103433990E-01  1.5004060930547E+00
70  6.9000000000000E-01 -6.2928487796485E-01 -7.7484864690623E-01  1.5096634974871E+00
71  7.0000000000000E-01 -5.6430919673598E-01 -9.0496431743066E-01  1.5158295277851E+00
72  7.1000000000000E-01 -4.9902934405033E-01 -1.0249193130313E+00  1.5187805566422E+00
73  7.2000000000000E-01 -4.3425358890987E-01 -1.1334079590381E+00  1.5184163012465E+00
74  7.3000000000000E-01 -3.7074101721702E-01 -1.2293030984227E+00  1.5146602239316E+00
75  7.4000000000000E-01 -3.0919120593040E-01 -1.3116776534562E+00  1.5074596646484E+00
76  7.5000000000000E-01 -2.5023534936592E-01 -1.3798217447908E+00  1.4967857348696E+00
77  7.6000000000000E-01 -1.9442898955389E-01 -1.4332549489300E+00  1.4826330060557E+00
78  7.7000000000000E-01 -1.4224645928570E-01 -1.4717334119423E+00  1.4650190278626E+00
79  7.8000000000000E-01 -9.4077101350065E-02 -1.4952516808705E+00  1.4439837118273E+00
80  7.9000000000000E-01 -5.0223281853316E-02 -1.5040392600713E+00  1.4195886153392E+00
81  8.0000000000000E-01 -1.0900170809151E-02 -1.4985520431390E+00  1.3919161583864E+00
82  8.1000000000000E-01  2.3762779334041E-02 -1.4794589077804E+00  1.3610688019659E+00
83  8.2000000000000E-01  5.3718765698930E-02 -1.4476238869637E+00  1.3271682123606E+00
84  8.3000000000000E-01  7.8999120697783E-02 -1.4040844412249E+00  1.2903544299172E+00
85  8.4000000000000E-01  9.9707524055372E-02 -1.3500264511135E+00  1.2507850547648E+00
86  8.5000000000000E-01  1.1601313716097E-01 -1.2867566229103E+00  1.2086344553702E+00
87  8.6000000000000E-01  1.2814287276193E-01 -1.2156730531825E+00  1.1640929992092E+00
88  8.7000000000000E-01  1.3637302330390E-01 -1.1382347273785E+00  1.1173662984475E+00
89  8.8000000000000E-01  1.4102047478305E-01 -1.0559307341777E+00  1.0686744576396E+00
90  8.9000000000000E-01  1.4243372997788E-01 -9.7024996106044E-01  1.0182513053315E+00
91  9.0000000000000E-01  1.4098395573746E-01 -8.8265199861429E-01  9.6634358733447E-01
92  9.1000000000000E-01  1.3705625415668E-01 -7.9453992310885E-01  9.1321009649592E-01
93  9.2000000000000E-01  1.3104133765055E-01 -7.0723555106596E-01  8.5912071219732E-01
94  9.3000000000000E-01  1.2332776395052E-01 -6.2195766859333E-01  8.0435532263080E-01
95  9.4000000000000E-01  1.1429485977059E-01 -5.3980363515500E-01  7.4920260419596E-01
96  9.5000000000000E-01  1.0430643226826E-01 -4.6173464948126E-01  6.9395863508721E-01
97  9.6000000000000E-01  9.3705336421719E-02 -3.8856484790714E-01  6.3892532422958E-01
98  9.7000000000000E-01  8.2808934989002E-02 -3.2095428593026E-01  5.8440864203509E-01
99  9.8000000000000E-01  7.1905456741865E-02 -2.5940573565071E-01  5.3071664579965E-01
100  9.9000000000000E-01  6.1251228997335E-02 -2.0426511809895E-01  4.7815729971701E-01
101  1.0000000000000E+00  5.1068732887484E-02 -1.5572528331497E-01  4.2703609717619E-01
102  1.0100000000000E+00  4.1545404931684E-02 -1.1383275488754E-01  3.7765350095115E-01
103  1.0200000000000E+00  3.2833086890220E-02 -7.8496971912313E-02  3.3030222476888E-01
104  1.0300000000000E+00  2.5048007977969E-02 -4.9501491712154E-02  2.8526438724473E-01
105  1.0400000000000E+00  1.8271169594199E-02 -2.6516562555580E-02  2.4280857601090E-01
106  1.0500000000000E+00  1.2548992973310E-02 -9.1124380288542E-03  2.0318686574210E-01
107  1.0600000000000E+00  7.8940846226010E-03  3.2272159148220E-03  1.6663183845577E-01
108  1.0700000000000E+00  4.2859730357204E-03  1.1092473828209E-02  1.3335365773426E-01
109  1.0800000000000E+00  1.6716744142861E-03  1.5135498345831E-02  1.0353725224815E-01
110  1.0900000000000E+00 -3.4026517243097E-05  1.6060639468800E-02  7.7339669524505E-02
111  1.1000000000000E+00 -9.5596367962049E-04  1.4638313552891E-02  5.4878516833067E-02
112  1.1100000000000E+00 -1.2880483086298E-03  1.1789219839512E-02  3.6187970803555E-02
113  1.1200000000000E+00 -1.1778214929580E-03  8.2305187722183E-03  2.1361944220907E-02
114  1.1300000000000E+00 -7.9507028227927E-04  4.6541150455062E-03  1.0451596951825E-02
115  1.1400000000000E+00 -3.3858541288399E-04  1.7398324057850E-03  3.4392387888636E-03
116  1.1500000000000E+00 -3.4548097259154E-05  1.5970491693157E-04  2.8067725227029E-04
117  1.1600000000000E+00  1.0162196785458E-06 -4.4647548727078E-06 -7.3294176006530E-06
118  1.1700000000000E+00  2.4408325443620E-07 -1.1649985392091E-06 -2.1211851024825E-06
119  1.18 -0.  0. -0.
120  1.19  0.  0.  0.
121  1.20  0.  0.  0.
122  1.21  0.  0.  0.
123  1.22  0.  0.  0.
124  1.23  0.  0.  0.
125  1.24  0.  0.  0.
126  1.25  0.  0.  0.
127  1.26  0.  0.  0.
128  1.27  0.  0.  0.
129  1.28  0.  0.  0.
130  1.29  0.  0.  0.
131  1.30  0.  0.  0.
132  1.31  0.  0.  0.
133  1.32  0.  0.  0.
134  1.33  0.  0.  0.
135  1.34  0.  0.  0.
136  1.35  0.  0.  0.
137  1.36  0.  0.  0.
138  1.37  0.  0.  0.
139  1.38  0.  0.  0.
140  1.39  0.  0.  0.
141  1.40  0.  0.  0.
142  1.41  0.  0.  0.
143  1.42  0.  0.  0.
144  1.43  0.  0.  0.
145  1.44  0.  0.  0.
146  1.45  0.  0.  0.
147  1.46  0.  0.  0.
148  1.47  0.  0.  0.
149  1.48  0.  0.  0.
150  1.49  0.  0.  0.
151  1.50  0.  0.  0.
152  1.51  0.  0.  0.
153  1.52  0.  0.  0.
154  1.53  0.  0.  0.
155  1.54  0.  0.  0.
156  1.55  0.  0.  0.
157  1.56  0.  0.  0.
158  1.57  0.  0.  0.
159  1.58  0.  0.  0.
160  1.59  0.  0.  0.
161  1.60  0.  0.  0.
162  1.61  0.  0.  0.
163  1.62  0.  0.  0.
164  1.63  0.  0.  0.
165  1.64  0.  0.  0.
166  1.65  0.  0.  0.
167  1.66  0.  0.  0.
168  1.67  0.  0.  0.
169  1.68  0.  0.  0.
170  1.69  0.  0.  0.
171  1.70  0.  0.  0.
172  1.71  0.  0.  0.
173  1.72  0.  0.  0.
174  1.73  0.  0.  0.
175  1.74  0.  0.  0.
176  1.75  0.  0.  0.
177  1.76  0.  0.  0.
178  1.77  0.  0.  0.
179  1.78  0.  0.  0.
180  1.79  0.  0.  0.
181  1.80  0.  0.  0.
182  1.81  0.  0.  0.
183  1.82  0.  0.  0.
184  1.83  0.  0.  0.
185  1.84  0.  0.  0.
186  1.85  0.  0.  0.
187  1.86  0.  0.  0.
188  1.87  0.  0.  0.
189  1.88  0.  0.  0.
190  1.89  0.  0.  0.
191  1.90  0.  0.  0.
192  1.91  0.  0.  0.
193  1.92  0.  0.  0.
194  1.93  0.  0.  0.
195  1.94  0.  0.  0.
196  1.95  0.  0.  0.
197  1.96  0.  0.  0.
198  1.97  0.  0.  0.
199  1.98  0.  0.  0.
200  1.99  0.  0.  0.
201  2.00  0.  0.  0.
202  2.01  0.  0.  0.
203  2.02  0.  0.  0.
204  2.03  0.  0.  0.
205  2.04  0.  0.  0.
206  2.05  0.  0.  0.
207  2.06  0.  0.  0.
208  2.07  0.  0.  0.
209  2.08  0.  0.  0.
210  2.09  0.  0.  0.
211  2.10  0.  0.  0.
212  2.11  0.  0.  0.
213  2.12  0.  0.  0.
214  2.13  0.  0.  0.
215  2.14  0.  0.  0.
216  2.15  0.  0.  0.
217  2.16  0.  0.  0.
218  2.17  0.  0.  0.
219  2.18  0.  0.  0.
220  2.19  0.  0.  0.
221  2.20  0.  0.  0.
222  2.21  0.  0.  0.
223  2.22  0.  0.  0.
224  2.23  0.  0.  0.
225  2.24  0.  0.  0.
226  2.25  0.  0.  0.
227  2.26  0.  0.  0.
228  2.27  0.  0.  0.
229  2.28  0.  0.  0.
230  2.29  0.  0.  0.
231  2.30  0.  0.  0.
232  2.31  0.  0.  0.
233  2.32  0.  0.  0.
234  2.33  0.  0.  0.
235  2.34  0.  0.  0.
236  2.35  0.  0.  0.
237  2.36  0.  0.  0.
238  2.37  0.  0.  0.
239  2.38  0.  0.  0.
240  2.39  0.  0.  0.
241  2.40  0.  0.  0.
242  2.41  0.  0.  0.
243  2.42  0.  0.  0.
244  2.43  0.  0.  0.
245  2.44  0.  0.  0.
246  2.45  0.  0.  0.
247  2.46  0.  0.  0.
248  2.47  0.  0.  0.
249  2.48  0.  0.  0.
250  2.49  0.  0.  0.
251  2.50  0.  0.  0.
252  2.51  0.  0.  0.
253  2.52  0.  0.  0.
254  2.53  0.  0.  0.
255  2.54  0.  0.  0.
256  2.55  0.  0.  0.
257  2.56  0.  0.  0.
258  2.57  0.  0.  0.
259  2.58  0.  0.  0.
260  2.59  0.  0.  0.
261  2.60  0.  0.  0.
262  2.61  0.  0.  0.
263  2.62  0.  0.  0.
264  2.63  0.  0.  0.
265  2.64  0.  0.  0.
266  2.65  0.  0.  0.
267  2.66  0.  0.  0.
268  2.67  0.  0.  0.
269  2.68  0.  0.  0.
270  2.69  0.  0.  0.
271  2.70  0.  0.  0.
272  2.71  0.  0.  0.
273  2.72  0.  0.  0.
274  2.73  0.  0.  0.
275  2.74  0.  0.  0.
276  2.75  0.  0.  0.
277  2.76  0.  0.  0.
278  2.77  0.  0.  0.
279  2.78  0.  0.  0.
280  2.79  0.  0.  0.
281  2.80  0.  0.  0.
282  2.81  0.  0.  0.
283  2.82  0.  0.  0.
284  2.83  0.  0.  0.
285  2.84  0.  0.  0.
286  2.85  0.  0.  0.
287  2.86  0.  0.  0.
288  2.87  0.  0.  0.
289  2.88  0.  0.  0.
290  2.89  0.  0.  0.
291  2.90  0.  0.  0.
292  2.91  0.  0.  0.
293  2.92  0.  0.  0.
294  2.93  0.  0.  0.
295  2.94  0.  0.  0.
296  2.95  0.  0.  0.
297  2.96  0.  0.  0.
298  2.97  0.  0.  0.
299  2.98  0.  0.  0.
300  2.99  0.  0.  0.
301  3.00  0.  0.  0.
302  3.01  0.  0.  0.
303  3.02  0.  0.  0.
304  3.03  0.  0.  0.
305  3.04  0.  0.  0.
306  3.05  0.  0.  0.
307  3.06  0.  0.  0.
308  3.07  0.  0.  0.
309  3.08  0.  0.  0.
310  3.09  0.  0.  0.
311  3.10  0.  0.  0.
312  3.11  0.  0.  0.
313  3.12  0.  0.  0.
314  3.13  0.  0.  0.
315  3.14  0.  0.  0.
316  3.15  0.  0.  0.
317  3.16  0.  0.  0.
318  3.17  0.  0.  0.
319  3.18  0.  0.  0.
320  3.19  0.  0.  0.
321  3.20  0.  0.  0.
322  3.21  0.  0.  0.
323  3.22  0.  0.  0.
324  3.23  0.  0.  0.
325  3.24  0.  0.  0.
326  3.25  0.  0.  0.
327  3.26  0.  0.  0.
328  3.27  0.  0.  0.
329  3.28  0.  0.  0.
330  3.29  0.  0.  0.
331  3.30  0.  0.  0.
332  3.31  0.  0.  0.
333  3.32  0.  0.  0.
334  3.33  0.  0.  0.
335  3.34  0.  0.  0.
336  3.35  0.  0.  0.
337  3.36  0.  0.  0.
338  3.37  0.  0.  0.
339  3.38  0.  0.  0.
340  3.39  0.  0.  0.
341  3.40  0.  0.  0.
342  3.41  0.  0.  0.
343  3.42  0.  0.  0.
344  3.43  0.  0.  0.
345  3.44  0.  0.  0.
346  3.45  0.  0.  0.
347  3.46  0.  0.  0.
348  3.47  0.  0.  0.
349  3.48  0.  0.  0.
350  3.49  0.  0.  0.
351  3.50  0.  0.  0.
352  3.51  0.  0.  0.
353  3.52  0.  0.  0.
354  3.53  0.  0.  0.
355  3.54  0.  0.  0.
356  3.55  0.  0.  0.
357  3.56  0.  0.  0.
358  3.57  0.  0.  0.
359  3.58  0.  0.  0.
360  3.59  0.  0.  0.
361  3.60  0.  0.  0.
362  3.61  0.  0.  0.
363  3.62  0.  0.  0.
364  3.63  0.  0.  0.
365  3.64  0.  0.  0.
366  3.65  0.  0.  0.
367  3.66  0.  0.  0.
368  3.67  0.  0.  0.
369  3.68  0.  0.  0.
370  3.69  0.  0.  0.
371  3.70  0.  0.  0.
372  3.71  0.  0.  0.
373  3.72  0.  0.  0.
374  3.73  0.  0.  0.
375  3.74  0.  0.  0.
376  3.75  0.  0.  0.
377  3.76  0.  0.  0.
378  3.77  0.  0.  0.
379  3.78  0.  0.  0.
380  3.79  0.  0.  0.
381  3.80  0.  0.  0.
382  3.81  0.  0.  0.
383  3.82  0.  0.  0.
384  3.83  0.  0.  0.
385  3.84  0.  0.  0.
386  3.85  0.  0.  0.
387  3.86  0.  0.  0.
388  3.87  0.  0.  0.
389  3.88  0.  0.  0.
390  3.89  0.  0.  0.
391  3.90  0.  0.  0.
392  3.91  0.  0.  0.
393  3.92  0.  0.  0.
394  3.93  0.  0.  0.
395  3.94  0.  0.  0.
396  3.95  0.  0.  0.
397  3.96  0.  0.  0.
398  3.97  0.  0.  0.
399  3.98  0.  0.  0.
400  3.99  0.  0.  0.
401  4.00  0.  0.  0.
402  4.01  0.  0.  0.
403  4.02  0.  0.  0.
404  4.03  0.  0.  0.
405  4.04  0.  0.  0.
406  4.05  0.  0.  0.
407  4.06  0.  0.  0.
408  4.07  0.  0.  0.
409  4.08  0.  0.  0.
410  4.09  0.  0.  0.
411  4.10  0.  0.  0.
412  4.11  0.  0.  0.
413  4.12  0.  0.  0.
414  4.13  0.  0.  0.
415  4.14  0.  0.  0.
416  4.15  0.  0.  0.
417  4.16  0.  0.  0.
418  4.17  0.  0.  0.
419  4.18  0.  0.  0.
420  4.19  0.  0.  0.
421  4.20  0.  0.  0.
422  4.21  0.  0.  0.
423  4.22  0.  0.  0.
424  4.23  0.  0.  0.
425  4.24  0.  0.  0.
426  4.25  0.  0.  0.
427  4.26  0.  0.  0.
428  4.27  0.  0.  0.
429  4.28  0.  0.  0.
430  4.29  0.  0.  0.
431  4.30  0.  0.  0.
432  4.31  0.  0.  0.
433  4.32  0.  0.  0.
434  4.33  0.  0.  0.
435  4.34  0.  0.  0.
436  4.35  0.  0.  0.
437  4.36  0.  0.  0.
438  4.37  0.  0.  0.
439  4.38  0.  0.  0.
440  4.39  0.  0.  0.
441  4.40  0.  0.  0.
442  4.41  0.  0.  0.
443  4.42  0.  0.  0.
444  4.43  0.  0.  0.
445  4.44  0.  0.  0.
446  4.45  0.  0.  0.
447  4.46  0.  0.  0.
448  4.47  0.  0.  0.
449  4.48  0.  0.  0.
450  4.49  0.  0.  0.
451  4.50  0.  0.  0.
452  4.51  0.  0.  0.
453  4.52  0.  0.  0.
454  4.53  0.  0.  0.
455  4.54  0.  0.  0.
456  4.55  0.  0.  0.
457  4.56  0.  0.  0.
458  4.57  0.  0.  0.
459  4.58  0.  0.  0.
460  4.59  0.  0.  0.
461  4.60  0.  0.  0.
462  4.61  0.  0.  0.
463  4.62  0.  0.  0.
464  4.63  0.  0.  0.
465  4.64  0.  0.  0.
466  4.65  0.  0.  0.
467  4.66  0.  0.  0.
468  4.67  0.  0.  0.
469  4.68  0.  0.  0.
470  4.69  0.  0.  0.
471  4.70  0.  0.  0.
472  4.71  0.  0.  0.
473  4.72  0.  0.  0.
474  4.73  0.  0.  0.
475  4.74  0.  0.  0.
476  4.75  0.  0.  0.
477  4.76  0.  0.  0.
478  4.77  0.  0.  0.
479  4.78  0.  0.  0.
480  4.79  0.  0.  0.
481  4.80  0.  0.  0.
482  4.81  0.  0.  0.
483  4.82  0.  0.  0.
484  4.83  0.  0.  0.
485  4.84  0.  0.  0.
486  4.85  0.  0.  0.
487  4.86  0.  0.  0.
488  4.87  0.  0.  0.
489  4.88  0.  0.  0.
490  4.89  0.  0.  0.
491  4.90  0.  0.  0.
492  4.91  0.  0.  0.
493  4.92  0.  0.  0.
494  4.93  0.  0.  0.
495  4.94  0.  0.  0.
496  4.95  0.  0.  0.
497  4.96  0.  0.  0.
498  4.97  0.  0.  0.
499  4.98  0.  0.  0.
500  4.99  0.  0.  0.
501  5.00  0.  0.  0.
502  5.01  0.  0.  0.
503  5.02  0.  0.  0.
504  5.03  0.  0.  0.
505  5.04  0.  0.  0.
506  5.05  0.  0.  0.
507  5.06  0.  0.  0.
508  5.07  0.  0.  0.
509  5.08  0.  0.  0.
510  5.09  0.  0.  0.
511  5.10  0.  0.  0.
512  5.11  0.  0.  0.
513  5.12  0.  0.  0.
514  5.13  0.  0.  0.
515  5.14  0.  0.  0.
516  5.15  0.  0.  0.
517  5.16  0.  0.  0.
518  5.17  0.  0.  0.
519  5.18  0.  0.  0.
520  5.19  0.  0.  0.
521  5.20  0.  0.  0.
522  5.21  0.  0.  0.
523  5.22  0.  0.  0.
524  5.23  0.  0.  0.
525  5.24  0.  0.  0.
526  5.25  0.  0.  0.
527  5.26  0.  0.  0.
528  5.27  0.  0.  0.
529  5.28  0.  0.  0.
530  5.29  0.  0.  0.
531  5.30  0.  0.  0.
532  5.31  0.  0.  0.
533  5.32  0.  0.  0.
534  5.33  0.  0.  0.
535  5.34  0.  0.  0.
536  5.35  0.  0.  0.
537  5.36  0.  0.  0.
538  5.37  0.  0.  0.
539  5.38  0.  0.  0.
540  5.39  0.  0.  0.
541  5.40  0.  0.  0.
542  5.41  0.  0.  0.
543  5.42  0.  0.  0.
544  5.43  0.  0.  0.
545  5.44  0.  0.  0.
546  5.45  0.  0.  0.
547  5.46  0.  0.  0.
548  5.47  0.  0.  0.
549  5.48  0.  0.  0.
550  5.49  0.  0.  0.
551  5.50  0.  0.  0.
552  5.51  0.  0.  0.
553  5.52  0.  0.  0.
554  5.53  0.  0.  0.
555  5.54  0.  0.  0.
556  5.55  0.  0.  0.
557  5.56  0.  0.  0.
558  5.57  0.  0.  0.
559  5.58  0.  0.  0.
560  5.59  0.  0.  0.
561  5.60  0.  0.  0.
562  5.61  0.  0.  0.
563  5.62  0.  0.  0.
564  5.63  0.  0.  0.
565  5.64  0.  0.  0.
566  5.65  0.  0.  0.
567  5.66  0.  0.  0.
568  5.67  0.  0.  0.
569  5.68  0.  0.  0.
570  5.69  0.  0.  0.
571  5.70  0.  0.  0.
572  5.71  0.  0.  0.
573  5.72  0.  0.  0.
574  5.73  0.  0.  0.
575  5.74  0.  0.  0.
576  5.75  0.  0.  0.
577  5.76  0.  0.  0.
578  5.77  0.  0.  0.
579  5.78  0.  0.  0.
580  5.79  0.  0.  0.
581  5.80  0.  0.  0.
582  5.81  0.  0.  0.
583  5.82  0.  0.  0.
584  5.83  0.  0.  0.
585  5.84  0.  0.  0.
586  5.85  0.  0.  0.
587  5.86  0.  0.  0.
588  5.87  0.  0.  0.
589  5.88  0.  0.  0.
590  5.89  0.  0.  0.
591  5.90  0.  0.  0.
592  5.91  0.  0.  0.
593  5.92  0.  0.  0.
594  5.93  0.  0.  0.
595  5.94  0.  0.  0.
596  5.95  0.  0.  0.
597  5.96  0.  0.  0.
598  5.97  0.  0.  0.
599  5.98  0.  0.  0.
600  5.99  0.  0.  0.
1                         7.3226259071737E+00 -1.2327358525790E+00
1  0.0000000000000E+00 -8.3226105451750E-09 -1.6712935098362E-08
2  1.0000000000000E-02  4.4607877536063E-03  3.5869196640236E-04
3  2.0000000000000E-02  1.7805468573747E-02  1.4440689502875E-03
4  3.0000000000000E-02  3.9921133212152E-02  3.2837049900148E-03
5  4.0000000000000E-02  7.0620066969611E-02  5.9224710133835E-03
6  5.0000000000000E-02  1.0964047535019E-01  9.4209462518978E-03
7  6.0000000000000E-02  1.5664754774960E-01  1.3853272952533E-02
8  7.0000000000000E-02  2.1123490375825E-01  1.9304529663734E-02
9  8.0000000000000E-02  2.7292647498186E-01  2.5867715085317E-02
10  9.0000000000000E-02  3.4117888054125E-01  3.3640447831613E-02
11  1.0000000000000E-01  4.1538435619012E-01  4.2721496976657E-02
12  1.1000000000000E-01  4.9487429501201E-01  5.3207263583244E-02
13  1.2000000000000E-01  5.7892345180389E-01  6.5188334371044E-02
14  1.3000000000000E-01  6.6675485356820E-01  7.8746225220616E-02
15  1.4000000000000E-01  7.5754544522170E-01  9.3950424469673E-02
16  1.5000000000000E-01  8.5043248305022E-01  1.1085583422263E-01
17  1.6000000000000E-01  9.4452066910193E-01  1.2950069260039E-01
18  1.7000000000000E-01  1.0388899982523E+00  1.4990504157038E-01
19  1.8000000000000E-01  1.1326042668358E+00  1.7206978439839E-01
20  1.9000000000000E-01  1.2247201683415E+00  1.9597635461714E-01
21  2.0000000000000E-01  1.3142968785846E+00  2.2158699554068E-01
22  2.1000000000000E-01  1.4004060108858E+00  2.4884562662021E-01
23  2.2000000000000E-01  1.4821418019759E+00  2.7767925119036E-01
24  2.3000000000000E-01  1.5586313724415E+00  3.0799984021254E-01
25  2.4000000000000E-01  1.6290448922518E+00  3.3970660923846E-01
26  2.5000000000000E-01  1.6926054729216E+00  3.7268859165336E-01
27  2.6000000000000E-01  1.7485986036421E+00  4.0682740085867E-01
28  2.7000000000000E-01  1.7963809496091E+00  4.4200006782298E-01
29  2.8000000000000E-01  1.8353883369539E+00  4.7808183861702E-01
30  2.9000000000000E-01  1.8651427601281E+00  5.1494881923969E-01
31  3.0000000000000E-01  1.8852582641048E+00  5.5248036215092E-01
32  3.1000000000000E-01  1.8954455749601E+00  5.9056110020195E-01
33  3.2000000000000E-01  1.8955153777306E+00  6.2908254868139E-01
34  3.3000000000000E-01  1.8853801692071E+00  6.6794421441733E-01
35  3.4000000000000E-01  1.8650546446708E+00  7.0705417160783E-01
36  3.5000000000000E-01  1.8346546105764E+00  7.4632908650821E-01
37  3.6000000000000E-01  1.7943944488097E+00  7.8569369642277E-01
38  3.7000000000000E-01  1.7445831913523E+00  8.2507977173292E-01
39  3.8000000000000E-01  1.6856192959147E+00  8.6442461203118E-01
40  3.9000000000000E-01  1.6179842423426E+00  9.0366914794118E-01
41  4.0000000000000E-01  1.5422350954111E+00  9.4275573806303E-01
42  4.1000000000000E-01  1.4589962011800E+00  9.8162576496196E-01
43  4.2000000000000E-01  1.3689502006780E+00  1.0202171446039E+00
44  4.3000000000000E-01  1.2728285558127E+00  1.0584618696706E+00
45  4.4000000000000E-01  1.1714017877039E+00  1.0962837084591E+00
46  4.5000000000000E-01  1.0654696269901E+00  1.1335961774608E+00
47  4.6000000000000E-01  9.5585126911492E-01  1.1703008972930E+00
48  4.7000000000000E-01  8.4337591545059E-01  1.2062864286628E+00
49  4.8000000000000E-01  7.2887376381868E-01  1.2414276679184E+00
50  4.9000000000000E-01  6.1316759019521E-01  1.2755858610648E+00
51  5.0000000000000E-01  4.9706503793980E-01  1.3086092716499E+00
52  5.1000000000000E-01  3.8135170272465E-01  1.3403345125004E+00
53  5.2000000000000E-01  2.6678507149791E-01  1.3705885248725E+00
54  5.3000000000000E-01  1.5408934340282E-01  1.3991911621676E+00
55  5.4000000000000E-01  4.3951130709789E-02  1.4259583099843E+00
56  5.5000000000000E-01 -6.2983990396287E-02  1.4507054509146E+00
57  5.6000000000000E-01 -1.6611413486581E-01  1.4732515621077E+00
58  5.7000000000000E-01 -2.6488304728659E-01  1.4934232170419E+00
59  5.8000000000000E-01 -3.5878141897783E-01  1.5110587508962E+00
60  5.9000000000000E-01 -4.4734769132376E-01  1.5260123419408E+00
61  6.0000000000000E-01 -5.3016846006673E-01  1.5381578598554E+00
62  6.1000000000000E-01 -6.0687859671024E-01  1.5473923359970E+00
63  6.2000000000000E-01 -6.7716119899002E-01  1.5536389203550E+00
64  6.3000000000000E-01 -7.4074747280137E-01  1.5568492049818E+00
65  6.4000000000000E-01 -7.9741663348567E-01  1.5570048136375E+00
66  6.5000000000000E-01 -8.4699589564593E-01  1.5541181815738E+00
67  6.6000000000000E-01 -8.8936059852461E-01  1.5482324769909E+00
68  6.7000000000000E-01 -9.2443448942983E-01  1.5394206457687E+00
69  6.8000000000000E-01 -9.5219016184459E-01  1.5277835925178E+00
70  6.9000000000000E-01 -9.7264961886677E-01  1.5134475426768E+00
71  7.0000000000000E-01 -9.8588490770585E-01  1.4965606611172E+00
72  7.1000000000000E-01 -9.9201874827318E-01  1.4772890313393E+00
73  7.2000000000000E-01 -9.9122505955113E-01  1.4558121247525E+00
74  7.3000000000000E-01 -9.8372927239386E-01  1.4323179107125E+00
75  7.4000000000000E-01 -9.6980830753071E-01  1.4069977740767E+00
76  7.5000000000000E-01 -9.4979009344201E-01  1.3800414173351E+00
77  7.6000000000000E-01 -9.2405250087227E-01  1.3516319283904E+00
78  7.7000000000000E-01 -8.9302157920236E-01  1.3219411925255E+00
79  7.8000000000000E-01 -8.5716899463254E-01  1.2911258179838E+00
80  7.9000000000000E-01 -8.1700859078782E-01  1.2593237291070E+00
81  8.0000000000000E-01 -7.7309201834515E-01  1.2266515595806E+00
82  8.1000000000000E-01 -7.2600341076913E-01  1.1932029517096E+00
83  8.2000000000000E-01 -6.7635311719076E-01  1.1590478366679E+00
84  8.3000000000000E-01 -6.2477053965999E-01  1.1242327363869E+00
85  8.4000000000000E-01 -5.7189615910885E-01  1.0887820913813E+00
86  8.5000000000000E-01 -5.1837287095460E-01  1.0527005816306E+00
87  8.6000000000000E-01 -4.6483678590119E-01  1.0159763709919E+00
88  8.7000000000000E-01 -4.1190768273697E-01  9.7858517086215E-01
89  8.8000000000000E-01 -3.6017932643121E-01  9.4049498721102E-01
90  8.9000000000000E-01 -3.1020988539026E-01  9.0167138789016E-01
91  9.0000000000000E-01 -2.6251269531472E-01  8.6208310532002E-01
92  9.1000000000000E-01 -2.1754762289834E-01  8.2170777415144E-01
93  9.2000000000000E-01 -1.7571328008143E-01  7.8053759493511E-01
94  9.3000000000000E-01 -1.3734032846107E-01  7.3858471362371E-01
95  9.4000000000000E-01 -1.0268609381275E-01  6.9588611302047E-01
96  9.5000000000000E-01 -7.1930682846595E-02  6.5250782595361E-01
97  9.6000000000000E-01 -4.5174758977825E-02  6.0854830059361E-01
98  9.7000000000000E-01 -2.2439091953864E-02  5.6414077530663E-01
99  9.8000000000000E-01 -3.6659488859087E-03  5.1945455284144E-01
100  9.9000000000000E-01  1.1277657030780E-02  4.7469510040700E-01
101  1.0000000000000E+00  2.2594897407039E-02  4.3010294201239E-01
102  1.0100000000000E+00  3.0552330729951E-02  3.8595135098352E-01
103  1.0200000000000E+00  3.5471520273569E-02  3.4254289231654E-01
104  1.0300000000000E+00  3.7719262681437E-02  3.0020490501295E-01
105  1.0400000000000E+00  3.7696667624397E-02  2.5928405234770E-01
106  1.0500000000000E+00  3.5827368266740E-02  2.2014010173665E-01
107  1.0600000000000E+00  3.2545173960504E-02  1.8313912425967E-01
108  1.0700000000000E+00  2.8281499532059E-02  1.4864632598000E-01
109  1.0800000000000E+00  2.3452920548241E-02  1.1701873960844E-01
110  1.0900000000000E+00  1.8449216455176E-02  8.8598002915496E-02
111  1.1000000000000E+00  1.3614017717817E-02  6.3696522964160E-02
112  1.1100000000000E+00  9.1982290239354E-03  4.2556037305929E-02
113  1.1200000000000E+00  5.4807070485355E-03  2.5453353377012E-02
114  1.1300000000000E+00  2.6667298294329E-03  1.2618683349000E-02
115  1.1400000000000E+00  8.5922764145275E-04  4.2076689288153E-03
116  1.1500000000000E+00  6.7426448223811E-05  3.4813427646476E-04
117  1.1600000000000E+00 -1.7152252601101E-06 -9.1686312888937E-06
118  1.1700000000000E+00 -5.1712919924288E-07 -2.6194348361820E-06
119  1.18 -0. -0.
120  1.19  0.  0.
121  1.20  0.  0.
122  1.21  0.  0.
123  1.22  0.  0.
124  1.23  0.  0.
125  1.24  0.  0.
126  1.25  0.  0.
127  1.26  0.  0.
128  1.27  0.  0.
129  1.28  0.  0.
130  1.29  0.  0.
131  1.30  0.  0.
132  1.31  0.  0.
133  1.32  0.  0.
134  1.33  0.  0.
135  1.34  0.  0.
136  1.35  0.  0.
137  1.36  0.  0.
138  1.37  0.  0.
139  1.38  0.  0.
140  1.39  0.  0.
141  1.40  0.  0.
142  1.41  0.  0.
143  1.42  0.  0.
144  1.43  0.  0.
145  1.44  0.  0.
146  1.45  0.  0.
147  1.46  0.  0.
148  1.47  0.  0.
149  1.48  0.  0.
150  1.49  0.  0.
151  1.50  0.  0.
152  1.51  0.  0.
153  1.52  0.  0.
154  1.53  0.  0.
155  1.54  0.  0.
156  1.55  0.  0.
157  1.56  0.  0.
158  1.57  0.  0.
159  1.58  0.  0.
160  1.59  0.  0.
161  1.60  0.  0.
162  1.61  0.  0.
163  1.62  0.  0.
164  1.63  0.  0.
165  1.64  0.  0.