Lr    ONCVPSP-4.0.1  r_core=   1.15174   1.15174   1.15174   1.15174
103.0000     43.0000      220327    zatom,zion,pspd
8      11   3     4   600     0    pspcod,pspxc,lmax,lloc,mmax,r2well
5.99000000  4.12600000  0.00000000    rchrg fchrg qchrg
3     2     2     2     0    nproj
1     1           extension_switch
0                         2.1711888197767E+01  2.3313410661717E+00 -2.2877190306974E+00
1  0.0000000000000E+00 -1.1998441573624E-08 -4.3021939732935E-08 -1.3943025067853E-09
2  1.0000000000000E-02  1.6602211670237E-01  4.7645437129846E-02  4.3786535671744E-02
3  2.0000000000000E-02  3.3082382033149E-01  9.4203481612183E-02  8.7443986059797E-02
4  3.0000000000000E-02  4.9319607259440E-01  1.3860562650457E-01  1.3084458847481E-01
5  4.0000000000000E-02  6.5195243236760E-01  1.7982071885544E-01  1.7386320697371E-01
6  5.0000000000000E-02  8.0593997652781E-01  2.1687260478602E-01  2.1637860000279E-01
7  6.0000000000000E-02  9.5404977641354E-01  2.4885656849402E-01  2.5827463420662E-01
8  7.0000000000000E-02  1.0952267964155E+00  2.7495421578693E-01  2.9944142816082E-01
9  8.0000000000000E-02  1.2284790931927E+00  2.9444649577405E-01  3.3977641118136E-01
10  9.0000000000000E-02  1.3528862083600E+00  3.0672460558594E-01  3.7918528402662E-01
11  1.0000000000000E-01  1.4676066637953E+00  3.1129858087176E-01  4.1758287019306E-01
12  1.1000000000000E-01  1.5718844865053E+00  3.0780343757191E-01  4.5489384855600E-01
13  1.2000000000000E-01  1.6650547087912E+00  2.9600279615250E-01  4.9105336026507E-01
14  1.3000000000000E-01  1.7465478087391E+00  2.7578998611199E-01  5.2600748500828E-01
15  1.4000000000000E-01  1.8158930753164E+00  2.4718669409263E-01  5.5971358394948E-01
16  1.5000000000000E-01  1.8727209010642E+00  2.1033928136254E-01  5.9214050876117E-01
17  1.6000000000000E-01  1.9167640230543E+00  1.6551295389624E-01  6.2326867816554E-01
18  1.7000000000000E-01  1.9478577489829E+00  1.1308401903660E-01  6.5309002521032E-01
19  1.8000000000000E-01  1.9659392196073E+00  5.3530505289123E-02  6.8160782010475E-01
20  1.9000000000000E-01  1.9710457708691E+00 -1.2578545077751E-02  7.0883637478916E-01
21  2.0000000000000E-01  1.9633124687490E+00 -8.4594778182281E-02  7.3480063649120E-01
22  2.1000000000000E-01  1.9429688969818E+00 -1.6180288117123E-01  7.5953567831899E-01
23  2.2000000000000E-01  1.9103352821643E+00 -2.4343324045873E-01  7.8308609545805E-01
24  2.3000000000000E-01  1.8658180425190E+00 -3.2867457107995E-01  8.0550531578609E-01
25  2.4000000000000E-01  1.8099048457317E+00 -4.1668620364124E-01  8.2685483371837E-01
26  2.5000000000000E-01  1.7431592580603E+00 -5.0660974601450E-01  8.4720337587955E-01
27  2.6000000000000E-01  1.6662150615702E+00 -5.9757987613807E-01  8.6662600680419E-01
28  2.7000000000000E-01  1.5797703092281E+00 -6.8873406858450E-01  8.8520318234491E-01
29  2.8000000000000E-01  1.4845811790770E+00 -7.7922110927005E-01  9.0301975786616E-01
30  2.9000000000000E-01  1.3814556792488E+00 -8.6820830792353E-01  9.2016395767685E-01
31  3.0000000000000E-01  1.2712472456147E+00 -9.5488737473162E-01  9.3672631156160E-01
32  3.1000000000000E-01  1.1548482639043E+00 -1.0384789838756E+00  9.5279856376160E-01
33  3.2000000000000E-01  1.0331835386035E+00 -1.1182361004452E+00  9.6847255938072E-01
34  3.3000000000000E-01  9.0720372232471E-01 -1.1934461965123E+00  9.8383911299278E-01
35  3.4000000000000E-01  7.7787871202863E-01 -1.2634325251501E+00  9.9898686423711E-01
36  3.5000000000000E-01  6.4619101282469E-01 -1.3275546563404E+00  1.0140011254338E+00
37  3.6000000000000E-01  5.1312906636633E-01 -1.3852085046428E+00  1.0289627267419E+00
38  3.7000000000000E-01  3.7968053929616E-01 -1.4358260942637E+00  1.0439468651201E+00
39  3.8000000000000E-01  2.4682556790085E-01 -1.4788753120447E+00  1.0590219643193E+00
40  3.9000000000000E-01  1.1552995812573E-01 -1.5138598926710E+00  1.0742485543095E+00
41  4.0000000000000E-01 -1.3261654693289E-02 -1.5403198631630E+00  1.0896781798815E+00
42  4.1000000000000E-01 -1.3863267477782E-01 -1.5578326460192E+00  1.1053523496149E+00
43  4.2000000000000E-01 -2.5970142290206E-01 -1.5660149830968E+00  1.1213015379007E+00
44  4.3000000000000E-01 -3.7562799034497E-01 -1.5645257967588E+00  1.1375442541833E+00
45  4.4000000000000E-01 -4.8562102723909E-01 -1.5530700525369E+00  1.1540861949575E+00
46  4.5000000000000E-01 -5.8894441076094E-01 -1.5314036304655E+00  1.1709194952483E+00
47  4.6000000000000E-01 -6.8492372661334E-01 -1.4993391523793E+00  1.1880220972170E+00
48  4.7000000000000E-01 -7.7295248581119E-01 -1.4567526521011E+00  1.2053572541131E+00
49  4.8000000000000E-01 -8.5249798846375E-01 -1.4035909168571E+00  1.2228731879378E+00
50  4.9000000000000E-01 -9.2310673759296E-01 -1.3398792737504E+00  1.2405029188413E+00
51  5.0000000000000E-01 -9.8440929956211E-01 -1.2657295469203E+00  1.2581642833890E+00
52  5.1000000000000E-01 -1.0361245038698E+00 -1.1813478711527E+00  1.2757601573574E+00
53  5.2000000000000E-01 -1.0780628742865E+00 -1.0870420180061E+00  1.2931788966353E+00
54  5.3000000000000E-01 -1.1101291858774E+00 -9.8322787248330E-01  1.3102950071141E+00
55  5.4000000000000E-01 -1.1323240485681E+00 -8.7043469304307E-01  1.3269700511548E+00
56  5.5000000000000E-01 -1.1447444276540E+00 -7.4930879604592E-01  1.3430537943728E+00
57  5.6000000000000E-01 -1.1475830249975E+00 -6.2061532782178E-01  1.3583855921316E+00
58  5.7000000000000E-01 -1.1411264614433E+00 -4.8523782325433E-01  1.3727960103686E+00
59  5.8000000000000E-01 -1.1257522209157E+00 -3.4417529841034E-01  1.3861086702941E+00
60  5.9000000000000E-01 -1.1019243393545E+00 -1.9853668516814E-01  1.3981423012146E+00
61  6.0000000000000E-01 -1.0701878465664E+00 -4.9532486429170E-02  1.4087129803804E+00
62  6.1000000000000E-01 -1.0311619956078E+00  1.0153639064599E-01  1.4176365334738E+00
63  6.2000000000000E-01 -9.8553234177823E-01  2.5329258118242E-01  1.4247310643038E+00
64  6.3000000000000E-01 -9.3404176091980E-01  4.0429885867325E-01  1.4298195775967E+00
65  6.4000000000000E-01 -8.7748052370079E-01  5.5307716180114E-01  1.4327326546305E+00
66  6.5000000000000E-01 -8.1667556807847E-01  6.9812974705499E-01  1.4333111380010E+00
67  6.6000000000000E-01 -7.5247913539364E-01  8.3796208136685E-01  1.4314087791558E+00
68  6.7000000000000E-01 -6.8575695576945E-01  9.7110701631576E-01  1.4268948006206E+00
69  6.8000000000000E-01 -6.1737618496376E-01  1.0961497235700E+00  1.4196563241547E+00
70  6.9000000000000E-01 -5.4819330693527E-01  1.2117528225520E+00  1.4096006164984E+00
71  7.0000000000000E-01 -4.7904222361749E-01  1.3166810978254E+00  1.3966571059472E+00
72  7.1000000000000E-01 -4.1072275536648E-01  1.4098251870169E+00  1.3807791257314E+00
73  7.2000000000000E-01 -3.4398977202008E-01  1.4902236212845E+00  1.3619453440755E+00
74  7.3000000000000E-01 -2.7954316539542E-01  1.5570826199736E+00  1.3401608458074E+00
75  7.4000000000000E-01 -2.1801885944254E-01  1.6097930791269E+00  1.3154578364069E+00
76  7.5000000000000E-01 -1.5998103440693E-01  1.6479442493199E+00  1.2878959463017E+00
77  7.6000000000000E-01 -1.0591571665025E-01  1.6713336706635E+00  1.2575621209035E+00
78  7.7000000000000E-01 -5.6225856797789E-02  1.6799730199751E+00  1.2245700901460E+00
79  7.8000000000000E-01 -1.1227986327195E-02  1.6740896248117E+00  1.1890594199489E+00
80  7.9000000000000E-01  2.8849492580490E-02  1.6541235085076E+00  1.1511941568805E+00
81  8.0000000000000E-01  6.3866366215871E-02  1.6207199464808E+00  1.1111610860882E+00
82  8.1000000000000E-01  9.3769037752444E-02  1.5747176334545E+00  1.0691676310980E+00
83  8.2000000000000E-01  1.1858738279102E-01  1.5171326802968E+00  1.0254394321010E+00
84  8.3000000000000E-01  1.3843012632881E-01  1.4491387742811E+00  9.8021764663963E-01
85  8.4000000000000E-01  1.5347886950393E-01  1.3720439440776E+00  9.3375602295496E-01
86  8.5000000000000E-01  1.6398092520116E-01  1.2872644672832E+00  8.8631780148063E-01
87  8.6000000000000E-01  1.7024114810919E-01  1.1962965405894E+00  8.3817250389364E-01
88  8.7000000000000E-01  1.7261296629658E-01  1.1006863979934E+00  7.8959267163392E-01
89  8.8000000000000E-01  1.7148883716546E-01  1.0019996084600E+00  7.4085061678093E-01
90  8.9000000000000E-01  1.6729036025091E-01  9.0179030937005E-01  6.9221524757354E-01
91  9.0000000000000E-01  1.6045828243884E-01  8.0157113482108E-01  6.4394902866277E-01
92  9.1000000000000E-01  1.5144262764729E-01  7.0278457790689E-01  5.9630513242768E-01
93  9.2000000000000E-01  1.4069317291840E-01  6.0677648371607E-01  5.4952483243438E-01
94  9.3000000000000E-01  1.2865047646662E-01  5.1477230589264E-01  5.0383518349458E-01
95  9.4000000000000E-01  1.1573764097592E-01  4.2785667580018E-01  4.5944702493932E-01
96  9.5000000000000E-01  1.0235296796729E-01  3.4695673186759E-01  4.1655333485899E-01
97  9.6000000000000E-01  8.8863627161621E-02  2.7282954039315E-01  3.7532795339582E-01
98  9.7000000000000E-01  7.5600429387746E-02  2.0605381130647E-01  3.3592468296385E-01
99  9.8000000000000E-01  6.2853753752090E-02  1.4702597677291E-01  2.9847676277679E-01
100  9.9000000000000E-01  5.0870640648894E-02  9.5960561178994E-02  2.6309670457365E-01
101  1.0000000000000E+00  3.9853022896502E-02  5.2894632051524E-02  2.2987646622500E-01
102  1.0100000000000E+00  2.9957029053268E-02  1.7695987169508E-02  1.9888793026651E-01
103  1.0200000000000E+00  2.1293256890713E-02 -9.9253925755473E-03  1.7018364559433E-01
104  1.0300000000000E+00  1.3927882250253E-02 -3.0403207978686E-02  1.4379778283366E-01
105  1.0400000000000E+00  7.8844400466185E-03 -4.4298704200026E-02  1.1974724746797E-01
106  1.0500000000000E+00  3.1460908511683E-03 -5.2283289207787E-02  9.8032889871568E-02
107  1.0600000000000E+00 -3.4183092167492E-04 -5.5120721633259E-02  7.8640748084599E-02
108  1.0700000000000E+00 -2.6692022147510E-03 -5.3649713899128E-02  6.1543257591763E-02
109  1.0800000000000E+00 -3.9586729823695E-03 -4.8767881259330E-02  4.6700334574021E-02
110  1.0900000000000E+00 -4.3634004382492E-03 -4.1417166388647E-02  3.4060516829653E-02
111  1.1000000000000E+00 -4.0754315312469E-03 -3.2606052979762E-02  2.3548606527551E-02
112  1.1100000000000E+00 -3.3271168007783E-03 -2.3414830706833E-02  1.5056497449549E-02
113  1.1200000000000E+00 -2.3201748488310E-03 -1.4741496895854E-02  8.5351070753789E-03
114  1.1300000000000E+00 -1.2757362669254E-03 -7.4441776655192E-03  3.9173821408356E-03
115  1.1400000000000E+00 -4.2493862313586E-04 -2.3051495140201E-03  1.1118285073319E-03
116  1.1500000000000E+00 -1.7926529596852E-05 -9.0761911762604E-05  4.0206265193096E-05
117  1.1600000000000E+00 -1.6518991103987E-06 -8.4290658657235E-06  3.7536923189459E-06
118  1.1700000000000E+00  3.6441223978744E-07  1.9111116500466E-06 -8.8276341002378E-07
119  1.18  0.  0.  0.
120  1.19  0.  0.  0.
121  1.20  0.  0.  0.
122  1.21  0.  0.  0.
123  1.22  0.  0.  0.
124  1.23  0.  0.  0.
125  1.24  0.  0.  0.
126  1.25  0.  0.  0.
127  1.26  0.  0.  0.
128  1.27  0.  0.  0.
129  1.28  0.  0.  0.
130  1.29  0.  0.  0.
131  1.30  0.  0.  0.
132  1.31  0.  0.  0.
133  1.32  0.  0.  0.
134  1.33  0.  0.  0.
135  1.34  0.  0.  0.
136  1.35  0.  0.  0.
137  1.36  0.  0.  0.
138  1.37  0.  0.  0.
139  1.38  0.  0.  0.
140  1.39  0.  0.  0.
141  1.40  0.  0.  0.
142  1.41  0.  0.  0.
143  1.42  0.  0.  0.
144  1.43  0.  0.  0.
145  1.44  0.  0.  0.
146  1.45  0.  0.  0.
147  1.46  0.  0.  0.
148  1.47  0.  0.  0.
149  1.48  0.  0.  0.
150  1.49  0.  0.  0.
151  1.50  0.  0.  0.
152  1.51  0.  0.  0.
153  1.52  0.  0.  0.
154  1.53  0.  0.  0.
155  1.54  0.  0.  0.
156  1.55  0.  0.  0.
157  1.56  0.  0.  0.
158  1.57  0.  0.  0.
159  1.58  0.  0.  0.
160  1.59  0.  0.  0.
161  1.60  0.  0.  0.
162  1.61  0.  0.  0.
163  1.62  0.  0.  0.
164  1.63  0.  0.  0.
165  1.64  0.  0.  0.
166  1.65  0.  0.  0.
167  1.66  0.  0.  0.
168  1.67  0.  0.  0.
169  1.68  0.  0.  0.
170  1.69  0.  0.  0.
171  1.70  0.  0.  0.
172  1.71  0.  0.  0.
173  1.72  0.  0.  0.
174  1.73  0.  0.  0.
175  1.74  0.  0.  0.
176  1.75  0.  0.  0.
177  1.76  0.  0.  0.
178  1.77  0.  0.  0.
179  1.78  0.  0.  0.
180  1.79  0.  0.  0.
181  1.80  0.  0.  0.
182  1.81  0.  0.  0.
183  1.82  0.  0.  0.
184  1.83  0.  0.  0.
185  1.84  0.  0.  0.
186  1.85  0.  0.  0.
187  1.86  0.  0.  0.
188  1.87  0.  0.  0.
189  1.88  0.  0.  0.
190  1.89  0.  0.  0.
191  1.90  0.  0.  0.
192  1.91  0.  0.  0.
193  1.92  0.  0.  0.
194  1.93  0.  0.  0.
195  1.94  0.  0.  0.
196  1.95  0.  0.  0.
197  1.96  0.  0.  0.
198  1.97  0.  0.  0.
199  1.98  0.  0.  0.
200  1.99  0.  0.  0.
201  2.00  0.  0.  0.
202  2.01  0.  0.  0.
203  2.02  0.  0.  0.
204  2.03  0.  0.  0.
205  2.04  0.  0.  0.
206  2.05  0.  0.  0.
207  2.06  0.  0.  0.
208  2.07  0.  0.  0.
209  2.08  0.  0.  0.
210  2.09  0.  0.  0.
211  2.10  0.  0.  0.
212  2.11  0.  0.  0.
213  2.12  0.  0.  0.
214  2.13  0.  0.  0.
215  2.14  0.  0.  0.
216  2.15  0.  0.  0.
217  2.16  0.  0.  0.
218  2.17  0.  0.  0.
219  2.18  0.  0.  0.
220  2.19  0.  0.  0.
221  2.20  0.  0.  0.
222  2.21  0.  0.  0.
223  2.22  0.  0.  0.
224  2.23  0.  0.  0.
225  2.24  0.  0.  0.
226  2.25  0.  0.  0.
227  2.26  0.  0.  0.
228  2.27  0.  0.  0.
229  2.28  0.  0.  0.
230  2.29  0.  0.  0.
231  2.30  0.  0.  0.
232  2.31  0.  0.  0.
233  2.32  0.  0.  0.
234  2.33  0.  0.  0.
235  2.34  0.  0.  0.
236  2.35  0.  0.  0.
237  2.36  0.  0.  0.
238  2.37  0.  0.  0.
239  2.38  0.  0.  0.
240  2.39  0.  0.  0.
241  2.40  0.  0.  0.
242  2.41  0.  0.  0.
243  2.42  0.  0.  0.
244  2.43  0.  0.  0.
245  2.44  0.  0.  0.
246  2.45  0.  0.  0.
247  2.46  0.  0.  0.
248  2.47  0.  0.  0.
249  2.48  0.  0.  0.
250  2.49  0.  0.  0.
251  2.50  0.  0.  0.
252  2.51  0.  0.  0.
253  2.52  0.  0.  0.
254  2.53  0.  0.  0.
255  2.54  0.  0.  0.
256  2.55  0.  0.  0.
257  2.56  0.  0.  0.
258  2.57  0.  0.  0.
259  2.58  0.  0.  0.
260  2.59  0.  0.  0.
261  2.60  0.  0.  0.
262  2.61  0.  0.  0.
263  2.62  0.  0.  0.
264  2.63  0.  0.  0.
265  2.64  0.  0.  0.
266  2.65  0.  0.  0.
267  2.66  0.  0.  0.
268  2.67  0.  0.  0.
269  2.68  0.  0.  0.
270  2.69  0.  0.  0.
271  2.70  0.  0.  0.
272  2.71  0.  0.  0.
273  2.72  0.  0.  0.
274  2.73  0.  0.  0.
275  2.74  0.  0.  0.
276  2.75  0.  0.  0.
277  2.76  0.  0.  0.
278  2.77  0.  0.  0.
279  2.78  0.  0.  0.
280  2.79  0.  0.  0.
281  2.80  0.  0.  0.
282  2.81  0.  0.  0.
283  2.82  0.  0.  0.
284  2.83  0.  0.  0.
285  2.84  0.  0.  0.
286  2.85  0.  0.  0.
287  2.86  0.  0.  0.
288  2.87  0.  0.  0.
289  2.88  0.  0.  0.
290  2.89  0.  0.  0.
291  2.90  0.  0.  0.
292  2.91  0.  0.  0.
293  2.92  0.  0.  0.
294  2.93  0.  0.  0.
295  2.94  0.  0.  0.
296  2.95  0.  0.  0.
297  2.96  0.  0.  0.
298  2.97  0.  0.  0.
299  2.98  0.  0.  0.
300  2.99  0.  0.  0.
301  3.00  0.  0.  0.
302  3.01  0.  0.  0.
303  3.02  0.  0.  0.
304  3.03  0.  0.  0.
305  3.04  0.  0.  0.
306  3.05  0.  0.  0.
307  3.06  0.  0.  0.
308  3.07  0.  0.  0.
309  3.08  0.  0.  0.
310  3.09  0.  0.  0.
311  3.10  0.  0.  0.
312  3.11  0.  0.  0.
313  3.12  0.  0.  0.
314  3.13  0.  0.  0.
315  3.14  0.  0.  0.
316  3.15  0.  0.  0.
317  3.16  0.  0.  0.
318  3.17  0.  0.  0.
319  3.18  0.  0.  0.
320  3.19  0.  0.  0.
321  3.20  0.  0.  0.
322  3.21  0.  0.  0.
323  3.22  0.  0.  0.
324  3.23  0.  0.  0.
325  3.24  0.  0.  0.
326  3.25  0.  0.  0.
327  3.26  0.  0.  0.
328  3.27  0.  0.  0.
329  3.28  0.  0.  0.
330  3.29  0.  0.  0.
331  3.30  0.  0.  0.
332  3.31  0.  0.  0.
333  3.32  0.  0.  0.
334  3.33  0.  0.  0.
335  3.34  0.  0.  0.
336  3.35  0.  0.  0.
337  3.36  0.  0.  0.
338  3.37  0.  0.  0.
339  3.38  0.  0.  0.
340  3.39  0.  0.  0.
341  3.40  0.  0.  0.
342  3.41  0.  0.  0.
343  3.42  0.  0.  0.
344  3.43  0.  0.  0.
345  3.44  0.  0.  0.
346  3.45  0.  0.  0.
347  3.46  0.  0.  0.
348  3.47  0.  0.  0.
349  3.48  0.  0.  0.
350  3.49  0.  0.  0.
351  3.50  0.  0.  0.
352  3.51  0.  0.  0.
353  3.52  0.  0.  0.
354  3.53  0.  0.  0.
355  3.54  0.  0.  0.
356  3.55  0.  0.  0.
357  3.56  0.  0.  0.
358  3.57  0.  0.  0.
359  3.58  0.  0.  0.
360  3.59  0.  0.  0.
361  3.60  0.  0.  0.
362  3.61  0.  0.  0.
363  3.62  0.  0.  0.
364  3.63  0.  0.  0.
365  3.64  0.  0.  0.
366  3.65  0.  0.  0.
367  3.66  0.  0.  0.
368  3.67  0.  0.  0.
369  3.68  0.  0.  0.
370  3.69  0.  0.  0.
371  3.70  0.  0.  0.
372  3.71  0.  0.  0.
373  3.72  0.  0.  0.
374  3.73  0.  0.  0.
375  3.74  0.  0.  0.
376  3.75  0.  0.  0.
377  3.76  0.  0.  0.
378  3.77  0.  0.  0.
379  3.78  0.  0.  0.
380  3.79  0.  0.  0.
381  3.80  0.  0.  0.
382  3.81  0.  0.  0.
383  3.82  0.  0.  0.
384  3.83  0.  0.  0.
385  3.84  0.  0.  0.
386  3.85  0.  0.  0.
387  3.86  0.  0.  0.
388  3.87  0.  0.  0.
389  3.88  0.  0.  0.
390  3.89  0.  0.  0.
391  3.90  0.  0.  0.
392  3.91  0.  0.  0.
393  3.92  0.  0.  0.
394  3.93  0.  0.  0.
395  3.94  0.  0.  0.
396  3.95  0.  0.  0.
397  3.96  0.  0.  0.
398  3.97  0.  0.  0.
399  3.98  0.  0.  0.
400  3.99  0.  0.  0.
401  4.00  0.  0.  0.
402  4.01  0.  0.  0.
403  4.02  0.  0.  0.
404  4.03  0.  0.  0.
405  4.04  0.  0.  0.
406  4.05  0.  0.  0.
407  4.06  0.  0.  0.
408  4.07  0.  0.  0.
409  4.08  0.  0.  0.
410  4.09  0.  0.  0.
411  4.10  0.  0.  0.
412  4.11  0.  0.  0.
413  4.12  0.  0.  0.
414  4.13  0.  0.  0.
415  4.14  0.  0.  0.
416  4.15  0.  0.  0.
417  4.16  0.  0.  0.
418  4.17  0.  0.  0.
419  4.18  0.  0.  0.
420  4.19  0.  0.  0.
421  4.20  0.  0.  0.
422  4.21  0.  0.  0.
423  4.22  0.  0.  0.
424  4.23  0.  0.  0.
425  4.24  0.  0.  0.
426  4.25  0.  0.  0.
427  4.26  0.  0.  0.
428  4.27  0.  0.  0.
429  4.28  0.  0.  0.
430  4.29  0.  0.  0.
431  4.30  0.  0.  0.
432  4.31  0.  0.  0.
433  4.32  0.  0.  0.
434  4.33  0.  0.  0.
435  4.34  0.  0.  0.
436  4.35  0.  0.  0.
437  4.36  0.  0.  0.
438  4.37  0.  0.  0.
439  4.38  0.  0.  0.
440  4.39  0.  0.  0.
441  4.40  0.  0.  0.
442  4.41  0.  0.  0.
443  4.42  0.  0.  0.
444  4.43  0.  0.  0.
445  4.44  0.  0.  0.
446  4.45  0.  0.  0.
447  4.46  0.  0.  0.
448  4.47  0.  0.  0.
449  4.48  0.  0.  0.
450  4.49  0.  0.  0.
451  4.50  0.  0.  0.
452  4.51  0.  0.  0.
453  4.52  0.  0.  0.
454  4.53  0.  0.  0.
455  4.54  0.  0.  0.
456  4.55  0.  0.  0.
457  4.56  0.  0.  0.
458  4.57  0.  0.  0.
459  4.58  0.  0.  0.
460  4.59  0.  0.  0.
461  4.60  0.  0.  0.
462  4.61  0.  0.  0.
463  4.62  0.  0.  0.
464  4.63  0.  0.  0.
465  4.64  0.  0.  0.
466  4.65  0.  0.  0.
467  4.66  0.  0.  0.
468  4.67  0.  0.  0.
469  4.68  0.  0.  0.
470  4.69  0.  0.  0.
471  4.70  0.  0.  0.
472  4.71  0.  0.  0.
473  4.72  0.  0.  0.
474  4.73  0.  0.  0.
475  4.74  0.  0.  0.
476  4.75  0.  0.  0.
477  4.76  0.  0.  0.
478  4.77  0.  0.  0.
479  4.78  0.  0.  0.
480  4.79  0.  0.  0.
481  4.80  0.  0.  0.
482  4.81  0.  0.  0.
483  4.82  0.  0.  0.
484  4.83  0.  0.  0.
485  4.84  0.  0.  0.
486  4.85  0.  0.  0.
487  4.86  0.  0.  0.
488  4.87  0.  0.  0.
489  4.88  0.  0.  0.
490  4.89  0.  0.  0.
491  4.90  0.  0.  0.
492  4.91  0.  0.  0.
493  4.92  0.  0.  0.
494  4.93  0.  0.  0.
495  4.94  0.  0.  0.
496  4.95  0.  0.  0.
497  4.96  0.  0.  0.
498  4.97  0.  0.  0.
499  4.98  0.  0.  0.
500  4.99  0.  0.  0.
501  5.00  0.  0.  0.
502  5.01  0.  0.  0.
503  5.02  0.  0.  0.
504  5.03  0.  0.  0.
505  5.04  0.  0.  0.
506  5.05  0.  0.  0.
507  5.06  0.  0.  0.
508  5.07  0.  0.  0.
509  5.08  0.  0.  0.
510  5.09  0.  0.  0.
511  5.10  0.  0.  0.
512  5.11  0.  0.  0.
513  5.12  0.  0.  0.
514  5.13  0.  0.  0.
515  5.14  0.  0.  0.
516  5.15  0.  0.  0.
517  5.16  0.  0.  0.
518  5.17  0.  0.  0.
519  5.18  0.  0.  0.
520  5.19  0.  0.  0.
521  5.20  0.  0.  0.
522  5.21  0.  0.  0.
523  5.22  0.  0.  0.
524  5.23  0.  0.  0.
525  5.24  0.  0.  0.
526  5.25  0.  0.  0.
527  5.26  0.  0.  0.
528  5.27  0.  0.  0.
529  5.28  0.  0.  0.
530  5.29  0.  0.  0.
531  5.30  0.  0.  0.
532  5.31  0.  0.  0.
533  5.32  0.  0.  0.
534  5.33  0.  0.  0.
535  5.34  0.  0.  0.
536  5.35  0.  0.  0.
537  5.36  0.  0.  0.
538  5.37  0.  0.  0.
539  5.38  0.  0.  0.
540  5.39  0.  0.  0.
541  5.40  0.  0.  0.
542  5.41  0.  0.  0.
543  5.42  0.  0.  0.
544  5.43  0.  0.  0.
545  5.44  0.  0.  0.
546  5.45  0.  0.  0.
547  5.46  0.  0.  0.
548  5.47  0.  0.  0.
549  5.48  0.  0.  0.
550  5.49  0.  0.  0.
551  5.50  0.  0.  0.
552  5.51  0.  0.  0.
553  5.52  0.  0.  0.
554  5.53  0.  0.  0.
555  5.54  0.  0.  0.
556  5.55  0.  0.  0.
557  5.56  0.  0.  0.
558  5.57  0.  0.  0.
559  5.58  0.  0.  0.
560  5.59  0.  0.  0.
561  5.60  0.  0.  0.
562  5.61  0.  0.  0.
563  5.62  0.  0.  0.
564  5.63  0.  0.  0.
565  5.64  0.  0.  0.
566  5.65  0.  0.  0.
567  5.66  0.  0.  0.
568  5.67  0.  0.  0.
569  5.68  0.  0.  0.
570  5.69  0.  0.  0.
571  5.70  0.  0.  0.
572  5.71  0.  0.  0.
573  5.72  0.  0.  0.
574  5.73  0.  0.  0.
575  5.74  0.  0.  0.
576  5.75  0.  0.  0.
577  5.76  0.  0.  0.
578  5.77  0.  0.  0.
579  5.78  0.  0.  0.
580  5.79  0.  0.  0.
581  5.80  0.  0.  0.
582  5.81  0.  0.  0.
583  5.82  0.  0.  0.
584  5.83  0.  0.  0.
585  5.84  0.  0.  0.
586  5.85  0.  0.  0.
587  5.86  0.  0.  0.
588  5.87  0.  0.  0.
589  5.88  0.  0.  0.
590  5.89  0.  0.  0.
591  5.90  0.  0.  0.
592  5.91  0.  0.  0.
593  5.92  0.  0.  0.
594  5.93  0.  0.  0.
595  5.94  0.  0.  0.
596  5.95  0.  0.  0.
597  5.96  0.  0.  0.
598  5.97  0.  0.  0.
599  5.98  0.  0.  0.
600  5.99  0.  0.  0.
1                         6.2358947927920E+00 -2.1008894717961E+00
1  0.0000000000000E+00 -1.0109408976611E-08 -8.1781285701799E-09
2  1.0000000000000E-02  4.6499258090005E-03  5.7382171033317E-04
3  2.0000000000000E-02  1.8558353898798E-02  2.3016131330519E-03
4  3.0000000000000E-02  4.1601386653151E-02  5.2021614249246E-03
5  4.0000000000000E-02  7.3573038074756E-02  9.3061448936108E-03
6  5.0000000000000E-02  1.1418602884028E-01  1.4655201434134E-02
7  6.0000000000000E-02  1.6307295768510E-01  2.1300661444338E-02
8  7.0000000000000E-02  2.1978790350006E-01  2.9301980877596E-02
9  8.0000000000000E-02  2.8380852263197E-01  3.8724918269158E-02
10  9.0000000000000E-02  3.5453871222578E-01  4.9639506340278E-02
11  1.0000000000000E-01  4.3131191252011E-01  6.2117873930210E-02
12  1.1000000000000E-01  5.1339511847719E-01  7.6231977376769E-02
13  1.2000000000000E-01  5.9999366385392E-01  9.2051301967379E-02
14  1.3000000000000E-01  6.9025682886407E-01  1.0964059368643E-01
15  1.4000000000000E-01  7.8328430620435E-01  1.2905767922719E-01
16  1.5000000000000E-01  8.7813353987674E-01  1.5035142821813E-01
17  1.6000000000000E-01  9.7382792757034E-01  1.7355990599427E-01
18  1.7000000000000E-01  1.0693658511623E+00  1.9870875823865E-01
19  1.8000000000000E-01  1.1637304720825E+00  2.2580986068757E-01
20  1.9000000000000E-01  1.2559001998766E+00  2.5486025813428E-01
21  2.0000000000000E-01  1.3448597143824E+00  2.8584140750164E-01
22  2.1000000000000E-01  1.4296113955898E+00  3.1871873012482E-01
23  2.2000000000000E-01  1.5091869915751E+00  3.5344146892936E-01
24  2.3000000000000E-01  1.5826593348786E+00  3.8994283723873E-01
25  2.4000000000000E-01  1.6491539022557E+00  4.2814043780774E-01
26  2.5000000000000E-01  1.7078600026231E+00  4.6793692362735E-01
27  2.6000000000000E-01  1.7580413738569E+00  5.0922086631669E-01
28  2.7000000000000E-01  1.7990459712621E+00  5.5186779368774E-01
29  2.8000000000000E-01  1.8303147392148E+00  5.9574135546132E-01
30  2.9000000000000E-01  1.8513891726229E+00  6.4069457518823E-01
31  3.0000000000000E-01  1.8619174961935E+00  6.8657114718344E-01
32  3.1000000000000E-01  1.8616593165213E+00  7.3320673964382E-01
33  3.2000000000000E-01  1.8504886340156E+00  7.8043026896182E-01
34  3.3000000000000E-01  1.8283951377571E+00  8.2806511538100E-01
35  3.4000000000000E-01  1.7954837454562E+00  8.7593025632773E-01
36  3.5000000000000E-01  1.7519723915784E+00  9.2384130072080E-01
37  3.6000000000000E-01  1.6981881081410E+00  9.7161141499842E-01
38  3.7000000000000E-01  1.6345614833456E+00  1.0190521391875E+00
39  3.8000000000000E-01  1.5616196217886E+00  1.0659740987399E+00
40  3.9000000000000E-01  1.4799777652275E+00  1.1121876247556E+00
41  4.0000000000000E-01  1.3903297636224E+00  1.1575033012930E+00
42  4.1000000000000E-01  1.2934376113904E+00  1.2017324634725E+00
43  4.2000000000000E-01  1.1901202826887E+00  1.2446876737674E+00
44  4.3000000000000E-01  1.0812421114368E+00  1.2861832060858E+00
45  4.4000000000000E-01  9.6770096632753E-01  1.3260355678510E+00
46  4.5000000000000E-01  8.5041646811857E-01  1.3640640892412E+00
47  4.6000000000000E-01  7.3031848617351E-01  1.4000916060640E+00
48  4.7000000000000E-01  6.0833613392010E-01  1.4339452585111E+00
49  4.8000000000000E-01  4.8538745924936E-01  1.4654574224003E+00
50  4.9000000000000E-01  3.6236999675414E-01  1.4944667826921E+00
51  5.0000000000000E-01  2.4015231515988E-01  1.5208195513213E+00
52  5.1000000000000E-01  1.1956665655275E-01  1.5443708230218E+00
53  5.2000000000000E-01  1.4027253979801E-03  1.5649860541893E+00
54  5.3000000000000E-01 -1.1359735373204E-01  1.5825426412780E+00
55  5.4000000000000E-01 -2.2474292891295E-01  1.5969315671345E+00
56  5.5000000000000E-01 -3.3139761906771E-01  1.6080590763892E+00
57  5.6000000000000E-01 -4.3298110469765E-01  1.6158483348958E+00
58  5.7000000000000E-01 -5.2897002555970E-01  1.6202410235188E+00
59  5.8000000000000E-01 -6.1889812125715E-01  1.6211988135871E+00
60  5.9000000000000E-01 -7.0235576573408E-01  1.6187046702318E+00
61  6.0000000000000E-01 -7.7898905465606E-01  1.6127639307442E+00
62  6.1000000000000E-01 -8.4849860539097E-01  1.6034051080689E+00
63  6.2000000000000E-01 -9.1063822283108E-01  1.5906803745587E+00
64  6.3000000000000E-01 -9.6521357096029E-01  1.5746656880571E+00
65  6.4000000000000E-01 -1.0120809704855E+00  1.5554605310507E+00
66  6.5000000000000E-01 -1.0511464178869E+00  1.5331872437993E+00
67  6.6000000000000E-01 -1.0823648919931E+00  1.5079899436831E+00
68  6.7000000000000E-01 -1.1057399819237E+00  1.4800330351326E+00
69  6.8000000000000E-01 -1.1213238363836E+00  1.4494993270202E+00
70  6.9000000000000E-01 -1.1292174003201E+00  1.4165877868556E+00
71  7.0000000000000E-01 -1.1295708723910E+00  1.3815109730894E+00
72  7.1000000000000E-01 -1.1225842870184E+00  1.3444921978657E+00
73  7.2000000000000E-01 -1.1085080993948E+00  1.3057624822421E+00
74  7.3000000000000E-01 -1.0876436319167E+00  1.2655573738529E+00
75  7.4000000000000E-01 -1.0603432271651E+00  1.2241137029011E+00
76  7.5000000000000E-01 -1.0270099465217E+00  1.1816663559662E+00
77  7.6000000000000E-01 -9.8809665531328E-01  1.1384451482432E+00
78  7.7000000000000E-01 -9.4410434519946E-01  1.0946718733753E+00
79  7.8000000000000E-01 -8.9557956224713E-01  1.0505576060190E+00
80  7.9000000000000E-01 -8.4311083430249E-01  1.0063003257666E+00
81  8.0000000000000E-01 -7.8732402313094E-01  9.6208292223232E-01
82  8.1000000000000E-01 -7.2887656428059E-01  9.1807163024512E-01
83  8.2000000000000E-01 -6.6845059943177E-01  8.7441493152532E-01
84  8.3000000000000E-01 -6.0674505060310E-01  8.3124294536237E-01
85  8.4000000000000E-01 -5.4446673131444E-01  7.8866731610965E-01
86  8.5000000000000E-01 -4.8232063488592E-01  7.4678159026657E-01
87  8.6000000000000E-01 -4.2099958267827E-01  7.0566206103637E-01
88  8.7000000000000E-01 -3.6117345348567E-01  6.6536904404111E-01
89  8.8000000000000E-01 -3.0347824782090E-01  6.2594853483447E-01
90  8.9000000000000E-01 -2.4850526599630E-01  5.8743418743244E-01
91  9.0000000000000E-01 -1.9679069544761E-01  5.4984954368210E-01
92  9.1000000000000E-01 -1.4880590970188E-01  5.1321043624145E-01
93  9.2000000000000E-01 -1.0494877811130E-01  4.7752748349726E-01
94  9.3000000000000E-01 -6.5536271678690E-02  4.4280859306396E-01
95  9.4000000000000E-01 -3.0798626081100E-02  4.0906139164307E-01
96  9.5000000000000E-01 -8.7528883244662E-04  3.7629550294196E-01
97  9.6000000000000E-01  2.4187165744389E-02  3.4452460191288E-01
98  9.7000000000000E-01  4.4435021217990E-02  3.1376818253908E-01
99  9.8000000000000E-01  6.0005228468083E-02  2.8405298745091E-01
100  9.9000000000000E-01  7.1121027027552E-02  2.5541406039331E-01
101  1.0000000000000E+00  7.8085430356462E-02  2.2789539653532E-01
102  1.0100000000000E+00  8.1272692332662E-02  2.0155018029350E-01
103  1.0200000000000E+00  8.1117935918969E-02  1.7644061522735E-01
104  1.0300000000000E+00  7.8105184744688E-02  1.5263736508933E-01
105  1.0400000000000E+00  7.2754092197820E-02  1.3021863875677E-01
106  1.0500000000000E+00  6.5605708715145E-02  1.0926896406234E-01
107  1.0600000000000E+00  5.7207664472206E-02  8.9877705994522E-02
108  1.0700000000000E+00  4.8099170350123E-02  7.2137393005017E-02
109  1.0800000000000E+00  3.8796213043567E-02  5.6141908520876E-02
110  1.0900000000000E+00  2.9777723719320E-02  4.1984724785414E-02
111  1.1000000000000E+00  2.1453524343920E-02  2.9750604191552E-02
112  1.1100000000000E+00  1.4138911511756E-02  1.9506336200887E-02
113  1.1200000000000E+00  8.1726632402146E-03  1.1344915877205E-02
114  1.1300000000000E+00  3.7834777491252E-03  5.3445982357550E-03
115  1.1400000000000E+00  1.0709936519463E-03  1.5573562476902E-03
116  1.1500000000000E+00  3.8122988983978E-05  5.7942688306691E-05
117  1.1600000000000E+00  3.5784274390490E-06  5.3963586311545E-06
118  1.1700000000000E+00 -8.4568143868472E-07 -1.2537228298323E-06
119  1.18  0.  0.
120  1.19  0.  0.
121  1.20  0.  0.
122  1.21  0.  0.
123  1.22  0.  0.
124  1.23  0.  0.
125  1.24  0.  0.
126  1.25  0.  0.
127  1.26  0.  0.
128  1.27  0.  0.
129  1.28  0.  0.
130  1.29  0.  0.
131  1.30  0.  0.
132  1.31  0.  0.
133  1.32  0.  0.
134  1.33  0.  0.
135  1.34  0.  0.
136  1.35  0.  0.
137  1.36  0.  0.
138  1.37  0.  0.
139  1.38  0.  0.
140  1.39  0.  0.
141  1.40  0.  0.
142  1.41  0.  0.
143  1.42  0.  0.
144  1.43  0.  0.
145  1.44  0.  0.
146  1.45  0.  0.
147  1.46  0.  0.
148  1.47  0.  0.
149  1.48  0.  0.
150  1.49  0.  0.
151  1.50  0.  0.
152  1.51  0.  0.
153  1.52  0.  0.
154  1.53  0.  0.
155  1.54  0.  0.
156  1.55  0.  0.
157  1.56  0.  0.
158  1.57  0.  0.
159  1.58  0.  0.
160  1.59  0.  0.
161  1.60  0.  0.
162  1.61  0.  0.
163  1.62  0.  0.
164  1.63  0.  0.
165  1.64  0.  0.