Lr    ONCVPSP-4.0.1  r_core=   1.10451   1.10451   1.10451   1.20099
103.0000     43.0000      220822    zatom,zion,pspd
8      11   3     4   600     0    pspcod,pspxc,lmax,lloc,mmax,r2well
5.99000000  4.12600000  0.00000000    rchrg fchrg qchrg
3     2     2     2     0    nproj
1     1           extension_switch
0                         2.6778142262093E+01 -7.8778038732352E+00 -3.0755146610528E-01
1  0.0000000000000E+00 -3.5184379409969E-08 -4.1009503015665E-09  3.0509580228877E-07
2  1.0000000000000E-02  2.1239066329057E-01  3.6392583344379E-02 -1.3815759644038E-01
3  2.0000000000000E-02  4.2269095436732E-01  7.2830127666128E-02 -2.7309473754733E-01
4  3.0000000000000E-02  6.2883709801905E-01  1.0935743474167E-01 -4.0167464430670E-01
5  4.0000000000000E-02  8.2881807713048E-01  1.4601896496705E-01 -5.2092541245553E-01
6  5.0000000000000E-02  1.0207009314136E+00  1.8285861036340E-01 -6.2811633915572E-01
7  6.0000000000000E-02  1.2026547859686E+00  2.1991940316626E-01 -7.2082714889546E-01
8  7.0000000000000E-02  1.3729732291666E+00  2.5724314363392E-01 -7.9700812908787E-01
9  8.0000000000000E-02  1.5300946945300E+00  2.9486993481096E-01 -8.5502949093170E-01
10  9.0000000000000E-02  1.6726205433677E+00  3.3283761677717E-01 -8.9371863037139E-01
11  1.0000000000000E-01  1.7993305927323E+00  3.7118109819900E-01 -9.1238436404290E-01
12  1.1000000000000E-01  1.9091958854949E+00  4.0993158855914E-01 -9.1082764108802E-01
13  1.2000000000000E-01  2.0013885545784E+00  4.4911574003703E-01 -8.8933866801093E-01
14  1.3000000000000E-01  2.0752886901956E+00  4.8875471341554E-01 -8.4868081446917E-01
15  1.4000000000000E-01  2.1304881758560E+00  5.2886318737044E-01 -7.9006207760658E-01
16  1.5000000000000E-01  2.1667915145157E+00  5.6944833485076E-01 -7.1509525681881E-01
17  1.6000000000000E-01  2.1842137192442E+00  6.1050879379738E-01 -6.2574831687441E-01
18  1.7000000000000E-01  2.1829753919724E+00  6.5203366202437E-01 -5.2428668432882E-01
19  1.8000000000000E-01  2.1634951582474E+00  6.9400154759287E-01 -4.1320942185309E-01
20  1.9000000000000E-01  2.1263796646162E+00  7.3637970637365E-01 -2.9518135193178E-01
21  2.0000000000000E-01  2.0724113776723E+00  7.7912329770098E-01 -1.7296325271002E-01
22  2.1000000000000E-01  2.0025344495139E+00  8.2217478709281E-01 -4.9342224970484E-02
23  2.2000000000000E-01  1.9178389332087E+00  8.6546352202037E-01  7.2935766470047E-02
24  2.3000000000000E-01  1.8195436438560E+00  9.0890550276586E-01  1.9122933527292E-01
25  2.4000000000000E-01  1.7089779662334E+00  9.5240336565832E-01  3.0305947749312E-01
26  2.5000000000000E-01  1.5875629092134E+00  9.9584659060205E-01  4.0616038073935E-01
27  2.6000000000000E-01  1.4567917007084E+00  1.0391119390106E+00  4.9852218401226E-01
28  2.7000000000000E-01  1.3182102055423E+00  1.0820641222445E+00  5.7842495755912E-01
29  2.8000000000000E-01  1.1733974331265E+00  1.1245566946427E+00  6.4446350490004E-01
30  2.9000000000000E-01  1.0239463829645E+00  1.1664331594492E+00  6.9556291761422E-01
31  3.0000000000000E-01  8.7144545467569E-01  1.2075282705704E+00  7.3098512489783E-01
32  3.1000000000000E-01  7.1746062622639E-01  1.2476695083331E+00  7.5032696282999E-01
33  3.2000000000000E-01  5.6351858017101E-01  1.2866787034059E+00  7.5351053285217E-01
34  3.3000000000000E-01  4.1109093363160E-01  1.3243737799093E+00  7.4076681729227E-01
35  3.4000000000000E-01  2.6157970407870E-01  1.3605705865614E+00  7.1261366619364E-01
36  3.5000000000000E-01  1.1630412020604E-01  1.3950847835250E+00  6.6982936106239E-01
37  3.6000000000000E-01 -2.3511134323193E-02  1.4277337524369E+00  6.1342299665153E-01
38  3.7000000000000E-01 -1.5674617650696E-01  1.4583384978774E+00  5.4460290330283E-01
39  3.8000000000000E-01 -2.8239462968865E-01  1.4867255101971E+00  4.6474426367379E-01
40  3.9000000000000E-01 -3.9957074680263E-01  1.5127285620568E+00  3.7535696488540E-01
41  4.0000000000000E-01 -5.0751493402912E-01  1.5361904141116E+00  2.7805457805957E-01
42  4.1000000000000E-01 -6.0559767173647E-01  1.5569644088336E+00  1.7452518089434E-01
43  4.2000000000000E-01 -6.9332184255092E-01  1.5749159353490E+00  6.6504545302019E-02
44  4.3000000000000E-01 -7.7032348856468E-01  1.5899237521875E+00 -4.4247988424801E-02
45  4.4000000000000E-01 -8.3637103135541E-01  1.6018811588379E+00 -1.5597082674192E-01
46  4.5000000000000E-01 -8.9136299991570E-01  1.6106970108113E+00 -2.6691868737962E-01
47  4.6000000000000E-01 -9.3532432301297E-01  1.6162965763858E+00 -3.7537863591352E-01
48  4.7000000000000E-01 -9.6840125409350E-01  1.6186222362285E+00 -4.7968395048919E-01
49  4.8000000000000E-01 -9.9085500871505E-01  1.6176340295592E+00 -5.7822626944207E-01
50  4.9000000000000E-01 -1.0030542066605E+00  1.6133100523859E+00 -6.6946653655846E-01
51  5.0000000000000E-01 -1.0054662232833E+00  1.6056467145608E+00 -7.5194527827454E-01
52  5.1000000000000E-01 -9.9864756710605E-01  1.5946588629962E+00 -8.2429272648105E-01
53  5.2000000000000E-01 -9.8323341299242E-01  1.5803797783648E+00 -8.8523924205156E-01
54  5.3000000000000E-01 -9.5992643202523E-01  1.5628610520715E+00 -9.3362640187865E-01
55  5.4000000000000E-01 -9.2948507016736E-01  1.5421723492952E+00 -9.6841899186191E-01
56  5.5000000000000E-01 -8.9271143743755E-01  1.5184010625970E+00 -9.8871800706013E-01
57  5.6000000000000E-01 -8.5043897725673E-01  1.4916518590813E+00 -9.9377460621278E-01
58  5.7000000000000E-01 -8.0352009137026E-01  1.4620461225318E+00 -9.8300480974227E-01
59  5.8000000000000E-01 -7.5281389890867E-01  1.4297212904565E+00 -9.5600457707978E-01
60  5.9000000000000E-01 -6.9917430834795E-01  1.3948300846951E+00 -9.1256475932668E-01
61  6.0000000000000E-01 -6.4343857806878E-01  1.3575396332980E+00 -8.5268530490806E-01
62  6.1000000000000E-01 -5.8641653468522E-01  1.3180304808769E+00 -7.7658800596615E-01
63  6.2000000000000E-01 -5.2888060821153E-01  1.2764954846290E+00 -6.8472701744964E-01
64  6.3000000000000E-01 -4.7155682947525E-01  1.2331385938185E+00 -5.7779636324944E-01
65  6.4000000000000E-01 -4.1511691810018E-01  1.1881735116659E+00 -4.5673366661270E-01
66  6.5000000000000E-01 -3.6017156913595E-01  1.1418222403574E+00 -3.2271940584159E-01
67  6.6000000000000E-01 -3.0726502338399E-01  1.0943135121945E+00 -1.7717109947921E-01
68  6.7000000000000E-01 -2.5687098115393E-01  1.0458811126967E+00 -2.1731964489645E-02
69  6.8000000000000E-01 -2.0938989217276E-01  9.9676210465158E-01  1.4174623866296E-01
70  6.9000000000000E-01 -1.6514762633023E-01  9.4719496555456E-01  3.1122626511535E-01
71  7.0000000000000E-01 -1.2439550160274E-01  8.9741765447130E-01  4.8451422797604E-01
72  7.1000000000000E-01 -8.7311617615856E-02  8.4766562792508E-01  6.5929388266574E-01
73  7.2000000000000E-01 -5.4003416642669E-02  7.9816982781963E-01  8.3316579211858E-01
74  7.3000000000000E-01 -2.4511369136013E-02  7.4915466749054E-01  1.0036906016800E+00
75  7.4000000000000E-01  1.1863411507397E-03  7.0083604459419E-01  1.1684354610876E+00
76  7.5000000000000E-01  2.3168276165977E-02  6.5341941155415E-01  1.3250224663156E+00
77  7.6000000000000E-01  4.1563505360869E-02  6.0709793557768E-01  1.4711778635627E+00
78  7.7000000000000E-01  5.6544839716567E-02  5.6205078073559E-01  1.6047806672213E+00
79  7.8000000000000E-01  6.8321713680635E-02  5.1844154420326E-01  1.7239092977997E+00
80  7.9000000000000E-01  7.7132892311588E-02  4.7641687745356E-01  1.8268848472368E+00
81  8.0000000000000E-01  8.3239177903100E-02  4.3610532097075E-01  1.9123096289086E+00
82  8.1000000000000E-01  8.6916282827205E-02  3.9761637794607E-01  1.9790997670930E+00
83  8.2000000000000E-01  8.8448023572471E-02  3.6103984848064E-01  2.0265107232242E+00
84  8.3000000000000E-01  8.8119975351848E-02  3.2644544114487E-01  2.0541548398368E+00
85  8.4000000000000E-01  8.6213707721047E-02  2.9388267344052E-01  2.0620102020898E+00
86  8.5000000000000E-01  8.3001699970479E-02  2.6338106691177E-01  2.0504203644863E+00
87  8.6000000000000E-01  7.8743011288490E-02  2.3495063650598E-01  2.0200847592299E+00
88  8.7000000000000E-01  7.3679755536756E-02  2.0858266744939E-01  1.9720398844116E+00
89  8.8000000000000E-01  6.8034404642365E-02  1.8425076654123E-01  1.9076316564853E+00
90  8.9000000000000E-01  6.2007918799852E-02  1.6191216854122E-01  1.8284795939045E+00
91  9.0000000000000E-01  5.5778676557651E-02  1.4150927238475E-01  1.7364337694785E+00
92  9.1000000000000E-01  4.9502154056620E-02  1.2297137644579E-01  1.6335257206923E+00
93  9.2000000000000E-01  4.3311280732831E-02  1.0621657710636E-01  1.5219147336744E+00
94  9.3000000000000E-01  3.7317379150839E-02  9.1153790584479E-02  1.4038311125192E+00
95  9.4000000000000E-01  3.1611579652163E-02  7.7684854402220E-02  1.2815182074411E+00
96  9.5000000000000E-01  2.6266586441348E-02  6.5706662096986E-02  1.1571751002003E+00
97  9.6000000000000E-01  2.1338660732508E-02  5.5113282824241E-02  1.0329019323095E+00
98  9.7000000000000E-01  1.6869678689723E-02  4.5798016375010E-02  9.1064991082348E-01
99  9.8000000000000E-01  1.2889117057328E-02  3.7655333820434E-02  7.9217803946230E-01
100  9.9000000000000E-01  9.4158174586922E-03  3.0582654462671E-02  6.7901860182133E-01
101  1.0000000000000E+00  6.4593811300394E-03  2.4481910962131E-02  5.7245337178970E-01
102  1.0100000000000E+00  4.0210490803953E-03  1.9260856356288E-02  4.7350244804917E-01
103  1.0200000000000E+00  2.0939280318479E-03  1.4834069111201E-02  3.8292750881047E-01
104  1.0300000000000E+00  6.6244299543498E-04  1.1123620646547E-02  3.0125102498895E-01
105  1.0400000000000E+00 -2.9921701525822E-04  8.0593238030606E-03  2.2879412201464E-01
106  1.0500000000000E+00 -8.3057831183973E-04  5.5782257177629E-03  1.6574274189718E-01
107  1.0600000000000E+00 -1.0338844581916E-03  3.6048074821657E-03  1.1270507129111E-01
108  1.0700000000000E+00 -9.7242201389963E-04  2.0915872860938E-03  6.9702879955493E-02
109  1.0800000000000E+00 -6.9941437819399E-04  1.0133698069987E-03  3.6493827405962E-02
110  1.0900000000000E+00 -3.3006642416738E-04  3.3918373563409E-04  1.3398021061098E-02
111  1.1000000000000E+00 -4.4191158817574E-05  3.3148678952471E-05  1.4610913086211E-03
112  1.1100000000000E+00  1.8415294985036E-06 -1.1440613033765E-06 -5.4572355369811E-05
113  1.1200000000000E+00  1.9998451014573E-07 -1.5912967712250E-07 -6.8691771707875E-06
114  1.13 -0. -0.  0.
115  1.14  0.  0.  0.
116  1.15  0.  0.  0.
117  1.16  0.  0.  0.
118  1.17  0.  0.  0.
119  1.18  0.  0.  0.
120  1.19  0.  0.  0.
121  1.20  0.  0.  0.
122  1.21  0.  0.  0.
123  1.22  0.  0.  0.
124  1.23  0.  0.  0.
125  1.24  0.  0.  0.
126  1.25  0.  0.  0.
127  1.26  0.  0.  0.
128  1.27  0.  0.  0.
129  1.28  0.  0.  0.
130  1.29  0.  0.  0.
131  1.30  0.  0.  0.
132  1.31  0.  0.  0.
133  1.32  0.  0.  0.
134  1.33  0.  0.  0.
135  1.34  0.  0.  0.
136  1.35  0.  0.  0.
137  1.36  0.  0.  0.
138  1.37  0.  0.  0.
139  1.38  0.  0.  0.
140  1.39  0.  0.  0.
141  1.40  0.  0.  0.
142  1.41  0.  0.  0.
143  1.42  0.  0.  0.
144  1.43  0.  0.  0.
145  1.44  0.  0.  0.
146  1.45  0.  0.  0.
147  1.46  0.  0.  0.
148  1.47  0.  0.  0.
149  1.48  0.  0.  0.
150  1.49  0.  0.  0.
151  1.50  0.  0.  0.
152  1.51  0.  0.  0.
153  1.52  0.  0.  0.
154  1.53  0.  0.  0.
155  1.54  0.  0.  0.
156  1.55  0.  0.  0.
157  1.56  0.  0.  0.
158  1.57  0.  0.  0.
159  1.58  0.  0.  0.
160  1.59  0.  0.  0.
161  1.60  0.  0.  0.
162  1.61  0.  0.  0.
163  1.62  0.  0.  0.
164  1.63  0.  0.  0.
165  1.64  0.  0.  0.
166  1.65  0.  0.  0.
167  1.66  0.  0.  0.
168  1.67  0.  0.  0.
169  1.68  0.  0.  0.
170  1.69  0.  0.  0.
171  1.70  0.  0.  0.
172  1.71  0.  0.  0.
173  1.72  0.  0.  0.
174  1.73  0.  0.  0.
175  1.74  0.  0.  0.
176  1.75  0.  0.  0.
177  1.76  0.  0.  0.
178  1.77  0.  0.  0.
179  1.78  0.  0.  0.
180  1.79  0.  0.  0.
181  1.80  0.  0.  0.
182  1.81  0.  0.  0.
183  1.82  0.  0.  0.
184  1.83  0.  0.  0.
185  1.84  0.  0.  0.
186  1.85  0.  0.  0.
187  1.86  0.  0.  0.
188  1.87  0.  0.  0.
189  1.88  0.  0.  0.
190  1.89  0.  0.  0.
191  1.90  0.  0.  0.
192  1.91  0.  0.  0.
193  1.92  0.  0.  0.
194  1.93  0.  0.  0.
195  1.94  0.  0.  0.
196  1.95  0.  0.  0.
197  1.96  0.  0.  0.
198  1.97  0.  0.  0.
199  1.98  0.  0.  0.
200  1.99  0.  0.  0.
201  2.00  0.  0.  0.
202  2.01  0.  0.  0.
203  2.02  0.  0.  0.
204  2.03  0.  0.  0.
205  2.04  0.  0.  0.
206  2.05  0.  0.  0.
207  2.06  0.  0.  0.
208  2.07  0.  0.  0.
209  2.08  0.  0.  0.
210  2.09  0.  0.  0.
211  2.10  0.  0.  0.
212  2.11  0.  0.  0.
213  2.12  0.  0.  0.
214  2.13  0.  0.  0.
215  2.14  0.  0.  0.
216  2.15  0.  0.  0.
217  2.16  0.  0.  0.
218  2.17  0.  0.  0.
219  2.18  0.  0.  0.
220  2.19  0.  0.  0.
221  2.20  0.  0.  0.
222  2.21  0.  0.  0.
223  2.22  0.  0.  0.
224  2.23  0.  0.  0.
225  2.24  0.  0.  0.
226  2.25  0.  0.  0.
227  2.26  0.  0.  0.
228  2.27  0.  0.  0.
229  2.28  0.  0.  0.
230  2.29  0.  0.  0.
231  2.30  0.  0.  0.
232  2.31  0.  0.  0.
233  2.32  0.  0.  0.
234  2.33  0.  0.  0.
235  2.34  0.  0.  0.
236  2.35  0.  0.  0.
237  2.36  0.  0.  0.
238  2.37  0.  0.  0.
239  2.38  0.  0.  0.
240  2.39  0.  0.  0.
241  2.40  0.  0.  0.
242  2.41  0.  0.  0.
243  2.42  0.  0.  0.
244  2.43  0.  0.  0.
245  2.44  0.  0.  0.
246  2.45  0.  0.  0.
247  2.46  0.  0.  0.
248  2.47  0.  0.  0.
249  2.48  0.  0.  0.
250  2.49  0.  0.  0.
251  2.50  0.  0.  0.
252  2.51  0.  0.  0.
253  2.52  0.  0.  0.
254  2.53  0.  0.  0.
255  2.54  0.  0.  0.
256  2.55  0.  0.  0.
257  2.56  0.  0.  0.
258  2.57  0.  0.  0.
259  2.58  0.  0.  0.
260  2.59  0.  0.  0.
261  2.60  0.  0.  0.
262  2.61  0.  0.  0.
263  2.62  0.  0.  0.
264  2.63  0.  0.  0.
265  2.64  0.  0.  0.
266  2.65  0.  0.  0.
267  2.66  0.  0.  0.
268  2.67  0.  0.  0.
269  2.68  0.  0.  0.
270  2.69  0.  0.  0.
271  2.70  0.  0.  0.
272  2.71  0.  0.  0.
273  2.72  0.  0.  0.
274  2.73  0.  0.  0.
275  2.74  0.  0.  0.
276  2.75  0.  0.  0.
277  2.76  0.  0.  0.
278  2.77  0.  0.  0.
279  2.78  0.  0.  0.
280  2.79  0.  0.  0.
281  2.80  0.  0.  0.
282  2.81  0.  0.  0.
283  2.82  0.  0.  0.
284  2.83  0.  0.  0.
285  2.84  0.  0.  0.
286  2.85  0.  0.  0.
287  2.86  0.  0.  0.
288  2.87  0.  0.  0.
289  2.88  0.  0.  0.
290  2.89  0.  0.  0.
291  2.90  0.  0.  0.
292  2.91  0.  0.  0.
293  2.92  0.  0.  0.
294  2.93  0.  0.  0.
295  2.94  0.  0.  0.
296  2.95  0.  0.  0.
297  2.96  0.  0.  0.
298  2.97  0.  0.  0.
299  2.98  0.  0.  0.
300  2.99  0.  0.  0.
301  3.00  0.  0.  0.
302  3.01  0.  0.  0.
303  3.02  0.  0.  0.
304  3.03  0.  0.  0.
305  3.04  0.  0.  0.
306  3.05  0.  0.  0.
307  3.06  0.  0.  0.
308  3.07  0.  0.  0.
309  3.08  0.  0.  0.
310  3.09  0.  0.  0.
311  3.10  0.  0.  0.
312  3.11  0.  0.  0.
313  3.12  0.  0.  0.
314  3.13  0.  0.  0.
315  3.14  0.  0.  0.
316  3.15  0.  0.  0.
317  3.16  0.  0.  0.
318  3.17  0.  0.  0.
319  3.18  0.  0.  0.
320  3.19  0.  0.  0.
321  3.20  0.  0.  0.
322  3.21  0.  0.  0.
323  3.22  0.  0.  0.
324  3.23  0.  0.  0.
325  3.24  0.  0.  0.
326  3.25  0.  0.  0.
327  3.26  0.  0.  0.
328  3.27  0.  0.  0.
329  3.28  0.  0.  0.
330  3.29  0.  0.  0.
331  3.30  0.  0.  0.
332  3.31  0.  0.  0.
333  3.32  0.  0.  0.
334  3.33  0.  0.  0.
335  3.34  0.  0.  0.
336  3.35  0.  0.  0.
337  3.36  0.  0.  0.
338  3.37  0.  0.  0.
339  3.38  0.  0.  0.
340  3.39  0.  0.  0.
341  3.40  0.  0.  0.
342  3.41  0.  0.  0.
343  3.42  0.  0.  0.
344  3.43  0.  0.  0.
345  3.44  0.  0.  0.
346  3.45  0.  0.  0.
347  3.46  0.  0.  0.
348  3.47  0.  0.  0.
349  3.48  0.  0.  0.
350  3.49  0.  0.  0.
351  3.50  0.  0.  0.
352  3.51  0.  0.  0.
353  3.52  0.  0.  0.
354  3.53  0.  0.  0.
355  3.54  0.  0.  0.
356  3.55  0.  0.  0.
357  3.56  0.  0.  0.
358  3.57  0.  0.  0.
359  3.58  0.  0.  0.
360  3.59  0.  0.  0.
361  3.60  0.  0.  0.
362  3.61  0.  0.  0.
363  3.62  0.  0.  0.
364  3.63  0.  0.  0.
365  3.64  0.  0.  0.
366  3.65  0.  0.  0.
367  3.66  0.  0.  0.
368  3.67  0.  0.  0.
369  3.68  0.  0.  0.
370  3.69  0.  0.  0.
371  3.70  0.  0.  0.
372  3.71  0.  0.  0.
373  3.72  0.  0.  0.
374  3.73  0.  0.  0.
375  3.74  0.  0.  0.
376  3.75  0.  0.  0.
377  3.76  0.  0.  0.
378  3.77  0.  0.  0.
379  3.78  0.  0.  0.
380  3.79  0.  0.  0.
381  3.80  0.  0.  0.
382  3.81  0.  0.  0.
383  3.82  0.  0.  0.
384  3.83  0.  0.  0.
385  3.84  0.  0.  0.
386  3.85  0.  0.  0.
387  3.86  0.  0.  0.
388  3.87  0.  0.  0.
389  3.88  0.  0.  0.
390  3.89  0.  0.  0.
391  3.90  0.  0.  0.
392  3.91  0.  0.  0.
393  3.92  0.  0.  0.
394  3.93  0.  0.  0.
395  3.94  0.  0.  0.
396  3.95  0.  0.  0.
397  3.96  0.  0.  0.
398  3.97  0.  0.  0.
399  3.98  0.  0.  0.
400  3.99  0.  0.  0.
401  4.00  0.  0.  0.
402  4.01  0.  0.  0.
403  4.02  0.  0.  0.
404  4.03  0.  0.  0.
405  4.04  0.  0.  0.
406  4.05  0.  0.  0.
407  4.06  0.  0.  0.
408  4.07  0.  0.  0.
409  4.08  0.  0.  0.
410  4.09  0.  0.  0.
411  4.10  0.  0.  0.
412  4.11  0.  0.  0.
413  4.12  0.  0.  0.
414  4.13  0.  0.  0.
415  4.14  0.  0.  0.
416  4.15  0.  0.  0.
417  4.16  0.  0.  0.
418  4.17  0.  0.  0.
419  4.18  0.  0.  0.
420  4.19  0.  0.  0.
421  4.20  0.  0.  0.
422  4.21  0.  0.  0.
423  4.22  0.  0.  0.
424  4.23  0.  0.  0.
425  4.24  0.  0.  0.
426  4.25  0.  0.  0.
427  4.26  0.  0.  0.
428  4.27  0.  0.  0.
429  4.28  0.  0.  0.
430  4.29  0.  0.  0.
431  4.30  0.  0.  0.
432  4.31  0.  0.  0.
433  4.32  0.  0.  0.
434  4.33  0.  0.  0.
435  4.34  0.  0.  0.
436  4.35  0.  0.  0.
437  4.36  0.  0.  0.
438  4.37  0.  0.  0.
439  4.38  0.  0.  0.
440  4.39  0.  0.  0.
441  4.40  0.  0.  0.
442  4.41  0.  0.  0.
443  4.42  0.  0.  0.
444  4.43  0.  0.  0.
445  4.44  0.  0.  0.
446  4.45  0.  0.  0.
447  4.46  0.  0.  0.
448  4.47  0.  0.  0.
449  4.48  0.  0.  0.
450  4.49  0.  0.  0.
451  4.50  0.  0.  0.
452  4.51  0.  0.  0.
453  4.52  0.  0.  0.
454  4.53  0.  0.  0.
455  4.54  0.  0.  0.
456  4.55  0.  0.  0.
457  4.56  0.  0.  0.
458  4.57  0.  0.  0.
459  4.58  0.  0.  0.
460  4.59  0.  0.  0.
461  4.60  0.  0.  0.
462  4.61  0.  0.  0.
463  4.62  0.  0.  0.
464  4.63  0.  0.  0.
465  4.64  0.  0.  0.
466  4.65  0.  0.  0.
467  4.66  0.  0.  0.
468  4.67  0.  0.  0.
469  4.68  0.  0.  0.
470  4.69  0.  0.  0.
471  4.70  0.  0.  0.
472  4.71  0.  0.  0.
473  4.72  0.  0.  0.
474  4.73  0.  0.  0.
475  4.74  0.  0.  0.
476  4.75  0.  0.  0.
477  4.76  0.  0.  0.
478  4.77  0.  0.  0.
479  4.78  0.  0.  0.
480  4.79  0.  0.  0.
481  4.80  0.  0.  0.
482  4.81  0.  0.  0.
483  4.82  0.  0.  0.
484  4.83  0.  0.  0.
485  4.84  0.  0.  0.
486  4.85  0.  0.  0.
487  4.86  0.  0.  0.
488  4.87  0.  0.  0.
489  4.88  0.  0.  0.
490  4.89  0.  0.  0.
491  4.90  0.  0.  0.
492  4.91  0.  0.  0.
493  4.92  0.  0.  0.
494  4.93  0.  0.  0.
495  4.94  0.  0.  0.
496  4.95  0.  0.  0.
497  4.96  0.  0.  0.
498  4.97  0.  0.  0.
499  4.98  0.  0.  0.
500  4.99  0.  0.  0.
501  5.00  0.  0.  0.
502  5.01  0.  0.  0.
503  5.02  0.  0.  0.
504  5.03  0.  0.  0.
505  5.04  0.  0.  0.
506  5.05  0.  0.  0.
507  5.06  0.  0.  0.
508  5.07  0.  0.  0.
509  5.08  0.  0.  0.
510  5.09  0.  0.  0.
511  5.10  0.  0.  0.
512  5.11  0.  0.  0.
513  5.12  0.  0.  0.
514  5.13  0.  0.  0.
515  5.14  0.  0.  0.
516  5.15  0.  0.  0.
517  5.16  0.  0.  0.
518  5.17  0.  0.  0.
519  5.18  0.  0.  0.
520  5.19  0.  0.  0.
521  5.20  0.  0.  0.
522  5.21  0.  0.  0.
523  5.22  0.  0.  0.
524  5.23  0.  0.  0.
525  5.24  0.  0.  0.
526  5.25  0.  0.  0.
527  5.26  0.  0.  0.
528  5.27  0.  0.  0.
529  5.28  0.  0.  0.
530  5.29  0.  0.  0.
531  5.30  0.  0.  0.
532  5.31  0.  0.  0.
533  5.32  0.  0.  0.
534  5.33  0.  0.  0.
535  5.34  0.  0.  0.
536  5.35  0.  0.  0.
537  5.36  0.  0.  0.
538  5.37  0.  0.  0.
539  5.38  0.  0.  0.
540  5.39  0.  0.  0.
541  5.40  0.  0.  0.
542  5.41  0.  0.  0.
543  5.42  0.  0.  0.
544  5.43  0.  0.  0.
545  5.44  0.  0.  0.
546  5.45  0.  0.  0.
547  5.46  0.  0.  0.
548  5.47  0.  0.  0.
549  5.48  0.  0.  0.
550  5.49  0.  0.  0.
551  5.50  0.  0.  0.
552  5.51  0.  0.  0.
553  5.52  0.  0.  0.
554  5.53  0.  0.  0.
555  5.54  0.  0.  0.
556  5.55  0.  0.  0.
557  5.56  0.  0.  0.
558  5.57  0.  0.  0.
559  5.58  0.  0.  0.
560  5.59  0.  0.  0.
561  5.60  0.  0.  0.
562  5.61  0.  0.  0.
563  5.62  0.  0.  0.
564  5.63  0.  0.  0.
565  5.64  0.  0.  0.
566  5.65  0.  0.  0.
567  5.66  0.  0.  0.
568  5.67  0.  0.  0.
569  5.68  0.  0.  0.
570  5.69  0.  0.  0.
571  5.70  0.  0.  0.
572  5.71  0.  0.  0.
573  5.72  0.  0.  0.
574  5.73  0.  0.  0.
575  5.74  0.  0.  0.
576  5.75  0.  0.  0.
577  5.76  0.  0.  0.
578  5.77  0.  0.  0.
579  5.78  0.  0.  0.
580  5.79  0.  0.  0.
581  5.80  0.  0.  0.
582  5.81  0.  0.  0.
583  5.82  0.  0.  0.
584  5.83  0.  0.  0.
585  5.84  0.  0.  0.
586  5.85  0.  0.  0.
587  5.86  0.  0.  0.
588  5.87  0.  0.  0.
589  5.88  0.  0.  0.
590  5.89  0.  0.  0.
591  5.90  0.  0.  0.
592  5.91  0.  0.  0.
593  5.92  0.  0.  0.
594  5.93  0.  0.  0.
595  5.94  0.  0.  0.
596  5.95  0.  0.  0.
597  5.96  0.  0.  0.
598  5.97  0.  0.  0.
599  5.98  0.  0.  0.
600  5.99  0.  0.  0.
1                         2.8675760800063E+01 -6.6833097345859E+00
1  0.0000000000000E+00 -3.3135006405338E-08  2.6716341083866E-09
2  1.0000000000000E-02  6.2253771207154E-03  1.4482335990242E-03
3  2.0000000000000E-02  2.4832259353433E-02  5.7889992807766E-03
4  3.0000000000000E-02  5.5613071703107E-02  1.3010521305441E-02
5  4.0000000000000E-02  9.8222460943936E-02  2.3093269791623E-02
6  5.0000000000000E-02  1.5217830801888E-01  3.6010097202150E-02
7  6.0000000000000E-02  2.1686334835428E-01  5.1726413812366E-02
8  7.0000000000000E-02  2.9152758808453E-01  7.0200387626261E-02
9  8.0000000000000E-02  3.7529173731679E-01  9.1383151534096E-02
10  9.0000000000000E-02  4.6715190061699E-01  1.1521899884609E-01
11  1.0000000000000E-01  5.6598576816450E-01  1.4164554781146E-01
12  1.1000000000000E-01  6.7056053755552E-01  1.7059385640723E-01
13  1.2000000000000E-01  7.7954276589724E-01  2.0198847056420E-01
14  1.3000000000000E-01  8.9151030531339E-01  2.3574739203727E-01
15  1.4000000000000E-01  1.0049664137684E+00  2.7178195621287E-01
16  1.5000000000000E-01  1.1183560594555E+00  3.0999661511477E-01
17  1.6000000000000E-01  1.2300843537847E+00  3.5028862650979E-01
18  1.7000000000000E-01  1.3385369586887E+00  3.9254765607736E-01
19  1.8000000000000E-01  1.4421022223790E+00  4.3665530581559E-01
20  1.9000000000000E-01  1.5391947078944E+00  4.8248458791842E-01
21  2.0000000000000E-01  1.6282796949133E+00  5.2989936897929E-01
22  2.1000000000000E-01  1.7078981613486E+00  5.7875381427210E-01
23  2.2000000000000E-01  1.7766916909082E+00  6.2889186576877E-01
24  2.3000000000000E-01  1.8334267093085E+00  6.8014679024991E-01
25  2.4000000000000E-01  1.8770174277945E+00  7.3234083517006E-01
26  2.5000000000000E-01  1.9065468699138E+00  7.8528502972876E-01
27  2.6000000000000E-01  1.9212853771612E+00  8.3877916680865E-01
28  2.7000000000000E-01  1.9207060312930E+00  8.9261199807573E-01
29  2.8000000000000E-01  1.9044964950510E+00  9.4656166966199E-01
30  2.9000000000000E-01  1.8725668570440E+00  1.0003964196031E+00
31  3.0000000000000E-01  1.8250531681102E+00  1.0538755507772E+00
32  3.1000000000000E-01  1.7623164723276E+00  1.1067506847340E+00
33  3.2000000000000E-01  1.6849372620420E+00  1.1587672928136E+00
34  3.3000000000000E-01  1.5937054184256E+00  1.2096664916505E+00
35  3.4000000000000E-01  1.4896058324260E+00  1.2591870809010E+00
36  3.5000000000000E-01  1.3738000306515E+00  1.3070677921601E+00
37  3.6000000000000E-01  1.2476042519410E+00  1.3530497099096E+00
38  3.7000000000000E-01  1.1124645285293E+00  1.3968788182766E+00
39  3.8000000000000E-01  9.6992941669459E-01  1.4383086216748E+00
40  3.9000000000000E-01  8.2162109205124E-01  1.4771027832958E+00
41  4.0000000000000E-01  6.6920557142324E-01  1.5130377230945E+00
42  4.1000000000000E-01  5.1436284460424E-01  1.5459051164901E+00
43  4.2000000000000E-01  3.5875769429437E-01  1.5755142365384E+00
44  4.3000000000000E-01  2.0401195114056E-01  1.6016940857809E+00
45  4.4000000000000E-01  5.1678874123614E-02  1.6242952692545E+00
46  4.5000000000000E-01 -9.6779733459671E-02  1.6431915670684E+00
47  4.6000000000000E-01 -2.4001316257101E-01  1.6582811732943E+00
48  4.7000000000000E-01 -3.7679779881226E-01  1.6694875773673E+00
49  4.8000000000000E-01 -5.0604922130285E-01  1.6767600744282E+00
50  4.9000000000000E-01 -6.2683027366626E-01  1.6800739016735E+00
51  5.0000000000000E-01 -7.3835511998971E-01  1.6794300084272E+00
52  5.1000000000000E-01 -8.3998943493960E-01  1.6748544779203E+00
53  5.2000000000000E-01 -9.3124700543081E-01  1.6663976282644E+00
54  5.3000000000000E-01 -1.0117831365046E+00  1.6541328285003E+00
55  5.4000000000000E-01 -1.0813853519944E+00  1.6381550725543E+00
56  5.5000000000000E-01 -1.1399619574564E+00  1.6185793592111E+00
57  5.6000000000000E-01 -1.1875290858269E+00  1.5955389295953E+00
58  5.7000000000000E-01 -1.2241968733998E+00  1.5691834150454E+00
59  5.8000000000000E-01 -1.2501554140673E+00  1.5396769476081E+00
60  5.9000000000000E-01 -1.2656611134685E+00  1.5071962827237E+00
61  6.0000000000000E-01 -1.2710240129541E+00  1.4719289791427E+00
62  6.1000000000000E-01 -1.2665965783112E+00  1.4340716748881E+00
63  6.2000000000000E-01 -1.2527643531877E+00  1.3938284904492E+00
64  6.3000000000000E-01 -1.2299387660914E+00  1.3514095816659E+00
65  6.4000000000000E-01 -1.1985522573951E+00  1.3070298553217E+00
66  6.5000000000000E-01 -1.1590557641183E+00  1.2609078507151E+00
67  6.6000000000000E-01 -1.1119184708354E+00  1.2132647808426E+00
68  6.7000000000000E-01 -1.0576296104224E+00  1.1643237177248E+00
69  6.8000000000000E-01 -9.9670198388130E-01  1.1143088982501E+00
70  6.9000000000000E-01 -9.2967676923280E-01  1.0634451200684E+00
71  7.0000000000000E-01 -8.5712910987624E-01  1.0119571918567E+00
72  7.1000000000000E-01 -7.7967391663199E-01  9.6006939897121E-01
73  7.2000000000000E-01 -6.9797128767564E-01  9.0800494426569E-01
74  7.3000000000000E-01 -6.1273094852285E-01  8.5598532480550E-01
75  7.4000000000000E-01 -5.2471514074930E-01  8.0422960834090E-01
76  7.5000000000000E-01 -4.3473944269710E-01  7.5295357864533E-01
77  7.6000000000000E-01 -3.4367108630792E-01  7.0236872599728E-01
78  7.7000000000000E-01 -2.5242443859450E-01  6.5268106792727E-01
79  7.8000000000000E-01 -1.6195344025563E-01  6.0408979552840E-01
80  7.9000000000000E-01 -7.3240932768599E-02  5.5678575173142E-01
81  8.0000000000000E-01  1.2715046525633E-02  5.1094975951909E-01
82  8.1000000000000E-01  9.4917770317497E-02  4.6675082960699E-01
83  8.2000000000000E-01  1.7239074865109E-01  4.2434428813932E-01
84  8.3000000000000E-01  2.4419855892811E-01  3.8386987493695E-01
85  8.4000000000000E-01  3.0946893615942E-01  3.4544987130623E-01
86  8.5000000000000E-01  3.6741537853978E-01  3.0918732293649E-01
87  8.6000000000000E-01  4.1735944714626E-01  2.7516442760425E-01
88  8.7000000000000E-01  4.5875189261320E-01  2.4344115896741E-01
89  8.8000000000000E-01  4.9119172903669E-01  2.1405419646859E-01
90  8.9000000000000E-01  5.1444239789785E-01  1.8701622717413E-01
91  9.0000000000000E-01  5.2844422292710E-01  1.6231567826394E-01
92  9.1000000000000E-01  5.3332244961096E-01  1.3991692898374E-01
93  9.2000000000000E-01  5.2939028818410E-01  1.1976103841129E-01
94  9.3000000000000E-01  5.1714653278132E-01  1.0176701071727E-01
95  9.4000000000000E-01  4.9726750710541E-01  8.5833603162067E-02
96  9.5000000000000E-01  4.7059328256846E-01  7.1841664385152E-02
97  9.6000000000000E-01  4.3810832163985E-01  5.9656972204466E-02
98  9.7000000000000E-01  4.0091690961034E-01  4.9133521790873E-02
99  9.8000000000000E-01  3.6021394458407E-01  4.0117197362935E-02
100  9.9000000000000E-01  3.1725185028348E-01  3.2449744130994E-02
101  1.0000000000000E+00  2.7330455178078E-01  2.5972942726536E-02
102  1.0100000000000E+00  2.2962960343822E-01  2.0532876370911E-02
103  1.0200000000000E+00  1.8742967516455E-01  1.5984172056936E-02
104  1.0300000000000E+00  1.4781473998196E-01  1.2194086714078E-02
105  1.0400000000000E+00  1.1176581445083E-01  9.0463512245945E-03
106  1.0500000000000E+00  8.0098338145064E-02  6.4449261249592E-03
107  1.0600000000000E+00  5.3226626194172E-02  4.3334722351455E-03
108  1.0700000000000E+00  3.1586490259529E-02  2.6602804729558E-03
109  1.0800000000000E+00  1.5579574198837E-02  1.3858417603381E-03
110  1.0900000000000E+00  5.2886861830325E-03  5.0658299388900E-04
111  1.1000000000000E+00  5.2275778453374E-04  5.4959164072779E-05
112  1.1100000000000E+00 -1.8212813983178E-05 -2.0430841832519E-06
113  1.1200000000000E+00 -2.5081379615889E-06 -2.5836268369167E-07
114  1.13 -0.  0.
115  1.14  0.  0.
116  1.15  0.  0.
117  1.16  0.  0.
118  1.17  0.  0.
119  1.18  0.  0.
120  1.19  0.  0.
121  1.20  0.  0.
122  1.21  0.  0.
123  1.22  0.  0.
124  1.23  0.  0.
125  1.24  0.  0.
126  1.25  0.  0.
127  1.26  0.  0.
128  1.27  0.  0.
129  1.28  0.  0.
130  1.29  0.  0.
131  1.30  0.  0.
132  1.31  0.  0.
133  1.32  0.  0.
134  1.33  0.  0.
135  1.34  0.  0.
136  1.35  0.  0.
137  1.36  0.  0.
138  1.37  0.  0.
139  1.38  0.  0.
140  1.39  0.  0.
141  1.40  0.  0.
142  1.41  0.  0.
143  1.42  0.  0.
144  1.43  0.  0.
145  1.44  0.  0.
146  1.45  0.  0.
147  1.46  0.  0.
148  1.47  0.  0.
149  1.48  0.  0.
150  1.49  0.  0.
151  1.50  0.  0.
152  1.51  0.  0.
153  1.52  0.  0.
154  1.53  0.  0.
155  1.54  0.  0.
156  1.55  0.  0.
157  1.56  0.  0.
158  1.57  0.  0.
159  1.58  0.  0.
160  1.59  0.  0.
161  1.60  0.  0.
162  1.61  0.  0.
163  1.62  0.  0.
164  1.63  0.  0.
165  1.64  0.  0.
166  1.65  0.  0.
167  1.66  0.  0.
168  1.67  0.  0.
169  1.68  0.  0.
170  1.69  0.  0.
171  1.70  0.  0.
172  1.71  0.  0.
173  1.72  0.  0.
174  1.73  0.  0.
175  1.74  0.  0.
176  1.75  0.  0.
177  1.76  0.  0.
178  1.77  0.  0.
179  1.78  0.  0.
180  1.79  0.  0.
181  1.80  0.  0.
182  1.81  0.  0.
183  1.82  0.  0.
184  1.83  0.  0.
185  1.84  0.  0.
186  1.85  0.  0.
187  1.86  0.  0.
188  1.87  0.  0.
189  1.88  0.  0.
190  1.89  0.  0.
191  1.90  0.  0.
192  1.91  0.  0.
193  1.92  0.  0.
194  1.93  0.  0.
195  1.94  0.  0.
196  1.95  0.  0.
197  1.96  0.  0.