Lr    ONCVPSP-4.0.1  r_core=   1.10451   1.35363   1.20099   1.20099
    103.0000     43.0000      211113    zatom,zion,pspd
     8      11   3     4   600     0    pspcod,pspxc,lmax,lloc,mmax,r2well
  5.99000000  4.12600000  0.00000000    rchrg fchrg qchrg
     3     2     2     2     0    nproj
     1     1           extension_switch
   0                         2.6778144026550E+01 -7.8778038668517E+00 -3.0755148415424E-01
     1  0.0000000000000E+00 -3.5184329671978E-08 -4.1009527440572E-09  3.0509520410060E-07
     2  1.0000000000000E-02  2.1239066348674E-01  3.6392584149199E-02 -1.3815760952229E-01
     3  2.0000000000000E-02  4.2269095475884E-01  7.2830129268138E-02 -2.7309476351876E-01
     4  3.0000000000000E-02  6.2883709860398E-01  1.0935743712562E-01 -4.0167468278194E-01
     5  4.0000000000000E-02  8.2881807790497E-01  1.4601896811010E-01 -5.2092546285418E-01
     6  5.0000000000000E-02  1.0207009323709E+00  1.8285861423518E-01 -6.2811640070093E-01
     7  6.0000000000000E-02  1.2026547870979E+00  2.1991940772893E-01 -7.2082722061251E-01
     8  7.0000000000000E-02  1.3729732304516E+00  2.5724314884232E-01 -7.9700820980386E-01
     9  8.0000000000000E-02  1.5300946959474E+00  2.9486994061282E-01 -8.5502957927680E-01
    10  9.0000000000000E-02  1.6726205448858E+00  3.3283762311331E-01 -8.9371872478267E-01
    11  1.0000000000000E-01  1.7993305943096E+00  3.7118110500376E-01 -9.1238446277174E-01
    12  1.1000000000000E-01  1.9091958870794E+00  4.0993159576078E-01 -9.1082774221182E-01
    13  1.2000000000000E-01  2.0013885561063E+00  4.4911574755831E-01 -8.8933876944879E-01
    14  1.3000000000000E-01  2.0752886915915E+00  4.8875472117441E-01 -8.4868091400350E-01
    15  1.4000000000000E-01  2.1304881770330E+00  5.2886319528086E-01 -7.9006217291022E-01
    16  1.5000000000000E-01  2.1667915153756E+00  5.6944834282363E-01 -7.1509534548684E-01
    17  1.6000000000000E-01  2.1842137196791E+00  6.1050880174156E-01 -6.2574839646257E-01
    18  1.7000000000000E-01  2.1829753918665E+00  6.5203366984786E-01 -5.2428675239489E-01
    19  1.8000000000000E-01  2.1634951574789E+00  6.9400155520402E-01 -4.1320947600402E-01
    20  1.9000000000000E-01  2.1263796630603E+00  7.3637971368249E-01 -2.9518138987267E-01
    21  2.0000000000000E-01  2.0724113752038E+00  7.7912330462055E-01 -1.7296327229528E-01
    22  2.1000000000000E-01  2.0025344460113E+00  8.2217479354053E-01 -4.9342224255795E-02
    23  2.2000000000000E-01  1.9178389285569E+00  8.6546352791934E-01  7.2935789178093E-02
    24  2.3000000000000E-01  1.8195436379504E+00  9.0890550804618E-01  1.9122938136856E-01
    25  2.4000000000000E-01  1.7089779589831E+00  9.5240337025822E-01  3.0305954802829E-01
    26  2.5000000000000E-01  1.5875629005448E+00  9.9584659446902E-01  4.0616047638564E-01
    27  2.6000000000000E-01  1.4567916905679E+00  1.0391119421023E+00  4.9852230503084E-01
    28  2.7000000000000E-01  1.3182101938991E+00  1.0820641245295E+00  5.7842510377951E-01
    29  2.8000000000000E-01  1.1733974199743E+00  1.1245566961009E+00  6.4446367570573E-01
    30  2.9000000000000E-01  1.0239463683232E+00  1.1664331600724E+00  6.9556311194163E-01
    31  3.0000000000000E-01  8.7144543859199E-01  1.2075282703621E+00  7.3098534124362E-01
    32  3.1000000000000E-01  7.1746060877388E-01  1.2476695073087E+00  7.5032719926855E-01
    33  3.2000000000000E-01  5.6351856144939E-01  1.2866787015921E+00  7.5351078706579E-01
    34  3.3000000000000E-01  4.1109091376542E-01  1.3243737773436E+00  7.4076708660681E-01
    35  3.4000000000000E-01  2.6157968321527E-01  1.3605705832911E+00  7.1261394762666E-01
    36  3.5000000000000E-01  1.1630409851284E-01  1.3950847796068E+00  6.6982965137618E-01
    37  3.6000000000000E-01 -2.3511156661552E-02  1.4277337479352E+00  6.1342329241133E-01
    38  3.7000000000000E-01 -1.5674619929227E-01  1.4583384928633E+00  5.4460320094155E-01
    39  3.8000000000000E-01 -2.8239465271279E-01  1.4867255047470E+00  4.6474455955604E-01
    40  3.9000000000000E-01 -3.9957076985149E-01  1.5127285562512E+00  3.7535725537413E-01
    41  4.0000000000000E-01 -5.0751495688653E-01  1.5361904080335E+00  2.7805485958021E-01
    42  4.1000000000000E-01 -6.0559769418797E-01  1.5569644025673E+00  1.7452544999600E-01
    43  4.2000000000000E-01 -6.9332186438737E-01  1.5749159289786E+00  6.6504798713731E-02
    44  4.3000000000000E-01 -7.7032350958560E-01  1.5899237457957E+00 -4.4247753743054E-02
    45  4.4000000000000E-01 -8.3637105137178E-01  1.6018811525051E+00 -1.5597061355702E-01
    46  4.5000000000000E-01 -8.9136301875239E-01  1.6106970046141E+00 -2.6691849815013E-01
    47  4.6000000000000E-01 -9.3532434051068E-01  1.6162965703967E+00 -3.7537847276335E-01
    48  4.7000000000000E-01 -9.6840127011015E-01  1.6186222305147E+00 -4.7968381518907E-01
    49  4.8000000000000E-01 -9.9085502312662E-01  1.6176340241824E+00 -5.7822616340112E-01
    50  4.9000000000000E-01 -1.0030542193614E+00  1.6133100474016E+00 -6.6946646082292E-01
    51  5.0000000000000E-01 -1.0054662341863E+00  1.6056467100183E+00 -7.5194523353336E-01
    52  5.1000000000000E-01 -9.9864757614187E-01  1.5946588589381E+00 -8.2429271307924E-01
    53  5.2000000000000E-01 -9.8323342010886E-01  1.5803797748273E+00 -8.8523926000723E-01
    54  5.3000000000000E-01 -9.5992643718622E-01  1.5628610490844E+00 -9.3362645090553E-01
    55  5.4000000000000E-01 -9.2948507335186E-01  1.5421723468819E+00 -9.6841907139335E-01
    56  5.5000000000000E-01 -8.9271143863831E-01  1.5184010607748E+00 -9.8871811627524E-01
    57  5.6000000000000E-01 -8.5043897647922E-01  1.4916518578615E+00 -9.9377474406187E-01
    58  5.7000000000000E-01 -8.0352008863159E-01  1.4620461219201E+00 -9.8300497497316E-01
    59  5.8000000000000E-01 -7.5281389423678E-01  1.4297212904533E+00 -9.5600476826010E-01
    60  5.9000000000000E-01 -6.9917430178097E-01  1.3948300852953E+00 -9.1256497486514E-01
    61  6.0000000000000E-01 -6.4343856965461E-01  1.3575396344917E+00 -8.5268554307304E-01
    62  6.1000000000000E-01 -5.8641652448140E-01  1.3180304826493E+00 -7.7658826490010E-01
    63  6.2000000000000E-01 -5.2888059628535E-01  1.2764954869606E+00 -6.8472729518119E-01
    64  6.3000000000000E-01 -4.7155681590404E-01  1.2331385966854E+00 -5.7779665770302E-01
    65  6.4000000000000E-01 -4.1511690297172E-01  1.1881735150396E+00 -4.5673397561586E-01
    66  6.5000000000000E-01 -3.6017155254900E-01  1.1418222442053E+00 -3.2271972713121E-01
    67  6.6000000000000E-01 -3.0726500544881E-01  1.0943135164796E+00 -1.7717143070696E-01
    68  6.7000000000000E-01 -2.5687096199273E-01  1.0458811173782E+00 -2.1732303228420E-02
    69  6.8000000000000E-01 -2.0938987191995E-01  9.9676210968488E-01  1.4174589491128E-01
    70  6.9000000000000E-01 -1.6514760513246E-01  9.4719497089153E-01  3.1122591890987E-01
    71  7.0000000000000E-01 -1.2439547961850E-01  8.9741766006067E-01  4.8451388192255E-01
    72  7.1000000000000E-01 -8.7311595014883E-02  8.4766563371290E-01  6.5929353940021E-01
    73  7.2000000000000E-01 -5.4003393604766E-02  7.9816983374971E-01  8.3316545428529E-01
    74  7.3000000000000E-01 -2.4511345849365E-02  7.4915467350516E-01  1.0036902719040E+00
    75  7.4000000000000E-01  1.1863644915962E-03  7.0083605063477E-01  1.1684351419447E+00
    76  7.5000000000000E-01  2.3168299362695E-02  6.5341941756204E-01  1.3250221602977E+00
    77  7.6000000000000E-01  4.1563528214317E-02  6.0709794149505E-01  1.4711775730380E+00
    78  7.7000000000000E-01  5.6544862030055E-02  5.6205078650632E-01  1.6047803943952E+00
    79  7.8000000000000E-01  6.8321735263529E-02  5.1844154977390E-01  1.7239090446716E+00
    80  7.9000000000000E-01  7.7132912983035E-02  4.7641688277432E-01  1.8268846155586E+00
    81  8.0000000000000E-01  8.3239197495746E-02  4.3610532599639E-01  1.9123094201446E+00
    82  8.1000000000000E-01  8.6916301190850E-02  3.9761638263678E-01  1.9790995823833E+00
    83  8.2000000000000E-01  8.8448040577478E-02  3.6103985280283E-01  2.0265105633531E+00
    84  8.3000000000000E-01  8.8119990892200E-02  3.2644544507186E-01  2.0541547052073E+00
    85  8.4000000000000E-01  8.6213721716827E-02  2.9388267695305E-01  2.0620100927077E+00
    86  8.5000000000000E-01  8.3001712369778E-02  2.6338106999833E-01  2.0504202799525E+00
    87  8.6000000000000E-01  7.8743022068720E-02  2.3495063916305E-01  2.0200846987416E+00
    88  8.7000000000000E-01  7.3679764704930E-02  2.0858266968136E-01  1.9720398467773E+00
    89  8.8000000000000E-01  6.8034412234718E-02  1.8425076836013E-01  1.9076316401490E+00
    90  8.9000000000000E-01  6.2007924880648E-02  1.6191216996636E-01  1.8284795969796E+00
    91  9.0000000000000E-01  5.5778681216892E-02  1.4150927344194E-01  1.7364337897958E+00
    92  9.1000000000000E-01  4.9502157407247E-02  1.2297137716659E-01  1.6335257558534E+00
    93  9.2000000000000E-01  4.3311282907151E-02  1.0621657752704E-01  1.5219147811128E+00
    94  9.3000000000000E-01  3.7317380296144E-02  9.1153790744889E-02  1.4038311695712E+00
    95  9.4000000000000E-01  3.1611579926125E-02  7.7684854344532E-02  1.2815182714162E+00
    96  9.5000000000000E-01  2.6266586006969E-02  6.5706661864402E-02  1.1571751684552E+00
    97  9.6000000000000E-01  2.1338659752947E-02  5.5113282459670E-02  1.0329020023211E+00
    98  9.7000000000000E-01  1.6869677323147E-02  4.5798015919773E-02  9.1064998025812E-01
    99  9.8000000000000E-01  1.2889115452057E-02  3.7655333313055E-02  7.9217810623856E-01
   100  9.9000000000000E-01  9.4158157486864E-03  3.0582653937766E-02  6.7901866416502E-01
   101  1.0000000000000E+00  6.4593794310493E-03  2.4481910449479E-02  5.7245342827832E-01
   102  1.0100000000000E+00  4.0210474868683E-03  1.9260855880078E-02  4.7350249764337E-01
   103  1.0200000000000E+00  2.0939266148005E-03  1.4834068689548E-02  3.8292755087146E-01
   104  1.0300000000000E+00  6.6244180135881E-04  1.1123620291230E-02  3.0125105928150E-01
   105  1.0400000000000E+00 -2.9921796426543E-04  8.0593235195707E-03  2.2879414869345E-01
   106  1.0500000000000E+00 -8.3057901657862E-04  5.5782255056653E-03  1.6574276147586E-01
   107  1.0600000000000E+00 -1.0338849360048E-03  3.6048073363774E-03  1.1270508457051E-01
   108  1.0700000000000E+00 -9.7242229906937E-04  2.0915871970538E-03  6.9702887995155E-02
   109  1.0800000000000E+00 -6.9941451937785E-04  1.0133697614043E-03  3.6493831469992E-02
   110  1.0900000000000E+00 -3.3006647546133E-04  3.3918371835157E-04  1.3398022513892E-02
   111  1.1000000000000E+00 -4.4191170262403E-05  3.3148674978906E-05  1.4610915086675E-03
   112  1.1100000000000E+00  1.8415288842130E-06 -1.1440615284960E-06 -5.4572356257220E-05
   113  1.1200000000000E+00  1.9998441807738E-07 -1.5912971059635E-07 -6.8691771616255E-06
   114  1.13 -0. -0.  0.
   115  1.14  0.  0.  0.
   116  1.15  0.  0.  0.
   117  1.16  0.  0.  0.
   118  1.17  0.  0.  0.
   119  1.18  0.  0.  0.
   120  1.19  0.  0.  0.
   121  1.20  0.  0.  0.
   122  1.21  0.  0.  0.
   123  1.22  0.  0.  0.
   124  1.23  0.  0.  0.
   125  1.24  0.  0.  0.
   126  1.25  0.  0.  0.
   127  1.26  0.  0.  0.
   128  1.27  0.  0.  0.
   129  1.28  0.  0.  0.
   130  1.29  0.  0.  0.
   131  1.30  0.  0.  0.
   132  1.31  0.  0.  0.
   133  1.32  0.  0.  0.
   134  1.33  0.  0.  0.
   135  1.34  0.  0.  0.
   136  1.35  0.  0.  0.
   137  1.36  0.  0.  0.
   138  1.37  0.  0.  0.
   139  1.38  0.  0.  0.
   140  1.39  0.  0.  0.
   141  1.40  0.  0.  0.
   142  1.41  0.  0.  0.
   143  1.42  0.  0.  0.
   144  1.43  0.  0.  0.
   145  1.44  0.  0.  0.
   146  1.45  0.  0.  0.
   147  1.46  0.  0.  0.
   148  1.47  0.  0.  0.
   149  1.48  0.  0.  0.
   150  1.49  0.  0.  0.
   151  1.50  0.  0.  0.
   152  1.51  0.  0.  0.
   153  1.52  0.  0.  0.
   154  1.53  0.  0.  0.
   155  1.54  0.  0.  0.
   156  1.55  0.  0.  0.
   157  1.56  0.  0.  0.
   158  1.57  0.  0.  0.
   159  1.58  0.  0.  0.
   160  1.59  0.  0.  0.
   161  1.60  0.  0.  0.
   162  1.61  0.  0.  0.
   163  1.62  0.  0.  0.
   164  1.63  0.  0.  0.
   165  1.64  0.  0.  0.
   166  1.65  0.  0.  0.
   167  1.66  0.  0.  0.
   168  1.67  0.  0.  0.
   169  1.68  0.  0.  0.
   170  1.69  0.  0.  0.
   171  1.70  0.  0.  0.
   172  1.71  0.  0.  0.
   173  1.72  0.  0.  0.
   174  1.73  0.  0.  0.
   175  1.74  0.  0.  0.
   176  1.75  0.  0.  0.
   177  1.76  0.  0.  0.
   178  1.77  0.  0.  0.
   179  1.78  0.  0.  0.
   180  1.79  0.  0.  0.
   181  1.80  0.  0.  0.
   182  1.81  0.  0.  0.
   183  1.82  0.  0.  0.
   184  1.83  0.  0.  0.
   185  1.84  0.  0.  0.
   186  1.85  0.  0.  0.
   187  1.86  0.  0.  0.
   188  1.87  0.  0.  0.
   189  1.88  0.  0.  0.
   190  1.89  0.  0.  0.
   191  1.90  0.  0.  0.
   192  1.91  0.  0.  0.
   193  1.92  0.  0.  0.
   194  1.93  0.  0.  0.
   195  1.94  0.  0.  0.
   196  1.95  0.  0.  0.
   197  1.96  0.  0.  0.
   198  1.97  0.  0.  0.
   199  1.98  0.  0.  0.
   200  1.99  0.  0.  0.
   201  2.00  0.  0.  0.
   202  2.01  0.  0.  0.
   203  2.02  0.  0.  0.
   204  2.03  0.  0.  0.
   205  2.04  0.  0.  0.
   206  2.05  0.  0.  0.
   207  2.06  0.  0.  0.
   208  2.07  0.  0.  0.
   209  2.08  0.  0.  0.
   210  2.09  0.  0.  0.
   211  2.10  0.  0.  0.
   212  2.11  0.  0.  0.
   213  2.12  0.  0.  0.
   214  2.13  0.  0.  0.
   215  2.14  0.  0.  0.
   216  2.15  0.  0.  0.
   217  2.16  0.  0.  0.
   218  2.17  0.  0.  0.
   219  2.18  0.  0.  0.
   220  2.19  0.  0.  0.
   221  2.20  0.  0.  0.
   222  2.21  0.  0.  0.
   223  2.22  0.  0.  0.
   224  2.23  0.  0.  0.
   225  2.24  0.  0.  0.
   226  2.25  0.  0.  0.
   227  2.26  0.  0.  0.
   228  2.27  0.  0.  0.
   229  2.28  0.  0.  0.
   230  2.29  0.  0.  0.
   231  2.30  0.  0.  0.
   232  2.31  0.  0.  0.
   233  2.32  0.  0.  0.
   234  2.33  0.  0.  0.
   235  2.34  0.  0.  0.
   236  2.35  0.  0.  0.
   237  2.36  0.  0.  0.
   238  2.37  0.  0.  0.
   239  2.38  0.  0.  0.
   240  2.39  0.  0.  0.
   241  2.40  0.  0.  0.
   242  2.41  0.  0.  0.
   243  2.42  0.  0.  0.
   244  2.43  0.  0.  0.
   245  2.44  0.  0.  0.
   246  2.45  0.  0.  0.
   247  2.46  0.  0.  0.
   248  2.47  0.  0.  0.
   249  2.48  0.  0.  0.
   250  2.49  0.  0.  0.
   251  2.50  0.  0.  0.
   252  2.51  0.  0.  0.
   253  2.52  0.  0.  0.
   254  2.53  0.  0.  0.
   255  2.54  0.  0.  0.
   256  2.55  0.  0.  0.
   257  2.56  0.  0.  0.
   258  2.57  0.  0.  0.
   259  2.58  0.  0.  0.
   260  2.59  0.  0.  0.
   261  2.60  0.  0.  0.
   262  2.61  0.  0.  0.
   263  2.62  0.  0.  0.
   264  2.63  0.  0.  0.
   265  2.64  0.  0.  0.
   266  2.65  0.  0.  0.
   267  2.66  0.  0.  0.
   268  2.67  0.  0.  0.
   269  2.68  0.  0.  0.
   270  2.69  0.  0.  0.
   271  2.70  0.  0.  0.
   272  2.71  0.  0.  0.
   273  2.72  0.  0.  0.
   274  2.73  0.  0.  0.
   275  2.74  0.  0.  0.
   276  2.75  0.  0.  0.
   277  2.76  0.  0.  0.
   278  2.77  0.  0.  0.
   279  2.78  0.  0.  0.
   280  2.79  0.  0.  0.
   281  2.80  0.  0.  0.
   282  2.81  0.  0.  0.
   283  2.82  0.  0.  0.
   284  2.83  0.  0.  0.
   285  2.84  0.  0.  0.
   286  2.85  0.  0.  0.
   287  2.86  0.  0.  0.
   288  2.87  0.  0.  0.
   289  2.88  0.  0.  0.
   290  2.89  0.  0.  0.
   291  2.90  0.  0.  0.
   292  2.91  0.  0.  0.
   293  2.92  0.  0.  0.
   294  2.93  0.  0.  0.
   295  2.94  0.  0.  0.
   296  2.95  0.  0.  0.
   297  2.96  0.  0.  0.
   298  2.97  0.  0.  0.
   299  2.98  0.  0.  0.
   300  2.99  0.  0.  0.
   301  3.00  0.  0.  0.
   302  3.01  0.  0.  0.
   303  3.02  0.  0.  0.
   304  3.03  0.  0.  0.
   305  3.04  0.  0.  0.
   306  3.05  0.  0.  0.
   307  3.06  0.  0.  0.
   308  3.07  0.  0.  0.
   309  3.08  0.  0.  0.
   310  3.09  0.  0.  0.
   311  3.10  0.  0.  0.
   312  3.11  0.  0.  0.
   313  3.12  0.  0.  0.
   314  3.13  0.  0.  0.
   315  3.14  0.  0.  0.
   316  3.15  0.  0.  0.
   317  3.16  0.  0.  0.
   318  3.17  0.  0.  0.
   319  3.18  0.  0.  0.
   320  3.19  0.  0.  0.
   321  3.20  0.  0.  0.
   322  3.21  0.  0.  0.
   323  3.22  0.  0.  0.
   324  3.23  0.  0.  0.
   325  3.24  0.  0.  0.
   326  3.25  0.  0.  0.
   327  3.26  0.  0.  0.
   328  3.27  0.  0.  0.
   329  3.28  0.  0.  0.
   330  3.29  0.  0.  0.
   331  3.30  0.  0.  0.
   332  3.31  0.  0.  0.
   333  3.32  0.  0.  0.
   334  3.33  0.  0.  0.
   335  3.34  0.  0.  0.
   336  3.35  0.  0.  0.
   337  3.36  0.  0.  0.
   338  3.37  0.  0.  0.
   339  3.38  0.  0.  0.
   340  3.39  0.  0.  0.
   341  3.40  0.  0.  0.
   342  3.41  0.  0.  0.
   343  3.42  0.  0.  0.
   344  3.43  0.  0.  0.
   345  3.44  0.  0.  0.
   346  3.45  0.  0.  0.
   347  3.46  0.  0.  0.
   348  3.47  0.  0.  0.
   349  3.48  0.  0.  0.
   350  3.49  0.  0.  0.
   351  3.50  0.  0.  0.
   352  3.51  0.  0.  0.
   353  3.52  0.  0.  0.
   354  3.53  0.  0.  0.
   355  3.54  0.  0.  0.
   356  3.55  0.  0.  0.
   357  3.56  0.  0.  0.
   358  3.57  0.  0.  0.
   359  3.58  0.  0.  0.
   360  3.59  0.  0.  0.
   361  3.60  0.  0.  0.
   362  3.61  0.  0.  0.
   363  3.62  0.  0.  0.
   364  3.63  0.  0.  0.
   365  3.64  0.  0.  0.
   366  3.65  0.  0.  0.
   367  3.66  0.  0.  0.
   368  3.67  0.  0.  0.
   369  3.68  0.  0.  0.
   370  3.69  0.  0.  0.
   371  3.70  0.  0.  0.
   372  3.71  0.  0.  0.
   373  3.72  0.  0.  0.
   374  3.73  0.  0.  0.
   375  3.74  0.  0.  0.
   376  3.75  0.  0.  0.
   377  3.76  0.  0.  0.
   378  3.77  0.  0.  0.
   379  3.78  0.  0.  0.
   380  3.79  0.  0.  0.
   381  3.80  0.  0.  0.
   382  3.81  0.  0.  0.
   383  3.82  0.  0.  0.
   384  3.83  0.  0.  0.
   385  3.84  0.  0.  0.
   386  3.85  0.  0.  0.
   387  3.86  0.  0.  0.
   388  3.87  0.  0.  0.
   389  3.88  0.  0.  0.
   390  3.89  0.  0.  0.
   391  3.90  0.  0.  0.
   392  3.91  0.  0.  0.
   393  3.92  0.  0.  0.
   394  3.93  0.  0.  0.
   395  3.94  0.  0.  0.
   396  3.95  0.  0.  0.
   397  3.96  0.  0.  0.
   398  3.97  0.  0.  0.
   399  3.98  0.  0.  0.
   400  3.99  0.  0.  0.
   401  4.00  0.  0.  0.
   402  4.01  0.  0.  0.
   403  4.02  0.  0.  0.
   404  4.03  0.  0.  0.
   405  4.04  0.  0.  0.
   406  4.05  0.  0.  0.
   407  4.06  0.  0.  0.
   408  4.07  0.  0.  0.
   409  4.08  0.  0.  0.
   410  4.09  0.  0.  0.
   411  4.10  0.  0.  0.
   412  4.11  0.  0.  0.
   413  4.12  0.  0.  0.
   414  4.13  0.  0.  0.
   415  4.14  0.  0.  0.
   416  4.15  0.  0.  0.
   417  4.16  0.  0.  0.
   418  4.17  0.  0.  0.
   419  4.18  0.  0.  0.
   420  4.19  0.  0.  0.
   421  4.20  0.  0.  0.
   422  4.21  0.  0.  0.
   423  4.22  0.  0.  0.
   424  4.23  0.  0.  0.
   425  4.24  0.  0.  0.
   426  4.25  0.  0.  0.
   427  4.26  0.  0.  0.
   428  4.27  0.  0.  0.
   429  4.28  0.  0.  0.
   430  4.29  0.  0.  0.
   431  4.30  0.  0.  0.
   432  4.31  0.  0.  0.
   433  4.32  0.  0.  0.
   434  4.33  0.  0.  0.
   435  4.34  0.  0.  0.
   436  4.35  0.  0.  0.
   437  4.36  0.  0.  0.
   438  4.37  0.  0.  0.
   439  4.38  0.  0.  0.
   440  4.39  0.  0.  0.
   441  4.40  0.  0.  0.
   442  4.41  0.  0.  0.
   443  4.42  0.  0.  0.
   444  4.43  0.  0.  0.
   445  4.44  0.  0.  0.
   446  4.45  0.  0.  0.
   447  4.46  0.  0.  0.
   448  4.47  0.  0.  0.
   449  4.48  0.  0.  0.
   450  4.49  0.  0.  0.
   451  4.50  0.  0.  0.
   452  4.51  0.  0.  0.
   453  4.52  0.  0.  0.
   454  4.53  0.  0.  0.
   455  4.54  0.  0.  0.
   456  4.55  0.  0.  0.
   457  4.56  0.  0.  0.
   458  4.57  0.  0.  0.
   459  4.58  0.  0.  0.
   460  4.59  0.  0.  0.
   461  4.60  0.  0.  0.
   462  4.61  0.  0.  0.
   463  4.62  0.  0.  0.
   464  4.63  0.  0.  0.
   465  4.64  0.  0.  0.
   466  4.65  0.  0.  0.
   467  4.66  0.  0.  0.
   468  4.67  0.  0.  0.
   469  4.68  0.  0.  0.
   470  4.69  0.  0.  0.
   471  4.70  0.  0.  0.
   472  4.71  0.  0.  0.
   473  4.72  0.  0.  0.
   474  4.73  0.  0.  0.
   475  4.74  0.  0.  0.
   476  4.75  0.  0.  0.
   477  4.76  0.  0.  0.
   478  4.77  0.  0.  0.
   479  4.78  0.  0.  0.
   480  4.79  0.  0.  0.
   481  4.80  0.  0.  0.
   482  4.81  0.  0.  0.
   483  4.82  0.  0.  0.
   484  4.83  0.  0.  0.
   485  4.84  0.  0.  0.
   486  4.85  0.  0.  0.
   487  4.86  0.  0.  0.
   488  4.87  0.  0.  0.
   489  4.88  0.  0.  0.
   490  4.89  0.  0.  0.
   491  4.90  0.  0.  0.
   492  4.91  0.  0.  0.
   493  4.92  0.  0.  0.
   494  4.93  0.  0.  0.
   495  4.94  0.  0.  0.
   496  4.95  0.  0.  0.
   497  4.96  0.  0.  0.
   498  4.97  0.  0.  0.
   499  4.98  0.  0.  0.
   500  4.99  0.  0.  0.
   501  5.00  0.  0.  0.
   502  5.01  0.  0.  0.
   503  5.02  0.  0.  0.
   504  5.03  0.  0.  0.
   505  5.04  0.  0.  0.
   506  5.05  0.  0.  0.
   507  5.06  0.  0.  0.
   508  5.07  0.  0.  0.
   509  5.08  0.  0.  0.
   510  5.09  0.  0.  0.
   511  5.10  0.  0.  0.
   512  5.11  0.  0.  0.
   513  5.12  0.  0.  0.
   514  5.13  0.  0.  0.
   515  5.14  0.  0.  0.
   516  5.15  0.  0.  0.
   517  5.16  0.  0.  0.
   518  5.17  0.  0.  0.
   519  5.18  0.  0.  0.
   520  5.19  0.  0.  0.
   521  5.20  0.  0.  0.
   522  5.21  0.  0.  0.
   523  5.22  0.  0.  0.
   524  5.23  0.  0.  0.
   525  5.24  0.  0.  0.
   526  5.25  0.  0.  0.
   527  5.26  0.  0.  0.
   528  5.27  0.  0.  0.
   529  5.28  0.  0.  0.
   530  5.29  0.  0.  0.
   531  5.30  0.  0.  0.
   532  5.31  0.  0.  0.
   533  5.32  0.  0.  0.
   534  5.33  0.  0.  0.
   535  5.34  0.  0.  0.
   536  5.35  0.  0.  0.
   537  5.36  0.  0.  0.
   538  5.37  0.  0.  0.
   539  5.38  0.  0.  0.
   540  5.39  0.  0.  0.
   541  5.40  0.  0.  0.
   542  5.41  0.  0.  0.
   543  5.42  0.  0.  0.
   544  5.43  0.  0.  0.
   545  5.44  0.  0.  0.
   546  5.45  0.  0.  0.
   547  5.46  0.  0.  0.
   548  5.47  0.  0.  0.
   549  5.48  0.  0.  0.
   550  5.49  0.  0.  0.
   551  5.50  0.  0.  0.
   552  5.51  0.  0.  0.
   553  5.52  0.  0.  0.
   554  5.53  0.  0.  0.
   555  5.54  0.  0.  0.
   556  5.55  0.  0.  0.
   557  5.56  0.  0.  0.
   558  5.57  0.  0.  0.
   559  5.58  0.  0.  0.
   560  5.59  0.  0.  0.
   561  5.60  0.  0.  0.
   562  5.61  0.  0.  0.
   563  5.62  0.  0.  0.
   564  5.63  0.  0.  0.
   565  5.64  0.  0.  0.
   566  5.65  0.  0.  0.
   567  5.66  0.  0.  0.
   568  5.67  0.  0.  0.
   569  5.68  0.  0.  0.
   570  5.69  0.  0.  0.
   571  5.70  0.  0.  0.
   572  5.71  0.  0.  0.
   573  5.72  0.  0.  0.
   574  5.73  0.  0.  0.
   575  5.74  0.  0.  0.
   576  5.75  0.  0.  0.
   577  5.76  0.  0.  0.
   578  5.77  0.  0.  0.
   579  5.78  0.  0.  0.
   580  5.79  0.  0.  0.
   581  5.80  0.  0.  0.
   582  5.81  0.  0.  0.
   583  5.82  0.  0.  0.
   584  5.83  0.  0.  0.
   585  5.84  0.  0.  0.
   586  5.85  0.  0.  0.
   587  5.86  0.  0.  0.
   588  5.87  0.  0.  0.
   589  5.88  0.  0.  0.
   590  5.89  0.  0.  0.
   591  5.90  0.  0.  0.
   592  5.91  0.  0.  0.
   593  5.92  0.  0.  0.
   594  5.93  0.  0.  0.
   595  5.94  0.  0.  0.
   596  5.95  0.  0.  0.
   597  5.96  0.  0.  0.
   598  5.97  0.  0.  0.
   599  5.98  0.  0.  0.
   600  5.99  0.  0.  0.
   1                        -6.7473746016356E+00  1.4252156013863E+00
     1  0.0000000000000E+00  6.9918970613259E-10 -9.3051643890174E-09
     2  1.0000000000000E-02  1.9590589427542E-03 -3.4431317044380E-03
     3  2.0000000000000E-02  7.8261463297572E-03 -1.3736640117700E-02
     4  3.0000000000000E-02  1.7571053141190E-02 -3.0773255071108E-02
     5  4.0000000000000E-02  3.1143628335098E-02 -5.4375487277557E-02
     6  5.0000000000000E-02  4.8474073590476E-02 -8.4297550873042E-02
     7  6.0000000000000E-02  6.9473353462985E-02 -1.2022801743857E-01
     8  7.0000000000000E-02  9.4033718474601E-02 -1.6179316480721E-01
     9  8.0000000000000E-02  1.2202933795925E-01 -2.0856097465584E-01
    10  9.0000000000000E-02  1.5331703879513E-01 -2.6004572442108E-01
    11  1.0000000000000E-01  1.8773714547356E-01 -3.1571311161579E-01
    12  1.1000000000000E-01  2.2511441628707E-01 -3.7498584227617E-01
    13  1.2000000000000E-01  2.6525906977051E-01 -4.3724961014301E-01
    14  1.3000000000000E-01  3.0796789490227E-01 -5.0185938934554E-01
    15  1.4000000000000E-01  3.5302543797329E-01 -5.6814596085546E-01
    16  1.5000000000000E-01  4.0020525846621E-01 -6.3542259182697E-01
    17  1.6000000000000E-01  4.4927124576004E-01 -7.0299178712152E-01
    18  1.7000000000000E-01  4.9997898799576E-01 -7.7015203379057E-01
    19  1.8000000000000E-01  5.5207718401037E-01 -8.3620446198580E-01
    20  1.9000000000000E-01  6.0530908887854E-01 -9.0045934958998E-01
    21  2.0000000000000E-01  6.5941398329939E-01 -9.6224240269967E-01
    22  2.1000000000000E-01  7.1412865683629E-01 -1.0209007498052E+00
    23  2.2000000000000E-01  7.6918889486712E-01 -1.0758085939601E+00
    24  2.3000000000000E-01  8.2433095903526E-01 -1.1263724742499E+00
    25  2.4000000000000E-01  8.7929305101331E-01 -1.1720360952929E+00
    26  2.5000000000000E-01  9.3381674950432E-01 -1.2122846911703E+00
    27  2.6000000000000E-01  9.8764841061214E-01 -1.2466488979200E+00
    28  2.7000000000000E-01  1.0405405220140E+00 -1.2747081163791E+00
    29  2.8000000000000E-01  1.0922530017638E+00 -1.2960933545841E+00
    30  2.9000000000000E-01  1.1425544330415E+00 -1.3104895459820E+00
    31  3.0000000000000E-01  1.1912232267403E+00 -1.3176373462750E+00
    32  3.1000000000000E-01  1.2380487044405E+00 -1.3173344176911E+00
    33  3.2000000000000E-01  1.2828320950537E+00 -1.3094362147836E+00
    34  3.3000000000000E-01  1.3253874392249E+00 -1.2938562904429E+00
    35  3.4000000000000E-01  1.3655423964366E+00 -1.2705661446268E+00
    36  3.5000000000000E-01  1.4031389506742E+00 -1.2395946413616E+00
    37  3.6000000000000E-01  1.4380340114472E+00 -1.2010270218498E+00
    38  3.7000000000000E-01  1.4700999079385E+00 -1.1550035430623E+00
    39  3.8000000000000E-01  1.4992247750234E+00 -1.1017177720489E+00
    40  3.9000000000000E-01  1.5253128308817E+00 -1.0414145664241E+00
    41  4.0000000000000E-01  1.5482845468830E+00 -9.7438777115771E-01
    42  4.1000000000000E-01  1.5680767113568E+00 -9.0097766100275E-01
    43  4.2000000000000E-01  1.5846423897488E+00 -8.2156815672341E-01
    44  4.3000000000000E-01  1.5979507845009E+00 -7.3658384183075E-01
    45  4.4000000000000E-01  1.6079869987682E+00 -6.4648680489992E-01
    46  4.5000000000000E-01  1.6147517087837E+00 -5.5177333081084E-01
    47  4.6000000000000E-01  1.6182607503072E+00 -4.5297046252100E-01
    48  4.7000000000000E-01  1.6185446251271E+00 -3.5063245331239E-01
    49  4.8000000000000E-01  1.6156479340298E+00 -2.4533712792888E-01
    50  4.9000000000000E-01  1.6096287430036E+00 -1.3768216968237E-01
    51  5.0000000000000E-01  1.6005578897028E+00 -2.8281349500654E-02
    52  5.1000000000000E-01  1.5885182373636E+00  8.2239287965128E-02
    53  5.2000000000000E-01  1.5736038834432E+00  1.9324526664356E-01
    54  5.3000000000000E-01  1.5559193302414E+00  3.0409753555950E-01
    55  5.4000000000000E-01  1.5355786246851E+00  4.1415632546225E-01
    56  5.5000000000000E-01  1.5127044742914E+00  5.2278499134881E-01
    57  5.6000000000000E-01  1.4874273461122E+00  6.2935382639014E-01
    58  5.7000000000000E-01  1.4598845551835E+00  7.3324383237513E-01
    59  5.8000000000000E-01  1.4302193486898E+00  8.3385043133767E-01
    60  5.9000000000000E-01  1.3985799916987E+00  9.3058710257943E-01
    61  6.0000000000000E-01  1.3651188599468E+00  1.0228889289098E+00
    62  6.1000000000000E-01  1.3299915447675E+00  1.1102160356445E+00
    63  6.2000000000000E-01  1.2933559748537E+00  1.1920569057891E+00
    64  6.3000000000000E-01  1.2553715591559E+00  1.2679315549252E+00
    65  6.4000000000000E-01  1.2161983548323E+00  1.3373945496419E+00
    66  6.5000000000000E-01  1.1759962637968E+00  1.4000378539422E+00
    67  6.6000000000000E-01  1.1349242610649E+00  1.4554934888952E+00
    68  6.7000000000000E-01  1.0931396577681E+00  1.5034359919069E+00
    69  6.8000000000000E-01  1.0507974014092E+00  1.5435846633068E+00
    70  6.9000000000000E-01  1.0080494156523E+00  1.5757055894666E+00
    71  7.0000000000000E-01  9.6504398168589E-01  1.5996134333260E+00
    72  7.1000000000000E-01  9.2192516296767E-01  1.6151729849299E+00
    73  7.2000000000000E-01  8.7883227493705E-01  1.6223004663186E+00
    74  7.3000000000000E-01  8.3589940107961E-01  1.6209645867609E+00
    75  7.4000000000000E-01  7.9325495652364E-01  1.6111873458045E+00
    76  7.5000000000000E-01  7.5102130014852E-01  1.5930445828445E+00
    77  7.6000000000000E-01  7.0931439597476E-01  1.5666662727876E+00
    78  7.7000000000000E-01  6.6824352438168E-01  1.5322365678432E+00
    79  7.8000000000000E-01  6.2791104345457E-01  1.4899935854189E+00
    80  7.9000000000000E-01  5.8841220049224E-01  1.4402289414791E+00
    81  8.0000000000000E-01  5.4983499340438E-01  1.3832870274930E+00
    82  8.1000000000000E-01  5.1226008139094E-01  1.3195640272184E+00
    83  8.2000000000000E-01  4.7576074392171E-01  1.2495066670327E+00
    84  8.3000000000000E-01  4.4040288662141E-01  1.1736106903388E+00
    85  8.4000000000000E-01  4.0624509221534E-01  1.0924190427802E+00
    86  8.5000000000000E-01  3.7333871420489E-01  1.0065197506418E+00
    87  8.6000000000000E-01  3.4172801042558E-01  9.1654346998475E-01
    88  8.7000000000000E-01  3.1145031309841E-01  8.2316067885021E-01
    89  8.8000000000000E-01  2.8253623142619E-01  7.2707847940320E-01
    90  8.9000000000000E-01  2.5500988221899E-01  6.2903697130278E-01
    91  9.0000000000000E-01  2.2888914346808E-01  5.2980515204108E-01
    92  9.1000000000000E-01  2.0418592523632E-01  4.3017629465313E-01
    93  9.2000000000000E-01  1.8090645170965E-01  3.3096274823737E-01
    94  9.3000000000000E-01  1.5905154776952E-01  2.3299010232216E-01
    95  9.4000000000000E-01  1.3861692301601E-01  1.3709065243885E-01
    96  9.5000000000000E-01  1.1959344580748E-01  4.4096101493720E-02
    97  9.6000000000000E-01  1.0196739959841E-01 -4.5170570179458E-02
    98  9.7000000000000E-01  8.5720713665016E-02 -1.2990413370591E-01
    99  9.8000000000000E-01  7.0831160218353E-02 -2.0932710628755E-01
   100  9.9000000000000E-01  5.7272509926829E-02 -2.8270077608834E-01