Lr    ONCVPSP-4.0.1  r_core=   1.10451   1.10451   1.10451   1.20099
103.0000     43.0000      220326    zatom,zion,pspd
8      11   3     4   600     0    pspcod,pspxc,lmax,lloc,mmax,r2well
5.99000000  4.12600000  0.00000000    rchrg fchrg qchrg
3     2     2     2     0    nproj
1     1           extension_switch
0                         1.9296354440531E+01 -7.7466134731082E+00 -2.5533048241731E-01
1  0.0000000000000E+00 -3.2671382044214E-08 -2.8159276022066E-09  7.6768577494946E-07
2  1.0000000000000E-02  1.9365570837219E-01  4.1127363013572E-02 -2.0212644955428E-01
3  2.0000000000000E-02  3.8554337725223E-01  8.2285494312321E-02 -3.9888798228106E-01
4  3.0000000000000E-02  5.7391638197833E-01  1.2350470486433E-01 -5.8508297229323E-01
5  4.0000000000000E-02  7.5707056408713E-01  1.6481437976809E-01 -7.5583072365826E-01
6  5.0000000000000E-02  9.3336456462418E-01  2.0624248802217E-01 -9.0671801791504E-01
7  6.0000000000000E-02  1.1012391022498E+00  2.4781506172340E-01 -1.0339295468558E+00
8  7.0000000000000E-02  1.2592348844608E+00  2.8955563803464E-01 -1.1343578112370E+00
9  8.0000000000000E-02  1.4060088729198E+00  3.3148466007856E-01 -1.2056888337688E+00
10  9.0000000000000E-02  1.5403486627205E+00  3.7361883618146E-01 -1.2464609360403E+00
11  1.0000000000000E-01  1.6611847791963E+00  4.1597046045747E-01 -1.2560948285955E+00
12  1.1000000000000E-01  1.7676007432362E+00  4.5854670142168E-01 -1.2348943221231E+00
13  1.2000000000000E-01  1.8588408055603E+00  5.0134886897574E-01 -1.1840180443953E+00
14  1.3000000000000E-01  1.9343153005395E+00  5.4437167354595E-01 -1.1054236004694E+00
15  1.4000000000000E-01  1.9936036194538E+00  5.8760249420382E-01 -1.0017866021846E+00
16  1.5000000000000E-01  2.0364548501738E+00  6.3102067510880E-01 -8.7639787940354E-01
17  1.6000000000000E-01  2.0627861738518E+00  6.7459687145139E-01 -7.3304293631528E-01
18  1.7000000000000E-01  2.0726791481991E+00  7.1829246713584E-01 -5.7586830359169E-01
19  1.8000000000000E-01  2.0663740403971E+00  7.6205908665306E-01 -4.0923984012935E-01
20  1.9000000000000E-01  2.0442623999542E+00  8.0583822291772E-01 -2.3759824286117E-01
21  2.0000000000000E-01  2.0068780824293E+00  8.4956100127658E-01 -6.5317023982456E-02
22  2.1000000000000E-01  1.9548869487066E+00  8.9314809747454E-01  1.0343198563659E-01
23  2.2000000000000E-01  1.8890754714867E+00  9.3650982416110E-01  2.6480093968803E-01
24  2.3000000000000E-01  1.8103384811460E+00  9.7954639663657E-01  4.1537198394184E-01
25  2.4000000000000E-01  1.7196662776272E+00  1.0221483841084E+00  5.5224357910573E-01
26  2.5000000000000E-01  1.6181313242596E+00  1.0641973479077E+00  6.7309458202575E-01
27  2.6000000000000E-01  1.5068747242131E+00  1.1055666630770E+00  7.7622444420142E-01
28  2.7000000000000E-01  1.3870926616443E+00  1.1461225146694E+00  8.6056884918569E-01
29  2.8000000000000E-01  1.2600229685028E+00  1.1857250551724E+00  9.2569108095392E-01
30  2.9000000000000E-01  1.1269319555062E+00  1.2242297048784E+00  9.7175035518392E-01
31  3.0000000000000E-01  9.8910162297061E-01  1.2614885729280E+00  9.9944921783951E-01
32  3.1000000000000E-01  8.4781734497379E-01  1.2973519733024E+00  1.0099628868894E+00
33  3.2000000000000E-01  7.0435609958226E-01  1.3316700073630E+00  1.0048540544172E+00
34  3.3000000000000E-01  5.5997529931471E-01  1.3642941827256E+00  9.8597715432396E-01
35  3.4000000000000E-01  4.1590226020384E-01  1.3950790373706E+00  9.5537641837604E-01
36  3.5000000000000E-01  2.7332433513682E-01  1.4238837379551E+00  9.1518218067489E-01
37  3.6000000000000E-01  1.3337972779963E-01  1.4505736223077E+00  8.6750984518338E-01
38  3.7000000000000E-01 -2.8510024737910E-03  1.4750216579886E+00  8.1436570771644E-01
39  3.8000000000000E-01 -1.3435273750864E-01  1.4971097915247E+00  7.5756343460834E-01
40  3.9000000000000E-01 -2.6018289135151E-01  1.5167301663622E+00  6.9865446366878E-01
41  4.0000000000000E-01 -3.7947778587323E-01  1.5337861915860E+00  6.3887493294314E-01
42  4.1000000000000E-01 -4.9145829712311E-01  1.5481934478874E+00  5.7911098795712E-01
43  4.2000000000000E-01 -5.9543475347381E-01  1.5598804219431E+00  5.1988350045898E-01
44  4.3000000000000E-01 -6.9081106103831E-01  1.5687890651357E+00  4.6135238524670E-01
45  4.4000000000000E-01 -7.7708802661234E-01  1.5748751772179E+00  4.0333986114372E-01
46  4.5000000000000E-01 -8.5386584418182E-01  1.5781086199386E+00  3.4537120141139E-01
47  4.6000000000000E-01 -9.2084570845839E-01  1.5784733696566E+00  2.8673078970238E-01
48  4.7000000000000E-01 -9.7783051849199E-01  1.5759674214301E+00  2.2653066846708E-01
49  4.8000000000000E-01 -1.0247246365660E+00  1.5706025598848E+00  1.6378826156780E-01
50  4.9000000000000E-01 -1.0615326725707E+00  1.5624040142456E+00  9.7509590416086E-02
51  5.0000000000000E-01 -1.0883572719909E+00  1.5514100162221E+00  2.6774096021981E-02
52  5.1000000000000E-01 -1.1053958964865E+00  1.5376712799428E+00 -4.9182865773436E-02
53  5.2000000000000E-01 -1.1129365995833E+00  1.5212504228585E+00 -1.3089367199270E-01
54  5.3000000000000E-01 -1.1113528158846E+00  1.5022213455243E+00 -2.1859176752003E-01
55  5.4000000000000E-01 -1.1010971999613E+00  1.4806685865000E+00 -3.1215781751020E-01
56  5.5000000000000E-01 -1.0826945701003E+00  1.4566866663732E+00 -4.1108126856535E-01
57  5.6000000000000E-01 -1.0567340316901E+00  1.4303794322371E+00 -5.1443926951314E-01
58  5.7000000000000E-01 -1.0238603744733E+00  1.4018594109751E+00 -6.2089418670251E-01
59  5.8000000000000E-01 -9.8476485642747E-01  1.3712471765632E+00 -7.2871018640909E-01
60  5.9000000000000E-01 -9.4017550390297E-01  1.3386707334451E+00 -8.3578857856628E-01
61  6.0000000000000E-01 -8.9084707213551E-01  1.3042649150145E+00 -9.3972085225036E-01
62  6.1000000000000E-01 -8.3755082172673E-01  1.2681707934839E+00 -1.0378576137499E+00
63  6.2000000000000E-01 -7.8106427461105E-01  1.2305350950588E+00 -1.1273909901709E+00
64  6.3000000000000E-01 -7.2216111698713E-01  1.1915096124686E+00 -1.2054475097673E+00
65  6.4000000000000E-01 -6.6160141641521E-01  1.1512506056213E+00 -1.2691880349441E+00
66  6.5000000000000E-01 -6.0012231564731E-01  1.1099181804910E+00 -1.3159110208382E+00
67  6.6000000000000E-01 -5.3842935680470E-01  1.0676756363619E+00 -1.3431552120030E+00
68  6.7000000000000E-01 -4.7718857644055E-01  1.0246887722221E+00 -1.3487978769588E+00
69  6.8000000000000E-01 -4.1701949517247E-01  9.8112514441147E-01 -1.3311448145541E+00
70  6.9000000000000E-01 -3.5848910542136E-01  9.3715326952396E-01 -1.2890086410436E+00
71  7.0000000000000E-01 -3.0210693794740E-01  8.9294176895901E-01 -1.2217722713098E+00
72  7.1000000000000E-01 -2.4832126302929E-01  8.4865845432820E-01 -1.1294350257140E+00
73  7.2000000000000E-01 -1.9751645604624E-01  8.0446935602108E-01 -1.0126394059143E+00
74  7.3000000000000E-01 -1.5001153069865E-01  7.6053770050196E-01 -8.7267726552948E-01
75  7.4000000000000E-01 -1.0605981695035E-01  7.1702284520963E-01 -7.1147482954889E-01
76  7.5000000000000E-01 -6.5849735780941E-02  6.7407918313036E-01 -5.3155676339584E-01
77  7.6000000000000E-01 -2.9506599742038E-02  6.3185503207869E-01 -3.3599023164414E-01
78  7.7000000000000E-01  2.9046522213810E-03  5.9049152632679E-01 -1.2831059144784E-01
79  7.8000000000000E-01  3.1375894629536E-02  5.5012153036035E-01  8.7568987790969E-02
80  7.9000000000000E-01  5.5951552778301E-02  5.1086859611177E-01  3.0746112139004E-01
81  8.0000000000000E-01  7.6723770203968E-02  4.7284598595570E-01  5.2701770012985E-01
82  8.1000000000000E-01  9.3827144852211E-02  4.3615578399327E-01  7.4184960148031E-01
83  8.2000000000000E-01  1.0743317422427E-01  4.0088811767186E-01  9.4764872409738E-01
84  8.3000000000000E-01  1.1774454745988E-01  3.6712051058021E-01  1.1403083579167E+00
85  8.4000000000000E-01  1.2498941618874E-01  3.3491738534396E-01  1.3160379474757E+00
86  8.5000000000000E-01  1.2941576637233E-01  3.0432973296550E-01  1.4714684851514E+00
87  8.6000000000000E-01  1.3128600069770E-01  2.7539496176661E-01  1.6037450774936E+00
88  8.7000000000000E-01  1.3087182588444E-01  2.4813693538556E-01  1.7106036515656E+00
89  8.8000000000000E-01  1.2844952209021E-01  2.2256620514628E-01  1.7904292955687E+00
90  8.9000000000000E-01  1.2429565304832E-01  1.9868043766784E-01  1.8422943424707E+00
91  9.0000000000000E-01  1.1868325624902E-01  1.7646503393172E-01  1.8659749881673E+00
92  9.1000000000000E-01  1.1187853298205E-01  1.5589393129649E-01  1.8619459664025E+00
93  9.2000000000000E-01  1.0413803894974E-01  1.3693057526448E-01  1.8313535601212E+00
94  9.3000000000000E-01  9.5706357950903E-02  1.1952904328384E-01  1.7759679914727E+00
95  9.4000000000000E-01  8.6814224268735E-02  1.0363529862370E-01  1.6981169792794E+00
96  9.5000000000000E-01  7.7677044237963E-02  8.9188548494251E-02  1.6006029633564E+00
97  9.6000000000000E-01  6.8493754300694E-02  7.6122677188769E-02  1.4866071510589E+00
98  9.7000000000000E-01  5.9445941884470E-02  6.4367722179723E-02  1.3595841261577E+00
99  9.8000000000000E-01  5.0697146753747E-02  5.3851358866781E-02  1.2231512597545E+00
100  9.9000000000000E-01  4.2392254132748E-02  4.4500358099757E-02  1.0809775654576E+00
101  1.0000000000000E+00  3.4656886820210E-02  3.6241979711999E-02  9.3667693802042E-01
102  1.0100000000000E+00  2.7596701607084E-02  2.9005265112975E-02  7.9371090014807E-01
103  1.0200000000000E+00  2.1296495402901E-02  2.2722192500215E-02  6.5530605337908E-01
104  1.0300000000000E+00  1.5819039121165E-02  1.7328663241661E-02  5.2439120541370E-01
105  1.0400000000000E+00  1.1203461690290E-02  1.2765255093143E-02  4.0356064928393E-01
106  1.0500000000000E+00  7.4624474589618E-03  8.9775035907425E-03  2.9507895143257E-01
107  1.0600000000000E+00  4.5433104694033E-03  5.9023516028054E-03  2.0152935487812E-01
108  1.0700000000000E+00  2.4108819958707E-03  3.4971729069620E-03  1.2444994872457E-01
109  1.0800000000000E+00  1.0243880594825E-03  1.7378359390947E-03  6.4692653613620E-02
110  1.0900000000000E+00  2.8121641232070E-04  5.9978294518565E-04  2.3457243458532E-02
111  1.1000000000000E+00  1.9737644427575E-05  6.0864179285081E-05  2.5143692249069E-03
112  1.1100000000000E+00 -4.7978956404148E-07 -2.1616999343994E-06 -9.2814476509882E-05
113  1.1200000000000E+00 -1.0315228038693E-07 -2.9006586574614E-07 -1.1863698443100E-05
114  1.13 -0. -0.  0.
115  1.14  0.  0.  0.
116  1.15  0.  0.  0.
117  1.16  0.  0.  0.
118  1.17  0.  0.  0.
119  1.18  0.  0.  0.
120  1.19  0.  0.  0.
121  1.20  0.  0.  0.
122  1.21  0.  0.  0.
123  1.22  0.  0.  0.
124  1.23  0.  0.  0.
125  1.24  0.  0.  0.
126  1.25  0.  0.  0.
127  1.26  0.  0.  0.
128  1.27  0.  0.  0.
129  1.28  0.  0.  0.
130  1.29  0.  0.  0.
131  1.30  0.  0.  0.
132  1.31  0.  0.  0.
133  1.32  0.  0.  0.
134  1.33  0.  0.  0.
135  1.34  0.  0.  0.
136  1.35  0.  0.  0.
137  1.36  0.  0.  0.
138  1.37  0.  0.  0.
139  1.38  0.  0.  0.
140  1.39  0.  0.  0.
141  1.40  0.  0.  0.
142  1.41  0.  0.  0.
143  1.42  0.  0.  0.
144  1.43  0.  0.  0.
145  1.44  0.  0.  0.
146  1.45  0.  0.  0.
147  1.46  0.  0.  0.
148  1.47  0.  0.  0.
149  1.48  0.  0.  0.
150  1.49  0.  0.  0.
151  1.50  0.  0.  0.
152  1.51  0.  0.  0.
153  1.52  0.  0.  0.
154  1.53  0.  0.  0.
155  1.54  0.  0.  0.
156  1.55  0.  0.  0.
157  1.56  0.  0.  0.
158  1.57  0.  0.  0.
159  1.58  0.  0.  0.
160  1.59  0.  0.  0.
161  1.60  0.  0.  0.
162  1.61  0.  0.  0.
163  1.62  0.  0.  0.
164  1.63  0.  0.  0.
165  1.64  0.  0.  0.
166  1.65  0.  0.  0.
167  1.66  0.  0.  0.
168  1.67  0.  0.  0.
169  1.68  0.  0.  0.
170  1.69  0.  0.  0.
171  1.70  0.  0.  0.
172  1.71  0.  0.  0.
173  1.72  0.  0.  0.
174  1.73  0.  0.  0.
175  1.74  0.  0.  0.
176  1.75  0.  0.  0.
177  1.76  0.  0.  0.
178  1.77  0.  0.  0.
179  1.78  0.  0.  0.
180  1.79  0.  0.  0.
181  1.80  0.  0.  0.
182  1.81  0.  0.  0.
183  1.82  0.  0.  0.
184  1.83  0.  0.  0.
185  1.84  0.  0.  0.
186  1.85  0.  0.  0.
187  1.86  0.  0.  0.
188  1.87  0.  0.  0.
189  1.88  0.  0.  0.
190  1.89  0.  0.  0.
191  1.90  0.  0.  0.
192  1.91  0.  0.  0.
193  1.92  0.  0.  0.
194  1.93  0.  0.  0.
195  1.94  0.  0.  0.
196  1.95  0.  0.  0.
197  1.96  0.  0.  0.
198  1.97  0.  0.  0.
199  1.98  0.  0.  0.
200  1.99  0.  0.  0.
201  2.00  0.  0.  0.
202  2.01  0.  0.  0.
203  2.02  0.  0.  0.
204  2.03  0.  0.  0.
205  2.04  0.  0.  0.
206  2.05  0.  0.  0.
207  2.06  0.  0.  0.
208  2.07  0.  0.  0.
209  2.08  0.  0.  0.
210  2.09  0.  0.  0.
211  2.10  0.  0.  0.
212  2.11  0.  0.  0.
213  2.12  0.  0.  0.
214  2.13  0.  0.  0.
215  2.14  0.  0.  0.
216  2.15  0.  0.  0.
217  2.16  0.  0.  0.
218  2.17  0.  0.  0.
219  2.18  0.  0.  0.
220  2.19  0.  0.  0.
221  2.20  0.  0.  0.
222  2.21  0.  0.  0.
223  2.22  0.  0.  0.
224  2.23  0.  0.  0.
225  2.24  0.  0.  0.
226  2.25  0.  0.  0.
227  2.26  0.  0.  0.
228  2.27  0.  0.  0.
229  2.28  0.  0.  0.
230  2.29  0.  0.  0.
231  2.30  0.  0.  0.
232  2.31  0.  0.  0.
233  2.32  0.  0.  0.
234  2.33  0.  0.  0.
235  2.34  0.  0.  0.
236  2.35  0.  0.  0.
237  2.36  0.  0.  0.
238  2.37  0.  0.  0.
239  2.38  0.  0.  0.
240  2.39  0.  0.  0.
241  2.40  0.  0.  0.
242  2.41  0.  0.  0.
243  2.42  0.  0.  0.
244  2.43  0.  0.  0.
245  2.44  0.  0.  0.
246  2.45  0.  0.  0.
247  2.46  0.  0.  0.
248  2.47  0.  0.  0.
249  2.48  0.  0.  0.
250  2.49  0.  0.  0.
251  2.50  0.  0.  0.
252  2.51  0.  0.  0.
253  2.52  0.  0.  0.
254  2.53  0.  0.  0.
255  2.54  0.  0.  0.
256  2.55  0.  0.  0.
257  2.56  0.  0.  0.
258  2.57  0.  0.  0.
259  2.58  0.  0.  0.
260  2.59  0.  0.  0.
261  2.60  0.  0.  0.
262  2.61  0.  0.  0.
263  2.62  0.  0.  0.
264  2.63  0.  0.  0.
265  2.64  0.  0.  0.
266  2.65  0.  0.  0.
267  2.66  0.  0.  0.
268  2.67  0.  0.  0.
269  2.68  0.  0.  0.
270  2.69  0.  0.  0.
271  2.70  0.  0.  0.
272  2.71  0.  0.  0.
273  2.72  0.  0.  0.
274  2.73  0.  0.  0.
275  2.74  0.  0.  0.
276  2.75  0.  0.  0.
277  2.76  0.  0.  0.
278  2.77  0.  0.  0.
279  2.78  0.  0.  0.
280  2.79  0.  0.  0.
281  2.80  0.  0.  0.
282  2.81  0.  0.  0.
283  2.82  0.  0.  0.
284  2.83  0.  0.  0.
285  2.84  0.  0.  0.
286  2.85  0.  0.  0.
287  2.86  0.  0.  0.
288  2.87  0.  0.  0.
289  2.88  0.  0.  0.
290  2.89  0.  0.  0.
291  2.90  0.  0.  0.
292  2.91  0.  0.  0.
293  2.92  0.  0.  0.
294  2.93  0.  0.  0.
295  2.94  0.  0.  0.
296  2.95  0.  0.  0.
297  2.96  0.  0.  0.
298  2.97  0.  0.  0.
299  2.98  0.  0.  0.
300  2.99  0.  0.  0.
301  3.00  0.  0.  0.
302  3.01  0.  0.  0.
303  3.02  0.  0.  0.
304  3.03  0.  0.  0.
305  3.04  0.  0.  0.
306  3.05  0.  0.  0.
307  3.06  0.  0.  0.
308  3.07  0.  0.  0.
309  3.08  0.  0.  0.
310  3.09  0.  0.  0.
311  3.10  0.  0.  0.
312  3.11  0.  0.  0.
313  3.12  0.  0.  0.
314  3.13  0.  0.  0.
315  3.14  0.  0.  0.
316  3.15  0.  0.  0.
317  3.16  0.  0.  0.
318  3.17  0.  0.  0.
319  3.18  0.  0.  0.
320  3.19  0.  0.  0.
321  3.20  0.  0.  0.
322  3.21  0.  0.  0.
323  3.22  0.  0.  0.
324  3.23  0.  0.  0.
325  3.24  0.  0.  0.
326  3.25  0.  0.  0.
327  3.26  0.  0.  0.
328  3.27  0.  0.  0.
329  3.28  0.  0.  0.
330  3.29  0.  0.  0.
331  3.30  0.  0.  0.
332  3.31  0.  0.  0.
333  3.32  0.  0.  0.
334  3.33  0.  0.  0.
335  3.34  0.  0.  0.
336  3.35  0.  0.  0.
337  3.36  0.  0.  0.
338  3.37  0.  0.  0.
339  3.38  0.  0.  0.
340  3.39  0.  0.  0.
341  3.40  0.  0.  0.
342  3.41  0.  0.  0.
343  3.42  0.  0.  0.
344  3.43  0.  0.  0.
345  3.44  0.  0.  0.
346  3.45  0.  0.  0.
347  3.46  0.  0.  0.
348  3.47  0.  0.  0.
349  3.48  0.  0.  0.
350  3.49  0.  0.  0.
351  3.50  0.  0.  0.
352  3.51  0.  0.  0.
353  3.52  0.  0.  0.
354  3.53  0.  0.  0.
355  3.54  0.  0.  0.
356  3.55  0.  0.  0.
357  3.56  0.  0.  0.
358  3.57  0.  0.  0.
359  3.58  0.  0.  0.
360  3.59  0.  0.  0.
361  3.60  0.  0.  0.
362  3.61  0.  0.  0.
363  3.62  0.  0.  0.
364  3.63  0.  0.  0.
365  3.64  0.  0.  0.
366  3.65  0.  0.  0.
367  3.66  0.  0.  0.
368  3.67  0.  0.  0.
369  3.68  0.  0.  0.
370  3.69  0.  0.  0.
371  3.70  0.  0.  0.
372  3.71  0.  0.  0.
373  3.72  0.  0.  0.
374  3.73  0.  0.  0.
375  3.74  0.  0.  0.
376  3.75  0.  0.  0.
377  3.76  0.  0.  0.
378  3.77  0.  0.  0.
379  3.78  0.  0.  0.
380  3.79  0.  0.  0.
381  3.80  0.  0.  0.
382  3.81  0.  0.  0.
383  3.82  0.  0.  0.
384  3.83  0.  0.  0.
385  3.84  0.  0.  0.
386  3.85  0.  0.  0.
387  3.86  0.  0.  0.
388  3.87  0.  0.  0.
389  3.88  0.  0.  0.
390  3.89  0.  0.  0.
391  3.90  0.  0.  0.
392  3.91  0.  0.  0.
393  3.92  0.  0.  0.
394  3.93  0.  0.  0.
395  3.94  0.  0.  0.
396  3.95  0.  0.  0.
397  3.96  0.  0.  0.
398  3.97  0.  0.  0.
399  3.98  0.  0.  0.
400  3.99  0.  0.  0.
401  4.00  0.  0.  0.
402  4.01  0.  0.  0.
403  4.02  0.  0.  0.
404  4.03  0.  0.  0.
405  4.04  0.  0.  0.
406  4.05  0.  0.  0.
407  4.06  0.  0.  0.
408  4.07  0.  0.  0.
409  4.08  0.  0.  0.
410  4.09  0.  0.  0.
411  4.10  0.  0.  0.
412  4.11  0.  0.  0.
413  4.12  0.  0.  0.
414  4.13  0.  0.  0.
415  4.14  0.  0.  0.
416  4.15  0.  0.  0.
417  4.16  0.  0.  0.
418  4.17  0.  0.  0.
419  4.18  0.  0.  0.
420  4.19  0.  0.  0.
421  4.20  0.  0.  0.
422  4.21  0.  0.  0.
423  4.22  0.  0.  0.
424  4.23  0.  0.  0.
425  4.24  0.  0.  0.
426  4.25  0.  0.  0.
427  4.26  0.  0.  0.
428  4.27  0.  0.  0.
429  4.28  0.  0.  0.
430  4.29  0.  0.  0.
431  4.30  0.  0.  0.
432  4.31  0.  0.  0.
433  4.32  0.  0.  0.
434  4.33  0.  0.  0.
435  4.34  0.  0.  0.
436  4.35  0.  0.  0.
437  4.36  0.  0.  0.
438  4.37  0.  0.  0.
439  4.38  0.  0.  0.
440  4.39  0.  0.  0.
441  4.40  0.  0.  0.
442  4.41  0.  0.  0.
443  4.42  0.  0.  0.
444  4.43  0.  0.  0.
445  4.44  0.  0.  0.
446  4.45  0.  0.  0.
447  4.46  0.  0.  0.
448  4.47  0.  0.  0.
449  4.48  0.  0.  0.
450  4.49  0.  0.  0.
451  4.50  0.  0.  0.
452  4.51  0.  0.  0.
453  4.52  0.  0.  0.
454  4.53  0.  0.  0.
455  4.54  0.  0.  0.
456  4.55  0.  0.  0.
457  4.56  0.  0.  0.
458  4.57  0.  0.  0.
459  4.58  0.  0.  0.
460  4.59  0.  0.  0.
461  4.60  0.  0.  0.
462  4.61  0.  0.  0.
463  4.62  0.  0.  0.
464  4.63  0.  0.  0.
465  4.64  0.  0.  0.
466  4.65  0.  0.  0.
467  4.66  0.  0.  0.
468  4.67  0.  0.  0.
469  4.68  0.  0.  0.
470  4.69  0.  0.  0.
471  4.70  0.  0.  0.
472  4.71  0.  0.  0.
473  4.72  0.  0.  0.
474  4.73  0.  0.  0.
475  4.74  0.  0.  0.
476  4.75  0.  0.  0.
477  4.76  0.  0.  0.
478  4.77  0.  0.  0.
479  4.78  0.  0.  0.
480  4.79  0.  0.  0.
481  4.80  0.  0.  0.
482  4.81  0.  0.  0.
483  4.82  0.  0.  0.
484  4.83  0.  0.  0.
485  4.84  0.  0.  0.
486  4.85  0.  0.  0.
487  4.86  0.  0.  0.
488  4.87  0.  0.  0.
489  4.88  0.  0.  0.
490  4.89  0.  0.  0.
491  4.90  0.  0.  0.
492  4.91  0.  0.  0.
493  4.92  0.  0.  0.
494  4.93  0.  0.  0.
495  4.94  0.  0.  0.
496  4.95  0.  0.  0.
497  4.96  0.  0.  0.
498  4.97  0.  0.  0.
499  4.98  0.  0.  0.
500  4.99  0.  0.  0.
501  5.00  0.  0.  0.
502  5.01  0.  0.  0.
503  5.02  0.  0.  0.
504  5.03  0.  0.  0.
505  5.04  0.  0.  0.
506  5.05  0.  0.  0.
507  5.06  0.  0.  0.
508  5.07  0.  0.  0.
509  5.08  0.  0.  0.
510  5.09  0.  0.  0.
511  5.10  0.  0.  0.
512  5.11  0.  0.  0.
513  5.12  0.  0.  0.
514  5.13  0.  0.  0.
515  5.14  0.  0.  0.
516  5.15  0.  0.  0.
517  5.16  0.  0.  0.
518  5.17  0.  0.  0.
519  5.18  0.  0.  0.
520  5.19  0.  0.  0.
521  5.20  0.  0.  0.
522  5.21  0.  0.  0.
523  5.22  0.  0.  0.
524  5.23  0.  0.  0.
525  5.24  0.  0.  0.
526  5.25  0.  0.  0.
527  5.26  0.  0.  0.
528  5.27  0.  0.  0.
529  5.28  0.  0.  0.
530  5.29  0.  0.  0.
531  5.30  0.  0.  0.
532  5.31  0.  0.  0.
533  5.32  0.  0.  0.
534  5.33  0.  0.  0.
535  5.34  0.  0.  0.
536  5.35  0.  0.  0.
537  5.36  0.  0.  0.
538  5.37  0.  0.  0.
539  5.38  0.  0.  0.
540  5.39  0.  0.  0.
541  5.40  0.  0.  0.
542  5.41  0.  0.  0.
543  5.42  0.  0.  0.
544  5.43  0.  0.  0.
545  5.44  0.  0.  0.
546  5.45  0.  0.  0.
547  5.46  0.  0.  0.
548  5.47  0.  0.  0.
549  5.48  0.  0.  0.
550  5.49  0.  0.  0.
551  5.50  0.  0.  0.
552  5.51  0.  0.  0.
553  5.52  0.  0.  0.
554  5.53  0.  0.  0.
555  5.54  0.  0.  0.
556  5.55  0.  0.  0.
557  5.56  0.  0.  0.
558  5.57  0.  0.  0.
559  5.58  0.  0.  0.
560  5.59  0.  0.  0.
561  5.60  0.  0.  0.
562  5.61  0.  0.  0.
563  5.62  0.  0.  0.
564  5.63  0.  0.  0.
565  5.64  0.  0.  0.
566  5.65  0.  0.  0.
567  5.66  0.  0.  0.
568  5.67  0.  0.  0.
569  5.68  0.  0.  0.
570  5.69  0.  0.  0.
571  5.70  0.  0.  0.
572  5.71  0.  0.  0.
573  5.72  0.  0.  0.
574  5.73  0.  0.  0.
575  5.74  0.  0.  0.
576  5.75  0.  0.  0.
577  5.76  0.  0.  0.
578  5.77  0.  0.  0.
579  5.78  0.  0.  0.
580  5.79  0.  0.  0.
581  5.80  0.  0.  0.
582  5.81  0.  0.  0.
583  5.82  0.  0.  0.
584  5.83  0.  0.  0.
585  5.84  0.  0.  0.
586  5.85  0.  0.  0.
587  5.86  0.  0.  0.
588  5.87  0.  0.  0.
589  5.88  0.  0.  0.
590  5.89  0.  0.  0.
591  5.90  0.  0.  0.
592  5.91  0.  0.  0.
593  5.92  0.  0.  0.
594  5.93  0.  0.  0.
595  5.94  0.  0.  0.
596  5.95  0.  0.  0.
597  5.96  0.  0.  0.
598  5.97  0.  0.  0.
599  5.98  0.  0.  0.
600  5.99  0.  0.  0.
1                         1.3823221049680E+01 -6.6906165962435E+00
1  0.0000000000000E+00 -8.5552208706208E-08  7.8936320535572E-09
2  1.0000000000000E-02  5.2123038326209E-03  1.6035147576152E-03
3  2.0000000000000E-02  2.0810845630870E-02  6.4063983074716E-03
4  3.0000000000000E-02  4.6679676336818E-02  1.4385804483921E-02
5  4.0000000000000E-02  8.2622815823412E-02  2.5504103638545E-02
6  5.0000000000000E-02  1.2836039057268E-01  3.9709532684403E-02
7  6.0000000000000E-02  1.8352368493655E-01  5.6937064351919E-02
8  7.0000000000000E-02  2.4764953718050E-01  7.7109457112101E-02
9  8.0000000000000E-02  3.2017459706265E-01  1.0013843932920E-01
10  9.0000000000000E-02  4.0043002135010E-01  1.2592597545894E-01
11  1.0000000000000E-01  4.8763721412692E-01  1.5436555878588E-01
12  1.1000000000000E-01  5.8090521802519E-01  1.8534347446115E-01
13  1.2000000000000E-01  6.7923033003391E-01  2.1873997851308E-01
14  1.3000000000000E-01  7.8149845217351E-01  2.5443034299152E-01
15  1.4000000000000E-01  8.8649059533833E-01  2.9228572429181E-01
16  1.5000000000000E-01  9.9289183759747E-01  3.3217382069625E-01
17  1.6000000000000E-01  1.0993039009722E+00  3.7395929588419E-01
18  1.7000000000000E-01  1.2042613589146E+00  4.1750395713141E-01
19  1.8000000000000E-01  1.3062513268705E+00  4.6266668961920E-01
20  1.9000000000000E-01  1.4037363273455E+00  5.0930316114077E-01
21  2.0000000000000E-01  1.4951798659091E+00  5.5726532395129E-01
22  2.1000000000000E-01  1.5790741125001E+00  6.0640075199167E-01
23  2.2000000000000E-01  1.6539689597645E+00  6.5655186169839E-01
24  2.3000000000000E-01  1.7185016327274E+00  7.0755507262060E-01
25  2.4000000000000E-01  1.7714259566827E+00  7.5923996971296E-01
26  2.5000000000000E-01  1.8116403563834E+00  8.1142853216545E-01
27  2.6000000000000E-01  1.8382136616648E+00  8.6393449378773E-01
28  2.7000000000000E-01  1.8504078333189E+00  9.1656289722458E-01
29  2.8000000000000E-01  1.8476967976047E+00  9.6910989869997E-01
30  2.9000000000000E-01  1.8297806859796E+00  1.0213628717558E+00
31  3.0000000000000E-01  1.7965949147941E+00  1.0731008478640E+00
32  3.1000000000000E-01  1.7483137028422E+00  1.1240953192507E+00
33  3.2000000000000E-01  1.6853478067388E+00  1.1741114152701E+00
34  3.3000000000000E-01  1.6083364481859E+00  1.2229094487576E+00
35  3.4000000000000E-01  1.5181336057921E+00  1.2702468135919E+00
36  3.5000000000000E-01  1.4157890394460E+00  1.3158801998113E+00
37  3.6000000000000E-01  1.3025245995701E+00  1.3595680787034E+00
38  3.7000000000000E-01  1.1797065395132E+00  1.4010733978863E+00
39  3.8000000000000E-01  1.0488146901429E+00  1.4401664160764E+00
40  3.9000000000000E-01  9.1140946558452E-01  1.4766275994366E+00
41  4.0000000000000E-01  7.6909774340776E-01  1.5102504964812E+00
42  4.1000000000000E-01  6.2349869815295E-01  1.5408445067267E+00
43  4.2000000000000E-01  4.7621066220359E-01  1.5682374597381E+00
44  4.3000000000000E-01  3.2878004254397E-01  1.5922779259166E+00
45  4.4000000000000E-01  1.8267323740066E-01  1.6128371881695E+00
46  4.5000000000000E-01  3.9252376241564E-02  1.6298108142159E+00
47  4.6000000000000E-01 -1.0024444535117E-01  1.6431197823376E+00
48  4.7000000000000E-01 -2.3471794196810E-01  1.6527111283788E+00
49  4.8000000000000E-01 -3.6321712808079E-01  1.6585580981675E+00
50  4.9000000000000E-01 -4.8494343062827E-01  1.6606598066274E+00
51  5.0000000000000E-01 -5.9924954388650E-01  1.6590404220022E+00
52  5.1000000000000E-01 -7.0563335034585E-01  1.6537479101456E+00
53  5.2000000000000E-01 -8.0372742178532E-01  1.6448523890572E+00
54  5.3000000000000E-01 -8.9328478360978E-01  1.6324441571648E+00
55  5.4000000000000E-01 -9.7416176587766E-01  1.6166314696975E+00
56  5.5000000000000E-01 -1.0462988704565E+00  1.5975381454174E+00
57  5.6000000000000E-01 -1.1097006508971E+00  1.5753010906235E+00
58  5.7000000000000E-01 -1.1644156269400E+00  1.5500678285032E+00
59  5.8000000000000E-01 -1.2105172377488E+00  1.5219941194964E+00
60  5.9000000000000E-01 -1.2480867774211E+00  1.4912417524316E+00
61  6.0000000000000E-01 -1.2771991552189E+00  1.4579765769880E+00
62  6.1000000000000E-01 -1.2979121851113E+00  1.4223668358883E+00
63  6.2000000000000E-01 -1.3102599399883E+00  1.3845818406031E+00
64  6.3000000000000E-01 -1.3142505120031E+00  1.3447910178170E+00
65  6.4000000000000E-01 -1.3098683097064E+00  1.3031633361473E+00
66  6.5000000000000E-01 -1.2970808035526E+00  1.2598671043348E+00
67  6.6000000000000E-01 -1.2758494130284E+00  1.2150701141012E+00
68  6.7000000000000E-01 -1.2461440202360E+00  1.1689400838534E+00
69  6.8000000000000E-01 -1.2079604051549E+00  1.1216453441441E+00
70  6.9000000000000E-01 -1.1613397353038E+00  1.0733556929445E+00
71  7.0000000000000E-01 -1.1063891144359E+00  1.0242433389439E+00
72  7.1000000000000E-01 -1.0433021073170E+00  9.7448384473688E-01
73  7.2000000000000E-01 -9.7237811506972E-01  9.2425697924815E-01
74  7.3000000000000E-01 -8.9403948083709E-01  8.7374739026748E-01
75  7.4000000000000E-01 -8.0884525953471E-01  8.2314501356862E-01
76  7.5000000000000E-01 -7.1750068720424E-01  7.7264514463974E-01
77  7.6000000000000E-01 -6.2086153196533E-01  7.2244811226723E-01
78  7.7000000000000E-01 -5.1993269493903E-01  6.7275850964639E-01
79  7.8000000000000E-01 -4.1586064923933E-01  6.2378395775541E-01
80  7.9000000000000E-01 -3.0991955011696E-01  5.7573339671094E-01
81  8.0000000000000E-01 -2.0349111035196E-01  5.2881492292184E-01
82  8.1000000000000E-01 -9.8038601896218E-02  4.8323321219629E-01
83  8.2000000000000E-01  4.9243930609072E-03  4.3918659062905E-01
84  8.3000000000000E-01  1.0386961166356E-01  3.9686383519178E-01
85  8.4000000000000E-01  1.9729302967775E-01  3.5644080359660E-01
86  8.5000000000000E-01  2.8375579397554E-01  3.1807700739944E-01
87  8.6000000000000E-01  3.6192574993815E-01  2.8191225275714E-01
88  8.7000000000000E-01  4.3061805455413E-01  2.4806347918617E-01
89  8.8000000000000E-01  4.8883333100869E-01  2.1662192768506E-01
90  8.9000000000000E-01  5.3579184465208E-01  1.8765076545261E-01
91  9.0000000000000E-01  5.7096226430419E-01  1.6118328512369E-01
92  9.1000000000000E-01  5.9408371546320E-01  1.3722178212246E-01
93  9.2000000000000E-01  6.0518002947718E-01  1.1573719475817E-01
94  9.3000000000000E-01  6.0456533915497E-01  9.6669568615877E-02
95  9.4000000000000E-01  5.9284045872456E-01  7.9929380346476E-02
96  9.5000000000000E-01  5.7087980477576E-01  6.5399727010260E-02
97  9.6000000000000E-01  5.3980895376321E-01  5.2939356665017E-02
98  9.7000000000000E-01  5.0097327849438E-01  4.2386485001534E-02
99  9.8000000000000E-01  4.5589844829864E-01  3.3563312615421E-02
100  9.9000000000000E-01  4.0624390213708E-01  2.6281129114090E-02
101  1.0000000000000E+00  3.5375069851505E-01  2.0345864759084E-02
102  1.0100000000000E+00  3.0018539891022E-01  1.5563928758044E-02
103  1.0200000000000E+00  2.4728184262164E-01  1.1748156501237E-02
104  1.0300000000000E+00  1.9668287622578E-01  8.7236710390688E-03
105  1.0400000000000E+00  1.4988358200880E-01  6.3335113344204E-03
106  1.0500000000000E+00  1.0817446220294E-01  4.4441655037304E-03
107  1.0600000000000E+00  7.2362779887585E-02  2.9700519243724E-03
108  1.0700000000000E+00  4.3232558428480E-02  1.8324659691897E-03
109  1.0800000000000E+00  2.1470844659174E-02  9.6893498707631E-04
110  1.0900000000000E+00  7.3404048112631E-03  3.6233646670928E-04
111  1.1000000000000E+00  7.3103170111989E-04  4.0446028165638E-05
112  1.1100000000000E+00 -2.5606060996133E-05 -1.5312928751554E-06
113  1.1200000000000E+00 -3.5019757038027E-06 -1.8897572984763E-07
114  1.13 -0.  0.
115  1.14  0.  0.
116  1.15  0.  0.
117  1.16  0.  0.
118  1.17  0.  0.
119  1.18  0.  0.
120  1.19  0.  0.
121  1.20  0.  0.
122  1.21  0.  0.
123  1.22  0.  0.
124  1.23  0.  0.
125  1.24  0.  0.
126  1.25  0.  0.
127  1.26  0.  0.
128  1.27  0.  0.
129  1.28  0.  0.
130  1.29  0.  0.
131  1.30  0.  0.
132  1.31  0.  0.
133  1.32  0.  0.
134  1.33  0.  0.
135  1.34  0.  0.
136  1.35  0.  0.
137  1.36  0.  0.
138  1.37  0.  0.
139  1.38  0.  0.
140  1.39  0.  0.
141  1.40  0.  0.
142  1.41  0.  0.
143  1.42  0.  0.
144  1.43  0.  0.
145  1.44  0.  0.
146  1.45  0.  0.
147  1.46  0.  0.
148  1.47  0.  0.
149  1.48  0.  0.
150  1.49  0.  0.
151  1.50  0.  0.
152  1.51  0.  0.
153  1.52  0.  0.
154  1.53  0.  0.
155  1.54  0.  0.
156  1.55  0.  0.
157  1.56  0.  0.
158  1.57  0.  0.
159  1.58  0.  0.
160  1.59  0.  0.
161  1.60  0.  0.
162  1.61  0.  0.
163  1.62  0.  0.
164  1.63  0.  0.
165  1.64  0.  0.
166  1.65  0.  0.
167  1.66  0.  0.
168  1.67  0.  0.
169  1.68  0.  0.
170  1.69  0.  0.
171  1.70  0.  0.
172  1.71  0.  0.
173  1.72  0.  0.
174  1.73  0.  0.
175  1.74  0.  0.
176  1.75  0.  0.
177  1.76  0.  0.
178  1.77  0.  0.
179  1.78  0.  0.
180  1.79  0.  0.
181  1.80  0.  0.
182  1.81  0.  0.
183  1.82  0.  0.
184  1.83  0.  0.
185  1.84  0.  0.
186  1.85  0.  0.
187  1.86  0.  0.
188  1.87  0.  0.
189  1.88  0.  0.
190  1.89  0.  0.
191  1.90  0.  0.
192  1.91  0.  0.
193  1.92  0.  0.
194  1.93  0.  0.
195  1.94  0.  0.
196  1.95  0.  0.
197  1.96  0.  0.