Cn    ONCVPSP-4.0.1  r_core=   1.15172   1.15172   1.15172   1.15172
112.0000     52.0000      231012    zatom,zion,pspd
8   -1012   3     4   600     0    pspcod,pspxc,lmax,lloc,mmax,r2well
5.99000000  2.50000000  0.00000000    rchrg fchrg qchrg
3     2     2     2     0    nproj
1     1           extension_switch
0                         1.6278074951814E+01 -7.0551938273521E+00  1.6273315454672E+00
1  0.0000000000000E+00  1.6312926565121E-08  3.0682093532519E-09  6.7250834151489E-08
2  1.0000000000000E-02  1.7985764345259E-01  6.7936833472948E-02  3.0337594080612E-02
3  2.0000000000000E-02  3.5811722786413E-01  1.3575728014793E-01  6.0035097510160E-02
4  3.0000000000000E-02  5.3319396865636E-01  2.0334462638832E-01  8.8454643357439E-02
5  4.0000000000000E-02  7.0352960703955E-01  2.7058152724239E-01  1.1496312505384E-01
6  5.0000000000000E-02  8.6760561035945E-01  3.3734974584432E-01  1.3893533994800E-01
7  6.0000000000000E-02  1.0239562844715E+00  4.0352995654781E-01  1.5975799676424E-01
8  7.0000000000000E-02  1.1711817480523E+00  4.6900162923606E-01  1.7683479060115E-01
9  8.0000000000000E-02  1.3079607024453E+00  5.3364300918419E-01  1.8959268185586E-01
10  9.0000000000000E-02  1.4330629120299E+00  5.9733120324213E-01  1.9748943743981E-01
11  1.0000000000000E-01  1.5453612902659E+00  6.5994237909728E-01  2.0002240750146E-01
12  1.1000000000000E-01  1.6438434666886E+00  7.2135208011958E-01  1.9673842260851E-01
13  1.2000000000000E-01  1.7276226914210E+00  7.8143565394956E-01  1.8724460916898E-01
14  1.3000000000000E-01  1.7959479174830E+00  8.4006878872777E-01  1.7121983900834E-01
15  1.4000000000000E-01  1.8482128884503E+00  8.9712814684259E-01  1.4842645651754E-01
16  1.5000000000000E-01  1.8839640509325E+00  9.5249208244383E-01  1.1872186734415E-01
17  1.6000000000000E-01  1.9029071087725E+00  1.0060414258666E+00  8.2069529406202E-02
18  1.7000000000000E-01  1.9049120395191E+00  1.0576603156472E+00  3.8548862592581E-02
19  1.8000000000000E-01  1.8900164040336E+00  1.1072370570769E+00 -1.1636410362853E-02
20  1.9000000000000E-01  1.8584267972398E+00  1.1546649852906E+00 -6.8151961793650E-02
21  2.0000000000000E-01  1.8105183119150E+00  1.1998433107506E+00 -1.3052902679047E-01
22  2.1000000000000E-01  1.7468319176518E+00  1.2426779256563E+00 -1.9816341221855E-01
23  2.2000000000000E-01  1.6680696930423E+00  1.2830821512509E+00 -2.7031764053516E-01
24  2.3000000000000E-01  1.5750878898094E+00  1.3209774081408E+00 -3.4612642784644E-01
25  2.4000000000000E-01  1.4688878518935E+00  1.3562937944923E+00 -4.2460558905657E-01
26  2.5000000000000E-01  1.3506048590554E+00  1.3889705602112E+00 -5.0466434783887E-01
27  2.6000000000000E-01  1.2214950119012E+00  1.4189564688015E+00 -5.8512090994931E-01
28  2.7000000000000E-01  1.0829203218221E+00  1.4462100423948E+00 -6.6472103982137E-01
29  2.8000000000000E-01  9.3633221358963E-01  1.4706996892846E+00 -7.4215926721591E-01
30  2.9000000000000E-01  7.8325368872047E-01  1.4924037170317E+00 -8.1610224759597E-01
31  3.0000000000000E-01  6.2526043279124E-01  1.5113102376860E+00 -8.8521371118634E-01
32  3.1000000000000E-01  4.6396117836473E-01  1.5274169747502E+00 -9.4818036516377E-01
33  3.2000000000000E-01  3.0097765602343E-01  1.5407309840864E+00 -1.0037380642464E+00
34  3.3000000000000E-01  1.3792447838688E-01  1.5512683029310E+00 -1.0506975394125E+00
35  3.4000000000000E-01 -2.3610694601004E-02  1.5590535424827E+00 -1.0879689739717E+00
36  3.5000000000000E-01 -1.8208636659017E-01  1.5641194401122E+00 -1.1145847411139E+00
37  3.6000000000000E-01 -3.3602546423474E-01  1.5665063871184E+00 -1.1297196667447E+00
38  3.7000000000000E-01 -4.8403234079610E-01  1.5662619471401E+00 -1.1327082542188E+00
39  3.8000000000000E-01 -6.2480825090165E-01  1.5634403788878E+00 -1.1230584009078E+00
40  3.9000000000000E-01 -7.5716506150156E-01  1.5581021748667E+00 -1.1004612469296E+00
41  4.0000000000000E-01 -8.8003700768715E-01  1.5503136253256E+00 -1.0647969196281E+00
42  4.1000000000000E-01 -9.9249034973408E-01  1.5401464139251E+00 -1.0161360688183E+00
43  4.2000000000000E-01 -1.0937308379150E+00  1.5276772486873E+00 -9.5473722229065E-01
44  4.3000000000000E-01 -1.1831089426220E+00  1.5129875288451E+00 -8.8104012338362E-01
45  4.4000000000000E-01 -1.2601228574784E+00  1.4961630453675E+00 -7.9565533742095E-01
46  4.5000000000000E-01 -1.3244193307968E+00  1.4772937103583E+00 -6.9935052659461E-01
47  4.6000000000000E-01 -1.3757924244710E+00  1.4564733083273E+00 -5.9303388910369E-01
48  4.7000000000000E-01 -1.4141803378842E+00  1.4337992606142E+00 -4.7773533434950E-01
49  4.8000000000000E-01 -1.4396604666095E+00  1.4093723931065E+00 -3.5458601891310E-01
50  4.9000000000000E-01 -1.4524428907947E+00  1.3832966968694E+00 -2.2479689606068E-01
51  5.0000000000000E-01 -1.4528625056750E+00  1.3556790714304E+00 -8.9636933840658E-02
52  5.1000000000000E-01 -1.4413700164973E+00  1.3266290412322E+00  4.9588366239492E-02
53  5.2000000000000E-01 -1.4185220224195E+00  1.2962584371248E+00  1.9155756503897E-01
54  5.3000000000000E-01 -1.3849704091403E+00  1.2646810366694E+00  3.3495247984758E-01
55  5.4000000000000E-01 -1.3414512588711E+00  1.2320121593478E+00  4.7847554731193E-01
56  5.5000000000000E-01 -1.2887734697658E+00  1.1983682154157E+00  6.2086502685839E-01
57  5.6000000000000E-01 -1.2278072562574E+00  1.1638662099586E+00  7.6090782667718E-01
58  5.7000000000000E-01 -1.1594726782226E+00  1.1286232065618E+00  8.9744984909373E-01
59  5.8000000000000E-01 -1.0847283218814E+00  1.0927557577473E+00  1.0294038660201E+00
60  5.9000000000000E-01 -1.0045602302179E+00  1.0563793118097E+00  1.1557550430098E+00
61  6.0000000000000E-01 -9.1997115677802E-01  1.0196076077718E+00  1.2755643274255E+00
62  6.1000000000000E-01 -8.3197019514549E-01  9.8255207176176E-01  1.3879699981057E+00
63  6.2000000000000E-01 -7.4156281819566E-01  9.4532122909688E-01  1.4921877371875E+00
64  6.3000000000000E-01 -6.4974134713287E-01  9.0802014668177E-01  1.5875096267990E+00
65  6.4000000000000E-01 -5.5747586080188E-01  8.7074991996216E-01  1.6733024926428E+00
66  6.5000000000000E-01 -4.6570555101484E-01  8.3360721762430E-01  1.7490060126008E+00
67  6.6000000000000E-01 -3.7533052953017E-01  7.9668389553265E-01  1.8141309821077E+00
68  6.7000000000000E-01 -2.8720409644776E-01  7.6006668912972E-01  1.8682580809733E+00
69  6.8000000000000E-01 -2.0212548746534E-01  7.2383699078357E-01  1.9110374213983E+00
70  6.9000000000000E-01 -1.2083312776074E-01  6.8807071549059E-01  1.9421890778489E+00
71  7.0000000000000E-01 -4.3998432136142E-02  6.5283825507167E-01  1.9615047106131E+00
72  7.1000000000000E-01  2.7779796731312E-02  6.1820451770056E-01  1.9688503011752E+00
73  7.2000000000000E-01  9.3980308794821E-02  5.8422904643904E-01  1.9641699240905E+00
74  7.3000000000000E-01  1.5416361362157E-01  5.5096620758663E-01  1.9474903919423E+00
75  7.4000000000000E-01  2.0797537571915E-01  5.1846543723166E-01  1.9189265319640E+00
76  7.5000000000000E-01  2.5514891845561E-01  4.8677153254337E-01  1.8786867892318E+00
77  7.6000000000000E-01  2.9550676017574E-01  4.5592497317175E-01  1.8270788053836E+00
78  7.7000000000000E-01  3.2896111485506E-01  4.2596225768631E-01  1.7645145959564E+00
79  7.8000000000000E-01  3.5551330384709E-01  3.9691624031315E-01  1.6915149448488E+00
80  7.9000000000000E-01  3.7525204467240E-01  3.6881645429997E-01  1.6087126509633E+00
81  8.0000000000000E-01  3.8835060669769E-01  3.4168940998819E-01  1.5168542982365E+00
82  8.1000000000000E-01  3.9506285088935E-01  3.1555885798812E-01  1.4168002730922E+00
83  8.2000000000000E-01  3.9571820017019E-01  2.9044601058403E-01  1.3095228185858E+00
84  8.3000000000000E-01  3.9071561648934E-01  2.6636971744708E-01  1.1961019866072E+00
85  8.4000000000000E-01  3.8051668848214E-01  2.4334659467687E-01  1.0777194218656E+00
86  8.5000000000000E-01  3.6563795726976E-01  2.2139110887196E-01  9.5564997647645E-01
87  8.6000000000000E-01  3.4664262509654E-01  2.0051562006962E-01  8.3125120364015E-01
88  8.7000000000000E-01  3.2413179961545E-01  1.8073038871030E-01  7.0595080458347E-01
89  8.8000000000000E-01  2.9873542320300E-01  1.6204355198292E-01  5.8123209593693E-01
90  8.9000000000000E-01  2.7110301928925E-01  1.4446107371321E-01  4.5861751651650E-01
91  9.0000000000000E-01  2.4189435405655E-01  1.2798666910189E-01  3.3965009494259E-01
92  9.1000000000000E-01  2.1177005996055E-01  1.1262170086166E-01  2.2587264523898E-01
93  9.2000000000000E-01  1.8138219558712E-01  9.8365036428786E-02  1.1880423989451E-01
94  9.3000000000000E-01  1.5136462296810E-01  8.5212846761128E-02  1.9913223358145E-02
95  9.4000000000000E-01  1.2232296756476E-01  7.3158315643406E-02 -6.9414330797195E-02
96  9.5000000000000E-01  9.4823787013410E-02  6.2191214308889E-02 -1.4791225183118E-01
97  9.6000000000000E-01  6.9382412082322E-02  5.2297279499979E-02 -2.1448003991270E-01
98  9.7000000000000E-01  4.6448737258661E-02  4.3457313827403E-02 -2.6823940999797E-01
99  9.8000000000000E-01  2.6390029226804E-02  3.5645905463217E-02 -3.0860492216966E-01
100  9.9000000000000E-01  9.4695883742000E-03  2.8829639742593E-02 -3.3537276423855E-01
101  1.0000000000000E+00 -4.1800920236805E-03  2.2964654174593E-02 -3.4883227502849E-01
102  1.0100000000000E+00 -1.4590679567623E-02  1.7993415547195E-02 -3.4990275370940E-01
103  1.0200000000000E+00 -2.1955258410865E-02  1.3844635268659E-02 -3.4009352466584E-01
104  1.0300000000000E+00 -2.6553683418153E-02  1.0440138804490E-02 -3.2113978878089E-01
105  1.0400000000000E+00 -2.8720723171038E-02  7.6983764691974E-03 -2.9486669568534E-01
106  1.0500000000000E+00 -2.8832142270527E-02  5.5363289228070E-03 -2.6314442128714E-01
107  1.0600000000000E+00 -2.7290159210876E-02  3.8714092219903E-03 -2.2784203195377E-01
108  1.0700000000000E+00 -2.4508684620823E-02  2.6233217796714E-03 -1.9078123943697E-01
109  1.0800000000000E+00 -2.0898746776287E-02  1.7158305259625E-03 -1.5369125632664E-01
110  1.0900000000000E+00 -1.6854904665699E-02  1.0784282273168E-03 -1.1816690931209E-01
111  1.1000000000000E+00 -1.2721015929076E-02  6.4616835143085E-04 -8.5578237514483E-02
112  1.1100000000000E+00 -8.7540597758902E-03  3.6059802738367E-04 -5.6972178416652E-02
113  1.1200000000000E+00 -5.2730841802868E-03  1.8136552902157E-04 -3.3429729898996E-02
114  1.1300000000000E+00 -2.5417698767664E-03  7.6047151606227E-05 -1.5787826531171E-02
115  1.1400000000000E+00 -7.4873311455298E-04  2.0572388601069E-05 -4.5791379037377E-03
116  1.1500000000000E+00 -2.7526809514969E-05  7.4497553279950E-07 -1.6618977308746E-04
117  1.1600000000000E+00 -2.6553178442313E-06  6.9350774404756E-08 -1.6054937094679E-05
118  1.1700000000000E+00  6.0389018577838E-07 -1.6088886840380E-08  3.6725127259282E-06
119  1.18  0.  0.  0.
120  1.19  0.  0.  0.
121  1.20  0.  0.  0.
122  1.21  0.  0.  0.
123  1.22  0.  0.  0.
124  1.23  0.  0.  0.
125  1.24  0.  0.  0.
126  1.25  0.  0.  0.
127  1.26  0.  0.  0.
128  1.27  0.  0.  0.
129  1.28  0.  0.  0.
130  1.29  0.  0.  0.
131  1.30  0.  0.  0.
132  1.31  0.  0.  0.
133  1.32  0.  0.  0.
134  1.33  0.  0.  0.
135  1.34  0.  0.  0.
136  1.35  0.  0.  0.
137  1.36  0.  0.  0.
138  1.37  0.  0.  0.
139  1.38  0.  0.  0.
140  1.39  0.  0.  0.
141  1.40  0.  0.  0.
142  1.41  0.  0.  0.
143  1.42  0.  0.  0.
144  1.43  0.  0.  0.
145  1.44  0.  0.  0.
146  1.45  0.  0.  0.
147  1.46  0.  0.  0.
148  1.47  0.  0.  0.
149  1.48  0.  0.  0.
150  1.49  0.  0.  0.
151  1.50  0.  0.  0.
152  1.51  0.  0.  0.
153  1.52  0.  0.  0.
154  1.53  0.  0.  0.
155  1.54  0.  0.  0.
156  1.55  0.  0.  0.
157  1.56  0.  0.  0.
158  1.57  0.  0.  0.
159  1.58  0.  0.  0.
160  1.59  0.  0.  0.
161  1.60  0.  0.  0.
162  1.61  0.  0.  0.
163  1.62  0.  0.  0.
164  1.63  0.  0.  0.
165  1.64  0.  0.  0.
166  1.65  0.  0.  0.
167  1.66  0.  0.  0.
168  1.67  0.  0.  0.
169  1.68  0.  0.  0.
170  1.69  0.  0.  0.
171  1.70  0.  0.  0.
172  1.71  0.  0.  0.
173  1.72  0.  0.  0.
174  1.73  0.  0.  0.
175  1.74  0.  0.  0.
176  1.75  0.  0.  0.
177  1.76  0.  0.  0.
178  1.77  0.  0.  0.
179  1.78  0.  0.  0.
180  1.79  0.  0.  0.
181  1.80  0.  0.  0.
182  1.81  0.  0.  0.
183  1.82  0.  0.  0.
184  1.83  0.  0.  0.
185  1.84  0.  0.  0.
186  1.85  0.  0.  0.
187  1.86  0.  0.  0.
188  1.87  0.  0.  0.
189  1.88  0.  0.  0.
190  1.89  0.  0.  0.
191  1.90  0.  0.  0.
192  1.91  0.  0.  0.
193  1.92  0.  0.  0.
194  1.93  0.  0.  0.
195  1.94  0.  0.  0.
196  1.95  0.  0.  0.
197  1.96  0.  0.  0.
198  1.97  0.  0.  0.
199  1.98  0.  0.  0.
200  1.99  0.  0.  0.
201  2.00  0.  0.  0.
202  2.01  0.  0.  0.
203  2.02  0.  0.  0.
204  2.03  0.  0.  0.
205  2.04  0.  0.  0.
206  2.05  0.  0.  0.
207  2.06  0.  0.  0.
208  2.07  0.  0.  0.
209  2.08  0.  0.  0.
210  2.09  0.  0.  0.
211  2.10  0.  0.  0.
212  2.11  0.  0.  0.
213  2.12  0.  0.  0.
214  2.13  0.  0.  0.
215  2.14  0.  0.  0.
216  2.15  0.  0.  0.
217  2.16  0.  0.  0.
218  2.17  0.  0.  0.
219  2.18  0.  0.  0.
220  2.19  0.  0.  0.
221  2.20  0.  0.  0.
222  2.21  0.  0.  0.
223  2.22  0.  0.  0.
224  2.23  0.  0.  0.
225  2.24  0.  0.  0.
226  2.25  0.  0.  0.
227  2.26  0.  0.  0.
228  2.27  0.  0.  0.
229  2.28  0.  0.  0.
230  2.29  0.  0.  0.
231  2.30  0.  0.  0.
232  2.31  0.  0.  0.
233  2.32  0.  0.  0.
234  2.33  0.  0.  0.
235  2.34  0.  0.  0.
236  2.35  0.  0.  0.
237  2.36  0.  0.  0.
238  2.37  0.  0.  0.
239  2.38  0.  0.  0.
240  2.39  0.  0.  0.
241  2.40  0.  0.  0.
242  2.41  0.  0.  0.
243  2.42  0.  0.  0.
244  2.43  0.  0.  0.
245  2.44  0.  0.  0.
246  2.45  0.  0.  0.
247  2.46  0.  0.  0.
248  2.47  0.  0.  0.
249  2.48  0.  0.  0.
250  2.49  0.  0.  0.
251  2.50  0.  0.  0.
252  2.51  0.  0.  0.
253  2.52  0.  0.  0.
254  2.53  0.  0.  0.
255  2.54  0.  0.  0.
256  2.55  0.  0.  0.
257  2.56  0.  0.  0.
258  2.57  0.  0.  0.
259  2.58  0.  0.  0.
260  2.59  0.  0.  0.
261  2.60  0.  0.  0.
262  2.61  0.  0.  0.
263  2.62  0.  0.  0.
264  2.63  0.  0.  0.
265  2.64  0.  0.  0.
266  2.65  0.  0.  0.
267  2.66  0.  0.  0.
268  2.67  0.  0.  0.
269  2.68  0.  0.  0.
270  2.69  0.  0.  0.
271  2.70  0.  0.  0.
272  2.71  0.  0.  0.
273  2.72  0.  0.  0.
274  2.73  0.  0.  0.
275  2.74  0.  0.  0.
276  2.75  0.  0.  0.
277  2.76  0.  0.  0.
278  2.77  0.  0.  0.
279  2.78  0.  0.  0.
280  2.79  0.  0.  0.
281  2.80  0.  0.  0.
282  2.81  0.  0.  0.
283  2.82  0.  0.  0.
284  2.83  0.  0.  0.
285  2.84  0.  0.  0.
286  2.85  0.  0.  0.
287  2.86  0.  0.  0.
288  2.87  0.  0.  0.
289  2.88  0.  0.  0.
290  2.89  0.  0.  0.
291  2.90  0.  0.  0.
292  2.91  0.  0.  0.
293  2.92  0.  0.  0.
294  2.93  0.  0.  0.
295  2.94  0.  0.  0.
296  2.95  0.  0.  0.
297  2.96  0.  0.  0.
298  2.97  0.  0.  0.
299  2.98  0.  0.  0.
300  2.99  0.  0.  0.
301  3.00  0.  0.  0.
302  3.01  0.  0.  0.
303  3.02  0.  0.  0.
304  3.03  0.  0.  0.
305  3.04  0.  0.  0.
306  3.05  0.  0.  0.
307  3.06  0.  0.  0.
308  3.07  0.  0.  0.
309  3.08  0.  0.  0.
310  3.09  0.  0.  0.
311  3.10  0.  0.  0.
312  3.11  0.  0.  0.
313  3.12  0.  0.  0.
314  3.13  0.  0.  0.
315  3.14  0.  0.  0.
316  3.15  0.  0.  0.
317  3.16  0.  0.  0.
318  3.17  0.  0.  0.
319  3.18  0.  0.  0.
320  3.19  0.  0.  0.
321  3.20  0.  0.  0.
322  3.21  0.  0.  0.
323  3.22  0.  0.  0.
324  3.23  0.  0.  0.
325  3.24  0.  0.  0.
326  3.25  0.  0.  0.
327  3.26  0.  0.  0.
328  3.27  0.  0.  0.
329  3.28  0.  0.  0.
330  3.29  0.  0.  0.
331  3.30  0.  0.  0.
332  3.31  0.  0.  0.
333  3.32  0.  0.  0.
334  3.33  0.  0.  0.
335  3.34  0.  0.  0.
336  3.35  0.  0.  0.
337  3.36  0.  0.  0.
338  3.37  0.  0.  0.
339  3.38  0.  0.  0.
340  3.39  0.  0.  0.
341  3.40  0.  0.  0.
342  3.41  0.  0.  0.
343  3.42  0.  0.  0.
344  3.43  0.  0.  0.
345  3.44  0.  0.  0.
346  3.45  0.  0.  0.
347  3.46  0.  0.  0.
348  3.47  0.  0.  0.
349  3.48  0.  0.  0.
350  3.49  0.  0.  0.
351  3.50  0.  0.  0.
352  3.51  0.  0.  0.
353  3.52  0.  0.  0.
354  3.53  0.  0.  0.
355  3.54  0.  0.  0.
356  3.55  0.  0.  0.
357  3.56  0.  0.  0.
358  3.57  0.  0.  0.
359  3.58  0.  0.  0.
360  3.59  0.  0.  0.
361  3.60  0.  0.  0.
362  3.61  0.  0.  0.
363  3.62  0.  0.  0.
364  3.63  0.  0.  0.
365  3.64  0.  0.  0.
366  3.65  0.  0.  0.
367  3.66  0.  0.  0.
368  3.67  0.  0.  0.
369  3.68  0.  0.  0.
370  3.69  0.  0.  0.
371  3.70  0.  0.  0.
372  3.71  0.  0.  0.
373  3.72  0.  0.  0.
374  3.73  0.  0.  0.
375  3.74  0.  0.  0.
376  3.75  0.  0.  0.
377  3.76  0.  0.  0.
378  3.77  0.  0.  0.
379  3.78  0.  0.  0.
380  3.79  0.  0.  0.
381  3.80  0.  0.  0.
382  3.81  0.  0.  0.
383  3.82  0.  0.  0.
384  3.83  0.  0.  0.
385  3.84  0.  0.  0.
386  3.85  0.  0.  0.
387  3.86  0.  0.  0.
388  3.87  0.  0.  0.
389  3.88  0.  0.  0.
390  3.89  0.  0.  0.
391  3.90  0.  0.  0.
392  3.91  0.  0.  0.
393  3.92  0.  0.  0.
394  3.93  0.  0.  0.
395  3.94  0.  0.  0.
396  3.95  0.  0.  0.
397  3.96  0.  0.  0.
398  3.97  0.  0.  0.
399  3.98  0.  0.  0.
400  3.99  0.  0.  0.
401  4.00  0.  0.  0.
402  4.01  0.  0.  0.
403  4.02  0.  0.  0.
404  4.03  0.  0.  0.
405  4.04  0.  0.  0.
406  4.05  0.  0.  0.
407  4.06  0.  0.  0.
408  4.07  0.  0.  0.
409  4.08  0.  0.  0.
410  4.09  0.  0.  0.
411  4.10  0.  0.  0.
412  4.11  0.  0.  0.
413  4.12  0.  0.  0.
414  4.13  0.  0.  0.
415  4.14  0.  0.  0.
416  4.15  0.  0.  0.
417  4.16  0.  0.  0.
418  4.17  0.  0.  0.
419  4.18  0.  0.  0.
420  4.19  0.  0.  0.
421  4.20  0.  0.  0.
422  4.21  0.  0.  0.
423  4.22  0.  0.  0.
424  4.23  0.  0.  0.
425  4.24  0.  0.  0.
426  4.25  0.  0.  0.
427  4.26  0.  0.  0.
428  4.27  0.  0.  0.
429  4.28  0.  0.  0.
430  4.29  0.  0.  0.
431  4.30  0.  0.  0.
432  4.31  0.  0.  0.
433  4.32  0.  0.  0.
434  4.33  0.  0.  0.
435  4.34  0.  0.  0.
436  4.35  0.  0.  0.
437  4.36  0.  0.  0.
438  4.37  0.  0.  0.
439  4.38  0.  0.  0.
440  4.39  0.  0.  0.
441  4.40  0.  0.  0.
442  4.41  0.  0.  0.
443  4.42  0.  0.  0.
444  4.43  0.  0.  0.
445  4.44  0.  0.  0.
446  4.45  0.  0.  0.
447  4.46  0.  0.  0.
448  4.47  0.  0.  0.
449  4.48  0.  0.  0.
450  4.49  0.  0.  0.
451  4.50  0.  0.  0.
452  4.51  0.  0.  0.
453  4.52  0.  0.  0.
454  4.53  0.  0.  0.
455  4.54  0.  0.  0.
456  4.55  0.  0.  0.
457  4.56  0.  0.  0.
458  4.57  0.  0.  0.
459  4.58  0.  0.  0.
460  4.59  0.  0.  0.
461  4.60  0.  0.  0.
462  4.61  0.  0.  0.
463  4.62  0.  0.  0.
464  4.63  0.  0.  0.
465  4.64  0.  0.  0.
466  4.65  0.  0.  0.
467  4.66  0.  0.  0.
468  4.67  0.  0.  0.
469  4.68  0.  0.  0.
470  4.69  0.  0.  0.
471  4.70  0.  0.  0.
472  4.71  0.  0.  0.
473  4.72  0.  0.  0.
474  4.73  0.  0.  0.
475  4.74  0.  0.  0.
476  4.75  0.  0.  0.
477  4.76  0.  0.  0.
478  4.77  0.  0.  0.
479  4.78  0.  0.  0.
480  4.79  0.  0.  0.
481  4.80  0.  0.  0.
482  4.81  0.  0.  0.
483  4.82  0.  0.  0.
484  4.83  0.  0.  0.
485  4.84  0.  0.  0.
486  4.85  0.  0.  0.
487  4.86  0.  0.  0.
488  4.87  0.  0.  0.
489  4.88  0.  0.  0.
490  4.89  0.  0.  0.
491  4.90  0.  0.  0.
492  4.91  0.  0.  0.
493  4.92  0.  0.  0.
494  4.93  0.  0.  0.
495  4.94  0.  0.  0.
496  4.95  0.  0.  0.
497  4.96  0.  0.  0.
498  4.97  0.  0.  0.
499  4.98  0.  0.  0.
500  4.99  0.  0.  0.
501  5.00  0.  0.  0.
502  5.01  0.  0.  0.
503  5.02  0.  0.  0.
504  5.03  0.  0.  0.
505  5.04  0.  0.  0.
506  5.05  0.  0.  0.
507  5.06  0.  0.  0.
508  5.07  0.  0.  0.
509  5.08  0.  0.  0.
510  5.09  0.  0.  0.
511  5.10  0.  0.  0.
512  5.11  0.  0.  0.
513  5.12  0.  0.  0.
514  5.13  0.  0.  0.
515  5.14  0.  0.  0.
516  5.15  0.  0.  0.
517  5.16  0.  0.  0.
518  5.17  0.  0.  0.
519  5.18  0.  0.  0.
520  5.19  0.  0.  0.
521  5.20  0.  0.  0.
522  5.21  0.  0.  0.
523  5.22  0.  0.  0.
524  5.23  0.  0.  0.
525  5.24  0.  0.  0.
526  5.25  0.  0.  0.
527  5.26  0.  0.  0.
528  5.27  0.  0.  0.
529  5.28  0.  0.  0.
530  5.29  0.  0.  0.
531  5.30  0.  0.  0.
532  5.31  0.  0.  0.
533  5.32  0.  0.  0.
534  5.33  0.  0.  0.
535  5.34  0.  0.  0.
536  5.35  0.  0.  0.
537  5.36  0.  0.  0.
538  5.37  0.  0.  0.
539  5.38  0.  0.  0.
540  5.39  0.  0.  0.
541  5.40  0.  0.  0.
542  5.41  0.  0.  0.
543  5.42  0.  0.  0.
544  5.43  0.  0.  0.
545  5.44  0.  0.  0.
546  5.45  0.  0.  0.
547  5.46  0.  0.  0.
548  5.47  0.  0.  0.
549  5.48  0.  0.  0.
550  5.49  0.  0.  0.
551  5.50  0.  0.  0.
552  5.51  0.  0.  0.
553  5.52  0.  0.  0.
554  5.53  0.  0.  0.
555  5.54  0.  0.  0.
556  5.55  0.  0.  0.
557  5.56  0.  0.  0.
558  5.57  0.  0.  0.
559  5.58  0.  0.  0.
560  5.59  0.  0.  0.
561  5.60  0.  0.  0.
562  5.61  0.  0.  0.
563  5.62  0.  0.  0.
564  5.63  0.  0.  0.
565  5.64  0.  0.  0.
566  5.65  0.  0.  0.
567  5.66  0.  0.  0.
568  5.67  0.  0.  0.
569  5.68  0.  0.  0.
570  5.69  0.  0.  0.
571  5.70  0.  0.  0.
572  5.71  0.  0.  0.
573  5.72  0.  0.  0.
574  5.73  0.  0.  0.
575  5.74  0.  0.  0.
576  5.75  0.  0.  0.
577  5.76  0.  0.  0.
578  5.77  0.  0.  0.
579  5.78  0.  0.  0.
580  5.79  0.  0.  0.
581  5.80  0.  0.  0.
582  5.81  0.  0.  0.
583  5.82  0.  0.  0.
584  5.83  0.  0.  0.
585  5.84  0.  0.  0.
586  5.85  0.  0.  0.
587  5.86  0.  0.  0.
588  5.87  0.  0.  0.
589  5.88  0.  0.  0.
590  5.89  0.  0.  0.
591  5.90  0.  0.  0.
592  5.91  0.  0.  0.
593  5.92  0.  0.  0.
594  5.93  0.  0.  0.
595  5.94  0.  0.  0.
596  5.95  0.  0.  0.
597  5.96  0.  0.  0.
598  5.97  0.  0.  0.
599  5.98  0.  0.  0.
600  5.99  0.  0.  0.
1                        -5.5866031059468E+00  5.3499458130030E+00
1  0.0000000000000E+00 -5.1523866978487E-09  3.6452123819419E-08
2  1.0000000000000E-02  1.5492916500845E-03  7.0855574957146E-03
3  2.0000000000000E-02  6.1967227489373E-03  2.8239121349447E-02
4  3.0000000000000E-02  1.3940835315570E-02  6.3152808567237E-02
5  4.0000000000000E-02  2.4778781021055E-02  1.1131827006098E-01
6  5.0000000000000E-02  3.8705704302286E-02  1.7203380320030E-01
7  6.0000000000000E-02  5.5713899807762E-02  2.4441416779700E-01
8  7.0000000000000E-02  7.5791764746292E-02  3.2740296628745E-01
9  8.0000000000000E-02  9.8922571861915E-02  4.1978741242585E-01
10  9.0000000000000E-02  1.2508309338671E-01  5.2021527879107E-01
11  1.0000000000000E-01  1.5424211033270E-01  6.2721378232055E-01
12  1.1000000000000E-01  1.8635884479238E-01  7.3921013936249E-01
13  1.2000000000000E-01  2.2138135545502E-01  8.5455349778335E-01
14  1.3000000000000E-01  2.5924493826069E-01  9.7153793383662E-01
15  1.4000000000000E-01  2.9987057496707E-01  1.0884261860912E+00
16  1.5000000000000E-01  3.4316347237708E-01  1.2034737879779E+00
17  1.6000000000000E-01  3.8901173406387E-01  1.3149532546197E+00
18  1.7000000000000E-01  4.3728520465018E-01  1.4211779786863E+00
19  1.8000000000000E-01  4.8783452408180E-01  1.5205254940956E+00
20  1.9000000000000E-01  5.4049042592952E-01  1.6114597754579E+00
21  2.0000000000000E-01  5.9506330962380E-01  1.6925522551288E+00
22  2.1000000000000E-01  6.5134311175030E-01  1.7625012584274E+00
23  2.2000000000000E-01  7.0909949620274E-01  1.8201495807631E+00
24  2.3000000000000E-01  7.6808237720516E-01  1.8644999577806E+00
25  2.4000000000000E-01  8.2802278308820E-01  1.8947282108084E+00
26  2.5000000000000E-01  8.8863406235270E-01  1.9101938844397E+00
27  2.6000000000000E-01  9.4961342709901E-01  1.9104482305004E+00
28  2.7000000000000E-01  1.0106438224673E+00  1.8952394324096E+00
29  2.8000000000000E-01  1.0713961044462E+00  1.8645150054293E+00
30  2.9000000000000E-01  1.1315315023836E+00  1.8184213509012E+00
31  3.0000000000000E-01  1.1907043368935E+00  1.7573004856251E+00
32  3.1000000000000E-01  1.2485649586996E+00  1.6816840103736E+00
33  3.2000000000000E-01  1.3047628693925E+00  1.5922844234734E+00
34  3.3000000000000E-01  1.3589499811906E+00  1.4899839257539E+00
35  3.4000000000000E-01  1.4107839696523E+00  1.3758209012897E+00
36  3.5000000000000E-01  1.4599316709599E+00  1.2509742936205E+00
37  3.6000000000000E-01  1.5060724739158E+00  1.1167461289293E+00
38  3.7000000000000E-01  1.5489016561961E+00  9.7454246543182E-01
39  3.8000000000000E-01  1.5881336147008E+00  8.2585307151419E-01
40  3.9000000000000E-01  1.6235049410187E+00  6.7223015351943E-01
41  4.0000000000000E-01  1.6547772950688E+00  5.1526646719389E-01
42  4.1000000000000E-01  1.6817400328411E+00  3.5657315441744E-01
43  4.2000000000000E-01  1.7042125477961E+00  1.9775764879346E-01
44  4.3000000000000E-01  1.7220462898122E+00  4.0401989911156E-02
45  4.4000000000000E-01  1.7351264305193E+00 -1.1395812334304E-01
46  4.5000000000000E-01  1.7433731493341E+00 -2.6385322501266E-01
47  4.6000000000000E-01  1.7467425204064E+00 -4.0789862466992E-01
48  4.7000000000000E-01  1.7452269869006E+00 -5.4481133040107E-01
49  4.8000000000000E-01  1.7388554154429E+00 -6.7342511187351E-01
50  4.9000000000000E-01  1.7276927300625E+00 -7.9270349683425E-01
51  5.0000000000000E-01  1.7118391314099E+00 -9.0175053141559E-01
52  5.1000000000000E-01  1.6914289133465E+00 -9.9981917435434E-01
53  5.2000000000000E-01  1.6666288950472E+00 -1.0863172369430E+00
54  5.3000000000000E-01  1.6376364924391E+00 -1.1608108234626E+00
55  5.4000000000000E-01  1.6046774580195E+00 -1.2230252702069E+00
56  5.5000000000000E-01  1.5680033227654E+00 -1.2728436242033E+00
57  5.6000000000000E-01  1.5278885778960E+00 -1.3103027445650E+00
58  5.7000000000000E-01  1.4846276376065E+00 -1.3355871493150E+00
59  5.8000000000000E-01  1.4385316265213E+00 -1.3490207677558E+00
60  5.9000000000000E-01  1.3899250374727E+00 -1.3510567923577E+00
61  6.0000000000000E-01  1.3391423062854E+00 -1.3422658540759E+00
62  6.1000000000000E-01  1.2865243505364E+00 -1.3233227704562E+00
63  6.2000000000000E-01  1.2324151187667E+00 -1.2949921364100E+00
64  6.3000000000000E-01  1.1771581953866E+00 -1.2581130427792E+00
65  6.4000000000000E-01  1.1210935045691E+00 -1.2135832175480E+00
66  6.5000000000000E-01  1.0645541538225E+00 -1.1623428886435E+00
67  6.6000000000000E-01  1.0078634547415E+00 -1.1053586657072E+00
68  6.7000000000000E-01  9.5133215472565E-01 -1.0436077310887E+00
69  6.8000000000000E-01  8.9525590930692E-01 -9.7806261782529E-01
70  6.9000000000000E-01  8.3991302023476E-01 -9.0967683482248E-01
71  7.0000000000000E-01  7.8556245971904E-01 -8.3937157723029E-01
72  7.1000000000000E-01  7.3244219631952E-01 -7.6802373360078E-01
73  7.2000000000000E-01  6.8076783299315E-01 -6.9645537134156E-01
74  7.3000000000000E-01  6.3073156285798E-01 -6.2542484885324E-01
75  7.4000000000000E-01  5.8250144339313E-01 -5.5561966718156E-01
76  7.5000000000000E-01  5.3622098515158E-01 -4.8765113668188E-01
77  7.6000000000000E-01  4.9200904669220E-01 -4.2205089574340E-01
78  7.7000000000000E-01  4.4996002340681E-01 -3.5926927970162E-01
79  7.8000000000000E-01  4.1014431428496E-01 -2.9967549929183E-01
80  7.9000000000000E-01  3.7260904747011E-01 -2.4355954995024E-01
81  8.0000000000000E-01  3.3737904275313E-01 -1.9113573646444E-01
82  8.1000000000000E-01  3.0445798694573E-01 -1.4254766236671E-01
83  8.2000000000000E-01  2.7382979639116E-01 -9.7874500428591E-02
84  8.3000000000000E-01  2.4546013970338E-01 -5.7138329937325E-02
85  8.4000000000000E-01  2.1929809316929E-01 -2.0312298318820E-02
86  8.5000000000000E-01  1.9527790108191E-01  1.2670660779332E-02
87  8.6000000000000E-01  1.7332081356543E-01  4.1908843602310E-02
88  8.7000000000000E-01  1.5333697516972E-01  6.7522837423766E-02
89  8.8000000000000E-01  1.3522733860585E-01  8.9646955249154E-02
90  8.9000000000000E-01  1.1888557941634E-01  1.0842138814878E-01
91  9.0000000000000E-01  1.0419998906976E-01  1.2398543289795E-01
92  9.1000000000000E-01  9.1055325880668E-02  1.3647216467826E-01
93  9.2000000000000E-01  7.9334605226510E-02  1.4600493554085E-01
94  9.3000000000000E-01  6.8920812703345E-02  1.5269608958689E-01
95  9.4000000000000E-01  5.9698526077590E-02  1.5664829584108E-01
96  9.5000000000000E-01  5.1555434098152E-02  1.5795891003812E-01
97  9.6000000000000E-01  4.4383742384745E-02  1.5672778746327E-01
98  9.7000000000000E-01  3.8081458660414E-02  1.5306898100491E-01
99  9.8000000000000E-01  3.2553551514868E-02  1.4712677208613E-01
100  9.9000000000000E-01  2.7712978721558E-02  1.3909649970644E-01
101  1.0000000000000E+00  2.3481579603670E-02  1.2925058676605E-01
102  1.0100000000000E+00  1.9790797689891E-02  1.1796937022612E-01
103  1.0200000000000E+00  1.6580289109408E-02  1.0572070225587E-01
104  1.0300000000000E+00  1.3794138021938E-02  9.2956720674555E-02
105  1.0400000000000E+00  1.1380517856659E-02  8.0084304943694E-02
106  1.0500000000000E+00  9.2923400500223E-03  6.7463469081192E-02
107  1.0600000000000E+00  7.4877796496411E-03  5.5406402492008E-02
108  1.0700000000000E+00  5.9306868962598E-03  4.4177016972196E-02
109  1.0800000000000E+00  4.5908891206815E-03  3.3990884547663E-02
110  1.0900000000000E+00  3.4444497378119E-03  2.5015690009500E-02
111  1.1000000000000E+00  2.4705006272101E-03  1.7362927975184E-02
112  1.1100000000000E+00  1.6479199576982E-03  1.1087147740046E-02
113  1.1200000000000E+00  9.7930298193154E-04  6.2437241482450E-03
114  1.1300000000000E+00  4.7319511797119E-04  2.8306815936056E-03
115  1.1400000000000E+00  1.4177376355712E-04  7.8812052519942E-04
116  1.1500000000000E+00  5.3958933966330E-06  2.7353838369351E-05
117  1.1600000000000E+00  5.1453119262340E-07  2.6525766882714E-06
118  1.1700000000000E+00 -1.1565729250854E-07 -6.1858460850694E-07
119  1.18  0.  0.
120  1.19  0.  0.
121  1.20  0.  0.
122  1.21  0.  0.
123  1.22  0.  0.
124  1.23  0.  0.
125  1.24  0.  0.
126  1.25  0.  0.
127  1.26  0.  0.
128  1.27  0.  0.
129  1.28  0.  0.
130  1.29  0.  0.
131  1.30  0.  0.
132  1.31  0.  0.
133  1.32  0.  0.
134  1.33  0.  0.
135  1.34  0.  0.
136  1.35  0.  0.
137  1.36  0.  0.
138  1.37  0.  0.
139  1.38  0.  0.
140  1.39  0.  0.
141  1.40  0.  0.
142  1.41  0.  0.
143  1.42  0.  0.
144  1.43  0.  0.
145  1.44  0.  0.
146  1.45  0.  0.
147  1.46  0.  0.
148  1.47  0.  0.
149  1.48  0.  0.
150  1.49  0.  0.
151  1.50  0.  0.
152  1.51  0.  0.
153  1.52  0.  0.
154  1.53  0.  0.
155  1.54  0.  0.
156  1.55  0.  0.
157  1.56  0.  0.
158  1.57  0.  0.
159  1.58  0.  0.
160  1.59  0.  0.
161  1.60  0.  0.
162  1.61  0.  0.
163  1.62  0.  0.
164  1.63  0.  0.
165  1.64  0.  0.