Cn    ONCVPSP-4.0.1  r_core=   1.15172   1.15172   1.15172   1.15172
112.0000     52.0000      231012    zatom,zion,pspd
8   -1012   3     4   600     0    pspcod,pspxc,lmax,lloc,mmax,r2well
5.99000000  2.50000000  0.00000000    rchrg fchrg qchrg
3     3     3     2    nproj
3     1           extension_switch
4     4     4    nprojso
0                         1.6466781778623E+01 -6.8247993095095E+00  1.6516335731291E+00
1  0.0000000000000E+00  1.5826757904236E-08  3.1386732102234E-09  6.5048572361892E-08
2  1.0000000000000E-02  1.7964149511801E-01  6.7120999287114E-02  3.1002747740218E-02
3  2.0000000000000E-02  3.5769634823339E-01  1.3412859819029E-01  6.1352403059953E-02
4  3.0000000000000E-02  5.3259105661443E-01  2.0090906134677E-01  9.0398434543502E-02
5  4.0000000000000E-02  7.0277837214307E-01  2.6734800612382E-01  1.1749573185227E-01
6  5.0000000000000E-02  8.6675036423654E-01  3.3333013483635E-01  1.4200804561414E-01
7  6.0000000000000E-02  1.0230513929751E+00  3.9873903159504E-01  1.6331225208661E-01
8  7.0000000000000E-02  1.1702909423573E+00  4.6345704144029E-01  1.8080363593531E-01
9  8.0000000000000E-02  1.3071562477765E+00  5.2736524627810E-01  1.9390231942145E-01
10  9.0000000000000E-02  1.4324246337599E+00  5.9034354844512E-01  2.0206089083451E-01
11  1.0000000000000E-01  1.5449754587656E+00  6.5227086863147E-01  2.0477320267695E-01
12  1.1000000000000E-01  1.6438015445518E+00  7.1302546054069E-01  2.0158422478674E-01
13  1.2000000000000E-01  1.7280199494858E+00  7.7248534023277E-01  1.9210075335516E-01
14  1.3000000000000E-01  1.7968819293661E+00  8.3052882374800E-01  1.7600269774690E-01
15  1.4000000000000E-01  1.8497819169965E+00  8.8703516251159E-01  1.5305459707764E-01
16  1.5000000000000E-01  1.8862653439283E+00  9.4188526232752E-01  1.2311696124506E-01
17  1.6000000000000E-01  1.9060351253198E+00  9.9496246862197E-01  8.6156989622510E-02
18  1.7000000000000E-01  1.9089566324443E+00  1.0461533981089E+00  4.2258197366564E-02
19  1.8000000000000E-01  1.8950609874261E+00  1.0953487953124E+00 -8.3715240390251E-03
20  1.9000000000000E-01  1.8645465314894E+00  1.1424443914511E+00 -6.5393867916525E-02
21  2.0000000000000E-01  1.8177783412617E+00  1.1873417430975E+00 -1.2833651287966E-01
22  2.1000000000000E-01  1.7552856971116E+00  1.2299490287637E+00 -1.9659232224808E-01
23  2.2000000000000E-01  1.6777574424748E+00  1.2701817830900E+00 -2.6942162579764E-01
24  2.3000000000000E-01  1.5860352127395E+00  1.3079635505676E+00 -3.4595777560775E-01
25  2.4000000000000E-01  1.4811045554038E+00  1.3432264435924E+00 -4.2521606395703E-01
26  2.5000000000000E-01  1.3640840085908E+00  1.3759115930232E+00 -5.0610597913174E-01
27  2.6000000000000E-01  1.2362122511812E+00  1.4059694831451E+00 -5.8744665897760E-01
28  2.7000000000000E-01  1.0988334832865E+00  1.4333601668730E+00 -6.6798528661125E-01
29  2.8000000000000E-01  9.5338123901442E-01  1.4580533610111E+00 -7.4641806256759E-01
30  2.9000000000000E-01  8.0136087296632E-01  1.4800284252397E+00 -8.2141328729569E-01
31  3.0000000000000E-01  6.4433099627770E-01  1.4992742320947E+00 -8.9163600153972E-01
32  3.1000000000000E-01  4.8388416600663E-01  1.5157889383801E+00 -9.5577356344504E-01
33  3.2000000000000E-01  3.2162715226960E-01  1.5295796711003E+00 -1.0125614932570E+00
34  3.3000000000000E-01  1.5916111992020E-01  1.5406621430128E+00 -1.0608088914824E+00
35  3.4000000000000E-01 -1.9379347380575E-03  1.5490602142186E+00 -1.0994227357016E+00
36  3.5000000000000E-01 -1.6013815692666E-01  1.5548054167839E+00 -1.1274303852392E+00
37  3.6000000000000E-01 -3.1396989478491E-01  1.5579364592270E+00 -1.1439996710103E+00
38  3.7000000000000E-01 -4.6204255029304E-01  1.5584987268186E+00 -1.1484560184556E+00
39  3.8000000000000E-01 -6.0305995087150E-01  1.5565437921097E+00 -1.1402961420521E+00
40  3.9000000000000E-01 -7.3583400949472E-01  1.5521289479924E+00 -1.1191979570756E+00
41  4.0000000000000E-01 -8.5929648328340E-01  1.5453167730263E+00 -1.0850264740579E+00
42  4.1000000000000E-01 -9.7250868668543E-01  1.5361747358686E+00 -1.0378355691306E+00
43  4.2000000000000E-01 -1.0746690639824E+00  1.5247748425568E+00 -9.7786565426151E-01
44  4.3000000000000E-01 -1.1651185753521E+00  1.5111933272760E+00 -9.0553740016978E-01
45  4.4000000000000E-01 -1.2433438994680E+00  1.4955103842348E+00 -8.2144178648163E-01
46  4.5000000000000E-01 -1.3089785020574E+00  1.4778099355317E+00 -7.2632686369724E-01
47  4.6000000000000E-01 -1.3618016625523E+00  1.4581794275364E+00 -6.2108170557886E-01
48  4.7000000000000E-01 -1.4017355886716E+00  1.4367096464568E+00 -5.0671810504242E-01
49  4.8000000000000E-01 -1.4288407804633E+00  1.4134945424939E+00 -3.8435061880772E-01
50  4.9000000000000E-01 -1.4433098302234E+00  1.3886310513662E+00 -2.5517559412615E-01
51  5.0000000000000E-01 -1.4454598623410E+00  1.3622189020282E+00 -1.2044981408060E-01
52  5.1000000000000E-01 -1.4357238273206E+00  1.3343604001216E+00  1.8530623470741E-02
53  5.2000000000000E-01 -1.4146408671506E+00  1.3051601780286E+00  1.6045062293066E-01
54  5.3000000000000E-01 -1.3828459652699E+00  1.2747249042879E+00  3.0399509923009E-01
55  5.4000000000000E-01 -1.3410590843280E+00  1.2431629474732E+00  4.4786625592633E-01
56  5.5000000000000E-01 -1.2900739796996E+00  1.2105839923146E+00  5.9079880882123E-01
57  5.6000000000000E-01 -1.2307468574120E+00  1.1770986087177E+00  7.3157293707998E-01
58  5.7000000000000E-01 -1.1639850230395E+00  1.1428177772572E+00  8.6902485441381E-01
59  5.8000000000000E-01 -1.0907356445202E+00  1.1078523775431E+00  1.0020550027082E+00
60  5.9000000000000E-01 -1.0119747280856E+00  1.0723126484211E+00  1.1296339745692E+00
61  6.0000000000000E-01 -9.2869638380630E-01  1.0363076311540E+00  1.2508063649716E+00
62  6.1000000000000E-01 -8.4190243677299E-01  9.9994460839545E-01  1.3646928314117E+00
63  6.2000000000000E-01 -7.5259242260754E-01  9.6332855284825E-01  1.4704907033005E+00
64  6.3000000000000E-01 -6.6175399253164E-01  9.2656159989915E-01  1.5674735222784E+00
65  6.4000000000000E-01 -5.7035374408562E-01  8.8974255823965E-01  1.6549899141902E+00
66  6.5000000000000E-01 -4.7932848894684E-01  8.5296647149917E-01  1.7324621902039E+00
67  6.6000000000000E-01 -3.8957696903569E-01  8.1632424228557E-01  1.7993850496772E+00
68  6.7000000000000E-01 -3.0195203581950E-01  7.7990232781654E-01  1.8553247126020E+00
69  6.8000000000000E-01 -2.1725331477360E-01  7.4378251363982E-01  1.8999187475334E+00
70  6.9000000000000E-01 -1.3622038646064E-01  7.0804176891111E-01  1.9328767854100E+00
71  7.0000000000000E-01 -5.9526526594385E-02  6.7275218347712E-01  1.9539822248496E+00
72  7.1000000000000E-01  1.2226941395005E-02  6.3798098376015E-01  1.9630949450809E+00
73  7.2000000000000E-01  7.8515617587253E-02  6.0379062132869E-01  1.9601549535710E+00
74  7.3000000000000E-01  1.3889624883000E-01  5.7023892522952E-01  1.9451868115416E+00
75  7.4000000000000E-01  1.9301012743474E-01  5.3737930680035E-01  1.9183046065186E+00
76  7.5000000000000E-01  2.4058558801065E-01  5.0526100390901E-01  1.8797171808809E+00
77  7.6000000000000E-01  2.8143952923842E-01  4.7392935047434E-01  1.8297332823269E+00
78  7.7000000000000E-01  3.1547789668483E-01  4.4342605677970E-01  1.7687662784986E+00
79  7.8000000000000E-01  3.4269507731656E-01  4.1378948651542E-01  1.6973380748208E+00
80  7.9000000000000E-01  3.6317217588302E-01  3.8505491765900E-01  1.6160818917166E+00
81  8.0000000000000E-01  3.7707416712741E-01  3.5725477615314E-01  1.5257435932336E+00
82  8.1000000000000E-01  3.8464594480019E-01  3.3041883375550E-01  1.4271813108632E+00
83  8.2000000000000E-01  3.8620731728145E-01  3.0457436425127E-01  1.3213631697567E+00
84  8.3000000000000E-01  3.8214702853659E-01  2.7974625523859E-01  1.2093629942266E+00
85  8.4000000000000E-01  3.7291591012712E-01  2.5595707568201E-01  1.0923539388894E+00
86  8.5000000000000E-01  3.5901929284952E-01  2.3322710211607E-01  9.7160005373333E-01
87  8.6000000000000E-01  3.4100882290767E-01  2.1157430848556E-01  8.4844583777833E-01
88  8.7000000000000E-01  3.1947383489241E-01  1.9101432583529E-01  7.2430385850815E-01
89  8.8000000000000E-01  2.9503242979913E-01  1.7156037811322E-01  6.0064050437535E-01
90  8.9000000000000E-01  2.6832238849958E-01  1.5322319893538E-01  4.7895988710910E-01
91  9.0000000000000E-01  2.3999201728135E-01  1.3601093100611E-01  3.6078581132987E-01
92  9.1000000000000E-01  2.1069097029414E-01  1.1992900474184E-01  2.4764157383946E-01
93  9.2000000000000E-01  1.8106102226528E-01  1.0497998529248E-01  1.4102713742572E-01
94  9.3000000000000E-01  1.5172667228087E-01  9.1163367408796E-02  4.2392938700186E-02
95  9.4000000000000E-01  1.2328534471959E-01  7.8475285326111E-02 -4.6890767929885E-02
96  9.5000000000000E-01  9.6296815893468E-02  6.6908089925399E-02 -1.2557056063691E-01
97  9.6000000000000E-01  7.1271334255448E-02  5.6449727835477E-02 -1.9255453504484E-01
98  9.7000000000000E-01  4.8655718291743E-02  4.7082836850423E-02 -2.4696765087043E-01
99  9.8000000000000E-01  2.8816509650123E-02  3.8783449066571E-02 -2.8822103213086E-01
100  9.9000000000000E-01  1.2019028810350E-02  3.1519167416826E-02 -3.1609926050881E-01
101  1.0000000000000E+00 -1.5990083799329E-03  2.5246658900117E-02 -3.3087022207788E-01
102  1.0100000000000E+00 -1.2060322009579E-02  1.9908334339209E-02 -3.3342007216739E-01
103  1.0200000000000E+00 -1.9545763951093E-02  1.5432191927328E-02 -3.2521511775581E-01
104  1.0300000000000E+00 -2.4321737371903E-02  1.1738770744678E-02 -3.0794529723068E-01
105  1.0400000000000E+00 -2.6709179651108E-02  8.7447684421126E-03 -2.8339094455776E-01
106  1.0500000000000E+00 -2.7070014933676E-02  6.3650418725807E-03 -2.5337874462954E-01
107  1.0600000000000E+00 -2.5792988807779E-02  4.5146049153929E-03 -2.1973650266937E-01
108  1.0700000000000E+00 -2.3279280114682E-02  3.1105817438430E-03 -1.8424780701208E-01
109  1.0800000000000E+00 -1.9928287242095E-02  2.0740655725621E-03 -1.4860776893925E-01
110  1.0900000000000E+00 -1.6124366381940E-02  1.3318739620027E-03 -1.1438193895167E-01
111  1.1000000000000E+00 -1.2203613967890E-02  8.1640056979612E-04 -8.2918418597191E-02
112  1.1100000000000E+00 -8.4186088848677E-03  4.6660794206151E-04 -5.5251968462189E-02
113  1.1200000000000E+00 -5.0823027830554E-03  2.4007841770697E-04 -3.2448379997796E-02
114  1.1300000000000E+00 -2.4549051186120E-03  1.0246798222096E-04 -1.5337030942392E-02
115  1.1400000000000E+00 -7.2459183640477E-04  2.7947680338458E-05 -4.4519299670319E-03
116  1.1500000000000E+00 -2.6740580630935E-05  9.9940392819138E-07 -1.6185332624139E-04
117  1.1600000000000E+00 -2.5704582883963E-06  9.4913203486890E-08 -1.5606849123550E-05
118  1.1700000000000E+00  5.8399212317066E-07 -2.2029673885310E-08  3.5685138188096E-06
119  1.18  0.  0.  0.
120  1.19  0.  0.  0.
121  1.20  0.  0.  0.
122  1.21  0.  0.  0.
123  1.22  0.  0.  0.
124  1.23  0.  0.  0.
125  1.24  0.  0.  0.
126  1.25  0.  0.  0.
127  1.26  0.  0.  0.
128  1.27  0.  0.  0.
129  1.28  0.  0.  0.
130  1.29  0.  0.  0.
131  1.30  0.  0.  0.
132  1.31  0.  0.  0.
133  1.32  0.  0.  0.
134  1.33  0.  0.  0.
135  1.34  0.  0.  0.
136  1.35  0.  0.  0.
137  1.36  0.  0.  0.
138  1.37  0.  0.  0.
139  1.38  0.  0.  0.
140  1.39  0.  0.  0.
141  1.40  0.  0.  0.
142  1.41  0.  0.  0.
143  1.42  0.  0.  0.
144  1.43  0.  0.  0.
145  1.44  0.  0.  0.
146  1.45  0.  0.  0.
147  1.46  0.  0.  0.
148  1.47  0.  0.  0.
149  1.48  0.  0.  0.
150  1.49  0.  0.  0.
151  1.50  0.  0.  0.
152  1.51  0.  0.  0.
153  1.52  0.  0.  0.
154  1.53  0.  0.  0.
155  1.54  0.  0.  0.
156  1.55  0.  0.  0.
157  1.56  0.  0.  0.
158  1.57  0.  0.  0.
159  1.58  0.  0.  0.
160  1.59  0.  0.  0.
161  1.60  0.  0.  0.
162  1.61  0.  0.  0.
163  1.62  0.  0.  0.
164  1.63  0.  0.  0.
165  1.64  0.  0.  0.
166  1.65  0.  0.  0.
167  1.66  0.  0.  0.
168  1.67  0.  0.  0.
169  1.68  0.  0.  0.
170  1.69  0.  0.  0.
171  1.70  0.  0.  0.
172  1.71  0.  0.  0.
173  1.72  0.  0.  0.
174  1.73  0.  0.  0.
175  1.74  0.  0.  0.
176  1.75  0.  0.  0.
177  1.76  0.  0.  0.
178  1.77  0.  0.  0.
179  1.78  0.  0.  0.
180  1.79  0.  0.  0.
181  1.80  0.  0.  0.
182  1.81  0.  0.  0.
183  1.82  0.  0.  0.
184  1.83  0.  0.  0.
185  1.84  0.  0.  0.
186  1.85  0.  0.  0.
187  1.86  0.  0.  0.
188  1.87  0.  0.  0.
189  1.88  0.  0.  0.
190  1.89  0.  0.  0.
191  1.90  0.  0.  0.
192  1.91  0.  0.  0.
193  1.92  0.  0.  0.
194  1.93  0.  0.  0.
195  1.94  0.  0.  0.
196  1.95  0.  0.  0.
197  1.96  0.  0.  0.
198  1.97  0.  0.  0.
199  1.98  0.  0.  0.
200  1.99  0.  0.  0.
201  2.00  0.  0.  0.
202  2.01  0.  0.  0.
203  2.02  0.  0.  0.
204  2.03  0.  0.  0.
205  2.04  0.  0.  0.
206  2.05  0.  0.  0.
207  2.06  0.  0.  0.
208  2.07  0.  0.  0.
209  2.08  0.  0.  0.
210  2.09  0.  0.  0.
211  2.10  0.  0.  0.
212  2.11  0.  0.  0.
213  2.12  0.  0.  0.
214  2.13  0.  0.  0.
215  2.14  0.  0.  0.
216  2.15  0.  0.  0.
217  2.16  0.  0.  0.
218  2.17  0.  0.  0.
219  2.18  0.  0.  0.
220  2.19  0.  0.  0.
221  2.20  0.  0.  0.
222  2.21  0.  0.  0.
223  2.22  0.  0.  0.
224  2.23  0.  0.  0.
225  2.24  0.  0.  0.
226  2.25  0.  0.  0.
227  2.26  0.  0.  0.
228  2.27  0.  0.  0.
229  2.28  0.  0.  0.
230  2.29  0.  0.  0.
231  2.30  0.  0.  0.
232  2.31  0.  0.  0.
233  2.32  0.  0.  0.
234  2.33  0.  0.  0.
235  2.34  0.  0.  0.
236  2.35  0.  0.  0.
237  2.36  0.  0.  0.
238  2.37  0.  0.  0.
239  2.38  0.  0.  0.
240  2.39  0.  0.  0.
241  2.40  0.  0.  0.
242  2.41  0.  0.  0.
243  2.42  0.  0.  0.
244  2.43  0.  0.  0.
245  2.44  0.  0.  0.
246  2.45  0.  0.  0.
247  2.46  0.  0.  0.
248  2.47  0.  0.  0.
249  2.48  0.  0.  0.
250  2.49  0.  0.  0.
251  2.50  0.  0.  0.
252  2.51  0.  0.  0.
253  2.52  0.  0.  0.
254  2.53  0.  0.  0.
255  2.54  0.  0.  0.
256  2.55  0.  0.  0.
257  2.56  0.  0.  0.
258  2.57  0.  0.  0.
259  2.58  0.  0.  0.
260  2.59  0.  0.  0.
261  2.60  0.  0.  0.
262  2.61  0.  0.  0.
263  2.62  0.  0.  0.
264  2.63  0.  0.  0.
265  2.64  0.  0.  0.
266  2.65  0.  0.  0.
267  2.66  0.  0.  0.
268  2.67  0.  0.  0.
269  2.68  0.  0.  0.
270  2.69  0.  0.  0.
271  2.70  0.  0.  0.
272  2.71  0.  0.  0.
273  2.72  0.  0.  0.
274  2.73  0.  0.  0.
275  2.74  0.  0.  0.
276  2.75  0.  0.  0.
277  2.76  0.  0.  0.
278  2.77  0.  0.  0.
279  2.78  0.  0.  0.
280  2.79  0.  0.  0.
281  2.80  0.  0.  0.
282  2.81  0.  0.  0.
283  2.82  0.  0.  0.
284  2.83  0.  0.  0.
285  2.84  0.  0.  0.
286  2.85  0.  0.  0.
287  2.86  0.  0.  0.
288  2.87  0.  0.  0.
289  2.88  0.  0.  0.
290  2.89  0.  0.  0.
291  2.90  0.  0.  0.
292  2.91  0.  0.  0.
293  2.92  0.  0.  0.
294  2.93  0.  0.  0.
295  2.94  0.  0.  0.
296  2.95  0.  0.  0.
297  2.96  0.  0.  0.
298  2.97  0.  0.  0.
299  2.98  0.  0.  0.
300  2.99  0.  0.  0.
301  3.00  0.  0.  0.
302  3.01  0.  0.  0.
303  3.02  0.  0.  0.
304  3.03  0.  0.  0.
305  3.04  0.  0.  0.
306  3.05  0.  0.  0.
307  3.06  0.  0.  0.
308  3.07  0.  0.  0.
309  3.08  0.  0.  0.
310  3.09  0.  0.  0.
311  3.10  0.  0.  0.
312  3.11  0.  0.  0.
313  3.12  0.  0.  0.
314  3.13  0.  0.  0.
315  3.14  0.  0.  0.
316  3.15  0.  0.  0.
317  3.16  0.  0.  0.
318  3.17  0.  0.  0.
319  3.18  0.  0.  0.
320  3.19  0.  0.  0.
321  3.20  0.  0.  0.
322  3.21  0.  0.  0.
323  3.22  0.  0.  0.
324  3.23  0.  0.  0.
325  3.24  0.  0.  0.
326  3.25  0.  0.  0.
327  3.26  0.  0.  0.
328  3.27  0.  0.  0.
329  3.28  0.  0.  0.
330  3.29  0.  0.  0.
331  3.30  0.  0.  0.
332  3.31  0.  0.  0.
333  3.32  0.  0.  0.
334  3.33  0.  0.  0.
335  3.34  0.  0.  0.
336  3.35  0.  0.  0.
337  3.36  0.  0.  0.
338  3.37  0.  0.  0.
339  3.38  0.  0.  0.
340  3.39  0.  0.  0.
341  3.40  0.  0.  0.
342  3.41  0.  0.  0.
343  3.42  0.  0.  0.
344  3.43  0.  0.  0.
345  3.44  0.  0.  0.
346  3.45  0.  0.  0.
347  3.46  0.  0.  0.
348  3.47  0.  0.  0.
349  3.48  0.  0.  0.
350  3.49  0.  0.  0.
351  3.50  0.  0.  0.
352  3.51  0.  0.  0.
353  3.52  0.  0.  0.
354  3.53  0.  0.  0.
355  3.54  0.  0.  0.
356  3.55  0.  0.  0.
357  3.56  0.  0.  0.
358  3.57  0.  0.  0.
359  3.58  0.  0.  0.
360  3.59  0.  0.  0.
361  3.60  0.  0.  0.
362  3.61  0.  0.  0.
363  3.62  0.  0.  0.
364  3.63  0.  0.  0.
365  3.64  0.  0.  0.
366  3.65  0.  0.  0.
367  3.66  0.  0.  0.
368  3.67  0.  0.  0.
369  3.68  0.  0.  0.
370  3.69  0.  0.  0.
371  3.70  0.  0.  0.
372  3.71  0.  0.  0.
373  3.72  0.  0.  0.
374  3.73  0.  0.  0.
375  3.74  0.  0.  0.
376  3.75  0.  0.  0.
377  3.76  0.  0.  0.
378  3.77  0.  0.  0.
379  3.78  0.  0.  0.
380  3.79  0.  0.  0.
381  3.80  0.  0.  0.
382  3.81  0.  0.  0.
383  3.82  0.  0.  0.
384  3.83  0.  0.  0.
385  3.84  0.  0.  0.
386  3.85  0.  0.  0.
387  3.86  0.  0.  0.
388  3.87  0.  0.  0.
389  3.88  0.  0.  0.
390  3.89  0.  0.  0.
391  3.90  0.  0.  0.
392  3.91  0.  0.  0.
393  3.92  0.  0.  0.
394  3.93  0.  0.  0.
395  3.94  0.  0.  0.
396  3.95  0.  0.  0.
397  3.96  0.  0.  0.
398  3.97  0.  0.  0.
399  3.98  0.  0.  0.
400  3.99  0.  0.  0.
401  4.00  0.  0.  0.
402  4.01  0.  0.  0.
403  4.02  0.  0.  0.
404  4.03  0.  0.  0.
405  4.04  0.  0.  0.
406  4.05  0.  0.  0.
407  4.06  0.  0.  0.
408  4.07  0.  0.  0.
409  4.08  0.  0.  0.
410  4.09  0.  0.  0.
411  4.10  0.  0.  0.
412  4.11  0.  0.  0.
413  4.12  0.  0.  0.
414  4.13  0.  0.  0.
415  4.14  0.  0.  0.
416  4.15  0.  0.  0.
417  4.16  0.  0.  0.
418  4.17  0.  0.  0.
419  4.18  0.  0.  0.
420  4.19  0.  0.  0.
421  4.20  0.  0.  0.
422  4.21  0.  0.  0.
423  4.22  0.  0.  0.
424  4.23  0.  0.  0.
425  4.24  0.  0.  0.
426  4.25  0.  0.  0.
427  4.26  0.  0.  0.
428  4.27  0.  0.  0.
429  4.28  0.  0.  0.
430  4.29  0.  0.  0.
431  4.30  0.  0.  0.
432  4.31  0.  0.  0.
433  4.32  0.  0.  0.
434  4.33  0.  0.  0.
435  4.34  0.  0.  0.
436  4.35  0.  0.  0.
437  4.36  0.  0.  0.
438  4.37  0.  0.  0.
439  4.38  0.  0.  0.
440  4.39  0.  0.  0.
441  4.40  0.  0.  0.
442  4.41  0.  0.  0.
443  4.42  0.  0.  0.
444  4.43  0.  0.  0.
445  4.44  0.  0.  0.
446  4.45  0.  0.  0.
447  4.46  0.  0.  0.
448  4.47  0.  0.  0.
449  4.48  0.  0.  0.
450  4.49  0.  0.  0.
451  4.50  0.  0.  0.
452  4.51  0.  0.  0.
453  4.52  0.  0.  0.
454  4.53  0.  0.  0.
455  4.54  0.  0.  0.
456  4.55  0.  0.  0.
457  4.56  0.  0.  0.
458  4.57  0.  0.  0.
459  4.58  0.  0.  0.
460  4.59  0.  0.  0.
461  4.60  0.  0.  0.
462  4.61  0.  0.  0.
463  4.62  0.  0.  0.
464  4.63  0.  0.  0.
465  4.64  0.  0.  0.
466  4.65  0.  0.  0.
467  4.66  0.  0.  0.
468  4.67  0.  0.  0.
469  4.68  0.  0.  0.
470  4.69  0.  0.  0.
471  4.70  0.  0.  0.
472  4.71  0.  0.  0.
473  4.72  0.  0.  0.
474  4.73  0.  0.  0.
475  4.74  0.  0.  0.
476  4.75  0.  0.  0.
477  4.76  0.  0.  0.
478  4.77  0.  0.  0.
479  4.78  0.  0.  0.
480  4.79  0.  0.  0.
481  4.80  0.  0.  0.
482  4.81  0.  0.  0.
483  4.82  0.  0.  0.
484  4.83  0.  0.  0.
485  4.84  0.  0.  0.
486  4.85  0.  0.  0.
487  4.86  0.  0.  0.
488  4.87  0.  0.  0.
489  4.88  0.  0.  0.
490  4.89  0.  0.  0.
491  4.90  0.  0.  0.
492  4.91  0.  0.  0.
493  4.92  0.  0.  0.
494  4.93  0.  0.  0.
495  4.94  0.  0.  0.
496  4.95  0.  0.  0.
497  4.96  0.  0.  0.
498  4.97  0.  0.  0.
499  4.98  0.  0.  0.
500  4.99  0.  0.  0.
501  5.00  0.  0.  0.
502  5.01  0.  0.  0.
503  5.02  0.  0.  0.
504  5.03  0.  0.  0.
505  5.04  0.  0.  0.
506  5.05  0.  0.  0.
507  5.06  0.  0.  0.
508  5.07  0.  0.  0.
509  5.08  0.  0.  0.
510  5.09  0.  0.  0.
511  5.10  0.  0.  0.
512  5.11  0.  0.  0.
513  5.12  0.  0.  0.
514  5.13  0.  0.  0.
515  5.14  0.  0.  0.
516  5.15  0.  0.  0.
517  5.16  0.  0.  0.
518  5.17  0.  0.  0.
519  5.18  0.  0.  0.
520  5.19  0.  0.  0.
521  5.20  0.  0.  0.
522  5.21  0.  0.  0.
523  5.22  0.  0.  0.
524  5.23  0.  0.  0.
525  5.24  0.  0.  0.
526  5.25  0.  0.  0.
527  5.26  0.  0.  0.
528  5.27  0.  0.  0.
529  5.28  0.  0.  0.
530  5.29  0.  0.  0.
531  5.30  0.  0.  0.
532  5.31  0.  0.  0.
533  5.32  0.  0.  0.
534  5.33  0.  0.  0.
535  5.34  0.  0.  0.
536  5.35  0.  0.  0.
537  5.36  0.  0.  0.
538  5.37  0.  0.  0.
539  5.38  0.  0.  0.
540  5.39  0.  0.  0.
541  5.40  0.  0.  0.
542  5.41  0.  0.  0.
543  5.42  0.  0.  0.
544  5.43  0.  0.  0.
545  5.44  0.  0.  0.
546  5.45  0.  0.  0.
547  5.46  0.  0.  0.
548  5.47  0.  0.  0.
549  5.48  0.  0.  0.
550  5.49  0.  0.  0.
551  5.50  0.  0.  0.
552  5.51  0.  0.  0.
553  5.52  0.  0.  0.
554  5.53  0.  0.  0.
555  5.54  0.  0.  0.
556  5.55  0.  0.  0.
557  5.56  0.  0.  0.
558  5.57  0.  0.  0.
559  5.58  0.  0.  0.
560  5.59  0.  0.  0.
561  5.60  0.  0.  0.
562  5.61  0.  0.  0.
563  5.62  0.  0.  0.
564  5.63  0.  0.  0.
565  5.64  0.  0.  0.
566  5.65  0.  0.  0.
567  5.66  0.  0.  0.
568  5.67  0.  0.  0.
569  5.68  0.  0.  0.
570  5.69  0.  0.  0.
571  5.70  0.  0.  0.
572  5.71  0.  0.  0.
573  5.72  0.  0.  0.
574  5.73  0.  0.  0.
575  5.74  0.  0.  0.
576  5.75  0.  0.  0.
577  5.76  0.  0.  0.
578  5.77  0.  0.  0.
579  5.78  0.  0.  0.
580  5.79  0.  0.  0.
581  5.80  0.  0.  0.
582  5.81  0.  0.  0.
583  5.82  0.  0.  0.
584  5.83  0.  0.  0.
585  5.84  0.  0.  0.
586  5.85  0.  0.  0.
587  5.86  0.  0.  0.
588  5.87  0.  0.  0.
589  5.88  0.  0.  0.
590  5.89  0.  0.  0.
591  5.90  0.  0.  0.
592  5.91  0.  0.  0.
593  5.92  0.  0.  0.
594  5.93  0.  0.  0.
595  5.94  0.  0.  0.
596  5.95  0.  0.  0.
597  5.96  0.  0.  0.
598  5.97  0.  0.  0.
599  5.98  0.  0.  0.
600  5.99  0.  0.  0.
1                        -6.3664602270764E+00  3.6564860959336E+00 -2.1703011791564E-01
1  0.0000000000000E+00 -5.3314232056900E-09  3.3526322162913E-08  9.8207011245410E-08
2  1.0000000000000E-02  1.5889398015557E-03  6.8541228538218E-03  6.1690236980331E-03
3  2.0000000000000E-02  6.3553466799000E-03  2.7318016942244E-02  2.4532821628087E-02
4  3.0000000000000E-02  1.4297850749128E-02  6.1097612389209E-02  5.4664494480804E-02
5  4.0000000000000E-02  2.5413730991639E-02  1.0770728582626E-01  9.5862219082886E-02
6  5.0000000000000E-02  3.9698269405051E-02  1.6647653476296E-01  1.4716355915296E-01
7  6.0000000000000E-02  5.7143868503696E-02  2.3655919206060E-01  2.0736509905155E-01
8  7.0000000000000E-02  7.7738953358214E-02  3.1694505292941E-01  2.7504700894567E-01
9  8.0000000000000E-02  1.0146668468821E-01  4.0647375334270E-01  3.4860205160148E-01
10  9.0000000000000E-02  1.2830351433217E-01  5.0385070738426E-01  4.2626845267630E-01
11  1.0000000000000E-01  1.5821761861021E-01  6.0766488224577E-01  5.0616597967558E-01
12  1.1000000000000E-01  1.9116724858432E-01  7.1640816376971E-01  5.8633451120043E-01
13  1.2000000000000E-01  2.2709903893693E-01  8.2849604295399E-01  6.6477432899936E-01
14  1.3000000000000E-01  2.6594631907508E-01  9.4228933502550E-01  7.3948733161696E-01
15  1.4000000000000E-01  3.0762747108285E-01  1.0561166278323E+00  8.0851835075436E-01
16  1.5000000000000E-01  3.5204437926620E-01  1.1682971456332E+00  8.6999575014157E-01
17  1.6000000000000E-01  3.9908101525141E-01  1.2771637080615E+00  9.2217050176080E-01
18  1.7000000000000E-01  4.4860220092381E-01  1.3810854622348E+00  9.6345296530828E-01
19  1.8000000000000E-01  5.0045258895083E-01  1.4784900687380E+00  9.9244664317414E-01
20  1.9000000000000E-01  5.5445589726736E-01  1.5678850295370E+00  1.0079782439771E+00
21  2.0000000000000E-01  6.1041442976996E-01  1.6478778577185E+00  1.0091234615525E+00
22  2.1000000000000E-01  6.6810891064278E-01  1.7171948051845E+00  9.9522796172895E-01
23  2.2000000000000E-01  7.2729865430942E-01  1.7746978848668E+00  9.6592316449171E-01
24  2.3000000000000E-01  7.8772208706940E-01  1.8193999484177E+00  9.2113651227324E-01
25  2.4000000000000E-01  8.4909763014424E-01  1.8504776083656E+00  8.6109602403489E-01
26  2.5000000000000E-01  9.1112494724305E-01  1.8672818250241E+00  7.8632904731264E-01
27  2.6000000000000E-01  9.7348655298329E-01  1.8693460125819E+00  6.9765523422341E-01
28  2.7000000000000E-01  1.0358497716950E+00  1.8563915552902E+00  5.9617388029222E-01
29  2.8000000000000E-01  1.0978690294240E+00  1.8283306629915E+00  4.8324587461680E-01
30  2.9000000000000E-01  1.1591884554576E+00  1.7852665348078E+00  3.6047061416529E-01
31  3.0000000000000E-01  1.2194447635471E+00  1.7274908400587E+00  2.2965833185776E-01
32  3.1000000000000E-01  1.2782703773129E+00  1.6554785657560E+00  9.2798375627055E-02
33  3.2000000000000E-01  1.3352967592005E+00  1.5698803197228E+00 -4.7975947796399E-02
34  3.3000000000000E-01  1.3901578979025E+00  1.4715122168386E+00 -1.9042528653094E-01
35  3.4000000000000E-01  1.4424939054690E+00  1.3613435125216E+00 -3.3224418631846E-01
36  3.5000000000000E-01  1.4919546724606E+00  1.2404821816880E+00 -4.7110229821876E-01
37  3.6000000000000E-01  1.5382035275171E+00  1.1101586725126E+00 -6.0468606627337E-01
38  3.7000000000000E-01  1.5809208466666E+00  9.7170809181013E-01 -7.3074010491213E-01
39  3.8000000000000E-01  1.6198075575979E+00  8.2655110227345E-01 -8.4710748605635E-01
40  3.9000000000000E-01  1.6545884849835E+00  6.7617383072158E-01 -9.5176818119067E-01
41  4.0000000000000E-01  1.6850154847519E+00  5.2210710057440E-01 -1.0428749435094E+00
42  4.1000000000000E-01  1.7108703179405E+00  3.6590531070275E-01 -1.1187859686919E+00
43  4.2000000000000E-01  1.7319672183703E+00  2.0912528642191E-01 -1.1780937387545E+00
44  4.3000000000000E-01  1.7481551128031E+00  5.3305426603937E-02 -1.2196495303582E+00
45  4.4000000000000E-01  1.7593194574026E+00 -1.0005453631644E-01 -1.2425831553127E+00
46  4.5000000000000E-01  1.7653836601220E+00 -2.4951285917833E-01 -1.2463175950198E+00
47  4.6000000000000E-01  1.7663100649817E+00 -3.9370390713165E-01 -1.2305782903303E+00
48  4.7000000000000E-01  1.7621004809768E+00 -5.3135480467252E-01 -1.1953969517349E+00
49  4.8000000000000E-01  1.7527962454263E+00 -6.6130038134738E-01 -1.1411098599097E+00
50  4.9000000000000E-01  1.7384778188341E+00 -7.8249620562738E-01 -1.0683507313190E+00
51  5.0000000000000E-01  1.7192639156337E+00 -8.9402953469600E-01 -9.7803832580765E-01
52  5.1000000000000E-01  1.6953101824117E+00 -9.9512804492543E-01 -8.7135907092074E-01
53  5.2000000000000E-01  1.6668074422105E+00 -1.0851662469654E+00 -7.4974506922855E-01
54  5.3000000000000E-01  1.6339795301852E+00 -1.1636695299143E+00 -6.1484793849697E-01
55  5.4000000000000E-01  1.5970807521026E+00 -1.2303158202373E+00 -4.6850900861475E-01
56  5.5000000000000E-01  1.5563930028258E+00 -1.2849348821768E+00 -3.1272646245194E-01
57  5.6000000000000E-01  1.5122225869174E+00 -1.3275053266077E+00 -1.4962005920322E-01
58  5.7000000000000E-01  1.4648967877396E+00 -1.3581494338716E+00  1.8605882564869E-02
59  5.8000000000000E-01  1.4147602348612E+00 -1.3771259323779E+00  1.8970053955432E-01
60  5.9000000000000E-01  1.3621711221399E+00 -1.3848209080085E+00  3.6140496163877E-01
61  6.0000000000000E-01  1.3074973305092E+00 -1.3817370490099E+00  5.3149006037986E-01
62  6.1000000000000E-01  1.2511125102273E+00 -1.3684814565655E+00  6.9779351063553E-01
63  6.2000000000000E-01  1.1933921771549E+00 -1.3457522721696E+00  8.5825489571808E-01
64  6.3000000000000E-01  1.1347098765297E+00 -1.3143243889123E+00  1.0109484666539E+00
65  6.4000000000000E-01  1.0754334657297E+00 -1.2750345245883E+00  1.1541129373496E+00
66  6.5000000000000E-01  1.0159215647194E+00 -1.2287659400026E+00  1.2861777987333E+00
67  6.6000000000000E-01  9.5652021931900E-01 -1.1764330859326E+00  1.4057857049023E+00
68  6.7000000000000E-01  8.9755981819904E-01 -1.1189664569702E+00  1.5118105615333E+00
69  6.8000000000000E-01  8.3935229967755E-01 -1.0572979200860E+00  1.6033710297586E+00
70  6.9000000000000E-01  7.8218867908280E-01 -9.9234677049053E-01  1.6798392457906E+00
71  7.0000000000000E-01  7.2633692174426E-01 -9.2500674755783E-01  1.7408446461762E+00
72  7.1000000000000E-01  6.7204018070477E-01 -8.5613421967363E-01  1.7862728790792E+00
73  7.2000000000000E-01  6.1951541211673E-01 -7.8653771934411E-01  1.8162598718897E+00
74  7.3000000000000E-01  5.6895237511023E-01 -7.1696897932309E-01  1.8311812132762E+00
75  7.4000000000000E-01  5.2051301681050E-01 -6.4811558745532E-01  1.8316370922064E+00
76  7.5000000000000E-01  4.7433123724038E-01 -5.8059534300457E-01  1.8184331162652E+00
77  7.6000000000000E-01  4.3051302316833E-01 -5.1495236104953E-01  1.7925574057858E+00
78  7.7000000000000E-01  3.8913693464225E-01 -4.5165493469119E-01  1.7551544280473E+00
79  7.8000000000000E-01  3.5025492305807E-01 -3.9109512789623E-01  1.7074960964725E+00
80  7.9000000000000E-01  3.1389345521627E-01 -3.3359003534563E-01  1.6509507129574E+00
81  8.0000000000000E-01  2.8005491396670E-01 -2.7938461014515E-01  1.5869503770112E+00
82  8.1000000000000E-01  2.4871924276823E-01 -2.2865592610913E-01  1.5169575232965E+00
83  8.2000000000000E-01  2.1984579881472E-01 -1.8151870889739E-01  1.4424312796727E+00
84  8.3000000000000E-01  1.9337537730780E-01 -1.3803193983240E-01  1.3647943613969E+00
85  8.4000000000000E-01  1.6923236797967E-01 -9.8206307934890E-02  1.2854012343284E+00
86  8.5000000000000E-01  1.4732700406267E-01 -6.2012259681560E-02  1.2055082915853E+00
87  8.6000000000000E-01  1.2755766352914E-01 -2.9388372216237E-02  1.1262467950126E+00
88  8.7000000000000E-01  1.0981318253796E-01 -2.4975415783743E-04  1.0485993360414E+00
89  8.8000000000000E-01  9.3975141563592E-02  2.5503841416380E-02  9.7338057112733E-01
90  8.9000000000000E-01  7.9920085583681E-02  4.7980525004260E-02  9.0122298608199E-01
91  9.0000000000000E-01  6.7521640889760E-02  6.7289749196126E-02  8.3256844238606E-01
92  9.1000000000000E-01  5.6652492483724E-02  8.3537122270480E-02  7.6766625813710E-01
93  9.2000000000000E-01  4.7186187553392E-02  9.6820935837271E-02  7.0657857772145E-01
94  9.3000000000000E-01  3.8998732102612E-02  1.0723079953814E-01  6.4919378864132E-01
95  9.4000000000000E-01  3.1969949368772E-02  1.1484878995972E-01  5.9524875211969E-01
96  9.5000000000000E-01  2.5984570119546E-02  1.1975353560764E-01  5.4436062699589E-01
97  9.6000000000000E-01  2.0933026213961E-02  1.2202767545781E-01  4.9606908474949E-01
98  9.7000000000000E-01  1.6711919879836E-02  1.2176914564682E-01  4.4988973785578E-01
99  9.8000000000000E-01  1.3224141949556E-02  1.1910676766652E-01  4.0537963459053E-01