Ts    ONCVPSP-4.0.1  r_core=   1.40055   1.40055   1.45173   1.60713
117.0000     25.0000      231012    zatom,zion,pspd
8   -1012   3     4   600     0    pspcod,pspxc,lmax,lloc,mmax,r2well
5.99000000  5.00000000  0.00000000    rchrg fchrg qchrg
2     3     3     3    nproj
3     1           extension_switch
4     3     4    nprojso
0                         1.4270559392531E+01 -2.9844632412991E-01
1  0.0000000000000E+00  4.1738312805961E-10  9.8382935964647E-09
2  1.0000000000000E-02  8.1373494221353E-02  2.0425605208651E-02
3  2.0000000000000E-02  1.6256063851832E-01  4.0975264682448E-02
4  3.0000000000000E-02  2.4337536483641E-01  6.1767794597912E-02
5  4.0000000000000E-02  3.2363217305187E-01  8.2911656580051E-02
6  5.0000000000000E-02  4.0314642530481E-01  1.0450008189718E-01
7  6.0000000000000E-02  4.8173465246797E-01  1.2660655021193E-01
8  7.0000000000000E-02  5.5921487629420E-01  1.4928072922205E-01
9  8.0000000000000E-02  6.3540695036794E-01  1.7254497168616E-01
10  9.0000000000000E-02  7.1013292248089E-01  1.9639145442518E-01
11  1.0000000000000E-01  7.8321742046844E-01  2.2078003016858E-01
12  1.1000000000000E-01  8.5448806289468E-01  2.4563684786499E-01
13  1.2000000000000E-01  9.2377589527191E-01  2.7085378061891E-01
14  1.3000000000000E-01  9.9091585176113E-01  2.9628868309654E-01
15  1.4000000000000E-01  1.0557472415372E+00  3.2176648242680E-01
16  1.5000000000000E-01  1.1181142582323E+00  3.4708108868622E-01
17  1.6000000000000E-01  1.1778665101114E+00  3.7199809337540E-01
18  1.7000000000000E-01  1.2348595678932E+00  3.9625820724350E-01
19  1.8000000000000E-01  1.2889555264388E+00  4.1958137275838E-01
20  1.9000000000000E-01  1.3400235758804E+00  4.4167147179145E-01
21  2.0000000000000E-01  1.3879405771929E+00  4.6222153600253E-01
22  2.1000000000000E-01  1.4325916367131E+00  4.8091935624979E-01
23  2.2000000000000E-01  1.4738706737059E+00  4.9745337835059E-01
24  2.3000000000000E-01  1.5116809747736E+00  5.1151876587556E-01
25  2.4000000000000E-01  1.5459357287018E+00  5.2282350651334E-01
26  2.5000000000000E-01  1.5765585352476E+00  5.3109443699026E-01
27  2.6000000000000E-01  1.6034838814025E+00  5.3608306260205E-01
28  2.7000000000000E-01  1.6266575787958E+00  5.3757105109823E-01
29  2.8000000000000E-01  1.6460371561596E+00  5.3537528687625E-01
30  2.9000000000000E-01  1.6615922011291E+00  5.2935238006765E-01
31  3.0000000000000E-01  1.6733046461159E+00  5.1940253594963E-01
32  3.1000000000000E-01  1.6811689935400E+00  5.0547270296778E-01
33  3.2000000000000E-01  1.6851924763436E+00  4.8755893223768E-01
34  3.3000000000000E-01  1.6853951504182E+00  4.6570789739815E-01
35  3.4000000000000E-01  1.6818099163402E+00  4.4001754077622E-01
36  3.5000000000000E-01  1.6744824686218E+00  4.1063682963290E-01
37  3.6000000000000E-01  1.6634711715235E+00  3.7776462440883E-01
38  3.7000000000000E-01  1.6488468613314E+00  3.4164767899307E-01
39  3.8000000000000E-01  1.6306925758526E+00  3.0257781070834E-01
40  3.9000000000000E-01  1.6091032127235E+00  2.6088829456519E-01
41  4.0000000000000E-01  1.5841851189281E+00  2.1694955201890E-01
42  4.1000000000000E-01  1.5560556146863E+00  1.7116421863386E-01
43  4.2000000000000E-01  1.5248424555747E+00  1.2396168740839E-01
44  4.3000000000000E-01  1.4906832373737E+00  7.5792234775616E-02
45  4.4000000000000E-01  1.4537247486867E+00  2.7120844246099E-02
46  4.5000000000000E-01  1.4141222768431E+00 -2.1579151874879E-02
47  4.6000000000000E-01  1.3720388729620E+00 -6.9832489402409E-02
48  4.7000000000000E-01  1.3276445823268E+00 -1.1716832433075E-01
49  4.8000000000000E-01  1.2811156463859E+00 -1.6312639902843E-01
50  4.9000000000000E-01  1.2326336827638E+00 -2.0726290665874E-01
51  5.0000000000000E-01  1.1823848496326E+00 -2.4915594552317E-01
52  5.1000000000000E-01  1.1305590006672E+00 -2.8841046497056E-01
53  5.2000000000000E-01  1.0773488365907E+00 -3.2466261658319E-01
54  5.3000000000000E-01  1.0229490590193E+00 -3.5758343827209E-01
55  5.4000000000000E-01  9.6755553194686E-01 -3.8688181437708E-01
56  5.5000000000000E-01  9.1136445578068E-01 -4.1230667152878E-01
57  5.6000000000000E-01  8.5457155836432E-01 -4.3364838751452E-01
58  5.7000000000000E-01  7.9737130690929E-01 -4.5073940830301E-01
59  5.8000000000000E-01  7.3995614422557E-01 -4.6345408631979E-01
60  5.9000000000000E-01  6.8251575209887E-01 -4.7170777061597E-01
61  6.0000000000000E-01  6.2523634412663E-01 -4.7545519633618E-01
62  6.1000000000000E-01  5.6829998980807E-01 -4.7468823648112E-01
63  6.2000000000000E-01  5.1188397119715E-01 -4.6943309301181E-01
64  6.3000000000000E-01  4.5616017298369E-01 -4.5974701652978E-01
65  6.4000000000000E-01  4.0129450647636E-01 -4.4571465379782E-01
66  6.5000000000000E-01  3.4744636762972E-01 -4.2744412999952E-01
67  6.6000000000000E-01  2.9476812899333E-01 -4.0506297768203E-01
68  6.7000000000000E-01  2.4340466526785E-01 -3.7871402665626E-01
69  6.8000000000000E-01  1.9349291203395E-01 -3.4855136866994E-01
70  6.9000000000000E-01  1.4516145717463E-01 -3.1473650741730E-01
71  7.0000000000000E-01  9.8530164538577E-02 -2.7743479846303E-01
72  7.1000000000000E-01  5.3709829487369E-02 -2.3681227505765E-01
73  7.2000000000000E-01  1.0801866126287E-02 -1.9303294479263E-01
74  7.3000000000000E-01 -3.0101973770507E-02 -1.4625662882855E-01
75  7.4000000000000E-01 -6.8919849874329E-02 -9.6637400319426E-02
76  7.5000000000000E-01 -1.0558004990170E-01 -4.4322662000524E-02
77  7.6000000000000E-01 -1.4002117283647E-01  1.0547114917930E-02
78  7.7000000000000E-01 -1.7219227759564E-01  6.7837986986245E-02
79  7.8000000000000E-01 -2.0205299565070E-01  1.2742148520672E-01
80  7.9000000000000E-01 -2.2957360582868E-01  1.8917294626537E-01
81  8.0000000000000E-01 -2.5473506926313E-01  2.5296928055887E-01
82  8.1000000000000E-01 -2.7752902226074E-01  3.1868624640697E-01
83  8.2000000000000E-01 -2.9795772470524E-01  3.8619531551645E-01
84  8.3000000000000E-01 -3.1603396154830E-01  4.5536022857406E-01
85  8.4000000000000E-01 -3.3178089494771E-01  5.2603335143378E-01
86  8.5000000000000E-01 -3.4523186471336E-01  5.9805195140663E-01
87  8.6000000000000E-01 -3.5643013491739E-01  6.7123451939926E-01
88  8.7000000000000E-01 -3.6542858482023E-01  7.4537726687438E-01
89  8.8000000000000E-01 -3.7228934265929E-01  8.2025092668748E-01
90  8.9000000000000E-01 -3.7708336134050E-01  8.9559798372176E-01
91  9.0000000000000E-01 -3.7988993566038E-01  9.7113045490453E-01
92  9.1000000000000E-01 -3.8079616136069E-01  1.0465283287220E+00
93  9.2000000000000E-01 -3.7989633706908E-01  1.1214387619112E+00
94  9.3000000000000E-01 -3.7729131099605E-01  1.1954761158165E+00
95  9.4000000000000E-01 -3.7308777512632E-01  1.2682228972559E+00
96  9.5000000000000E-01 -3.6739751054485E-01  1.3392316489824E+00
97  9.6000000000000E-01 -3.6033658845690E-01  1.4080278133807E+00
98  9.7000000000000E-01 -3.5202453237798E-01  1.4741135703346E+00
99  9.8000000000000E-01 -3.4258344786324E-01  1.5369726267519E+00
100  9.9000000000000E-01 -3.3213712699615E-01  1.5960759115372E+00
101  1.0000000000000E+00 -3.2081013564282E-01  1.6508881063995E+00
102  1.0100000000000E+00 -3.0872689218017E-01  1.7008749203059E+00
103  1.0200000000000E+00 -2.9601074700449E-01  1.7455109941788E+00
104  1.0300000000000E+00 -2.8278307260403E-01  1.7842883030647E+00
105  1.0400000000000E+00 -2.6916237431786E-01  1.8167249059814E+00
106  1.0500000000000E+00 -2.5526343209099E-01  1.8423738794092E+00
107  1.0600000000000E+00 -2.4119648355967E-01  1.8608322592690E+00
108  1.0700000000000E+00 -2.2706645865390E-01  1.8717498086143E+00
109  1.0800000000000E+00 -2.1297227558026E-01  1.8748374243318E+00
110  1.0900000000000E+00 -1.9900620754520E-01  1.8698749961282E+00
111  1.1000000000000E+00 -1.8525332890123E-01  1.8567185350138E+00
112  1.1100000000000E+00 -1.7179104854551E-01  1.8353063964500E+00
113  1.1200000000000E+00 -1.5868873739003E-01  1.8056644351369E+00
114  1.1300000000000E+00 -1.4600745555622E-01  1.7679099440338E+00
115  1.1400000000000E+00 -1.3379978365281E-01  1.7222542492284E+00
116  1.1500000000000E+00 -1.2210976107901E-01  1.6690038545649E+00
117  1.1600000000000E+00 -1.1097293279353E-01  1.6085600548620E+00
118  1.1700000000000E+00 -1.0041650440806E-01  1.5414169639549E+00
119  1.1800000000000E+00 -9.0459603852287E-02  1.4681579327401E+00
120  1.1900000000000E+00 -8.1113646214122E-02  1.3894503628508E+00
121  1.2000000000000E+00 -7.2382796746102E-02  1.3060389523279E+00
122  1.2100000000000E+00 -6.4264525441937E-02  1.2187374406902E+00
123  1.2200000000000E+00 -5.6750245083543E-02  1.1284189509740E+00
124  1.2300000000000E+00 -4.9826023249208E-02  1.0360050553144E+00
125  1.2400000000000E+00 -4.3473357488269E-02  9.4245371782507E-01
126  1.2500000000000E+00 -3.7670001741456E-02  8.4874629309882E-01
127  1.2600000000000E+00 -3.2390831124812E-02  7.5587378044698E-01
128  1.2700000000000E+00 -2.7608731434625E-02  6.6482255219399E-01
129  1.2800000000000E+00 -2.3295499179295E-02  5.7655978869778E-01
130  1.2900000000000E+00 -1.9422737613863E-02  4.9201886300405E-01
131  1.3000000000000E+00 -1.5962734159503E-02  4.1208492371676E-01
132  1.3100000000000E+00 -1.2889303382353E-02  3.3758095820857E-01
133  1.3200000000000E+00 -1.0178591997251E-02  2.6925431078468E-01
134  1.3300000000000E+00 -7.8098385722000E-03  2.0776402731325E-01
135  1.3400000000000E+00 -5.7696766109783E-03  1.5357909191147E-01
136  1.3500000000000E+00 -4.0469946694763E-03  1.0709710105614E-01
137  1.3600000000000E+00 -2.6294952761362E-03  6.8747930176991E-02
138  1.3700000000000E+00 -1.5117604802975E-03  3.8809340882583E-02
139  1.3800000000000E+00 -6.9518244108507E-04  1.7417929085394E-02
140  1.3900000000000E+00 -1.8512069313980E-04  4.5026836332391E-03
141  1.4000000000000E+00 -2.4954408657820E-06  5.8503679260968E-05
142  1.4100000000000E+00 -8.3725796004218E-07  1.9852347360651E-05
143  1.4200000000000E+00  2.6955657064180E-07 -6.5012836398820E-06
144  1.43  0.  0.
145  1.44  0.  0.
146  1.45  0.  0.
147  1.46  0.  0.
148  1.47  0.  0.
149  1.48  0.  0.
150  1.49  0.  0.
151  1.50  0.  0.
152  1.51  0.  0.
153  1.52  0.  0.
154  1.53  0.  0.
155  1.54  0.  0.
156  1.55  0.  0.
157  1.56  0.  0.
158  1.57  0.  0.
159  1.58  0.  0.
160  1.59  0.  0.
161  1.60  0.  0.
162  1.61  0.  0.
163  1.62  0.  0.
164  1.63  0.  0.
165  1.64  0.  0.
166  1.65  0.  0.
167  1.66  0.  0.
168  1.67  0.  0.
169  1.68  0.  0.
170  1.69  0.  0.
171  1.70  0.  0.
172  1.71  0.  0.
173  1.72  0.  0.
174  1.73  0.  0.
175  1.74  0.  0.
176  1.75  0.  0.
177  1.76  0.  0.
178  1.77  0.  0.
179  1.78  0.  0.
180  1.79  0.  0.
181  1.80  0.  0.
182  1.81  0.  0.
183  1.82  0.  0.
184  1.83  0.  0.
185  1.84  0.  0.
186  1.85  0.  0.
187  1.86  0.  0.
188  1.87  0.  0.
189  1.88  0.  0.
190  1.89  0.  0.
191  1.90  0.  0.
192  1.91  0.  0.
193  1.92  0.  0.
194  1.93  0.  0.
195  1.94  0.  0.
196  1.95  0.  0.
197  1.96  0.  0.
198  1.97  0.  0.
199  1.98  0.  0.
200  1.99  0.  0.
201  2.00  0.  0.
202  2.01  0.  0.
203  2.02  0.  0.
204  2.03  0.  0.
205  2.04  0.  0.
206  2.05  0.  0.
207  2.06  0.  0.
208  2.07  0.  0.
209  2.08  0.  0.
210  2.09  0.  0.
211  2.10  0.  0.
212  2.11  0.  0.
213  2.12  0.  0.
214  2.13  0.  0.
215  2.14  0.  0.
216  2.15  0.  0.
217  2.16  0.  0.
218  2.17  0.  0.
219  2.18  0.  0.
220  2.19  0.  0.
221  2.20  0.  0.
222  2.21  0.  0.
223  2.22  0.  0.
224  2.23  0.  0.
225  2.24  0.  0.
226  2.25  0.  0.
227  2.26  0.  0.
228  2.27  0.  0.
229  2.28  0.  0.
230  2.29  0.  0.
231  2.30  0.  0.
232  2.31  0.  0.
233  2.32  0.  0.
234  2.33  0.  0.
235  2.34  0.  0.
236  2.35  0.  0.
237  2.36  0.  0.
238  2.37  0.  0.
239  2.38  0.  0.
240  2.39  0.  0.
241  2.40  0.  0.
242  2.41  0.  0.
243  2.42  0.  0.
244  2.43  0.  0.
245  2.44  0.  0.
246  2.45  0.  0.
247  2.46  0.  0.
248  2.47  0.  0.
249  2.48  0.  0.
250  2.49  0.  0.
251  2.50  0.  0.
252  2.51  0.  0.
253  2.52  0.  0.
254  2.53  0.  0.
255  2.54  0.  0.
256  2.55  0.  0.
257  2.56  0.  0.
258  2.57  0.  0.
259  2.58  0.  0.
260  2.59  0.  0.
261  2.60  0.  0.
262  2.61  0.  0.
263  2.62  0.  0.
264  2.63  0.  0.
265  2.64  0.  0.
266  2.65  0.  0.
267  2.66  0.  0.
268  2.67  0.  0.
269  2.68  0.  0.
270  2.69  0.  0.
271  2.70  0.  0.
272  2.71  0.  0.
273  2.72  0.  0.
274  2.73  0.  0.
275  2.74  0.  0.
276  2.75  0.  0.
277  2.76  0.  0.
278  2.77  0.  0.
279  2.78  0.  0.
280  2.79  0.  0.
281  2.80  0.  0.
282  2.81  0.  0.
283  2.82  0.  0.
284  2.83  0.  0.
285  2.84  0.  0.
286  2.85  0.  0.
287  2.86  0.  0.
288  2.87  0.  0.
289  2.88  0.  0.
290  2.89  0.  0.
291  2.90  0.  0.
292  2.91  0.  0.
293  2.92  0.  0.
294  2.93  0.  0.
295  2.94  0.  0.
296  2.95  0.  0.
297  2.96  0.  0.
298  2.97  0.  0.
299  2.98  0.  0.
300  2.99  0.  0.
301  3.00  0.  0.
302  3.01  0.  0.
303  3.02  0.  0.
304  3.03  0.  0.
305  3.04  0.  0.
306  3.05  0.  0.
307  3.06  0.  0.
308  3.07  0.  0.
309  3.08  0.  0.
310  3.09  0.  0.
311  3.10  0.  0.
312  3.11  0.  0.
313  3.12  0.  0.
314  3.13  0.  0.
315  3.14  0.  0.
316  3.15  0.  0.
317  3.16  0.  0.
318  3.17  0.  0.
319  3.18  0.  0.
320  3.19  0.  0.
321  3.20  0.  0.
322  3.21  0.  0.
323  3.22  0.  0.
324  3.23  0.  0.
325  3.24  0.  0.
326  3.25  0.  0.
327  3.26  0.  0.
328  3.27  0.  0.
329  3.28  0.  0.
330  3.29  0.  0.
331  3.30  0.  0.
332  3.31  0.  0.
333  3.32  0.  0.
334  3.33  0.  0.
335  3.34  0.  0.
336  3.35  0.  0.
337  3.36  0.  0.
338  3.37  0.  0.
339  3.38  0.  0.
340  3.39  0.  0.
341  3.40  0.  0.
342  3.41  0.  0.
343  3.42  0.  0.
344  3.43  0.  0.
345  3.44  0.  0.
346  3.45  0.  0.
347  3.46  0.  0.
348  3.47  0.  0.
349  3.48  0.  0.
350  3.49  0.  0.
351  3.50  0.  0.
352  3.51  0.  0.
353  3.52  0.  0.
354  3.53  0.  0.
355  3.54  0.  0.
356  3.55  0.  0.
357  3.56  0.  0.
358  3.57  0.  0.
359  3.58  0.  0.
360  3.59  0.  0.
361  3.60  0.  0.
362  3.61  0.  0.
363  3.62  0.  0.
364  3.63  0.  0.
365  3.64  0.  0.
366  3.65  0.  0.
367  3.66  0.  0.
368  3.67  0.  0.
369  3.68  0.  0.
370  3.69  0.  0.
371  3.70  0.  0.
372  3.71  0.  0.
373  3.72  0.  0.
374  3.73  0.  0.
375  3.74  0.  0.
376  3.75  0.  0.
377  3.76  0.  0.
378  3.77  0.  0.
379  3.78  0.  0.
380  3.79  0.  0.
381  3.80  0.  0.
382  3.81  0.  0.
383  3.82  0.  0.
384  3.83  0.  0.
385  3.84  0.  0.
386  3.85  0.  0.
387  3.86  0.  0.
388  3.87  0.  0.
389  3.88  0.  0.
390  3.89  0.  0.
391  3.90  0.  0.
392  3.91  0.  0.
393  3.92  0.  0.
394  3.93  0.  0.
395  3.94  0.  0.
396  3.95  0.  0.
397  3.96  0.  0.
398  3.97  0.  0.
399  3.98  0.  0.
400  3.99  0.  0.
401  4.00  0.  0.
402  4.01  0.  0.
403  4.02  0.  0.
404  4.03  0.  0.
405  4.04  0.  0.
406  4.05  0.  0.
407  4.06  0.  0.
408  4.07  0.  0.
409  4.08  0.  0.
410  4.09  0.  0.
411  4.10  0.  0.
412  4.11  0.  0.
413  4.12  0.  0.
414  4.13  0.  0.
415  4.14  0.  0.
416  4.15  0.  0.
417  4.16  0.  0.
418  4.17  0.  0.
419  4.18  0.  0.
420  4.19  0.  0.
421  4.20  0.  0.
422  4.21  0.  0.
423  4.22  0.  0.
424  4.23  0.  0.
425  4.24  0.  0.
426  4.25  0.  0.
427  4.26  0.  0.
428  4.27  0.  0.
429  4.28  0.  0.
430  4.29  0.  0.
431  4.30  0.  0.
432  4.31  0.  0.
433  4.32  0.  0.
434  4.33  0.  0.
435  4.34  0.  0.
436  4.35  0.  0.
437  4.36  0.  0.
438  4.37  0.  0.
439  4.38  0.  0.
440  4.39  0.  0.
441  4.40  0.  0.
442  4.41  0.  0.
443  4.42  0.  0.
444  4.43  0.  0.
445  4.44  0.  0.
446  4.45  0.  0.
447  4.46  0.  0.
448  4.47  0.  0.
449  4.48  0.  0.
450  4.49  0.  0.
451  4.50  0.  0.
452  4.51  0.  0.
453  4.52  0.  0.
454  4.53  0.  0.
455  4.54  0.  0.
456  4.55  0.  0.
457  4.56  0.  0.
458  4.57  0.  0.
459  4.58  0.  0.
460  4.59  0.  0.
461  4.60  0.  0.
462  4.61  0.  0.
463  4.62  0.  0.
464  4.63  0.  0.
465  4.64  0.  0.
466  4.65  0.  0.
467  4.66  0.  0.
468  4.67  0.  0.
469  4.68  0.  0.
470  4.69  0.  0.
471  4.70  0.  0.
472  4.71  0.  0.
473  4.72  0.  0.
474  4.73  0.  0.
475  4.74  0.  0.
476  4.75  0.  0.
477  4.76  0.  0.
478  4.77  0.  0.
479  4.78  0.  0.
480  4.79  0.  0.
481  4.80  0.  0.
482  4.81  0.  0.
483  4.82  0.  0.
484  4.83  0.  0.
485  4.84  0.  0.
486  4.85  0.  0.
487  4.86  0.  0.
488  4.87  0.  0.
489  4.88  0.  0.
490  4.89  0.  0.
491  4.90  0.  0.
492  4.91  0.  0.
493  4.92  0.  0.
494  4.93  0.  0.
495  4.94  0.  0.
496  4.95  0.  0.
497  4.96  0.  0.
498  4.97  0.  0.
499  4.98  0.  0.
500  4.99  0.  0.
501  5.00  0.  0.
502  5.01  0.  0.
503  5.02  0.  0.
504  5.03  0.  0.
505  5.04  0.  0.
506  5.05  0.  0.
507  5.06  0.  0.
508  5.07  0.  0.
509  5.08  0.  0.
510  5.09  0.  0.
511  5.10  0.  0.
512  5.11  0.  0.
513  5.12  0.  0.
514  5.13  0.  0.
515  5.14  0.  0.
516  5.15  0.  0.
517  5.16  0.  0.
518  5.17  0.  0.
519  5.18  0.  0.
520  5.19  0.  0.
521  5.20  0.  0.
522  5.21  0.  0.
523  5.22  0.  0.
524  5.23  0.  0.
525  5.24  0.  0.
526  5.25  0.  0.
527  5.26  0.  0.
528  5.27  0.  0.
529  5.28  0.  0.
530  5.29  0.  0.
531  5.30  0.  0.
532  5.31  0.  0.
533  5.32  0.  0.
534  5.33  0.  0.
535  5.34  0.  0.
536  5.35  0.  0.
537  5.36  0.  0.
538  5.37  0.  0.
539  5.38  0.  0.
540  5.39  0.  0.
541  5.40  0.  0.
542  5.41  0.  0.
543  5.42  0.  0.
544  5.43  0.  0.
545  5.44  0.  0.
546  5.45  0.  0.
547  5.46  0.  0.
548  5.47  0.  0.
549  5.48  0.  0.
550  5.49  0.  0.
551  5.50  0.  0.
552  5.51  0.  0.
553  5.52  0.  0.
554  5.53  0.  0.
555  5.54  0.  0.
556  5.55  0.  0.
557  5.56  0.  0.
558  5.57  0.  0.
559  5.58  0.  0.
560  5.59  0.  0.
561  5.60  0.  0.
562  5.61  0.  0.
563  5.62  0.  0.
564  5.63  0.  0.
565  5.64  0.  0.
566  5.65  0.  0.
567  5.66  0.  0.
568  5.67  0.  0.
569  5.68  0.  0.
570  5.69  0.  0.
571  5.70  0.  0.
572  5.71  0.  0.
573  5.72  0.  0.
574  5.73  0.  0.
575  5.74  0.  0.
576  5.75  0.  0.
577  5.76  0.  0.
578  5.77  0.  0.
579  5.78  0.  0.
580  5.79  0.  0.
581  5.80  0.  0.
582  5.81  0.  0.
583  5.82  0.  0.
584  5.83  0.  0.
585  5.84  0.  0.
586  5.85  0.  0.
587  5.86  0.  0.
588  5.87  0.  0.
589  5.88  0.  0.
590  5.89  0.  0.
591  5.90  0.  0.
592  5.91  0.  0.
593  5.92  0.  0.
594  5.93  0.  0.
595  5.94  0.  0.
596  5.95  0.  0.
597  5.96  0.  0.
598  5.97  0.  0.
599  5.98  0.  0.
600  5.99  0.  0.
1                         1.1049945761295E+01  8.9165028446444E-01 -8.2434403593630E-02
1  0.0000000000000E+00 -2.5132345510270E-09  9.5411773134990E-09 -3.7946705642306E-08
2  1.0000000000000E-02  1.7265054539489E-03 -9.1503964748317E-04  2.6928271301297E-04
3  2.0000000000000E-02  6.9008035557791E-03 -3.6594731411295E-03  1.0984659068885E-03
4  3.0000000000000E-02  1.5507204815355E-02 -8.2310620728746E-03  2.5507282195209E-03
5  4.0000000000000E-02  2.7519445973711E-02 -1.4625474933686E-02  4.7286362087439E-03
6  5.0000000000000E-02  4.2900524367162E-02 -2.2835406857558E-02  7.7701306649547E-03
7  6.0000000000000E-02  6.1602476936947E-02 -3.2849388650352E-02  1.1843071308750E-02
8  7.0000000000000E-02  8.3566114427754E-02 -4.4650325135487E-02  1.7138498469915E-02
9  8.0000000000000E-02  1.0872072383170E-01 -5.8213812389659E-02  2.3862808290805E-02
10  9.0000000000000E-02  1.3698375429058E-01 -7.3506291627491E-02  3.2229070679891E-02
11  1.0000000000000E-01  1.6826050340818E-01 -9.0483104096923E-02  4.2447745773684E-02
12  1.1000000000000E-01  2.0244382219642E-01 -1.0908651617959E-01  5.4717074319841E-02
13  1.2000000000000E-01  2.3941385764559E-01 -1.2924378681106E-01  6.9213429619594E-02
14  1.3000000000000E-01  2.7903785214615E-01 -1.5086535025285E-01  8.6081923105152E-02
15  1.4000000000000E-01  3.2117001868414E-01 -1.7384318612208E-01  1.0542755212243E-01
16  1.5000000000000E-01  3.6565150988866E-01 -1.9804944542874E-01  1.2730716709045E-01
17  1.6000000000000E-01  4.1231049764236E-01 -2.2333539625259E-01  1.5172251617344E-01
18  1.7000000000000E-01  4.6096237810583E-01 -2.4953074572892E-01  1.7861459938659E-01
19  1.8000000000000E-01  5.1141011469563E-01 -2.7644338637421E-01  2.0785953130913E-01
20  1.9000000000000E-01  5.6344472884803E-01 -3.0385960467929E-01  2.3926607311834E-01
21  2.0000000000000E-01  6.1684594536161E-01 -3.3154477858349E-01  2.7257495146046E-01
22  2.1000000000000E-01  6.7138299581437E-01 -3.5924457820211E-01  3.0746003484210E-01
23  2.2000000000000E-01  7.2681558007660E-01 -3.8668667132358E-01  3.4353138896521E-01
24  2.3000000000000E-01  7.8289498237440E-01 -4.1358292205345E-01  3.8034018201579E-01
25  2.4000000000000E-01  8.3936533478934E-01 -4.3963205789839E-01  4.1738536066920E-01
26  2.5000000000000E-01  8.9596501759697E-01 -4.6452276789818E-01  4.5412196881314E-01
27  2.6000000000000E-01  9.5242818253776E-01 -4.8793718246081E-01  4.8997093500950E-01
28  2.7000000000000E-01  1.0084863820633E+00 -5.0955467465517E-01  5.2433011274739E-01
29  2.8000000000000E-01  1.0638702848857E+00 -5.2905591316042E-01  5.5658632072331E-01
30  2.9000000000000E-01  1.1183114558502E+00 -5.4612708912546E-01  5.8612809973309E-01
31  3.0000000000000E-01  1.1715441763079E+00 -5.6046423307798E-01  6.1235887913939E-01
32  3.1000000000000E-01  1.2233072798423E+00 -5.7177753392086E-01  6.3471022997795E-01
33  3.2000000000000E-01  1.2733459774269E+00 -5.7979557009128E-01  6.5265487408243E-01
34  3.3000000000000E-01  1.3214136458946E+00 -5.8426936321212E-01  6.6571911943086E-01
35  3.4000000000000E-01  1.3672735539861E+00 -5.8497616705313E-01  6.7349440131836E-01
36  3.5000000000000E-01  1.4107005012055E+00 -5.8172290930496E-01  6.7564762679254E-01
37  3.6000000000000E-01  1.4514823462358E+00 -5.7434921045638E-01  6.7193004568275E-01
38  3.7000000000000E-01  1.4894214037087E+00 -5.6272991280564E-01  6.6218440493065E-01
39  3.8000000000000E-01  1.5243356906441E+00 -5.4677706312961E-01  6.4635018301160E-01
40  3.9000000000000E-01  1.5560600068068E+00 -5.2644130453134E-01  6.2446674706083E-01
41  4.0000000000000E-01  1.5844468365108E+00 -5.0171264619942E-01  5.9667432577036E-01
42  4.1000000000000E-01  1.6093670629404E+00 -4.7262059391859E-01  5.6321274494917E-01
43  4.2000000000000E-01  1.6307104897816E+00 -4.3923363882009E-01  5.2441792849191E-01
44  4.3000000000000E-01  1.6483861687646E+00 -4.0165811668746E-01  4.8071622396001E-01
45  4.4000000000000E-01  1.6623225355170E+00 -3.6003646476280E-01  4.3261666759514E-01
46  4.5000000000000E-01  1.6724673598254E+00 -3.1454491705606E-01  3.8070135691197E-01
47  4.6000000000000E-01  1.6787875199047E+00 -2.6539069228353E-01  3.2561414865170E-01
48  4.7000000000000E-01  1.6812686134997E+00 -2.1280874040767E-01  2.6804794449667E-01
49  4.8000000000000E-01  1.6799144214951E+00 -1.5705812400436E-01  2.0873086533429E-01
50  4.9000000000000E-01  1.6747462421424E+00 -9.8418119071084E-02  1.4841164595296E-01
51  5.0000000000000E-01  1.6658021159374E+00 -3.7184126176444E-02  8.7844604959352E-02
52  5.1000000000000E-01  1.6531359625698E+00  2.6336513139733E-02  2.7774558734316E-02
53  5.2000000000000E-01  1.6368166521806E+00  9.1828698200813E-02 -3.1077947078753E-02
54  5.3000000000000E-01  1.6169270333731E+00  1.5897365360598E-01 -8.8030719970468E-02
55  5.4000000000000E-01  1.5935629400435E+00  2.2745282388958E-01 -1.4245296276019E-01
56  5.5000000000000E-01  1.5668321981236E+00  2.9695149182002E-01 -1.9377694532458E-01
57  5.6000000000000E-01  1.5368536517980E+00  3.6716204173163E-01 -2.4150800825537E-01
58  5.7000000000000E-01  1.5037562267117E+00  4.3778679936962E-01 -2.8523264160008E-01
59  5.8000000000000E-01  1.4676780451798E+00  5.0854039165992E-01 -3.2462442975553E-01
60  5.9000000000000E-01  1.4287656055130E+00  5.7915158329708E-01 -3.5944770750632E-01
61  6.0000000000000E-01  1.3871730343738E+00  6.4936456173670E-01 -3.8955883081523E-01
62  6.1000000000000E-01  1.3430614176499E+00  7.1893965770979E-01 -4.1490502782457E-01
63  6.2000000000000E-01  1.2965982117943E+00  7.8765350434503E-01 -4.3552085905590E-01
64  6.3000000000000E-01  1.2479567340081E+00  8.5529865397329E-01 -4.5152237937885E-01
65  6.4000000000000E-01  1.1973157261655E+00  9.2168268727235E-01 -4.6309915630405E-01
66  6.5000000000000E-01  1.1448589840718E+00  9.8662686417247E-01 -4.7050435791527E-01
67  6.6000000000000E-01  1.0907750406306E+00  1.0499643794778E+00 -4.7404317771200E-01
68  6.7000000000000E-01  1.0352568888426E+00  1.1115382980903E+00 -4.7405991131761E-01
69  6.8000000000000E-01  9.7850172836792E-01  1.1711992547092E+00 -4.7092404008634E-01
70  6.9000000000000E-01  9.2071071771369E-01  1.2288030106251E+00 -4.6501570795532E-01
71  7.0000000000000E-01  8.6208871302614E-01  1.2842079654900E+00 -4.5671099948666E-01
72  7.1000000000000E-01  8.0284397400794E-01  1.3372727245468E+00 -4.4636743821605E-01
73  7.2000000000000E-01  7.4318781768034E-01  1.3878538216221E+00 -4.3431012470637E-01
74  7.3000000000000E-01  6.8333420156784E-01  1.4358036951916E+00 -4.2081892291784E-01
75  7.4000000000000E-01  6.2349921939804E-01  1.4809690090363E+00 -4.0611708174014E-01
76  7.5000000000000E-01  5.6390049454989E-01  1.5231894005304E+00 -3.9036164617044E-01
77  7.6000000000000E-01  5.0475645920737E-01  1.5622967286127E+00 -3.7363597032195E-01
78  7.7000000000000E-01  4.4628551042074E-01  1.5981148802293E+00 -3.5594459312747E-01
79  7.8000000000000E-01  3.8870503796658E-01  1.6304601788110E+00 -3.3721067843975E-01
80  7.9000000000000E-01  3.3223032294027E-01  1.6591424215268E+00 -3.1727615560646E-01
81  8.0000000000000E-01  2.7707331030800E-01  1.6839665540380E+00 -2.9590462609773E-01
82  8.1000000000000E-01  2.2344126307770E-01  1.7047349727335E+00 -2.7278702810968E-01
83  8.2000000000000E-01  1.7153531020053E-01  1.7212504254177E+00 -2.4754997610568E-01
84  8.3000000000000E-01  1.2154890466600E-01  1.7333194626551E+00 -2.1976661788810E-01
85  8.4000000000000E-01  7.3666212380110E-02  1.7407563739416E+00 -1.8896977993959E-01
86  8.5000000000000E-01  2.8060456198883E-02  1.7433875260702E+00 -1.5466710432548E-01
87  8.6000000000000E-01 -1.5107757186594E-02  1.7410560059415E+00 -1.1635781922294E-01
88  8.7000000000000E-01 -5.5692097056117E-02  1.7336264570934E+00 -7.3550731819632E-02
89  8.8000000000000E-01 -9.3562122596459E-02  1.7209899887590E+00 -2.5782988424010E-02
90  8.9000000000000E-01 -1.2860481703841E-01  1.7030690286505E+00  2.7360886546859E-02
91  9.0000000000000E-01 -1.6072600749581E-01  1.6798219861784E+00  8.6230182432496E-02
92  9.1000000000000E-01 -1.8985163627894E-01  1.6512475916377E+00  1.5108994361559E-01
93  9.2000000000000E-01 -2.1592885059078E-01  1.6173887791418E+00  2.2210417460481E-01
94  9.3000000000000E-01 -2.3892687951667E-01  1.5783359867991E+00  2.9932080590594E-01
95  9.4000000000000E-01 -2.5883767006667E-01  1.5342297567336E+00  3.8265888727895E-01
96  9.5000000000000E-01 -2.7567625768254E-01  1.4852625299247E+00  4.7189843206469E-01
97  9.6000000000000E-01 -2.8948085101565E-01  1.4316795462407E+00  5.6667328166805E-01
98  9.7000000000000E-01 -3.0031261583409E-01  1.3737787781684E+00  6.6646729411685E-01
99  9.8000000000000E-01 -3.0825514852518E-01  1.3119098472015E+00  7.7061408631580E-01
100  9.9000000000000E-01 -3.1341363570603E-01  1.2464718942123E+00  8.7830047781947E-01
101  1.0000000000000E+00 -3.1591370280736E-01  1.1779103988756E+00  9.8857369654388E-01
102  1.0100000000000E+00 -3.1589996101255E-01  1.1067129678021E+00  1.1003523158709E+00
103  1.0200000000000E+00 -3.1353426845952E-01  1.0334041358653E+00  1.2124408003097E+00
104  1.0300000000000E+00 -3.0899372800545E-01  9.5853924972543E-01  1.3235474453321E+00
105  1.0400000000000E+00 -3.0246844994497E-01  8.8269752609933E-01  1.4323054086608E+00
106  1.0500000000000E+00 -2.9415911371514E-01  8.0647439933544E-01  1.5372964473107E+00
107  1.0600000000000E+00 -2.8427436768221E-01  7.3047329279225E-01  1.6370768990194E+00
108  1.0700000000000E+00 -2.7302811043175E-01  6.5529696578841E-01  1.7302053806596E+00
109  1.0800000000000E+00 -2.6063670047633E-01  5.8153860209256E-01  1.8152716212717E+00
110  1.0900000000000E+00 -2.4731614384245E-01  5.0977281660784E-01  1.8909258051757E+00
111  1.1000000000000E+00 -2.3327931051978E-01  4.4054676374978E-01  1.9559077724696E+00
112  1.1100000000000E+00 -2.1873323119670E-01  3.7437153379345E-01  2.0090754109305E+00
113  1.1200000000000E+00 -2.0387652503091E-01  3.1171402201390E-01  2.0494315755561E+00
114  1.1300000000000E+00 -1.8889700739734E-01  2.5298944969655E-01  2.0761488899484E+00
115  1.1400000000000E+00 -1.7396952365225E-01  1.9855470615513E-01  2.0885918171196E+00
116  1.1500000000000E+00 -1.5925405096648E-01  1.4870266681409E-01  2.0863354358860E+00
117  1.1600000000000E+00 -1.4489410532582E-01  1.0365762459603E-01  2.0691804213579E+00
118  1.1700000000000E+00 -1.3101548490136E-01  6.3571950417111E-02  2.0371638036826E+00
119  1.1800000000000E+00 -1.1772537436405E-01  2.8524074292635E-02  1.9905651654082E+00
120  1.1900000000000E+00 -1.0511182737029E-01 -1.4821485398930E-03  1.9299080343080E+00
121  1.2000000000000E+00 -9.3243636679802E-02 -2.6516650842782E-02  1.8559563311867E+00
122  1.2100000000000E+00 -8.2170593191802E-02 -4.6720940707062E-02  1.7697058408439E+00
123  1.2200000000000E+00 -7.1924126916418E-02 -6.2304488590851E-02  1.6723707847058E+00
124  1.2300000000000E+00 -6.2518314632403E-02 -7.3539770577292E-02  1.5653656842239E+00
125  1.2400000000000E+00 -5.3951230910287E-02 -8.0756054607985E-02  1.4502828123441E+00
126  1.2500000000000E+00 -4.6206611556229E-02 -8.4332045069341E-02  1.3288656326447E+00
127  1.2600000000000E+00 -3.9255791413146E-02 -8.4687527877881E-02  1.2029787212879E+00
128  1.2700000000000E+00 -3.3059872110705E-02 -8.2274182107258E-02  1.0745747520248E+00
129  1.2800000000000E+00 -2.7572069895686E-02 -7.7565744793470E-02  9.4565919758565E-01
130  1.2900000000000E+00 -2.2740189188916E-02 -7.1047732500818E-02  8.1825346061689E-01
131  1.3000000000000E+00 -1.8509164193397E-02 -6.3206935805611E-02  6.9435719130675E-01
132  1.3100000000000E+00 -1.4823603936471E-02 -5.4520923855143E-02  5.7591060983551E-01
133  1.3200000000000E+00 -1.1630321705235E-02 -4.5447674270259E-02  4.6475734278998E-01
134  1.3300000000000E+00 -8.8807467708241E-03 -3.6415678424765E-02  3.6260884166479E-01
135  1.3400000000000E+00 -6.5468108756069E-03 -2.7777999041191E-02  2.7091715359035E-01