Ts    ONCVPSP-4.0.1  r_core=   1.40055   1.40055   1.45173   1.60713
117.0000     25.0000      231012    zatom,zion,pspd
8   -1012   3     4   600     0    pspcod,pspxc,lmax,lloc,mmax,r2well
5.99000000  5.00000000  0.00000000    rchrg fchrg qchrg
2     2     2     2     0    nproj
1     1           extension_switch
0                         1.4122793395817E+01 -3.0582034470423E-01
1  0.0000000000000E+00  4.3251424663993E-10  9.4904569758469E-09
2  1.0000000000000E-02  8.1931521450490E-02  2.0601895462269E-02
3  2.0000000000000E-02  1.6367342469668E-01  4.1317095511885E-02
4  3.0000000000000E-02  2.4503638283768E-01  6.2253913002374E-02
5  4.0000000000000E-02  3.2583165588096E-01  8.3510794245241E-02
6  5.0000000000000E-02  4.0587139483653E-01  1.0517167555061E-01
7  6.0000000000000E-02  4.8496895826246E-01  1.2730168058776E-01
8  7.0000000000000E-02  5.6293924489148E-01  1.4994326073866E-01
9  8.0000000000000E-02  6.3959904553598E-01  1.7311287112719E-01
10  9.0000000000000E-02  7.1476741694476E-01  1.9679826352350E-01
11  1.0000000000000E-01  7.8826607968097E-01  2.2095646408839E-01
12  1.1000000000000E-01  8.5991984141824E-01  2.4551248921479E-01
13  1.2000000000000E-01  9.2955704632597E-01  2.7035883685274E-01
14  1.3000000000000E-01  9.9701005044909E-01  2.9535577400472E-01
15  1.4000000000000E-01  1.0621157221988E+00  3.2033242390190E-01
16  1.5000000000000E-01  1.1247159662755E+00  3.4508863908144E-01
17  1.6000000000000E-01  1.1846582685578E+00  3.6939762954728E-01
18  1.7000000000000E-01  1.2417962587328E+00  3.9300929876945E-01
19  1.8000000000000E-01  1.2959902867226E+00  4.1565422481231E-01
20  1.9000000000000E-01  1.3471080083021E+00  4.3704820970517E-01
21  2.0000000000000E-01  1.3950249747110E+00  4.5689730758406E-01
22  2.1000000000000E-01  1.4396252205565E+00  4.7490323140822E-01
23  2.2000000000000E-01  1.4808018438899E+00  4.9076902942068E-01
24  2.3000000000000E-01  1.5184575720328E+00  5.0420491616440E-01
25  2.4000000000000E-01  1.5525053065263E+00  5.1493413892347E-01
26  2.5000000000000E-01  1.5828686404982E+00  5.2269875901953E-01
27  2.6000000000000E-01  1.6094823417735E+00  5.2726522849377E-01
28  2.7000000000000E-01  1.6322927952100E+00  5.2842964632318E-01
29  2.8000000000000E-01  1.6512583980080E+00  5.2602258438678E-01
30  2.9000000000000E-01  1.6663499021250E+00  5.1991338178704E-01
31  3.0000000000000E-01  1.6775506984114E+00  5.1001381667084E-01
32  3.1000000000000E-01  1.6848570376684E+00  4.9628107716155E-01
33  3.2000000000000E-01  1.6882781844930E+00  4.7871996714951E-01
34  3.3000000000000E-01  1.6878365005235E+00  4.5738429819193E-01
35  3.4000000000000E-01  1.6835674544955E+00  4.3237743531816E-01
36  3.5000000000000E-01  1.6755195573702E+00  4.0385198177249E-01
37  3.6000000000000E-01  1.6637542216717E+00  3.7200860528378E-01
38  3.7000000000000E-01  1.6483455450644E+00  3.3709402595849E-01
39  3.8000000000000E-01  1.6293800190861E+00  2.9939820297335E-01
40  3.9000000000000E-01  1.6069561648278E+00  2.5925077353088E-01
41  4.0000000000000E-01  1.5811840981830E+00  2.1701681268463E-01
42  4.1000000000000E-01  1.5521850280805E+00  1.7309199631281E-01
43  4.2000000000000E-01  1.5200906918372E+00  1.2789726142602E-01
44  4.3000000000000E-01  1.4850427324198E+00  8.1873067874959E-02
45  4.4000000000000E-01  1.4471920229695E+00  3.5473373164154E-02
46  4.5000000000000E-01  1.4066979444151E+00 -1.0840562690257E-02
47  4.6000000000000E-01  1.3637276223738E+00 -5.6606422612111E-02
48  4.7000000000000E-01  1.3184551298028E+00 -1.0136700845568E-01
49  4.8000000000000E-01  1.2710606620296E+00 -1.4467623022837E-01
50  4.9000000000000E-01  1.2217296908373E+00 -1.8610479623861E-01
51  5.0000000000000E-01  1.1706521042350E+00 -2.2524549928882E-01
52  5.1000000000000E-01  1.1180213383903E+00 -2.6171800372485E-01
53  5.2000000000000E-01  1.0640335079587E+00 -2.9517304989535E-01
54  5.3000000000000E-01  1.0088865407144E+00 -3.2529600610801E-01
55  5.4000000000000E-01  9.5277932198721E-01 -3.5180971319548E-01
56  5.5000000000000E-01  8.9591085394367E-01 -3.7447658298220E-01
57  5.6000000000000E-01  8.3847943423455E-01 -3.9309992891829E-01
58  5.7000000000000E-01  7.8068185798228E-01 -4.0752452452993E-01
59  5.8000000000000E-01  7.2271264650733E-01 -4.1763640273820E-01
60  5.9000000000000E-01  6.6476330561330E-01 -4.2336192612234E-01
61  6.0000000000000E-01  6.0702161567757E-01 -4.2466617446012E-01
62  6.1000000000000E-01  5.4967095524214E-01 -4.2155071099329E-01
63  6.2000000000000E-01  4.9288965928133E-01 -4.1405080248861E-01
64  6.3000000000000E-01  4.3685041285049E-01 -4.0223217997612E-01
65  6.4000000000000E-01  3.8171968040376E-01 -3.8618743676708E-01
66  6.5000000000000E-01  3.2765717071760E-01 -3.6603216774682E-01
67  6.6000000000000E-01  2.7481533707744E-01 -3.4190095882522E-01
68  6.7000000000000E-01  2.2333891218175E-01 -3.1394333767816E-01
69  6.8000000000000E-01  1.7336447709428E-01 -2.8231979646145E-01
70  6.9000000000000E-01  1.2502006353054E-01 -2.4719799402197E-01
71  7.0000000000000E-01  7.8424788797938E-02 -2.0874923931900E-01
72  7.1000000000000E-01  3.3688522814912E-02 -1.6714534942923E-01
73  7.2000000000000E-01 -9.0884131925369E-03 -1.2255596481085E-01
74  7.3000000000000E-01 -4.9815516487523E-02 -7.5146391689133E-02
75  7.4000000000000E-01 -8.8412341003567E-02 -2.5076026775498E-02
76  7.5000000000000E-01 -1.2480870348669E-01  2.7502596616639E-02
77  7.6000000000000E-01 -1.5894485683625E-01  8.2444119276574E-02
78  7.7000000000000E-01 -1.9077162953536E-01  1.3961001984931E-01
79  7.8000000000000E-01 -2.2025052972042E-01  1.9886764617902E-01
80  7.9000000000000E-01 -2.4735381211886E-01  2.6008864697228E-01
81  8.0000000000000E-01 -2.7206450579916E-01  3.2314685412592E-01
82  8.1000000000000E-01 -2.9437640044259E-01  3.8791568268140E-01
83  8.2000000000000E-01 -3.1429398867387E-01  4.5426513056923E-01
84  8.3000000000000E-01 -3.3183236189204E-01  5.2205847370467E-01
85  8.4000000000000E-01 -3.4701705703187E-01  5.9114876324111E-01
86  8.5000000000000E-01 -3.5988385176974E-01  6.6137524056856E-01
87  8.6000000000000E-01 -3.7047850587192E-01  7.3255979171040E-01
88  8.7000000000000E-01 -3.7885644667158E-01  8.0450356592274E-01
89  8.8000000000000E-01 -3.8508239705406E-01  8.7698388340639E-01
90  8.9000000000000E-01 -3.8922994482784E-01  9.4975155403626E-01
91  9.0000000000000E-01 -3.9138105295516E-01  1.0225287229047E+00
92  9.1000000000000E-01 -3.9162551080522E-01  1.0950073493392E+00
93  9.2000000000000E-01 -3.9006032736446E-01  1.1668484140409E+00
94  9.3000000000000E-01 -3.8678906817927E-01  1.2376819343155E+00
95  9.4000000000000E-01 -3.8192113870295E-01  1.3071078503146E+00
96  9.5000000000000E-01 -3.7557101765287E-01  1.3746978261105E+00
97  9.6000000000000E-01 -3.6785744493766E-01  1.4399979886909E+00
98  9.7000000000000E-01 -3.5890256966735E-01  1.5025326060169E+00
99  9.8000000000000E-01 -3.4883106469093E-01  1.5618086826112E+00
100  9.9000000000000E-01 -3.3776921499393E-01  1.6173214282349E+00
101  1.0000000000000E+00 -3.2584398811235E-01  1.6685605325868E+00
102  1.0100000000000E+00 -3.1318209545655E-01  1.7150171571259E+00
103  1.0200000000000E+00 -2.9990905406978E-01  1.7561915346133E+00
104  1.0300000000000E+00 -2.8614825885238E-01  1.7916010482386E+00
105  1.0400000000000E+00 -2.7202007564647E-01  1.8207886457436E+00
106  1.0500000000000E+00 -2.5764096578311E-01  1.8433314301865E+00
107  1.0600000000000E+00 -2.4312265273260E-01  1.8588492582391E+00
108  1.0700000000000E+00 -2.2857134135889E-01  1.8670131695490E+00
109  1.0800000000000E+00 -2.1408699995728E-01  1.8675534668990E+00
110  1.0900000000000E+00 -1.9976271474522E-01  1.8602672668850E+00
111  1.1000000000000E+00 -1.8568412578652E-01  1.8450253446318E+00
112  1.1100000000000E+00 -1.7192895245624E-01  1.8217781037729E+00
113  1.1200000000000E+00 -1.5856661551732E-01  1.7905605143238E+00
114  1.1300000000000E+00 -1.4565796168116E-01  1.7514958761897E+00
115  1.1400000000000E+00 -1.3325509519153E-01  1.7047982844268E+00
116  1.1500000000000E+00 -1.2140131951130E-01  1.6507736939333E+00
117  1.1600000000000E+00 -1.1013119064127E-01  1.5898195053292E+00
118  1.1700000000000E+00 -9.9470681967383E-02  1.5224226202635E+00
119  1.1800000000000E+00 -8.9437458866256E-02  1.4491559423636E+00
120  1.1900000000000E+00 -8.0041259600272E-02  1.3706733294525E+00
121  1.2000000000000E+00 -7.1284377364312E-02  1.2877030323599E+00
122  1.2100000000000E+00 -6.3162236703735E-02  1.2010396856323E+00
123  1.2200000000000E+00 -5.5664055966000E-02  1.1115349445770E+00
124  1.2300000000000E+00 -4.8773585988060E-02  1.0200868910852E+00
125  1.2400000000000E+00 -4.2469913889560E-02  9.2762835691423E-01
126  1.2500000000000E+00 -3.6728319674340E-02  8.3511433682138E-01
127  1.2600000000000E+00 -3.1521172345814E-02  7.4350868496342E-01
128  1.2700000000000E+00 -2.6818851452582E-02  6.5377030552159E-01
129  1.2800000000000E+00 -2.2590679407940E-02  5.6683906234027E-01
130  1.2900000000000E+00 -1.8805849583375E-02  4.8362164221053E-01
131  1.3000000000000E+00 -1.5434335078008E-02  4.0497761186490E-01
132  1.3100000000000E+00 -1.2447761864117E-02  3.3170594066818E-01
133  1.3200000000000E+00 -9.8202422752291E-03  2.6453196812093E-01
134  1.3300000000000E+00 -7.5291613126395E-03  2.0409517008637E-01
135  1.3400000000000E+00 -5.5594943116111E-03  1.5085208690744E-01
136  1.3500000000000E+00 -3.8986905762091E-03  1.0518933994743E-01
137  1.3600000000000E+00 -2.5332731518592E-03  6.7522089912564E-02
138  1.3700000000000E+00 -1.4569105827752E-03  3.8118198139812E-02
139  1.3800000000000E+00 -6.7034455717595E-04  1.7108832304342E-02
140  1.3900000000000E+00 -1.7864416461423E-04  4.4232416812675E-03
141  1.4000000000000E+00 -2.4033268695552E-06  5.7485726085881E-05
142  1.4100000000000E+00 -8.0895065517856E-07  1.9503673560916E-05
143  1.4200000000000E+00  2.6034382304734E-07 -6.3866725457898E-06
144  1.43 -0. -0.
145  1.44  0.  0.
146  1.45  0.  0.
147  1.46  0.  0.
148  1.47  0.  0.
149  1.48  0.  0.
150  1.49  0.  0.
151  1.50  0.  0.
152  1.51  0.  0.
153  1.52  0.  0.
154  1.53  0.  0.
155  1.54  0.  0.
156  1.55  0.  0.
157  1.56  0.  0.
158  1.57  0.  0.
159  1.58  0.  0.
160  1.59  0.  0.
161  1.60  0.  0.
162  1.61  0.  0.
163  1.62  0.  0.
164  1.63  0.  0.
165  1.64  0.  0.
166  1.65  0.  0.
167  1.66  0.  0.
168  1.67  0.  0.
169  1.68  0.  0.
170  1.69  0.  0.
171  1.70  0.  0.
172  1.71  0.  0.
173  1.72  0.  0.
174  1.73  0.  0.
175  1.74  0.  0.
176  1.75  0.  0.
177  1.76  0.  0.
178  1.77  0.  0.
179  1.78  0.  0.
180  1.79  0.  0.
181  1.80  0.  0.
182  1.81  0.  0.
183  1.82  0.  0.
184  1.83  0.  0.
185  1.84  0.  0.
186  1.85  0.  0.
187  1.86  0.  0.
188  1.87  0.  0.
189  1.88  0.  0.
190  1.89  0.  0.
191  1.90  0.  0.
192  1.91  0.  0.
193  1.92  0.  0.
194  1.93  0.  0.
195  1.94  0.  0.
196  1.95  0.  0.
197  1.96  0.  0.
198  1.97  0.  0.
199  1.98  0.  0.
200  1.99  0.  0.
201  2.00  0.  0.
202  2.01  0.  0.
203  2.02  0.  0.
204  2.03  0.  0.
205  2.04  0.  0.
206  2.05  0.  0.
207  2.06  0.  0.
208  2.07  0.  0.
209  2.08  0.  0.
210  2.09  0.  0.
211  2.10  0.  0.
212  2.11  0.  0.
213  2.12  0.  0.
214  2.13  0.  0.
215  2.14  0.  0.
216  2.15  0.  0.
217  2.16  0.  0.
218  2.17  0.  0.
219  2.18  0.  0.
220  2.19  0.  0.
221  2.20  0.  0.
222  2.21  0.  0.
223  2.22  0.  0.
224  2.23  0.  0.
225  2.24  0.  0.
226  2.25  0.  0.
227  2.26  0.  0.
228  2.27  0.  0.
229  2.28  0.  0.
230  2.29  0.  0.
231  2.30  0.  0.
232  2.31  0.  0.
233  2.32  0.  0.
234  2.33  0.  0.
235  2.34  0.  0.
236  2.35  0.  0.
237  2.36  0.  0.
238  2.37  0.  0.
239  2.38  0.  0.
240  2.39  0.  0.
241  2.40  0.  0.
242  2.41  0.  0.
243  2.42  0.  0.
244  2.43  0.  0.
245  2.44  0.  0.
246  2.45  0.  0.
247  2.46  0.  0.
248  2.47  0.  0.
249  2.48  0.  0.
250  2.49  0.  0.
251  2.50  0.  0.
252  2.51  0.  0.
253  2.52  0.  0.
254  2.53  0.  0.
255  2.54  0.  0.
256  2.55  0.  0.
257  2.56  0.  0.
258  2.57  0.  0.
259  2.58  0.  0.
260  2.59  0.  0.
261  2.60  0.  0.
262  2.61  0.  0.
263  2.62  0.  0.
264  2.63  0.  0.
265  2.64  0.  0.
266  2.65  0.  0.
267  2.66  0.  0.
268  2.67  0.  0.
269  2.68  0.  0.
270  2.69  0.  0.
271  2.70  0.  0.
272  2.71  0.  0.
273  2.72  0.  0.
274  2.73  0.  0.
275  2.74  0.  0.
276  2.75  0.  0.
277  2.76  0.  0.
278  2.77  0.  0.
279  2.78  0.  0.
280  2.79  0.  0.
281  2.80  0.  0.
282  2.81  0.  0.
283  2.82  0.  0.
284  2.83  0.  0.
285  2.84  0.  0.
286  2.85  0.  0.
287  2.86  0.  0.
288  2.87  0.  0.
289  2.88  0.  0.
290  2.89  0.  0.
291  2.90  0.  0.
292  2.91  0.  0.
293  2.92  0.  0.
294  2.93  0.  0.
295  2.94  0.  0.
296  2.95  0.  0.
297  2.96  0.  0.
298  2.97  0.  0.
299  2.98  0.  0.
300  2.99  0.  0.
301  3.00  0.  0.
302  3.01  0.  0.
303  3.02  0.  0.
304  3.03  0.  0.
305  3.04  0.  0.
306  3.05  0.  0.
307  3.06  0.  0.
308  3.07  0.  0.
309  3.08  0.  0.
310  3.09  0.  0.
311  3.10  0.  0.
312  3.11  0.  0.
313  3.12  0.  0.
314  3.13  0.  0.
315  3.14  0.  0.
316  3.15  0.  0.
317  3.16  0.  0.
318  3.17  0.  0.
319  3.18  0.  0.
320  3.19  0.  0.
321  3.20  0.  0.
322  3.21  0.  0.
323  3.22  0.  0.
324  3.23  0.  0.
325  3.24  0.  0.
326  3.25  0.  0.
327  3.26  0.  0.
328  3.27  0.  0.
329  3.28  0.  0.
330  3.29  0.  0.
331  3.30  0.  0.
332  3.31  0.  0.
333  3.32  0.  0.
334  3.33  0.  0.
335  3.34  0.  0.
336  3.35  0.  0.
337  3.36  0.  0.
338  3.37  0.  0.
339  3.38  0.  0.
340  3.39  0.  0.
341  3.40  0.  0.
342  3.41  0.  0.
343  3.42  0.  0.
344  3.43  0.  0.
345  3.44  0.  0.
346  3.45  0.  0.
347  3.46  0.  0.
348  3.47  0.  0.
349  3.48  0.  0.
350  3.49  0.  0.
351  3.50  0.  0.
352  3.51  0.  0.
353  3.52  0.  0.
354  3.53  0.  0.
355  3.54  0.  0.
356  3.55  0.  0.
357  3.56  0.  0.
358  3.57  0.  0.
359  3.58  0.  0.
360  3.59  0.  0.
361  3.60  0.  0.
362  3.61  0.  0.
363  3.62  0.  0.
364  3.63  0.  0.
365  3.64  0.  0.
366  3.65  0.  0.
367  3.66  0.  0.
368  3.67  0.  0.
369  3.68  0.  0.
370  3.69  0.  0.
371  3.70  0.  0.
372  3.71  0.  0.
373  3.72  0.  0.
374  3.73  0.  0.
375  3.74  0.  0.
376  3.75  0.  0.
377  3.76  0.  0.
378  3.77  0.  0.
379  3.78  0.  0.
380  3.79  0.  0.
381  3.80  0.  0.
382  3.81  0.  0.
383  3.82  0.  0.
384  3.83  0.  0.
385  3.84  0.  0.
386  3.85  0.  0.
387  3.86  0.  0.
388  3.87  0.  0.
389  3.88  0.  0.
390  3.89  0.  0.
391  3.90  0.  0.
392  3.91  0.  0.
393  3.92  0.  0.
394  3.93  0.  0.
395  3.94  0.  0.
396  3.95  0.  0.
397  3.96  0.  0.
398  3.97  0.  0.
399  3.98  0.  0.
400  3.99  0.  0.
401  4.00  0.  0.
402  4.01  0.  0.
403  4.02  0.  0.
404  4.03  0.  0.
405  4.04  0.  0.
406  4.05  0.  0.
407  4.06  0.  0.
408  4.07  0.  0.
409  4.08  0.  0.
410  4.09  0.  0.
411  4.10  0.  0.
412  4.11  0.  0.
413  4.12  0.  0.
414  4.13  0.  0.
415  4.14  0.  0.
416  4.15  0.  0.
417  4.16  0.  0.
418  4.17  0.  0.
419  4.18  0.  0.
420  4.19  0.  0.
421  4.20  0.  0.
422  4.21  0.  0.
423  4.22  0.  0.
424  4.23  0.  0.
425  4.24  0.  0.
426  4.25  0.  0.
427  4.26  0.  0.
428  4.27  0.  0.
429  4.28  0.  0.
430  4.29  0.  0.
431  4.30  0.  0.
432  4.31  0.  0.
433  4.32  0.  0.
434  4.33  0.  0.
435  4.34  0.  0.
436  4.35  0.  0.
437  4.36  0.  0.
438  4.37  0.  0.
439  4.38  0.  0.
440  4.39  0.  0.
441  4.40  0.  0.
442  4.41  0.  0.
443  4.42  0.  0.
444  4.43  0.  0.
445  4.44  0.  0.
446  4.45  0.  0.
447  4.46  0.  0.
448  4.47  0.  0.
449  4.48  0.  0.
450  4.49  0.  0.
451  4.50  0.  0.
452  4.51  0.  0.
453  4.52  0.  0.
454  4.53  0.  0.
455  4.54  0.  0.
456  4.55  0.  0.
457  4.56  0.  0.
458  4.57  0.  0.
459  4.58  0.  0.
460  4.59  0.  0.
461  4.60  0.  0.
462  4.61  0.  0.
463  4.62  0.  0.
464  4.63  0.  0.
465  4.64  0.  0.
466  4.65  0.  0.
467  4.66  0.  0.
468  4.67  0.  0.
469  4.68  0.  0.
470  4.69  0.  0.
471  4.70  0.  0.
472  4.71  0.  0.
473  4.72  0.  0.
474  4.73  0.  0.
475  4.74  0.  0.
476  4.75  0.  0.
477  4.76  0.  0.
478  4.77  0.  0.
479  4.78  0.  0.
480  4.79  0.  0.
481  4.80  0.  0.
482  4.81  0.  0.
483  4.82  0.  0.
484  4.83  0.  0.
485  4.84  0.  0.
486  4.85  0.  0.
487  4.86  0.  0.
488  4.87  0.  0.
489  4.88  0.  0.
490  4.89  0.  0.
491  4.90  0.  0.
492  4.91  0.  0.
493  4.92  0.  0.
494  4.93  0.  0.
495  4.94  0.  0.
496  4.95  0.  0.
497  4.96  0.  0.
498  4.97  0.  0.
499  4.98  0.  0.
500  4.99  0.  0.
501  5.00  0.  0.
502  5.01  0.  0.
503  5.02  0.  0.
504  5.03  0.  0.
505  5.04  0.  0.
506  5.05  0.  0.
507  5.06  0.  0.
508  5.07  0.  0.
509  5.08  0.  0.
510  5.09  0.  0.
511  5.10  0.  0.
512  5.11  0.  0.
513  5.12  0.  0.
514  5.13  0.  0.
515  5.14  0.  0.
516  5.15  0.  0.
517  5.16  0.  0.
518  5.17  0.  0.
519  5.18  0.  0.
520  5.19  0.  0.
521  5.20  0.  0.
522  5.21  0.  0.
523  5.22  0.  0.
524  5.23  0.  0.
525  5.24  0.  0.
526  5.25  0.  0.
527  5.26  0.  0.
528  5.27  0.  0.
529  5.28  0.  0.
530  5.29  0.  0.
531  5.30  0.  0.
532  5.31  0.  0.
533  5.32  0.  0.
534  5.33  0.  0.
535  5.34  0.  0.
536  5.35  0.  0.
537  5.36  0.  0.
538  5.37  0.  0.
539  5.38  0.  0.
540  5.39  0.  0.
541  5.40  0.  0.
542  5.41  0.  0.
543  5.42  0.  0.
544  5.43  0.  0.
545  5.44  0.  0.
546  5.45  0.  0.
547  5.46  0.  0.
548  5.47  0.  0.
549  5.48  0.  0.
550  5.49  0.  0.
551  5.50  0.  0.
552  5.51  0.  0.
553  5.52  0.  0.
554  5.53  0.  0.
555  5.54  0.  0.
556  5.55  0.  0.
557  5.56  0.  0.
558  5.57  0.  0.
559  5.58  0.  0.
560  5.59  0.  0.
561  5.60  0.  0.
562  5.61  0.  0.
563  5.62  0.  0.
564  5.63  0.  0.
565  5.64  0.  0.
566  5.65  0.  0.
567  5.66  0.  0.
568  5.67  0.  0.
569  5.68  0.  0.
570  5.69  0.  0.
571  5.70  0.  0.
572  5.71  0.  0.
573  5.72  0.  0.
574  5.73  0.  0.
575  5.74  0.  0.
576  5.75  0.  0.
577  5.76  0.  0.
578  5.77  0.  0.
579  5.78  0.  0.
580  5.79  0.  0.
581  5.80  0.  0.
582  5.81  0.  0.
583  5.82  0.  0.
584  5.83  0.  0.
585  5.84  0.  0.
586  5.85  0.  0.
587  5.86  0.  0.
588  5.87  0.  0.
589  5.88  0.  0.
590  5.89  0.  0.
591  5.90  0.  0.
592  5.91  0.  0.
593  5.92  0.  0.
594  5.93  0.  0.
595  5.94  0.  0.
596  5.95  0.  0.
597  5.96  0.  0.
598  5.97  0.  0.
599  5.98  0.  0.
600  5.99  0.  0.
1                         1.3728964838277E+01  1.3479690793643E+00
1  0.0000000000000E+00 -4.6586405427762E-09  1.7100537312575E-08
2  1.0000000000000E-02  1.7963030307209E-03 -6.7189989517932E-04
3  2.0000000000000E-02  7.1808120931114E-03 -2.6931757659928E-03
4  3.0000000000000E-02  1.6140247111473E-02 -6.0801983014257E-03
5  4.0000000000000E-02  2.8652210948800E-02 -1.0859069876200E-02
6  5.0000000000000E-02  4.4684804114226E-02 -1.7063888840840E-02
7  6.0000000000000E-02  6.4196105517432E-02 -2.4734393398632E-02
8  7.0000000000000E-02  8.7133538780085E-02 -3.3913056564537E-02
9  8.0000000000000E-02  1.1343314827305E-01 -4.4641720801677E-02
10  9.0000000000000E-02  1.4301881305248E-01 -5.6957875655828E-02
11  1.0000000000000E-01  1.7580143010715E-01 -7.0890693655155E-02
12  1.1000000000000E-01  2.1167810071249E-01 -8.6456948582650E-02
13  1.2000000000000E-01  2.5053135514444E-01 -1.0365694571306E-01
14  1.3000000000000E-01  2.9222845149340E-01 -1.2247059557127E-01
15  1.4000000000000E-01  3.3662078381360E-01 -1.4285376114409E-01
16  1.5000000000000E-01  3.8354343335244E-01 -1.6473500328329E-01
17  1.6000000000000E-01  4.3281489415724E-01 -1.8801284038926E-01
18  1.7000000000000E-01  4.8423700100851E-01 -2.1255362656675E-01
19  1.8000000000000E-01  5.3759508345935E-01 -2.3819013758683E-01
20  1.9000000000000E-01  5.9265836486853E-01 -2.6472093654294E-01
21  2.0000000000000E-01  6.4918061982107E-01 -2.9191057148955E-01
22  2.1000000000000E-01  7.0690109736977E-01 -3.1949063610013E-01
23  2.2000000000000E-01  7.6554571125334E-01 -3.4716170201687E-01
24  2.3000000000000E-01  8.2482849180842E-01 -3.7459610866576E-01
25  2.4000000000000E-01  8.8445328785811E-01 -4.0144157347131E-01
26  2.5000000000000E-01  9.4411570059133E-01 -4.2732556322025E-01
27  2.6000000000000E-01  1.0035052255079E+00 -4.5186034638080E-01
28  2.7000000000000E-01  1.0623075730461E+00 -4.7464862703744E-01
29  2.8000000000000E-01  1.1202071336776E+00 -4.9528964426892E-01
30  2.9000000000000E-01  1.1768895491726E+00 -5.1338560673735E-01
31  3.0000000000000E-01  1.2320443485243E+00 -5.2854832136329E-01
32  3.1000000000000E-01  1.2853676047524E+00 -5.4040586754809E-01
33  3.2000000000000E-01  1.3365645675608E+00 -5.4860916470067E-01
34  3.3000000000000E-01  1.3853522266302E+00 -5.5283828096292E-01
35  3.4000000000000E-01  1.4314617612083E+00 -5.5280833504523E-01
36  3.5000000000000E-01  1.4746408335973E+00 -5.4827485091659E-01
37  3.6000000000000E-01  1.5146556870922E+00 -5.3903843658164E-01
38  3.7000000000000E-01  1.5512930128299E+00 -5.2494867306285E-01
39  3.8000000000000E-01  1.5843615547748E+00 -5.0590711764165E-01
40  3.9000000000000E-01  1.6136934275812E+00 -4.8186934597032E-01
41  4.0000000000000E-01  1.6391451281944E+00 -4.5284598034377E-01
42  4.1000000000000E-01  1.6605982286510E+00 -4.1890267565885E-01
43  4.2000000000000E-01  1.6779597444227E+00 -3.8015905977966E-01
44  4.3000000000000E-01  1.6911621796754E+00 -3.3678665053447E-01
45  4.4000000000000E-01  1.7001632577915E+00 -2.8900579673975E-01
46  4.5000000000000E-01  1.7049453522543E+00 -2.3708171482905E-01
47  4.6000000000000E-01  1.7055146393584E+00 -1.8131971522584E-01
48  4.7000000000000E-01  1.7019000000131E+00 -1.2205973294184E-01
49  4.8000000000000E-01  1.6941517030025E+00 -5.9670294458172E-02
50  4.9000000000000E-01  1.6823399063298E+00  5.4579327271696E-03
51  5.0000000000000E-01  1.6665530165786E+00  7.2918850829393E-02
52  5.1000000000000E-01  1.6468959484960E+00  1.4229773902613E-01
53  5.2000000000000E-01  1.6234883281700E+00  2.1317799094928E-01
54  5.3000000000000E-01  1.5964626832067E+00  2.8514761792269E-01
55  5.4000000000000E-01  1.5659626622066E+00  3.5780535952649E-01
56  5.5000000000000E-01  1.5321413236154E+00  4.3076625333326E-01
57  5.6000000000000E-01  1.4951595307416E+00  5.0366652989688E-01
58  5.7000000000000E-01  1.4551844854700E+00  5.7616771695142E-01
59  5.8000000000000E-01  1.4123884280706E+00  6.4795985787546E-01
60  5.9000000000000E-01  1.3669475246284E+00  7.1876377328225E-01
61  6.0000000000000E-01  1.3190409571735E+00  7.8833232051677E-01
62  6.1000000000000E-01  1.2688502247221E+00  8.5645063322759E-01
63  6.2000000000000E-01  1.2165586563492E+00  9.2293535132942E-01
64  6.3000000000000E-01  1.1623511302834E+00  9.8763287985603E-01
65  6.4000000000000E-01  1.1064139860439E+00  1.0504167426767E+00
66  6.5000000000000E-01  1.0489351100219E+00  1.1111841230819E+00
67  6.6000000000000E-01  9.9010416882765E-01  1.1698517071242E+00
68  6.7000000000000E-01  9.3011295936217E-01  1.2263509666671E+00
69  6.8000000000000E-01  8.6915584007578E-01  1.2806230367490E+00
70  6.9000000000000E-01  8.0743020439691E-01  1.3326133555806E+00
71  7.0000000000000E-01  7.4513695495329E-01  1.3822662448531E+00
72  7.1000000000000E-01  6.8248093605761E-01  1.4295196126940E+00
73  7.2000000000000E-01  6.1967128204112E-01  1.4742999613866E+00
74  7.3000000000000E-01  5.5692164041333E-01  1.5165178767697E+00
75  7.4000000000000E-01  4.9445023149349E-01  1.5560641661024E+00
76  7.5000000000000E-01  4.3247971005042E-01  1.5928067963014E+00
77  7.6000000000000E-01  3.7123679952469E-01  1.6265887651135E+00
78  7.7000000000000E-01  3.1095167547809E-01  1.6572270144139E+00
79  7.8000000000000E-01  2.5185708187833E-01  1.6845124679379E+00
80  7.9000000000000E-01  1.9418717151466E-01  1.7082112460057E+00
81  8.0000000000000E-01  1.3817607006260E-01  1.7280670778886E+00
82  8.1000000000000E-01  8.4056171863867E-02  1.7438048991955E+00
83  8.2000000000000E-01  3.2056184140170E-02  1.7551355878496E+00
84  8.3000000000000E-01 -1.7601055112784E-02  1.7617617587610E+00
85  8.4000000000000E-01 -6.4700952132851E-02  1.7633845050402E+00
86  8.5000000000000E-01 -1.0903968429288E-01  1.7597109434137E+00
87  8.6000000000000E-01 -1.5042683109910E-01  1.7504623942193E+00
88  8.7000000000000E-01 -1.8868805570108E-01  1.7353830027328E+00
89  8.8000000000000E-01 -2.2366777872078E-01  1.7142485893186E+00
90  8.9000000000000E-01 -2.5523178293695E-01  1.6868755015818E+00
91  9.0000000000000E-01 -2.8326968554865E-01  1.6531292328142E+00
92  9.1000000000000E-01 -3.0769721447770E-01  1.6129325679322E+00
93  9.2000000000000E-01 -3.2845822650648E-01  1.5662730210008E+00
94  9.3000000000000E-01 -3.4552640799730E-01  1.5132093374089E+00
95  9.4000000000000E-01 -3.5890660347487E-01  1.4538768487075E+00
96  9.5000000000000E-01 -3.6863572340717E-01  1.3884914888341E+00
97  9.6000000000000E-01 -3.7478318998310E-01  1.3173523065123E+00
98  9.7000000000000E-01 -3.7745088841441E-01  1.2408423395444E+00
99  9.8000000000000E-01 -3.7677260110234E-01  1.1594277518229E+00
100  9.9000000000000E-01 -3.7291291269713E-01  1.0736551724304E+00
101  1.0000000000000E+00 -3.6606558540487E-01  9.8414721729176E-01
102  1.0100000000000E+00 -3.5645141560141E-01  8.9159621655092E-01
103  1.0200000000000E+00 -3.4431559461807E-01  7.9675621411938E-01
104  1.0300000000000E+00 -3.2992460820718E-01  7.0043334873372E-01
105  1.0400000000000E+00 -3.1356272037068E-01  6.0347476721513E-01
106  1.0500000000000E+00 -2.9552809766954E-01  5.0675625944454E-01
107  1.0600000000000E+00 -2.7612863958454E-01  4.1116883994316E-01
108  1.0700000000000E+00 -2.5567758867899E-01  3.1760453180307E-01
109  1.0800000000000E+00 -2.3448900103955E-01  2.2694163435426E-01
110  1.0900000000000E+00 -2.1287316253175E-01  1.4002977559921E-01
111  1.1000000000000E+00 -1.9113203964681E-01  5.7675063493380E-02
112  1.1100000000000E+00 -1.6955485503101E-01 -1.9374343790793E-02
113  1.1200000000000E+00 -1.4841387710268E-01 -9.0441929722858E-02
114  1.1300000000000E+00 -1.2796051044144E-01 -1.5493546317225E-01
115  1.1400000000000E+00 -1.0842176893005E-01 -2.1235829978964E-01
116  1.1500000000000E+00 -8.9997206964336E-02 -2.6231906988036E-01
117  1.1600000000000E+00 -7.2856375610308E-02 -3.0453951131608E-01
118  1.1700000000000E+00 -5.7136860436445E-02 -3.3886024203422E-01
119  1.1800000000000E+00 -4.2942946236709E-02 -3.6524430773965E-01
120  1.1900000000000E+00 -3.0344941021491E-02 -3.8377838641166E-01
121  1.2000000000000E+00 -1.9379178014102E-02 -3.9467158023933E-01
122  1.2100000000000E+00 -1.0048699972977E-02 -3.9825177756315E-01
123  1.2200000000000E+00 -2.3246155226607E-03 -3.9495962026532E-01
124  1.2300000000000E+00  3.8518975011711E-03 -3.8534016516603E-01
125  1.2400000000000E+00  8.5669810651139E-03 -3.7003238010291E-01
126  1.2500000000000E+00  1.1930931301537E-02 -3.4975666482044E-01
127  1.2600000000000E+00  1.4074543970325E-02 -3.2530063318744E-01
128  1.2700000000000E+00  1.5145048175602E-02 -2.9750343481775E-01
129  1.2800000000000E+00  1.5301715352271E-02 -2.6723893014511E-01
130  1.2900000000000E+00  1.4711238680423E-02 -2.3539806278981E-01
131  1.3000000000000E+00  1.3542984170762E-02 -2.0287079539167E-01
132  1.3100000000000E+00  1.1964225495557E-02 -1.7052800967503E-01
133  1.3200000000000E+00  1.0135410292035E-02 -1.3920358430016E-01
134  1.3300000000000E+00  8.2056225278298E-03 -1.0967723738549E-01
135  1.3400000000000E+00  6.2889133170179E-03 -8.2601714073662E-02
136  1.3500000000000E+00  4.4866446774565E-03 -5.8563033858187E-02
137  1.3600000000000E+00  2.9096686298387E-03 -3.8143751421754E-02
138  1.3700000000000E+00  1.6387970639519E-03 -2.1806562728840E-02
139  1.3800000000000E+00  7.2432264807572E-04 -9.8932412670644E-03
140  1.3900000000000E+00  1.8190986379955E-04 -2.5803729646774E-03
141  1.4000000000000E+00  2.2486029647092E-06 -3.3712607258684E-05
142  1.4100000000000E+00  7.7974170542838E-07 -1.1456921349837E-05
143  1.4200000000000E+00 -2.6028125796646E-07  3.7348376988928E-06
144  1.43 -0. -0.
145  1.44  0.  0.
146  1.45  0.  0.
147  1.46  0.  0.
148  1.47  0.  0.
149  1.48  0.  0.
150  1.49  0.  0.
151  1.50  0.  0.
152  1.51  0.  0.
153  1.52  0.  0.
154  1.53  0.  0.
155  1.54  0.  0.
156  1.55  0.  0.
157  1.56  0.  0.
158  1.57  0.  0.
159  1.58  0.  0.
160  1.59  0.  0.
161  1.60  0.  0.
162  1.61  0.  0.
163  1.62  0.  0.
164  1.63  0.  0.
165  1.64  0.  0.
166  1.65  0.  0.
167  1.66  0.  0.
168  1.67  0.  0.
169  1.68  0.  0.
170  1.69  0.  0.
171  1.70  0.  0.
172  1.71  0.  0.
173  1.72  0.  0.
174  1.73  0.  0.
175  1.74  0.  0.
176  1.75  0.  0.
177  1.76  0.  0.
178  1.77  0.  0.
179  1.78  0.  0.
180  1.79  0.  0.
181  1.80  0.  0.
182  1.81  0.  0.
183  1.82  0.  0.
184  1.83  0.  0.
185  1.84  0.  0.
186  1.85  0.  0.
187  1.86  0.  0.
188  1.87  0.  0.
189  1.88  0.  0.
190  1.89  0.  0.
191  1.90  0.  0.
192  1.91  0.  0.
193  1.92  0.  0.
194  1.93  0.  0.
195  1.94  0.  0.
196  1.95  0.  0.
197  1.96  0.  0.
198  1.97  0.  0.
199  1.98  0.  0.
200  1.99  0.  0.
201  2.00  0.  0.
202  2.01  0.  0.
203  2.02  0.  0.
204  2.03  0.  0.
205  2.04  0.  0.
206  2.05  0.  0.
207  2.06  0.  0.
208  2.07  0.  0.
209  2.08  0.  0.
210  2.09  0.  0.
211  2.10  0.  0.
212  2.11  0.  0.
213  2.12  0.  0.
214  2.13  0.  0.
215  2.14  0.  0.
216  2.15  0.  0.
217  2.16  0.  0.
218  2.17  0.  0.
219  2.18  0.  0.
220  2.19  0.  0.
221  2.20  0.  0.
222  2.21  0.  0.
223  2.22  0.  0.
224  2.23  0.  0.
225  2.24  0.  0.
226  2.25  0.  0.
227  2.26  0.  0.
228  2.27  0.  0.
229  2.28  0.  0.
230  2.29  0.  0.
231  2.30  0.  0.
232  2.31  0.  0.
233  2.32  0.  0.
234  2.33  0.  0.
235  2.34  0.  0.
236  2.35  0.  0.
237  2.36  0.  0.
238  2.37  0.  0.
239  2.38  0.  0.
240  2.39  0.  0.
241  2.40  0.  0.
242  2.41  0.  0.
243  2.42  0.  0.
244  2.43  0.  0.
245  2.44  0.  0.
246  2.45  0.  0.
247  2.46  0.  0.
248  2.47  0.  0.
249  2.48  0.  0.
250  2.49  0.  0.
251  2.50  0.  0.
252  2.51  0.  0.
253  2.52  0.  0.
254  2.53  0.  0.
255  2.54  0.  0.
256  2.55  0.  0.
257  2.56  0.  0.
258  2.57  0.  0.
259  2.58  0.  0.
260  2.59  0.  0.
261  2.60  0.  0.
262  2.61  0.  0.
263  2.62  0.  0.
264  2.63  0.  0.
265  2.64  0.  0.
266  2.65  0.  0.
267  2.66  0.  0.
268  2.67  0.  0.
269  2.68  0.  0.
270  2.69  0.  0.
271  2.70  0.  0.
272  2.71  0.  0.
273  2.72  0.  0.
274  2.73  0.  0.
275  2.74  0.  0.