Db    ONCVPSP-4.0.1  r_core=   1.10309   1.20665   1.20665   1.20665
105.0000     45.0000      231012    zatom,zion,pspd
8 -116133   3     4   600     0    pspcod,pspxc,lmax,lloc,mmax,r2well
5.99000000  3.50000000  0.00000000    rchrg fchrg qchrg
3     2     2     2     0    nproj
1     1           extension_switch
0                         2.2282794475674E+01 -9.6738987243159E+00 -3.0669892183467E-01
1  0.0000000000000E+00 -2.8896675940970E-08 -2.0785062559980E-10  1.2558768491822E-07
2  1.0000000000000E-02  2.1332481811387E-01  4.6417762539322E-02 -8.5609270034603E-02
3  2.0000000000000E-02  4.2447471162532E-01  9.2865632935323E-02 -1.6939094282983E-01
4  3.0000000000000E-02  6.3130216136162E-01  1.3937274794128E-01 -2.4956275693912E-01
5  4.0000000000000E-02  8.3171404157996E-01  1.8596630955677E-01 -3.2443192413754E-01
6  5.0000000000000E-02  1.0236977807424E+00  2.3267063634982E-01 -3.9243690403239E-01
7  6.0000000000000E-02  1.2053463003703E+00  2.7950623739771E-01 -4.5218571819660E-01
8  7.0000000000000E-02  1.3748813595232E+00  3.2648891666803E-01 -5.0248980383041E-01
9  8.0000000000000E-02  1.5306749613441E+00  3.7362891586973E-01 -5.4239253254434E-01
10  9.0000000000000E-02  1.6712685130415E+00  4.2093010402256E-01 -5.7119166959029E-01
11  1.0000000000000E-01  1.7953894708941E+00  4.6838922219888E-01 -5.8845521825229E-01
12  1.1000000000000E-01  1.9019652465035E+00  5.1599519205615E-01 -5.9403027807495E-01
13  1.2000000000000E-01  1.9901341986412E+00  5.6372849687366E-01 -5.8804473868145E-01
14  1.3000000000000E-01  2.0592535856425E+00  6.1156064380358E-01 -5.7090182738332E-01
15  1.4000000000000E-01  2.1089044053304E+00  6.5945371591821E-01 -5.4326772284281E-01
16  1.5000000000000E-01  2.1388931018681E+00  7.0736002235513E-01 -5.0605263303305E-01
17  1.6000000000000E-01  2.1492501706821E+00  7.5522185441031E-01 -4.6038590830173E-01
18  1.7000000000000E-01  2.1402257426661E+00  8.0297135478839E-01 -4.0758591455109E-01
19  1.8000000000000E-01  2.1122822763194E+00  8.5053050637774E-01 -3.4912552311782E-01
20  1.9000000000000E-01  2.0660845304223E+00  8.9781124587213E-01 -2.8659417928919E-01
21  2.0000000000000E-01  2.0024870295407E+00  9.4471570631191E-01 -2.2165758781772E-01
22  2.1000000000000E-01  1.9225192694209E+00  9.9113659117544E-01 -1.5601609948603E-01
23  2.2000000000000E-01  1.8273689386633E+00  1.0369576810333E+00 -9.1362896892097E-02
24  2.3000000000000E-01  1.7183634565576E+00  1.0820544720066E+00 -2.9343060302096E-02
25  2.4000000000000E-01  1.5969501443626E+00  1.1262949433770E+00  2.8485453218560E-02
26  2.5000000000000E-01  1.4646753585293E+00  1.1695404497181E+00  8.0687960148863E-02
27  2.6000000000000E-01  1.3231629194044E+00  1.2116467308924E+00  1.2598547447281E-01
28  2.7000000000000E-01  1.1740921679943E+00  1.2524650312356E+00  1.6328267267154E-01
29  2.8000000000000E-01  1.0191759766904E+00  1.2918433172740E+00  1.9169080805254E-01
30  2.9000000000000E-01  8.6013902786274E-01  1.3296275814408E+00  2.1054513661403E-01
31  3.0000000000000E-01  6.9869665739926E-01  1.3656632175239E+00  2.1941657851871E-01
32  3.1000000000000E-01  5.3653453919604E-01  1.3997964520306E+00  2.1811750400216E-01
33  3.2000000000000E-01  3.7528946190217E-01  1.4318758143481E+00  2.0670169507534E-01
34  3.3000000000000E-01  2.1653142158453E-01  1.4617536275360E+00  1.8545868977000E-01
35  3.4000000000000E-01  6.1747224092809E-02  1.4892875008536E+00  1.5490285938075E-01
36  3.5000000000000E-01 -8.7674240519615E-02  1.5143418047179E+00  1.1575769709732E-01
37  3.6000000000000E-01 -2.3045492143839E-01  1.5367891087253E+00  6.8935905136966E-02
38  3.7000000000000E-01 -3.6543863078255E-01  1.5565115636615E+00  1.5515954250267E-02
39  3.8000000000000E-01 -4.9160010198554E-01  1.5734022090693E+00 -4.3284147663176E-02
40  3.9000000000000E-01 -6.0805204837012E-01  1.5873661889263E+00 -1.0613510323676E-01
41  4.0000000000000E-01 -7.1405021703484E-01  1.5983218592962E+00 -1.7162580239494E-01
42  4.1000000000000E-01 -8.0899646090794E-01  1.6062017734182E+00 -2.3829325296289E-01
43  4.2000000000000E-01 -8.9243987736000E-01  1.6109535315635E+00 -3.0465222508963E-01
44  4.3000000000000E-01 -9.6407608485215E-01  1.6125404850687E+00 -3.6922392563185E-01
45  4.4000000000000E-01 -1.0237447295645E+00  1.6109422862035E+00 -4.3056309301267E-01
46  4.5000000000000E-01 -1.0714253317114E+00  1.6061552779029E+00 -4.8728299221656E-01
47  4.6000000000000E-01 -1.1072315962869E+00  1.5981927198194E+00 -5.3807788972871E-01
48  4.7000000000000E-01 -1.1314043253482E+00  1.5870848495949E+00 -5.8174269530367E-01
49  4.8000000000000E-01 -1.1443030787253E+00  1.5728787806400E+00 -6.1718956727085E-01
50  4.9000000000000E-01 -1.1463967374047E+00  1.5556382400008E+00 -6.4346138650658E-01
51  5.0000000000000E-01 -1.1382531289347E+00  1.5354431520389E+00 -6.5974210726601E-01
52  5.1000000000000E-01 -1.1205278772473E+00  1.5123890755978E+00 -6.6536408713051E-01
53  5.2000000000000E-01 -1.0939526404948E+00  1.4865865040532E+00 -6.5981258022881E-01
54  5.3000000000000E-01 -1.0593229000606E+00  1.4581600391098E+00 -6.4272764500965E-01
55  5.4000000000000E-01 -1.0174854620241E+00  1.4272474503897E+00 -6.1390376826136E-01
56  5.5000000000000E-01 -9.6932582921554E-01  1.3939986337533E+00 -5.7328753955050E-01
57  5.6000000000000E-01 -9.1575559773455E-01  1.3585744818957E+00 -5.2097372434931E-01
58  5.7000000000000E-01 -8.5770002655976E-01  1.3211456810706E+00 -4.5720008016583E-01
59  5.8000000000000E-01 -7.9608592272160E-01  1.2818914478388E+00 -3.8234123903677E-01
60  5.9000000000000E-01 -7.3182997751436E-01  1.2409982195284E+00 -2.9690194360609E-01
61  6.0000000000000E-01 -6.6582768140673E-01  1.1986583116631E+00 -2.0150987507885E-01
62  6.1000000000000E-01 -5.9894293667410E-01  1.1550685550079E+00 -9.6908252573981E-02
63  6.2000000000000E-01 -5.3199847729662E-01  1.1104289241202E+00  1.6051681838355E-02
64  6.3000000000000E-01 -4.6576719531009E-01  1.0649411684431E+00  1.3641824620901E-01
65  6.4000000000000E-01 -4.0096446151716E-01  1.0188074560593E+00  2.6314699083670E-01
66  6.5000000000000E-01 -3.3824151622671E-01  9.7222903930095E-01  3.9510854287882E-01
67  6.6000000000000E-01 -2.7817999246067E-01  9.2540495050963E-01  5.3109676114053E-01
68  6.7000000000000E-01 -2.2128761984708E-01  8.7853073540688E-01  6.6983738156426E-01
69  6.8000000000000E-01 -1.6799514222804E-01  8.3179723079866E-01  8.0999736257909E-01
70  6.9000000000000E-01 -1.1865446591924E-01  7.8538939272075E-01  9.5019515179261E-01
71  7.0000000000000E-01 -7.3538038666705E-02  7.3948518065595E-01  1.0890120900506E+00
72  7.1000000000000E-01 -3.2839441818304E-02  6.9425450312494E-01  1.2250051450233E+00
73  7.2000000000000E-01  3.3248397327562E-03  6.4985822977106E-01  1.3567211243789E+00
74  7.3000000000000E-01  3.4912523407128E-02  6.0644727501661E-01  1.4827124592890E+00
75  7.4000000000000E-01  6.1951582170823E-02  5.6416175844406E-01  1.6015545744039E+00
76  7.5000000000000E-01  8.4535334215844E-02  5.2313024722597E-01  1.7118647731594E+00
77  7.6000000000000E-01  1.0281667479572E-01  4.8346908615573E-01  1.8123224707926E+00
78  7.7000000000000E-01  1.1700157126205E-01  4.4528182107979E-01  1.9016905056956E+00
79  7.8000000000000E-01  1.2734195596552E-01  4.0865872175415E-01  1.9788371572845E+00
80  7.9000000000000E-01  1.3412816315410E-01  3.7367641029769E-01  2.0427584001530E+00
81  8.0000000000000E-01  1.3768106490357E-01  3.4039760144299E-01  2.0925998349226E+00
82  8.1000000000000E-01  1.3834406706595E-01  3.0887096064529E-01  2.1276776607824E+00
83  8.2000000000000E-01  1.3647512887923E-01  2.7913108575738E-01  2.1474979979205E+00
84  8.3000000000000E-01  1.3243896896689E-01  2.5119861737549E-01  2.1517738341614E+00
85  8.4000000000000E-01  1.2659961576396E-01  2.2508048207515E-01  2.1404388627635E+00
86  8.5000000000000E-01  1.1931345182155E-01  2.0077027156715E-01  2.1136575004144E+00
87  8.6000000000000E-01  1.1092288894709E-01  1.7824875929726E-01  2.0718304279157E+00
88  8.7000000000000E-01  1.0175079482068E-01  1.5748455419226E-01  2.0155950818362E+00
89  8.8000000000000E-01  9.2095771792238E-02  1.3843488912909E-01  1.9458206433115E+00
90  8.9000000000000E-01  8.2228365319214E-02  1.2104653930006E-01  1.8635972188569E+00
91  9.0000000000000E-01  7.2388253376698E-02  1.0525686300277E-01  1.7702190849919E+00
92  9.1000000000000E-01  6.2782439685177E-02  9.0994954548218E-02  1.6671620700017E+00
93  9.2000000000000E-01  5.3584443373710E-02  7.8182896016531E-02  1.5560553675991E+00
94  9.3000000000000E-01  4.4934446432957E-02  6.6737091566856E-02  1.4386483128858E+00
95  9.4000000000000E-01  3.6940328760346E-02  5.6569665005018E-02  1.3167728945304E+00
96  9.5000000000000E-01  2.9679489572512E-02  4.7589898413745E-02  1.1923030213757E+00
97  9.6000000000000E-01  2.3201324269560E-02  3.9705686942196E-02  1.0671117994194E+00
98  9.7000000000000E-01  1.7530198293570E-02  3.2824982421113E-02  9.4302829880829E-01
99  9.8000000000000E-01  1.2668734922947E-02  2.6857196401961E-02  8.2179549265692E-01
100  9.9000000000000E-01  8.6012129903034E-03  2.1714531590140E-02  7.0503122329008E-01
101  1.0000000000000E+00  5.2968538719515E-03  1.7313209525117E-02  5.9419419037475E-01
102  1.0100000000000E+00  2.7127652999802E-03  1.3574561811768E-02  4.9055705390202E-01
103  1.0200000000000E+00  7.9630301150709E-04  1.0425952271718E-02  3.9518879868468E-01
104  1.0300000000000E+00 -5.1337956420460E-04  7.8015019246162E-03  3.0894843909805E-01
105  1.0400000000000E+00 -1.2848970414835E-03  5.6425560174960E-03  2.3249268074177E-01
106  1.0500000000000E+00 -1.5973962371687E-03  3.8972296539135E-03  1.6631276581489E-01
107  1.0600000000000E+00 -1.5684842636778E-03  2.5087706191127E-03  1.1096640804244E-01
108  1.0700000000000E+00 -1.2764417216118E-03  1.4452297746873E-03  6.6546095317239E-02
109  1.0800000000000E+00 -8.1626965923231E-04  6.8703962456410E-04  3.3099057829965E-02
110  1.0900000000000E+00 -3.3290857572547E-04  2.1536607576917E-04  1.0920150593035E-02
111  1.1000000000000E+00 -2.8027868089177E-05  1.4179604201364E-05  7.6258454412442E-04
112  1.1100000000000E+00 -2.8511823972387E-07  1.4263047055479E-07  7.7125228616473E-06
113  1.1200000000000E+00  2.5072738067139E-07 -1.3741789566592E-07 -7.2585637927527E-06
114  1.13  0.  0.  0.
115  1.14  0.  0.  0.
116  1.15  0.  0.  0.
117  1.16  0.  0.  0.
118  1.17  0.  0.  0.
119  1.18  0.  0.  0.
120  1.19  0.  0.  0.
121  1.20  0.  0.  0.
122  1.21  0.  0.  0.
123  1.22  0.  0.  0.
124  1.23  0.  0.  0.
125  1.24  0.  0.  0.
126  1.25  0.  0.  0.
127  1.26  0.  0.  0.
128  1.27  0.  0.  0.
129  1.28  0.  0.  0.
130  1.29  0.  0.  0.
131  1.30  0.  0.  0.
132  1.31  0.  0.  0.
133  1.32  0.  0.  0.
134  1.33  0.  0.  0.
135  1.34  0.  0.  0.
136  1.35  0.  0.  0.
137  1.36  0.  0.  0.
138  1.37  0.  0.  0.
139  1.38  0.  0.  0.
140  1.39  0.  0.  0.
141  1.40  0.  0.  0.
142  1.41  0.  0.  0.
143  1.42  0.  0.  0.
144  1.43  0.  0.  0.
145  1.44  0.  0.  0.
146  1.45  0.  0.  0.
147  1.46  0.  0.  0.
148  1.47  0.  0.  0.
149  1.48  0.  0.  0.
150  1.49  0.  0.  0.
151  1.50  0.  0.  0.
152  1.51  0.  0.  0.
153  1.52  0.  0.  0.
154  1.53  0.  0.  0.
155  1.54  0.  0.  0.
156  1.55  0.  0.  0.
157  1.56  0.  0.  0.
158  1.57  0.  0.  0.
159  1.58  0.  0.  0.
160  1.59  0.  0.  0.
161  1.60  0.  0.  0.
162  1.61  0.  0.  0.
163  1.62  0.  0.  0.
164  1.63  0.  0.  0.
165  1.64  0.  0.  0.
166  1.65  0.  0.  0.
167  1.66  0.  0.  0.
168  1.67  0.  0.  0.
169  1.68  0.  0.  0.
170  1.69  0.  0.  0.
171  1.70  0.  0.  0.
172  1.71  0.  0.  0.
173  1.72  0.  0.  0.
174  1.73  0.  0.  0.
175  1.74  0.  0.  0.
176  1.75  0.  0.  0.
177  1.76  0.  0.  0.
178  1.77  0.  0.  0.
179  1.78  0.  0.  0.
180  1.79  0.  0.  0.
181  1.80  0.  0.  0.
182  1.81  0.  0.  0.
183  1.82  0.  0.  0.
184  1.83  0.  0.  0.
185  1.84  0.  0.  0.
186  1.85  0.  0.  0.
187  1.86  0.  0.  0.
188  1.87  0.  0.  0.
189  1.88  0.  0.  0.
190  1.89  0.  0.  0.
191  1.90  0.  0.  0.
192  1.91  0.  0.  0.
193  1.92  0.  0.  0.
194  1.93  0.  0.  0.
195  1.94  0.  0.  0.
196  1.95  0.  0.  0.
197  1.96  0.  0.  0.
198  1.97  0.  0.  0.
199  1.98  0.  0.  0.
200  1.99  0.  0.  0.
201  2.00  0.  0.  0.
202  2.01  0.  0.  0.
203  2.02  0.  0.  0.
204  2.03  0.  0.  0.
205  2.04  0.  0.  0.
206  2.05  0.  0.  0.
207  2.06  0.  0.  0.
208  2.07  0.  0.  0.
209  2.08  0.  0.  0.
210  2.09  0.  0.  0.
211  2.10  0.  0.  0.
212  2.11  0.  0.  0.
213  2.12  0.  0.  0.
214  2.13  0.  0.  0.
215  2.14  0.  0.  0.
216  2.15  0.  0.  0.
217  2.16  0.  0.  0.
218  2.17  0.  0.  0.
219  2.18  0.  0.  0.
220  2.19  0.  0.  0.
221  2.20  0.  0.  0.
222  2.21  0.  0.  0.
223  2.22  0.  0.  0.
224  2.23  0.  0.  0.
225  2.24  0.  0.  0.
226  2.25  0.  0.  0.
227  2.26  0.  0.  0.
228  2.27  0.  0.  0.
229  2.28  0.  0.  0.
230  2.29  0.  0.  0.
231  2.30  0.  0.  0.
232  2.31  0.  0.  0.
233  2.32  0.  0.  0.
234  2.33  0.  0.  0.
235  2.34  0.  0.  0.
236  2.35  0.  0.  0.
237  2.36  0.  0.  0.
238  2.37  0.  0.  0.
239  2.38  0.  0.  0.
240  2.39  0.  0.  0.
241  2.40  0.  0.  0.
242  2.41  0.  0.  0.
243  2.42  0.  0.  0.
244  2.43  0.  0.  0.
245  2.44  0.  0.  0.
246  2.45  0.  0.  0.
247  2.46  0.  0.  0.
248  2.47  0.  0.  0.
249  2.48  0.  0.  0.
250  2.49  0.  0.  0.
251  2.50  0.  0.  0.
252  2.51  0.  0.  0.
253  2.52  0.  0.  0.
254  2.53  0.  0.  0.
255  2.54  0.  0.  0.
256  2.55  0.  0.  0.
257  2.56  0.  0.  0.
258  2.57  0.  0.  0.
259  2.58  0.  0.  0.
260  2.59  0.  0.  0.
261  2.60  0.  0.  0.
262  2.61  0.  0.  0.
263  2.62  0.  0.  0.
264  2.63  0.  0.  0.
265  2.64  0.  0.  0.
266  2.65  0.  0.  0.
267  2.66  0.  0.  0.
268  2.67  0.  0.  0.
269  2.68  0.  0.  0.
270  2.69  0.  0.  0.
271  2.70  0.  0.  0.
272  2.71  0.  0.  0.
273  2.72  0.  0.  0.
274  2.73  0.  0.  0.
275  2.74  0.  0.  0.
276  2.75  0.  0.  0.
277  2.76  0.  0.  0.
278  2.77  0.  0.  0.
279  2.78  0.  0.  0.
280  2.79  0.  0.  0.
281  2.80  0.  0.  0.
282  2.81  0.  0.  0.
283  2.82  0.  0.  0.
284  2.83  0.  0.  0.
285  2.84  0.  0.  0.
286  2.85  0.  0.  0.
287  2.86  0.  0.  0.
288  2.87  0.  0.  0.
289  2.88  0.  0.  0.
290  2.89  0.  0.  0.
291  2.90  0.  0.  0.
292  2.91  0.  0.  0.
293  2.92  0.  0.  0.
294  2.93  0.  0.  0.
295  2.94  0.  0.  0.
296  2.95  0.  0.  0.
297  2.96  0.  0.  0.
298  2.97  0.  0.  0.
299  2.98  0.  0.  0.
300  2.99  0.  0.  0.
301  3.00  0.  0.  0.
302  3.01  0.  0.  0.
303  3.02  0.  0.  0.
304  3.03  0.  0.  0.
305  3.04  0.  0.  0.
306  3.05  0.  0.  0.
307  3.06  0.  0.  0.
308  3.07  0.  0.  0.
309  3.08  0.  0.  0.
310  3.09  0.  0.  0.
311  3.10  0.  0.  0.
312  3.11  0.  0.  0.
313  3.12  0.  0.  0.
314  3.13  0.  0.  0.
315  3.14  0.  0.  0.
316  3.15  0.  0.  0.
317  3.16  0.  0.  0.
318  3.17  0.  0.  0.
319  3.18  0.  0.  0.
320  3.19  0.  0.  0.
321  3.20  0.  0.  0.
322  3.21  0.  0.  0.
323  3.22  0.  0.  0.
324  3.23  0.  0.  0.
325  3.24  0.  0.  0.
326  3.25  0.  0.  0.
327  3.26  0.  0.  0.
328  3.27  0.  0.  0.
329  3.28  0.  0.  0.
330  3.29  0.  0.  0.
331  3.30  0.  0.  0.
332  3.31  0.  0.  0.
333  3.32  0.  0.  0.
334  3.33  0.  0.  0.
335  3.34  0.  0.  0.
336  3.35  0.  0.  0.
337  3.36  0.  0.  0.
338  3.37  0.  0.  0.
339  3.38  0.  0.  0.
340  3.39  0.  0.  0.
341  3.40  0.  0.  0.
342  3.41  0.  0.  0.
343  3.42  0.  0.  0.
344  3.43  0.  0.  0.
345  3.44  0.  0.  0.
346  3.45  0.  0.  0.
347  3.46  0.  0.  0.
348  3.47  0.  0.  0.
349  3.48  0.  0.  0.
350  3.49  0.  0.  0.
351  3.50  0.  0.  0.
352  3.51  0.  0.  0.
353  3.52  0.  0.  0.
354  3.53  0.  0.  0.
355  3.54  0.  0.  0.
356  3.55  0.  0.  0.
357  3.56  0.  0.  0.
358  3.57  0.  0.  0.
359  3.58  0.  0.  0.
360  3.59  0.  0.  0.
361  3.60  0.  0.  0.
362  3.61  0.  0.  0.
363  3.62  0.  0.  0.
364  3.63  0.  0.  0.
365  3.64  0.  0.  0.
366  3.65  0.  0.  0.
367  3.66  0.  0.  0.
368  3.67  0.  0.  0.
369  3.68  0.  0.  0.
370  3.69  0.  0.  0.
371  3.70  0.  0.  0.
372  3.71  0.  0.  0.
373  3.72  0.  0.  0.
374  3.73  0.  0.  0.
375  3.74  0.  0.  0.
376  3.75  0.  0.  0.
377  3.76  0.  0.  0.
378  3.77  0.  0.  0.
379  3.78  0.  0.  0.
380  3.79  0.  0.  0.
381  3.80  0.  0.  0.
382  3.81  0.  0.  0.
383  3.82  0.  0.  0.
384  3.83  0.  0.  0.
385  3.84  0.  0.  0.
386  3.85  0.  0.  0.
387  3.86  0.  0.  0.
388  3.87  0.  0.  0.
389  3.88  0.  0.  0.
390  3.89  0.  0.  0.
391  3.90  0.  0.  0.
392  3.91  0.  0.  0.
393  3.92  0.  0.  0.
394  3.93  0.  0.  0.
395  3.94  0.  0.  0.
396  3.95  0.  0.  0.
397  3.96  0.  0.  0.
398  3.97  0.  0.  0.
399  3.98  0.  0.  0.
400  3.99  0.  0.  0.
401  4.00  0.  0.  0.
402  4.01  0.  0.  0.
403  4.02  0.  0.  0.
404  4.03  0.  0.  0.
405  4.04  0.  0.  0.
406  4.05  0.  0.  0.
407  4.06  0.  0.  0.
408  4.07  0.  0.  0.
409  4.08  0.  0.  0.
410  4.09  0.  0.  0.
411  4.10  0.  0.  0.
412  4.11  0.  0.  0.
413  4.12  0.  0.  0.
414  4.13  0.  0.  0.
415  4.14  0.  0.  0.
416  4.15  0.  0.  0.
417  4.16  0.  0.  0.
418  4.17  0.  0.  0.
419  4.18  0.  0.  0.
420  4.19  0.  0.  0.
421  4.20  0.  0.  0.
422  4.21  0.  0.  0.
423  4.22  0.  0.  0.
424  4.23  0.  0.  0.
425  4.24  0.  0.  0.
426  4.25  0.  0.  0.
427  4.26  0.  0.  0.
428  4.27  0.  0.  0.
429  4.28  0.  0.  0.
430  4.29  0.  0.  0.
431  4.30  0.  0.  0.
432  4.31  0.  0.  0.
433  4.32  0.  0.  0.
434  4.33  0.  0.  0.
435  4.34  0.  0.  0.
436  4.35  0.  0.  0.
437  4.36  0.  0.  0.
438  4.37  0.  0.  0.
439  4.38  0.  0.  0.
440  4.39  0.  0.  0.
441  4.40  0.  0.  0.
442  4.41  0.  0.  0.
443  4.42  0.  0.  0.
444  4.43  0.  0.  0.
445  4.44  0.  0.  0.
446  4.45  0.  0.  0.
447  4.46  0.  0.  0.
448  4.47  0.  0.  0.
449  4.48  0.  0.  0.
450  4.49  0.  0.  0.
451  4.50  0.  0.  0.
452  4.51  0.  0.  0.
453  4.52  0.  0.  0.
454  4.53  0.  0.  0.
455  4.54  0.  0.  0.
456  4.55  0.  0.  0.
457  4.56  0.  0.  0.
458  4.57  0.  0.  0.
459  4.58  0.  0.  0.
460  4.59  0.  0.  0.
461  4.60  0.  0.  0.
462  4.61  0.  0.  0.
463  4.62  0.  0.  0.
464  4.63  0.  0.  0.
465  4.64  0.  0.  0.
466  4.65  0.  0.  0.
467  4.66  0.  0.  0.
468  4.67  0.  0.  0.
469  4.68  0.  0.  0.
470  4.69  0.  0.  0.
471  4.70  0.  0.  0.
472  4.71  0.  0.  0.
473  4.72  0.  0.  0.
474  4.73  0.  0.  0.
475  4.74  0.  0.  0.
476  4.75  0.  0.  0.
477  4.76  0.  0.  0.
478  4.77  0.  0.  0.
479  4.78  0.  0.  0.
480  4.79  0.  0.  0.
481  4.80  0.  0.  0.
482  4.81  0.  0.  0.
483  4.82  0.  0.  0.
484  4.83  0.  0.  0.
485  4.84  0.  0.  0.
486  4.85  0.  0.  0.
487  4.86  0.  0.  0.
488  4.87  0.  0.  0.
489  4.88  0.  0.  0.
490  4.89  0.  0.  0.
491  4.90  0.  0.  0.
492  4.91  0.  0.  0.
493  4.92  0.  0.  0.
494  4.93  0.  0.  0.
495  4.94  0.  0.  0.
496  4.95  0.  0.  0.
497  4.96  0.  0.  0.
498  4.97  0.  0.  0.
499  4.98  0.  0.  0.
500  4.99  0.  0.  0.
501  5.00  0.  0.  0.
502  5.01  0.  0.  0.
503  5.02  0.  0.  0.
504  5.03  0.  0.  0.
505  5.04  0.  0.  0.
506  5.05  0.  0.  0.
507  5.06  0.  0.  0.
508  5.07  0.  0.  0.
509  5.08  0.  0.  0.
510  5.09  0.  0.  0.
511  5.10  0.  0.  0.
512  5.11  0.  0.  0.
513  5.12  0.  0.  0.
514  5.13  0.  0.  0.
515  5.14  0.  0.  0.
516  5.15  0.  0.  0.
517  5.16  0.  0.  0.
518  5.17  0.  0.  0.
519  5.18  0.  0.  0.
520  5.19  0.  0.  0.
521  5.20  0.  0.  0.
522  5.21  0.  0.  0.
523  5.22  0.  0.  0.
524  5.23  0.  0.  0.
525  5.24  0.  0.  0.
526  5.25  0.  0.  0.
527  5.26  0.  0.  0.
528  5.27  0.  0.  0.
529  5.28  0.  0.  0.
530  5.29  0.  0.  0.
531  5.30  0.  0.  0.
532  5.31  0.  0.  0.
533  5.32  0.  0.  0.
534  5.33  0.  0.  0.
535  5.34  0.  0.  0.
536  5.35  0.  0.  0.
537  5.36  0.  0.  0.
538  5.37  0.  0.  0.
539  5.38  0.  0.  0.
540  5.39  0.  0.  0.
541  5.40  0.  0.  0.
542  5.41  0.  0.  0.
543  5.42  0.  0.  0.
544  5.43  0.  0.  0.
545  5.44  0.  0.  0.
546  5.45  0.  0.  0.
547  5.46  0.  0.  0.
548  5.47  0.  0.  0.
549  5.48  0.  0.  0.
550  5.49  0.  0.  0.
551  5.50  0.  0.  0.
552  5.51  0.  0.  0.
553  5.52  0.  0.  0.
554  5.53  0.  0.  0.
555  5.54  0.  0.  0.
556  5.55  0.  0.  0.
557  5.56  0.  0.  0.
558  5.57  0.  0.  0.
559  5.58  0.  0.  0.
560  5.59  0.  0.  0.
561  5.60  0.  0.  0.
562  5.61  0.  0.  0.
563  5.62  0.  0.  0.
564  5.63  0.  0.  0.
565  5.64  0.  0.  0.
566  5.65  0.  0.  0.
567  5.66  0.  0.  0.
568  5.67  0.  0.  0.
569  5.68  0.  0.  0.
570  5.69  0.  0.  0.
571  5.70  0.  0.  0.
572  5.71  0.  0.  0.
573  5.72  0.  0.  0.
574  5.73  0.  0.  0.
575  5.74  0.  0.  0.
576  5.75  0.  0.  0.
577  5.76  0.  0.  0.
578  5.77  0.  0.  0.
579  5.78  0.  0.  0.
580  5.79  0.  0.  0.
581  5.80  0.  0.  0.
582  5.81  0.  0.  0.
583  5.82  0.  0.  0.
584  5.83  0.  0.  0.
585  5.84  0.  0.  0.
586  5.85  0.  0.  0.
587  5.86  0.  0.  0.
588  5.87  0.  0.  0.
589  5.88  0.  0.  0.
590  5.89  0.  0.  0.
591  5.90  0.  0.  0.
592  5.91  0.  0.  0.
593  5.92  0.  0.  0.
594  5.93  0.  0.  0.
595  5.94  0.  0.  0.
596  5.95  0.  0.  0.
597  5.96  0.  0.  0.
598  5.97  0.  0.  0.
599  5.98  0.  0.  0.
600  5.99  0.  0.  0.
1                        -8.6104347201659E+00 -3.4267845028265E+00
1  0.0000000000000E+00  5.2649125337201E-09  3.6968190675335E-08
2  1.0000000000000E-02  3.0434547221969E-03  6.4391878557837E-03
3  2.0000000000000E-02  1.2149390102397E-02  2.5658018663076E-02
4  3.0000000000000E-02  2.7244764775679E-02  5.7361715619017E-02
5  4.0000000000000E-02  4.8208656840260E-02  1.0106370137937E-01
6  5.0000000000000E-02  7.4873474162399E-02  1.5609260110068E-01
7  6.0000000000000E-02  1.0702662843455E-01  2.2160190191875E-01
8  7.0000000000000E-02  1.4441265294470E-01  2.9658212667370E-01
9  8.0000000000000E-02  1.8673573874994E-01  3.7987534272378E-01
10  9.0000000000000E-02  2.3366265901991E-01  4.7019179239678E-01
11  1.0000000000000E-01  2.8482604679170E-01  5.6612840052211E-01
12  1.1000000000000E-01  3.3982798731567E-01  6.6618888703896E-01
13  1.2000000000000E-01  3.9824388262730E-01  7.6880518930396E-01
14  1.3000000000000E-01  4.5962654299738E-01  8.7235987978345E-01
15  1.4000000000000E-01  5.2351045753256E-01  9.7520925060125E-01
16  1.5000000000000E-01  5.8941619444881E-01  1.0757067271499E+00
17  1.6000000000000E-01  6.5685488044451E-01  1.1722262688045E+00
18  1.7000000000000E-01  7.2533270816850E-01  1.2631854157801E+00
19  1.8000000000000E-01  7.9435542101512E-01  1.3470676473362E+00
20  1.9000000000000E-01  8.6343272537561E-01  1.4224437277660E+00
21  2.0000000000000E-01  9.3208258201711E-01  1.4879917327522E+00
22  2.1000000000000E-01  9.9983533042136E-01  1.5425154694721E+00
23  2.2000000000000E-01  1.0662376026603E+00  1.5849610289845E+00
24  2.3000000000000E-01  1.1308559866731E+00  1.6144312385276E+00
25  2.4000000000000E-01  1.1932804025850E+00  1.6301978139529E+00
26  2.5000000000000E-01  1.2531271599226E+00  1.6317110481037E+00
27  2.6000000000000E-01  1.3100416681539E+00  1.6186069089452E+00
28  2.7000000000000E-01  1.3637007778686E+00  1.5907114610746E+00
29  2.8000000000000E-01  1.4138147350133E+00  1.5480425652347E+00
30  2.9000000000000E-01  1.4601287358583E+00  1.4908088519728E+00
31  3.0000000000000E-01  1.5024240756998E+00  1.4194060069629E+00
32  3.1000000000000E-01  1.5405188896261E+00  1.3344104460621E+00
33  3.2000000000000E-01  1.5742684889166E+00  1.2365704972716E+00
34  3.3000000000000E-01  1.6035653017242E+00  1.1267952437608E+00
35  3.4000000000000E-01  1.6283384315418E+00  1.0061412164217E+00
36  3.5000000000000E-01  1.6485528515057E+00  8.7579715548313E-01
37  3.6000000000000E-01  1.6642082567771E+00  7.3706708804710E-01
38  3.7000000000000E-01  1.6753376010180E+00  5.9135199158101E-01
39  3.8000000000000E-01  1.6820053462809E+00  4.4013033205530E-01
40  3.9000000000000E-01  1.6843054584369E+00  2.8493777927954E-01
41  4.0000000000000E-01  1.6823591825272E+00  1.2734641086466E-01
42  4.1000000000000E-01  1.6763126341276E+00 -3.1056279978020E-02
43  4.2000000000000E-01  1.6663342439465E+00 -1.8868825892106E-01
44  4.3000000000000E-01  1.6526120934305E+00 -3.4399339978087E-01
45  4.4000000000000E-01  1.6353511791367E+00 -4.9546121230416E-01
46  4.5000000000000E-01  1.6147706430591E+00 -6.4164556813587E-01
47  4.6000000000000E-01  1.5911010049949E+00 -7.8118216485569E-01
48  4.7000000000000E-01  1.5645814314356E+00 -9.1280449213830E-01
49  4.8000000000000E-01  1.5354570734074E+00 -1.0353580917457E+00
50  4.9000000000000E-01  1.5039765032131E+00 -1.1478129336819E+00
51  5.0000000000000E-01  1.4703892771939E+00 -1.2492737638822E+00
52  5.1000000000000E-01  1.4349436484919E+00 -1.3389883136739E+00
53  5.2000000000000E-01  1.3978844504144E+00 -1.4163532973179E+00
54  5.3000000000000E-01  1.3594511674379E+00 -1.4809181606012E+00
55  5.4000000000000E-01  1.3198762072159E+00 -1.5323865800516E+00
56  5.5000000000000E-01  1.2793833832210E+00 -1.5706157482894E+00
57  5.6000000000000E-01  1.2381866139382E+00 -1.5956135156954E+00
58  5.7000000000000E-01  1.1964888408808E+00 -1.6075334914134E+00
59  5.8000000000000E-01  1.1544811641891E+00 -1.6066682371674E+00
60  5.9000000000000E-01  1.1123421912428E+00 -1.5934407150022E+00
61  6.0000000000000E-01  1.0702375906334E+00 -1.5683941744104E+00
62  6.1000000000000E-01  1.0283198410278E+00 -1.5321806850440E+00
63  6.2000000000000E-01  9.8672816196281E-01 -1.4855485380220E+00
64  6.3000000000000E-01  9.4558861146975E-01 -1.4293287515300E+00
65  6.4000000000000E-01  9.0501433365366E-01 -1.3644209248052E+00
66  6.5000000000000E-01  8.6510593797517E-01 -1.2917786886581E+00
67  6.6000000000000E-01  8.2595199100105E-01 -1.2123950003939E+00
68  6.7000000000000E-01  7.8762960081197E-01 -1.1272875264507E+00
69  6.8000000000000E-01  7.5020507407481E-01 -1.0374843474204E+00
70  6.9000000000000E-01  7.1373462599210E-01 -9.4401020757464E-01
71  7.0000000000000E-01  6.7826512391266E-01 -8.4787351487833E-01
72  7.1000000000000E-01  6.4383484630347E-01 -7.5005427805734E-01
73  7.2000000000000E-01  6.1047424001190E-01 -6.5149314500118E-01
74  7.3000000000000E-01  5.7820666025610E-01 -5.5308168204649E-01
75  7.4000000000000E-01  5.4704907953209E-01 -4.5565400696845E-01
76  7.5000000000000E-01  5.1701275357594E-01 -3.5997986030138E-01
77  7.6000000000000E-01  4.8810383462609E-01 -2.6675917042024E-01
78  7.7000000000000E-01  4.6032392444831E-01 -1.7661813815706E-01
79  7.8000000000000E-01  4.3367056186775E-01 -9.0106837120781E-02
80  7.9000000000000E-01  4.0813764185340E-01 -7.6982968374131E-03
81  8.0000000000000E-01  3.8371576547492E-01  7.0210992180566E-02
82  8.1000000000000E-01  3.6039252225667E-01  1.4329923882648E-01
83  8.2000000000000E-01  3.3815270854847E-01  2.1131628921102E-01
84  8.3000000000000E-01  3.1697848747846E-01  2.7407947609016E-01
85  8.4000000000000E-01  2.9684949781758E-01  3.3146853368079E-01
86  8.5000000000000E-01  2.7774292063678E-01  3.8341974824883E-01
87  8.6000000000000E-01  2.5963351395263E-01  4.2991952827604E-01
88  8.7000000000000E-01  2.4249362661435E-01  4.7099758805943E-01
89  8.8000000000000E-01  2.2629320347106E-01  5.0671994516229E-01
90  8.9000000000000E-01  2.1099979436206E-01  5.3718193515748E-01
91  9.0000000000000E-01  1.9657857969337E-01  5.6250144660131E-01
92  9.1000000000000E-01  1.8299242530038E-01  5.8281257520900E-01
93  9.2000000000000E-01  1.7020197895868E-01  5.9825988891487E-01
94  9.3000000000000E-01  1.5816582030287E-01  6.0899348506421E-01
95  9.4000000000000E-01  1.4684067506690E-01  6.1516500764984E-01
96  9.5000000000000E-01  1.3618170348697E-01  6.1692477655221E-01
97  9.6000000000000E-01  1.2614287143846E-01  6.1442016250023E-01
98  9.7000000000000E-01  1.1667741143775E-01  6.0779532129358E-01
99  9.8000000000000E-01  1.0773837906210E-01  5.9719237912647E-01
100  9.9000000000000E-01  9.9279308657159E-02  5.8275413800126E-01
101  1.0000000000000E+00  9.1254970450118E-02  5.6462834668126E-01
102  1.0100000000000E+00  8.3622229400252E-02  5.4297355879991E-01
103  1.0200000000000E+00  7.6341004335735E-02  5.1796657606856E-01
104  1.0300000000000E+00  6.9375324178457E-02  4.8981145138560E-01
105  1.0400000000000E+00  6.2694476384252E-02  4.5875000448705E-01
106  1.0500000000000E+00  5.6274241153543E-02  4.2507378192693E-01
107  1.0600000000000E+00  5.0098203526132E-02  3.8913737397676E-01
108  1.0700000000000E+00  4.4159134192728E-02  3.5137298383338E-01
109  1.0800000000000E+00  3.8460428752108E-02  3.1230612951898E-01
110  1.0900000000000E+00  3.3017594283747E-02  2.7257234686442E-01
111  1.1000000000000E+00  2.7859757127980E-02  2.3293457889973E-01
112  1.1100000000000E+00  2.3031017433462E-02  1.9429913708213E-01
113  1.1200000000000E+00  1.8583740099293E-02  1.5763392513369E-01
114  1.1300000000000E+00  1.4563695577252E-02  1.2378551669995E-01
115  1.1400000000000E+00  1.1006920759482E-02  9.3436490620410E-02
116  1.1500000000000E+00  7.9372955134133E-03  6.7074782314342E-02
117  1.1600000000000E+00  5.3522550646264E-03  4.4839269590155E-02
118  1.1700000000000E+00  3.2704298997484E-03  2.7038932742697E-02
119  1.1800000000000E+00  1.7044323992029E-03  1.3839423455114E-02
120  1.1900000000000E+00  6.5314964208255E-04  5.1802842598639E-03
121  1.2000000000000E+00  1.0265925962816E-04  7.9040519925476E-04
122  1.2100000000000E+00 -5.6165886802873E-06 -4.2151753463501E-05
123  1.2200000000000E+00  7.4729917552868E-07  5.6661116031854E-06
124  1.23 -0. -0.
125  1.24  0.  0.
126  1.25  0.  0.
127  1.26  0.  0.
128  1.27  0.  0.
129  1.28  0.  0.
130  1.29  0.  0.
131  1.30  0.  0.
132  1.31  0.  0.
133  1.32  0.  0.
134  1.33  0.  0.
135  1.34  0.  0.
136  1.35  0.  0.
137  1.36  0.  0.
138  1.37  0.  0.
139  1.38  0.  0.
140  1.39  0.  0.
141  1.40  0.  0.
142  1.41  0.  0.
143  1.42  0.  0.
144  1.43  0.  0.
145  1.44  0.  0.
146  1.45  0.  0.
147  1.46  0.  0.
148  1.47  0.  0.
149  1.48  0.  0.
150  1.49  0.  0.
151  1.50  0.  0.
152  1.51  0.  0.
153  1.52  0.  0.
154  1.53  0.  0.
155  1.54  0.  0.
156  1.55  0.  0.
157  1.56  0.  0.
158  1.57  0.  0.
159  1.58  0.  0.
160  1.59  0.  0.
161  1.60  0.  0.
162  1.61  0.  0.
163  1.62  0.  0.
164  1.63  0.  0.
165  1.64  0.  0.
166  1.65  0.  0.
167  1.66  0.  0.
168  1.67  0.  0.
169  1.68  0.  0.