Db    ONCVPSP-4.0.1  r_core=   1.10309   1.20665   1.20665   1.20665
105.0000     45.0000      231012    zatom,zion,pspd
8 -116133   3     4   600     0    pspcod,pspxc,lmax,lloc,mmax,r2well
5.99000000  3.50000000  0.00000000    rchrg fchrg qchrg
3     3     2     2    nproj
3     1           extension_switch
3     3     3    nprojso
0                         2.2608568950373E+01 -9.5143770881253E+00 -3.0226294041752E-01
1  0.0000000000000E+00 -2.9328584227883E-08 -3.8858766204797E-10  1.3753280059259E-07
2  1.0000000000000E-02  2.1324560602589E-01  4.5552610631129E-02 -9.0196189748579E-02
3  2.0000000000000E-02  4.2432391383515E-01  9.1138090035553E-02 -1.7844769241558E-01
4  3.0000000000000E-02  6.3109494290155E-01  1.3678836611427E-01 -2.6285817368228E-01
5  4.0000000000000E-02  8.3147292978499E-01  1.8253349103963E-01 -3.4162671450904E-01
6  5.0000000000000E-02  1.0234523986979E+00  2.2840071854687E-01 -4.1309233037920E-01
7  6.0000000000000E-02  1.2051330080530E+00  2.7441359972961E-01 -4.7577476753053E-01
8  7.0000000000000E-02  1.3747428003925E+00  3.2059110401267E-01 -5.2841050350281E-01
9  8.0000000000000E-02  1.5306595124265E+00  3.6694677236427E-01 -5.6998301686267E-01
10  9.0000000000000E-02  1.6714296373272E+00  4.1348791024167E-01 -5.9974655470402E-01
11  1.0000000000000E-01  1.7957849721526E+00  4.6021482820725E-01 -6.1724281140751E-01
12  1.1000000000000E-01  1.9026564284217E+00  5.0712013857094E-01 -6.2231013250526E-01
13  1.2000000000000E-01  1.9911849324538E+00  5.5418811677006E-01 -6.1508506719485E-01
14  1.3000000000000E-01  2.0607292930820E+00  6.0139413645390E-01 -5.9599630573268E-01
15  1.4000000000000E-01  2.1108709666812E+00  6.4870418735860E-01 -5.6575124718525E-01
16  1.5000000000000E-01  2.1414157020312E+00  6.9607448500613E-01 -5.2531564261096E-01
17  1.6000000000000E-01  2.1523920993037E+00  7.4345118101007E-01 -4.7588694280476E-01
18  1.7000000000000E-01  2.1440471673962E+00  7.9077018229673E-01 -4.1886214295338E-01
19  1.8000000000000E-01  2.1168390109853E+00  8.3795708683755E-01 -3.5580105433318E-01
20  1.9000000000000E-01  2.0714268221673E+00  8.8492724252896E-01 -2.8838604178603E-01
21  2.0000000000000E-01  2.0086583906474E+00  9.3158593465004E-01 -2.1837934238012E-01
22  2.1000000000000E-01  1.9295553804846E+00  9.7782870588449E-01 -1.4757912366285E-01
23  2.2000000000000E-01  1.8352966499049E+00  1.0235418112323E+00 -7.7775448623773E-02
24  2.3000000000000E-01  1.7271999133004E+00  1.0686028082812E+00 -1.0707289343108E-02
25  2.4000000000000E-01  1.6067020610187E+00  1.1128812812991E+00  5.1978326173203E-02
26  2.5000000000000E-01  1.4753384628472E+00  1.1562396954796E+00  1.0876403677748E-01
27  2.6000000000000E-01  1.3347215852849E+00  1.1985343754821E+00  1.5829585714128E-01
28  2.7000000000000E-01  1.1865192509640E+00  1.2396166001968E+00  1.9941212548053E-01
29  2.8000000000000E-01  1.0324328612635E+00  1.2793338034972E+00  2.3116709618484E-01
30  2.9000000000000E-01  8.7417589067412E-01  1.3175308686661E+00  2.5284874933659E-01
31  3.0000000000000E-01  7.1345294434581E-01  1.3540515022599E+00  2.6399056178019E-01
32  3.1000000000000E-01  5.5193964906826E-01  1.3887396714545E+00  2.6437715834671E-01
33  3.2000000000000E-01  3.9126362334393E-01  1.4214410874454E+00  2.5404393162172E-01
34  3.3000000000000E-01  2.3298674488952E-01  1.4520047163027E+00  2.3327087908879E-01
35  3.4000000000000E-01  7.8588904534815E-02  1.4802842978323E+00  2.0257105293125E-01
36  3.5000000000000E-01 -7.0546595234129E-02  1.5061398525066E+00  1.6267414608039E-01
37  3.6000000000000E-01 -2.1314587025762E-01  1.5294391564111E+00  1.1450584494535E-01
38  3.7000000000000E-01 -3.4805541786426E-01  1.5500591644159E+00  5.9163662054649E-02
39  3.8000000000000E-01 -4.7425114884298E-01  1.5678873624261E+00 -2.1099810538239E-03
40  3.9000000000000E-01 -5.9084545381488E-01  1.5828230305681E+00 -6.7956619681171E-02
41  4.0000000000000E-01 -6.9709229809306E-01  1.5947784005210E+00 -1.3693175511942E-01
42  4.1000000000000E-01 -7.9239036579130E-01  1.6036796918570E+00 -2.0753522241839E-01
43  4.2000000000000E-01 -8.7628429850406E-01  1.6094680141865E+00 -2.7824117608265E-01
44  4.3000000000000E-01 -9.4846409611816E-01  1.6121001240486E+00 -3.4752701764380E-01
45  4.4000000000000E-01 -1.0087627671035E+00  1.6115490278115E+00 -4.1390067099458E-01
46  4.5000000000000E-01 -1.0571523328983E+00  1.6078044242746E+00 -4.7592570689656E-01
47  4.6000000000000E-01 -1.0937383057584E+00  1.6008729831553E+00 -5.3224392301197E-01
48  4.7000000000000E-01 -1.1187527717366E+00  1.5907784581201E+00 -5.8159509590577E-01
49  4.8000000000000E-01 -1.1325462203919E+00  1.5775616354450E+00 -6.2283373233695E-01
50  4.9000000000000E-01 -1.1355782705467E+00  1.5612801216901E+00 -6.5494275464552E-01
51  5.0000000000000E-01 -1.1284074470557E+00  1.5420079759161E+00 -6.7704415521800E-01
52  5.1000000000000E-01 -1.1116801673109E+00  1.5198351939014E+00 -6.8840674438053E-01
53  5.2000000000000E-01 -1.0861190982442E+00  1.4948670535094E+00 -6.8845119173119E-01
54  5.3000000000000E-01 -1.0525110450765E+00  1.4672233317757E+00 -6.7675262054626E-01
55  5.4000000000000E-01 -1.0116945321500E+00  1.4370374054217E+00 -6.5304105695108E-01
56  5.5000000000000E-01 -9.6454723400531E-01  1.4044552473404E+00 -6.1720005923996E-01
57  5.6000000000000E-01 -9.1197341152399E-01  1.3696343321480E+00 -5.6926385803584E-01
58  5.7000000000000E-01 -8.5489150354509E-01  1.3327424641646E+00 -5.0941332571173E-01
59  5.8000000000000E-01 -7.9422201891821E-01  1.2939565411879E+00 -4.3797106512456E-01
60  5.9000000000000E-01 -7.3087586750976E-01  1.2534612671962E+00 -3.5539586545499E-01
61  6.0000000000000E-01 -6.6574326123346E-01  1.2114478266847E+00 -2.6227671952158E-01
62  6.1000000000000E-01 -5.9968330771230E-01  1.1681125327419E+00 -1.5932653559161E-01
63  6.2000000000000E-01 -5.3351440967269E-01  1.1236554602596E+00 -4.7375610951134E-02
64  6.3000000000000E-01 -4.6800557258631E-01  1.0782790748766E+00  7.2635131925304E-02
65  6.4000000000000E-01 -4.0386871138594E-01  1.0321868674283E+00  1.9966120912933E-01
66  6.5000000000000E-01 -3.4175203426757E-01  9.8558200286065E-01  3.3256205817804E-01
67  6.6000000000000E-01 -2.8223456766029E-01  9.3866599179493E-01  4.7010910578728E-01
68  6.7000000000000E-01 -2.2582187142683E-01  8.9163739224524E-01  6.1099462002448E-01
69  6.8000000000000E-01 -1.7294297732016E-01  8.4469054841125E-01  7.5384156463056E-01
70  6.9000000000000E-01 -1.2394856677307E-01  7.9801437302121E-01  8.9721467455514E-01
71  7.0000000000000E-01 -7.9110386393297E-02  7.5179117939343E-01  1.0396329549841E+00
72  7.1000000000000E-01 -3.8621881275932E-02  7.0619556922144E-01  1.1795837711473E+00
73  7.2000000000000E-01 -2.6000076770170E-03  6.6139338206394E-01  1.3155386436652E+00
74  7.3000000000000E-01  2.8911831986258E-02  6.1754071261867E-01  1.4459707955932E+00
75  7.4000000000000E-01  5.5939807099909E-02  5.7478300205691E-01  1.5693744149520E+00
76  7.5000000000000E-01  7.8574722634898E-02  5.3325420996068E-01  1.6842855033996E+00
77  7.6000000000000E-01  9.6966238068144E-02  4.9307607369996E-01  1.7893040814877E+00
78  7.7000000000000E-01  1.1131636573113E-01  4.5435746236878E-01  1.8831174178238E+00
79  7.8000000000000E-01  1.2187238591861E-01  4.1719383262138E-01  1.9645238480061E+00
80  7.9000000000000E-01  1.2891932680544E-01  3.8166679386282E-01  2.0324566542072E+00
81  8.0000000000000E-01  1.3277216522318E-01  3.4784379020643E-01  2.0860073925809E+00
82  8.1000000000000E-01  1.3376790929238E-01  3.1577790636551E-01  2.1244479879719E+00
83  8.2000000000000E-01  1.3225772549817E-01  2.8550780415972E-01  2.1472508680863E+00
84  8.3000000000000E-01  1.2859927080663E-01  2.5705779555081E-01  2.1541063862484E+00
85  8.4000000000000E-01  1.2314938469441E-01  2.3043805705194E-01  2.1449367863521E+00
86  8.5000000000000E-01  1.1625728644421E-01  2.0564498896291E-01  2.1199059980147E+00
87  8.6000000000000E-01  1.0825840977121E-01  1.8266172116300E-01  2.0794246157958E+00
88  8.7000000000000E-01  9.9468989928793E-02  1.6145876515073E-01  2.0241495140744E+00
89  8.8000000000000E-01  9.0181498129517E-02  1.4199480967343E-01  1.9549776781873E+00
90  8.9000000000000E-01  8.0660994752987E-02  1.2421765467009E-01  1.8730339909630E+00
91  9.0000000000000E-01  7.1142446833166E-02  1.0806527540202E-01  1.7796528989893E+00
92  9.1000000000000E-01  6.1829027256780E-02  9.3467005622080E-02  1.6763540909200E+00
93  9.2000000000000E-01  5.2891383570599E-02  8.0344825500093E-02  1.5648125459978E+00
94  9.3000000000000E-01  4.4467833972181E-02  6.8614736853868E-02  1.4468235489715E+00
95  9.4000000000000E-01  3.6665417663381E-02  5.8188205112406E-02  1.3242635114140E+00
96  9.5000000000000E-01  2.9561697048266E-02  4.8973644446641E-02  1.1990476820842E+00
97  9.6000000000000E-01  2.3207181015822E-02  4.0877919730390E-02  1.0730860633298E+00
98  9.7000000000000E-01  1.7628212519214E-02  3.3807836527004E-02  9.4823906930972E-01
99  9.8000000000000E-01  1.2830140572663E-02  2.7671588219050E-02  8.2627465793132E-01
100  9.9000000000000E-01  8.8005772779935E-03  2.2380127784714E-02  7.0882883531976E-01
101  1.0000000000000E+00  5.5125251673815E-03  1.7848430644756E-02  5.9737156320146E-01
102  1.0100000000000E+00  2.9271494748728E-03  1.3996614512600E-02  4.9318019075191E-01
103  1.0200000000000E+00  9.9596429019184E-04  1.0750882318591E-02  3.9732257919518E-01
104  1.0300000000000E+00 -3.3778818571646E-04  8.0442590552552E-03  3.1065200646164E-01
105  1.0400000000000E+00 -1.1388640924612E-03  5.8170595233736E-03  2.3381653043804E-01
106  1.0500000000000E+00 -1.4830011280437E-03  4.0163979001275E-03  1.6729916641179E-01
107  1.0600000000000E+00 -1.4865529120947E-03  2.5840978094119E-03  1.1167227180102E-01
108  1.0700000000000E+00 -1.2250018473673E-03  1.4874792085021E-03  6.7016284937560E-02
109  1.0800000000000E+00 -7.9005392215957E-04  7.0639949040486E-04  3.3365141422797E-02
110  1.0900000000000E+00 -3.2422568188141E-04  2.2114484778363E-04  1.1021406503899E-02
111  1.1000000000000E+00 -2.7462638755343E-05  1.4535970168060E-05  7.7091407126457E-04
112  1.1100000000000E+00 -2.7827210353789E-07  1.4619527790171E-07  7.7933633207683E-06
113  1.1200000000000E+00  2.4420553992699E-07 -1.4094700654921E-07 -7.3303014523306E-06
114  1.13  0.  0.  0.
115  1.14  0.  0.  0.
116  1.15  0.  0.  0.
117  1.16  0.  0.  0.
118  1.17  0.  0.  0.
119  1.18  0.  0.  0.
120  1.19  0.  0.  0.
121  1.20  0.  0.  0.
122  1.21  0.  0.  0.
123  1.22  0.  0.  0.
124  1.23  0.  0.  0.
125  1.24  0.  0.  0.
126  1.25  0.  0.  0.
127  1.26  0.  0.  0.
128  1.27  0.  0.  0.
129  1.28  0.  0.  0.
130  1.29  0.  0.  0.
131  1.30  0.  0.  0.
132  1.31  0.  0.  0.
133  1.32  0.  0.  0.
134  1.33  0.  0.  0.
135  1.34  0.  0.  0.
136  1.35  0.  0.  0.
137  1.36  0.  0.  0.
138  1.37  0.  0.  0.
139  1.38  0.  0.  0.
140  1.39  0.  0.  0.
141  1.40  0.  0.  0.
142  1.41  0.  0.  0.
143  1.42  0.  0.  0.
144  1.43  0.  0.  0.
145  1.44  0.  0.  0.
146  1.45  0.  0.  0.
147  1.46  0.  0.  0.
148  1.47  0.  0.  0.
149  1.48  0.  0.  0.
150  1.49  0.  0.  0.
151  1.50  0.  0.  0.
152  1.51  0.  0.  0.
153  1.52  0.  0.  0.
154  1.53  0.  0.  0.
155  1.54  0.  0.  0.
156  1.55  0.  0.  0.
157  1.56  0.  0.  0.
158  1.57  0.  0.  0.
159  1.58  0.  0.  0.
160  1.59  0.  0.  0.
161  1.60  0.  0.  0.
162  1.61  0.  0.  0.
163  1.62  0.  0.  0.
164  1.63  0.  0.  0.
165  1.64  0.  0.  0.
166  1.65  0.  0.  0.
167  1.66  0.  0.  0.
168  1.67  0.  0.  0.
169  1.68  0.  0.  0.
170  1.69  0.  0.  0.
171  1.70  0.  0.  0.
172  1.71  0.  0.  0.
173  1.72  0.  0.  0.
174  1.73  0.  0.  0.
175  1.74  0.  0.  0.
176  1.75  0.  0.  0.
177  1.76  0.  0.  0.
178  1.77  0.  0.  0.
179  1.78  0.  0.  0.
180  1.79  0.  0.  0.
181  1.80  0.  0.  0.
182  1.81  0.  0.  0.
183  1.82  0.  0.  0.
184  1.83  0.  0.  0.
185  1.84  0.  0.  0.
186  1.85  0.  0.  0.
187  1.86  0.  0.  0.
188  1.87  0.  0.  0.
189  1.88  0.  0.  0.
190  1.89  0.  0.  0.
191  1.90  0.  0.  0.
192  1.91  0.  0.  0.
193  1.92  0.  0.  0.
194  1.93  0.  0.  0.
195  1.94  0.  0.  0.
196  1.95  0.  0.  0.
197  1.96  0.  0.  0.
198  1.97  0.  0.  0.
199  1.98  0.  0.  0.
200  1.99  0.  0.  0.
201  2.00  0.  0.  0.
202  2.01  0.  0.  0.
203  2.02  0.  0.  0.
204  2.03  0.  0.  0.
205  2.04  0.  0.  0.
206  2.05  0.  0.  0.
207  2.06  0.  0.  0.
208  2.07  0.  0.  0.
209  2.08  0.  0.  0.
210  2.09  0.  0.  0.
211  2.10  0.  0.  0.
212  2.11  0.  0.  0.
213  2.12  0.  0.  0.
214  2.13  0.  0.  0.
215  2.14  0.  0.  0.
216  2.15  0.  0.  0.
217  2.16  0.  0.  0.
218  2.17  0.  0.  0.
219  2.18  0.  0.  0.
220  2.19  0.  0.  0.
221  2.20  0.  0.  0.
222  2.21  0.  0.  0.
223  2.22  0.  0.  0.
224  2.23  0.  0.  0.
225  2.24  0.  0.  0.
226  2.25  0.  0.  0.
227  2.26  0.  0.  0.
228  2.27  0.  0.  0.
229  2.28  0.  0.  0.
230  2.29  0.  0.  0.
231  2.30  0.  0.  0.
232  2.31  0.  0.  0.
233  2.32  0.  0.  0.
234  2.33  0.  0.  0.
235  2.34  0.  0.  0.
236  2.35  0.  0.  0.
237  2.36  0.  0.  0.
238  2.37  0.  0.  0.
239  2.38  0.  0.  0.
240  2.39  0.  0.  0.
241  2.40  0.  0.  0.
242  2.41  0.  0.  0.
243  2.42  0.  0.  0.
244  2.43  0.  0.  0.
245  2.44  0.  0.  0.
246  2.45  0.  0.  0.
247  2.46  0.  0.  0.
248  2.47  0.  0.  0.
249  2.48  0.  0.  0.
250  2.49  0.  0.  0.
251  2.50  0.  0.  0.
252  2.51  0.  0.  0.
253  2.52  0.  0.  0.
254  2.53  0.  0.  0.
255  2.54  0.  0.  0.
256  2.55  0.  0.  0.
257  2.56  0.  0.  0.
258  2.57  0.  0.  0.
259  2.58  0.  0.  0.
260  2.59  0.  0.  0.
261  2.60  0.  0.  0.
262  2.61  0.  0.  0.
263  2.62  0.  0.  0.
264  2.63  0.  0.  0.
265  2.64  0.  0.  0.
266  2.65  0.  0.  0.
267  2.66  0.  0.  0.
268  2.67  0.  0.  0.
269  2.68  0.  0.  0.
270  2.69  0.  0.  0.
271  2.70  0.  0.  0.
272  2.71  0.  0.  0.
273  2.72  0.  0.  0.
274  2.73  0.  0.  0.
275  2.74  0.  0.  0.
276  2.75  0.  0.  0.
277  2.76  0.  0.  0.
278  2.77  0.  0.  0.
279  2.78  0.  0.  0.
280  2.79  0.  0.  0.
281  2.80  0.  0.  0.
282  2.81  0.  0.  0.
283  2.82  0.  0.  0.
284  2.83  0.  0.  0.
285  2.84  0.  0.  0.
286  2.85  0.  0.  0.
287  2.86  0.  0.  0.
288  2.87  0.  0.  0.
289  2.88  0.  0.  0.
290  2.89  0.  0.  0.
291  2.90  0.  0.  0.
292  2.91  0.  0.  0.
293  2.92  0.  0.  0.
294  2.93  0.  0.  0.
295  2.94  0.  0.  0.
296  2.95  0.  0.  0.
297  2.96  0.  0.  0.
298  2.97  0.  0.  0.
299  2.98  0.  0.  0.
300  2.99  0.  0.  0.
301  3.00  0.  0.  0.
302  3.01  0.  0.  0.
303  3.02  0.  0.  0.
304  3.03  0.  0.  0.
305  3.04  0.  0.  0.
306  3.05  0.  0.  0.
307  3.06  0.  0.  0.
308  3.07  0.  0.  0.
309  3.08  0.  0.  0.
310  3.09  0.  0.  0.
311  3.10  0.  0.  0.
312  3.11  0.  0.  0.
313  3.12  0.  0.  0.
314  3.13  0.  0.  0.
315  3.14  0.  0.  0.
316  3.15  0.  0.  0.
317  3.16  0.  0.  0.
318  3.17  0.  0.  0.
319  3.18  0.  0.  0.
320  3.19  0.  0.  0.
321  3.20  0.  0.  0.
322  3.21  0.  0.  0.
323  3.22  0.  0.  0.
324  3.23  0.  0.  0.
325  3.24  0.  0.  0.
326  3.25  0.  0.  0.
327  3.26  0.  0.  0.
328  3.27  0.  0.  0.
329  3.28  0.  0.  0.
330  3.29  0.  0.  0.
331  3.30  0.  0.  0.
332  3.31  0.  0.  0.
333  3.32  0.  0.  0.
334  3.33  0.  0.  0.
335  3.34  0.  0.  0.
336  3.35  0.  0.  0.
337  3.36  0.  0.  0.
338  3.37  0.  0.  0.
339  3.38  0.  0.  0.
340  3.39  0.  0.  0.
341  3.40  0.  0.  0.
342  3.41  0.  0.  0.
343  3.42  0.  0.  0.
344  3.43  0.  0.  0.
345  3.44  0.  0.  0.
346  3.45  0.  0.  0.
347  3.46  0.  0.  0.
348  3.47  0.  0.  0.
349  3.48  0.  0.  0.
350  3.49  0.  0.  0.
351  3.50  0.  0.  0.
352  3.51  0.  0.  0.
353  3.52  0.  0.  0.
354  3.53  0.  0.  0.
355  3.54  0.  0.  0.
356  3.55  0.  0.  0.
357  3.56  0.  0.  0.
358  3.57  0.  0.  0.
359  3.58  0.  0.  0.
360  3.59  0.  0.  0.
361  3.60  0.  0.  0.
362  3.61  0.  0.  0.
363  3.62  0.  0.  0.
364  3.63  0.  0.  0.
365  3.64  0.  0.  0.
366  3.65  0.  0.  0.
367  3.66  0.  0.  0.
368  3.67  0.  0.  0.
369  3.68  0.  0.  0.
370  3.69  0.  0.  0.
371  3.70  0.  0.  0.
372  3.71  0.  0.  0.
373  3.72  0.  0.  0.
374  3.73  0.  0.  0.
375  3.74  0.  0.  0.
376  3.75  0.  0.  0.
377  3.76  0.  0.  0.
378  3.77  0.  0.  0.
379  3.78  0.  0.  0.
380  3.79  0.  0.  0.
381  3.80  0.  0.  0.
382  3.81  0.  0.  0.
383  3.82  0.  0.  0.
384  3.83  0.  0.  0.
385  3.84  0.  0.  0.
386  3.85  0.  0.  0.
387  3.86  0.  0.  0.
388  3.87  0.  0.  0.
389  3.88  0.  0.  0.
390  3.89  0.  0.  0.
391  3.90  0.  0.  0.
392  3.91  0.  0.  0.
393  3.92  0.  0.  0.
394  3.93  0.  0.  0.
395  3.94  0.  0.  0.
396  3.95  0.  0.  0.
397  3.96  0.  0.  0.
398  3.97  0.  0.  0.
399  3.98  0.  0.  0.
400  3.99  0.  0.  0.
401  4.00  0.  0.  0.
402  4.01  0.  0.  0.
403  4.02  0.  0.  0.
404  4.03  0.  0.  0.
405  4.04  0.  0.  0.
406  4.05  0.  0.  0.
407  4.06  0.  0.  0.
408  4.07  0.  0.  0.
409  4.08  0.  0.  0.
410  4.09  0.  0.  0.
411  4.10  0.  0.  0.
412  4.11  0.  0.  0.
413  4.12  0.  0.  0.
414  4.13  0.  0.  0.
415  4.14  0.  0.  0.
416  4.15  0.  0.  0.
417  4.16  0.  0.  0.
418  4.17  0.  0.  0.
419  4.18  0.  0.  0.
420  4.19  0.  0.  0.
421  4.20  0.  0.  0.
422  4.21  0.  0.  0.
423  4.22  0.  0.  0.
424  4.23  0.  0.  0.
425  4.24  0.  0.  0.
426  4.25  0.  0.  0.
427  4.26  0.  0.  0.
428  4.27  0.  0.  0.
429  4.28  0.  0.  0.
430  4.29  0.  0.  0.
431  4.30  0.  0.  0.
432  4.31  0.  0.  0.
433  4.32  0.  0.  0.
434  4.33  0.  0.  0.
435  4.34  0.  0.  0.
436  4.35  0.  0.  0.
437  4.36  0.  0.  0.
438  4.37  0.  0.  0.
439  4.38  0.  0.  0.
440  4.39  0.  0.  0.
441  4.40  0.  0.  0.
442  4.41  0.  0.  0.
443  4.42  0.  0.  0.
444  4.43  0.  0.  0.
445  4.44  0.  0.  0.
446  4.45  0.  0.  0.
447  4.46  0.  0.  0.
448  4.47  0.  0.  0.
449  4.48  0.  0.  0.
450  4.49  0.  0.  0.
451  4.50  0.  0.  0.
452  4.51  0.  0.  0.
453  4.52  0.  0.  0.
454  4.53  0.  0.  0.
455  4.54  0.  0.  0.
456  4.55  0.  0.  0.
457  4.56  0.  0.  0.
458  4.57  0.  0.  0.
459  4.58  0.  0.  0.
460  4.59  0.  0.  0.
461  4.60  0.  0.  0.
462  4.61  0.  0.  0.
463  4.62  0.  0.  0.
464  4.63  0.  0.  0.
465  4.64  0.  0.  0.
466  4.65  0.  0.  0.
467  4.66  0.  0.  0.
468  4.67  0.  0.  0.
469  4.68  0.  0.  0.
470  4.69  0.  0.  0.
471  4.70  0.  0.  0.
472  4.71  0.  0.  0.
473  4.72  0.  0.  0.
474  4.73  0.  0.  0.
475  4.74  0.  0.  0.
476  4.75  0.  0.  0.
477  4.76  0.  0.  0.
478  4.77  0.  0.  0.
479  4.78  0.  0.  0.
480  4.79  0.  0.  0.
481  4.80  0.  0.  0.
482  4.81  0.  0.  0.
483  4.82  0.  0.  0.
484  4.83  0.  0.  0.
485  4.84  0.  0.  0.
486  4.85  0.  0.  0.
487  4.86  0.  0.  0.
488  4.87  0.  0.  0.
489  4.88  0.  0.  0.
490  4.89  0.  0.  0.
491  4.90  0.  0.  0.
492  4.91  0.  0.  0.
493  4.92  0.  0.  0.
494  4.93  0.  0.  0.
495  4.94  0.  0.  0.
496  4.95  0.  0.  0.
497  4.96  0.  0.  0.
498  4.97  0.  0.  0.
499  4.98  0.  0.  0.
500  4.99  0.  0.  0.
501  5.00  0.  0.  0.
502  5.01  0.  0.  0.
503  5.02  0.  0.  0.
504  5.03  0.  0.  0.
505  5.04  0.  0.  0.
506  5.05  0.  0.  0.
507  5.06  0.  0.  0.
508  5.07  0.  0.  0.
509  5.08  0.  0.  0.
510  5.09  0.  0.  0.
511  5.10  0.  0.  0.
512  5.11  0.  0.  0.
513  5.12  0.  0.  0.
514  5.13  0.  0.  0.
515  5.14  0.  0.  0.
516  5.15  0.  0.  0.
517  5.16  0.  0.  0.
518  5.17  0.  0.  0.
519  5.18  0.  0.  0.
520  5.19  0.  0.  0.
521  5.20  0.  0.  0.
522  5.21  0.  0.  0.
523  5.22  0.  0.  0.
524  5.23  0.  0.  0.
525  5.24  0.  0.  0.
526  5.25  0.  0.  0.
527  5.26  0.  0.  0.
528  5.27  0.  0.  0.
529  5.28  0.  0.  0.
530  5.29  0.  0.  0.
531  5.30  0.  0.  0.
532  5.31  0.  0.  0.
533  5.32  0.  0.  0.
534  5.33  0.  0.  0.
535  5.34  0.  0.  0.
536  5.35  0.  0.  0.
537  5.36  0.  0.  0.
538  5.37  0.  0.  0.
539  5.38  0.  0.  0.
540  5.39  0.  0.  0.
541  5.40  0.  0.  0.
542  5.41  0.  0.  0.
543  5.42  0.  0.  0.
544  5.43  0.  0.  0.
545  5.44  0.  0.  0.
546  5.45  0.  0.  0.
547  5.46  0.  0.  0.
548  5.47  0.  0.  0.
549  5.48  0.  0.  0.
550  5.49  0.  0.  0.
551  5.50  0.  0.  0.
552  5.51  0.  0.  0.
553  5.52  0.  0.  0.
554  5.53  0.  0.  0.
555  5.54  0.  0.  0.
556  5.55  0.  0.  0.
557  5.56  0.  0.  0.
558  5.57  0.  0.  0.
559  5.58  0.  0.  0.
560  5.59  0.  0.  0.
561  5.60  0.  0.  0.
562  5.61  0.  0.  0.
563  5.62  0.  0.  0.
564  5.63  0.  0.  0.
565  5.64  0.  0.  0.
566  5.65  0.  0.  0.
567  5.66  0.  0.  0.
568  5.67  0.  0.  0.
569  5.68  0.  0.  0.
570  5.69  0.  0.  0.
571  5.70  0.  0.  0.
572  5.71  0.  0.  0.
573  5.72  0.  0.  0.
574  5.73  0.  0.  0.
575  5.74  0.  0.  0.
576  5.75  0.  0.  0.
577  5.76  0.  0.  0.
578  5.77  0.  0.  0.
579  5.78  0.  0.  0.
580  5.79  0.  0.  0.
581  5.80  0.  0.  0.
582  5.81  0.  0.  0.
583  5.82  0.  0.  0.
584  5.83  0.  0.  0.
585  5.84  0.  0.  0.
586  5.85  0.  0.  0.
587  5.86  0.  0.  0.
588  5.87  0.  0.  0.
589  5.88  0.  0.  0.
590  5.89  0.  0.  0.
591  5.90  0.  0.  0.
592  5.91  0.  0.  0.
593  5.92  0.  0.  0.
594  5.93  0.  0.  0.
595  5.94  0.  0.  0.
596  5.95  0.  0.  0.
597  5.96  0.  0.  0.
598  5.97  0.  0.  0.
599  5.98  0.  0.  0.
600  5.99  0.  0.  0.
1                        -8.9053471980171E+00  2.2037989659956E+00 -1.4104421788816E-01
1  0.0000000000000E+00  7.0931013840259E-10  3.3573580471291E-08  2.5255878305375E-08
2  1.0000000000000E-02  2.2607787304328E-03  6.4867169099136E-03  2.3138780132082E-03
3  2.0000000000000E-02  9.0307069063304E-03  2.5853050135056E-02  9.2037249971613E-03
4  3.0000000000000E-02  2.0272631185086E-02  5.7818856481006E-02  2.0515085694811E-02
5  4.0000000000000E-02  3.5924864646156E-02  1.0192157601930E-01  3.5993540242635E-02
6  5.0000000000000E-02  5.5901538502355E-02  1.5752268395402E-01  5.5289163234457E-02
7  6.0000000000000E-02  8.0093091969889E-02  2.2381659179287E-01  7.7962668528035E-02
8  7.0000000000000E-02  1.0836689777868E-01  2.9984186872382E-01  1.0349314349942E-01
9  8.0000000000000E-02  1.4056802009522E-01  3.8449462052499E-01  1.3128725119416E-01
10  9.0000000000000E-02  1.7652010092881E-01  4.7654383217894E-01  1.6068975523399E-01
11  1.0000000000000E-01  2.1602637040032E-01  5.7464845209107E-01  1.9099520075607E-01
12  1.1000000000000E-01  2.5887077557196E-01  6.7737597084862E-01  2.2146056541366E-01
13  1.2000000000000E-01  3.0481922186988E-01  7.8322222617873E-01  2.5131867785253E-01
14  1.3000000000000E-01  3.5362092047952E-01  8.9063214849316E-01  2.7979218737306E-01
15  1.4000000000000E-01  4.0500983445982E-01  9.9802114840750E-01  3.0610785793715E-01
16  1.5000000000000E-01  4.5870621570836E-01  1.1037968390933E+00  3.2951095249188E-01
17  1.6000000000000E-01  5.1441822431854E-01  1.2063807823952E+00  3.4927946992437E-01
18  1.7000000000000E-01  5.7184362130414E-01  1.3042299483855E+00  3.6473799696074E-01
19  1.8000000000000E-01  6.3067152513027E-01  1.3958575834262E+00  3.7527094104811E-01
20  1.9000000000000E-01  6.9058422198609E-01  1.4798531917816E+00  3.8033491773487E-01
21  2.0000000000000E-01  7.5125901926768E-01  1.5549013502258E+00  3.7947007725380E-01
22  2.1000000000000E-01  8.1237013131372E-01  1.6197990936866E+00  3.7231016982246E-01
23  2.2000000000000E-01  8.7359058605775E-01  1.6734716324852E+00  3.5859116744632E-01
24  2.3000000000000E-01  9.3459414093272E-01  1.7149861877985E+00  3.3815828152957E-01
25  2.4000000000000E-01  9.9505719609331E-01  1.7435637612000E+00  3.1097124008350E-01
26  2.5000000000000E-01  1.0546606928142E+00  1.7585886860373E+00  2.7710771544016E-01
27  2.6000000000000E-01  1.1130919847843E+00  1.7596158424954E+00  2.3676482273227E-01
28  2.7000000000000E-01  1.1700466699552E+00  1.7463754539155E+00  1.9025864054816E-01
29  2.8000000000000E-01  1.2252303706195E+00  1.7187754187212E+00  1.3802173762142E-01
30  2.9000000000000E-01  1.2783604495035E+00  1.6769011695636E+00  8.0598722641736E-02
31  3.0000000000000E-01  1.3291676498564E+00  1.6210130884187E+00  1.8639867719664E-02
32  3.1000000000000E-01  1.3773976478155E+00  1.5515415427829E+00 -4.7107110873650E-02
33  3.2000000000000E-01  1.4228125057286E+00  1.4690796432020E+00 -1.1580699892494E-01
34  3.3000000000000E-01  1.4651920156157E+00  1.3743738555998E+00 -1.8654861107224E-01
35  3.4000000000000E-01  1.5043349225675E+00  1.2683126326925E+00 -2.5835772327088E-01
36  3.5000000000000E-01  1.5400600185961E+00  1.1519132567195E+00 -3.3021121015494E-01
37  3.6000000000000E-01  1.5722070982830E+00  1.0263071103272E+00 -4.0105216379642E-01
38  3.7000000000000E-01  1.6006377684980E+00  8.9272361335732E-01 -4.6980575125733E-01
39  3.8000000000000E-01  1.6252361055031E+00  7.5247308018145E-01 -5.3539555323936E-01
40  3.9000000000000E-01  1.6459091538766E+00  6.0692876485971E-01 -5.9676011540012E-01
41  4.0000000000000E-01  1.6625872629178E+00  4.5750836960702E-01 -6.5286943777630E-01
42  4.1000000000000E-01  1.6752242574813E+00  3.0565529574384E-01 -7.0274112641635E-01
43  4.2000000000000E-01  1.6837974415585E+00  1.5281991547169E-01 -7.4545593486040E-01
44  4.3000000000000E-01  1.6883074343360E+00  4.4113752003250E-04 -7.8017243151311E-01
45  4.4000000000000E-01  1.6887778399244E+00 -1.5007146989727E-01 -8.0614054213952E-01
46  4.5000000000000E-01  1.6852547534273E+00 -2.9735474907989E-01 -8.2271373448442E-01
47  4.6000000000000E-01  1.6778061075143E+00 -4.4010798356718E-01 -8.2935963409851E-01
48  4.7000000000000E-01  1.6665208651415E+00 -5.7710767833048E-01 -8.2566888648069E-01
49  4.8000000000000E-01  1.6515080655132E+00 -7.0722090218223E-01 -8.1136211017776E-01
50  4.9000000000000E-01  1.6328957317839E+00 -8.2941703175730E-01 -7.8629481800441E-01
51  5.0000000000000E-01  1.6108296503406E+00 -9.4277776512379E-01 -7.5046021848135E-01
52  5.1000000000000E-01  1.5854720327572E+00 -1.0465053033574E+00 -7.0398984631574E-01
53  5.2000000000000E-01  1.5570000726704E+00 -1.1399286297188E+00 -6.4715200859547E-01
54  5.3000000000000E-01  1.5256044108554E+00 -1.2225078478567E+00 -5.8034807165028E-01
55  5.4000000000000E-01  1.4914875226877E+00 -1.2938365721687E+00 -5.0410665154322E-01
56  5.5000000000000E-01  1.4548620429240E+00 -1.3536423945433E+00 -4.1907580818922E-01
57  5.6000000000000E-01  1.4159490433311E+00 -1.4017854816673E+00 -3.2601337847092E-01
58  5.7000000000000E-01  1.3749762791162E+00 -1.4382553854111E+00 -2.2577561676771E-01
59  5.8000000000000E-01  1.3321764203534E+00 -1.4631661750615E+00 -1.1930434141415E-01
60  5.9000000000000E-01  1.2877852846698E+00 -1.4767500239419E+00 -7.6128121914105E-03
61  6.0000000000000E-01  1.2420400873270E+00 -1.4793494038890E+00  1.0822941348001E-01
62  6.1000000000000E-01  1.1951777245300E+00 -1.4714080588547E+00  2.2711237986533E-01
63  6.2000000000000E-01  1.1474331053040E+00 -1.4534609433239E+00  3.4790210867002E-01
64  6.3000000000000E-01  1.0990375466106E+00 -1.4261233221252E+00  4.6945716389915E-01
65  6.4000000000000E-01  1.0502172455426E+00 -1.3900792354428E+00  5.9064511550284E-01
66  6.5000000000000E-01  1.0011918414349E+00 -1.3460695363939E+00  7.1035861381167E-01
67  6.6000000000000E-01  9.5217307959283E-01 -1.2948797084194E+00  8.2753079439064E-01
68  6.7000000000000E-01  9.0336358706236E-01 -1.2373276660639E+00  9.4114974574215E-01
69  6.8000000000000E-01  8.5495576948090E-01 -1.1742517356201E+00  1.0502717900624E+00
70  6.9000000000000E-01  8.0713083656215E-01 -1.1064990018063E+00  1.1540333496953E+00
71  7.0000000000000E-01  7.6005796220861E-01 -1.0349141933864E+00  1.2516611986505E+00
72  7.1000000000000E-01  7.1389358362860E-01 -9.6032926472585E-01  1.3424809290840E+00
73  7.2000000000000E-01  6.6878084218364E-01 -8.8355381206206E-01  1.4259234964630E+00
74  7.3000000000000E-01  6.2484916702874E-01 -8.0536644311082E-01  1.5015297436317E+00
75  7.4000000000000E-01  5.8221400095338E-01 -7.2650719693927E-01  1.5689528425509E+00
76  7.5000000000000E-01  5.4097666620775E-01 -6.4767108822349E-01  1.6279586323882E+00
77  7.6000000000000E-01  5.0122436652605E-01 -5.6950282649654E-01  1.6784238732084E+00
78  7.7000000000000E-01  4.6303032005863E-01 -4.9259273720503E-01  1.7203324750221E+00
79  7.8000000000000E-01  4.2645401651368E-01 -4.1747388774889E-01  1.7537698016855E+00
80  7.9000000000000E-01  3.9154159050619E-01 -3.4462039858274E-01  1.7789151873999E+00
81  8.0000000000000E-01  3.5832630193146E-01 -2.7444689729133E-01  1.7960328396562E+00
82  8.1000000000000E-01  3.2682911313552E-01 -2.0730905267396E-01  1.8054613357784E+00
83  8.2000000000000E-01  2.9705935175800E-01 -1.4350510660715E-01  1.8076019501413E+00
84  8.3000000000000E-01  2.6901544738126E-01 -8.3278304088483E-02  1.8029060751501E+00
85  8.4000000000000E-01  2.4268572954131E-01 -2.6820106643784E-02  1.7918620207171E+00
86  8.5000000000000E-01  2.1804927424389E-01  2.5725938595600E-02  1.7749814938699E+00
87  8.6000000000000E-01  1.9507678588447E-01  7.4259812212563E-02  1.7527860719844E+00
88  8.7000000000000E-01  1.7373150139432E-01  1.1872026405686E-01  1.7257939897507E+00
89  8.8000000000000E-01  1.5397010352032E-01  1.5907983397196E-01  1.6945075612479E+00
90  8.9000000000000E-01  1.3574363039050E-01  1.9533980507082E-01  1.6594015543918E+00
91  9.0000000000000E-01  1.1899836891070E-01  2.2752524273841E-01  1.6209128256394E+00
92  9.1000000000000E-01  1.0367672007103E-01  2.5568026979006E-01  1.5794315083295E+00
93  9.2000000000000E-01  8.9718024902264E-02  2.7986372304815E-01  1.5352940287069E+00
94  9.3000000000000E-01  7.7059340598305E-02  3.0014532917157E-01  1.4887781998417E+00
95  9.4000000000000E-01  6.5636157197200E-02  3.1660252808902E-01  1.4401006157735E+00
96  9.5000000000000E-01  5.5383046173803E-02  3.2931806107276E-01  1.3894165367575E+00
97  9.6000000000000E-01  4.6234233326315E-02  3.3837842759982E-01  1.3368224220476E+00
98  9.7000000000000E-01  3.8124089419466E-02  3.4387330095194E-01  1.2823612298134E+00
99  9.8000000000000E-01  3.0987533161840E-02  3.4589597729827E-01  1.2260305652286E+00
100  9.9000000000000E-01  2.4760342228094E-02  3.4454491706197E-01  1.1677937181202E+00
101  1.0000000000000E+00  1.9379369170725E-02  3.3992642101241E-01  1.1075935915713E+00
102  1.0100000000000E+00  1.4782660186338E-02  3.3215846701588E-01  1.0453694831636E+00