Md    ONCVPSP-4.0.1  r_core=   1.10635   1.10635   1.00536   1.10635
101.0000     41.0000      231012    zatom,zion,pspd
8   -1012   3     4   600     0    pspcod,pspxc,lmax,lloc,mmax,r2well
5.99000000  2.70000000  0.00000000    rchrg fchrg qchrg
3     4     3     2    nproj
3     1           extension_switch
4     4     4    nprojso
0                         2.9159061273106E+01  3.8864825957063E+00 -6.1944561350295E-01
1  0.0000000000000E+00 -5.7272061759761E-08  1.8322822997741E-07  1.1446120085079E-07
2  1.0000000000000E-02  1.6326283049937E-01 -5.4421650817829E-02  1.8440436752315E-02
3  2.0000000000000E-02  3.2534261875600E-01 -1.0741919043633E-01  3.7246184647710E-02
4  3.0000000000000E-02  4.8507158644684E-01 -1.5760457484592E-01  5.6763169289249E-02
5  4.0000000000000E-02  6.4131207213146E-01 -2.0366062727267E-01  7.7299350139775E-02
6  5.0000000000000E-02  7.9297057824445E-01 -2.4437335487790E-01  9.9107718182753E-02
7  6.0000000000000E-02  9.3901064832231E-01 -2.7866066568475E-01  1.2237158315839E-01
8  7.0000000000000E-02  1.0784642558608E+00 -3.0559651379576E-01  1.4719277170414E-01
9  8.0000000000000E-02  1.2104414434706E+00 -3.2442968419350E-01  1.7358324326736E-01
10  9.0000000000000E-02  1.3341380179607E+00 -3.3459664281402E-01  2.0146049616973E-01
11  1.0000000000000E-01  1.4488411808254E+00 -3.3572811427948E-01  2.3064698692226E-01
12  1.1000000000000E-01  1.5539330512654E+00 -3.2764929889130E-01  2.6087362761990E-01
13  1.2000000000000E-01  1.6488921170750E+00 -3.1037389190227E-01  2.9178726514805E-01
14  1.3000000000000E-01  1.7332927242261E+00 -2.8409231131524E-01  3.2296188827166E-01
15  1.4000000000000E-01  1.8068027856121E+00 -2.4915476542651E-01  3.5391316059117E-01
16  1.5000000000000E-01  1.8691799502799E+00 -2.0604998874339E-01  3.8411574459748E-01
17  1.6000000000000E-01  1.9202665240503E+00 -1.5538063659814E-01  4.1302276980636E-01
18  1.7000000000000E-01  1.9599834686466E+00 -9.7836448070129E-02  4.4008671057303E-01
19  1.8000000000000E-01  1.9883238278437E+00 -3.4166358816818E-02  4.6478088007370E-01
20  1.9000000000000E-01  2.0053459348522E+00  3.4849232847423E-02  4.8662071840148E-01
21  2.0000000000000E-01  2.0111667449969E+00  1.0842487261978E-01  5.0518405585823E-01
22  2.1000000000000E-01  2.0059556122195E+00  1.8579403473415E-01  5.2012956722002E-01
23  2.2000000000000E-01  1.9899287882131E+00  2.6622971493692E-01  5.3121269765022E-01
24  2.3000000000000E-01  1.9633448708352E+00  3.4906082901843E-01  5.3829843351378E-01
25  2.4000000000000E-01  1.9265013661874E+00  4.3368381444519E-01  5.4137040800427E-01
26  2.5000000000000E-01  1.8797324591486E+00  5.1956905847401E-01  5.4053596769955E-01
27  2.6000000000000E-01  1.8234080133013E+00  6.0626201772724E-01  5.3602697662604E-01
28  2.7000000000000E-01  1.7579337464066E+00  6.9337914124757E-01  5.2819629329881E-01
29  2.8000000000000E-01  1.6837524552101E+00  7.8059895094470E-01  5.1751001736628E-01
30  2.9000000000000E-01  1.6013460966837E+00  8.6764885969294E-01  5.0453575969664E-01
31  3.0000000000000E-01  1.5112384748805E+00  9.5428850835606E-01  4.8992733694471E-01
32  3.1000000000000E-01  1.4139982361012E+00  1.0402905699564E+00  4.7440642318447E-01
33  3.2000000000000E-01  1.3102418422643E+00  1.1254200947359E+00  4.5874180206957E-01
34  3.3000000000000E-01  1.2006361749024E+00  1.2094135483582E+00  4.4372694899976E-01
35  3.4000000000000E-01  1.0859004210680E+00  1.2919587233362E+00  4.3015673072911E-01
36  3.5000000000000E-01  9.6680690794661E-01  1.3726766794283E+00  4.1880403766324E-01
37  3.6000000000000E-01  8.4418058472633E-01  1.4511067929188E+00  4.1039716086752E-01
38  3.7000000000000E-01  7.1889689716680E-01  1.5266958702822E+00  4.0559869187677E-01
39  3.8000000000000E-01  5.9187786055519E-01  1.5987921136840E+00  4.0498666029669E-01
40  3.9000000000000E-01  4.6408620798399E-01  1.6666445209291E+00  4.0903853459275E-01
41  4.0000000000000E-01  3.3651757025320E-01  1.7294080692940E+00  4.1811859908464E-01
42  4.1000000000000E-01  2.1019072795215E-01  1.7861547808371E+00  4.3246908957092E-01
43  4.2000000000000E-01  8.6136061909282E-02  1.8358905068317E+00  4.5220532647667E-01
44  4.3000000000000E-01 -3.4617588380104E-02  1.8775770118441E+00  4.7731493367346E-01
45  4.4000000000000E-01 -1.5105737107689E-01  1.9101586945682E+00  5.0766107914245E-01
46  4.5000000000000E-01 -2.6220181724939E-01  1.9325930632146E+00  5.4298952640925E-01
47  4.6000000000000E-01 -3.6711677279369E-01  1.9438838974484E+00  5.8293914889326E-01
48  4.7000000000000E-01 -4.6493141297836E-01  1.9431158846378E+00  6.2705543823660E-01
49  4.8000000000000E-01 -5.5485386038871E-01  1.9294894218882E+00  6.7480643687273E-01
50  4.9000000000000E-01 -6.3618591975943E-01  1.9023542313705E+00  7.2560044826132E-01
51  5.0000000000000E-01 -7.0833645435715E-01  1.8612404470463E+00  7.7880482805257E-01
52  5.1000000000000E-01 -7.7083295801766E-01  1.8058858959927E+00  8.3376513753078E-01
53  5.2000000000000E-01 -8.2333092372658E-01  1.7362584148520E+00  8.8982394745716E-01
54  5.3000000000000E-01 -8.6562067210563E-01  1.6525722069731E+00  9.4633861512714E-01
55  5.4000000000000E-01 -8.9763137904964E-01  1.5552974521424E+00  1.0026974182245E+00
56  5.5000000000000E-01 -9.1943212820400E-01  1.4451626202172E+00  1.0583335129707E+00
57  5.6000000000000E-01 -9.3122990771071E-01  1.3231492029480E+00  1.1127362873302E+00
58  5.7000000000000E-01 -9.3336456811022E-01  1.1904788542825E+00  1.1654597980866E+00
59  5.8000000000000E-01 -9.2630085574438E-01  1.0485932074461E+00  1.2161281083550E+00
60  5.9000000000000E-01 -9.1061772974614E-01  8.9912690598597E-01  1.2644374741337E+00
61  6.0000000000000E-01 -8.8699525716296E-01  7.4387463504924E-01  1.3101554593085E+00
62  6.1000000000000E-01 -8.5619945668597E-01  5.8475315857906E-01  1.3531171827247E+00
63  6.2000000000000E-01 -8.1906552402398E-01  4.2375954926372E-01  1.3932190135328E+00
64  6.3000000000000E-01 -7.7647991889627E-01  2.6292693395540E-01  1.4304101275154E+00
65  6.4000000000000E-01 -7.2936182328424E-01  1.0427916277839E-01  1.4646824138166E+00
66  6.5000000000000E-01 -6.7864449204032E-01 -5.0214157768781E-02  1.4960592755675E+00
67  6.6000000000000E-01 -6.2525700999401E-01 -1.9868084959600E-01  1.5245838975013E+00
68  6.7000000000000E-01 -5.7010694483263E-01 -3.3938622268507E-01  1.5503075579647E+00
69  6.8000000000000E-01 -5.1406434348816E-01 -4.7076879121229E-01  1.5732785420497E+00
70  6.9000000000000E-01 -4.5794746336835E-01 -5.9147059639028E-01  1.5935321681724E+00
71  7.0000000000000E-01 -4.0251056093822E-01 -7.0036129195393E-01  1.6110823746296E+00
72  7.1000000000000E-01 -3.4843398170685E-01 -7.9655538246116E-01  1.6259152285677E+00
73  7.2000000000000E-01 -2.9631671076936E-01 -8.7942225790900E-01  1.6379846213022E+00
74  7.3000000000000E-01 -2.4667145500375E-01 -9.4858893060273E-01  1.6472103053997E+00
75  7.4000000000000E-01 -1.9992224021660E-01 -1.0039356414857E+00  1.6534783151897E+00
76  7.5000000000000E-01 -1.5640442222262E-01 -1.0455847533272E+00  1.6566436983320E+00
77  7.6000000000000E-01 -1.1636693309136E-01 -1.0738835778998E+00  1.6565353766659E+00
78  7.7000000000000E-01 -7.9976515307475E-02 -1.0893819852045E+00  1.6529628545326E+00
79  7.8000000000000E-01 -4.7323639653096E-02 -1.0928058078219E+00  1.6457244064414E+00
80  7.9000000000000E-01 -1.8429759012520E-02 -1.0850271769743E+00  1.6346163071646E+00
81  8.0000000000000E-01  6.7444787271638E-03 -1.0670330048715E+00  1.6194426193349E+00
82  8.1000000000000E-01  2.8290449266090E-02 -1.0398928580844E+00  1.6000250288554E+00
83  8.2000000000000E-01  4.6342590897928E-02 -1.0047274483610E+00  1.5762122187140E+00
84  8.3000000000000E-01  6.1069636124642E-02 -9.6267890135753E-01  1.5478882981217E+00
85  8.4000000000000E-01  7.2666377039462E-02 -9.1488385236895E-01  1.5149798566062E+00
86  8.5000000000000E-01  8.1346261432289E-02 -8.6245026464540E-01  1.4774612914595E+00
87  8.6000000000000E-01  8.7335060549987E-02 -8.0643867430092E-01  1.4353581609224E+00
88  8.7000000000000E-01  9.0865783090742E-02 -7.4784834068881E-01  1.3887484434198E+00
89  8.8000000000000E-01  9.2174934814354E-02 -6.8760852699686E-01  1.3377617335176E+00
90  8.9000000000000E-01  9.1500140471158E-02 -6.2657485697723E-01  1.2825765764004E+00
91  9.0000000000000E-01  8.9079055721693E-02 -5.6553039379886E-01  1.2234163329613E+00
92  9.1000000000000E-01  8.5149402119874E-02 -5.0519076863483E-01  1.1605441756210E+00
93  9.2000000000000E-01  7.9949858412902E-02 -4.4621235116249E-01  1.0942580396378E+00
94  9.3000000000000E-01  7.3721436207097E-02 -3.8920210155032E-01  1.0248865952708E+00
95  9.4000000000000E-01  6.6708856737780E-02 -3.3472737198165E-01  9.5278756256703E-01
96  9.5000000000000E-01  5.9161326729264E-02 -2.8332353176229E-01  8.7834996324271E-01
97  9.6000000000000E-01  5.1331983255664E-02 -2.3549686839890E-01  8.0200219414716E-01
98  9.7000000000000E-01  4.3475137513226E-02 -1.9171976036337E-01  7.2422811606944E-01
99  9.8000000000000E-01  3.5840292526264E-02 -1.5241461718335E-01  6.4559368235283E-01
100  9.9000000000000E-01  2.8661735393963E-02 -1.1792252447145E-01  5.6678699363207E-01
101  1.0000000000000E+00  2.2142323905740E-02 -8.8451975492393E-02  4.8867494119992E-01
102  1.0100000000000E+00  1.6429907192149E-02 -6.4002549550669E-02  4.1237972762133E-01
103  1.0200000000000E+00  1.1600175563565E-02 -4.4321616774920E-02  3.3927586936054E-01
104  1.0300000000000E+00  7.6795036434371E-03 -2.9024165464748E-02  2.7073088606348E-01
105  1.0400000000000E+00  4.6577734964047E-03 -1.7659512035535E-02  2.0798294316735E-01
106  1.0500000000000E+00  2.4890117391402E-03 -9.7231989780923E-03  1.5212341485302E-01
107  1.0600000000000E+00  1.0424205648044E-03 -4.5262485525170E-03  1.0403347558355E-01
108  1.0700000000000E+00  1.8252655269205E-04 -1.4254045208479E-03  6.4441359168677E-02
109  1.0800000000000E+00 -1.7608346818927E-04  8.3946027328613E-06  3.3981444878881E-02
110  1.0900000000000E+00 -1.8372304188754E-04  3.0968009348788E-04  1.3086996675048E-02
111  1.1000000000000E+00 -4.6848922035196E-05  9.5005996132356E-05  1.9732135274769E-03
112  1.1100000000000E+00  2.9101741554799E-06 -6.2413562065460E-06 -9.2435112278876E-05
113  1.1200000000000E+00  2.4850204876989E-08 -5.0496516916566E-08 -1.0533727415179E-06
114  1.13  0.  0.  0.
115  1.14  0.  0.  0.
116  1.15  0.  0.  0.
117  1.16  0.  0.  0.
118  1.17  0.  0.  0.
119  1.18  0.  0.  0.
120  1.19  0.  0.  0.
121  1.20  0.  0.  0.
122  1.21  0.  0.  0.
123  1.22  0.  0.  0.
124  1.23  0.  0.  0.
125  1.24  0.  0.  0.
126  1.25  0.  0.  0.
127  1.26  0.  0.  0.
128  1.27  0.  0.  0.
129  1.28  0.  0.  0.
130  1.29  0.  0.  0.
131  1.30  0.  0.  0.
132  1.31  0.  0.  0.
133  1.32  0.  0.  0.
134  1.33  0.  0.  0.
135  1.34  0.  0.  0.
136  1.35  0.  0.  0.
137  1.36  0.  0.  0.
138  1.37  0.  0.  0.
139  1.38  0.  0.  0.
140  1.39  0.  0.  0.
141  1.40  0.  0.  0.
142  1.41  0.  0.  0.
143  1.42  0.  0.  0.
144  1.43  0.  0.  0.
145  1.44  0.  0.  0.
146  1.45  0.  0.  0.
147  1.46  0.  0.  0.
148  1.47  0.  0.  0.
149  1.48  0.  0.  0.
150  1.49  0.  0.  0.
151  1.50  0.  0.  0.
152  1.51  0.  0.  0.
153  1.52  0.  0.  0.
154  1.53  0.  0.  0.
155  1.54  0.  0.  0.
156  1.55  0.  0.  0.
157  1.56  0.  0.  0.
158  1.57  0.  0.  0.
159  1.58  0.  0.  0.
160  1.59  0.  0.  0.
161  1.60  0.  0.  0.
162  1.61  0.  0.  0.
163  1.62  0.  0.  0.
164  1.63  0.  0.  0.
165  1.64  0.  0.  0.
166  1.65  0.  0.  0.
167  1.66  0.  0.  0.
168  1.67  0.  0.  0.
169  1.68  0.  0.  0.
170  1.69  0.  0.  0.
171  1.70  0.  0.  0.
172  1.71  0.  0.  0.
173  1.72  0.  0.  0.
174  1.73  0.  0.  0.
175  1.74  0.  0.  0.
176  1.75  0.  0.  0.
177  1.76  0.  0.  0.
178  1.77  0.  0.  0.
179  1.78  0.  0.  0.
180  1.79  0.  0.  0.
181  1.80  0.  0.  0.
182  1.81  0.  0.  0.
183  1.82  0.  0.  0.
184  1.83  0.  0.  0.
185  1.84  0.  0.  0.
186  1.85  0.  0.  0.
187  1.86  0.  0.  0.
188  1.87  0.  0.  0.
189  1.88  0.  0.  0.
190  1.89  0.  0.  0.
191  1.90  0.  0.  0.
192  1.91  0.  0.  0.
193  1.92  0.  0.  0.
194  1.93  0.  0.  0.
195  1.94  0.  0.  0.
196  1.95  0.  0.  0.
197  1.96  0.  0.  0.
198  1.97  0.  0.  0.
199  1.98  0.  0.  0.
200  1.99  0.  0.  0.
201  2.00  0.  0.  0.
202  2.01  0.  0.  0.
203  2.02  0.  0.  0.
204  2.03  0.  0.  0.
205  2.04  0.  0.  0.
206  2.05  0.  0.  0.
207  2.06  0.  0.  0.
208  2.07  0.  0.  0.
209  2.08  0.  0.  0.
210  2.09  0.  0.  0.
211  2.10  0.  0.  0.
212  2.11  0.  0.  0.
213  2.12  0.  0.  0.
214  2.13  0.  0.  0.
215  2.14  0.  0.  0.
216  2.15  0.  0.  0.
217  2.16  0.  0.  0.
218  2.17  0.  0.  0.
219  2.18  0.  0.  0.
220  2.19  0.  0.  0.
221  2.20  0.  0.  0.
222  2.21  0.  0.  0.
223  2.22  0.  0.  0.
224  2.23  0.  0.  0.
225  2.24  0.  0.  0.
226  2.25  0.  0.  0.
227  2.26  0.  0.  0.
228  2.27  0.  0.  0.
229  2.28  0.  0.  0.
230  2.29  0.  0.  0.
231  2.30  0.  0.  0.
232  2.31  0.  0.  0.
233  2.32  0.  0.  0.
234  2.33  0.  0.  0.
235  2.34  0.  0.  0.
236  2.35  0.  0.  0.
237  2.36  0.  0.  0.
238  2.37  0.  0.  0.
239  2.38  0.  0.  0.
240  2.39  0.  0.  0.
241  2.40  0.  0.  0.
242  2.41  0.  0.  0.
243  2.42  0.  0.  0.
244  2.43  0.  0.  0.
245  2.44  0.  0.  0.
246  2.45  0.  0.  0.
247  2.46  0.  0.  0.
248  2.47  0.  0.  0.
249  2.48  0.  0.  0.
250  2.49  0.  0.  0.
251  2.50  0.  0.  0.
252  2.51  0.  0.  0.
253  2.52  0.  0.  0.
254  2.53  0.  0.  0.
255  2.54  0.  0.  0.
256  2.55  0.  0.  0.
257  2.56  0.  0.  0.
258  2.57  0.  0.  0.
259  2.58  0.  0.  0.
260  2.59  0.  0.  0.
261  2.60  0.  0.  0.
262  2.61  0.  0.  0.
263  2.62  0.  0.  0.
264  2.63  0.  0.  0.
265  2.64  0.  0.  0.
266  2.65  0.  0.  0.
267  2.66  0.  0.  0.
268  2.67  0.  0.  0.
269  2.68  0.  0.  0.
270  2.69  0.  0.  0.
271  2.70  0.  0.  0.
272  2.71  0.  0.  0.
273  2.72  0.  0.  0.
274  2.73  0.  0.  0.
275  2.74  0.  0.  0.
276  2.75  0.  0.  0.
277  2.76  0.  0.  0.
278  2.77  0.  0.  0.
279  2.78  0.  0.  0.
280  2.79  0.  0.  0.
281  2.80  0.  0.  0.
282  2.81  0.  0.  0.
283  2.82  0.  0.  0.
284  2.83  0.  0.  0.
285  2.84  0.  0.  0.
286  2.85  0.  0.  0.
287  2.86  0.  0.  0.
288  2.87  0.  0.  0.
289  2.88  0.  0.  0.
290  2.89  0.  0.  0.
291  2.90  0.  0.  0.
292  2.91  0.  0.  0.
293  2.92  0.  0.  0.
294  2.93  0.  0.  0.
295  2.94  0.  0.  0.
296  2.95  0.  0.  0.
297  2.96  0.  0.  0.
298  2.97  0.  0.  0.
299  2.98  0.  0.  0.
300  2.99  0.  0.  0.
301  3.00  0.  0.  0.
302  3.01  0.  0.  0.
303  3.02  0.  0.  0.
304  3.03  0.  0.  0.
305  3.04  0.  0.  0.
306  3.05  0.  0.  0.
307  3.06  0.  0.  0.
308  3.07  0.  0.  0.
309  3.08  0.  0.  0.
310  3.09  0.  0.  0.
311  3.10  0.  0.  0.
312  3.11  0.  0.  0.
313  3.12  0.  0.  0.
314  3.13  0.  0.  0.
315  3.14  0.  0.  0.
316  3.15  0.  0.  0.
317  3.16  0.  0.  0.
318  3.17  0.  0.  0.
319  3.18  0.  0.  0.
320  3.19  0.  0.  0.
321  3.20  0.  0.  0.
322  3.21  0.  0.  0.
323  3.22  0.  0.  0.
324  3.23  0.  0.  0.
325  3.24  0.  0.  0.
326  3.25  0.  0.  0.
327  3.26  0.  0.  0.
328  3.27  0.  0.  0.
329  3.28  0.  0.  0.
330  3.29  0.  0.  0.
331  3.30  0.  0.  0.
332  3.31  0.  0.  0.
333  3.32  0.  0.  0.
334  3.33  0.  0.  0.
335  3.34  0.  0.  0.
336  3.35  0.  0.  0.
337  3.36  0.  0.  0.
338  3.37  0.  0.  0.
339  3.38  0.  0.  0.
340  3.39  0.  0.  0.
341  3.40  0.  0.  0.
342  3.41  0.  0.  0.
343  3.42  0.  0.  0.
344  3.43  0.  0.  0.
345  3.44  0.  0.  0.
346  3.45  0.  0.  0.
347  3.46  0.  0.  0.
348  3.47  0.  0.  0.
349  3.48  0.  0.  0.
350  3.49  0.  0.  0.
351  3.50  0.  0.  0.
352  3.51  0.  0.  0.
353  3.52  0.  0.  0.
354  3.53  0.  0.  0.
355  3.54  0.  0.  0.
356  3.55  0.  0.  0.
357  3.56  0.  0.  0.
358  3.57  0.  0.  0.
359  3.58  0.  0.  0.
360  3.59  0.  0.  0.
361  3.60  0.  0.  0.
362  3.61  0.  0.  0.
363  3.62  0.  0.  0.
364  3.63  0.  0.  0.
365  3.64  0.  0.  0.
366  3.65  0.  0.  0.
367  3.66  0.  0.  0.
368  3.67  0.  0.  0.
369  3.68  0.  0.  0.
370  3.69  0.  0.  0.
371  3.70  0.  0.  0.
372  3.71  0.  0.  0.
373  3.72  0.  0.  0.
374  3.73  0.  0.  0.
375  3.74  0.  0.  0.
376  3.75  0.  0.  0.
377  3.76  0.  0.  0.
378  3.77  0.  0.  0.
379  3.78  0.  0.  0.
380  3.79  0.  0.  0.
381  3.80  0.  0.  0.
382  3.81  0.  0.  0.
383  3.82  0.  0.  0.
384  3.83  0.  0.  0.
385  3.84  0.  0.  0.
386  3.85  0.  0.  0.
387  3.86  0.  0.  0.
388  3.87  0.  0.  0.
389  3.88  0.  0.  0.
390  3.89  0.  0.  0.
391  3.90  0.  0.  0.
392  3.91  0.  0.  0.
393  3.92  0.  0.  0.
394  3.93  0.  0.  0.
395  3.94  0.  0.  0.
396  3.95  0.  0.  0.
397  3.96  0.  0.  0.
398  3.97  0.  0.  0.
399  3.98  0.  0.  0.
400  3.99  0.  0.  0.
401  4.00  0.  0.  0.
402  4.01  0.  0.  0.
403  4.02  0.  0.  0.
404  4.03  0.  0.  0.
405  4.04  0.  0.  0.
406  4.05  0.  0.  0.
407  4.06  0.  0.  0.
408  4.07  0.  0.  0.
409  4.08  0.  0.  0.
410  4.09  0.  0.  0.
411  4.10  0.  0.  0.
412  4.11  0.  0.  0.
413  4.12  0.  0.  0.
414  4.13  0.  0.  0.
415  4.14  0.  0.  0.
416  4.15  0.  0.  0.
417  4.16  0.  0.  0.
418  4.17  0.  0.  0.
419  4.18  0.  0.  0.
420  4.19  0.  0.  0.
421  4.20  0.  0.  0.
422  4.21  0.  0.  0.
423  4.22  0.  0.  0.
424  4.23  0.  0.  0.
425  4.24  0.  0.  0.
426  4.25  0.  0.  0.
427  4.26  0.  0.  0.
428  4.27  0.  0.  0.
429  4.28  0.  0.  0.
430  4.29  0.  0.  0.
431  4.30  0.  0.  0.
432  4.31  0.  0.  0.
433  4.32  0.  0.  0.
434  4.33  0.  0.  0.
435  4.34  0.  0.  0.
436  4.35  0.  0.  0.
437  4.36  0.  0.  0.
438  4.37  0.  0.  0.
439  4.38  0.  0.  0.
440  4.39  0.  0.  0.
441  4.40  0.  0.  0.
442  4.41  0.  0.  0.
443  4.42  0.  0.  0.
444  4.43  0.  0.  0.
445  4.44  0.  0.  0.
446  4.45  0.  0.  0.
447  4.46  0.  0.  0.
448  4.47  0.  0.  0.
449  4.48  0.  0.  0.
450  4.49  0.  0.  0.
451  4.50  0.  0.  0.
452  4.51  0.  0.  0.
453  4.52  0.  0.  0.
454  4.53  0.  0.  0.
455  4.54  0.  0.  0.
456  4.55  0.  0.  0.
457  4.56  0.  0.  0.
458  4.57  0.  0.  0.
459  4.58  0.  0.  0.
460  4.59  0.  0.  0.
461  4.60  0.  0.  0.
462  4.61  0.  0.  0.
463  4.62  0.  0.  0.
464  4.63  0.  0.  0.
465  4.64  0.  0.  0.
466  4.65  0.  0.  0.
467  4.66  0.  0.  0.
468  4.67  0.  0.  0.
469  4.68  0.  0.  0.
470  4.69  0.  0.  0.
471  4.70  0.  0.  0.
472  4.71  0.  0.  0.
473  4.72  0.  0.  0.
474  4.73  0.  0.  0.
475  4.74  0.  0.  0.
476  4.75  0.  0.  0.
477  4.76  0.  0.  0.
478  4.77  0.  0.  0.
479  4.78  0.  0.  0.
480  4.79  0.  0.  0.
481  4.80  0.  0.  0.
482  4.81  0.  0.  0.
483  4.82  0.  0.  0.
484  4.83  0.  0.  0.
485  4.84  0.  0.  0.
486  4.85  0.  0.  0.
487  4.86  0.  0.  0.
488  4.87  0.  0.  0.
489  4.88  0.  0.  0.
490  4.89  0.  0.  0.
491  4.90  0.  0.  0.
492  4.91  0.  0.  0.
493  4.92  0.  0.  0.
494  4.93  0.  0.  0.
495  4.94  0.  0.  0.
496  4.95  0.  0.  0.
497  4.96  0.  0.  0.
498  4.97  0.  0.  0.
499  4.98  0.  0.  0.
500  4.99  0.  0.  0.
501  5.00  0.  0.  0.
502  5.01  0.  0.  0.
503  5.02  0.  0.  0.
504  5.03  0.  0.  0.
505  5.04  0.  0.  0.
506  5.05  0.  0.  0.
507  5.06  0.  0.  0.
508  5.07  0.  0.  0.
509  5.08  0.  0.  0.
510  5.09  0.  0.  0.
511  5.10  0.  0.  0.
512  5.11  0.  0.  0.
513  5.12  0.  0.  0.
514  5.13  0.  0.  0.
515  5.14  0.  0.  0.
516  5.15  0.  0.  0.
517  5.16  0.  0.  0.
518  5.17  0.  0.  0.
519  5.18  0.  0.  0.
520  5.19  0.  0.  0.
521  5.20  0.  0.  0.
522  5.21  0.  0.  0.
523  5.22  0.  0.  0.
524  5.23  0.  0.  0.
525  5.24  0.  0.  0.
526  5.25  0.  0.  0.
527  5.26  0.  0.  0.
528  5.27  0.  0.  0.
529  5.28  0.  0.  0.
530  5.29  0.  0.  0.
531  5.30  0.  0.  0.
532  5.31  0.  0.  0.
533  5.32  0.  0.  0.
534  5.33  0.  0.  0.
535  5.34  0.  0.  0.
536  5.35  0.  0.  0.
537  5.36  0.  0.  0.
538  5.37  0.  0.  0.
539  5.38  0.  0.  0.
540  5.39  0.  0.  0.
541  5.40  0.  0.  0.
542  5.41  0.  0.  0.
543  5.42  0.  0.  0.
544  5.43  0.  0.  0.
545  5.44  0.  0.  0.
546  5.45  0.  0.  0.
547  5.46  0.  0.  0.
548  5.47  0.  0.  0.
549  5.48  0.  0.  0.
550  5.49  0.  0.  0.
551  5.50  0.  0.  0.
552  5.51  0.  0.  0.
553  5.52  0.  0.  0.
554  5.53  0.  0.  0.
555  5.54  0.  0.  0.
556  5.55  0.  0.  0.
557  5.56  0.  0.  0.
558  5.57  0.  0.  0.
559  5.58  0.  0.  0.
560  5.59  0.  0.  0.
561  5.60  0.  0.  0.
562  5.61  0.  0.  0.
563  5.62  0.  0.  0.
564  5.63  0.  0.  0.
565  5.64  0.  0.  0.
566  5.65  0.  0.  0.
567  5.66  0.  0.  0.
568  5.67  0.  0.  0.
569  5.68  0.  0.  0.
570  5.69  0.  0.  0.
571  5.70  0.  0.  0.
572  5.71  0.  0.  0.
573  5.72  0.  0.  0.
574  5.73  0.  0.  0.
575  5.74  0.  0.  0.
576  5.75  0.  0.  0.
577  5.76  0.  0.  0.
578  5.77  0.  0.  0.
579  5.78  0.  0.  0.
580  5.79  0.  0.  0.
581  5.80  0.  0.  0.
582  5.81  0.  0.  0.
583  5.82  0.  0.  0.
584  5.83  0.  0.  0.
585  5.84  0.  0.  0.
586  5.85  0.  0.  0.
587  5.86  0.  0.  0.
588  5.87  0.  0.  0.
589  5.88  0.  0.  0.
590  5.89  0.  0.  0.
591  5.90  0.  0.  0.
592  5.91  0.  0.  0.
593  5.92  0.  0.  0.
594  5.93  0.  0.  0.
595  5.94  0.  0.  0.
596  5.95  0.  0.  0.
597  5.96  0.  0.  0.
598  5.97  0.  0.  0.
599  5.98  0.  0.  0.
600  5.99  0.  0.  0.
1                         9.1381039321061E+00 -4.9121356303394E-01 -1.8031489143327E-01  2.1255025161921E-02
1  0.0000000000000E+00 -7.6456568853800E-10 -6.7597556129007E-08 -1.9134124980020E-07  3.0824351648917E-07
2  1.0000000000000E-02  4.7165209676005E-03  6.1390958744021E-04 -4.1495008506086E-04  1.0351521775020E-02
3  2.0000000000000E-02  1.8822981217385E-02  2.4705474365769E-03 -1.5954340043342E-03  4.1140492809162E-02
4  3.0000000000000E-02  4.2190370725591E-02  5.6135890666060E-03 -3.3516433304946E-03  9.1577092424054E-02
5  4.0000000000000E-02  7.4604668006095E-02  1.0112371039388E-02 -5.3780625053476E-03  1.6036795382948E-01
6  5.0000000000000E-02  1.1576834007146E-01  1.6056879314906E-02 -7.2692432325605E-03  2.4574995037306E-01
7  6.0000000000000E-02  1.6530245583022E-01  2.3551070064806E-02 -8.5409611656043E-03  3.4553609007979E-01
8  7.0000000000000E-02  2.2274942452014E-01  3.2704842853537E-02 -8.6558715028903E-03  4.5717216811227E-01
9  8.0000000000000E-02  2.8757637154181E-01  4.3625053694180E-02 -7.0525887608374E-03  5.7780251853879E-01
10  9.0000000000000E-02  3.5917916307262E-01  5.6406006554003E-02 -3.1769671762882E-03  7.0434295294726E-01
11  1.0000000000000E-01  4.3688708789410E-01  7.1119894158773E-02  3.4857421339886E-03  8.3355878205408E-01
12  1.1000000000000E-01  5.1996819983287E-01  8.7807670918780E-02  1.3379228861576E-02  9.6214569339835E-01
13  1.2000000000000E-01  6.0763531707806E-01  1.0647083179083E-01  2.6846320738385E-02  1.0868112069606E+00
14  1.3000000000000E-01  6.9905266547794E-01  1.2706454107222E-01  4.4102343532046E-02  1.2043544520770E+00
15  1.4000000000000E-01  7.9334314192363E-01  1.4949250552208E-01  6.5212833187935E-02  1.3117421017787E+00
16  1.5000000000000E-01  8.8959616138250E-01  1.7360391866813E-01  9.0076627566613E-02  1.4061784606494E+00
17  1.6000000000000E-01  9.8687603742286E-01  1.9919272028281E-01  1.1841516135355E-01  1.4851679231349E+00
18  1.7000000000000E-01  1.0842308316246E+00  2.2599932005202E-01  1.4976854973580E-01  1.5465682925542E+00
19  1.8000000000000E-01  1.1807015926071E+00  2.5371483119783E-01  1.8349878354874E-01  1.5886337667007E+00
20  1.9000000000000E-01  1.2753318910754E+00  2.8198775241785E-01  2.1880008101920E-01  1.6100467423455E+00
21  2.0000000000000E-01  1.3671775438615E+00  3.1043292935707E-01  2.5471615981627E-01  1.6099379556834E+00
22  2.1000000000000E-01  1.4553164079753E+00  3.3864252436721E-01  2.9016391893455E-01  1.5878948458151E+00
23  2.2000000000000E-01  1.5388581157372E+00  3.6619862983826E-01  3.2396276381240E-01  1.5439583907591E+00
24  2.3000000000000E-01  1.6169536146095E+00  3.9268707990855E-01  3.5486858022451E-01  1.4786090077159E+00
25  2.4000000000000E-01  1.6888043708263E+00  4.1771195140324E-01  3.8161117202627E-01  1.3927424197817E+00
26  2.5000000000000E-01  1.7536710946484E+00  4.4091020033339E-01  4.0293383249051E-01  1.2876366597968E+00
27  2.6000000000000E-01  1.8108818472964E+00  4.6196585737999E-01  4.1763362475529E-01  1.1649116000226E+00
28  2.7000000000000E-01  1.8598393954419E+00  4.8062320582195E-01  4.2460090780582E-01  1.0264825573892E+00
29  2.8000000000000E-01  1.9000276885616E+00  4.9669838877120E-01  4.2285666229342E-01  8.7450962395876E-01
30  2.9000000000000E-01  1.9310173473493E+00  5.1008893884008E-01  4.1158624495331E-01  7.1134440919465E-01
31  3.0000000000000E-01  1.9524700674750E+00  5.2078079104425E-01  3.9016832877188E-01  5.3947585528864E-01
32  3.1000000000000E-01  1.9641418619089E+00  5.2885242651127E-01  3.5819796355690E-01  3.6147670222236E-01
33  3.2000000000000E-01  1.9658850862920E+00  5.3447589728005E-01  3.1550291136765E-01  1.7995204077989E-01
34  3.3000000000000E-01  1.9576492148859E+00  5.3791459731035E-01  2.6215266481741E-01 -2.5087932702351E-03
35  3.4000000000000E-01  1.9394803587922E+00  5.3951776738715E-01  1.9845983360073E-01 -1.8337595304153E-01
36  3.5000000000000E-01  1.9115195427329E+00  5.3971184713209E-01  1.2497387472355E-01 -3.6021766110306E-01
37  3.6000000000000E-01  1.8739997809784E+00  5.3898891085522E-01  4.2467433244123E-02 -5.3073312053847E-01
38  3.7000000000000E-01  1.8272420163000E+00  5.3789254051921E-01 -4.8084158864649E-02 -6.9277950927775E-01
39  3.8000000000000E-01  1.7716500073983E+00  5.3700159387496E-01 -1.4552941922307E-01 -8.4439307167896E-01
40  3.9000000000000E-01  1.7077042694969E+00  5.3691241447606E-01 -2.4857225399440E-01 -9.8380456354437E-01
41  4.0000000000000E-01  1.6359551891126E+00  5.3822009899115E-01 -3.5580728174063E-01 -1.1094495198105E+00
42  4.1000000000000E-01  1.5570154469678E+00  5.4149948294166E-01 -4.6575758953276E-01 -1.2199739893646E+00
43  4.2000000000000E-01  1.4715518922527E+00  5.4728652651506E-01 -5.7691348875305E-01 -1.3142365119112E+00
44  4.3000000000000E-01  1.3802770167443E+00  5.5606077623414E-01 -6.8777081680234E-01 -1.3913071927547E+00
45  4.4000000000000E-01  1.2839401785936E+00  5.6822954584399E-01 -7.9686736945516E-01 -1.4504647603283E+00
46  4.5000000000000E-01  1.1833187229384E+00  5.8411440172194E-01 -9.0281614549569E-01 -1.4911924682442E+00
47  4.6000000000000E-01  1.0792091401175E+00  6.0394045638198E-01 -1.0043342366747E+00 -1.5131736309534E+00
48  4.7000000000000E-01  9.7241839246896E-01  6.2782887118789E-01 -1.1002663957788E+00 -1.5162874645533E+00
49  4.8000000000000E-01  8.6375552795907E-01  6.5579285003913E-01 -1.1896025554653E+00 -1.5006057486945E+00
50  4.9000000000000E-01  7.5402368375056E-01  6.8773727412859E-01 -1.2714888404635E+00 -1.4663906406480E+00
51  5.0000000000000E-01  6.4401256592408E-01  7.2346198903219E-01 -1.3452319043913E+00 -1.4140937685522E+00
52  5.1000000000000E-01  5.3449147358631E-01  7.6266861488261E-01 -1.4102967175056E+00 -1.3443565188048E+00
53  5.2000000000000E-01  4.2620291724766E-01  8.0497061385258E-01 -1.4662982204998E+00 -1.2580112241824E+00
54  5.3000000000000E-01  3.1985686332959E-01  8.4990622219056E-01 -1.5129875294360E+00 -1.1560827661615E+00
55  5.4000000000000E-01  2.1612561963548E-01  8.9695374185594E-01 -1.5502336161810E+00 -1.0397899381369E+00
56  5.5000000000000E-01  1.1563936119494E-01  9.4554859409929E-01 -1.5780015866129E+00 -9.1054578573172E-01
57  5.6000000000000E-01  1.8982282587268E-02  9.9510146808900E-01 -1.5963288263650E+00 -7.6995605453925E-01
58  5.7000000000000E-01 -7.3310647924430E-02  1.0450168549431E+00 -1.6053003740301E+00 -6.1981484078810E-01
59  5.8000000000000E-01 -1.6075636507915E-01  1.0947112432729E+00 -1.6050249100372E+00 -4.6209656057305E-01
60  5.9000000000000E-01 -2.4292585175825E-01  1.1436302674145E+00 -1.5956127139377E+00 -2.9894342989289E-01
61  6.0000000000000E-01 -3.1944579225840E-01  1.1912641435452E+00 -1.5771568444776E+00 -1.3264777944357E-01
62  6.1000000000000E-01 -3.8999977259952E-01  1.2371608002613E+00 -1.5497186392373E+00  3.4371289099453E-02
63  6.2000000000000E-01 -4.5432906345184E-01  1.2809362062050E+00 -1.5133184200957E+00  1.9959717137554E-01
64  6.3000000000000E-01 -5.1223301580359E-01  1.3222815141661E+00 -1.4679320360503E+00  3.6045095674327E-01
65  6.4000000000000E-01 -5.6356909238774E-01  1.3609667740355E+00 -1.4134935868424E+00  5.1433226956176E-01
66  6.5000000000000E-01 -6.0825254972530E-01  1.3968411106262E+00 -1.3499043618473E+00  6.5866517382604E-01
67  6.6000000000000E-01 -6.4625577705945E-01  1.4298294107607E+00 -1.2770477124320E+00  7.9094826361146E-01
68  6.7000000000000E-01 -6.7760729010648E-01  1.4599257109560E+00 -1.1948092666062E+00  9.0880778226249E-01
69  6.8000000000000E-01 -7.0239037008423E-01  1.4871836163212E+00 -1.1031016064424E+00  1.0100523643532E+00
70  6.9000000000000E-01 -7.2074133250119E-01  1.5117042070077E+00 -1.0018922748352E+00  1.0927277894254E+00
71  7.0000000000000E-01 -7.3284740623405E-01  1.5336219952941E+00 -8.9123377091536E-01  1.1551699872440E+00
72  7.1000000000000E-01 -7.3894420192034E-01  1.5530895795274E+00 -7.7129404313110E-01  1.1960544506301E+00
73  7.2000000000000E-01 -7.3931274995565E-01  1.5702616970112E+00 -6.4238590368910E-01  1.2144402011612E+00
74  7.3000000000000E-01 -7.3427609257881E-01  1.5852794039979E+00 -5.0499377296296E-01  1.2098065195425E+00
75  7.4000000000000E-01 -7.2419542166408E-01  1.5982551059790E+00 -3.5979621987516E-01  1.1820807973395E+00
76  7.5000000000000E-01 -7.0946576376938E-01  1.6092591255502E+00 -2.0768289318164E-01  1.1316560877508E+00
77  7.6000000000000E-01 -6.9051122640496E-01  1.6183084297324E+00 -4.9764634837819E-02  1.0593972243797E+00
78  7.7000000000000E-01 -6.6777983392836E-01  1.6253580465353E+00  1.1262417715110E-01  9.6663472941528E-01
79  7.8000000000000E-01 -6.4173799734437E-01  1.6302955857903E+00  2.7793170308009E-01  8.5514613397052E-01
80  7.9000000000000E-01 -6.1286467888443E-01  1.6329391469430E+00  4.4440343698402E-01  7.2712476859916E-01
81  8.0000000000000E-01 -5.8164532875995E-01  1.6330387526277E+00  6.1010566241417E-01  5.8513653389655E-01
82  8.1000000000000E-01 -5.4856568707675E-01  1.6302812981035E+00  7.7295713780861E-01  4.3206561069974E-01