Md    ONCVPSP-4.0.1  r_core=   1.10635   1.10635   1.00536   1.10635
101.0000     41.0000      231012    zatom,zion,pspd
8   -1012   3     4   600     0    pspcod,pspxc,lmax,lloc,mmax,r2well
5.99000000  2.70000000  0.00000000    rchrg fchrg qchrg
3     2     2     2     0    nproj
1     1           extension_switch
0                         2.8952808504755E+01  3.8521924348932E+00 -6.4472981825561E-01
1  0.0000000000000E+00 -5.6343617105270E-08  1.8067354778939E-07  1.0473060799154E-07
2  1.0000000000000E-02  1.6361488684008E-01 -5.4083292074130E-02  1.9897260245069E-02
3  2.0000000000000E-02  3.2604119421778E-01 -1.0674600559998E-01  4.0118131890711E-02
4  3.0000000000000E-02  4.8610558240900E-01 -1.5660339103819E-01  6.0968502649352E-02
5  4.0000000000000E-02  6.4266478496236E-01 -2.0234110401576E-01  8.2719550984028E-02
6  5.0000000000000E-02  7.9461964550642E-01 -2.4274732600001E-01  1.0559220788239E-01
7  6.0000000000000E-02  9.4092799801307E-01 -2.7674132522473E-01  1.2974371845740E-01
8  7.0000000000000E-02  1.0806160751529E+00 -3.0339749606335E-01  1.5525687354788E-01
9  8.0000000000000E-02  1.2127881857223E+00 -3.2196409571758E-01  1.8213237676150E-01
10  9.0000000000000E-02  1.3366344680051E+00 -3.3187610852421E-01  2.1028468931786E-01
11  1.0000000000000E-01  1.4514365986135E+00 -3.3276190165639E-01  2.3954155837712E-01
12  1.1000000000000E-01  1.5565714127868E+00 -3.2444358186901E-01  2.6964728957935E-01
13  1.2000000000000E-01  1.6515124691482E+00 -3.0693121106913E-01  3.0026967688479E-01
14  1.3000000000000E-01  1.7358296662971E+00 -2.8041127863400E-01  3.3101035822165E-01
15  1.4000000000000E-01  1.8091870872683E+00 -2.4523005064552E-01  3.6141822951619E-01
16  1.5000000000000E-01  1.8713393079564E+00 -2.0187261138360E-01  3.9100542767321E-01
17  1.6000000000000E-01  1.9221264545986E+00 -1.5093857248018E-01  4.1926528972066E-01
18  1.7000000000000E-01  1.9614683313141E+00 -9.3115543484026E-02  4.4569161464098E-01
19  1.8000000000000E-01  1.9893579600447E+00 -2.9151529376541E-02  4.6979849951057E-01
20  1.9000000000000E-01  2.0058548811892E+00  4.0172557116385E-02  4.9113999459264E-01
21  2.0000000000000E-01  2.0110785535932E+00  1.1406910858740E-01  5.0932882402004E-01
22  2.1000000000000E-01  2.0052021678131E+00  1.9176767865049E-01  5.2405344959504E-01
23  2.2000000000000E-01  1.9884471478713E+00  2.7253552039739E-01  5.3509281382671E-01
24  2.3000000000000E-01  1.9610785657727E+00  3.5569401108402E-01  5.4232818235632E-01
25  2.4000000000000E-01  1.9234016321516E+00  4.4063036345367E-01  5.4575161214473E-01
26  2.5000000000000E-01  1.8757593582573E+00  5.2680424620625E-01  5.4547069610024E-01
27  2.6000000000000E-01  1.8185314121084E+00  6.1374917395083E-01  5.4170937241976E-01
28  2.7000000000000E-01  1.7521341182865E+00  7.0106877036756E-01  5.3480473248875E-01
29  2.8000000000000E-01  1.6770214797944E+00  7.8842824684456E-01  5.2519990913234E-01
30  2.9000000000000E-01  1.5936870348837E+00  8.7554166230579E-01  5.1343327165129E-01
31  3.0000000000000E-01  1.5026663047848E+00  9.6215572864962E-01  5.0012428986367E-01
32  3.1000000000000E-01  1.4045395424726E+00  1.0480310915619E+00  4.8595655113500E-01
33  3.2000000000000E-01  1.2999344602018E+00  1.1329221411818E+00  4.7165851749073E-01
34  3.3000000000000E-01  1.1895285961522E+00  1.2165564856308E+00  4.5798269049706E-01
35  3.4000000000000E-01  1.0740509791534E+00  1.2986152491264E+00  4.4568390668226E-01
36  3.5000000000000E-01  9.5428276542112E-01  1.3787153337614E+00  4.3549751388198E-01
37  3.6000000000000E-01  8.3105655214900E-01  1.4563947106651E+00  4.2811817813218E-01
38  3.7000000000000E-01  7.0525411858816E-01  1.5311016849590E+00  4.2418004182534E-01
39  3.8000000000000E-01  5.7780240418049E-01  1.6021889145218E+00  4.2423889811383E-01
40  3.9000000000000E-01  4.4966760308159E-01  1.6689127617539E+00  4.2875696634505E-01
41  4.0000000000000E-01  3.2184733221000E-01  1.7304383285603E+00  4.3809075196092E-01
42  4.1000000000000E-01  1.9536091261112E-01  1.7858502771530E+00  4.5248235589950E-01
43  4.2000000000000E-01  7.1237887999025E-02  1.8341692833627E+00  4.7205446785388E-01
44  4.3000000000000E-01 -4.9495013689535E-02  1.8743737156939E+00  4.9680913997024E-01
45  4.4000000000000E-01 -1.6582819351591E-01  1.9054258930974E+00  5.2663029813660E-01
46  4.5000000000000E-01 -2.7678441982543E-01  1.9263020575797E+00  5.6128981237456E-01
47  4.6000000000000E-01 -3.8143458623573E-01  1.9360250136354E+00  6.0045682124035E-01
48  4.7000000000000E-01 -4.7891354265770E-01  1.9336982430536E+00  6.4370989240161E-01
49  4.8000000000000E-01 -5.6843552765212E-01  1.9185402072345E+00  6.9055150690784E-01
50  4.9000000000000E-01 -6.4930872296171E-01  1.8899175041525E+00  7.4042428157114E-01
51  5.0000000000000E-01 -7.2094846173159E-01  1.8473755557719E+00  7.9272829487078E-01
52  5.1000000000000E-01 -7.8288865058210E-01  1.7906655641217E+00  8.4683885844818E-01
53  5.2000000000000E-01 -8.3479101142511E-01  1.7197665881654E+00  9.0212407906124E-01
54  5.3000000000000E-01 -8.7645181013074E-01  1.6349017547526E+00  9.5796158426974E-01
55  5.4000000000000E-01 -9.0780581362039E-01  1.5365478190114E+00  1.0137538375263E+00
56  5.5000000000000E-01 -9.2892730191495E-01  1.4254375245686E+00  1.0689415422202E+00
57  5.6000000000000E-01 -9.4002805389939E-01  1.3025544726103E+00  1.1230147261807E+00
58  5.7000000000000E-01 -9.4145232157750E-01  1.1691204807171E+00  1.1755212041346E+00
59  5.8000000000000E-01 -9.3366890372869E-01  1.0265756867704E+00  1.2260722310456E+00
60  5.9000000000000E-01 -9.1726052248893E-01  8.7655191909815E-01  1.2743452792539E+00
61  6.0000000000000E-01 -8.9291079195070E-01  7.2084010084898E-01  1.3200839918778E+00
62  6.1000000000000E-01 -8.6138914319837E-01  5.6135267461192E-01  1.3630954791178E+00
63  6.2000000000000E-01 -8.2353413247159E-01  4.0008221400004E-01  1.4032452283350E+00
64  6.3000000000000E-01 -7.8023560611770E-01  2.3905752530738E-01  1.4404499889048E+00
65  6.4000000000000E-01 -7.3241622601904E-01  8.0298629309792E-02  1.4746690654381E+00
66  6.5000000000000E-01 -6.8101287130205E-01 -7.4227952308951E-02  1.5058945053037E+00
67  6.6000000000000E-01 -6.2695842611149E-01 -2.2265220051288E-01  1.5341406966904E+00
68  6.7000000000000E-01 -5.7116443953387E-01 -3.6324055845954E-01  1.5594339008585E+00
69  6.8000000000000E-01 -5.1450510353663E-01 -4.9443163347127E-01  1.5818022268513E+00
70  6.9000000000000E-01 -4.5780293983202E-01 -6.1486659214266E-01  1.6012665198432E+00
71  7.0000000000000E-01 -4.0181651920667E-01 -7.2341340052741E-01  1.6178325774220E+00
72  7.1000000000000E-01 -3.4723045983194E-01 -8.1918429133893E-01  1.6314850341965E+00
73  7.2000000000000E-01 -2.9464786747806E-01 -9.0154608956277E-01  1.6421831675963E+00
74  7.3000000000000E-01 -2.4458529363907E-01 -9.7012328703077E-01  1.6498587805252E+00
75  7.4000000000000E-01 -1.9747020066850E-01 -1.0247940152309E+00  1.6544162139472E+00
76  7.5000000000000E-01 -1.5364083933383E-01 -1.0656793141384E+00  1.6557344389998E+00
77  7.6000000000000E-01 -1.1334836674801E-01 -1.0931263238649E+00  1.6536710783390E+00
78  7.7000000000000E-01 -7.6760964119074E-02 -1.1076862271202E+00  1.6480681144600E+00
79  7.8000000000000E-01 -4.3969656457960E-02 -1.1100879367550E+00  1.6387589627298E+00
80  7.9000000000000E-01 -1.4995492095611E-02 -1.1012086483454E+00  1.6255765223969E+00
81  8.0000000000000E-01  1.0202290134359E-02 -1.0820424587751E+00  1.6083617729390E+00
82  8.1000000000000E-01  3.1717493158605E-02 -1.0536682856239E+00  1.5869724582076E+00
83  8.2000000000000E-01  4.9687980215392E-02 -1.0172183080349E+00  1.5612913986492E+00
84  8.3000000000000E-01  6.4286851308106E-02 -9.7384808825074E-01  1.5312339935475E+00
85  8.4000000000000E-01  7.5714119691213E-02 -9.2470942616953E-01  1.4967545211637E+00
86  8.5000000000000E-01  8.4189187823222E-02 -8.7092685013348E-01  1.4578509147179E+00
87  8.6000000000000E-01  8.9944367598494E-02 -8.1357845955568E-01  1.4145677857266E+00
88  8.7000000000000E-01  9.3219624530699E-02 -7.5368161321706E-01  1.3669975822552E+00
89  8.8000000000000E-01  9.4258651328589E-02 -6.9218370549912E-01  1.3152799068711E+00
90  8.9000000000000E-01  9.3306294289932E-02 -6.2995799557988E-01  1.2595991760610E+00
91  9.0000000000000E-01  9.0607267232459E-02 -5.6780415522220E-01  1.2001809781945E+00
92  9.1000000000000E-01  8.6405993040841E-02 -5.0645288180059E-01  1.1372876794673E+00
93  9.2000000000000E-01  8.0947312678061E-02 -4.4657358601586E-01  1.0712140356316E+00
94  9.3000000000000E-01  7.4477695538220E-02 -3.8878380827502E-01  1.0022837910409E+00
95  9.4000000000000E-01  6.7246472608559E-02 -3.3365864229241E-01  9.3084848540188E-01
96  9.5000000000000E-01  5.9506493779414E-02 -2.8173804569467E-01  8.5728994295917E-01
97  9.6000000000000E-01  5.1513480967900E-02 -2.3352949028526E-01  7.8202818943778E-01
98  9.7000000000000E-01  4.3523206981454E-02 -1.8950294202048E-01  7.0553683055020E-01
99  9.8000000000000E-01  3.5785473362492E-02 -1.5007465453172E-01  6.2836823403373E-01
100  9.9000000000000E-01  2.8533684272770E-02 -1.1557569587745E-01  5.5119119392621E-01
101  1.0000000000000E+00  2.1968631227966E-02 -8.6200567284599E-02  4.7484401022751E-01
102  1.0100000000000E+00  1.6234922353901E-02 -6.1930748403330E-02  4.0040602804317E-01
103  1.0200000000000E+00  1.1403990560426E-02 -4.2491986255052E-02  3.2919354320354E-01
104  1.0300000000000E+00  7.4974906016179E-03 -2.7476698516992E-02  2.6251335751946E-01
105  1.0400000000000E+00  4.5005006847103E-03 -1.6412248686778E-02  2.0154665093796E-01
106  1.0500000000000E+00  2.3623850464594E-03 -8.7736037532892E-03  1.4733234283174E-01
107  1.0600000000000E+00  9.4898248026619E-04 -3.8556059901127E-03  1.0070272223178E-01
108  1.0700000000000E+00  1.2166823312747E-04 -1.0007504374076E-03  6.2343927869681E-02
109  1.0800000000000E+00 -2.0908622147143E-04  2.3514264121942E-04  3.2856956804392E-02
110  1.0900000000000E+00 -1.9652395678635E-04  3.9729379309643E-04  1.2646638972997E-02
111  1.1000000000000E+00 -4.8743246503436E-05  1.0813006665844E-04  1.9056990044339E-03
112  1.1100000000000E+00  3.0048279089934E-06 -6.8585115832087E-06 -8.9223393077159E-05
113  1.1200000000000E+00  2.5937640607266E-08 -5.7574780490150E-08 -1.0172602200805E-06
114  1.13 -0.  0. -0.
115  1.14  0.  0.  0.
116  1.15  0.  0.  0.
117  1.16  0.  0.  0.
118  1.17  0.  0.  0.
119  1.18  0.  0.  0.
120  1.19  0.  0.  0.
121  1.20  0.  0.  0.
122  1.21  0.  0.  0.
123  1.22  0.  0.  0.
124  1.23  0.  0.  0.
125  1.24  0.  0.  0.
126  1.25  0.  0.  0.
127  1.26  0.  0.  0.
128  1.27  0.  0.  0.
129  1.28  0.  0.  0.
130  1.29  0.  0.  0.
131  1.30  0.  0.  0.
132  1.31  0.  0.  0.
133  1.32  0.  0.  0.
134  1.33  0.  0.  0.
135  1.34  0.  0.  0.
136  1.35  0.  0.  0.
137  1.36  0.  0.  0.
138  1.37  0.  0.  0.
139  1.38  0.  0.  0.
140  1.39  0.  0.  0.
141  1.40  0.  0.  0.
142  1.41  0.  0.  0.
143  1.42  0.  0.  0.
144  1.43  0.  0.  0.
145  1.44  0.  0.  0.
146  1.45  0.  0.  0.
147  1.46  0.  0.  0.
148  1.47  0.  0.  0.
149  1.48  0.  0.  0.
150  1.49  0.  0.  0.
151  1.50  0.  0.  0.
152  1.51  0.  0.  0.
153  1.52  0.  0.  0.
154  1.53  0.  0.  0.
155  1.54  0.  0.  0.
156  1.55  0.  0.  0.
157  1.56  0.  0.  0.
158  1.57  0.  0.  0.
159  1.58  0.  0.  0.
160  1.59  0.  0.  0.
161  1.60  0.  0.  0.
162  1.61  0.  0.  0.
163  1.62  0.  0.  0.
164  1.63  0.  0.  0.
165  1.64  0.  0.  0.
166  1.65  0.  0.  0.
167  1.66  0.  0.  0.
168  1.67  0.  0.  0.
169  1.68  0.  0.  0.
170  1.69  0.  0.  0.
171  1.70  0.  0.  0.
172  1.71  0.  0.  0.
173  1.72  0.  0.  0.
174  1.73  0.  0.  0.
175  1.74  0.  0.  0.
176  1.75  0.  0.  0.
177  1.76  0.  0.  0.
178  1.77  0.  0.  0.
179  1.78  0.  0.  0.
180  1.79  0.  0.  0.
181  1.80  0.  0.  0.
182  1.81  0.  0.  0.
183  1.82  0.  0.  0.
184  1.83  0.  0.  0.
185  1.84  0.  0.  0.
186  1.85  0.  0.  0.
187  1.86  0.  0.  0.
188  1.87  0.  0.  0.
189  1.88  0.  0.  0.
190  1.89  0.  0.  0.
191  1.90  0.  0.  0.
192  1.91  0.  0.  0.
193  1.92  0.  0.  0.
194  1.93  0.  0.  0.
195  1.94  0.  0.  0.
196  1.95  0.  0.  0.
197  1.96  0.  0.  0.
198  1.97  0.  0.  0.
199  1.98  0.  0.  0.
200  1.99  0.  0.  0.
201  2.00  0.  0.  0.
202  2.01  0.  0.  0.
203  2.02  0.  0.  0.
204  2.03  0.  0.  0.
205  2.04  0.  0.  0.
206  2.05  0.  0.  0.
207  2.06  0.  0.  0.
208  2.07  0.  0.  0.
209  2.08  0.  0.  0.
210  2.09  0.  0.  0.
211  2.10  0.  0.  0.
212  2.11  0.  0.  0.
213  2.12  0.  0.  0.
214  2.13  0.  0.  0.
215  2.14  0.  0.  0.
216  2.15  0.  0.  0.
217  2.16  0.  0.  0.
218  2.17  0.  0.  0.
219  2.18  0.  0.  0.
220  2.19  0.  0.  0.
221  2.20  0.  0.  0.
222  2.21  0.  0.  0.
223  2.22  0.  0.  0.
224  2.23  0.  0.  0.
225  2.24  0.  0.  0.
226  2.25  0.  0.  0.
227  2.26  0.  0.  0.
228  2.27  0.  0.  0.
229  2.28  0.  0.  0.
230  2.29  0.  0.  0.
231  2.30  0.  0.  0.
232  2.31  0.  0.  0.
233  2.32  0.  0.  0.
234  2.33  0.  0.  0.
235  2.34  0.  0.  0.
236  2.35  0.  0.  0.
237  2.36  0.  0.  0.
238  2.37  0.  0.  0.
239  2.38  0.  0.  0.
240  2.39  0.  0.  0.
241  2.40  0.  0.  0.
242  2.41  0.  0.  0.
243  2.42  0.  0.  0.
244  2.43  0.  0.  0.
245  2.44  0.  0.  0.
246  2.45  0.  0.  0.
247  2.46  0.  0.  0.
248  2.47  0.  0.  0.
249  2.48  0.  0.  0.
250  2.49  0.  0.  0.
251  2.50  0.  0.  0.
252  2.51  0.  0.  0.
253  2.52  0.  0.  0.
254  2.53  0.  0.  0.
255  2.54  0.  0.  0.
256  2.55  0.  0.  0.
257  2.56  0.  0.  0.
258  2.57  0.  0.  0.
259  2.58  0.  0.  0.
260  2.59  0.  0.  0.
261  2.60  0.  0.  0.
262  2.61  0.  0.  0.
263  2.62  0.  0.  0.
264  2.63  0.  0.  0.
265  2.64  0.  0.  0.
266  2.65  0.  0.  0.
267  2.66  0.  0.  0.
268  2.67  0.  0.  0.
269  2.68  0.  0.  0.
270  2.69  0.  0.  0.
271  2.70  0.  0.  0.
272  2.71  0.  0.  0.
273  2.72  0.  0.  0.
274  2.73  0.  0.  0.
275  2.74  0.  0.  0.
276  2.75  0.  0.  0.
277  2.76  0.  0.  0.
278  2.77  0.  0.  0.
279  2.78  0.  0.  0.
280  2.79  0.  0.  0.
281  2.80  0.  0.  0.
282  2.81  0.  0.  0.
283  2.82  0.  0.  0.
284  2.83  0.  0.  0.
285  2.84  0.  0.  0.
286  2.85  0.  0.  0.
287  2.86  0.  0.  0.
288  2.87  0.  0.  0.
289  2.88  0.  0.  0.
290  2.89  0.  0.  0.
291  2.90  0.  0.  0.
292  2.91  0.  0.  0.
293  2.92  0.  0.  0.
294  2.93  0.  0.  0.
295  2.94  0.  0.  0.
296  2.95  0.  0.  0.
297  2.96  0.  0.  0.
298  2.97  0.  0.  0.
299  2.98  0.  0.  0.
300  2.99  0.  0.  0.
301  3.00  0.  0.  0.
302  3.01  0.  0.  0.
303  3.02  0.  0.  0.
304  3.03  0.  0.  0.
305  3.04  0.  0.  0.
306  3.05  0.  0.  0.
307  3.06  0.  0.  0.
308  3.07  0.  0.  0.
309  3.08  0.  0.  0.
310  3.09  0.  0.  0.
311  3.10  0.  0.  0.
312  3.11  0.  0.  0.
313  3.12  0.  0.  0.
314  3.13  0.  0.  0.
315  3.14  0.  0.  0.
316  3.15  0.  0.  0.
317  3.16  0.  0.  0.
318  3.17  0.  0.  0.
319  3.18  0.  0.  0.
320  3.19  0.  0.  0.
321  3.20  0.  0.  0.
322  3.21  0.  0.  0.
323  3.22  0.  0.  0.
324  3.23  0.  0.  0.
325  3.24  0.  0.  0.
326  3.25  0.  0.  0.
327  3.26  0.  0.  0.
328  3.27  0.  0.  0.
329  3.28  0.  0.  0.
330  3.29  0.  0.  0.
331  3.30  0.  0.  0.
332  3.31  0.  0.  0.
333  3.32  0.  0.  0.
334  3.33  0.  0.  0.
335  3.34  0.  0.  0.
336  3.35  0.  0.  0.
337  3.36  0.  0.  0.
338  3.37  0.  0.  0.
339  3.38  0.  0.  0.
340  3.39  0.  0.  0.
341  3.40  0.  0.  0.
342  3.41  0.  0.  0.
343  3.42  0.  0.  0.
344  3.43  0.  0.  0.
345  3.44  0.  0.  0.
346  3.45  0.  0.  0.
347  3.46  0.  0.  0.
348  3.47  0.  0.  0.
349  3.48  0.  0.  0.
350  3.49  0.  0.  0.
351  3.50  0.  0.  0.
352  3.51  0.  0.  0.
353  3.52  0.  0.  0.
354  3.53  0.  0.  0.
355  3.54  0.  0.  0.
356  3.55  0.  0.  0.
357  3.56  0.  0.  0.
358  3.57  0.  0.  0.
359  3.58  0.  0.  0.
360  3.59  0.  0.  0.
361  3.60  0.  0.  0.
362  3.61  0.  0.  0.
363  3.62  0.  0.  0.
364  3.63  0.  0.  0.
365  3.64  0.  0.  0.
366  3.65  0.  0.  0.
367  3.66  0.  0.  0.
368  3.67  0.  0.  0.
369  3.68  0.  0.  0.
370  3.69  0.  0.  0.
371  3.70  0.  0.  0.
372  3.71  0.  0.  0.
373  3.72  0.  0.  0.
374  3.73  0.  0.  0.
375  3.74  0.  0.  0.
376  3.75  0.  0.  0.
377  3.76  0.  0.  0.
378  3.77  0.  0.  0.
379  3.78  0.  0.  0.
380  3.79  0.  0.  0.
381  3.80  0.  0.  0.
382  3.81  0.  0.  0.
383  3.82  0.  0.  0.
384  3.83  0.  0.  0.
385  3.84  0.  0.  0.
386  3.85  0.  0.  0.
387  3.86  0.  0.  0.
388  3.87  0.  0.  0.
389  3.88  0.  0.  0.
390  3.89  0.  0.  0.
391  3.90  0.  0.  0.
392  3.91  0.  0.  0.
393  3.92  0.  0.  0.
394  3.93  0.  0.  0.
395  3.94  0.  0.  0.
396  3.95  0.  0.  0.
397  3.96  0.  0.  0.
398  3.97  0.  0.  0.
399  3.98  0.  0.  0.
400  3.99  0.  0.  0.
401  4.00  0.  0.  0.
402  4.01  0.  0.  0.
403  4.02  0.  0.  0.
404  4.03  0.  0.  0.
405  4.04  0.  0.  0.
406  4.05  0.  0.  0.
407  4.06  0.  0.  0.
408  4.07  0.  0.  0.
409  4.08  0.  0.  0.
410  4.09  0.  0.  0.
411  4.10  0.  0.  0.
412  4.11  0.  0.  0.
413  4.12  0.  0.  0.
414  4.13  0.  0.  0.
415  4.14  0.  0.  0.
416  4.15  0.  0.  0.
417  4.16  0.  0.  0.
418  4.17  0.  0.  0.
419  4.18  0.  0.  0.
420  4.19  0.  0.  0.
421  4.20  0.  0.  0.
422  4.21  0.  0.  0.
423  4.22  0.  0.  0.
424  4.23  0.  0.  0.
425  4.24  0.  0.  0.
426  4.25  0.  0.  0.
427  4.26  0.  0.  0.
428  4.27  0.  0.  0.
429  4.28  0.  0.  0.
430  4.29  0.  0.  0.
431  4.30  0.  0.  0.
432  4.31  0.  0.  0.
433  4.32  0.  0.  0.
434  4.33  0.  0.  0.
435  4.34  0.  0.  0.
436  4.35  0.  0.  0.
437  4.36  0.  0.  0.
438  4.37  0.  0.  0.
439  4.38  0.  0.  0.
440  4.39  0.  0.  0.
441  4.40  0.  0.  0.
442  4.41  0.  0.  0.
443  4.42  0.  0.  0.
444  4.43  0.  0.  0.
445  4.44  0.  0.  0.
446  4.45  0.  0.  0.
447  4.46  0.  0.  0.
448  4.47  0.  0.  0.
449  4.48  0.  0.  0.
450  4.49  0.  0.  0.
451  4.50  0.  0.  0.
452  4.51  0.  0.  0.
453  4.52  0.  0.  0.
454  4.53  0.  0.  0.
455  4.54  0.  0.  0.
456  4.55  0.  0.  0.
457  4.56  0.  0.  0.
458  4.57  0.  0.  0.
459  4.58  0.  0.  0.
460  4.59  0.  0.  0.
461  4.60  0.  0.  0.
462  4.61  0.  0.  0.
463  4.62  0.  0.  0.
464  4.63  0.  0.  0.
465  4.64  0.  0.  0.
466  4.65  0.  0.  0.
467  4.66  0.  0.  0.
468  4.67  0.  0.  0.
469  4.68  0.  0.  0.
470  4.69  0.  0.  0.
471  4.70  0.  0.  0.
472  4.71  0.  0.  0.
473  4.72  0.  0.  0.
474  4.73  0.  0.  0.
475  4.74  0.  0.  0.
476  4.75  0.  0.  0.
477  4.76  0.  0.  0.
478  4.77  0.  0.  0.
479  4.78  0.  0.  0.
480  4.79  0.  0.  0.
481  4.80  0.  0.  0.
482  4.81  0.  0.  0.
483  4.82  0.  0.  0.
484  4.83  0.  0.  0.
485  4.84  0.  0.  0.
486  4.85  0.  0.  0.
487  4.86  0.  0.  0.
488  4.87  0.  0.  0.
489  4.88  0.  0.  0.
490  4.89  0.  0.  0.
491  4.90  0.  0.  0.
492  4.91  0.  0.  0.
493  4.92  0.  0.  0.
494  4.93  0.  0.  0.
495  4.94  0.  0.  0.
496  4.95  0.  0.  0.
497  4.96  0.  0.  0.
498  4.97  0.  0.  0.
499  4.98  0.  0.  0.
500  4.99  0.  0.  0.
501  5.00  0.  0.  0.
502  5.01  0.  0.  0.
503  5.02  0.  0.  0.
504  5.03  0.  0.  0.
505  5.04  0.  0.  0.
506  5.05  0.  0.  0.
507  5.06  0.  0.  0.
508  5.07  0.  0.  0.
509  5.08  0.  0.  0.
510  5.09  0.  0.  0.
511  5.10  0.  0.  0.
512  5.11  0.  0.  0.
513  5.12  0.  0.  0.
514  5.13  0.  0.  0.
515  5.14  0.  0.  0.
516  5.15  0.  0.  0.
517  5.16  0.  0.  0.
518  5.17  0.  0.  0.
519  5.18  0.  0.  0.
520  5.19  0.  0.  0.
521  5.20  0.  0.  0.
522  5.21  0.  0.  0.
523  5.22  0.  0.  0.
524  5.23  0.  0.  0.
525  5.24  0.  0.  0.
526  5.25  0.  0.  0.
527  5.26  0.  0.  0.
528  5.27  0.  0.  0.
529  5.28  0.  0.  0.
530  5.29  0.  0.  0.
531  5.30  0.  0.  0.
532  5.31  0.  0.  0.
533  5.32  0.  0.  0.
534  5.33  0.  0.  0.
535  5.34  0.  0.  0.
536  5.35  0.  0.  0.
537  5.36  0.  0.  0.
538  5.37  0.  0.  0.
539  5.38  0.  0.  0.
540  5.39  0.  0.  0.
541  5.40  0.  0.  0.
542  5.41  0.  0.  0.
543  5.42  0.  0.  0.
544  5.43  0.  0.  0.
545  5.44  0.  0.  0.
546  5.45  0.  0.  0.
547  5.46  0.  0.  0.
548  5.47  0.  0.  0.
549  5.48  0.  0.  0.
550  5.49  0.  0.  0.
551  5.50  0.  0.  0.
552  5.51  0.  0.  0.
553  5.52  0.  0.  0.
554  5.53  0.  0.  0.
555  5.54  0.  0.  0.
556  5.55  0.  0.  0.
557  5.56  0.  0.  0.
558  5.57  0.  0.  0.
559  5.58  0.  0.  0.
560  5.59  0.  0.  0.
561  5.60  0.  0.  0.
562  5.61  0.  0.  0.
563  5.62  0.  0.  0.
564  5.63  0.  0.  0.
565  5.64  0.  0.  0.
566  5.65  0.  0.  0.
567  5.66  0.  0.  0.
568  5.67  0.  0.  0.
569  5.68  0.  0.  0.
570  5.69  0.  0.  0.
571  5.70  0.  0.  0.
572  5.71  0.  0.  0.
573  5.72  0.  0.  0.
574  5.73  0.  0.  0.
575  5.74  0.  0.  0.
576  5.75  0.  0.  0.
577  5.76  0.  0.  0.
578  5.77  0.  0.  0.
579  5.78  0.  0.  0.
580  5.79  0.  0.  0.
581  5.80  0.  0.  0.
582  5.81  0.  0.  0.
583  5.82  0.  0.  0.
584  5.83  0.  0.  0.
585  5.84  0.  0.  0.
586  5.85  0.  0.  0.
587  5.86  0.  0.  0.
588  5.87  0.  0.  0.
589  5.88  0.  0.  0.
590  5.89  0.  0.  0.
591  5.90  0.  0.  0.
592  5.91  0.  0.  0.
593  5.92  0.  0.  0.
594  5.93  0.  0.  0.
595  5.94  0.  0.  0.
596  5.95  0.  0.  0.
597  5.96  0.  0.  0.
598  5.97  0.  0.  0.
599  5.98  0.  0.  0.
600  5.99  0.  0.  0.
1                         1.0337688972590E+01 -4.4035335402100E-01
1  0.0000000000000E+00 -5.8118080348279E-09 -9.2355316463899E-08
2  1.0000000000000E-02  4.7014873816644E-03  7.6978472227669E-04
3  2.0000000000000E-02  1.8764613130249E-02  3.0985983200773E-03
4  3.0000000000000E-02  4.2065578572738E-02  7.0433801917562E-03
5  4.0000000000000E-02  7.4398760015267E-02  1.2694300876846E-02
6  5.0000000000000E-02  1.1547778949034E-01  2.0167904020231E-02
7  6.0000000000000E-02  1.6493710569865E-01  2.9597964278595E-02
8  7.0000000000000E-02  2.2233401003020E-01  4.1124497063584E-02
9  8.0000000000000E-02  2.8715126836107E-01  5.4881448371454E-02
10  9.0000000000000E-02  3.5880030226722E-01  7.0983662944024E-02
11  1.0000000000000E-01  4.3662501300266E-01  8.9513773570854E-02
12  1.1000000000000E-01  5.1990627782778E-01  1.1050967142320E-01
13  1.2000000000000E-01  6.0786715096887E-01  1.3395320596574E-01
14  1.3000000000000E-01  6.9967879072869E-01  1.5976072342909E-01
15  1.4000000000000E-01  7.9446712029299E-01  1.8777598640730E-01
16  1.5000000000000E-01  8.9132021298893E-01  2.1776592633174E-01
17  1.6000000000000E-01  9.8929637368144E-01  2.4941956884864E-01
18  1.7000000000000E-01  1.0874328673009E+00  2.8235034385305E-01
19  1.8000000000000E-01  1.1847552239292E+00  3.1610185219019E-01
20  1.9000000000000E-01  1.2802870282530E+00  3.5015701542899E-01
21  2.0000000000000E-01  1.3730600803703E+00  3.8395038954750E-01
22  2.1000000000000E-01  1.4621247957777E+00  4.1688328382324E-01
23  2.2000000000000E-01  1.5465606956817E+00  4.4834119850176E-01
24  2.3000000000000E-01  1.6254868253370E+00  4.7771298433006E-01
25  2.4000000000000E-01  1.6980719285794E+00  5.0441103857292E-01
26  2.5000000000000E-01  1.7635442016241E+00  5.2789178963944E-01
27  2.6000000000000E-01  1.8212004489332E+00  5.4767568890565E-01
28  2.7000000000000E-01  1.8704144687411E+00  5.6336592557139E-01
29  2.8000000000000E-01  1.9106445057023E+00  5.7466510907064E-01
30  2.9000000000000E-01  1.9414396229500E+00  5.8138922303873E-01
31  3.0000000000000E-01  1.9624448652949E+00  5.8347824325838E-01
32  3.1000000000000E-01  1.9734051088582E+00  5.8100292629331E-01
33  3.2000000000000E-01  1.9741675194413E+00  5.7416741152368E-01
34  3.3000000000000E-01  1.9646825716121E+00  5.6330743193283E-01
35  3.4000000000000E-01  1.9450036118994E+00  5.4888409242728E-01
36  3.5000000000000E-01  1.9152849816700E+00  5.3147334234095E-01
37  3.6000000000000E-01  1.8757787471778E+00  5.1175143444901E-01
38  3.7000000000000E-01  1.8268301149022E+00  4.9047681964697E-01
39  3.8000000000000E-01  1.7688716386327E+00  4.6846906804840E-01
40  3.9000000000000E-01  1.7024163499076E+00  4.4658552774218E-01
41  4.0000000000000E-01  1.6280499645516E+00  4.2569652671862E-01
42  4.1000000000000E-01  1.5464223345352E+00  4.0665998739342E-01
43  4.2000000000000E-01  1.4582383256876E+00  3.9029635376483E-01
44  4.3000000000000E-01  1.3642483076381E+00  3.7736472687360E-01
45  4.4000000000000E-01  1.2652384426298E+00  3.6854106462995E-01
46  4.5000000000000E-01  1.1620209546484E+00  3.6439922838388E-01
47  4.6000000000000E-01  1.0554245499402E+00  3.6539555340472E-01
48  4.7000000000000E-01  9.4628514496100E-01  3.7185748757632E-01
49  4.8000000000000E-01  8.3543703876791E-01  3.8397668716345E-01
50  4.9000000000000E-01  7.2370464465792E-01  4.0180678650815E-01
51  5.0000000000000E-01  6.1189487139951E-01  4.2526587677235E-01
52  5.1000000000000E-01  5.0079021870423E-01  4.5414354464774E-01
53  5.2000000000000E-01  3.9114262568220E-01  4.8811214279021E-01
54  5.3000000000000E-01  2.8366808594981E-01  5.2674179697211E-01
55  5.4000000000000E-01  1.7904201978874E-01  5.6951850753775E-01
56  5.5000000000000E-01  7.7895373177586E-02  6.1586458092691E-01
57  5.6000000000000E-01 -1.9188603615091E-02  6.6516053604907E-01
58  5.7000000000000E-01 -1.1167695828419E-01  7.1676757417633E-01
59  5.8000000000000E-01 -1.9908908865538E-01  7.7004968239856E-01
60  5.9000000000000E-01 -2.8099831786197E-01  8.2439446063686E-01
61  6.0000000000000E-01 -3.5703306504554E-01  8.7923182022226E-01
62  6.1000000000000E-01 -4.2687767914075E-01  9.3404979599412E-01
63  6.2000000000000E-01 -4.9027299442043E-01  9.8840684009607E-01
64  6.3000000000000E-01 -5.4701665429140E-01  1.0419401190814E+00
65  6.4000000000000E-01 -5.9696323513140E-01  1.0943695103129E+00
66  6.5000000000000E-01 -6.4002418565315E-01  1.1454971817211E+00
67  6.6000000000000E-01 -6.7616758036554E-01  1.1952028328798E+00
68  6.7000000000000E-01 -7.0541766920282E-01  1.2434348668353E+00
69  6.8000000000000E-01 -7.2785419032874E-01  1.2901979429766E+00
70  6.9000000000000E-01 -7.4361140045048E-01  1.3355375236040E+00
71  7.0000000000000E-01 -7.5287676755088E-01  1.3795221636136E+00
72  7.1000000000000E-01 -7.5588926546942E-01  1.4222243977405E+00
73  7.2000000000000E-01 -7.5293720875256E-01  1.4637011483055E+00
74  7.3000000000000E-01 -7.4435556995728E-01  1.5039746051096E+00
75  7.4000000000000E-01 -7.3052273019985E-01  1.5430145164506E+00
76  7.5000000000000E-01 -7.1185662702136E-01  1.5807227764408E+00
77  7.6000000000000E-01 -6.8881028117691E-01  1.6169211009200E+00
78  7.7000000000000E-01 -6.6186670509679E-01  1.6513424561269E+00
79  7.8000000000000E-01 -6.3153321965258E-01  1.6836267463819E+00
80  7.9000000000000E-01 -5.9833523145104E-01  1.7133210862478E+00
81  8.0000000000000E-01 -5.6280954898385E-01  1.7398847871153E+00
82  8.1000000000000E-01 -5.2549734130386E-01  1.7626989868862E+00
83  8.2000000000000E-01 -4.8693686614713E-01  1.7810806539572E+00
84  8.3000000000000E-01 -4.4765611425235E-01  1.7943005127695E+00
85  8.4000000000000E-01 -4.0816553177692E-01  1.8016042773060E+00
86  8.5000000000000E-01 -3.6895099201741E-01  1.8022364500803E+00
87  8.6000000000000E-01 -3.3046719010689E-01  1.7954658554140E+00
88  8.7000000000000E-01 -2.9313162917986E-01  1.7806120340285E+00
89  8.8000000000000E-01 -2.5731935309156E-01  1.7570716365475E+00
90  8.9000000000000E-01 -2.2335855883237E-01  1.7243440201698E+00
91  9.0000000000000E-01 -1.9152719124175E-01  1.6820553774255E+00
92  9.1000000000000E-01 -1.6205058372477E-01  1.6299809086344E+00
93  9.2000000000000E-01 -1.3510016190524E-01  1.5680647886276E+00
94  9.3000000000000E-01 -1.1079317326659E-01  1.4964379698432E+00
95  9.4000000000000E-01 -8.9193345820224E-02  1.4154342027974E+00
96  9.5000000000000E-01 -7.0312313884790E-02  1.3256050344146E+00
97  9.6000000000000E-01 -5.4111580529465E-02  1.2277349566594E+00
98  9.7000000000000E-01 -4.0504715556337E-02  1.1228583136387E+00
99  9.8000000000000E-01 -2.9359416670420E-02  1.0122800248502E+00
100  9.9000000000000E-01 -2.0498990592562E-02  8.9760264321399E-01
101  1.0000000000000E+00 -1.3702753553850E-02  7.8076259168764E-01
102  1.0100000000000E+00 -8.7048151168820E-03  6.6407852640061E-01
103  1.0200000000000E+00 -5.2008157980597E-03  5.5019894974575E-01
104  1.0300000000000E+00 -2.8809978300601E-03  4.4175994927863E-01
105  1.0400000000000E+00 -1.4517770979915E-03  3.4121010245099E-01
106  1.0500000000000E+00 -6.4683951576503E-04  2.5075848685562E-01
107  1.0600000000000E+00 -2.6682265167354E-04  1.7216143348426E-01
108  1.0700000000000E+00 -1.4256624940062E-04  1.0691465936366E-01
109  1.0800000000000E+00 -1.0749876203885E-04  5.6445981589831E-02
110  1.0900000000000E+00 -7.0806557984396E-05  2.1734618368888E-02
111  1.1000000000000E+00 -1.7645544174714E-05  3.2719183565662E-03
112  1.1100000000000E+00  1.1224247207576E-06 -1.5301164478796E-04
113  1.1200000000000E+00  9.4042599278545E-09 -1.7466894199068E-06
114  1.13 -0. -0.
115  1.14  0.  0.
116  1.15  0.  0.
117  1.16  0.  0.
118  1.17  0.  0.
119  1.18  0.  0.
120  1.19  0.  0.
121  1.20  0.  0.
122  1.21  0.  0.
123  1.22  0.  0.
124  1.23  0.  0.
125  1.24  0.  0.
126  1.25  0.  0.
127  1.26  0.  0.
128  1.27  0.  0.
129  1.28  0.  0.
130  1.29  0.  0.
131  1.30  0.  0.
132  1.31  0.  0.
133  1.32  0.  0.
134  1.33  0.  0.
135  1.34  0.  0.
136  1.35  0.  0.
137  1.36  0.  0.
138  1.37  0.  0.
139  1.38  0.  0.
140  1.39  0.  0.
141  1.40  0.  0.
142  1.41  0.  0.
143  1.42  0.  0.
144  1.43  0.  0.
145  1.44  0.  0.
146  1.45  0.  0.
147  1.46  0.  0.
148  1.47  0.  0.
149  1.48  0.  0.
150  1.49  0.  0.
151  1.50  0.  0.
152  1.51  0.  0.
153  1.52  0.  0.
154  1.53  0.  0.
155  1.54  0.  0.
156  1.55  0.  0.
157  1.56  0.  0.
158  1.57  0.  0.
159  1.58  0.  0.
160  1.59  0.  0.
161  1.60  0.  0.
162  1.61  0.  0.
163  1.62  0.  0.
164  1.63  0.  0.
165  1.64  0.  0.
166  1.65  0.  0.
167  1.66  0.  0.
168  1.67  0.  0.
169  1.68  0.  0.
170  1.69  0.  0.
171  1.70  0.  0.
172  1.71  0.  0.
173  1.72  0.  0.
174  1.73  0.  0.
175  1.74  0.  0.
176  1.75  0.  0.
177  1.76  0.  0.
178  1.77  0.  0.
179  1.78  0.  0.
180  1.79  0.  0.
181  1.80  0.  0.
182  1.81  0.  0.
183  1.82  0.  0.
184  1.83  0.  0.
185  1.84  0.  0.
186  1.85  0.  0.
187  1.86  0.  0.
188  1.87  0.  0.
189  1.88  0.  0.
190  1.89  0.  0.
191  1.90  0.  0.
192  1.91  0.  0.
193  1.92  0.  0.
194  1.93  0.  0.
195  1.94  0.  0.
196  1.95  0.  0.
197  1.96  0.  0.