Am    ONCVPSP-4.0.1  r_core=   1.10131   1.00079   1.00079   1.10131
95.0000     35.0000      231012    zatom,zion,pspd
8   -1012   3     4   600     0    pspcod,pspxc,lmax,lloc,mmax,r2well
5.99000000  3.50000000  0.00000000    rchrg fchrg qchrg
3     3     3     2    nproj
3     1           extension_switch
3     4     4    nprojso
0                         4.9016448901522E+01  3.7210742624487E+00 -3.1290266320653E-01
1  0.0000000000000E+00 -6.0893864617384E-08  2.5706527628788E-07  3.0125986663632E-07
2  1.0000000000000E-02  1.5419458955054E-01 -7.9607479342734E-02  1.0443311075003E-02
3  2.0000000000000E-02  3.0741976174509E-01 -1.5768412084700E-01  2.1623829165360E-02
4  3.0000000000000E-02  4.5871834288478E-01 -2.3273876914189E-01  3.4235863851747E-02
5  4.0000000000000E-02  6.0715726433861E-01 -3.0335804217857E-01  4.8889878829634E-02
6  5.0000000000000E-02  7.5183867662198E-01 -3.6824131114361E-01  6.6075357341374E-02
7  6.0000000000000E-02  8.9190998458254E-01 -4.2623119137692E-01  8.6129181818642E-02
8  7.0000000000000E-02  1.0265725204654E+00 -4.7633837006298E-01  1.0921099005064E-01
9  8.0000000000000E-02  1.1550886325245E+00 -5.1775985352896E-01  1.3528666893364E-01
10  9.0000000000000E-02  1.2767870374664E+00 -5.4989001554891E-01  1.6412079524881E-01
11  1.0000000000000E-01  1.3910663620706E+00 -5.7232415445584E-01  1.9527844601635E-01
12  1.1000000000000E-01  1.4973968792127E+00 -5.8485460613640E-01  2.2813639536156E-01
13  1.2000000000000E-01  1.5953205224894E+00 -5.8745979653004E-01  2.6190330788268E-01
14  1.3000000000000E-01  1.6844493379779E+00 -5.8028693556444E-01  2.9564814766252E-01
15  1.4000000000000E-01  1.7644625978390E+00 -5.6362933976812E-01  3.2833566409216E-01
16  1.5000000000000E-01  1.8351028553365E+00 -5.3789960984890E-01  3.5886750589116E-01
17  1.6000000000000E-01  1.8961712617399E+00 -5.0360007103861E-01  3.8612726644137E-01
18  1.7000000000000E-01  1.9475224904969E+00 -4.6129199936770E-01  4.0902758740419E-01
19  1.8000000000000E-01  1.9890596217228E+00 -4.1156520055774E-01  4.2655735114430E-01
20  1.9000000000000E-01  2.0207293299721E+00 -3.5500947750604E-01  4.3782697985741E-01
21  2.0000000000000E-01  2.0425176907913E+00 -2.9218941840302E-01  4.4210993100129E-01
22  2.1000000000000E-01  2.0544468778555E+00 -2.2362376471089E-01  4.3887863158072E-01
23  2.2000000000000E-01  2.0565729645240E+00 -1.4977038414799E-01  4.2783332140589E-01
24  2.3000000000000E-01  2.0489849740364E+00 -7.1017588907836E-02  4.0892256783655E-01
25  2.4000000000000E-01  2.0318052445448E+00  1.2317783491913E-02  3.8235455911419E-01
26  2.5000000000000E-01  2.0051910923900E+00  9.9985455319708E-02  3.4859866532302E-01
27  2.6000000000000E-01  1.9693376734232E+00  1.9179024144349E-01  3.0837715885274E-01
28  2.7000000000000E-01  1.9244818617930E+00  2.8757465541262E-01  2.6264739260340E-01
29  2.8000000000000E-01  1.8709068924066E+00  3.8719653261966E-01  2.1257512659823E-01
30  2.9000000000000E-01  1.8089474509315E+00  4.9050289177103E-01  1.5950005531531E-01
31  3.0000000000000E-01  1.7389948469786E+00  5.9730147888225E-01  1.0489490339247E-01
32  3.1000000000000E-01  1.6615018746444E+00  7.0733159536646E-01  5.0319713009239E-02
33  3.2000000000000E-01  1.5769869518312E+00  8.2023589508797E-01 -2.6268686452201E-03
34  3.3000000000000E-01  1.4860371367971E+00  9.3553483943049E-01 -5.2357386519954E-02
35  3.4000000000000E-01  1.3893096474333E+00  1.0526054229543E+00 -9.7344519730577E-02
36  3.5000000000000E-01  1.2875315551144E+00  1.1706656271975E+00 -1.3616728737893E-01
37  3.6000000000000E-01  1.1814973890198E+00  1.2887658323980E+00 -1.6755277571194E-01
38  3.7000000000000E-01  1.0720644661316E+00  1.4057881255340E+00 -1.9041185622378E-01
39  3.8000000000000E-01  9.6014585349156E-01  1.5204541003085E+00 -2.0386763994199E-01
40  3.9000000000000E-01  8.4670096893843E-01  1.6313413652784E+00 -2.0727573973907E-01
41  4.0000000000000E-01  7.3272393018968E-01  1.7369085768969E+00 -2.0023577519669E-01
42  4.1000000000000E-01  6.1922986525315E-01  1.8355284125598E+00 -1.8259393694115E-01
43  4.2000000000000E-01  5.0723949514879E-01  1.9255275130553E+00 -1.5443681216268E-01
44  4.3000000000000E-01  3.9776238833300E-01  2.0052320717958E+00 -1.1607704300013E-01
45  4.4000000000000E-01  2.9177936090540E-01  2.0730174464021E+00 -6.8031728000613E-02
46  4.5000000000000E-01  1.9022455405289E-01  2.1273599310535E+00 -1.0994768956091E-02
47  4.6000000000000E-01  9.3967757319435E-02  2.1668886673718E+00  5.4195401888235E-02
48  4.7000000000000E-01  3.7975611321605E-03  2.1904355959433E+00  1.2659111599297E-01
49  4.8000000000000E-01 -7.9594086596360E-02  2.1970813648620E+00  2.0517209894390E-01
50  4.9000000000000E-01 -1.5562537713568E-01  2.1861952167184E+00  2.8888174483190E-01
51  5.0000000000000E-01 -2.2383570307740E-01  2.1574670682561E+00  3.7666141449994E-01
52  5.1000000000000E-01 -2.8389387378095E-01  2.1109302703248E+00  4.6748128502159E-01
53  5.2000000000000E-01 -3.3560316556982E-01  2.0469738791256E+00  5.6036649301288E-01
54  5.3000000000000E-01 -3.7890299606739E-01  1.9663436690706E+00  6.5441758663568E-01
55  5.4000000000000E-01 -4.1386713005746E-01  1.8701315562973E+00  7.4882461708558E-01
56  5.5000000000000E-01 -4.4069844752500E-01  1.7597535614740E+00  8.4287454456180E-01
57  5.6000000000000E-01 -4.5972042803056E-01  1.6369169013703E+00  9.3595198945789E-01
58  5.7000000000000E-01 -4.7136562419615E-01  1.5035772409002E+00  1.0275337095368E+00
59  5.8000000000000E-01 -4.7616150589423E-01  1.3618875417287E+00  1.1171775111539E+00
60  5.9000000000000E-01 -4.7471415119010E-01  1.2141402923594E+00  1.2045065912526E+00
61  6.0000000000000E-01 -4.6769033622786E-01  1.0627051824767E+00  1.2891905427592E+00
62  6.1000000000000E-01 -4.5579863087580E-01  9.0996447876791E-01  1.3709244275232E+00
63  6.2000000000000E-01 -4.3977013777121E-01  7.5824846169352E-01  1.4494074195071E+00
64  6.3000000000000E-01 -4.2033951814539E-01  6.0977328781759E-01  1.5243225413846E+00
65  6.4000000000000E-01 -3.9822692825247E-01  4.6658354970670E-01  1.5953189586003E+00
66  6.5000000000000E-01 -3.7412144623604E-01  3.3050161864992E-01  1.6619981586366E+00
67  6.6000000000000E-01 -3.4866650273915E-01  2.0308558220139E-01  1.7239051357003E+00
68  6.7000000000000E-01 -3.2244774234751E-01  8.5597240224887E-02  1.7805254316996E+00
69  6.8000000000000E-01 -2.9598364071722E-01 -2.1018785639874E-02  1.8312885655967E+00
70  6.9000000000000E-01 -2.6971908830344E-01 -1.1614422614690E-01  1.8755780297633E+00
71  7.0000000000000E-01 -2.4402203076248E-01 -1.9948449547162E-01  1.9127476603461E+00
72  7.1000000000000E-01 -2.1918313336660E-01 -2.7105453275955E-01  1.9421438162898E+00
73  7.2000000000000E-01 -1.9541831722461E-01 -3.3115397246194E-01  1.9631324462804E+00
74  7.3000000000000E-01 -1.7287390358270E-01 -3.8033289135833E-01  1.9751298014289E+00
75  7.4000000000000E-01 -1.5163400345588E-01 -4.1934975719846E-01  1.9776352797492E+00
76  7.5000000000000E-01 -1.3172970717601E-01 -4.4912351313727E-01  1.9702646800247E+00
77  7.6000000000000E-01 -1.1314956524701E-01 -4.7068196140534E-01  1.9527820085810E+00
78  7.7000000000000E-01 -9.5850810447330E-02 -4.8510875012947E-01  1.9251279308836E+00
79  7.8000000000000E-01 -7.9770752733094E-02 -4.9349131387683E-01  1.8874429955608E+00
80  7.9000000000000E-01 -6.4837783560400E-02 -4.9687207005012E-01  1.8400838829351E+00
81  8.0000000000000E-01 -5.0981454220484E-02 -4.9620503211053E-01  1.7836311417122E+00
82  8.1000000000000E-01 -3.8141142283858E-02 -4.9231977250703E-01  1.7188871714627E+00
83  8.2000000000000E-01 -2.6272889171354E-02 -4.8589436176342E-01  1.6468635777956E+00
84  8.3000000000000E-01 -1.5354077549303E-02 -4.7743853623138E-01  1.5687574626314E+00
85  8.4000000000000E-01 -5.3857166509573E-03 -4.6728791781564E-01  1.4859167035023E+00
86  8.5000000000000E-01  3.6077864228004E-03 -4.5560963732610E-01  1.3997948127053E+00
87  8.6000000000000E-01  1.1581373963778E-02 -4.4241921143028E-01  1.3118965392771E+00
88  8.7000000000000E-01  1.8474485940590E-02 -4.2760800262088E-01  1.2237159752318E+00
89  8.8000000000000E-01  2.4218367247700E-02 -4.1098006106512E-01  1.1366695456191E+00
90  8.9000000000000E-01  2.8745166378877E-02 -3.9229661254077E-01  1.0520268958419E+00
91  9.0000000000000E-01  3.1998332077807E-02 -3.7132591993541E-01  9.7084333905626E-01
92  9.1000000000000E-01  3.3943687636665E-02 -3.4789570466610E-01  8.9389819516345E-01
93  9.2000000000000E-01  3.4580432894271E-02 -3.2194476167022E-01  8.2164404920974E-01
94  9.3000000000000E-01  3.3951188587471E-02 -2.9356982498759E-01  7.5417269400519E-01
95  9.4000000000000E-01  3.2150052192792E-02 -2.6306312286436E-01  6.9120431727473E-01
96  9.5000000000000E-01  2.9327473124767E-02 -2.3093537903013E-01  6.3210737023869E-01
97  9.6000000000000E-01  2.5690571220731E-02 -1.9791824249769E-01  5.7595753944611E-01
98  9.7000000000000E-01  2.1497307884420E-02 -1.6493922992843E-01  5.2164536778657E-01
99  9.8000000000000E-01  1.7042664914152E-02 -1.3306120544596E-01  4.6804336933484E-01
100  9.9000000000000E-01  1.2634676023151E-02 -1.0337713394134E-01  4.1424507334648E-01
101  1.0000000000000E+00  8.5578605596436E-03 -7.6849675117965E-02  3.5988928416881E-01
102  1.0100000000000E+00  5.0247549107249E-03 -5.4100900317158E-02  3.0553562816843E-01
103  1.0200000000000E+00  2.1689653643185E-03 -3.5411477212197E-02  2.5238673032251E-01
104  1.0300000000000E+00  7.6444676680700E-05 -2.0897995155522E-02  2.0162330155455E-01
105  1.0400000000000E+00 -1.2176684926369E-03 -1.0513434541452E-02  1.5433543193700E-01
106  1.0500000000000E+00 -1.7685313772063E-03 -3.9050156529239E-03  1.1158383448348E-01
107  1.0600000000000E+00 -1.9057718437240E-03  2.6811461272176E-04  7.4655268297378E-02
108  1.0700000000000E+00 -1.6504226590754E-03  2.1727098535584E-03  4.4297404317927E-02
109  1.0800000000000E+00 -1.0753028936952E-03  2.1252381943651E-03  2.1208067653238E-02
110  1.0900000000000E+00 -4.0306281740200E-04  9.5848567009926E-04  6.1570512721307E-03
111  1.1000000000000E+00 -1.4030593744296E-05  3.7241246237398E-05  1.7041456218591E-04
112  1.1100000000000E+00 -2.3266973275229E-06  6.1005293259352E-06  2.9125969895570E-05
113  1.1200000000000E+00  2.1397785366249E-07 -5.3947000957823E-07 -2.9214809152836E-06
114  1.13  0.  0.  0.
115  1.14  0.  0.  0.
116  1.15  0.  0.  0.
117  1.16  0.  0.  0.
118  1.17  0.  0.  0.
119  1.18  0.  0.  0.
120  1.19  0.  0.  0.
121  1.20  0.  0.  0.
122  1.21  0.  0.  0.
123  1.22  0.  0.  0.
124  1.23  0.  0.  0.
125  1.24  0.  0.  0.
126  1.25  0.  0.  0.
127  1.26  0.  0.  0.
128  1.27  0.  0.  0.
129  1.28  0.  0.  0.
130  1.29  0.  0.  0.
131  1.30  0.  0.  0.
132  1.31  0.  0.  0.
133  1.32  0.  0.  0.
134  1.33  0.  0.  0.
135  1.34  0.  0.  0.
136  1.35  0.  0.  0.
137  1.36  0.  0.  0.
138  1.37  0.  0.  0.
139  1.38  0.  0.  0.
140  1.39  0.  0.  0.
141  1.40  0.  0.  0.
142  1.41  0.  0.  0.
143  1.42  0.  0.  0.
144  1.43  0.  0.  0.
145  1.44  0.  0.  0.
146  1.45  0.  0.  0.
147  1.46  0.  0.  0.
148  1.47  0.  0.  0.
149  1.48  0.  0.  0.
150  1.49  0.  0.  0.
151  1.50  0.  0.  0.
152  1.51  0.  0.  0.
153  1.52  0.  0.  0.
154  1.53  0.  0.  0.
155  1.54  0.  0.  0.
156  1.55  0.  0.  0.
157  1.56  0.  0.  0.
158  1.57  0.  0.  0.
159  1.58  0.  0.  0.
160  1.59  0.  0.  0.
161  1.60  0.  0.  0.
162  1.61  0.  0.  0.
163  1.62  0.  0.  0.
164  1.63  0.  0.  0.
165  1.64  0.  0.  0.
166  1.65  0.  0.  0.
167  1.66  0.  0.  0.
168  1.67  0.  0.  0.
169  1.68  0.  0.  0.
170  1.69  0.  0.  0.
171  1.70  0.  0.  0.
172  1.71  0.  0.  0.
173  1.72  0.  0.  0.
174  1.73  0.  0.  0.
175  1.74  0.  0.  0.
176  1.75  0.  0.  0.
177  1.76  0.  0.  0.
178  1.77  0.  0.  0.
179  1.78  0.  0.  0.
180  1.79  0.  0.  0.
181  1.80  0.  0.  0.
182  1.81  0.  0.  0.
183  1.82  0.  0.  0.
184  1.83  0.  0.  0.
185  1.84  0.  0.  0.
186  1.85  0.  0.  0.
187  1.86  0.  0.  0.
188  1.87  0.  0.  0.
189  1.88  0.  0.  0.
190  1.89  0.  0.  0.
191  1.90  0.  0.  0.
192  1.91  0.  0.  0.
193  1.92  0.  0.  0.
194  1.93  0.  0.  0.
195  1.94  0.  0.  0.
196  1.95  0.  0.  0.
197  1.96  0.  0.  0.
198  1.97  0.  0.  0.
199  1.98  0.  0.  0.
200  1.99  0.  0.  0.
201  2.00  0.  0.  0.
202  2.01  0.  0.  0.
203  2.02  0.  0.  0.
204  2.03  0.  0.  0.
205  2.04  0.  0.  0.
206  2.05  0.  0.  0.
207  2.06  0.  0.  0.
208  2.07  0.  0.  0.
209  2.08  0.  0.  0.
210  2.09  0.  0.  0.
211  2.10  0.  0.  0.
212  2.11  0.  0.  0.
213  2.12  0.  0.  0.
214  2.13  0.  0.  0.
215  2.14  0.  0.  0.
216  2.15  0.  0.  0.
217  2.16  0.  0.  0.
218  2.17  0.  0.  0.
219  2.18  0.  0.  0.
220  2.19  0.  0.  0.
221  2.20  0.  0.  0.
222  2.21  0.  0.  0.
223  2.22  0.  0.  0.
224  2.23  0.  0.  0.
225  2.24  0.  0.  0.
226  2.25  0.  0.  0.
227  2.26  0.  0.  0.
228  2.27  0.  0.  0.
229  2.28  0.  0.  0.
230  2.29  0.  0.  0.
231  2.30  0.  0.  0.
232  2.31  0.  0.  0.
233  2.32  0.  0.  0.
234  2.33  0.  0.  0.
235  2.34  0.  0.  0.
236  2.35  0.  0.  0.
237  2.36  0.  0.  0.
238  2.37  0.  0.  0.
239  2.38  0.  0.  0.
240  2.39  0.  0.  0.
241  2.40  0.  0.  0.
242  2.41  0.  0.  0.
243  2.42  0.  0.  0.
244  2.43  0.  0.  0.
245  2.44  0.  0.  0.
246  2.45  0.  0.  0.
247  2.46  0.  0.  0.
248  2.47  0.  0.  0.
249  2.48  0.  0.  0.
250  2.49  0.  0.  0.
251  2.50  0.  0.  0.
252  2.51  0.  0.  0.
253  2.52  0.  0.  0.
254  2.53  0.  0.  0.
255  2.54  0.  0.  0.
256  2.55  0.  0.  0.
257  2.56  0.  0.  0.
258  2.57  0.  0.  0.
259  2.58  0.  0.  0.
260  2.59  0.  0.  0.
261  2.60  0.  0.  0.
262  2.61  0.  0.  0.
263  2.62  0.  0.  0.
264  2.63  0.  0.  0.
265  2.64  0.  0.  0.
266  2.65  0.  0.  0.
267  2.66  0.  0.  0.
268  2.67  0.  0.  0.
269  2.68  0.  0.  0.
270  2.69  0.  0.  0.
271  2.70  0.  0.  0.
272  2.71  0.  0.  0.
273  2.72  0.  0.  0.
274  2.73  0.  0.  0.
275  2.74  0.  0.  0.
276  2.75  0.  0.  0.
277  2.76  0.  0.  0.
278  2.77  0.  0.  0.
279  2.78  0.  0.  0.
280  2.79  0.  0.  0.
281  2.80  0.  0.  0.
282  2.81  0.  0.  0.
283  2.82  0.  0.  0.
284  2.83  0.  0.  0.
285  2.84  0.  0.  0.
286  2.85  0.  0.  0.
287  2.86  0.  0.  0.
288  2.87  0.  0.  0.
289  2.88  0.  0.  0.
290  2.89  0.  0.  0.
291  2.90  0.  0.  0.
292  2.91  0.  0.  0.
293  2.92  0.  0.  0.
294  2.93  0.  0.  0.
295  2.94  0.  0.  0.
296  2.95  0.  0.  0.
297  2.96  0.  0.  0.
298  2.97  0.  0.  0.
299  2.98  0.  0.  0.
300  2.99  0.  0.  0.
301  3.00  0.  0.  0.
302  3.01  0.  0.  0.
303  3.02  0.  0.  0.
304  3.03  0.  0.  0.
305  3.04  0.  0.  0.
306  3.05  0.  0.  0.
307  3.06  0.  0.  0.
308  3.07  0.  0.  0.
309  3.08  0.  0.  0.
310  3.09  0.  0.  0.
311  3.10  0.  0.  0.
312  3.11  0.  0.  0.
313  3.12  0.  0.  0.
314  3.13  0.  0.  0.
315  3.14  0.  0.  0.
316  3.15  0.  0.  0.
317  3.16  0.  0.  0.
318  3.17  0.  0.  0.
319  3.18  0.  0.  0.
320  3.19  0.  0.  0.
321  3.20  0.  0.  0.
322  3.21  0.  0.  0.
323  3.22  0.  0.  0.
324  3.23  0.  0.  0.
325  3.24  0.  0.  0.
326  3.25  0.  0.  0.
327  3.26  0.  0.  0.
328  3.27  0.  0.  0.
329  3.28  0.  0.  0.
330  3.29  0.  0.  0.
331  3.30  0.  0.  0.
332  3.31  0.  0.  0.
333  3.32  0.  0.  0.
334  3.33  0.  0.  0.
335  3.34  0.  0.  0.
336  3.35  0.  0.  0.
337  3.36  0.  0.  0.
338  3.37  0.  0.  0.
339  3.38  0.  0.  0.
340  3.39  0.  0.  0.
341  3.40  0.  0.  0.
342  3.41  0.  0.  0.
343  3.42  0.  0.  0.
344  3.43  0.  0.  0.
345  3.44  0.  0.  0.
346  3.45  0.  0.  0.
347  3.46  0.  0.  0.
348  3.47  0.  0.  0.
349  3.48  0.  0.  0.
350  3.49  0.  0.  0.
351  3.50  0.  0.  0.
352  3.51  0.  0.  0.
353  3.52  0.  0.  0.
354  3.53  0.  0.  0.
355  3.54  0.  0.  0.
356  3.55  0.  0.  0.
357  3.56  0.  0.  0.
358  3.57  0.  0.  0.
359  3.58  0.  0.  0.
360  3.59  0.  0.  0.
361  3.60  0.  0.  0.
362  3.61  0.  0.  0.
363  3.62  0.  0.  0.
364  3.63  0.  0.  0.
365  3.64  0.  0.  0.
366  3.65  0.  0.  0.
367  3.66  0.  0.  0.
368  3.67  0.  0.  0.
369  3.68  0.  0.  0.
370  3.69  0.  0.  0.
371  3.70  0.  0.  0.
372  3.71  0.  0.  0.
373  3.72  0.  0.  0.
374  3.73  0.  0.  0.
375  3.74  0.  0.  0.
376  3.75  0.  0.  0.
377  3.76  0.  0.  0.
378  3.77  0.  0.  0.
379  3.78  0.  0.  0.
380  3.79  0.  0.  0.
381  3.80  0.  0.  0.
382  3.81  0.  0.  0.
383  3.82  0.  0.  0.
384  3.83  0.  0.  0.
385  3.84  0.  0.  0.
386  3.85  0.  0.  0.
387  3.86  0.  0.  0.
388  3.87  0.  0.  0.
389  3.88  0.  0.  0.
390  3.89  0.  0.  0.
391  3.90  0.  0.  0.
392  3.91  0.  0.  0.
393  3.92  0.  0.  0.
394  3.93  0.  0.  0.
395  3.94  0.  0.  0.
396  3.95  0.  0.  0.
397  3.96  0.  0.  0.
398  3.97  0.  0.  0.
399  3.98  0.  0.  0.
400  3.99  0.  0.  0.
401  4.00  0.  0.  0.
402  4.01  0.  0.  0.
403  4.02  0.  0.  0.
404  4.03  0.  0.  0.
405  4.04  0.  0.  0.
406  4.05  0.  0.  0.
407  4.06  0.  0.  0.
408  4.07  0.  0.  0.
409  4.08  0.  0.  0.
410  4.09  0.  0.  0.
411  4.10  0.  0.  0.
412  4.11  0.  0.  0.
413  4.12  0.  0.  0.
414  4.13  0.  0.  0.
415  4.14  0.  0.  0.
416  4.15  0.  0.  0.
417  4.16  0.  0.  0.
418  4.17  0.  0.  0.
419  4.18  0.  0.  0.
420  4.19  0.  0.  0.
421  4.20  0.  0.  0.
422  4.21  0.  0.  0.
423  4.22  0.  0.  0.
424  4.23  0.  0.  0.
425  4.24  0.  0.  0.
426  4.25  0.  0.  0.
427  4.26  0.  0.  0.
428  4.27  0.  0.  0.
429  4.28  0.  0.  0.
430  4.29  0.  0.  0.
431  4.30  0.  0.  0.
432  4.31  0.  0.  0.
433  4.32  0.  0.  0.
434  4.33  0.  0.  0.
435  4.34  0.  0.  0.
436  4.35  0.  0.  0.
437  4.36  0.  0.  0.
438  4.37  0.  0.  0.
439  4.38  0.  0.  0.
440  4.39  0.  0.  0.
441  4.40  0.  0.  0.
442  4.41  0.  0.  0.
443  4.42  0.  0.  0.
444  4.43  0.  0.  0.
445  4.44  0.  0.  0.
446  4.45  0.  0.  0.
447  4.46  0.  0.  0.
448  4.47  0.  0.  0.
449  4.48  0.  0.  0.
450  4.49  0.  0.  0.
451  4.50  0.  0.  0.
452  4.51  0.  0.  0.
453  4.52  0.  0.  0.
454  4.53  0.  0.  0.
455  4.54  0.  0.  0.
456  4.55  0.  0.  0.
457  4.56  0.  0.  0.
458  4.57  0.  0.  0.
459  4.58  0.  0.  0.
460  4.59  0.  0.  0.
461  4.60  0.  0.  0.
462  4.61  0.  0.  0.
463  4.62  0.  0.  0.
464  4.63  0.  0.  0.
465  4.64  0.  0.  0.
466  4.65  0.  0.  0.
467  4.66  0.  0.  0.
468  4.67  0.  0.  0.
469  4.68  0.  0.  0.
470  4.69  0.  0.  0.
471  4.70  0.  0.  0.
472  4.71  0.  0.  0.
473  4.72  0.  0.  0.
474  4.73  0.  0.  0.
475  4.74  0.  0.  0.
476  4.75  0.  0.  0.
477  4.76  0.  0.  0.
478  4.77  0.  0.  0.
479  4.78  0.  0.  0.
480  4.79  0.  0.  0.
481  4.80  0.  0.  0.
482  4.81  0.  0.  0.
483  4.82  0.  0.  0.
484  4.83  0.  0.  0.
485  4.84  0.  0.  0.
486  4.85  0.  0.  0.
487  4.86  0.  0.  0.
488  4.87  0.  0.  0.
489  4.88  0.  0.  0.
490  4.89  0.  0.  0.
491  4.90  0.  0.  0.
492  4.91  0.  0.  0.
493  4.92  0.  0.  0.
494  4.93  0.  0.  0.
495  4.94  0.  0.  0.
496  4.95  0.  0.  0.
497  4.96  0.  0.  0.
498  4.97  0.  0.  0.
499  4.98  0.  0.  0.
500  4.99  0.  0.  0.
501  5.00  0.  0.  0.
502  5.01  0.  0.  0.
503  5.02  0.  0.  0.
504  5.03  0.  0.  0.
505  5.04  0.  0.  0.
506  5.05  0.  0.  0.
507  5.06  0.  0.  0.
508  5.07  0.  0.  0.
509  5.08  0.  0.  0.
510  5.09  0.  0.  0.
511  5.10  0.  0.  0.
512  5.11  0.  0.  0.
513  5.12  0.  0.  0.
514  5.13  0.  0.  0.
515  5.14  0.  0.  0.
516  5.15  0.  0.  0.
517  5.16  0.  0.  0.
518  5.17  0.  0.  0.
519  5.18  0.  0.  0.
520  5.19  0.  0.  0.
521  5.20  0.  0.  0.
522  5.21  0.  0.  0.
523  5.22  0.  0.  0.
524  5.23  0.  0.  0.
525  5.24  0.  0.  0.
526  5.25  0.  0.  0.
527  5.26  0.  0.  0.
528  5.27  0.  0.  0.
529  5.28  0.  0.  0.
530  5.29  0.  0.  0.
531  5.30  0.  0.  0.
532  5.31  0.  0.  0.
533  5.32  0.  0.  0.
534  5.33  0.  0.  0.
535  5.34  0.  0.  0.
536  5.35  0.  0.  0.
537  5.36  0.  0.  0.
538  5.37  0.  0.  0.
539  5.38  0.  0.  0.
540  5.39  0.  0.  0.
541  5.40  0.  0.  0.
542  5.41  0.  0.  0.
543  5.42  0.  0.  0.
544  5.43  0.  0.  0.
545  5.44  0.  0.  0.
546  5.45  0.  0.  0.
547  5.46  0.  0.  0.
548  5.47  0.  0.  0.
549  5.48  0.  0.  0.
550  5.49  0.  0.  0.
551  5.50  0.  0.  0.
552  5.51  0.  0.  0.
553  5.52  0.  0.  0.
554  5.53  0.  0.  0.
555  5.54  0.  0.  0.
556  5.55  0.  0.  0.
557  5.56  0.  0.  0.
558  5.57  0.  0.  0.
559  5.58  0.  0.  0.
560  5.59  0.  0.  0.
561  5.60  0.  0.  0.
562  5.61  0.  0.  0.
563  5.62  0.  0.  0.
564  5.63  0.  0.  0.
565  5.64  0.  0.  0.
566  5.65  0.  0.  0.
567  5.66  0.  0.  0.
568  5.67  0.  0.  0.
569  5.68  0.  0.  0.
570  5.69  0.  0.  0.
571  5.70  0.  0.  0.
572  5.71  0.  0.  0.
573  5.72  0.  0.  0.
574  5.73  0.  0.  0.
575  5.74  0.  0.  0.
576  5.75  0.  0.  0.
577  5.76  0.  0.  0.
578  5.77  0.  0.  0.
579  5.78  0.  0.  0.
580  5.79  0.  0.  0.
581  5.80  0.  0.  0.
582  5.81  0.  0.  0.
583  5.82  0.  0.  0.
584  5.83  0.  0.  0.
585  5.84  0.  0.  0.
586  5.85  0.  0.  0.
587  5.86  0.  0.  0.
588  5.87  0.  0.  0.
589  5.88  0.  0.  0.
590  5.89  0.  0.  0.
591  5.90  0.  0.  0.
592  5.91  0.  0.  0.
593  5.92  0.  0.  0.
594  5.93  0.  0.  0.
595  5.94  0.  0.  0.
596  5.95  0.  0.  0.
597  5.96  0.  0.  0.
598  5.97  0.  0.  0.
599  5.98  0.  0.  0.
600  5.99  0.  0.  0.
1                         3.9033275767944E+01  4.0976889653306E+00 -1.4013145278360E-01
1  0.0000000000000E+00 -1.4593417974051E-07  2.8279648010832E-07 -2.9842355471488E-07
2  1.0000000000000E-02  5.0259299052597E-03 -8.2835115173822E-04  1.2225842902160E-03
3  2.0000000000000E-02  2.0085692391642E-02 -3.3495410833504E-03  4.9271645606482E-03
4  3.0000000000000E-02  4.5123415184936E-02 -7.6680585930461E-03  1.1220172178251E-02
5  4.0000000000000E-02  8.0040130746077E-02 -1.3945216779239E-02  2.0265739857808E-02
6  5.0000000000000E-02  1.2468542456311E-01 -2.2380706926689E-02  3.2266683467748E-02
7  6.0000000000000E-02  1.7884655762550E-01 -3.3188342689441E-02  4.7439551240124E-02
8  7.0000000000000E-02  2.4223582553726E-01 -4.6567463527452E-02  6.5985306413162E-02
9  8.0000000000000E-02  3.1447706265974E-01 -6.2671749150301E-02  8.8057507758348E-02
10  9.0000000000000E-02  3.9509229670118E-01 -8.1577386423818E-02  1.1373004964431E-01
11  1.0000000000000E-01  4.8348960169667E-01 -1.0325261617839E-01  1.4296660782793E-01
12  1.1000000000000E-01  5.7895318251626E-01 -1.2753066425716E-01  1.7559390337839E-01
13  1.2000000000000E-01  6.8063665197683E-01 -1.5408792913942E-01  2.1128074545747E-01
14  1.3000000000000E-01  7.8756033532019E-01 -1.8242906332703E-01  2.4952455063373E-01
15  1.4000000000000E-01  8.9861326204934E-01 -2.1188025846045E-01  2.8964667435533E-01
16  1.5000000000000E-01  1.0125602902050E+00 -2.4159164070821E-01  3.3079744674277E-01
17  1.6000000000000E-01  1.1280545635568E+00 -2.7054922325315E-01  3.7197130198811E-01
18  1.7000000000000E-01  1.2436552399398E+00 -2.9759636966028E-01  4.1203185368381E-01
19  1.8000000000000E-01  1.3578501621751E+00 -3.2146422047315E-01  4.4974622476492E-01
20  1.9000000000000E-01  1.4690828851603E+00 -3.4081005118093E-01  4.8382741856381E-01
21  2.0000000000000E-01  1.5757832369833E+00 -3.5426208779323E-01  5.1298304419637E-01
22  2.1000000000000E-01  1.6764003905607E+00 -3.6046892988772E-01  5.3596831049267E-01
23  2.2000000000000E-01  1.7694372660136E+00 -3.5815144038018E-01  5.5164089994567E-01
24  2.3000000000000E-01  1.8534849813264E+00 -3.4615477256247E-01  5.5901514514184E-01
25  2.4000000000000E-01  1.9272560258054E+00 -3.2349812940063E-01  5.5731286685227E-01
26  2.5000000000000E-01  1.9896148505491E+00 -2.8941989337098E-01  5.4600830125157E-01
27  2.6000000000000E-01  2.0396046525936E+00 -2.4341592702771E-01  5.2486474291077E-01
28  2.7000000000000E-01  2.0764692714860E+00 -1.8526911885650E-01  4.9396085301052E-01
29  2.8000000000000E-01  2.0996693126528E+00 -1.1506862385358E-01  4.5370501503023E-01
30  2.9000000000000E-01  2.1088918522026E+00 -3.3217706522843E-02  4.0483664364051E-01
31  3.0000000000000E-01  2.1040533515300E+00  5.9570385987659E-02  3.4841394242443E-01
32  3.1000000000000E-01  2.0852957042609E+00  1.6228853611187E-01  2.8578823440454E-01
33  3.2000000000000E-01  2.0529756384860E+00  2.7366330268333E-01  2.1856562576534E-01
34  3.3000000000000E-01  2.0076479891776E+00  3.9219280395611E-01  1.4855737630616E-01
35  3.4000000000000E-01  1.9500436247077E+00  5.1619333713293E-01  7.7720909305880E-02
36  3.5000000000000E-01  1.8810430439639E+00  6.4385270547055E-01  8.0938700421924E-03
37  3.6000000000000E-01  1.8016468448424E+00  7.7328788942352E-01 -5.8275988807936E-02
38  3.7000000000000E-01  1.7129443912740E+00  9.0260447646081E-01 -1.1940207534475E-01
39  3.8000000000000E-01  1.6160820676001E+00  1.0299551679241E+00 -1.7342826111811E-01
40  3.9000000000000E-01  1.5122325024010E+00  1.1535947172565E+00 -2.1869314877812E-01
41  4.0000000000000E-01  1.4025660685320E+00  1.2719288222314E+00 -2.5378643391188E-01
42  4.1000000000000E-01  1.2882258253532E+00  1.3835547878983E+00 -2.7759483082391E-01
43  4.2000000000000E-01  1.1703068695000E+00  1.4872921838103E+00 -2.8933549991206E-01
44  4.3000000000000E-01  1.0498408116858E+00  1.5822022197829E+00 -2.8857548846972E-01
45  4.4000000000000E-01  9.2778581123373E-01  1.6675951349186E+00 -2.7523635054878E-01
46  4.5000000000000E-01  8.0502229165920E-01  1.7430255069634E+00 -2.4958381386478E-01
47  4.6000000000000E-01  6.8235414539861E-01  1.8082760126295E+00 -2.1220307863041E-01
48  4.7000000000000E-01  5.6051493002988E-01  1.8633307725919E+00 -1.6396102937971E-01
49  4.8000000000000E-01  4.4017827817245E-01  1.9083399661908E+00 -1.0595728146476E-01
50  4.9000000000000E-01  3.2197150376089E-01  1.9435778711798E+00 -3.9466536337758E-02
51  5.0000000000000E-01  2.0649120179614E-01  1.9693968475185E+00  3.4124844810821E-02
52  5.1000000000000E-01  9.4319517698571E-02  1.9861800204381E+00  1.1338484440825E-01
53  5.2000000000000E-01 -1.3960286420631E-02  1.9942955121856E+00  1.9690102629918E-01
54  5.3000000000000E-01 -1.1775031390930E-01  1.9940550162498E+00  2.8334169392506E-01
55  5.4000000000000E-01 -2.1642780587765E-01  1.9856793022972E+00  3.7150985074007E-01
56  5.5000000000000E-01 -3.0933926935913E-01  1.9692728919312E+00  4.6038720075999E-01
57  5.6000000000000E-01 -3.9579978627243E-01  1.9448096696618E+00  5.4916592783119E-01
58  5.7000000000000E-01 -4.7509803385870E-01  1.9121306118796E+00  6.3726661458475E-01
59  5.8000000000000E-01 -5.4650721376374E-01  1.8709541568746E+00  7.2434137663871E-01
60  5.9000000000000E-01 -6.0930173085296E-01  1.8208990333455E+00  8.1026205983857E-01
61  6.0000000000000E-01 -6.6277910244598E-01  1.7615186488756E+00  8.9509414010563E-01
62  6.1000000000000E-01 -7.0628623289807E-01  1.6923454503698E+00  9.7905773707556E-01
63  6.2000000000000E-01 -7.3924887606020E-01  1.6129430418891E+00  1.0624778647605E+00
64  6.3000000000000E-01 -7.6120284664408E-01  1.5229633158786E+00  1.1457266578545E+00
65  6.4000000000000E-01 -7.7182534632143E-01  1.4222054515946E+00  1.2291607981208E+00
66  6.5000000000000E-01 -7.7096465396870E-01  1.3106733841174E+00  1.3130576945494E+00
67  6.6000000000000E-01 -7.5866640066807E-01  1.1886282661844E+00  1.3975541240314E+00
68  6.7000000000000E-01 -7.3519471354632E-01  1.0566325426815E+00  1.4825910049675E+00
69  6.8000000000000E-01 -7.0104666841399E-01  9.1558253473470E-01  1.5678677525409E+00
70  6.9000000000000E-01 -6.5695873498780E-01  7.6672687882678E-01  1.6528092586944E+00
71  7.0000000000000E-01 -6.0390422118065E-01  6.1166876922051E-01  1.7365479688440E+00
72  7.1000000000000E-01 -5.4308111137990E-01  4.5235068428635E-01  1.8179228160610E+00
73  7.2000000000000E-01 -4.7589013086894E-01  2.9102110682892E-01  1.8954959545355E+00
74  7.3000000000000E-01 -4.0390333487947E-01  1.3018363752013E-01  1.9675873459541E+00
75  7.4000000000000E-01 -3.2882399436224E-01 -2.7470192774541E-02  2.0323263375969E+00
76  7.5000000000000E-01 -2.5243900859986E-01 -1.7914222551588E-01  2.0877184742065E+00
77  7.6000000000000E-01 -1.7656549456525E-01 -3.2202009502136E-01  2.1317249514043E+00
78  7.7000000000000E-01 -1.0299356274419E-01 -4.5337707140011E-01  2.1623513890932E+00
79  7.8000000000000E-01 -3.3427569595297E-02 -5.7067508087043E-01  2.1777420166884E+00
80  7.9000000000000E-01  3.0571678427682E-02 -6.7166629015277E-01  2.1762749498442E+00
81  8.0000000000000E-01  8.7641217690316E-02 -7.5448847869839E-01  2.1566540243167E+00
82  8.1000000000000E-01  1.3666420464420E-01 -8.1774948047729E-01  2.1179926513334E+00
83  8.2000000000000E-01  1.7680982306772E-01 -8.6059626185926E-01  2.0598853749408E+00
84  8.3000000000000E-01  2.0756274103415E-01 -8.8276470985519E-01  1.9824632395974E+00
85  8.4000000000000E-01  2.2874042041157E-01 -8.8460692186919E-01  1.8864296999376E+00
86  8.5000000000000E-01  2.4049706124453E-01 -8.6709369111922E-01  1.7730745987731E+00
87  8.6000000000000E-01  2.4331352276789E-01 -8.3179093969685E-01  1.6442646702403E+00
88  8.7000000000000E-01  2.3797318185661E-01 -7.8081002566530E-01  1.5024100517643E+00
89  8.8000000000000E-01  2.2552434553608E-01 -7.1673309825600E-01  1.3504073653392E+00
90  8.9000000000000E-01  2.0723050223943E-01 -6.4251594952628E-01  1.1915610065466E+00
91  9.0000000000000E-01  1.8451035173085E-01 -5.6137206407320E-01  1.0294853089547E+00
92  9.1000000000000E-01  1.5887017154307E-01 -4.7664275391767E-01  8.6799118360602E-01
93  9.2000000000000E-01  1.3183163563664E-01 -3.9165934001243E-01  7.1096162334908E-01
94  9.3000000000000E-01  1.0485867877328E-01 -3.0960426672286E-01  5.6222107047743E-01
95  9.4000000000000E-01  7.9287166462242E-02 -2.3337841293758E-01  4.2540386968724E-01
96  9.5000000000000E-01  5.6262862089751E-02 -1.6548492136366E-01  3.0382822258318E-01
97  9.6000000000000E-01  3.6492357952891E-02 -1.0759255260879E-01  2.0024245076778E-01
98  9.7000000000000E-01  2.0520139218732E-02 -6.1004419021758E-02  1.1697795996445E-01
99  9.8000000000000E-01  8.9239471422464E-03 -2.7011719633179E-02  5.5956757774617E-02
100  9.9000000000000E-01  1.9311923128424E-03 -6.2410436235601E-03  1.8265491528302E-02
101  1.0000000000000E+00 -5.5587043193369E-04  1.2624531796932E-03  4.8718091167804E-03
102  1.0100000000000E+00  6.5620705829436E-05 -1.6028443826023E-04 -3.7264753136058E-04