Am    ONCVPSP-4.0.1  r_core=   1.10131   1.00079   1.00079   1.10131
95.0000     35.0000      231012    zatom,zion,pspd
8   -1012   3     4   600     0    pspcod,pspxc,lmax,lloc,mmax,r2well
5.99000000  3.50000000  0.00000000    rchrg fchrg qchrg
3     2     2     2     0    nproj
1     1           extension_switch
0                         4.8559112429911E+01  3.7179512497655E+00 -3.2006057686142E-01
1  0.0000000000000E+00 -5.9666103835454E-08  2.5220650012869E-07  2.8852631708820E-07
2  1.0000000000000E-02  1.5461783172209E-01 -7.9699825574010E-02  1.1434169908323E-02
3  2.0000000000000E-02  3.0826204759564E-01 -1.5787090045799E-01  2.3562597106267E-02
4  3.0000000000000E-02  4.5997121084184E-01 -2.3302371178691E-01  3.7038535380965E-02
5  4.0000000000000E-02  6.0880786709247E-01 -3.0374565820036E-01  5.2435098457991E-02
6  5.0000000000000E-02  7.5386961308703E-01 -3.6873566614713E-01  7.0209776803501E-02
7  6.0000000000000E-02  8.9429910465978E-01 -4.2683439418620E-01  9.0674236598610E-02
8  7.0000000000000E-02  1.0292927253077E+00 -4.7704887062056E-01  1.1397080175381E-01
9  8.0000000000000E-02  1.1581076962964E+00 -5.1857066200651E-01  1.4005673130491E-01
10  9.0000000000000E-02  1.2800674784596E+00 -5.5078696301230E-01  1.6869706776653E-01
11  1.0000000000000E-01  1.3945653913534E+00 -5.7328431834532E-01  1.9946646143910E-01
12  1.1000000000000E-01  1.5010664537076E+00 -5.8584502036601E-01  2.3175998711901E-01
13  1.2000000000000E-01  1.5991075265083E+00 -5.8843655624325E-01  2.6481257980682E-01
14  1.3000000000000E-01  1.6882959128991E+00 -5.8119479087813E-01  2.9772634152042E-01
15  1.4000000000000E-01  1.7683066339601E+00 -5.6440185185539E-01  3.2950462826213E-01
16  1.5000000000000E-01  1.8388786532147E+00 -5.3845991734789E-01  3.5909152924167E-01
17  1.6000000000000E-01  1.8998103628351E+00 -5.0386228617775E-01  3.8541511235915E-01
18  1.7000000000000E-01  1.9509546689967E+00 -4.6116322264346E-01  4.0743264089455E-01
19  1.8000000000000E-01  1.9922140214124E+00 -4.1094811169793E-01  4.2417587358642E-01
20  1.9000000000000E-01  2.0235357222963E+00 -3.5380543026122E-01  4.3479454776108E-01
21  2.0000000000000E-01  2.0449078232025E+00 -2.9030193884155E-01  4.3859621343089E-01
22  2.1000000000000E-01  2.0563558755030E+00 -2.2096232852179E-01  4.3508073234103E-01
23  2.2000000000000E-01  2.0579407436176E+00 -1.4625432915824E-01  4.2396797352865E-01
24  2.3000000000000E-01  2.0497576220715E+00 -6.6580005615898E-02  4.0521751666299E-01
25  2.4000000000000E-01  2.0319363211914E+00  1.7726347338458E-02  3.7903950422925E-01
26  2.5000000000000E-01  2.0046428053404E+00  1.0639363975200E-01  3.4589614928021E-01
27  2.6000000000000E-01  1.9680818858999E+00  1.9920302498211E-01  3.0649379128088E-01
28  2.7000000000000E-01  1.9225008926788E+00  2.9597115288834E-01  2.6176578190175E-01
29  2.8000000000000E-01  1.8681940759534E+00  3.9652856029803E-01  2.1284685875865E-01
30  2.9000000000000E-01  1.8055074305116E+00  5.0069439293420E-01  1.6104001191150E-01
31  3.0000000000000E-01  1.7348435860819E+00  6.0824887126184E-01  1.0777715060445E-01
32  3.1000000000000E-01  1.6566663779650E+00  7.1890506659357E-01  5.4575123353852E-02
33  3.2000000000000E-01  1.5715046994339E+00  8.3228163512334E-01  2.9888227459264E-03
34  3.3000000000000E-01  1.4799552445999E+00  9.4787816130899E-01 -4.5436790237642E-02
35  3.4000000000000E-01  1.3826837771665E+00  1.0650546867333E+00 -8.9213882944230E-02
36  3.5000000000000E-01  1.2804246061004E+00  1.1830168483273E+00 -1.2695636428624E-01
37  3.6000000000000E-01  1.1739780121727E+00  1.3008078263122E+00 -1.5742024141159E-01
38  3.7000000000000E-01  1.0642054471614E+00  1.4173080163987E+00 -1.7953824850816E-01
39  3.8000000000000E-01  9.5202241712185E-01  1.5312430046658E+00 -1.9244753916882E-01
40  3.9000000000000E-01  8.3838905879671E-01  1.6412000515965E+00 -1.9550954535821E-01
41  4.0000000000000E-01  7.2429851977609E-01  1.7456529002629E+00 -1.8832145237441E-01
42  4.1000000000000E-01  6.1076335398622E-01  1.8429943301309E+00 -1.7071910457066E-01
43  4.2000000000000E-01  4.9880023998117E-01  1.9315755001789E+00 -1.4277152454978E-01
44  4.3000000000000E-01  3.8941341595341E-01  2.0097507804260E+00 -1.0476758251865E-01
45  4.4000000000000E-01  2.8357729832534E-01  2.0759264756939E+00 -5.7195676683392E-02
46  4.5000000000000E-01  1.8221880670753E-01  2.1286116136766E+00 -7.1756557027990E-04
47  4.6000000000000E-01  8.6199954055678E-02  2.1664688127552E+00  6.3862283381660E-02
48  4.7000000000000E-01 -3.6987249840771E-03  2.1883631717824E+00  1.3563030733570E-01
49  4.8000000000000E-01 -8.6793343406728E-02  2.1934071390979E+00  2.1359881765261E-01
50  4.9000000000000E-01 -1.6250989669010E-01  2.1809994221342E+00  2.9674071114960E-01
51  5.0000000000000E-01 -2.3039508519381E-01  2.1508561891167E+00  3.8402237598888E-01
52  5.1000000000000E-01 -2.9012432074721E-01  2.1030330835643E+00  4.7443338443000E-01
53  5.2000000000000E-01 -3.4150660625317E-01  2.0379369100531E+00  5.6701176869522E-01
54  5.3000000000000E-01 -3.8448608336605E-01  1.9563262422747E+00  6.6086393473645E-01
55  5.4000000000000E-01 -4.1914015935496E-01  1.8593006355196E+00  7.5517856902944E-01
56  5.5000000000000E-01 -4.4567424545241E-01  1.7482785771705E+00  8.4923422097149E-01
57  5.6000000000000E-01 -4.6441326035877E-01  1.6249647613272E+00  9.4240058208004E-01
58  5.7000000000000E-01 -4.7579016910708E-01  1.4913077077834E+00  1.0341338164715E+00
59  5.8000000000000E-01 -4.8033193436355E-01  1.3494491424069E+00  1.1239666088916E+00
60  5.9000000000000E-01 -4.7864334996981E-01  1.2016668981156E+00  1.2114938716122E+00
61  6.0000000000000E-01 -4.7138930124207E-01  1.0503133679615E+00  1.2963552763513E+00
62  6.1000000000000E-01 -4.5927605010202E-01  8.9775173220121E-01  1.3782159409434E+00
63  6.2000000000000E-01 -4.4303217326865E-01  7.4629228092922E-01  1.4567466945376E+00
64  6.3000000000000E-01 -4.2338978724495E-01  5.9813115815101E-01  1.5316053647543E+00
65  6.4000000000000E-01 -4.0106667447757E-01  4.5529376143570E-01  1.6024204740844E+00
66  6.5000000000000E-01 -3.7674988170180E-01  3.1958484705413E-01  1.6687786030961E+00
67  6.6000000000000E-01 -3.5108129597187E-01  1.9254712130681E-01  1.7302164804231E+00
68  6.7000000000000E-01 -3.2464561901913E-01  7.5429755820291E-02  1.7862186030361E+00
69  6.8000000000000E-01 -2.9796105997965E-01 -3.0832137684985E-02  1.8362208867271E+00
70  6.9000000000000E-01 -2.7147295443106E-01 -1.2562648237410E-01  1.8796205101531E+00
71  7.0000000000000E-01 -2.4555039878810E-01 -2.0866153867775E-01  1.9157917619632E+00
72  7.1000000000000E-01 -2.2048586834683E-01 -2.7995188435182E-01  1.9441073460725E+00
73  7.2000000000000E-01 -1.9649766963297E-01 -3.3979387952158E-01  1.9639642619702E+00
74  7.3000000000000E-01 -1.7373496794989E-01 -3.8873184665890E-01  1.9748130712423E+00
75  7.4000000000000E-01 -1.5228503352785E-01 -4.2751656637407E-01  1.9761891032710E+00
76  7.5000000000000E-01 -1.3218226824575E-01 -4.5705799419296E-01  1.9677439553629E+00
77  7.6000000000000E-01 -1.1341851258837E-01 -4.7837432915849E-01  1.9492755159234E+00
78  7.7000000000000E-01 -9.5954091553032E-02 -4.9253970347261E-01  1.9207546914730E+00
79  7.8000000000000E-01 -7.9729039937003E-02 -5.0063280850825E-01  1.8823470538978E+00
80  7.9000000000000E-01 -6.4673952201913E-02 -5.0368872511206E-01  1.8344277447851E+00
81  8.0000000000000E-01 -5.0719929409957E-02 -5.0265608748430E-01  1.7775881774206E+00
82  8.1000000000000E-01 -3.7807144201812E-02 -4.9836148571559E-01  1.7126333595633E+00
83  8.2000000000000E-01 -2.5891612386500E-02 -4.9148271069104E-01  1.6405690146943E+00
84  8.3000000000000E-01 -1.4949843831173E-02 -4.8253207714017E-01  1.5625780974576E+00
85  8.4000000000000E-01 -4.9811430131514E-03 -4.7185063809968E-01  1.4799867707443E+00
86  8.5000000000000E-01  3.9925622850301E-03 -4.5961363951921E-01  1.3942204272222E+00
87  8.6000000000000E-01  1.1929370116123E-02 -4.4584706932645E-01  1.3067508874308E+00
88  8.7000000000000E-01  1.8772417081296E-02 -4.3045464188896E-01  1.2190364814261E+00
89  8.8000000000000E-01  2.4457017586798E-02 -4.1325403515139E-01  1.1324573150222E+00
90  8.9000000000000E-01  2.8919568771227E-02 -3.9402066952182E-01  1.0482486313193E+00
91  9.0000000000000E-01  3.2107735824202E-02 -3.7253678679482E-01  9.6743580324035E-01
92  9.1000000000000E-01  3.3991306899218E-02 -3.4864305170915E-01  8.9077513694412E-01
93  9.2000000000000E-01  3.4572978459785E-02 -3.2228935105091E-01  8.1870533723256E-01
94  9.3000000000000E-01  3.3898197690456E-02 -2.9358089335735E-01  7.5131519702650E-01
95  9.4000000000000E-01  3.2063044295162E-02 -2.6281509902784E-01  6.8833384069552E-01
96  9.5000000000000E-01  2.9218974048614E-02 -2.3050409361884E-01  6.2915069718349E-01
97  9.6000000000000E-01  2.5573064083131E-02 -1.9737684896488E-01  5.7287332953351E-01
98  9.7000000000000E-01  2.1382187261977E-02 -1.6435412605600E-01  5.1843233215370E-01
99  9.8000000000000E-01  1.6939291117472E-02 -1.3248832413745E-01  4.6474375986337E-01
100  9.9000000000000E-01  1.2549650050713E-02 -1.0285906426502E-01  4.1094108688936E-01
101  1.0000000000000E+00  8.4946675658007E-03 -7.6414180864457E-02  3.5668950689269E-01
102  1.0100000000000E+00  4.9839291594718E-03 -5.3761435395713E-02  3.0254947705688E-01
103  1.0200000000000E+00  2.1485137376764E-03 -3.5168840514446E-02  2.4970481180633E-01
104  1.0300000000000E+00  7.2209492289204E-05 -2.0741933487662E-02  1.9931532475212E-01
105  1.0400000000000E+00 -1.2114766900673E-03 -1.0424912197933E-02  1.5244958261550E-01
106  1.0500000000000E+00 -1.7580226267242E-03 -3.8613624100553E-03  1.1014228801043E-01
107  1.0600000000000E+00 -1.8924315001665E-03  2.7470714535180E-04  7.3631916981966E-02
108  1.0700000000000E+00 -1.6370420228089E-03  2.1565088071720E-03  4.3649827795063E-02
109  1.0800000000000E+00 -1.0655504593980E-03  2.1050168964725E-03  2.0876532140041E-02
110  1.0900000000000E+00 -3.9908580010082E-04  9.4833241300205E-04  6.0541215591410E-03
111  1.1000000000000E+00 -1.3888663886779E-05  3.6875650666134E-05  1.6745414814422E-04
112  1.1100000000000E+00 -2.3017287273123E-06  6.0257825419826E-06  2.8598476837056E-05
113  1.1200000000000E+00  2.1171778489783E-07 -5.3283731117149E-07 -2.8698398271744E-06
114  1.13  0.  0.  0.
115  1.14  0.  0.  0.
116  1.15  0.  0.  0.
117  1.16  0.  0.  0.
118  1.17  0.  0.  0.
119  1.18  0.  0.  0.
120  1.19  0.  0.  0.
121  1.20  0.  0.  0.
122  1.21  0.  0.  0.
123  1.22  0.  0.  0.
124  1.23  0.  0.  0.
125  1.24  0.  0.  0.
126  1.25  0.  0.  0.
127  1.26  0.  0.  0.
128  1.27  0.  0.  0.
129  1.28  0.  0.  0.
130  1.29  0.  0.  0.
131  1.30  0.  0.  0.
132  1.31  0.  0.  0.
133  1.32  0.  0.  0.
134  1.33  0.  0.  0.
135  1.34  0.  0.  0.
136  1.35  0.  0.  0.
137  1.36  0.  0.  0.
138  1.37  0.  0.  0.
139  1.38  0.  0.  0.
140  1.39  0.  0.  0.
141  1.40  0.  0.  0.
142  1.41  0.  0.  0.
143  1.42  0.  0.  0.
144  1.43  0.  0.  0.
145  1.44  0.  0.  0.
146  1.45  0.  0.  0.
147  1.46  0.  0.  0.
148  1.47  0.  0.  0.
149  1.48  0.  0.  0.
150  1.49  0.  0.  0.
151  1.50  0.  0.  0.
152  1.51  0.  0.  0.
153  1.52  0.  0.  0.
154  1.53  0.  0.  0.
155  1.54  0.  0.  0.
156  1.55  0.  0.  0.
157  1.56  0.  0.  0.
158  1.57  0.  0.  0.
159  1.58  0.  0.  0.
160  1.59  0.  0.  0.
161  1.60  0.  0.  0.
162  1.61  0.  0.  0.
163  1.62  0.  0.  0.
164  1.63  0.  0.  0.
165  1.64  0.  0.  0.
166  1.65  0.  0.  0.
167  1.66  0.  0.  0.
168  1.67  0.  0.  0.
169  1.68  0.  0.  0.
170  1.69  0.  0.  0.
171  1.70  0.  0.  0.
172  1.71  0.  0.  0.
173  1.72  0.  0.  0.
174  1.73  0.  0.  0.
175  1.74  0.  0.  0.
176  1.75  0.  0.  0.
177  1.76  0.  0.  0.
178  1.77  0.  0.  0.
179  1.78  0.  0.  0.
180  1.79  0.  0.  0.
181  1.80  0.  0.  0.
182  1.81  0.  0.  0.
183  1.82  0.  0.  0.
184  1.83  0.  0.  0.
185  1.84  0.  0.  0.
186  1.85  0.  0.  0.
187  1.86  0.  0.  0.
188  1.87  0.  0.  0.
189  1.88  0.  0.  0.
190  1.89  0.  0.  0.
191  1.90  0.  0.  0.
192  1.91  0.  0.  0.
193  1.92  0.  0.  0.
194  1.93  0.  0.  0.
195  1.94  0.  0.  0.
196  1.95  0.  0.  0.
197  1.96  0.  0.  0.
198  1.97  0.  0.  0.
199  1.98  0.  0.  0.
200  1.99  0.  0.  0.
201  2.00  0.  0.  0.
202  2.01  0.  0.  0.
203  2.02  0.  0.  0.
204  2.03  0.  0.  0.
205  2.04  0.  0.  0.
206  2.05  0.  0.  0.
207  2.06  0.  0.  0.
208  2.07  0.  0.  0.
209  2.08  0.  0.  0.
210  2.09  0.  0.  0.
211  2.10  0.  0.  0.
212  2.11  0.  0.  0.
213  2.12  0.  0.  0.
214  2.13  0.  0.  0.
215  2.14  0.  0.  0.
216  2.15  0.  0.  0.
217  2.16  0.  0.  0.
218  2.17  0.  0.  0.
219  2.18  0.  0.  0.
220  2.19  0.  0.  0.
221  2.20  0.  0.  0.
222  2.21  0.  0.  0.
223  2.22  0.  0.  0.
224  2.23  0.  0.  0.
225  2.24  0.  0.  0.
226  2.25  0.  0.  0.
227  2.26  0.  0.  0.
228  2.27  0.  0.  0.
229  2.28  0.  0.  0.
230  2.29  0.  0.  0.
231  2.30  0.  0.  0.
232  2.31  0.  0.  0.
233  2.32  0.  0.  0.
234  2.33  0.  0.  0.
235  2.34  0.  0.  0.
236  2.35  0.  0.  0.
237  2.36  0.  0.  0.
238  2.37  0.  0.  0.
239  2.38  0.  0.  0.
240  2.39  0.  0.  0.
241  2.40  0.  0.  0.
242  2.41  0.  0.  0.
243  2.42  0.  0.  0.
244  2.43  0.  0.  0.
245  2.44  0.  0.  0.
246  2.45  0.  0.  0.
247  2.46  0.  0.  0.
248  2.47  0.  0.  0.
249  2.48  0.  0.  0.
250  2.49  0.  0.  0.
251  2.50  0.  0.  0.
252  2.51  0.  0.  0.
253  2.52  0.  0.  0.
254  2.53  0.  0.  0.
255  2.54  0.  0.  0.
256  2.55  0.  0.  0.
257  2.56  0.  0.  0.
258  2.57  0.  0.  0.
259  2.58  0.  0.  0.
260  2.59  0.  0.  0.
261  2.60  0.  0.  0.
262  2.61  0.  0.  0.
263  2.62  0.  0.  0.
264  2.63  0.  0.  0.
265  2.64  0.  0.  0.
266  2.65  0.  0.  0.
267  2.66  0.  0.  0.
268  2.67  0.  0.  0.
269  2.68  0.  0.  0.
270  2.69  0.  0.  0.
271  2.70  0.  0.  0.
272  2.71  0.  0.  0.
273  2.72  0.  0.  0.
274  2.73  0.  0.  0.
275  2.74  0.  0.  0.
276  2.75  0.  0.  0.
277  2.76  0.  0.  0.
278  2.77  0.  0.  0.
279  2.78  0.  0.  0.
280  2.79  0.  0.  0.
281  2.80  0.  0.  0.
282  2.81  0.  0.  0.
283  2.82  0.  0.  0.
284  2.83  0.  0.  0.
285  2.84  0.  0.  0.
286  2.85  0.  0.  0.
287  2.86  0.  0.  0.
288  2.87  0.  0.  0.
289  2.88  0.  0.  0.
290  2.89  0.  0.  0.
291  2.90  0.  0.  0.
292  2.91  0.  0.  0.
293  2.92  0.  0.  0.
294  2.93  0.  0.  0.
295  2.94  0.  0.  0.
296  2.95  0.  0.  0.
297  2.96  0.  0.  0.
298  2.97  0.  0.  0.
299  2.98  0.  0.  0.
300  2.99  0.  0.  0.
301  3.00  0.  0.  0.
302  3.01  0.  0.  0.
303  3.02  0.  0.  0.
304  3.03  0.  0.  0.
305  3.04  0.  0.  0.
306  3.05  0.  0.  0.
307  3.06  0.  0.  0.
308  3.07  0.  0.  0.
309  3.08  0.  0.  0.
310  3.09  0.  0.  0.
311  3.10  0.  0.  0.
312  3.11  0.  0.  0.
313  3.12  0.  0.  0.
314  3.13  0.  0.  0.
315  3.14  0.  0.  0.
316  3.15  0.  0.  0.
317  3.16  0.  0.  0.
318  3.17  0.  0.  0.
319  3.18  0.  0.  0.
320  3.19  0.  0.  0.
321  3.20  0.  0.  0.
322  3.21  0.  0.  0.
323  3.22  0.  0.  0.
324  3.23  0.  0.  0.
325  3.24  0.  0.  0.
326  3.25  0.  0.  0.
327  3.26  0.  0.  0.
328  3.27  0.  0.  0.
329  3.28  0.  0.  0.
330  3.29  0.  0.  0.
331  3.30  0.  0.  0.
332  3.31  0.  0.  0.
333  3.32  0.  0.  0.
334  3.33  0.  0.  0.
335  3.34  0.  0.  0.
336  3.35  0.  0.  0.
337  3.36  0.  0.  0.
338  3.37  0.  0.  0.
339  3.38  0.  0.  0.
340  3.39  0.  0.  0.
341  3.40  0.  0.  0.
342  3.41  0.  0.  0.
343  3.42  0.  0.  0.
344  3.43  0.  0.  0.
345  3.44  0.  0.  0.
346  3.45  0.  0.  0.
347  3.46  0.  0.  0.
348  3.47  0.  0.  0.
349  3.48  0.  0.  0.
350  3.49  0.  0.  0.
351  3.50  0.  0.  0.
352  3.51  0.  0.  0.
353  3.52  0.  0.  0.
354  3.53  0.  0.  0.
355  3.54  0.  0.  0.
356  3.55  0.  0.  0.
357  3.56  0.  0.  0.
358  3.57  0.  0.  0.
359  3.58  0.  0.  0.
360  3.59  0.  0.  0.
361  3.60  0.  0.  0.
362  3.61  0.  0.  0.
363  3.62  0.  0.  0.
364  3.63  0.  0.  0.
365  3.64  0.  0.  0.
366  3.65  0.  0.  0.
367  3.66  0.  0.  0.
368  3.67  0.  0.  0.
369  3.68  0.  0.  0.
370  3.69  0.  0.  0.
371  3.70  0.  0.  0.
372  3.71  0.  0.  0.
373  3.72  0.  0.  0.
374  3.73  0.  0.  0.
375  3.74  0.  0.  0.
376  3.75  0.  0.  0.
377  3.76  0.  0.  0.
378  3.77  0.  0.  0.
379  3.78  0.  0.  0.
380  3.79  0.  0.  0.
381  3.80  0.  0.  0.
382  3.81  0.  0.  0.
383  3.82  0.  0.  0.
384  3.83  0.  0.  0.
385  3.84  0.  0.  0.
386  3.85  0.  0.  0.
387  3.86  0.  0.  0.
388  3.87  0.  0.  0.
389  3.88  0.  0.  0.
390  3.89  0.  0.  0.
391  3.90  0.  0.  0.
392  3.91  0.  0.  0.
393  3.92  0.  0.  0.
394  3.93  0.  0.  0.
395  3.94  0.  0.  0.
396  3.95  0.  0.  0.
397  3.96  0.  0.  0.
398  3.97  0.  0.  0.
399  3.98  0.  0.  0.
400  3.99  0.  0.  0.
401  4.00  0.  0.  0.
402  4.01  0.  0.  0.
403  4.02  0.  0.  0.
404  4.03  0.  0.  0.
405  4.04  0.  0.  0.
406  4.05  0.  0.  0.
407  4.06  0.  0.  0.
408  4.07  0.  0.  0.
409  4.08  0.  0.  0.
410  4.09  0.  0.  0.
411  4.10  0.  0.  0.
412  4.11  0.  0.  0.
413  4.12  0.  0.  0.
414  4.13  0.  0.  0.
415  4.14  0.  0.  0.
416  4.15  0.  0.  0.
417  4.16  0.  0.  0.
418  4.17  0.  0.  0.
419  4.18  0.  0.  0.
420  4.19  0.  0.  0.
421  4.20  0.  0.  0.
422  4.21  0.  0.  0.
423  4.22  0.  0.  0.
424  4.23  0.  0.  0.
425  4.24  0.  0.  0.
426  4.25  0.  0.  0.
427  4.26  0.  0.  0.
428  4.27  0.  0.  0.
429  4.28  0.  0.  0.
430  4.29  0.  0.  0.
431  4.30  0.  0.  0.
432  4.31  0.  0.  0.
433  4.32  0.  0.  0.
434  4.33  0.  0.  0.
435  4.34  0.  0.  0.
436  4.35  0.  0.  0.
437  4.36  0.  0.  0.
438  4.37  0.  0.  0.
439  4.38  0.  0.  0.
440  4.39  0.  0.  0.
441  4.40  0.  0.  0.
442  4.41  0.  0.  0.
443  4.42  0.  0.  0.
444  4.43  0.  0.  0.
445  4.44  0.  0.  0.
446  4.45  0.  0.  0.
447  4.46  0.  0.  0.
448  4.47  0.  0.  0.
449  4.48  0.  0.  0.
450  4.49  0.  0.  0.
451  4.50  0.  0.  0.
452  4.51  0.  0.  0.
453  4.52  0.  0.  0.
454  4.53  0.  0.  0.
455  4.54  0.  0.  0.
456  4.55  0.  0.  0.
457  4.56  0.  0.  0.
458  4.57  0.  0.  0.
459  4.58  0.  0.  0.
460  4.59  0.  0.  0.
461  4.60  0.  0.  0.
462  4.61  0.  0.  0.
463  4.62  0.  0.  0.
464  4.63  0.  0.  0.
465  4.64  0.  0.  0.
466  4.65  0.  0.  0.
467  4.66  0.  0.  0.
468  4.67  0.  0.  0.
469  4.68  0.  0.  0.
470  4.69  0.  0.  0.
471  4.70  0.  0.  0.
472  4.71  0.  0.  0.
473  4.72  0.  0.  0.
474  4.73  0.  0.  0.
475  4.74  0.  0.  0.
476  4.75  0.  0.  0.
477  4.76  0.  0.  0.
478  4.77  0.  0.  0.
479  4.78  0.  0.  0.
480  4.79  0.  0.  0.
481  4.80  0.  0.  0.
482  4.81  0.  0.  0.
483  4.82  0.  0.  0.
484  4.83  0.  0.  0.
485  4.84  0.  0.  0.
486  4.85  0.  0.  0.
487  4.86  0.  0.  0.
488  4.87  0.  0.  0.
489  4.88  0.  0.  0.
490  4.89  0.  0.  0.
491  4.90  0.  0.  0.
492  4.91  0.  0.  0.
493  4.92  0.  0.  0.
494  4.93  0.  0.  0.
495  4.94  0.  0.  0.
496  4.95  0.  0.  0.
497  4.96  0.  0.  0.
498  4.97  0.  0.  0.
499  4.98  0.  0.  0.
500  4.99  0.  0.  0.
501  5.00  0.  0.  0.
502  5.01  0.  0.  0.
503  5.02  0.  0.  0.
504  5.03  0.  0.  0.
505  5.04  0.  0.  0.
506  5.05  0.  0.  0.
507  5.06  0.  0.  0.
508  5.07  0.  0.  0.
509  5.08  0.  0.  0.
510  5.09  0.  0.  0.
511  5.10  0.  0.  0.
512  5.11  0.  0.  0.
513  5.12  0.  0.  0.
514  5.13  0.  0.  0.
515  5.14  0.  0.  0.
516  5.15  0.  0.  0.
517  5.16  0.  0.  0.
518  5.17  0.  0.  0.
519  5.18  0.  0.  0.
520  5.19  0.  0.  0.
521  5.20  0.  0.  0.
522  5.21  0.  0.  0.
523  5.22  0.  0.  0.
524  5.23  0.  0.  0.
525  5.24  0.  0.  0.
526  5.25  0.  0.  0.
527  5.26  0.  0.  0.
528  5.27  0.  0.  0.
529  5.28  0.  0.  0.
530  5.29  0.  0.  0.
531  5.30  0.  0.  0.
532  5.31  0.  0.  0.
533  5.32  0.  0.  0.
534  5.33  0.  0.  0.
535  5.34  0.  0.  0.
536  5.35  0.  0.  0.
537  5.36  0.  0.  0.
538  5.37  0.  0.  0.
539  5.38  0.  0.  0.
540  5.39  0.  0.  0.
541  5.40  0.  0.  0.
542  5.41  0.  0.  0.
543  5.42  0.  0.  0.
544  5.43  0.  0.  0.
545  5.44  0.  0.  0.
546  5.45  0.  0.  0.
547  5.46  0.  0.  0.
548  5.47  0.  0.  0.
549  5.48  0.  0.  0.
550  5.49  0.  0.  0.
551  5.50  0.  0.  0.
552  5.51  0.  0.  0.
553  5.52  0.  0.  0.
554  5.53  0.  0.  0.
555  5.54  0.  0.  0.
556  5.55  0.  0.  0.
557  5.56  0.  0.  0.
558  5.57  0.  0.  0.
559  5.58  0.  0.  0.
560  5.59  0.  0.  0.
561  5.60  0.  0.  0.
562  5.61  0.  0.  0.
563  5.62  0.  0.  0.
564  5.63  0.  0.  0.
565  5.64  0.  0.  0.
566  5.65  0.  0.  0.
567  5.66  0.  0.  0.
568  5.67  0.  0.  0.
569  5.68  0.  0.  0.
570  5.69  0.  0.  0.
571  5.70  0.  0.  0.
572  5.71  0.  0.  0.
573  5.72  0.  0.  0.
574  5.73  0.  0.  0.
575  5.74  0.  0.  0.
576  5.75  0.  0.  0.
577  5.76  0.  0.  0.
578  5.77  0.  0.  0.
579  5.78  0.  0.  0.
580  5.79  0.  0.  0.
581  5.80  0.  0.  0.
582  5.81  0.  0.  0.
583  5.82  0.  0.  0.
584  5.83  0.  0.  0.
585  5.84  0.  0.  0.
586  5.85  0.  0.  0.
587  5.86  0.  0.  0.
588  5.87  0.  0.  0.
589  5.88  0.  0.  0.
590  5.89  0.  0.  0.
591  5.90  0.  0.  0.
592  5.91  0.  0.  0.
593  5.92  0.  0.  0.
594  5.93  0.  0.  0.
595  5.94  0.  0.  0.
596  5.95  0.  0.  0.
597  5.96  0.  0.  0.
598  5.97  0.  0.  0.
599  5.98  0.  0.  0.
600  5.99  0.  0.  0.
1                         1.5888133923837E+01 -2.3597962453731E+00
1  0.0000000000000E+00  2.4562186923260E-08  3.9732981130247E-07
2  1.0000000000000E-02  3.9539028178235E-03 -3.3195658029710E-03
3  2.0000000000000E-02  1.5779937049887E-02 -1.3314015244701E-02
4  3.0000000000000E-02  3.5371626742899E-02 -3.0085198738989E-02
5  4.0000000000000E-02  6.2553314737774E-02 -5.3785177412707E-02
6  5.0000000000000E-02  9.7082799167517E-02 -8.4590824198479E-02
7  6.0000000000000E-02  1.3865489272697E-01 -1.2267047442617E-01
8  7.0000000000000E-02  1.8690578079502E-01 -1.6814469391366E-01
9  8.0000000000000E-02  2.4141802992764E-01 -2.2104362988713E-01
10  9.0000000000000E-02  3.0172608104126E-01 -2.8126367580296E-01
11  1.0000000000000E-01  3.6732205259909E-01 -3.4852630029366E-01
12  1.1000000000000E-01  4.3766167870632E-01 -4.2234185545280E-01
13  1.2000000000000E-01  5.1217021517889E-01 -5.0198099079265E-01
14  1.3000000000000E-01  5.9024816289498E-01 -5.8645596462104E-01
15  1.4000000000000E-01  6.7127668116838E-01 -6.7451367997728E-01
16  1.5000000000000E-01  7.5462259321736E-01 -7.6464170011802E-01
17  1.6000000000000E-01  8.3964291944752E-01 -8.5508784703366E-01
18  1.7000000000000E-01  9.2568891038820E-01 -9.4389328813224E-01
19  1.8000000000000E-01  1.0121095877430E+00 -1.0289383063240E+00
20  1.9000000000000E-01  1.0982548371149E+00 -1.1079992635550E+00
21  2.0000000000000E-01  1.1834781275798E+00 -1.1788146428499E+00
22  2.1000000000000E-01  1.2671389596145E+00 -1.2391575220104E+00
23  2.2000000000000E-01  1.3486051623795E+00 -1.2869114219031E+00
24  2.3000000000000E-01  1.4272551728257E+00 -1.3201462066154E+00
25  2.4000000000000E-01  1.5024804317196E+00 -1.3371906075631E+00
26  2.5000000000000E-01  1.5736880251407E+00 -1.3366980069532E+00
27  2.6000000000000E-01  1.6403036844265E+00 -1.3177023475313E+00
28  2.7000000000000E-01  1.7017752335505E+00 -1.2796614265230E+00
29  2.8000000000000E-01  1.7575765416086E+00 -1.2224853652199E+00
30  2.9000000000000E-01  1.8072120009530E+00 -1.1465486974942E+00
31  3.0000000000000E-01  1.8502215104053E+00 -1.0526852600413E+00
32  3.1000000000000E-01  1.8861859000149E+00 -9.4216585893516E-01
33  3.2000000000000E-01  1.9147326912696E+00 -8.1665949251220E-01
34  3.3000000000000E-01  1.9355420468482E+00 -6.7817968980571E-01
35  3.4000000000000E-01  1.9483527291645E+00 -5.2901823753341E-01
36  3.5000000000000E-01  1.9529678591800E+00 -3.7166918047930E-01
37  3.6000000000000E-01  1.9492602480212E+00 -2.0874645800293E-01
38  3.7000000000000E-01  1.9371770652233E+00 -4.2898857572636E-02
39  3.8000000000000E-01  1.9167436098610E+00  1.2327389353332E-01
40  3.9000000000000E-01  1.8880659647956E+00  2.8730012443274E-01
41  4.0000000000000E-01  1.8513323396232E+00  4.4690676579641E-01
42  4.1000000000000E-01  1.8068129438864E+00  6.0007831856682E-01
43  4.2000000000000E-01  1.7548582774562E+00  7.4510169472402E-01
44  4.3000000000000E-01  1.6958957778994E+00  8.8059508608592E-01
45  4.4000000000000E-01  1.6304248229315E+00  1.0055198243949E+00
46  4.5000000000000E-01  1.5590101471725E+00  1.1191750634766E+00
47  4.6000000000000E-01  1.4822737936372E+00  1.2211759988413E+00
48  4.7000000000000E-01  1.4008857788777E+00  1.3114171968844E+00
49  4.8000000000000E-01  1.3155537036697E+00  1.3900233905817E+00
50  4.9000000000000E-01  1.2270115860237E+00  1.4572907698767E+00
51  5.0000000000000E-01  1.1360082278276E+00  1.5136223164169E+00
52  5.1000000000000E-01  1.0432954487613E+00  1.5594610744352E+00
53  5.2000000000000E-01  9.4961652996481E-01  1.5952253914934E+00
54  5.3000000000000E-01  8.5569520459532E-01  1.6212500933597E+00
55  5.4000000000000E-01  7.6222551284240E-01  1.6377372759336E+00
56  5.5000000000000E-01  6.6986280581044E-01  1.6447199140657E+00
57  5.6000000000000E-01  5.7921613721321E-01  1.6420408231004E+00
58  5.7000000000000E-01  4.9084222594395E-01  1.6293486944152E+00
59  5.8000000000000E-01  4.0524110869954E-01  1.6061119999175E+00
60  5.9000000000000E-01  3.2285353278118E-01  1.5716505677620E+00
61  6.0000000000000E-01  2.4406006808644E-01  1.5251836222426E+00
62  6.1000000000000E-01  1.6918184741330E-01  1.4658921067354E+00
63  6.2000000000000E-01  9.8482778767963E-02  1.3929922209625E+00
64  6.3000000000000E-01  3.2173015489894E-02  1.3058163508794E+00
65  6.4000000000000E-01 -2.9586577556955E-02  1.2038969936467E+00
66  6.5000000000000E-01 -8.6679258421699E-02  1.0870489160831E+00
67  6.6000000000000E-01 -1.3902686042319E-01  9.5544465753243E-01
68  6.7000000000000E-01 -1.8658418490099E-01  8.0967861082328E-01
69  6.8000000000000E-01 -2.2933364628144E-01  6.5081528931714E-01
70  6.9000000000000E-01 -2.6728045550651E-01  4.8041800288319E-01
71  7.0000000000000E-01 -3.0044858785759E-01  3.0055499749699E-01
72  7.1000000000000E-01 -3.2887772890696E-01  1.1378112745993E-01
73  7.2000000000000E-01 -3.5262133024349E-01 -7.6905718911266E-02
74  7.3000000000000E-01 -3.7174583772718E-01 -2.6813298231366E-01
75  7.4000000000000E-01 -3.8633108269365E-01 -4.5624486260364E-01
76  7.5000000000000E-01 -3.9647175432820E-01 -6.3741386495275E-01
77  7.6000000000000E-01 -4.0227980296225E-01 -8.0776837654207E-01
78  7.7000000000000E-01 -4.0388756281072E-01 -9.6353120743233E-01
79  7.8000000000000E-01 -4.0145133184819E-01 -1.1011632540487E+00
80  7.9000000000000E-01 -3.9515510885994E-01 -1.2175059183485E+00
81  8.0000000000000E-01 -3.8521416536035E-01 -1.3099156737210E+00
82  8.1000000000000E-01 -3.7187812452369E-01 -1.3763842313971E+00
83  8.2000000000000E-01 -3.5543323123582E-01 -1.4156381365565E+00
84  8.3000000000000E-01 -3.3620352677415E-01 -1.4272123055474E+00
85  8.4000000000000E-01 -3.1455068758668E-01 -1.4114929850342E+00
86  8.5000000000000E-01 -2.9087234854647E-01 -1.3697268378628E+00
87  8.6000000000000E-01 -2.6559880460245E-01 -1.3039942948404E+00
88  8.7000000000000E-01 -2.3918806805794E-01 -1.2171469026937E+00
89  8.8000000000000E-01 -2.1211934847305E-01 -1.1127100852338E+00
90  8.9000000000000E-01 -1.8488511480972E-01 -9.9475445176431E-01
91  9.0000000000000E-01 -1.5798199120622E-01 -8.6774046708617E-01
92  9.1000000000000E-01 -1.3190082501912E-01 -7.3634287562222E-01
93  9.2000000000000E-01 -1.0711634506767E-01 -6.0526268727569E-01
94  9.3000000000000E-01 -8.4076896294922E-02 -4.7903573097499E-01
95  9.4000000000000E-01 -6.3194789749965E-02 -3.6184725526218E-01
96  9.5000000000000E-01 -4.4837871391611E-02 -2.5736584447065E-01
97  9.6000000000000E-01 -2.9319129286304E-02 -1.6817707631125E-01
98  9.7000000000000E-01 -1.6894896355646E-02 -9.6356599373914E-02
99  9.8000000000000E-01 -7.7727590491286E-03 -4.3869219074781E-02
100  9.9000000000000E-01 -2.1042936075418E-03 -1.1702944155924E-02
101  1.0000000000000E+00 -3.0571818555080E-05 -1.6671755081999E-04
102  1.0100000000000E+00 -9.4017866579742E-06 -5.1448014539514E-05
103  1.0200000000000E+00 -3.7545690312112E-11 -3.8459705981933E-11
104  1.03  0.  0.
105  1.04  0.  0.
106  1.05  0.  0.
107  1.06  0.  0.
108  1.07  0.  0.
109  1.08  0.  0.
110  1.09  0.  0.
111  1.10  0.  0.
112  1.11  0.  0.
113  1.12  0.  0.
114  1.13  0.  0.
115  1.14  0.  0.
116  1.15  0.  0.
117  1.16  0.  0.
118  1.17  0.  0.
119  1.18  0.  0.
120  1.19  0.  0.
121  1.20  0.  0.
122  1.21  0.  0.
123  1.22  0.  0.
124  1.23  0.  0.
125  1.24  0.  0.
126  1.25  0.  0.
127  1.26  0.  0.
128  1.27  0.  0.
129  1.28  0.  0.
130  1.29  0.  0.
131  1.30  0.  0.
132  1.31  0.  0.
133  1.32  0.  0.
134  1.33  0.  0.
135  1.34  0.  0.
136  1.35  0.  0.
137  1.36  0.  0.
138  1.37  0.  0.
139  1.38  0.  0.
140  1.39  0.  0.
141  1.40  0.  0.
142  1.41  0.  0.
143  1.42  0.  0.
144  1.43  0.  0.
145  1.44  0.  0.
146  1.45  0.  0.
147  1.46  0.  0.
148  1.47  0.  0.
149  1.48  0.  0.
150  1.49  0.  0.
151  1.50  0.  0.
152  1.51  0.  0.
153  1.52  0.  0.
154  1.53  0.  0.
155  1.54  0.  0.
156  1.55  0.  0.
157  1.56  0.  0.
158  1.57  0.  0.
159  1.58  0.  0.
160  1.59  0.  0.
161  1.60  0.  0.
162  1.61  0.  0.
163  1.62  0.  0.
164  1.63  0.  0.
165  1.64  0.  0.
166  1.65  0.  0.
167  1.66  0.  0.
168  1.67  0.  0.
169  1.68  0.  0.
170  1.69  0.  0.
171  1.70  0.  0.
172  1.71  0.  0.
173  1.72  0.  0.
174  1.73  0.  0.
175  1.74  0.  0.
176  1.75  0.  0.
177  1.76  0.  0.
178  1.77  0.  0.
179  1.78  0.  0.
180  1.79  0.  0.
181  1.80  0.  0.
182  1.81  0.  0.
183  1.82  0.  0.
184  1.83  0.  0.
185  1.84  0.  0.
186  1.85  0.  0.
187  1.86  0.  0.
188  1.87  0.  0.
189  1.88  0.  0.
190  1.89  0.  0.
191  1.90  0.  0.
192  1.91  0.  0.
193  1.92  0.  0.
194  1.93  0.  0.
195  1.94  0.  0.
196  1.95  0.  0.
197  1.96  0.  0.
198  1.97  0.  0.
199  1.98  0.  0.
200  1.99  0.  0.
201  2.00  0.  0.
202  2.01  0.  0.
203  2.02  0.  0.
204  2.03  0.  0.
205  2.04  0.  0.
206  2.05  0.  0.
207  2.06  0.  0.
208  2.07  0.  0.
209  2.08  0.  0.
210  2.09  0.  0.
211  2.10  0.  0.
212  2.11  0.  0.
213  2.12  0.  0.
214  2.13  0.  0.
215  2.14  0.  0.
216  2.15  0.  0.
217  2.16  0.  0.
218  2.17  0.  0.
219  2.18  0.  0.
220  2.19  0.  0.
221  2.20  0.  0.
222  2.21  0.  0.
223  2.22  0.  0.
224  2.23  0.  0.