Cm    ONCVPSP-4.0.1  r_core=   1.00229   1.00229   1.00229   1.10296
96.0000     36.0000      230613    zatom,zion,pspd
8      11   3     4   600     0    pspcod,pspxc,lmax,lloc,mmax,r2well
5.99000000  3.50000000  0.00000000    rchrg fchrg qchrg
3     2     2     2     0    nproj
1     1           extension_switch
0                         5.6447608973302E+01  5.2906174539702E+00 -6.7796667894579E-01
1  0.0000000000000E+00 -9.2704142451439E-07  3.1669184797911E-06  8.2604190592209E-07
2  1.0000000000000E-02  1.8823332896973E-01 -1.6194716994157E-01 -1.3514350697427E-02
3  2.0000000000000E-02  3.7377047396606E-01 -3.1686149885728E-01 -2.5304305823535E-02
4  3.0000000000000E-02  5.5401740836467E-01 -4.5805029418029E-01 -3.3739722173797E-02
5  4.0000000000000E-02  7.2657931296043E-01 -5.7948369230101E-01 -3.7374221386080E-02
6  5.0000000000000E-02  8.8934767669250E-01 -6.7608330871220E-01 -3.5025457467728E-02
7  6.0000000000000E-02  1.0405731225778E+00 -7.4396205956320E-01 -2.5842092308460E-02
8  7.0000000000000E-02  1.1789203745303E+00 -7.8060288758775E-01 -9.3540904917441E-03
9  8.0000000000000E-02  1.3035027077855E+00 -7.8496729228794E-01  1.4496229240782E-02
10  9.0000000000000E-02  1.4138942903329E+00 -7.5752820256601E-01  4.5343995854619E-02
11  1.0000000000000E-01  1.5101199696336E+00 -7.0022565089925E-01  8.2413019227777E-02
12  1.1000000000000E-01  1.5926232282396E+00 -6.1634770820725E-01  1.2454797263248E-01
13  1.2000000000000E-01  1.6622141628054E+00 -5.1034301017745E-01  1.7026600681542E-01
14  1.3000000000000E-01  1.7200003744859E+00 -3.8757474810304E-01  2.1782531811933E-01
15  1.4000000000000E-01  1.7673045409763E+00 -2.5402902643052E-01  2.6530735638772E-01
16  1.5000000000000E-01  1.8055731254821E+00 -1.1599284805167E-01  3.1070868611371E-01
17  1.6000000000000E-01  1.8362811299971E+00  2.0281445449703E-02  3.5203803942903E-01
18  1.7000000000000E-01  1.8608379958089E+00  1.4890775905193E-01  3.8741384518749E-01
19  1.8000000000000E-01  1.8804996829419E+00  2.6467655281055E-01  4.1515749667321E-01
20  1.9000000000000E-01  1.8962916259655E+00  3.6332768684085E-01  4.3387783183568E-01
21  2.0000000000000E-01  1.9089466836275E+00  4.4177157148387E-01  4.4254273332068E-01
22  2.1000000000000E-01  1.9188614043665E+00  4.9824708509877E-01  4.4053438877399E-01
23  2.2000000000000E-01  1.9260729603404E+00  5.3240801383070E-01  4.2768555294330E-01
24  2.3000000000000E-01  1.9302580097321E+00  5.4533348659060E-01  4.0429508171177E-01
25  2.4000000000000E-01  1.9307535877499E+00  5.3946183107899E-01  3.7112201787867E-01
26  2.5000000000000E-01  1.9265989613578E+00  5.1845125767705E-01  3.2935854892059E-01
27  2.6000000000000E-01  1.9165962721342E+00  4.8697458073881E-01  2.8058317644742E-01
28  2.7000000000000E-01  1.8993867936419E+00  4.5045861400028E-01  2.2669638521471E-01
29  2.8000000000000E-01  1.8735387963225E+00  4.1478175097412E-01  1.6984192977860E-01
30  2.9000000000000E-01  1.8376423875681E+00  3.8594541377654E-01  1.1231752871588E-01
31  3.0000000000000E-01  1.7904063098146E+00  3.6973641298134E-01  5.6479237445094E-02
32  3.1000000000000E-01  1.7307515551539E+00  3.7139773752149E-01  4.6440384821284E-03
33  3.2000000000000E-01  1.6578967974127E+00  3.9532486409631E-01 -4.1004769350538E-02
34  3.3000000000000E-01  1.5714310442801E+00  4.4480336405186E-01 -7.8504984082448E-02
35  3.4000000000000E-01  1.4713695517520E+00  5.2180146217340E-01 -1.0619171493776E-01
36  3.5000000000000E-01  1.3581898873782E+00  6.2682837842142E-01 -1.2275898722360E-01
37  3.6000000000000E-01  1.2328460334047E+00  7.5886590863741E-01 -1.2730407960683E-01
38  3.7000000000000E-01  1.0967595334844E+00  9.1537695037359E-01 -1.1935281098651E-01
39  3.8000000000000E-01  9.5178784925911E-01  1.0923907508876E+00 -9.8864947526229E-02
40  3.9000000000000E-01  8.0017124543119E-01  1.2846607503992E+00 -6.6219883279205E-02
41  4.0000000000000E-01  6.4446060431304E-01  1.4858872170998E+00 -2.2183710714490E-02
42  4.1000000000000E-01  4.8742952752443E-01  1.6889936106795E+00  3.2140307744114E-02
43  4.2000000000000E-01  3.3197486456858E-01  1.8864429350061E+00  9.5375073469531E-02
44  4.3000000000000E-01  1.8101037589174E-01  2.0705783834490E+00  1.6594336465887E-01
45  4.4000000000000E-01  3.7358563583678E-02  2.2339714390901E+00  2.4214805059786E-01
46  4.5000000000000E-01 -9.6354229175343E-02  2.3697603202759E+00  3.2225467796770E-01
47  4.6000000000000E-01 -2.1779454012031E-01  2.4719622671406E+00  4.0457225982760E-01
48  4.7000000000000E-01 -3.2500586017124E-01  2.5357446083392E+00  4.8752826802719E-01
49  4.8000000000000E-01 -4.1647624579594E-01  2.5576417467818E+00  5.6973419878475E-01
50  4.9000000000000E-01 -4.9118650835946E-01  2.5357080371790E+00  6.5003862763292E-01
51  5.0000000000000E-01 -5.4863700456451E-01  2.4695998426522E+00  7.2756536368069E-01
52  5.1000000000000E-01 -5.8885212660752E-01  2.3605836746371E+00  8.0173511687527E-01
53  5.2000000000000E-01 -6.1236269557860E-01  2.2114710476987E+00  8.7226996325991E-01
54  5.3000000000000E-01 -6.2016753897291E-01  2.0264843226358E+00  9.3918078682965E-01
55  5.4000000000000E-01 -6.1367652714847E-01  1.8110611781434E+00  1.0027387467309E+00
56  5.5000000000000E-01 -5.9463820348449E-01  1.5716082709995E+00  1.0634326213865E+00
57  5.6000000000000E-01 -5.6505582593348E-01  1.3152169707120E+00  1.1219145768953E+00
58  5.7000000000000E-01 -5.2709611079577E-01  1.0493556741510E+00  1.1789374621658E+00
59  5.8000000000000E-01 -4.8299521171666E-01  7.8155404541340E-01  1.2352871218644E+00
60  5.9000000000000E-01 -4.3496646971719E-01  5.1909455557708E-01  1.2917134235156E+00
61  6.0000000000000E-01 -3.8511423814607E-01  2.6872592965907E-01  1.3488637098570E+00
62  6.1000000000000E-01 -3.3535763703427E-01  3.6411600307915E-02  1.4072222145397E+00
63  6.2000000000000E-01 -2.8736745320765E-01 -1.7287588499300E-01  1.4670586307882E+00
64  6.3000000000000E-01 -2.4251861418242E-01 -3.5530622542808E-01  1.5283885197102E+00
65  6.4000000000000E-01 -2.0185977137248E-01 -5.0828324990680E-01  1.5909476160537E+00
66  6.5000000000000E-01 -1.6610058229884E-01 -6.3047529553767E-01  1.6541813686042E+00
67  6.6000000000000E-01 -1.3561633511935E-01 -7.2178528824098E-01  1.7172502782376E+00
68  6.7000000000000E-01 -1.1046866362157E-01 -7.8326480145684E-01  1.7790508088472E+00
69  6.8000000000000E-01 -9.0440304572736E-02 -8.1697911198466E-01  1.8382508844389E+00
70  6.9000000000000E-01 -7.5081193320611E-02 -8.2583254746409E-01  1.8933382869083E+00
71  7.0000000000000E-01 -6.3762710109840E-02 -8.1336511636502E-01  1.9426796661278E+00
72  7.1000000000000E-01 -5.5736600770813E-02 -7.8353245136141E-01  1.9845873940654E+00
73  7.2000000000000E-01 -5.0195011614221E-02 -7.4048144260530E-01  2.0173911575278E+00
74  7.3000000000000E-01 -4.6328198016110E-02 -6.8833359059398E-01  2.0395110017882E+00
75  7.4000000000000E-01 -4.3376776203200E-02 -6.3098711011415E-01  2.0495285134918E+00
76  7.5000000000000E-01 -4.0675864325296E-02 -5.7194724453949E-01  2.0462529614507E+00
77  7.6000000000000E-01 -3.7689069174818E-02 -5.1419221176902E-01  2.0287794862272E+00
78  7.7000000000000E-01 -3.4030979171283E-02 -4.6007983109893E-01  1.9965368253020E+00
79  7.8000000000000E-01 -2.9477578047695E-02 -4.1129732256540E-01  1.9493225562526E+00
80  7.9000000000000E-01 -2.3964751093612E-02 -3.6885418087655E-01  1.8873244083160E+00
81  8.0000000000000E-01 -1.7575771716307E-02 -3.3311555691082E-01  1.8111268034934E+00
82  8.1000000000000E-01 -1.0519289171787E-02 -3.0387137076375E-01  1.7217024123662E+00
83  8.2000000000000E-01 -3.0998533878397E-03 -2.8043455152506E-01  1.6203891189129E+00
84  8.3000000000000E-01  4.3166170895537E-03 -2.6176044327623E-01  1.5088533578145E+00
85  8.4000000000000E-01  1.1339809976013E-02 -2.4657859469897E-01  1.3890412964556E+00
86  8.5000000000000E-01  1.7591783356933E-02 -2.3352788599057E-01  1.2631197668863E+00
87  8.6000000000000E-01  2.2740989571738E-02 -2.2128622912855E-01  1.1334092013758E+00
88  8.7000000000000E-01  2.6531301670753E-02 -2.0868685740887E-01  1.0023110861905E+00
89  8.8000000000000E-01  2.8804180077742E-02 -1.9481441579144E-01  8.7223262546080E-01
90  8.9000000000000E-01  2.9512600575694E-02 -1.7907556471650E-01  7.4551140986224E-01
91  9.0000000000000E-01  2.8725896417412E-02 -1.6124048439568E-01  6.2434292769686E-01
92  9.1000000000000E-01  2.6625202585912E-02 -1.4145336731628E-01  5.1071375714699E-01
93  9.2000000000000E-01  2.3489682605009E-02 -1.2021156072220E-01  4.0634325897023E-01
94  9.3000000000000E-01  1.9674122189722E-02 -9.8314317002825E-02  3.1263657105538E-01
95  9.4000000000000E-01  1.5578471348280E-02 -7.6782142178747E-02  2.3065164595827E-01
96  9.5000000000000E-01  1.1612470424864E-02 -5.6755582433307E-02  1.6108371563996E-01
97  9.6000000000000E-01  7.8835493269098E-03 -3.8535833562280E-02  1.0420342612822E-01
98  9.7000000000000E-01  4.4199472755816E-03 -2.2257692329779E-02  5.9947975938144E-02
99  9.8000000000000E-01  1.8435630295599E-03 -9.9589586701859E-03  2.8156166586492E-02
100  9.9000000000000E-01  4.2202365777199E-04 -2.6472867331495E-03  8.4381686788566E-03
101  1.0000000000000E+00  9.7971977606968E-06 -9.4178327036191E-05  3.8445327352038E-04
102  1.0100000000000E+00  6.8725708135547E-07 -6.3509607254824E-06  2.5316639938261E-05
103  1.0200000000000E+00 -3.9323883673798E-08  3.0004119872045E-07 -1.0877628882316E-06
104  1.03  0.  0.  0.
105  1.04  0.  0.  0.
106  1.05  0.  0.  0.
107  1.06  0.  0.  0.
108  1.07  0.  0.  0.
109  1.08  0.  0.  0.
110  1.09  0.  0.  0.
111  1.10  0.  0.  0.
112  1.11  0.  0.  0.
113  1.12  0.  0.  0.
114  1.13  0.  0.  0.
115  1.14  0.  0.  0.
116  1.15  0.  0.  0.
117  1.16  0.  0.  0.
118  1.17  0.  0.  0.
119  1.18  0.  0.  0.
120  1.19  0.  0.  0.
121  1.20  0.  0.  0.
122  1.21  0.  0.  0.
123  1.22  0.  0.  0.
124  1.23  0.  0.  0.
125  1.24  0.  0.  0.
126  1.25  0.  0.  0.
127  1.26  0.  0.  0.
128  1.27  0.  0.  0.
129  1.28  0.  0.  0.
130  1.29  0.  0.  0.
131  1.30  0.  0.  0.
132  1.31  0.  0.  0.
133  1.32  0.  0.  0.
134  1.33  0.  0.  0.
135  1.34  0.  0.  0.
136  1.35  0.  0.  0.
137  1.36  0.  0.  0.
138  1.37  0.  0.  0.
139  1.38  0.  0.  0.
140  1.39  0.  0.  0.
141  1.40  0.  0.  0.
142  1.41  0.  0.  0.
143  1.42  0.  0.  0.
144  1.43  0.  0.  0.
145  1.44  0.  0.  0.
146  1.45  0.  0.  0.
147  1.46  0.  0.  0.
148  1.47  0.  0.  0.
149  1.48  0.  0.  0.
150  1.49  0.  0.  0.
151  1.50  0.  0.  0.
152  1.51  0.  0.  0.
153  1.52  0.  0.  0.
154  1.53  0.  0.  0.
155  1.54  0.  0.  0.
156  1.55  0.  0.  0.
157  1.56  0.  0.  0.
158  1.57  0.  0.  0.
159  1.58  0.  0.  0.
160  1.59  0.  0.  0.
161  1.60  0.  0.  0.
162  1.61  0.  0.  0.
163  1.62  0.  0.  0.
164  1.63  0.  0.  0.
165  1.64  0.  0.  0.
166  1.65  0.  0.  0.
167  1.66  0.  0.  0.
168  1.67  0.  0.  0.
169  1.68  0.  0.  0.
170  1.69  0.  0.  0.
171  1.70  0.  0.  0.
172  1.71  0.  0.  0.
173  1.72  0.  0.  0.
174  1.73  0.  0.  0.
175  1.74  0.  0.  0.
176  1.75  0.  0.  0.
177  1.76  0.  0.  0.
178  1.77  0.  0.  0.
179  1.78  0.  0.  0.
180  1.79  0.  0.  0.
181  1.80  0.  0.  0.
182  1.81  0.  0.  0.
183  1.82  0.  0.  0.
184  1.83  0.  0.  0.
185  1.84  0.  0.  0.
186  1.85  0.  0.  0.
187  1.86  0.  0.  0.
188  1.87  0.  0.  0.
189  1.88  0.  0.  0.
190  1.89  0.  0.  0.
191  1.90  0.  0.  0.
192  1.91  0.  0.  0.
193  1.92  0.  0.  0.
194  1.93  0.  0.  0.
195  1.94  0.  0.  0.
196  1.95  0.  0.  0.
197  1.96  0.  0.  0.
198  1.97  0.  0.  0.
199  1.98  0.  0.  0.
200  1.99  0.  0.  0.
201  2.00  0.  0.  0.
202  2.01  0.  0.  0.
203  2.02  0.  0.  0.
204  2.03  0.  0.  0.
205  2.04  0.  0.  0.
206  2.05  0.  0.  0.
207  2.06  0.  0.  0.
208  2.07  0.  0.  0.
209  2.08  0.  0.  0.
210  2.09  0.  0.  0.
211  2.10  0.  0.  0.
212  2.11  0.  0.  0.
213  2.12  0.  0.  0.
214  2.13  0.  0.  0.
215  2.14  0.  0.  0.
216  2.15  0.  0.  0.
217  2.16  0.  0.  0.
218  2.17  0.  0.  0.
219  2.18  0.  0.  0.
220  2.19  0.  0.  0.
221  2.20  0.  0.  0.
222  2.21  0.  0.  0.
223  2.22  0.  0.  0.
224  2.23  0.  0.  0.
225  2.24  0.  0.  0.
226  2.25  0.  0.  0.
227  2.26  0.  0.  0.
228  2.27  0.  0.  0.
229  2.28  0.  0.  0.
230  2.29  0.  0.  0.
231  2.30  0.  0.  0.
232  2.31  0.  0.  0.
233  2.32  0.  0.  0.
234  2.33  0.  0.  0.
235  2.34  0.  0.  0.
236  2.35  0.  0.  0.
237  2.36  0.  0.  0.
238  2.37  0.  0.  0.
239  2.38  0.  0.  0.
240  2.39  0.  0.  0.
241  2.40  0.  0.  0.
242  2.41  0.  0.  0.
243  2.42  0.  0.  0.
244  2.43  0.  0.  0.
245  2.44  0.  0.  0.
246  2.45  0.  0.  0.
247  2.46  0.  0.  0.
248  2.47  0.  0.  0.
249  2.48  0.  0.  0.
250  2.49  0.  0.  0.
251  2.50  0.  0.  0.
252  2.51  0.  0.  0.
253  2.52  0.  0.  0.
254  2.53  0.  0.  0.
255  2.54  0.  0.  0.
256  2.55  0.  0.  0.
257  2.56  0.  0.  0.
258  2.57  0.  0.  0.
259  2.58  0.  0.  0.
260  2.59  0.  0.  0.
261  2.60  0.  0.  0.
262  2.61  0.  0.  0.
263  2.62  0.  0.  0.
264  2.63  0.  0.  0.
265  2.64  0.  0.  0.
266  2.65  0.  0.  0.
267  2.66  0.  0.  0.
268  2.67  0.  0.  0.
269  2.68  0.  0.  0.
270  2.69  0.  0.  0.
271  2.70  0.  0.  0.
272  2.71  0.  0.  0.
273  2.72  0.  0.  0.
274  2.73  0.  0.  0.
275  2.74  0.  0.  0.
276  2.75  0.  0.  0.
277  2.76  0.  0.  0.
278  2.77  0.  0.  0.
279  2.78  0.  0.  0.
280  2.79  0.  0.  0.
281  2.80  0.  0.  0.
282  2.81  0.  0.  0.
283  2.82  0.  0.  0.
284  2.83  0.  0.  0.
285  2.84  0.  0.  0.
286  2.85  0.  0.  0.
287  2.86  0.  0.  0.
288  2.87  0.  0.  0.
289  2.88  0.  0.  0.
290  2.89  0.  0.  0.
291  2.90  0.  0.  0.
292  2.91  0.  0.  0.
293  2.92  0.  0.  0.
294  2.93  0.  0.  0.
295  2.94  0.  0.  0.
296  2.95  0.  0.  0.
297  2.96  0.  0.  0.
298  2.97  0.  0.  0.
299  2.98  0.  0.  0.
300  2.99  0.  0.  0.
301  3.00  0.  0.  0.
302  3.01  0.  0.  0.
303  3.02  0.  0.  0.
304  3.03  0.  0.  0.
305  3.04  0.  0.  0.
306  3.05  0.  0.  0.
307  3.06  0.  0.  0.
308  3.07  0.  0.  0.
309  3.08  0.  0.  0.
310  3.09  0.  0.  0.
311  3.10  0.  0.  0.
312  3.11  0.  0.  0.
313  3.12  0.  0.  0.
314  3.13  0.  0.  0.
315  3.14  0.  0.  0.
316  3.15  0.  0.  0.
317  3.16  0.  0.  0.
318  3.17  0.  0.  0.
319  3.18  0.  0.  0.
320  3.19  0.  0.  0.
321  3.20  0.  0.  0.
322  3.21  0.  0.  0.
323  3.22  0.  0.  0.
324  3.23  0.  0.  0.
325  3.24  0.  0.  0.
326  3.25  0.  0.  0.
327  3.26  0.  0.  0.
328  3.27  0.  0.  0.
329  3.28  0.  0.  0.
330  3.29  0.  0.  0.
331  3.30  0.  0.  0.
332  3.31  0.  0.  0.
333  3.32  0.  0.  0.
334  3.33  0.  0.  0.
335  3.34  0.  0.  0.
336  3.35  0.  0.  0.
337  3.36  0.  0.  0.
338  3.37  0.  0.  0.
339  3.38  0.  0.  0.
340  3.39  0.  0.  0.
341  3.40  0.  0.  0.
342  3.41  0.  0.  0.
343  3.42  0.  0.  0.
344  3.43  0.  0.  0.
345  3.44  0.  0.  0.
346  3.45  0.  0.  0.
347  3.46  0.  0.  0.
348  3.47  0.  0.  0.
349  3.48  0.  0.  0.
350  3.49  0.  0.  0.
351  3.50  0.  0.  0.
352  3.51  0.  0.  0.
353  3.52  0.  0.  0.
354  3.53  0.  0.  0.
355  3.54  0.  0.  0.
356  3.55  0.  0.  0.
357  3.56  0.  0.  0.
358  3.57  0.  0.  0.
359  3.58  0.  0.  0.
360  3.59  0.  0.  0.
361  3.60  0.  0.  0.
362  3.61  0.  0.  0.
363  3.62  0.  0.  0.
364  3.63  0.  0.  0.
365  3.64  0.  0.  0.
366  3.65  0.  0.  0.
367  3.66  0.  0.  0.
368  3.67  0.  0.  0.
369  3.68  0.  0.  0.
370  3.69  0.  0.  0.
371  3.70  0.  0.  0.
372  3.71  0.  0.  0.
373  3.72  0.  0.  0.
374  3.73  0.  0.  0.
375  3.74  0.  0.  0.
376  3.75  0.  0.  0.
377  3.76  0.  0.  0.
378  3.77  0.  0.  0.
379  3.78  0.  0.  0.
380  3.79  0.  0.  0.
381  3.80  0.  0.  0.
382  3.81  0.  0.  0.
383  3.82  0.  0.  0.
384  3.83  0.  0.  0.
385  3.84  0.  0.  0.
386  3.85  0.  0.  0.
387  3.86  0.  0.  0.
388  3.87  0.  0.  0.
389  3.88  0.  0.  0.
390  3.89  0.  0.  0.
391  3.90  0.  0.  0.
392  3.91  0.  0.  0.
393  3.92  0.  0.  0.
394  3.93  0.  0.  0.
395  3.94  0.  0.  0.
396  3.95  0.  0.  0.
397  3.96  0.  0.  0.
398  3.97  0.  0.  0.
399  3.98  0.  0.  0.
400  3.99  0.  0.  0.
401  4.00  0.  0.  0.
402  4.01  0.  0.  0.
403  4.02  0.  0.  0.
404  4.03  0.  0.  0.
405  4.04  0.  0.  0.
406  4.05  0.  0.  0.
407  4.06  0.  0.  0.
408  4.07  0.  0.  0.
409  4.08  0.  0.  0.
410  4.09  0.  0.  0.
411  4.10  0.  0.  0.
412  4.11  0.  0.  0.
413  4.12  0.  0.  0.
414  4.13  0.  0.  0.
415  4.14  0.  0.  0.
416  4.15  0.  0.  0.
417  4.16  0.  0.  0.
418  4.17  0.  0.  0.
419  4.18  0.  0.  0.
420  4.19  0.  0.  0.
421  4.20  0.  0.  0.
422  4.21  0.  0.  0.
423  4.22  0.  0.  0.
424  4.23  0.  0.  0.
425  4.24  0.  0.  0.
426  4.25  0.  0.  0.
427  4.26  0.  0.  0.
428  4.27  0.  0.  0.
429  4.28  0.  0.  0.
430  4.29  0.  0.  0.
431  4.30  0.  0.  0.
432  4.31  0.  0.  0.
433  4.32  0.  0.  0.
434  4.33  0.  0.  0.
435  4.34  0.  0.  0.
436  4.35  0.  0.  0.
437  4.36  0.  0.  0.
438  4.37  0.  0.  0.
439  4.38  0.  0.  0.
440  4.39  0.  0.  0.
441  4.40  0.  0.  0.
442  4.41  0.  0.  0.
443  4.42  0.  0.  0.
444  4.43  0.  0.  0.
445  4.44  0.  0.  0.
446  4.45  0.  0.  0.
447  4.46  0.  0.  0.
448  4.47  0.  0.  0.
449  4.48  0.  0.  0.
450  4.49  0.  0.  0.
451  4.50  0.  0.  0.
452  4.51  0.  0.  0.
453  4.52  0.  0.  0.
454  4.53  0.  0.  0.
455  4.54  0.  0.  0.
456  4.55  0.  0.  0.
457  4.56  0.  0.  0.
458  4.57  0.  0.  0.
459  4.58  0.  0.  0.
460  4.59  0.  0.  0.
461  4.60  0.  0.  0.
462  4.61  0.  0.  0.
463  4.62  0.  0.  0.
464  4.63  0.  0.  0.
465  4.64  0.  0.  0.
466  4.65  0.  0.  0.
467  4.66  0.  0.  0.
468  4.67  0.  0.  0.
469  4.68  0.  0.  0.
470  4.69  0.  0.  0.
471  4.70  0.  0.  0.
472  4.71  0.  0.  0.
473  4.72  0.  0.  0.
474  4.73  0.  0.  0.
475  4.74  0.  0.  0.
476  4.75  0.  0.  0.
477  4.76  0.  0.  0.
478  4.77  0.  0.  0.
479  4.78  0.  0.  0.
480  4.79  0.  0.  0.
481  4.80  0.  0.  0.
482  4.81  0.  0.  0.
483  4.82  0.  0.  0.
484  4.83  0.  0.  0.
485  4.84  0.  0.  0.
486  4.85  0.  0.  0.
487  4.86  0.  0.  0.
488  4.87  0.  0.  0.
489  4.88  0.  0.  0.
490  4.89  0.  0.  0.
491  4.90  0.  0.  0.
492  4.91  0.  0.  0.
493  4.92  0.  0.  0.
494  4.93  0.  0.  0.
495  4.94  0.  0.  0.
496  4.95  0.  0.  0.
497  4.96  0.  0.  0.
498  4.97  0.  0.  0.
499  4.98  0.  0.  0.
500  4.99  0.  0.  0.
501  5.00  0.  0.  0.
502  5.01  0.  0.  0.
503  5.02  0.  0.  0.
504  5.03  0.  0.  0.
505  5.04  0.  0.  0.
506  5.05  0.  0.  0.
507  5.06  0.  0.  0.
508  5.07  0.  0.  0.
509  5.08  0.  0.  0.
510  5.09  0.  0.  0.
511  5.10  0.  0.  0.
512  5.11  0.  0.  0.
513  5.12  0.  0.  0.
514  5.13  0.  0.  0.
515  5.14  0.  0.  0.
516  5.15  0.  0.  0.
517  5.16  0.  0.  0.
518  5.17  0.  0.  0.
519  5.18  0.  0.  0.
520  5.19  0.  0.  0.
521  5.20  0.  0.  0.
522  5.21  0.  0.  0.
523  5.22  0.  0.  0.
524  5.23  0.  0.  0.
525  5.24  0.  0.  0.
526  5.25  0.  0.  0.
527  5.26  0.  0.  0.
528  5.27  0.  0.  0.
529  5.28  0.  0.  0.
530  5.29  0.  0.  0.
531  5.30  0.  0.  0.
532  5.31  0.  0.  0.
533  5.32  0.  0.  0.
534  5.33  0.  0.  0.
535  5.34  0.  0.  0.
536  5.35  0.  0.  0.
537  5.36  0.  0.  0.
538  5.37  0.  0.  0.
539  5.38  0.  0.  0.
540  5.39  0.  0.  0.
541  5.40  0.  0.  0.
542  5.41  0.  0.  0.
543  5.42  0.  0.  0.
544  5.43  0.  0.  0.
545  5.44  0.  0.  0.
546  5.45  0.  0.  0.
547  5.46  0.  0.  0.
548  5.47  0.  0.  0.
549  5.48  0.  0.  0.
550  5.49  0.  0.  0.
551  5.50  0.  0.  0.
552  5.51  0.  0.  0.
553  5.52  0.  0.  0.
554  5.53  0.  0.  0.
555  5.54  0.  0.  0.
556  5.55  0.  0.  0.
557  5.56  0.  0.  0.
558  5.57  0.  0.  0.
559  5.58  0.  0.  0.
560  5.59  0.  0.  0.
561  5.60  0.  0.  0.
562  5.61  0.  0.  0.
563  5.62  0.  0.  0.
564  5.63  0.  0.  0.
565  5.64  0.  0.  0.
566  5.65  0.  0.  0.
567  5.66  0.  0.  0.
568  5.67  0.  0.  0.
569  5.68  0.  0.  0.
570  5.69  0.  0.  0.
571  5.70  0.  0.  0.
572  5.71  0.  0.  0.
573  5.72  0.  0.  0.
574  5.73  0.  0.  0.
575  5.74  0.  0.  0.
576  5.75  0.  0.  0.
577  5.76  0.  0.  0.
578  5.77  0.  0.  0.
579  5.78  0.  0.  0.
580  5.79  0.  0.  0.
581  5.80  0.  0.  0.
582  5.81  0.  0.  0.
583  5.82  0.  0.  0.
584  5.83  0.  0.  0.
585  5.84  0.  0.  0.
586  5.85  0.  0.  0.
587  5.86  0.  0.  0.
588  5.87  0.  0.  0.
589  5.88  0.  0.  0.
590  5.89  0.  0.  0.
591  5.90  0.  0.  0.
592  5.91  0.  0.  0.
593  5.92  0.  0.  0.
594  5.93  0.  0.  0.
595  5.94  0.  0.  0.
596  5.95  0.  0.  0.
597  5.96  0.  0.  0.
598  5.97  0.  0.  0.
599  5.98  0.  0.  0.
600  5.99  0.  0.  0.
1                         1.6460397335648E+01 -1.2984387088007E+00
1  0.0000000000000E+00  1.4279845084175E-09 -4.2168751684946E-07
2  1.0000000000000E-02  4.2509595454590E-03  2.9332413330831E-03
3  2.0000000000000E-02  1.6968656285848E-02  1.1777229162150E-02
4  3.0000000000000E-02  3.8047790762328E-02  2.6658971894574E-02
5  4.0000000000000E-02  6.7313684334971E-02  4.7771221910508E-02
6  5.0000000000000E-02  1.0452350874657E-01  7.5345285008620E-02
7  6.0000000000000E-02  1.4936800507391E-01  1.0961529227209E-01
8  7.0000000000000E-02  2.0147368918982E-01  1.5077612431618E-01
9  8.0000000000000E-02  2.6040553943154E-01  1.9893759956631E-01
10  9.0000000000000E-02  3.2567016032273E-01  2.5407782112699E-01
11  1.0000000000000E-01  3.9671941387245E-01  3.1599870505168E-01
12  1.1000000000000E-01  4.7295450713802E-01  3.8428667833985E-01
13  1.2000000000000E-01  5.5373052137633E-01  4.5828133795620E-01
14  1.3000000000000E-01  6.3836136422904E-01  5.3705451106559E-01
15  1.4000000000000E-01  7.2612512202518E-01  6.1940166790825E-01
16  1.5000000000000E-01  8.1626978449590E-01  7.0384703585815E-01
17  1.6000000000000E-01  9.0801930905994E-01  7.8866307580753E-01
18  1.7000000000000E-01  1.0005799864539E+00  8.7190424429501E-01
19  1.8000000000000E-01  1.0931470639651E+00  9.5145421387703E-01
20  1.9000000000000E-01  1.1849115770084E+00  1.0250849983709E+00
21  2.0000000000000E-01  1.2750673344132E+00  1.0905257662228E+00
22  2.1000000000000E-01  1.3628179977030E+00  1.1455385591553E+00
23  2.2000000000000E-01  1.4473841900047E+00  1.1879976947698E+00
24  2.3000000000000E-01  1.5280105661741E+00  1.2159693452659E+00
25  2.4000000000000E-01  1.6039727724009E+00  1.2277876669404E+00
26  2.5000000000000E-01  1.6745842211026E+00  1.2221239154709E+00
27  2.6000000000000E-01  1.7392026054414E+00  1.1980452202101E+00
28  2.7000000000000E-01  1.7972360774072E+00  1.1550600979566E+00
29  2.8000000000000E-01  1.8481490141762E+00  1.0931483454923E+00
30  2.9000000000000E-01  1.8914672994385E+00  1.0127736352928E+00
31  3.0000000000000E-01  1.9267830496129E+00  9.1487791826896E-01
32  3.1000000000000E-01  1.9537587193454E+00  8.0085757400376E-01
33  3.2000000000000E-01  1.9721305263835E+00  6.7252210211232E-01
34  3.3000000000000E-01  1.9817111427926E+00  5.3203697601741E-01
35  3.4000000000000E-01  1.9823916074510E+00  3.8185304114630E-01
36  3.5000000000000E-01  1.9741424237247E+00  2.2462549455781E-01
37  3.6000000000000E-01  1.9570138160624E+00  6.3125998195930E-02
38  3.7000000000000E-01  1.9311351298179E+00 -9.9848174328383E-02
39  3.8000000000000E-01  1.8967133697403E+00 -2.6156389704902E-01
40  3.9000000000000E-01  1.8540308840986E+00 -4.1943683413342E-01
41  4.0000000000000E-01  1.8034422131353E+00 -5.7110717900985E-01
42  4.1000000000000E-01  1.7453701322822E+00 -7.1450312993105E-01
43  4.2000000000000E-01  1.6803009321227E+00 -8.4788933943705E-01
44  4.3000000000000E-01  1.6087789882433E+00 -9.6989831663950E-01
45  4.4000000000000E-01  1.5314006846964E+00 -1.0795436112851E+00
46  4.5000000000000E-01  1.4488077645963E+00 -1.1762145258899E+00
47  4.6000000000000E-01  1.3616801902217E+00 -1.2596530414862E+00
48  4.7000000000000E-01  1.2707286027232E+00 -1.3299145564200E+00
49  4.8000000000000E-01  1.1766864779932E+00 -1.3873148793300E+00
50  4.9000000000000E-01  1.0803020803059E+00 -1.4323666429095E+00
51  5.0000000000000E-01  9.8233031887437E-01 -1.4657088753168E+00
52  5.1000000000000E-01  8.8352461440634E-01 -1.4880338493397E+00
53  5.2000000000000E-01  7.8462888301206E-01 -1.5000155026620E+00
54  5.3000000000000E-01  6.8636974338923E-01 -1.5022436730730E+00
55  5.4000000000000E-01  5.8944905007636E-01 -1.4951681185071E+00
56  5.5000000000000E-01  4.9453685074996E-01 -1.4790558030615E+00
57  5.6000000000000E-01  4.0226485909544E-01 -1.4539642474056E+00
58  5.7000000000000E-01  3.1322052679036E-01 -1.4197328963425E+00
59  5.8000000000000E-01  2.2794178871477E-01 -1.3759934877506E+00
60  5.9000000000000E-01  1.4691254478993E-01 -1.3221993628796E+00
61  6.0000000000000E-01  7.0558930012671E-02 -1.2576725900719E+00
62  6.1000000000000E-01 -7.5358850552504E-04 -1.1816667368878E+00
63  6.2000000000000E-01 -6.6722262149654E-02 -1.0934421735033E+00
64  6.3000000000000E-01 -1.2710824764936E-01 -9.9234997428470E-01
65  6.4000000000000E-01 -1.8173693289708E-01 -8.7791985013888E-01
66  6.5000000000000E-01 -2.3049741856441E-01 -7.4994712905117E-01
67  6.6000000000000E-01 -2.7334118611903E-01 -6.0857363355716E-01
68  6.7000000000000E-01 -3.1027999602558E-01 -4.5435739740038E-01
69  6.8000000000000E-01 -3.4138307223778E-01 -2.8832652234209E-01
70  6.9000000000000E-01 -3.6677364029957E-01 -1.1201308976385E-01
71  7.0000000000000E-01 -3.8662489623728E-01  7.2536112662552E-02
72  7.1000000000000E-01 -4.0115549172827E-01  2.6277424667374E-01
73  7.2000000000000E-01 -4.1062462759485E-01  4.5569546556434E-01
74  7.3000000000000E-01 -4.1532685234824E-01  6.4790205710370E-01
75  7.4000000000000E-01 -4.1558666519098E-01  8.3569607551222E-01
76  7.5000000000000E-01 -4.1175302351649E-01  1.0151925526641E+00
77  7.6000000000000E-01 -4.0419385350712E-01  1.1824501724524E+00
78  7.7000000000000E-01 -3.9329065896298E-01  1.3336142392641E+00
79  7.8000000000000E-01 -3.7943331807795E-01  1.4650659276714E+00
80  7.9000000000000E-01 -3.6301515065139E-01  1.5735712128405E+00
81  8.0000000000000E-01 -3.4442832936445E-01  1.6564225863609E+00
82  8.1000000000000E-01 -3.2405969848427E-01  1.7115666839985E+00
83  8.2000000000000E-01 -3.0228705194973E-01  1.7377113002274E+00
84  8.3000000000000E-01 -2.7947591053608E-01  1.7344059346256E+00
85  8.4000000000000E-01 -2.5597682501259E-01  1.7020909882490E+00
86  8.5000000000000E-01 -2.3212321923749E-01  1.6421119711079E+00
87  8.6000000000000E-01 -2.0822977432442E-01  1.5566965496709E+00
88  8.7000000000000E-01 -1.8459134271199E-01  1.4488939004424E+00
89  8.8000000000000E-01 -1.6148236950962E-01  1.3224775786834E+00
90  8.9000000000000E-01 -1.3915678819460E-01  1.1818148918542E+00
91  9.0000000000000E-01 -1.1784834888500E-01  1.0317075149612E+00
92  9.1000000000000E-01 -9.7771330257852E-02  8.7720973048932E-01
93  9.2000000000000E-01 -7.9121580921032E-02  7.2343215422531E-01
94  9.3000000000000E-01 -6.2077832821667E-02  5.7534006226142E-01
95  9.4000000000000E-01 -4.6803245578419E-02  4.3755610342755E-01
96  9.5000000000000E-01 -3.3446988291975E-02  3.1418066726161E-01
97  9.6000000000000E-01 -2.2162407777724E-02  2.0831616889967E-01
98  9.7000000000000E-01 -1.3090818660686E-02  1.2223658158256E-01
99  9.8000000000000E-01 -6.3210792893064E-03  5.8234243593528E-02
100  9.9000000000000E-01 -1.9473680369101E-03  1.7589984232989E-02
101  1.0000000000000E+00 -9.1113263224637E-05  8.0171624504194E-04
102  1.0100000000000E+00 -6.0089470822936E-06  5.2909729479945E-05
103  1.0200000000000E+00  2.5550506351342E-07 -2.2717980828171E-06
104  1.03  0.  0.
105  1.04  0.  0.
106  1.05  0.  0.
107  1.06  0.  0.
108  1.07  0.  0.
109  1.08  0.  0.
110  1.09  0.  0.
111  1.10  0.  0.
112  1.11  0.  0.
113  1.12  0.  0.
114  1.13  0.  0.
115  1.14  0.  0.
116  1.15  0.  0.
117  1.16  0.  0.
118  1.17  0.  0.
119  1.18  0.  0.
120  1.19  0.  0.
121  1.20  0.  0.
122  1.21  0.  0.
123  1.22  0.  0.
124  1.23  0.  0.
125  1.24  0.  0.
126  1.25  0.  0.
127  1.26  0.  0.
128  1.27  0.  0.
129  1.28  0.  0.
130  1.29  0.  0.
131  1.30  0.  0.
132  1.31  0.  0.
133  1.32  0.  0.
134  1.33  0.  0.
135  1.34  0.  0.
136  1.35  0.  0.
137  1.36  0.  0.
138  1.37  0.  0.
139  1.38  0.  0.
140  1.39  0.  0.
141  1.40  0.  0.
142  1.41  0.  0.
143  1.42  0.  0.
144  1.43  0.  0.
145  1.44  0.  0.
146  1.45  0.  0.
147  1.46  0.  0.
148  1.47  0.  0.
149  1.48  0.  0.
150  1.49  0.  0.
151  1.50  0.  0.
152  1.51  0.  0.
153  1.52  0.  0.
154  1.53  0.  0.
155  1.54  0.  0.
156  1.55  0.  0.
157  1.56  0.  0.
158  1.57  0.  0.
159  1.58  0.  0.
160  1.59  0.  0.
161  1.60  0.  0.
162  1.61  0.  0.
163  1.62  0.  0.
164  1.63  0.  0.
165  1.64  0.  0.
166  1.65  0.  0.
167  1.66  0.  0.
168  1.67  0.  0.
169  1.68  0.  0.
170  1.69  0.  0.
171  1.70  0.  0.
172  1.71  0.  0.
173  1.72  0.  0.
174  1.73  0.  0.
175  1.74  0.  0.
176  1.75  0.  0.
177  1.76  0.  0.
178  1.77  0.  0.
179  1.78  0.  0.
180  1.79  0.  0.
181  1.80  0.  0.
182  1.81  0.  0.
183  1.82  0.  0.
184  1.83  0.  0.
185  1.84  0.  0.
186  1.85  0.  0.
187  1.86  0.  0.
188  1.87  0.  0.
189  1.88  0.  0.
190  1.89  0.  0.
191  1.90  0.  0.
192  1.91  0.  0.
193  1.92  0.  0.
194  1.93  0.  0.
195  1.94  0.  0.
196  1.95  0.  0.
197  1.96  0.  0.
198  1.97  0.  0.
199  1.98  0.  0.
200  1.99  0.  0.
201  2.00  0.  0.
202  2.01  0.  0.
203  2.02  0.  0.
204  2.03  0.  0.
205  2.04  0.  0.
206  2.05  0.  0.
207  2.06  0.  0.
208  2.07  0.  0.
209  2.08  0.  0.
210  2.09  0.  0.
211  2.10  0.  0.
212  2.11  0.  0.
213  2.12  0.  0.
214  2.13  0.  0.
215  2.14  0.  0.
216  2.15  0.  0.
217  2.16  0.  0.
218  2.17  0.  0.
219  2.18  0.  0.
220  2.19  0.  0.
221  2.20  0.  0.
222  2.21  0.  0.
223  2.22  0.  0.
224  2.23  0.  0.
225  2.24  0.  0.
226  2.25  0.  0.
227  2.26  0.  0.
228  2.27  0.  0.
229  2.28  0.  0.
230  2.29  0.  0.
231  2.30  0.  0.
232  2.31  0.  0.
233  2.32  0.  0.
234  2.33  0.  0.
235  2.34  0.  0.
236  2.35  0.  0.
237  2.36  0.  0.
238  2.37  0.  0.
239  2.38  0.  0.
240  2.39  0.  0.
241  2.40  0.  0.
242  2.41  0.  0.
243  2.42  0.  0.
244  2.43  0.  0.
245  2.44  0.  0.
246  2.45  0.  0.
247  2.46  0.  0.
248  2.47  0.  0.
249  2.48  0.  0.
250  2.49  0.  0.
251  2.50  0.  0.
252  2.51  0.  0.
253  2.52  0.  0.
254  2.53  0.  0.
255  2.54  0.  0.
256  2.55  0.  0.
257  2.56  0.  0.
258  2.57  0.  0.
259  2.58  0.  0.
260  2.59  0.  0.
261  2.60  0.  0.