Cm    ONCVPSP-4.0.1  r_core=   1.25060   1.25060   1.15013   1.35173
96.0000     36.0000      220322    zatom,zion,pspd
8      11   3     4   600     0    pspcod,pspxc,lmax,lloc,mmax,r2well
5.99000000  5.00000000  0.00000000    rchrg fchrg qchrg
3     2     2     2     0    nproj
1     1           extension_switch
0                         2.2639305909249E+01  2.9311449179256E+00 -5.0097176524726E-01
1  0.0000000000000E+00 -5.8782643197475E-09  2.0766200703459E-08  1.5374567119419E-08
2  1.0000000000000E-02  1.3907990268713E-01 -3.9044972980371E-02  2.5135209832112E-02
3  2.0000000000000E-02  2.7740836092160E-01 -7.7386681484703E-02  5.0296175934491E-02
4  3.0000000000000E-02  4.1423926864721E-01 -1.1433148203190E-01  7.5504763897944E-02
5  4.0000000000000E-02  5.4883713109794E-01 -1.4920477546462E-01  1.0077519661938E-01
6  5.0000000000000E-02  6.8048220828195E-01 -1.8136004057373E-01  1.2611057548328E-01
7  6.0000000000000E-02  8.0847546828846E-01 -2.1018729705821E-01  1.5149980111950E-01
8  7.0000000000000E-02  9.3214329423257E-01 -2.3512083303782E-01  1.7691500818493E-01
9  8.0000000000000E-02  1.0508418945318E+00 -2.5564605310193E-01  2.0230961324197E-01
10  9.0000000000000E-02  1.1639613731924E+00 -2.7130532757574E-01  2.2761705643137E-01
11  1.0000000000000E-01  1.2709294246501E+00 -2.8170275153432E-01  2.5275029678669E-01
12  1.1000000000000E-01  1.3712146262077E+00 -2.8650775221789E-01  2.7760209830905E-01
13  1.2000000000000E-01  1.4643293099678E+00 -2.8545751494534E-01  3.0204611996781E-01
14  1.3000000000000E-01  1.5498320050903E+00 -2.7835822939956E-01  3.2593879830033E-01
15  1.4000000000000E-01  1.6273294499338E+00 -2.6508518926739E-01  3.4912198695657E-01
16  1.5000000000000E-01  1.6964781818843E+00 -2.4558180768186E-01  3.7142629407268E-01
17  1.6000000000000E-01  1.7569857201890E+00 -2.1985763781602E-01  3.9267503643578E-01
18  1.7000000000000E-01  1.8086113636548E+00 -1.8798551147988E-01  4.1268870965490E-01
19  1.8000000000000E-01  1.8511666304577E+00 -1.5009792794917E-01  4.3128985655097E-01
20  1.9000000000000E-01  1.8845153713745E+00 -1.0638283992034E-01  4.4830820221763E-01
21  2.0000000000000E-01  1.9085735903997E+00 -5.7078993009959E-02  4.6358591408584E-01
22  2.1000000000000E-01  1.9233090078694E+00 -2.4709793265844E-03  4.7698283915258E-01
23  2.2000000000000E-01  1.9287404009022E+00  5.7115835728724E-02  4.8838156848969E-01
24  2.3000000000000E-01  1.9249367542119E+00  1.2132036105412E-01  4.9769218131386E-01
25  2.4000000000000E-01  1.9120162512630E+00  1.8975066133106E-01  5.0485652721455E-01
26  2.5000000000000E-01  1.8901451314713E+00  2.6198854845568E-01  5.0985191544908E-01
27  2.6000000000000E-01  1.8595364338941E+00  3.3759377958183E-01  5.1269409423822E-01
28  2.7000000000000E-01  1.8204486418444E+00  4.1610778235727E-01  5.1343942034918E-01
29  2.8000000000000E-01  1.7731842363541E+00  4.9705685431478E-01  5.1218613946454E-01
30  2.9000000000000E-01  1.7180881596968E+00  5.7995481125632E-01  5.0907472033987E-01
31  3.0000000000000E-01  1.6555461835504E+00  6.6430508785573E-01  5.0428720993608E-01
32  3.1000000000000E-01  1.5859831701330E+00  7.4960232156834E-01  4.9804560190118E-01
33  3.2000000000000E-01  1.5098612090715E+00  8.3533347726630E-01  4.9060923627893E-01
34  3.3000000000000E-01  1.4276776081275E+00  9.2097859384340E-01  4.8227127343271E-01
35  3.4000000000000E-01  1.3399627124539E+00  1.0060112544696E+00  4.7335430920768E-01
36  3.5000000000000E-01  1.2472775249875E+00  1.0898988984300E+00  4.6420522064648E-01
37  3.6000000000000E-01  1.1502111000536E+00  1.1721031039245E+00  4.5518935152883E-01
38  3.7000000000000E-01  1.0493776833756E+00  1.2520799773343E+00  4.4668416407595E-01
39  3.8000000000000E-01  9.4541357449019E-01  1.3292807849797E+00  4.3907249689812E-01
40  3.9000000000000E-01  8.3897369204967E-01  1.4031529581787E+00  4.3273557930977E-01
41  4.0000000000000E-01  7.3072782858526E-01  1.4731415915441E+00  4.2804595823798E-01
42  4.1000000000000E-01  6.2135658885200E-01  1.5386915382115E+00  4.2536049596986E-01
43  4.2000000000000E-01  5.1154701470737E-01  1.5992501845275E+00  4.2501359490010E-01
44  4.3000000000000E-01  4.0198790932807E-01  1.6542709612969E+00  4.2731079934293E-01
45  4.4000000000000E-01  2.9336488416109E-01  1.7032176197948E+00  4.3252291457264E-01
46  4.5000000000000E-01  1.8635516300541E-01  1.7455692693171E+00  4.4088076985912E-01
47  4.6000000000000E-01  8.1622188670364E-02  1.7808261401378E+00  4.5257073578569E-01
48  4.7000000000000E-01 -2.0189911610787E-02  1.8085160024521E+00  4.6773108705411E-01
49  4.8000000000000E-01 -1.1846193580043E-01  1.8282011393862E+00  4.8644928086389E-01
50  4.9000000000000E-01 -2.1260521652949E-01  1.8394857415813E+00  5.0876019840095E-01
51  5.0000000000000E-01 -3.0206714769183E-01  1.8420235633371E+00  5.3464537362683E-01
52  5.1000000000000E-01 -3.8633653960820E-01  1.8355256568573E+00  5.6403321007557E-01
53  5.2000000000000E-01 -4.6494871039564E-01  1.8197679826998E+00  5.9680016338622E-01
54  5.3000000000000E-01 -5.3749021959432E-01  1.7945986818887E+00  6.3277284544426E-01
55  5.4000000000000E-01 -6.0360315091002E-01  1.7599447888916E+00  6.7173098585021E-01
56  5.5000000000000E-01 -6.6298885421588E-01  1.7158181652207E+00  7.1341116848856E-01
57  5.6000000000000E-01 -7.1541106274736E-01  1.6623204409921E+00  7.5751124567961E-01
58  5.7000000000000E-01 -7.6069830965592E-01  1.5996467663372E+00  8.0369532010163E-01
59  5.8000000000000E-01 -7.9874557863771E-01  1.5280881958792E+00  8.5159917563281E-01
60  5.9000000000000E-01 -8.2951513601324E-01  1.4480325570815E+00  9.0083603262373E-01
61  6.0000000000000E-01 -8.5303650613475E-01  1.3599636864853E+00  9.5100250091957E-01
62  6.1000000000000E-01 -8.6940556800442E-01  1.2644589557969E+00  1.0016846051418E+00
63  6.2000000000000E-01 -8.7878276811376E-01  1.1621850514458E+00  1.0524637611494E+00
64  6.3000000000000E-01 -8.8139046233247E-01  1.0538920154194E+00  1.1029225899687E+00
65  6.4000000000000E-01 -8.7750941772624E-01  9.4040560063430E-01  1.1526504654668E+00
66  6.5000000000000E-01 -8.6747452299273E-01  8.2261803947688E-01  1.2012487042310E+00
67  6.6000000000000E-01 -8.5166977329122E-01  7.0147736807954E-01  1.2483353200295E+00
68  6.7000000000000E-01 -8.3052261113939E-01  5.7797549005150E-01  1.2935492803590E+00
69  6.8000000000000E-01 -8.0449771931518E-01  4.5313520046999E-01  1.3365542183900E+00
70  6.9000000000000E-01 -7.7409037392618E-01  3.2799642277367E-01  1.3770415695604E+00
71  7.0000000000000E-01 -7.3981947563987E-01  2.0360193674743E-01  1.4147331176205E+00
72  7.1000000000000E-01 -7.0222038420743E-01  8.0982894161180E-02  1.4493829495858E+00
73  7.2000000000000E-01 -6.6183768563898E-01 -3.8855570841386E-02  1.4807788323717E+00
74  7.3000000000000E-01 -6.1921802254854E-01 -1.5494832727592E-01  1.5087430354696E+00
75  7.4000000000000E-01 -5.7490311621614E-01 -2.6638352572896E-01  1.5331326335646E+00
76  7.5000000000000E-01 -5.2942310382885E-01 -3.7231488138112E-01  1.5538393302601E+00
77  7.6000000000000E-01 -4.8329030626351E-01 -4.7197269636513E-01  1.5707888489330E+00
78  7.7000000000000E-01 -4.3699353084050E-01 -5.6467338688331E-01  1.5839399391454E+00
79  7.8000000000000E-01 -3.9099299997356E-01 -6.4982731816335E-01  1.5932830470545E+00
80  7.9000000000000E-01 -3.4571598088911E-01 -7.2694479400367E-01  1.5988386960376E+00
81  8.0000000000000E-01 -3.0155317398539E-01 -7.9564009620176E-01  1.6006556195454E+00
82  8.1000000000000E-01 -2.5885589838498E-01 -8.5563352128846E-01  1.5988086823402E+00
83  8.2000000000000E-01 -2.1793409329151E-01 -9.0675141628497E-01  1.5933966191962E+00
84  8.3000000000000E-01 -1.7905513340186E-01 -9.4892427015882E-01  1.5845396123061E+00
85  8.4000000000000E-01 -1.4244343638193E-01 -9.8218297171501E-01  1.5723767206156E+00
86  8.5000000000000E-01 -1.0828082082080E-01 -1.0066533962454E+00  1.5570631666605E+00
87  8.6000000000000E-01 -7.6707554667035E-02 -1.0225495308018E+00  1.5387674798503E+00
88  8.7000000000000E-01 -4.7824017436888E-02 -1.0301653899373E+00  1.5176684901535E+00
89  8.8000000000000E-01 -2.1692884959875E-02 -1.0298660087152E+00  1.4939521634556E+00
90  8.9000000000000E-01  1.6582664468510E-03 -1.0220778263529E+00  1.4678082701188E+00
91  9.0000000000000E-01  2.2234048281161E-02 -1.0072787907811E+00  1.4394268821214E+00
92  9.1000000000000E-01  4.0068157873739E-02 -9.8598852050571E-01  1.4089947022120E+00
93  9.2000000000000E-01  5.5220204877858E-02 -9.5875885441185E-01  1.3766912413867E+00
94  9.3000000000000E-01  6.7772582381460E-02 -9.2616510162526E-01  1.3426848792579E+00
95  9.4000000000000E-01  7.7827491778832E-02 -8.8879827138348E-01  1.3071288661067E+00
96  9.5000000000000E-01  8.5504218870269E-02 -8.4725851632240E-01  1.2701573561161E+00
97  9.6000000000000E-01  9.0936742099176E-02 -8.0214996092744E-01  1.2318815990100E+00
98  9.7000000000000E-01  9.4271732160225E-02 -7.5407700943182E-01  1.1923864625961E+00
99  9.8000000000000E-01  9.5666975210521E-02 -7.0364213351748E-01  1.1517275120113E+00
100  9.9000000000000E-01  9.5290219327144E-02 -6.5144502895624E-01  1.1099289333962E+00
101  1.0000000000000E+00  9.3318405439433E-02 -5.9808290107191E-01  1.0669826607627E+00
102  1.0100000000000E+00  8.9937199408566E-02 -5.4415149060508E-01  1.0228491456087E+00
103  1.0200000000000E+00  8.5340690917339E-02 -4.9024628323968E-01  9.7746029992009E-01
104  1.0300000000000E+00  7.9731066875339E-02 -4.3696315613425E-01  9.3072524543319E-01
105  1.0400000000000E+00  7.3318001751288E-02 -3.8489750209210E-01  8.8253961596212E-01
106  1.0500000000000E+00  6.6317434042430E-02 -3.3464063470459E-01  8.3279928608590E-01
107  1.0600000000000E+00  5.8949316146176E-02 -2.8677201330267E-01  7.8141953970342E-01
108  1.0700000000000E+00  5.1433833775342E-02 -2.4184553354154E-01  7.2836084634368E-01
109  1.0800000000000E+00  4.3985489574002E-02 -2.0036780423485E-01  6.7366258326028E-01
110  1.0900000000000E+00  3.6804332317078E-02 -1.6276596861633E-01  6.1748623188513E-01
111  1.1000000000000E+00  3.0063518440074E-02 -1.2934236491087E-01  5.6016955416576E-01
112  1.1100000000000E+00  2.3892570461669E-02 -1.0021428421891E-01  5.0229111266134E-01
113  1.1200000000000E+00  1.8372686072166E-02 -7.5311157429613E-02  4.4462489892189E-01
114  1.1300000000000E+00  1.3555154524603E-02 -5.4469027232092E-02  3.8795392332398E-01
115  1.1400000000000E+00  9.4672105971791E-03 -3.7461430586854E-02  3.3302182107477E-01
116  1.1500000000000E+00  6.1131685380296E-03 -2.4007806609837E-02  2.8052677562786E-01
117  1.1600000000000E+00  3.4757150937085E-03 -1.3782044948472E-02  2.3111559991555E-01
118  1.1700000000000E+00  1.5172958008170E-03 -6.4209014282406E-03  1.8537825462203E-01
119  1.1800000000000E+00  1.8150696256190E-04 -1.5319808920828E-03  1.4384278544624E-01
120  1.1900000000000E+00 -6.0742745874879E-04  1.3043750651422E-03  1.0696870162491E-01
121  1.2000000000000E+00 -9.7317952759671E-04  2.6183007793157E-03  7.5103909801739E-02
122  1.2100000000000E+00 -1.0093026214866E-03  2.8168341943598E-03  4.8572555515759E-02
123  1.2200000000000E+00 -8.0539269635533E-04  2.2553481833766E-03  2.7650470773521E-02
124  1.2300000000000E+00 -4.7625106588944E-04  1.3233653972989E-03  1.2529503190266E-02
125  1.2400000000000E+00 -1.5545188841796E-04  4.2669149266036E-04  3.2845768318333E-03
126  1.2500000000000E+00 -2.4386743638003E-06  6.5746759306375E-06  4.2576409081672E-05
127  1.2600000000000E+00 -1.0946330410337E-06  2.9762125972872E-06  1.9684341862427E-05
128  1.2700000000000E+00  2.0881136306874E-07 -5.7083920518630E-07 -4.1092183271006E-06
129  1.28 -0.  0. -0.
130  1.29  0.  0.  0.
131  1.30  0.  0.  0.
132  1.31  0.  0.  0.
133  1.32  0.  0.  0.
134  1.33  0.  0.  0.
135  1.34  0.  0.  0.
136  1.35  0.  0.  0.
137  1.36  0.  0.  0.
138  1.37  0.  0.  0.
139  1.38  0.  0.  0.
140  1.39  0.  0.  0.
141  1.40  0.  0.  0.
142  1.41  0.  0.  0.
143  1.42  0.  0.  0.
144  1.43  0.  0.  0.
145  1.44  0.  0.  0.
146  1.45  0.  0.  0.
147  1.46  0.  0.  0.
148  1.47  0.  0.  0.
149  1.48  0.  0.  0.
150  1.49  0.  0.  0.
151  1.50  0.  0.  0.
152  1.51  0.  0.  0.
153  1.52  0.  0.  0.
154  1.53  0.  0.  0.
155  1.54  0.  0.  0.
156  1.55  0.  0.  0.
157  1.56  0.  0.  0.
158  1.57  0.  0.  0.
159  1.58  0.  0.  0.
160  1.59  0.  0.  0.
161  1.60  0.  0.  0.
162  1.61  0.  0.  0.
163  1.62  0.  0.  0.
164  1.63  0.  0.  0.
165  1.64  0.  0.  0.
166  1.65  0.  0.  0.
167  1.66  0.  0.  0.
168  1.67  0.  0.  0.
169  1.68  0.  0.  0.
170  1.69  0.  0.  0.
171  1.70  0.  0.  0.
172  1.71  0.  0.  0.
173  1.72  0.  0.  0.
174  1.73  0.  0.  0.
175  1.74  0.  0.  0.
176  1.75  0.  0.  0.
177  1.76  0.  0.  0.
178  1.77  0.  0.  0.
179  1.78  0.  0.  0.
180  1.79  0.  0.  0.
181  1.80  0.  0.  0.
182  1.81  0.  0.  0.
183  1.82  0.  0.  0.
184  1.83  0.  0.  0.
185  1.84  0.  0.  0.
186  1.85  0.  0.  0.
187  1.86  0.  0.  0.
188  1.87  0.  0.  0.
189  1.88  0.  0.  0.
190  1.89  0.  0.  0.
191  1.90  0.  0.  0.
192  1.91  0.  0.  0.
193  1.92  0.  0.  0.
194  1.93  0.  0.  0.
195  1.94  0.  0.  0.
196  1.95  0.  0.  0.
197  1.96  0.  0.  0.
198  1.97  0.  0.  0.
199  1.98  0.  0.  0.
200  1.99  0.  0.  0.
201  2.00  0.  0.  0.
202  2.01  0.  0.  0.
203  2.02  0.  0.  0.
204  2.03  0.  0.  0.
205  2.04  0.  0.  0.
206  2.05  0.  0.  0.
207  2.06  0.  0.  0.
208  2.07  0.  0.  0.
209  2.08  0.  0.  0.
210  2.09  0.  0.  0.
211  2.10  0.  0.  0.
212  2.11  0.  0.  0.
213  2.12  0.  0.  0.
214  2.13  0.  0.  0.
215  2.14  0.  0.  0.
216  2.15  0.  0.  0.
217  2.16  0.  0.  0.
218  2.17  0.  0.  0.
219  2.18  0.  0.  0.
220  2.19  0.  0.  0.
221  2.20  0.  0.  0.
222  2.21  0.  0.  0.
223  2.22  0.  0.  0.
224  2.23  0.  0.  0.
225  2.24  0.  0.  0.
226  2.25  0.  0.  0.
227  2.26  0.  0.  0.
228  2.27  0.  0.  0.
229  2.28  0.  0.  0.
230  2.29  0.  0.  0.
231  2.30  0.  0.  0.
232  2.31  0.  0.  0.
233  2.32  0.  0.  0.
234  2.33  0.  0.  0.
235  2.34  0.  0.  0.
236  2.35  0.  0.  0.
237  2.36  0.  0.  0.
238  2.37  0.  0.  0.
239  2.38  0.  0.  0.
240  2.39  0.  0.  0.
241  2.40  0.  0.  0.
242  2.41  0.  0.  0.
243  2.42  0.  0.  0.
244  2.43  0.  0.  0.
245  2.44  0.  0.  0.
246  2.45  0.  0.  0.
247  2.46  0.  0.  0.
248  2.47  0.  0.  0.
249  2.48  0.  0.  0.
250  2.49  0.  0.  0.
251  2.50  0.  0.  0.
252  2.51  0.  0.  0.
253  2.52  0.  0.  0.
254  2.53  0.  0.  0.
255  2.54  0.  0.  0.
256  2.55  0.  0.  0.
257  2.56  0.  0.  0.
258  2.57  0.  0.  0.
259  2.58  0.  0.  0.
260  2.59  0.  0.  0.
261  2.60  0.  0.  0.
262  2.61  0.  0.  0.
263  2.62  0.  0.  0.
264  2.63  0.  0.  0.
265  2.64  0.  0.  0.
266  2.65  0.  0.  0.
267  2.66  0.  0.  0.
268  2.67  0.  0.  0.
269  2.68  0.  0.  0.
270  2.69  0.  0.  0.
271  2.70  0.  0.  0.
272  2.71  0.  0.  0.
273  2.72  0.  0.  0.
274  2.73  0.  0.  0.
275  2.74  0.  0.  0.
276  2.75  0.  0.  0.
277  2.76  0.  0.  0.
278  2.77  0.  0.  0.
279  2.78  0.  0.  0.
280  2.79  0.  0.  0.
281  2.80  0.  0.  0.
282  2.81  0.  0.  0.
283  2.82  0.  0.  0.
284  2.83  0.  0.  0.
285  2.84  0.  0.  0.
286  2.85  0.  0.  0.
287  2.86  0.  0.  0.
288  2.87  0.  0.  0.
289  2.88  0.  0.  0.
290  2.89  0.  0.  0.
291  2.90  0.  0.  0.
292  2.91  0.  0.  0.
293  2.92  0.  0.  0.
294  2.93  0.  0.  0.
295  2.94  0.  0.  0.
296  2.95  0.  0.  0.
297  2.96  0.  0.  0.
298  2.97  0.  0.  0.
299  2.98  0.  0.  0.
300  2.99  0.  0.  0.
301  3.00  0.  0.  0.
302  3.01  0.  0.  0.
303  3.02  0.  0.  0.
304  3.03  0.  0.  0.
305  3.04  0.  0.  0.
306  3.05  0.  0.  0.
307  3.06  0.  0.  0.
308  3.07  0.  0.  0.
309  3.08  0.  0.  0.
310  3.09  0.  0.  0.
311  3.10  0.  0.  0.
312  3.11  0.  0.  0.
313  3.12  0.  0.  0.
314  3.13  0.  0.  0.
315  3.14  0.  0.  0.
316  3.15  0.  0.  0.
317  3.16  0.  0.  0.
318  3.17  0.  0.  0.
319  3.18  0.  0.  0.
320  3.19  0.  0.  0.
321  3.20  0.  0.  0.
322  3.21  0.  0.  0.
323  3.22  0.  0.  0.
324  3.23  0.  0.  0.
325  3.24  0.  0.  0.
326  3.25  0.  0.  0.
327  3.26  0.  0.  0.
328  3.27  0.  0.  0.
329  3.28  0.  0.  0.
330  3.29  0.  0.  0.
331  3.30  0.  0.  0.
332  3.31  0.  0.  0.
333  3.32  0.  0.  0.
334  3.33  0.  0.  0.
335  3.34  0.  0.  0.
336  3.35  0.  0.  0.
337  3.36  0.  0.  0.
338  3.37  0.  0.  0.
339  3.38  0.  0.  0.
340  3.39  0.  0.  0.
341  3.40  0.  0.  0.
342  3.41  0.  0.  0.
343  3.42  0.  0.  0.
344  3.43  0.  0.  0.
345  3.44  0.  0.  0.
346  3.45  0.  0.  0.
347  3.46  0.  0.  0.
348  3.47  0.  0.  0.
349  3.48  0.  0.  0.
350  3.49  0.  0.  0.
351  3.50  0.  0.  0.
352  3.51  0.  0.  0.
353  3.52  0.  0.  0.
354  3.53  0.  0.  0.
355  3.54  0.  0.  0.
356  3.55  0.  0.  0.
357  3.56  0.  0.  0.
358  3.57  0.  0.  0.
359  3.58  0.  0.  0.
360  3.59  0.  0.  0.
361  3.60  0.  0.  0.
362  3.61  0.  0.  0.
363  3.62  0.  0.  0.
364  3.63  0.  0.  0.
365  3.64  0.  0.  0.
366  3.65  0.  0.  0.
367  3.66  0.  0.  0.
368  3.67  0.  0.  0.
369  3.68  0.  0.  0.
370  3.69  0.  0.  0.
371  3.70  0.  0.  0.
372  3.71  0.  0.  0.
373  3.72  0.  0.  0.
374  3.73  0.  0.  0.
375  3.74  0.  0.  0.
376  3.75  0.  0.  0.
377  3.76  0.  0.  0.
378  3.77  0.  0.  0.
379  3.78  0.  0.  0.
380  3.79  0.  0.  0.
381  3.80  0.  0.  0.
382  3.81  0.  0.  0.
383  3.82  0.  0.  0.
384  3.83  0.  0.  0.
385  3.84  0.  0.  0.
386  3.85  0.  0.  0.
387  3.86  0.  0.  0.
388  3.87  0.  0.  0.
389  3.88  0.  0.  0.
390  3.89  0.  0.  0.
391  3.90  0.  0.  0.
392  3.91  0.  0.  0.
393  3.92  0.  0.  0.
394  3.93  0.  0.  0.
395  3.94  0.  0.  0.
396  3.95  0.  0.  0.
397  3.96  0.  0.  0.
398  3.97  0.  0.  0.
399  3.98  0.  0.  0.
400  3.99  0.  0.  0.
401  4.00  0.  0.  0.
402  4.01  0.  0.  0.
403  4.02  0.  0.  0.
404  4.03  0.  0.  0.
405  4.04  0.  0.  0.
406  4.05  0.  0.  0.
407  4.06  0.  0.  0.
408  4.07  0.  0.  0.
409  4.08  0.  0.  0.
410  4.09  0.  0.  0.
411  4.10  0.  0.  0.
412  4.11  0.  0.  0.
413  4.12  0.  0.  0.
414  4.13  0.  0.  0.
415  4.14  0.  0.  0.
416  4.15  0.  0.  0.
417  4.16  0.  0.  0.
418  4.17  0.  0.  0.
419  4.18  0.  0.  0.
420  4.19  0.  0.  0.
421  4.20  0.  0.  0.
422  4.21  0.  0.  0.
423  4.22  0.  0.  0.
424  4.23  0.  0.  0.
425  4.24  0.  0.  0.
426  4.25  0.  0.  0.
427  4.26  0.  0.  0.
428  4.27  0.  0.  0.
429  4.28  0.  0.  0.
430  4.29  0.  0.  0.
431  4.30  0.  0.  0.
432  4.31  0.  0.  0.
433  4.32  0.  0.  0.
434  4.33  0.  0.  0.
435  4.34  0.  0.  0.
436  4.35  0.  0.  0.
437  4.36  0.  0.  0.
438  4.37  0.  0.  0.
439  4.38  0.  0.  0.
440  4.39  0.  0.  0.
441  4.40  0.  0.  0.
442  4.41  0.  0.  0.
443  4.42  0.  0.  0.
444  4.43  0.  0.  0.
445  4.44  0.  0.  0.
446  4.45  0.  0.  0.
447  4.46  0.  0.  0.
448  4.47  0.  0.  0.
449  4.48  0.  0.  0.
450  4.49  0.  0.  0.
451  4.50  0.  0.  0.
452  4.51  0.  0.  0.
453  4.52  0.  0.  0.
454  4.53  0.  0.  0.
455  4.54  0.  0.  0.
456  4.55  0.  0.  0.
457  4.56  0.  0.  0.
458  4.57  0.  0.  0.
459  4.58  0.  0.  0.
460  4.59  0.  0.  0.
461  4.60  0.  0.  0.
462  4.61  0.  0.  0.
463  4.62  0.  0.  0.
464  4.63  0.  0.  0.
465  4.64  0.  0.  0.
466  4.65  0.  0.  0.
467  4.66  0.  0.  0.
468  4.67  0.  0.  0.
469  4.68  0.  0.  0.
470  4.69  0.  0.  0.
471  4.70  0.  0.  0.
472  4.71  0.  0.  0.
473  4.72  0.  0.  0.
474  4.73  0.  0.  0.
475  4.74  0.  0.  0.
476  4.75  0.  0.  0.
477  4.76  0.  0.  0.
478  4.77  0.  0.  0.
479  4.78  0.  0.  0.
480  4.79  0.  0.  0.
481  4.80  0.  0.  0.
482  4.81  0.  0.  0.
483  4.82  0.  0.  0.
484  4.83  0.  0.  0.
485  4.84  0.  0.  0.
486  4.85  0.  0.  0.
487  4.86  0.  0.  0.
488  4.87  0.  0.  0.
489  4.88  0.  0.  0.
490  4.89  0.  0.  0.
491  4.90  0.  0.  0.
492  4.91  0.  0.  0.
493  4.92  0.  0.  0.
494  4.93  0.  0.  0.
495  4.94  0.  0.  0.
496  4.95  0.  0.  0.
497  4.96  0.  0.  0.
498  4.97  0.  0.  0.
499  4.98  0.  0.  0.
500  4.99  0.  0.  0.
501  5.00  0.  0.  0.
502  5.01  0.  0.  0.
503  5.02  0.  0.  0.
504  5.03  0.  0.  0.
505  5.04  0.  0.  0.
506  5.05  0.  0.  0.
507  5.06  0.  0.  0.
508  5.07  0.  0.  0.
509  5.08  0.  0.  0.
510  5.09  0.  0.  0.
511  5.10  0.  0.  0.
512  5.11  0.  0.  0.
513  5.12  0.  0.  0.
514  5.13  0.  0.  0.
515  5.14  0.  0.  0.
516  5.15  0.  0.  0.
517  5.16  0.  0.  0.
518  5.17  0.  0.  0.
519  5.18  0.  0.  0.
520  5.19  0.  0.  0.
521  5.20  0.  0.  0.
522  5.21  0.  0.  0.
523  5.22  0.  0.  0.
524  5.23  0.  0.  0.
525  5.24  0.  0.  0.
526  5.25  0.  0.  0.
527  5.26  0.  0.  0.
528  5.27  0.  0.  0.
529  5.28  0.  0.  0.
530  5.29  0.  0.  0.
531  5.30  0.  0.  0.
532  5.31  0.  0.  0.
533  5.32  0.  0.  0.
534  5.33  0.  0.  0.
535  5.34  0.  0.  0.
536  5.35  0.  0.  0.
537  5.36  0.  0.  0.
538  5.37  0.  0.  0.
539  5.38  0.  0.  0.
540  5.39  0.  0.  0.
541  5.40  0.  0.  0.
542  5.41  0.  0.  0.
543  5.42  0.  0.  0.
544  5.43  0.  0.  0.
545  5.44  0.  0.  0.
546  5.45  0.  0.  0.
547  5.46  0.  0.  0.
548  5.47  0.  0.  0.
549  5.48  0.  0.  0.
550  5.49  0.  0.  0.
551  5.50  0.  0.  0.
552  5.51  0.  0.  0.
553  5.52  0.  0.  0.
554  5.53  0.  0.  0.
555  5.54  0.  0.  0.
556  5.55  0.  0.  0.
557  5.56  0.  0.  0.
558  5.57  0.  0.  0.
559  5.58  0.  0.  0.
560  5.59  0.  0.  0.
561  5.60  0.  0.  0.
562  5.61  0.  0.  0.
563  5.62  0.  0.  0.
564  5.63  0.  0.  0.
565  5.64  0.  0.  0.
566  5.65  0.  0.  0.
567  5.66  0.  0.  0.
568  5.67  0.  0.  0.
569  5.68  0.  0.  0.
570  5.69  0.  0.  0.
571  5.70  0.  0.  0.
572  5.71  0.  0.  0.
573  5.72  0.  0.  0.
574  5.73  0.  0.  0.
575  5.74  0.  0.  0.
576  5.75  0.  0.  0.
577  5.76  0.  0.  0.
578  5.77  0.  0.  0.
579  5.78  0.  0.  0.
580  5.79  0.  0.  0.
581  5.80  0.  0.  0.
582  5.81  0.  0.  0.
583  5.82  0.  0.  0.
584  5.83  0.  0.  0.
585  5.84  0.  0.  0.
586  5.85  0.  0.  0.
587  5.86  0.  0.  0.
588  5.87  0.  0.  0.
589  5.88  0.  0.  0.
590  5.89  0.  0.  0.
591  5.90  0.  0.  0.
592  5.91  0.  0.  0.
593  5.92  0.  0.  0.
594  5.93  0.  0.  0.
595  5.94  0.  0.  0.
596  5.95  0.  0.  0.
597  5.96  0.  0.  0.
598  5.97  0.  0.  0.
599  5.98  0.  0.  0.
600  5.99  0.  0.  0.
1                         7.8010038522420E+00 -4.5611494109887E-01
1  0.0000000000000E+00  2.2544011102354E-10 -1.6622445822567E-08
2  1.0000000000000E-02  3.8502138780294E-03  3.7811954250267E-04
3  2.0000000000000E-02  1.5370727955096E-02  1.5192612355235E-03
4  3.0000000000000E-02  3.4471346977959E-02  3.4434583690159E-03
5  4.0000000000000E-02  6.1002370627864E-02  6.1830577511249E-03
6  5.0000000000000E-02  9.4755532431720E-02  9.7811948933899E-03
7  6.0000000000000E-02  1.3546531652151E-01  1.4289734412883E-02
8  7.0000000000000E-02  1.8281065400061E-01  1.9766747908418E-02
9  8.0000000000000E-02  2.3641700045026E-01  2.6273618190410E-02
10  9.0000000000000E-02  2.9585879537549E-01  3.3871872516701E-02
11  1.0000000000000E-01  3.6066230307503E-01  4.2619857961156E-02
12  1.1000000000000E-01  4.3030883247403E-01  5.2569378865615E-02
13  1.2000000000000E-01  5.0423833085571E-01  6.3762419261474E-02
14  1.3000000000000E-01  5.8185334316983E-01  7.6228072075224E-02
15  1.4000000000000E-01  6.6252332470816E-01  8.9979791856736E-02
16  1.5000000000000E-01  7.4558929047660E-01  1.0501307881966E-01
17  1.6000000000000E-01  8.3036877963784E-01  1.2130368940873E-01
18  1.7000000000000E-01  9.1616110805377E-01  1.3880645277444E-01
19  1.8000000000000E-01  1.0022528763482E+00  1.5745475390788E-01
20  1.9000000000000E-01  1.0879236951808E+00  1.7716072332815E-01
21  2.0000000000000E-01  1.1724520837321E+00  1.9781615075296E-01
22  2.1000000000000E-01  1.2551214919112E+00  2.1929411680925E-01
23  2.2000000000000E-01  1.3352263916889E+00  2.4145131327817E-01
24  2.3000000000000E-01  1.4120783783941E+00  2.6413099935539E-01
25  2.4000000000000E-01  1.4850122189633E+00  2.8716651967015E-01
26  2.5000000000000E-01  1.5533917811491E+00  3.1038529004341E-01
27  2.6000000000000E-01  1.6166157757158E+00  3.3361313981952E-01
28  2.7000000000000E-01  1.6741232427946E+00  3.5667888564855E-01
29  2.8000000000000E-01  1.7253987139287E+00  3.7941900130671E-01
30  2.9000000000000E-01  1.7699769829713E+00  4.0168224189399E-01
31  3.0000000000000E-01  1.8074474219447E+00  4.2333407879043E-01
32  3.1000000000000E-01  1.8374577822172E+00  4.4426080421387E-01
33  3.2000000000000E-01  1.8597174268752E+00  4.6437317108591E-01
34  3.3000000000000E-01  1.8739999468886E+00  4.8360944503776E-01
35  3.4000000000000E-01  1.8801451214901E+00  5.0193776049083E-01
36  3.5000000000000E-01  1.8780601919630E+00  5.1935769142317E-01
37  3.6000000000000E-01  1.8677204276212E+00  5.3590096916317E-01
38  3.7000000000000E-01  1.8491689729484E+00  5.5163130371176E-01
39  3.8000000000000E-01  1.8225159754670E+00  5.6664329098086E-01
40  3.9000000000000E-01  1.7879370046789E+00  5.8106041518210E-01
41  4.0000000000000E-01  1.7456707831543E+00  5.9503218259808E-01
42  4.1000000000000E-01  1.6960162612882E+00  6.0873044929733E-01
43  4.2000000000000E-01  1.6393290771798E+00  6.2234503020387E-01
44  4.3000000000000E-01  1.5760174522923E+00  6.3607869952269E-01
45  4.4000000000000E-01  1.5065375818168E+00  6.5014171214086E-01
46  4.5000000000000E-01  1.4313885858134E+00  6.6474599163313E-01
47  4.6000000000000E-01  1.3511070930795E+00  6.8009914237307E-01
48  4.7000000000000E-01  1.2662615341765E+00  6.9639845057393E-01
49  4.8000000000000E-01  1.1774462230432E+00  7.1382504158665E-01
50  4.9000000000000E-01  1.0852753080873E+00  7.3253835833481E-01
51  5.0000000000000E-01  9.9037667356335E-01  7.5267111839355E-01
52  5.1000000000000E-01  8.9338587044097E-01  7.7432489509480E-01
53  5.2000000000000E-01  7.9494015291496E-01  7.9756645149084E-01
54  5.3000000000000E-01  6.9567269230042E-01  8.2242493549413E-01
55  5.4000000000000E-01  5.9620703443836E-01  8.4889002062746E-01
56  5.5000000000000E-01  4.9715186006711E-01  8.7691105026097E-01
57  5.6000000000000E-01  3.9909610008639E-01  9.0639721477553E-01
58  5.7000000000000E-01  3.0260444945996E-01  9.3721876162426E-01
59  5.8000000000000E-01  2.0821331488938E-01  9.6920920865917E-01
60  5.9000000000000E-01  1.1642722257193E-01  1.0021685022472E+00
61  6.0000000000000E-01  2.7715703552612E-02  1.0358670345026E+00
62  6.1000000000000E-01 -5.7489334389697E-02  1.0700504092440E+00
63  6.2000000000000E-01 -1.3879574751772E-01  1.1044448248042E+00
64  6.3000000000000E-01 -2.1585281629059E-01  1.1387629242413E+00
65  6.4000000000000E-01 -2.8835243836809E-01  1.1727099503596E+00
66  6.5000000000000E-01 -3.5602987379415E-01  1.2059900346465E+00
67  6.6000000000000E-01 -4.1866406656448E-01  1.2383124460175E+00
68  6.7000000000000E-01 -4.7607757061933E-01  1.2693976272207E+00
69  6.8000000000000E-01 -5.2813611108085E-01  1.2989828537995E+00
70  6.9000000000000E-01 -5.7474781329238E-01  1.3268273624197E+00
71  7.0000000000000E-01 -6.1586213296756E-01  1.3527168117187E+00
72  7.1000000000000E-01 -6.5146852060325E-01  1.3764669591116E+00
73  7.2000000000000E-01 -6.8159485236429E-01  1.3979264605165E+00
74  7.3000000000000E-01 -7.0630565804420E-01  1.4169787259773E+00
75  7.4000000000000E-01 -7.2570017459510E-01  1.4335427918374E+00
76  7.5000000000000E-01 -7.3991025126467E-01  1.4475731985559E+00
77  7.6000000000000E-01 -7.4909812974369E-01  1.4590588915667E+00
78  7.7000000000000E-01 -7.5345412007588E-01  1.4680211898747E+00
79  7.8000000000000E-01 -7.5319419056690E-01  1.4745108925270E+00
80  7.9000000000000E-01 -7.4855748768517E-01  1.4786046159309E+00
81  8.0000000000000E-01 -7.3980380008957E-01  1.4804004745659E+00
82  8.1000000000000E-01 -7.2721097953259E-01  1.4800132334269E+00
83  8.2000000000000E-01 -7.1107233052758E-01  1.4775690721726E+00
84  8.3000000000000E-01 -6.9169398035598E-01  1.4732001082298E+00
85  8.4000000000000E-01 -6.6939224120731E-01  1.4670388289870E+00
86  8.5000000000000E-01 -6.4449097694002E-01  1.4592125818540E+00
87  8.6000000000000E-01 -6.1731898803433E-01  1.4498382656950E+00
88  8.7000000000000E-01 -5.8820742965804E-01  1.4390173584591E+00
89  8.8000000000000E-01 -5.5748727922802E-01  1.4268314043975E+00
90  8.9000000000000E-01 -5.2548687124490E-01  1.4133380708659E+00
91  9.0000000000000E-01 -4.9252951830570E-01  1.3985678702870E+00
92  9.1000000000000E-01 -4.5893123784283E-01  1.3825216284029E+00
93  9.2000000000000E-01 -4.2499860407305E-01  1.3651687665580E+00
94  9.3000000000000E-01 -3.9102674364149E-01  1.3464464545305E+00
95  9.4000000000000E-01 -3.5729749128937E-01  1.3262596824992E+00
96  9.5000000000000E-01 -3.2407771835173E-01  1.3044822971729E+00
97  9.6000000000000E-01 -2.9161784180694E-01  1.2809590489702E+00
98  9.7000000000000E-01 -2.6015051478316E-01  1.2555087053656E+00
99  9.8000000000000E-01 -2.2988949073885E-01  1.2279283009577E+00
100  9.9000000000000E-01 -2.0102864285551E-01  1.1979986182045E+00
101  1.0000000000000E+00 -1.7374110744276E-01  1.1654910246686E+00
102  1.0100000000000E+00 -1.4817850531242E-01  1.1301758334628E+00
103  1.0200000000000E+00 -1.2447017814222E-01  1.0918324035971E+00
104  1.0300000000000E+00 -1.0272235782886E-01  1.0502612562772E+00
105  1.0400000000000E+00 -8.3017165835187E-02  1.0052985517154E+00
106  1.0500000000000E+00 -6.5411316673411E-02  9.5683334843695E-01
107  1.0600000000000E+00 -4.9934375034807E-02  9.0482815317548E-01
108  1.0700000000000E+00 -3.6586389952424E-02  8.4934336335201E-01
109  1.0800000000000E+00 -2.5334701879937E-02  7.9056630546533E-01
110  1.0900000000000E+00 -1.6109689482647E-02  7.2884568368788E-01
111  1.1000000000000E+00 -8.7992229668905E-03  6.6473216627126E-01
112  1.1100000000000E+00 -3.2418667169172E-03  5.9902387981924E-01
113  1.1200000000000E+00  7.6545157463263E-04  5.3271173552771E-01
114  1.1300000000000E+00  3.4401087569183E-03  4.6680458962287E-01
115  1.1400000000000E+00  5.0030180082777E-03  4.0228081292587E-01
116  1.1500000000000E+00  5.6731720062399E-03  3.4007723531835E-01
117  1.1600000000000E+00  5.6622622556138E-03  2.8107787411536E-01
118  1.1700000000000E+00  5.1694974213644E-03  2.2610287094958E-01
119  1.1800000000000E+00  4.3766711906333E-03  1.7589769616790E-01
120  1.1900000000000E+00  3.4422213156825E-03  1.3111816271088E-01