Cm    ONCVPSP-4.0.1  r_core=   1.15013   1.15013   1.15013   1.35173
96.0000     36.0000      220205    zatom,zion,pspd
8      11   3     4   600     0    pspcod,pspxc,lmax,lloc,mmax,r2well
5.99000000  5.00000000  0.00000000    rchrg fchrg qchrg
3     2     2     2     0    nproj
1     1           extension_switch
0                         2.6948817358691E+01  3.5687795989741E+00 -8.2132701448647E-01
1  0.0000000000000E+00 -1.5184177759586E-07  4.6750361903936E-07  8.2152147667935E-08
2  1.0000000000000E-02  1.5864173638290E-01 -8.7856702087070E-02  1.4780567045708E-02
3  2.0000000000000E-02  3.1583647132552E-01 -1.7295005686179E-01  2.9909044916738E-02
4  3.0000000000000E-02  4.7016909221314E-01 -2.5260779940877E-01  4.5717029464812E-02
5  4.0000000000000E-02  6.2028716517533E-01 -3.2433645657408E-01  6.2504108251568E-02
6  5.0000000000000E-02  7.6492956912035E-01 -3.8590243927625E-01  8.0523388033493E-02
7  6.0000000000000E-02  9.0295199914232E-01 -4.3540352679662E-01  9.9968797974111E-02
8  7.0000000000000E-02  1.0333484839086E+00 -4.7132811943391E-01  1.2096465917062E-01
9  8.0000000000000E-02  1.1552682134769E+00 -4.9260010341148E-01  1.4355792893002E-01
10  9.0000000000000E-02  1.2680271524388E+00 -4.9860772157635E-01  1.6771343121010E-01
11  1.0000000000000E-01  1.3711141114217E+00 -4.8921545406593E-01  1.9331227623136E-01
12  1.1000000000000E-01  1.4641911601282E+00 -4.6475856122239E-01  2.2015355635586E-01
13  1.2000000000000E-01  1.5470884791043E+00 -4.2602060166260E-01  2.4795928607192E-01
14  1.3000000000000E-01  1.6197939570147E+00 -3.7419488612555E-01  2.7638243559954E-01
15  1.4000000000000E-01  1.6824380372504E+00 -3.1083143759911E-01  3.0501779448026E-01
16  1.5000000000000E-01  1.7352744945606E+00 -2.3777157680836E-01  3.3341529759821E-01
17  1.6000000000000E-01  1.7786579722646E+00 -1.5707271834082E-01  3.6109535512208E-01
18  1.7000000000000E-01  1.8130192276435E+00 -7.0926328584208E-02  3.8756565312547E-01
19  1.8000000000000E-01  1.8388391128499E+00  1.8427751768234E-02  4.1233883581730E-01
20  1.9000000000000E-01  1.8566223580231E+00  1.0878729023688E-01  4.3495044540114E-01
21  2.0000000000000E-01  1.8668722207923E+00  1.9807062078362E-01  4.5497648283882E-01
22  2.1000000000000E-01  1.8700670221225E+00  2.8439337810532E-01  4.7204996268359E-01
23  2.2000000000000E-01  1.8666395042900E+00  3.6613606147493E-01  4.8587586732582E-01
24  2.3000000000000E-01  1.8569598259903E+00  4.4199984827686E-01  4.9624395931630E-01
25  2.4000000000000E-01  1.8413228569475E+00  5.1104854330089E-01  5.0303898300267E-01
26  2.5000000000000E-01  1.8199402559126E+00  5.7273509689063E-01  5.0624787594739E-01
27  2.6000000000000E-01  1.7929376186137E+00  6.2691173194216E-01  5.0596371331612E-01
28  2.7000000000000E-01  1.7603567738204E+00  6.7382336293060E-01  5.0238622097576E-01
29  2.8000000000000E-01  1.7221630943683E+00  7.1408464466882E-01  4.9581881142096E-01
30  2.9000000000000E-01  1.6782574840710E+00  7.4864162898492E-01  4.8666221665124E-01
31  3.0000000000000E-01  1.6284925089993E+00  7.7871960913370E-01  4.7540490949282E-01
32  3.1000000000000E-01  1.5726919701914E+00  8.0575927124947E-01  4.6261061544339E-01
33  3.2000000000000E-01  1.5106730712036E+00  8.3134372866006E-01  4.4890331701357E-01
34  3.3000000000000E-01  1.4422702236652E+00  8.5711937080737E-01  4.3495023823093E-01
35  3.4000000000000E-01  1.3673594614972E+00  8.8471370018795E-01  4.2144336546349E-01
36  3.5000000000000E-01  1.2858824025468E+00  9.1565344892467E-01  4.0908010963755E-01
37  3.6000000000000E-01  1.1978687063479E+00  9.5128625690268E-01  3.9854374259838E-01
38  3.7000000000000E-01  1.1034560281634E+00  9.9270905642789E-01  3.9048424589015E-01
39  3.8000000000000E-01  1.0029065603947E+00  1.0407060496285E+00  3.8550019350356E-01
40  3.9000000000000E-01  8.9661937932574E-01  1.0956987945645E+00  3.8412225184280E-01
41  4.0000000000000E-01  7.8513797303379E-01  1.1577104488281E+00  3.8679882175405E-01
42  4.1000000000000E-01  6.6915250900945E-01  1.2263456736016E+00  3.9388427110264E-01
43  4.2000000000000E-01  5.4949660044858E-01  1.3007870980470E+00  4.0563011488839E-01
44  4.3000000000000E-01  4.2713854051025E-01  1.3798086070007E+00  4.2217939657520E-01
45  4.4000000000000E-01  3.0316718589749E-01  1.4618050690205E+00  4.4356441291804E-01
46  4.5000000000000E-01  1.7877287668502E-01  1.5448374918582E+00  4.6970780910024E-01
47  4.6000000000000E-01  5.5223970433033E-02  1.6266920027429E+00  5.0042695557451E-01
48  4.7000000000000E-01 -6.6160262075953E-02  1.7049505240659E+00  5.3544140672977E-01
49  4.8000000000000E-01 -1.8403949114841E-01  1.7770705712581E+00  5.7438313830742E-01
50  4.9000000000000E-01 -2.9708393688403E-01  1.8404712555710E+00  6.1680916897195E-01
51  5.0000000000000E-01 -4.0400666697640E-01  1.8926223429086E+00  6.6221609476509E-01
52  5.1000000000000E-01 -5.0359548888340E-01  1.9311331090856E+00  7.1005600594359E-01
53  5.2000000000000E-01 -5.9474335336406E-01  1.9538377454715E+00  7.5975321587875E-01
54  5.3000000000000E-01 -6.7647623858012E-01  1.9588742055475E+00  8.1072121252235E-01
55  5.4000000000000E-01 -7.4797757438808E-01  1.9447536363381E+00  8.6237924491293E-01
56  5.5000000000000E-01 -8.0860839136473E-01  1.9104178982870E+00  9.1416798002954E-01
57  5.6000000000000E-01 -8.5792253346008E-01  1.8552831282070E+00  9.6556370797690E-01
58  5.7000000000000E-01 -8.9567645078862E-01  1.7792678242453E+00  1.0160906342748E+00
59  5.8000000000000E-01 -9.2183328292742E-01  1.6828045084826E+00  1.0653308745603E+00
60  5.9000000000000E-01 -9.3656114559377E-01  1.5668346290808E+00  1.1129318563828E+00
61  6.0000000000000E-01 -9.4022573687432E-01  1.4327869761501E+00  1.1586109316366E+00
62  6.1000000000000E-01 -9.3337757547486E-01  1.2825404800941E+00  1.2021571078799E+00
63  6.2000000000000E-01 -9.1673436533060E-01  1.1183728154510E+00  1.2434299135101E+00
64  6.3000000000000E-01 -8.9115914160147E-01  9.4289672640666E-01  1.2823555166483E+00
65  6.4000000000000E-01 -8.5763498674362E-01  7.5898640410492E-01  1.3189203168822E+00
66  6.5000000000000E-01 -8.1723720732606E-01  5.6969656592800E-01  1.3531623192276E+00
67  6.6000000000000E-01 -7.7110392919680E-01  3.7817710225233E-01  1.3851606776542E+00
68  6.7000000000000E-01 -7.2040609860112E-01  1.8758626034907E-01  1.4150238586204E+00
69  6.8000000000000E-01 -6.6631786951428E-01  1.0053261142454E-03  1.4428769211872E+00
70  6.9000000000000E-01 -6.0998831387247E-01 -1.7864235525934E-01  1.4688484379615E+00
71  7.0000000000000E-01 -5.5251531408931E-01 -3.4866540183595E-01  1.4930575895740E+00
72  7.1000000000000E-01 -4.9492239006469E-01 -5.0666915895461E-01  1.5156019545383E+00
73  7.2000000000000E-01 -4.3813908075203E-01 -6.5060929751156E-01  1.5365464867566E+00
74  7.3000000000000E-01 -3.8298534911713E-01 -7.7883279508461E-01  1.5559141258885E+00
75  7.4000000000000E-01 -3.3016031542781E-01 -8.9010534634954E-01  1.5736784231302E+00
76  7.5000000000000E-01 -2.8023545412116E-01 -9.8362476861743E-01  1.5897584890294E+00
77  7.6000000000000E-01 -2.3365222087474E-01 -1.0590204884211E+00  1.6040164836019E+00
78  7.7000000000000E-01 -1.9072391560570E-01 -1.1163396956141E+00  1.6162577753111E+00
79  7.8000000000000E-01 -1.5164144012233E-01 -1.1560212133353E+00  1.6262337977825E+00
80  7.9000000000000E-01 -1.1648248143708E-01 -1.1788585386229E+00  1.6336475348414E+00
81  8.0000000000000E-01 -8.5223547780397E-02 -1.1859538452413E+00  1.6381614689695E+00
82  8.1000000000000E-01 -5.7754207445603E-02 -1.1786649965416E+00  1.6394077388082E+00
83  8.2000000000000E-01 -3.3892832843454E-02 -1.1585477846297E+00  1.6370001708588E+00
84  8.3000000000000E-01 -1.3403134346562E-02 -1.1272956893290E+00  1.6305477816840E+00
85  8.4000000000000E-01  3.9892198250541E-03 -1.0866794368017E+00  1.6196692918849E+00
86  8.5000000000000E-01  1.8580561989817E-02 -1.0384885373127E+00  1.6040081536512E+00
87  8.6000000000000E-01  3.0674361593157E-02 -9.8447680200280E-01  1.5832475709410E+00
88  8.7000000000000E-01  4.0568054359462E-02 -9.2631359007279E-01  1.5571249860110E+00
89  8.8000000000000E-01  4.8541976116376E-02 -8.6554223329619E-01  1.5254455181947E+00
90  8.9000000000000E-01  5.4850699479603E-02 -8.0354673873522E-01  1.4880938701334E+00
91  9.0000000000000E-01  5.9716951269876E-02 -7.4152749840045E-01  1.4450442622201E+00
92  9.1000000000000E-01  6.3328167097175E-02 -6.8048635202509E-01  1.3963680165340E+00
93  9.2000000000000E-01  6.5835622003545E-02 -6.2122097121636E-01  1.3422384853779E+00
94  9.3000000000000E-01  6.7355966949565E-02 -5.6432817391377E-01  1.2829331047490E+00
95  9.4000000000000E-01  6.7974904040761E-02 -5.1021544914532E-01  1.2188324475875E+00
96  9.5000000000000E-01  6.7752651699064E-02 -4.5911968318320E-01  1.1504162531904E+00
97  9.6000000000000E-01  6.6730786364034E-02 -4.1113183585672E-01  1.0782565155294E+00
98  9.7000000000000E-01  6.4940000578115E-02 -3.6622612349031E-01  1.0030078221579E+00
99  9.8000000000000E-01  6.2408288112729E-02 -3.2429212284309E-01  9.2539524480618E-01
100  9.9000000000000E-01  5.9169053632698E-02 -2.8516811529794E-01  8.4620019083462E-01
101  1.0000000000000E+00  5.5268644725443E-02 -2.4867393614626E-01  7.6624472965475E-01
102  1.0100000000000E+00  5.0772814380536E-02 -2.1464157082946E-01  6.8637500870443E-01
103  1.0200000000000E+00  4.5771637832099E-02 -1.8294173675890E-01  6.0744446837703E-01
104  1.0300000000000E+00  4.0382424080679E-02 -1.5350469215354E-01  5.3029765374938E-01
105  1.0400000000000E+00  3.4750173875852E-02 -1.2633350700675E-01  4.5575550233101E-01
106  1.0500000000000E+00  2.9045136841692E-02 -1.0150800002004E-01  3.8460306122078E-01
107  1.0600000000000E+00  2.3457004951726E-02 -7.9177472671218E-02  3.1758065408883E-01
108  1.0700000000000E+00  1.8185242290482E-02 -5.9540242141600E-02  2.5537957834816E-01
109  1.0800000000000E+00  1.3424877191467E-02 -4.2807486725643E-02  1.9864338586160E-01
110  1.0900000000000E+00  9.3478978394297E-03 -2.9151016187561E-02  1.4797652364198E-01
111  1.1000000000000E+00  6.0293980248990E-03 -1.8499837919676E-02  1.0392317440309E-01
112  1.1100000000000E+00  3.4477181772043E-03 -1.0523604092319E-02  6.7011159606219E-02
113  1.1200000000000E+00  1.6459886596419E-03 -5.0772934875858E-03  3.7845774537688E-02
114  1.1300000000000E+00  5.7450700549447E-04 -1.8399865054449E-03  1.6851685430219E-02
115  1.1400000000000E+00  9.8044977165295E-05 -3.4609397634578E-04  4.2107333105608E-03
116  1.1500000000000E+00  1.5632510053522E-07 -6.5871118265674E-07  1.0378878862312E-05
117  1.1600000000000E+00  3.8633265553671E-07 -1.6763496539906E-06  2.8774074939286E-05
118  1.1700000000000E+00 -3.7803415575707E-08  1.4290138097420E-07 -1.9896615744681E-06
119  1.18  0.  0.  0.
120  1.19  0.  0.  0.
121  1.20  0.  0.  0.
122  1.21  0.  0.  0.
123  1.22  0.  0.  0.
124  1.23  0.  0.  0.
125  1.24  0.  0.  0.
126  1.25  0.  0.  0.
127  1.26  0.  0.  0.
128  1.27  0.  0.  0.
129  1.28  0.  0.  0.
130  1.29  0.  0.  0.
131  1.30  0.  0.  0.
132  1.31  0.  0.  0.
133  1.32  0.  0.  0.
134  1.33  0.  0.  0.
135  1.34  0.  0.  0.
136  1.35  0.  0.  0.
137  1.36  0.  0.  0.
138  1.37  0.  0.  0.
139  1.38  0.  0.  0.
140  1.39  0.  0.  0.
141  1.40  0.  0.  0.
142  1.41  0.  0.  0.
143  1.42  0.  0.  0.
144  1.43  0.  0.  0.
145  1.44  0.  0.  0.
146  1.45  0.  0.  0.
147  1.46  0.  0.  0.
148  1.47  0.  0.  0.
149  1.48  0.  0.  0.
150  1.49  0.  0.  0.
151  1.50  0.  0.  0.
152  1.51  0.  0.  0.
153  1.52  0.  0.  0.
154  1.53  0.  0.  0.
155  1.54  0.  0.  0.
156  1.55  0.  0.  0.
157  1.56  0.  0.  0.
158  1.57  0.  0.  0.
159  1.58  0.  0.  0.
160  1.59  0.  0.  0.
161  1.60  0.  0.  0.
162  1.61  0.  0.  0.
163  1.62  0.  0.  0.
164  1.63  0.  0.  0.
165  1.64  0.  0.  0.
166  1.65  0.  0.  0.
167  1.66  0.  0.  0.
168  1.67  0.  0.  0.
169  1.68  0.  0.  0.
170  1.69  0.  0.  0.
171  1.70  0.  0.  0.
172  1.71  0.  0.  0.
173  1.72  0.  0.  0.
174  1.73  0.  0.  0.
175  1.74  0.  0.  0.
176  1.75  0.  0.  0.
177  1.76  0.  0.  0.
178  1.77  0.  0.  0.
179  1.78  0.  0.  0.
180  1.79  0.  0.  0.
181  1.80  0.  0.  0.
182  1.81  0.  0.  0.
183  1.82  0.  0.  0.
184  1.83  0.  0.  0.
185  1.84  0.  0.  0.
186  1.85  0.  0.  0.
187  1.86  0.  0.  0.
188  1.87  0.  0.  0.
189  1.88  0.  0.  0.
190  1.89  0.  0.  0.
191  1.90  0.  0.  0.
192  1.91  0.  0.  0.
193  1.92  0.  0.  0.
194  1.93  0.  0.  0.
195  1.94  0.  0.  0.
196  1.95  0.  0.  0.
197  1.96  0.  0.  0.
198  1.97  0.  0.  0.
199  1.98  0.  0.  0.
200  1.99  0.  0.  0.
201  2.00  0.  0.  0.
202  2.01  0.  0.  0.
203  2.02  0.  0.  0.
204  2.03  0.  0.  0.
205  2.04  0.  0.  0.
206  2.05  0.  0.  0.
207  2.06  0.  0.  0.
208  2.07  0.  0.  0.
209  2.08  0.  0.  0.
210  2.09  0.  0.  0.
211  2.10  0.  0.  0.
212  2.11  0.  0.  0.
213  2.12  0.  0.  0.
214  2.13  0.  0.  0.
215  2.14  0.  0.  0.
216  2.15  0.  0.  0.
217  2.16  0.  0.  0.
218  2.17  0.  0.  0.
219  2.18  0.  0.  0.
220  2.19  0.  0.  0.
221  2.20  0.  0.  0.
222  2.21  0.  0.  0.
223  2.22  0.  0.  0.
224  2.23  0.  0.  0.
225  2.24  0.  0.  0.
226  2.25  0.  0.  0.
227  2.26  0.  0.  0.
228  2.27  0.  0.  0.
229  2.28  0.  0.  0.
230  2.29  0.  0.  0.
231  2.30  0.  0.  0.
232  2.31  0.  0.  0.
233  2.32  0.  0.  0.
234  2.33  0.  0.  0.
235  2.34  0.  0.  0.
236  2.35  0.  0.  0.
237  2.36  0.  0.  0.
238  2.37  0.  0.  0.
239  2.38  0.  0.  0.
240  2.39  0.  0.  0.
241  2.40  0.  0.  0.
242  2.41  0.  0.  0.
243  2.42  0.  0.  0.
244  2.43  0.  0.  0.
245  2.44  0.  0.  0.
246  2.45  0.  0.  0.
247  2.46  0.  0.  0.
248  2.47  0.  0.  0.
249  2.48  0.  0.  0.
250  2.49  0.  0.  0.
251  2.50  0.  0.  0.
252  2.51  0.  0.  0.
253  2.52  0.  0.  0.
254  2.53  0.  0.  0.
255  2.54  0.  0.  0.
256  2.55  0.  0.  0.
257  2.56  0.  0.  0.
258  2.57  0.  0.  0.
259  2.58  0.  0.  0.
260  2.59  0.  0.  0.
261  2.60  0.  0.  0.
262  2.61  0.  0.  0.
263  2.62  0.  0.  0.
264  2.63  0.  0.  0.
265  2.64  0.  0.  0.
266  2.65  0.  0.  0.
267  2.66  0.  0.  0.
268  2.67  0.  0.  0.
269  2.68  0.  0.  0.
270  2.69  0.  0.  0.
271  2.70  0.  0.  0.
272  2.71  0.  0.  0.
273  2.72  0.  0.  0.
274  2.73  0.  0.  0.
275  2.74  0.  0.  0.
276  2.75  0.  0.  0.
277  2.76  0.  0.  0.
278  2.77  0.  0.  0.
279  2.78  0.  0.  0.
280  2.79  0.  0.  0.
281  2.80  0.  0.  0.
282  2.81  0.  0.  0.
283  2.82  0.  0.  0.
284  2.83  0.  0.  0.
285  2.84  0.  0.  0.
286  2.85  0.  0.  0.
287  2.86  0.  0.  0.
288  2.87  0.  0.  0.
289  2.88  0.  0.  0.
290  2.89  0.  0.  0.
291  2.90  0.  0.  0.
292  2.91  0.  0.  0.
293  2.92  0.  0.  0.
294  2.93  0.  0.  0.
295  2.94  0.  0.  0.
296  2.95  0.  0.  0.
297  2.96  0.  0.  0.
298  2.97  0.  0.  0.
299  2.98  0.  0.  0.
300  2.99  0.  0.  0.
301  3.00  0.  0.  0.
302  3.01  0.  0.  0.
303  3.02  0.  0.  0.
304  3.03  0.  0.  0.
305  3.04  0.  0.  0.
306  3.05  0.  0.  0.
307  3.06  0.  0.  0.
308  3.07  0.  0.  0.
309  3.08  0.  0.  0.
310  3.09  0.  0.  0.
311  3.10  0.  0.  0.
312  3.11  0.  0.  0.
313  3.12  0.  0.  0.
314  3.13  0.  0.  0.
315  3.14  0.  0.  0.
316  3.15  0.  0.  0.
317  3.16  0.  0.  0.
318  3.17  0.  0.  0.
319  3.18  0.  0.  0.
320  3.19  0.  0.  0.
321  3.20  0.  0.  0.
322  3.21  0.  0.  0.
323  3.22  0.  0.  0.
324  3.23  0.  0.  0.
325  3.24  0.  0.  0.
326  3.25  0.  0.  0.
327  3.26  0.  0.  0.
328  3.27  0.  0.  0.
329  3.28  0.  0.  0.
330  3.29  0.  0.  0.
331  3.30  0.  0.  0.
332  3.31  0.  0.  0.
333  3.32  0.  0.  0.
334  3.33  0.  0.  0.
335  3.34  0.  0.  0.
336  3.35  0.  0.  0.
337  3.36  0.  0.  0.
338  3.37  0.  0.  0.
339  3.38  0.  0.  0.
340  3.39  0.  0.  0.
341  3.40  0.  0.  0.
342  3.41  0.  0.  0.
343  3.42  0.  0.  0.
344  3.43  0.  0.  0.
345  3.44  0.  0.  0.
346  3.45  0.  0.  0.
347  3.46  0.  0.  0.
348  3.47  0.  0.  0.
349  3.48  0.  0.  0.
350  3.49  0.  0.  0.
351  3.50  0.  0.  0.
352  3.51  0.  0.  0.
353  3.52  0.  0.  0.
354  3.53  0.  0.  0.
355  3.54  0.  0.  0.
356  3.55  0.  0.  0.
357  3.56  0.  0.  0.
358  3.57  0.  0.  0.
359  3.58  0.  0.  0.
360  3.59  0.  0.  0.
361  3.60  0.  0.  0.
362  3.61  0.  0.  0.
363  3.62  0.  0.  0.
364  3.63  0.  0.  0.
365  3.64  0.  0.  0.
366  3.65  0.  0.  0.
367  3.66  0.  0.  0.
368  3.67  0.  0.  0.
369  3.68  0.  0.  0.
370  3.69  0.  0.  0.
371  3.70  0.  0.  0.
372  3.71  0.  0.  0.
373  3.72  0.  0.  0.
374  3.73  0.  0.  0.
375  3.74  0.  0.  0.
376  3.75  0.  0.  0.
377  3.76  0.  0.  0.
378  3.77  0.  0.  0.
379  3.78  0.  0.  0.
380  3.79  0.  0.  0.
381  3.80  0.  0.  0.
382  3.81  0.  0.  0.
383  3.82  0.  0.  0.
384  3.83  0.  0.  0.
385  3.84  0.  0.  0.
386  3.85  0.  0.  0.
387  3.86  0.  0.  0.
388  3.87  0.  0.  0.
389  3.88  0.  0.  0.
390  3.89  0.  0.  0.
391  3.90  0.  0.  0.
392  3.91  0.  0.  0.
393  3.92  0.  0.  0.
394  3.93  0.  0.  0.
395  3.94  0.  0.  0.
396  3.95  0.  0.  0.
397  3.96  0.  0.  0.
398  3.97  0.  0.  0.
399  3.98  0.  0.  0.
400  3.99  0.  0.  0.
401  4.00  0.  0.  0.
402  4.01  0.  0.  0.
403  4.02  0.  0.  0.
404  4.03  0.  0.  0.
405  4.04  0.  0.  0.
406  4.05  0.  0.  0.
407  4.06  0.  0.  0.
408  4.07  0.  0.  0.
409  4.08  0.  0.  0.
410  4.09  0.  0.  0.
411  4.10  0.  0.  0.
412  4.11  0.  0.  0.
413  4.12  0.  0.  0.
414  4.13  0.  0.  0.
415  4.14  0.  0.  0.
416  4.15  0.  0.  0.
417  4.16  0.  0.  0.
418  4.17  0.  0.  0.
419  4.18  0.  0.  0.
420  4.19  0.  0.  0.
421  4.20  0.  0.  0.
422  4.21  0.  0.  0.
423  4.22  0.  0.  0.
424  4.23  0.  0.  0.
425  4.24  0.  0.  0.
426  4.25  0.  0.  0.
427  4.26  0.  0.  0.
428  4.27  0.  0.  0.
429  4.28  0.  0.  0.
430  4.29  0.  0.  0.
431  4.30  0.  0.  0.
432  4.31  0.  0.  0.
433  4.32  0.  0.  0.
434  4.33  0.  0.  0.
435  4.34  0.  0.  0.
436  4.35  0.  0.  0.
437  4.36  0.  0.  0.
438  4.37  0.  0.  0.
439  4.38  0.  0.  0.
440  4.39  0.  0.  0.
441  4.40  0.  0.  0.
442  4.41  0.  0.  0.
443  4.42  0.  0.  0.
444  4.43  0.  0.  0.
445  4.44  0.  0.  0.
446  4.45  0.  0.  0.
447  4.46  0.  0.  0.
448  4.47  0.  0.  0.
449  4.48  0.  0.  0.
450  4.49  0.  0.  0.
451  4.50  0.  0.  0.
452  4.51  0.  0.  0.
453  4.52  0.  0.  0.
454  4.53  0.  0.  0.
455  4.54  0.  0.  0.
456  4.55  0.  0.  0.
457  4.56  0.  0.  0.
458  4.57  0.  0.  0.
459  4.58  0.  0.  0.
460  4.59  0.  0.  0.
461  4.60  0.  0.  0.
462  4.61  0.  0.  0.
463  4.62  0.  0.  0.
464  4.63  0.  0.  0.
465  4.64  0.  0.  0.
466  4.65  0.  0.  0.
467  4.66  0.  0.  0.
468  4.67  0.  0.  0.
469  4.68  0.  0.  0.
470  4.69  0.  0.  0.
471  4.70  0.  0.  0.
472  4.71  0.  0.  0.
473  4.72  0.  0.  0.
474  4.73  0.  0.  0.
475  4.74  0.  0.  0.
476  4.75  0.  0.  0.
477  4.76  0.  0.  0.
478  4.77  0.  0.  0.
479  4.78  0.  0.  0.
480  4.79  0.  0.  0.
481  4.80  0.  0.  0.
482  4.81  0.  0.  0.
483  4.82  0.  0.  0.
484  4.83  0.  0.  0.
485  4.84  0.  0.  0.
486  4.85  0.  0.  0.
487  4.86  0.  0.  0.
488  4.87  0.  0.  0.
489  4.88  0.  0.  0.
490  4.89  0.  0.  0.
491  4.90  0.  0.  0.
492  4.91  0.  0.  0.
493  4.92  0.  0.  0.
494  4.93  0.  0.  0.
495  4.94  0.  0.  0.
496  4.95  0.  0.  0.
497  4.96  0.  0.  0.
498  4.97  0.  0.  0.
499  4.98  0.  0.  0.
500  4.99  0.  0.  0.
501  5.00  0.  0.  0.
502  5.01  0.  0.  0.
503  5.02  0.  0.  0.
504  5.03  0.  0.  0.
505  5.04  0.  0.  0.
506  5.05  0.  0.  0.
507  5.06  0.  0.  0.
508  5.07  0.  0.  0.
509  5.08  0.  0.  0.
510  5.09  0.  0.  0.
511  5.10  0.  0.  0.
512  5.11  0.  0.  0.
513  5.12  0.  0.  0.
514  5.13  0.  0.  0.
515  5.14  0.  0.  0.
516  5.15  0.  0.  0.
517  5.16  0.  0.  0.
518  5.17  0.  0.  0.
519  5.18  0.  0.  0.
520  5.19  0.  0.  0.
521  5.20  0.  0.  0.
522  5.21  0.  0.  0.
523  5.22  0.  0.  0.
524  5.23  0.  0.  0.
525  5.24  0.  0.  0.
526  5.25  0.  0.  0.
527  5.26  0.  0.  0.
528  5.27  0.  0.  0.
529  5.28  0.  0.  0.
530  5.29  0.  0.  0.
531  5.30  0.  0.  0.
532  5.31  0.  0.  0.
533  5.32  0.  0.  0.
534  5.33  0.  0.  0.
535  5.34  0.  0.  0.
536  5.35  0.  0.  0.
537  5.36  0.  0.  0.
538  5.37  0.  0.  0.
539  5.38  0.  0.  0.
540  5.39  0.  0.  0.
541  5.40  0.  0.  0.
542  5.41  0.  0.  0.
543  5.42  0.  0.  0.
544  5.43  0.  0.  0.
545  5.44  0.  0.  0.
546  5.45  0.  0.  0.
547  5.46  0.  0.  0.
548  5.47  0.  0.  0.
549  5.48  0.  0.  0.
550  5.49  0.  0.  0.
551  5.50  0.  0.  0.
552  5.51  0.  0.  0.
553  5.52  0.  0.  0.
554  5.53  0.  0.  0.
555  5.54  0.  0.  0.
556  5.55  0.  0.  0.
557  5.56  0.  0.  0.
558  5.57  0.  0.  0.
559  5.58  0.  0.  0.
560  5.59  0.  0.  0.
561  5.60  0.  0.  0.
562  5.61  0.  0.  0.
563  5.62  0.  0.  0.
564  5.63  0.  0.  0.
565  5.64  0.  0.  0.
566  5.65  0.  0.  0.
567  5.66  0.  0.  0.
568  5.67  0.  0.  0.
569  5.68  0.  0.  0.
570  5.69  0.  0.  0.
571  5.70  0.  0.  0.
572  5.71  0.  0.  0.
573  5.72  0.  0.  0.
574  5.73  0.  0.  0.
575  5.74  0.  0.  0.
576  5.75  0.  0.  0.
577  5.76  0.  0.  0.
578  5.77  0.  0.  0.
579  5.78  0.  0.  0.
580  5.79  0.  0.  0.
581  5.80  0.  0.  0.
582  5.81  0.  0.  0.
583  5.82  0.  0.  0.
584  5.83  0.  0.  0.
585  5.84  0.  0.  0.
586  5.85  0.  0.  0.
587  5.86  0.  0.  0.
588  5.87  0.  0.  0.
589  5.88  0.  0.  0.
590  5.89  0.  0.  0.
591  5.90  0.  0.  0.
592  5.91  0.  0.  0.
593  5.92  0.  0.  0.
594  5.93  0.  0.  0.
595  5.94  0.  0.  0.
596  5.95  0.  0.  0.
597  5.96  0.  0.  0.
598  5.97  0.  0.  0.
599  5.98  0.  0.  0.
600  5.99  0.  0.  0.
1                         8.6313702862341E+00 -5.9033236045947E-01
1  0.0000000000000E+00 -3.1777331460647E-08 -1.1989931767917E-07
2  1.0000000000000E-02  3.5351015373266E-03 -5.0439012771477E-04
3  2.0000000000000E-02  1.4124248014029E-02 -1.9705284845299E-03
4  3.0000000000000E-02  3.1718581401781E-02 -4.2594066197853E-03
5  4.0000000000000E-02  5.6235416036415E-02 -7.1462170913872E-03
6  5.0000000000000E-02  8.7556435179983E-02 -1.0330367691420E-02
7  6.0000000000000E-02  1.2552532280335E-01 -1.3448921796021E-02
8  7.0000000000000E-02  1.6994497942989E-01 -1.6092912604765E-02
9  8.0000000000000E-02  2.2057450265828E-01 -1.7825859135503E-02
10  9.0000000000000E-02  2.7712613726259E-01 -1.8203718365528E-02
11  1.0000000000000E-01  3.3926241548720E-01 -1.6795444611642E-02
12  1.1000000000000E-01  4.0659371457363E-01 -1.3203296727888E-02
13  1.2000000000000E-01  4.7867645529503E-01 -7.0820373230003E-03
14  1.3000000000000E-01  5.5501215232009E-01  1.8437939890319E-03
15  1.4000000000000E-01  6.3504750494705E-01  1.3765280563060E-02
16  1.5000000000000E-01  7.1817568586803E-01  2.8777848073527E-02
17  1.6000000000000E-01  8.0373894720981E-01  4.6873821639536E-02
18  1.7000000000000E-01  8.9103261851878E-01  6.7939189500183E-02
19  1.8000000000000E-01  9.7931052223341E-01  9.1754776185990E-02
20  1.9000000000000E-01  1.0677917803331E+00  1.1800185242400E-01
21  2.0000000000000E-01  1.1556689332071E+00  1.4627203019462E-01
22  2.1000000000000E-01  1.2421172403478E+00  1.7608111637747E-01
23  2.2000000000000E-01  1.3263049842235E+00  2.0688643415332E-01
24  2.3000000000000E-01  1.4074045554984E+00  2.3810697430126E-01
25  2.4000000000000E-01  1.4846040613836E+00  2.6914561468450E-01
26  2.5000000000000E-01  1.5571191707909E+00  2.9941255067193E-01
27  2.6000000000000E-01  1.6242048913394E+00  3.2834901608521E-01
28  2.7000000000000E-01  1.6851669649884E+00  3.5545034638784E-01
29  2.8000000000000E-01  1.7393725716265E+00  3.8028744482002E-01
30  2.9000000000000E-01  1.7862600434418E+00  4.0252575821199E-01
31  3.0000000000000E-01  1.8253473170003E+00  4.2194095103698E-01
32  3.1000000000000E-01  1.8562388839758E+00  4.3843058126262E-01
33  3.2000000000000E-01  1.8786310443052E+00  4.5202122577830E-01
34  3.3000000000000E-01  1.8923153157628E+00  4.6287067149205E-01
35  3.4000000000000E-01  1.8971799098304E+00  4.7126497447203E-01
36  3.5000000000000E-01  1.8932092433357E+00  4.7761038684292E-01
37  3.6000000000000E-01  1.8804815165148E+00  4.8242035208501E-01
38  3.7000000000000E-01  1.8591644487333E+00  4.8629796621831E-01
39  3.8000000000000E-01  1.8295093208523E+00  4.8991448740676E-01
40  3.9000000000000E-01  1.7918435260383E+00  4.9398464243550E-01
41  4.0000000000000E-01  1.7465618767047E+00  4.9923961855129E-01
42  4.1000000000000E-01  1.6941169525106E+00  5.0639873744260E-01
43  4.2000000000000E-01  1.6350088014933E+00  5.1614087991815E-01
44  4.3000000000000E-01  1.5697743224085E+00  5.2907676167807E-01
45  4.4000000000000E-01  1.4989766605222E+00  5.4572315049327E-01
46  4.5000000000000E-01  1.4231949412245E+00  5.6648006271206E-01
47  4.6000000000000E-01  1.3430146461286E+00  5.9161188351725E-01
48  4.7000000000000E-01  1.2590189054590E+00  6.2123322356884E-01
49  4.8000000000000E-01  1.1717809396186E+00  6.5530015892036E-01
50  4.9000000000000E-01  1.0818578333481E+00  6.9360730710239E-01
51  5.0000000000000E-01  9.8978576969429E-01  7.3579097692550E-01
52  5.1000000000000E-01  8.9607679019510E-01  7.8133840071956E-01
53  5.2000000000000E-01  8.0121708458976E-01  8.2960282390975E-01
54  5.3000000000000E-01  7.0566675039135E-01  8.7982399690604E-01
55  5.4000000000000E-01  6.0986090227794E-01  9.3115339714058E-01
56  5.5000000000000E-01  5.1421195584141E-01  9.8268331330190E-01
57  5.6000000000000E-01  4.1911286200187E-01  1.0334787573090E+00
58  5.7000000000000E-01  3.2494102931535E-01  1.0826110392966E+00
59  5.8000000000000E-01  2.3206264311050E-01  1.1291917525531E+00
60  5.9000000000000E-01  1.4083707412319E-01  1.1724058731745E+00
61  6.0000000000000E-01  5.1621065841032E-02  1.2115426857031E+00
62  6.1000000000000E-01 -3.5227600582894E-02  1.2460233019343E+00
63  6.2000000000000E-01 -1.1934724245198E-01  1.2754236442323E+00
64  6.3000000000000E-01 -2.0037045658733E-01  1.2994919141022E+00
65  6.4000000000000E-01 -2.7792354358122E-01  1.3181597566005E+00
66  6.5000000000000E-01 -3.5162731855640E-01  1.3315465550157E+00
67  6.6000000000000E-01 -4.2109938957520E-01  1.3399565402590E+00
68  6.7000000000000E-01 -4.8595791782018E-01  1.3438686665715E+00
69  6.8000000000000E-01 -5.4582680439450E-01  1.3439194796909E+00
70  6.9000000000000E-01 -6.0034217981883E-01  1.3408794752127E+00
71  7.0000000000000E-01 -6.4916000679419E-01  1.3356237032157E+00
72  7.1000000000000E-01 -6.9196454726392E-01  1.3290976102228E+00
73  7.2000000000000E-01 -7.2847739374671E-01  1.3222793119268E+00
74  7.3000000000000E-01 -7.5846672456675E-01  1.3161396515327E+00
75  7.4000000000000E-01 -7.8175641482161E-01  1.3116015122123E+00
76  7.5000000000000E-01 -7.9823462111637E-01  1.3094999128195E+00
77  7.6000000000000E-01 -8.0786145913286E-01  1.3105444204343E+00
78  7.7000000000000E-01 -8.1067540933225E-01  1.3152853602503E+00
79  7.8000000000000E-01 -8.0679811725380E-01  1.3240851937456E+00
80  7.9000000000000E-01 -7.9643730014394E-01  1.3370962730389E+00
81  8.0000000000000E-01 -7.7988752963770E-01  1.3542459679671E+00
82  8.1000000000000E-01 -7.5752872901803E-01  1.3752299097406E+00
83  8.2000000000000E-01 -7.2982230084168E-01  1.3995138097246E+00
84  8.3000000000000E-01 -6.9730488371853E-01  1.4263440040105E+00
85  8.4000000000000E-01 -6.6057982276960E-01  1.4547665550100E+00
86  8.5000000000000E-01 -6.2030652360365E-01  1.4836544220155E+00
87  8.6000000000000E-01 -5.7718794133105E-01  1.5117419053535E+00
88  8.7000000000000E-01 -5.3195653103112E-01  1.5376652850500E+00
89  8.8000000000000E-01 -4.8535905124244E-01  1.5600083257763E+00
90  8.9000000000000E-01 -4.3814066478768E-01  1.5773511151408E+00
91  9.0000000000000E-01 -3.9102881929776E-01  1.5883205506118E+00
92  9.1000000000000E-01 -3.4471741137083E-01  1.5916406982159E+00
93  9.2000000000000E-01 -2.9985174213619E-01  1.5861812184011E+00
94  9.3000000000000E-01 -2.5701475744979E-01  1.5710020936309E+00
95  9.4000000000000E-01 -2.1671503298289E-01  1.5453929987123E+00
96  9.5000000000000E-01 -1.7937691369337E-01  1.5089058265472E+00
97  9.6000000000000E-01 -1.4533314979575E-01  1.4613791147082E+00
98  9.7000000000000E-01 -1.1482028914158E-01  1.4029534057530E+00
99  9.8000000000000E-01 -8.7976991235026E-02  1.3340769081277E+00
100  9.9000000000000E-01 -6.4845323580541E-02  1.2555011954389E+00
101  1.0000000000000E+00 -4.5374989858697E-02  1.1682670784416E+00
102  1.0100000000000E+00 -2.9430324812088E-02  1.0736811945632E+00
103  1.0200000000000E+00 -1.6799776207433E-02  9.7328427152100E-01
104  1.0300000000000E+00 -7.2074831368428E-03  8.6881242261140E-01
105  1.0400000000000E+00 -3.2645579765404E-04  7.6215320861741E-01
106  1.0500000000000E+00  4.2072322456097E-03  6.5529854405189E-01
107  1.0600000000000E+00  6.7799097038074E-03  5.5029682350975E-01
108  1.0700000000000E+00  7.7861674890618E-03  4.4920688743551E-01
109  1.0800000000000E+00  7.6158428409950E-03  3.5405650262772E-01
110  1.0900000000000E+00  6.6433507173539E-03  2.6680921635440E-01
111  1.1000000000000E+00  5.1943609761850E-03  1.8927994556301E-01
112  1.1100000000000E+00  3.5558110152102E-03  1.2314998054064E-01
113  1.1200000000000E+00  2.0478867037561E-03  7.0104098676098E-02
114  1.1300000000000E+00  8.9509148627621E-04  3.1431128232609E-02
115  1.1400000000000E+00  2.1088861566891E-04  7.8995797118530E-03
116  1.1500000000000E+00  4.7999269392805E-07  1.9506829992420E-05
117  1.1600000000000E+00  1.3389003354304E-06  5.4223667737612E-05
118  1.1700000000000E+00 -9.6480015239497E-08 -3.7398894442477E-06
119  1.18  0.  0.
120  1.19  0.  0.
121  1.20  0.  0.
122  1.21  0.  0.
123  1.22  0.  0.
124  1.23  0.  0.
125  1.24  0.  0.
126  1.25  0.  0.
127  1.26  0.  0.
128  1.27  0.  0.
129  1.28  0.  0.
130  1.29  0.  0.
131  1.30  0.  0.
132  1.31  0.  0.
133  1.32  0.  0.
134  1.33  0.  0.
135  1.34  0.  0.
136  1.35  0.  0.
137  1.36  0.  0.
138  1.37  0.  0.
139  1.38  0.  0.
140  1.39  0.  0.
141  1.40  0.  0.
142  1.41  0.  0.
143  1.42  0.  0.
144  1.43  0.  0.
145  1.44  0.  0.
146  1.45  0.  0.
147  1.46  0.  0.
148  1.47  0.  0.
149  1.48  0.  0.
150  1.49  0.  0.
151  1.50  0.  0.
152  1.51  0.  0.
153  1.52  0.  0.
154  1.53  0.  0.
155  1.54  0.  0.
156  1.55  0.  0.
157  1.56  0.  0.
158  1.57  0.  0.
159  1.58  0.  0.
160  1.59  0.  0.
161  1.60  0.  0.
162  1.61  0.  0.
163  1.62  0.  0.
164  1.63  0.  0.
165  1.64  0.  0.