Cm    ONCVPSP-4.0.1  r_core=   1.15013   1.15013   1.35173   1.35173
     96.0000     36.0000      211211    zatom,zion,pspd
     8      11   3     4   600     0    pspcod,pspxc,lmax,lloc,mmax,r2well
  5.99000000  5.00000000  0.00000000    rchrg fchrg qchrg
     3     2     2     2     0    nproj
     1     1           extension_switch
   0                         2.6948819551825E+01  3.5687800723393E+00 -8.2132701052661E-01
     1  0.0000000000000E+00 -1.5184169033233E-07  4.6750317034272E-07  8.2152054992068E-08
     2  1.0000000000000E-02  1.5864173808071E-01 -8.7856688628536E-02  1.4780565872680E-02
     3  2.0000000000000E-02  3.1583647471238E-01 -1.7295003034370E-01  2.9909042578285E-02
     4  3.0000000000000E-02  4.7016909727057E-01 -2.5260776061281E-01  4.5717025976351E-02
     5  4.0000000000000E-02  6.2028717187323E-01 -3.2433640663299E-01  6.2504103636715E-02
     6  5.0000000000000E-02  7.6492957741434E-01 -3.8590237962782E-01  8.0523382324617E-02
     7  6.0000000000000E-02  9.0295200897044E-01 -4.3540345912547E-01  9.9968791212991E-02
     8  7.0000000000000E-02  1.0333484951876E+00 -4.7132804560350E-01  1.2096465140914E-01
     9  8.0000000000000E-02  1.1552682260987E+00 -4.9260002538891E-01  1.4355792023089E-01
    10  9.0000000000000E-02  1.2680271662664E+00 -4.9860764135369E-01  1.6771342164742E-01
    11  1.0000000000000E-01  1.3711141262864E+00 -4.8921537358065E-01  1.9331226589110E-01
    12  1.1000000000000E-01  1.4641911758269E+00 -4.6475848228083E-01  2.2015354533605E-01
    13  1.2000000000000E-01  1.5470884953979E+00 -4.2602052586945E-01  2.4795927448257E-01
    14  1.3000000000000E-01  1.6197939736280E+00 -3.7419481482203E-01  2.7638242356227E-01
    15  1.4000000000000E-01  1.6824380538727E+00 -3.1083137181322E-01  3.0501778212746E-01
    16  1.5000000000000E-01  1.7352745108484E+00 -2.3777151721845E-01  3.3341528507186E-01
    17  1.6000000000000E-01  1.7786579878454E+00 -1.5707266525449E-01  3.6109534257219E-01
    18  1.7000000000000E-01  1.8130192421213E+00 -7.0926281933400E-02  3.8756564070810E-01
    19  1.8000000000000E-01  1.8388391258117E+00  1.8427792415884E-02  4.1233882369226E-01
    20  1.9000000000000E-01  1.8566223690468E+00  1.0878732565112E-01  4.3495043372948E-01
    21  2.0000000000000E-01  1.8668722294553E+00  1.9807065202906E-01  4.5497647177993E-01
    22  2.1000000000000E-01  1.8700670280116E+00  2.8439340648690E-01  4.7204995239238E-01
    23  2.2000000000000E-01  1.8666395070108E+00  3.6613608847234E-01  4.8587585794983E-01
    24  2.3000000000000E-01  1.8569598251767E+00  4.4199987547119E-01  4.9624395099281E-01
    25  2.4000000000000E-01  1.8413228522714E+00  5.1104857229594E-01  5.0303897585604E-01
    26  2.5000000000000E-01  1.8199402470919E+00  5.7273512923389E-01  5.0624787008677E-01
    27  2.6000000000000E-01  1.7929376054199E+00  6.2691176904710E-01  5.0596370883351E-01
    28  2.7000000000000E-01  1.7603567560843E+00  6.7382340600394E-01  5.0238621794446E-01
    29  2.8000000000000E-01  1.7221630719841E+00  7.1408469464663E-01  4.9581880989456E-01
    30  2.9000000000000E-01  1.6782574569987E+00  7.4864168648027E-01  4.8666221666335E-01
    31  3.0000000000000E-01  1.6284924772646E+00  7.7871967439692E-01  4.7540491105722E-01
    32  3.1000000000000E-01  1.5726919338843E+00  8.0575934414425E-01  4.6261061855476E-01
    33  3.2000000000000E-01  1.5106730304742E+00  8.3134380865579E-01  4.4890332164889E-01
    34  3.3000000000000E-01  1.4422701787186E+00  8.5711945698835E-01  4.3495024435134E-01
    35  3.4000000000000E-01  1.3673594125859E+00  8.8471379127891E-01  4.2144337301645E-01
    36  3.5000000000000E-01  1.2858823499625E+00  9.1565354333218E-01  4.0908011855953E-01
    37  3.6000000000000E-01  1.1978686504120E+00  9.5128635277036E-01  3.9854375281759E-01
    38  3.7000000000000E-01  1.1034559692169E+00  9.9270915170342E-01  3.9048425732938E-01
    39  3.8000000000000E-01  1.0029064987887E+00  1.0407061421396E+00  3.8550020608301E-01
    40  3.9000000000000E-01  8.9661931541146E-01  1.0956988821011E+00  3.8412226548272E-01
    41  4.0000000000000E-01  7.8513790715398E-01  1.1577105292263E+00  3.8679883637702E-01
    42  4.1000000000000E-01  6.6915244149081E-01  1.2263457448281E+00  3.9388428663540E-01
    43  4.2000000000000E-01  5.4949653159586E-01  1.3007871582774E+00  4.0563013126322E-01
    44  4.3000000000000E-01  4.2713847060204E-01  1.3798086546919E+00  4.2217941373075E-01
    45  4.4000000000000E-01  3.0316711518432E-01  1.4618051029708E+00  4.4356443079929E-01
    46  4.5000000000000E-01  1.7877280538955E-01  1.5448375112553E+00  4.6970782765801E-01
    47  4.6000000000000E-01  5.5223898752300E-02  1.6266920071960E+00  5.0042697476427E-01
    48  4.7000000000000E-01 -6.6160333966141E-02  1.7049505136220E+00  5.3544142650986E-01
    49  4.8000000000000E-01 -1.8403956308703E-01  1.7770705463997E+00  5.7438315863664E-01
    50  4.9000000000000E-01 -2.9708400871714E-01  1.8404712171980E+00  6.1680918980694E-01
    51  5.0000000000000E-01 -4.0400673854810E-01  1.8926222923024E+00  6.6221611605728E-01
    52  5.1000000000000E-01 -5.0359556002620E-01  1.9311330478593E+00  7.1005602763616E-01
    53  5.2000000000000E-01 -5.9474342388891E-01  1.9538376755060E+00  7.5975323790343E-01
    54  5.3000000000000E-01 -6.7647630826710E-01  1.9588741289179E+00  8.1072123479675E-01
    55  5.4000000000000E-01 -7.4797764297787E-01  1.9447535552328E+00  8.6237926733803E-01
    56  5.5000000000000E-01 -8.0860845855154E-01  1.9104178149227E+00  9.1416800248779E-01
    57  5.6000000000000E-01 -8.5792259888674E-01  1.8552830447430E+00  9.6556373033112E-01
    58  5.7000000000000E-01 -8.9567651404400E-01  1.7792677427014E+00  1.0160906563679E+00
    59  5.8000000000000E-01 -9.2183334354667E-01  1.6828044306634E+00  1.0653308962157E+00
    60  5.9000000000000E-01 -9.3656120306157E-01  1.5668345565098E+00  1.1129318774063E+00
    61  6.0000000000000E-01 -9.4022579063122E-01  1.4327869100159E+00  1.1586109518189E+00
    62  6.1000000000000E-01 -9.3337762492685E-01  1.2825404212119E+00  1.2021571270001E+00
    63  6.2000000000000E-01 -9.1673440986142E-01  1.1183727642398E+00  1.2434299313404E+00
    64  6.3000000000000E-01 -8.9115918058774E-01  9.4289668288373E-01  1.2823555329592E+00
    65  6.4000000000000E-01 -8.5763501957203E-01  7.5898636789755E-01  1.3189203314485E+00
    66  6.5000000000000E-01 -8.1723723341235E-01  5.6969653630226E-01  1.3531623318349E+00
    67  6.6000000000000E-01 -7.7110394800565E-01  3.7817707815692E-01  1.3851606881054E+00
    68  6.7000000000000E-01 -7.2040610966640E-01  1.8758624047301E-01  1.4150238667425E+00
    69  6.8000000000000E-01 -6.6631787245872E-01  1.0053089553967E-03  1.4428769268380E+00
    70  6.9000000000000E-01 -6.0998830842614E-01 -1.7864237131775E-01  1.4688484410352E+00
    71  7.0000000000000E-01 -5.5251530010600E-01 -3.4866541844383E-01  1.4930575900065E+00
    72  7.1000000000000E-01 -4.9492236753547E-01 -5.0666917771269E-01  1.5156019523117E+00
    73  7.2000000000000E-01 -4.3813904981539E-01 -6.5060931989115E-01  1.5365464819018E+00
    74  7.3000000000000E-01 -3.8298531006509E-01 -7.7883282235353E-01  1.5559141184875E+00
    75  7.4000000000000E-01 -3.3016026870758E-01 -8.9010537950693E-01  1.5736784133158E+00
    76  7.5000000000000E-01 -2.8023540033214E-01 -9.8362480834048E-01  1.5897584769843E+00
    77  7.6000000000000E-01 -2.3365216076069E-01 -1.0590205350262E+00  1.6040164695558E+00
    78  7.7000000000000E-01 -1.9072385004217E-01 -1.1163397490338E+00  1.6162577595362E+00
    79  7.8000000000000E-01 -1.5164137009960E-01 -1.1560212731124E+00  1.6262337805879E+00
    80  7.9000000000000E-01 -1.1648240803908E-01 -1.1788586039215E+00  1.6336475165660E+00
    81  8.0000000000000E-01 -8.5223472160107E-02 -1.1859539148752E+00  1.6381614499738E+00
    82  8.1000000000000E-01 -5.7754130797811E-02 -1.1786650690179E+00  1.6394077194653E+00
    83  8.2000000000000E-01 -3.3892756375517E-02 -1.1585478582068E+00  1.6370001515451E+00
    84  8.3000000000000E-01 -1.3403059248305E-02 -1.1272957620853E+00  1.6305477627691E+00
    85  8.4000000000000E-01  3.9892924113884E-03 -1.0866795067132E+00  1.6196692737224E+00
    86  8.5000000000000E-01  1.8580630998642E-02 -1.0384886023360E+00  1.6040081365689E+00
    87  8.6000000000000E-01  3.0674426062447E-02 -9.8447686015914E-01  1.5832475552327E+00
    88  8.7000000000000E-01  4.0568113454713E-02 -9.2631363953081E-01  1.5571249719289E+00
    89  8.8000000000000E-01  4.8542029150740E-02 -8.6554227244870E-01  1.5254455059430E+00
    90  8.9000000000000E-01  5.4850745929581E-02 -8.0354676626784E-01  1.4880938598637E+00
    91  9.0000000000000E-01  5.9716990785726E-02 -7.4152751334785E-01  1.4450442540282E+00
    92  9.1000000000000E-01  6.3328199507999E-02 -6.8048635381356E-01  1.3963680104587E+00
    93  9.2000000000000E-01  6.5835647316772E-02 -6.2122095969052E-01  1.3422384814012E+00
    94  9.3000000000000E-01  6.7355985344664E-02 -5.6432814934555E-01  1.2829331027990E+00
    95  9.4000000000000E-01  6.7974915857805E-02 -5.1021541222607E-01  1.2188324475417E+00
    96  9.5000000000000E-01  6.7752657422187E-02 -4.5911963499786E-01  1.1504162548818E+00
    97  9.6000000000000E-01  6.6730786600718E-02 -4.1113177784213E-01  1.0782565187531E+00
    98  9.7000000000000E-01  6.4939996034840E-02 -3.6622605737847E-01  1.0030078266794E+00
    99  9.8000000000000E-01  6.2408279568093E-02 -3.2429205059247E-01  9.2539525037001E-01
   100  9.9000000000000E-01  5.9169041908913E-02 -2.8516803901520E-01  8.4620019717364E-01
   101  1.0000000000000E+00  5.5268630659289E-02 -2.4867385800166E-01  7.6624473649960E-01
   102  1.0100000000000E+00  5.0772798794874E-02 -2.1464149296983E-01  6.8637501579265E-01
   103  1.0200000000000E+00  4.5771621508931E-02 -1.8294166122138E-01  6.0744447546171E-01
   104  1.0300000000000E+00  4.0382407736771E-02 -1.5350462078415E-01  5.3029766060695E-01
   105  1.0400000000000E+00  3.4750158141780E-02 -1.2633344138742E-01  4.5575550876782E-01
   106  1.0500000000000E+00  2.9045122244900E-02 -1.0150794140710E-01  3.8460306707842E-01
   107  1.0600000000000E+00  2.3456991904090E-02 -7.9177421948559E-02  3.1758065924801E-01
   108  1.0700000000000E+00  1.8185231080714E-02 -5.9540199791310E-02  2.5537958273100E-01
   109  1.0800000000000E+00  1.3424867982171E-02 -4.2807452817792E-02  1.9864338943253E-01
   110  1.0900000000000E+00  9.3478906685390E-03 -2.9150990390700E-02  1.4797652640723E-01
   111  1.1000000000000E+00  6.0293928083384E-03 -1.8499819544933E-02  1.0392317640982E-01
   112  1.1100000000000E+00  3.4477147161548E-03 -1.0523592153315E-02  6.7011160940137E-02
   113  1.1200000000000E+00  1.6459866615022E-03 -5.0772867351348E-03  3.7845775317291E-02
   114  1.1300000000000E+00  5.7450610204804E-04 -1.8399835095659E-03  1.6851685798917E-02
   115  1.1400000000000E+00  9.8044747481452E-05 -3.4609321776189E-04  4.2107334284246E-03
   116  1.1500000000000E+00  1.5630887268557E-07 -6.5863913230870E-07  1.0378922318081E-05
   117  1.1600000000000E+00  3.8633294294782E-07 -1.6763527137857E-06  2.8774070921621E-05
   118  1.1700000000000E+00 -3.7803451144914E-08  1.4290166480819E-07 -1.9896612438922E-06
   119  1.18  0.  0.  0.
   120  1.19  0.  0.  0.
   121  1.20  0.  0.  0.
   122  1.21  0.  0.  0.
   123  1.22  0.  0.  0.
   124  1.23  0.  0.  0.
   125  1.24  0.  0.  0.
   126  1.25  0.  0.  0.
   127  1.26  0.  0.  0.
   128  1.27  0.  0.  0.
   129  1.28  0.  0.  0.
   130  1.29  0.  0.  0.
   131  1.30  0.  0.  0.
   132  1.31  0.  0.  0.
   133  1.32  0.  0.  0.
   134  1.33  0.  0.  0.
   135  1.34  0.  0.  0.
   136  1.35  0.  0.  0.
   137  1.36  0.  0.  0.
   138  1.37  0.  0.  0.
   139  1.38  0.  0.  0.
   140  1.39  0.  0.  0.
   141  1.40  0.  0.  0.
   142  1.41  0.  0.  0.
   143  1.42  0.  0.  0.
   144  1.43  0.  0.  0.
   145  1.44  0.  0.  0.
   146  1.45  0.  0.  0.
   147  1.46  0.  0.  0.
   148  1.47  0.  0.  0.
   149  1.48  0.  0.  0.
   150  1.49  0.  0.  0.
   151  1.50  0.  0.  0.
   152  1.51  0.  0.  0.
   153  1.52  0.  0.  0.
   154  1.53  0.  0.  0.
   155  1.54  0.  0.  0.
   156  1.55  0.  0.  0.
   157  1.56  0.  0.  0.
   158  1.57  0.  0.  0.
   159  1.58  0.  0.  0.
   160  1.59  0.  0.  0.
   161  1.60  0.  0.  0.
   162  1.61  0.  0.  0.
   163  1.62  0.  0.  0.
   164  1.63  0.  0.  0.
   165  1.64  0.  0.  0.
   166  1.65  0.  0.  0.
   167  1.66  0.  0.  0.
   168  1.67  0.  0.  0.
   169  1.68  0.  0.  0.
   170  1.69  0.  0.  0.
   171  1.70  0.  0.  0.
   172  1.71  0.  0.  0.
   173  1.72  0.  0.  0.
   174  1.73  0.  0.  0.
   175  1.74  0.  0.  0.
   176  1.75  0.  0.  0.
   177  1.76  0.  0.  0.
   178  1.77  0.  0.  0.
   179  1.78  0.  0.  0.
   180  1.79  0.  0.  0.
   181  1.80  0.  0.  0.
   182  1.81  0.  0.  0.
   183  1.82  0.  0.  0.
   184  1.83  0.  0.  0.
   185  1.84  0.  0.  0.
   186  1.85  0.  0.  0.
   187  1.86  0.  0.  0.
   188  1.87  0.  0.  0.
   189  1.88  0.  0.  0.
   190  1.89  0.  0.  0.
   191  1.90  0.  0.  0.
   192  1.91  0.  0.  0.
   193  1.92  0.  0.  0.
   194  1.93  0.  0.  0.
   195  1.94  0.  0.  0.
   196  1.95  0.  0.  0.
   197  1.96  0.  0.  0.
   198  1.97  0.  0.  0.
   199  1.98  0.  0.  0.
   200  1.99  0.  0.  0.
   201  2.00  0.  0.  0.
   202  2.01  0.  0.  0.
   203  2.02  0.  0.  0.
   204  2.03  0.  0.  0.
   205  2.04  0.  0.  0.
   206  2.05  0.  0.  0.
   207  2.06  0.  0.  0.
   208  2.07  0.  0.  0.
   209  2.08  0.  0.  0.
   210  2.09  0.  0.  0.
   211  2.10  0.  0.  0.
   212  2.11  0.  0.  0.
   213  2.12  0.  0.  0.
   214  2.13  0.  0.  0.
   215  2.14  0.  0.  0.
   216  2.15  0.  0.  0.
   217  2.16  0.  0.  0.
   218  2.17  0.  0.  0.
   219  2.18  0.  0.  0.
   220  2.19  0.  0.  0.
   221  2.20  0.  0.  0.
   222  2.21  0.  0.  0.
   223  2.22  0.  0.  0.
   224  2.23  0.  0.  0.
   225  2.24  0.  0.  0.
   226  2.25  0.  0.  0.
   227  2.26  0.  0.  0.
   228  2.27  0.  0.  0.
   229  2.28  0.  0.  0.
   230  2.29  0.  0.  0.
   231  2.30  0.  0.  0.
   232  2.31  0.  0.  0.
   233  2.32  0.  0.  0.
   234  2.33  0.  0.  0.
   235  2.34  0.  0.  0.
   236  2.35  0.  0.  0.
   237  2.36  0.  0.  0.
   238  2.37  0.  0.  0.
   239  2.38  0.  0.  0.
   240  2.39  0.  0.  0.
   241  2.40  0.  0.  0.
   242  2.41  0.  0.  0.
   243  2.42  0.  0.  0.
   244  2.43  0.  0.  0.
   245  2.44  0.  0.  0.
   246  2.45  0.  0.  0.
   247  2.46  0.  0.  0.
   248  2.47  0.  0.  0.
   249  2.48  0.  0.  0.
   250  2.49  0.  0.  0.
   251  2.50  0.  0.  0.
   252  2.51  0.  0.  0.
   253  2.52  0.  0.  0.
   254  2.53  0.  0.  0.
   255  2.54  0.  0.  0.
   256  2.55  0.  0.  0.
   257  2.56  0.  0.  0.
   258  2.57  0.  0.  0.
   259  2.58  0.  0.  0.
   260  2.59  0.  0.  0.
   261  2.60  0.  0.  0.
   262  2.61  0.  0.  0.
   263  2.62  0.  0.  0.
   264  2.63  0.  0.  0.
   265  2.64  0.  0.  0.
   266  2.65  0.  0.  0.
   267  2.66  0.  0.  0.
   268  2.67  0.  0.  0.
   269  2.68  0.  0.  0.
   270  2.69  0.  0.  0.
   271  2.70  0.  0.  0.
   272  2.71  0.  0.  0.
   273  2.72  0.  0.  0.
   274  2.73  0.  0.  0.
   275  2.74  0.  0.  0.
   276  2.75  0.  0.  0.
   277  2.76  0.  0.  0.
   278  2.77  0.  0.  0.
   279  2.78  0.  0.  0.
   280  2.79  0.  0.  0.
   281  2.80  0.  0.  0.
   282  2.81  0.  0.  0.
   283  2.82  0.  0.  0.
   284  2.83  0.  0.  0.
   285  2.84  0.  0.  0.
   286  2.85  0.  0.  0.
   287  2.86  0.  0.  0.
   288  2.87  0.  0.  0.
   289  2.88  0.  0.  0.
   290  2.89  0.  0.  0.
   291  2.90  0.  0.  0.
   292  2.91  0.  0.  0.
   293  2.92  0.  0.  0.
   294  2.93  0.  0.  0.
   295  2.94  0.  0.  0.
   296  2.95  0.  0.  0.
   297  2.96  0.  0.  0.
   298  2.97  0.  0.  0.
   299  2.98  0.  0.  0.
   300  2.99  0.  0.  0.
   301  3.00  0.  0.  0.
   302  3.01  0.  0.  0.
   303  3.02  0.  0.  0.
   304  3.03  0.  0.  0.
   305  3.04  0.  0.  0.
   306  3.05  0.  0.  0.
   307  3.06  0.  0.  0.
   308  3.07  0.  0.  0.
   309  3.08  0.  0.  0.
   310  3.09  0.  0.  0.
   311  3.10  0.  0.  0.
   312  3.11  0.  0.  0.
   313  3.12  0.  0.  0.
   314  3.13  0.  0.  0.
   315  3.14  0.  0.  0.
   316  3.15  0.  0.  0.
   317  3.16  0.  0.  0.
   318  3.17  0.  0.  0.
   319  3.18  0.  0.  0.
   320  3.19  0.  0.  0.
   321  3.20  0.  0.  0.
   322  3.21  0.  0.  0.
   323  3.22  0.  0.  0.
   324  3.23  0.  0.  0.
   325  3.24  0.  0.  0.
   326  3.25  0.  0.  0.
   327  3.26  0.  0.  0.
   328  3.27  0.  0.  0.
   329  3.28  0.  0.  0.
   330  3.29  0.  0.  0.
   331  3.30  0.  0.  0.
   332  3.31  0.  0.  0.
   333  3.32  0.  0.  0.
   334  3.33  0.  0.  0.
   335  3.34  0.  0.  0.
   336  3.35  0.  0.  0.
   337  3.36  0.  0.  0.
   338  3.37  0.  0.  0.
   339  3.38  0.  0.  0.
   340  3.39  0.  0.  0.
   341  3.40  0.  0.  0.
   342  3.41  0.  0.  0.
   343  3.42  0.  0.  0.
   344  3.43  0.  0.  0.
   345  3.44  0.  0.  0.
   346  3.45  0.  0.  0.
   347  3.46  0.  0.  0.
   348  3.47  0.  0.  0.
   349  3.48  0.  0.  0.
   350  3.49  0.  0.  0.
   351  3.50  0.  0.  0.
   352  3.51  0.  0.  0.
   353  3.52  0.  0.  0.
   354  3.53  0.  0.  0.
   355  3.54  0.  0.  0.
   356  3.55  0.  0.  0.
   357  3.56  0.  0.  0.
   358  3.57  0.  0.  0.
   359  3.58  0.  0.  0.
   360  3.59  0.  0.  0.
   361  3.60  0.  0.  0.
   362  3.61  0.  0.  0.
   363  3.62  0.  0.  0.
   364  3.63  0.  0.  0.
   365  3.64  0.  0.  0.
   366  3.65  0.  0.  0.
   367  3.66  0.  0.  0.
   368  3.67  0.  0.  0.
   369  3.68  0.  0.  0.
   370  3.69  0.  0.  0.
   371  3.70  0.  0.  0.
   372  3.71  0.  0.  0.
   373  3.72  0.  0.  0.
   374  3.73  0.  0.  0.
   375  3.74  0.  0.  0.
   376  3.75  0.  0.  0.
   377  3.76  0.  0.  0.
   378  3.77  0.  0.  0.
   379  3.78  0.  0.  0.
   380  3.79  0.  0.  0.
   381  3.80  0.  0.  0.
   382  3.81  0.  0.  0.
   383  3.82  0.  0.  0.
   384  3.83  0.  0.  0.
   385  3.84  0.  0.  0.
   386  3.85  0.  0.  0.
   387  3.86  0.  0.  0.
   388  3.87  0.  0.  0.
   389  3.88  0.  0.  0.
   390  3.89  0.  0.  0.
   391  3.90  0.  0.  0.
   392  3.91  0.  0.  0.
   393  3.92  0.  0.  0.
   394  3.93  0.  0.  0.
   395  3.94  0.  0.  0.
   396  3.95  0.  0.  0.
   397  3.96  0.  0.  0.
   398  3.97  0.  0.  0.
   399  3.98  0.  0.  0.
   400  3.99  0.  0.  0.
   401  4.00  0.  0.  0.
   402  4.01  0.  0.  0.
   403  4.02  0.  0.  0.
   404  4.03  0.  0.  0.
   405  4.04  0.  0.  0.
   406  4.05  0.  0.  0.
   407  4.06  0.  0.  0.
   408  4.07  0.  0.  0.
   409  4.08  0.  0.  0.
   410  4.09  0.  0.  0.
   411  4.10  0.  0.  0.
   412  4.11  0.  0.  0.
   413  4.12  0.  0.  0.
   414  4.13  0.  0.  0.
   415  4.14  0.  0.  0.
   416  4.15  0.  0.  0.
   417  4.16  0.  0.  0.
   418  4.17  0.  0.  0.
   419  4.18  0.  0.  0.
   420  4.19  0.  0.  0.
   421  4.20  0.  0.  0.
   422  4.21  0.  0.  0.
   423  4.22  0.  0.  0.
   424  4.23  0.  0.  0.
   425  4.24  0.  0.  0.
   426  4.25  0.  0.  0.
   427  4.26  0.  0.  0.
   428  4.27  0.  0.  0.
   429  4.28  0.  0.  0.
   430  4.29  0.  0.  0.
   431  4.30  0.  0.  0.
   432  4.31  0.  0.  0.
   433  4.32  0.  0.  0.
   434  4.33  0.  0.  0.
   435  4.34  0.  0.  0.
   436  4.35  0.  0.  0.
   437  4.36  0.  0.  0.
   438  4.37  0.  0.  0.
   439  4.38  0.  0.  0.
   440  4.39  0.  0.  0.
   441  4.40  0.  0.  0.
   442  4.41  0.  0.  0.
   443  4.42  0.  0.  0.
   444  4.43  0.  0.  0.
   445  4.44  0.  0.  0.
   446  4.45  0.  0.  0.
   447  4.46  0.  0.  0.
   448  4.47  0.  0.  0.
   449  4.48  0.  0.  0.
   450  4.49  0.  0.  0.
   451  4.50  0.  0.  0.
   452  4.51  0.  0.  0.
   453  4.52  0.  0.  0.
   454  4.53  0.  0.  0.
   455  4.54  0.  0.  0.
   456  4.55  0.  0.  0.
   457  4.56  0.  0.  0.
   458  4.57  0.  0.  0.
   459  4.58  0.  0.  0.
   460  4.59  0.  0.  0.
   461  4.60  0.  0.  0.
   462  4.61  0.  0.  0.
   463  4.62  0.  0.  0.
   464  4.63  0.  0.  0.
   465  4.64  0.  0.  0.
   466  4.65  0.  0.  0.
   467  4.66  0.  0.  0.
   468  4.67  0.  0.  0.
   469  4.68  0.  0.  0.
   470  4.69  0.  0.  0.
   471  4.70  0.  0.  0.
   472  4.71  0.  0.  0.
   473  4.72  0.  0.  0.
   474  4.73  0.  0.  0.
   475  4.74  0.  0.  0.
   476  4.75  0.  0.  0.
   477  4.76  0.  0.  0.
   478  4.77  0.  0.  0.
   479  4.78  0.  0.  0.
   480  4.79  0.  0.  0.
   481  4.80  0.  0.  0.
   482  4.81  0.  0.  0.
   483  4.82  0.  0.  0.
   484  4.83  0.  0.  0.
   485  4.84  0.  0.  0.
   486  4.85  0.  0.  0.
   487  4.86  0.  0.  0.
   488  4.87  0.  0.  0.
   489  4.88  0.  0.  0.
   490  4.89  0.  0.  0.
   491  4.90  0.  0.  0.
   492  4.91  0.  0.  0.
   493  4.92  0.  0.  0.
   494  4.93  0.  0.  0.
   495  4.94  0.  0.  0.
   496  4.95  0.  0.  0.
   497  4.96  0.  0.  0.
   498  4.97  0.  0.  0.
   499  4.98  0.  0.  0.
   500  4.99  0.  0.  0.
   501  5.00  0.  0.  0.
   502  5.01  0.  0.  0.
   503  5.02  0.  0.  0.
   504  5.03  0.  0.  0.
   505  5.04  0.  0.  0.
   506  5.05  0.  0.  0.
   507  5.06  0.  0.  0.
   508  5.07  0.  0.  0.
   509  5.08  0.  0.  0.
   510  5.09  0.  0.  0.
   511  5.10  0.  0.  0.
   512  5.11  0.  0.  0.
   513  5.12  0.  0.  0.
   514  5.13  0.  0.  0.
   515  5.14  0.  0.  0.
   516  5.15  0.  0.  0.
   517  5.16  0.  0.  0.
   518  5.17  0.  0.  0.
   519  5.18  0.  0.  0.
   520  5.19  0.  0.  0.
   521  5.20  0.  0.  0.
   522  5.21  0.  0.  0.
   523  5.22  0.  0.  0.
   524  5.23  0.  0.  0.
   525  5.24  0.  0.  0.
   526  5.25  0.  0.  0.
   527  5.26  0.  0.  0.
   528  5.27  0.  0.  0.
   529  5.28  0.  0.  0.
   530  5.29  0.  0.  0.
   531  5.30  0.  0.  0.
   532  5.31  0.  0.  0.
   533  5.32  0.  0.  0.
   534  5.33  0.  0.  0.
   535  5.34  0.  0.  0.
   536  5.35  0.  0.  0.
   537  5.36  0.  0.  0.
   538  5.37  0.  0.  0.
   539  5.38  0.  0.  0.
   540  5.39  0.  0.  0.
   541  5.40  0.  0.  0.
   542  5.41  0.  0.  0.
   543  5.42  0.  0.  0.
   544  5.43  0.  0.  0.
   545  5.44  0.  0.  0.
   546  5.45  0.  0.  0.
   547  5.46  0.  0.  0.
   548  5.47  0.  0.  0.
   549  5.48  0.  0.  0.
   550  5.49  0.  0.  0.
   551  5.50  0.  0.  0.
   552  5.51  0.  0.  0.
   553  5.52  0.  0.  0.
   554  5.53  0.  0.  0.
   555  5.54  0.  0.  0.
   556  5.55  0.  0.  0.
   557  5.56  0.  0.  0.
   558  5.57  0.  0.  0.
   559  5.58  0.  0.  0.
   560  5.59  0.  0.  0.
   561  5.60  0.  0.  0.
   562  5.61  0.  0.  0.
   563  5.62  0.  0.  0.
   564  5.63  0.  0.  0.
   565  5.64  0.  0.  0.
   566  5.65  0.  0.  0.
   567  5.66  0.  0.  0.
   568  5.67  0.  0.  0.
   569  5.68  0.  0.  0.
   570  5.69  0.  0.  0.
   571  5.70  0.  0.  0.
   572  5.71  0.  0.  0.
   573  5.72  0.  0.  0.
   574  5.73  0.  0.  0.
   575  5.74  0.  0.  0.
   576  5.75  0.  0.  0.
   577  5.76  0.  0.  0.
   578  5.77  0.  0.  0.
   579  5.78  0.  0.  0.
   580  5.79  0.  0.  0.
   581  5.80  0.  0.  0.
   582  5.81  0.  0.  0.
   583  5.82  0.  0.  0.
   584  5.83  0.  0.  0.
   585  5.84  0.  0.  0.
   586  5.85  0.  0.  0.
   587  5.86  0.  0.  0.
   588  5.87  0.  0.  0.
   589  5.88  0.  0.  0.
   590  5.89  0.  0.  0.
   591  5.90  0.  0.  0.
   592  5.91  0.  0.  0.
   593  5.92  0.  0.  0.
   594  5.93  0.  0.  0.
   595  5.94  0.  0.  0.
   596  5.95  0.  0.  0.
   597  5.96  0.  0.  0.
   598  5.97  0.  0.  0.
   599  5.98  0.  0.  0.
   600  5.99  0.  0.  0.
   1                         8.9872438557414E+00 -6.1329805167789E-01
     1  0.0000000000000E+00 -2.3660142622894E-08 -9.3326908721827E-08
     2  1.0000000000000E-02  3.7156964977239E-03 -1.7775866085733E-04
     3  2.0000000000000E-02  1.4841785575340E-02 -6.7622122302005E-04
     4  3.0000000000000E-02  3.3315038226209E-02 -1.3925580586655E-03
     5  4.0000000000000E-02  5.9029331010202E-02 -2.1606886937491E-03
     6  5.0000000000000E-02  9.1834593705848E-02 -2.7590048861098E-03
     7  6.0000000000000E-02  1.3153545399551E-01 -2.9207316557265E-03
     8  7.0000000000000E-02  1.7788969114541E-01 -2.3464962886863E-03
     9  8.0000000000000E-02  2.3060663430244E-01 -7.1858200951335E-04
    10  9.0000000000000E-02  2.8934565888353E-01  2.2837297141760E-03
    11  1.0000000000000E-01  3.5371494575880E-01  6.9683734786530E-03
    12  1.1000000000000E-01  4.2327067196102E-01  1.3614939757364E-02
    13  1.2000000000000E-01  4.9751679819975E-01  2.2460006148841E-02
    14  1.3000000000000E-01  5.7590560752021E-01  3.3683996363223E-02
    15  1.4000000000000E-01  6.5783913131566E-01  4.7400147951457E-02
    16  1.5000000000000E-01  7.4267157415251E-01  6.3646090782642E-02
    17  1.6000000000000E-01  8.2971281833828E-01  8.2378438478226E-02
    18  1.7000000000000E-01  9.1823305392660E-01  1.0347067813826E-01
    19  1.8000000000000E-01  1.0074685411780E+00  1.2671451415151E-01
    20  1.9000000000000E-01  1.0966284718009E+00  1.5182468459945E-01
    21  2.0000000000000E-01  1.1849028540973E+00  1.7844712901660E-01
    22  2.1000000000000E-01  1.2714713069983E+00  2.0617024947442E-01
    23  2.2000000000000E-01  1.3555126104264E+00  2.3453887847187E-01
    24  2.3000000000000E-01  1.4362148259535E+00  2.6307045203998E-01
    25  2.4000000000000E-01  1.5127857736538E+00  2.9127278943854E-01
    26  2.5000000000000E-01  1.5844636295584E+00  3.1866280583980E-01
    27  2.6000000000000E-01  1.6505273941216E+00  3.4478543465965E-01
    28  2.7000000000000E-01  1.7103069762831E+00  3.6923201398446E-01
    29  2.8000000000000E-01  1.7631926404304E+00  3.9165739809952E-01
    30  2.9000000000000E-01  1.8086435748894E+00  4.1179509061661E-01
    31  3.0000000000000E-01  1.8461953602622E+00  4.2946975917846E-01
    32  3.1000000000000E-01  1.8754661434062E+00  4.4460658115934E-01
    33  3.2000000000000E-01  1.8961613572690E+00  4.5723698213314E-01
    34  3.3000000000000E-01  1.9080768670233E+00  4.6750046016942E-01
    35  3.4000000000000E-01  1.9111004676329E+00  4.7564233448881E-01
    36  3.5000000000000E-01  1.9052117056009E+00  4.8200741129146E-01
    37  3.6000000000000E-01  1.8904800465306E+00  4.8702971687363E-01
    38  3.7000000000000E-01  1.8670614585560E+00  4.9121860247239E-01
    39  3.8000000000000E-01  1.8351935279322E+00  4.9514167064615E-01
    40  3.9000000000000E-01  1.7951892654577E+00  4.9940510367684E-01
    41  4.0000000000000E-01  1.7474297993860E+00  5.0463208520097E-01
    42  4.1000000000000E-01  1.6923561807088E+00  5.1144009245156E-01
    43  4.2000000000000E-01  1.6304605490477E+00  5.2041789439108E-01
    44  4.3000000000000E-01  1.5622769210252E+00  5.3210311792570E-01
    45  4.4000000000000E-01  1.4883718673796E+00  5.4696123873823E-01
    46  4.5000000000000E-01  1.4093353400648E+00  5.6536681470688E-01
    47  4.6000000000000E-01  1.3257718962971E+00  5.8758770928259E-01
    48  4.7000000000000E-01  1.2382925435021E+00  6.1377295171784E-01
    49  4.8000000000000E-01  1.1475073982210E+00  6.4394475398822E-01
    50  4.9000000000000E-01  1.0540193144273E+00  6.7799505501822E-01
    51  5.0000000000000E-01  9.5841859379558E-01  7.1568679673021E-01
    52  5.1000000000000E-01  8.6127884389660E-01  7.5665995954096E-01
    53  5.2000000000000E-01  7.6315400186651E-01  8.0044220381203E-01
    54  5.3000000000000E-01  6.6457649268157E-01  8.4646378528066E-01
    55  5.4000000000000E-01  5.6605644467366E-01  8.9407624354243E-01
    56  5.5000000000000E-01  4.6808184217807E-01  9.4257420986810E-01
    57  5.6000000000000E-01  3.7111945793022E-01  9.9121955016673E-01
    58  5.7000000000000E-01  2.7561637753668E-01  1.0392669561564E+00
    59  5.8000000000000E-01  1.8200190629576E-01  1.0859900272198E+00
    60  5.9000000000000E-01  9.0689635780197E-02  1.1307068502958E+00
    61  6.0000000000000E-01  2.0794445142840E-03  1.1728040874826E+00
    62  6.1000000000000E-01 -8.3440786008888E-02  1.2117586214103E+00
    63  6.2000000000000E-01 -1.6549394199649E-01  1.2471558860191E+00
    64  6.3000000000000E-01 -2.4371311077373E-01  1.2787041228812E+00
    65  6.4000000000000E-01 -3.1774181876545E-01  1.3062439469483E+00
    66  6.5000000000000E-01 -3.8723517462516E-01  1.3297527756797E+00
    67  6.6000000000000E-01 -4.5186197148210E-01  1.3493438658674E+00
    68  6.7000000000000E-01 -5.1130775212698E-01  1.3652599062190E+00
    69  6.8000000000000E-01 -5.6527878928525E-01  1.3778613233484E+00
    70  6.9000000000000E-01 -6.1350688205771E-01  1.3876096663240E+00
    71  7.0000000000000E-01 -6.5575482126746E-01  1.3950466324019E+00
    72  7.1000000000000E-01 -6.9182233291591E-01  1.4007694762539E+00
    73  7.2000000000000E-01 -7.2155227212838E-01  1.4054036997468E+00
    74  7.3000000000000E-01 -7.4483681156185E-01  1.4095740427238E+00
    75  7.4000000000000E-01 -7.6162334963806E-01  1.4138748820443E+00
    76  7.5000000000000E-01 -7.7191985619864E-01  1.4188411923337E+00
    77  7.6000000000000E-01 -7.7579937687876E-01  1.4249212249918E+00
    78  7.7000000000000E-01 -7.7340343286196E-01  1.4324520210797E+00
    79  7.8000000000000E-01 -7.6494407944649E-01  1.4416387894808E+00
    80  7.9000000000000E-01 -7.5070442431640E-01  1.4525390566103E+00
    81  8.0000000000000E-01 -7.3103745341977E-01  1.4650523318919E+00
    82  8.1000000000000E-01 -7.0636306737502E-01  1.4789158396674E+00
    83  8.2000000000000E-01 -6.7716329246383E-01  1.4937066498762E+00
    84  8.3000000000000E-01 -6.4397569535619E-01  1.5088503045008E+00
    85  8.4000000000000E-01 -6.0738509737896E-01  1.5236357929566E+00
    86  8.5000000000000E-01 -5.6801374988814E-01  1.5372364863393E+00
    87  8.6000000000000E-01 -5.2651019461754E-01  1.5487364068665E+00
    88  8.7000000000000E-01 -4.8353708929200E-01  1.5571609939606E+00
    89  8.8000000000000E-01 -4.3975832701035E-01  1.5615113406618E+00
    90  8.9000000000000E-01 -3.9582581585625E-01  1.5608007210742E+00
    91  9.0000000000000E-01 -3.5236631114002E-01  1.5540921178760E+00
    92  9.1000000000000E-01 -3.0996870524949E-01  1.5405353937407E+00
    93  9.2000000000000E-01 -2.6917217836648E-01  1.5194027354913E+00
    94  9.3000000000000E-01 -2.3045559684484E-01  1.4901210368774E+00
    95  9.4000000000000E-01 -1.9422851487653E-01  1.4522999753067E+00