No    ONCVPSP-4.0.1  r_core=   1.15610   1.15610   1.33458   1.35065
102.0000     42.0000      220307    zatom,zion,pspd
8      11   3     4   600     0    pspcod,pspxc,lmax,lloc,mmax,r2well
5.99000000  5.00000000  0.00000000    rchrg fchrg qchrg
3     2     2     2     0    nproj
1     1           extension_switch
0                         2.5479383827962E+01 -3.1177809347324E+00  2.3701513726921E+00
1  0.0000000000000E+00 -1.5411800058374E-08 -3.3898634455021E-09  5.6764033584678E-08
2  1.0000000000000E-02  1.7891085414662E-01  4.1996070993430E-02 -6.7280420557849E-02
3  2.0000000000000E-02  3.5641706033943E-01  8.3842825248373E-02 -1.3310679938300E-01
4  3.0000000000000E-02  5.3112791442362E-01  1.2539302162653E-01 -1.9605036647002E-01
5  4.0000000000000E-02  7.0168040791698E-01  1.6650353275257E-01 -2.5473234919088E-01
6  5.0000000000000E-02  8.6675260020124E-01  2.0703730922399E-01 -3.0784762124175E-01
7  6.0000000000000E-02  1.0250764314818E+00  2.4686523516540E-01 -3.5418677464804E-01
8  7.0000000000000E-02  1.1754498089608E+00  2.8586784306984E-01 -3.9265615889995E-01
9  8.0000000000000E-02  1.3167478140793E+00  3.2393685925922E-01 -4.2229548805523E-01
10  9.0000000000000E-02  1.4479328970439E+00  3.6097655532023E-01 -4.4229268397766E-01
11  1.0000000000000E-01  1.5680639456023E+00  3.9690488540119E-01 -4.5199569956300E-01
12  1.1000000000000E-01  1.6763041375476E+00  4.3165439414218E-01 -4.5092114734339E-01
13  1.2000000000000E-01  1.7719275100571E+00  4.6517288510443E-01 -4.3875964360484E-01
14  1.3000000000000E-01  1.8543242030022E+00  4.9742384470319E-01 -4.1537786334931E-01
15  1.4000000000000E-01  1.9230043571459E+00  5.2838662167888E-01 -3.8081738436364E-01
16  1.5000000000000E-01  1.9776006709879E+00  5.5805636691277E-01 -3.3529047669785E-01
17  1.6000000000000E-01  2.0178696413520E+00  5.8644374277347E-01 -2.7917306460194E-01
18  1.7000000000000E-01  2.0436915320727E+00  6.1357441505067E-01 -2.1299514929228E-01
19  1.8000000000000E-01  2.0550691319054E+00  6.3948834379882E-01 -1.3742903104501E-01
20  1.9000000000000E-01  2.0521253767008E+00  6.6423889200760E-01 -5.3275706713472E-02
21  2.0000000000000E-01  2.0350999217280E+00  6.8789177289544E-01  3.8550157057141E-02
22  2.1000000000000E-01  2.0043447576913E+00  7.1052385777606E-01  1.3703626427398E-01
23  2.2000000000000E-01  1.9603189684755E+00  7.3222186689240E-01  2.4108933637031E-01
24  2.3000000000000E-01  1.9035827301050E+00  7.5308096539062E-01  3.4955197439582E-01
25  2.4000000000000E-01  1.8347906490600E+00  7.7320328579119E-01  4.6121937412763E-01
26  2.5000000000000E-01  1.7546845342899E+00  7.9269639699400E-01  5.7485557056369E-01
27  2.6000000000000E-01  1.6640856914401E+00  8.1167173814142E-01  6.8920893587914E-01
28  2.7000000000000E-01  1.5638868204389E+00  8.3024303368045E-01  8.0302670907830E-01
29  2.8000000000000E-01  1.4550435892267E+00  8.4852470384176E-01  9.1506839390730E-01
30  2.9000000000000E-01  1.3385659475898E+00  8.6663028262343E-01  1.0241179216403E+00
31  3.0000000000000E-01  1.2155092363587E+00  8.8467085335787E-01  1.1289945346364E+00
32  3.1000000000000E-01  1.0869651391542E+00  9.0275351017096E-01  1.2285624026656E+00
33  3.2000000000000E-01  9.5405251691254E-01  9.2097985221446E-01  1.3217390347047E+00
34  3.3000000000000E-01  8.1790815998718E-01  9.3944451655198E-01  1.4075025921856E+00
35  3.4000000000000E-01  6.7967748905321E-01  9.5823375506154E-01  1.4848982439163E+00
36  3.5000000000000E-01  5.4050523453480E-01  9.7742406071886E-01  1.5530437268035E+00
37  3.6000000000000E-01  4.0152612496525E-01  9.9708084914534E-01  1.6111342892808E+00
38  3.7000000000000E-01  2.6385561756162E-01  1.0172572023205E+00  1.6584471956190E+00
39  3.8000000000000E-01  1.2858070922694E-01  1.0379926828112E+00  1.6943459592383E+00
40  3.9000000000000E-01 -3.2491270501375E-03  1.0593122286787E+00  1.7182844523503E+00
41  4.0000000000000E-01 -1.3063082719124E-01  1.0812251412826E+00  1.7298110088227E+00
42  4.1000000000000E-01 -2.5261637993709E-01  1.1037241803802E+00  1.7285725985960E+00
43  4.2000000000000E-01 -3.6832115737804E-01  1.1267847830749E+00  1.7143191071190E+00
44  4.3000000000000E-01 -4.7693185005365E-01  1.1503644251533E+00  1.6869077042840E+00
45  4.4000000000000E-01 -5.7771391545125E-01  1.1744021450064E+00  1.6463072365585E+00
46  4.5000000000000E-01 -6.7001844087625E-01  1.1988182515045E+00  1.5926025259028E+00
47  4.6000000000000E-01 -7.5328831566736E-01  1.2235142377513E+00  1.5259984121060E+00
48  4.7000000000000E-01 -8.2706360413636E-01  1.2483729224526E+00  1.4468233337361E+00
49  4.8000000000000E-01 -8.9098600991862E-01  1.2732588395996E+00  1.3555322092265E+00
50  4.9000000000000E-01 -9.4480232501869E-01  1.2980188952119E+00  1.2527083556087E+00
51  5.0000000000000E-01 -9.8836676301596E-01  1.3224833069708E+00  1.1390641696605E+00
52  5.1000000000000E-01 -1.0216420858261E+00  1.3464668387039E+00  1.0154402959249E+00
53  5.2000000000000E-01 -1.0446994471146E+00  1.3697703368715E+00  8.8280301884803E-01
54  5.3000000000000E-01 -1.0577168928266E+00  1.3921825705564E+00  7.4223964237826E-01
55  5.4000000000000E-01 -1.0609764800604E+00  1.4134823700507E+00  5.9495165940604E-01
56  5.5000000000000E-01 -1.0548599992870E+00  1.4334410521408E+00  4.4224556453298E-01
57  5.6000000000000E-01 -1.0398433111620E+00  1.4518251127692E+00  2.8552122547590E-01
58  5.7000000000000E-01 -1.0164893372539E+00  1.4683991601244E+00  1.2625779909015E-01
59  5.8000000000000E-01 -9.8543977317845E-01  1.4829290535885E+00 -3.4002744686163E-02
60  5.9000000000000E-01 -9.4740562206163E-01  1.4951852066022E+00 -1.9367434627694E-01
61  6.0000000000000E-01 -9.0315667509346E-01  1.5049460046323E+00 -3.5114759994958E-01
62  6.1000000000000E-01 -8.5351009329110E-01  1.5120012832925E+00 -5.0481220899145E-01
63  6.2000000000000E-01 -7.9931826958521E-01  1.5161558064969E+00 -6.5308076789708E-01
64  6.3000000000000E-01 -7.4145617214105E-01  1.5172326805406E+00 -7.9441341810809E-01
65  6.4000000000000E-01 -6.8080838765270E-01  1.5150766373801E+00 -9.2734286538043E-01
66  6.5000000000000E-01 -6.1825609653032E-01  1.5095571192864E+00 -1.0504992011631E+00
67  6.6000000000000E-01 -5.5466421987767E-01  1.5005710975659E+00 -1.1626339395705E+00
68  6.7000000000000E-01 -4.9086898051456E-01  1.4880455602754E+00 -1.2626426672817E+00
69  6.8000000000000E-01 -4.2766611677186E-01  1.4719396077932E+00 -1.3495857071702E+00
70  6.9000000000000E-01 -3.6579997828321E-01  1.4522461007410E+00 -1.4227062182669E+00
71  7.0000000000000E-01 -3.0595371759199E-01  1.4289928119813E+00 -1.4814451948151E+00
72  7.1000000000000E-01 -2.4874077033609E-01  1.4022430431303E+00 -1.5254528851401E+00
73  7.2000000000000E-01 -1.9469779048227E-01  1.3720956760420E+00 -1.5545962256876E+00
74  7.3000000000000E-01 -1.4427917613155E-01  1.3386846408226E+00 -1.5689619751951E+00
75  7.4000000000000E-01 -9.7853286517649E-02  1.3021777938809E+00 -1.5688553363932E+00
76  7.5000000000000E-01 -5.5700412810094E-02  1.2627752120267E+00 -1.5547939652360E+00
77  7.6000000000000E-01 -1.8012525141545E-02  1.2207069213965E+00 -1.5274973874939E+00
78  7.7000000000000E-01  1.5105223094941E-02  1.1762300927082E+00 -1.4878719663419E+00
79  7.8000000000000E-01  4.3631294139927E-02  1.1296257467096E+00 -1.4369916889297E+00
80  7.9000000000000E-01  6.7622968999515E-02  1.0811950253743E+00 -1.3760751613295E+00
81  8.0000000000000E-01  8.7210094480683E-02  1.0312550951280E+00 -1.3064593162412E+00
82  8.1000000000000E-01  1.0258754944592E-01  9.8013475788046E-01 -1.2295704430345E+00
83  8.2000000000000E-01  1.1400663734678E-01  9.2816985364357E-01 -1.1468932419423E+00
84  8.3000000000000E-01  1.2176563908624E-01  8.7569854483112E-01 -1.0599386806058E+00
85  8.4000000000000E-01  1.2619978174709E-01  8.2305657677767E-01 -9.7021148913247E-01
86  8.5000000000000E-01  1.2767089408513E-01  7.7057261145416E-01 -8.7917816719153E-01
87  8.6000000000000E-01  1.2655702841176E-01  7.1856373170062E-01 -7.8823639164907E-01
88  8.7000000000000E-01  1.2324233021009E-01  6.6733121149110E-01 -6.9868670448168E-01
89  8.8000000000000E-01  1.1810743128408E-01  6.1715664377995E-01 -6.1170732724570E-01
90  8.9000000000000E-01  1.1152062930212E-01  5.6829851137381E-01 -5.2833288966168E-01
91  9.0000000000000E-01  1.0383009622603E-01  5.2098927808347E-01 -4.4943777565367E-01
92  9.1000000000000E-01  9.5357330377791E-02  4.7543306721171E-01 -3.7572468054306E-01
93  9.2000000000000E-01  8.6392031904001E-02  4.3180398232072E-01 -3.0771883828031E-01
94  9.3000000000000E-01  7.7188539321880E-02  3.9024511130005E-01 -2.4576821802297E-01
95  9.4000000000000E-01  6.7963915863860E-02  3.5086823913127E-01 -1.9004980551825E-01
96  9.5000000000000E-01  5.8897718631092E-02  3.1375427750774E-01 -1.4058187693825E-01
97  9.6000000000000E-01  5.0133421296851E-02  2.7895440071106E-01 -9.7241941451116E-02
98  9.7000000000000E-01  4.1781392313070E-02  2.4649185691610E-01 -5.9789773804991E-02
99  9.8000000000000E-01  3.3923255283754E-02  2.1636440242816E-01 -2.7894679376407E-02
100  9.9000000000000E-01  2.6617376265500E-02  1.8854728323797E-01 -1.1658308458738E-03
101  1.0000000000000E+00  1.9905133943160E-02  1.6299666364325E-01  2.0815813381525E-02
102  1.0100000000000E+00  1.3817532562268E-02  1.3965337543848E-01  3.8465855152336E-02
103  1.0200000000000E+00  8.3816136389644E-03  1.1844683316237E-01  5.2167298693933E-02
104  1.0300000000000E+00  3.6260099644029E-03  9.9298930868715E-02  6.2246538870575E-02
105  1.0400000000000E+00 -4.1513656622415E-04  8.2127703597652E-02  6.8957599534500E-02
106  1.0500000000000E+00 -3.7008042213456E-03  6.6850501866963E-02  7.2478219358440E-02
107  1.0600000000000E+00 -6.1853232976316E-03  5.3386389586040E-02  7.2921921517849E-02
108  1.0700000000000E+00 -7.8254239109616E-03  4.1657434456353E-02  7.0370792213034E-02
109  1.0800000000000E+00 -8.5934696909883E-03  3.1588526308506E-02  6.4934280999913E-02
110  1.0900000000000E+00 -8.4985818305897E-03  2.3105204952219E-02  5.6840568213247E-02
111  1.1000000000000E+00 -7.6194031029160E-03  1.6127586109228E-02  4.6573964818388E-02
112  1.1100000000000E+00 -6.1868283129628E-03  1.0530164377708E-02  3.5193667836551E-02
113  1.1200000000000E+00 -4.4567851548877E-03  6.2209232317249E-03  2.3857317578635E-02
114  1.1300000000000E+00 -2.6856600031843E-03  3.1214954314101E-03  1.3640197904850E-02
115  1.1400000000000E+00 -1.1605389310342E-03  1.1363734578465E-03  5.6268869420513E-03
116  1.1500000000000E+00 -1.8936236819035E-04  1.5761694332168E-04  8.8058900339489E-04
117  1.1600000000000E+00  1.1067379286276E-05 -8.1851519425773E-06 -5.0072461538618E-05
118  1.1700000000000E+00 -1.5707178143293E-08  1.2168488900480E-08  7.1846795333562E-08
119  1.18 -0. -0.  0.
120  1.19  0.  0.  0.
121  1.20  0.  0.  0.
122  1.21  0.  0.  0.
123  1.22  0.  0.  0.
124  1.23  0.  0.  0.
125  1.24  0.  0.  0.
126  1.25  0.  0.  0.
127  1.26  0.  0.  0.
128  1.27  0.  0.  0.
129  1.28  0.  0.  0.
130  1.29  0.  0.  0.
131  1.30  0.  0.  0.
132  1.31  0.  0.  0.
133  1.32  0.  0.  0.
134  1.33  0.  0.  0.
135  1.34  0.  0.  0.
136  1.35  0.  0.  0.
137  1.36  0.  0.  0.
138  1.37  0.  0.  0.
139  1.38  0.  0.  0.
140  1.39  0.  0.  0.
141  1.40  0.  0.  0.
142  1.41  0.  0.  0.
143  1.42  0.  0.  0.
144  1.43  0.  0.  0.
145  1.44  0.  0.  0.
146  1.45  0.  0.  0.
147  1.46  0.  0.  0.
148  1.47  0.  0.  0.
149  1.48  0.  0.  0.
150  1.49  0.  0.  0.
151  1.50  0.  0.  0.
152  1.51  0.  0.  0.
153  1.52  0.  0.  0.
154  1.53  0.  0.  0.
155  1.54  0.  0.  0.
156  1.55  0.  0.  0.
157  1.56  0.  0.  0.
158  1.57  0.  0.  0.
159  1.58  0.  0.  0.
160  1.59  0.  0.  0.
161  1.60  0.  0.  0.
162  1.61  0.  0.  0.
163  1.62  0.  0.  0.
164  1.63  0.  0.  0.
165  1.64  0.  0.  0.
166  1.65  0.  0.  0.
167  1.66  0.  0.  0.
168  1.67  0.  0.  0.
169  1.68  0.  0.  0.
170  1.69  0.  0.  0.
171  1.70  0.  0.  0.
172  1.71  0.  0.  0.
173  1.72  0.  0.  0.
174  1.73  0.  0.  0.
175  1.74  0.  0.  0.
176  1.75  0.  0.  0.
177  1.76  0.  0.  0.
178  1.77  0.  0.  0.
179  1.78  0.  0.  0.
180  1.79  0.  0.  0.
181  1.80  0.  0.  0.
182  1.81  0.  0.  0.
183  1.82  0.  0.  0.
184  1.83  0.  0.  0.
185  1.84  0.  0.  0.
186  1.85  0.  0.  0.
187  1.86  0.  0.  0.
188  1.87  0.  0.  0.
189  1.88  0.  0.  0.
190  1.89  0.  0.  0.
191  1.90  0.  0.  0.
192  1.91  0.  0.  0.
193  1.92  0.  0.  0.
194  1.93  0.  0.  0.
195  1.94  0.  0.  0.
196  1.95  0.  0.  0.
197  1.96  0.  0.  0.
198  1.97  0.  0.  0.
199  1.98  0.  0.  0.
200  1.99  0.  0.  0.
201  2.00  0.  0.  0.
202  2.01  0.  0.  0.
203  2.02  0.  0.  0.
204  2.03  0.  0.  0.
205  2.04  0.  0.  0.
206  2.05  0.  0.  0.
207  2.06  0.  0.  0.
208  2.07  0.  0.  0.
209  2.08  0.  0.  0.
210  2.09  0.  0.  0.
211  2.10  0.  0.  0.
212  2.11  0.  0.  0.
213  2.12  0.  0.  0.
214  2.13  0.  0.  0.
215  2.14  0.  0.  0.
216  2.15  0.  0.  0.
217  2.16  0.  0.  0.
218  2.17  0.  0.  0.
219  2.18  0.  0.  0.
220  2.19  0.  0.  0.
221  2.20  0.  0.  0.
222  2.21  0.  0.  0.
223  2.22  0.  0.  0.
224  2.23  0.  0.  0.
225  2.24  0.  0.  0.
226  2.25  0.  0.  0.
227  2.26  0.  0.  0.
228  2.27  0.  0.  0.
229  2.28  0.  0.  0.
230  2.29  0.  0.  0.
231  2.30  0.  0.  0.
232  2.31  0.  0.  0.
233  2.32  0.  0.  0.
234  2.33  0.  0.  0.
235  2.34  0.  0.  0.
236  2.35  0.  0.  0.
237  2.36  0.  0.  0.
238  2.37  0.  0.  0.
239  2.38  0.  0.  0.
240  2.39  0.  0.  0.
241  2.40  0.  0.  0.
242  2.41  0.  0.  0.
243  2.42  0.  0.  0.
244  2.43  0.  0.  0.
245  2.44  0.  0.  0.
246  2.45  0.  0.  0.
247  2.46  0.  0.  0.
248  2.47  0.  0.  0.
249  2.48  0.  0.  0.
250  2.49  0.  0.  0.
251  2.50  0.  0.  0.
252  2.51  0.  0.  0.
253  2.52  0.  0.  0.
254  2.53  0.  0.  0.
255  2.54  0.  0.  0.
256  2.55  0.  0.  0.
257  2.56  0.  0.  0.
258  2.57  0.  0.  0.
259  2.58  0.  0.  0.
260  2.59  0.  0.  0.
261  2.60  0.  0.  0.
262  2.61  0.  0.  0.
263  2.62  0.  0.  0.
264  2.63  0.  0.  0.
265  2.64  0.  0.  0.
266  2.65  0.  0.  0.
267  2.66  0.  0.  0.
268  2.67  0.  0.  0.
269  2.68  0.  0.  0.
270  2.69  0.  0.  0.
271  2.70  0.  0.  0.
272  2.71  0.  0.  0.
273  2.72  0.  0.  0.
274  2.73  0.  0.  0.
275  2.74  0.  0.  0.
276  2.75  0.  0.  0.
277  2.76  0.  0.  0.
278  2.77  0.  0.  0.
279  2.78  0.  0.  0.
280  2.79  0.  0.  0.
281  2.80  0.  0.  0.
282  2.81  0.  0.  0.
283  2.82  0.  0.  0.
284  2.83  0.  0.  0.
285  2.84  0.  0.  0.
286  2.85  0.  0.  0.
287  2.86  0.  0.  0.
288  2.87  0.  0.  0.
289  2.88  0.  0.  0.
290  2.89  0.  0.  0.
291  2.90  0.  0.  0.
292  2.91  0.  0.  0.
293  2.92  0.  0.  0.
294  2.93  0.  0.  0.
295  2.94  0.  0.  0.
296  2.95  0.  0.  0.
297  2.96  0.  0.  0.
298  2.97  0.  0.  0.
299  2.98  0.  0.  0.
300  2.99  0.  0.  0.
301  3.00  0.  0.  0.
302  3.01  0.  0.  0.
303  3.02  0.  0.  0.
304  3.03  0.  0.  0.
305  3.04  0.  0.  0.
306  3.05  0.  0.  0.
307  3.06  0.  0.  0.
308  3.07  0.  0.  0.
309  3.08  0.  0.  0.
310  3.09  0.  0.  0.
311  3.10  0.  0.  0.
312  3.11  0.  0.  0.
313  3.12  0.  0.  0.
314  3.13  0.  0.  0.
315  3.14  0.  0.  0.
316  3.15  0.  0.  0.
317  3.16  0.  0.  0.
318  3.17  0.  0.  0.
319  3.18  0.  0.  0.
320  3.19  0.  0.  0.
321  3.20  0.  0.  0.
322  3.21  0.  0.  0.
323  3.22  0.  0.  0.
324  3.23  0.  0.  0.
325  3.24  0.  0.  0.
326  3.25  0.  0.  0.
327  3.26  0.  0.  0.
328  3.27  0.  0.  0.
329  3.28  0.  0.  0.
330  3.29  0.  0.  0.
331  3.30  0.  0.  0.
332  3.31  0.  0.  0.
333  3.32  0.  0.  0.
334  3.33  0.  0.  0.
335  3.34  0.  0.  0.
336  3.35  0.  0.  0.
337  3.36  0.  0.  0.
338  3.37  0.  0.  0.
339  3.38  0.  0.  0.
340  3.39  0.  0.  0.
341  3.40  0.  0.  0.
342  3.41  0.  0.  0.
343  3.42  0.  0.  0.
344  3.43  0.  0.  0.
345  3.44  0.  0.  0.
346  3.45  0.  0.  0.
347  3.46  0.  0.  0.
348  3.47  0.  0.  0.
349  3.48  0.  0.  0.
350  3.49  0.  0.  0.
351  3.50  0.  0.  0.
352  3.51  0.  0.  0.
353  3.52  0.  0.  0.
354  3.53  0.  0.  0.
355  3.54  0.  0.  0.
356  3.55  0.  0.  0.
357  3.56  0.  0.  0.
358  3.57  0.  0.  0.
359  3.58  0.  0.  0.
360  3.59  0.  0.  0.
361  3.60  0.  0.  0.
362  3.61  0.  0.  0.
363  3.62  0.  0.  0.
364  3.63  0.  0.  0.
365  3.64  0.  0.  0.
366  3.65  0.  0.  0.
367  3.66  0.  0.  0.
368  3.67  0.  0.  0.
369  3.68  0.  0.  0.
370  3.69  0.  0.  0.
371  3.70  0.  0.  0.
372  3.71  0.  0.  0.
373  3.72  0.  0.  0.
374  3.73  0.  0.  0.
375  3.74  0.  0.  0.
376  3.75  0.  0.  0.
377  3.76  0.  0.  0.
378  3.77  0.  0.  0.
379  3.78  0.  0.  0.
380  3.79  0.  0.  0.
381  3.80  0.  0.  0.
382  3.81  0.  0.  0.
383  3.82  0.  0.  0.
384  3.83  0.  0.  0.
385  3.84  0.  0.  0.
386  3.85  0.  0.  0.
387  3.86  0.  0.  0.
388  3.87  0.  0.  0.
389  3.88  0.  0.  0.
390  3.89  0.  0.  0.
391  3.90  0.  0.  0.
392  3.91  0.  0.  0.
393  3.92  0.  0.  0.
394  3.93  0.  0.  0.
395  3.94  0.  0.  0.
396  3.95  0.  0.  0.
397  3.96  0.  0.  0.
398  3.97  0.  0.  0.
399  3.98  0.  0.  0.
400  3.99  0.  0.  0.
401  4.00  0.  0.  0.
402  4.01  0.  0.  0.
403  4.02  0.  0.  0.
404  4.03  0.  0.  0.
405  4.04  0.  0.  0.
406  4.05  0.  0.  0.
407  4.06  0.  0.  0.
408  4.07  0.  0.  0.
409  4.08  0.  0.  0.
410  4.09  0.  0.  0.
411  4.10  0.  0.  0.
412  4.11  0.  0.  0.
413  4.12  0.  0.  0.
414  4.13  0.  0.  0.
415  4.14  0.  0.  0.
416  4.15  0.  0.  0.
417  4.16  0.  0.  0.
418  4.17  0.  0.  0.
419  4.18  0.  0.  0.
420  4.19  0.  0.  0.
421  4.20  0.  0.  0.
422  4.21  0.  0.  0.
423  4.22  0.  0.  0.
424  4.23  0.  0.  0.
425  4.24  0.  0.  0.
426  4.25  0.  0.  0.
427  4.26  0.  0.  0.
428  4.27  0.  0.  0.
429  4.28  0.  0.  0.
430  4.29  0.  0.  0.
431  4.30  0.  0.  0.
432  4.31  0.  0.  0.
433  4.32  0.  0.  0.
434  4.33  0.  0.  0.
435  4.34  0.  0.  0.
436  4.35  0.  0.  0.
437  4.36  0.  0.  0.
438  4.37  0.  0.  0.
439  4.38  0.  0.  0.
440  4.39  0.  0.  0.
441  4.40  0.  0.  0.
442  4.41  0.  0.  0.
443  4.42  0.  0.  0.
444  4.43  0.  0.  0.
445  4.44  0.  0.  0.
446  4.45  0.  0.  0.
447  4.46  0.  0.  0.
448  4.47  0.  0.  0.
449  4.48  0.  0.  0.
450  4.49  0.  0.  0.
451  4.50  0.  0.  0.
452  4.51  0.  0.  0.
453  4.52  0.  0.  0.
454  4.53  0.  0.  0.
455  4.54  0.  0.  0.
456  4.55  0.  0.  0.
457  4.56  0.  0.  0.
458  4.57  0.  0.  0.
459  4.58  0.  0.  0.
460  4.59  0.  0.  0.
461  4.60  0.  0.  0.
462  4.61  0.  0.  0.
463  4.62  0.  0.  0.
464  4.63  0.  0.  0.
465  4.64  0.  0.  0.
466  4.65  0.  0.  0.
467  4.66  0.  0.  0.
468  4.67  0.  0.  0.
469  4.68  0.  0.  0.
470  4.69  0.  0.  0.
471  4.70  0.  0.  0.
472  4.71  0.  0.  0.
473  4.72  0.  0.  0.
474  4.73  0.  0.  0.
475  4.74  0.  0.  0.
476  4.75  0.  0.  0.
477  4.76  0.  0.  0.
478  4.77  0.  0.  0.
479  4.78  0.  0.  0.
480  4.79  0.  0.  0.
481  4.80  0.  0.  0.
482  4.81  0.  0.  0.
483  4.82  0.  0.  0.
484  4.83  0.  0.  0.
485  4.84  0.  0.  0.
486  4.85  0.  0.  0.
487  4.86  0.  0.  0.
488  4.87  0.  0.  0.
489  4.88  0.  0.  0.
490  4.89  0.  0.  0.
491  4.90  0.  0.  0.
492  4.91  0.  0.  0.
493  4.92  0.  0.  0.
494  4.93  0.  0.  0.
495  4.94  0.  0.  0.
496  4.95  0.  0.  0.
497  4.96  0.  0.  0.
498  4.97  0.  0.  0.
499  4.98  0.  0.  0.
500  4.99  0.  0.  0.
501  5.00  0.  0.  0.
502  5.01  0.  0.  0.
503  5.02  0.  0.  0.
504  5.03  0.  0.  0.
505  5.04  0.  0.  0.
506  5.05  0.  0.  0.
507  5.06  0.  0.  0.
508  5.07  0.  0.  0.
509  5.08  0.  0.  0.
510  5.09  0.  0.  0.
511  5.10  0.  0.  0.
512  5.11  0.  0.  0.
513  5.12  0.  0.  0.
514  5.13  0.  0.  0.
515  5.14  0.  0.  0.
516  5.15  0.  0.  0.
517  5.16  0.  0.  0.
518  5.17  0.  0.  0.
519  5.18  0.  0.  0.
520  5.19  0.  0.  0.
521  5.20  0.  0.  0.
522  5.21  0.  0.  0.
523  5.22  0.  0.  0.
524  5.23  0.  0.  0.
525  5.24  0.  0.  0.
526  5.25  0.  0.  0.
527  5.26  0.  0.  0.
528  5.27  0.  0.  0.
529  5.28  0.  0.  0.
530  5.29  0.  0.  0.
531  5.30  0.  0.  0.
532  5.31  0.  0.  0.
533  5.32  0.  0.  0.
534  5.33  0.  0.  0.
535  5.34  0.  0.  0.
536  5.35  0.  0.  0.
537  5.36  0.  0.  0.
538  5.37  0.  0.  0.
539  5.38  0.  0.  0.
540  5.39  0.  0.  0.
541  5.40  0.  0.  0.
542  5.41  0.  0.  0.
543  5.42  0.  0.  0.
544  5.43  0.  0.  0.
545  5.44  0.  0.  0.
546  5.45  0.  0.  0.
547  5.46  0.  0.  0.
548  5.47  0.  0.  0.
549  5.48  0.  0.  0.
550  5.49  0.  0.  0.
551  5.50  0.  0.  0.
552  5.51  0.  0.  0.
553  5.52  0.  0.  0.
554  5.53  0.  0.  0.
555  5.54  0.  0.  0.
556  5.55  0.  0.  0.
557  5.56  0.  0.  0.
558  5.57  0.  0.  0.
559  5.58  0.  0.  0.
560  5.59  0.  0.  0.
561  5.60  0.  0.  0.
562  5.61  0.  0.  0.
563  5.62  0.  0.  0.
564  5.63  0.  0.  0.
565  5.64  0.  0.  0.
566  5.65  0.  0.  0.
567  5.66  0.  0.  0.
568  5.67  0.  0.  0.
569  5.68  0.  0.  0.
570  5.69  0.  0.  0.
571  5.70  0.  0.  0.
572  5.71  0.  0.  0.
573  5.72  0.  0.  0.
574  5.73  0.  0.  0.
575  5.74  0.  0.  0.
576  5.75  0.  0.  0.
577  5.76  0.  0.  0.
578  5.77  0.  0.  0.
579  5.78  0.  0.  0.
580  5.79  0.  0.  0.
581  5.80  0.  0.  0.
582  5.81  0.  0.  0.
583  5.82  0.  0.  0.
584  5.83  0.  0.  0.
585  5.84  0.  0.  0.
586  5.85  0.  0.  0.
587  5.86  0.  0.  0.
588  5.87  0.  0.  0.
589  5.88  0.  0.  0.
590  5.89  0.  0.  0.
591  5.90  0.  0.  0.
592  5.91  0.  0.  0.
593  5.92  0.  0.  0.
594  5.93  0.  0.  0.
595  5.94  0.  0.  0.
596  5.95  0.  0.  0.
597  5.96  0.  0.  0.
598  5.97  0.  0.  0.
599  5.98  0.  0.  0.
600  5.99  0.  0.  0.
1                         7.5806810928786E+00 -2.8635883513414E+00
1  0.0000000000000E+00  4.3101626712172E-09 -3.8547318254034E-09
2  1.0000000000000E-02  5.4614028909642E-03  6.7648571453285E-04
3  2.0000000000000E-02  2.1787362456408E-02  2.7093678704291E-03
4  3.0000000000000E-02  4.8803642315004E-02  6.1088185479514E-03
5  4.0000000000000E-02  8.6221550737829E-02  1.0891450503258E-02
6  5.0000000000000E-02  1.3364049070155E-01  1.7079814702611E-02
7  6.0000000000000E-02  1.9055152275485E-01  2.4701713815822E-02
8  7.0000000000000E-02  2.5634193213276E-01  3.3789348026498E-02
9  8.0000000000000E-02  3.3030078724341E-01  4.4378313371407E-02
10  9.0000000000000E-02  4.1162547107477E-01  5.6506476098969E-02
11  1.0000000000000E-01  4.9942916008162E-01  7.0212749147882E-02
12  1.1000000000000E-01  5.9274921664723E-01  8.5535798724103E-02
13  1.2000000000000E-01  6.9055645128200E-01  1.0251271005344E-01
14  1.3000000000000E-01  7.9176519941849E-01  1.2117764168890E-01
15  1.4000000000000E-01  8.9524414516977E-01  1.4156049726287E-01
16  1.5000000000000E-01  9.9982781099470E-01  1.6368564232500E-01
17  1.6000000000000E-01  1.1043286181936E+00  1.8757069195338E-01
18  1.7000000000000E-01  1.2075494089366E+00  2.1322539224430E-01
19  1.8000000000000E-01  1.3082963065525E+00  2.4065061567204E-01
20  1.9000000000000E-01  1.4053917775585E+00  2.6983748677525E-01
21  2.0000000000000E-01  1.4976877468933E+00  3.0076665079385E-01
22  2.1000000000000E-01  1.5840786075272E+00  3.3340769388098E-01
23  2.2000000000000E-01  1.6635139575459E+00  3.6771871948186E-01
24  2.3000000000000E-01  1.7350108923828E+00  4.0364608153719E-01
25  2.4000000000000E-01  1.7976656774989E+00  4.4112427145889E-01
26  2.5000000000000E-01  1.8506646278003E+00  4.8007595245569E-01
27  2.6000000000000E-01  1.8932940246619E+00  5.2041213185564E-01
28  2.7000000000000E-01  1.9249489097426E+00  5.6203245966501E-01
29  2.8000000000000E-01  1.9451406068371E+00  6.0482563978045E-01
30  2.9000000000000E-01  1.9535028387480E+00  6.4866993907224E-01
31  3.0000000000000E-01  1.9497963253584E+00  6.9343377899744E-01
32  3.1000000000000E-01  1.9339117714432E+00  7.3897639447230E-01
33  3.2000000000000E-01  1.9058711778507E+00  7.8514854540195E-01
34  3.3000000000000E-01  1.8658274370021E+00  8.3179326747559E-01
35  3.4000000000000E-01  1.8140622026016E+00  8.7874665051281E-01
36  3.5000000000000E-01  1.7509820533630E+00  9.2583863469712E-01
37  3.6000000000000E-01  1.6771130007222E+00  9.7289381735074E-01
38  3.7000000000000E-01  1.5930934201992E+00  1.0197322653733E+00
39  3.8000000000000E-01  1.4996655145454E+00  1.0661703309654E+00
40  3.9000000000000E-01  1.3976654433525E+00  1.1120214706627E+00
41  4.0000000000000E-01  1.2880122777258E+00  1.1570970699032E+00
42  4.1000000000000E-01  1.1716959593263E+00  1.2012072772254E+00
43  4.2000000000000E-01  1.0497644600350E+00  1.2441618536576E+00
44  4.3000000000000E-01  9.2331035124803E-01  1.2857710438282E+00
45  4.4000000000000E-01  7.9345700007621E-01  1.3258464757439E+00
46  4.5000000000000E-01  6.6134461329132E-01  1.3642020960116E+00
47  4.6000000000000E-01  5.2811634868423E-01  1.4006551465154E+00
48  4.7000000000000E-01  3.9490470765517E-01  1.4350271872035E+00
49  4.8000000000000E-01  2.6281841254801E-01  1.4671451677462E+00
50  4.9000000000000E-01  1.3292995780511E-01  1.4968425484424E+00
51  5.0000000000000E-01  6.2640059059343E-03  1.5239604679788E+00
52  5.1000000000000E-01 -1.1621322219290E-01  1.5483489525685E+00
53  5.2000000000000E-01 -2.3360343614477E-01  1.5698681577534E+00
54  5.3000000000000E-01 -3.4508454441405E-01  1.5883896308609E+00
55  5.4000000000000E-01 -4.4991762782035E-01  1.6037975789005E+00
56  5.5000000000000E-01 -5.4745257164009E-01  1.6159901237173E+00
57  5.6000000000000E-01 -6.3713233607896E-01  1.6248805236006E+00
58  5.7000000000000E-01 -7.1849587044598E-01  1.6303983384197E+00
59  5.8000000000000E-01 -7.9117970016006E-01  1.6324905138229E+00
60  5.9000000000000E-01 -8.5491823724355E-01  1.6311223591851E+00
61  6.0000000000000E-01 -9.0954288374253E-01  1.6262783938912E+00
62  6.1000000000000E-01 -9.5498001320749E-01  1.6179630372433E+00
63  6.2000000000000E-01 -9.9124792773741E-01  1.6062011187874E+00
64  6.3000000000000E-01 -1.0184528970261E+00  1.5910381881666E+00
65  6.4000000000000E-01 -1.0367843913694E+00  1.5725406066713E+00
66  6.5000000000000E-01 -1.0465096228329E+00  1.5507954064066E+00
67  6.6000000000000E-01 -1.0479675079912E+00  1.5259099073419E+00
68  6.7000000000000E-01 -1.0415621621819E+00  1.4980110873153E+00
69  6.8000000000000E-01 -1.0277560295061E+00  1.4672447052174E+00
70  6.9000000000000E-01 -1.0070627453347E+00  1.4337741829040E+00
71  7.0000000000000E-01 -9.8003981940222E-01  1.3977792567397E+00
72  7.1000000000000E-01 -9.4728121821969E-01  1.3594544148812E+00
73  7.2000000000000E-01 -9.0940991607497E-01  1.3190071413126E+00
74  7.3000000000000E-01 -8.6707047482570E-01  1.2766559920887E+00
75  7.4000000000000E-01 -8.2092170448654E-01  1.2326285330911E+00
76  7.5000000000000E-01 -7.7162944966506E-01  1.1871591717301E+00
77  7.6000000000000E-01 -7.1985954150777E-01  1.1404869173388E+00
78  7.7000000000000E-01 -6.6627095117925E-01  1.0928531064356E+00
79  7.8000000000000E-01 -6.1150917910186E-01  1.0444991295317E+00
80  7.9000000000000E-01 -5.5619991420222E-01  9.9566419573179E-01
81  8.0000000000000E-01 -5.0094299910051E-01  9.4658317003168E-01
82  8.1000000000000E-01 -4.4630674028772E-01  8.9748451601982E-01
83  8.2000000000000E-01 -3.9282260651031E-01  8.4858837372197E-01
84  8.3000000000000E-01 -3.4098036338333E-01  8.0010479869857E-01
85  8.4000000000000E-01 -2.9122369717419E-01  7.5223218435274E-01
86  8.5000000000000E-01 -2.4394638518509E-01  7.0515588488301E-01
87  8.6000000000000E-01 -1.9948907363187E-01  6.5904705158768E-01
88  8.7000000000000E-01 -1.5813672578791E-01  6.1406169047147E-01
89  8.8000000000000E-01 -1.2011680287348E-01  5.7033994449787E-01
90  8.9000000000000E-01 -8.5598237207613E-02  5.2800559954471E-01
91  9.0000000000000E-01 -5.4691251050878E-02  4.8716580932140E-01
92  9.1000000000000E-01 -2.7448064990413E-02  4.4791103134272E-01
93  9.2000000000000E-01 -3.8645263875220E-03  4.1031516365740E-01
94  9.3000000000000E-01  1.6117328828323E-02  3.7443587050718E-01
95  9.4000000000000E-01  3.2605788903656E-02  3.4031508452648E-01
96  9.5000000000000E-01  4.5755086446692E-02  3.0797967353751E-01
97  9.6000000000000E-01  5.5760187600028E-02  2.7744226147770E-01
98  9.7000000000000E-01  6.2850843691024E-02  2.4870219551199E-01
99  9.8000000000000E-01  6.7285033656365E-02  2.2174665490286E-01
100  9.9000000000000E-01  6.9341962666143E-02  1.9655190167903E-01
101  1.0000000000000E+00  6.9314821240424E-02  1.7308467848543E-01
102  1.0100000000000E+00  6.7503549064638E-02  1.5130376511379E-01
103  1.0200000000000E+00  6.4207887964448E-02  1.3116171198992E-01
104  1.0300000000000E+00  5.9721048420874E-02  1.1260677621953E-01
105  1.0400000000000E+00  5.4324352835408E-02  9.5585093531981E-02
106  1.0500000000000E+00  4.8283255802482E-02  8.0043127477168E-02
107  1.0600000000000E+00  4.1845176368362E-02  6.5930445416454E-02
108  1.0700000000000E+00  3.5239608987589E-02  5.3202879057867E-02
109  1.0800000000000E+00  2.8681028427065E-02  4.1826140108580E-02
110  1.0900000000000E+00  2.2374955938499E-02  3.1779926913077E-02
111  1.1000000000000E+00  1.6525143121972E-02  2.3062039722924E-02
112  1.1100000000000E+00  1.1288612299770E-02  1.5678754876938E-02
113  1.1200000000000E+00  6.8918796535340E-03  9.6683033368869E-03
114  1.1300000000000E+00  3.5299799400417E-03  5.0761365658099E-03
115  1.1400000000000E+00  1.2948154968012E-03  1.9384743285832E-03
116  1.1500000000000E+00  1.7836221994201E-04  2.8278640887120E-04
117  1.1600000000000E+00 -9.1768661975539E-06 -1.5289984329474E-05
118  1.1700000000000E+00  1.3728788205682E-08  2.2367031309093E-08
119  1.18 -0. -0.
120  1.19  0.  0.
121  1.20  0.  0.
122  1.21  0.  0.
123  1.22  0.  0.
124  1.23  0.  0.
125  1.24  0.  0.
126  1.25  0.  0.
127  1.26  0.  0.
128  1.27  0.  0.
129  1.28  0.  0.
130  1.29  0.  0.
131  1.30  0.  0.
132  1.31  0.  0.
133  1.32  0.  0.
134  1.33  0.  0.
135  1.34  0.  0.
136  1.35  0.  0.
137  1.36  0.  0.
138  1.37  0.  0.
139  1.38  0.  0.
140  1.39  0.  0.
141  1.40  0.  0.
142  1.41  0.  0.
143  1.42  0.  0.
144  1.43  0.  0.
145  1.44  0.  0.
146  1.45  0.  0.
147  1.46  0.  0.
148  1.47  0.  0.
149  1.48  0.  0.
150  1.49  0.  0.
151  1.50  0.  0.
152  1.51  0.  0.
153  1.52  0.  0.
154  1.53  0.  0.
155  1.54  0.  0.
156  1.55  0.  0.
157  1.56  0.  0.
158  1.57  0.  0.
159  1.58  0.  0.
160  1.59  0.  0.
161  1.60  0.  0.
162  1.61  0.  0.
163  1.62  0.  0.
164  1.63  0.  0.
165  1.64  0.  0.