No    ONCVPSP-4.0.1  r_core=   1.15610   1.15610   1.15610   1.35065
102.0000     42.0000      220205    zatom,zion,pspd
8      11   3     4   600     0    pspcod,pspxc,lmax,lloc,mmax,r2well
5.99000000  5.00000000  0.00000000    rchrg fchrg qchrg
3     2     2     2     0    nproj
1     1           extension_switch
0                         1.9138431846492E+01 -2.8185522505149E+00  2.2911981424535E+00
1  0.0000000000000E+00 -9.1644693167581E-08 -2.0466753014592E-08 -3.0583178700638E-07
2  1.0000000000000E-02  1.6436500165086E-01  4.3774522288844E-02  6.8921089509696E-02
3  2.0000000000000E-02  3.2725129968486E-01  8.7372939222029E-02  1.3556730015283E-01
4  3.0000000000000E-02  4.8720560959911E-01  1.3062356965982E-01  1.9773323108084E-01
5  4.0000000000000E-02  6.4282475687512E-01  1.7336342770206E-01  2.5335007474746E-01
6  5.0000000000000E-02  7.9277893649027E-01  2.1544219295715E-01  3.0054809054062E-01
7  6.0000000000000E-02  9.3583288730391E-01  2.5672574354418E-01  3.3771232246599E-01
8  7.0000000000000E-02  1.0708643993433E+00  2.9709913137335E-01  3.6352968610975E-01
9  8.0000000000000E-02  1.1968796636591E+00  3.3646889971720E-01  3.7702585594011E-01
10  9.0000000000000E-02  1.3130250826147E+00  3.7476466719684E-01  3.7759074517469E-01
11  1.0000000000000E-01  1.4185952793247E+00  4.1193992916722E-01  3.6499177399255E-01
12  1.1000000000000E-01  1.5130371741061E+00  4.4797205608951E-01  3.3937455333178E-01
13  1.2000000000000E-01  1.5959501286245E+00  4.8286149776295E-01  3.0125105542042E-01
14  1.3000000000000E-01  1.6670822901156E+00  5.1663023116156E-01  2.5147578263300E-01
15  1.4000000000000E-01  1.7263233939393E+00  5.4931951700753E-01  1.9121086746950E-01
16  1.5000000000000E-01  1.7736943982664E+00  5.8098705509563E-01  1.2188142334834E-01
17  1.6000000000000E-01  1.8093344257918E+00  6.1170364983613E-01  4.5122804650718E-02
18  1.7000000000000E-01  1.8334855704306E+00  6.4154951471286E-01 -3.7278287032771E-02
19  1.8000000000000E-01  1.8464761890650E+00  6.7061035672150E-01 -1.2344670514584E-01
20  1.9000000000000E-01  1.8487033374143E+00  6.9897338890708E-01 -2.1148349277429E-01
21  2.0000000000000E-01  1.8406150237013E+00  7.2672342060408E-01 -2.9952992479762E-01
22  2.1000000000000E-01  1.8226929435676E+00  7.5393917085318E-01 -3.8582866782244E-01
23  2.2000000000000E-01  1.7954363251537E+00  7.8068994088971E-01 -4.6877988555668E-01
24  2.3000000000000E-01  1.7593474557921E+00  8.0703276694172E-01 -5.4699031269678E-01
25  2.4000000000000E-01  1.7149193835831E+00  8.3301015539875E-01 -6.1931358665120E-01
26  2.5000000000000E-01  1.6626261912224E+00  8.5864847944818E-01 -6.8488045378226E-01
27  2.6000000000000E-01  1.6029161294428E+00  8.8395709039387E-01 -7.4311784340841E-01
28  2.7000000000000E-01  1.5362077774647E+00  9.0892816905416E-01 -7.9375621489172E-01
29  2.8000000000000E-01  1.4628892724048E+00  9.3353731393559E-01 -8.3682501579331E-01
30  2.9000000000000E-01  1.3833205233720E+00  9.5774483437999E-01 -8.7263652663717E-01
31  3.0000000000000E-01  1.2978382036856E+00  9.8149768966333E-01 -9.0175879445032E-01
32  3.1000000000000E-01  1.2067632008395E+00  1.0047319901119E+00 -9.2497875751850E-01
33  3.2000000000000E-01  1.1104101027551E+00  1.0273759546358E+00 -9.4325702325923E-01
34  3.3000000000000E-01  1.0090982142662E+00  1.0493532014773E+00 -9.5767606681747E-01
35  3.4000000000000E-01  9.0316353281896E-01  1.0705862360942E+00 -9.6938385891730E-01
36  3.5000000000000E-01  7.9297106946772E-01  1.0909999924328E+00 -9.7953509902861E-01
37  3.6000000000000E-01  6.7892688200464E-01  1.1105252816743E+00 -9.8923231804080E-01
38  3.7000000000000E-01  5.6148919220829E-01  1.1291020059420E+00 -9.9946912027576E-01
39  3.8000000000000E-01  4.4117798856335E-01  1.1466820033091E+00 -1.0110777577085E+00
40  3.9000000000000E-01  3.1858256832092E-01  1.1632314044011E+00 -1.0246830725571E+00
41  4.0000000000000E-01  1.9436654652049E-01  1.1787323994250E+00 -1.0406646137036E+00
42  4.1000000000000E-01  6.9269951881098E-02  1.1931843368709E+00 -1.0591284361161E+00
43  4.2000000000000E-01 -5.5891863088876E-02  1.2066041005829E+00 -1.0798897413046E+00
44  4.3000000000000E-01 -1.8023265175270E-01  1.2190257394167E+00 -1.1024671235840E+00
45  4.4000000000000E-01 -3.0280307122628E-01  1.2304993522668E+00 -1.1260887657192E+00
46  4.5000000000000E-01 -4.2260174910297E-01  1.2410892597810E+00 -1.1497104935614E+00
47  4.6000000000000E-01 -5.3858939420519E-01  1.2508715215131E+00 -1.1720451681454E+00
48  4.7000000000000E-01 -6.4970560806797E-01  1.2599308825794E+00 -1.1916024808308E+00
49  4.8000000000000E-01 -7.5488794666075E-01  1.2683572561331E+00 -1.2067378371790E+00
50  4.9000000000000E-01 -8.5309268983857E-01  1.2762418663375E+00 -1.2157086818571E+00
51  5.0000000000000E-01 -9.4331670251824E-01  1.2836731903173E+00 -1.2167363417319E+00
52  5.1000000000000E-01 -1.0246197192673E+00  1.2907328463125E+00 -1.2080712571032E+00
53  5.2000000000000E-01 -1.0961463547597E+00  1.2974915786241E+00 -1.1880593389064E+00
54  5.3000000000000E-01 -1.1571471374489E+00  1.3040054878293E+00 -1.1552071371393E+00
55  5.4000000000000E-01 -1.2069978830111E+00  1.3103126472467E+00 -1.1082435343363E+00
56  5.5000000000000E-01 -1.2452167669357E+00  1.3164302340477E+00 -1.0461757863148E+00
57  5.6000000000000E-01 -1.2714785205460E+00  1.3223522862191E+00 -9.6833791652341E-01
58  5.7000000000000E-01 -1.2856252594109E+00  1.3280481754391E+00 -8.7442972332053E-01
59  5.8000000000000E-01 -1.2876735545613E+00  1.3334618616223E+00 -7.6454497221470E-01
60  5.9000000000000E-01 -1.2778174715695E+00  1.3385119683204E+00 -6.3918770626446E-01
61  6.0000000000000E-01 -1.2564274263788E+00  1.3430926903141E+00 -4.9927600460068E-01
62  6.1000000000000E-01 -1.2240448354790E+00  1.3470755166067E+00 -3.4613293739629E-01
63  6.2000000000000E-01 -1.1813726671780E+00  1.3503117246473E+00 -1.8146489092826E-01
64  6.3000000000000E-01 -1.1292621259180E+00  1.3526355759405E+00 -7.3278539258326E-03
65  6.4000000000000E-01 -1.0686958186231E+00  1.3538681201345E+00  1.7391734813304E-01
66  6.5000000000000E-01 -1.0007678570603E+00  1.3538214950162E+00  3.5965952409020E-01
67  6.6000000000000E-01 -9.2666143976239E-01  1.3523035942137E+00  5.4709963424189E-01
68  6.7000000000000E-01 -8.4762452838105E-01  1.3491229633281E+00  7.3331943921019E-01
69  6.8000000000000E-01 -7.6494428428297E-01  1.3440937789788E+00  9.1535417678812E-01
70  6.9000000000000E-01 -6.7992096038909E-01  1.3370407640053E+00  1.0902670447923E+00
71  7.0000000000000E-01 -5.9384195006636E-01  1.3278038957553E+00  1.2552232240754E+00
72  7.1000000000000E-01 -5.0795667949914E-01  1.3162427727833E+00  1.4075612067542E+00
73  7.2000000000000E-01 -4.2345299331797E-01  1.3022405179844E+00  1.5448592982984E+00
74  7.3000000000000E-01 -3.4143562699881E-01  1.2857071126525E+00  1.6649953338365E+00
75  7.4000000000000E-01 -2.6290728593010E-01  1.2665820755154E+00  1.7661978820899E+00
76  7.5000000000000E-01 -1.8875276290331E-01  1.2448364227012E+00  1.8470874959704E+00
77  7.6000000000000E-01 -1.1972642633179E-01  1.2204738680046E+00  1.9067068967532E+00
78  7.7000000000000E-01 -5.6443304272521E-02  1.1935312469063E+00  1.9445393373182E+00
79  7.8000000000000E-01  6.2612200218890E-04  1.1640781716942E+00  1.9605147669256E+00
80  7.9000000000000E-01  5.1157412854935E-02  1.1322159479410E+00  1.9550038027330E+00
81  8.0000000000000E-01  9.4970060039960E-02  1.0980758037587E+00  1.9287998892747E+00
82  8.1000000000000E-01  1.3202197978808E-01  1.0618165020218E+00  1.8830903844569E+00
83  8.2000000000000E-01  1.6240090996478E-01  1.0236214215925E+00  1.8194176382233E+00
84  8.3000000000000E-01  1.8631309215843E-01  9.8369520607722E-01  1.7396314181916E+00
85  8.4000000000000E-01  2.0406968534496E-01  9.4226008751661E-01  1.6458342770082E+00
86  8.5000000000000E-01  2.1607140768242E-01  8.9955199754036E-01  1.5403216424667E+00
87  8.6000000000000E-01  2.2279193602080E-01  8.5581657989415E-01  1.4255185389866E+00
88  8.7000000000000E-01  2.2476060844456E-01  8.1130521601867E-01  1.3039149151921E+00
89  8.8000000000000E-01  2.2254497371996E-01  7.6627116977306E-01  1.1780015563243E+00
90  8.9000000000000E-01  2.1673371351647E-01  7.2096594880001E-01  1.0502085031098E+00
91  9.0000000000000E-01  2.0792042977337E-01  6.7563596884874E-01  9.2284778321891E-01
92  9.1000000000000E-01  1.9668874200898E-01  6.3051959407900E-01  7.9806209170352E-01
93  9.2000000000000E-01  1.8359907941391E-01  5.8584461145880E-01  6.7778083814362E-01
94  9.3000000000000E-01  1.6917748209839E-01  5.4182618133341E-01  5.6368471681303E-01
95  9.4000000000000E-01  1.5390664684063E-01  4.9866528954861E-01  4.5717965883578E-01
96  9.5000000000000E-01  1.3821936700069E-01  4.5654770956021E-01  3.5938069890234E-01
97  9.6000000000000E-01  1.2249442579204E-01  4.1564346609958E-01  2.7110594077988E-01
98  9.7000000000000E-01  1.0705490842264E-01  3.7610677542763E-01  1.9288044200567E-01
99  9.8000000000000E-01  9.2168803121766E-02  3.3807642114224E-01  1.2494946487094E-01
100  9.9000000000000E-01  7.8051664806071E-02  3.0167650893534E-01  6.7300163232112E-02
101  1.0000000000000E+00  6.4871018744537E-02  2.6701752852882E-01  1.9690396751869E-02
102  1.0100000000000E+00  5.2752085414558E-02  2.3419763605991E-01 -1.8317010929705E-02
103  1.0200000000000E+00  4.1784311706516E-02  2.0330405512199E-01 -4.7316624131940E-02
104  1.0300000000000E+00  3.2028097146455E-02  1.7441447906769E-01 -6.8021777112538E-02
105  1.0400000000000E+00  2.3521006098523E-02  1.4759834055526E-01 -8.1227767705867E-02
106  1.0500000000000E+00  1.6282656841419E-02  1.2291779610432E-01 -8.7780003575589E-02
107  1.0600000000000E+00  1.0317374235767E-02  1.0042825294076E-01 -8.8550603046801E-02
108  1.0700000000000E+00  5.6135829230204E-03  8.0178242019487E-02 -8.4427318391998E-02
109  1.0800000000000E+00  2.1388130108079E-03  6.2208425083285E-02 -7.6318989778736E-02
110  1.0900000000000E+00 -1.7104704157708E-04  4.6549394415938E-02 -6.5182465317962E-02
111  1.1000000000000E+00 -1.4311845551688E-03  3.3216635019829E-02 -5.2080219081061E-02
112  1.1100000000000E+00 -1.8655645793096E-03  2.2173899838436E-02 -3.8356043983042E-02
113  1.1200000000000E+00 -1.7088667709841E-03  1.3404733701703E-02 -2.5311178460642E-02
114  1.1300000000000E+00 -1.1928317951759E-03  6.8885936978363E-03 -1.4072444039603E-02
115  1.1400000000000E+00 -5.6896159643586E-04  2.5706541475254E-03 -5.6390855381378E-03
116  1.1500000000000E+00 -9.9599189585631E-05  3.6584594464590E-04 -8.5631533123427E-04
117  1.1600000000000E+00  6.0637691124450E-06 -1.9402695399633E-05  4.7634388964517E-05
118  1.1700000000000E+00 -8.4781899749510E-09  2.8606974296781E-08 -6.8976615149879E-08
119  1.18 -0. -0. -0.
120  1.19  0.  0.  0.
121  1.20  0.  0.  0.
122  1.21  0.  0.  0.
123  1.22  0.  0.  0.
124  1.23  0.  0.  0.
125  1.24  0.  0.  0.
126  1.25  0.  0.  0.
127  1.26  0.  0.  0.
128  1.27  0.  0.  0.
129  1.28  0.  0.  0.
130  1.29  0.  0.  0.
131  1.30  0.  0.  0.
132  1.31  0.  0.  0.
133  1.32  0.  0.  0.
134  1.33  0.  0.  0.
135  1.34  0.  0.  0.
136  1.35  0.  0.  0.
137  1.36  0.  0.  0.
138  1.37  0.  0.  0.
139  1.38  0.  0.  0.
140  1.39  0.  0.  0.
141  1.40  0.  0.  0.
142  1.41  0.  0.  0.
143  1.42  0.  0.  0.
144  1.43  0.  0.  0.
145  1.44  0.  0.  0.
146  1.45  0.  0.  0.
147  1.46  0.  0.  0.
148  1.47  0.  0.  0.
149  1.48  0.  0.  0.
150  1.49  0.  0.  0.
151  1.50  0.  0.  0.
152  1.51  0.  0.  0.
153  1.52  0.  0.  0.
154  1.53  0.  0.  0.
155  1.54  0.  0.  0.
156  1.55  0.  0.  0.
157  1.56  0.  0.  0.
158  1.57  0.  0.  0.
159  1.58  0.  0.  0.
160  1.59  0.  0.  0.
161  1.60  0.  0.  0.
162  1.61  0.  0.  0.
163  1.62  0.  0.  0.
164  1.63  0.  0.  0.
165  1.64  0.  0.  0.
166  1.65  0.  0.  0.
167  1.66  0.  0.  0.
168  1.67  0.  0.  0.
169  1.68  0.  0.  0.
170  1.69  0.  0.  0.
171  1.70  0.  0.  0.
172  1.71  0.  0.  0.
173  1.72  0.  0.  0.
174  1.73  0.  0.  0.
175  1.74  0.  0.  0.
176  1.75  0.  0.  0.
177  1.76  0.  0.  0.
178  1.77  0.  0.  0.
179  1.78  0.  0.  0.
180  1.79  0.  0.  0.
181  1.80  0.  0.  0.
182  1.81  0.  0.  0.
183  1.82  0.  0.  0.
184  1.83  0.  0.  0.
185  1.84  0.  0.  0.
186  1.85  0.  0.  0.
187  1.86  0.  0.  0.
188  1.87  0.  0.  0.
189  1.88  0.  0.  0.
190  1.89  0.  0.  0.
191  1.90  0.  0.  0.
192  1.91  0.  0.  0.
193  1.92  0.  0.  0.
194  1.93  0.  0.  0.
195  1.94  0.  0.  0.
196  1.95  0.  0.  0.
197  1.96  0.  0.  0.
198  1.97  0.  0.  0.
199  1.98  0.  0.  0.
200  1.99  0.  0.  0.
201  2.00  0.  0.  0.
202  2.01  0.  0.  0.
203  2.02  0.  0.  0.
204  2.03  0.  0.  0.
205  2.04  0.  0.  0.
206  2.05  0.  0.  0.
207  2.06  0.  0.  0.
208  2.07  0.  0.  0.
209  2.08  0.  0.  0.
210  2.09  0.  0.  0.
211  2.10  0.  0.  0.
212  2.11  0.  0.  0.
213  2.12  0.  0.  0.
214  2.13  0.  0.  0.
215  2.14  0.  0.  0.
216  2.15  0.  0.  0.
217  2.16  0.  0.  0.
218  2.17  0.  0.  0.
219  2.18  0.  0.  0.
220  2.19  0.  0.  0.
221  2.20  0.  0.  0.
222  2.21  0.  0.  0.
223  2.22  0.  0.  0.
224  2.23  0.  0.  0.
225  2.24  0.  0.  0.
226  2.25  0.  0.  0.
227  2.26  0.  0.  0.
228  2.27  0.  0.  0.
229  2.28  0.  0.  0.
230  2.29  0.  0.  0.
231  2.30  0.  0.  0.
232  2.31  0.  0.  0.
233  2.32  0.  0.  0.
234  2.33  0.  0.  0.
235  2.34  0.  0.  0.
236  2.35  0.  0.  0.
237  2.36  0.  0.  0.
238  2.37  0.  0.  0.
239  2.38  0.  0.  0.
240  2.39  0.  0.  0.
241  2.40  0.  0.  0.
242  2.41  0.  0.  0.
243  2.42  0.  0.  0.
244  2.43  0.  0.  0.
245  2.44  0.  0.  0.
246  2.45  0.  0.  0.
247  2.46  0.  0.  0.
248  2.47  0.  0.  0.
249  2.48  0.  0.  0.
250  2.49  0.  0.  0.
251  2.50  0.  0.  0.
252  2.51  0.  0.  0.
253  2.52  0.  0.  0.
254  2.53  0.  0.  0.
255  2.54  0.  0.  0.
256  2.55  0.  0.  0.
257  2.56  0.  0.  0.
258  2.57  0.  0.  0.
259  2.58  0.  0.  0.
260  2.59  0.  0.  0.
261  2.60  0.  0.  0.
262  2.61  0.  0.  0.
263  2.62  0.  0.  0.
264  2.63  0.  0.  0.
265  2.64  0.  0.  0.
266  2.65  0.  0.  0.
267  2.66  0.  0.  0.
268  2.67  0.  0.  0.
269  2.68  0.  0.  0.
270  2.69  0.  0.  0.
271  2.70  0.  0.  0.
272  2.71  0.  0.  0.
273  2.72  0.  0.  0.
274  2.73  0.  0.  0.
275  2.74  0.  0.  0.
276  2.75  0.  0.  0.
277  2.76  0.  0.  0.
278  2.77  0.  0.  0.
279  2.78  0.  0.  0.
280  2.79  0.  0.  0.
281  2.80  0.  0.  0.
282  2.81  0.  0.  0.
283  2.82  0.  0.  0.
284  2.83  0.  0.  0.
285  2.84  0.  0.  0.
286  2.85  0.  0.  0.
287  2.86  0.  0.  0.
288  2.87  0.  0.  0.
289  2.88  0.  0.  0.
290  2.89  0.  0.  0.
291  2.90  0.  0.  0.
292  2.91  0.  0.  0.
293  2.92  0.  0.  0.
294  2.93  0.  0.  0.
295  2.94  0.  0.  0.
296  2.95  0.  0.  0.
297  2.96  0.  0.  0.
298  2.97  0.  0.  0.
299  2.98  0.  0.  0.
300  2.99  0.  0.  0.
301  3.00  0.  0.  0.
302  3.01  0.  0.  0.
303  3.02  0.  0.  0.
304  3.03  0.  0.  0.
305  3.04  0.  0.  0.
306  3.05  0.  0.  0.
307  3.06  0.  0.  0.
308  3.07  0.  0.  0.
309  3.08  0.  0.  0.
310  3.09  0.  0.  0.
311  3.10  0.  0.  0.
312  3.11  0.  0.  0.
313  3.12  0.  0.  0.
314  3.13  0.  0.  0.
315  3.14  0.  0.  0.
316  3.15  0.  0.  0.
317  3.16  0.  0.  0.
318  3.17  0.  0.  0.
319  3.18  0.  0.  0.
320  3.19  0.  0.  0.
321  3.20  0.  0.  0.
322  3.21  0.  0.  0.
323  3.22  0.  0.  0.
324  3.23  0.  0.  0.
325  3.24  0.  0.  0.
326  3.25  0.  0.  0.
327  3.26  0.  0.  0.
328  3.27  0.  0.  0.
329  3.28  0.  0.  0.
330  3.29  0.  0.  0.
331  3.30  0.  0.  0.
332  3.31  0.  0.  0.
333  3.32  0.  0.  0.
334  3.33  0.  0.  0.
335  3.34  0.  0.  0.
336  3.35  0.  0.  0.
337  3.36  0.  0.  0.
338  3.37  0.  0.  0.
339  3.38  0.  0.  0.
340  3.39  0.  0.  0.
341  3.40  0.  0.  0.
342  3.41  0.  0.  0.
343  3.42  0.  0.  0.
344  3.43  0.  0.  0.
345  3.44  0.  0.  0.
346  3.45  0.  0.  0.
347  3.46  0.  0.  0.
348  3.47  0.  0.  0.
349  3.48  0.  0.  0.
350  3.49  0.  0.  0.
351  3.50  0.  0.  0.
352  3.51  0.  0.  0.
353  3.52  0.  0.  0.
354  3.53  0.  0.  0.
355  3.54  0.  0.  0.
356  3.55  0.  0.  0.
357  3.56  0.  0.  0.
358  3.57  0.  0.  0.
359  3.58  0.  0.  0.
360  3.59  0.  0.  0.
361  3.60  0.  0.  0.
362  3.61  0.  0.  0.
363  3.62  0.  0.  0.
364  3.63  0.  0.  0.
365  3.64  0.  0.  0.
366  3.65  0.  0.  0.
367  3.66  0.  0.  0.
368  3.67  0.  0.  0.
369  3.68  0.  0.  0.
370  3.69  0.  0.  0.
371  3.70  0.  0.  0.
372  3.71  0.  0.  0.
373  3.72  0.  0.  0.
374  3.73  0.  0.  0.
375  3.74  0.  0.  0.
376  3.75  0.  0.  0.
377  3.76  0.  0.  0.
378  3.77  0.  0.  0.
379  3.78  0.  0.  0.
380  3.79  0.  0.  0.
381  3.80  0.  0.  0.
382  3.81  0.  0.  0.
383  3.82  0.  0.  0.
384  3.83  0.  0.  0.
385  3.84  0.  0.  0.
386  3.85  0.  0.  0.
387  3.86  0.  0.  0.
388  3.87  0.  0.  0.
389  3.88  0.  0.  0.
390  3.89  0.  0.  0.
391  3.90  0.  0.  0.
392  3.91  0.  0.  0.
393  3.92  0.  0.  0.
394  3.93  0.  0.  0.
395  3.94  0.  0.  0.
396  3.95  0.  0.  0.
397  3.96  0.  0.  0.
398  3.97  0.  0.  0.
399  3.98  0.  0.  0.
400  3.99  0.  0.  0.
401  4.00  0.  0.  0.
402  4.01  0.  0.  0.
403  4.02  0.  0.  0.
404  4.03  0.  0.  0.
405  4.04  0.  0.  0.
406  4.05  0.  0.  0.
407  4.06  0.  0.  0.
408  4.07  0.  0.  0.
409  4.08  0.  0.  0.
410  4.09  0.  0.  0.
411  4.10  0.  0.  0.
412  4.11  0.  0.  0.
413  4.12  0.  0.  0.
414  4.13  0.  0.  0.
415  4.14  0.  0.  0.
416  4.15  0.  0.  0.
417  4.16  0.  0.  0.
418  4.17  0.  0.  0.
419  4.18  0.  0.  0.
420  4.19  0.  0.  0.
421  4.20  0.  0.  0.
422  4.21  0.  0.  0.
423  4.22  0.  0.  0.
424  4.23  0.  0.  0.
425  4.24  0.  0.  0.
426  4.25  0.  0.  0.
427  4.26  0.  0.  0.
428  4.27  0.  0.  0.
429  4.28  0.  0.  0.
430  4.29  0.  0.  0.
431  4.30  0.  0.  0.
432  4.31  0.  0.  0.
433  4.32  0.  0.  0.
434  4.33  0.  0.  0.
435  4.34  0.  0.  0.
436  4.35  0.  0.  0.
437  4.36  0.  0.  0.
438  4.37  0.  0.  0.
439  4.38  0.  0.  0.
440  4.39  0.  0.  0.
441  4.40  0.  0.  0.
442  4.41  0.  0.  0.
443  4.42  0.  0.  0.
444  4.43  0.  0.  0.
445  4.44  0.  0.  0.
446  4.45  0.  0.  0.
447  4.46  0.  0.  0.
448  4.47  0.  0.  0.
449  4.48  0.  0.  0.
450  4.49  0.  0.  0.
451  4.50  0.  0.  0.
452  4.51  0.  0.  0.
453  4.52  0.  0.  0.
454  4.53  0.  0.  0.
455  4.54  0.  0.  0.
456  4.55  0.  0.  0.
457  4.56  0.  0.  0.
458  4.57  0.  0.  0.
459  4.58  0.  0.  0.
460  4.59  0.  0.  0.
461  4.60  0.  0.  0.
462  4.61  0.  0.  0.
463  4.62  0.  0.  0.
464  4.63  0.  0.  0.
465  4.64  0.  0.  0.
466  4.65  0.  0.  0.
467  4.66  0.  0.  0.
468  4.67  0.  0.  0.
469  4.68  0.  0.  0.
470  4.69  0.  0.  0.
471  4.70  0.  0.  0.
472  4.71  0.  0.  0.
473  4.72  0.  0.  0.
474  4.73  0.  0.  0.
475  4.74  0.  0.  0.
476  4.75  0.  0.  0.
477  4.76  0.  0.  0.
478  4.77  0.  0.  0.
479  4.78  0.  0.  0.
480  4.79  0.  0.  0.
481  4.80  0.  0.  0.
482  4.81  0.  0.  0.
483  4.82  0.  0.  0.
484  4.83  0.  0.  0.
485  4.84  0.  0.  0.
486  4.85  0.  0.  0.
487  4.86  0.  0.  0.
488  4.87  0.  0.  0.
489  4.88  0.  0.  0.
490  4.89  0.  0.  0.
491  4.90  0.  0.  0.
492  4.91  0.  0.  0.
493  4.92  0.  0.  0.
494  4.93  0.  0.  0.
495  4.94  0.  0.  0.
496  4.95  0.  0.  0.
497  4.96  0.  0.  0.
498  4.97  0.  0.  0.
499  4.98  0.  0.  0.
500  4.99  0.  0.  0.
501  5.00  0.  0.  0.
502  5.01  0.  0.  0.
503  5.02  0.  0.  0.
504  5.03  0.  0.  0.
505  5.04  0.  0.  0.
506  5.05  0.  0.  0.
507  5.06  0.  0.  0.
508  5.07  0.  0.  0.
509  5.08  0.  0.  0.
510  5.09  0.  0.  0.
511  5.10  0.  0.  0.
512  5.11  0.  0.  0.
513  5.12  0.  0.  0.
514  5.13  0.  0.  0.
515  5.14  0.  0.  0.
516  5.15  0.  0.  0.
517  5.16  0.  0.  0.
518  5.17  0.  0.  0.
519  5.18  0.  0.  0.
520  5.19  0.  0.  0.
521  5.20  0.  0.  0.
522  5.21  0.  0.  0.
523  5.22  0.  0.  0.
524  5.23  0.  0.  0.
525  5.24  0.  0.  0.
526  5.25  0.  0.  0.
527  5.26  0.  0.  0.
528  5.27  0.  0.  0.
529  5.28  0.  0.  0.
530  5.29  0.  0.  0.
531  5.30  0.  0.  0.
532  5.31  0.  0.  0.
533  5.32  0.  0.  0.
534  5.33  0.  0.  0.
535  5.34  0.  0.  0.
536  5.35  0.  0.  0.
537  5.36  0.  0.  0.
538  5.37  0.  0.  0.
539  5.38  0.  0.  0.
540  5.39  0.  0.  0.
541  5.40  0.  0.  0.
542  5.41  0.  0.  0.
543  5.42  0.  0.  0.
544  5.43  0.  0.  0.
545  5.44  0.  0.  0.
546  5.45  0.  0.  0.
547  5.46  0.  0.  0.
548  5.47  0.  0.  0.
549  5.48  0.  0.  0.
550  5.49  0.  0.  0.
551  5.50  0.  0.  0.
552  5.51  0.  0.  0.
553  5.52  0.  0.  0.
554  5.53  0.  0.  0.
555  5.54  0.  0.  0.
556  5.55  0.  0.  0.
557  5.56  0.  0.  0.
558  5.57  0.  0.  0.
559  5.58  0.  0.  0.
560  5.59  0.  0.  0.
561  5.60  0.  0.  0.
562  5.61  0.  0.  0.
563  5.62  0.  0.  0.
564  5.63  0.  0.  0.
565  5.64  0.  0.  0.
566  5.65  0.  0.  0.
567  5.66  0.  0.  0.
568  5.67  0.  0.  0.
569  5.68  0.  0.  0.
570  5.69  0.  0.  0.
571  5.70  0.  0.  0.
572  5.71  0.  0.  0.
573  5.72  0.  0.  0.
574  5.73  0.  0.  0.
575  5.74  0.  0.  0.
576  5.75  0.  0.  0.
577  5.76  0.  0.  0.
578  5.77  0.  0.  0.
579  5.78  0.  0.  0.
580  5.79  0.  0.  0.
581  5.80  0.  0.  0.
582  5.81  0.  0.  0.
583  5.82  0.  0.  0.
584  5.83  0.  0.  0.
585  5.84  0.  0.  0.
586  5.85  0.  0.  0.
587  5.86  0.  0.  0.
588  5.87  0.  0.  0.
589  5.88  0.  0.  0.
590  5.89  0.  0.  0.
591  5.90  0.  0.  0.
592  5.91  0.  0.  0.
593  5.92  0.  0.  0.
594  5.93  0.  0.  0.
595  5.94  0.  0.  0.
596  5.95  0.  0.  0.
597  5.96  0.  0.  0.
598  5.97  0.  0.  0.
599  5.98  0.  0.  0.
600  5.99  0.  0.  0.
1                         5.6529086727720E+00 -2.8402734632163E+00
1  0.0000000000000E+00 -3.6357564903167E-08 -9.5369192543160E-09
2  1.0000000000000E-02  4.3842457073906E-03  5.1774766310254E-04
3  2.0000000000000E-02  1.7507216321231E-02  2.0784116745148E-03
4  3.0000000000000E-02  3.9279291495606E-02  4.7040359649238E-03
5  4.0000000000000E-02  6.9550061781844E-02  8.4306363729085E-03
6  5.0000000000000E-02  1.0810685932825E-01  1.3307136783757E-02
7  6.0000000000000E-02  1.5467288466128E-01  1.9393923376198E-02
8  7.0000000000000E-02  2.0890510368068E-01  2.6761058876775E-02
9  8.0000000000000E-02  2.7039212535847E-01  3.5486208258510E-02
10  9.0000000000000E-02  3.3865229765792E-01  4.5652335150513E-02
11  1.0000000000000E-01  4.1313227557224E-01  5.7345234095862E-02
12  1.1000000000000E-01  4.9320632002451E-01  7.0650967522857E-02
13  1.2000000000000E-01  5.7817657922379E-01  8.5653277771814E-02
14  1.3000000000000E-01  6.6727458495761E-01  1.0243104371696E-01
15  1.4000000000000E-01  7.5966416571779E-01  1.2105584849221E-01
16  1.5000000000000E-01  8.5444593745851E-01  1.4158971970014E-01
17  1.6000000000000E-01  9.5066348255910E-01  1.6408309645836E-01
18  1.7000000000000E-01  1.0473112699725E+00  1.8857306898590E-01
19  1.8000000000000E-01  1.1433443066660E+00  2.1508192647988E-01
20  1.9000000000000E-01  1.2376894446303E+00  2.4361603814941E-01
21  2.0000000000000E-01  1.3292582014243E+00  2.7416508086073E-01
22  2.1000000000000E-01  1.4169608879954E+00  3.0670161532303E-01
23  2.2000000000000E-01  1.4997217778797E+00  3.4118100152698E-01
24  2.3000000000000E-01  1.5764949992497E+00  3.7754163364240E-01
25  2.4000000000000E-01  1.6462807878204E+00  4.1570546516460E-01
26  2.5000000000000E-01  1.7081417062303E+00  4.5557878710272E-01
27  2.6000000000000E-01  1.7612184156942E+00  4.9705321570682E-01
28  2.7000000000000E-01  1.8047445795531E+00  5.4000684184518E-01
29  2.8000000000000E-01  1.8380604864038E+00  5.8430549180740E-01
30  2.9000000000000E-01  1.8606250028699E+00  6.2980404908346E-01
31  3.0000000000000E-01  1.8720255023058E+00  6.7634778852930E-01
32  3.1000000000000E-01  1.8719854648637E+00  7.2377367817523E-01
33  3.2000000000000E-01  1.8603695049268E+00  7.7191160958161E-01
34  3.3000000000000E-01  1.8371856520347E+00  8.2058552484692E-01
35  3.4000000000000E-01  1.8025847888141E+00  8.6961441681231E-01
36  3.5000000000000E-01  1.7568572315005E+00  9.1881318832082E-01
37  3.6000000000000E-01  1.7004265225885E+00  9.6799336617923E-01
38  3.7000000000000E-01  1.6338405880893E+00  1.0169636753140E+00
39  3.8000000000000E-01  1.5577604908599E+00  1.0655304880846E+00
40  3.9000000000000E-01  1.4729470836993E+00  1.1134981724028E+00
41  4.0000000000000E-01  1.3802459287514E+00  1.1606693698166E+00
42  4.1000000000000E-01  1.2805709009021E+00  1.2068452407107E+00
43  4.2000000000000E-01  1.1748869303879E+00  1.2518257179653E+00
44  4.3000000000000E-01  1.0641923622807E+00  1.2954098125783E+00
45  4.4000000000000E-01  9.4950141696871E-01  1.3373960147664E+00
46  4.5000000000000E-01  8.3182722584286E-01  1.3775828318510E+00
47  4.6000000000000E-01  7.1216589037967E-01  1.4157694998531E+00
48  4.7000000000000E-01  5.9148197149463E-01  1.4517568992882E+00
49  4.8000000000000E-01  4.7069576084013E-01  1.4853486973797E+00
50  4.9000000000000E-01  3.5067261855100E-01  1.5163527290909E+00
51  5.0000000000000E-01  2.3221458518910E-01  1.5445826183714E+00
52  5.1000000000000E-01  1.1605439206617E-01  1.5698596292442E+00
53  5.2000000000000E-01  2.8519067741305E-03  1.5920147242781E+00
54  5.3000000000000E-01 -1.0680703716327E-01  1.6108907960981E+00
55  5.4000000000000E-01 -2.1240956282175E-01  1.6263450263510E+00
56  5.5000000000000E-01 -3.1351264022148E-01  1.6382513164734E+00
57  5.6000000000000E-01 -4.0973823055165E-01  1.6465027261271E+00
58  5.7000000000000E-01 -5.0076702919002E-01  1.6510138486902E+00
59  5.8000000000000E-01 -5.8633119741770E-01  1.6517230490451E+00
60  5.9000000000000E-01 -6.6620650207555E-01  1.6485944873430E+00
61  6.0000000000000E-01 -7.4020429492280E-01  1.6416198536125E+00
62  6.1000000000000E-01 -8.0816375858031E-01  1.6308197420735E+00
63  6.2000000000000E-01 -8.6994482377222E-01  1.6162446007791E+00
64  6.3000000000000E-01 -9.2542212389276E-01  1.5979752015865E+00
65  6.4000000000000E-01 -9.7448029913688E-01  1.5761225871983E+00
66  6.5000000000000E-01 -1.0170108955655E+00  1.5508274657798E+00
67  6.6000000000000E-01 -1.0529110270796E+00  1.5222590390054E+00
68  6.7000000000000E-01 -1.0820838833487E+00  1.4906132658235E+00
69  6.8000000000000E-01 -1.1044410776058E+00  1.4561105812008E+00
70  6.9000000000000E-01 -1.1199067384080E+00  1.4189931060232E+00
71  7.0000000000000E-01 -1.1284231625980E+00  1.3795214005960E+00
72  7.1000000000000E-01 -1.1299577663088E+00  1.3379708292176E+00
73  7.2000000000000E-01 -1.1245110002933E+00  1.2946276165290E+00
74  7.3000000000000E-01 -1.1121248381321E+00  1.2497846872843E+00
75  7.4000000000000E-01 -1.0928914035284E+00  1.2037373893965E+00
76  7.5000000000000E-01 -1.0669612779300E+00  1.1567792052628E+00
77  7.6000000000000E-01 -1.0345510234717E+00  1.1091975582274E+00
78  7.7000000000000E-01 -9.9594946932496E-01  1.0612698194742E+00
79  7.8000000000000E-01 -9.5152234188731E-01  1.0132596156600E+00
80  7.9000000000000E-01 -9.0171486994765E-01  9.6541352932972E-01
81  8.0000000000000E-01 -8.4705206345465E-01  9.1795827283502E-01
82  8.1000000000000E-01 -7.8813644649969E-01  8.7109840246352E-01
83  8.2000000000000E-01 -7.2564311872240E-01  8.2501462324265E-01
84  8.3000000000000E-01 -6.6031212116444E-01  7.7986271694110E-01
85  8.4000000000000E-01 -5.9293818885613E-01  7.3577310677028E-01
86  8.5000000000000E-01 -5.2435807908849E-01  6.9285105283954E-01
87  8.6000000000000E-01 -4.5543576726476E-01  6.5117745322141E-01
88  8.7000000000000E-01 -3.8704589734788E-01  6.1081020721377E-01
89  8.8000000000000E-01 -3.2005595732843E-01  5.7178608069655E-01
90  8.9000000000000E-01 -2.5530771827522E-01  5.3412299897487E-01
91  9.0000000000000E-01 -1.9359852531357E-01  4.9782268071219E-01
92  9.1000000000000E-01 -1.3566305780972E-01  4.6287351793164E-01
93  9.2000000000000E-01 -8.2156182309217E-02  4.2925360194237E-01
94  9.3000000000000E-01 -3.3637504316362E-02  3.9693379365537E-01
95  9.4000000000000E-01  9.4418164367237E-03  3.6588073919061E-01
96  9.5000000000000E-01  4.6749487488811E-02  3.3605973792043E-01
97  9.6000000000000E-01  7.8079329169727E-02  3.0743737998920E-01
98  9.7000000000000E-01  1.0335503841738E-01  2.7998388362707E-01
99  9.8000000000000E-01  1.2263028942053E-01  2.5367507885374E-01
100  9.9000000000000E-01  1.3608512769897E-01  2.2849400296318E-01
101  1.0000000000000E+00  1.4401876237963E-01  2.0443209394784E-01
102  1.0100000000000E+00  1.4683901531744E-01  1.8148999012797E-01
103  1.0200000000000E+00  1.4504884090677E-01  1.5967796703563E-01
104  1.0300000000000E+00  1.3923048259618E-01  1.3901606541555E-01
105  1.0400000000000E+00  1.3002797663739E-01  1.1953398634568E-01
106  1.0500000000000E+00  1.1812884625191E-01  1.0127085030024E-01
107  1.0600000000000E+00  1.0424594661404E-01  8.4274935925652E-02
108  1.0700000000000E+00  8.9100519061603E-02  6.8603530778464E-02
109  1.0800000000000E+00  7.3407611596435E-02  5.4323043687763E-02
110  1.0900000000000E+00  5.7864884564913E-02  4.1509503619341E-02
111  1.1000000000000E+00  4.3143159821338E-02  3.0249157247496E-02
112  1.1100000000000E+00  2.9820467536849E-02  2.0627833502526E-02
113  1.1200000000000E+00  1.8495967139928E-02  1.2746688766719E-02
114  1.1300000000000E+00  9.6659563009443E-03  6.6996553800970E-03
115  1.1400000000000E+00  3.6357261699456E-03  2.5586511947739E-03
116  1.1500000000000E+00  5.1677128152458E-04  3.7290369493855E-04
117  1.1600000000000E+00 -2.7313655774984E-05 -2.0144332342879E-05
118  1.1700000000000E+00  4.0387932647545E-08  2.9483669719010E-08
119  1.18 -0. -0.
120  1.19  0.  0.
121  1.20  0.  0.
122  1.21  0.  0.
123  1.22  0.  0.
124  1.23  0.  0.
125  1.24  0.  0.
126  1.25  0.  0.
127  1.26  0.  0.
128  1.27  0.  0.
129  1.28  0.  0.
130  1.29  0.  0.
131  1.30  0.  0.
132  1.31  0.  0.
133  1.32  0.  0.
134  1.33  0.  0.
135  1.34  0.  0.
136  1.35  0.  0.
137  1.36  0.  0.
138  1.37  0.  0.
139  1.38  0.  0.
140  1.39  0.  0.
141  1.40  0.  0.
142  1.41  0.  0.
143  1.42  0.  0.
144  1.43  0.  0.
145  1.44  0.  0.
146  1.45  0.  0.
147  1.46  0.  0.
148  1.47  0.  0.
149  1.48  0.  0.
150  1.49  0.  0.
151  1.50  0.  0.
152  1.51  0.  0.
153  1.52  0.  0.
154  1.53  0.  0.
155  1.54  0.  0.
156  1.55  0.  0.
157  1.56  0.  0.
158  1.57  0.  0.
159  1.58  0.  0.
160  1.59  0.  0.
161  1.60  0.  0.
162  1.61  0.  0.
163  1.62  0.  0.
164  1.63  0.  0.
165  1.64  0.  0.