No    ONCVPSP-4.0.1  r_core=   1.15610   1.15610   1.33458   1.35065
    102.0000     42.0000      211211    zatom,zion,pspd
     8      11   3     4   600     0    pspcod,pspxc,lmax,lloc,mmax,r2well
  5.99000000  5.00000000  0.00000000    rchrg fchrg qchrg
     3     2     2     2     0    nproj
     1     1           extension_switch
   0                         2.5479381420293E+01 -3.1177809349294E+00  2.3701509625243E+00
     1  0.0000000000000E+00 -1.5411528497822E-08 -3.3897772921954E-09  5.6762843481106E-08
     2  1.0000000000000E-02  1.7891085140588E-01  4.1996070600424E-02 -6.7280429025438E-02
     3  2.0000000000000E-02  3.5641705490680E-01  8.3842824464829E-02 -1.3310681620337E-01
     4  3.0000000000000E-02  5.3112790639639E-01  1.2539302045748E-01 -1.9605039141687E-01
     5  4.0000000000000E-02  7.0168039744017E-01  1.6650353120585E-01 -2.5473238193287E-01
     6  5.0000000000000E-02  8.6675258746645E-01  2.0703730731045E-01 -3.0784766135200E-01
     7  6.0000000000000E-02  1.0250764167257E+00  2.4686523289933E-01 -3.5418682161596E-01
     8  7.0000000000000E-02  1.1754497924628E+00  2.8586784046932E-01 -3.9265621214542E-01
     9  8.0000000000000E-02  1.3167477961595E+00  3.2393685634648E-01 -4.2229554694412E-01
    10  9.0000000000000E-02  1.4479328780600E+00  3.6097655212212E-01 -4.4229274783853E-01
    11  1.0000000000000E-01  1.5680639259456E+00  3.9690488194938E-01 -4.5199576770386E-01
    12  1.1000000000000E-01  1.6763041176396E+00  4.3165439047347E-01 -4.5092121906830E-01
    13  1.2000000000000E-01  1.7719274903442E+00  4.6517288126081E-01 -4.3875971822944E-01
    14  1.3000000000000E-01  1.8543241839510E+00  4.9742384073182E-01 -4.1537794021530E-01
    15  1.4000000000000E-01  1.9230043392372E+00  5.2838661763190E-01 -3.8081746285071E-01
    16  1.5000000000000E-01  1.9776006547104E+00  5.5805636284688E-01 -3.3529055623317E-01
    17  1.6000000000000E-01  2.0178696271958E+00  5.8644373874939E-01 -2.7917314466765E-01
    18  1.7000000000000E-01  2.0436915205221E+00  6.1357441113234E-01 -2.1299522942922E-01
    19  1.8000000000000E-01  2.0550691234316E+00  6.3948834005251E-01 -1.3742911085415E-01
    20  1.9000000000000E-01  2.0521253717544E+00  6.6423888850076E-01 -5.3275785854129E-02
    21  2.0000000000000E-01  2.0350999207317E+00  6.8789176969549E-01  3.8550078871532E-02
    22  2.1000000000000E-01  2.0043447610323E+00  7.1052385494902E-01  1.3703618728267E-01
    23  2.2000000000000E-01  1.9603189764983E+00  7.3222186450144E-01  2.4108926077433E-01
    24  2.3000000000000E-01  1.9035827431050E+00  7.5308096349468E-01  3.4955190036741E-01
    25  2.4000000000000E-01  1.8347906672768E+00  7.7320328444354E-01  4.6121930182159E-01
    26  2.5000000000000E-01  1.7546845579025E+00  7.9269639624081E-01  5.7485550012900E-01
    27  2.6000000000000E-01  1.6640857205617E+00  8.1167173802059E-01  6.8920886746932E-01
    28  2.7000000000000E-01  1.5638868551139E+00  8.3024303422050E-01  8.0302664286177E-01
    29  2.8000000000000E-01  1.4550436294275E+00  8.4852470506088E-01  9.1506833007629E-01
    30  2.9000000000000E-01  1.3385659932159E+00  8.6663028452884E-01  1.0241178604174E+00
    31  3.0000000000000E-01  1.2155092872364E+00  8.8467085594545E-01  1.1289944762781E+00
    32  3.1000000000000E-01  1.0869651950378E+00  9.0275351342504E-01  1.2285623474652E+00
    33  3.2000000000000E-01  9.5405257748627E-01  9.2097985610800E-01  1.3217389829902E+00
    34  3.3000000000000E-01  8.1790822486900E-01  9.3944452104697E-01  1.4075025443164E+00
    35  3.4000000000000E-01  6.7967755779957E-01  9.5823376010979E-01  1.4848982002756E+00
    36  3.5000000000000E-01  5.4050530664596E-01  9.7742406626283E-01  1.5530436877902E+00
    37  3.6000000000000E-01  4.0152619989222E-01  9.9708085511944E-01  1.6111342552967E+00
    38  3.7000000000000E-01  2.6385569471331E-01  1.0172572086524E+00  1.6584471670564E+00
    39  3.8000000000000E-01  1.2858078797828E-01  1.0379926894234E+00  1.6943459364654E+00
    40  3.9000000000000E-01 -3.2490473497216E-03  1.0593122354900E+00  1.7182844356958E+00
    41  4.0000000000000E-01 -1.3063074720926E-01  1.0812251482101E+00  1.7298109985613E+00
    42  4.1000000000000E-01 -2.5261630034901E-01  1.1037241873408E+00  1.7285725949334E+00
    43  4.2000000000000E-01 -3.6832107885865E-01  1.1267847899867E+00  1.7143191101798E+00
    44  4.3000000000000E-01 -4.7693177326858E-01  1.1503644319375E+00  1.6869077141001E+00
    45  4.4000000000000E-01 -5.7771384104882E-01  1.1744021515885E+00  1.6463072530606E+00
    46  4.5000000000000E-01 -6.7001836947999E-01  1.1988182578155E+00  1.5926025489153E+00
    47  4.6000000000000E-01 -7.5328824786906E-01  1.2235142437287E+00  1.5259984413445E+00
    48  4.7000000000000E-01 -8.2706354048997E-01  1.2483729280411E+00  1.4468233688089E+00
    49  4.8000000000000E-01 -8.9098595093481E-01  1.2732588447520E+00  1.3555322496394E+00
    50  4.9000000000000E-01 -9.4480227116027E-01  1.2980188998886E+00  1.2527084007733E+00
    51  5.0000000000000E-01 -9.8836671469422E-01  1.3224833111407E+00  1.1390642189059E+00
    52  5.1000000000000E-01 -1.0216420433978E+00  1.3464668423435E+00  1.0154403485127E+00
    53  5.2000000000000E-01 -1.0446994108800E+00  1.3697703399650E+00  8.8280307398876E-01
    54  5.3000000000000E-01 -1.0577168630278E+00  1.3921825730948E+00  7.4223969925085E-01
    55  5.4000000000000E-01 -1.0609764568808E+00  1.4134823720315E+00  5.9495171717751E-01
    56  5.5000000000000E-01 -1.0548599828511E+00  1.4334410535669E+00  4.4224562237946E-01
    57  5.6000000000000E-01 -1.0398433015356E+00  1.4518251136481E+00  2.8552128260281E-01
    58  5.7000000000000E-01 -1.0164893344448E+00  1.4683991604677E+00  1.2625785475113E-01
    59  5.8000000000000E-01 -9.8543977713767E-01  1.4829290534109E+00 -3.4002691171230E-02
    60  5.9000000000000E-01 -9.4740563268472E-01  1.4951852059206E+00 -1.9367429550694E-01
    61  6.0000000000000E-01 -9.0315669222200E-01  1.5049460034657E+00 -3.5114755243017E-01
    62  6.1000000000000E-01 -8.5351011671457E-01  1.5120012816611E+00 -5.0481216512602E-01
    63  6.2000000000000E-01 -7.9931829904289E-01  1.5161558044222E+00 -6.5308072798181E-01
    64  6.3000000000000E-01 -7.4145620732415E-01  1.5172326780447E+00 -7.9441338233065E-01
    65  6.4000000000000E-01 -6.8080842820661E-01  1.5150766344864E+00 -9.2734283382303E-01
    66  6.5000000000000E-01 -6.1825614205717E-01  1.5095571160190E+00 -1.0504991738087E+00
    67  6.6000000000000E-01 -5.5466426993917E-01  1.5005710939504E+00 -1.1626339163126E+00
    68  6.7000000000000E-01 -4.9086903463500E-01  1.4880455563390E+00 -1.2626426479377E+00
    69  6.8000000000000E-01 -4.2766617444161E-01  1.4719396035653E+00 -1.3495856914967E+00
    70  6.9000000000000E-01 -3.6580003896270E-01  1.4522460962537E+00 -1.4227062059768E+00
    71  7.0000000000000E-01 -3.0595378071599E-01  1.4289928072694E+00 -1.4814451855959E+00
    72  7.1000000000000E-01 -2.4874083531869E-01  1.4022430382323E+00 -1.5254528786728E+00
    73  7.2000000000000E-01 -1.9469785672227E-01  1.3720956709999E+00 -1.5545962216643E+00
    74  7.3000000000000E-01 -1.4427924301856E-01  1.3386846356823E+00 -1.5689619733361E+00
    75  7.4000000000000E-01 -9.7853353438498E-02  1.3021777886921E+00 -1.5688553364617E+00
    76  7.5000000000000E-01 -5.5700479155903E-02  1.2627752068429E+00 -1.5547939670503E+00
    77  7.6000000000000E-01 -1.8012590315125E-02  1.2207069162742E+00 -1.5274973909365E+00
    78  7.7000000000000E-01  1.5105159671385E-02  1.1762300877066E+00 -1.4878719713644E+00
    79  7.8000000000000E-01  4.3631233016919E-02  1.1296257418898E+00 -1.4369916955551E+00
    80  7.9000000000000E-01  6.7622910692474E-02  1.0811950207979E+00 -1.3760751696492E+00
    81  8.0000000000000E-01  8.7210039462207E-02  1.0312550908563E+00 -1.3064593264090E+00
    82  8.1000000000000E-01  1.0258749813841E-01  9.8013475397293E-01 -1.2295704552568E+00
    83  8.2000000000000E-01  1.1400659011578E-01  9.2816985015638E-01 -1.1468932564649E+00
    84  8.3000000000000E-01  1.2176559623440E-01  8.7569854181567E-01 -1.0599386976984E+00
    85  8.4000000000000E-01  1.2619974350922E-01  8.2305657427910E-01 -9.7021150907048E-01
    86  8.5000000000000E-01  1.2767086062438E-01  7.7057260950990E-01 -8.7917819023727E-01
    87  8.6000000000000E-01  1.2655699981716E-01  7.1856373033904E-01 -7.8823641803217E-01
    88  8.7000000000000E-01  1.2324230649548E-01  6.6733121073041E-01 -6.9868673437985E-01
    89  8.8000000000000E-01  1.1810741238875E-01  6.1715664362724E-01 -6.1170736076718E-01
    90  8.9000000000000E-01  1.1152061509278E-01  5.6829851182440E-01 -5.2833292682893E-01
    91  9.0000000000000E-01  1.0383008650083E-01  5.2098927912064E-01 -4.4943781639152E-01
    92  9.1000000000000E-01  9.5357324871396E-02  4.7543306880663E-01 -3.7572472466863E-01
    93  9.2000000000000E-01  8.6392030294489E-02  4.3180398443290E-01 -3.0771888549866E-01
    94  9.3000000000000E-01  7.7188541238848E-02  3.9024511387810E-01 -2.4576826792692E-01
    95  9.4000000000000E-01  6.7963920897447E-02  3.5086824211397E-01 -1.9004985759260E-01
    96  9.5000000000000E-01  5.8897726342111E-02  3.1375428082556E-01 -1.4058193057013E-01
    97  9.6000000000000E-01  5.0133431227281E-02  2.7895440428791E-01 -9.7241995944477E-02
    98  9.7000000000000E-01  4.1781403996870E-02  2.4649186067140E-01 -5.9789828400283E-02
    99  9.8000000000000E-01  3.3923268257610E-02  2.1636440627909E-01 -2.7894733274500E-02
   100  9.9000000000000E-01  2.6617390079008E-02  1.8854728710190E-01 -1.1658832350571E-03
   101  1.0000000000000E+00  1.9905148168622E-02  1.6299666744022E-01  2.0815763294557E-02
   102  1.0100000000000E+00  1.3817546803111E-02  1.3965337909363E-01  3.8465808111190E-02
   103  1.0200000000000E+00  8.3816275372156E-03  1.1844683660840E-01  5.2167255359763E-02
   104  1.0300000000000E+00  3.6260232066340E-03  9.9298934048001E-02  6.2246499790847E-02
   105  1.0400000000000E+00 -4.1512424447583E-04  8.2127706464167E-02  6.8957565114713E-02
   106  1.0500000000000E+00 -3.7007930324925E-03  6.6850504387802E-02  7.2478189838068E-02
   107  1.0600000000000E+00 -6.1853134003749E-03  5.3386391742448E-02  7.2921896953662E-02
   108  1.0700000000000E+00 -7.8254154096553E-03  4.1657436244182E-02  7.0370772471756E-02
   109  1.0800000000000E+00 -8.5934626356836E-03  3.1588527737974E-02  6.4934265763548E-02
   110  1.0900000000000E+00 -8.4985762169790E-03  2.3105206046892E-02  5.6840556999633E-02
   111  1.1000000000000E+00 -7.6193988716322E-03  1.6127586904042E-02  4.6573957023056E-02
   112  1.1100000000000E+00 -6.1868253446621E-03  1.0530164915440E-02  3.5193662814122E-02
   113  1.1200000000000E+00 -4.4567832747245E-03  6.2209235608174E-03  2.3857314676105E-02
   114  1.1300000000000E+00 -2.6856589909715E-03  3.1214956039246E-03  1.3640196486528E-02
   115  1.1400000000000E+00 -1.1605385293758E-03  1.1363735270630E-03  5.6268864220151E-03
   116  1.1500000000000E+00 -1.8936229241923E-04  1.5761696132489E-04  8.8058888030188E-04
   117  1.1600000000000E+00  1.1067385789322E-05 -8.1851480111439E-06 -5.0072491467596E-05
   118  1.1700000000000E+00 -1.5707182354719E-08  1.2168485593395E-08  7.1846820768637E-08
   119  1.18 -0. -0.  0.
   120  1.19  0.  0.  0.
   121  1.20  0.  0.  0.
   122  1.21  0.  0.  0.
   123  1.22  0.  0.  0.
   124  1.23  0.  0.  0.
   125  1.24  0.  0.  0.
   126  1.25  0.  0.  0.
   127  1.26  0.  0.  0.
   128  1.27  0.  0.  0.
   129  1.28  0.  0.  0.
   130  1.29  0.  0.  0.
   131  1.30  0.  0.  0.
   132  1.31  0.  0.  0.
   133  1.32  0.  0.  0.
   134  1.33  0.  0.  0.
   135  1.34  0.  0.  0.
   136  1.35  0.  0.  0.
   137  1.36  0.  0.  0.
   138  1.37  0.  0.  0.
   139  1.38  0.  0.  0.
   140  1.39  0.  0.  0.
   141  1.40  0.  0.  0.
   142  1.41  0.  0.  0.
   143  1.42  0.  0.  0.
   144  1.43  0.  0.  0.
   145  1.44  0.  0.  0.
   146  1.45  0.  0.  0.
   147  1.46  0.  0.  0.
   148  1.47  0.  0.  0.
   149  1.48  0.  0.  0.
   150  1.49  0.  0.  0.
   151  1.50  0.  0.  0.
   152  1.51  0.  0.  0.
   153  1.52  0.  0.  0.
   154  1.53  0.  0.  0.
   155  1.54  0.  0.  0.
   156  1.55  0.  0.  0.
   157  1.56  0.  0.  0.
   158  1.57  0.  0.  0.
   159  1.58  0.  0.  0.
   160  1.59  0.  0.  0.
   161  1.60  0.  0.  0.
   162  1.61  0.  0.  0.
   163  1.62  0.  0.  0.
   164  1.63  0.  0.  0.
   165  1.64  0.  0.  0.
   166  1.65  0.  0.  0.
   167  1.66  0.  0.  0.
   168  1.67  0.  0.  0.
   169  1.68  0.  0.  0.
   170  1.69  0.  0.  0.
   171  1.70  0.  0.  0.
   172  1.71  0.  0.  0.
   173  1.72  0.  0.  0.
   174  1.73  0.  0.  0.
   175  1.74  0.  0.  0.
   176  1.75  0.  0.  0.
   177  1.76  0.  0.  0.
   178  1.77  0.  0.  0.
   179  1.78  0.  0.  0.
   180  1.79  0.  0.  0.
   181  1.80  0.  0.  0.
   182  1.81  0.  0.  0.
   183  1.82  0.  0.  0.
   184  1.83  0.  0.  0.
   185  1.84  0.  0.  0.
   186  1.85  0.  0.  0.
   187  1.86  0.  0.  0.
   188  1.87  0.  0.  0.
   189  1.88  0.  0.  0.
   190  1.89  0.  0.  0.
   191  1.90  0.  0.  0.
   192  1.91  0.  0.  0.
   193  1.92  0.  0.  0.
   194  1.93  0.  0.  0.
   195  1.94  0.  0.  0.
   196  1.95  0.  0.  0.
   197  1.96  0.  0.  0.
   198  1.97  0.  0.  0.
   199  1.98  0.  0.  0.
   200  1.99  0.  0.  0.
   201  2.00  0.  0.  0.
   202  2.01  0.  0.  0.
   203  2.02  0.  0.  0.
   204  2.03  0.  0.  0.
   205  2.04  0.  0.  0.
   206  2.05  0.  0.  0.
   207  2.06  0.  0.  0.
   208  2.07  0.  0.  0.
   209  2.08  0.  0.  0.
   210  2.09  0.  0.  0.
   211  2.10  0.  0.  0.
   212  2.11  0.  0.  0.
   213  2.12  0.  0.  0.
   214  2.13  0.  0.  0.
   215  2.14  0.  0.  0.
   216  2.15  0.  0.  0.
   217  2.16  0.  0.  0.
   218  2.17  0.  0.  0.
   219  2.18  0.  0.  0.
   220  2.19  0.  0.  0.
   221  2.20  0.  0.  0.
   222  2.21  0.  0.  0.
   223  2.22  0.  0.  0.
   224  2.23  0.  0.  0.
   225  2.24  0.  0.  0.
   226  2.25  0.  0.  0.
   227  2.26  0.  0.  0.
   228  2.27  0.  0.  0.
   229  2.28  0.  0.  0.
   230  2.29  0.  0.  0.
   231  2.30  0.  0.  0.
   232  2.31  0.  0.  0.
   233  2.32  0.  0.  0.
   234  2.33  0.  0.  0.
   235  2.34  0.  0.  0.
   236  2.35  0.  0.  0.
   237  2.36  0.  0.  0.
   238  2.37  0.  0.  0.
   239  2.38  0.  0.  0.
   240  2.39  0.  0.  0.
   241  2.40  0.  0.  0.
   242  2.41  0.  0.  0.
   243  2.42  0.  0.  0.
   244  2.43  0.  0.  0.
   245  2.44  0.  0.  0.
   246  2.45  0.  0.  0.
   247  2.46  0.  0.  0.
   248  2.47  0.  0.  0.
   249  2.48  0.  0.  0.
   250  2.49  0.  0.  0.
   251  2.50  0.  0.  0.
   252  2.51  0.  0.  0.
   253  2.52  0.  0.  0.
   254  2.53  0.  0.  0.
   255  2.54  0.  0.  0.
   256  2.55  0.  0.  0.
   257  2.56  0.  0.  0.
   258  2.57  0.  0.  0.
   259  2.58  0.  0.  0.
   260  2.59  0.  0.  0.
   261  2.60  0.  0.  0.
   262  2.61  0.  0.  0.
   263  2.62  0.  0.  0.
   264  2.63  0.  0.  0.
   265  2.64  0.  0.  0.
   266  2.65  0.  0.  0.
   267  2.66  0.  0.  0.
   268  2.67  0.  0.  0.
   269  2.68  0.  0.  0.
   270  2.69  0.  0.  0.
   271  2.70  0.  0.  0.
   272  2.71  0.  0.  0.
   273  2.72  0.  0.  0.
   274  2.73  0.  0.  0.
   275  2.74  0.  0.  0.
   276  2.75  0.  0.  0.
   277  2.76  0.  0.  0.
   278  2.77  0.  0.  0.
   279  2.78  0.  0.  0.
   280  2.79  0.  0.  0.
   281  2.80  0.  0.  0.
   282  2.81  0.  0.  0.
   283  2.82  0.  0.  0.
   284  2.83  0.  0.  0.
   285  2.84  0.  0.  0.
   286  2.85  0.  0.  0.
   287  2.86  0.  0.  0.
   288  2.87  0.  0.  0.
   289  2.88  0.  0.  0.
   290  2.89  0.  0.  0.
   291  2.90  0.  0.  0.
   292  2.91  0.  0.  0.
   293  2.92  0.  0.  0.
   294  2.93  0.  0.  0.
   295  2.94  0.  0.  0.
   296  2.95  0.  0.  0.
   297  2.96  0.  0.  0.
   298  2.97  0.  0.  0.
   299  2.98  0.  0.  0.
   300  2.99  0.  0.  0.
   301  3.00  0.  0.  0.
   302  3.01  0.  0.  0.
   303  3.02  0.  0.  0.
   304  3.03  0.  0.  0.
   305  3.04  0.  0.  0.
   306  3.05  0.  0.  0.
   307  3.06  0.  0.  0.
   308  3.07  0.  0.  0.
   309  3.08  0.  0.  0.
   310  3.09  0.  0.  0.
   311  3.10  0.  0.  0.
   312  3.11  0.  0.  0.
   313  3.12  0.  0.  0.
   314  3.13  0.  0.  0.
   315  3.14  0.  0.  0.
   316  3.15  0.  0.  0.
   317  3.16  0.  0.  0.
   318  3.17  0.  0.  0.
   319  3.18  0.  0.  0.
   320  3.19  0.  0.  0.
   321  3.20  0.  0.  0.
   322  3.21  0.  0.  0.
   323  3.22  0.  0.  0.
   324  3.23  0.  0.  0.
   325  3.24  0.  0.  0.
   326  3.25  0.  0.  0.
   327  3.26  0.  0.  0.
   328  3.27  0.  0.  0.
   329  3.28  0.  0.  0.
   330  3.29  0.  0.  0.
   331  3.30  0.  0.  0.
   332  3.31  0.  0.  0.
   333  3.32  0.  0.  0.
   334  3.33  0.  0.  0.
   335  3.34  0.  0.  0.
   336  3.35  0.  0.  0.
   337  3.36  0.  0.  0.
   338  3.37  0.  0.  0.
   339  3.38  0.  0.  0.
   340  3.39  0.  0.  0.
   341  3.40  0.  0.  0.
   342  3.41  0.  0.  0.
   343  3.42  0.  0.  0.
   344  3.43  0.  0.  0.
   345  3.44  0.  0.  0.
   346  3.45  0.  0.  0.
   347  3.46  0.  0.  0.
   348  3.47  0.  0.  0.
   349  3.48  0.  0.  0.
   350  3.49  0.  0.  0.
   351  3.50  0.  0.  0.
   352  3.51  0.  0.  0.
   353  3.52  0.  0.  0.
   354  3.53  0.  0.  0.
   355  3.54  0.  0.  0.
   356  3.55  0.  0.  0.
   357  3.56  0.  0.  0.
   358  3.57  0.  0.  0.
   359  3.58  0.  0.  0.
   360  3.59  0.  0.  0.
   361  3.60  0.  0.  0.
   362  3.61  0.  0.  0.
   363  3.62  0.  0.  0.
   364  3.63  0.  0.  0.
   365  3.64  0.  0.  0.
   366  3.65  0.  0.  0.
   367  3.66  0.  0.  0.
   368  3.67  0.  0.  0.
   369  3.68  0.  0.  0.
   370  3.69  0.  0.  0.
   371  3.70  0.  0.  0.
   372  3.71  0.  0.  0.
   373  3.72  0.  0.  0.
   374  3.73  0.  0.  0.
   375  3.74  0.  0.  0.
   376  3.75  0.  0.  0.
   377  3.76  0.  0.  0.
   378  3.77  0.  0.  0.
   379  3.78  0.  0.  0.
   380  3.79  0.  0.  0.
   381  3.80  0.  0.  0.
   382  3.81  0.  0.  0.
   383  3.82  0.  0.  0.
   384  3.83  0.  0.  0.
   385  3.84  0.  0.  0.
   386  3.85  0.  0.  0.
   387  3.86  0.  0.  0.
   388  3.87  0.  0.  0.
   389  3.88  0.  0.  0.
   390  3.89  0.  0.  0.
   391  3.90  0.  0.  0.
   392  3.91  0.  0.  0.
   393  3.92  0.  0.  0.
   394  3.93  0.  0.  0.
   395  3.94  0.  0.  0.
   396  3.95  0.  0.  0.
   397  3.96  0.  0.  0.
   398  3.97  0.  0.  0.
   399  3.98  0.  0.  0.
   400  3.99  0.  0.  0.
   401  4.00  0.  0.  0.
   402  4.01  0.  0.  0.
   403  4.02  0.  0.  0.
   404  4.03  0.  0.  0.
   405  4.04  0.  0.  0.
   406  4.05  0.  0.  0.
   407  4.06  0.  0.  0.
   408  4.07  0.  0.  0.
   409  4.08  0.  0.  0.
   410  4.09  0.  0.  0.
   411  4.10  0.  0.  0.
   412  4.11  0.  0.  0.
   413  4.12  0.  0.  0.
   414  4.13  0.  0.  0.
   415  4.14  0.  0.  0.
   416  4.15  0.  0.  0.
   417  4.16  0.  0.  0.
   418  4.17  0.  0.  0.
   419  4.18  0.  0.  0.
   420  4.19  0.  0.  0.
   421  4.20  0.  0.  0.
   422  4.21  0.  0.  0.
   423  4.22  0.  0.  0.
   424  4.23  0.  0.  0.
   425  4.24  0.  0.  0.
   426  4.25  0.  0.  0.
   427  4.26  0.  0.  0.
   428  4.27  0.  0.  0.
   429  4.28  0.  0.  0.
   430  4.29  0.  0.  0.
   431  4.30  0.  0.  0.
   432  4.31  0.  0.  0.
   433  4.32  0.  0.  0.
   434  4.33  0.  0.  0.
   435  4.34  0.  0.  0.
   436  4.35  0.  0.  0.
   437  4.36  0.  0.  0.
   438  4.37  0.  0.  0.
   439  4.38  0.  0.  0.
   440  4.39  0.  0.  0.
   441  4.40  0.  0.  0.
   442  4.41  0.  0.  0.
   443  4.42  0.  0.  0.
   444  4.43  0.  0.  0.
   445  4.44  0.  0.  0.
   446  4.45  0.  0.  0.
   447  4.46  0.  0.  0.
   448  4.47  0.  0.  0.
   449  4.48  0.  0.  0.
   450  4.49  0.  0.  0.
   451  4.50  0.  0.  0.
   452  4.51  0.  0.  0.
   453  4.52  0.  0.  0.
   454  4.53  0.  0.  0.
   455  4.54  0.  0.  0.
   456  4.55  0.  0.  0.
   457  4.56  0.  0.  0.
   458  4.57  0.  0.  0.
   459  4.58  0.  0.  0.
   460  4.59  0.  0.  0.
   461  4.60  0.  0.  0.
   462  4.61  0.  0.  0.
   463  4.62  0.  0.  0.
   464  4.63  0.  0.  0.
   465  4.64  0.  0.  0.
   466  4.65  0.  0.  0.
   467  4.66  0.  0.  0.
   468  4.67  0.  0.  0.
   469  4.68  0.  0.  0.
   470  4.69  0.  0.  0.
   471  4.70  0.  0.  0.
   472  4.71  0.  0.  0.
   473  4.72  0.  0.  0.
   474  4.73  0.  0.  0.
   475  4.74  0.  0.  0.
   476  4.75  0.  0.  0.
   477  4.76  0.  0.  0.
   478  4.77  0.  0.  0.
   479  4.78  0.  0.  0.
   480  4.79  0.  0.  0.
   481  4.80  0.  0.  0.
   482  4.81  0.  0.  0.
   483  4.82  0.  0.  0.
   484  4.83  0.  0.  0.
   485  4.84  0.  0.  0.
   486  4.85  0.  0.  0.
   487  4.86  0.  0.  0.
   488  4.87  0.  0.  0.
   489  4.88  0.  0.  0.
   490  4.89  0.  0.  0.
   491  4.90  0.  0.  0.
   492  4.91  0.  0.  0.
   493  4.92  0.  0.  0.
   494  4.93  0.  0.  0.
   495  4.94  0.  0.  0.
   496  4.95  0.  0.  0.
   497  4.96  0.  0.  0.
   498  4.97  0.  0.  0.
   499  4.98  0.  0.  0.
   500  4.99  0.  0.  0.
   501  5.00  0.  0.  0.
   502  5.01  0.  0.  0.
   503  5.02  0.  0.  0.
   504  5.03  0.  0.  0.
   505  5.04  0.  0.  0.
   506  5.05  0.  0.  0.
   507  5.06  0.  0.  0.
   508  5.07  0.  0.  0.
   509  5.08  0.  0.  0.
   510  5.09  0.  0.  0.
   511  5.10  0.  0.  0.
   512  5.11  0.  0.  0.
   513  5.12  0.  0.  0.
   514  5.13  0.  0.  0.
   515  5.14  0.  0.  0.
   516  5.15  0.  0.  0.
   517  5.16  0.  0.  0.
   518  5.17  0.  0.  0.
   519  5.18  0.  0.  0.
   520  5.19  0.  0.  0.
   521  5.20  0.  0.  0.
   522  5.21  0.  0.  0.
   523  5.22  0.  0.  0.
   524  5.23  0.  0.  0.
   525  5.24  0.  0.  0.
   526  5.25  0.  0.  0.
   527  5.26  0.  0.  0.
   528  5.27  0.  0.  0.
   529  5.28  0.  0.  0.
   530  5.29  0.  0.  0.
   531  5.30  0.  0.  0.
   532  5.31  0.  0.  0.
   533  5.32  0.  0.  0.
   534  5.33  0.  0.  0.
   535  5.34  0.  0.  0.
   536  5.35  0.  0.  0.
   537  5.36  0.  0.  0.
   538  5.37  0.  0.  0.
   539  5.38  0.  0.  0.
   540  5.39  0.  0.  0.
   541  5.40  0.  0.  0.
   542  5.41  0.  0.  0.
   543  5.42  0.  0.  0.
   544  5.43  0.  0.  0.
   545  5.44  0.  0.  0.
   546  5.45  0.  0.  0.
   547  5.46  0.  0.  0.
   548  5.47  0.  0.  0.
   549  5.48  0.  0.  0.
   550  5.49  0.  0.  0.
   551  5.50  0.  0.  0.
   552  5.51  0.  0.  0.
   553  5.52  0.  0.  0.
   554  5.53  0.  0.  0.
   555  5.54  0.  0.  0.
   556  5.55  0.  0.  0.
   557  5.56  0.  0.  0.
   558  5.57  0.  0.  0.
   559  5.58  0.  0.  0.
   560  5.59  0.  0.  0.
   561  5.60  0.  0.  0.
   562  5.61  0.  0.  0.
   563  5.62  0.  0.  0.
   564  5.63  0.  0.  0.
   565  5.64  0.  0.  0.
   566  5.65  0.  0.  0.
   567  5.66  0.  0.  0.
   568  5.67  0.  0.  0.
   569  5.68  0.  0.  0.
   570  5.69  0.  0.  0.
   571  5.70  0.  0.  0.
   572  5.71  0.  0.  0.
   573  5.72  0.  0.  0.
   574  5.73  0.  0.  0.
   575  5.74  0.  0.  0.
   576  5.75  0.  0.  0.
   577  5.76  0.  0.  0.
   578  5.77  0.  0.  0.
   579  5.78  0.  0.  0.
   580  5.79  0.  0.  0.
   581  5.80  0.  0.  0.
   582  5.81  0.  0.  0.
   583  5.82  0.  0.  0.
   584  5.83  0.  0.  0.
   585  5.84  0.  0.  0.
   586  5.85  0.  0.  0.
   587  5.86  0.  0.  0.
   588  5.87  0.  0.  0.
   589  5.88  0.  0.  0.
   590  5.89  0.  0.  0.
   591  5.90  0.  0.  0.
   592  5.91  0.  0.  0.
   593  5.92  0.  0.  0.
   594  5.93  0.  0.  0.
   595  5.94  0.  0.  0.
   596  5.95  0.  0.  0.
   597  5.96  0.  0.  0.
   598  5.97  0.  0.  0.
   599  5.98  0.  0.  0.
   600  5.99  0.  0.  0.
   1                         7.5806810933780E+00 -2.8635883521244E+00
     1  0.0000000000000E+00  4.3098346558246E-09 -3.8549027095436E-09
     2  1.0000000000000E-02  5.4614028906652E-03  6.7648571496270E-04
     3  2.0000000000000E-02  2.1787362455203E-02  2.7093678721384E-03
     4  3.0000000000000E-02  4.8803642312315E-02  6.1088185517809E-03
     5  4.0000000000000E-02  8.6221550733097E-02  1.0891450510027E-02
     6  5.0000000000000E-02  1.3364049069424E-01  1.7079814713105E-02
     7  6.0000000000000E-02  1.9055152274447E-01  2.4701713830796E-02
     8  7.0000000000000E-02  2.5634193211887E-01  3.3789348046654E-02
     9  8.0000000000000E-02  3.3030078722562E-01  4.4378313397401E-02
    10  9.0000000000000E-02  4.1162547105275E-01  5.6506476131402E-02
    11  1.0000000000000E-01  4.9942916005508E-01  7.0212749187285E-02
    12  1.1000000000000E-01  5.9274921661597E-01  8.5535798770946E-02
    13  1.2000000000000E-01  6.9055645124588E-01  1.0251271010812E-01
    14  1.3000000000000E-01  7.9176519937742E-01  1.2117764175175E-01
    15  1.4000000000000E-01  8.9524414512373E-01  1.4156049733412E-01
    16  1.5000000000000E-01  9.9982781094374E-01  1.6368564240484E-01
    17  1.6000000000000E-01  1.1043286181378E+00  1.8757069204191E-01
    18  1.7000000000000E-01  1.2075494088761E+00  2.1322539234153E-01
    19  1.8000000000000E-01  1.3082963064875E+00  2.4065061577791E-01
    20  1.9000000000000E-01  1.4053917774893E+00  2.6983748688964E-01
    21  2.0000000000000E-01  1.4976877468201E+00  3.0076665091656E-01
    22  2.1000000000000E-01  1.5840786074503E+00  3.3340769401173E-01
    23  2.2000000000000E-01  1.6635139574657E+00  3.6771871962032E-01
    24  2.3000000000000E-01  1.7350108922994E+00  4.0364608168295E-01
    25  2.4000000000000E-01  1.7976656774129E+00  4.4112427161148E-01
    26  2.5000000000000E-01  1.8506646277118E+00  4.8007595261459E-01
    27  2.6000000000000E-01  1.8932940245714E+00  5.2041213202028E-01
    28  2.7000000000000E-01  1.9249489096504E+00  5.6203245983475E-01
    29  2.8000000000000E-01  1.9451406067434E+00  6.0482563995461E-01
    30  2.9000000000000E-01  1.9535028386531E+00  6.4866993925010E-01
    31  3.0000000000000E-01  1.9497963252625E+00  6.9343377917822E-01
    32  3.1000000000000E-01  1.9339117713465E+00  7.3897639465521E-01
    33  3.2000000000000E-01  1.9058711777534E+00  7.8514854558615E-01
    34  3.3000000000000E-01  1.8658274369042E+00  8.3179326766020E-01
    35  3.4000000000000E-01  1.8140622025032E+00  8.7874665069693E-01
    36  3.5000000000000E-01  1.7509820532642E+00  9.2583863487982E-01
    37  3.6000000000000E-01  1.6771130006229E+00  9.7289381753108E-01
    38  3.7000000000000E-01  1.5930934200992E+00  1.0197322655503E+00
    39  3.8000000000000E-01  1.4996655144446E+00  1.0661703311381E+00
    40  3.9000000000000E-01  1.3976654432508E+00  1.1120214708302E+00
    41  4.0000000000000E-01  1.2880122776228E+00  1.1570970700645E+00
    42  4.1000000000000E-01  1.1716959592218E+00  1.2012072773795E+00
    43  4.2000000000000E-01  1.0497644599286E+00  1.2441618538036E+00
    44  4.3000000000000E-01  9.2331035113920E-01  1.2857710439652E+00
    45  4.4000000000000E-01  7.9345699996457E-01  1.3258464758710E+00
    46  4.5000000000000E-01  6.6134461317638E-01  1.3642020961279E+00
    47  4.6000000000000E-01  5.2811634856546E-01  1.4006551466202E+00
    48  4.7000000000000E-01  3.9490470753205E-01  1.4350271872960E+00
    49  4.8000000000000E-01  2.6281841241999E-01  1.4671451678257E+00
    50  4.9000000000000E-01  1.3292995767164E-01  1.4968425485085E+00
    51  5.0000000000000E-01  6.2640057664827E-03  1.5239604680309E+00
    52  5.1000000000000E-01 -1.1621322233884E-01  1.5483489526061E+00
    53  5.2000000000000E-01 -2.3360343629765E-01  1.5698681577764E+00
    54  5.3000000000000E-01 -3.4508454457427E-01  1.5883896308690E+00
    55  5.4000000000000E-01 -4.4991762798823E-01  1.6037975788937E+00
    56  5.5000000000000E-01 -5.4745257181588E-01  1.6159901236957E+00
    57  5.6000000000000E-01 -6.3713233626276E-01  1.6248805235643E+00
    58  5.7000000000000E-01 -7.1849587063779E-01  1.6303983383691E+00
    59  5.8000000000000E-01 -7.9117970035975E-01  1.6324905137584E+00
    60  5.9000000000000E-01 -8.5491823745082E-01  1.6311223591074E+00
    61  6.0000000000000E-01 -9.0954288395691E-01  1.6262783938010E+00
    62  6.1000000000000E-01 -9.5498001342838E-01  1.6179630371414E+00
    63  6.2000000000000E-01 -9.9124792796398E-01  1.6062011186747E+00
    64  6.3000000000000E-01 -1.0184528972573E+00  1.5910381880443E+00
    65  6.4000000000000E-01 -1.0367843916042E+00  1.5725406065404E+00
    66  6.5000000000000E-01 -1.0465096230700E+00  1.5507954062685E+00
    67  6.6000000000000E-01 -1.0479675082289E+00  1.5259099071979E+00
    68  6.7000000000000E-01 -1.0415621624187E+00  1.4980110871668E+00
    69  6.8000000000000E-01 -1.0277560297402E+00  1.4672447050658E+00
    70  6.9000000000000E-01 -1.0070627455642E+00  1.4337741827508E+00
    71  7.0000000000000E-01 -9.8003981962517E-01  1.3977792565862E+00
    72  7.1000000000000E-01 -9.4728121843407E-01  1.3594544147289E+00
    73  7.2000000000000E-01 -9.0940991627876E-01  1.3190071411630E+00
    74  7.3000000000000E-01 -8.6707047501690E-01  1.2766559919431E+00
    75  7.4000000000000E-01 -8.2092170466319E-01  1.2326285329508E+00
    76  7.5000000000000E-01 -7.7162944982532E-01  1.1871591715962E+00
    77  7.6000000000000E-01 -7.1985954164993E-01  1.1404869172125E+00
    78  7.7000000000000E-01 -6.6627095130178E-01  1.0928531063178E+00
    79  7.8000000000000E-01 -6.1150917920343E-01  1.0444991294232E+00
    80  7.9000000000000E-01 -5.5619991428176E-01  9.9566419563343E-01
    81  8.0000000000000E-01 -5.0094299915722E-01  9.4658316994393E-01
    82  8.1000000000000E-01 -4.4630674032110E-01  8.9748451594307E-01
    83  8.2000000000000E-01 -3.9282260652019E-01  8.4858837365644E-01
    84  8.3000000000000E-01 -3.4098036336988E-01  8.0010479864434E-01
    85  8.4000000000000E-01 -2.9122369713791E-01  7.5223218430972E-01
    86  8.5000000000000E-01 -2.4394638512685E-01  7.0515588485095E-01
    87  8.6000000000000E-01 -1.9948907355284E-01  6.5904705156619E-01
    88  8.7000000000000E-01 -1.5813672568959E-01  6.1406169046001E-01
    89  8.8000000000000E-01 -1.2011680275768E-01  5.7033994449579E-01
    90  8.9000000000000E-01 -8.5598237076395E-02  5.2800559955124E-01
    91  9.0000000000000E-01 -5.4691250906539E-02  4.8716580933566E-01
    92  9.1000000000000E-01 -2.7448064835423E-02  4.4791103136377E-01
    93  9.2000000000000E-01 -3.8645262244988E-03  4.1031516368424E-01
    94  9.3000000000000E-01  1.6117328996677E-02  3.7443587053876E-01
    95  9.4000000000000E-01  3.2605789074615E-02  3.4031508456175E-01