Es    ONCVPSP-4.0.1  r_core=   1.15603   1.15603   1.33451   1.35057
99.0000     39.0000      231012    zatom,zion,pspd
8 -116133   3     4   600     0    pspcod,pspxc,lmax,lloc,mmax,r2well
5.99000000  5.00000000  0.00000000    rchrg fchrg qchrg
3     2     2     2     0    nproj
1     1           extension_switch
0                         2.3994685018599E+01  2.7639042998193E+00 -1.5912189739500E+00
1  0.0000000000000E+00 -7.3983955184431E-08  2.5425723459982E-07 -9.0752532155847E-09
2  1.0000000000000E-02  1.6195354878373E-01 -7.0447876584672E-02  3.5042701424559E-02
3  2.0000000000000E-02  3.2261710212832E-01 -1.3891589014346E-01  6.9933287213633E-02
4  3.0000000000000E-02  4.8072080665758E-01 -2.0348011703323E-01  1.0452201357907E-01
5  4.0000000000000E-02  6.3503452232338E-01 -2.6232660477552E-01  1.3866381636892E-01
6  5.0000000000000E-02  7.8438627244128E-01 -3.1380165859244E-01  1.7222049327579E-01
7  6.0000000000000E-02  9.2767906203230E-01 -3.5645668234704E-01  2.0506270390506E-01
8  7.0000000000000E-02  1.0639056120727E+00 -3.8908607304376E-01  2.3707173831829E-01
9  8.0000000000000E-02  1.1921606312375E+00 -4.1075692230189E-01  2.6814101374173E-01
10  9.0000000000000E-02  1.3116503338472E+00 -4.2082957772371E-01  2.9817726971298E-01
11  1.0000000000000E-01  1.4216990097199E+00 -4.1896845065101E-01  3.2710144356987E-01
12  1.1000000000000E-01  1.5217525548537E+00 -4.0514281197857E-01  3.5484922035964E-01
13  1.2000000000000E-01  1.6113789774531E+00 -3.7961768121266E-01  3.8137126343510E-01
14  1.3000000000000E-01  1.6902659978086E+00 -3.4293527226396E-01  4.0663314367564E-01
15  1.4000000000000E-01  1.7582159590618E+00 -2.9588779918840E-01  4.3061499591655E-01
16  1.5000000000000E-01  1.8151383552651E+00 -2.3948275358501E-01  4.5331094032471E-01
17  1.6000000000000E-01  1.8610403600534E+00 -1.7490203116116E-01  4.7472831372156E-01
18  1.7000000000000E-01  1.8960158008477E+00 -1.0345649821992E-01  4.9488676090673E-01
19  1.8000000000000E-01  1.9202330675521E+00 -2.6537741648096E-02  5.1381723865629E-01
20  1.9000000000000E-01  1.9339224696047E+00  5.4431167216374E-02  5.3156098514283E-01
21  2.0000000000000E-01  1.9373635601504E+00  1.3804404677880E-01  5.4816850504982E-01
22  2.1000000000000E-01  1.9308729309326E+00  2.2295732133218E-01  5.6369861574038E-01
23  2.2000000000000E-01  1.9147929469406E+00  3.0793140247662E-01  5.7821759271523E-01
24  2.3000000000000E-01  1.8894818373162E+00  3.9186624141165E-01  5.9179844357901E-01
25  2.4000000000000E-01  1.8553054906380E+00  4.7382979575927E-01  6.0452032924182E-01
26  2.5000000000000E-01  1.8126312211751E+00  5.5307843929365E-01  6.1646813959844E-01
27  2.6000000000000E-01  1.7618236812643E+00  6.2906866343776E-01  6.2773221898753E-01
28  2.7000000000000E-01  1.7032429972101E+00  7.0145976340073E-01  6.3840822490217E-01
29  2.8000000000000E-01  1.6372451058765E+00  7.7010755626546E-01  6.4859709227077E-01
30  2.9000000000000E-01  1.5641841703844E+00  8.3504952968383E-01  6.5840506570377E-01
31  3.0000000000000E-01  1.4844168599051E+00  8.9648215475137E-01  6.6794375391095E-01
32  3.1000000000000E-01  1.3983081941435E+00  9.5473140235349E-01  6.7733015447470E-01
33  3.2000000000000E-01  1.3062385810533E+00  1.0102177672098E+00  6.8668659366754E-01
34  3.3000000000000E-01  1.2086116194641E+00  1.0634173179204E+00  6.9614052527236E-01
35  3.4000000000000E-01  1.1058621989096E+00  1.1148204464272E+00  7.0582413453250E-01
36  3.5000000000000E-01  9.9846440859937E-01  1.1648900805672E+00  7.1587369843041E-01
37  3.6000000000000E-01  8.8693876704636E-01  1.2140211454236E+00  7.2642866134466E-01
38  3.7000000000000E-01  7.7185830342944E-01  1.2625030121513E+00  7.3763039552090E-01
39  3.8000000000000E-01  6.5385306064572E-01  1.3104865587095E+00  7.4962062834600E-01
40  3.9000000000000E-01  5.3361264676830E-01  1.3579572898303E+00  7.6253953267081E-01
41  4.0000000000000E-01  4.1188653413428E-01  1.4047157303662E+00  7.7652349182983E-01
42  4.1000000000000E-01  2.8948189081493E-01  1.4503660257738E+00  7.9170256693789E-01
43  4.2000000000000E-01  1.6725882451549E-01  1.4943133665721E+00  8.0819770984497E-01
44  4.3000000000000E-01  4.6123020388761E-02  1.5357705122301E+00  8.2611778012949E-01
45  4.4000000000000E-01 -7.2984142045833E-02  1.5737733370329E+00  8.4555643804782E-01
46  4.5000000000000E-01 -1.8909780567715E-01  1.6072049694530E+00  8.6658899682035E-01
47  4.6000000000000E-01 -3.0124390266526E-01  1.6348277606914E+00  8.8926932647224E-01
48  4.7000000000000E-01 -4.0845510069161E-01  1.6553220100629E+00  9.1362690720703E-01
49  4.8000000000000E-01 -5.0978798345973E-01  1.6673301063878E+00  9.3966413263035E-01
50  4.9000000000000E-01 -6.0434096140814E-01  1.6695045256117E+00  9.6735396184770E-01
51  5.0000000000000E-01 -6.9127236752282E-01  1.6605579637210E+00  9.9663801446064E-01
52  5.1000000000000E-01 -7.6981817149537E-01  1.6393137866164E+00  1.0274251938557E+00
53  5.2000000000000E-01 -8.3930874415323E-01  1.6047549485366E+00  1.0595909121367E+00
54  5.3000000000000E-01 -8.9918412319997E-01  1.5560695688971E+00  1.0929769749538E+00
55  5.4000000000000E-01 -9.4900727019182E-01  1.4926914624413E+00  1.1273921668165E+00
56  5.5000000000000E-01 -9.8847486595140E-01  1.4143340853500E+00  1.1626135578375E+00
57  5.6000000000000E-01 -1.0174252651977E+00  1.3210165839818E+00  1.1983885319180E+00
58  5.7000000000000E-01 -1.0358433183765E+00  1.2130809047597E+00  1.2344375149042E+00
59  5.8000000000000E-01 -1.0438618663285E+00  1.0911992331232E+00  1.2704573599806E+00
60  5.9000000000000E-01 -1.0417598179874E+00  9.5637136489113E-01  1.3061253273039E+00
61  6.0000000000000E-01 -1.0299568289748E+00  8.0991196235099E-01  1.3411035763654E+00
62  6.1000000000000E-01 -1.0090047058780E+00  6.5342799705285E-01  1.3750440734791E+00
63  6.2000000000000E-01 -9.7957576335679E-01  4.8878701886603E-01  1.4075938037354E+00
64  6.3000000000000E-01 -9.4244845540796E-01  3.1807720415551E-01  1.4384001672150E+00
65  6.4000000000000E-01 -8.9849068486796E-01  1.4356041376987E-01  1.4671164335801E+00
66  6.5000000000000E-01 -8.4864126372858E-01 -3.2380275806733E-02  1.4934071275557E+00
67  6.6000000000000E-01 -7.9389004884650E-01 -2.0729692524588E-01  1.5169532203412E+00
68  6.7000000000000E-01 -7.3525731152308E-01 -3.7873520564915E-01  1.5374570085266E+00
69  6.8000000000000E-01 -6.7377291430342E-01 -5.4429317084267E-01  1.5546465723917E+00
70  6.9000000000000E-01 -6.1045586398359E-01 -7.0167851302307E-01  1.5682797191116E+00
71  7.0000000000000E-01 -5.4629478673062E-01 -8.4876255451844E-01  1.5781473328643E+00
72  7.1000000000000E-01 -4.8222983058707E-01 -9.8362935607164E-01  1.5840760724897E+00
73  7.2000000000000E-01 -4.1913644425441E-01 -1.1046185033491E+00  1.5859303774704E+00
74  7.3000000000000E-01 -3.5781141126354E-01 -1.2103603609031E+00  1.5836137638349E+00
75  7.4000000000000E-01 -2.9896143820912E-01 -1.2998028476481E+00  1.5770694123290E+00
76  7.5000000000000E-01 -2.4319450775063E-01 -1.3722290798809E+00  1.5662800711113E+00
77  7.6000000000000E-01 -1.9101411483345E-01 -1.4272655361572E+00  1.5512673135657E+00
78  7.7000000000000E-01 -1.4281641140552E-01 -1.4648807117257E+00  1.5320902079622E+00
79  7.8000000000000E-01 -9.8890194072752E-02 -1.4853745376220E+00  1.5088434690796E+00
80  7.9000000000000E-01 -5.9419583723575E-02 -1.4893591304097E+00  1.4816551721258E+00
81  8.0000000000000E-01 -2.4489168934076E-02 -1.4777317032841E+00  1.4506841160717E+00
82  8.1000000000000E-01  5.9086816857486E-03 -1.4516406994231E+00  1.4161169267313E+00
83  8.2000000000000E-01  3.1864687233539E-02 -1.4124463972117E+00  1.3781649896022E+00
84  8.3000000000000E-01  5.3542091733855E-02 -1.3616773791128E+00  1.3370612988132E+00
85  8.4000000000000E-01  7.1165085954657E-02 -1.3009843481885E+00  1.2930573018315E+00
86  8.5000000000000E-01  8.5006639794149E-02 -1.2320928171289E+00  1.2464198103099E+00
87  8.6000000000000E-01  9.5376167490019E-02 -1.1567561845046E+00  1.1974280361674E+00
88  8.7000000000000E-01  1.0260743040711E-01 -1.0767106539100E+00  1.1463707993193E+00
89  8.8000000000000E-01  1.0704705211956E-01 -9.9363334729882E-01  1.0935439400956E+00
90  8.9000000000000E-01  1.0904397950788E-01 -9.0910481903522E-01  1.0392479560076E+00
91  9.0000000000000E-01  1.0894017347804E-01 -8.2457699779212E-01  9.8378586982584E-01
92  9.1000000000000E-01  1.0706275567635E-01 -7.4134737594899E-01  9.2746132455528E-01
93  9.2000000000000E-01  1.0371777525627E-01 -6.6054003730629E-01  8.7057689140114E-01
94  9.3000000000000E-01  9.9185694321195E-02 -5.8309387044821E-01  8.1343256965210E-01
95  9.4000000000000E-01  9.3718623947059E-02 -5.0975806330640E-01  7.5632445290729E-01
96  9.5000000000000E-01  8.7539276190088E-02 -4.4109471984618E-01  6.9954353440510E-01
97  9.6000000000000E-01  8.0841532463663E-02 -3.7748818707050E-01  6.4337462540260E-01
98  9.7000000000000E-01  7.3792465891415E-02 -3.1916043294524E-01  5.8809536445264E-01
99  9.8000000000000E-01  6.6535595091014E-02 -2.6619157545570E-01  5.3397530172218E-01
100  9.9000000000000E-01  5.9195089199924E-02 -2.1854443031999E-01  4.8127505071083E-01
101  1.0000000000000E+00  5.1880588199807E-02 -1.7609171876450E-01  4.3024550925182E-01
102  1.0100000000000E+00  4.4692247704445E-02 -1.3864435482396E-01  3.8112716174332E-01
103  1.0200000000000E+00  3.7725561855737E-02 -1.0597900989810E-01  3.3414948430409E-01
104  1.0300000000000E+00  3.1075459895429E-02 -7.7862925332689E-02  2.8953048303098E-01
105  1.0400000000000E+00  2.4839109173434E-02 -5.4073705371521E-02  2.4747640172837E-01
106  1.0500000000000E+00  1.9116787427217E-02 -3.4411565893603E-02  2.0818163834753E-01
107  1.0600000000000E+00  1.4010107295432E-02 -1.8701230289413E-02  1.7182890786678E-01
108  1.0700000000000E+00  9.6167836177639E-03 -6.7803448002247E-03  1.3858968241243E-01
109  1.0800000000000E+00  6.0210470730907E-03  1.5290159317820E-03  1.0862494491217E-01
110  1.0900000000000E+00  3.2784958411954E-03  6.4701609046828E-03  8.2086106238292E-02
111  1.1000000000000E+00  1.3915306026932E-03  8.4349385067138E-03  5.9113581856384E-02
112  1.1100000000000E+00  2.2318693409452E-04  8.2353755280816E-03  3.9782581119810E-02
113  1.1200000000000E+00 -3.5244392065889E-04  6.6325198016734E-03  2.4215849700425E-02
114  1.1300000000000E+00 -4.6329096413662E-04  4.2980629356550E-03  1.2510842123707E-02
115  1.1400000000000E+00 -2.9019644139535E-04  1.9491727747309E-03  4.6809492588111E-03
116  1.1500000000000E+00 -5.9322674848409E-05  3.2609872393714E-04  6.6139646258685E-04
117  1.1600000000000E+00  3.9517418216475E-06 -1.9564341457560E-05 -3.5359039356401E-05
118  1.1700000000000E+00  6.0547352462411E-09 -3.3682501570975E-08 -6.9031644516364E-08
119  1.18 -0.  0. -0.
120  1.19  0.  0.  0.
121  1.20  0.  0.  0.
122  1.21  0.  0.  0.
123  1.22  0.  0.  0.
124  1.23  0.  0.  0.
125  1.24  0.  0.  0.
126  1.25  0.  0.  0.
127  1.26  0.  0.  0.
128  1.27  0.  0.  0.
129  1.28  0.  0.  0.
130  1.29  0.  0.  0.
131  1.30  0.  0.  0.
132  1.31  0.  0.  0.
133  1.32  0.  0.  0.
134  1.33  0.  0.  0.
135  1.34  0.  0.  0.
136  1.35  0.  0.  0.
137  1.36  0.  0.  0.
138  1.37  0.  0.  0.
139  1.38  0.  0.  0.
140  1.39  0.  0.  0.
141  1.40  0.  0.  0.
142  1.41  0.  0.  0.
143  1.42  0.  0.  0.
144  1.43  0.  0.  0.
145  1.44  0.  0.  0.
146  1.45  0.  0.  0.
147  1.46  0.  0.  0.
148  1.47  0.  0.  0.
149  1.48  0.  0.  0.
150  1.49  0.  0.  0.
151  1.50  0.  0.  0.
152  1.51  0.  0.  0.
153  1.52  0.  0.  0.
154  1.53  0.  0.  0.
155  1.54  0.  0.  0.
156  1.55  0.  0.  0.
157  1.56  0.  0.  0.
158  1.57  0.  0.  0.
159  1.58  0.  0.  0.
160  1.59  0.  0.  0.
161  1.60  0.  0.  0.
162  1.61  0.  0.  0.
163  1.62  0.  0.  0.
164  1.63  0.  0.  0.
165  1.64  0.  0.  0.
166  1.65  0.  0.  0.
167  1.66  0.  0.  0.
168  1.67  0.  0.  0.
169  1.68  0.  0.  0.
170  1.69  0.  0.  0.
171  1.70  0.  0.  0.
172  1.71  0.  0.  0.
173  1.72  0.  0.  0.
174  1.73  0.  0.  0.
175  1.74  0.  0.  0.
176  1.75  0.  0.  0.
177  1.76  0.  0.  0.
178  1.77  0.  0.  0.
179  1.78  0.  0.  0.
180  1.79  0.  0.  0.
181  1.80  0.  0.  0.
182  1.81  0.  0.  0.
183  1.82  0.  0.  0.
184  1.83  0.  0.  0.
185  1.84  0.  0.  0.
186  1.85  0.  0.  0.
187  1.86  0.  0.  0.
188  1.87  0.  0.  0.
189  1.88  0.  0.  0.
190  1.89  0.  0.  0.
191  1.90  0.  0.  0.
192  1.91  0.  0.  0.
193  1.92  0.  0.  0.
194  1.93  0.  0.  0.
195  1.94  0.  0.  0.
196  1.95  0.  0.  0.
197  1.96  0.  0.  0.
198  1.97  0.  0.  0.
199  1.98  0.  0.  0.
200  1.99  0.  0.  0.
201  2.00  0.  0.  0.
202  2.01  0.  0.  0.
203  2.02  0.  0.  0.
204  2.03  0.  0.  0.
205  2.04  0.  0.  0.
206  2.05  0.  0.  0.
207  2.06  0.  0.  0.
208  2.07  0.  0.  0.
209  2.08  0.  0.  0.
210  2.09  0.  0.  0.
211  2.10  0.  0.  0.
212  2.11  0.  0.  0.
213  2.12  0.  0.  0.
214  2.13  0.  0.  0.
215  2.14  0.  0.  0.
216  2.15  0.  0.  0.
217  2.16  0.  0.  0.
218  2.17  0.  0.  0.
219  2.18  0.  0.  0.
220  2.19  0.  0.  0.
221  2.20  0.  0.  0.
222  2.21  0.  0.  0.
223  2.22  0.  0.  0.
224  2.23  0.  0.  0.
225  2.24  0.  0.  0.
226  2.25  0.  0.  0.
227  2.26  0.  0.  0.
228  2.27  0.  0.  0.
229  2.28  0.  0.  0.
230  2.29  0.  0.  0.
231  2.30  0.  0.  0.
232  2.31  0.  0.  0.
233  2.32  0.  0.  0.
234  2.33  0.  0.  0.
235  2.34  0.  0.  0.
236  2.35  0.  0.  0.
237  2.36  0.  0.  0.
238  2.37  0.  0.  0.
239  2.38  0.  0.  0.
240  2.39  0.  0.  0.
241  2.40  0.  0.  0.
242  2.41  0.  0.  0.
243  2.42  0.  0.  0.
244  2.43  0.  0.  0.
245  2.44  0.  0.  0.
246  2.45  0.  0.  0.
247  2.46  0.  0.  0.
248  2.47  0.  0.  0.
249  2.48  0.  0.  0.
250  2.49  0.  0.  0.
251  2.50  0.  0.  0.
252  2.51  0.  0.  0.
253  2.52  0.  0.  0.
254  2.53  0.  0.  0.
255  2.54  0.  0.  0.
256  2.55  0.  0.  0.
257  2.56  0.  0.  0.
258  2.57  0.  0.  0.
259  2.58  0.  0.  0.
260  2.59  0.  0.  0.
261  2.60  0.  0.  0.
262  2.61  0.  0.  0.
263  2.62  0.  0.  0.
264  2.63  0.  0.  0.
265  2.64  0.  0.  0.
266  2.65  0.  0.  0.
267  2.66  0.  0.  0.
268  2.67  0.  0.  0.
269  2.68  0.  0.  0.
270  2.69  0.  0.  0.
271  2.70  0.  0.  0.
272  2.71  0.  0.  0.
273  2.72  0.  0.  0.
274  2.73  0.  0.  0.
275  2.74  0.  0.  0.
276  2.75  0.  0.  0.
277  2.76  0.  0.  0.
278  2.77  0.  0.  0.
279  2.78  0.  0.  0.
280  2.79  0.  0.  0.
281  2.80  0.  0.  0.
282  2.81  0.  0.  0.
283  2.82  0.  0.  0.
284  2.83  0.  0.  0.
285  2.84  0.  0.  0.
286  2.85  0.  0.  0.
287  2.86  0.  0.  0.
288  2.87  0.  0.  0.
289  2.88  0.  0.  0.
290  2.89  0.  0.  0.
291  2.90  0.  0.  0.
292  2.91  0.  0.  0.
293  2.92  0.  0.  0.
294  2.93  0.  0.  0.
295  2.94  0.  0.  0.
296  2.95  0.  0.  0.
297  2.96  0.  0.  0.
298  2.97  0.  0.  0.
299  2.98  0.  0.  0.
300  2.99  0.  0.  0.
301  3.00  0.  0.  0.
302  3.01  0.  0.  0.
303  3.02  0.  0.  0.
304  3.03  0.  0.  0.
305  3.04  0.  0.  0.
306  3.05  0.  0.  0.
307  3.06  0.  0.  0.
308  3.07  0.  0.  0.
309  3.08  0.  0.  0.
310  3.09  0.  0.  0.
311  3.10  0.  0.  0.
312  3.11  0.  0.  0.
313  3.12  0.  0.  0.
314  3.13  0.  0.  0.
315  3.14  0.  0.  0.
316  3.15  0.  0.  0.
317  3.16  0.  0.  0.
318  3.17  0.  0.  0.
319  3.18  0.  0.  0.
320  3.19  0.  0.  0.
321  3.20  0.  0.  0.
322  3.21  0.  0.  0.
323  3.22  0.  0.  0.
324  3.23  0.  0.  0.
325  3.24  0.  0.  0.
326  3.25  0.  0.  0.
327  3.26  0.  0.  0.
328  3.27  0.  0.  0.
329  3.28  0.  0.  0.
330  3.29  0.  0.  0.
331  3.30  0.  0.  0.
332  3.31  0.  0.  0.
333  3.32  0.  0.  0.
334  3.33  0.  0.  0.
335  3.34  0.  0.  0.
336  3.35  0.  0.  0.
337  3.36  0.  0.  0.
338  3.37  0.  0.  0.
339  3.38  0.  0.  0.
340  3.39  0.  0.  0.
341  3.40  0.  0.  0.
342  3.41  0.  0.  0.
343  3.42  0.  0.  0.
344  3.43  0.  0.  0.
345  3.44  0.  0.  0.
346  3.45  0.  0.  0.
347  3.46  0.  0.  0.
348  3.47  0.  0.  0.
349  3.48  0.  0.  0.
350  3.49  0.  0.  0.
351  3.50  0.  0.  0.
352  3.51  0.  0.  0.
353  3.52  0.  0.  0.
354  3.53  0.  0.  0.
355  3.54  0.  0.  0.
356  3.55  0.  0.  0.
357  3.56  0.  0.  0.
358  3.57  0.  0.  0.
359  3.58  0.  0.  0.
360  3.59  0.  0.  0.
361  3.60  0.  0.  0.
362  3.61  0.  0.  0.
363  3.62  0.  0.  0.
364  3.63  0.  0.  0.
365  3.64  0.  0.  0.
366  3.65  0.  0.  0.
367  3.66  0.  0.  0.
368  3.67  0.  0.  0.
369  3.68  0.  0.  0.
370  3.69  0.  0.  0.
371  3.70  0.  0.  0.
372  3.71  0.  0.  0.
373  3.72  0.  0.  0.
374  3.73  0.  0.  0.
375  3.74  0.  0.  0.
376  3.75  0.  0.  0.
377  3.76  0.  0.  0.
378  3.77  0.  0.  0.
379  3.78  0.  0.  0.
380  3.79  0.  0.  0.
381  3.80  0.  0.  0.
382  3.81  0.  0.  0.
383  3.82  0.  0.  0.
384  3.83  0.  0.  0.
385  3.84  0.  0.  0.
386  3.85  0.  0.  0.
387  3.86  0.  0.  0.
388  3.87  0.  0.  0.
389  3.88  0.  0.  0.
390  3.89  0.  0.  0.
391  3.90  0.  0.  0.
392  3.91  0.  0.  0.
393  3.92  0.  0.  0.
394  3.93  0.  0.  0.
395  3.94  0.  0.  0.
396  3.95  0.  0.  0.
397  3.96  0.  0.  0.
398  3.97  0.  0.  0.
399  3.98  0.  0.  0.
400  3.99  0.  0.  0.
401  4.00  0.  0.  0.
402  4.01  0.  0.  0.
403  4.02  0.  0.  0.
404  4.03  0.  0.  0.
405  4.04  0.  0.  0.
406  4.05  0.  0.  0.
407  4.06  0.  0.  0.
408  4.07  0.  0.  0.
409  4.08  0.  0.  0.
410  4.09  0.  0.  0.
411  4.10  0.  0.  0.
412  4.11  0.  0.  0.
413  4.12  0.  0.  0.
414  4.13  0.  0.  0.
415  4.14  0.  0.  0.
416  4.15  0.  0.  0.
417  4.16  0.  0.  0.
418  4.17  0.  0.  0.
419  4.18  0.  0.  0.
420  4.19  0.  0.  0.
421  4.20  0.  0.  0.
422  4.21  0.  0.  0.
423  4.22  0.  0.  0.
424  4.23  0.  0.  0.
425  4.24  0.  0.  0.
426  4.25  0.  0.  0.
427  4.26  0.  0.  0.
428  4.27  0.  0.  0.
429  4.28  0.  0.  0.
430  4.29  0.  0.  0.
431  4.30  0.  0.  0.
432  4.31  0.  0.  0.
433  4.32  0.  0.  0.
434  4.33  0.  0.  0.
435  4.34  0.  0.  0.
436  4.35  0.  0.  0.
437  4.36  0.  0.  0.
438  4.37  0.  0.  0.
439  4.38  0.  0.  0.
440  4.39  0.  0.  0.
441  4.40  0.  0.  0.
442  4.41  0.  0.  0.
443  4.42  0.  0.  0.
444  4.43  0.  0.  0.
445  4.44  0.  0.  0.
446  4.45  0.  0.  0.
447  4.46  0.  0.  0.
448  4.47  0.  0.  0.
449  4.48  0.  0.  0.
450  4.49  0.  0.  0.
451  4.50  0.  0.  0.
452  4.51  0.  0.  0.
453  4.52  0.  0.  0.
454  4.53  0.  0.  0.
455  4.54  0.  0.  0.
456  4.55  0.  0.  0.
457  4.56  0.  0.  0.
458  4.57  0.  0.  0.
459  4.58  0.  0.  0.
460  4.59  0.  0.  0.
461  4.60  0.  0.  0.
462  4.61  0.  0.  0.
463  4.62  0.  0.  0.
464  4.63  0.  0.  0.
465  4.64  0.  0.  0.
466  4.65  0.  0.  0.
467  4.66  0.  0.  0.
468  4.67  0.  0.  0.
469  4.68  0.  0.  0.
470  4.69  0.  0.  0.
471  4.70  0.  0.  0.
472  4.71  0.  0.  0.
473  4.72  0.  0.  0.
474  4.73  0.  0.  0.
475  4.74  0.  0.  0.
476  4.75  0.  0.  0.
477  4.76  0.  0.  0.
478  4.77  0.  0.  0.
479  4.78  0.  0.  0.
480  4.79  0.  0.  0.
481  4.80  0.  0.  0.
482  4.81  0.  0.  0.
483  4.82  0.  0.  0.
484  4.83  0.  0.  0.
485  4.84  0.  0.  0.
486  4.85  0.  0.  0.
487  4.86  0.  0.  0.
488  4.87  0.  0.  0.
489  4.88  0.  0.  0.
490  4.89  0.  0.  0.
491  4.90  0.  0.  0.
492  4.91  0.  0.  0.
493  4.92  0.  0.  0.
494  4.93  0.  0.  0.
495  4.94  0.  0.  0.
496  4.95  0.  0.  0.
497  4.96  0.  0.  0.
498  4.97  0.  0.  0.
499  4.98  0.  0.  0.
500  4.99  0.  0.  0.
501  5.00  0.  0.  0.
502  5.01  0.  0.  0.
503  5.02  0.  0.  0.
504  5.03  0.  0.  0.
505  5.04  0.  0.  0.
506  5.05  0.  0.  0.
507  5.06  0.  0.  0.
508  5.07  0.  0.  0.
509  5.08  0.  0.  0.
510  5.09  0.  0.  0.
511  5.10  0.  0.  0.
512  5.11  0.  0.  0.
513  5.12  0.  0.  0.
514  5.13  0.  0.  0.
515  5.14  0.  0.  0.
516  5.15  0.  0.  0.
517  5.16  0.  0.  0.
518  5.17  0.  0.  0.
519  5.18  0.  0.  0.
520  5.19  0.  0.  0.
521  5.20  0.  0.  0.
522  5.21  0.  0.  0.
523  5.22  0.  0.  0.
524  5.23  0.  0.  0.
525  5.24  0.  0.  0.
526  5.25  0.  0.  0.
527  5.26  0.  0.  0.
528  5.27  0.  0.  0.
529  5.28  0.  0.  0.
530  5.29  0.  0.  0.
531  5.30  0.  0.  0.
532  5.31  0.  0.  0.
533  5.32  0.  0.  0.
534  5.33  0.  0.  0.
535  5.34  0.  0.  0.
536  5.35  0.  0.  0.
537  5.36  0.  0.  0.
538  5.37  0.  0.  0.
539  5.38  0.  0.  0.
540  5.39  0.  0.  0.
541  5.40  0.  0.  0.
542  5.41  0.  0.  0.
543  5.42  0.  0.  0.
544  5.43  0.  0.  0.
545  5.44  0.  0.  0.
546  5.45  0.  0.  0.
547  5.46  0.  0.  0.
548  5.47  0.  0.  0.
549  5.48  0.  0.  0.
550  5.49  0.  0.  0.
551  5.50  0.  0.  0.
552  5.51  0.  0.  0.
553  5.52  0.  0.  0.
554  5.53  0.  0.  0.
555  5.54  0.  0.  0.
556  5.55  0.  0.  0.
557  5.56  0.  0.  0.
558  5.57  0.  0.  0.
559  5.58  0.  0.  0.
560  5.59  0.  0.  0.
561  5.60  0.  0.  0.
562  5.61  0.  0.  0.
563  5.62  0.  0.  0.
564  5.63  0.  0.  0.
565  5.64  0.  0.  0.
566  5.65  0.  0.  0.
567  5.66  0.  0.  0.
568  5.67  0.  0.  0.
569  5.68  0.  0.  0.
570  5.69  0.  0.  0.
571  5.70  0.  0.  0.
572  5.71  0.  0.  0.
573  5.72  0.  0.  0.
574  5.73  0.  0.  0.
575  5.74  0.  0.  0.
576  5.75  0.  0.  0.
577  5.76  0.  0.  0.
578  5.77  0.  0.  0.
579  5.78  0.  0.  0.
580  5.79  0.  0.  0.
581  5.80  0.  0.  0.
582  5.81  0.  0.  0.
583  5.82  0.  0.  0.
584  5.83  0.  0.  0.
585  5.84  0.  0.  0.
586  5.85  0.  0.  0.
587  5.86  0.  0.  0.
588  5.87  0.  0.  0.
589  5.88  0.  0.  0.
590  5.89  0.  0.  0.
591  5.90  0.  0.  0.
592  5.91  0.  0.  0.
593  5.92  0.  0.  0.
594  5.93  0.  0.  0.
595  5.94  0.  0.  0.
596  5.95  0.  0.  0.
597  5.96  0.  0.  0.
598  5.97  0.  0.  0.
599  5.98  0.  0.  0.
600  5.99  0.  0.  0.
1                         8.1108418120408E+00 -1.5168710033577E+00
1  0.0000000000000E+00 -8.7661734538003E-09 -1.5037604345763E-08
2  1.0000000000000E-02  4.5689954633369E-03  2.7862064850171E-04
3  2.0000000000000E-02  1.8237400209249E-02  1.1229919381442E-03
4  3.0000000000000E-02  4.0889607522941E-02  2.5583503455479E-03
5  4.0000000000000E-02  7.2333407704521E-02  4.6257952998519E-03
6  5.0000000000000E-02  1.1230071592110E-01  7.3808834517334E-03
7  6.0000000000000E-02  1.6044864100246E-01  1.0891731899152E-02
8  7.0000000000000E-02  2.1636094171092E-01  1.5236698439563E-02
9  8.0000000000000E-02  2.7954992578204E-01  2.0501721955950E-02
10  9.0000000000000E-02  3.4945885265337E-01  2.6777417997235E-02
11  1.0000000000000E-01  4.2546490283986E-01  3.4156033036292E-02
12  1.1000000000000E-01  5.0688277509053E-01  4.2728365464162E-02
13  1.2000000000000E-01  5.9296896663937E-01  5.2580761932109E-02
14  1.3000000000000E-01  6.8292678207968E-01  6.3792294158210E-02
15  1.4000000000000E-01  7.7591210284397E-01  7.6432213895401E-02
16  1.5000000000000E-01  8.7103993232180E-01  9.0557772683853E-02
17  1.6000000000000E-01  9.6739171180407E-01  1.0621247868893E-01
18  1.7000000000000E-01  1.0640233803466E+00  1.2342484588580E-01
19  1.8000000000000E-01  1.1599741280486E+00  1.4220767172678E-01
20  1.9000000000000E-01  1.2542757679797E+00  1.6255785893035E-01
21  2.0000000000000E-01  1.3459626279489E+00  1.8445677593215E-01
22  2.1000000000000E-01  1.4340818404028E+00  2.0787112963229E-01
23  2.2000000000000E-01  1.5177038878671E+00  2.3275430415512E-01
24  2.3000000000000E-01  1.5959332433548E+00  2.5904810116895E-01
25  2.4000000000000E-01  1.6679189308302E+00  2.8668480159610E-01
26  2.5000000000000E-01  1.7328648208162E+00  3.1558945589390E-01
27  2.6000000000000E-01  1.7900394710764E+00  3.4568230101027E-01
28  2.7000000000000E-01  1.8387853223855E+00  3.7688119698896E-01
29  2.8000000000000E-01  1.8785270649140E+00  4.0910397524938E-01
30  2.9000000000000E-01  1.9087790017095E+00  4.4227059386989E-01
31  3.0000000000000E-01  1.9291512519985E+00  4.7630500267682E-01
32  3.1000000000000E-01  1.9393546581812E+00  5.1113663234177E-01
33  3.2000000000000E-01  1.9392042859391E+00  5.4670143662331E-01
34  3.3000000000000E-01  1.9286214361002E+00  5.8294243482445E-01
35  3.4000000000000E-01  1.9076341189972E+00  6.1980972182265E-01
36  3.5000000000000E-01  1.8763759760517E+00  6.5725993491557E-01
37  3.6000000000000E-01  1.8350836682044E+00  6.9525518939520E-01
38  3.7000000000000E-01  1.7840927855145E+00  7.3376151735391E-01
39  3.8000000000000E-01  1.7238323656947E+00  7.7274686587173E-01
40  3.9000000000000E-01  1.6548181404847E+00  8.1217873058640E-01
41  4.0000000000000E-01  1.5776446566153E+00  8.5202151791926E-01
42  4.1000000000000E-01  1.4929764417993E+00  8.9223374321227E-01
43  4.2000000000000E-01  1.4015384049650E+00  9.3276518213698E-01
44  4.3000000000000E-01  1.3041056732418E+00  9.7355409850706E-01
45  4.4000000000000E-01  1.2014930756178E+00  1.0145246727664E+00
46  4.5000000000000E-01  1.0945444845333E+00  1.0555847518057E+00
47  4.6000000000000E-01  9.8412222194343E-01  1.0966240324301E+00
48  4.7000000000000E-01  8.7109672583159E-01  1.1375127779880E+00
49  4.8000000000000E-01  7.5633665717783E-01  1.1781011507734E+00
50  4.9000000000000E-01  6.4069960662346E-01  1.2182192223956E+00
51  5.0000000000000E-01  5.2502353528967E-01  1.2576777010637E+00
52  5.1000000000000E-01  4.1011905633344E-01  1.2962693894947E+00
53  5.2000000000000E-01  2.9676263388140E-01  1.3337713608071E+00
54  5.3000000000000E-01  1.8569074506781E-01  1.3699478132996E+00
55  5.4000000000000E-01  7.7595020138047E-02  1.4045535393957E+00
56  5.5000000000000E-01 -2.6881653928009E-02  1.4373379202464E+00
57  5.6000000000000E-01 -1.2714810801511E-01  1.4680493364356E+00
58  5.7000000000000E-01 -2.2266700936930E-01  1.4964398677501E+00
59  5.8000000000000E-01 -3.1295620951179E-01  1.5222701417752E+00
60  5.9000000000000E-01 -3.9758942219125E-01  1.5453141827102E+00
61  6.0000000000000E-01 -4.7619634188667E-01  1.5653641086516E+00
62  6.1000000000000E-01 -5.4846231780038E-01  1.5822345278695E+00
63  6.2000000000000E-01 -6.1412769720857E-01  1.5957664922913E+00
64  6.3000000000000E-01 -6.7298694565562E-01  1.6058308793052E+00
65  6.4000000000000E-01 -7.2488764019563E-01  1.6123310907040E+00
66  6.5000000000000E-01 -7.6972941630911E-01  1.6152049795055E+00
67  6.6000000000000E-01 -8.0746293004315E-01  1.6144259407654E+00
68  6.7000000000000E-01 -8.3808887527942E-01  1.6100031304387E+00
69  6.8000000000000E-01 -8.6165707287397E-01  1.6019808058400E+00
70  6.9000000000000E-01 -8.7826562485899E-01  1.5904368112372E+00
71  7.0000000000000E-01 -8.8806010409452E-01  1.5754802614617E+00
72  7.1000000000000E-01 -8.9123272883446E-01  1.5572485040540E+00
73  7.2000000000000E-01 -8.8802145368234E-01  1.5359034653213E+00
74  7.3000000000000E-01 -8.7870889430583E-01  1.5116275068283E+00
75  7.4000000000000E-01 -8.6362099384541E-01  1.4846189354313E+00
76  7.5000000000000E-01 -8.4312533479911E-01  1.4550873213539E+00
77  7.6000000000000E-01 -8.1762900167669E-01  1.4232487845081E+00
78  7.7000000000000E-01 -7.8757590704688E-01  1.3893214090281E+00
79  7.8000000000000E-01 -7.5344350665072E-01  1.3535209397711E+00
80  7.9000000000000E-01 -7.1573884767645E-01  1.3160569025345E+00
81  8.0000000000000E-01 -6.7499391749702E-01  1.2771292723575E+00
82  8.1000000000000E-01 -6.3176028734834E-01  1.2369257921396E+00
83  8.2000000000000E-01 -5.8660307556126E-01  1.1956200177333E+00
84  8.3000000000000E-01 -5.4009428688155E-01  1.1533701366328E+00
85  8.4000000000000E-01 -4.9280561682295E-01  1.1103185764827E+00
86  8.5000000000000E-01 -4.4530084152894E-01  1.0665923880797E+00
87  8.6000000000000E-01 -3.9812794287334E-01  1.0223043565614E+00
88  8.7000000000000E-01 -3.5181114413933E-01  9.7755476533280E-01
89  8.8000000000000E-01 -3.0684305229049E-01  9.3243371116452E-01
90  8.9000000000000E-01 -2.6367711742027E-01  8.8702384692987E-01
91  9.0000000000000E-01 -2.2272062744471E-01  8.4140341163284E-01
92  9.1000000000000E-01 -1.8432845570231E-01  7.9564939653669E-01
93  9.2000000000000E-01 -1.4879777030115E-01  7.4984069199071E-01
94  9.3000000000000E-01 -1.1636389652331E-01  7.0406106239671E-01
95  9.4000000000000E-01 -8.7197497365281E-02  6.5840180686114E-01
96  9.5000000000000E-01 -6.1403202618622E-02  6.1296398042114E-01
97  9.6000000000000E-01 -3.9019774348578E-02  5.6786007504400E-01
98  9.7000000000000E-01 -2.0021847000257E-02  5.2321509040164E-01
99  9.8000000000000E-01 -4.3232247020324E-03  4.7916696102425E-01
100  9.9000000000000E-01  8.2183420993581E-03  4.3586634795625E-01
101  1.0000000000000E+00  1.7795042387687E-02  3.9347584848668E-01
102  1.0100000000000E+00  2.4641760115988E-02  3.5216872572969E-01
103  1.0200000000000E+00  2.9027972884074E-02  3.1212730957391E-01
104  1.0300000000000E+00  3.1249131749655E-02  2.7354127059819E-01
105  1.0400000000000E+00  3.1617921868381E-02  2.3660601766512E-01
106  1.0500000000000E+00  3.0455860900992E-02  2.0152151682705E-01
107  1.0600000000000E+00  2.8085743667572E-02  1.6849187289174E-01
108  1.0700000000000E+00  2.4825486016908E-02  1.3772605435534E-01
109  1.0800000000000E+00  2.0983975102741E-02  1.0944018866909E-01
110  1.0900000000000E+00  1.6859407957643E-02  8.3861775666708E-02
111  1.1000000000000E+00  1.2738390346946E-02  6.1234715203066E-02
112  1.1100000000000E+00  8.8489440363749E-03  4.1790581873600E-02
113  1.1200000000000E+00  5.4635023477106E-03  2.5806168255593E-02
114  1.1300000000000E+00  2.8147381812417E-03  1.3530659663049E-02
115  1.1400000000000E+00  1.0316879646487E-03  5.1400709248371E-03
116  1.1500000000000E+00  1.4001638307046E-04  7.3778435911658E-04
117  1.1600000000000E+00 -7.2068308009977E-06 -3.9926600926311E-05
118  1.1700000000000E+00 -1.4664526641549E-08 -7.6924072152309E-08
119  1.18 -0. -0.
120  1.19  0.  0.
121  1.20  0.  0.
122  1.21  0.  0.
123  1.22  0.  0.
124  1.23  0.  0.
125  1.24  0.  0.
126  1.25  0.  0.
127  1.26  0.  0.
128  1.27  0.  0.
129  1.28  0.  0.
130  1.29  0.  0.
131  1.30  0.  0.
132  1.31  0.  0.
133  1.32  0.  0.
134  1.33  0.  0.
135  1.34  0.  0.
136  1.35  0.  0.
137  1.36  0.  0.
138  1.37  0.  0.
139  1.38  0.  0.
140  1.39  0.  0.
141  1.40  0.  0.
142  1.41  0.  0.
143  1.42  0.  0.
144  1.43  0.  0.
145  1.44  0.  0.
146  1.45  0.  0.
147  1.46  0.  0.
148  1.47  0.  0.
149  1.48  0.  0.
150  1.49  0.  0.
151  1.50  0.  0.
152  1.51  0.  0.
153  1.52  0.  0.
154  1.53  0.  0.
155  1.54  0.  0.
156  1.55  0.  0.
157  1.56  0.  0.
158  1.57  0.  0.
159  1.58  0.  0.
160  1.59  0.  0.
161  1.60  0.  0.
162  1.61  0.  0.
163  1.62  0.  0.
164  1.63  0.  0.
165  1.64  0.  0.