Es    ONCVPSP-4.0.1  r_core=   1.15603   1.15603   1.33451   1.35057
99.0000     39.0000      231012    zatom,zion,pspd
8 -116133   3     4   600     0    pspcod,pspxc,lmax,lloc,mmax,r2well
5.99000000  5.00000000  0.00000000    rchrg fchrg qchrg
3     3     3     2    nproj
3     1           extension_switch
4     3     4    nprojso
0                         2.4172831202066E+01  2.7895487474605E+00 -1.5546199692328E+00
1  0.0000000000000E+00 -7.5183878678331E-08  2.5779899942568E-07 -8.3600737998957E-09
2  1.0000000000000E-02  1.6184609336793E-01 -7.0932976188802E-02  3.4673771027944E-02
3  2.0000000000000E-02  3.2240260063981E-01 -1.3987385706365E-01  6.9198526938194E-02
4  3.0000000000000E-02  4.8040021445725E-01 -2.0488699857637E-01  1.0342747473411E-01
5  4.0000000000000E-02  6.3460960659065E-01 -2.6414772876697E-01  1.3721820727537E-01
6  5.0000000000000E-02  7.8385999233745E-01 -3.1599307864164E-01  1.7043475258322E-01
7  6.0000000000000E-02  9.2705604190285E-01 -3.5896700283350E-01  2.0294945725120E-01
8  7.0000000000000E-02  1.0631926807514E+00 -3.9185857207440E-01  2.3464465911301E-01
9  8.0000000000000E-02  1.1913673961021E+00 -4.1373187730502E-01  2.6541411267906E-01
10  9.0000000000000E-02  1.3107897552649E+00 -4.2394668889742E-01  2.9516414058813E-01
11  1.0000000000000E-01  1.4207879400561E+00 -4.2216925259407E-01  3.2381449499891E-01
12  1.1000000000000E-01  1.5208122063787E+00 -4.0837296372976E-01  3.5129892399579E-01
13  1.2000000000000E-01  1.6104352852714E+00 -3.8282902963154E-01  3.7756544920779E-01
14  1.3000000000000E-01  1.6893498473078E+00 -3.4608759302467E-01  4.0257637144538E-01
15  1.4000000000000E-01  1.7573632521911E+00 -2.9895013324628E-01  4.2630803077260E-01
16  1.5000000000000E-01  1.8143898960292E+00 -2.4243427425666E-01  4.4875035562209E-01
17  1.6000000000000E-01  1.8604415466970E+00 -1.7773239720495E-01  4.6990624195877E-01
18  1.7000000000000E-01  1.8956161200233E+00 -1.0616567067243E-01  4.8979080781670E-01
19  1.8000000000000E-01  1.9200853939863E+00 -2.9135265709716E-02  5.0843057057380E-01
20  1.9000000000000E-01  1.9340821830666E+00  5.1927390242247E-02  5.2586259399786E-01
21  2.0000000000000E-01  1.9378874995315E+00  1.3560944962157E-01  5.4213364940534E-01
22  2.1000000000000E-01  1.9318182126349E+00  2.2056275405256E-01  5.5729943034275E-01
23  2.2000000000000E-01  1.9162156812209E+00  3.0554552171656E-01  5.7142385325269E-01
24  2.3000000000000E-01  1.8914357814719E+00  3.8945810363310E-01  5.8457846794107E-01
25  2.4000000000000E-01  1.8578406817100E+00  4.7137154195783E-01  5.9684199172142E-01
26  2.5000000000000E-01  1.8157926330132E+00  5.5054795281902E-01  6.0829997034189E-01
27  2.6000000000000E-01  1.7656499512421E+00  6.2645208167557E-01  6.1904455771514E-01
28  2.7000000000000E-01  1.7077652665441E+00  6.9875372826327E-01  6.2917439560657E-01
29  2.8000000000000E-01  1.6424860144446E+00  7.6732109756330E-01  6.3879456433181E-01
30  2.9000000000000E-01  1.5701570422383E+00  8.3220548917457E-01  6.4801656668368E-01
31  3.0000000000000E-01  1.4911251095166E+00  8.9361807644233E-01  6.5695830022254E-01
32  3.1000000000000E-01  1.4057449760438E+00  9.5189983576493E-01  6.6574396812215E-01
33  3.2000000000000E-01  1.3143866971939E+00  1.0074859539275E+00  6.7450387628226E-01
34  3.3000000000000E-01  1.2174436896874E+00  1.0608662569044E+00  6.8337406461118E-01
35  3.4000000000000E-01  1.1153410907010E+00  1.1125433591620E+00  6.9249572334618E-01
36  3.5000000000000E-01  1.0085439131800E+00  1.1629903221648E+00  7.0201435099558E-01
37  3.6000000000000E-01  8.9756450020877E-01  1.2126096311677E+00  7.1207861880950E-01
38  3.7000000000000E-01  7.8296880166696E-01  1.2616952497143E+00  7.2283891735546E-01
39  3.8000000000000E-01  6.6538103639365E-01  1.3103993934779E+00  7.3444557341454E-01
40  3.9000000000000E-01  5.4548636123057E-01  1.3587054837097E+00  7.4704673955574E-01
41  4.0000000000000E-01  4.2403124242728E-01  1.4064085025127E+00  7.6078597383874E-01
42  4.1000000000000E-01  3.0182131216942E-01  1.4531036865478E+00  7.7579954253024E-01
43  4.2000000000000E-01  1.7971659011666E-01  1.4981841734767E+00  7.9221349385523E-01
44  4.3000000000000E-01  5.8624053106932E-02  1.5408478687404E+00  8.1014056499041E-01
45  4.4000000000000E-01 -6.0512358347814E-02  1.5801134423410E+00  8.2967699711339E-01
46  4.5000000000000E-01 -1.7672410452215E-01  1.6148450097527E+00  8.5089934376203E-01
47  4.6000000000000E-01 -2.8903249183091E-01  1.6437847114034E+00  8.7386136552119E-01
48  4.7000000000000E-01 -3.9646482077889E-01  1.6655920942207E+00  8.9859110871973E-01
49  4.8000000000000E-01 -4.9807178295208E-01  1.6788889282654E+00  9.2508826708256E-01
50  4.9000000000000E-01 -5.9294559412261E-01  1.6823078716631E+00  9.5332192296582E-01
51  5.0000000000000E-01 -6.8023830936111E-01  1.6745432361374E+00  9.8322875886653E-01
52  5.1000000000000E-01 -7.5917974468108E-01  1.6544020094330E+00  1.0147118204493E+00
53  5.2000000000000E-01 -8.2909442905132E-01  1.6208532632958E+00  1.0476398996139E+00
54  5.3000000000000E-01 -8.8941703069089E-01  1.5730741173805E+00  1.0818475905236E+00
55  5.4000000000000E-01 -9.3970574171121E-01  1.5104905387627E+00  1.1171360535208E+00
56  5.5000000000000E-01 -9.7965316394362E-01  1.4328114294026E+00  1.1532745020829E+00
57  5.6000000000000E-01 -1.0090943140473E+00  1.3400546833246E+00  1.1900024071019E+00
58  5.7000000000000E-01 -1.0280114549767E+00  1.2325641727205E+00  1.2270323915399E+00
59  5.8000000000000E-01 -1.0365355603533E+00  1.1110169371996E+00  1.2640537676927E+00
60  5.9000000000000E-01 -1.0349443245984E+00  9.7642019117393E-01  1.3007366496335E+00
61  6.0000000000000E-01 -1.0236567409963E+00  8.3009811820947E-01  1.3367365556459E+00
62  6.1000000000000E-01 -1.0032243782168E+00  6.7366877501467E-01  1.3716994002333E+00
63  6.2000000000000E-01 -9.7431958936447E-01  5.0901176861570E-01  1.4052667631938E+00
64  6.3000000000000E-01 -9.3772098268599E-01  3.3822768584465E-01  1.4370813147143E+00
65  6.4000000000000E-01 -8.9429656633684E-01  1.6359053325705E-01  1.4667922707959E+00
66  6.5000000000000E-01 -8.4498504826603E-01 -1.2505321778137E-02  1.4940607527348E+00
67  6.6000000000000E-01 -7.9077582405945E-01 -1.8760203974590E-01  1.5185649278692E+00
68  6.7000000000000E-01 -7.3268821888898E-01 -3.5923724013520E-01  1.5400048162264E+00
69  6.8000000000000E-01 -6.7175056365484E-01 -5.2500313319619E-01  1.5581066587633E+00
70  6.9000000000000E-01 -6.0897967981296E-01 -6.8260402053337E-01  1.5726267571684E+00
71  7.0000000000000E-01 -5.4536132280816E-01 -8.2991040622891E-01  1.5833547121195E+00
72  7.1000000000000E-01 -4.8183209173217E-01 -9.6500809337253E-01  1.5901160058279E+00
73  7.2000000000000E-01 -4.1926325466339E-01 -1.0862408279827E+00  1.5927738949108E+00
74  7.3000000000000E-01 -3.5844686754357E-01 -1.1922452856581E+00  1.5912306003569E+00
75  7.4000000000000E-01 -3.0008448224293E-01 -1.2819774667263E+00  1.5854278018092E+00
76  7.5000000000000E-01 -2.4477864984380E-01 -1.3547298627412E+00  1.5753464628203E+00
77  7.6000000000000E-01 -1.9302733147282E-01 -1.4101390698739E+00  1.5610060314397E+00
78  7.7000000000000E-01 -1.4522123464505E-01 -1.4481838416351E+00  1.5424630758479E+00
79  7.8000000000000E-01 -1.0164400137735E-01 -1.4691738832096E+00  1.5198094272391E+00
80  7.9000000000000E-01 -6.2475088397128E-02 -1.4737299818410E+00  1.4931699113939E+00
81  8.0000000000000E-01 -2.7795102416339E-02 -1.4627563324506E+00  1.4626997561244E+00
82  8.1000000000000E-01  2.4067129614351E-03 -1.4374061466296E+00  1.4285817639423E+00
83  8.2000000000000E-01  2.8223195691494E-02 -1.3990418194476E+00  1.3910233379437E+00
84  8.3000000000000E-01  4.9818585465330E-02 -1.3491910671335E+00  1.3502534442602E+00
85  8.4000000000000E-01  6.7416866416794E-02 -1.2895005364158E+00  1.3065195868403E+00
86  8.5000000000000E-01  8.1289562457597E-02 -1.2216884218858E+00  1.2600848602906E+00
87  8.6000000000000E-01  9.1743409877281E-02 -1.1474976117906E+00  1.2112251345982E+00
88  8.7000000000000E-01  9.9108312482937E-02 -1.0686508174882E+00  1.1602264124468E+00
89  8.8000000000000E-01  1.0372595261736E-01 -9.8680903128571E-01  1.1073823862147E+00
90  8.9000000000000E-01  1.0593938854834E-01 -9.0353450668614E-01  1.0529922083389E+00
91  9.0000000000000E-01  1.0608391688537E-01 -8.2025927026265E-01  9.9735847622172E-01
92  9.1000000000000E-01  1.0447941993059E-01 -7.3825996222895E-01  9.4078542190103E-01
93  9.2000000000000E-01  1.0142435430564E-01 -6.5863957021798E-01  8.8357728784836E-01
94  9.3000000000000E-01  9.7191470849124E-02 -5.8231637471418E-01  8.2603686395650E-01
95  9.4000000000000E-01  9.2025288510086E-02 -5.1002017147048E-01  7.6846415733678E-01
96  9.5000000000000E-01  8.6141278317297E-02 -4.4229558162313E-01  7.1115516613170E-01
97  9.6000000000000E-01  7.9726648739368E-02 -3.7951200884927E-01  6.5440073115885E-01
98  9.7000000000000E-01  7.2942561631332E-02 -3.2187955800400E-01  5.9848544466784E-01
99  9.8000000000000E-01  6.5927548839400E-02 -2.6946999318080E-01  5.4368660347628E-01
100  9.9000000000000E-01  5.8801843254333E-02 -2.2224158543989E-01  4.9027320375052E-01
101  1.0000000000000E+00  5.1672283984038E-02 -1.8006648019360E-01  4.3850498607425E-01
102  1.0100000000000E+00  4.4637402262548E-02 -1.4275899880508E-01  3.8863155141154E-01
103  1.0200000000000E+00  3.7792241153963E-02 -1.1010307411665E-01  3.4089158023511E-01
104  1.0300000000000E+00  3.1232406030874E-02 -8.1876799640532E-02  2.9551219749139E-01
105  1.0400000000000E+00  2.5056781941304E-02 -5.7871840492237E-02  2.5270853416197E-01
106  1.0500000000000E+00  1.9368285843917E-02 -3.7905203465915E-02  2.1268354090824E-01
107  1.0600000000000E+00  1.4271943375833E-02 -2.1820585046099E-02  1.7562810959034E-01
108  1.0700000000000E+00  9.8694886395903E-03 -9.4762014977225E-03  1.4172155327629E-01
109  1.0800000000000E+00  6.2495997140108E-03 -7.1570766578214E-04  1.1113250284186E-01
110  1.0900000000000E+00  3.4725675986299E-03  4.6821749946709E-03  8.4020091052984E-02
111  1.1000000000000E+00  1.5455056638542E-03  7.0874358190145E-03  6.0532904020231E-02
112  1.1100000000000E+00  3.3486901125600E-04  7.2938589957434E-03  4.0754400352212E-02
113  1.1200000000000E+00 -2.8080820261751E-04  6.0423885075350E-03  2.4816852047382E-02
114  1.1300000000000E+00 -4.2506358088920E-04  3.9865569804810E-03  1.2825882023004E-02
115  1.1400000000000E+00 -2.7570549211503E-04  1.8309948290863E-03  4.8003932334008E-03
116  1.1500000000000E+00 -5.7300412324344E-05  3.0930595905039E-04  6.7847451222105E-04
117  1.1600000000000E+00  3.8364637075332E-06 -1.8656532426989E-05 -3.6282762539535E-05
118  1.1700000000000E+00  5.8287372780429E-09 -3.1916651170030E-08 -7.0817246855875E-08
119  1.18  0.  0.  0.
120  1.19  0.  0.  0.
121  1.20  0.  0.  0.
122  1.21  0.  0.  0.
123  1.22  0.  0.  0.
124  1.23  0.  0.  0.
125  1.24  0.  0.  0.
126  1.25  0.  0.  0.
127  1.26  0.  0.  0.
128  1.27  0.  0.  0.
129  1.28  0.  0.  0.
130  1.29  0.  0.  0.
131  1.30  0.  0.  0.
132  1.31  0.  0.  0.
133  1.32  0.  0.  0.
134  1.33  0.  0.  0.
135  1.34  0.  0.  0.
136  1.35  0.  0.  0.
137  1.36  0.  0.  0.
138  1.37  0.  0.  0.
139  1.38  0.  0.  0.
140  1.39  0.  0.  0.
141  1.40  0.  0.  0.
142  1.41  0.  0.  0.
143  1.42  0.  0.  0.
144  1.43  0.  0.  0.
145  1.44  0.  0.  0.
146  1.45  0.  0.  0.
147  1.46  0.  0.  0.
148  1.47  0.  0.  0.
149  1.48  0.  0.  0.
150  1.49  0.  0.  0.
151  1.50  0.  0.  0.
152  1.51  0.  0.  0.
153  1.52  0.  0.  0.
154  1.53  0.  0.  0.
155  1.54  0.  0.  0.
156  1.55  0.  0.  0.
157  1.56  0.  0.  0.
158  1.57  0.  0.  0.
159  1.58  0.  0.  0.
160  1.59  0.  0.  0.
161  1.60  0.  0.  0.
162  1.61  0.  0.  0.
163  1.62  0.  0.  0.
164  1.63  0.  0.  0.
165  1.64  0.  0.  0.
166  1.65  0.  0.  0.
167  1.66  0.  0.  0.
168  1.67  0.  0.  0.
169  1.68  0.  0.  0.
170  1.69  0.  0.  0.
171  1.70  0.  0.  0.
172  1.71  0.  0.  0.
173  1.72  0.  0.  0.
174  1.73  0.  0.  0.
175  1.74  0.  0.  0.
176  1.75  0.  0.  0.
177  1.76  0.  0.  0.
178  1.77  0.  0.  0.
179  1.78  0.  0.  0.
180  1.79  0.  0.  0.
181  1.80  0.  0.  0.
182  1.81  0.  0.  0.
183  1.82  0.  0.  0.
184  1.83  0.  0.  0.
185  1.84  0.  0.  0.
186  1.85  0.  0.  0.
187  1.86  0.  0.  0.
188  1.87  0.  0.  0.
189  1.88  0.  0.  0.
190  1.89  0.  0.  0.
191  1.90  0.  0.  0.
192  1.91  0.  0.  0.
193  1.92  0.  0.  0.
194  1.93  0.  0.  0.
195  1.94  0.  0.  0.
196  1.95  0.  0.  0.
197  1.96  0.  0.  0.
198  1.97  0.  0.  0.
199  1.98  0.  0.  0.
200  1.99  0.  0.  0.
201  2.00  0.  0.  0.
202  2.01  0.  0.  0.
203  2.02  0.  0.  0.
204  2.03  0.  0.  0.
205  2.04  0.  0.  0.
206  2.05  0.  0.  0.
207  2.06  0.  0.  0.
208  2.07  0.  0.  0.
209  2.08  0.  0.  0.
210  2.09  0.  0.  0.
211  2.10  0.  0.  0.
212  2.11  0.  0.  0.
213  2.12  0.  0.  0.
214  2.13  0.  0.  0.
215  2.14  0.  0.  0.
216  2.15  0.  0.  0.
217  2.16  0.  0.  0.
218  2.17  0.  0.  0.
219  2.18  0.  0.  0.
220  2.19  0.  0.  0.
221  2.20  0.  0.  0.
222  2.21  0.  0.  0.
223  2.22  0.  0.  0.
224  2.23  0.  0.  0.
225  2.24  0.  0.  0.
226  2.25  0.  0.  0.
227  2.26  0.  0.  0.
228  2.27  0.  0.  0.
229  2.28  0.  0.  0.
230  2.29  0.  0.  0.
231  2.30  0.  0.  0.
232  2.31  0.  0.  0.
233  2.32  0.  0.  0.
234  2.33  0.  0.  0.
235  2.34  0.  0.  0.
236  2.35  0.  0.  0.
237  2.36  0.  0.  0.
238  2.37  0.  0.  0.
239  2.38  0.  0.  0.
240  2.39  0.  0.  0.
241  2.40  0.  0.  0.
242  2.41  0.  0.  0.
243  2.42  0.  0.  0.
244  2.43  0.  0.  0.
245  2.44  0.  0.  0.
246  2.45  0.  0.  0.
247  2.46  0.  0.  0.
248  2.47  0.  0.  0.
249  2.48  0.  0.  0.
250  2.49  0.  0.  0.
251  2.50  0.  0.  0.
252  2.51  0.  0.  0.
253  2.52  0.  0.  0.
254  2.53  0.  0.  0.
255  2.54  0.  0.  0.
256  2.55  0.  0.  0.
257  2.56  0.  0.  0.
258  2.57  0.  0.  0.
259  2.58  0.  0.  0.
260  2.59  0.  0.  0.
261  2.60  0.  0.  0.
262  2.61  0.  0.  0.
263  2.62  0.  0.  0.
264  2.63  0.  0.  0.
265  2.64  0.  0.  0.
266  2.65  0.  0.  0.
267  2.66  0.  0.  0.
268  2.67  0.  0.  0.
269  2.68  0.  0.  0.
270  2.69  0.  0.  0.
271  2.70  0.  0.  0.
272  2.71  0.  0.  0.
273  2.72  0.  0.  0.
274  2.73  0.  0.  0.
275  2.74  0.  0.  0.
276  2.75  0.  0.  0.
277  2.76  0.  0.  0.
278  2.77  0.  0.  0.
279  2.78  0.  0.  0.
280  2.79  0.  0.  0.
281  2.80  0.  0.  0.
282  2.81  0.  0.  0.
283  2.82  0.  0.  0.
284  2.83  0.  0.  0.
285  2.84  0.  0.  0.
286  2.85  0.  0.  0.
287  2.86  0.  0.  0.
288  2.87  0.  0.  0.
289  2.88  0.  0.  0.
290  2.89  0.  0.  0.
291  2.90  0.  0.  0.
292  2.91  0.  0.  0.
293  2.92  0.  0.  0.
294  2.93  0.  0.  0.
295  2.94  0.  0.  0.
296  2.95  0.  0.  0.
297  2.96  0.  0.  0.
298  2.97  0.  0.  0.
299  2.98  0.  0.  0.
300  2.99  0.  0.  0.
301  3.00  0.  0.  0.
302  3.01  0.  0.  0.
303  3.02  0.  0.  0.
304  3.03  0.  0.  0.
305  3.04  0.  0.  0.
306  3.05  0.  0.  0.
307  3.06  0.  0.  0.
308  3.07  0.  0.  0.
309  3.08  0.  0.  0.
310  3.09  0.  0.  0.
311  3.10  0.  0.  0.
312  3.11  0.  0.  0.
313  3.12  0.  0.  0.
314  3.13  0.  0.  0.
315  3.14  0.  0.  0.
316  3.15  0.  0.  0.
317  3.16  0.  0.  0.
318  3.17  0.  0.  0.
319  3.18  0.  0.  0.
320  3.19  0.  0.  0.
321  3.20  0.  0.  0.
322  3.21  0.  0.  0.
323  3.22  0.  0.  0.
324  3.23  0.  0.  0.
325  3.24  0.  0.  0.
326  3.25  0.  0.  0.
327  3.26  0.  0.  0.
328  3.27  0.  0.  0.
329  3.28  0.  0.  0.
330  3.29  0.  0.  0.
331  3.30  0.  0.  0.
332  3.31  0.  0.  0.
333  3.32  0.  0.  0.
334  3.33  0.  0.  0.
335  3.34  0.  0.  0.
336  3.35  0.  0.  0.
337  3.36  0.  0.  0.
338  3.37  0.  0.  0.
339  3.38  0.  0.  0.
340  3.39  0.  0.  0.
341  3.40  0.  0.  0.
342  3.41  0.  0.  0.
343  3.42  0.  0.  0.
344  3.43  0.  0.  0.
345  3.44  0.  0.  0.
346  3.45  0.  0.  0.
347  3.46  0.  0.  0.
348  3.47  0.  0.  0.
349  3.48  0.  0.  0.
350  3.49  0.  0.  0.
351  3.50  0.  0.  0.
352  3.51  0.  0.  0.
353  3.52  0.  0.  0.
354  3.53  0.  0.  0.
355  3.54  0.  0.  0.
356  3.55  0.  0.  0.
357  3.56  0.  0.  0.
358  3.57  0.  0.  0.
359  3.58  0.  0.  0.
360  3.59  0.  0.  0.
361  3.60  0.  0.  0.
362  3.61  0.  0.  0.
363  3.62  0.  0.  0.
364  3.63  0.  0.  0.
365  3.64  0.  0.  0.
366  3.65  0.  0.  0.
367  3.66  0.  0.  0.
368  3.67  0.  0.  0.
369  3.68  0.  0.  0.
370  3.69  0.  0.  0.
371  3.70  0.  0.  0.
372  3.71  0.  0.  0.
373  3.72  0.  0.  0.
374  3.73  0.  0.  0.
375  3.74  0.  0.  0.
376  3.75  0.  0.  0.
377  3.76  0.  0.  0.
378  3.77  0.  0.  0.
379  3.78  0.  0.  0.
380  3.79  0.  0.  0.
381  3.80  0.  0.  0.
382  3.81  0.  0.  0.
383  3.82  0.  0.  0.
384  3.83  0.  0.  0.
385  3.84  0.  0.  0.
386  3.85  0.  0.  0.
387  3.86  0.  0.  0.
388  3.87  0.  0.  0.
389  3.88  0.  0.  0.
390  3.89  0.  0.  0.
391  3.90  0.  0.  0.
392  3.91  0.  0.  0.
393  3.92  0.  0.  0.
394  3.93  0.  0.  0.
395  3.94  0.  0.  0.
396  3.95  0.  0.  0.
397  3.96  0.  0.  0.
398  3.97  0.  0.  0.
399  3.98  0.  0.  0.
400  3.99  0.  0.  0.
401  4.00  0.  0.  0.
402  4.01  0.  0.  0.
403  4.02  0.  0.  0.
404  4.03  0.  0.  0.
405  4.04  0.  0.  0.
406  4.05  0.  0.  0.
407  4.06  0.  0.  0.
408  4.07  0.  0.  0.
409  4.08  0.  0.  0.
410  4.09  0.  0.  0.
411  4.10  0.  0.  0.
412  4.11  0.  0.  0.
413  4.12  0.  0.  0.
414  4.13  0.  0.  0.
415  4.14  0.  0.  0.
416  4.15  0.  0.  0.
417  4.16  0.  0.  0.
418  4.17  0.  0.  0.
419  4.18  0.  0.  0.
420  4.19  0.  0.  0.
421  4.20  0.  0.  0.
422  4.21  0.  0.  0.
423  4.22  0.  0.  0.
424  4.23  0.  0.  0.
425  4.24  0.  0.  0.
426  4.25  0.  0.  0.
427  4.26  0.  0.  0.
428  4.27  0.  0.  0.
429  4.28  0.  0.  0.
430  4.29  0.  0.  0.
431  4.30  0.  0.  0.
432  4.31  0.  0.  0.
433  4.32  0.  0.  0.
434  4.33  0.  0.  0.
435  4.34  0.  0.  0.
436  4.35  0.  0.  0.
437  4.36  0.  0.  0.
438  4.37  0.  0.  0.
439  4.38  0.  0.  0.
440  4.39  0.  0.  0.
441  4.40  0.  0.  0.
442  4.41  0.  0.  0.
443  4.42  0.  0.  0.
444  4.43  0.  0.  0.
445  4.44  0.  0.  0.
446  4.45  0.  0.  0.
447  4.46  0.  0.  0.
448  4.47  0.  0.  0.
449  4.48  0.  0.  0.
450  4.49  0.  0.  0.
451  4.50  0.  0.  0.
452  4.51  0.  0.  0.
453  4.52  0.  0.  0.
454  4.53  0.  0.  0.
455  4.54  0.  0.  0.
456  4.55  0.  0.  0.
457  4.56  0.  0.  0.
458  4.57  0.  0.  0.
459  4.58  0.  0.  0.
460  4.59  0.  0.  0.
461  4.60  0.  0.  0.
462  4.61  0.  0.  0.
463  4.62  0.  0.  0.
464  4.63  0.  0.  0.
465  4.64  0.  0.  0.
466  4.65  0.  0.  0.
467  4.66  0.  0.  0.
468  4.67  0.  0.  0.
469  4.68  0.  0.  0.
470  4.69  0.  0.  0.
471  4.70  0.  0.  0.
472  4.71  0.  0.  0.
473  4.72  0.  0.  0.
474  4.73  0.  0.  0.
475  4.74  0.  0.  0.
476  4.75  0.  0.  0.
477  4.76  0.  0.  0.
478  4.77  0.  0.  0.
479  4.78  0.  0.  0.
480  4.79  0.  0.  0.
481  4.80  0.  0.  0.
482  4.81  0.  0.  0.
483  4.82  0.  0.  0.
484  4.83  0.  0.  0.
485  4.84  0.  0.  0.
486  4.85  0.  0.  0.
487  4.86  0.  0.  0.
488  4.87  0.  0.  0.
489  4.88  0.  0.  0.
490  4.89  0.  0.  0.
491  4.90  0.  0.  0.
492  4.91  0.  0.  0.
493  4.92  0.  0.  0.
494  4.93  0.  0.  0.
495  4.94  0.  0.  0.
496  4.95  0.  0.  0.
497  4.96  0.  0.  0.
498  4.97  0.  0.  0.
499  4.98  0.  0.  0.
500  4.99  0.  0.  0.
501  5.00  0.  0.  0.
502  5.01  0.  0.  0.
503  5.02  0.  0.  0.
504  5.03  0.  0.  0.
505  5.04  0.  0.  0.
506  5.05  0.  0.  0.
507  5.06  0.  0.  0.
508  5.07  0.  0.  0.
509  5.08  0.  0.  0.
510  5.09  0.  0.  0.
511  5.10  0.  0.  0.
512  5.11  0.  0.  0.
513  5.12  0.  0.  0.
514  5.13  0.  0.  0.
515  5.14  0.  0.  0.
516  5.15  0.  0.  0.
517  5.16  0.  0.  0.
518  5.17  0.  0.  0.
519  5.18  0.  0.  0.
520  5.19  0.  0.  0.
521  5.20  0.  0.  0.
522  5.21  0.  0.  0.
523  5.22  0.  0.  0.
524  5.23  0.  0.  0.
525  5.24  0.  0.  0.
526  5.25  0.  0.  0.
527  5.26  0.  0.  0.
528  5.27  0.  0.  0.
529  5.28  0.  0.  0.
530  5.29  0.  0.  0.
531  5.30  0.  0.  0.
532  5.31  0.  0.  0.
533  5.32  0.  0.  0.
534  5.33  0.  0.  0.
535  5.34  0.  0.  0.
536  5.35  0.  0.  0.
537  5.36  0.  0.  0.
538  5.37  0.  0.  0.
539  5.38  0.  0.  0.
540  5.39  0.  0.  0.
541  5.40  0.  0.  0.
542  5.41  0.  0.  0.
543  5.42  0.  0.  0.
544  5.43  0.  0.  0.
545  5.44  0.  0.  0.
546  5.45  0.  0.  0.
547  5.46  0.  0.  0.
548  5.47  0.  0.  0.
549  5.48  0.  0.  0.
550  5.49  0.  0.  0.
551  5.50  0.  0.  0.
552  5.51  0.  0.  0.
553  5.52  0.  0.  0.
554  5.53  0.  0.  0.
555  5.54  0.  0.  0.
556  5.55  0.  0.  0.
557  5.56  0.  0.  0.
558  5.57  0.  0.  0.
559  5.58  0.  0.  0.
560  5.59  0.  0.  0.
561  5.60  0.  0.  0.
562  5.61  0.  0.  0.
563  5.62  0.  0.  0.
564  5.63  0.  0.  0.
565  5.64  0.  0.  0.
566  5.65  0.  0.  0.
567  5.66  0.  0.  0.
568  5.67  0.  0.  0.
569  5.68  0.  0.  0.
570  5.69  0.  0.  0.
571  5.70  0.  0.  0.
572  5.71  0.  0.  0.
573  5.72  0.  0.  0.
574  5.73  0.  0.  0.
575  5.74  0.  0.  0.
576  5.75  0.  0.  0.
577  5.76  0.  0.  0.
578  5.77  0.  0.  0.
579  5.78  0.  0.  0.
580  5.79  0.  0.  0.
581  5.80  0.  0.  0.
582  5.81  0.  0.  0.
583  5.82  0.  0.  0.
584  5.83  0.  0.  0.
585  5.84  0.  0.  0.
586  5.85  0.  0.  0.
587  5.86  0.  0.  0.
588  5.87  0.  0.  0.
589  5.88  0.  0.  0.
590  5.89  0.  0.  0.
591  5.90  0.  0.  0.
592  5.91  0.  0.  0.
593  5.92  0.  0.  0.
594  5.93  0.  0.  0.
595  5.94  0.  0.  0.
596  5.95  0.  0.  0.
597  5.96  0.  0.  0.
598  5.97  0.  0.  0.
599  5.98  0.  0.  0.
600  5.99  0.  0.  0.
1                         7.6594440013433E+00 -1.6207532202656E+00  9.7382438022066E-02
1  0.0000000000000E+00 -8.5688127704486E-09 -1.2300127482517E-08 -6.8060186375618E-09
2  1.0000000000000E-02  4.6673374281257E-03  4.0597486929727E-04 -4.6396871967845E-03
3  2.0000000000000E-02  1.8629021712060E-02  1.6298950421323E-03 -1.8482125173144E-02
4  3.0000000000000E-02  4.1764227077617E-02  3.6895178049976E-03 -4.1298299054146E-02
5  4.0000000000000E-02  7.3872112068476E-02  6.6136826085171E-03 -7.2709371117531E-02
6  5.0000000000000E-02  1.1467264732157E-01  1.0441207033338E-02 -1.1219096266961E-01
7  6.0000000000000E-02  1.6380782403843E-01  1.5219399980043E-02 -1.5907914936023E-01
8  7.0000000000000E-02  2.2084328938419E-01  2.1002248223736E-02 -2.1257816639649E-01
9  8.0000000000000E-02  2.8527046361470E-01  2.7848344774075E-02 -2.7176981330881E-01
10  9.0000000000000E-02  3.5650919907939E-01  3.5818637168715E-02 -3.3562453719354E-01
11  1.0000000000000E-01  4.3391104293277E-01  4.4974080527954E-02 -4.0301415828107E-01
12  1.1000000000000E-01  5.1676316311986E-01  5.5373283645985E-02 -4.7272618207050E-01
13  1.2000000000000E-01  6.0429299085166E-01  6.7070236448620E-02 -5.4347961821004E-01
14  1.3000000000000E-01  6.9567362239807E-01  8.0112203793041E-02 -6.1394219812233E-01
15  1.4000000000000E-01  7.9003000880883E-01  9.4537863936635E-02 -6.8274885168504E-01
16  1.5000000000000E-01  8.8644594450625E-01  1.1037576029777E-01 -7.4852126892537E-01
17  1.6000000000000E-01  9.8397184510818E-01  1.2764312272738E-01 -8.0988833675152E-01
18  1.7000000000000E-01  1.0816332820011E+00  1.4634509986646E-01 -8.6550720448357E-01
19  1.8000000000000E-01  1.1784402168741E+00  1.6647442782902E-01 -9.1408469676061E-01
20  1.9000000000000E-01  1.2733968545055E+00  1.8801154303838E-01 -9.5439875978861E-01
21  2.0000000000000E-01  1.3655120074928E+00  2.1092512921947E-01 -9.8531959837063E-01
22  2.1000000000000E-01  1.4538098432600E+00  2.3517307099359E-01 -1.0058301382299E+00
23  2.2000000000000E-01  1.5373408625081E+00  2.6070376991429E-01 -1.0150454321946E+00
24  2.3000000000000E-01  1.6151929401557E+00  2.8745776377488E-01 -1.0122306211179E+00
25  2.4000000000000E-01  1.6865022455549E+00  3.1536957720474E-01 -9.9681706199551E-01
26  2.5000000000000E-01  1.7504638490341E+00  3.4436972147386E-01 -9.6841624739940E-01
27  2.6000000000000E-01  1.8063418171653E+00  3.7438675446612E-01 -9.2683116255225E-01
28  2.7000000000000E-01  1.8534785999459E+00  4.0534930827081E-01 -8.7206475924984E-01
29  2.8000000000000E-01  1.8913035195278E+00  4.3718799196183E-01 -8.0432526919602E-01
30  2.9000000000000E-01  1.9193401822168E+00  4.6983708093314E-01 -7.2402813254271E-01
31  3.0000000000000E-01  1.9372126530213E+00  5.0323591154589E-01 -6.3179437958034E-01
32  3.1000000000000E-01  1.9446502546542E+00  5.3732991059049E-01 -5.2844537329726E-01
33  3.2000000000000E-01  1.9414908800289E+00  5.7207120281729E-01 -4.1499389629982E-01
34  3.3000000000000E-01  1.9276827382024E+00  6.0741875606534E-01 -2.9263164546350E-01
35  3.4000000000000E-01  1.9032844875244E+00  6.4333804174065E-01 -1.6271327955601E-01
36  3.5000000000000E-01  1.8684637454662E+00  6.7980020790112E-01 -2.6737246663329E-02
37  3.6000000000000E-01  1.8234940011533E+00  7.1678078227319E-01  1.1367630279685E-01
38  3.7000000000000E-01  1.7687499928844E+00  7.5425794239992E-01  2.5681013773593E-01
39  3.8000000000000E-01  1.7047016477743E+00  7.9221040904244E-01  4.0087665632943E-01
40  3.9000000000000E-01  1.6319067130108E+00  8.3061503618753E-01  5.4404618060114E-01
41  4.0000000000000E-01  1.5510022370472E+00  8.6944418586650E-01  6.8447628615545E-01
42  4.1000000000000E-01  1.4626950834504E+00  9.0866298785466E-01  8.2034158465048E-01
43  4.2000000000000E-01  1.3677516793332E+00  9.4822659268608E-01  9.4986335792998E-01
44  4.3000000000000E-01  1.2669872136989E+00  9.8807753089785E-01  1.0713384391345E+00
45  4.4000000000000E-01  1.1612545082370E+00  1.0281432917613E+00  1.1831667480008E+00
46  4.5000000000000E-01  1.0514327839188E+00  1.0683342308641E+00  1.2838769148609E+00
47  4.6000000000000E-01  9.3841654118796E-01  1.1085419078335E+00  1.3721494700228E+00
48  4.7000000000000E-01  8.2310475985361E-01  1.1486379434476E+00  1.4468371312391E+00
49  4.8000000000000E-01  7.0639060744701E-01  1.1884734697323E+00  1.5069817903846E+00
50  4.9000000000000E-01  5.8915182242683E-01  1.2278792278932E+00  1.5518278794028E+00
51  5.0000000000000E-01  4.7224191205903E-01  1.2666663477020E+00  1.5808318828345E+00
52  5.1000000000000E-01  3.5648227501317E-01  1.3046278189912E+00  1.5936678573119E+00
53  5.2000000000000E-01  2.4265532679535E-01  1.3415406420001E+00  1.5902289145990E+00
54  5.3000000000000E-01  1.3149867322864E-01  1.3771686193254E+00  1.5706247212704E+00
55  5.4000000000000E-01  2.3700344475394E-02  1.4112657290335E+00  1.5351751621282E+00
56  5.5000000000000E-01 -8.0104929263957E-02  1.4435799969379E+00  1.4844004031916E+00
57  5.6000000000000E-01 -1.7933844813833E-01  1.4738577669607E+00  1.4190076709893E+00
58  5.7000000000000E-01 -2.7347935231490E-01  1.5018482526009E+00  1.3398751355823E+00
59  5.8000000000000E-01 -3.6206560522790E-01  1.5273082404573E+00  1.2480333432706E+00
60  5.9000000000000E-01 -4.4469426078943E-01  1.5500068090026E+00  1.1446446896819E+00
61  6.0000000000000E-01 -5.2102113551983E-01  1.5697299227043E+00  1.0309814537653E+00
62  6.1000000000000E-01 -5.9076001135128E-01  1.5862847633361E+00  9.0840292749468E-01
63  6.2000000000000E-01 -6.5368149383953E-01  1.5995036669036E+00  7.7833217468360E-01
64  6.3000000000000E-01 -7.0961164387944E-01  1.6092475458522E+00  6.4223293565125E-01
65  6.4000000000000E-01 -7.5843048918724E-01  1.6154086917832E+00  5.0158716344505E-01
66  6.5000000000000E-01 -8.0007050542002E-01  1.6179128732518E+00  3.5787363332558E-01
67  6.6000000000000E-01 -8.3451513667808E-01  1.6167206657094E+00  2.1254801203543E-01
68  6.7000000000000E-01 -8.6179740225772E-01  1.6118279754863E+00  6.7024709186508E-02
69  6.8000000000000E-01 -8.8199861199100E-01  1.6032657460155E+00 -7.7339237670430E-02
70  6.9000000000000E-01 -8.9524718749815E-01  1.5910988613300E+00 -2.1925806745514E-01
71  7.0000000000000E-01 -9.0171756238928E-01  1.5754242882472E+00 -3.5752888858165E-01
72  7.1000000000000E-01 -9.0162911206472E-01  1.5563685236210E+00 -4.9104093425518E-01
73  7.2000000000000E-01 -8.9524504438829E-01  1.5340844356787E+00 -6.1878252419607E-01
74  7.3000000000000E-01 -8.8287116713915E-01  1.5087476079100E+00 -7.3984584102243E-01
75  7.4000000000000E-01 -8.6485443762051E-01  1.4805523095208E+00 -8.5342968511652E-01
76  7.5000000000000E-01 -8.4158119475794E-01  1.4497072275091E+00 -9.5884041718270E-01
77  7.6000000000000E-01 -8.1347497486879E-01  1.4164311015314E+00 -1.0554913316133E+00
78  7.7000000000000E-01 -7.8099381919619E-01  1.3809484036797E+00 -1.1429007254056E+00
79  7.8000000000000E-01 -7.4462699418362E-01  1.3434852010069E+00 -1.2206889364302E+00
80  7.9000000000000E-01 -7.0489106396792E-01  1.3042653292945E+00 -1.2885746215580E+00
81  8.0000000000000E-01 -6.6232527808466E-01  1.2635069924740E+00 -1.3463705302303E+00
82  8.1000000000000E-01 -6.1748626507365E-01  1.2214198838303E+00 -1.3939790036929E+00
83  8.2000000000000E-01 -5.7094205349669E-01  1.1782029033171E+00 -1.4313873959234E+00
84  8.3000000000000E-01 -5.2326547462097E-01  1.1340425208405E+00 -1.4586635712128E+00
85  8.4000000000000E-01 -4.7502703433628E-01  1.0891118091603E+00 -1.4759515876631E+00
86  8.5000000000000E-01 -4.2678737434056E-01  1.0435701431501E+00 -1.4834676279340E+00
87  8.6000000000000E-01 -3.7908947279608E-01  9.9756353561394E-01 -1.4814961909278E+00
88  8.7000000000000E-01 -3.3245076110646E-01  9.5122555475445E-01 -1.4703865132165E+00
89  8.8000000000000E-01 -2.8735535484771E-01  9.0467874576308E-01 -1.4505491492648E+00
90  8.9000000000000E-01 -2.4424661199235E-01  8.5803645982627E-01 -1.4224526070488E+00
91  9.0000000000000E-01 -2.0352023935775E-01  8.1140497897295E-01 -1.3866199123725E+00
92  9.1000000000000E-01 -1.6551816786738E-01  7.6488581535342E-01 -1.3436249625384E+00
93  9.2000000000000E-01 -1.3052340816693E-01  7.1857805929860E-01 -1.2940885290909E+00
94  9.3000000000000E-01 -9.8756080084150E-02  6.7258065224322E-01 -1.2386737807057E+00
95  9.4000000000000E-01 -7.0370782361297E-02  6.2699446848586E-01 -1.1780812210165E+00
96  9.5000000000000E-01 -4.5455433281528E-02  5.8192410379414E-01 -1.1130429718225E+00
97  9.6000000000000E-01 -2.4031668841272E-02  5.3747928881851E-01 -1.0443163787595E+00
98  9.7000000000000E-01 -6.0568338031843E-03  4.9377587075085E-01 -9.7267697273599E-01
99  9.8000000000000E-01  8.5724566202584E-03  4.5093633706782E-01 -8.9891088439148E-01