Lr    ONCVPSP-4.0.1  r_core=   1.10451   1.15174   1.15174   1.20099
103.0000     43.0000      231012    zatom,zion,pspd
8 -116133   3     4   600     0    pspcod,pspxc,lmax,lloc,mmax,r2well
5.99000000  4.12600000  0.00000000    rchrg fchrg qchrg
3     3     2     2    nproj
3     1           extension_switch
4     4     3    nprojso
0                         1.2531303788243E+01 -7.5560084615434E+00 -1.9390774940281E+00
1  0.0000000000000E+00  1.0268167272010E-07  1.8231238185784E-08 -1.2260145967335E-06
2  1.0000000000000E-02  1.5153578626592E-01  4.0340967934204E-02  2.1206676889841E-01
3  2.0000000000000E-02  3.0231014674268E-01  8.0801026598165E-02  4.1783839891955E-01
4  3.0000000000000E-02  4.5155404002935E-01  1.2149511379041E-01  6.1124145138440E-01
5  4.0000000000000E-02  5.9848382383625E-01  1.6252999641565E-01  7.8663736373342E-01
6  5.0000000000000E-02  7.4229550179032E-01  2.0400051741132E-01  9.3901891726851E-01
7  6.0000000000000E-02  8.8216074809289E-01  2.4598622758889E-01  1.0641824796677E+00
8  7.0000000000000E-02  1.0172251747737E+00  2.8854850806693E-01  1.1588694713559E+00
9  8.0000000000000E-02  1.1466092036034E+00  3.3172827074201E-01  1.2208717308294E+00
10  9.0000000000000E-02  1.2694117846905E+00  3.7554430285241E-01  1.2490968899979E+00
11  1.0000000000000E-01  1.3847170714268E+00  4.1999229798696E-01  1.2435914581233E+00
12  1.1000000000000E-01  1.4916040223149E+00  4.6504459081073E-01  1.2055209875351E+00
13  1.2000000000000E-01  1.5891587601525E+00  5.1065058730926E-01  1.1371083881705E+00
14  1.3000000000000E-01  1.6764893839620E+00  5.5673785748865E-01  1.0415331026805E+00
15  1.4000000000000E-01  1.7527428046368E+00  6.0321383417724E-01  9.2279538320465E-01
16  1.5000000000000E-01  1.8171230668129E+00  6.4996804075411E-01  7.8555126368657E-01
17  1.6000000000000E-01  1.8689105315853E+00  6.9687475307175E-01  6.3492494399131E-01
18  1.7000000000000E-01  1.9074812311834E+00  7.4379598720185E-01  4.7630614992138E-01
19  1.8000000000000E-01  1.9323256703975E+00  7.9058469540863E-01  3.1514057369396E-01
20  1.9000000000000E-01  1.9430663421207E+00  8.3708804825513E-01  1.5672171243269E-01
21  2.0000000000000E-01  1.9394732463743E+00  8.8315068109670E-01  5.9923010134295E-03
22  2.1000000000000E-01  1.9214767529594E+00  9.2861778833662E-01 -1.3263691288824E-01
23  2.2000000000000E-01  1.8891772256136E+00  9.7333795844571E-01 -2.5544405933257E-01
24  2.3000000000000E-01  1.8428509273411E+00  1.0171656564369E+00 -3.5952274030139E-01
25  2.4000000000000E-01  1.7829518485558E+00  1.0599632776338E+00 -4.4287362713702E-01
26  2.5000000000000E-01  1.7101092371657E+00  1.1016027164430E+00 -5.0445780119084E-01
27  2.6000000000000E-01  1.6251207574155E+00  1.1419664155980E+00 -5.4421013748457E-01
28  2.7000000000000E-01  1.5289413565204E+00  1.1809478840796E+00 -5.6301264690194E-01
29  2.8000000000000E-01  1.4226680689736E+00  1.2184516947088E+00 -5.6262929857322E-01
30  2.9000000000000E-01  1.3075211320959E+00  1.2543929943172E+00 -5.4560537627061E-01
31  3.0000000000000E-01  1.1848219173882E+00  1.2886965795644E+00 -5.1513581987056E-01
32  3.1000000000000E-01  1.0559682955390E+00  1.3212956090803E+00 -4.7490821038584E-01
33  3.2000000000000E-01  9.2240814422146E-01  1.3521300369910E+00 -4.2892702797159E-01
34  3.3000000000000E-01  7.8561177364257E-01  1.3811448634890E+00 -3.8132650991889E-01
35  3.4000000000000E-01  6.4704408274565E-01  1.4082883045485E+00 -3.3617983456395E-01
36  3.5000000000000E-01  5.0813726765861E-01  1.4335099849516E+00 -2.9731244412005E-01
37  3.6000000000000E-01  3.7026488320174E-01  1.4567592564523E+00 -2.6812709419596E-01
38  3.7000000000000E-01  2.3471800892638E-01  1.4779837362974E+00 -2.5144769221870E-01
39  3.8000000000000E-01  1.0268419524445E-01  1.4971281507774E+00 -2.4938818505875E-01
40  3.9000000000000E-01 -2.4770234284294E-02  1.5141335544499E+00 -2.6325171253181E-01
41  4.0000000000000E-01 -1.4671406765195E-01  1.5289369787798E+00 -2.9346400204741E-01
42  4.1000000000000E-01 -2.6236095358804E-01  1.5414715448834E+00 -3.3954359177821E-01
43  4.2000000000000E-01 -3.7107483712465E-01  1.5516670546310E+00 -4.0010999178960E-01
44  4.3000000000000E-01 -4.7237105243680E-01  1.5594510534026E+00 -4.7292938394895E-01
45  4.4000000000000E-01 -5.6591319192001E-01  1.5647503371375E+00 -5.5499598191399E-01
46  4.5000000000000E-01 -6.5150601215109E-01  1.5674928568011E+00 -6.4264577993286E-01
47  4.6000000000000E-01 -7.2908476754278E-01  1.5676099557809E+00 -7.3169816720654E-01
48  4.7000000000000E-01 -7.9870147650685E-01  1.5650388606921E+00 -8.1761982053271E-01
49  4.8000000000000E-01 -8.6050871881263E-01  1.5597253342070E+00 -8.9570445114783E-01
50  4.9000000000000E-01 -9.1474163340543E-01  1.5516263902496E+00 -9.6126140192143E-01
51  5.0000000000000E-01 -9.6169883098563E-01  1.5407129675230E+00 -1.0098057876172E+00
52  5.1000000000000E-01 -1.0017229538863E+00  1.5269724569892E+00 -1.0372428520144E+00
53  5.2000000000000E-01 -1.0351816069843E+00  1.5104109825899E+00 -1.0400394782555E+00
54  5.3000000000000E-01 -1.0624493483075E+00  1.4910553419953E+00 -1.0153763188984E+00
55  5.4000000000000E-01 -1.0838913683994E+00  1.4689545251859E+00 -9.6127478573063E-01
56  5.5000000000000E-01 -1.0998494059785E+00  1.4441807427504E+00 -8.7669412329812E-01
57  5.6000000000000E-01 -1.1106303473880E+00  1.4168299123602E+00 -7.6159494365466E-01
58  5.7000000000000E-01 -1.1164978427688E+00  1.3870215703153E+00 -6.1696687652838E-01
59  5.8000000000000E-01 -1.1176671472961E+00  1.3548981946307E+00 -4.4481933854012E-01
60  5.9000000000000E-01 -1.1143032659689E+00  1.3206239461149E+00 -2.4813579504650E-01
61  6.0000000000000E-01 -1.1065223502050E+00  1.2843828535351E+00 -3.0793226567157E-02
62  6.1000000000000E-01 -1.0943961686804E+00  1.2463764875598E+00  2.0255023121692E-01
63  6.2000000000000E-01 -1.0779593580150E+00  1.2068211850433E+00  4.4659537496272E-01
64  6.3000000000000E-01 -1.0572190551753E+00  1.1659448998005E+00  6.9556468683122E-01
65  6.4000000000000E-01 -1.0321664264311E+00  1.1239837678063E+00  9.4338192840915E-01
66  6.5000000000000E-01 -1.0027895402633E+00  1.0811784833876E+00  1.1838622117628E+00
67  6.6000000000000E-01 -9.6908698590827E-01  1.0377705881850E+00  1.4109058851895E+00
68  6.7000000000000E-01 -9.3108161655159E-01  9.9399877635467E-01  1.6186895185006E+00
69  6.8000000000000E-01 -8.8883379698948E-01  9.5009531763803E-01  1.8018474628825E+00
70  6.9000000000000E-01 -8.4245355945800E-01  9.0628269472476E-01  1.9556378813360E+00
71  7.0000000000000E-01 -7.9211111705413E-01  8.6277054299977E-01  2.0760877770630E+00
72  7.1000000000000E-01 -7.3804524974998E-01  8.1975296968846E-01  2.1601123611291E+00
73  7.2000000000000E-01 -6.8056916078207E-01  7.7740631603509E-01  2.2056050637462E+00
74  7.3000000000000E-01 -6.2007349795728E-01  7.3588741099847E-01  2.2114955671731E+00
75  7.4000000000000E-01 -5.5702634151253E-01  6.9533234859617E-01  2.1777743813317E+00
76  7.5000000000000E-01 -4.9197007366463E-01  6.5585580407058E-01  2.1054836532269E+00
77  7.6000000000000E-01 -4.2551516079072E-01  6.1755088708655E-01  1.9966750556747E+00
78  7.7000000000000E-01 -3.5833099321126E-01  5.8048951378206E-01  1.8543366992878E+00
79  7.8000000000000E-01 -2.9113403586436E-01  5.4472326421713E-01  1.6822920169633E+00
80  7.9000000000000E-01 -2.2467364207523E-01  5.1028467808729E-01  1.4850744494346E+00
81  8.0000000000000E-01 -1.5971596887003E-01  4.7718892989282E-01  1.2677824868195E+00
82  8.1000000000000E-01 -9.7026503060495E-02  4.4543581540686E-01  1.0359201736367E+00
83  8.2000000000000E-01 -3.7351760417992E-02  4.1501197449747E-01  7.9522854956595E-01
84  8.3000000000000E-01  1.8599245924212E-02  3.8589327126163E-01  5.5151366840482E-01
85  8.4000000000000E-01  7.0173158081918E-02  3.5804725106180E-01  3.1047681331427E-01
86  8.5000000000000E-01  1.1678944411114E-01  3.3143559535883E-01  7.7552314386515E-02
87  8.6000000000000E-01  1.5795601070667E-01  3.0601649906510E-01 -1.4224201231488E-01
88  8.7000000000000E-01  1.9328272768475E-01  2.8174690127475E-01 -3.4443732848701E-01
89  8.8000000000000E-01  2.2249239724539E-01  2.5858450837669E-01 -5.2522534152577E-01
90  8.9000000000000E-01  2.4542877947032E-01  2.3648955837974E-01 -6.8154596296364E-01
91  9.0000000000000E-01  2.6206137666242E-01  2.1542628639977E-01 -8.1114890777761E-01
92  9.1000000000000E-01  2.7248678007934E-01  1.9536406327580E-01 -9.1262799857246E-01
93  9.2000000000000E-01  2.7692649025343E-01  1.7627819179000E-01 -9.8542787221838E-01
94  9.3000000000000E-01  2.7572123315332E-01  1.5815035756381E-01 -1.0298237110975E+00
95  9.4000000000000E-01  2.6932190565784E-01  1.4096874400904E-01 -1.0468755098323E+00
96  9.5000000000000E-01  2.5827739195778E-01  1.2472783238092E-01 -1.0383592168240E+00
97  9.6000000000000E-01  2.4321959452288E-01  1.0942791870050E-01 -1.0066778370829E+00
98  9.7000000000000E-01  2.2484611631518E-01  9.5074388822167E-02 -9.5475623100254E-01
99  9.8000000000000E-01  2.0390111253856E-01  8.1676801015540E-02 -8.8592387985279E-01
100  9.9000000000000E-01  1.8115489817054E-01  6.9247831945035E-02 -8.0379030287605E-01
101  1.0000000000000E+00  1.5738295013191E-01  5.7802146769350E-02 -7.1211809781348E-01
102  1.0100000000000E+00  1.3334497890322E-01  4.7355257195300E-02 -6.1469873472842E-01
103  1.0200000000000E+00  1.0976476289071E-01  3.7922432706914E-02 -5.1523626392374E-01
104  1.0300000000000E+00  8.7311436311781E-02  2.9517731074476E-02 -4.1724389978426E-01
105  1.0400000000000E+00  6.6582932988932E-02  2.2153201711636E-02 -3.2395922510081E-01
106  1.0500000000000E+00  4.8092391280584E-02  1.5838268859950E-02 -2.3828887173055E-01
107  1.0600000000000E+00  3.2269547735382E-02  1.0574660522086E-02 -1.6314482120262E-01
108  1.0700000000000E+00  1.9430366554996E-02  6.3647754298980E-03 -1.0058854331178E-01
109  1.0800000000000E+00  9.7741713180062E-03  3.2144220416363E-03 -5.2002221771416E-02
110  1.0900000000000E+00  3.4032287851425E-03  1.1283315394666E-03 -1.8681180190540E-02
111  1.1000000000000E+00  3.4737143517645E-04  1.1660096800788E-04 -1.9765656593120E-03
112  1.1100000000000E+00 -1.2401869748487E-05 -4.1948847851829E-06  7.2290289369237E-05
113  1.1200000000000E+00 -1.6563927665422E-06 -5.5379251467416E-07  9.3502505871203E-06
114  1.13  0.  0.  0.
115  1.14  0.  0.  0.
116  1.15  0.  0.  0.
117  1.16  0.  0.  0.
118  1.17  0.  0.  0.
119  1.18  0.  0.  0.
120  1.19  0.  0.  0.
121  1.20  0.  0.  0.
122  1.21  0.  0.  0.
123  1.22  0.  0.  0.
124  1.23  0.  0.  0.
125  1.24  0.  0.  0.
126  1.25  0.  0.  0.
127  1.26  0.  0.  0.
128  1.27  0.  0.  0.
129  1.28  0.  0.  0.
130  1.29  0.  0.  0.
131  1.30  0.  0.  0.
132  1.31  0.  0.  0.
133  1.32  0.  0.  0.
134  1.33  0.  0.  0.
135  1.34  0.  0.  0.
136  1.35  0.  0.  0.
137  1.36  0.  0.  0.
138  1.37  0.  0.  0.
139  1.38  0.  0.  0.
140  1.39  0.  0.  0.
141  1.40  0.  0.  0.
142  1.41  0.  0.  0.
143  1.42  0.  0.  0.
144  1.43  0.  0.  0.
145  1.44  0.  0.  0.
146  1.45  0.  0.  0.
147  1.46  0.  0.  0.
148  1.47  0.  0.  0.
149  1.48  0.  0.  0.
150  1.49  0.  0.  0.
151  1.50  0.  0.  0.
152  1.51  0.  0.  0.
153  1.52  0.  0.  0.
154  1.53  0.  0.  0.
155  1.54  0.  0.  0.
156  1.55  0.  0.  0.
157  1.56  0.  0.  0.
158  1.57  0.  0.  0.
159  1.58  0.  0.  0.
160  1.59  0.  0.  0.
161  1.60  0.  0.  0.
162  1.61  0.  0.  0.
163  1.62  0.  0.  0.
164  1.63  0.  0.  0.
165  1.64  0.  0.  0.
166  1.65  0.  0.  0.
167  1.66  0.  0.  0.
168  1.67  0.  0.  0.
169  1.68  0.  0.  0.
170  1.69  0.  0.  0.
171  1.70  0.  0.  0.
172  1.71  0.  0.  0.
173  1.72  0.  0.  0.
174  1.73  0.  0.  0.
175  1.74  0.  0.  0.
176  1.75  0.  0.  0.
177  1.76  0.  0.  0.
178  1.77  0.  0.  0.
179  1.78  0.  0.  0.
180  1.79  0.  0.  0.
181  1.80  0.  0.  0.
182  1.81  0.  0.  0.
183  1.82  0.  0.  0.
184  1.83  0.  0.  0.
185  1.84  0.  0.  0.
186  1.85  0.  0.  0.
187  1.86  0.  0.  0.
188  1.87  0.  0.  0.
189  1.88  0.  0.  0.
190  1.89  0.  0.  0.
191  1.90  0.  0.  0.
192  1.91  0.  0.  0.
193  1.92  0.  0.  0.
194  1.93  0.  0.  0.
195  1.94  0.  0.  0.
196  1.95  0.  0.  0.
197  1.96  0.  0.  0.
198  1.97  0.  0.  0.
199  1.98  0.  0.  0.
200  1.99  0.  0.  0.
201  2.00  0.  0.  0.
202  2.01  0.  0.  0.
203  2.02  0.  0.  0.
204  2.03  0.  0.  0.
205  2.04  0.  0.  0.
206  2.05  0.  0.  0.
207  2.06  0.  0.  0.
208  2.07  0.  0.  0.
209  2.08  0.  0.  0.
210  2.09  0.  0.  0.
211  2.10  0.  0.  0.
212  2.11  0.  0.  0.
213  2.12  0.  0.  0.
214  2.13  0.  0.  0.
215  2.14  0.  0.  0.
216  2.15  0.  0.  0.
217  2.16  0.  0.  0.
218  2.17  0.  0.  0.
219  2.18  0.  0.  0.
220  2.19  0.  0.  0.
221  2.20  0.  0.  0.
222  2.21  0.  0.  0.
223  2.22  0.  0.  0.
224  2.23  0.  0.  0.
225  2.24  0.  0.  0.
226  2.25  0.  0.  0.
227  2.26  0.  0.  0.
228  2.27  0.  0.  0.
229  2.28  0.  0.  0.
230  2.29  0.  0.  0.
231  2.30  0.  0.  0.
232  2.31  0.  0.  0.
233  2.32  0.  0.  0.
234  2.33  0.  0.  0.
235  2.34  0.  0.  0.
236  2.35  0.  0.  0.
237  2.36  0.  0.  0.
238  2.37  0.  0.  0.
239  2.38  0.  0.  0.
240  2.39  0.  0.  0.
241  2.40  0.  0.  0.
242  2.41  0.  0.  0.
243  2.42  0.  0.  0.
244  2.43  0.  0.  0.
245  2.44  0.  0.  0.
246  2.45  0.  0.  0.
247  2.46  0.  0.  0.
248  2.47  0.  0.  0.
249  2.48  0.  0.  0.
250  2.49  0.  0.  0.
251  2.50  0.  0.  0.
252  2.51  0.  0.  0.
253  2.52  0.  0.  0.
254  2.53  0.  0.  0.
255  2.54  0.  0.  0.
256  2.55  0.  0.  0.
257  2.56  0.  0.  0.
258  2.57  0.  0.  0.
259  2.58  0.  0.  0.
260  2.59  0.  0.  0.
261  2.60  0.  0.  0.
262  2.61  0.  0.  0.
263  2.62  0.  0.  0.
264  2.63  0.  0.  0.
265  2.64  0.  0.  0.
266  2.65  0.  0.  0.
267  2.66  0.  0.  0.
268  2.67  0.  0.  0.
269  2.68  0.  0.  0.
270  2.69  0.  0.  0.
271  2.70  0.  0.  0.
272  2.71  0.  0.  0.
273  2.72  0.  0.  0.
274  2.73  0.  0.  0.
275  2.74  0.  0.  0.
276  2.75  0.  0.  0.
277  2.76  0.  0.  0.
278  2.77  0.  0.  0.
279  2.78  0.  0.  0.
280  2.79  0.  0.  0.
281  2.80  0.  0.  0.
282  2.81  0.  0.  0.
283  2.82  0.  0.  0.
284  2.83  0.  0.  0.
285  2.84  0.  0.  0.
286  2.85  0.  0.  0.
287  2.86  0.  0.  0.
288  2.87  0.  0.  0.
289  2.88  0.  0.  0.
290  2.89  0.  0.  0.
291  2.90  0.  0.  0.
292  2.91  0.  0.  0.
293  2.92  0.  0.  0.
294  2.93  0.  0.  0.
295  2.94  0.  0.  0.
296  2.95  0.  0.  0.
297  2.96  0.  0.  0.
298  2.97  0.  0.  0.
299  2.98  0.  0.  0.
300  2.99  0.  0.  0.
301  3.00  0.  0.  0.
302  3.01  0.  0.  0.
303  3.02  0.  0.  0.
304  3.03  0.  0.  0.
305  3.04  0.  0.  0.
306  3.05  0.  0.  0.
307  3.06  0.  0.  0.
308  3.07  0.  0.  0.
309  3.08  0.  0.  0.
310  3.09  0.  0.  0.
311  3.10  0.  0.  0.
312  3.11  0.  0.  0.
313  3.12  0.  0.  0.
314  3.13  0.  0.  0.
315  3.14  0.  0.  0.
316  3.15  0.  0.  0.
317  3.16  0.  0.  0.
318  3.17  0.  0.  0.
319  3.18  0.  0.  0.
320  3.19  0.  0.  0.
321  3.20  0.  0.  0.
322  3.21  0.  0.  0.
323  3.22  0.  0.  0.
324  3.23  0.  0.  0.
325  3.24  0.  0.  0.
326  3.25  0.  0.  0.
327  3.26  0.  0.  0.
328  3.27  0.  0.  0.
329  3.28  0.  0.  0.
330  3.29  0.  0.  0.
331  3.30  0.  0.  0.
332  3.31  0.  0.  0.
333  3.32  0.  0.  0.
334  3.33  0.  0.  0.
335  3.34  0.  0.  0.
336  3.35  0.  0.  0.
337  3.36  0.  0.  0.
338  3.37  0.  0.  0.
339  3.38  0.  0.  0.
340  3.39  0.  0.  0.
341  3.40  0.  0.  0.
342  3.41  0.  0.  0.
343  3.42  0.  0.  0.
344  3.43  0.  0.  0.
345  3.44  0.  0.  0.
346  3.45  0.  0.  0.
347  3.46  0.  0.  0.
348  3.47  0.  0.  0.
349  3.48  0.  0.  0.
350  3.49  0.  0.  0.
351  3.50  0.  0.  0.
352  3.51  0.  0.  0.
353  3.52  0.  0.  0.
354  3.53  0.  0.  0.
355  3.54  0.  0.  0.
356  3.55  0.  0.  0.
357  3.56  0.  0.  0.
358  3.57  0.  0.  0.
359  3.58  0.  0.  0.
360  3.59  0.  0.  0.
361  3.60  0.  0.  0.
362  3.61  0.  0.  0.
363  3.62  0.  0.  0.
364  3.63  0.  0.  0.
365  3.64  0.  0.  0.
366  3.65  0.  0.  0.
367  3.66  0.  0.  0.
368  3.67  0.  0.  0.
369  3.68  0.  0.  0.
370  3.69  0.  0.  0.
371  3.70  0.  0.  0.
372  3.71  0.  0.  0.
373  3.72  0.  0.  0.
374  3.73  0.  0.  0.
375  3.74  0.  0.  0.
376  3.75  0.  0.  0.
377  3.76  0.  0.  0.
378  3.77  0.  0.  0.
379  3.78  0.  0.  0.
380  3.79  0.  0.  0.
381  3.80  0.  0.  0.
382  3.81  0.  0.  0.
383  3.82  0.  0.  0.
384  3.83  0.  0.  0.
385  3.84  0.  0.  0.
386  3.85  0.  0.  0.
387  3.86  0.  0.  0.
388  3.87  0.  0.  0.
389  3.88  0.  0.  0.
390  3.89  0.  0.  0.
391  3.90  0.  0.  0.
392  3.91  0.  0.  0.
393  3.92  0.  0.  0.
394  3.93  0.  0.  0.
395  3.94  0.  0.  0.
396  3.95  0.  0.  0.
397  3.96  0.  0.  0.
398  3.97  0.  0.  0.
399  3.98  0.  0.  0.
400  3.99  0.  0.  0.
401  4.00  0.  0.  0.
402  4.01  0.  0.  0.
403  4.02  0.  0.  0.
404  4.03  0.  0.  0.
405  4.04  0.  0.  0.
406  4.05  0.  0.  0.
407  4.06  0.  0.  0.
408  4.07  0.  0.  0.
409  4.08  0.  0.  0.
410  4.09  0.  0.  0.
411  4.10  0.  0.  0.
412  4.11  0.  0.  0.
413  4.12  0.  0.  0.
414  4.13  0.  0.  0.
415  4.14  0.  0.  0.
416  4.15  0.  0.  0.
417  4.16  0.  0.  0.
418  4.17  0.  0.  0.
419  4.18  0.  0.  0.
420  4.19  0.  0.  0.
421  4.20  0.  0.  0.
422  4.21  0.  0.  0.
423  4.22  0.  0.  0.
424  4.23  0.  0.  0.
425  4.24  0.  0.  0.
426  4.25  0.  0.  0.
427  4.26  0.  0.  0.
428  4.27  0.  0.  0.
429  4.28  0.  0.  0.
430  4.29  0.  0.  0.
431  4.30  0.  0.  0.
432  4.31  0.  0.  0.
433  4.32  0.  0.  0.
434  4.33  0.  0.  0.
435  4.34  0.  0.  0.
436  4.35  0.  0.  0.
437  4.36  0.  0.  0.
438  4.37  0.  0.  0.
439  4.38  0.  0.  0.
440  4.39  0.  0.  0.
441  4.40  0.  0.  0.
442  4.41  0.  0.  0.
443  4.42  0.  0.  0.
444  4.43  0.  0.  0.
445  4.44  0.  0.  0.
446  4.45  0.  0.  0.
447  4.46  0.  0.  0.
448  4.47  0.  0.  0.
449  4.48  0.  0.  0.
450  4.49  0.  0.  0.
451  4.50  0.  0.  0.
452  4.51  0.  0.  0.
453  4.52  0.  0.  0.
454  4.53  0.  0.  0.
455  4.54  0.  0.  0.
456  4.55  0.  0.  0.
457  4.56  0.  0.  0.
458  4.57  0.  0.  0.
459  4.58  0.  0.  0.
460  4.59  0.  0.  0.
461  4.60  0.  0.  0.
462  4.61  0.  0.  0.
463  4.62  0.  0.  0.
464  4.63  0.  0.  0.
465  4.64  0.  0.  0.
466  4.65  0.  0.  0.
467  4.66  0.  0.  0.
468  4.67  0.  0.  0.
469  4.68  0.  0.  0.
470  4.69  0.  0.  0.
471  4.70  0.  0.  0.
472  4.71  0.  0.  0.
473  4.72  0.  0.  0.
474  4.73  0.  0.  0.
475  4.74  0.  0.  0.
476  4.75  0.  0.  0.
477  4.76  0.  0.  0.
478  4.77  0.  0.  0.
479  4.78  0.  0.  0.
480  4.79  0.  0.  0.
481  4.80  0.  0.  0.
482  4.81  0.  0.  0.
483  4.82  0.  0.  0.
484  4.83  0.  0.  0.
485  4.84  0.  0.  0.
486  4.85  0.  0.  0.
487  4.86  0.  0.  0.
488  4.87  0.  0.  0.
489  4.88  0.  0.  0.
490  4.89  0.  0.  0.
491  4.90  0.  0.  0.
492  4.91  0.  0.  0.
493  4.92  0.  0.  0.
494  4.93  0.  0.  0.
495  4.94  0.  0.  0.
496  4.95  0.  0.  0.
497  4.96  0.  0.  0.
498  4.97  0.  0.  0.
499  4.98  0.  0.  0.
500  4.99  0.  0.  0.
501  5.00  0.  0.  0.
502  5.01  0.  0.  0.
503  5.02  0.  0.  0.
504  5.03  0.  0.  0.
505  5.04  0.  0.  0.
506  5.05  0.  0.  0.
507  5.06  0.  0.  0.
508  5.07  0.  0.  0.
509  5.08  0.  0.  0.
510  5.09  0.  0.  0.
511  5.10  0.  0.  0.
512  5.11  0.  0.  0.
513  5.12  0.  0.  0.
514  5.13  0.  0.  0.
515  5.14  0.  0.  0.
516  5.15  0.  0.  0.
517  5.16  0.  0.  0.
518  5.17  0.  0.  0.
519  5.18  0.  0.  0.
520  5.19  0.  0.  0.
521  5.20  0.  0.  0.
522  5.21  0.  0.  0.
523  5.22  0.  0.  0.
524  5.23  0.  0.  0.
525  5.24  0.  0.  0.
526  5.25  0.  0.  0.
527  5.26  0.  0.  0.
528  5.27  0.  0.  0.
529  5.28  0.  0.  0.
530  5.29  0.  0.  0.
531  5.30  0.  0.  0.
532  5.31  0.  0.  0.
533  5.32  0.  0.  0.
534  5.33  0.  0.  0.
535  5.34  0.  0.  0.
536  5.35  0.  0.  0.
537  5.36  0.  0.  0.
538  5.37  0.  0.  0.
539  5.38  0.  0.  0.
540  5.39  0.  0.  0.
541  5.40  0.  0.  0.
542  5.41  0.  0.  0.
543  5.42  0.  0.  0.
544  5.43  0.  0.  0.
545  5.44  0.  0.  0.
546  5.45  0.  0.  0.
547  5.46  0.  0.  0.
548  5.47  0.  0.  0.
549  5.48  0.  0.  0.
550  5.49  0.  0.  0.
551  5.50  0.  0.  0.
552  5.51  0.  0.  0.
553  5.52  0.  0.  0.
554  5.53  0.  0.  0.
555  5.54  0.  0.  0.
556  5.55  0.  0.  0.
557  5.56  0.  0.  0.
558  5.57  0.  0.  0.
559  5.58  0.  0.  0.
560  5.59  0.  0.  0.
561  5.60  0.  0.  0.
562  5.61  0.  0.  0.
563  5.62  0.  0.  0.
564  5.63  0.  0.  0.
565  5.64  0.  0.  0.
566  5.65  0.  0.  0.
567  5.66  0.  0.  0.
568  5.67  0.  0.  0.
569  5.68  0.  0.  0.
570  5.69  0.  0.  0.
571  5.70  0.  0.  0.
572  5.71  0.  0.  0.
573  5.72  0.  0.  0.
574  5.73  0.  0.  0.
575  5.74  0.  0.  0.
576  5.75  0.  0.  0.
577  5.76  0.  0.  0.
578  5.77  0.  0.  0.
579  5.78  0.  0.  0.
580  5.79  0.  0.  0.
581  5.80  0.  0.  0.
582  5.81  0.  0.  0.
583  5.82  0.  0.  0.
584  5.83  0.  0.  0.
585  5.84  0.  0.  0.
586  5.85  0.  0.  0.
587  5.86  0.  0.  0.
588  5.87  0.  0.  0.
589  5.88  0.  0.  0.
590  5.89  0.  0.  0.
591  5.90  0.  0.  0.
592  5.91  0.  0.  0.
593  5.92  0.  0.  0.
594  5.93  0.  0.  0.
595  5.94  0.  0.  0.
596  5.95  0.  0.  0.
597  5.96  0.  0.  0.
598  5.97  0.  0.  0.
599  5.98  0.  0.  0.
600  5.99  0.  0.  0.
1                        -7.2051915974785E+00  1.2075123324510E+00 -1.0136055156473E-01
1  0.0000000000000E+00  1.1772059521631E-08  1.9024095755660E-07 -4.0841608495157E-07
2  1.0000000000000E-02  2.3534140742796E-03 -5.1577294178458E-04 -8.2738508548401E-03
3  2.0000000000000E-02  9.3952861331639E-03 -2.1280884415263E-03 -3.2856665258410E-02
4  3.0000000000000E-02  2.1070792304042E-02 -5.0286262126852E-03 -7.3040104412842E-02
5  4.0000000000000E-02  3.7289506775295E-02 -9.5259542852125E-03 -1.2766956811620E-01
6  5.0000000000000E-02  5.7926794740859E-02 -1.6029653094587E-02 -1.9518214504978E-01
7  6.0000000000000E-02  8.2825707512158E-02 -2.5029012647969E-02 -2.7365778945224E-01
8  7.0000000000000E-02  1.1179932714726E-01 -3.7067182142759E-02 -3.6088186010395E-01
9  8.0000000000000E-02  1.4463349617502E-01 -5.2711841653796E-02 -4.5441674912908E-01
10  9.0000000000000E-02  1.8108985850039E-01 -7.2523613304507E-02 -5.5168000618958E-01
11  1.0000000000000E-01  2.2090913068976E-01 -9.7023528788300E-02 -6.5002614034047E-01
12  1.1000000000000E-01  2.6381451877595E-01 -1.2666091719583E-01 -7.4682916548166E-01
13  1.2000000000000E-01  3.0951519460982E-01 -1.6178306987454E-01 -8.3956295019314E-01
14  1.3000000000000E-01  3.5770974762512E-01 -2.0260797767322E-01 -9.2587653870210E-01
15  1.4000000000000E-01  4.0808953256953E-01 -2.4920132270722E-01 -1.0036618224517E+00
16  1.5000000000000E-01  4.6034184107776E-01 -3.0145874605970E-01 -1.0711112527540E+00
17  1.6000000000000E-01  5.1415283460984E-01 -3.5909421082249E-01 -1.1267636820770E+00
18  1.7000000000000E-01  5.6921018785524E-01 -4.2163504441824E-01 -1.1695368890868E+00
19  1.8000000000000E-01  6.2520540474261E-01 -4.8842398440296E-01 -1.1987458624002E+00
20  1.9000000000000E-01  6.8183578317900E-01 -5.5862827806370E-01 -1.2141064698676E+00
21  2.0000000000000E-01  7.3880601901853E-01 -6.3125560881538E-01 -1.2157247026542E+00
22  2.1000000000000E-01  7.9582945396877E-01 -7.0517635254119E-01 -1.2040722346041E+00
23  2.2000000000000E-01  8.5262898563236E-01 -7.7915141522485E-01 -1.1799495560078E+00
24  2.3000000000000E-01  9.0893767013454E-01 -8.5186467942815E-01 -1.1444384068833E+00
25  2.4000000000000E-01  9.6449905833854E-01 -9.2195890024810E-01 -1.0988456302442E+00
26  2.5000000000000E-01  1.0190673151054E+00 -9.8807374880831E-01 -1.0446408753207E+00
27  2.6000000000000E-01  1.0724071771031E+00 -1.0488846088601E+00 -9.8339079246766E-01
28  2.7000000000000E-01  1.1242938081019E+00 -1.1031406935227E+00 -9.1669246743648E-01
29  2.8000000000000E-01  1.1745126113954E+00 -1.1497010663275E+00 -8.4610883889495E-01
30  2.9000000000000E-01  1.2228590569737E+00 -1.1875672231377E+00 -7.7310872984631E-01
31  3.0000000000000E-01  1.2691385764461E+00 -1.2159110166447E+00 -6.9901390554191E-01
32  3.1000000000000E-01  1.3131665716875E+00 -1.2340968783777E+00 -6.2495525627247E-01
33  3.2000000000000E-01  1.3547685740803E+00 -1.2416975080176E+00 -5.5183980550747E-01
34  3.3000000000000E-01  1.3937805804305E+00 -1.2385024481426E+00 -4.8032977795535E-01
35  3.4000000000000E-01  1.4300495796196E+00 -1.2245192348821E+00 -4.1083444665011E-01
36  3.5000000000000E-01  1.4634342713304E+00 -1.1999671008765E+00 -3.4351493351362E-01
37  3.6000000000000E-01  1.4938059652929E+00 -1.1652634954027E+00 -2.7830158558722E-01
38  3.7000000000000E-01  1.5210496369868E+00 -1.1210039663505E+00 -2.1492301121641E-01
39  3.8000000000000E-01  1.5450651041612E+00 -1.0679362089958E+00 -1.5294535839121E-01
40  3.9000000000000E-01  1.5657682783753E+00 -1.0069293169858E+00 -9.1819971364667E-02
41  4.0000000000000E-01  1.5830924374961E+00 -9.3893946246245E-01 -3.0937189690310E-02
42  4.1000000000000E-01  1.5969894590762E+00 -8.6497337708707E-01  3.0316228758150E-02
43  4.2000000000000E-01  1.6074309510707E+00 -7.8605109789090E-01  9.2498760463475E-02
44  4.3000000000000E-01  1.6144092156368E+00 -7.0316947734836E-01  1.5605761616255E-01
45  4.4000000000000E-01  1.6179379838619E+00 -6.1726793397118E-01  2.2127681805979E-01
46  4.5000000000000E-01  1.6180528641750E+00 -5.2919783838713E-01  2.8823243022977E-01
47  4.6000000000000E-01  1.6148114547595E+00 -4.3969679287025E-01  3.5675725593670E-01
48  4.7000000000000E-01  1.6082930802675E+00 -3.4936887433976E-01  4.2641695460546E-01
49  4.8000000000000E-01  1.5985981251785E+00 -2.5867167864428E-01  4.9649908433825E-01
50  4.9000000000000E-01  1.5858469498302E+00 -1.6791073594696E-01  5.6601605961857E-01
51  5.0000000000000E-01  1.5701783899596E+00 -7.7241573129199E-02  6.3372244749595E-01
52  5.1000000000000E-01  1.5517478559801E+00  1.3320609674307E-02  6.9814643054514E-01
53  5.2000000000000E-01  1.5307250635893E+00  1.0388399331609E-01  7.5763466409036E-01
54  5.3000000000000E-01  1.5072914420584E+00  1.9465657285083E-01  8.1040917192202E-01
55  5.4000000000000E-01  1.4816372801033E+00  2.8591690071062E-01  8.5463438203448E-01
56  5.5000000000000E-01  1.4539586810292E+00  3.7798032196135E-01  8.8849192357695E-01
57  5.6000000000000E-01  1.4244544083776E+00  4.7116209312871E-01  9.1026040800574E-01
58  5.7000000000000E-01  1.3933227101576E+00  5.6573893499797E-01  9.1839711831876E-01
59  5.8000000000000E-01  1.3607582135928E+00  6.6191067133149E-01  9.1161834374576E-01
60  5.9000000000000E-01  1.3269489829196E+00  7.5976364473706E-01  8.8897503283994E-01
61  6.0000000000000E-01  1.2920738300438E+00  8.5923757532528E-01  8.4992050063814E-01
62  6.1000000000000E-01  1.2562999617925E+00  9.6009743706685E-01  7.9436711581337E-01
63  6.2000000000000E-01  1.2197810382448E+00  1.0619117730637E+00  7.2272920718073E-01
64  6.3000000000000E-01  1.1826557044282E+00  1.1640386588285E+00  6.3594985649223E-01
65  6.4000000000000E-01  1.1450466429152E+00  1.2656202589042E+00  5.3550977274696E-01
66  6.5000000000000E-01  1.1070601780114E+00  1.3655866155692E+00  4.2341705481248E-01
67  6.6000000000000E-01  1.0687864438582E+00  1.4626689695217E+00  3.0217732316086E-01
68  6.7000000000000E-01  1.0303001095081E+00  1.5554225532564E+00  1.7474441442906E-01
69  6.8000000000000E-01  9.9166163454711E-01  1.6422584312433E+00  4.4452558865224E-02
70  6.9000000000000E-01  9.5291900983413E-01  1.7214836004522E+00 -8.5068325971538E-02
71  7.0000000000000E-01  9.1410992009865E-01  1.7913482236583E+00 -2.0999191807419E-01
72  7.1000000000000E-01  8.7526424915959E-01  1.8500985594099E+00 -3.2640643464569E-01
73  7.2000000000000E-01  8.3640683501303E-01  1.8960338885705E+00 -4.3043380109306E-01
74  7.3000000000000E-01  7.9756037153303E-01  1.9275655287385E+00 -5.1835320026067E-01
75  7.4000000000000E-01  7.5874834648169E-01  1.9432758834977E+00 -5.8672487465492E-01
76  7.5000000000000E-01  7.1999790226586E-01  1.9419754001436E+00 -6.3250991303305E-01
77  7.6000000000000E-01  6.8134250661305E-01  1.9227553116212E+00 -6.5318176058139E-01
78  7.7000000000000E-01  6.4282432513110E-01  1.8850341175800E+00 -6.4682535219457E-01
79  7.8000000000000E-01  6.0449619648863E-01  1.8285959146854E+00 -6.1222007896370E-01
80  7.9000000000000E-01  5.6642312348040E-01  1.7536189137795E+00 -5.4890325118779E-01
81  8.0000000000000E-01  5.2868320916157E-01  1.6606927746738E+00 -4.5721130413615E-01
82  8.1000000000000E-01  4.9136798605481E-01  1.5508237392624E+00 -3.3829668753839E-01
83  8.2000000000000E-01  4.5458210754503E-01  1.4254269390149E+00 -1.9411916405244E-01
84  8.3000000000000E-01  4.1844239327770E-01  1.2863056806420E+00 -2.7411089871379E-02
85  8.4000000000000E-01  3.8307624388920E-01  1.1356179592128E+00  1.5838286670190E-01
86  8.5000000000000E-01  3.4861946390045E-01  9.7583089575479E-01  3.5919022605620E-01
87  8.6000000000000E-01  3.1521355425735E-01  8.0966423041837E-01  5.7041721529824E-01
88  8.7000000000000E-01  2.8300255697269E-01  6.4002440685154E-01  7.8707430032643E-01
89  8.8000000000000E-01  2.5212955282717E-01  4.6993114343297E-01  1.0039170159505E+00
90  8.9000000000000E-01  2.2273292840312E-01  3.0243868863340E-01  1.2155977806199E+00
91  9.0000000000000E-01  1.9494254023318E-01  1.4055418901208E-01  1.4168239239270E+00
92  9.1000000000000E-01  1.6887591104948E-01 -1.2844250554123E-02  1.6025168548646E+00
93  9.2000000000000E-01  1.4463459565963E-01 -1.5508717094982E-01  1.7679671707379E+00
94  9.3000000000000E-01  1.2230085165628E-01 -2.8378841126626E-01  1.9089805587647E+00
95  9.4000000000000E-01  1.0193474295757E-01 -3.9691231350340E-01  2.0220095765016E+00
96  9.5000000000000E-01  8.3571792220157E-02 -4.9283119325254E-01  2.1042668086654E+00
97  9.6000000000000E-01  6.7221281777152E-02 -5.7037108439809E-01  2.1538154757141E+00
98  9.7000000000000E-01  5.2865282419813E-02 -6.2884413580820E-01  2.1696342961650E+00
99  9.8000000000000E-01  4.0458465676083E-02 -6.6806647228430E-01  2.1516542578243E+00
100  9.9000000000000E-01  2.9928729019862E-02 -6.8836081633605E-01  2.1007659045095E+00
101  1.0000000000000E+00  2.1178635521897E-02 -6.9054368583825E-01  2.0187967632786E+00
102  1.0100000000000E+00  1.4087640797214E-02 -6.7589751719674E-01  1.9084595869473E+00