Lr    ONCVPSP-4.0.1  r_core=   1.10451   1.15174   1.15174   1.20099
103.0000     43.0000      231012    zatom,zion,pspd
8 -116133   3     4   600     0    pspcod,pspxc,lmax,lloc,mmax,r2well
5.99000000  4.12600000  0.00000000    rchrg fchrg qchrg
3     2     2     2     0    nproj
1     1           extension_switch
0                         1.2680378494816E+01 -7.6905299898993E+00 -1.6493497474613E+00
1  0.0000000000000E+00  7.7857438718354E-08  1.2591139297857E-08 -1.2134189164570E-06
2  1.0000000000000E-02  1.5568991660774E-01  4.2424991663156E-02  2.0766801319437E-01
3  2.0000000000000E-02  3.1048796710356E-01  8.4934105825672E-02  4.0909204097225E-01
4  3.0000000000000E-02  4.6349915948954E-01  1.2760836322230E-01  5.9824839598134E-01
5  4.0000000000000E-02  6.1382270846299E-01  1.7052267673395E-01  7.6954553020331E-01
6  5.0000000000000E-02  7.6055026324381E-01  2.1374303316769E-01  9.1801929939832E-01
7  6.0000000000000E-02  9.0276542496074E-01  2.5732394827336E-01  1.0395041905191E+00
8  7.0000000000000E-02  1.0395448864548E+00  3.0130627046145E-01  1.1307740079384E+00
9  8.0000000000000E-02  1.1699614495005E+00  3.4571539609556E-01  1.1896467277542E+00
10  9.0000000000000E-02  1.2930890834670E+00  3.9055994444653E-01  1.2150496509538E+00
11  1.0000000000000E-01  1.4080100891821E+00  4.3583092399115E-01  1.2070425581998E+00
12  1.1000000000000E-01  1.5138243264574E+00  4.8150140435469E-01  1.1667982278181E+00
13  1.2000000000000E-01  1.6096603578551E+00  5.2752669050688E-01  1.0965413572202E+00
14  1.3000000000000E-01  1.6946882593156E+00  5.7384497850731E-01  9.9944855889967E-01
15  1.4000000000000E-01  1.7681337546019E+00  6.2037845581942E-01  8.7951361984419E-01
16  1.5000000000000E-01  1.8292932491598E+00  6.6703479459015E-01  7.4138355712746E-01
17  1.6000000000000E-01  1.8775492735195E+00  7.1370897386892E-01  5.9017211927497E-01
18  1.7000000000000E-01  1.9123857996565E+00  7.6028535696997E-01  4.3125822889236E-01
19  1.8000000000000E-01  1.9334028679659E+00  8.0663994341092E-01  2.7007740434176E-01
20  1.9000000000000E-01  1.9403299589881E+00  8.5264271130839E-01  1.1191441678350E-01
21  2.0000000000000E-01  1.9330375631775E+00  8.9815996587332E-01 -3.8294673314448E-02
22  2.1000000000000E-01  1.9115464433385E+00  9.4305661268029E-01 -1.7614339255826E-01
23  2.2000000000000E-01  1.8760341464704E+00  9.8719828051888E-01 -2.9791167743521E-01
24  2.3000000000000E-01  1.8268384024547E+00  1.0304532275762E+00 -4.0069269120922E-01
25  2.4000000000000E-01  1.7644571433031E+00  1.0726939760490E+00 -4.8248492709699E-01
26  2.5000000000000E-01  1.6895449849765E+00  1.1137986335454E+00 -5.4224631327776E-01
27  2.6000000000000E-01  1.6029061299977E+00  1.1536518742546E+00 -5.7990857910527E-01
28  2.7000000000000E-01  1.5054837688227E+00  1.1921455682143E+00 -5.9635174335673E-01
29  2.8000000000000E-01  1.3983461766588E+00  1.2291790624770E+00 -5.9334017986722E-01
30  2.9000000000000E-01  1.2826698156118E+00  1.2646591329184E+00 -5.7342323969715E-01
31  3.0000000000000E-01  1.1597198554237E+00  1.2984996392662E+00 -5.3980480165987E-01
32  3.1000000000000E-01  1.0308286156925E+00  1.3306209280910E+00 -4.9618733005336E-01
33  3.2000000000000E-01  8.9737250498012E-01  1.3609490385347E+00 -4.4659699318759E-01
34  3.3000000000000E-01  7.6074808486761E-01  1.3894147730712E+00 -3.9519710192016E-01
35  3.4000000000000E-01  6.2234791786798E-01  1.4159527003239E+00 -3.4609753824687E-01
36  3.5000000000000E-01  4.8353686600564E-01  1.4405001587573E+00 -3.0316794635346E-01
37  3.6000000000000E-01  3.4562949157996E-01  1.4629963288660E+00 -2.6986225128965E-01
38  3.7000000000000E-01  2.0986917375848E-01  1.4833814374056E+00 -2.4906156474743E-01
39  3.8000000000000E-01  7.7409495661753E-02  1.5015961504290E+00 -2.4294175627478E-01
40  3.9000000000000E-01 -5.0701621242412E-02  1.5175812027309E+00 -2.5287094532562E-01
41  4.0000000000000E-01 -1.7353465238815E-01  1.5312773001470E+00 -2.7934094767943E-01
42  4.1000000000000E-01 -2.9028779814079E-01  1.5426253184906E+00 -3.2193533926373E-01
43  4.2000000000000E-01 -4.0029274239873E-01  1.5515668092485E+00 -3.7933533679879E-01
44  4.3000000000000E-01 -5.0301679846827E-01  1.5580448080827E+00 -4.4936319649477E-01
45  4.4000000000000E-01 -5.9806151773348E-01  1.5620049282458E+00 -5.2906135843696E-01
46  4.5000000000000E-01 -6.8515795109342E-01  1.5633967077873E+00 -6.1480417267613E-01
47  4.6000000000000E-01 -7.6415885913862E-01  1.5621751674299E+00 -7.0243778687758E-01
48  4.7000000000000E-01 -8.3502826087202E-01  1.5583025256877E+00 -7.8744270201827E-01
49  4.8000000000000E-01 -8.9782878922404E-01  1.5517500095952E+00 -8.6511265165860E-01
50  4.9000000000000E-01 -9.5270738205405E-01  1.5424996936115E+00 -9.3074286206407E-01
51  5.0000000000000E-01 -9.9987987785476E-01  1.5305462960830E+00 -9.7982042494264E-01
52  5.1000000000000E-01 -1.0396151048257E+00  1.5158988621912E+00 -1.0082094709234E+00
53  5.2000000000000E-01 -1.0722190499881E+00  1.4985822645801E+00 -1.0123240681718E+00
54  5.3000000000000E-01 -1.0980196720027E+00  1.4786384577559E+00 -9.8928227397750E-01
55  5.4000000000000E-01 -1.1173528785074E+00  1.4561274296611E+00 -9.3703551487624E-01
56  5.5000000000000E-01 -1.1305501280117E+00  1.4311278032706E+00 -8.5446843101002E-01
57  5.6000000000000E-01 -1.1379280401828E+00  1.4037370522538E+00 -7.4146545344475E-01
58  5.7000000000000E-01 -1.1397803097804E+00  1.3740713072754E+00 -5.9894164362104E-01
59  5.8000000000000E-01 -1.1363721219753E+00  1.3422647428861E+00 -4.2883666247155E-01
60  5.9000000000000E-01 -1.1279371640420E+00  1.3084685486910E+00 -2.3407210142816E-01
61  6.0000000000000E-01 -1.1146772242725E+00  1.2728495020711E+00 -1.8473746922737E-02
62  6.1000000000000E-01 -1.0967642672431E+00  1.2355881726809E+00  2.1333838560372E-01
63  6.2000000000000E-01 -1.0743447789539E+00  1.1968768008046E+00  4.5608826860810E-01
64  6.3000000000000E-01 -1.0475460892191E+00  1.1569169020039E+00  7.0400536836738E-01
65  6.4000000000000E-01 -1.0164843050226E+00  1.1159166590009E+00  9.5100369040918E-01
66  6.5000000000000E-01 -9.8127342983184E-01  1.0740881681256E+00  1.1908720475669E+00
67  6.6000000000000E-01 -9.4203520200376E-01  1.0316446117453E+00  1.4174689033249E+00
68  6.7000000000000E-01 -8.9890916167794E-01  9.8879742976862E-01  1.6249150571093E+00
69  6.8000000000000E-01 -8.5206245054165E-01  9.4575356257915E-01  1.8077775949133E+00
70  6.9000000000000E-01 -8.0169886248471E-01  9.0271283467134E-01  1.9612389174092E+00
71  7.0000000000000E-01 -7.4806669470733E-01  8.5986554299525E-01  2.0812452596360E+00
72  7.1000000000000E-01 -6.9146499693354E-01  8.1739030679473E-01  2.1646299050189E+00
73  7.2000000000000E-01 -6.3224787910531E-01  7.7545222684105E-01  2.2092072395705E+00
74  7.3000000000000E-01 -5.7082661287559E-01  7.3420139176297E-01  2.2138348522696E+00
75  7.4000000000000E-01 -5.0766934659237E-01  6.9377175803642E-01  2.1784420243613E+00
76  7.5000000000000E-01 -4.4329834419909E-01  6.5428041852035E-01  2.1040241216202E+00
77  7.6000000000000E-01 -3.7828475230746E-01  6.1582726261992E-01  1.9926035671212E+00
78  7.7000000000000E-01 -3.1324099332609E-01  5.7849501962081E-01  1.8471591871999E+00
79  7.8000000000000E-01 -2.4881097270129E-01  5.4234966584312E-01  1.6715267523220E+00
80  7.9000000000000E-01 -1.8565837194432E-01  5.0744116635315E-01  1.4702744438655E+00
81  8.0000000000000E-01 -1.2445337336759E-01  4.7380451333769E-01  1.2485577391993E+00
82  8.1000000000000E-01 -6.5858224850107E-02  4.4146101612989E-01  1.0119587986477E+00
83  8.2000000000000E-01 -1.0512101454839E-02  4.1041979245592E-01  7.6631584347911E-01
84  8.3000000000000E-01  4.0984246235608E-02  3.8067940686392E-01  5.1754822529702E-01
85  8.4000000000000E-01  8.8083550655230E-02  3.5222960054939E-01  2.7148290250409E-01
86  8.5000000000000E-01  1.3030628670031E-01  3.2505305689032E-01  3.3687863878813E-02
87  8.6000000000000E-01  1.6725364350408E-01  2.9912714887688E-01 -1.9068231597812E-01
88  8.7000000000000E-01  1.9861875368265E-01  2.7442561813323E-01 -3.9702412271249E-01
89  8.8000000000000E-01  2.2419577416089E-01  2.5092014020836E-01 -5.8140194272862E-01
90  8.9000000000000E-01  2.4388647533398E-01  2.2858173704067E-01 -7.4064086677934E-01
91  9.0000000000000E-01  2.5770406969222E-01  2.0738200473393E-01 -8.7239308936930E-01
92  9.1000000000000E-01  2.6577409482728E-01  1.8729413275428E-01 -9.7517645966581E-01
93  9.2000000000000E-01  2.6833225641083E-01  1.6829369909523E-01 -1.0483846916998E+00
94  9.3000000000000E-01  2.6571923154651E-01  1.5035923458613E-01 -1.0922696933043E+00
95  9.4000000000000E-01  2.5837252903376E-01  1.3347255807289E-01 -1.1078973966474E+00
96  9.5000000000000E-01  2.4681559771493E-01  1.1761889243041E-01 -1.0970793426900E+00
97  9.6000000000000E-01  2.3164446446048E-01  1.0278677904881E-01 -1.0622830647439E+00
98  9.7000000000000E-01  2.1351226685015E-01  8.8967815372324E-02 -1.0065250130420E+00
99  9.8000000000000E-01  1.9311211990419E-01  7.6156246101726E-02 -9.3325034776019E-01
100  9.9000000000000E-01  1.7115881914700E-01  6.4348443664483E-02 -8.4620439024259E-01
101  1.0000000000000E+00  1.4836993212773E-01  5.3542317424327E-02 -7.4930085405007E-01
102  1.0100000000000E+00  1.2544686586924E-01  4.3736693784746E-02 -6.4649217516066E-01
103  1.0200000000000E+00  1.0305651762864E-01  3.4930710820888E-02 -5.4164732430679E-01
104  1.0300000000000E+00  8.1814119214194E-02  2.7123272999748E-02 -4.3844231172767E-01
105  1.0400000000000E+00  6.2267881838126E-02  2.0312595822930E-02 -3.4026937318087E-01
106  1.0500000000000E+00  4.4886049332461E-02  1.4495801844146E-02 -2.5017585375567E-01
107  1.0600000000000E+00  3.0051174144209E-02  9.6623944210743E-03 -1.7118758130890E-01
108  1.0700000000000E+00  1.8046492472941E-02  5.8062549033627E-03 -1.0546389504686E-01
109  1.0800000000000E+00  9.0494038772051E-03  2.9276042993986E-03 -5.4466774913964E-02
110  1.0900000000000E+00  3.1391323713283E-03  1.0259588841979E-03 -1.9541788911989E-02
111  1.1000000000000E+00  3.1900737204213E-04  1.0583519151459E-04 -2.0644583492295E-03
112  1.1100000000000E+00 -1.1348909678599E-05 -3.8036258417753E-06  7.5430593488008E-05
113  1.1200000000000E+00 -1.5220020589068E-06 -5.0291217561580E-07  9.7696643196389E-06
114  1.13  0. -0. -0.
115  1.14  0.  0.  0.
116  1.15  0.  0.  0.
117  1.16  0.  0.  0.
118  1.17  0.  0.  0.
119  1.18  0.  0.  0.
120  1.19  0.  0.  0.
121  1.20  0.  0.  0.
122  1.21  0.  0.  0.
123  1.22  0.  0.  0.
124  1.23  0.  0.  0.
125  1.24  0.  0.  0.
126  1.25  0.  0.  0.
127  1.26  0.  0.  0.
128  1.27  0.  0.  0.
129  1.28  0.  0.  0.
130  1.29  0.  0.  0.
131  1.30  0.  0.  0.
132  1.31  0.  0.  0.
133  1.32  0.  0.  0.
134  1.33  0.  0.  0.
135  1.34  0.  0.  0.
136  1.35  0.  0.  0.
137  1.36  0.  0.  0.
138  1.37  0.  0.  0.
139  1.38  0.  0.  0.
140  1.39  0.  0.  0.
141  1.40  0.  0.  0.
142  1.41  0.  0.  0.
143  1.42  0.  0.  0.
144  1.43  0.  0.  0.
145  1.44  0.  0.  0.
146  1.45  0.  0.  0.
147  1.46  0.  0.  0.
148  1.47  0.  0.  0.
149  1.48  0.  0.  0.
150  1.49  0.  0.  0.
151  1.50  0.  0.  0.
152  1.51  0.  0.  0.
153  1.52  0.  0.  0.
154  1.53  0.  0.  0.
155  1.54  0.  0.  0.
156  1.55  0.  0.  0.
157  1.56  0.  0.  0.
158  1.57  0.  0.  0.
159  1.58  0.  0.  0.
160  1.59  0.  0.  0.
161  1.60  0.  0.  0.
162  1.61  0.  0.  0.
163  1.62  0.  0.  0.
164  1.63  0.  0.  0.
165  1.64  0.  0.  0.
166  1.65  0.  0.  0.
167  1.66  0.  0.  0.
168  1.67  0.  0.  0.
169  1.68  0.  0.  0.
170  1.69  0.  0.  0.
171  1.70  0.  0.  0.
172  1.71  0.  0.  0.
173  1.72  0.  0.  0.
174  1.73  0.  0.  0.
175  1.74  0.  0.  0.
176  1.75  0.  0.  0.
177  1.76  0.  0.  0.
178  1.77  0.  0.  0.
179  1.78  0.  0.  0.
180  1.79  0.  0.  0.
181  1.80  0.  0.  0.
182  1.81  0.  0.  0.
183  1.82  0.  0.  0.
184  1.83  0.  0.  0.
185  1.84  0.  0.  0.
186  1.85  0.  0.  0.
187  1.86  0.  0.  0.
188  1.87  0.  0.  0.
189  1.88  0.  0.  0.
190  1.89  0.  0.  0.
191  1.90  0.  0.  0.
192  1.91  0.  0.  0.
193  1.92  0.  0.  0.
194  1.93  0.  0.  0.
195  1.94  0.  0.  0.
196  1.95  0.  0.  0.
197  1.96  0.  0.  0.
198  1.97  0.  0.  0.
199  1.98  0.  0.  0.
200  1.99  0.  0.  0.
201  2.00  0.  0.  0.
202  2.01  0.  0.  0.
203  2.02  0.  0.  0.
204  2.03  0.  0.  0.
205  2.04  0.  0.  0.
206  2.05  0.  0.  0.
207  2.06  0.  0.  0.
208  2.07  0.  0.  0.
209  2.08  0.  0.  0.
210  2.09  0.  0.  0.
211  2.10  0.  0.  0.
212  2.11  0.  0.  0.
213  2.12  0.  0.  0.
214  2.13  0.  0.  0.
215  2.14  0.  0.  0.
216  2.15  0.  0.  0.
217  2.16  0.  0.  0.
218  2.17  0.  0.  0.
219  2.18  0.  0.  0.
220  2.19  0.  0.  0.
221  2.20  0.  0.  0.
222  2.21  0.  0.  0.
223  2.22  0.  0.  0.
224  2.23  0.  0.  0.
225  2.24  0.  0.  0.
226  2.25  0.  0.  0.
227  2.26  0.  0.  0.
228  2.27  0.  0.  0.
229  2.28  0.  0.  0.
230  2.29  0.  0.  0.
231  2.30  0.  0.  0.
232  2.31  0.  0.  0.
233  2.32  0.  0.  0.
234  2.33  0.  0.  0.
235  2.34  0.  0.  0.
236  2.35  0.  0.  0.
237  2.36  0.  0.  0.
238  2.37  0.  0.  0.
239  2.38  0.  0.  0.
240  2.39  0.  0.  0.
241  2.40  0.  0.  0.
242  2.41  0.  0.  0.
243  2.42  0.  0.  0.
244  2.43  0.  0.  0.
245  2.44  0.  0.  0.
246  2.45  0.  0.  0.
247  2.46  0.  0.  0.
248  2.47  0.  0.  0.
249  2.48  0.  0.  0.
250  2.49  0.  0.  0.
251  2.50  0.  0.  0.
252  2.51  0.  0.  0.
253  2.52  0.  0.  0.
254  2.53  0.  0.  0.
255  2.54  0.  0.  0.
256  2.55  0.  0.  0.
257  2.56  0.  0.  0.
258  2.57  0.  0.  0.
259  2.58  0.  0.  0.
260  2.59  0.  0.  0.
261  2.60  0.  0.  0.
262  2.61  0.  0.  0.
263  2.62  0.  0.  0.
264  2.63  0.  0.  0.
265  2.64  0.  0.  0.
266  2.65  0.  0.  0.
267  2.66  0.  0.  0.
268  2.67  0.  0.  0.
269  2.68  0.  0.  0.
270  2.69  0.  0.  0.
271  2.70  0.  0.  0.
272  2.71  0.  0.  0.
273  2.72  0.  0.  0.
274  2.73  0.  0.  0.
275  2.74  0.  0.  0.
276  2.75  0.  0.  0.
277  2.76  0.  0.  0.
278  2.77  0.  0.  0.
279  2.78  0.  0.  0.
280  2.79  0.  0.  0.
281  2.80  0.  0.  0.
282  2.81  0.  0.  0.
283  2.82  0.  0.  0.
284  2.83  0.  0.  0.
285  2.84  0.  0.  0.
286  2.85  0.  0.  0.
287  2.86  0.  0.  0.
288  2.87  0.  0.  0.
289  2.88  0.  0.  0.
290  2.89  0.  0.  0.
291  2.90  0.  0.  0.
292  2.91  0.  0.  0.
293  2.92  0.  0.  0.
294  2.93  0.  0.  0.
295  2.94  0.  0.  0.
296  2.95  0.  0.  0.
297  2.96  0.  0.  0.
298  2.97  0.  0.  0.
299  2.98  0.  0.  0.
300  2.99  0.  0.  0.
301  3.00  0.  0.  0.
302  3.01  0.  0.  0.
303  3.02  0.  0.  0.
304  3.03  0.  0.  0.
305  3.04  0.  0.  0.
306  3.05  0.  0.  0.
307  3.06  0.  0.  0.
308  3.07  0.  0.  0.
309  3.08  0.  0.  0.
310  3.09  0.  0.  0.
311  3.10  0.  0.  0.
312  3.11  0.  0.  0.
313  3.12  0.  0.  0.
314  3.13  0.  0.  0.
315  3.14  0.  0.  0.
316  3.15  0.  0.  0.
317  3.16  0.  0.  0.
318  3.17  0.  0.  0.
319  3.18  0.  0.  0.
320  3.19  0.  0.  0.
321  3.20  0.  0.  0.
322  3.21  0.  0.  0.
323  3.22  0.  0.  0.
324  3.23  0.  0.  0.
325  3.24  0.  0.  0.
326  3.25  0.  0.  0.
327  3.26  0.  0.  0.
328  3.27  0.  0.  0.
329  3.28  0.  0.  0.
330  3.29  0.  0.  0.
331  3.30  0.  0.  0.
332  3.31  0.  0.  0.
333  3.32  0.  0.  0.
334  3.33  0.  0.  0.
335  3.34  0.  0.  0.
336  3.35  0.  0.  0.
337  3.36  0.  0.  0.
338  3.37  0.  0.  0.
339  3.38  0.  0.  0.
340  3.39  0.  0.  0.
341  3.40  0.  0.  0.
342  3.41  0.  0.  0.
343  3.42  0.  0.  0.
344  3.43  0.  0.  0.
345  3.44  0.  0.  0.
346  3.45  0.  0.  0.
347  3.46  0.  0.  0.
348  3.47  0.  0.  0.
349  3.48  0.  0.  0.
350  3.49  0.  0.  0.
351  3.50  0.  0.  0.
352  3.51  0.  0.  0.
353  3.52  0.  0.  0.
354  3.53  0.  0.  0.
355  3.54  0.  0.  0.
356  3.55  0.  0.  0.
357  3.56  0.  0.  0.
358  3.57  0.  0.  0.
359  3.58  0.  0.  0.
360  3.59  0.  0.  0.
361  3.60  0.  0.  0.
362  3.61  0.  0.  0.
363  3.62  0.  0.  0.
364  3.63  0.  0.  0.
365  3.64  0.  0.  0.
366  3.65  0.  0.  0.
367  3.66  0.  0.  0.
368  3.67  0.  0.  0.
369  3.68  0.  0.  0.
370  3.69  0.  0.  0.
371  3.70  0.  0.  0.
372  3.71  0.  0.  0.
373  3.72  0.  0.  0.
374  3.73  0.  0.  0.
375  3.74  0.  0.  0.
376  3.75  0.  0.  0.
377  3.76  0.  0.  0.
378  3.77  0.  0.  0.
379  3.78  0.  0.  0.
380  3.79  0.  0.  0.
381  3.80  0.  0.  0.
382  3.81  0.  0.  0.
383  3.82  0.  0.  0.
384  3.83  0.  0.  0.
385  3.84  0.  0.  0.
386  3.85  0.  0.  0.
387  3.86  0.  0.  0.
388  3.87  0.  0.  0.
389  3.88  0.  0.  0.
390  3.89  0.  0.  0.
391  3.90  0.  0.  0.
392  3.91  0.  0.  0.
393  3.92  0.  0.  0.
394  3.93  0.  0.  0.
395  3.94  0.  0.  0.
396  3.95  0.  0.  0.
397  3.96  0.  0.  0.
398  3.97  0.  0.  0.
399  3.98  0.  0.  0.
400  3.99  0.  0.  0.
401  4.00  0.  0.  0.
402  4.01  0.  0.  0.
403  4.02  0.  0.  0.
404  4.03  0.  0.  0.
405  4.04  0.  0.  0.
406  4.05  0.  0.  0.
407  4.06  0.  0.  0.
408  4.07  0.  0.  0.
409  4.08  0.  0.  0.
410  4.09  0.  0.  0.
411  4.10  0.  0.  0.
412  4.11  0.  0.  0.
413  4.12  0.  0.  0.
414  4.13  0.  0.  0.
415  4.14  0.  0.  0.
416  4.15  0.  0.  0.
417  4.16  0.  0.  0.
418  4.17  0.  0.  0.
419  4.18  0.  0.  0.
420  4.19  0.  0.  0.
421  4.20  0.  0.  0.
422  4.21  0.  0.  0.
423  4.22  0.  0.  0.
424  4.23  0.  0.  0.
425  4.24  0.  0.  0.
426  4.25  0.  0.  0.
427  4.26  0.  0.  0.
428  4.27  0.  0.  0.
429  4.28  0.  0.  0.
430  4.29  0.  0.  0.
431  4.30  0.  0.  0.
432  4.31  0.  0.  0.
433  4.32  0.  0.  0.
434  4.33  0.  0.  0.
435  4.34  0.  0.  0.
436  4.35  0.  0.  0.
437  4.36  0.  0.  0.
438  4.37  0.  0.  0.
439  4.38  0.  0.  0.
440  4.39  0.  0.  0.
441  4.40  0.  0.  0.
442  4.41  0.  0.  0.
443  4.42  0.  0.  0.
444  4.43  0.  0.  0.
445  4.44  0.  0.  0.
446  4.45  0.  0.  0.
447  4.46  0.  0.  0.
448  4.47  0.  0.  0.
449  4.48  0.  0.  0.
450  4.49  0.  0.  0.
451  4.50  0.  0.  0.
452  4.51  0.  0.  0.
453  4.52  0.  0.  0.
454  4.53  0.  0.  0.
455  4.54  0.  0.  0.
456  4.55  0.  0.  0.
457  4.56  0.  0.  0.
458  4.57  0.  0.  0.
459  4.58  0.  0.  0.
460  4.59  0.  0.  0.
461  4.60  0.  0.  0.
462  4.61  0.  0.  0.
463  4.62  0.  0.  0.
464  4.63  0.  0.  0.
465  4.64  0.  0.  0.
466  4.65  0.  0.  0.
467  4.66  0.  0.  0.
468  4.67  0.  0.  0.
469  4.68  0.  0.  0.
470  4.69  0.  0.  0.
471  4.70  0.  0.  0.
472  4.71  0.  0.  0.
473  4.72  0.  0.  0.
474  4.73  0.  0.  0.
475  4.74  0.  0.  0.
476  4.75  0.  0.  0.
477  4.76  0.  0.  0.
478  4.77  0.  0.  0.
479  4.78  0.  0.  0.
480  4.79  0.  0.  0.
481  4.80  0.  0.  0.
482  4.81  0.  0.  0.
483  4.82  0.  0.  0.
484  4.83  0.  0.  0.
485  4.84  0.  0.  0.
486  4.85  0.  0.  0.
487  4.86  0.  0.  0.
488  4.87  0.  0.  0.
489  4.88  0.  0.  0.
490  4.89  0.  0.  0.
491  4.90  0.  0.  0.
492  4.91  0.  0.  0.
493  4.92  0.  0.  0.
494  4.93  0.  0.  0.
495  4.94  0.  0.  0.
496  4.95  0.  0.  0.
497  4.96  0.  0.  0.
498  4.97  0.  0.  0.
499  4.98  0.  0.  0.
500  4.99  0.  0.  0.
501  5.00  0.  0.  0.
502  5.01  0.  0.  0.
503  5.02  0.  0.  0.
504  5.03  0.  0.  0.
505  5.04  0.  0.  0.
506  5.05  0.  0.  0.
507  5.06  0.  0.  0.
508  5.07  0.  0.  0.
509  5.08  0.  0.  0.
510  5.09  0.  0.  0.
511  5.10  0.  0.  0.
512  5.11  0.  0.  0.
513  5.12  0.  0.  0.
514  5.13  0.  0.  0.
515  5.14  0.  0.  0.
516  5.15  0.  0.  0.
517  5.16  0.  0.  0.
518  5.17  0.  0.  0.
519  5.18  0.  0.  0.
520  5.19  0.  0.  0.
521  5.20  0.  0.  0.
522  5.21  0.  0.  0.
523  5.22  0.  0.  0.
524  5.23  0.  0.  0.
525  5.24  0.  0.  0.
526  5.25  0.  0.  0.
527  5.26  0.  0.  0.
528  5.27  0.  0.  0.
529  5.28  0.  0.  0.
530  5.29  0.  0.  0.
531  5.30  0.  0.  0.
532  5.31  0.  0.  0.
533  5.32  0.  0.  0.
534  5.33  0.  0.  0.
535  5.34  0.  0.  0.
536  5.35  0.  0.  0.
537  5.36  0.  0.  0.
538  5.37  0.  0.  0.
539  5.38  0.  0.  0.
540  5.39  0.  0.  0.
541  5.40  0.  0.  0.
542  5.41  0.  0.  0.
543  5.42  0.  0.  0.
544  5.43  0.  0.  0.
545  5.44  0.  0.  0.
546  5.45  0.  0.  0.
547  5.46  0.  0.  0.
548  5.47  0.  0.  0.
549  5.48  0.  0.  0.
550  5.49  0.  0.  0.
551  5.50  0.  0.  0.
552  5.51  0.  0.  0.
553  5.52  0.  0.  0.
554  5.53  0.  0.  0.
555  5.54  0.  0.  0.
556  5.55  0.  0.  0.
557  5.56  0.  0.  0.
558  5.57  0.  0.  0.
559  5.58  0.  0.  0.
560  5.59  0.  0.  0.
561  5.60  0.  0.  0.
562  5.61  0.  0.  0.
563  5.62  0.  0.  0.
564  5.63  0.  0.  0.
565  5.64  0.  0.  0.
566  5.65  0.  0.  0.
567  5.66  0.  0.  0.
568  5.67  0.  0.  0.
569  5.68  0.  0.  0.
570  5.69  0.  0.  0.
571  5.70  0.  0.  0.
572  5.71  0.  0.  0.
573  5.72  0.  0.  0.
574  5.73  0.  0.  0.
575  5.74  0.  0.  0.
576  5.75  0.  0.  0.
577  5.76  0.  0.  0.
578  5.77  0.  0.  0.
579  5.78  0.  0.  0.
580  5.79  0.  0.  0.
581  5.80  0.  0.  0.
582  5.81  0.  0.  0.
583  5.82  0.  0.  0.
584  5.83  0.  0.  0.
585  5.84  0.  0.  0.
586  5.85  0.  0.  0.
587  5.86  0.  0.  0.
588  5.87  0.  0.  0.
589  5.88  0.  0.  0.
590  5.89  0.  0.  0.
591  5.90  0.  0.  0.
592  5.91  0.  0.  0.
593  5.92  0.  0.  0.
594  5.93  0.  0.  0.
595  5.94  0.  0.  0.
596  5.95  0.  0.  0.
597  5.96  0.  0.  0.
598  5.97  0.  0.  0.
599  5.98  0.  0.  0.
600  5.99  0.  0.  0.
1                        -6.7984753976220E+00  2.2768772493290E+00
1  0.0000000000000E+00  1.4082168930951E-08  2.0537749850780E-07
2  1.0000000000000E-02  2.2998727310079E-03 -4.0453010291582E-04
3  2.0000000000000E-02  9.1807028324929E-03 -1.6897754828307E-03
4  3.0000000000000E-02  2.0586450937443E-02 -4.0671173309962E-03
5  4.0000000000000E-02  3.6424791383593E-02 -7.8770578807709E-03
6  5.0000000000000E-02  5.6568688392755E-02 -1.3572029422603E-02
7  6.0000000000000E-02  8.0858536494477E-02 -2.1693323494680E-02
8  7.0000000000000E-02  1.0910480186255E-01 -3.2843089305802E-02
9  8.0000000000000E-02  1.4109108715076E-01 -4.7652555824563E-02
10  9.0000000000000E-02  1.7657753112880E-01 -6.6747791584825E-02
11  1.0000000000000E-01  2.1530444632589E-01 -9.0714423740341E-02
12  1.1000000000000E-01  2.5699609326240E-01 -1.2006278892571E-01
13  1.2000000000000E-01  3.0136448882966E-01 -1.5519498093246E-01
14  1.3000000000000E-01  3.4811314897040E-01 -1.9637519427392E-01
15  1.4000000000000E-01  3.9694067188426E-01 -2.4370464087015E-01
16  1.5000000000000E-01  4.4754407727018E-01 -2.9710214400890E-01
17  1.6000000000000E-01  4.9962182923601E-01 -3.5629129612506E-01
18  1.7000000000000E-01  5.5287648496347E-01 -4.2079481323921E-01
19  1.8000000000000E-01  6.0701692743730E-01 -4.8993643898724E-01
20  1.9000000000000E-01  6.6176015788843E-01 -5.6285045598240E-01
21  2.0000000000000E-01  7.1683264138227E-01 -6.3849856332923E-01
22  2.1000000000000E-01  7.7197121651081E-01 -7.1569358817421E-01
23  2.2000000000000E-01  8.2692359674276E-01 -7.9312922766857E-01
24  2.3000000000000E-01  8.8144850600969E-01 -8.6941477634489E-01
25  2.4000000000000E-01  9.3531550398527E-01 -9.4311359223107E-01
26  2.5000000000000E-01  9.8830456676277E-01 -1.0127839010889E+00
27  2.6000000000000E-01  1.0402054958723E+00 -1.0770204381767E+00
28  2.7000000000000E-01  1.0908172325444E+00 -1.1344953850260E+00
29  2.8000000000000E-01  1.1399471546907E+00 -1.1839970767794E+00
30  2.9000000000000E-01  1.1874104312419E+00 -1.2244650332145E+00
31  3.0000000000000E-01  1.2330295023973E+00 -1.2550200009414E+00
32  3.1000000000000E-01  1.2766337452716E+00 -1.2749878804285E+00
33  3.2000000000000E-01  1.3180593727590E+00 -1.2839166425088E+00
34  3.3000000000000E-01  1.3571495996637E+00 -1.2815856060730E+00
35  3.4000000000000E-01  1.3937550948532E+00 -1.2680067415873E+00
36  3.5000000000000E-01  1.4277347220012E+00 -1.2434179726215E+00
37  3.6000000000000E-01  1.4589565550918E+00 -1.2082687578892E+00
38  3.7000000000000E-01  1.4872991389275E+00 -1.1631985373276E+00
39  3.8000000000000E-01  1.5126529501047E+00 -1.1090089057422E+00
40  3.9000000000000E-01  1.5349220009031E+00 -1.0466306254961E+00
41  4.0000000000000E-01  1.5540255178633E+00 -9.7708679577336E-01
42  4.1000000000000E-01  1.5698996189464E+00 -9.0145365180074E-01
43  4.2000000000000E-01  1.5824989084682E+00 -8.2082056661341E-01
44  4.3000000000000E-01  1.5917979077052E+00 -7.3625086619352E-01
45  4.4000000000000E-01  1.5977922412956E+00 -6.4874504407594E-01
46  4.5000000000000E-01  1.6004995052752E+00 -5.5920787417664E-01
47  4.6000000000000E-01  1.5999597516259E+00 -4.6842077343400E-01
48  4.7000000000000E-01  1.5962355362783E+00 -3.7702056393673E-01
49  4.8000000000000E-01  1.5894114921683E+00 -2.8548553476380E-01
50  4.9000000000000E-01  1.5795934056792E+00 -1.9412941587704E-01
51  5.0000000000000E-01  1.5669067929765E+00 -1.0310356074250E-01
52  5.1000000000000E-01  1.5514949916856E+00 -1.2407302735329E-02
53  5.2000000000000E-01  1.5335168023368E+00  7.8093884626268E-02
54  5.3000000000000E-01  1.5131437322792E+00  1.6864311912841E-01
55  5.4000000000000E-01  1.4905569116054E+00  2.5956073195400E-01
56  5.5000000000000E-01  1.4659437653581E+00  3.5120804876077E-01
57  5.6000000000000E-01  1.4394945382860E+00  4.4394782253061E-01
58  5.7000000000000E-01  1.4113987771553E+00  5.3810298117622E-01
59  5.8000000000000E-01  1.3818418806932E+00  6.3391546143114E-01
60  5.9000000000000E-01  1.3510018283579E+00  7.3150694221839E-01
61  6.0000000000000E-01  1.3190461961582E+00  8.3084326269500E-01
62  6.1000000000000E-01  1.2861295606909E+00  9.3170421227133E-01
63  6.2000000000000E-01  1.2523913815976E+00  1.0336602144646E+00
64  6.3000000000000E-01  1.2179544380612E+00  1.1360571983840E+00
65  6.4000000000000E-01  1.1829238772356E+00  1.2380106682775E+00
66  6.5000000000000E-01  1.1473869121888E+00  1.3384096523972E+00
67  6.6000000000000E-01  1.1114131847427E+00  1.4359308488327E+00
68  6.7000000000000E-01  1.0750557852629E+00  1.5290629007431E+00
69  6.8000000000000E-01  1.0383528978279E+00  1.6161403404832E+00
70  6.9000000000000E-01  1.0013300161418E+00  1.6953863558881E+00
71  7.0000000000000E-01  9.6400265388979E-01  1.7649631668928E+00
72  7.1000000000000E-01  9.2637945381337E-01  1.8230284707293E+00
73  7.2000000000000E-01  8.8846558333324E-01  1.8677961320658E+00
74  7.3000000000000E-01  8.5026629176310E-01  1.8975990721604E+00
75  7.4000000000000E-01  8.1179049556466E-01  1.9109521578807E+00
76  7.5000000000000E-01  7.7305425411523E-01  1.9066128145385E+00
77  7.6000000000000E-01  7.3408399933787E-01  1.8836370904838E+00
78  7.7000000000000E-01  6.9491938836436E-01  1.8414289880629E+00
79  7.8000000000000E-01  6.5561565906847E-01  1.7797810436755E+00
80  7.9000000000000E-01  6.1624538354891E-01  1.6989043850898E+00
81  8.0000000000000E-01  5.7689953401724E-01  1.5994468098492E+00
82  8.1000000000000E-01  5.3768779845556E-01  1.4824978048005E+00
83  8.2000000000000E-01  4.9873810911085E-01  1.3495798513433E+00
84  8.3000000000000E-01  4.6019537453240E-01  1.2026258198595E+00
85  8.4000000000000E-01  4.2221943448747E-01  1.0439427342221E+00
86  8.5000000000000E-01  3.8498228570777E-01  8.7616266665685E-01
87  8.6000000000000E-01  3.4866465399993E-01  7.0218198744246E-01
88  8.7000000000000E-01  3.1345201378729E-01  5.2509062605567E-01
89  8.8000000000000E-01  2.7953017867715E-01  3.4809338426578E-01
90  8.9000000000000E-01  2.4708060529449E-01  1.7442566261499E-01
91  9.0000000000000E-01  2.1627556663498E-01  7.2662068729164E-03
92  9.1000000000000E-01  1.8727335996061E-01 -1.5035035994062E-01
93  9.2000000000000E-01  1.6021371735984E-01 -2.9561838899898E-01
94  9.3000000000000E-01  1.3521358427961E-01 -4.2604064221006E-01
95  9.4000000000000E-01  1.1236342257664E-01 -5.3949964693431E-01
96  9.5000000000000E-01  9.1724180107260E-02 -6.3431852964228E-01
97  9.6000000000000E-01  7.3325048961426E-02 -7.0930920716260E-01
98  9.7000000000000E-01  5.7162109744919E-02 -7.6380621263477E-01
99  9.8000000000000E-01  4.3197930572269E-02 -7.9768490016849E-01
100  9.9000000000000E-01  3.1362157599357E-02 -8.1136329201773E-01
101  1.0000000000000E+00  2.1553100034087E-02 -8.0578738780847E-01
102  1.0100000000000E+00  1.3640277797800E-02 -7.8240032754877E-01
103  1.0200000000000E+00  7.4678655074262E-03 -7.4309636999789E-01
104  1.0300000000000E+00  2.8589334893201E-03 -6.9016119429135E-01
105  1.0400000000000E+00 -3.7964372838148E-04 -6.2620053639336E-01
106  1.0500000000000E+00 -2.4517675042201E-03 -5.5405961531351E-01
107  1.0600000000000E+00 -3.5663614984007E-03 -4.7673616936722E-01
108  1.0700000000000E+00 -3.9314782568536E-03 -3.9729019717065E-01
109  1.0800000000000E+00 -3.7484582869707E-03 -3.1875347186083E-01
110  1.0900000000000E+00 -3.2064508579398E-03 -2.4404391622306E-01
111  1.1000000000000E+00 -2.4722125761362E-03 -1.7579189980747E-01
112  1.1100000000000E+00 -1.6827223282586E-03 -1.1619885915688E-01
113  1.1200000000000E+00 -9.7370083611013E-04 -6.7572773233295E-02
114  1.1300000000000E+00 -4.3736558709698E-04 -3.1571441740545E-02
115  1.1400000000000E+00 -1.1584682749987E-04 -9.0500301481776E-03
116  1.1500000000000E+00 -3.6379442639198E-06 -3.2789185341489E-04
117  1.1600000000000E+00 -3.5041686505883E-07 -3.0693044902244E-05
118  1.1700000000000E+00  8.6910570978586E-08  7.2026693387021E-06
119  1.18  0.  0.
120  1.19  0.  0.
121  1.20  0.  0.
122  1.21  0.  0.
123  1.22  0.  0.
124  1.23  0.  0.
125  1.24  0.  0.
126  1.25  0.  0.
127  1.26  0.  0.
128  1.27  0.  0.
129  1.28  0.  0.
130  1.29  0.  0.
131  1.30  0.  0.
132  1.31  0.  0.
133  1.32  0.  0.
134  1.33  0.  0.
135  1.34  0.  0.
136  1.35  0.  0.
137  1.36  0.  0.
138  1.37  0.  0.
139  1.38  0.  0.
140  1.39  0.  0.
141  1.40  0.  0.
142  1.41  0.  0.
143  1.42  0.  0.
144  1.43  0.  0.
145  1.44  0.  0.
146  1.45  0.  0.
147  1.46  0.  0.
148  1.47  0.  0.
149  1.48  0.  0.
150  1.49  0.  0.
151  1.50  0.  0.
152  1.51  0.  0.
153  1.52  0.  0.
154  1.53  0.  0.
155  1.54  0.  0.
156  1.55  0.  0.
157  1.56  0.  0.
158  1.57  0.  0.
159  1.58  0.  0.
160  1.59  0.  0.
161  1.60  0.  0.
162  1.61  0.  0.
163  1.62  0.  0.
164  1.63  0.  0.
165  1.64  0.  0.
166  1.65  0.  0.
167  1.66  0.  0.
168  1.67  0.  0.
169  1.68  0.  0.
170  1.69  0.  0.
171  1.70  0.  0.
172  1.71  0.  0.
173  1.72  0.  0.
174  1.73  0.  0.
175  1.74  0.  0.
176  1.75  0.  0.
177  1.76  0.  0.
178  1.77  0.  0.
179  1.78  0.  0.
180  1.79  0.  0.
181  1.80  0.  0.
182  1.81  0.  0.
183  1.82  0.  0.