Bh    ONCVPSP-4.0.1  r_core=   1.10207   1.20554   1.10207   1.20554
107.0000     47.0000      231012    zatom,zion,pspd
8 -116133   3     4   600     0    pspcod,pspxc,lmax,lloc,mmax,r2well
5.99000000  3.00000000  0.00000000    rchrg fchrg qchrg
3     2     2     2     0    nproj
1     1           extension_switch
0                         1.2096489895427E+01 -1.1845232201404E+01 -2.0683629967575E-01
1  0.0000000000000E+00 -3.9683560881798E-09  6.7429395400609E-11  8.4282637147215E-08
2  1.0000000000000E-02  1.8330778551258E-01  6.6013171521729E-02 -5.7511145762680E-02
3  2.0000000000000E-02  3.6487569817178E-01  1.3192625501155E-01 -1.1358482729502E-01
4  3.0000000000000E-02  5.4298301536217E-01  1.9763904260061E-01 -1.6682609375095E-01
5  4.0000000000000E-02  7.1594709756848E-01  2.6305109096775E-01 -2.1592389478546E-01
6  5.0000000000000E-02  8.8214188710611E-01  3.2806161415573E-01 -2.5969023570735E-01
7  6.0000000000000E-02  1.0400157573608E+00  3.9256938900460E-01 -2.9709603634562E-01
8  7.0000000000000E-02  1.1881084996494E+00  4.5647267734412E-01 -3.2730269189346E-01
9  8.0000000000000E-02  1.3250672387834E+00  5.1966916902035E-01 -3.4968841827628E-01
10  9.0000000000000E-02  1.4496610743858E+00  5.8205594973134E-01 -3.6386857096475E-01
11  1.0000000000000E-01  1.5607942535423E+00  6.4352949750629E-01 -3.6970925477805E-01
12  1.1000000000000E-01  1.6575176919979E+00  7.0398571147112E-01 -3.6733369277198E-01
13  1.2000000000000E-01  1.7390386763541E+00  7.6331997629237E-01 -3.5712099383989E-01
14  1.3000000000000E-01  1.8047285989658E+00  8.2142726537251E-01 -3.3969714936330E-01
15  1.4000000000000E-01  1.8541286007463E+00  8.7820228547529E-01 -3.1591829637517E-01
16  1.5000000000000E-01  1.8869530249224E+00  9.3353966498612E-01 -2.8684650438859E-01
17  1.6000000000000E-01  1.9030906167994E+00  9.8733418745555E-01 -2.5371857033658E-01
18  1.7000000000000E-01  1.9026034404118E+00  1.0394810714360E+00 -2.1790853492248E-01
19  1.8000000000000E-01  1.8857235219328E+00  1.0898762969048E+00 -1.8088485708434E-01
20  1.9000000000000E-01  1.8528472710344E+00  1.1384169777808E+00 -1.4416339344690E-01
21  2.0000000000000E-01  1.8045277739696E+00  1.1850017791917E+00 -1.0925751826084E-01
22  2.1000000000000E-01  1.7414650947500E+00  1.2295313772611E+00 -7.7626877930552E-02
23  2.2000000000000E-01  1.6644947620392E+00  1.2719089582579E+00 -5.0626394515060E-02
24  2.3000000000000E-01  1.5745746578449E+00  1.3120407530241E+00 -2.9457206877898E-02
25  2.4000000000000E-01  1.4727705583200E+00  1.3498366016801E+00 -1.5121259825351E-02
26  2.5000000000000E-01  1.3602406055877E+00  1.3852105427282E+00 -8.3812154542708E-03
27  2.6000000000000E-01  1.2382190112467E+00  1.4180814198583E+00 -9.7272637236812E-03
28  2.7000000000000E-01  1.1079993060264E+00  1.4483734990287E+00 -1.9352249859490E-02
29  2.8000000000000E-01  9.7091745517053E-01  1.4760170877760E+00 -3.7136315964293E-02
30  2.9000000000000E-01  8.2833515503426E-01  1.5009491482162E+00 -6.2641977061102E-02
31  3.0000000000000E-01  6.8162361297253E-01  1.5231138948624E+00 -9.5120224418303E-02
32  3.1000000000000E-01  5.3214809010203E-01  1.5424633682097E+00 -1.3352788054961E-01
33  3.2000000000000E-01  3.8125345556939E-01  1.5589579750425E+00 -1.7655603237862E-01
34  3.3000000000000E-01  2.3025096253817E-01  1.5725669866107E+00 -2.2266895532905E-01
35  3.4000000000000E-01  8.0406411549849E-02  1.5832689861947E+00 -2.7015252680109E-01
36  3.5000000000000E-01 -6.7070182158634E-02  1.5910522581401E+00 -3.1717072891444E-01
37  3.6000000000000E-01 -2.1103335253093E-01  1.5959151111803E+00 -3.6182847423420E-01
38  3.7000000000000E-01 -3.5040936529052E-01  1.5978661297584E+00 -4.0223867087704E-01
39  3.8000000000000E-01 -4.8420185773536E-01  1.5969243481040E+00 -4.3659119029092E-01
40  3.9000000000000E-01 -6.1149602163700E-01  1.5931193429812E+00 -4.6322122577973E-01
41  4.0000000000000E-01 -7.3146145712776E-01  1.5864912422780E+00 -4.8067444371167E-01
42  4.1000000000000E-01 -8.4335386021696E-01  1.5770906479326E+00 -4.8776634044600E-01
43  4.2000000000000E-01 -9.4651573264567E-01  1.5649784730403E+00 -4.8363333092751E-01
44  4.3000000000000E-01 -1.0403763190582E+00  1.5502256943439E+00 -4.6777331022486E-01
45  4.4000000000000E-01 -1.1244509822437E+00  1.5329130226294E+00 -4.4007374343283E-01
46  4.5000000000000E-01 -1.1983402222500E+00  1.5131304948066E+00 -4.0082574443907E-01
47  4.6000000000000E-01 -1.2617285297426E+00  1.4909769926142E+00 -3.5072308807570E-01
48  4.7000000000000E-01 -1.3143832388033E+00  1.4665596939309E+00 -2.9084564724590E-01
49  4.8000000000000E-01 -1.3561535106356E+00  1.4399934635617E+00 -2.2262733753549E-01
50  4.9000000000000E-01 -1.3869695389667E+00  1.4114001910974E+00 -1.4780926465817E-01
51  5.0000000000000E-01 -1.4068420222896E+00  1.3809080839889E+00 -6.8379381008829E-02
52  5.1000000000000E-01 -1.4158618997030E+00  1.3486509243311E+00  1.3499458199973E-02
53  5.2000000000000E-01 -1.4142002984086E+00  1.3147672980144E+00  9.5570616066980E-02
54  5.3000000000000E-01 -1.4021085944052E+00  1.2793998048699E+00  1.7557109186778E-01
55  5.4000000000000E-01 -1.3799184460344E+00  1.2426942582227E+00  2.5132199468088E-01
56  5.5000000000000E-01 -1.3480416250801E+00  1.2047988818816E+00  3.2081858689534E-01
57  5.6000000000000E-01 -1.3069694441454E+00  1.1658635120635E+00  3.8231629693244E-01
58  5.7000000000000E-01 -1.2572715637068E+00  1.1260388110842E+00  4.3440912569596E-01
59  5.8000000000000E-01 -1.1995939587886E+00  1.0854754988827E+00  4.7609704089502E-01
60  5.9000000000000E-01 -1.1346558343393E+00  1.0443236076077E+00  5.0683926621637E-01
61  6.0000000000000E-01 -1.0632453002456E+00  1.0027317636126E+00  5.2659082115392E-01
62  6.1000000000000E-01 -9.8621365105416E-01  9.6084650030958E-01  5.3582023914116E-01
63  6.2000000000000E-01 -9.0446814084225E-01  9.1881160446030E-01  5.3550706788991E-01
64  6.3000000000000E-01 -8.1896319868956E-01  8.7676749765233E-01  5.2711851303683E-01
65  6.4000000000000E-01 -7.3069009275714E-01  8.3485065395941E-01  5.1256539661676E-01
66  6.5000000000000E-01 -6.4066511854019E-01  7.9319305413082E-01  4.9413843467838E-01
67  6.6000000000000E-01 -5.4991645658066E-01  7.5192167612096E-01  4.7442666062950E-01
68  6.7000000000000E-01 -4.5946991373131E-01  7.1115802136960E-01  4.5622059900185E-01
69  6.8000000000000E-01 -3.7033382681220E-01  6.7101767598509E-01  4.4240349528713E-01
70  6.9000000000000E-01 -2.8348346509972E-01  6.3160990587157E-01  4.3583450026263E-01
71  7.0000000000000E-01 -1.9984531564065E-01  5.9303728487463E-01  4.3922816415209E-01
72  7.1000000000000E-01 -1.2028167032207E-01  5.5539535519054E-01  4.5503489396749E-01
73  7.2000000000000E-01 -4.5575953832392E-02  5.1877231957869E-01  4.8532714905930E-01
74  7.3000000000000E-01  2.3580764437986E-02  4.8324876531746E-01  5.3169608447189E-01
75  7.4000000000000E-01  8.6601644801864E-02  4.4889742032720E-01  5.9516309559759E-01
76  7.5000000000000E-01  1.4301393894017E-01  4.1578294242432E-01  6.7611027497088E-01
77  7.6000000000000E-01  1.9246648737730E-01  3.8396174323817E-01  7.7423317461406E-01
78  7.7000000000000E-01  2.3473456454004E-01  3.5348184888650E-01  8.8851849441096E-01
79  7.8000000000000E-01  2.6972186004472E-01  3.2438280003320E-01  1.0172484148096E+00
80  7.9000000000000E-01  2.9745947276823E-01  2.9669559441362E-01  1.1580322929679E+00
81  8.0000000000000E-01  3.1810189003655E-01  2.7044267527554E-01  1.3078653825512E+00
82  8.1000000000000E-01  3.3192002431455E-01  2.4563796942292E-01  1.4632131595272E+00
83  8.2000000000000E-01  3.3929148019739E-01  2.2228697863805E-01  1.6201187824531E+00
84  8.3000000000000E-01  3.4068832126200E-01  2.0038692817833E-01  1.7743302290274E+00
85  8.4000000000000E-01  3.3666269542452E-01  1.7992697578111E-01  1.9214427729998E+00
86  8.5000000000000E-01  3.2783075506171E-01  1.6088848415549E-01  2.0570517355571E+00
87  8.6000000000000E-01  3.1485537084337E-01  1.4324535929327E-01  2.1769098969827E+00
88  8.7000000000000E-01  2.9842818306327E-01  1.2696445609524E-01  2.2770836153401E+00
89  8.8000000000000E-01  2.7925155897281E-01  1.1200605179759E-01  2.3541015891968E+00
90  8.9000000000000E-01  2.5802102770626E-01  9.8324386513510E-02  2.4050903324233E+00
91  9.0000000000000E-01  2.3540874517886E-01  8.5868268902391E-02  2.4278908029848E+00
92  9.1000000000000E-01  2.1204850007190E-01  7.4581743574394E-02  2.4211512369103E+00
93  9.2000000000000E-01  1.8852270983576E-01  6.4404815366361E-02  2.3843920661513E+00
94  9.3000000000000E-01  1.6535177455442E-01  5.5274224126615E-02  2.3180398187151E+00
95  9.4000000000000E-01  1.4298605938461E-01  4.7124262163384E-02  2.2234280764278E+00
96  9.5000000000000E-01  1.2180066660682E-01  3.9887625088456E-02  2.1027648589226E+00
97  9.6000000000000E-01  1.0209304029281E-01  3.3496285469647E-02  1.9590671639921E+00
98  9.7000000000000E-01  8.4083324705219E-02  2.7882377535745E-02  1.7960647737893E+00
99  9.8000000000000E-01  6.7917276612353E-02  2.2979080197543E-02  1.6180767802616E+00
100  9.9000000000000E-01  5.3671416557111E-02  1.8721484895737E-02  1.4298655389440E+00
101  1.0000000000000E+00  4.1359999382426E-02  1.5047434293063E-02  1.2364738780198E+00
102  1.0100000000000E+00  3.0943294388221E-02  1.1898317620985E-02  1.0430523225241E+00
103  1.0200000000000E+00  2.2336594097768E-02  9.2198085883872E-03  8.5468380282049E-01
104  1.0300000000000E+00  1.5419322071312E-02  6.9625344632369E-03  6.7621376041481E-01
105  1.0400000000000E+00  1.0043603102529E-02  5.0826439024471E-03  5.1209370351938E-01
106  1.0500000000000E+00  6.0409073440007E-03  3.5414669327426E-03  3.6625102873302E-01
107  1.0600000000000E+00  3.2316963348417E-03  2.2978904093189E-03  2.4198110246747E-01
108  1.0700000000000E+00  1.4401921684336E-03  1.3311160726848E-03  1.4177647754876E-01
109  1.0800000000000E+00  4.6323603911512E-04  6.3028191336921E-04  6.7459772989569E-02
110  1.0900000000000E+00  6.9457170235018E-05  1.8872394622358E-04  2.0174642940459E-02
111  1.1000000000000E+00 -3.2233891452049E-07  8.2837743394852E-06  8.7809787960861E-04
112  1.1100000000000E+00 -9.7967720271963E-09  5.7473549415874E-07  6.1201151849119E-05
113  1.1200000000000E+00 -1.6946661994227E-08 -1.1517933657378E-07 -1.2295331663342E-05
114  1.13  0.  0.  0.
115  1.14  0.  0.  0.
116  1.15  0.  0.  0.
117  1.16  0.  0.  0.
118  1.17  0.  0.  0.
119  1.18  0.  0.  0.
120  1.19  0.  0.  0.
121  1.20  0.  0.  0.
122  1.21  0.  0.  0.
123  1.22  0.  0.  0.
124  1.23  0.  0.  0.
125  1.24  0.  0.  0.
126  1.25  0.  0.  0.
127  1.26  0.  0.  0.
128  1.27  0.  0.  0.
129  1.28  0.  0.  0.
130  1.29  0.  0.  0.
131  1.30  0.  0.  0.
132  1.31  0.  0.  0.
133  1.32  0.  0.  0.
134  1.33  0.  0.  0.
135  1.34  0.  0.  0.
136  1.35  0.  0.  0.
137  1.36  0.  0.  0.
138  1.37  0.  0.  0.
139  1.38  0.  0.  0.
140  1.39  0.  0.  0.
141  1.40  0.  0.  0.
142  1.41  0.  0.  0.
143  1.42  0.  0.  0.
144  1.43  0.  0.  0.
145  1.44  0.  0.  0.
146  1.45  0.  0.  0.
147  1.46  0.  0.  0.
148  1.47  0.  0.  0.
149  1.48  0.  0.  0.
150  1.49  0.  0.  0.
151  1.50  0.  0.  0.
152  1.51  0.  0.  0.
153  1.52  0.  0.  0.
154  1.53  0.  0.  0.
155  1.54  0.  0.  0.
156  1.55  0.  0.  0.
157  1.56  0.  0.  0.
158  1.57  0.  0.  0.
159  1.58  0.  0.  0.
160  1.59  0.  0.  0.
161  1.60  0.  0.  0.
162  1.61  0.  0.  0.
163  1.62  0.  0.  0.
164  1.63  0.  0.  0.
165  1.64  0.  0.  0.
166  1.65  0.  0.  0.
167  1.66  0.  0.  0.
168  1.67  0.  0.  0.
169  1.68  0.  0.  0.
170  1.69  0.  0.  0.
171  1.70  0.  0.  0.
172  1.71  0.  0.  0.
173  1.72  0.  0.  0.
174  1.73  0.  0.  0.
175  1.74  0.  0.  0.
176  1.75  0.  0.  0.
177  1.76  0.  0.  0.
178  1.77  0.  0.  0.
179  1.78  0.  0.  0.
180  1.79  0.  0.  0.
181  1.80  0.  0.  0.
182  1.81  0.  0.  0.
183  1.82  0.  0.  0.
184  1.83  0.  0.  0.
185  1.84  0.  0.  0.
186  1.85  0.  0.  0.
187  1.86  0.  0.  0.
188  1.87  0.  0.  0.
189  1.88  0.  0.  0.
190  1.89  0.  0.  0.
191  1.90  0.  0.  0.
192  1.91  0.  0.  0.
193  1.92  0.  0.  0.
194  1.93  0.  0.  0.
195  1.94  0.  0.  0.
196  1.95  0.  0.  0.
197  1.96  0.  0.  0.
198  1.97  0.  0.  0.
199  1.98  0.  0.  0.
200  1.99  0.  0.  0.
201  2.00  0.  0.  0.
202  2.01  0.  0.  0.
203  2.02  0.  0.  0.
204  2.03  0.  0.  0.
205  2.04  0.  0.  0.
206  2.05  0.  0.  0.
207  2.06  0.  0.  0.
208  2.07  0.  0.  0.
209  2.08  0.  0.  0.
210  2.09  0.  0.  0.
211  2.10  0.  0.  0.
212  2.11  0.  0.  0.
213  2.12  0.  0.  0.
214  2.13  0.  0.  0.
215  2.14  0.  0.  0.
216  2.15  0.  0.  0.
217  2.16  0.  0.  0.
218  2.17  0.  0.  0.
219  2.18  0.  0.  0.
220  2.19  0.  0.  0.
221  2.20  0.  0.  0.
222  2.21  0.  0.  0.
223  2.22  0.  0.  0.
224  2.23  0.  0.  0.
225  2.24  0.  0.  0.
226  2.25  0.  0.  0.
227  2.26  0.  0.  0.
228  2.27  0.  0.  0.
229  2.28  0.  0.  0.
230  2.29  0.  0.  0.
231  2.30  0.  0.  0.
232  2.31  0.  0.  0.
233  2.32  0.  0.  0.
234  2.33  0.  0.  0.
235  2.34  0.  0.  0.
236  2.35  0.  0.  0.
237  2.36  0.  0.  0.
238  2.37  0.  0.  0.
239  2.38  0.  0.  0.
240  2.39  0.  0.  0.
241  2.40  0.  0.  0.
242  2.41  0.  0.  0.
243  2.42  0.  0.  0.
244  2.43  0.  0.  0.
245  2.44  0.  0.  0.
246  2.45  0.  0.  0.
247  2.46  0.  0.  0.
248  2.47  0.  0.  0.
249  2.48  0.  0.  0.
250  2.49  0.  0.  0.
251  2.50  0.  0.  0.
252  2.51  0.  0.  0.
253  2.52  0.  0.  0.
254  2.53  0.  0.  0.
255  2.54  0.  0.  0.
256  2.55  0.  0.  0.
257  2.56  0.  0.  0.
258  2.57  0.  0.  0.
259  2.58  0.  0.  0.
260  2.59  0.  0.  0.
261  2.60  0.  0.  0.
262  2.61  0.  0.  0.
263  2.62  0.  0.  0.
264  2.63  0.  0.  0.
265  2.64  0.  0.  0.
266  2.65  0.  0.  0.
267  2.66  0.  0.  0.
268  2.67  0.  0.  0.
269  2.68  0.  0.  0.
270  2.69  0.  0.  0.
271  2.70  0.  0.  0.
272  2.71  0.  0.  0.
273  2.72  0.  0.  0.
274  2.73  0.  0.  0.
275  2.74  0.  0.  0.
276  2.75  0.  0.  0.
277  2.76  0.  0.  0.
278  2.77  0.  0.  0.
279  2.78  0.  0.  0.
280  2.79  0.  0.  0.
281  2.80  0.  0.  0.
282  2.81  0.  0.  0.
283  2.82  0.  0.  0.
284  2.83  0.  0.  0.
285  2.84  0.  0.  0.
286  2.85  0.  0.  0.
287  2.86  0.  0.  0.
288  2.87  0.  0.  0.
289  2.88  0.  0.  0.
290  2.89  0.  0.  0.
291  2.90  0.  0.  0.
292  2.91  0.  0.  0.
293  2.92  0.  0.  0.
294  2.93  0.  0.  0.
295  2.94  0.  0.  0.
296  2.95  0.  0.  0.
297  2.96  0.  0.  0.
298  2.97  0.  0.  0.
299  2.98  0.  0.  0.
300  2.99  0.  0.  0.
301  3.00  0.  0.  0.
302  3.01  0.  0.  0.
303  3.02  0.  0.  0.
304  3.03  0.  0.  0.
305  3.04  0.  0.  0.
306  3.05  0.  0.  0.
307  3.06  0.  0.  0.
308  3.07  0.  0.  0.
309  3.08  0.  0.  0.
310  3.09  0.  0.  0.
311  3.10  0.  0.  0.
312  3.11  0.  0.  0.
313  3.12  0.  0.  0.
314  3.13  0.  0.  0.
315  3.14  0.  0.  0.
316  3.15  0.  0.  0.
317  3.16  0.  0.  0.
318  3.17  0.  0.  0.
319  3.18  0.  0.  0.
320  3.19  0.  0.  0.
321  3.20  0.  0.  0.
322  3.21  0.  0.  0.
323  3.22  0.  0.  0.
324  3.23  0.  0.  0.
325  3.24  0.  0.  0.
326  3.25  0.  0.  0.
327  3.26  0.  0.  0.
328  3.27  0.  0.  0.
329  3.28  0.  0.  0.
330  3.29  0.  0.  0.
331  3.30  0.  0.  0.
332  3.31  0.  0.  0.
333  3.32  0.  0.  0.
334  3.33  0.  0.  0.
335  3.34  0.  0.  0.
336  3.35  0.  0.  0.
337  3.36  0.  0.  0.
338  3.37  0.  0.  0.
339  3.38  0.  0.  0.
340  3.39  0.  0.  0.
341  3.40  0.  0.  0.
342  3.41  0.  0.  0.
343  3.42  0.  0.  0.
344  3.43  0.  0.  0.
345  3.44  0.  0.  0.
346  3.45  0.  0.  0.
347  3.46  0.  0.  0.
348  3.47  0.  0.  0.
349  3.48  0.  0.  0.
350  3.49  0.  0.  0.
351  3.50  0.  0.  0.
352  3.51  0.  0.  0.
353  3.52  0.  0.  0.
354  3.53  0.  0.  0.
355  3.54  0.  0.  0.
356  3.55  0.  0.  0.
357  3.56  0.  0.  0.
358  3.57  0.  0.  0.
359  3.58  0.  0.  0.
360  3.59  0.  0.  0.
361  3.60  0.  0.  0.
362  3.61  0.  0.  0.
363  3.62  0.  0.  0.
364  3.63  0.  0.  0.
365  3.64  0.  0.  0.
366  3.65  0.  0.  0.
367  3.66  0.  0.  0.
368  3.67  0.  0.  0.
369  3.68  0.  0.  0.
370  3.69  0.  0.  0.
371  3.70  0.  0.  0.
372  3.71  0.  0.  0.
373  3.72  0.  0.  0.
374  3.73  0.  0.  0.
375  3.74  0.  0.  0.
376  3.75  0.  0.  0.
377  3.76  0.  0.  0.
378  3.77  0.  0.  0.
379  3.78  0.  0.  0.
380  3.79  0.  0.  0.
381  3.80  0.  0.  0.
382  3.81  0.  0.  0.
383  3.82  0.  0.  0.
384  3.83  0.  0.  0.
385  3.84  0.  0.  0.
386  3.85  0.  0.  0.
387  3.86  0.  0.  0.
388  3.87  0.  0.  0.
389  3.88  0.  0.  0.
390  3.89  0.  0.  0.
391  3.90  0.  0.  0.
392  3.91  0.  0.  0.
393  3.92  0.  0.  0.
394  3.93  0.  0.  0.
395  3.94  0.  0.  0.
396  3.95  0.  0.  0.
397  3.96  0.  0.  0.
398  3.97  0.  0.  0.
399  3.98  0.  0.  0.
400  3.99  0.  0.  0.
401  4.00  0.  0.  0.
402  4.01  0.  0.  0.
403  4.02  0.  0.  0.
404  4.03  0.  0.  0.
405  4.04  0.  0.  0.
406  4.05  0.  0.  0.
407  4.06  0.  0.  0.
408  4.07  0.  0.  0.
409  4.08  0.  0.  0.
410  4.09  0.  0.  0.
411  4.10  0.  0.  0.
412  4.11  0.  0.  0.
413  4.12  0.  0.  0.
414  4.13  0.  0.  0.
415  4.14  0.  0.  0.
416  4.15  0.  0.  0.
417  4.16  0.  0.  0.
418  4.17  0.  0.  0.
419  4.18  0.  0.  0.
420  4.19  0.  0.  0.
421  4.20  0.  0.  0.
422  4.21  0.  0.  0.
423  4.22  0.  0.  0.
424  4.23  0.  0.  0.
425  4.24  0.  0.  0.
426  4.25  0.  0.  0.
427  4.26  0.  0.  0.
428  4.27  0.  0.  0.
429  4.28  0.  0.  0.
430  4.29  0.  0.  0.
431  4.30  0.  0.  0.
432  4.31  0.  0.  0.
433  4.32  0.  0.  0.
434  4.33  0.  0.  0.
435  4.34  0.  0.  0.
436  4.35  0.  0.  0.
437  4.36  0.  0.  0.
438  4.37  0.  0.  0.
439  4.38  0.  0.  0.
440  4.39  0.  0.  0.
441  4.40  0.  0.  0.
442  4.41  0.  0.  0.
443  4.42  0.  0.  0.
444  4.43  0.  0.  0.
445  4.44  0.  0.  0.
446  4.45  0.  0.  0.
447  4.46  0.  0.  0.
448  4.47  0.  0.  0.
449  4.48  0.  0.  0.
450  4.49  0.  0.  0.
451  4.50  0.  0.  0.
452  4.51  0.  0.  0.
453  4.52  0.  0.  0.
454  4.53  0.  0.  0.
455  4.54  0.  0.  0.
456  4.55  0.  0.  0.
457  4.56  0.  0.  0.
458  4.57  0.  0.  0.
459  4.58  0.  0.  0.
460  4.59  0.  0.  0.
461  4.60  0.  0.  0.
462  4.61  0.  0.  0.
463  4.62  0.  0.  0.
464  4.63  0.  0.  0.
465  4.64  0.  0.  0.
466  4.65  0.  0.  0.
467  4.66  0.  0.  0.
468  4.67  0.  0.  0.
469  4.68  0.  0.  0.
470  4.69  0.  0.  0.
471  4.70  0.  0.  0.
472  4.71  0.  0.  0.
473  4.72  0.  0.  0.
474  4.73  0.  0.  0.
475  4.74  0.  0.  0.
476  4.75  0.  0.  0.
477  4.76  0.  0.  0.
478  4.77  0.  0.  0.
479  4.78  0.  0.  0.
480  4.79  0.  0.  0.
481  4.80  0.  0.  0.
482  4.81  0.  0.  0.
483  4.82  0.  0.  0.
484  4.83  0.  0.  0.
485  4.84  0.  0.  0.
486  4.85  0.  0.  0.
487  4.86  0.  0.  0.
488  4.87  0.  0.  0.
489  4.88  0.  0.  0.
490  4.89  0.  0.  0.
491  4.90  0.  0.  0.
492  4.91  0.  0.  0.
493  4.92  0.  0.  0.
494  4.93  0.  0.  0.
495  4.94  0.  0.  0.
496  4.95  0.  0.  0.
497  4.96  0.  0.  0.
498  4.97  0.  0.  0.
499  4.98  0.  0.  0.
500  4.99  0.  0.  0.
501  5.00  0.  0.  0.
502  5.01  0.  0.  0.
503  5.02  0.  0.  0.
504  5.03  0.  0.  0.
505  5.04  0.  0.  0.
506  5.05  0.  0.  0.
507  5.06  0.  0.  0.
508  5.07  0.  0.  0.
509  5.08  0.  0.  0.
510  5.09  0.  0.  0.
511  5.10  0.  0.  0.
512  5.11  0.  0.  0.
513  5.12  0.  0.  0.
514  5.13  0.  0.  0.
515  5.14  0.  0.  0.
516  5.15  0.  0.  0.
517  5.16  0.  0.  0.
518  5.17  0.  0.  0.
519  5.18  0.  0.  0.
520  5.19  0.  0.  0.
521  5.20  0.  0.  0.
522  5.21  0.  0.  0.
523  5.22  0.  0.  0.
524  5.23  0.  0.  0.
525  5.24  0.  0.  0.
526  5.25  0.  0.  0.
527  5.26  0.  0.  0.
528  5.27  0.  0.  0.
529  5.28  0.  0.  0.
530  5.29  0.  0.  0.
531  5.30  0.  0.  0.
532  5.31  0.  0.  0.
533  5.32  0.  0.  0.
534  5.33  0.  0.  0.
535  5.34  0.  0.  0.
536  5.35  0.  0.  0.
537  5.36  0.  0.  0.
538  5.37  0.  0.  0.
539  5.38  0.  0.  0.
540  5.39  0.  0.  0.
541  5.40  0.  0.  0.
542  5.41  0.  0.  0.
543  5.42  0.  0.  0.
544  5.43  0.  0.  0.
545  5.44  0.  0.  0.
546  5.45  0.  0.  0.
547  5.46  0.  0.  0.
548  5.47  0.  0.  0.
549  5.48  0.  0.  0.
550  5.49  0.  0.  0.
551  5.50  0.  0.  0.
552  5.51  0.  0.  0.
553  5.52  0.  0.  0.
554  5.53  0.  0.  0.
555  5.54  0.  0.  0.
556  5.55  0.  0.  0.
557  5.56  0.  0.  0.
558  5.57  0.  0.  0.
559  5.58  0.  0.  0.
560  5.59  0.  0.  0.
561  5.60  0.  0.  0.
562  5.61  0.  0.  0.
563  5.62  0.  0.  0.
564  5.63  0.  0.  0.
565  5.64  0.  0.  0.
566  5.65  0.  0.  0.
567  5.66  0.  0.  0.
568  5.67  0.  0.  0.
569  5.68  0.  0.  0.
570  5.69  0.  0.  0.
571  5.70  0.  0.  0.
572  5.71  0.  0.  0.
573  5.72  0.  0.  0.
574  5.73  0.  0.  0.
575  5.74  0.  0.  0.
576  5.75  0.  0.  0.
577  5.76  0.  0.  0.
578  5.77  0.  0.  0.
579  5.78  0.  0.  0.
580  5.79  0.  0.  0.
581  5.80  0.  0.  0.
582  5.81  0.  0.  0.
583  5.82  0.  0.  0.
584  5.83  0.  0.  0.
585  5.84  0.  0.  0.
586  5.85  0.  0.  0.
587  5.86  0.  0.  0.
588  5.87  0.  0.  0.
589  5.88  0.  0.  0.
590  5.89  0.  0.  0.
591  5.90  0.  0.  0.
592  5.91  0.  0.  0.
593  5.92  0.  0.  0.
594  5.93  0.  0.  0.
595  5.94  0.  0.  0.
596  5.95  0.  0.  0.
597  5.96  0.  0.  0.
598  5.97  0.  0.  0.
599  5.98  0.  0.  0.
600  5.99  0.  0.  0.
1                        -1.0259160288997E+01 -2.7176073683349E-01
1  0.0000000000000E+00  3.7552891352099E-09 -5.6731909725549E-08
2  1.0000000000000E-02  2.7939815532731E-03 -5.0888181044630E-03
3  2.0000000000000E-02  1.1155801190061E-02 -2.0270677849916E-02
4  3.0000000000000E-02  2.5025265723762E-02 -4.5293364771804E-02
5  4.0000000000000E-02  4.4302657316326E-02 -7.9741716244709E-02
6  5.0000000000000E-02  6.8849632247028E-02 -1.2304528876173E-01
7  6.0000000000000E-02  9.8490464425704E-02 -1.7448884576946E-01
8  7.0000000000000E-02  1.3301361916097E-01 -2.3322542783371E-01
9  8.0000000000000E-02  1.7217363893866E-01 -2.9829171017949E-01
10  9.0000000000000E-02  2.1569331948807E-01 -3.6862530392997E-01
11  1.0000000000000E-01  2.6326615126400E-01 -4.4308361792833E-01
12  1.1000000000000E-01  3.1455899869416E-01 -5.2046386883602E-01
13  1.2000000000000E-01  3.6921498717115E-01 -5.9952380893087E-01
14  1.3000000000000E-01  4.2685656583453E-01 -6.7900273400852E-01
15  1.4000000000000E-01  4.8708871271071E-01 -7.5764233802390E-01
16  1.5000000000000E-01  5.4950224776992E-01 -8.3420699625042E-01
17  1.6000000000000E-01  6.1367721892223E-01 -9.0750308413929E-01
18  1.7000000000000E-01  6.7918632590410E-01 -9.7639697376856E-01
19  1.8000000000000E-01  7.4559834739003E-01 -1.0398313925807E+00
20  1.9000000000000E-01  8.1248153748081E-01 -1.0968398785872E+00
21  2.0000000000000E-01  8.7940695894231E-01 -1.1465591207711E+00
22  2.1000000000000E-01  9.4595172216504E-01 -1.1882390313392E+00
23  2.2000000000000E-01  1.0117021007462E+00 -1.2212504559831E+00
24  2.3000000000000E-01  1.0762564968203E+00 -1.2450904876438E+00
25  2.4000000000000E-01  1.1392282317390E+00 -1.2593854067103E+00
26  2.5000000000000E-01  1.2002481403742E+00 -1.2638913245262E+00
27  2.6000000000000E-01  1.2589669501500E+00 -1.2584926560667E+00
28  2.7000000000000E-01  1.3150574288435E+00 -1.2431985904556E+00
29  2.8000000000000E-01  1.3682162881942E+00 -1.2181377636013E+00
30  2.9000000000000E-01  1.4181658333721E+00 -1.1835513649041E+00
31  3.0000000000000E-01  1.4646553513460E+00 -1.1397849292726E+00
32  3.1000000000000E-01  1.5074622341170E+00 -1.0872790764189E+00
33  3.2000000000000E-01  1.5463928356105E+00 -1.0265594616983E+00
34  3.3000000000000E-01  1.5812830637200E+00 -9.5822619703176E-01
35  3.4000000000000E-01  1.6119987115423E+00 -8.8294298734535E-01
36  3.5000000000000E-01  1.6384355342182E+00 -8.0142620837393E-01
37  3.6000000000000E-01  1.6605190799716E+00 -7.1443412667142E-01
38  3.7000000000000E-01  1.6782042859219E+00 -6.2275643347704E-01
39  3.8000000000000E-01  1.6914748510112E+00 -5.2720423202212E-01
40  3.9000000000000E-01  1.7003423999409E+00 -4.2860058430200E-01
41  4.0000000000000E-01  1.7048454533509E+00 -3.2777168965494E-01
42  4.1000000000000E-01  1.7050482205972E+00 -2.2553873501086E-01
43  4.2000000000000E-01  1.7010392323986E+00 -1.2271042662792E-01
44  4.3000000000000E-01  1.6929298313359E+00 -2.0076186614216E-02
45  4.4000000000000E-01  1.6808525387057E+00  8.1600024545344E-02
46  4.5000000000000E-01  1.6649593165623E+00  1.8158531516315E-01
47  4.6000000000000E-01  1.6454197439387E+00  2.7918296622267E-01
48  4.7000000000000E-01  1.6224191262318E+00  3.7373710436839E-01
49  4.8000000000000E-01  1.5961565565696E+00  4.6463701598554E-01
50  4.9000000000000E-01  1.5668429476712E+00  5.5132116828646E-01
51  5.0000000000000E-01  1.5346990522626E+00  6.3328099214689E-01
52  5.1000000000000E-01  1.4999534895348E+00  7.1006446582924E-01
53  5.2000000000000E-01  1.4628407944400E+00  7.8127951958788E-01
54  5.3000000000000E-01  1.4235995058078E+00  8.4659725949112E-01
55  5.4000000000000E-01  1.3824703083558E+00  9.0575498576627E-01
56  5.5000000000000E-01  1.3396942426532E+00  9.5855895777633E-01
57  5.6000000000000E-01  1.2955109959963E+00  1.0048868355986E+00
58  5.7000000000000E-01  1.2501572859648E+00  1.0446897082911E+00
59  5.8000000000000E-01  1.2038653471655E+00  1.0779936024274E+00
60  5.9000000000000E-01  1.1568615303377E+00  1.1049003523569E+00
61  6.0000000000000E-01  1.1093650216020E+00  1.1255877067615E+00
62  6.1000000000000E-01  1.0615866881951E+00  1.1403085450742E+00
63  6.2000000000000E-01  1.0137280555558E+00  1.1493890826539E+00
64  6.3000000000000E-01  9.6598041912143E-01  1.1532259554553E+00
65  6.4000000000000E-01  9.1852409268572E-01  1.1522820932466E+00
66  6.5000000000000E-01  8.7152779365514E-01  1.1470813148913E+00
67  6.6000000000000E-01  8.2514816405581E-01  1.1382016092662E+00
68  6.7000000000000E-01  7.7952942469127E-01  1.1262671002336E+00
69  6.8000000000000E-01  7.3480315845843E-01  1.1119387327033E+00
70  6.9000000000000E-01  6.9108821750863E-01  1.0959037580227E+00
71  7.0000000000000E-01  6.4849074771477E-01  1.0788641393707E+00
72  7.1000000000000E-01  6.0710432278853E-01  1.0615240400646E+00
73  7.2000000000000E-01  5.6701017940356E-01  1.0445765982182E+00
74  7.3000000000000E-01  5.2827754383456E-01  1.0286902285188E+00
75  7.4000000000000E-01  4.9096403993355E-01  1.0144947245677E+00
76  7.5000000000000E-01  4.5511616774389E-01  1.0025674619016E+00
77  7.6000000000000E-01  4.2076984170863E-01  9.9342002129195E-01
78  7.7000000000000E-01  3.8795097726809E-01  9.8748556319901E-01
79  7.8000000000000E-01  3.5667611466426E-01  9.8510728657544E-01
80  7.9000000000000E-01  3.2695306897434E-01  9.8652829808307E-01
81  8.0000000000000E-01  2.9878159577853E-01  9.9188320101227E-01
82  8.1000000000000E-01  2.7215406241635E-01  1.0011916868870E+00
83  8.2000000000000E-01  2.4705611549068E-01  1.0143543773485E+00
84  8.3000000000000E-01  2.2346733612029E-01  1.0311511201783E+00
85  8.4000000000000E-01  2.0136187540117E-01  1.0512418923050E+00
86  8.5000000000000E-01  1.8070906359064E-01  1.0741704056544E+00
87  8.6000000000000E-01  1.6147398765072E-01  1.0993704503205E+00
88  8.7000000000000E-01  1.4361803295112E-01  1.1261749454998E+00
89  8.8000000000000E-01  1.2709938610895E-01  1.1538276038474E+00
90  8.9000000000000E-01  1.1187349710290E-01  1.1814970513548E+00
91  9.0000000000000E-01  9.7893499916083E-02  1.2082931845088E+00
92  9.1000000000000E-01  8.5110592005381E-02  1.2332854913292E+00
93  9.2000000000000E-01  7.3474373842313E-02  1.2555230147288E+00
94  9.3000000000000E-01  6.2933150596949E-02  1.2740555971583E+00
95  9.4000000000000E-01  5.3434198723583E-02  1.2879560161192E+00
96  9.5000000000000E-01  4.4924000739724E-02  1.2963426019784E+00
97  9.6000000000000E-01  3.7348451857055E-02  1.2984019234044E+00
98  9.7000000000000E-01  3.0653042319324E-02  1.2934111320966E+00
99  9.8000000000000E-01  2.4783019326376E-02  1.2807595773210E+00
100  9.9000000000000E-01  1.9683532280930E-02  1.2599693317265E+00
101  1.0000000000000E+00  1.5299764794475E-02  1.2307143122305E+00
102  1.0100000000000E+00  1.1577056445879E-02  1.1928377322572E+00
103  1.0200000000000E+00  8.4610167202902E-03  1.1463676827253E+00
104  1.0300000000000E+00  5.8976328892343E-03  1.0915307071542E+00
105  1.0400000000000E+00  3.8333728521725E-03  1.0287633089356E+00
106  1.0500000000000E+00  2.2152831747258E-03  9.5872140382474E-01
107  1.0600000000000E+00  9.9108175722874E-04  8.8228780584755E-01
108  1.0700000000000E+00  1.0924378234604E-04  8.0057790736775E-01
109  1.0800000000000E+00 -4.8092114911516E-04  7.1494378173317E-01
110  1.0900000000000E+00 -8.2920368710277E-04  6.2697702335122E-01
111  1.1000000000000E+00 -9.8444098680217E-04  5.3851026940038E-01
112  1.1100000000000E+00 -9.9442580193645E-04  4.5161184055257E-01
113  1.1200000000000E+00 -9.0433417446049E-04  3.6841390943694E-01
114  1.1300000000000E+00 -7.5407036500102E-04  2.9083507139347E-01
115  1.1400000000000E+00 -5.7738966869850E-04  2.2051479789737E-01
116  1.1500000000000E+00 -4.0154208164520E-04  1.5873631459326E-01
117  1.1600000000000E+00 -2.4768115369310E-04  1.0627932646208E-01
118  1.1700000000000E+00 -1.2928146223225E-04  6.4023269621402E-02
119  1.1800000000000E+00 -5.1600606796754E-05  3.2478868337742E-02
120  1.1900000000000E+00 -1.2035887829525E-05  1.1731288525031E-02
121  1.2000000000000E+00 -4.5588993836827E-07  1.4995095342263E-03
122  1.2100000000000E+00 -2.2042894982446E-08 -9.1916272953878E-05
123  1.2200000000000E+00 -2.5039025340104E-11  6.0124746454603E-07
124  1.23 -0. -0.
125  1.24  0.  0.
126  1.25  0.  0.
127  1.26  0.  0.
128  1.27  0.  0.
129  1.28  0.  0.
130  1.29  0.  0.
131  1.30  0.  0.
132  1.31  0.  0.
133  1.32  0.  0.
134  1.33  0.  0.
135  1.34  0.  0.
136  1.35  0.  0.
137  1.36  0.  0.
138  1.37  0.  0.
139  1.38  0.  0.
140  1.39  0.  0.
141  1.40  0.  0.
142  1.41  0.  0.
143  1.42  0.  0.
144  1.43  0.  0.
145  1.44  0.  0.
146  1.45  0.  0.
147  1.46  0.  0.
148  1.47  0.  0.
149  1.48  0.  0.
150  1.49  0.  0.
151  1.50  0.  0.
152  1.51  0.  0.
153  1.52  0.  0.
154  1.53  0.  0.
155  1.54  0.  0.
156  1.55  0.  0.
157  1.56  0.  0.
158  1.57  0.  0.
159  1.58  0.  0.
160  1.59  0.  0.
161  1.60  0.  0.
162  1.61  0.  0.
163  1.62  0.  0.
164  1.63  0.  0.
165  1.64  0.  0.
166  1.65  0.  0.
167  1.66  0.  0.
168  1.67  0.  0.
169  1.68  0.  0.