Bh    ONCVPSP-4.0.1  r_core=   1.10207   1.20554   1.10207   1.20554
107.0000     47.0000      231012    zatom,zion,pspd
8 -116133   3     4   600     0    pspcod,pspxc,lmax,lloc,mmax,r2well
5.99000000  3.00000000  0.00000000    rchrg fchrg qchrg
3     3     2     2    nproj
3     1           extension_switch
4     4     3    nprojso
0                         1.2288979450299E+01 -1.1640233514360E+01 -1.9778183243556E-01
1  0.0000000000000E+00 -6.2776510656448E-09  9.5239816033654E-11  1.1079410633386E-07
2  1.0000000000000E-02  1.8351009865863E-01  6.5054747219915E-02 -6.4018542227888E-02
3  2.0000000000000E-02  3.6528173330918E-01  1.3001550591115E-01 -1.2640476885965E-01
4  3.0000000000000E-02  5.4359573826954E-01  1.9478812614770E-01 -1.8557494318497E-01
5  4.0000000000000E-02  7.1677131540811E-01  2.5927813979052E-01 -2.4004115478428E-01
6  5.0000000000000E-02  8.8318464644578E-01  3.2339061281601E-01 -2.8845593181308E-01
7  6.0000000000000E-02  1.0412868231971E+00  3.8703001131027E-01 -3.2965297017900E-01
8  7.0000000000000E-02  1.1896208749306E+00  4.5010008558602E-01 -3.6268281498140E-01
9  8.0000000000000E-02  1.3268376783054E+00  5.1250377678326E-01 -3.8684244037727E-01
10  9.0000000000000E-02  1.4517105439654E+00  5.7414315018365E-01 -4.0169781171085E-01
11  1.0000000000000E-01  1.5631482852586E+00  6.3491935929323E-01 -4.0709867731998E-01
12  1.1000000000000E-01  1.6602065890923E+00  6.9473264452206E-01 -4.0318502533307E-01
13  1.2000000000000E-01  1.7420975269920E+00  7.5348237000456E-01 -3.9038485070408E-01
14  1.3000000000000E-01  1.8081970662447E+00  8.1106710175456E-01 -3.6940310651569E-01
15  1.4000000000000E-01  1.8580504666914E+00  8.6738472992794E-01 -3.4120195708394E-01
16  1.5000000000000E-01  1.8913754782478E+00  9.2233263747033E-01 -3.0697270346644E-01
17  1.6000000000000E-01  1.9080632873193E+00  9.7580791685527E-01 -2.6810000846048E-01
18  1.7000000000000E-01  1.9081771965104E+00  1.0277076359703E+00 -2.2611930099166E-01
19  1.8000000000000E-01  1.8919490607338E+00  1.0779291534887E+00 -1.8266848108970E-01
20  1.9000000000000E-01  1.8597735431723E+00  1.1263704832794E+00 -1.3943526800261E-01
21  2.0000000000000E-01  1.8122002954949E+00  1.1729307065656E+00 -9.8101726740543E-02
22  2.1000000000000E-01  1.7499242071162E+00  1.2175104296603E+00 -6.0287663843744E-02
23  2.2000000000000E-01  1.6737739068477E+00  1.2600122841917E+00 -2.7494693289290E-02
24  2.3000000000000E-01  1.5846987357093E+00  1.3003414658149E+00 -1.0528309025685E-03
25  2.4000000000000E-01  1.4837544406449E+00  1.3384063064894E+00  1.7928525583228E-02
26  2.5000000000000E-01  1.3720878642024E+00  1.3741188745290E+00  2.8603437874605E-02
27  2.6000000000000E-01  1.2509209237947E+00  1.4073955958027E+00  3.0424426374021E-02
28  2.7000000000000E-01  1.1215341850758E+00  1.4381578887209E+00  2.3168158470843E-02
29  2.8000000000000E-01  9.8525033658698E-01  1.4663328049935E+00  6.9506141451384E-03
30  2.9000000000000E-01  8.4341786681418E-01  1.4918536676221E+00 -1.7769168449806E-02
31  3.0000000000000E-01  6.9739523010902E-01  1.5146606972027E+00 -5.0197301124563E-02
32  3.1000000000000E-01  5.4853576488828E-01  1.5347016173838E+00 -8.9225338837161E-02
33  3.2000000000000E-01  3.9817359679080E-01  1.5519322302679E+00 -1.3346236098389E-01
34  3.3000000000000E-01  2.4761072203319E-01  1.5663169526578E+00 -1.8127810440983E-01
35  3.4000000000000E-01  9.8105423358103E-02  1.5778293043541E+00 -2.3085597731859E-01
36  3.5000000000000E-01 -4.9137875738313E-02  1.5864523401873E+00 -2.8025437085035E-01
37  3.6000000000000E-01 -1.9297726163021E-01  1.5921790181317E+00 -3.2747431190664E-01
38  3.7000000000000E-01 -3.3234047821403E-01  1.5950124966735E+00 -3.7053118350268E-01
39  3.8000000000000E-01 -4.6623061111383E-01  1.5949663555837E+00 -4.0752799289606E-01
40  3.9000000000000E-01 -5.9373039171492E-01  1.5920647353611E+00 -4.3672750638808E-01
41  4.0000000000000E-01 -7.1400524267476E-01  1.5863423918296E+00 -4.5662050369824E-01
42  4.1000000000000E-01 -8.2630521797347E-01  1.5778446636803E+00 -4.6598744162898E-01
43  4.2000000000000E-01 -9.2996601371748E-01  1.5666273521058E+00 -4.6395095998164E-01
44  4.3000000000000E-01 -1.0244092398292E+00  1.5527565130555E+00 -4.5001691188077E-01
45  4.4000000000000E-01 -1.1091421468736E+00  1.5363081640038E+00 -4.2410195098074E-01
46  4.5000000000000E-01 -1.1837569964438E+00  1.5173679084555E+00 -3.8654615028101E-01
47  4.6000000000000E-01 -1.2479302480536E+00  1.4960304826552E+00 -3.3810964810728E-01
48  4.7000000000000E-01 -1.3014217111105E+00  1.4723992301160E+00 -2.7995289901198E-01
49  4.8000000000000E-01 -1.3440737784365E+00  1.4465855105944E+00 -2.1360073041239E-01
50  4.9000000000000E-01 -1.3758108195077E+00  1.4187080509911E+00 -1.4089104661258E-01
51  5.0000000000000E-01 -1.3966387689619E+00  1.3888922463449E+00 -6.3909655570054E-02
52  5.1000000000000E-01 -1.4066449010867E+00  1.3572694195717E+00  1.5086705283678E-02
53  5.2000000000000E-01 -1.4059977361951E+00  1.3239760489016E+00  9.3756525152254E-02
54  5.3000000000000E-01 -1.3949469823491E+00  1.2891529720564E+00  1.6976577857655E-01
55  5.4000000000000E-01 -1.3738233780489E+00  1.2529445761089E+00  2.4088285129800E-01
56  5.5000000000000E-01 -1.3430382703867E+00  1.2154979816703E+00  3.0507246445687E-01
57  5.6000000000000E-01 -1.3030827406088E+00  1.1769622295872E+00  3.6058483185727E-01
58  5.7000000000000E-01 -1.2545260765527E+00  1.1374874777053E+00  4.0603633479004E-01
59  5.8000000000000E-01 -1.1980133900958E+00  1.0972242145066E+00  4.4047819852336E-01
60  5.9000000000000E-01 -1.1342621881682E+00  1.0563224955681E+00  4.6345000179476E-01
61  6.0000000000000E-01 -1.0640577281016E+00  1.0149312078639E+00  4.7501533707963E-01
62  6.1000000000000E-01 -9.8824702162009E-01  9.7319736596465E-01  4.7577755077658E-01
63  6.2000000000000E-01 -9.0773139560847E-01  9.3126544321288E-01  4.6687420876691E-01
64  6.3000000000000E-01 -8.2345757035687E-01  8.8927674000790E-01  4.4994972918441E-01
65  6.4000000000000E-01 -7.3640727528653E-01  8.4736879044512E-01  4.2710647154433E-01
66  6.5000000000000E-01 -6.4758548580548E-01  8.0567480775536E-01  4.0083543745562E-01
67  6.6000000000000E-01 -5.5800743024292E-01  7.6432316830440E-01  3.7392858885551E-01
68  6.7000000000000E-01 -4.6868457989098E-01  7.2343693336318E-01  3.4937559032613E-01
69  6.8000000000000E-01 -3.8060989511376E-01  6.8313340746102E-01  3.3024849875668E-01
70  6.9000000000000E-01 -2.9474265339251E-01  6.4352373189841E-01  3.1957852467853E-01
71  7.0000000000000E-01 -2.1199322838711E-01  6.0471251192633E-01  3.2022944697189E-01
72  7.1000000000000E-01 -1.3320822025109E-01  5.6679747619341E-01  3.3477255313153E-01
73  7.2000000000000E-01 -5.9156354605570E-02  5.2986916731160E-01  3.6536808358302E-01
74  7.3000000000000E-01  9.4844306384812E-03  4.9401066278029E-01  4.1365807034416E-01
75  7.4000000000000E-01  7.2138305820175E-02  4.5929732601650E-01  4.8067517468822E-01
76  7.5000000000000E-01  1.2834090335403E-01  4.2579658783929E-01  5.6677165047714E-01
77  7.6000000000000E-01  1.7774637723634E-01  3.9356775941791E-01  6.7157190238791E-01
78  7.7000000000000E-01  2.2013190162174E-01  3.6266187838278E-01  7.9395129194746E-01
79  7.8000000000000E-01  2.5539941546981E-01  3.3312159047778E-01  9.3204289685479E-01
80  7.9000000000000E-01  2.8357450400272E-01  3.0498106976643E-01  1.0832728842815E+00
81  8.0000000000000E-01  3.0480239857956E-01  2.7826598095350E-01  1.2444240555872E+00
82  8.1000000000000E-01  3.1934117118903E-01  2.5299348781431E-01  1.4117260005077E+00
83  8.2000000000000E-01  3.2755229441690E-01  2.2917231200281E-01  1.5809692078425E+00
84  8.3000000000000E-01  3.2988882868056E-01  2.0680284660808E-01  1.7476394615143E+00
85  8.4000000000000E-01  3.2688158199074E-01  1.8587732872585E-01  1.9070679486900E+00
86  8.5000000000000E-01  3.1912365994553E-01  1.6638007498920E-01  2.0545917601521E+00
87  8.6000000000000E-01  3.0725388188112E-01  1.4828778345348E-01  2.1857189069530E+00
88  8.7000000000000E-01  2.9193958038089E-01  1.3156990445284E-01  2.2962916396858E+00
89  8.8000000000000E-01  2.7385932358708E-01  1.1618908204753E-01  2.3826417576479E+00
90  8.9000000000000E-01  2.5368610158758E-01  1.0210166647823E-01  2.4417317460491E+00
91  9.0000000000000E-01  2.3207149898925E-01  8.9258296660116E-02  2.4712759818747E+00
92  9.1000000000000E-01  2.0963133589499E-01  7.7604550217105E-02  2.4698368947691E+00
93  9.2000000000000E-01  1.8693319998550E-01  6.7081656914370E-02  2.4368918402059E+00
94  9.3000000000000E-01  1.6448621519008E-01  5.7627269639925E-02  2.3728675107921E+00
95  9.4000000000000E-01  1.4273330022894E-01  4.9176285363117E-02  2.2791399414403E+00
96  9.5000000000000E-01  1.2204606642610E-01  4.1661706811539E-02  2.1579995126337E+00
97  9.6000000000000E-01  1.0272239257814E-01  3.5015534013117E-02  2.0125817732799E+00
98  9.7000000000000E-01  8.4986599553883E-02  2.9169673400385E-02  1.8467663383881E+00
99  9.8000000000000E-01  6.8992033216419E-02  2.4056850921634E-02  1.6650475118878E+00
100  9.9000000000000E-01  5.4825755739159E-02  1.9611514596978E-02  1.4723815868433E+00
101  1.0000000000000E+00  4.2514946760199E-02  1.5770711238788E-02  1.2740169327340E+00
102  1.0100000000000E+00  3.2034531211403E-02  1.2474921662003E-02  1.0753139439938E+00
103  1.0200000000000E+00  2.3315483550860E-02  9.6688386663497E-03  8.8156265560908E-01
104  1.0300000000000E+00  1.6253213243201E-02  7.3020747074993E-03  6.9780628390064E-01
105  1.0400000000000E+00  1.0715424903367E-02  5.3297649484183E-03  5.2867911793761E-01
106  1.0500000000000E+00  6.5478965831381E-03  3.7122504967124E-03  3.7827336739937E-01
107  1.0600000000000E+00  3.5813791799353E-03  2.4074169883254E-03  2.5003897036804E-01
108  1.0700000000000E+00  1.6517701216431E-03  1.3936574596686E-03  1.4657368400193E-01
109  1.0800000000000E+00  5.6622300196261E-04  6.5939224739986E-04  6.9783594698780E-02
110  1.0900000000000E+00  1.0068227291591E-04  1.9726938225609E-04  2.0883721217551E-02
111  1.1000000000000E+00  9.9975595896121E-07  8.6527405248916E-06  9.0979625103267E-04
112  1.1100000000000E+00  8.9414348822003E-08  5.9996399892389E-07  6.3392439048062E-05
113  1.1200000000000E+00 -3.6888251419600E-08 -1.2027953877037E-07 -1.2731295091738E-05
114  1.13  0.  0.  0.
115  1.14  0.  0.  0.
116  1.15  0.  0.  0.
117  1.16  0.  0.  0.
118  1.17  0.  0.  0.
119  1.18  0.  0.  0.
120  1.19  0.  0.  0.
121  1.20  0.  0.  0.
122  1.21  0.  0.  0.
123  1.22  0.  0.  0.
124  1.23  0.  0.  0.
125  1.24  0.  0.  0.
126  1.25  0.  0.  0.
127  1.26  0.  0.  0.
128  1.27  0.  0.  0.
129  1.28  0.  0.  0.
130  1.29  0.  0.  0.
131  1.30  0.  0.  0.
132  1.31  0.  0.  0.
133  1.32  0.  0.  0.
134  1.33  0.  0.  0.
135  1.34  0.  0.  0.
136  1.35  0.  0.  0.
137  1.36  0.  0.  0.
138  1.37  0.  0.  0.
139  1.38  0.  0.  0.
140  1.39  0.  0.  0.
141  1.40  0.  0.  0.
142  1.41  0.  0.  0.
143  1.42  0.  0.  0.
144  1.43  0.  0.  0.
145  1.44  0.  0.  0.
146  1.45  0.  0.  0.
147  1.46  0.  0.  0.
148  1.47  0.  0.  0.
149  1.48  0.  0.  0.
150  1.49  0.  0.  0.
151  1.50  0.  0.  0.
152  1.51  0.  0.  0.
153  1.52  0.  0.  0.
154  1.53  0.  0.  0.
155  1.54  0.  0.  0.
156  1.55  0.  0.  0.
157  1.56  0.  0.  0.
158  1.57  0.  0.  0.
159  1.58  0.  0.  0.
160  1.59  0.  0.  0.
161  1.60  0.  0.  0.
162  1.61  0.  0.  0.
163  1.62  0.  0.  0.
164  1.63  0.  0.  0.
165  1.64  0.  0.  0.
166  1.65  0.  0.  0.
167  1.66  0.  0.  0.
168  1.67  0.  0.  0.
169  1.68  0.  0.  0.
170  1.69  0.  0.  0.
171  1.70  0.  0.  0.
172  1.71  0.  0.  0.
173  1.72  0.  0.  0.
174  1.73  0.  0.  0.
175  1.74  0.  0.  0.
176  1.75  0.  0.  0.
177  1.76  0.  0.  0.
178  1.77  0.  0.  0.
179  1.78  0.  0.  0.
180  1.79  0.  0.  0.
181  1.80  0.  0.  0.
182  1.81  0.  0.  0.
183  1.82  0.  0.  0.
184  1.83  0.  0.  0.
185  1.84  0.  0.  0.
186  1.85  0.  0.  0.
187  1.86  0.  0.  0.
188  1.87  0.  0.  0.
189  1.88  0.  0.  0.
190  1.89  0.  0.  0.
191  1.90  0.  0.  0.
192  1.91  0.  0.  0.
193  1.92  0.  0.  0.
194  1.93  0.  0.  0.
195  1.94  0.  0.  0.
196  1.95  0.  0.  0.
197  1.96  0.  0.  0.
198  1.97  0.  0.  0.
199  1.98  0.  0.  0.
200  1.99  0.  0.  0.
201  2.00  0.  0.  0.
202  2.01  0.  0.  0.
203  2.02  0.  0.  0.
204  2.03  0.  0.  0.
205  2.04  0.  0.  0.
206  2.05  0.  0.  0.
207  2.06  0.  0.  0.
208  2.07  0.  0.  0.
209  2.08  0.  0.  0.
210  2.09  0.  0.  0.
211  2.10  0.  0.  0.
212  2.11  0.  0.  0.
213  2.12  0.  0.  0.
214  2.13  0.  0.  0.
215  2.14  0.  0.  0.
216  2.15  0.  0.  0.
217  2.16  0.  0.  0.
218  2.17  0.  0.  0.
219  2.18  0.  0.  0.
220  2.19  0.  0.  0.
221  2.20  0.  0.  0.
222  2.21  0.  0.  0.
223  2.22  0.  0.  0.
224  2.23  0.  0.  0.
225  2.24  0.  0.  0.
226  2.25  0.  0.  0.
227  2.26  0.  0.  0.
228  2.27  0.  0.  0.
229  2.28  0.  0.  0.
230  2.29  0.  0.  0.
231  2.30  0.  0.  0.
232  2.31  0.  0.  0.
233  2.32  0.  0.  0.
234  2.33  0.  0.  0.
235  2.34  0.  0.  0.
236  2.35  0.  0.  0.
237  2.36  0.  0.  0.
238  2.37  0.  0.  0.
239  2.38  0.  0.  0.
240  2.39  0.  0.  0.
241  2.40  0.  0.  0.
242  2.41  0.  0.  0.
243  2.42  0.  0.  0.
244  2.43  0.  0.  0.
245  2.44  0.  0.  0.
246  2.45  0.  0.  0.
247  2.46  0.  0.  0.
248  2.47  0.  0.  0.
249  2.48  0.  0.  0.
250  2.49  0.  0.  0.
251  2.50  0.  0.  0.
252  2.51  0.  0.  0.
253  2.52  0.  0.  0.
254  2.53  0.  0.  0.
255  2.54  0.  0.  0.
256  2.55  0.  0.  0.
257  2.56  0.  0.  0.
258  2.57  0.  0.  0.
259  2.58  0.  0.  0.
260  2.59  0.  0.  0.
261  2.60  0.  0.  0.
262  2.61  0.  0.  0.
263  2.62  0.  0.  0.
264  2.63  0.  0.  0.
265  2.64  0.  0.  0.
266  2.65  0.  0.  0.
267  2.66  0.  0.  0.
268  2.67  0.  0.  0.
269  2.68  0.  0.  0.
270  2.69  0.  0.  0.
271  2.70  0.  0.  0.
272  2.71  0.  0.  0.
273  2.72  0.  0.  0.
274  2.73  0.  0.  0.
275  2.74  0.  0.  0.
276  2.75  0.  0.  0.
277  2.76  0.  0.  0.
278  2.77  0.  0.  0.
279  2.78  0.  0.  0.
280  2.79  0.  0.  0.
281  2.80  0.  0.  0.
282  2.81  0.  0.  0.
283  2.82  0.  0.  0.
284  2.83  0.  0.  0.
285  2.84  0.  0.  0.
286  2.85  0.  0.  0.
287  2.86  0.  0.  0.
288  2.87  0.  0.  0.
289  2.88  0.  0.  0.
290  2.89  0.  0.  0.
291  2.90  0.  0.  0.
292  2.91  0.  0.  0.
293  2.92  0.  0.  0.
294  2.93  0.  0.  0.
295  2.94  0.  0.  0.
296  2.95  0.  0.  0.
297  2.96  0.  0.  0.
298  2.97  0.  0.  0.
299  2.98  0.  0.  0.
300  2.99  0.  0.  0.
301  3.00  0.  0.  0.
302  3.01  0.  0.  0.
303  3.02  0.  0.  0.
304  3.03  0.  0.  0.
305  3.04  0.  0.  0.
306  3.05  0.  0.  0.
307  3.06  0.  0.  0.
308  3.07  0.  0.  0.
309  3.08  0.  0.  0.
310  3.09  0.  0.  0.
311  3.10  0.  0.  0.
312  3.11  0.  0.  0.
313  3.12  0.  0.  0.
314  3.13  0.  0.  0.
315  3.14  0.  0.  0.
316  3.15  0.  0.  0.
317  3.16  0.  0.  0.
318  3.17  0.  0.  0.
319  3.18  0.  0.  0.
320  3.19  0.  0.  0.
321  3.20  0.  0.  0.
322  3.21  0.  0.  0.
323  3.22  0.  0.  0.
324  3.23  0.  0.  0.
325  3.24  0.  0.  0.
326  3.25  0.  0.  0.
327  3.26  0.  0.  0.
328  3.27  0.  0.  0.
329  3.28  0.  0.  0.
330  3.29  0.  0.  0.
331  3.30  0.  0.  0.
332  3.31  0.  0.  0.
333  3.32  0.  0.  0.
334  3.33  0.  0.  0.
335  3.34  0.  0.  0.
336  3.35  0.  0.  0.
337  3.36  0.  0.  0.
338  3.37  0.  0.  0.
339  3.38  0.  0.  0.
340  3.39  0.  0.  0.
341  3.40  0.  0.  0.
342  3.41  0.  0.  0.
343  3.42  0.  0.  0.
344  3.43  0.  0.  0.
345  3.44  0.  0.  0.
346  3.45  0.  0.  0.
347  3.46  0.  0.  0.
348  3.47  0.  0.  0.
349  3.48  0.  0.  0.
350  3.49  0.  0.  0.
351  3.50  0.  0.  0.
352  3.51  0.  0.  0.
353  3.52  0.  0.  0.
354  3.53  0.  0.  0.
355  3.54  0.  0.  0.
356  3.55  0.  0.  0.
357  3.56  0.  0.  0.
358  3.57  0.  0.  0.
359  3.58  0.  0.  0.
360  3.59  0.  0.  0.
361  3.60  0.  0.  0.
362  3.61  0.  0.  0.
363  3.62  0.  0.  0.
364  3.63  0.  0.  0.
365  3.64  0.  0.  0.
366  3.65  0.  0.  0.
367  3.66  0.  0.  0.
368  3.67  0.  0.  0.
369  3.68  0.  0.  0.
370  3.69  0.  0.  0.
371  3.70  0.  0.  0.
372  3.71  0.  0.  0.
373  3.72  0.  0.  0.
374  3.73  0.  0.  0.
375  3.74  0.  0.  0.
376  3.75  0.  0.  0.
377  3.76  0.  0.  0.
378  3.77  0.  0.  0.
379  3.78  0.  0.  0.
380  3.79  0.  0.  0.
381  3.80  0.  0.  0.
382  3.81  0.  0.  0.
383  3.82  0.  0.  0.
384  3.83  0.  0.  0.
385  3.84  0.  0.  0.
386  3.85  0.  0.  0.
387  3.86  0.  0.  0.
388  3.87  0.  0.  0.
389  3.88  0.  0.  0.
390  3.89  0.  0.  0.
391  3.90  0.  0.  0.
392  3.91  0.  0.  0.
393  3.92  0.  0.  0.
394  3.93  0.  0.  0.
395  3.94  0.  0.  0.
396  3.95  0.  0.  0.
397  3.96  0.  0.  0.
398  3.97  0.  0.  0.
399  3.98  0.  0.  0.
400  3.99  0.  0.  0.
401  4.00  0.  0.  0.
402  4.01  0.  0.  0.
403  4.02  0.  0.  0.
404  4.03  0.  0.  0.
405  4.04  0.  0.  0.
406  4.05  0.  0.  0.
407  4.06  0.  0.  0.
408  4.07  0.  0.  0.
409  4.08  0.  0.  0.
410  4.09  0.  0.  0.
411  4.10  0.  0.  0.
412  4.11  0.  0.  0.
413  4.12  0.  0.  0.
414  4.13  0.  0.  0.
415  4.14  0.  0.  0.
416  4.15  0.  0.  0.
417  4.16  0.  0.  0.
418  4.17  0.  0.  0.
419  4.18  0.  0.  0.
420  4.19  0.  0.  0.
421  4.20  0.  0.  0.
422  4.21  0.  0.  0.
423  4.22  0.  0.  0.
424  4.23  0.  0.  0.
425  4.24  0.  0.  0.
426  4.25  0.  0.  0.
427  4.26  0.  0.  0.
428  4.27  0.  0.  0.
429  4.28  0.  0.  0.
430  4.29  0.  0.  0.
431  4.30  0.  0.  0.
432  4.31  0.  0.  0.
433  4.32  0.  0.  0.
434  4.33  0.  0.  0.
435  4.34  0.  0.  0.
436  4.35  0.  0.  0.
437  4.36  0.  0.  0.
438  4.37  0.  0.  0.
439  4.38  0.  0.  0.
440  4.39  0.  0.  0.
441  4.40  0.  0.  0.
442  4.41  0.  0.  0.
443  4.42  0.  0.  0.
444  4.43  0.  0.  0.
445  4.44  0.  0.  0.
446  4.45  0.  0.  0.
447  4.46  0.  0.  0.
448  4.47  0.  0.  0.
449  4.48  0.  0.  0.
450  4.49  0.  0.  0.
451  4.50  0.  0.  0.
452  4.51  0.  0.  0.
453  4.52  0.  0.  0.
454  4.53  0.  0.  0.
455  4.54  0.  0.  0.
456  4.55  0.  0.  0.
457  4.56  0.  0.  0.
458  4.57  0.  0.  0.
459  4.58  0.  0.  0.
460  4.59  0.  0.  0.
461  4.60  0.  0.  0.
462  4.61  0.  0.  0.
463  4.62  0.  0.  0.
464  4.63  0.  0.  0.
465  4.64  0.  0.  0.
466  4.65  0.  0.  0.
467  4.66  0.  0.  0.
468  4.67  0.  0.  0.
469  4.68  0.  0.  0.
470  4.69  0.  0.  0.
471  4.70  0.  0.  0.
472  4.71  0.  0.  0.
473  4.72  0.  0.  0.
474  4.73  0.  0.  0.
475  4.74  0.  0.  0.
476  4.75  0.  0.  0.
477  4.76  0.  0.  0.
478  4.77  0.  0.  0.
479  4.78  0.  0.  0.
480  4.79  0.  0.  0.
481  4.80  0.  0.  0.
482  4.81  0.  0.  0.
483  4.82  0.  0.  0.
484  4.83  0.  0.  0.
485  4.84  0.  0.  0.
486  4.85  0.  0.  0.
487  4.86  0.  0.  0.
488  4.87  0.  0.  0.
489  4.88  0.  0.  0.
490  4.89  0.  0.  0.
491  4.90  0.  0.  0.
492  4.91  0.  0.  0.
493  4.92  0.  0.  0.
494  4.93  0.  0.  0.
495  4.94  0.  0.  0.
496  4.95  0.  0.  0.
497  4.96  0.  0.  0.
498  4.97  0.  0.  0.
499  4.98  0.  0.  0.
500  4.99  0.  0.  0.
501  5.00  0.  0.  0.
502  5.01  0.  0.  0.
503  5.02  0.  0.  0.
504  5.03  0.  0.  0.
505  5.04  0.  0.  0.
506  5.05  0.  0.  0.
507  5.06  0.  0.  0.
508  5.07  0.  0.  0.
509  5.08  0.  0.  0.
510  5.09  0.  0.  0.
511  5.10  0.  0.  0.
512  5.11  0.  0.  0.
513  5.12  0.  0.  0.
514  5.13  0.  0.  0.
515  5.14  0.  0.  0.
516  5.15  0.  0.  0.
517  5.16  0.  0.  0.
518  5.17  0.  0.  0.
519  5.18  0.  0.  0.
520  5.19  0.  0.  0.
521  5.20  0.  0.  0.
522  5.21  0.  0.  0.
523  5.22  0.  0.  0.
524  5.23  0.  0.  0.
525  5.24  0.  0.  0.
526  5.25  0.  0.  0.
527  5.26  0.  0.  0.
528  5.27  0.  0.  0.
529  5.28  0.  0.  0.
530  5.29  0.  0.  0.
531  5.30  0.  0.  0.
532  5.31  0.  0.  0.
533  5.32  0.  0.  0.
534  5.33  0.  0.  0.
535  5.34  0.  0.  0.
536  5.35  0.  0.  0.
537  5.36  0.  0.  0.
538  5.37  0.  0.  0.
539  5.38  0.  0.  0.
540  5.39  0.  0.  0.
541  5.40  0.  0.  0.
542  5.41  0.  0.  0.
543  5.42  0.  0.  0.
544  5.43  0.  0.  0.
545  5.44  0.  0.  0.
546  5.45  0.  0.  0.
547  5.46  0.  0.  0.
548  5.47  0.  0.  0.
549  5.48  0.  0.  0.
550  5.49  0.  0.  0.
551  5.50  0.  0.  0.
552  5.51  0.  0.  0.
553  5.52  0.  0.  0.
554  5.53  0.  0.  0.
555  5.54  0.  0.  0.
556  5.55  0.  0.  0.
557  5.56  0.  0.  0.
558  5.57  0.  0.  0.
559  5.58  0.  0.  0.
560  5.59  0.  0.  0.
561  5.60  0.  0.  0.
562  5.61  0.  0.  0.
563  5.62  0.  0.  0.
564  5.63  0.  0.  0.
565  5.64  0.  0.  0.
566  5.65  0.  0.  0.
567  5.66  0.  0.  0.
568  5.67  0.  0.  0.
569  5.68  0.  0.  0.
570  5.69  0.  0.  0.
571  5.70  0.  0.  0.
572  5.71  0.  0.  0.
573  5.72  0.  0.  0.
574  5.73  0.  0.  0.
575  5.74  0.  0.  0.
576  5.75  0.  0.  0.
577  5.76  0.  0.  0.
578  5.77  0.  0.  0.
579  5.78  0.  0.  0.
580  5.79  0.  0.  0.
581  5.80  0.  0.  0.
582  5.81  0.  0.  0.
583  5.82  0.  0.  0.
584  5.83  0.  0.  0.
585  5.84  0.  0.  0.
586  5.85  0.  0.  0.
587  5.86  0.  0.  0.
588  5.87  0.  0.  0.
589  5.88  0.  0.  0.
590  5.89  0.  0.  0.
591  5.90  0.  0.  0.
592  5.91  0.  0.  0.
593  5.92  0.  0.  0.
594  5.93  0.  0.  0.
595  5.94  0.  0.  0.
596  5.95  0.  0.  0.
597  5.96  0.  0.  0.
598  5.97  0.  0.  0.
599  5.98  0.  0.  0.
600  5.99  0.  0.  0.
1                        -1.0767135882567E+01  1.4332948835357E+00 -3.3741098538569E-01
1  0.0000000000000E+00  5.1686640523130E-09  5.4820033013048E-08 -8.8272824105839E-08
2  1.0000000000000E-02  2.7635546422498E-03 -1.2689632782122E-03 -5.4308690793818E-03
3  2.0000000000000E-02  1.1033759259896E-02 -5.0908207090238E-03 -2.1618157901000E-02
4  3.0000000000000E-02  2.4749442940372E-02 -1.1509463837696E-02 -4.8248156405850E-02
5  4.0000000000000E-02  4.3809341106545E-02 -2.0594711688483E-02 -8.4805441499846E-02
6  5.0000000000000E-02  6.8073115131334E-02 -3.2437439557782E-02 -1.3058381985725E-01
7  6.0000000000000E-02  9.7362758436833E-02 -4.7143012980396E-02 -1.8470125839509E-01
8  7.0000000000000E-02  1.3146436827195E-01 -6.4823269986369E-02 -2.4611842667378E-01
9  8.0000000000000E-02  1.7013025719395E-01 -8.5587349585864E-02 -3.1366038720610E-01
10  9.0000000000000E-02  2.1308137366266E-01 -1.0953170896205E-01 -3.8604089484769E-01
11  1.0000000000000E-01  2.6000999718263E-01 -1.3672970458046E-01 -4.6188870718592E-01
12  1.1000000000000E-01  3.1058267017067E-01 -1.6722113221973E-01 -5.3977526572482E-01
13  1.2000000000000E-01  3.6444332623870E-01 -2.0100212710846E-01 -6.1824308373637E-01
14  1.3000000000000E-01  4.2121657289687E-01 -2.3801581771488E-01 -6.9583417137986E-01
15  1.4000000000000E-01  4.8051108581236E-01 -2.7814410554442E-01 -7.7111784197505E-01
16  1.5000000000000E-01  5.4192307169605E-01 -3.2120090929111E-01 -8.4271727446280E-01
17  1.6000000000000E-01  6.0503975760236E-01 -3.6692716603397E-01 -9.0933425486757E-01
18  1.7000000000000E-01  6.6944286586987E-01 -4.1498782643930E-01 -9.6977158225167E-01
19  1.8000000000000E-01  7.3471203603571E-01 -4.6497101703640E-01 -1.0229527000468E+00
20  1.9000000000000E-01  8.0042815774504E-01 -5.1638947276253E-01 -1.0679381992259E+00
21  2.0000000000000E-01  8.6617658185735E-01 -5.6868426950776E-01 -1.1039389327204E+00
22  2.1000000000000E-01  9.3155018052159E-01 -6.2123081182805E-01 -1.1303255778020E+00
23  2.2000000000000E-01  9.9615223084733E-01 -6.7334695786664E-01 -1.1466345817524E+00
24  2.3000000000000E-01  1.0595991008303E+00 -7.2430309428785E-01 -1.1525705229995E+00
25  2.4000000000000E-01  1.1215227202911E+00 -7.7333391101771E-01 -1.1480050120563E+00
26  2.5000000000000E-01  1.1815728236513E+00 -8.1965157088793E-01 -1.1329723413680E+00
27  2.6000000000000E-01  1.2394189553106E+00 -8.6245992470956E-01 -1.1076621681331E+00
28  2.7000000000000E-01  1.2947522321114E+00 -9.0096938929690E-01 -1.0724095772906E+00
29  2.8000000000000E-01  1.3472868608128E+00 -9.3441208557093E-01 -1.0276829215763E+00
30  2.9000000000000E-01  1.3967614115909E+00 -9.6205682669676E-01 -9.7406987073751E-01
31  3.0000000000000E-01  1.4429398512814E+00 -9.8322355239982E-01 -9.1226212207135E-01
32  3.1000000000000E-01  1.4856123423679E+00 -9.9729682485295E-01 -8.4303922935359E-01
33  3.2000000000000E-01  1.5245958155784E+00 -1.0037380330709E+00 -7.6725199740195E-01
34  3.3000000000000E-01  1.5597343253849E+00 -1.0020959954206E+00 -6.8580586591100E-01
35  3.4000000000000E-01  1.5908991987315E+00 -9.9201570210547E-01 -5.9964467019566E-01
36  3.5000000000000E-01  1.6179889879734E+00 -9.7324499944299E-01 -5.0973511986825E-01
37  3.6000000000000E-01  1.6409292393330E+00 -9.4563908331072E-01 -4.1705228135028E-01
38  3.7000000000000E-01  1.6596720882303E+00 -9.0916273798905E-01 -3.2256628883711E-01
39  3.8000000000000E-01  1.6741956926719E+00 -8.6389032638588E-01 -2.2723044338475E-01
40  3.9000000000000E-01  1.6845035155569E+00 -8.1000360588297E-01 -1.3197079374693E-01
41  4.0000000000000E-01  1.6906234663361E+00 -7.4778750845879E-01 -3.7677227989334E-02
42  4.1000000000000E-01  1.6926069120128E+00 -6.7762408212887E-01  5.4803955827680E-02
43  4.2000000000000E-01  1.6905275670457E+00 -5.9998484114441E-01  1.4467608626392E-01
44  4.3000000000000E-01  1.6844802713763E+00 -5.1542181313168E-01  2.3119689541660E-01
45  4.4000000000000E-01  1.6745796655757E+00 -4.2455760111854E-01  3.1368220617093E-01
46  4.5000000000000E-01  1.6609587720465E+00 -3.2807479626263E-01  3.9150872604547E-01
47  4.6000000000000E-01  1.6437674913236E+00 -2.2670508255619E-01  4.6411615855992E-01
48  4.7000000000000E-01  1.6231710228215E+00 -1.2121836779303E-01  5.3100884587907E-01
49  4.8000000000000E-01  1.5993482198576E+00 -1.2412256014895E-02  5.9175714763535E-01
50  4.9000000000000E-01  1.5724898894401E+00  9.8897853669321E-02  6.4599874094562E-01
51  5.0000000000000E-01  1.5427970481053E+00  2.1188779736469E-01  6.9343999678307E-01
52  5.1000000000000E-01  1.5104791459946E+00  3.2573261008733E-01  7.3385754949319E-01
53  5.2000000000000E-01  1.4757522723286E+00  4.3961328262601E-01  7.6710013115991E-01
54  5.3000000000000E-01  1.4388373564077E+00  5.5272223123458E-01  7.9309069279040E-01
55  5.4000000000000E-01  1.3999583791911E+00  6.6426746194012E-01  8.1182878215592E-01
56  5.5000000000000E-01  1.3593406113199E+00  7.7347547320668E-01  8.2339309597304E-01
57  5.6000000000000E-01  1.3172088940897E+00  8.7959300011738E-01  8.2794407432350E-01
58  5.7000000000000E-01  1.2737859802908E+00  9.8188775783738E-01  8.2572636012254E-01
59  5.8000000000000E-01  1.2292909519648E+00  1.0796483897677E+00  8.1707090822985E-01
60  5.9000000000000E-01  1.1839377319308E+00  1.1721838645987E+00  8.0239649939741E-01
61  6.0000000000000E-01  1.1379337053755E+00  1.2588225948319E+00  7.8221039530284E-01
62  6.1000000000000E-01  1.0914784668558E+00  1.3389115660265E+00  7.5710786368616E-01
63  6.2000000000000E-01  1.0447627067186E+00  1.4118157702276E+00  7.2777030793892E-01
64  6.3000000000000E-01  9.9796724919908E-01  1.4769182283592E+00  6.9496175376287E-01
65  6.4000000000000E-01  9.5126225234072E-01  1.5336208649020E+00  6.5952347662396E-01
66  6.5000000000000E-01  9.0480657740481E-01  1.5813464644700E+00  6.2236659707993E-01
67  6.6000000000000E-01  8.5874733266302E-01  1.6195418949411E+00  5.8446252559504E-01
68  6.7000000000000E-01  8.1321959344086E-01  1.6476827270171E+00  5.4683120264423E-01
69  6.8000000000000E-01  7.6834629707676E-01  1.6652793172750E+00  5.1052715183907E-01
70  6.9000000000000E-01  7.2423830815771E-01  1.6718843530697E+00  4.7662344119499E-01
71  7.0000000000000E-01  6.8099464607412E-01  1.6671017854378E+00  4.4619372795872E-01
72  7.1000000000000E-01  6.3870286369447E-01  1.6505970029961E+00  4.2029264288314E-01
73  7.2000000000000E-01  5.9743956288643E-01  1.6221080284096E+00  3.9993484761929E-01
74  7.3000000000000E-01  5.5727102979766E-01  1.5814574519786E+00  3.8607317114052E-01
75  7.4000000000000E-01  5.1825397034255E-01  1.5285647568552E+00  3.7957629505414E-01
76  7.5000000000000E-01  4.8043632430149E-01  1.4634586397664E+00  3.8120651070664E-01
77  7.6000000000000E-01  4.4385813489723E-01  1.3862888920331E+00  3.9159811086255E-01
78  7.7000000000000E-01  4.0855244972482E-01  1.2973373799439E+00  4.1123700349682E-01
79  7.8000000000000E-01  3.7454622852118E-01  1.1970276525716E+00  4.4044214340662E-01
80  7.9000000000000E-01  3.4186123349262E-01  1.0859327098244E+00  4.7934936794322E-01
81  8.0000000000000E-01  3.1051487878127E-01  9.6478048432177E-01  5.2789819577120E-01
82  8.1000000000000E-01  2.8052101713290E-01  8.3445662744961E-01  5.8582210234152E-01
83  8.2000000000000E-01  2.5189064389831E-01  6.9600424199088E-01  6.5264272349228E-01
84  8.3000000000000E-01  2.2463250110870E-01  5.5062026983349E-01  7.2766836061486E-01
85  8.4000000000000E-01  1.9875356744461E-01  3.9964832167647E-01  8.0999706907249E-01
86  8.5000000000000E-01  1.7425942338452E-01  2.4456782418176E-01  8.9852450846377E-01
87  8.6000000000000E-01  1.5115448457508E-01  8.6979456022717E-02  9.9195662177968E-01
88  8.7000000000000E-01  1.2944210040132E-01 -7.1413055192470E-02  1.0888270937583E+00
89  8.8000000000000E-01  1.0912451873426E-01 -2.2882460130109E-01  1.1875194203302E+00
90  8.9000000000000E-01  9.0202721773984E-02 -3.8341355362804E-01  1.2862933046489E+00
91  9.0000000000000E-01  7.2676141664910E-02 -5.3330944663790E-01  1.3833149845518E+00
92  9.1000000000000E-01  5.6542268017488E-02 -6.7664303143738E-01  1.4766909950470E+00
93  9.2000000000000E-01  4.1796162514546E-02 -8.1157817148043E-01  1.5645047810141E+00
94  9.3000000000000E-01  2.8429898308601E-02 -9.3634499356057E-01  1.6448555028791E+00
95  9.4000000000000E-01  1.6431943842022E-02 -1.0492736649365E+00  1.7158983242551E+00
96  9.5000000000000E-01  5.7865119754153E-03 -1.1488281441188E+00  1.7758854375803E+00
97  9.6000000000000E-01 -3.5271041588024E-03 -1.2336392497985E+00  1.8232070731818E+00
98  9.7000000000000E-01 -1.1535187376885E-02 -1.3025364102883E+00  1.8564317497588E+00
99  9.8000000000000E-01 -1.8270224505188E-02 -1.3545774947164E+00  1.8743450601343E+00
100  9.9000000000000E-01 -2.3771487745352E-02 -1.3890761863315E+00  1.8759863445739E+00
101  1.0000000000000E+00 -2.8085553186589E-02 -1.4056264363474E+00  1.8606826836600E+00
102  1.0100000000000E+00 -3.1266743301705E-02 -1.4041236316618E+00  1.8280797414264E+00