Np    ONCVPSP-4.0.1  r_core=   1.25290   1.25290   1.50818   1.50818
93.0000     33.0000      231012    zatom,zion,pspd
8 -116133   3     4   600     0    pspcod,pspxc,lmax,lloc,mmax,r2well
5.99000000  4.00000000  0.00000000    rchrg fchrg qchrg
3     2     2     2     0    nproj
1     1           extension_switch
0                         2.2453543096118E+01  2.4691648732334E+00 -1.1545689470286E+00
1  0.0000000000000E+00 -4.2129591149020E-08  1.4759718569568E-07 -2.8785257233377E-09
2  1.0000000000000E-02  1.4364574766012E-01 -7.2729117063244E-02  2.8161599404228E-02
3  2.0000000000000E-02  2.8630274651520E-01 -1.4375391470334E-01  5.6208411895580E-02
4  3.0000000000000E-02  4.2699655572717E-01 -2.1141246756029E-01  8.4026852524525E-02
5  4.0000000000000E-02  5.6478098323114E-01 -2.7412637621902E-01  1.1150571833938E-01
6  5.0000000000000E-02  6.9875130366313E-01 -3.3043941479761E-01  1.3853732536511E-01
7  6.0000000000000E-02  8.2805642020504E-01 -3.7905255097632E-01  1.6501858296965E-01
8  7.0000000000000E-02  9.5190966999741E-01 -4.1885431027895E-01  1.9085198833339E-01
9  8.0000000000000E-02  1.0695980149003E+00 -4.4894560401528E-01  2.1594652661585E-01
10  9.0000000000000E-02  1.1804894094195E+00 -4.6865831564625E-01  2.4021846577678E-01
11  1.0000000000000E-01  1.2840381939401E+00 -4.7756713778690E-01  2.6359203871380E-01
12  1.1000000000000E-01  1.3797884221901E+00 -4.7549436524573E-01  2.8600000926720E-01
13  1.2000000000000E-01  1.4673750951330E+00 -4.6250757154251E-01  3.0738412254887E-01
14  1.3000000000000E-01  1.5465233372021E+00 -4.3891032008982E-01  3.2769544380583E-01
15  1.4000000000000E-01  1.6170456128864E+00 -4.0522627945852E-01  3.4689459346803E-01
16  1.5000000000000E-01  1.6788371401491E+00 -3.6217731785565E-01  3.6495188900072E-01
17  1.6000000000000E-01  1.7318697101223E+00 -3.1065633849881E-01  3.8184740655180E-01
18  1.7000000000000E-01  1.7761841682651E+00 -2.5169577899180E-01  3.9757097704254E-01
19  1.8000000000000E-01  1.8118818492450E+00 -1.8643282891721E-01  4.1212213221671E-01
20  1.9000000000000E-01  1.8391152850061E+00 -1.1607251647563E-01  4.2551001618881E-01
21  2.0000000000000E-01  1.8580785219846E+00 -4.1849874055090E-02  4.3775327720473E-01
22  2.1000000000000E-01  1.8689973887092E+00  3.5007587732169E-02  4.4887995267124E-01
23  2.2000000000000E-01  1.8721200489469E+00  1.1331588831909E-01  4.5892735808414E-01
24  2.3000000000000E-01  1.8677081583730E+00  1.9196791807119E-01  4.6794198738352E-01
25  2.4000000000000E-01  1.8560289150494E+00  2.6996305885070E-01  4.7597942861504E-01
26  2.5000000000000E-01  1.8373482567507E+00  3.4643216205649E-01  4.8310429473214E-01
27  2.6000000000000E-01  1.8119254126394E+00  4.2065712234490E-01  4.8939016511119E-01
28  2.7000000000000E-01  1.7800089645061E+00  4.9208447001410E-01  4.9491952906141E-01
29  2.8000000000000E-01  1.7418345155101E+00  5.6033260811064E-01  4.9978371849257E-01
30  2.9000000000000E-01  1.6976240040184E+00  6.2519253501770E-01  5.0408281315610E-01
31  3.0000000000000E-01  1.6475866387553E+00  6.8662211255963E-01  5.0792549869139E-01
32  3.1000000000000E-01  1.5919213711221E+00  7.4473415632678E-01  5.1142885526593E-01
33  3.2000000000000E-01  1.5308207632353E+00  7.9977883187795E-01  5.1471805304846E-01
34  3.3000000000000E-01  1.4644760579002E+00  8.5212103095285E-01  5.1792593022509E-01
35  3.4000000000000E-01  1.3930832111423E+00  9.0221356957582E-01  5.2119242984628E-01
36  3.5000000000000E-01  1.3168496106003E+00  9.5056718949218E-01  5.2466387352822E-01
37  3.6000000000000E-01  1.2360011753058E+00  9.9771845117397E-01  5.2849205293107E-01
38  3.7000000000000E-01  1.1507895150919E+00  1.0441966772026E+00  5.3283312395864E-01
39  3.8000000000000E-01  1.0614988216748E+00  1.0904911368782E+00  5.3784629368649E-01
40  3.9000000000000E-01  9.6845216858743E-01  1.1370196554054E+00  5.4369229599860E-01
41  4.0000000000000E-01  8.7201691345922E-01  1.1840997842321E+00  5.5053165862970E-01
42  4.1000000000000E-01  7.7260892312334E-01  1.2319235846295E+00  5.5852277156734E-01
43  4.2000000000000E-01  6.7069537882533E-01  1.2805369572010E+00  5.6781977433082E-01
44  4.3000000000000E-01  5.6679596420674E-01  1.3298242996258E+00  5.7857028726095E-01
45  4.4000000000000E-01  4.6148229126823E-01  1.3794990985338E+00  5.9091301935538E-01
46  4.5000000000000E-01  3.5537547745894E-01  1.4291008647717E+00  6.0497529209984E-01
47  4.6000000000000E-01  2.4914184849199E-01  1.4779986109048E+00  6.2087052490841E-01
48  4.7000000000000E-01  1.4348680443538E-01  1.5254008525093E+00  6.3869573294782E-01
49  4.8000000000000E-01  3.9146949002294E-02  1.5703718977509E+00  6.5852909205483E-01
50  4.9000000000000E-01 -6.3119358286213E-02  1.6118539800189E+00  6.8042762797193E-01
51  5.0000000000000E-01 -1.6254281223616E-01  1.6486945928245E+00  7.0442508807375E-01
52  5.1000000000000E-01 -2.5835507083490E-01  1.6796782111448E+00  7.3053005303342E-01
53  5.2000000000000E-01 -3.4980145851525E-01  1.7035614345740E+00  7.5872434343444E-01
54  5.3000000000000E-01 -4.3615412814778E-01  1.7191104698393E+00  7.8896177217813E-01
55  5.4000000000000E-01 -5.1672532510547E-01  1.7251397872254E+00  8.2116728773103E-01
56  5.5000000000000E-01 -5.9088038686561E-01  1.7205507398603E+00  8.5523654592486E-01
57  5.6000000000000E-01 -6.5805011316132E-01  1.7043689280416E+00  8.9103593933645E-01
58  5.7000000000000E-01 -7.1774215463396E-01  1.6757791229559E+00  9.2840310346202E-01
59  5.8000000000000E-01 -7.6955109185566E-01  1.6341566341149E+00  9.6714790822631E-01
60  5.9000000000000E-01 -8.1316691072418E-01  1.5790941102226E+00  1.0070539321340E+00
61  6.0000000000000E-01 -8.4838162348781E-01  1.5104229004951E+00  1.0478804049057E+00
62  6.1000000000000E-01 -8.7509383564766E-01  1.4282282681192E+00  1.0893645930841E+00
63  6.2000000000000E-01 -8.9331111608299E-01  1.3328579341745E+00  1.1312245921946E+00
64  6.3000000000000E-01 -9.0315008913026E-01  1.2249236328588E+00  1.1731624789314E+00
65  6.4000000000000E-01 -9.0483423107511E-01  1.1052955706984E+00  1.2148677678331E+00
66  6.5000000000000E-01 -8.9868941757880E-01  9.7508989676854E-01  1.2560211092955E+00
67  6.6000000000000E-01 -8.8513733095300E-01  8.3564950096923E-01  1.2962981597876E+00
68  6.7000000000000E-01 -8.6468689498764E-01  6.8851865644349E-01  1.3353735509824E+00
69  6.8000000000000E-01 -8.3792395842403E-01  5.3541220407075E-01  1.3729248823209E+00
70  6.9000000000000E-01 -8.0549949454568E-01  3.7818013601447E-01  1.4086366613798E+00
71  7.0000000000000E-01 -7.6811662236767E-01  2.1876856674308E-01  1.4422041182980E+00
72  7.1000000000000E-01 -7.2651678346470E-01  5.9178179920420E-02  1.4733368244016E+00
73  7.2000000000000E-01 -6.8146542683112E-01 -9.8578694710060E-02  1.5017620509020E+00
74  7.3000000000000E-01 -6.3373756189086E-01 -2.5252119049829E-01  1.5272278109586E+00
75  7.4000000000000E-01 -5.8410353680508E-01 -4.0074202169257E-01  1.5495055372495E+00
76  7.5000000000000E-01 -5.3331538582870E-01 -5.4144747462721E-01  1.5683923571869E+00
77  7.6000000000000E-01 -4.8209406625709E-01 -6.7299421298538E-01  1.5837129387308E+00
78  7.7000000000000E-01 -4.3111787338735E-01 -7.9392194463199E-01  1.5953208910365E+00
79  7.8000000000000E-01 -3.8101228207539E-01 -9.0298113131059E-01  1.6030997155521E+00
80  7.9000000000000E-01 -3.3234141730758E-01 -9.9915507862317E-01  1.6069633142943E+00
81  8.0000000000000E-01 -2.8560130530009E-01 -1.0816759168770E+00  1.6068560725166E+00
82  8.1000000000000E-01 -2.4121500268358E-01 -1.1500341678640E+00  1.6027525425134E+00
83  8.2000000000000E-01 -1.9952964607625E-01 -1.2039817824683E+00  1.5946567635782E+00
84  8.3000000000000E-01 -1.6081540954123E-01 -1.2435287231734E+00  1.5826012599059E+00
85  8.4000000000000E-01 -1.2526630474331E-01 -1.2689333482611E+00  1.5666457633098E+00
86  8.5000000000000E-01 -9.3002709635625E-02 -1.2806870252545E+00  1.5468757108787E+00
87  8.6000000000000E-01 -6.4075467608996E-02 -1.2794935550647E+00  1.5234005690718E+00
88  8.7000000000000E-01 -3.8471361412874E-02 -1.2662441210780E+00  1.4963520352479E+00
89  8.8000000000000E-01 -1.6119735746269E-02 -1.2419885856448E+00  1.4658821653322E+00
90  8.9000000000000E-01  3.0999801089589E-03 -1.2079040375379E+00  1.4321614723830E+00
91  9.0000000000000E-01  1.9350112491837E-02 -1.1652615463477E+00  1.3953770354515E+00
92  9.1000000000000E-01  3.2826215157203E-02 -1.1153921028367E+00  1.3557306515880E+00
93  9.2000000000000E-01  4.3748439082489E-02 -1.0596527182896E+00  1.3134370564515E+00
94  9.3000000000000E-01  5.2353056596523E-02 -9.9939362207917E-01  1.2687222310802E+00
95  9.4000000000000E-01  5.8884378911931E-02 -9.3592743702580E-01  1.2218218043342E+00
96  9.5000000000000E-01  6.3587282645220E-02 -8.7050112935689E-01  1.1729795527119E+00
97  9.6000000000000E-01  6.6700532146963E-02 -8.0427142741330E-01  1.1224459920404E+00
98  9.7000000000000E-01  6.8451051549895E-02 -7.3828428438981E-01  1.0704770492923E+00
99  9.8000000000000E-01  6.9049264509935E-02 -6.7345882911127E-01  1.0173327978090E+00
100  9.9000000000000E-01  6.8685581848147E-02 -6.1057610916910E-01  9.6327623578650E-01
101  1.0000000000000E+00  6.7528078782796E-02 -5.5027278639634E-01  9.0857208622119E-01
102  1.0100000000000E+00  6.5721365189668E-02 -4.9303979922618E-01  8.5348559676860E-01
103  1.0200000000000E+00  6.3386615173016E-02 -4.3922586291518E-01  7.9828132022289E-01
104  1.0300000000000E+00  6.0622686883037E-02 -3.8904553958216E-01  7.4322186057990E-01
105  1.0400000000000E+00  5.7508230429723E-02 -3.4259147731925E-01  6.8856657581626E-01
106  1.0500000000000E+00  5.4104651087899E-02 -2.9985029211280E-01  6.3457023646906E-01
107  1.0600000000000E+00  5.0459766830160E-02 -2.6072144861069E-01  5.8148164857363E-01
108  1.0700000000000E+00  4.6611973206668E-02 -2.2503838500047E-01  5.2954226022158E-01
109  1.0800000000000E+00  4.2594704169566E-02 -1.9259102195089E-01  4.7898478258481E-01
110  1.0900000000000E+00  3.8440953938082E-02 -1.6314869392195E-01  4.3003186822984E-01
111  1.1000000000000E+00  3.4187601249238E-02 -1.3648243945098E-01  3.8289490153554E-01
112  1.1100000000000E+00  2.9879252343734E-02 -1.1238548247800E-01  3.3777296741595E-01
113  1.1200000000000E+00  2.5571291266000E-02 -9.0690624422159E-02  2.9485207489612E-01
114  1.1300000000000E+00  2.1331794161172E-02 -7.1283142464005E-02  2.5430472077860E-01
115  1.1400000000000E+00  1.7241926600434E-02 -5.4107648065287E-02  2.1628988517247E-01
116  1.1500000000000E+00  1.3394397962274E-02 -3.9167196094183E-02  1.8095355447326E-01
117  1.1600000000000E+00  9.8894929340921E-03 -2.6512743806000E-02  1.4842986799101E-01
118  1.1700000000000E+00  6.8281617934116E-03 -1.6220913102825E-02  1.1884300103770E-01
119  1.1800000000000E+00  4.3013570275541E-03 -8.3570992236089E-03  9.2309725905450E-02
120  1.1900000000000E+00  2.3748936509402E-03 -2.9212100067490E-03  6.8942759238751E-02
121  1.2000000000000E+00  1.0155906709854E-03  3.8697981430442E-04  4.8813776364168E-02
122  1.2100000000000E+00  1.6005902569412E-04  1.9813757462625E-03  3.2026457368441E-02
123  1.2200000000000E+00 -2.4232053313459E-04  2.2332497729013E-03  1.8726099245831E-02
124  1.2300000000000E+00 -2.9785255388470E-04  1.6221466785045E-03  8.9881048085251E-03
125  1.2400000000000E+00 -1.5615192891484E-04  6.8934183803169E-04  2.8067921702818E-03
126  1.2500000000000E+00 -1.5182982622841E-05  5.9039977917723E-05  1.8490704956422E-04
127  1.2600000000000E+00  5.0162543346537E-07 -1.8669400847450E-06 -5.1671321252835E-06
128  1.2700000000000E+00  1.3816860213598E-07 -5.6478662530046E-07 -1.9758952277262E-06
129  1.28 -0.  0. -0.
130  1.29  0.  0.  0.
131  1.30  0.  0.  0.
132  1.31  0.  0.  0.
133  1.32  0.  0.  0.
134  1.33  0.  0.  0.
135  1.34  0.  0.  0.
136  1.35  0.  0.  0.
137  1.36  0.  0.  0.
138  1.37  0.  0.  0.
139  1.38  0.  0.  0.
140  1.39  0.  0.  0.
141  1.40  0.  0.  0.
142  1.41  0.  0.  0.
143  1.42  0.  0.  0.
144  1.43  0.  0.  0.
145  1.44  0.  0.  0.
146  1.45  0.  0.  0.
147  1.46  0.  0.  0.
148  1.47  0.  0.  0.
149  1.48  0.  0.  0.
150  1.49  0.  0.  0.
151  1.50  0.  0.  0.
152  1.51  0.  0.  0.
153  1.52  0.  0.  0.
154  1.53  0.  0.  0.
155  1.54  0.  0.  0.
156  1.55  0.  0.  0.
157  1.56  0.  0.  0.
158  1.57  0.  0.  0.
159  1.58  0.  0.  0.
160  1.59  0.  0.  0.
161  1.60  0.  0.  0.
162  1.61  0.  0.  0.
163  1.62  0.  0.  0.
164  1.63  0.  0.  0.
165  1.64  0.  0.  0.
166  1.65  0.  0.  0.
167  1.66  0.  0.  0.
168  1.67  0.  0.  0.
169  1.68  0.  0.  0.
170  1.69  0.  0.  0.
171  1.70  0.  0.  0.
172  1.71  0.  0.  0.
173  1.72  0.  0.  0.
174  1.73  0.  0.  0.
175  1.74  0.  0.  0.
176  1.75  0.  0.  0.
177  1.76  0.  0.  0.
178  1.77  0.  0.  0.
179  1.78  0.  0.  0.
180  1.79  0.  0.  0.
181  1.80  0.  0.  0.
182  1.81  0.  0.  0.
183  1.82  0.  0.  0.
184  1.83  0.  0.  0.
185  1.84  0.  0.  0.
186  1.85  0.  0.  0.
187  1.86  0.  0.  0.
188  1.87  0.  0.  0.
189  1.88  0.  0.  0.
190  1.89  0.  0.  0.
191  1.90  0.  0.  0.
192  1.91  0.  0.  0.
193  1.92  0.  0.  0.
194  1.93  0.  0.  0.
195  1.94  0.  0.  0.
196  1.95  0.  0.  0.
197  1.96  0.  0.  0.
198  1.97  0.  0.  0.
199  1.98  0.  0.  0.
200  1.99  0.  0.  0.
201  2.00  0.  0.  0.
202  2.01  0.  0.  0.
203  2.02  0.  0.  0.
204  2.03  0.  0.  0.
205  2.04  0.  0.  0.
206  2.05  0.  0.  0.
207  2.06  0.  0.  0.
208  2.07  0.  0.  0.
209  2.08  0.  0.  0.
210  2.09  0.  0.  0.
211  2.10  0.  0.  0.
212  2.11  0.  0.  0.
213  2.12  0.  0.  0.
214  2.13  0.  0.  0.
215  2.14  0.  0.  0.
216  2.15  0.  0.  0.
217  2.16  0.  0.  0.
218  2.17  0.  0.  0.
219  2.18  0.  0.  0.
220  2.19  0.  0.  0.
221  2.20  0.  0.  0.
222  2.21  0.  0.  0.
223  2.22  0.  0.  0.
224  2.23  0.  0.  0.
225  2.24  0.  0.  0.
226  2.25  0.  0.  0.
227  2.26  0.  0.  0.
228  2.27  0.  0.  0.
229  2.28  0.  0.  0.
230  2.29  0.  0.  0.
231  2.30  0.  0.  0.
232  2.31  0.  0.  0.
233  2.32  0.  0.  0.
234  2.33  0.  0.  0.
235  2.34  0.  0.  0.
236  2.35  0.  0.  0.
237  2.36  0.  0.  0.
238  2.37  0.  0.  0.
239  2.38  0.  0.  0.
240  2.39  0.  0.  0.
241  2.40  0.  0.  0.
242  2.41  0.  0.  0.
243  2.42  0.  0.  0.
244  2.43  0.  0.  0.
245  2.44  0.  0.  0.
246  2.45  0.  0.  0.
247  2.46  0.  0.  0.
248  2.47  0.  0.  0.
249  2.48  0.  0.  0.
250  2.49  0.  0.  0.
251  2.50  0.  0.  0.
252  2.51  0.  0.  0.
253  2.52  0.  0.  0.
254  2.53  0.  0.  0.
255  2.54  0.  0.  0.
256  2.55  0.  0.  0.
257  2.56  0.  0.  0.
258  2.57  0.  0.  0.
259  2.58  0.  0.  0.
260  2.59  0.  0.  0.
261  2.60  0.  0.  0.
262  2.61  0.  0.  0.
263  2.62  0.  0.  0.
264  2.63  0.  0.  0.
265  2.64  0.  0.  0.
266  2.65  0.  0.  0.
267  2.66  0.  0.  0.
268  2.67  0.  0.  0.
269  2.68  0.  0.  0.
270  2.69  0.  0.  0.
271  2.70  0.  0.  0.
272  2.71  0.  0.  0.
273  2.72  0.  0.  0.
274  2.73  0.  0.  0.
275  2.74  0.  0.  0.
276  2.75  0.  0.  0.
277  2.76  0.  0.  0.
278  2.77  0.  0.  0.
279  2.78  0.  0.  0.
280  2.79  0.  0.  0.
281  2.80  0.  0.  0.
282  2.81  0.  0.  0.
283  2.82  0.  0.  0.
284  2.83  0.  0.  0.
285  2.84  0.  0.  0.
286  2.85  0.  0.  0.
287  2.86  0.  0.  0.
288  2.87  0.  0.  0.
289  2.88  0.  0.  0.
290  2.89  0.  0.  0.
291  2.90  0.  0.  0.
292  2.91  0.  0.  0.
293  2.92  0.  0.  0.
294  2.93  0.  0.  0.
295  2.94  0.  0.  0.
296  2.95  0.  0.  0.
297  2.96  0.  0.  0.
298  2.97  0.  0.  0.
299  2.98  0.  0.  0.
300  2.99  0.  0.  0.
301  3.00  0.  0.  0.
302  3.01  0.  0.  0.
303  3.02  0.  0.  0.
304  3.03  0.  0.  0.
305  3.04  0.  0.  0.
306  3.05  0.  0.  0.
307  3.06  0.  0.  0.
308  3.07  0.  0.  0.
309  3.08  0.  0.  0.
310  3.09  0.  0.  0.
311  3.10  0.  0.  0.
312  3.11  0.  0.  0.
313  3.12  0.  0.  0.
314  3.13  0.  0.  0.
315  3.14  0.  0.  0.
316  3.15  0.  0.  0.
317  3.16  0.  0.  0.
318  3.17  0.  0.  0.
319  3.18  0.  0.  0.
320  3.19  0.  0.  0.
321  3.20  0.  0.  0.
322  3.21  0.  0.  0.
323  3.22  0.  0.  0.
324  3.23  0.  0.  0.
325  3.24  0.  0.  0.
326  3.25  0.  0.  0.
327  3.26  0.  0.  0.
328  3.27  0.  0.  0.
329  3.28  0.  0.  0.
330  3.29  0.  0.  0.
331  3.30  0.  0.  0.
332  3.31  0.  0.  0.
333  3.32  0.  0.  0.
334  3.33  0.  0.  0.
335  3.34  0.  0.  0.
336  3.35  0.  0.  0.
337  3.36  0.  0.  0.
338  3.37  0.  0.  0.
339  3.38  0.  0.  0.
340  3.39  0.  0.  0.
341  3.40  0.  0.  0.
342  3.41  0.  0.  0.
343  3.42  0.  0.  0.
344  3.43  0.  0.  0.
345  3.44  0.  0.  0.
346  3.45  0.  0.  0.
347  3.46  0.  0.  0.
348  3.47  0.  0.  0.
349  3.48  0.  0.  0.
350  3.49  0.  0.  0.
351  3.50  0.  0.  0.
352  3.51  0.  0.  0.
353  3.52  0.  0.  0.
354  3.53  0.  0.  0.
355  3.54  0.  0.  0.
356  3.55  0.  0.  0.
357  3.56  0.  0.  0.
358  3.57  0.  0.  0.
359  3.58  0.  0.  0.
360  3.59  0.  0.  0.
361  3.60  0.  0.  0.
362  3.61  0.  0.  0.
363  3.62  0.  0.  0.
364  3.63  0.  0.  0.
365  3.64  0.  0.  0.
366  3.65  0.  0.  0.
367  3.66  0.  0.  0.
368  3.67  0.  0.  0.
369  3.68  0.  0.  0.
370  3.69  0.  0.  0.
371  3.70  0.  0.  0.
372  3.71  0.  0.  0.
373  3.72  0.  0.  0.
374  3.73  0.  0.  0.
375  3.74  0.  0.  0.
376  3.75  0.  0.  0.
377  3.76  0.  0.  0.
378  3.77  0.  0.  0.
379  3.78  0.  0.  0.
380  3.79  0.  0.  0.
381  3.80  0.  0.  0.
382  3.81  0.  0.  0.
383  3.82  0.  0.  0.
384  3.83  0.  0.  0.
385  3.84  0.  0.  0.
386  3.85  0.  0.  0.
387  3.86  0.  0.  0.
388  3.87  0.  0.  0.
389  3.88  0.  0.  0.
390  3.89  0.  0.  0.
391  3.90  0.  0.  0.
392  3.91  0.  0.  0.
393  3.92  0.  0.  0.
394  3.93  0.  0.  0.
395  3.94  0.  0.  0.
396  3.95  0.  0.  0.
397  3.96  0.  0.  0.
398  3.97  0.  0.  0.
399  3.98  0.  0.  0.
400  3.99  0.  0.  0.
401  4.00  0.  0.  0.
402  4.01  0.  0.  0.
403  4.02  0.  0.  0.
404  4.03  0.  0.  0.
405  4.04  0.  0.  0.
406  4.05  0.  0.  0.
407  4.06  0.  0.  0.
408  4.07  0.  0.  0.
409  4.08  0.  0.  0.
410  4.09  0.  0.  0.
411  4.10  0.  0.  0.
412  4.11  0.  0.  0.
413  4.12  0.  0.  0.
414  4.13  0.  0.  0.
415  4.14  0.  0.  0.
416  4.15  0.  0.  0.
417  4.16  0.  0.  0.
418  4.17  0.  0.  0.
419  4.18  0.  0.  0.
420  4.19  0.  0.  0.
421  4.20  0.  0.  0.
422  4.21  0.  0.  0.
423  4.22  0.  0.  0.
424  4.23  0.  0.  0.
425  4.24  0.  0.  0.
426  4.25  0.  0.  0.
427  4.26  0.  0.  0.
428  4.27  0.  0.  0.
429  4.28  0.  0.  0.
430  4.29  0.  0.  0.
431  4.30  0.  0.  0.
432  4.31  0.  0.  0.
433  4.32  0.  0.  0.
434  4.33  0.  0.  0.
435  4.34  0.  0.  0.
436  4.35  0.  0.  0.
437  4.36  0.  0.  0.
438  4.37  0.  0.  0.
439  4.38  0.  0.  0.
440  4.39  0.  0.  0.
441  4.40  0.  0.  0.
442  4.41  0.  0.  0.
443  4.42  0.  0.  0.
444  4.43  0.  0.  0.
445  4.44  0.  0.  0.
446  4.45  0.  0.  0.
447  4.46  0.  0.  0.
448  4.47  0.  0.  0.
449  4.48  0.  0.  0.
450  4.49  0.  0.  0.
451  4.50  0.  0.  0.
452  4.51  0.  0.  0.
453  4.52  0.  0.  0.
454  4.53  0.  0.  0.
455  4.54  0.  0.  0.
456  4.55  0.  0.  0.
457  4.56  0.  0.  0.
458  4.57  0.  0.  0.
459  4.58  0.  0.  0.
460  4.59  0.  0.  0.
461  4.60  0.  0.  0.
462  4.61  0.  0.  0.
463  4.62  0.  0.  0.
464  4.63  0.  0.  0.
465  4.64  0.  0.  0.
466  4.65  0.  0.  0.
467  4.66  0.  0.  0.
468  4.67  0.  0.  0.
469  4.68  0.  0.  0.
470  4.69  0.  0.  0.
471  4.70  0.  0.  0.
472  4.71  0.  0.  0.
473  4.72  0.  0.  0.
474  4.73  0.  0.  0.
475  4.74  0.  0.  0.
476  4.75  0.  0.  0.
477  4.76  0.  0.  0.
478  4.77  0.  0.  0.
479  4.78  0.  0.  0.
480  4.79  0.  0.  0.
481  4.80  0.  0.  0.
482  4.81  0.  0.  0.
483  4.82  0.  0.  0.
484  4.83  0.  0.  0.
485  4.84  0.  0.  0.
486  4.85  0.  0.  0.
487  4.86  0.  0.  0.
488  4.87  0.  0.  0.
489  4.88  0.  0.  0.
490  4.89  0.  0.  0.
491  4.90  0.  0.  0.
492  4.91  0.  0.  0.
493  4.92  0.  0.  0.
494  4.93  0.  0.  0.
495  4.94  0.  0.  0.
496  4.95  0.  0.  0.
497  4.96  0.  0.  0.
498  4.97  0.  0.  0.
499  4.98  0.  0.  0.
500  4.99  0.  0.  0.
501  5.00  0.  0.  0.
502  5.01  0.  0.  0.
503  5.02  0.  0.  0.
504  5.03  0.  0.  0.
505  5.04  0.  0.  0.
506  5.05  0.  0.  0.
507  5.06  0.  0.  0.
508  5.07  0.  0.  0.
509  5.08  0.  0.  0.
510  5.09  0.  0.  0.
511  5.10  0.  0.  0.
512  5.11  0.  0.  0.
513  5.12  0.  0.  0.
514  5.13  0.  0.  0.
515  5.14  0.  0.  0.
516  5.15  0.  0.  0.
517  5.16  0.  0.  0.
518  5.17  0.  0.  0.
519  5.18  0.  0.  0.
520  5.19  0.  0.  0.
521  5.20  0.  0.  0.
522  5.21  0.  0.  0.
523  5.22  0.  0.  0.
524  5.23  0.  0.  0.
525  5.24  0.  0.  0.
526  5.25  0.  0.  0.
527  5.26  0.  0.  0.
528  5.27  0.  0.  0.
529  5.28  0.  0.  0.
530  5.29  0.  0.  0.
531  5.30  0.  0.  0.
532  5.31  0.  0.  0.
533  5.32  0.  0.  0.
534  5.33  0.  0.  0.
535  5.34  0.  0.  0.
536  5.35  0.  0.  0.
537  5.36  0.  0.  0.
538  5.37  0.  0.  0.
539  5.38  0.  0.  0.
540  5.39  0.  0.  0.
541  5.40  0.  0.  0.
542  5.41  0.  0.  0.
543  5.42  0.  0.  0.
544  5.43  0.  0.  0.
545  5.44  0.  0.  0.
546  5.45  0.  0.  0.
547  5.46  0.  0.  0.
548  5.47  0.  0.  0.
549  5.48  0.  0.  0.
550  5.49  0.  0.  0.
551  5.50  0.  0.  0.
552  5.51  0.  0.  0.
553  5.52  0.  0.  0.
554  5.53  0.  0.  0.
555  5.54  0.  0.  0.
556  5.55  0.  0.  0.
557  5.56  0.  0.  0.
558  5.57  0.  0.  0.
559  5.58  0.  0.  0.
560  5.59  0.  0.  0.
561  5.60  0.  0.  0.
562  5.61  0.  0.  0.
563  5.62  0.  0.  0.
564  5.63  0.  0.  0.
565  5.64  0.  0.  0.
566  5.65  0.  0.  0.
567  5.66  0.  0.  0.
568  5.67  0.  0.  0.
569  5.68  0.  0.  0.
570  5.69  0.  0.  0.
571  5.70  0.  0.  0.
572  5.71  0.  0.  0.
573  5.72  0.  0.  0.
574  5.73  0.  0.  0.
575  5.74  0.  0.  0.
576  5.75  0.  0.  0.
577  5.76  0.  0.  0.
578  5.77  0.  0.  0.
579  5.78  0.  0.  0.
580  5.79  0.  0.  0.
581  5.80  0.  0.  0.
582  5.81  0.  0.  0.
583  5.82  0.  0.  0.
584  5.83  0.  0.  0.
585  5.84  0.  0.  0.
586  5.85  0.  0.  0.
587  5.86  0.  0.  0.
588  5.87  0.  0.  0.
589  5.88  0.  0.  0.
590  5.89  0.  0.  0.
591  5.90  0.  0.  0.
592  5.91  0.  0.  0.
593  5.92  0.  0.  0.
594  5.93  0.  0.  0.
595  5.94  0.  0.  0.
596  5.95  0.  0.  0.
597  5.96  0.  0.  0.
598  5.97  0.  0.  0.
599  5.98  0.  0.  0.
600  5.99  0.  0.  0.
1                         7.4391920612913E+00 -1.1162001991837E+00
1  0.0000000000000E+00 -4.8269639951748E-09 -9.6664586040490E-09
2  1.0000000000000E-02  3.6792347133285E-03  2.0700236105711E-04
3  2.0000000000000E-02  1.4691126375605E-02  8.3378471941777E-04
4  3.0000000000000E-02  3.2958311116052E-02  1.8974792360452E-03
5  4.0000000000000E-02  5.8352098046837E-02  3.4260004152135E-03
6  5.0000000000000E-02  9.0692855353452E-02  5.4571088277816E-03
7  6.0000000000000E-02  1.2975057571830E-01  8.0371443112182E-03
8  7.0000000000000E-02  1.7524564461074E-01  1.1219470905719E-02
9  8.0000000000000E-02  2.2684983980381E-01  1.5062685452216E-02
10  9.0000000000000E-02  2.8418759397089E-01  1.9628649744638E-02
11  1.0000000000000E-01  3.4683755417355E-01  2.4980412130225E-02
12  1.1000000000000E-01  4.1433447232495E-01  3.1180088285951E-02
13  1.2000000000000E-01  4.8617145921155E-01  3.8286772432826E-02
14  1.3000000000000E-01  5.6180263134787E-01  4.6354549422931E-02
15  1.4000000000000E-01  6.4064617486030E-01  5.5430674962259E-02
16  1.5000000000000E-01  7.2208784384006E-01  6.5553985806817E-02
17  1.6000000000000E-01  8.0548490233181E-01  7.6753594254138E-02
18  1.7000000000000E-01  8.9017050954321E-01  8.9047911879178E-02
19  1.8000000000000E-01  9.7545853723836E-01  1.0244403652644E-01
20  1.9000000000000E-01  1.0606487969166E+00  1.1693752441389E-01
21  2.0000000000000E-01  1.1450326426201E+00  1.3251255621682E-01
22  2.1000000000000E-01  1.2278989034183E+00  1.4914249259772E-01
23  2.2000000000000E-01  1.3085400881597E+00  1.6679080126549E-01
24  2.3000000000000E-01  1.3862587943367E+00  1.8541232472084E-01
25  2.4000000000000E-01  1.4603742432366E+00  2.0495484580052E-01
26  2.5000000000000E-01  1.5302288552939E+00  2.2536089737333E-01
27  2.6000000000000E-01  1.5951947730200E+00  2.4656975343072E-01
28  2.7000000000000E-01  1.6546802343245E+00  2.6851953166939E-01
29  2.8000000000000E-01  1.7081356966689E+00  2.9114933273963E-01
30  2.9000000000000E-01  1.7550596124506E+00  3.1440133881832E-01
31  3.0000000000000E-01  1.7950037583901E+00  3.3822279417401E-01
32  3.1000000000000E-01  1.8275780264896E+00  3.6256779295450E-01
33  3.2000000000000E-01  1.8524545912952E+00  3.8739880450105E-01
34  3.3000000000000E-01  1.8693713775914E+00  4.1268787394487E-01
35  3.4000000000000E-01  1.8781347640872E+00  4.3841744546992E-01
36  3.5000000000000E-01  1.8786214718614E+00  4.6458076714878E-01
37  3.6000000000000E-01  1.8707796009980E+00  4.9118184933732E-01
38  3.7000000000000E-01  1.8546287946027E+00  5.1823496285019E-01
39  3.8000000000000E-01  1.8302595258405E+00  5.4576367809592E-01
40  3.9000000000000E-01  1.7978315203581E+00  5.7379946155995E-01
41  4.0000000000000E-01  1.7575713430024E+00  6.0237986100416E-01
42  4.1000000000000E-01  1.7097691936910E+00  6.3154632502090E-01
43  4.2000000000000E-01  1.6547749722012E+00  6.6134171567332E-01
44  4.3000000000000E-01  1.5929936851281E+00  6.9180758443542E-01
45  4.4000000000000E-01  1.5248802799547E+00  7.2298129112586E-01
46  4.5000000000000E-01  1.4509340007788E+00  7.5489305267565E-01
47  4.6000000000000E-01  1.3716923674912E+00  7.8756301311858E-01
48  4.7000000000000E-01  1.2877248849271E+00  8.2099842795917E-01
49  4.8000000000000E-01  1.1996265905979E+00  8.5519105495613E-01
50  4.9000000000000E-01  1.1080115490361E+00  8.9011483935032E-01
51  5.0000000000000E-01  1.0135063975841E+00  9.2572397474489E-01
52  5.1000000000000E-01  9.1674404276827E-01  9.6195141138348E-01
53  5.2000000000000E-01  8.1835759840861E-01  9.9870787172646E-01
54  5.3000000000000E-01  7.1897464659825E-01  1.0358814193299E+00
55  5.4000000000000E-01  6.1921189096740E-01  1.0733376114936E+00
56  5.5000000000000E-01  5.1967025860247E-01  1.1109202494220E+00
57  5.6000000000000E-01  4.2093049303626E-01  1.1484527222460E+00
58  5.7000000000000E-01  3.2354926630029E-01  1.1857399237086E+00
59  5.8000000000000E-01  2.2805582358678E-01  1.2225707031832E+00
60  5.9000000000000E-01  1.3494916005160E-01  1.2587207964883E+00
61  6.0000000000000E-01  4.4695716132098E-02  1.2939561672248E+00
62  6.1000000000000E-01 -4.2272434147562E-02  1.3280366765520E+00
63  6.2000000000000E-01 -1.2555893770387E-01  1.3607199888639E+00
64  6.3000000000000E-01 -2.0480410396122E-01  1.3917656130793E+00
65  6.4000000000000E-01 -2.7968548391821E-01  1.4209389744865E+00
66  6.5000000000000E-01 -3.4991814113370E-01  1.4480154104651E+00
67  6.6000000000000E-01 -4.1525467064937E-01  1.4727839850207E+00
68  6.7000000000000E-01 -4.7548502110299E-01  1.4950510218989E+00
69  6.8000000000000E-01 -5.3043617225628E-01  1.5146432639565E+00
70  6.9000000000000E-01 -5.7997171503316E-01  1.5314105772516E+00
71  7.0000000000000E-01 -6.2399137418393E-01  1.5452281316347E+00
72  7.1000000000000E-01 -6.6243050517042E-01  1.5559980050956E+00
73  7.2000000000000E-01 -6.9525958717492E-01  1.5636501762551E+00
74  7.3000000000000E-01 -7.2248372368456E-01  1.5681428876652E+00
75  7.4000000000000E-01 -7.4414215133559E-01  1.5694623814108E+00
76  7.5000000000000E-01 -7.6030774707610E-01  1.5676220273058E+00
77  7.6000000000000E-01 -7.7108651367767E-01  1.5626608821265E+00
78  7.7000000000000E-01 -7.7661701463712E-01  1.5546417352576E+00
79  7.8000000000000E-01 -7.7706972196269E-01  1.5436487112707E+00
80  7.9000000000000E-01 -7.7264623459669E-01  1.5297845128253E+00
81  8.0000000000000E-01 -7.6357832158446E-01  1.5131673974409E+00
82  8.1000000000000E-01 -7.5012674278298E-01  1.4939279887878E+00
83  8.2000000000000E-01 -7.3257980105492E-01  1.4722060269447E+00
84  8.3000000000000E-01 -7.1125158356844E-01  1.4481471624184E+00
85  8.4000000000000E-01 -6.8647985598350E-01  1.4218998955878E+00
86  8.5000000000000E-01 -6.5862358181765E-01  1.3936127567075E+00
87  8.6000000000000E-01 -6.2806004992900E-01  1.3634318118753E+00
88  8.7000000000000E-01 -5.9518160552162E-01  1.3314985677365E+00
89  8.8000000000000E-01 -5.6039199398602E-01  1.2979483325751E+00
90  8.9000000000000E-01 -5.2410234178338E-01  1.2629090743120E+00
91  9.0000000000000E-01 -4.8672681396382E-01  1.2265007973606E+00
92  9.1000000000000E-01 -4.4867800323609E-01  1.1888354409019E+00
93  9.2000000000000E-01 -4.1036212021624E-01  1.1500172815926E+00
94  9.3000000000000E-01 -3.7217406801138E-01  1.1101438046901E+00
95  9.4000000000000E-01 -3.3449249609052E-01  1.0693069897342E+00
96  9.5000000000000E-01 -2.9767493793808E-01  1.0275949409322E+00
97  9.6000000000000E-01 -2.6205314380588E-01  9.8509377884155E-01
98  9.7000000000000E-01 -2.2792872356860E-01  9.4188969939765E-01
99  9.8000000000000E-01 -1.9556921491406E-01  8.9807109924743E-01
100  9.9000000000000E-01 -1.6520468861899E-01  8.5373066310788E-01
101  1.0000000000000E+00 -1.3702499532468E-01  8.0896730974820E-01
102  1.0100000000000E+00 -1.1117774699664E-01  7.6388789834420E-01
103  1.0200000000000E+00 -8.7767111166498E-02  7.1860860644403E-01
104  1.0300000000000E+00 -6.6853477288942E-02  6.7325590453077E-01
105  1.0400000000000E+00 -4.8454032377113E-02  6.2796706997333E-01
106  1.0500000000000E+00 -3.2544257794866E-02  5.8289020478650E-01
107  1.0600000000000E+00 -1.9060331207591E-02  5.3818374660995E-01
108  1.0700000000000E+00 -7.9023876803887E-03  4.9401549022728E-01
109  1.0800000000000E+00  1.0614377103041E-03  4.5056116727356E-01
110  1.0900000000000E+00  7.9902958559106E-03  4.0800266376294E-01
111  1.1000000000000E+00  1.3065381211237E-02  3.6652598829543E-01
112  1.1100000000000E+00  1.6484336485010E-02  3.2631913733064E-01
113  1.1200000000000E+00  1.8455511493897E-02  2.8757003731867E-01
114  1.1300000000000E+00  1.9192313178038E-02  2.5046477590923E-01
115  1.1400000000000E+00  1.8907911580952E-02  2.1518636540472E-01
116  1.1500000000000E+00  1.7810591698436E-02  1.8191431044194E-01
117  1.1600000000000E+00  1.6100063081810E-02  1.5082527809358E-01
118  1.1700000000000E+00  1.3965073408813E-02  1.2209520465568E-01
119  1.1800000000000E+00  1.1582554751986E-02  9.5903085329285E-02
120  1.1900000000000E+00  9.1186840621903E-03  7.2436860389101E-02