Np    ONCVPSP-4.0.1  r_core=   1.25290   1.25290   1.50818   1.50818
93.0000     33.0000      231012    zatom,zion,pspd
8 -116133   3     4   600     0    pspcod,pspxc,lmax,lloc,mmax,r2well
5.99000000  4.00000000  0.00000000    rchrg fchrg qchrg
3     3     3     2    nproj
3     1           extension_switch
4     3     4    nprojso
0                         2.2588455373835E+01  2.4790857268922E+00 -1.1439042866339E+00
1  0.0000000000000E+00 -4.2804020772280E-08  1.4991361596550E-07 -2.8400357066083E-09
2  1.0000000000000E-02  1.4367868942280E-01 -7.3398404710478E-02  2.8021570828647E-02
3  2.0000000000000E-02  2.8636613003939E-01 -1.4507679917013E-01  5.5928337375027E-02
4  3.0000000000000E-02  4.2708551686755E-01 -2.1335808461629E-01  8.3606684998555E-02
5  4.0000000000000E-02  5.6488856022662E-01 -2.7664970498637E-01  1.1094535685417E-01
6  5.0000000000000E-02  6.9886882414918E-01 -3.3348275828012E-01  1.3783657986242E-01
7  6.0000000000000E-02  8.2817399388394E-01 -3.8254742858964E-01  1.6417712935019E-01
8  7.0000000000000E-02  9.5201676802934E-01 -4.2272369620538E-01  1.8986931545931E-01
9  8.0000000000000E-02  1.0696841136413E+00 -4.5310643312037E-01  2.1482187726047E-01
10  9.0000000000000E-02  1.1805446734948E+00 -4.7302416935001E-01  2.3895077382562E-01
11  1.0000000000000E-01  1.2840541718956E+00 -4.8205101600795E-01  2.6217986516277E-01
12  1.1000000000000E-01  1.3797587271787E+00 -4.8001144755400E-01  2.8444147974382E-01
13  1.2000000000000E-01  1.4672960432932E+00 -4.6697787107088E-01  3.0567686919507E-01
14  1.3000000000000E-01  1.5463945175731E+00 -4.4326113755504E-01  3.2583655440249E-01
15  1.4000000000000E-01  1.6168703648343E+00 -4.0939437169830E-01  3.4488057064740E-01
16  1.5000000000000E-01  1.6786229172879E+00 -3.6611070535389E-01  3.6277862228308E-01
17  1.6000000000000E-01  1.7316283134870E+00 -3.1431568909706E-01  3.7951015975580E-01
18  1.7000000000000E-01  1.7759318359201E+00 -2.5505531992942E-01  3.9506439335703E-01
19  1.8000000000000E-01  1.8116391944143E+00 -1.8948075598025E-01  4.0944025888850E-01
20  1.9000000000000E-01  1.8389070800448E+00 -1.1881088678796E-01  4.2264635038044E-01
21  2.0000000000000E-01  1.8579333308751E+00 -4.4293987290280E-02  4.3470083411662E-01
22  2.1000000000000E-01  1.8689470560820E+00  3.2830296840110E-02  4.4563135651068E-01
23  2.2000000000000E-01  1.8721990587078E+00  1.1136740597092E-01  4.5547495591105E-01
24  2.3000000000000E-01  1.8679528796849E+00  1.9020159978063E-01  4.6427798527981E-01
25  2.4000000000000E-01  1.8564767575074E+00  2.6832590010718E-01  4.7209604902466E-01
26  2.5000000000000E-01  1.8380367599547E+00  3.4486730964242E-01  4.7899395321542E-01
27  2.6000000000000E-01  1.8128912978942E+00  4.1910653600017E-01  4.8504566416530E-01
28  2.7000000000000E-01  1.7812871779693E+00  4.9049163862436E-01  4.9033426609276E-01
29  2.8000000000000E-01  1.7434572927088E+00  5.5864522244638E-01  4.9495190450248E-01
30  2.9000000000000E-01  1.6996199852361E+00  6.2336502033933E-01  4.9899969823297E-01
31  3.0000000000000E-01  1.6499800633716E+00  6.8461792910274E-01  5.0258760000451E-01
32  3.1000000000000E-01  1.5947313766026E+00  7.4252778362407E-01  5.0583418294114E-01
33  3.2000000000000E-01  1.5340608112093E+00  7.9735736379200E-01  5.0886632908663E-01
34  3.3000000000000E-01  1.4681535057313E+00  8.4948532180668E-01  5.1181879550886E-01
35  3.4000000000000E-01  1.3971990427317E+00  8.9937888741129E-01  5.1483363427784E-01
36  3.5000000000000E-01  1.3213983350245E+00  9.4756334970681E-01  5.1805944445495E-01
37  3.6000000000000E-01  1.2409708964544E+00  9.9458942199126E-01  5.2165043724923E-01
38  3.7000000000000E-01  1.1561621699242E+00  1.0409996669767E+00  5.2576529963741E-01
39  3.8000000000000E-01  1.0672505792472E+00  1.0872951914704E+00  5.3056584692077E-01
40  3.9000000000000E-01  9.7455397680515E-01  1.1339038111595E+00  5.3621546077284E-01
41  4.0000000000000E-01  8.7843517575476E-01  1.1811508378039E+00  5.4287731614611E-01
42  4.1000000000000E-01  7.7930628312492E-01  1.2292335545405E+00  5.5071240774656E-01
43  4.2000000000000E-01  6.7763158769247E-01  1.2782003230036E+00  5.5987739441653E-01
44  4.3000000000000E-01  5.7392880279423E-01  1.3279351125964E+00  5.7052228743233E-01
45  4.4000000000000E-01  4.6876851772127E-01  1.3781480625624E+00  5.8278801615419E-01
46  4.5000000000000E-01  3.6277177029114E-01  1.4283724874175E+00  5.9680391138835E-01
47  4.6000000000000E-01  2.5660571567388E-01  1.4779685223947E+00  6.1268515296967E-01
48  4.7000000000000E-01  1.5097743050499E-01  1.5261333848240E+00  6.3053023319611E-01
49  4.8000000000000E-01  4.6625954645439E-02  1.5719180070905E+00  6.5041849161970E-01
50  4.9000000000000E-01 -5.5687266434492E-02  1.6142495841481E+00  6.7240777913195E-01
51  5.0000000000000E-01 -1.5518931976661E-01  1.6519593804970E+00  6.9653231012532E-01
52  5.1000000000000E-01 -2.5110787525735E-01  1.6838149644899E+00  7.2280076066807E-01
53  5.2000000000000E-01 -3.4268403891895E-01  1.7085558875737E+00  7.5119466805042E-01
54  5.3000000000000E-01 -4.2918566792459E-01  1.7249317074505E+00  7.8166718275529E-01
55  5.4000000000000E-01 -5.0992078541312E-01  1.7317411709711E+00  8.1414221794607E-01
56  5.5000000000000E-01 -5.8425072321130E-01  1.7278713274830E+00  8.4851403407203E-01
57  5.6000000000000E-01 -6.5160262250208E-01  1.7123353377257E+00  8.8464728734747E-01
58  5.7000000000000E-01 -7.1148093589292E-01  1.6843077772914E+00  9.2237756089382E-01
59  5.8000000000000E-01 -7.6347759890203E-01  1.6431563059284E+00  9.6151238651564E-01
60  5.9000000000000E-01 -8.0728057379503E-01  1.5884686821156E+00  1.0018327537178E+00
61  6.0000000000000E-01 -8.4268051284844E-01  1.5200742427548E+00  1.0430950909935E+00
62  6.1000000000000E-01 -8.6957534006986E-01  1.4380591358676E+00  1.0850336929649E+00
63  6.2000000000000E-01 -8.8797260850698E-01  1.3427747843243E+00  1.1273635559907E+00
64  6.3000000000000E-01 -8.9798955267183E-01  1.2348392646602E+00  1.1697835747002E+00
65  6.4000000000000E-01 -8.9985082031210E-01  1.1151315002681E+00  1.2119800428980E+00
66  6.5000000000000E-01 -8.9388393273343E-01  9.8477838576182E-01  1.2536303946806E+00
67  6.6000000000000E-01 -8.8051258607947E-01  8.4513517212167E-01  1.2944071156751E+00
68  6.7000000000000E-01 -8.6024796544825E-01  6.9775964363304E-01  1.3339817502250E+00
69  6.8000000000000E-01 -8.3367829763932E-01  5.4438080128943E-01  1.3720289282619E+00
70  6.9000000000000E-01 -8.0145691506112E-01  3.8686292759117E-01  1.4082303355676E+00
71  7.0000000000000E-01 -7.6428914150764E-01  2.2716603968605E-01  1.4422785531682E+00
72  7.1000000000000E-01 -7.2291833905202E-01  6.7303837679687E-02  1.4738806956358E+00
73  7.2000000000000E-01 -6.7811147344656E-01 -9.0699680081942E-02  1.5027617839809E+00
74  7.3000000000000E-01 -6.3064456275183E-01 -2.4485373451149E-01  1.5286677964076E+00
75  7.4000000000000E-01 -5.8128837038483E-01 -3.9324322431195E-01  1.5513683492264E+00
76  7.5000000000000E-01 -5.3079468967448E-01 -5.3406897843617E-01  1.5706589703800E+00
77  7.6000000000000E-01 -4.7988354297128E-01 -6.6568473421523E-01  1.5863629390110E+00
78  7.7000000000000E-01 -4.2923158532393E-01 -7.8662988290176E-01  1.5983326759163E+00
79  7.8000000000000E-01 -3.7946196191395E-01 -8.9565716158699E-01  1.6064506812323E+00
80  7.9000000000000E-01 -3.3113582128001E-01 -9.9175463005112E-01  1.6106300268964E+00
81  8.0000000000000E-01 -2.8474563447441E-01 -1.0741614477042E+00  1.6108144219779E+00
82  8.1000000000000E-01 -2.4071041540645E-01 -1.1423771535061E+00  1.6069778785278E+00
83  8.2000000000000E-01 -1.9937288152605E-01 -1.1961643445418E+00  1.5991240138687E+00
84  8.3000000000000E-01 -1.6099853846176E-01 -1.2355448406644E+00  1.5872850319798E+00
85  8.4000000000000E-01 -1.2577661895730E-01 -1.2607896073991E+00  1.5715204316408E+00
86  8.5000000000000E-01 -9.3822757040347E-02 -1.2724028815682E+00  1.5519154921514E+00
87  8.6000000000000E-01 -6.5183234211939E-02 -1.2711010988797E+00  1.5285795886848E+00
88  8.7000000000000E-01 -3.9840596761004E-02 -1.2577873557409E+00  1.5016443886791E+00
89  8.8000000000000E-01 -1.7720413026402E-02 -1.2335222453582E+00  1.4712619781998E+00
90  8.9000000000000E-01  1.3010827842011E-03 -1.1994919882428E+00  1.4376029630838E+00
91  9.0000000000000E-01  1.7388727378024E-02 -1.1569748279917E+00  1.4008545841074E+00
92  9.1000000000000E-01  3.0739818159753E-02 -1.1073066840931E+00  1.3612188786878E+00
93  9.2000000000000E-01  4.1575425309775E-02 -1.0518470448936E+00  1.3189109140468E+00
94  9.3000000000000E-01  5.0131884476800E-02 -9.9194604707479E-01  1.2741571086881E+00
95  9.4000000000000E-01  5.6652710239091E-02 -9.2891362513344E-01  1.2271936508472E+00
96  9.5000000000000E-01  6.1381146022052E-02 -8.6399152825369E-01  1.1782650146363E+00
97  9.6000000000000E-01  6.4553536428629E-02 -7.9832889597474E-01  1.1276225673190E+00
98  9.7000000000000E-01  6.6393674095413E-02 -7.3296196199581E-01  1.0755232548533E+00
99  9.8000000000000E-01  6.7108236393040E-02 -6.6879832121105E-01  1.0222283478628E+00
100  9.9000000000000E-01  6.6883388766690E-02 -6.0660605278449E-01  9.6800222682078E-01
101  1.0000000000000E+00  6.5882592362094E-02 -5.4700784554681E-01  9.1311118366291E-01
102  1.0100000000000E+00  6.4245614857401E-02 -4.9048012491987E-01  8.5782221745068E-01
103  1.0200000000000E+00  6.2088705950425E-02 -4.3735703591080E-01  8.0240180415844E-01
104  1.0300000000000E+00  5.9505863472286E-02 -3.8783899721114E-01  7.4711462516136E-01
105  1.0400000000000E+00  5.6571083054425E-02 -3.4200540885943E-01  6.9222224546765E-01
106  1.0500000000000E+00  5.3341453837330E-02 -2.9983097111714E-01  6.3798174103081E-01
107  1.0600000000000E+00  4.9860934931407E-02 -2.6120495577271E-01  5.8464428433078E-01
108  1.0700000000000E+00  4.6164621841108E-02 -2.2595266204922E-01  5.3245370853051E-01
109  1.0800000000000E+00  4.2283288283569E-02 -1.9385818612511E-01  4.8164508253973E-01
110  1.0900000000000E+00  3.8247966054075E-02 -1.6468753404521E-01  4.3244334175664E-01
111  1.1000000000000E+00  3.4094302620166E-02 -1.3821100870311E-01  3.8506203172161E-01
112  1.1100000000000E+00  2.9866411917493E-02 -1.1422369964103E-01  3.3970223378478E-01
113  1.1200000000000E+00  2.5619906815878E-02 -9.2562794585478E-02  2.9655175271286E-01
114  1.1300000000000E+00  2.1423770516854E-02 -7.3120309622541E-02  2.5578465531829E-01
115  1.1400000000000E+00  1.7360687072908E-02 -5.5849695346330E-02  2.1756125617879E-01
116  1.1500000000000E+00  1.3525406640524E-02 -4.0764613952414E-02  1.8202865076083E-01
117  1.1600000000000E+00  1.0020667348894E-02 -2.7927991749920E-02  1.4932189726947E-01
118  1.1700000000000E+00  6.9501576856838E-03 -1.7429306828990E-02  1.1956596575273E-01
119  1.1800000000000E+00  4.4077054717229E-03 -9.3471497145979E-03  9.2878400069108E-02
120  1.1900000000000E+00  2.4619727735736E-03 -3.6943458068563E-03  6.9372808120995E-02
121  1.2000000000000E+00  1.0815299868553E-03 -1.7994358927980E-04  4.9121589173074E-02
122  1.2100000000000E+00  2.0487542388343E-04  1.6007443960970E-03  3.2229965233895E-02
123  1.2200000000000E+00 -2.1596056137075E-04  2.0080813699387E-03  1.8845613609173E-02
124  1.2300000000000E+00 -2.8550867570055E-04  1.5140601922339E-03  9.0455312811586E-03
125  1.2400000000000E+00 -1.5252330357324E-04  6.5599333643784E-04  2.8246838443645E-03
126  1.2500000000000E+00 -1.4982239291539E-05  5.6910386330699E-05  1.8607528188524E-04
127  1.2600000000000E+00  4.9533288433112E-07 -1.8074719040091E-06 -5.1999432678124E-06
128  1.2700000000000E+00  1.3547207379845E-07 -5.4139624288456E-07 -1.9885248397183E-06
129  1.28  0.  0.  0.
130  1.29  0.  0.  0.
131  1.30  0.  0.  0.
132  1.31  0.  0.  0.
133  1.32  0.  0.  0.
134  1.33  0.  0.  0.
135  1.34  0.  0.  0.
136  1.35  0.  0.  0.
137  1.36  0.  0.  0.
138  1.37  0.  0.  0.
139  1.38  0.  0.  0.
140  1.39  0.  0.  0.
141  1.40  0.  0.  0.
142  1.41  0.  0.  0.
143  1.42  0.  0.  0.
144  1.43  0.  0.  0.
145  1.44  0.  0.  0.
146  1.45  0.  0.  0.
147  1.46  0.  0.  0.
148  1.47  0.  0.  0.
149  1.48  0.  0.  0.
150  1.49  0.  0.  0.
151  1.50  0.  0.  0.
152  1.51  0.  0.  0.
153  1.52  0.  0.  0.
154  1.53  0.  0.  0.
155  1.54  0.  0.  0.
156  1.55  0.  0.  0.
157  1.56  0.  0.  0.
158  1.57  0.  0.  0.
159  1.58  0.  0.  0.
160  1.59  0.  0.  0.
161  1.60  0.  0.  0.
162  1.61  0.  0.  0.
163  1.62  0.  0.  0.
164  1.63  0.  0.  0.
165  1.64  0.  0.  0.
166  1.65  0.  0.  0.
167  1.66  0.  0.  0.
168  1.67  0.  0.  0.
169  1.68  0.  0.  0.
170  1.69  0.  0.  0.
171  1.70  0.  0.  0.
172  1.71  0.  0.  0.
173  1.72  0.  0.  0.
174  1.73  0.  0.  0.
175  1.74  0.  0.  0.
176  1.75  0.  0.  0.
177  1.76  0.  0.  0.
178  1.77  0.  0.  0.
179  1.78  0.  0.  0.
180  1.79  0.  0.  0.
181  1.80  0.  0.  0.
182  1.81  0.  0.  0.
183  1.82  0.  0.  0.
184  1.83  0.  0.  0.
185  1.84  0.  0.  0.
186  1.85  0.  0.  0.
187  1.86  0.  0.  0.
188  1.87  0.  0.  0.
189  1.88  0.  0.  0.
190  1.89  0.  0.  0.
191  1.90  0.  0.  0.
192  1.91  0.  0.  0.
193  1.92  0.  0.  0.
194  1.93  0.  0.  0.
195  1.94  0.  0.  0.
196  1.95  0.  0.  0.
197  1.96  0.  0.  0.
198  1.97  0.  0.  0.
199  1.98  0.  0.  0.
200  1.99  0.  0.  0.
201  2.00  0.  0.  0.
202  2.01  0.  0.  0.
203  2.02  0.  0.  0.
204  2.03  0.  0.  0.
205  2.04  0.  0.  0.
206  2.05  0.  0.  0.
207  2.06  0.  0.  0.
208  2.07  0.  0.  0.
209  2.08  0.  0.  0.
210  2.09  0.  0.  0.
211  2.10  0.  0.  0.
212  2.11  0.  0.  0.
213  2.12  0.  0.  0.
214  2.13  0.  0.  0.
215  2.14  0.  0.  0.
216  2.15  0.  0.  0.
217  2.16  0.  0.  0.
218  2.17  0.  0.  0.
219  2.18  0.  0.  0.
220  2.19  0.  0.  0.
221  2.20  0.  0.  0.
222  2.21  0.  0.  0.
223  2.22  0.  0.  0.
224  2.23  0.  0.  0.
225  2.24  0.  0.  0.
226  2.25  0.  0.  0.
227  2.26  0.  0.  0.
228  2.27  0.  0.  0.
229  2.28  0.  0.  0.
230  2.29  0.  0.  0.
231  2.30  0.  0.  0.
232  2.31  0.  0.  0.
233  2.32  0.  0.  0.
234  2.33  0.  0.  0.
235  2.34  0.  0.  0.
236  2.35  0.  0.  0.
237  2.36  0.  0.  0.
238  2.37  0.  0.  0.
239  2.38  0.  0.  0.
240  2.39  0.  0.  0.
241  2.40  0.  0.  0.
242  2.41  0.  0.  0.
243  2.42  0.  0.  0.
244  2.43  0.  0.  0.
245  2.44  0.  0.  0.
246  2.45  0.  0.  0.
247  2.46  0.  0.  0.
248  2.47  0.  0.  0.
249  2.48  0.  0.  0.
250  2.49  0.  0.  0.
251  2.50  0.  0.  0.
252  2.51  0.  0.  0.
253  2.52  0.  0.  0.
254  2.53  0.  0.  0.
255  2.54  0.  0.  0.
256  2.55  0.  0.  0.
257  2.56  0.  0.  0.
258  2.57  0.  0.  0.
259  2.58  0.  0.  0.
260  2.59  0.  0.  0.
261  2.60  0.  0.  0.
262  2.61  0.  0.  0.
263  2.62  0.  0.  0.
264  2.63  0.  0.  0.
265  2.64  0.  0.  0.
266  2.65  0.  0.  0.
267  2.66  0.  0.  0.
268  2.67  0.  0.  0.
269  2.68  0.  0.  0.
270  2.69  0.  0.  0.
271  2.70  0.  0.  0.
272  2.71  0.  0.  0.
273  2.72  0.  0.  0.
274  2.73  0.  0.  0.
275  2.74  0.  0.  0.
276  2.75  0.  0.  0.
277  2.76  0.  0.  0.
278  2.77  0.  0.  0.
279  2.78  0.  0.  0.
280  2.79  0.  0.  0.
281  2.80  0.  0.  0.
282  2.81  0.  0.  0.
283  2.82  0.  0.  0.
284  2.83  0.  0.  0.
285  2.84  0.  0.  0.
286  2.85  0.  0.  0.
287  2.86  0.  0.  0.
288  2.87  0.  0.  0.
289  2.88  0.  0.  0.
290  2.89  0.  0.  0.
291  2.90  0.  0.  0.
292  2.91  0.  0.  0.
293  2.92  0.  0.  0.
294  2.93  0.  0.  0.
295  2.94  0.  0.  0.
296  2.95  0.  0.  0.
297  2.96  0.  0.  0.
298  2.97  0.  0.  0.
299  2.98  0.  0.  0.
300  2.99  0.  0.  0.
301  3.00  0.  0.  0.
302  3.01  0.  0.  0.
303  3.02  0.  0.  0.
304  3.03  0.  0.  0.
305  3.04  0.  0.  0.
306  3.05  0.  0.  0.
307  3.06  0.  0.  0.
308  3.07  0.  0.  0.
309  3.08  0.  0.  0.
310  3.09  0.  0.  0.
311  3.10  0.  0.  0.
312  3.11  0.  0.  0.
313  3.12  0.  0.  0.
314  3.13  0.  0.  0.
315  3.14  0.  0.  0.
316  3.15  0.  0.  0.
317  3.16  0.  0.  0.
318  3.17  0.  0.  0.
319  3.18  0.  0.  0.
320  3.19  0.  0.  0.
321  3.20  0.  0.  0.
322  3.21  0.  0.  0.
323  3.22  0.  0.  0.
324  3.23  0.  0.  0.
325  3.24  0.  0.  0.
326  3.25  0.  0.  0.
327  3.26  0.  0.  0.
328  3.27  0.  0.  0.
329  3.28  0.  0.  0.
330  3.29  0.  0.  0.
331  3.30  0.  0.  0.
332  3.31  0.  0.  0.
333  3.32  0.  0.  0.
334  3.33  0.  0.  0.
335  3.34  0.  0.  0.
336  3.35  0.  0.  0.
337  3.36  0.  0.  0.
338  3.37  0.  0.  0.
339  3.38  0.  0.  0.
340  3.39  0.  0.  0.
341  3.40  0.  0.  0.
342  3.41  0.  0.  0.
343  3.42  0.  0.  0.
344  3.43  0.  0.  0.
345  3.44  0.  0.  0.
346  3.45  0.  0.  0.
347  3.46  0.  0.  0.
348  3.47  0.  0.  0.
349  3.48  0.  0.  0.
350  3.49  0.  0.  0.
351  3.50  0.  0.  0.
352  3.51  0.  0.  0.
353  3.52  0.  0.  0.
354  3.53  0.  0.  0.
355  3.54  0.  0.  0.
356  3.55  0.  0.  0.
357  3.56  0.  0.  0.
358  3.57  0.  0.  0.
359  3.58  0.  0.  0.
360  3.59  0.  0.  0.
361  3.60  0.  0.  0.
362  3.61  0.  0.  0.
363  3.62  0.  0.  0.
364  3.63  0.  0.  0.
365  3.64  0.  0.  0.
366  3.65  0.  0.  0.
367  3.66  0.  0.  0.
368  3.67  0.  0.  0.
369  3.68  0.  0.  0.
370  3.69  0.  0.  0.
371  3.70  0.  0.  0.
372  3.71  0.  0.  0.
373  3.72  0.  0.  0.
374  3.73  0.  0.  0.
375  3.74  0.  0.  0.
376  3.75  0.  0.  0.
377  3.76  0.  0.  0.
378  3.77  0.  0.  0.
379  3.78  0.  0.  0.
380  3.79  0.  0.  0.
381  3.80  0.  0.  0.
382  3.81  0.  0.  0.
383  3.82  0.  0.  0.
384  3.83  0.  0.  0.
385  3.84  0.  0.  0.
386  3.85  0.  0.  0.
387  3.86  0.  0.  0.
388  3.87  0.  0.  0.
389  3.88  0.  0.  0.
390  3.89  0.  0.  0.
391  3.90  0.  0.  0.
392  3.91  0.  0.  0.
393  3.92  0.  0.  0.
394  3.93  0.  0.  0.
395  3.94  0.  0.  0.
396  3.95  0.  0.  0.
397  3.96  0.  0.  0.
398  3.97  0.  0.  0.
399  3.98  0.  0.  0.
400  3.99  0.  0.  0.
401  4.00  0.  0.  0.
402  4.01  0.  0.  0.
403  4.02  0.  0.  0.
404  4.03  0.  0.  0.
405  4.04  0.  0.  0.
406  4.05  0.  0.  0.
407  4.06  0.  0.  0.
408  4.07  0.  0.  0.
409  4.08  0.  0.  0.
410  4.09  0.  0.  0.
411  4.10  0.  0.  0.
412  4.11  0.  0.  0.
413  4.12  0.  0.  0.
414  4.13  0.  0.  0.
415  4.14  0.  0.  0.
416  4.15  0.  0.  0.
417  4.16  0.  0.  0.
418  4.17  0.  0.  0.
419  4.18  0.  0.  0.
420  4.19  0.  0.  0.
421  4.20  0.  0.  0.
422  4.21  0.  0.  0.
423  4.22  0.  0.  0.
424  4.23  0.  0.  0.
425  4.24  0.  0.  0.
426  4.25  0.  0.  0.
427  4.26  0.  0.  0.
428  4.27  0.  0.  0.
429  4.28  0.  0.  0.
430  4.29  0.  0.  0.
431  4.30  0.  0.  0.
432  4.31  0.  0.  0.
433  4.32  0.  0.  0.
434  4.33  0.  0.  0.
435  4.34  0.  0.  0.
436  4.35  0.  0.  0.
437  4.36  0.  0.  0.
438  4.37  0.  0.  0.
439  4.38  0.  0.  0.
440  4.39  0.  0.  0.
441  4.40  0.  0.  0.
442  4.41  0.  0.  0.
443  4.42  0.  0.  0.
444  4.43  0.  0.  0.
445  4.44  0.  0.  0.
446  4.45  0.  0.  0.
447  4.46  0.  0.  0.
448  4.47  0.  0.  0.
449  4.48  0.  0.  0.
450  4.49  0.  0.  0.
451  4.50  0.  0.  0.
452  4.51  0.  0.  0.
453  4.52  0.  0.  0.
454  4.53  0.  0.  0.
455  4.54  0.  0.  0.
456  4.55  0.  0.  0.
457  4.56  0.  0.  0.
458  4.57  0.  0.  0.
459  4.58  0.  0.  0.
460  4.59  0.  0.  0.
461  4.60  0.  0.  0.
462  4.61  0.  0.  0.
463  4.62  0.  0.  0.
464  4.63  0.  0.  0.
465  4.64  0.  0.  0.
466  4.65  0.  0.  0.
467  4.66  0.  0.  0.
468  4.67  0.  0.  0.
469  4.68  0.  0.  0.
470  4.69  0.  0.  0.
471  4.70  0.  0.  0.
472  4.71  0.  0.  0.
473  4.72  0.  0.  0.
474  4.73  0.  0.  0.
475  4.74  0.  0.  0.
476  4.75  0.  0.  0.
477  4.76  0.  0.  0.
478  4.77  0.  0.  0.
479  4.78  0.  0.  0.
480  4.79  0.  0.  0.
481  4.80  0.  0.  0.
482  4.81  0.  0.  0.
483  4.82  0.  0.  0.
484  4.83  0.  0.  0.
485  4.84  0.  0.  0.
486  4.85  0.  0.  0.
487  4.86  0.  0.  0.
488  4.87  0.  0.  0.
489  4.88  0.  0.  0.
490  4.89  0.  0.  0.
491  4.90  0.  0.  0.
492  4.91  0.  0.  0.
493  4.92  0.  0.  0.
494  4.93  0.  0.  0.
495  4.94  0.  0.  0.
496  4.95  0.  0.  0.
497  4.96  0.  0.  0.
498  4.97  0.  0.  0.
499  4.98  0.  0.  0.
500  4.99  0.  0.  0.
501  5.00  0.  0.  0.
502  5.01  0.  0.  0.
503  5.02  0.  0.  0.
504  5.03  0.  0.  0.
505  5.04  0.  0.  0.
506  5.05  0.  0.  0.
507  5.06  0.  0.  0.
508  5.07  0.  0.  0.
509  5.08  0.  0.  0.
510  5.09  0.  0.  0.
511  5.10  0.  0.  0.
512  5.11  0.  0.  0.
513  5.12  0.  0.  0.
514  5.13  0.  0.  0.
515  5.14  0.  0.  0.
516  5.15  0.  0.  0.
517  5.16  0.  0.  0.
518  5.17  0.  0.  0.
519  5.18  0.  0.  0.
520  5.19  0.  0.  0.
521  5.20  0.  0.  0.
522  5.21  0.  0.  0.
523  5.22  0.  0.  0.
524  5.23  0.  0.  0.
525  5.24  0.  0.  0.
526  5.25  0.  0.  0.
527  5.26  0.  0.  0.
528  5.27  0.  0.  0.
529  5.28  0.  0.  0.
530  5.29  0.  0.  0.
531  5.30  0.  0.  0.
532  5.31  0.  0.  0.
533  5.32  0.  0.  0.
534  5.33  0.  0.  0.
535  5.34  0.  0.  0.
536  5.35  0.  0.  0.
537  5.36  0.  0.  0.
538  5.37  0.  0.  0.
539  5.38  0.  0.  0.
540  5.39  0.  0.  0.
541  5.40  0.  0.  0.
542  5.41  0.  0.  0.
543  5.42  0.  0.  0.
544  5.43  0.  0.  0.
545  5.44  0.  0.  0.
546  5.45  0.  0.  0.
547  5.46  0.  0.  0.
548  5.47  0.  0.  0.
549  5.48  0.  0.  0.
550  5.49  0.  0.  0.
551  5.50  0.  0.  0.
552  5.51  0.  0.  0.
553  5.52  0.  0.  0.
554  5.53  0.  0.  0.
555  5.54  0.  0.  0.
556  5.55  0.  0.  0.
557  5.56  0.  0.  0.
558  5.57  0.  0.  0.
559  5.58  0.  0.  0.
560  5.59  0.  0.  0.
561  5.60  0.  0.  0.
562  5.61  0.  0.  0.
563  5.62  0.  0.  0.
564  5.63  0.  0.  0.
565  5.64  0.  0.  0.
566  5.65  0.  0.  0.
567  5.66  0.  0.  0.
568  5.67  0.  0.  0.
569  5.68  0.  0.  0.
570  5.69  0.  0.  0.
571  5.70  0.  0.  0.
572  5.71  0.  0.  0.
573  5.72  0.  0.  0.
574  5.73  0.  0.  0.
575  5.74  0.  0.  0.
576  5.75  0.  0.  0.
577  5.76  0.  0.  0.
578  5.77  0.  0.  0.
579  5.78  0.  0.  0.
580  5.79  0.  0.  0.
581  5.80  0.  0.  0.
582  5.81  0.  0.  0.
583  5.82  0.  0.  0.
584  5.83  0.  0.  0.
585  5.84  0.  0.  0.
586  5.85  0.  0.  0.
587  5.86  0.  0.  0.
588  5.87  0.  0.  0.
589  5.88  0.  0.  0.
590  5.89  0.  0.  0.
591  5.90  0.  0.  0.
592  5.91  0.  0.  0.
593  5.92  0.  0.  0.
594  5.93  0.  0.  0.
595  5.94  0.  0.  0.
596  5.95  0.  0.  0.
597  5.96  0.  0.  0.
598  5.97  0.  0.  0.
599  5.98  0.  0.  0.
600  5.99  0.  0.  0.
1                         7.1303380031636E+00 -1.1700493535029E+00  5.0884830325241E-02
1  0.0000000000000E+00 -4.8688692799725E-09 -8.6297455847983E-09  3.2288818840875E-09
2  1.0000000000000E-02  3.7259595461892E-03  2.6737008832360E-04 -3.6279736455027E-03
3  2.0000000000000E-02  1.4877370509360E-02  1.0741691016118E-03 -1.4463814636077E-02
4  3.0000000000000E-02  3.3374908335932E-02  2.4342947105439E-03 -3.2363646966333E-02
5  4.0000000000000E-02  5.9086630755008E-02  4.3703535731233E-03 -5.7088894249442E-02
6  5.0000000000000E-02  9.1828388686143E-02  6.9128472108700E-03 -8.8308119451405E-02
7  6.0000000000000E-02  1.3136442676172E-01  1.0099071683392E-02 -1.2559962791745E-01
8  7.0000000000000E-02  1.7740819731595E-01  1.3971768935637E-02 -1.6845485834067E-01
9  8.0000000000000E-02  2.2962341656131E-01  1.8577576321889E-02 -2.1628258955177E-01
10  9.0000000000000E-02  2.8762539517387E-01  2.3965327893127E-02 -2.6841399159615E-01
11  1.0000000000000E-01  3.5098267743507E-01  3.0184266330026E-02 -3.2410854713363E-01
12  1.1000000000000E-01  4.1921902327741E-01  3.7282227729594E-02 -3.8256086351083E-01
13  1.2000000000000E-01  4.9181576596184E-01  4.5303862689564E-02 -4.4290838680489E-01
14  1.3000000000000E-01  5.6821457464683E-01  5.4288956228932E-02 -5.0424001675168E-01
15  1.4000000000000E-01  6.4782064582770E-01  6.4270906052202E-02 -5.6560560592917E-01
16  1.5000000000000E-01  7.3000634063118E-01  7.5275413594874E-02 -6.2602630818644E-01
17  1.6000000000000E-01  8.1411527640603E-01  8.7319435331060E-02 -6.8450572053721E-01
18  1.7000000000000E-01  8.9946687117641E-01  1.0041043319587E-01 -7.4004174015497E-01
19  1.8000000000000E-01  9.8536132859269E-01  1.1454595294537E-01 -7.9163903438732E-01
20  1.9000000000000E-01  1.0710850393401E+00  1.2971354816458E-01 -8.3832199761530E-01
21  2.0000000000000E-01  1.1559163628979E+00  1.4589105579417E-01 -8.7914804514481E-01
22  2.1000000000000E-01  1.2391317414546E+00  1.6304721686273E-01 -9.1322107198710E-01
23  2.2000000000000E-01  1.3200120860624E+00  1.8114262398100E-01 -9.3970488422916E-01
24  2.3000000000000E-01  1.3978493641425E+00  2.0013096547708E-01 -9.5783639355152E-01
25  2.4000000000000E-01  1.4719533076026E+00  2.1996052521724E-01 -9.6693835211028E-01
26  2.5000000000000E-01  1.5416581524500E+00  2.4057588753221E-01 -9.6643139616469E-01
27  2.6000000000000E-01  1.6063293141895E+00  2.6191978858503E-01 -9.5584516310571E-01
28  2.7000000000000E-01  1.6653698987490E+00  2.8393504926138E-01 -9.3482824838728E-01
29  2.8000000000000E-01  1.7182269463976E+00  3.0656652046622E-01 -9.0315677660315E-01
30  2.9000000000000E-01  1.7643973062454E+00  3.2976296974101E-01 -8.6074137473625E-01
31  3.0000000000000E-01  1.8034330415383E+00  3.5347883847118E-01 -8.0763235540846E-01
32  3.1000000000000E-01  1.8349462710798E+00  3.7767580166029E-01 -7.4402294357003E-01
33  3.2000000000000E-01  1.8586133596676E+00  4.0232406725509E-01 -6.7025041109512E-01
34  3.3000000000000E-01  1.8741783802852E+00  4.2740335919187E-01 -5.8679501962766E-01
35  3.4000000000000E-01  1.8814557827312E+00  4.5290353750267E-01 -4.9427671201702E-01
36  3.5000000000000E-01  1.8803322171281E+00  4.7882481970991E-01 -3.9344953591317E-01
37  3.6000000000000E-01  1.8707674759978E+00  5.0517758003002E-01 -2.8519382855199E-01
38  3.7000000000000E-01  1.8527945349498E+00  5.3198171623005E-01 -1.7050623834602E-01
39  3.8000000000000E-01  1.8265186890790E+00  5.5926558793065E-01 -5.0487705427722E-02
40  3.9000000000000E-01  1.7921157994724E+00  5.8706454428808E-01  7.3670431436609E-02
41  4.0000000000000E-01  1.7498296813344E+00  6.1541907287252E-01  2.0070199135308E-01
42  4.1000000000000E-01  1.6999686816874E+00  6.4437261474325E-01  3.2928292187637E-01
43  4.2000000000000E-01  1.6429015099723E+00  6.7396910277431E-01  4.5804939993268E-01
44  4.3000000000000E-01  1.5790523987318E+00  7.0425029080477E-01  5.8561675075837E-01
45  4.4000000000000E-01  1.5088956835516E+00  7.3525294981862E-01  7.1059885055289E-01
46  4.5000000000000E-01  1.4329499012377E+00  7.6700601379280E-01  8.3162766391847E-01
47  4.6000000000000E-01  1.3517715125653E+00  7.9952776185127E-01  9.4737256038818E-01
48  4.7000000000000E-01  1.2659483606603E+00  8.3282312475656E-01  1.0565590557446E+00
49  4.8000000000000E-01  1.1760929780641E+00  8.6688120247309E-01  1.1579866334927E+00
50  4.9000000000000E-01  1.0828358547462E+00  9.0167307554117E-01  1.2505453196305E+00
51  5.0000000000000E-01  9.8681877582879E-01  9.3714998638784E-01  1.3332307094128E+00
52  5.1000000000000E-01  8.8868833170163E-01  9.7324195763192E-01  1.4051571775301E+00
53  5.2000000000000E-01  7.8908969473798E-01  1.0098569031596E+00  1.4655690422527E+00
54  5.3000000000000E-01  6.8866074626201E-01  1.0468802745660E+00  1.5138494986483E+00
55  5.4000000000000E-01  5.8802662509627E-01  1.0841752708591E+00  1.5495271848305E+00
56  5.5000000000000E-01  4.8779475533291E-01  1.1215836235326E+00  1.5722802970951E+00
57  5.6000000000000E-01  3.8855039635400E-01  1.1589269527123E+00  1.5819382233804E+00
58  5.7000000000000E-01  2.9085274303147E-01  1.1960086735527E+00  1.5784807183671E+00
59  5.8000000000000E-01  1.9523158893644E-01  1.2326164159287E+00  1.5620346962659E+00
60  5.9000000000000E-01  1.0218455074361E-01  1.2685249052164E+00  1.5328687675719E+00
61  6.0000000000000E-01  1.2174838277356E-02  1.3034992380860E+00  1.4913856924413E+00
62  6.1000000000000E-01 -7.4370457776188E-02  1.3372984751618E+00  1.4381129646813E+00
63  6.2000000000000E-01 -1.5706159920563E-01  1.3696794625511E+00  1.3736917755656E+00
64  6.3000000000000E-01 -2.3554700212173E-01  1.4004007869131E+00  1.2988646348988E+00
65  6.4000000000000E-01 -3.0951366129699E-01  1.4292267641979E+00  1.2144619472934E+00
66  6.5000000000000E-01 -3.7868725510750E-01  1.4559313605878E+00  1.1213878540077E+00
67  6.6000000000000E-01 -4.4283199084788E-01  1.4803019456032E+00  1.0206056547340E+00
68  6.7000000000000E-01 -5.0175024939058E-01  1.5021427817642E+00  9.1312311943397E-01
69  6.8000000000000E-01 -5.5528208499520E-01  1.5212781625244E+00  7.9997798797657E-01
70  6.9000000000000E-01 -6.0330463071785E-01  1.5375551201914E+00  6.8222393546407E-01
71  7.0000000000000E-01 -6.4573145258023E-01  1.5508456379436E+00  5.6091725445344E-01
72  7.1000000000000E-01 -6.8251188675660E-01  1.5610483144584E+00  4.3710447274565E-01
73  7.2000000000000E-01 -7.1363038390618E-01  1.5680894456465E+00  3.1181108811191E-01
74  7.3000000000000E-01 -7.3910587384680E-01  1.5719235050556E+00  1.8603156049864E-01
75  7.4000000000000E-01 -7.5899115249375E-01  1.5725330221162E+00  6.0720659232389E-02
76  7.5000000000000E-01 -7.7337228184745E-01  1.5699278750124E+00 -6.3213781096116E-02
77  7.6000000000000E-01 -7.8236798328215E-01  1.5641440320061E+00 -1.8491668564706E-01
78  7.7000000000000E-01 -7.8612899491959E-01  1.5552417909791E+00 -3.0359017615936E-01
79  7.8000000000000E-01 -7.8483735588844E-01  1.5433035812755E+00 -4.1849668864191E-01
80  7.9000000000000E-01 -7.7870557414716E-01  1.5284314041552E+00 -5.2896087476509E-01
81  8.0000000000000E-01 -7.6797563059222E-01  1.5107439979165E+00 -6.3437041824232E-01
82  8.1000000000000E-01 -7.5291777062186E-01  1.4903738206797E+00 -7.3417591980631E-01
83  8.2000000000000E-01 -7.3382903532600E-01  1.4674639477166E+00 -8.2789001998318E-01
84  8.3000000000000E-01 -7.1103148808398E-01  1.4421649809274E+00 -9.1508593740351E-01
85  8.4000000000000E-01 -6.8487009853706E-01  1.4146320655647E+00 -9.9539560176050E-01
86  8.5000000000000E-01 -6.5571025452561E-01  1.3850221036708E+00 -1.0685075548851E+00
87  8.6000000000000E-01 -6.2393488341671E-01  1.3534912450866E+00 -1.1341647811440E+00
88  8.7000000000000E-01 -5.8994117697809E-01  1.3201927256036E+00 -1.1921626101086E+00
89  8.8000000000000E-01 -5.5413692818406E-01  1.2852751082140E+00 -1.2423468110128E+00
90  8.9000000000000E-01 -5.1693650360493E-01  1.2488809679268E+00 -1.2846119709379E+00
91  9.0000000000000E-01 -4.7875649081202E-01  1.2111460437745E+00 -1.3189002180798E+00