Pu    ONCVPSP-4.0.1  r_core=   1.15370   1.20304   1.10639   1.18164
94.0000     34.0000      231012    zatom,zion,pspd
8 -116133   3     4   600     0    pspcod,pspxc,lmax,lloc,mmax,r2well
5.99000000  5.00000000  0.00000000    rchrg fchrg qchrg
3     3     3     2    nproj
3     1           extension_switch
4     4     3    nprojso
0                         3.8811294099764E+01  3.4226593961343E+00 -8.9381644619024E-01
1  0.0000000000000E+00 -6.5320196140917E-08  2.4409388088564E-07  3.2682694328656E-08
2  1.0000000000000E-02  1.6050199911094E-01 -9.0155634813131E-02  2.5549684041149E-02
3  2.0000000000000E-02  3.1985108258689E-01 -1.7835353079063E-01  5.1038595541391E-02
4  3.0000000000000E-02  4.7691114265444E-01 -2.6268644340057E-01  7.6401778549786E-02
5  4.0000000000000E-02  6.3057920650817E-01 -3.4134636973109E-01  1.0156613811377E-01
6  5.0000000000000E-02  7.7980081999460E-01 -4.1266986939620E-01  1.2644693133733E-01
7  6.0000000000000E-02  9.2358406066060E-01 -4.7517841205485E-01  1.5094490628005E-01
8  7.0000000000000E-02  1.0610118043653E+00 -5.2761239664977E-01  1.7494426424993E-01
9  8.0000000000000E-02  1.1912519349740E+00 -5.6895773156643E-01  1.9831158836005E-01
10  9.0000000000000E-02  1.3135652632851E+00 -5.9846415134622E-01  2.2089584270635E-01
11  1.0000000000000E-01  1.4273110062299E+00 -6.1565476299774E-01  2.4252950361277E-01
12  1.1000000000000E-01  1.5319497671644E+00 -6.2032665075294E-01  2.6303083867881E-01
13  1.2000000000000E-01  1.6270440491572E+00 -6.1254270899541E-01  2.8220730255349E-01
14  1.3000000000000E-01  1.7122564219663E+00 -5.9261520553860E-01  2.9985997219487E-01
15  1.4000000000000E-01  1.7873455463496E+00 -5.6108188827364E-01  3.1578890057795E-01
16  1.5000000000000E-01  1.8521603331944E+00 -5.1867572513543E-01  3.2979922802431E-01
17  1.6000000000000E-01  1.9066325767539E+00 -4.6628959940193E-01  3.4170785603554E-01
18  1.7000000000000E-01  1.9507684486167E+00 -4.0493746037527E-01  3.5135046101302E-01
19  1.8000000000000E-01  1.9846392700579E+00 -3.3571354650647E-01  3.5858860558134E-01
20  1.9000000000000E-01  2.0083719939461E+00 -2.5975134946225E-01  3.6331669416032E-01
21  2.0000000000000E-01  2.0221398229267E+00 -1.7818397154813E-01  3.6546851739786E-01
22  2.1000000000000E-01  2.0261533684284E+00 -9.2107446107699E-02  3.6502313719351E-01
23  2.2000000000000E-01  2.0206527161112E+00 -2.5484444426482E-03  3.6200988009862E-01
24  2.3000000000000E-01  2.0059007093577E+00  8.9562410520672E-02  3.5651223132498E-01
25  2.4000000000000E-01  1.9821776955714E+00  1.8341065585702E-01  3.4867045358906E-01
26  2.5000000000000E-01  1.9497779031984E+00  2.7831084848503E-01  3.3868279343971E-01
27  2.6000000000000E-01  1.9090075337404E+00  3.7371181381108E-01  3.2680518121910E-01
28  2.7000000000000E-01  1.8601845660924E+00  4.6919425519401E-01  3.1334937785827E-01
29  2.8000000000000E-01  1.8036401839642E+00  5.6446102792748E-01  2.9867957065727E-01
30  2.9000000000000E-01  1.7397216545771E+00  6.5932069978247E-01  2.8320746933474E-01
31  3.0000000000000E-01  1.6687964117687E+00  7.5366531204440E-01  2.6738600123170E-01
32  3.1000000000000E-01  1.5912570322897E+00  8.4744350846790E-01  2.5170174897850E-01
33  3.2000000000000E-01  1.5075267432171E+00  9.4063040406841E-01  2.3666631364608E-01
34  3.3000000000000E-01  1.4180650632757E+00  1.0331957127073E+00  2.2280682006384E-01
35  3.4000000000000E-01  1.3233731630632E+00  1.1250717357219E+00  2.1065580747016E-01
36  3.5000000000000E-01  1.2239985296030E+00  1.2161228297763E+00  2.0074076711768E-01
37  3.6000000000000E-01  1.1205385394789E+00  1.3061179197096E+00  1.9357359832407E-01
38  3.7000000000000E-01  1.0136425814144E+00  1.3947075033043E+00  1.8964025549884E-01
39  3.8000000000000E-01  9.0401242224500E-01  1.4814064141079E+00  1.8939085095873E-01
40  3.9000000000000E-01  7.9240057774642E-01  1.5655833728574E+00  1.9323046226332E-01
41  4.0000000000000E-01  6.7960652912322E-01  1.6464580769906E+00  2.0151086903843E-01
42  4.1000000000000E-01  5.6647071398773E-01  1.7231062624741E+00  2.1452341376421E-01
43  4.2000000000000E-01  4.5386631386562E-01  1.7944728353756E+00  2.3249314496144E-01
44  4.3000000000000E-01  3.4268895488764E-01  1.8593928259578E+00  2.5557436098163E-01
45  4.4000000000000E-01  2.3384453053900E-01  1.9166195795137E+00  2.8384762967480E-01
46  4.5000000000000E-01  1.2823544134358E-01  1.9648592796109E+00  3.1731831513607E-01
47  4.6000000000000E-01  2.6745622609141E-02  2.0028106139124E+00  3.5591659908447E-01
48  4.7000000000000E-01 -6.9775205356798E-02  2.0292081521647E+00  3.9949894272335E-01
49  4.8000000000000E-01 -1.6052758252817E-01  2.0428678203228E+00  4.4785089658006E-01
50  4.9000000000000E-01 -2.4477813805790E-01  2.0427327320689E+00  5.0069113208363E-01
51  5.0000000000000E-01 -3.2187468022640E-01  2.0279175845209E+00  5.5767654055212E-01
52  5.1000000000000E-01 -3.9126003401941E-01  1.9977498414468E+00  6.1840822364419E-01
53  5.2000000000000E-01 -4.5248414174726E-01  1.9518060146122E+00  6.8243818472057E-01
54  5.3000000000000E-01 -5.0521398972435E-01  1.8899415089725E+00  7.4927652321758E-01
55  5.4000000000000E-01 -5.4924098874686E-01  1.8123127145558E+00  8.1839893403374E-01
56  5.5000000000000E-01 -5.8448551558933E-01  1.7193902988144E+00  8.8925432075951E-01
57  5.6000000000000E-01 -6.1099841404253E-01  1.6119629675198E+00  9.6127234477123E-01
58  5.7000000000000E-01 -6.2895935371762E-01  1.4911313077591E+00  1.0338707509579E+00
59  5.8000000000000E-01 -6.3867204919251E-01  1.3582916898255E+00  1.1064623341565E+00
60  5.9000000000000E-01 -6.4055644711507E-01  1.2151105715671E+00  1.1784614370812E+00
61  6.0000000000000E-01 -6.3513809063400E-01  1.0634899047719E+00  1.2492898993952E+00
62  6.1000000000000E-01 -6.2303496513850E-01  9.0552467448473E-01  1.3183824072853E+00
63  6.2000000000000E-01 -6.0494221318157E-01  7.4345389587187E-01  1.3851912221639E+00
64  6.3000000000000E-01 -5.8161517648819E-01  5.7960663793863E-01  1.4491902947057E+00
65  6.4000000000000E-01 -5.5385127650394E-01  4.1634482962195E-01  1.5098787951924E+00
66  6.5000000000000E-01 -5.2247128007538E-01  2.5600472441429E-01  1.5667841121278E+00
67  6.6000000000000E-01 -4.8830051234061E-01  1.0083895021879E-01  1.6194643874968E+00
68  6.7000000000000E-01 -4.5215057429913E-01 -4.7038950095745E-02  1.6675106683309E+00
69  6.8000000000000E-01 -4.1480209815531E-01 -1.8570567385000E-01  1.7105487600702E+00
70  6.9000000000000E-01 -3.7698903048734E-01 -3.1347335443604E-01  1.7482408675115E+00
71  7.0000000000000E-01 -3.3938487340663E-01 -4.2892736173481E-01  1.7802871040705E+00
72  7.1000000000000E-01 -3.0259123958111E-01 -5.3095554105661E-01  1.8064269400627E+00
73  7.2000000000000E-01 -2.6712899130253E-01 -6.1876803531385E-01  1.8264406463480E+00
74  7.3000000000000E-01 -2.3343214004882E-01 -6.9190717422221E-01  1.8401507717699E+00
75  7.4000000000000E-01 -2.0184458490371E-01 -7.5024726845980E-01  1.8474236723113E+00
76  7.5000000000000E-01 -1.7261966948805E-01 -7.9398450232794E-01  1.8481710878127E+00
77  7.6000000000000E-01 -1.4592244146240E-01 -8.2361746200037E-01  1.8423517395665E+00
78  7.7000000000000E-01 -1.2183440969868E-01 -8.3991915512738E-01  1.8299729002153E+00
79  7.8000000000000E-01 -1.0036051507906E-01 -8.4390165976576E-01  1.8110918672148E+00
80  7.9000000000000E-01 -8.1437964287595E-02 -8.3677477641198E-01  1.7858172536701E+00
81  8.0000000000000E-01 -6.4946524092302E-02 -8.1990023836557E-01  1.7543099964780E+00
82  8.1000000000000E-01 -5.0719837990175E-02 -7.9474315718892E-01  1.7167839721429E+00
83  8.2000000000000E-01 -3.8557308556287E-02 -7.6282243851858E-01  1.6735061059085E+00
84  8.3000000000000E-01 -2.8236087536503E-02 -7.2566189838314E-01  1.6247958603355E+00
85  8.4000000000000E-01 -1.9522731107077E-02 -6.8474374343782E-01  1.5710239952959E+00
86  8.5000000000000E-01 -1.2184108607909E-02 -6.4146595441110E-01  1.5126105025268E+00
87  8.6000000000000E-01 -5.9971976812876E-03 -5.9710493694996E-01  1.4500216341687E+00
88  8.7000000000000E-01 -7.5745489770739E-04 -5.5278458599944E-01  1.3837659657252E+00
89  8.8000000000000E-01  3.7144839436101E-03 -5.0945265820695E-01  1.3143894591299E+00
90  8.9000000000000E-01  7.5679483707028E-03 -4.6786507174241E-01  1.2424695204760E+00
91  9.0000000000000E-01  1.0919322567741E-02 -4.2857846474813E-01  1.1686080788010E+00
92  9.1000000000000E-01  1.3851104211708E-02 -3.9195105250105E-01  1.0934237464507E+00
93  9.2000000000000E-01  1.6412884339366E-02 -3.5815153858882E-01  1.0175431573189E+00
94  9.3000000000000E-01  1.8624130701134E-02 -3.2717556498407E-01  9.4159161608988E-01
95  9.4000000000000E-01  2.0478593834056E-02 -2.9886893612597E-01  8.6618322903235E-01
96  9.5000000000000E-01  2.1950098813594E-02 -2.7295662714809E-01  7.9191072455344E-01
97  9.6000000000000E-01  2.2999436786377E-02 -2.4907638805138E-01  7.1933520945182E-01
98  9.7000000000000E-01  2.3582028665252E-02 -2.2681558303227E-01  6.4897614463010E-01
99  9.8000000000000E-01  2.3655997825281E-02 -2.0574975401622E-01  5.8130186212219E-01
100  9.9000000000000E-01  2.3190257526240E-02 -1.8548126349287E-01  5.1672098409421E-01
101  1.0000000000000E+00  2.2172189727299E-02 -1.6567624552880E-01  4.5557514454762E-01
102  1.0100000000000E+00  2.0614461858999E-02 -1.4609796421113E-01  3.9813345663212E-01
103  1.0200000000000E+00  1.8560493405650E-02 -1.2663453293728E-01  3.4458921364901E-01
104  1.0300000000000E+00  1.6088040764144E-02 -1.0731877125407E-01  2.9505936107988E-01
105  1.0400000000000E+00  1.3310312335020E-02 -8.8337752295172E-02  2.4958733153665E-01
106  1.0500000000000E+00  1.0373951481212E-02 -7.0029306348436E-02  2.0814989563888E-01
107  1.0600000000000E+00  7.4531283451710E-03 -5.2862378391565E-02  1.7066875065394E-01
108  1.0700000000000E+00  4.7388573397883E-03 -3.7397670652652E-02  1.3702764686465E-01
109  1.0800000000000E+00  2.4225088344166E-03 -2.4224445504663E-02  1.0709594272380E-01
110  1.0900000000000E+00  6.7228725140396E-04 -1.3868622058919E-02  8.0759578713496E-02
111  1.1000000000000E+00 -4.2556197587680E-04 -6.5777212364339E-03  5.7950850374100E-02
112  1.1100000000000E+00 -1.0363160448421E-03 -1.7280091932697E-03  3.8650305646494E-02
113  1.1200000000000E+00 -1.1667550456078E-03  8.2726580461007E-04  2.3064760587859E-02
114  1.1300000000000E+00 -8.9780839223916E-04  1.4651618730413E-03  1.1406433199033E-02
115  1.1400000000000E+00 -4.2271997504359E-04  8.8662970846708E-04  3.7983222086931E-03
116  1.1500000000000E+00 -4.7433584295794E-05  1.1250876391665E-04  3.1708729642543E-04
117  1.1600000000000E+00  1.5337114178190E-06 -3.8074510436346E-06 -8.8375409555588E-06
118  1.1700000000000E+00  3.1757997603138E-07 -7.3059737146172E-07 -2.3198532345062E-06
119  1.18  0.  0.  0.
120  1.19  0.  0.  0.
121  1.20  0.  0.  0.
122  1.21  0.  0.  0.
123  1.22  0.  0.  0.
124  1.23  0.  0.  0.
125  1.24  0.  0.  0.
126  1.25  0.  0.  0.
127  1.26  0.  0.  0.
128  1.27  0.  0.  0.
129  1.28  0.  0.  0.
130  1.29  0.  0.  0.
131  1.30  0.  0.  0.
132  1.31  0.  0.  0.
133  1.32  0.  0.  0.
134  1.33  0.  0.  0.
135  1.34  0.  0.  0.
136  1.35  0.  0.  0.
137  1.36  0.  0.  0.
138  1.37  0.  0.  0.
139  1.38  0.  0.  0.
140  1.39  0.  0.  0.
141  1.40  0.  0.  0.
142  1.41  0.  0.  0.
143  1.42  0.  0.  0.
144  1.43  0.  0.  0.
145  1.44  0.  0.  0.
146  1.45  0.  0.  0.
147  1.46  0.  0.  0.
148  1.47  0.  0.  0.
149  1.48  0.  0.  0.
150  1.49  0.  0.  0.
151  1.50  0.  0.  0.
152  1.51  0.  0.  0.
153  1.52  0.  0.  0.
154  1.53  0.  0.  0.
155  1.54  0.  0.  0.
156  1.55  0.  0.  0.
157  1.56  0.  0.  0.
158  1.57  0.  0.  0.
159  1.58  0.  0.  0.
160  1.59  0.  0.  0.
161  1.60  0.  0.  0.
162  1.61  0.  0.  0.
163  1.62  0.  0.  0.
164  1.63  0.  0.  0.
165  1.64  0.  0.  0.
166  1.65  0.  0.  0.
167  1.66  0.  0.  0.
168  1.67  0.  0.  0.
169  1.68  0.  0.  0.
170  1.69  0.  0.  0.
171  1.70  0.  0.  0.
172  1.71  0.  0.  0.
173  1.72  0.  0.  0.
174  1.73  0.  0.  0.
175  1.74  0.  0.  0.
176  1.75  0.  0.  0.
177  1.76  0.  0.  0.
178  1.77  0.  0.  0.
179  1.78  0.  0.  0.
180  1.79  0.  0.  0.
181  1.80  0.  0.  0.
182  1.81  0.  0.  0.
183  1.82  0.  0.  0.
184  1.83  0.  0.  0.
185  1.84  0.  0.  0.
186  1.85  0.  0.  0.
187  1.86  0.  0.  0.
188  1.87  0.  0.  0.
189  1.88  0.  0.  0.
190  1.89  0.  0.  0.
191  1.90  0.  0.  0.
192  1.91  0.  0.  0.
193  1.92  0.  0.  0.
194  1.93  0.  0.  0.
195  1.94  0.  0.  0.
196  1.95  0.  0.  0.
197  1.96  0.  0.  0.
198  1.97  0.  0.  0.
199  1.98  0.  0.  0.
200  1.99  0.  0.  0.
201  2.00  0.  0.  0.
202  2.01  0.  0.  0.
203  2.02  0.  0.  0.
204  2.03  0.  0.  0.
205  2.04  0.  0.  0.
206  2.05  0.  0.  0.
207  2.06  0.  0.  0.
208  2.07  0.  0.  0.
209  2.08  0.  0.  0.
210  2.09  0.  0.  0.
211  2.10  0.  0.  0.
212  2.11  0.  0.  0.
213  2.12  0.  0.  0.
214  2.13  0.  0.  0.
215  2.14  0.  0.  0.
216  2.15  0.  0.  0.
217  2.16  0.  0.  0.
218  2.17  0.  0.  0.
219  2.18  0.  0.  0.
220  2.19  0.  0.  0.
221  2.20  0.  0.  0.
222  2.21  0.  0.  0.
223  2.22  0.  0.  0.
224  2.23  0.  0.  0.
225  2.24  0.  0.  0.
226  2.25  0.  0.  0.
227  2.26  0.  0.  0.
228  2.27  0.  0.  0.
229  2.28  0.  0.  0.
230  2.29  0.  0.  0.
231  2.30  0.  0.  0.
232  2.31  0.  0.  0.
233  2.32  0.  0.  0.
234  2.33  0.  0.  0.
235  2.34  0.  0.  0.
236  2.35  0.  0.  0.
237  2.36  0.  0.  0.
238  2.37  0.  0.  0.
239  2.38  0.  0.  0.
240  2.39  0.  0.  0.
241  2.40  0.  0.  0.
242  2.41  0.  0.  0.
243  2.42  0.  0.  0.
244  2.43  0.  0.  0.
245  2.44  0.  0.  0.
246  2.45  0.  0.  0.
247  2.46  0.  0.  0.
248  2.47  0.  0.  0.
249  2.48  0.  0.  0.
250  2.49  0.  0.  0.
251  2.50  0.  0.  0.
252  2.51  0.  0.  0.
253  2.52  0.  0.  0.
254  2.53  0.  0.  0.
255  2.54  0.  0.  0.
256  2.55  0.  0.  0.
257  2.56  0.  0.  0.
258  2.57  0.  0.  0.
259  2.58  0.  0.  0.
260  2.59  0.  0.  0.
261  2.60  0.  0.  0.
262  2.61  0.  0.  0.
263  2.62  0.  0.  0.
264  2.63  0.  0.  0.
265  2.64  0.  0.  0.
266  2.65  0.  0.  0.
267  2.66  0.  0.  0.
268  2.67  0.  0.  0.
269  2.68  0.  0.  0.
270  2.69  0.  0.  0.
271  2.70  0.  0.  0.
272  2.71  0.  0.  0.
273  2.72  0.  0.  0.
274  2.73  0.  0.  0.
275  2.74  0.  0.  0.
276  2.75  0.  0.  0.
277  2.76  0.  0.  0.
278  2.77  0.  0.  0.
279  2.78  0.  0.  0.
280  2.79  0.  0.  0.
281  2.80  0.  0.  0.
282  2.81  0.  0.  0.
283  2.82  0.  0.  0.
284  2.83  0.  0.  0.
285  2.84  0.  0.  0.
286  2.85  0.  0.  0.
287  2.86  0.  0.  0.
288  2.87  0.  0.  0.
289  2.88  0.  0.  0.
290  2.89  0.  0.  0.
291  2.90  0.  0.  0.
292  2.91  0.  0.  0.
293  2.92  0.  0.  0.
294  2.93  0.  0.  0.
295  2.94  0.  0.  0.
296  2.95  0.  0.  0.
297  2.96  0.  0.  0.
298  2.97  0.  0.  0.
299  2.98  0.  0.  0.
300  2.99  0.  0.  0.
301  3.00  0.  0.  0.
302  3.01  0.  0.  0.
303  3.02  0.  0.  0.
304  3.03  0.  0.  0.
305  3.04  0.  0.  0.
306  3.05  0.  0.  0.
307  3.06  0.  0.  0.
308  3.07  0.  0.  0.
309  3.08  0.  0.  0.
310  3.09  0.  0.  0.
311  3.10  0.  0.  0.
312  3.11  0.  0.  0.
313  3.12  0.  0.  0.
314  3.13  0.  0.  0.
315  3.14  0.  0.  0.
316  3.15  0.  0.  0.
317  3.16  0.  0.  0.
318  3.17  0.  0.  0.
319  3.18  0.  0.  0.
320  3.19  0.  0.  0.
321  3.20  0.  0.  0.
322  3.21  0.  0.  0.
323  3.22  0.  0.  0.
324  3.23  0.  0.  0.
325  3.24  0.  0.  0.
326  3.25  0.  0.  0.
327  3.26  0.  0.  0.
328  3.27  0.  0.  0.
329  3.28  0.  0.  0.
330  3.29  0.  0.  0.
331  3.30  0.  0.  0.
332  3.31  0.  0.  0.
333  3.32  0.  0.  0.
334  3.33  0.  0.  0.
335  3.34  0.  0.  0.
336  3.35  0.  0.  0.
337  3.36  0.  0.  0.
338  3.37  0.  0.  0.
339  3.38  0.  0.  0.
340  3.39  0.  0.  0.
341  3.40  0.  0.  0.
342  3.41  0.  0.  0.
343  3.42  0.  0.  0.
344  3.43  0.  0.  0.
345  3.44  0.  0.  0.
346  3.45  0.  0.  0.
347  3.46  0.  0.  0.
348  3.47  0.  0.  0.
349  3.48  0.  0.  0.
350  3.49  0.  0.  0.
351  3.50  0.  0.  0.
352  3.51  0.  0.  0.
353  3.52  0.  0.  0.
354  3.53  0.  0.  0.
355  3.54  0.  0.  0.
356  3.55  0.  0.  0.
357  3.56  0.  0.  0.
358  3.57  0.  0.  0.
359  3.58  0.  0.  0.
360  3.59  0.  0.  0.
361  3.60  0.  0.  0.
362  3.61  0.  0.  0.
363  3.62  0.  0.  0.
364  3.63  0.  0.  0.
365  3.64  0.  0.  0.
366  3.65  0.  0.  0.
367  3.66  0.  0.  0.
368  3.67  0.  0.  0.
369  3.68  0.  0.  0.
370  3.69  0.  0.  0.
371  3.70  0.  0.  0.
372  3.71  0.  0.  0.
373  3.72  0.  0.  0.
374  3.73  0.  0.  0.
375  3.74  0.  0.  0.
376  3.75  0.  0.  0.
377  3.76  0.  0.  0.
378  3.77  0.  0.  0.
379  3.78  0.  0.  0.
380  3.79  0.  0.  0.
381  3.80  0.  0.  0.
382  3.81  0.  0.  0.
383  3.82  0.  0.  0.
384  3.83  0.  0.  0.
385  3.84  0.  0.  0.
386  3.85  0.  0.  0.
387  3.86  0.  0.  0.
388  3.87  0.  0.  0.
389  3.88  0.  0.  0.
390  3.89  0.  0.  0.
391  3.90  0.  0.  0.
392  3.91  0.  0.  0.
393  3.92  0.  0.  0.
394  3.93  0.  0.  0.
395  3.94  0.  0.  0.
396  3.95  0.  0.  0.
397  3.96  0.  0.  0.
398  3.97  0.  0.  0.
399  3.98  0.  0.  0.
400  3.99  0.  0.  0.
401  4.00  0.  0.  0.
402  4.01  0.  0.  0.
403  4.02  0.  0.  0.
404  4.03  0.  0.  0.
405  4.04  0.  0.  0.
406  4.05  0.  0.  0.
407  4.06  0.  0.  0.
408  4.07  0.  0.  0.
409  4.08  0.  0.  0.
410  4.09  0.  0.  0.
411  4.10  0.  0.  0.
412  4.11  0.  0.  0.
413  4.12  0.  0.  0.
414  4.13  0.  0.  0.
415  4.14  0.  0.  0.
416  4.15  0.  0.  0.
417  4.16  0.  0.  0.
418  4.17  0.  0.  0.
419  4.18  0.  0.  0.
420  4.19  0.  0.  0.
421  4.20  0.  0.  0.
422  4.21  0.  0.  0.
423  4.22  0.  0.  0.
424  4.23  0.  0.  0.
425  4.24  0.  0.  0.
426  4.25  0.  0.  0.
427  4.26  0.  0.  0.
428  4.27  0.  0.  0.
429  4.28  0.  0.  0.
430  4.29  0.  0.  0.
431  4.30  0.  0.  0.
432  4.31  0.  0.  0.
433  4.32  0.  0.  0.
434  4.33  0.  0.  0.
435  4.34  0.  0.  0.
436  4.35  0.  0.  0.
437  4.36  0.  0.  0.
438  4.37  0.  0.  0.
439  4.38  0.  0.  0.
440  4.39  0.  0.  0.
441  4.40  0.  0.  0.
442  4.41  0.  0.  0.
443  4.42  0.  0.  0.
444  4.43  0.  0.  0.
445  4.44  0.  0.  0.
446  4.45  0.  0.  0.
447  4.46  0.  0.  0.
448  4.47  0.  0.  0.
449  4.48  0.  0.  0.
450  4.49  0.  0.  0.
451  4.50  0.  0.  0.
452  4.51  0.  0.  0.
453  4.52  0.  0.  0.
454  4.53  0.  0.  0.
455  4.54  0.  0.  0.
456  4.55  0.  0.  0.
457  4.56  0.  0.  0.
458  4.57  0.  0.  0.
459  4.58  0.  0.  0.
460  4.59  0.  0.  0.
461  4.60  0.  0.  0.
462  4.61  0.  0.  0.
463  4.62  0.  0.  0.
464  4.63  0.  0.  0.
465  4.64  0.  0.  0.
466  4.65  0.  0.  0.
467  4.66  0.  0.  0.
468  4.67  0.  0.  0.
469  4.68  0.  0.  0.
470  4.69  0.  0.  0.
471  4.70  0.  0.  0.
472  4.71  0.  0.  0.
473  4.72  0.  0.  0.
474  4.73  0.  0.  0.
475  4.74  0.  0.  0.
476  4.75  0.  0.  0.
477  4.76  0.  0.  0.
478  4.77  0.  0.  0.
479  4.78  0.  0.  0.
480  4.79  0.  0.  0.
481  4.80  0.  0.  0.
482  4.81  0.  0.  0.
483  4.82  0.  0.  0.
484  4.83  0.  0.  0.
485  4.84  0.  0.  0.
486  4.85  0.  0.  0.
487  4.86  0.  0.  0.
488  4.87  0.  0.  0.
489  4.88  0.  0.  0.
490  4.89  0.  0.  0.
491  4.90  0.  0.  0.
492  4.91  0.  0.  0.
493  4.92  0.  0.  0.
494  4.93  0.  0.  0.
495  4.94  0.  0.  0.
496  4.95  0.  0.  0.
497  4.96  0.  0.  0.
498  4.97  0.  0.  0.
499  4.98  0.  0.  0.
500  4.99  0.  0.  0.
501  5.00  0.  0.  0.
502  5.01  0.  0.  0.
503  5.02  0.  0.  0.
504  5.03  0.  0.  0.
505  5.04  0.  0.  0.
506  5.05  0.  0.  0.
507  5.06  0.  0.  0.
508  5.07  0.  0.  0.
509  5.08  0.  0.  0.
510  5.09  0.  0.  0.
511  5.10  0.  0.  0.
512  5.11  0.  0.  0.
513  5.12  0.  0.  0.
514  5.13  0.  0.  0.
515  5.14  0.  0.  0.
516  5.15  0.  0.  0.
517  5.16  0.  0.  0.
518  5.17  0.  0.  0.
519  5.18  0.  0.  0.
520  5.19  0.  0.  0.
521  5.20  0.  0.  0.
522  5.21  0.  0.  0.
523  5.22  0.  0.  0.
524  5.23  0.  0.  0.
525  5.24  0.  0.  0.
526  5.25  0.  0.  0.
527  5.26  0.  0.  0.
528  5.27  0.  0.  0.
529  5.28  0.  0.  0.
530  5.29  0.  0.  0.
531  5.30  0.  0.  0.
532  5.31  0.  0.  0.
533  5.32  0.  0.  0.
534  5.33  0.  0.  0.
535  5.34  0.  0.  0.
536  5.35  0.  0.  0.
537  5.36  0.  0.  0.
538  5.37  0.  0.  0.
539  5.38  0.  0.  0.
540  5.39  0.  0.  0.
541  5.40  0.  0.  0.
542  5.41  0.  0.  0.
543  5.42  0.  0.  0.
544  5.43  0.  0.  0.
545  5.44  0.  0.  0.
546  5.45  0.  0.  0.
547  5.46  0.  0.  0.
548  5.47  0.  0.  0.
549  5.48  0.  0.  0.
550  5.49  0.  0.  0.
551  5.50  0.  0.  0.
552  5.51  0.  0.  0.
553  5.52  0.  0.  0.
554  5.53  0.  0.  0.
555  5.54  0.  0.  0.
556  5.55  0.  0.  0.
557  5.56  0.  0.  0.
558  5.57  0.  0.  0.
559  5.58  0.  0.  0.
560  5.59  0.  0.  0.
561  5.60  0.  0.  0.
562  5.61  0.  0.  0.
563  5.62  0.  0.  0.
564  5.63  0.  0.  0.
565  5.64  0.  0.  0.
566  5.65  0.  0.  0.
567  5.66  0.  0.  0.
568  5.67  0.  0.  0.
569  5.68  0.  0.  0.
570  5.69  0.  0.  0.
571  5.70  0.  0.  0.
572  5.71  0.  0.  0.
573  5.72  0.  0.  0.
574  5.73  0.  0.  0.
575  5.74  0.  0.  0.
576  5.75  0.  0.  0.
577  5.76  0.  0.  0.
578  5.77  0.  0.  0.
579  5.78  0.  0.  0.
580  5.79  0.  0.  0.
581  5.80  0.  0.  0.
582  5.81  0.  0.  0.
583  5.82  0.  0.  0.
584  5.83  0.  0.  0.
585  5.84  0.  0.  0.
586  5.85  0.  0.  0.
587  5.86  0.  0.  0.
588  5.87  0.  0.  0.
589  5.88  0.  0.  0.
590  5.89  0.  0.  0.
591  5.90  0.  0.  0.
592  5.91  0.  0.  0.
593  5.92  0.  0.  0.
594  5.93  0.  0.  0.
595  5.94  0.  0.  0.
596  5.95  0.  0.  0.
597  5.96  0.  0.  0.
598  5.97  0.  0.  0.
599  5.98  0.  0.  0.
600  5.99  0.  0.  0.
1                         8.7101894698347E+00 -3.4381230814145E-01 -8.5938871672746E-02
1  0.0000000000000E+00 -1.6498469257442E-09 -5.3482863485166E-08  8.6180936983982E-08
2  1.0000000000000E-02  3.6656224952892E-03  1.1092703249913E-03  2.0941082810860E-05
3  2.0000000000000E-02  1.4635760466215E-02  4.4446902224079E-03  4.8956315476353E-05
4  3.0000000000000E-02  3.2830358070148E-02  1.0028228638647E-02 -1.8748041088173E-05
5  4.0000000000000E-02  5.8116432861944E-02  1.7893678162625E-02 -3.4811842320133E-04
6  5.0000000000000E-02  9.0308747293909E-02  2.8082549977690E-02 -1.1603899881919E-03
7  6.0000000000000E-02  1.2917075956756E-01  4.0638578852568E-02 -2.7214716008810E-03
8  7.0000000000000E-02  1.7441586373875E-01  5.5601079171247E-02 -5.3289585169168E-03
9  8.0000000000000E-02  2.2570893062755E-01  7.2997446484582E-02 -9.2972376780460E-03
10  9.0000000000000E-02  2.8266816191054E-01  9.2835141744960E-02 -1.4941221198125E-02
11  1.0000000000000E-01  3.4486726965737E-01  1.1509352563730E-01 -2.2559296365441E-02
12  1.1000000000000E-01  4.1183799243439E-01  1.3971592704531E-01 -3.2416113525732E-02
13  1.2000000000000E-01  4.8307295689029E-01  1.6660233196723E-01 -4.4725845380356E-02
14  1.3000000000000E-01  5.5802889046234E-01  1.9560306688405E-01 -5.9636542062808E-02
15  1.4000000000000E-01  6.3613018653488E-01  2.2651382396406E-01 -7.7216176075185E-02
16  1.5000000000000E-01  7.1677281812675E-01  2.5907233533395E-01 -9.7440920697920E-02
17  1.6000000000000E-01  7.9932859010142E-01  2.9295695121396E-01 -1.2018613642042E-01
18  1.7000000000000E-01  8.8314971313922E-01  3.2778731369466E-01 -1.4522045449192E-01
19  1.8000000000000E-01  9.6757367547388E-01  3.6312724640399E-01 -1.7220324761333E-01
20  1.9000000000000E-01  1.0519283808874E+00  3.9848990267113E-01 -2.0068566830367E-01
21  2.0000000000000E-01  1.1355375139115E+00  4.3334513367352E-01 -2.3011531914924E-01
22  2.1000000000000E-01  1.2177260858422E+00  4.6712895624239E-01 -2.5984449979693E-01
23  2.2000000000000E-01  1.2978261082836E+00  4.9925492034736E-01 -2.8914185711361E-01
24  2.3000000000000E-01  1.3751823347404E+00  5.2912710159258E-01 -3.1720715132042E-01
25  2.4000000000000E-01  1.4491580054981E+00  5.5615437701326E-01 -3.4318874590249E-01
26  2.5000000000000E-01  1.5191405268839E+00  5.7976558551507E-01 -3.6620333619892E-01
27  2.6000000000000E-01  1.5845470131547E+00  5.9942512959526E-01 -3.8535735392528E-01
28  2.7000000000000E-01  1.6448296178689E+00  6.1464854427706E-01 -3.9976942510574E-01
29  2.8000000000000E-01  1.6994805817607E+00  6.2501754378602E-01 -4.0859321905321E-01
30  2.9000000000000E-01  1.7480369259114E+00  6.3019405720265E-01 -4.1104000754150E-01
31  3.0000000000000E-01  1.7900847224192E+00  6.2993278140879E-01 -4.0640025686437E-01
32  3.1000000000000E-01  1.8252628797635E+00  6.2409181282776E-01 -3.9406360105323E-01
33  3.2000000000000E-01  1.8532663865633E+00  6.1264096790674E-01 -3.7353659135861E-01
34  3.3000000000000E-01  1.8738489653083E+00  5.9566746465091E-01 -3.4445768373238E-01
35  3.4000000000000E-01  1.8868250967291E+00  5.7337871194001E-01 -3.0660901032084E-01
36  3.5000000000000E-01  1.8920713855433E+00  5.4610203756125E-01 -2.5992458016381E-01
37  3.6000000000000E-01  1.8895272491447E+00  5.1428127723037E-01 -2.0449466512738E-01
38  3.7000000000000E-01  1.8791949221049E+00  4.7847024242324E-01 -1.4056624591799E-01
39  3.8000000000000E-01  1.8611387808588E+00  4.3932318149437E-01 -6.8539515883174E-02
40  3.9000000000000E-01  1.8354840043515E+00  3.9758244312865E-01  1.1039436906766E-02
41  4.0000000000000E-01  1.8024145974375E+00  3.5406364049449E-01  9.7489530197510E-02
42  4.1000000000000E-01  1.7621708141731E+00  3.0963869550906E-01  1.9000882119691E-01
43  4.2000000000000E-01  1.7150460275584E+00  2.6521721259794E-01  2.8769142531391E-01
44  4.3000000000000E-01  1.6613831005371E+00  2.2172668777188E-01  3.8954668874624E-01
45  4.4000000000000E-01  1.6015703199546E+00  1.8009209972212E-01  4.9452001853253E-01
46  4.5000000000000E-01  1.5360369605428E+00  1.4121545341311E-01  6.0151472887436E-01
47  4.6000000000000E-01  1.4652485497435E+00  1.0595585235133E-01  7.0941423957166E-01
48  4.7000000000000E-01  1.3897019062324E+00  7.5110662952383E-02  8.1710396208441E-01
49  4.8000000000000E-01  1.3099200253620E+00  4.9398303451299E-02  9.2349223103245E-01
50  4.9000000000000E-01  1.2264468834454E+00  2.9443141465620E-02  1.0275296830701E+00
51  5.0000000000000E-01  1.1398422299445E+00  1.5762920080695E-02  1.1282265494603E+00
52  5.1000000000000E-01  1.0506764323621E+00  8.7590541950261E-03  1.2246674110386E+00
53  5.2000000000000E-01  9.5952543312979E-01  8.7100493462238E-03  1.3160230616554E+00
54  5.3000000000000E-01  8.6696587127606E-01  1.5768197252688E-02  1.4015592351431E+00
55  5.4000000000000E-01  7.7357041437913E-01  2.9959599091563E-02  1.4806420674524E+00
56  5.5000000000000E-01  6.7990333853366E-01  5.1187462534781E-02  1.5527402856260E+00
57  5.6000000000000E-01  5.8651638606380E-01  7.9238515322099E-02  1.6174242343823E+00
58  5.7000000000000E-01  4.9394492276813E-01  1.1379228017377E-01  1.6743619649152E+00
59  5.8000000000000E-01  4.0270440885380E-01  1.5443286649567E-01  1.7233127148907E+00
60  5.9000000000000E-01  3.1328719064981E-01  2.0066285669150E-01  1.7641181996850E+00
61  6.0000000000000E-01  2.2615961389921E-01  2.5191880168135E-01  1.7966922092514E+00
62  6.1000000000000E-01  1.4175945409717E-01  3.0758779365375E-01  1.8210090598226E+00
63  6.2000000000000E-01  6.0493655100654E-02  3.6702455581336E-01  1.8370914828311E+00
64  6.3000000000000E-01 -1.7263635824668E-02  4.2956847995806E-01  1.8449985436581E+00
65  6.4000000000000E-01 -9.1172750197841E-02  4.9456005348383E-01  1.8448141696024E+00
66  6.5000000000000E-01 -1.6092991207598E-01  5.6135614754189E-01  1.8366368302087E+00
67  6.6000000000000E-01 -2.2626839719525E-01  6.2934368652979E-01  1.8205708550685E+00
68  6.7000000000000E-01 -2.8695944981816E-01  6.9795128421284E-01  1.7967197964987E+00
69  6.8000000000000E-01 -3.4281296724019E-01  7.6665851124305E-01  1.7651821500040E+00
70  6.9000000000000E-01 -3.9367795888502E-01  8.3500254986396E-01  1.7260496376558E+00
71  7.0000000000000E-01 -4.3944278346467E-01  9.0258209089262E-01  1.6794081425872E+00
72  7.1000000000000E-01 -4.8003516404613E-01  9.6905843209499E-01  1.6253412611952E+00
73  7.2000000000000E-01 -5.1542197731086E-01  1.0341538420281E+00  1.5639363181138E+00
74  7.3000000000000E-01 -5.4560881007418E-01  1.0976473555018E+00  1.4952925723763E+00
75  7.4000000000000E-01 -5.7063927349746E-01  1.1593682622384E+00  1.4195312361365E+00
76  7.5000000000000E-01 -5.9059406360092E-01  1.2191876355573E+00  1.3368068342812E+00
77  7.6000000000000E-01 -6.0558975586221E-01  1.2770083197916E+00  1.2473193581856E+00
78  7.7000000000000E-01 -6.1577732201853E-01  1.3327538509241E+00  1.1513266131015E+00
79  7.8000000000000E-01 -6.2134035877950E-01  1.3863568224797E+00  1.0491561287690E+00
80  7.9000000000000E-01 -6.2249302105496E-01  1.4377472265353E+00  9.4121599854945E-01
81  8.0000000000000E-01 -6.1947765649549E-01  1.4868412970592E+00  8.2800403442445E-01
82  8.1000000000000E-01 -6.1256214356444E-01  1.5335313596694E+00  7.1011467332851E-01
83  8.2000000000000E-01 -6.0203694187938E-01  1.5776771491011E+00  5.8824314322107E-01
84  8.3000000000000E-01 -5.8821187099152E-01  1.6190989947471E+00  4.6318649273518E-01
85  8.4000000000000E-01 -5.7141264187601E-01  1.6575731978489E+00  3.3584120293368E-01
86  8.5000000000000E-01 -5.5197717389982E-01  1.6928298342154E+00  2.0719722953230E-01
87  8.6000000000000E-01 -5.3025173859858E-01  1.7245531172150E+00  7.8328464034567E-02
88  8.7000000000000E-01 -5.0658697988172E-01  1.7523843511851E+00 -4.9620252914446E-02
89  8.8000000000000E-01 -4.8133386793603E-01  1.7759273996167E+00 -1.7544928893999E-01
90  8.9000000000000E-01 -4.5483965074755E-01  1.7947564899752E+00 -2.9792313474699E-01
91  9.0000000000000E-01 -4.2744387245336E-01  1.8084260823419E+00 -4.1579154022713E-01
92  9.1000000000000E-01 -3.9947453133687E-01  1.8164824466414E+00 -5.2781223282267E-01
93  9.2000000000000E-01 -3.7124445188891E-01  1.8184765272432E+00 -6.3277450180239E-01
94  9.3000000000000E-01 -3.4304794471512E-01  1.8139776280356E+00 -7.2952288583131E-01
95  9.4000000000000E-01 -3.1515782497195E-01  1.8025874289837E+00 -8.1698019070369E-01
96  9.5000000000000E-01 -2.8782285431081E-01  1.7839538494644E+00 -8.9416909335277E-01
97  9.6000000000000E-01 -2.6126566292636E-01  1.7577843063626E+00 -9.6023166028000E-01
98  9.7000000000000E-01 -2.3568119722038E-01  1.7238579773792E+00 -1.0144462255731E+00
99  9.8000000000000E-01 -2.1123572487485E-01  1.6820367727635E+00 -1.0562412366976E+00