Pu    ONCVPSP-4.0.1  r_core=   1.15370   1.20304   1.10639   1.15370
94.0000     34.0000      231012    zatom,zion,pspd
8 -116133   3     4   600     0    pspcod,pspxc,lmax,lloc,mmax,r2well
5.99000000  5.00000000  0.00000000    rchrg fchrg qchrg
3     2     2     2     0    nproj
1     1           extension_switch
0                         3.8509579845598E+01  3.4151098826215E+00 -9.0201851039371E-01
1  0.0000000000000E+00 -6.4019007428584E-08  2.3915836311339E-07  3.1610941503279E-08
2  1.0000000000000E-02  1.6061037933229E-01 -8.9539353767063E-02  2.5773224499283E-02
3  2.0000000000000E-02  3.2006926844057E-01 -1.7713872267793E-01  5.1481086795152E-02
4  3.0000000000000E-02  4.7724181166048E-01 -2.6090784991844E-01  7.7054237128847E-02
5  4.0000000000000E-02  6.3102595014831E-01 -3.3905422065596E-01  1.0241557077450E-01
6  5.0000000000000E-02  7.8036765726976E-01 -4.0992771396435E-01  1.2747689222366E-01
7  6.0000000000000E-02  9.2427482728924E-01 -4.7206037458318E-01  1.5213620535906E-01
8  7.0000000000000E-02  1.0618294479156E+00 -5.2419997454389E-01  1.7627579921579E-01
9  8.0000000000000E-02  1.1921977512795E+00 -5.6533627385389E-01  1.9976126731707E-01
10  9.0000000000000E-02  1.3146381130231E+00 -5.9471917007631E-01  2.2244156131929E-01
11  1.0000000000000E-01  1.4285065523932E+00 -6.1186823766678E-01  2.4415013818965E-01
12  1.1000000000000E-01  1.5332597742326E+00 -6.1657348700167E-01  2.6470721591185E-01
13  1.2000000000000E-01  1.6284557830670E+00 -6.0888750711792E-01  2.8392310741631E-01
14  1.3000000000000E-01  1.7137521865442E+00 -5.8910948205837E-01  3.0160255774636E-01
15  1.4000000000000E-01  1.7889023868404E+00 -5.5776187546825E-01  3.1754996706786E-01
16  1.5000000000000E-01  1.8537499310915E+00 -5.1556084967204E-01  3.3157534358984E-01
17  1.6000000000000E-01  1.9082213525713E+00 -4.6338171314200E-01  3.4350079723219E-01
18  1.7000000000000E-01  1.9523178808402E+00 -4.0222086506703E-01  3.5316735820636E-01
19  1.8000000000000E-01  1.9861064296266E+00 -3.3315582080379E-01  3.6044188557477E-01
20  1.9000000000000E-01  2.0097102845952E+00 -2.5730495283901E-01  3.6522382006648E-01
21  2.0000000000000E-01  2.0232999089537E+00 -1.7578856664416E-01  3.6745153338037E-01
22  2.1000000000000E-01  2.0270842632857E+00 -8.9692850194055E-02  3.6710803302164E-01
23  2.2000000000000E-01  2.0213029980190E+00 -3.8093333874344E-05  3.6422579718698E-01
24  2.3000000000000E-01  2.0062198241830E+00  9.2247625511713E-02  3.5889053781937E-01
25  2.4000000000000E-01  1.9821173027805E+00  1.8634833445813E-01  3.5124372088187E-01
26  2.5000000000000E-01  1.9492932179581E+00  2.8157297884013E-01  3.4148371007647E-01
27  2.6000000000000E-01  1.9080586173488E+00  3.7736079201523E-01  3.2986544235617E-01
28  2.7000000000000E-01  1.8587375179109E+00  4.7327919527902E-01  3.1669858917530E-01
29  2.8000000000000E-01  1.8016681908717E+00  5.6901452062506E-01  3.0234420489605E-01
30  2.9000000000000E-01  1.7372058585879E+00  6.6435616184158E-01  2.8720991146320E-01
31  3.0000000000000E-01  1.6657265626600E+00  7.5917504542599E-01  2.7174371471579E-01
32  3.1000000000000E-01  1.5876318996456E+00  8.5339756121690E-01  2.5642659092632E-01
33  3.2000000000000E-01  1.5033542709201E+00  9.4697629320912E-01  2.4176402086330E-01
34  3.3000000000000E-01  1.4133622588191E+00  1.0398590353532E+00  2.2827668155541E-01
35  3.4000000000000E-01  1.3181657237566E+00  1.1319576591397E+00  2.1649053190198E-01
36  3.5000000000000E-01  1.2183202174137E+00  1.2231184158087E+00  2.0692654648968E-01
37  3.6000000000000E-01  1.1144303255024E+00  1.3130952052017E+00  2.0009036189194E-01
38  3.7000000000000E-01  1.0071515894418E+00  1.4015272273574E+00  1.9646210109503E-01
39  3.8000000000000E-01  8.9719070823703E-01  1.4879222563865E+00  1.9648663457538E-01
40  3.9000000000000E-01  7.8530378795702E-01  1.5716465458736E+00  2.0056452130814E-01
41  4.0000000000000E-01  6.7229248388847E-01  1.6519221002050E+00  2.0904385027116E-01
42  4.1000000000000E-01  5.5899796664617E-01  1.7278317377754E+00  2.2221317372353E-01
43  4.2000000000000E-01  4.4629273479820E-01  1.7983320424406E+00  2.4029568882009E-01
44  4.3000000000000E-01  3.3507038924886E-01  1.8622739621692E+00  2.6344478527458E-01
45  4.4000000000000E-01  2.2623357494529E-01  1.9184304823313E+00  2.9174103523959E-01
46  4.5000000000000E-01  1.2068037973228E-01  1.9655304890108E+00  3.2519065883033E-01
47  4.6000000000000E-01  1.9289554884370E-02  2.0022976579582E+00  3.6372545629777E-01
48  4.7000000000000E-01 -7.7095016142776E-02  2.0274929689179E+00  4.0720415722161E-01
49  4.8000000000000E-01 -1.6768012753383E-01  2.0399592629458E+00  4.5541509961603E-01
50  4.9000000000000E-01 -2.5173883704046E-01  2.0386661397318E+00  5.0808011873873E-01
51  5.0000000000000E-01 -3.2862531507237E-01  2.0227534381707E+00  5.6485949769067E-01
52  5.1000000000000E-01 -3.9778845297361E-01  1.9915715591432E+00  6.2535781038730E-01
53  5.2000000000000E-01 -4.5878375477221E-01  1.9447169745269E+00  6.8913047270934E-01
54  5.3000000000000E-01 -5.1128308337443E-01  1.8820614179494E+00  7.5569080987124E-01
55  5.4000000000000E-01 -5.5508189565037E-01  1.8037734651167E+00  8.2451744726899E-01
56  5.5000000000000E-01 -5.9010367882643E-01  1.7103314766628E+00  8.9506183800845E-01
57  5.6000000000000E-01 -6.1640139018578E-01  1.6025271841755E+00  9.6675575243848E-01
58  5.7000000000000E-01 -6.3415579993260E-01  1.4814595384591E+00  1.0390185725607E+00
59  5.8000000000000E-01 -6.4367073952020E-01  1.3485187950304E+00  1.1112642562135E+00
60  5.9000000000000E-01 -6.4536536090398E-01  1.2053611714340E+00  1.1829078613293E+00
61  6.0000000000000E-01 -6.3976361215854E-01  1.0538747601746E+00  1.2533715481472E+00
62  6.1000000000000E-01 -6.2748122790906E-01  8.9613770626715E-01  1.3220900057775E+00
63  6.2000000000000E-01 -6.0921061556402E-01  7.3436994692515E-01  1.3885152777100E+00
64  6.3000000000000E-01 -5.8570408730711E-01  5.7088005155394E-01  1.4521209875525E+00
65  6.4000000000000E-01 -5.5775594064562E-01  4.0800888368255E-01  1.5124059903785E+00
66  6.5000000000000E-01 -5.2618392510737E-01  2.4807192577436E-01  1.5688974956091E+00
67  6.6000000000000E-01 -4.9181064820745E-01  9.3302158539454E-02  1.6211537236005E+00
68  6.7000000000000E-01 -4.5544546962080E-01 -5.4204633267278E-02  1.6687661694793E+00
69  6.8000000000000E-01 -4.1786740890622E-01 -1.9254034548381E-01  1.7113615539540E+00
70  6.9000000000000E-01 -3.7980955019808E-01 -3.2002920091261E-01  1.7486035417303E+00
71  7.0000000000000E-01 -3.4194536878163E-01 -4.3526514222944E-01  1.7801943039188E+00
72  7.1000000000000E-01 -3.0487733178438E-01 -5.3714082027386E-01  1.8058759918116E+00
73  7.2000000000000E-01 -2.6912804127317E-01 -6.2486733058637E-01  1.8254321762027E+00
74  7.3000000000000E-01 -2.3513409614344E-01 -6.9798418314127E-01  1.8386892897692E+00
75  7.4000000000000E-01 -2.0324275291235E-01 -7.5635933737785E-01  1.8455180908241E+00
76  7.5000000000000E-01 -1.7371136855262E-01 -8.0017948355585E-01  1.8458351459730E+00
77  7.6000000000000E-01 -1.4670951447941E-01 -8.2993108891106E-01  1.8396043079127E+00
78  7.7000000000000E-01 -1.2232356318586E-01 -8.4637304050687E-01  1.8268381438545E+00
79  7.8000000000000E-01 -1.0056347094532E-01 -8.5050199468462E-01  1.8075992508674E+00
80  7.9000000000000E-01 -8.1371414140473E-02 -8.4351177584635E-01  1.7820013777622E+00
81  8.0000000000000E-01 -6.4631885288213E-02 -8.2674834713199E-01  1.7502102598336E+00
82  8.1000000000000E-01 -5.0182819211652E-02 -8.0166199685952E-01  1.7124440635218E+00
83  8.2000000000000E-01 -3.7827300914421E-02 -7.6975844426719E-01  1.6689733334023E+00
84  8.3000000000000E-01 -2.7345404697609E-02 -7.3255056550241E-01  1.6201203342006E+00
85  8.4000000000000E-01 -1.8505728412010E-02 -6.9151237777908E-01  1.5662576859339E+00
86  8.5000000000000E-01 -1.1076216317851E-02 -6.4803680028097E-01  1.5078062007829E+00
87  8.6000000000000E-01 -4.8339071354451E-03 -6.0339854086756E-01  1.4452318457015E+00
88  8.7000000000000E-01  4.2670164018382E-04 -5.5872324575599E-01  1.3790417747454E+00
89  8.8000000000000E-01  4.8869187141435E-03 -5.1496380418216E-01  1.3097793991665E+00
90  8.9000000000000E-01  8.6989292560267E-03 -4.7288443143746E-01  1.2380184909194E+00
91  9.0000000000000E-01  1.1982773491148E-02 -4.3305287174564E-01  1.1643563457461E+00
92  9.1000000000000E-01  1.4825262977579E-02 -3.9584077703798E-01  1.0894060648030E+00
93  9.2000000000000E-01  1.7280792010325E-02 -3.6143203788295E-01  1.0137880482652E+00
94  9.3000000000000E-01  1.9373933563473E-02 -3.2983857645342E-01  9.3812082993579E-01
95  9.4000000000000E-01  2.1103646691495E-02 -3.0092286458983E-01  8.6301141814740E-01
96  9.5000000000000E-01  2.2448866455350E-02 -2.7442620684029E-01  7.8904534485991E-01
97  9.6000000000000E-01  2.3375198671348E-02 -2.5000163061544E-01  7.1677666164151E-01
98  9.7000000000000E-01  2.3842399833433E-02 -2.2725005244724E-01  6.4671815821437E-01
99  9.8000000000000E-01  2.3812286508280E-02 -2.0575823759032E-01  5.7933211660490E-01
100  9.9000000000000E-01  2.3256686638179E-02 -1.8513693377377E-01  5.1502195208164E-01
101  1.0000000000000E+00  2.2165015199833E-02 -1.6505743057819E-01  4.5412513151168E-01
102  1.0100000000000E+00  2.0551025537103E-02 -1.4528466281314E-01  3.9690780132436E-01
103  1.0200000000000E+00  1.8458251925943E-02 -1.2570482690570E-01  3.4356160177093E-01
104  1.0300000000000E+00  1.5963614577181E-02 -1.0634529939792E-01  2.9420319264492E-01
105  1.0400000000000E+00  1.3178600986687E-02 -8.7384420485890E-02  2.4887706924141E-01
106  1.0500000000000E+00  1.0247362717709E-02 -6.9148416577886E-02  2.0756230726842E-01
107  1.0600000000000E+00  7.3409699398722E-03 -5.2092368191299E-02  1.7018394278362E-01
108  1.0700000000000E+00  4.6469422436160E-03 -3.6761664600224E-02  1.3662976952660E-01
109  1.0800000000000E+00  2.3530267742013E-03 -2.3729834504938E-02  1.0677342487842E-01
110  1.0900000000000E+00  6.2400062902961E-04 -1.3507908620174E-02  8.0504731773074E-02
111  1.1000000000000E+00 -4.5629290418348E-04 -6.3324545438771E-03  5.7758612545285E-02
112  1.1100000000000E+00 -1.0518166171774E-03 -1.5824075020025E-03  3.8515773668204E-02
113  1.1200000000000E+00 -1.1713192736195E-03  8.9721048120992E-04  2.2980853321808E-02
114  1.1300000000000E+00 -8.9688819650902E-04  1.4882468530737E-03  1.1363200779902E-02
115  1.1400000000000E+00 -4.2106269305970E-04  8.8943442250976E-04  3.7833630963078E-03
116  1.1500000000000E+00 -4.7155625889675E-05  1.1226891418936E-04  3.1579931708066E-04
117  1.1600000000000E+00  1.5232352575898E-06 -3.7873688210658E-06 -8.7998155559369E-06
118  1.1700000000000E+00  3.1582967062423E-07 -7.2890253826929E-07 -2.3102670644706E-06
119  1.18 -0.  0. -0.
120  1.19  0.  0.  0.
121  1.20  0.  0.  0.
122  1.21  0.  0.  0.
123  1.22  0.  0.  0.
124  1.23  0.  0.  0.
125  1.24  0.  0.  0.
126  1.25  0.  0.  0.
127  1.26  0.  0.  0.
128  1.27  0.  0.  0.
129  1.28  0.  0.  0.
130  1.29  0.  0.  0.
131  1.30  0.  0.  0.
132  1.31  0.  0.  0.
133  1.32  0.  0.  0.
134  1.33  0.  0.  0.
135  1.34  0.  0.  0.
136  1.35  0.  0.  0.
137  1.36  0.  0.  0.
138  1.37  0.  0.  0.
139  1.38  0.  0.  0.
140  1.39  0.  0.  0.
141  1.40  0.  0.  0.
142  1.41  0.  0.  0.
143  1.42  0.  0.  0.
144  1.43  0.  0.  0.
145  1.44  0.  0.  0.
146  1.45  0.  0.  0.
147  1.46  0.  0.  0.
148  1.47  0.  0.  0.
149  1.48  0.  0.  0.
150  1.49  0.  0.  0.
151  1.50  0.  0.  0.
152  1.51  0.  0.  0.
153  1.52  0.  0.  0.
154  1.53  0.  0.  0.
155  1.54  0.  0.  0.
156  1.55  0.  0.  0.
157  1.56  0.  0.  0.
158  1.57  0.  0.  0.
159  1.58  0.  0.  0.
160  1.59  0.  0.  0.
161  1.60  0.  0.  0.
162  1.61  0.  0.  0.
163  1.62  0.  0.  0.
164  1.63  0.  0.  0.
165  1.64  0.  0.  0.
166  1.65  0.  0.  0.
167  1.66  0.  0.  0.
168  1.67  0.  0.  0.
169  1.68  0.  0.  0.
170  1.69  0.  0.  0.
171  1.70  0.  0.  0.
172  1.71  0.  0.  0.
173  1.72  0.  0.  0.
174  1.73  0.  0.  0.
175  1.74  0.  0.  0.
176  1.75  0.  0.  0.
177  1.76  0.  0.  0.
178  1.77  0.  0.  0.
179  1.78  0.  0.  0.
180  1.79  0.  0.  0.
181  1.80  0.  0.  0.
182  1.81  0.  0.  0.
183  1.82  0.  0.  0.
184  1.83  0.  0.  0.
185  1.84  0.  0.  0.
186  1.85  0.  0.  0.
187  1.86  0.  0.  0.
188  1.87  0.  0.  0.
189  1.88  0.  0.  0.
190  1.89  0.  0.  0.
191  1.90  0.  0.  0.
192  1.91  0.  0.  0.
193  1.92  0.  0.  0.
194  1.93  0.  0.  0.
195  1.94  0.  0.  0.
196  1.95  0.  0.  0.
197  1.96  0.  0.  0.
198  1.97  0.  0.  0.
199  1.98  0.  0.  0.
200  1.99  0.  0.  0.
201  2.00  0.  0.  0.
202  2.01  0.  0.  0.
203  2.02  0.  0.  0.
204  2.03  0.  0.  0.
205  2.04  0.  0.  0.
206  2.05  0.  0.  0.
207  2.06  0.  0.  0.
208  2.07  0.  0.  0.
209  2.08  0.  0.  0.
210  2.09  0.  0.  0.
211  2.10  0.  0.  0.
212  2.11  0.  0.  0.
213  2.12  0.  0.  0.
214  2.13  0.  0.  0.
215  2.14  0.  0.  0.
216  2.15  0.  0.  0.
217  2.16  0.  0.  0.
218  2.17  0.  0.  0.
219  2.18  0.  0.  0.
220  2.19  0.  0.  0.
221  2.20  0.  0.  0.
222  2.21  0.  0.  0.
223  2.22  0.  0.  0.
224  2.23  0.  0.  0.
225  2.24  0.  0.  0.
226  2.25  0.  0.  0.
227  2.26  0.  0.  0.
228  2.27  0.  0.  0.
229  2.28  0.  0.  0.
230  2.29  0.  0.  0.
231  2.30  0.  0.  0.
232  2.31  0.  0.  0.
233  2.32  0.  0.  0.
234  2.33  0.  0.  0.
235  2.34  0.  0.  0.
236  2.35  0.  0.  0.
237  2.36  0.  0.  0.
238  2.37  0.  0.  0.
239  2.38  0.  0.  0.
240  2.39  0.  0.  0.
241  2.40  0.  0.  0.
242  2.41  0.  0.  0.
243  2.42  0.  0.  0.
244  2.43  0.  0.  0.
245  2.44  0.  0.  0.
246  2.45  0.  0.  0.
247  2.46  0.  0.  0.
248  2.47  0.  0.  0.
249  2.48  0.  0.  0.
250  2.49  0.  0.  0.
251  2.50  0.  0.  0.
252  2.51  0.  0.  0.
253  2.52  0.  0.  0.
254  2.53  0.  0.  0.
255  2.54  0.  0.  0.
256  2.55  0.  0.  0.
257  2.56  0.  0.  0.
258  2.57  0.  0.  0.
259  2.58  0.  0.  0.
260  2.59  0.  0.  0.
261  2.60  0.  0.  0.
262  2.61  0.  0.  0.
263  2.62  0.  0.  0.
264  2.63  0.  0.  0.
265  2.64  0.  0.  0.
266  2.65  0.  0.  0.
267  2.66  0.  0.  0.
268  2.67  0.  0.  0.
269  2.68  0.  0.  0.
270  2.69  0.  0.  0.
271  2.70  0.  0.  0.
272  2.71  0.  0.  0.
273  2.72  0.  0.  0.
274  2.73  0.  0.  0.
275  2.74  0.  0.  0.
276  2.75  0.  0.  0.
277  2.76  0.  0.  0.
278  2.77  0.  0.  0.
279  2.78  0.  0.  0.
280  2.79  0.  0.  0.
281  2.80  0.  0.  0.
282  2.81  0.  0.  0.
283  2.82  0.  0.  0.
284  2.83  0.  0.  0.
285  2.84  0.  0.  0.
286  2.85  0.  0.  0.
287  2.86  0.  0.  0.
288  2.87  0.  0.  0.
289  2.88  0.  0.  0.
290  2.89  0.  0.  0.
291  2.90  0.  0.  0.
292  2.91  0.  0.  0.
293  2.92  0.  0.  0.
294  2.93  0.  0.  0.
295  2.94  0.  0.  0.
296  2.95  0.  0.  0.
297  2.96  0.  0.  0.
298  2.97  0.  0.  0.
299  2.98  0.  0.  0.
300  2.99  0.  0.  0.
301  3.00  0.  0.  0.
302  3.01  0.  0.  0.
303  3.02  0.  0.  0.
304  3.03  0.  0.  0.
305  3.04  0.  0.  0.
306  3.05  0.  0.  0.
307  3.06  0.  0.  0.
308  3.07  0.  0.  0.
309  3.08  0.  0.  0.
310  3.09  0.  0.  0.
311  3.10  0.  0.  0.
312  3.11  0.  0.  0.
313  3.12  0.  0.  0.
314  3.13  0.  0.  0.
315  3.14  0.  0.  0.
316  3.15  0.  0.  0.
317  3.16  0.  0.  0.
318  3.17  0.  0.  0.
319  3.18  0.  0.  0.
320  3.19  0.  0.  0.
321  3.20  0.  0.  0.
322  3.21  0.  0.  0.
323  3.22  0.  0.  0.
324  3.23  0.  0.  0.
325  3.24  0.  0.  0.
326  3.25  0.  0.  0.
327  3.26  0.  0.  0.
328  3.27  0.  0.  0.
329  3.28  0.  0.  0.
330  3.29  0.  0.  0.
331  3.30  0.  0.  0.
332  3.31  0.  0.  0.
333  3.32  0.  0.  0.
334  3.33  0.  0.  0.
335  3.34  0.  0.  0.
336  3.35  0.  0.  0.
337  3.36  0.  0.  0.
338  3.37  0.  0.  0.
339  3.38  0.  0.  0.
340  3.39  0.  0.  0.
341  3.40  0.  0.  0.
342  3.41  0.  0.  0.
343  3.42  0.  0.  0.
344  3.43  0.  0.  0.
345  3.44  0.  0.  0.
346  3.45  0.  0.  0.
347  3.46  0.  0.  0.
348  3.47  0.  0.  0.
349  3.48  0.  0.  0.
350  3.49  0.  0.  0.
351  3.50  0.  0.  0.
352  3.51  0.  0.  0.
353  3.52  0.  0.  0.
354  3.53  0.  0.  0.
355  3.54  0.  0.  0.
356  3.55  0.  0.  0.
357  3.56  0.  0.  0.
358  3.57  0.  0.  0.
359  3.58  0.  0.  0.
360  3.59  0.  0.  0.
361  3.60  0.  0.  0.
362  3.61  0.  0.  0.
363  3.62  0.  0.  0.
364  3.63  0.  0.  0.
365  3.64  0.  0.  0.
366  3.65  0.  0.  0.
367  3.66  0.  0.  0.
368  3.67  0.  0.  0.
369  3.68  0.  0.  0.
370  3.69  0.  0.  0.
371  3.70  0.  0.  0.
372  3.71  0.  0.  0.
373  3.72  0.  0.  0.
374  3.73  0.  0.  0.
375  3.74  0.  0.  0.
376  3.75  0.  0.  0.
377  3.76  0.  0.  0.
378  3.77  0.  0.  0.
379  3.78  0.  0.  0.
380  3.79  0.  0.  0.
381  3.80  0.  0.  0.
382  3.81  0.  0.  0.
383  3.82  0.  0.  0.
384  3.83  0.  0.  0.
385  3.84  0.  0.  0.
386  3.85  0.  0.  0.
387  3.86  0.  0.  0.
388  3.87  0.  0.  0.
389  3.88  0.  0.  0.
390  3.89  0.  0.  0.
391  3.90  0.  0.  0.
392  3.91  0.  0.  0.
393  3.92  0.  0.  0.
394  3.93  0.  0.  0.
395  3.94  0.  0.  0.
396  3.95  0.  0.  0.
397  3.96  0.  0.  0.
398  3.97  0.  0.  0.
399  3.98  0.  0.  0.
400  3.99  0.  0.  0.
401  4.00  0.  0.  0.
402  4.01  0.  0.  0.
403  4.02  0.  0.  0.
404  4.03  0.  0.  0.
405  4.04  0.  0.  0.
406  4.05  0.  0.  0.
407  4.06  0.  0.  0.
408  4.07  0.  0.  0.
409  4.08  0.  0.  0.
410  4.09  0.  0.  0.
411  4.10  0.  0.  0.
412  4.11  0.  0.  0.
413  4.12  0.  0.  0.
414  4.13  0.  0.  0.
415  4.14  0.  0.  0.
416  4.15  0.  0.  0.
417  4.16  0.  0.  0.
418  4.17  0.  0.  0.
419  4.18  0.  0.  0.
420  4.19  0.  0.  0.
421  4.20  0.  0.  0.
422  4.21  0.  0.  0.
423  4.22  0.  0.  0.
424  4.23  0.  0.  0.
425  4.24  0.  0.  0.
426  4.25  0.  0.  0.
427  4.26  0.  0.  0.
428  4.27  0.  0.  0.
429  4.28  0.  0.  0.
430  4.29  0.  0.  0.
431  4.30  0.  0.  0.
432  4.31  0.  0.  0.
433  4.32  0.  0.  0.
434  4.33  0.  0.  0.
435  4.34  0.  0.  0.
436  4.35  0.  0.  0.
437  4.36  0.  0.  0.
438  4.37  0.  0.  0.
439  4.38  0.  0.  0.
440  4.39  0.  0.  0.
441  4.40  0.  0.  0.
442  4.41  0.  0.  0.
443  4.42  0.  0.  0.
444  4.43  0.  0.  0.
445  4.44  0.  0.  0.
446  4.45  0.  0.  0.
447  4.46  0.  0.  0.
448  4.47  0.  0.  0.
449  4.48  0.  0.  0.
450  4.49  0.  0.  0.
451  4.50  0.  0.  0.
452  4.51  0.  0.  0.
453  4.52  0.  0.  0.
454  4.53  0.  0.  0.
455  4.54  0.  0.  0.
456  4.55  0.  0.  0.
457  4.56  0.  0.  0.
458  4.57  0.  0.  0.
459  4.58  0.  0.  0.
460  4.59  0.  0.  0.
461  4.60  0.  0.  0.
462  4.61  0.  0.  0.
463  4.62  0.  0.  0.
464  4.63  0.  0.  0.
465  4.64  0.  0.  0.
466  4.65  0.  0.  0.
467  4.66  0.  0.  0.
468  4.67  0.  0.  0.
469  4.68  0.  0.  0.
470  4.69  0.  0.  0.
471  4.70  0.  0.  0.
472  4.71  0.  0.  0.
473  4.72  0.  0.  0.
474  4.73  0.  0.  0.
475  4.74  0.  0.  0.
476  4.75  0.  0.  0.
477  4.76  0.  0.  0.
478  4.77  0.  0.  0.
479  4.78  0.  0.  0.
480  4.79  0.  0.  0.
481  4.80  0.  0.  0.
482  4.81  0.  0.  0.
483  4.82  0.  0.  0.
484  4.83  0.  0.  0.
485  4.84  0.  0.  0.
486  4.85  0.  0.  0.
487  4.86  0.  0.  0.
488  4.87  0.  0.  0.
489  4.88  0.  0.  0.
490  4.89  0.  0.  0.
491  4.90  0.  0.  0.
492  4.91  0.  0.  0.
493  4.92  0.  0.  0.
494  4.93  0.  0.  0.
495  4.94  0.  0.  0.
496  4.95  0.  0.  0.
497  4.96  0.  0.  0.
498  4.97  0.  0.  0.
499  4.98  0.  0.  0.
500  4.99  0.  0.  0.
501  5.00  0.  0.  0.
502  5.01  0.  0.  0.
503  5.02  0.  0.  0.
504  5.03  0.  0.  0.
505  5.04  0.  0.  0.
506  5.05  0.  0.  0.
507  5.06  0.  0.  0.
508  5.07  0.  0.  0.
509  5.08  0.  0.  0.
510  5.09  0.  0.  0.
511  5.10  0.  0.  0.
512  5.11  0.  0.  0.
513  5.12  0.  0.  0.
514  5.13  0.  0.  0.
515  5.14  0.  0.  0.
516  5.15  0.  0.  0.
517  5.16  0.  0.  0.
518  5.17  0.  0.  0.
519  5.18  0.  0.  0.
520  5.19  0.  0.  0.
521  5.20  0.  0.  0.
522  5.21  0.  0.  0.
523  5.22  0.  0.  0.
524  5.23  0.  0.  0.
525  5.24  0.  0.  0.
526  5.25  0.  0.  0.
527  5.26  0.  0.  0.
528  5.27  0.  0.  0.
529  5.28  0.  0.  0.
530  5.29  0.  0.  0.
531  5.30  0.  0.  0.
532  5.31  0.  0.  0.
533  5.32  0.  0.  0.
534  5.33  0.  0.  0.
535  5.34  0.  0.  0.
536  5.35  0.  0.  0.
537  5.36  0.  0.  0.
538  5.37  0.  0.  0.
539  5.38  0.  0.  0.
540  5.39  0.  0.  0.
541  5.40  0.  0.  0.
542  5.41  0.  0.  0.
543  5.42  0.  0.  0.
544  5.43  0.  0.  0.
545  5.44  0.  0.  0.
546  5.45  0.  0.  0.
547  5.46  0.  0.  0.
548  5.47  0.  0.  0.
549  5.48  0.  0.  0.
550  5.49  0.  0.  0.
551  5.50  0.  0.  0.
552  5.51  0.  0.  0.
553  5.52  0.  0.  0.
554  5.53  0.  0.  0.
555  5.54  0.  0.  0.
556  5.55  0.  0.  0.
557  5.56  0.  0.  0.
558  5.57  0.  0.  0.
559  5.58  0.  0.  0.
560  5.59  0.  0.  0.
561  5.60  0.  0.  0.
562  5.61  0.  0.  0.
563  5.62  0.  0.  0.
564  5.63  0.  0.  0.
565  5.64  0.  0.  0.
566  5.65  0.  0.  0.
567  5.66  0.  0.  0.
568  5.67  0.  0.  0.
569  5.68  0.  0.  0.
570  5.69  0.  0.  0.
571  5.70  0.  0.  0.
572  5.71  0.  0.  0.
573  5.72  0.  0.  0.
574  5.73  0.  0.  0.
575  5.74  0.  0.  0.
576  5.75  0.  0.  0.
577  5.76  0.  0.  0.
578  5.77  0.  0.  0.
579  5.78  0.  0.  0.
580  5.79  0.  0.  0.
581  5.80  0.  0.  0.
582  5.81  0.  0.  0.
583  5.82  0.  0.  0.
584  5.83  0.  0.  0.
585  5.84  0.  0.  0.
586  5.85  0.  0.  0.
587  5.86  0.  0.  0.
588  5.87  0.  0.  0.
589  5.88  0.  0.  0.
590  5.89  0.  0.  0.
591  5.90  0.  0.  0.
592  5.91  0.  0.  0.
593  5.92  0.  0.  0.
594  5.93  0.  0.  0.
595  5.94  0.  0.  0.
596  5.95  0.  0.  0.
597  5.96  0.  0.  0.
598  5.97  0.  0.  0.
599  5.98  0.  0.  0.
600  5.99  0.  0.  0.
1                         9.4075220282091E+00 -3.3349343636312E-01
1  0.0000000000000E+00 -2.9845323712419E-09 -5.4216067607582E-08
2  1.0000000000000E-02  3.6709915749461E-03  1.2232335949407E-03
3  2.0000000000000E-02  1.4657702645346E-02  4.8991223676273E-03
4  3.0000000000000E-02  3.2881450498849E-02  1.1045373514974E-02
5  4.0000000000000E-02  5.8211460639126E-02  1.9688680795665E-02
6  5.0000000000000E-02  9.0465420511466E-02  3.0860627586133E-02
7  6.0000000000000E-02  1.2941027161739E-01  4.4592207072182E-02
8  7.0000000000000E-02  1.7476325581540E-01  6.0907204211509E-02
9  8.0000000000000E-02  2.2619323458969E-01  7.9814738318499E-02
10  9.0000000000000E-02  2.8332230198278E-01  1.0130130832190E-01
11  1.0000000000000E-01  3.4572771257731E-01  1.2532271327437E-01
12  1.1000000000000E-01  4.1294414526389E-01  1.5179623733024E-01
13  1.2000000000000E-01  4.8446632148682E-01  1.8059349041805E-01
14  1.3000000000000E-01  5.5975199320630E-01  2.1153428298048E-01
15  1.4000000000000E-01  6.3822531100061E-01  2.4438188572564E-01
16  1.5000000000000E-01  7.1928057664962E-01  2.7883998412289E-01
17  1.6000000000000E-01  8.0228637733956E-01  3.1455158367030E-01
18  1.7000000000000E-01  8.8659009050043E-01  3.5110005749061E-01
19  1.8000000000000E-01  9.7152273946384E-01  3.8801245470353E-01
20  1.9000000000000E-01  1.0564041708760E+00  4.2476510872442E-01
21  2.0000000000000E-01  1.1405485154069E+00  4.6079150184511E-01
22  2.1000000000000E-01  1.2232698840667E+00  4.9549225900992E-01
23  2.2000000000000E-01  1.3038882436851E+00  5.2824706251889E-01
24  2.3000000000000E-01  1.3817354071283E+00  5.5842820333611E-01
25  2.4000000000000E-01  1.4561610669147E+00  5.8541541649244E-01
26  2.5000000000000E-01  1.5265387953074E+00  6.0861159024780E-01
27  2.6000000000000E-01  1.5922719299288E+00  6.2745889340612E-01
28  2.7000000000000E-01  1.6527992616610E+00  6.4145483424520E-01
29  2.8000000000000E-01  1.7076004411859E+00  6.5016774925991E-01
30  2.9000000000000E-01  1.7562010220732E+00  6.5325122113845E-01
31  3.0000000000000E-01  1.7981770618592E+00  6.5045694336292E-01
32  3.1000000000000E-01  1.8331592080415E+00  6.4164558325424E-01
33  3.2000000000000E-01  1.8608362032390E+00  6.2679524530974E-01
34  3.3000000000000E-01  1.8809577527930E+00  6.0600720091363E-01
35  3.4000000000000E-01  1.8933367085810E+00  5.7950862703869E-01
36  3.5000000000000E-01  1.8978505345498E+00  5.4765218306206E-01
37  3.6000000000000E-01  1.8944420321305E+00  5.1091234857764E-01
38  3.7000000000000E-01  1.8831193169549E+00  4.6987854310828E-01
39  3.8000000000000E-01  1.8639550518077E+00  4.2524514771778E-01
40  3.9000000000000E-01  1.8370849541454E+00  3.7779864543620E-01
41  4.0000000000000E-01  1.8027056094543E+00  3.2840218889925E-01
42  4.1000000000000E-01  1.7610716338364E+00  2.7797798656853E-01
43  4.2000000000000E-01  1.7124922402083E+00  2.2748797048520E-01
44  4.3000000000000E-01  1.6573272720612E+00  1.7791326620450E-01
45  4.4000000000000E-01  1.5959827766346E+00  1.3023302728518E-01
46  4.5000000000000E-01  1.5289061954000E+00  8.5403220899387E-02
47  4.6000000000000E-01  1.4565812538065E+00  4.4335956789446E-02
48  4.7000000000000E-01  1.3795226342277E+00  7.8799385462334E-03
49  4.8000000000000E-01  1.2982705159739E+00 -2.3197415731565E-02
50  4.9000000000000E-01  1.2133850641407E+00 -4.8225686026979E-02
51  5.0000000000000E-01  1.1254409450895E+00 -6.6644564847360E-02
52  5.1000000000000E-01  1.0350219406656E+00 -7.8014022307142E-02
53  5.2000000000000E-01  9.4271572609874E-01 -8.2021262473266E-02
54  5.3000000000000E-01  8.4910886816920E-01 -7.8484312076998E-02
55  5.4000000000000E-01  7.5478209097572E-01 -6.7352188519473E-02
56  5.5000000000000E-01  6.6030584684549E-01 -4.8701701721781E-02
57  5.6000000000000E-01  5.6623621992533E-01 -2.2731050178013E-02
58  5.7000000000000E-01  4.7311118013788E-01  1.0249528038925E-02
59  5.8000000000000E-01  3.8144719580754E-01  4.9829697029100E-02
60  5.9000000000000E-01  2.9173620466726E-01  9.5513125757135E-02
61  6.0000000000000E-01  2.0444293542184E-01  1.4673325511918E-01
62  6.1000000000000E-01  1.2000256578925E-01  2.0287018512906E-01
63  6.2000000000000E-01  3.8818698142342E-02  2.6326810902832E-01
64  6.3000000000000E-01 -3.8738369363652E-02  3.2725271198804E-01
65  6.4000000000000E-01 -1.1233309992091E-01  3.9414796309903E-01
66  6.5000000000000E-01 -1.8166592724198E-01  4.6329176019307E-01
67  6.6000000000000E-01 -2.4647423910688E-01  5.3404993664786E-01
68  6.7000000000000E-01 -3.0653315481310E-01  6.0582820597944E-01
69  6.8000000000000E-01 -3.6165611211557E-01  6.7808170136133E-01
70  6.9000000000000E-01 -4.1169527441890E-01  7.5032186035678E-01
71  7.0000000000000E-01 -4.5654176357109E-01  8.2212050675318E-01
72  7.1000000000000E-01 -4.9612571792927E-01  8.9311108781055E-01
73  7.2000000000000E-01 -5.3041616976128E-01  9.6298713258915E-01
74  7.3000000000000E-01 -5.5942073084768E-01  1.0314981014125E+00
75  7.4000000000000E-01 -5.8318507068444E-01  1.0984428940797E+00
76  7.5000000000000E-01 -6.0179216825250E-01  1.1636613715689E+00
77  7.6000000000000E-01 -6.1536131617627E-01  1.2270243193941E+00
78  7.7000000000000E-01 -6.2404685544626E-01  1.2884223377157E+00
79  7.8000000000000E-01 -6.2803661987766E-01  1.3477541815609E+00
80  7.9000000000000E-01 -6.2755007219494E-01  1.4049150925780E+00
81  8.0000000000000E-01 -6.2283611807708E-01  1.4597856608449E+00
82  8.1000000000000E-01 -6.1417059059616E-01  1.5122217313999E+00
83  8.2000000000000E-01 -6.0185340508627E-01  1.5620458261601E+00
84  8.3000000000000E-01 -5.8620539336795E-01  1.6090404893356E+00
85  8.4000000000000E-01 -5.6756483613742E-01  1.6529438856583E+00
86  8.5000000000000E-01 -5.4628372286185E-01  1.6934478887200E+00
87  8.6000000000000E-01 -5.2272377930514E-01  1.7301987950360E+00
88  8.7000000000000E-01 -4.9725231341141E-01  1.7628006921427E+00
89  8.8000000000000E-01 -4.7023794024042E-01  1.7908214004960E+00
90  8.9000000000000E-01 -4.4204625551943E-01  1.8138008037125E+00
91  9.0000000000000E-01 -4.1303553469535E-01  1.8312612844186E+00
92  9.1000000000000E-01 -3.8355253970828E-01  1.8427198981642E+00
93  9.2000000000000E-01 -3.5392851867154E-01  1.8477018497744E+00
94  9.3000000000000E-01 -3.2447548388943E-01  1.8457547890722E+00
95  9.4000000000000E-01 -2.9548285089518E-01  1.8364634194659E+00
96  9.5000000000000E-01 -2.6721451523876E-01  1.8194639162663E+00
97  9.6000000000000E-01 -2.3990643447420E-01  1.7944576838210E+00
98  9.7000000000000E-01 -2.1376477013862E-01  1.7612240430088E+00
99  9.8000000000000E-01 -1.8896462853418E-01  1.7196315337996E+00
100  9.9000000000000E-01 -1.6564941993705E-01  1.6696476412688E+00
101  1.0000000000000E+00 -1.4393083370263E-01  1.6113469064161E+00
102  1.0100000000000E+00 -1.2388940186469E-01  1.5449175638555E+00
103  1.0200000000000E+00 -1.0557559663748E-01  1.4706670541293E+00
104  1.0300000000000E+00 -8.9011378139379E-02  1.3890269859484E+00
105  1.0400000000000E+00 -7.4192078105490E-02  1.3005583696407E+00
106  1.0500000000000E+00 -6.1088473875471E-02  1.2059582032765E+00
107  1.0600000000000E+00 -4.9648875097119E-02  1.1060687625819E+00
108  1.0700000000000E+00 -3.9801013800229E-02  1.0018912212982E+00
109  1.0800000000000E+00 -3.1453497443357E-02  8.9460550423059E-01
110  1.0900000000000E+00 -2.4496554012551E-02  7.8559855769264E-01
111  1.1000000000000E+00 -1.8801776356218E-02  6.7650337558714E-01
112  1.1100000000000E+00 -1.4220524829976E-02  5.6925175658874E-01
113  1.1200000000000E+00 -1.0585662159485E-02  4.6605885968154E-01
114  1.1300000000000E+00 -7.7301928001756E-03  3.6912892132710E-01
115  1.1400000000000E+00 -5.5008454827548E-03  2.8047734606083E-01
116  1.1500000000000E+00 -3.7784485579701E-03  2.0179657268844E-01
117  1.1600000000000E+00 -2.4781735767347E-03  1.3444139755426E-01
118  1.1700000000000E+00 -1.4945404768401E-03  7.9800899959540E-02
119  1.1800000000000E+00 -7.6289023323063E-04  3.8914384336402E-02
120  1.1900000000000E+00 -2.6157502697777E-04  1.2421678090978E-02
121  1.2000000000000E+00 -1.9797844500036E-05  8.5362727213081E-04
122  1.2100000000000E+00  3.3051190129653E-07 -1.3547608190887E-05
123  1.2200000000000E+00  2.0214009248760E-07 -9.0876498124560E-06
124  1.23 -0. -0.
125  1.24  0.  0.
126  1.25  0.  0.
127  1.26  0.  0.
128  1.27  0.  0.
129  1.28  0.  0.
130  1.29  0.  0.
131  1.30  0.  0.
132  1.31  0.  0.
133  1.32  0.  0.
134  1.33  0.  0.
135  1.34  0.  0.
136  1.35  0.  0.
137  1.36  0.  0.
138  1.37  0.  0.
139  1.38  0.  0.
140  1.39  0.  0.
141  1.40  0.  0.
142  1.41  0.  0.
143  1.42  0.  0.
144  1.43  0.  0.
145  1.44  0.  0.
146  1.45  0.  0.
147  1.46  0.  0.
148  1.47  0.  0.
149  1.48  0.  0.
150  1.49  0.  0.
151  1.50  0.  0.