Mc    ONCVPSP-4.0.1  r_core=   1.40796   1.40796   1.40796   1.60600
115.0000     23.0000      231012    zatom,zion,pspd
8 -116133   3     4   600     0    pspcod,pspxc,lmax,lloc,mmax,r2well
5.99000000  5.00000000  0.00000000    rchrg fchrg qchrg
2     2     2     1     0    nproj
1     1           extension_switch
0                         1.5312538826459E+01 -2.4487973343126E-01
1  0.0000000000000E+00  3.2406632932691E-10  1.0818592188766E-08
2  1.0000000000000E-02  7.8089329216418E-02  1.7022265753002E-02
3  2.0000000000000E-02  1.5601018689824E-01  3.4233861392085E-02
4  3.0000000000000E-02  2.3359434274282E-01  5.1817807041175E-02
5  4.0000000000000E-02  3.1067405232782E-01  6.9944641243965E-02
6  5.0000000000000E-02  3.8708230850701E-01  8.8766522184855E-02
7  6.0000000000000E-02  4.6265310271625E-01  1.0841173140401E-01
8  7.0000000000000E-02  5.3722169910324E-01  1.2897970114690E-01
9  8.0000000000000E-02  6.1062492407094E-01  1.5053667567011E-01
10  9.0000000000000E-02  6.8270147343112E-01  1.7311210372398E-01
11  1.0000000000000E-01  7.5329223891074E-01  1.9669584431987E-01
12  1.1000000000000E-01  8.2224065524717E-01  2.2123625107329E-01
13  1.2000000000000E-01  8.8939306855954E-01  2.4663918224247E-01
14  1.3000000000000E-01  9.5459912610324E-01  2.7276796442637E-01
15  1.4000000000000E-01  1.0177121869144E+00  2.9944431814236E-01
16  1.5000000000000E-01  1.0785897522421E+00  3.2645023357709E-01
17  1.6000000000000E-01  1.1370939140616E+00  3.5353076510562E-01
18  1.7000000000000E-01  1.1930918193721E+00  3.8039769410868E-01
19  1.8000000000000E-01  1.2464561474210E+00  4.0673399158029E-01
20  1.9000000000000E-01  1.2970655964727E+00  4.3219899537768E-01
21  2.0000000000000E-01  1.3448053762646E+00  4.5643420206940E-01
22  2.1000000000000E-01  1.3895677018778E+00  4.7906956048939E-01
23  2.2000000000000E-01  1.4312522843977E+00  4.9973014357412E-01
24  2.3000000000000E-01  1.4697668134651E+00  5.1804306706073E-01
25  2.4000000000000E-01  1.5050274266205E+00  5.3364451832538E-01
26  2.5000000000000E-01  1.5369591602291E+00  5.4618675614952E-01
27  2.6000000000000E-01  1.5654963767477E+00  5.5534494257055E-01
28  2.7000000000000E-01  1.5905831631520E+00  5.6082367119490E-01
29  2.8000000000000E-01  1.6121736954884E+00  5.6236306235581E-01
30  2.9000000000000E-01  1.6302325647409E+00  5.5974430416341E-01
31  3.0000000000000E-01  1.6447350595143E+00  5.5279452963731E-01
32  3.1000000000000E-01  1.6556674014134E+00  5.4139093349925E-01
33  3.2000000000000E-01  1.6630269294505E+00  5.2546404755671E-01
34  3.3000000000000E-01  1.6668222303203E+00  5.0500011060420E-01
35  3.4000000000000E-01  1.6670732119413E+00  4.8004248705206E-01
36  3.5000000000000E-01  1.6638111182610E+00  4.5069210767849E-01
37  3.6000000000000E-01  1.6570784839524E+00  4.1710692558543E-01
38  3.7000000000000E-01  1.6469290282765E+00  3.7950040021123E-01
39  3.8000000000000E-01  1.6334274880389E+00  3.3813904169061E-01
40  3.9000000000000E-01  1.6166493902225E+00  2.9333906655192E-01
41  4.0000000000000E-01  1.5966807655098E+00  2.4546223330409E-01
42  4.1000000000000E-01  1.5736178045233E+00  1.9491094251947E-01
43  4.2000000000000E-01  1.5475664591820E+00  1.4212270022948E-01
44  4.3000000000000E-01  1.5186419921070E+00  8.7564055510327E-02
45  4.4000000000000E-01  1.4869684774826E+00  3.1724132797879E-02
46  4.5000000000000E-01  1.4526782571991E+00 -2.4892113473239E-02
47  4.6000000000000E-01  1.4159113564571E+00 -8.1770790008941E-02
48  4.7000000000000E-01  1.3768148632967E+00 -1.3839596821170E-01
49  4.8000000000000E-01  1.3355422767272E+00 -1.9425646819810E-01
50  4.9000000000000E-01  1.2922528282757E+00 -2.4885239556043E-01
51  5.0000000000000E-01  1.2471107818383E+00 -3.0170131012786E-01
52  5.1000000000000E-01  1.2002847167197E+00 -3.5234391553585E-01
53  5.2000000000000E-01  1.1519467986762E+00 -4.0034917032922E-01
54  5.3000000000000E-01  1.1022720436501E+00 -4.4531873534079E-01
55  5.4000000000000E-01  1.0514375786959E+00 -4.8689068788845E-01
56  5.5000000000000E-01  9.9962190436697E-01 -5.2474245056743E-01
57  5.6000000000000E-01  9.4700416255561E-01 -5.5859290069292E-01
58  5.7000000000000E-01  8.9376341347197E-01 -5.8820364536212E-01
59  5.8000000000000E-01  8.4007792511866E-01 -6.1337946622592E-01
60  5.9000000000000E-01  7.8612447827250E-01 -6.3396795695683E-01
61  6.0000000000000E-01  7.3207768963677E-01 -6.4985839464211E-01
62  6.1000000000000E-01  6.7810935548288E-01 -6.6097990350047E-01
63  6.2000000000000E-01  6.2438781776909E-01 -6.6729898502581E-01
64  6.3000000000000E-01  5.7107735441346E-01 -6.6881650253365E-01
65  6.4000000000000E-01  5.1833759511632E-01 -6.6556421980582E-01
66  6.5000000000000E-01  4.6632296387896E-01 -6.5760100281536E-01
67  6.6000000000000E-01  4.1518214915676E-01 -6.4500880014414E-01
68  6.7000000000000E-01  3.6505760241838E-01 -6.2788852151578E-01
69  6.8000000000000E-01  3.1608506576111E-01 -6.0635593475219E-01
70  6.9000000000000E-01  2.6839312915697E-01 -5.8053769939247E-01
71  7.0000000000000E-01  2.2210281787261E-01 -5.5056765021351E-01
72  7.1000000000000E-01  1.7732721061821E-01 -5.1658343606812E-01
73  7.2000000000000E-01  1.3417108903091E-01 -4.7872360896947E-01
74  7.3000000000000E-01  9.2730619182970E-02 -4.3712524543263E-01
75  7.4000000000000E-01  5.3093065917527E-02 -3.9192216701626E-01
76  7.5000000000000E-01  1.5336540947846E-02 -3.4324381013599E-01
77  7.6000000000000E-01 -2.0470214198483E-02 -2.9121477692402E-01
78  7.7000000000000E-01 -5.4268009159545E-02 -2.3595507961324E-01
79  7.8000000000000E-01 -8.6007348268793E-02 -1.7758107107942E-01
80  7.9000000000000E-01 -1.1564853513116E-01 -1.1620703424593E-01
81  8.0000000000000E-01 -1.4316173663794E-01 -5.1947383524244E-02
82  8.1000000000000E-01 -1.6852700474201E-01  1.5080587197401E-02
83  8.2000000000000E-01 -1.9173425428589E-01  8.4753492838042E-02
84  8.3000000000000E-01 -2.1278319519616E-01  1.5693828006358E-01
85  8.4000000000000E-01 -2.3168321743471E-01  2.3148839666014E-01
86  8.5000000000000E-01 -2.4845322723618E-01  3.0823982998434E-01
87  8.6000000000000E-01 -2.6312143336566E-01  3.8700714516473E-01
88  8.7000000000000E-01 -2.7572508240305E-01  4.6757965867835E-01
89  8.8000000000000E-01 -2.8631014240174E-01  5.4971788461682E-01
90  8.9000000000000E-01 -2.9493093467763E-01  6.3315038927845E-01
91  9.0000000000000E-01 -3.0164971395752E-01  7.1757118464572E-01
92  9.1000000000000E-01 -3.0653619764767E-01  8.0263778287412E-01
93  9.2000000000000E-01 -3.0966704556798E-01  8.8797002225248E-01
94  9.3000000000000E-01 -3.1112529212585E-01  9.7314976039066E-01
95  9.4000000000000E-01 -3.1099973356599E-01  1.0577215129266E+00
96  9.5000000000000E-01 -3.0938427361708E-01  1.1411940961445E+00
97  9.6000000000000E-01 -3.0637723155020E-01  1.2230433099746E+00
98  9.7000000000000E-01 -3.0208061735354E-01  1.3027156743426E+00
99  9.8000000000000E-01 -2.9659937939892E-01  1.3796332072530E+00
100  9.9000000000000E-01 -2.9004063061226E-01  1.4531992078679E+00
101  1.0000000000000E+00 -2.8251285974878E-01  1.5228049827033E+00
102  1.0100000000000E+00 -2.7412513489858E-01  1.5878374285063E+00
103  1.0200000000000E+00 -2.6498630679468E-01  1.6476873619470E+00
104  1.0300000000000E+00 -2.5520421985264E-01  1.7017584644947E+00
105  1.0400000000000E+00 -2.4488493912328E-01  1.7494766912851E+00
106  1.0500000000000E+00 -2.3413200148000E-01  1.7902999759174E+00
107  1.0600000000000E+00 -2.2304569937977E-01  1.8237280493450E+00
108  1.0700000000000E+00 -2.1172240542491E-01  1.8493121807621E+00
109  1.0800000000000E+00 -2.0025394570914E-01  1.8666646419137E+00
110  1.0900000000000E+00 -1.8872702955069E-01  1.8754676938147E+00
111  1.1000000000000E+00 -1.7722274270204E-01  1.8754818965943E+00
112  1.1100000000000E+00 -1.6581611047990E-01  1.8665535491623E+00
113  1.1200000000000E+00 -1.5457573648893E-01  1.8486210755685E+00
114  1.1300000000000E+00 -1.4356352172507E-01  1.8217201892048E+00
115  1.1400000000000E+00 -1.3283446785167E-01  1.7859876841595E+00
116  1.1500000000000E+00 -1.2243656735603E-01  1.7416637247797E+00
117  1.1600000000000E+00 -1.1241078213246E-01  1.6890925294646E+00
118  1.1700000000000E+00 -1.0279111081575E-01  1.6287213724655E+00
119  1.1800000000000E+00 -9.3604743929791E-02  1.5610978574188E+00
120  1.1900000000000E+00 -8.4872304631050E-02  1.4868654481126E+00
121  1.2000000000000E+00 -7.6608171552813E-02  1.4067572746092E+00
122  1.2100000000000E+00 -6.8820878993140E-02  1.3215882662176E+00
123  1.2200000000000E+00 -6.1513588484854E-02  1.2322456956107E+00
124  1.2300000000000E+00 -5.4684624637578E-02  1.1396782505742E+00
125  1.2400000000000E+00 -4.8328067086530E-02  1.0448837803792E+00
126  1.2500000000000E+00 -4.2434389436107E-02  9.4889589204249E-01
127  1.2600000000000E+00 -3.6991135259248E-02  8.5276959742681E-01
128  1.2700000000000E+00 -3.1983620535203E-02  7.5756623427483E-01
129  1.2800000000000E+00 -2.7395651381720E-02  6.6433790272890E-01
130  1.2900000000000E+00 -2.3210245578621E-02  5.7411167312231E-01
131  1.3000000000000E+00 -1.9410346198393E-02  4.8787383043211E-01
132  1.3100000000000E+00 -1.5979515656855E-02  4.0655442566530E-01
133  1.3200000000000E+00 -1.2902603589419E-02  3.3101227026180E-01
134  1.3300000000000E+00 -1.0166339708398E-02  2.6202159974719E-01
135  1.3400000000000E+00 -7.7604089314749E-03  2.0024512390840E-01
136  1.3500000000000E+00 -5.6824589626897E-03  1.4608412617335E-01
137  1.3600000000000E+00 -3.9267486152013E-03  1.0000690975796E-01
138  1.3700000000000E+00 -2.4886237998438E-03  6.2443508259901E-02
139  1.3800000000000E+00 -1.3689463912742E-03  3.3658566724001E-02
140  1.3900000000000E+00 -5.7402351326424E-04  1.3756860254293E-02
141  1.4000000000000E+00 -1.1537601115506E-04  2.6815320949136E-03
142  1.4100000000000E+00  5.6618580922137E-06 -1.2797225305517E-04
143  1.4200000000000E+00 -1.9214861144817E-06  4.3883182781668E-05
144  1.43  0. -0.
145  1.44 -0. -0.
146  1.45  0.  0.
147  1.46  0.  0.
148  1.47  0.  0.
149  1.48  0.  0.
150  1.49  0.  0.
151  1.50  0.  0.
152  1.51  0.  0.
153  1.52  0.  0.
154  1.53  0.  0.
155  1.54  0.  0.
156  1.55  0.  0.
157  1.56  0.  0.
158  1.57  0.  0.
159  1.58  0.  0.
160  1.59  0.  0.
161  1.60  0.  0.
162  1.61  0.  0.
163  1.62  0.  0.
164  1.63  0.  0.
165  1.64  0.  0.
166  1.65  0.  0.
167  1.66  0.  0.
168  1.67  0.  0.
169  1.68  0.  0.
170  1.69  0.  0.
171  1.70  0.  0.
172  1.71  0.  0.
173  1.72  0.  0.
174  1.73  0.  0.
175  1.74  0.  0.
176  1.75  0.  0.
177  1.76  0.  0.
178  1.77  0.  0.
179  1.78  0.  0.
180  1.79  0.  0.
181  1.80  0.  0.
182  1.81  0.  0.
183  1.82  0.  0.
184  1.83  0.  0.
185  1.84  0.  0.
186  1.85  0.  0.
187  1.86  0.  0.
188  1.87  0.  0.
189  1.88  0.  0.
190  1.89  0.  0.
191  1.90  0.  0.
192  1.91  0.  0.
193  1.92  0.  0.
194  1.93  0.  0.
195  1.94  0.  0.
196  1.95  0.  0.
197  1.96  0.  0.
198  1.97  0.  0.
199  1.98  0.  0.
200  1.99  0.  0.
201  2.00  0.  0.
202  2.01  0.  0.
203  2.02  0.  0.
204  2.03  0.  0.
205  2.04  0.  0.
206  2.05  0.  0.
207  2.06  0.  0.
208  2.07  0.  0.
209  2.08  0.  0.
210  2.09  0.  0.
211  2.10  0.  0.
212  2.11  0.  0.
213  2.12  0.  0.
214  2.13  0.  0.
215  2.14  0.  0.
216  2.15  0.  0.
217  2.16  0.  0.
218  2.17  0.  0.
219  2.18  0.  0.
220  2.19  0.  0.
221  2.20  0.  0.
222  2.21  0.  0.
223  2.22  0.  0.
224  2.23  0.  0.
225  2.24  0.  0.
226  2.25  0.  0.
227  2.26  0.  0.
228  2.27  0.  0.
229  2.28  0.  0.
230  2.29  0.  0.
231  2.30  0.  0.
232  2.31  0.  0.
233  2.32  0.  0.
234  2.33  0.  0.
235  2.34  0.  0.
236  2.35  0.  0.
237  2.36  0.  0.
238  2.37  0.  0.
239  2.38  0.  0.
240  2.39  0.  0.
241  2.40  0.  0.
242  2.41  0.  0.
243  2.42  0.  0.
244  2.43  0.  0.
245  2.44  0.  0.
246  2.45  0.  0.
247  2.46  0.  0.
248  2.47  0.  0.
249  2.48  0.  0.
250  2.49  0.  0.
251  2.50  0.  0.
252  2.51  0.  0.
253  2.52  0.  0.
254  2.53  0.  0.
255  2.54  0.  0.
256  2.55  0.  0.
257  2.56  0.  0.
258  2.57  0.  0.
259  2.58  0.  0.
260  2.59  0.  0.
261  2.60  0.  0.
262  2.61  0.  0.
263  2.62  0.  0.
264  2.63  0.  0.
265  2.64  0.  0.
266  2.65  0.  0.
267  2.66  0.  0.
268  2.67  0.  0.
269  2.68  0.  0.
270  2.69  0.  0.
271  2.70  0.  0.
272  2.71  0.  0.
273  2.72  0.  0.
274  2.73  0.  0.
275  2.74  0.  0.
276  2.75  0.  0.
277  2.76  0.  0.
278  2.77  0.  0.
279  2.78  0.  0.
280  2.79  0.  0.
281  2.80  0.  0.
282  2.81  0.  0.
283  2.82  0.  0.
284  2.83  0.  0.
285  2.84  0.  0.
286  2.85  0.  0.
287  2.86  0.  0.
288  2.87  0.  0.
289  2.88  0.  0.
290  2.89  0.  0.
291  2.90  0.  0.
292  2.91  0.  0.
293  2.92  0.  0.
294  2.93  0.  0.
295  2.94  0.  0.
296  2.95  0.  0.
297  2.96  0.  0.
298  2.97  0.  0.
299  2.98  0.  0.
300  2.99  0.  0.
301  3.00  0.  0.
302  3.01  0.  0.
303  3.02  0.  0.
304  3.03  0.  0.
305  3.04  0.  0.
306  3.05  0.  0.
307  3.06  0.  0.
308  3.07  0.  0.
309  3.08  0.  0.
310  3.09  0.  0.
311  3.10  0.  0.
312  3.11  0.  0.
313  3.12  0.  0.
314  3.13  0.  0.
315  3.14  0.  0.
316  3.15  0.  0.
317  3.16  0.  0.
318  3.17  0.  0.
319  3.18  0.  0.
320  3.19  0.  0.
321  3.20  0.  0.
322  3.21  0.  0.
323  3.22  0.  0.
324  3.23  0.  0.
325  3.24  0.  0.
326  3.25  0.  0.
327  3.26  0.  0.
328  3.27  0.  0.
329  3.28  0.  0.
330  3.29  0.  0.
331  3.30  0.  0.
332  3.31  0.  0.
333  3.32  0.  0.
334  3.33  0.  0.
335  3.34  0.  0.
336  3.35  0.  0.
337  3.36  0.  0.
338  3.37  0.  0.
339  3.38  0.  0.
340  3.39  0.  0.
341  3.40  0.  0.
342  3.41  0.  0.
343  3.42  0.  0.
344  3.43  0.  0.
345  3.44  0.  0.
346  3.45  0.  0.
347  3.46  0.  0.
348  3.47  0.  0.
349  3.48  0.  0.
350  3.49  0.  0.
351  3.50  0.  0.
352  3.51  0.  0.
353  3.52  0.  0.
354  3.53  0.  0.
355  3.54  0.  0.
356  3.55  0.  0.
357  3.56  0.  0.
358  3.57  0.  0.
359  3.58  0.  0.
360  3.59  0.  0.
361  3.60  0.  0.
362  3.61  0.  0.
363  3.62  0.  0.
364  3.63  0.  0.
365  3.64  0.  0.
366  3.65  0.  0.
367  3.66  0.  0.
368  3.67  0.  0.
369  3.68  0.  0.
370  3.69  0.  0.
371  3.70  0.  0.
372  3.71  0.  0.
373  3.72  0.  0.
374  3.73  0.  0.
375  3.74  0.  0.
376  3.75  0.  0.
377  3.76  0.  0.
378  3.77  0.  0.
379  3.78  0.  0.
380  3.79  0.  0.
381  3.80  0.  0.
382  3.81  0.  0.
383  3.82  0.  0.
384  3.83  0.  0.
385  3.84  0.  0.
386  3.85  0.  0.
387  3.86  0.  0.
388  3.87  0.  0.
389  3.88  0.  0.
390  3.89  0.  0.
391  3.90  0.  0.
392  3.91  0.  0.
393  3.92  0.  0.
394  3.93  0.  0.
395  3.94  0.  0.
396  3.95  0.  0.
397  3.96  0.  0.
398  3.97  0.  0.
399  3.98  0.  0.
400  3.99  0.  0.
401  4.00  0.  0.
402  4.01  0.  0.
403  4.02  0.  0.
404  4.03  0.  0.
405  4.04  0.  0.
406  4.05  0.  0.
407  4.06  0.  0.
408  4.07  0.  0.
409  4.08  0.  0.
410  4.09  0.  0.
411  4.10  0.  0.
412  4.11  0.  0.
413  4.12  0.  0.
414  4.13  0.  0.
415  4.14  0.  0.
416  4.15  0.  0.
417  4.16  0.  0.
418  4.17  0.  0.
419  4.18  0.  0.
420  4.19  0.  0.
421  4.20  0.  0.
422  4.21  0.  0.
423  4.22  0.  0.
424  4.23  0.  0.
425  4.24  0.  0.
426  4.25  0.  0.
427  4.26  0.  0.
428  4.27  0.  0.
429  4.28  0.  0.
430  4.29  0.  0.
431  4.30  0.  0.
432  4.31  0.  0.
433  4.32  0.  0.
434  4.33  0.  0.
435  4.34  0.  0.
436  4.35  0.  0.
437  4.36  0.  0.
438  4.37  0.  0.
439  4.38  0.  0.
440  4.39  0.  0.
441  4.40  0.  0.
442  4.41  0.  0.
443  4.42  0.  0.
444  4.43  0.  0.
445  4.44  0.  0.
446  4.45  0.  0.
447  4.46  0.  0.
448  4.47  0.  0.
449  4.48  0.  0.
450  4.49  0.  0.
451  4.50  0.  0.
452  4.51  0.  0.
453  4.52  0.  0.
454  4.53  0.  0.
455  4.54  0.  0.
456  4.55  0.  0.
457  4.56  0.  0.
458  4.57  0.  0.
459  4.58  0.  0.
460  4.59  0.  0.
461  4.60  0.  0.
462  4.61  0.  0.
463  4.62  0.  0.
464  4.63  0.  0.
465  4.64  0.  0.
466  4.65  0.  0.
467  4.66  0.  0.
468  4.67  0.  0.
469  4.68  0.  0.
470  4.69  0.  0.
471  4.70  0.  0.
472  4.71  0.  0.
473  4.72  0.  0.
474  4.73  0.  0.
475  4.74  0.  0.
476  4.75  0.  0.
477  4.76  0.  0.
478  4.77  0.  0.
479  4.78  0.  0.
480  4.79  0.  0.
481  4.80  0.  0.
482  4.81  0.  0.
483  4.82  0.  0.
484  4.83  0.  0.
485  4.84  0.  0.
486  4.85  0.  0.
487  4.86  0.  0.
488  4.87  0.  0.
489  4.88  0.  0.
490  4.89  0.  0.
491  4.90  0.  0.
492  4.91  0.  0.
493  4.92  0.  0.
494  4.93  0.  0.
495  4.94  0.  0.
496  4.95  0.  0.
497  4.96  0.  0.
498  4.97  0.  0.
499  4.98  0.  0.
500  4.99  0.  0.
501  5.00  0.  0.
502  5.01  0.  0.
503  5.02  0.  0.
504  5.03  0.  0.
505  5.04  0.  0.
506  5.05  0.  0.
507  5.06  0.  0.
508  5.07  0.  0.
509  5.08  0.  0.
510  5.09  0.  0.
511  5.10  0.  0.
512  5.11  0.  0.
513  5.12  0.  0.
514  5.13  0.  0.
515  5.14  0.  0.
516  5.15  0.  0.
517  5.16  0.  0.
518  5.17  0.  0.
519  5.18  0.  0.
520  5.19  0.  0.
521  5.20  0.  0.
522  5.21  0.  0.
523  5.22  0.  0.
524  5.23  0.  0.
525  5.24  0.  0.
526  5.25  0.  0.
527  5.26  0.  0.
528  5.27  0.  0.
529  5.28  0.  0.
530  5.29  0.  0.
531  5.30  0.  0.
532  5.31  0.  0.
533  5.32  0.  0.
534  5.33  0.  0.
535  5.34  0.  0.
536  5.35  0.  0.
537  5.36  0.  0.
538  5.37  0.  0.
539  5.38  0.  0.
540  5.39  0.  0.
541  5.40  0.  0.
542  5.41  0.  0.
543  5.42  0.  0.
544  5.43  0.  0.
545  5.44  0.  0.
546  5.45  0.  0.
547  5.46  0.  0.
548  5.47  0.  0.
549  5.48  0.  0.
550  5.49  0.  0.
551  5.50  0.  0.
552  5.51  0.  0.
553  5.52  0.  0.
554  5.53  0.  0.
555  5.54  0.  0.
556  5.55  0.  0.
557  5.56  0.  0.
558  5.57  0.  0.
559  5.58  0.  0.
560  5.59  0.  0.
561  5.60  0.  0.
562  5.61  0.  0.
563  5.62  0.  0.
564  5.63  0.  0.
565  5.64  0.  0.
566  5.65  0.  0.
567  5.66  0.  0.
568  5.67  0.  0.
569  5.68  0.  0.
570  5.69  0.  0.
571  5.70  0.  0.
572  5.71  0.  0.
573  5.72  0.  0.
574  5.73  0.  0.
575  5.74  0.  0.
576  5.75  0.  0.
577  5.76  0.  0.
578  5.77  0.  0.
579  5.78  0.  0.
580  5.79  0.  0.
581  5.80  0.  0.
582  5.81  0.  0.
583  5.82  0.  0.
584  5.83  0.  0.
585  5.84  0.  0.
586  5.85  0.  0.
587  5.86  0.  0.
588  5.87  0.  0.
589  5.88  0.  0.
590  5.89  0.  0.
591  5.90  0.  0.
592  5.91  0.  0.
593  5.92  0.  0.
594  5.93  0.  0.
595  5.94  0.  0.
596  5.95  0.  0.
597  5.96  0.  0.
598  5.97  0.  0.
599  5.98  0.  0.
600  5.99  0.  0.
1                         1.3176014368512E+01  1.0295671709802E+00
1  0.0000000000000E+00 -2.5993067837016E-09  1.1830277722724E-08
2  1.0000000000000E-02  1.6816380289504E-03 -8.0032261325296E-04
3  2.0000000000000E-02  6.7217512585649E-03 -3.2035532841782E-03
4  3.0000000000000E-02  1.5105898456879E-02 -7.2162359462531E-03
5  4.0000000000000E-02  2.6809883675736E-02 -1.2848469394878E-02
6  5.0000000000000E-02  4.1799571101949E-02 -2.0112721487648E-02
7  6.0000000000000E-02  6.0030637079359E-02 -2.9022220003696E-02
8  7.0000000000000E-02  8.1448270170618E-02 -3.9588969517742E-02
9  8.0000000000000E-02  1.0598683272684E-01 -5.1821455474710E-02
10  9.0000000000000E-02  1.3356949967016E-01 -6.5722106855314E-02
11  1.0000000000000E-01  1.6410789200775E-01 -8.1284597129411E-02
12  1.1000000000000E-01  1.9750172393472E-01 -9.8491069373512E-02
13  1.2000000000000E-01  2.3363848320894E-01 -1.1730937531072E-01
14  1.3000000000000E-01  2.7239316476684E-01 -1.3769041950057E-01
15  1.4000000000000E-01  3.1362807728404E-01 -1.5956569891168E-01
16  1.5000000000000E-01  3.5719274156876E-01 -1.8284512466210E-01
17  1.6000000000000E-01  4.0292389832633E-01 -2.0741520688575E-01
18  1.7000000000000E-01  4.5064564097772E-01 -2.3313767561347E-01
19  1.8000000000000E-01  5.0016968689728E-01 -2.5984860043910E-01
20  1.9000000000000E-01  5.5129579770754E-01 -2.8735805982138E-01
21  2.0000000000000E-01  6.0381235619871E-01 -3.1545039744770E-01
22  2.1000000000000E-01  6.5749710409888E-01 -3.4388508849125E-01
23  2.2000000000000E-01  7.1211804139159E-01 -3.7239822319739E-01
24  2.3000000000000E-01  7.6743448424438E-01 -4.0070459942804E-01
25  2.4000000000000E-01  8.2319827496666E-01 -4.2850039998046E-01
26  2.5000000000000E-01  8.7915513384688E-01 -4.5546641508466E-01
27  2.6000000000000E-01  9.3504613931723E-01 -4.8127175587234E-01
28  2.7000000000000E-01  9.9060931974452E-01 -5.0557799118329E-01
29  2.8000000000000E-01  1.0455813373279E+00 -5.2804362818587E-01
30  2.9000000000000E-01  1.0996992421706E+00 -5.4832884725833E-01
31  3.0000000000000E-01  1.1527022726445E+00 -5.6610039367817E-01
32  3.1000000000000E-01  1.2043336767376E+00 -5.8103652312355E-01
33  3.2000000000000E-01  1.2543425282006E+00 -5.9283189496365E-01
34  3.3000000000000E-01  1.3024855110159E+00 -6.0120230690977E-01
35  3.4000000000000E-01  1.3485286460147E+00 -6.0588916684734E-01
36  3.5000000000000E-01  1.3922489343544E+00 -6.0666360254205E-01
37  3.6000000000000E-01  1.4334358940300E+00 -6.0333011731108E-01
38  3.7000000000000E-01  1.4718929675858E+00 -5.9572970950855E-01
39  3.8000000000000E-01  1.5074387816836E+00 -5.8374238556938E-01
40  3.9000000000000E-01  1.5399082421019E+00 -5.6728901010220E-01
41  4.0000000000000E-01  1.5691534510193E+00 -5.4633245179282E-01
42  4.1000000000000E-01  1.5950444370028E+00 -5.2087800029609E-01
43  4.2000000000000E-01  1.6174696918797E+00 -4.9097304645376E-01
44  4.3000000000000E-01  1.6363365125364E+00 -4.5670603564655E-01
45  4.4000000000000E-01  1.6515711495627E+00 -4.1820472142959E-01
46  4.5000000000000E-01  1.6631187684444E+00 -3.7563376336925E-01
47  4.6000000000000E-01  1.6709432326166E+00 -3.2919172876224E-01
48  4.7000000000000E-01  1.6750267210242E+00 -2.7910757226392E-01
49  4.8000000000000E-01  1.6753691958210E+00 -2.2563668000221E-01
50  4.9000000000000E-01  1.6719877383927E+00 -1.6905657516855E-01
51  5.0000000000000E-01  1.6649157739533E+00 -1.0966239007050E-01
52  5.1000000000000E-01  1.6542022064825E+00 -4.7762214975479E-02
53  5.2000000000000E-01  1.6399104867135E+00  1.6327563392656E-02
54  5.3000000000000E-01  1.6221176362116E+00  8.2286821214159E-02
55  5.4000000000000E-01  1.6009132503086E+00  1.4979604559502E-01
56  5.5000000000000E-01  1.5763985017791E+00  2.1854036821501E-01
57  5.6000000000000E-01  1.5486851656836E+00  2.8821319046441E-01
58  5.7000000000000E-01  1.5178946838089E+00  3.5851931736167E-01
59  5.8000000000000E-01  1.4841572846537E+00  4.2917753123767E-01
60  5.9000000000000E-01  1.4476111720106E+00  4.9992255179481E-01
61  6.0000000000000E-01  1.4084017919568E+00  5.7050634631643E-01
62  6.1000000000000E-01  1.3666811845876E+00  6.4069877207945E-01
63  6.2000000000000E-01  1.3226074231835E+00  7.1028755194779E-01
64  6.3000000000000E-01  1.2763441398209E+00  7.7907760320178E-01
65  6.4000000000000E-01  1.2280601327984E+00  8.4688975839264E-01
66  6.5000000000000E-01  1.1779290477767E+00  9.1355893489937E-01
67  6.6000000000000E-01  1.1261291213107E+00  9.7893182642258E-01
68  6.7000000000000E-01  1.0728429725863E+00  1.0428642044203E+00
69  6.8000000000000E-01  1.0182574267527E+00  1.1052179300514E+00
70  6.9000000000000E-01  9.6256335132872E-01  1.1658577871791E+00
71  7.0000000000000E-01  9.0595548583940E-01  1.2246482540839E+00
72  7.1000000000000E-01  8.4863224413925E-01  1.2814503355164E+00
73  7.2000000000000E-01  7.9079546884621E-01  1.3361185774055E+00
74  7.3000000000000E-01  7.3265011795485E-01  1.3884983838643E+00
75  7.4000000000000E-01  6.7440386501924E-01  1.4384237500956E+00
76  7.5000000000000E-01  6.1626659627313E-01  1.4857155154957E+00
77  7.6000000000000E-01  5.5844979065027E-01  1.5301802288516E+00
78  7.7000000000000E-01  5.0116577182356E-01  1.5716097023022E+00
79  7.8000000000000E-01  4.4462682502696E-01  1.6097813130116E+00
80  7.9000000000000E-01  3.8904417547101E-01  1.6444590916998E+00
81  8.0000000000000E-01  3.3462682951162E-01  1.6753956157616E+00
82  8.1000000000000E-01  2.8158028427263E-01  1.7023347021979E+00
83  8.2000000000000E-01  2.3010511603673E-01  1.7250148725492E+00
84  8.3000000000000E-01  1.8039546228449E-01  1.7431735390368E+00
85  8.4000000000000E-01  1.3263741665116E-01  1.7565518387851E+00
86  8.5000000000000E-01  8.7007360164211E-02  1.7649000219054E+00
87  8.6000000000000E-01  4.3670255799212E-02  1.7679832799423E+00
88  8.7000000000000E-01  2.7779365387768E-03  1.7655878842554E+00
89  8.8000000000000E-01 -3.5532580363648E-02  1.7575274898215E+00
90  8.9000000000000E-01 -7.1140718413568E-02  1.7436494491306E+00
91  9.0000000000000E-01 -1.0394387068591E-01  1.7238409736601E+00
92  9.1000000000000E-01 -1.3385879673429E-01  1.6980349771308E+00
93  9.2000000000000E-01 -1.6082285262427E-01  1.6662154355461E+00
94  9.3000000000000E-01 -1.8479502071176E-01  1.6284221039882E+00
95  9.4000000000000E-01 -2.0575670826204E-01  1.5847544392629E+00
96  9.5000000000000E-01 -2.2371228732861E-01  1.5353745906385E+00
97  9.6000000000000E-01 -2.3868935242835E-01  1.4805093378855E+00
98  9.7000000000000E-01 -2.5073867738783E-01  1.4204508762676E+00
99  9.8000000000000E-01 -2.5993385820135E-01  1.3555563716674E+00
100  9.9000000000000E-01 -2.6637063471935E-01  1.2862462351138E+00
101  1.0000000000000E+00 -2.7016589035679E-01  1.2130010941008E+00
102  1.0100000000000E+00 -2.7145633562745E-01  1.1363574675622E+00
103  1.0200000000000E+00 -2.7039688802569E-01  1.0569021815429E+00
104  1.0300000000000E+00 -2.6715876744028E-01  9.7526559278144E-01
105  1.0400000000000E+00 -2.6192733273587E-01  8.9211371686047E-01
106  1.0500000000000E+00 -2.5489969121406E-01  8.0813938555140E-01
107  1.0600000000000E+00 -2.4628211823170E-01  7.2405258383042E-01
108  1.0700000000000E+00 -2.3628732915323E-01  6.4057014006541E-01
109  1.0800000000000E+00 -2.2513164992005E-01  5.5840496246652E-01
110  1.0900000000000E+00 -2.1303213572997E-01  4.7825503057576E-01
111  1.1000000000000E+00 -2.0020368951985E-01  4.0079236179572E-01
112  1.1100000000000E+00 -1.8685623307978E-01  3.2665217946628E-01
113  1.1200000000000E+00 -1.7319198363420E-01  2.5642251046556E-01
114  1.1300000000000E+00 -1.5940288758651E-01  1.9063443664814E-01
115  1.1400000000000E+00 -1.4566826083607E-01  1.2975321559205E-01
116  1.1500000000000E+00 -1.3215268167034E-01  7.4170472229330E-02
117  1.1600000000000E+00 -1.1900417776297E-01  2.4197644194492E-02
118  1.1700000000000E+00 -1.0635274334530E-01 -1.9939159536123E-02
119  1.1800000000000E+00 -9.4309216286326E-02 -5.8102754395498E-02
120  1.1900000000000E+00 -8.2964537693748E-02 -9.0246828944356E-02
121  1.2000000000000E+00 -7.2389408966046E-02 -1.1641617865935E-01
122  1.2100000000000E+00 -6.2634353013517E-02 -1.3674519290270E-01
123  1.2200000000000E+00 -5.3730177957991E-02 -1.5145460020212E-01
124  1.2300000000000E+00 -4.5688833042163E-02 -1.6084651486702E-01
125  1.2400000000000E+00 -3.8504638022765E-02 -1.6529786543974E-01
126  1.2500000000000E+00 -3.2155859156829E-02 -1.6525232175955E-01
127  1.2600000000000E+00 -2.6606597125490E-02 -1.6121087201221E-01
128  1.2700000000000E+00 -2.1808945171485E-02 -1.5372123271250E-01
129  1.2800000000000E+00 -1.7705369420805E-02 -1.4336630281823E-01
130  1.2900000000000E+00 -1.4231257988151E-02 -1.3075189731808E-01
131  1.3000000000000E+00 -1.1317581192390E-02 -1.1649401493628E-01
132  1.3100000000000E+00 -8.8936020882339E-03 -1.0120590879078E-01
133  1.3200000000000E+00 -6.8895897390080E-03 -8.5485186929834E-02
134  1.3300000000000E+00 -5.2393696891843E-03 -6.9901557926143E-02
135  1.3400000000000E+00 -3.8844000710484E-03 -5.4979627202735E-02
136  1.3500000000000E+00 -2.7929217859056E-03 -4.1129648578611E-02
137  1.3600000000000E+00 -1.9225235099955E-03 -2.8771814048414E-02
138  1.3700000000000E+00 -1.2314581504949E-03 -1.8297535888967E-02
139  1.3800000000000E+00 -6.9415997605940E-04 -1.0014593809849E-02
140  1.3900000000000E+00 -3.0194906542539E-04 -4.1439558090176E-03
141  1.4000000000000E+00 -6.3596466624618E-05 -8.1542521977668E-04
142  1.4100000000000E+00  3.2360549889375E-06  3.9250341797264E-05
143  1.4200000000000E+00 -1.0839533463247E-06 -1.3424275992220E-05
144  1.43  0.  0.
145  1.44 -0. -0.
146  1.45  0.  0.
147  1.46  0.  0.
148  1.47  0.  0.
149  1.48  0.  0.
150  1.49  0.  0.
151  1.50  0.  0.
152  1.51  0.  0.
153  1.52  0.  0.
154  1.53  0.  0.
155  1.54  0.  0.
156  1.55  0.  0.
157  1.56  0.  0.
158  1.57  0.  0.
159  1.58  0.  0.
160  1.59  0.  0.
161  1.60  0.  0.
162  1.61  0.  0.
163  1.62  0.  0.
164  1.63  0.  0.
165  1.64  0.  0.
166  1.65  0.  0.
167  1.66  0.  0.
168  1.67  0.  0.
169  1.68  0.  0.
170  1.69  0.  0.
171  1.70  0.  0.
172  1.71  0.  0.
173  1.72  0.  0.
174  1.73  0.  0.
175  1.74  0.  0.
176  1.75  0.  0.
177  1.76  0.  0.
178  1.77  0.  0.
179  1.78  0.  0.
180  1.79  0.  0.
181  1.80  0.  0.
182  1.81  0.  0.
183  1.82  0.  0.
184  1.83  0.  0.
185  1.84  0.  0.
186  1.85  0.  0.
187  1.86  0.  0.
188  1.87  0.  0.
189  1.88  0.  0.
190  1.89  0.  0.
191  1.90  0.  0.
192  1.91  0.  0.
193  1.92  0.  0.
194  1.93  0.  0.
195  1.94  0.  0.
196  1.95  0.  0.
197  1.96  0.  0.
198  1.97  0.  0.
199  1.98  0.  0.
200  1.99  0.  0.
201  2.00  0.  0.
202  2.01  0.  0.
203  2.02  0.  0.
204  2.03  0.  0.
205  2.04  0.  0.
206  2.05  0.  0.
207  2.06  0.  0.
208  2.07  0.  0.
209  2.08  0.  0.
210  2.09  0.  0.
211  2.10  0.  0.
212  2.11  0.  0.
213  2.12  0.  0.
214  2.13  0.  0.
215  2.14  0.  0.
216  2.15  0.  0.
217  2.16  0.  0.
218  2.17  0.  0.
219  2.18  0.  0.
220  2.19  0.  0.
221  2.20  0.  0.
222  2.21  0.  0.
223  2.22  0.  0.
224  2.23  0.  0.
225  2.24  0.  0.
226  2.25  0.  0.
227  2.26  0.  0.
228  2.27  0.  0.
229  2.28  0.  0.
230  2.29  0.  0.
231  2.30  0.  0.
232  2.31  0.  0.
233  2.32  0.  0.
234  2.33  0.  0.
235  2.34  0.  0.
236  2.35  0.  0.
237  2.36  0.  0.
238  2.37  0.  0.
239  2.38  0.  0.
240  2.39  0.  0.
241  2.40  0.  0.
242  2.41  0.  0.
243  2.42  0.  0.
244  2.43  0.  0.
245  2.44  0.  0.
246  2.45  0.  0.
247  2.46  0.  0.
248  2.47  0.  0.
249  2.48  0.  0.
250  2.49  0.  0.
251  2.50  0.  0.
252  2.51  0.  0.
253  2.52  0.  0.
254  2.53  0.  0.
255  2.54  0.  0.
256  2.55  0.  0.
257  2.56  0.  0.
258  2.57  0.  0.
259  2.58  0.  0.
260  2.59  0.  0.
261  2.60  0.  0.
262  2.61  0.  0.
263  2.62  0.  0.
264  2.63  0.  0.
265  2.64  0.  0.
266  2.65  0.  0.
267  2.66  0.  0.
268  2.67  0.  0.
269  2.68  0.  0.
270  2.69  0.  0.
271  2.70  0.  0.
272  2.71  0.  0.
273  2.72  0.  0.
274  2.73  0.  0.
275  2.74  0.  0.