Mc    ONCVPSP-4.0.1  r_core=   1.40796   1.45071   1.40796   1.60600
115.0000     23.0000      231012    zatom,zion,pspd
8 -116133   3     4   600     0    pspcod,pspxc,lmax,lloc,mmax,r2well
5.99000000  5.00000000  0.00000000    rchrg fchrg qchrg
2     3     3     2    nproj
3     1           extension_switch
4     3     2    nprojso
0                         1.5472472838296E+01 -2.3818003527805E-01
1  0.0000000000000E+00  3.1886304707740E-10  1.1148501233293E-08
2  1.0000000000000E-02  7.7673184368861E-02  1.5645630383469E-02
3  2.0000000000000E-02  1.5518022509456E-01  3.1499361395152E-02
4  3.0000000000000E-02  2.3235521126623E-01  4.7762701805744E-02
5  4.0000000000000E-02  3.0903270083518E-01  6.4624119306319E-02
6  5.0000000000000E-02  3.8504796345619E-01  8.2252873621420E-02
7  6.0000000000000E-02  4.6023723318814E-01  1.0079326584568E-01
8  7.0000000000000E-02  5.3443797395709E-01  1.2035942932490E-01
9  8.0000000000000E-02  6.0748916036618E-01  1.4103077625390E-01
10  9.0000000000000E-02  6.7923157604975E-01  1.6284820066349E-01
11  1.0000000000000E-01  7.4950813132238E-01  1.8581112289305E-01
12  1.1000000000000E-01  8.1816420137460E-01  2.0987544331472E-01
13  1.2000000000000E-01  8.8504798572708E-01  2.3495245434456E-01
14  1.3000000000000E-01  9.5001088908319E-01  2.6090874002973E-01
15  1.4000000000000E-01  1.0129079231285E+00  2.8756707214617E-01
16  1.5000000000000E-01  1.0735981282254E+00  3.1470829119378E-01
17  1.6000000000000E-01  1.1319450133554E+00  3.4207414036060E-01
18  1.7000000000000E-01  1.1878170120777E+00  3.6937100086026E-01
19  1.8000000000000E-01  1.2410879517208E+00  3.9627445843350E-01
20  1.9000000000000E-01  1.2916375325028E+00  4.2243461362674E-01
21  2.0000000000000E-01  1.3393518128072E+00  4.4748203307410E-01
22  2.1000000000000E-01  1.3841236964290E+00  4.7103422572897E-01
23  2.2000000000000E-01  1.4258534172532E+00  4.9270251709106E-01
24  2.3000000000000E-01  1.4644490165569E+00  5.1209918618160E-01
25  2.4000000000000E-01  1.4998268079221E+00  5.2884472449973E-01
26  2.5000000000000E-01  1.5319118246320E+00  5.4257507356418E-01
27  2.6000000000000E-01  1.5606382443898E+00  5.5294869795709E-01
28  2.7000000000000E-01  1.5859497862496E+00  5.5965335403495E-01
29  2.8000000000000E-01  1.6078000747860E+00  5.6241242058547E-01
30  2.9000000000000E-01  1.6261529667478E+00  5.6099066656125E-01
31  3.0000000000000E-01  1.6409828357358E+00  5.5519934242466E-01
32  3.1000000000000E-01  1.6522748108161E+00  5.4490049535505E-01
33  3.2000000000000E-01  1.6600249654135E+00  5.3001042431193E-01
34  3.3000000000000E-01  1.6642404533278E+00  5.1050220838406E-01
35  3.4000000000000E-01  1.6649395892550E+00  4.8640726062082E-01
36  3.5000000000000E-01  1.6621518717824E+00  4.5781587924128E-01
37  3.6000000000000E-01  1.6559179474413E+00  4.2487678833760E-01
38  3.7000000000000E-01  1.6462895150279E+00  3.8779568050226E-01
39  3.8000000000000E-01  1.6333291700508E+00  3.4683279378929E-01
40  3.9000000000000E-01  1.6171101897941E+00  3.0229957464359E-01
41  4.0000000000000E-01  1.5977162601111E+00  2.5455449649637E-01
42  4.1000000000000E-01  1.5752411456621E+00  2.0399812024405E-01
43  4.2000000000000E-01  1.5497883058743E+00  1.5106749745665E-01
44  4.3000000000000E-01  1.5214704594217E+00  9.6230029590328E-02
45  4.4000000000000E-01  1.4904091004974E+00  3.9976906441968E-02
46  4.5000000000000E-01  1.4567339705608E+00 -1.7183745622468E-02
47  4.6000000000000E-01  1.4205824895954E+00 -7.4733870666391E-02
48  4.7000000000000E-01  1.3820991511951E+00 -1.3215250885576E-01
49  4.8000000000000E-01  1.3414348860145E+00 -1.8892270564676E-01
50  4.9000000000000E-01  1.2987463982590E+00 -2.4453817362701E-01
51  5.0000000000000E-01  1.2541954799701E+00 -2.9850958325849E-01
52  5.1000000000000E-01  1.2079483078629E+00 -3.5037036852740E-01
53  5.2000000000000E-01  1.1601747274192E+00 -3.9968194569276E-01
54  5.3000000000000E-01  1.1110475288184E+00 -4.4603825766767E-01
55  5.4000000000000E-01  1.0607417191171E+00 -4.8906957274468E-01
56  5.5000000000000E-01  1.0094337948697E+00 -5.2844548402604E-01
57  5.6000000000000E-01  9.5730101911781E-01 -5.6387707464313E-01
58  5.7000000000000E-01  9.0452070639204E-01 -5.9511823322898E-01
59  5.8000000000000E-01  8.5126951904755E-01 -6.2196612370032E-01
60  5.9000000000000E-01  7.9772277793236E-01 -6.4426083277087E-01
61  6.0000000000000E-01  7.4405379005102E-01 -6.6188423731348E-01
62  6.1000000000000E-01  6.9043319555778E-01 -6.7475815128459E-01
63  6.2000000000000E-01  6.3702833609638E-01 -6.8284182801945E-01
64  6.3000000000000E-01  5.8400264620578E-01 -6.8612890792212E-01
65  6.4000000000000E-01  5.3151506924101E-01 -6.8464391358203E-01
66  6.5000000000000E-01  4.7971949902026E-01 -6.7843840385918E-01
67  6.6000000000000E-01  4.2876424820888E-01 -6.6758690526764E-01
68  6.7000000000000E-01  3.7879154429144E-01 -6.5218274287852E-01
69  6.8000000000000E-01  3.2993705386612E-01 -6.3233389385651E-01
70  6.9000000000000E-01  2.8232943592321E-01 -6.0815898460226E-01
71  7.0000000000000E-01  2.3608992473882E-01 -5.7978354732823E-01
72  7.1000000000000E-01  1.9133194302607E-01 -5.4733664384885E-01
73  7.2000000000000E-01  1.4816074603379E-01 -5.1094795359077E-01
74  7.3000000000000E-01  1.0667309736268E-01 -4.7074540955643E-01
75  7.4000000000000E-01  6.6956977375877E-02 -4.2685345049731E-01
76  7.5000000000000E-01  2.9091325206310E-02 -3.7939194022805E-01
77  7.6000000000000E-01 -6.8541844995104E-03 -3.2847578622201E-01
78  7.7000000000000E-01 -4.0819328821564E-02 -2.7421526982056E-01
79  7.8000000000000E-01 -7.2753486376823E-02 -2.1671708000963E-01
80  7.9000000000000E-01 -1.0261574816818E-01 -1.5608602226527E-01
81  8.0000000000000E-01 -1.3037498784572E-01 -9.2427353920059E-02
82  8.1000000000000E-01 -1.5600988969344E-01 -2.5849678351950E-02
83  8.2000000000000E-01 -1.7950893263486E-01  4.3531687486583E-02
84  8.3000000000000E-01 -2.0087032858080E-01  1.1559097364633E-01
85  8.4000000000000E-01 -2.2010191352709E-01  1.9018796104808E-01
86  8.5000000000000E-01 -2.3722098995512E-01  2.6716385495817E-01
87  8.6000000000000E-01 -2.5225411929797E-01  3.4633716261238E-01
88  8.7000000000000E-01 -2.6523686351035E-01  4.2749971458795E-01
89  8.8000000000000E-01 -2.7621347512342E-01  5.1041297122696E-01
90  8.9000000000000E-01 -2.8523653557390E-01  5.9480475366285E-01
91  9.0000000000000E-01 -2.9236654206767E-01  6.8036653375260E-01
92  9.1000000000000E-01 -2.9767144376621E-01  7.6675140852206E-01
93  9.2000000000000E-01 -3.0122612866348E-01  8.5357287271438E-01
94  9.3000000000000E-01 -3.0311186314210E-01  9.4040448789213E-01
95  9.4000000000000E-01 -3.0341568685182E-01  1.0267805285666E+00
96  9.5000000000000E-01 -3.0222976622771E-01  1.1121976653523E+00
97  9.6000000000000E-01 -2.9965071064929E-01  1.1961177225858E+00
98  9.7000000000000E-01 -2.9577885591952E-01  1.2779715236705E+00
99  9.8000000000000E-01 -2.9071752040198E-01  1.3571638121164E+00
100  9.9000000000000E-01 -2.8457223977912E-01  1.4330792103995E+00
101  1.0000000000000E+00 -2.7744998697118E-01  1.5050891529016E+00
102  1.0100000000000E+00 -2.6945838426904E-01  1.5725597039313E+00
103  1.0200000000000E+00 -2.6070491517030E-01  1.6348601477159E+00
104  1.0300000000000E+00 -2.5129614375535E-01  1.6913722148665E+00
105  1.0400000000000E+00 -2.4133694968519E-01  1.7414997896865E+00
106  1.0500000000000E+00 -2.3092978703608E-01  1.7846789253346E+00
107  1.0600000000000E+00 -2.2017397519984E-01  1.8203879796742E+00
108  1.0700000000000E+00 -2.0916502996458E-01  1.8481576740697E+00
109  1.0800000000000E+00 -1.9799404264696E-01  1.8675808707212E+00
110  1.0900000000000E+00 -1.8674711476933E-01  1.8783218615922E+00
111  1.1000000000000E+00 -1.7550485526694E-01  1.8801249637560E+00
112  1.1100000000000E+00 -1.6434194657166E-01  1.8728222221091E+00
113  1.1200000000000E+00 -1.5332678515883E-01  1.8563400308529E+00
114  1.1300000000000E+00 -1.4252120126828E-01  1.8307044998050E+00
115  1.1400000000000E+00 -1.3198026153208E-01  1.7960454102668E+00
116  1.1500000000000E+00 -1.2175215717221E-01  1.7525986275167E+00
117  1.1600000000000E+00 -1.1187817928792E-01  1.7007068626689E+00
118  1.1700000000000E+00 -1.0239278154902E-01  1.6408187051652E+00
119  1.1800000000000E+00 -9.3323729372559E-02  1.5734858779655E+00
120  1.1900000000000E+00 -8.4692333396175E-02  1.4993587001758E+00
121  1.2000000000000E+00 -7.6513763808109E-02  1.4191797754104E+00
122  1.2100000000000E+00 -6.8797440851997E-02  1.3337759585056E+00
123  1.2200000000000E+00 -6.1547495639902E-02  1.2440486869543E+00
124  1.2300000000000E+00 -5.4763294277801E-02  1.1509627965595E+00
125  1.2400000000000E+00 -4.8440017270196E-02  1.0555339721945E+00
126  1.2500000000000E+00 -4.2569285239614E-02  9.5881501367615E-01
127  1.2600000000000E+00 -3.7139821183506E-02  8.6188112320112E-01
128  1.2700000000000E+00 -3.2138138823981E-02  7.6581444361959E-01
129  1.2800000000000E+00 -2.7549246087663E-02  6.7168809584380E-01
130  1.2900000000000E+00 -2.3357352399638E-02  5.8054997838220E-01
131  1.3000000000000E+00 -1.9546568296536E-02  4.9340660192396E-01
132  1.3100000000000E+00 -1.6101585860650E-02  4.1120723697328E-01
133  1.3200000000000E+00 -1.3008333621621E-02  3.3482851293520E-01
134  1.3300000000000E+00 -1.0254556901707E-02  2.6506074084071E-01
135  1.3400000000000E+00 -7.8308875816246E-03  2.0258005009896E-01
136  1.3500000000000E+00 -5.7359093828708E-03  1.4779232679714E-01
137  1.3600000000000E+00 -3.9646441883166E-03  1.0117544005705E-01
138  1.3700000000000E+00 -2.5130507500201E-03  6.3170001599449E-02
139  1.3800000000000E+00 -1.3825031428542E-03  3.4047067053403E-02
140  1.3900000000000E+00 -5.7971746537261E-04  1.3913793772714E-02
141  1.4000000000000E+00 -1.1651820839245E-04  2.7116538638225E-03
142  1.4100000000000E+00  5.7126931695311E-06 -1.2937535095435E-04
143  1.4200000000000E+00 -1.9397465890373E-06  4.4369706377770E-05
144  1.43  0.  0.
145  1.44  0.  0.
146  1.45  0.  0.
147  1.46  0.  0.
148  1.47  0.  0.
149  1.48  0.  0.
150  1.49  0.  0.
151  1.50  0.  0.
152  1.51  0.  0.
153  1.52  0.  0.
154  1.53  0.  0.
155  1.54  0.  0.
156  1.55  0.  0.
157  1.56  0.  0.
158  1.57  0.  0.
159  1.58  0.  0.
160  1.59  0.  0.
161  1.60  0.  0.
162  1.61  0.  0.
163  1.62  0.  0.
164  1.63  0.  0.
165  1.64  0.  0.
166  1.65  0.  0.
167  1.66  0.  0.
168  1.67  0.  0.
169  1.68  0.  0.
170  1.69  0.  0.
171  1.70  0.  0.
172  1.71  0.  0.
173  1.72  0.  0.
174  1.73  0.  0.
175  1.74  0.  0.
176  1.75  0.  0.
177  1.76  0.  0.
178  1.77  0.  0.
179  1.78  0.  0.
180  1.79  0.  0.
181  1.80  0.  0.
182  1.81  0.  0.
183  1.82  0.  0.
184  1.83  0.  0.
185  1.84  0.  0.
186  1.85  0.  0.
187  1.86  0.  0.
188  1.87  0.  0.
189  1.88  0.  0.
190  1.89  0.  0.
191  1.90  0.  0.
192  1.91  0.  0.
193  1.92  0.  0.
194  1.93  0.  0.
195  1.94  0.  0.
196  1.95  0.  0.
197  1.96  0.  0.
198  1.97  0.  0.
199  1.98  0.  0.
200  1.99  0.  0.
201  2.00  0.  0.
202  2.01  0.  0.
203  2.02  0.  0.
204  2.03  0.  0.
205  2.04  0.  0.
206  2.05  0.  0.
207  2.06  0.  0.
208  2.07  0.  0.
209  2.08  0.  0.
210  2.09  0.  0.
211  2.10  0.  0.
212  2.11  0.  0.
213  2.12  0.  0.
214  2.13  0.  0.
215  2.14  0.  0.
216  2.15  0.  0.
217  2.16  0.  0.
218  2.17  0.  0.
219  2.18  0.  0.
220  2.19  0.  0.
221  2.20  0.  0.
222  2.21  0.  0.
223  2.22  0.  0.
224  2.23  0.  0.
225  2.24  0.  0.
226  2.25  0.  0.
227  2.26  0.  0.
228  2.27  0.  0.
229  2.28  0.  0.
230  2.29  0.  0.
231  2.30  0.  0.
232  2.31  0.  0.
233  2.32  0.  0.
234  2.33  0.  0.
235  2.34  0.  0.
236  2.35  0.  0.
237  2.36  0.  0.
238  2.37  0.  0.
239  2.38  0.  0.
240  2.39  0.  0.
241  2.40  0.  0.
242  2.41  0.  0.
243  2.42  0.  0.
244  2.43  0.  0.
245  2.44  0.  0.
246  2.45  0.  0.
247  2.46  0.  0.
248  2.47  0.  0.
249  2.48  0.  0.
250  2.49  0.  0.
251  2.50  0.  0.
252  2.51  0.  0.
253  2.52  0.  0.
254  2.53  0.  0.
255  2.54  0.  0.
256  2.55  0.  0.
257  2.56  0.  0.
258  2.57  0.  0.
259  2.58  0.  0.
260  2.59  0.  0.
261  2.60  0.  0.
262  2.61  0.  0.
263  2.62  0.  0.
264  2.63  0.  0.
265  2.64  0.  0.
266  2.65  0.  0.
267  2.66  0.  0.
268  2.67  0.  0.
269  2.68  0.  0.
270  2.69  0.  0.
271  2.70  0.  0.
272  2.71  0.  0.
273  2.72  0.  0.
274  2.73  0.  0.
275  2.74  0.  0.
276  2.75  0.  0.
277  2.76  0.  0.
278  2.77  0.  0.
279  2.78  0.  0.
280  2.79  0.  0.
281  2.80  0.  0.
282  2.81  0.  0.
283  2.82  0.  0.
284  2.83  0.  0.
285  2.84  0.  0.
286  2.85  0.  0.
287  2.86  0.  0.
288  2.87  0.  0.
289  2.88  0.  0.
290  2.89  0.  0.
291  2.90  0.  0.
292  2.91  0.  0.
293  2.92  0.  0.
294  2.93  0.  0.
295  2.94  0.  0.
296  2.95  0.  0.
297  2.96  0.  0.
298  2.97  0.  0.
299  2.98  0.  0.
300  2.99  0.  0.
301  3.00  0.  0.
302  3.01  0.  0.
303  3.02  0.  0.
304  3.03  0.  0.
305  3.04  0.  0.
306  3.05  0.  0.
307  3.06  0.  0.
308  3.07  0.  0.
309  3.08  0.  0.
310  3.09  0.  0.
311  3.10  0.  0.
312  3.11  0.  0.
313  3.12  0.  0.
314  3.13  0.  0.
315  3.14  0.  0.
316  3.15  0.  0.
317  3.16  0.  0.
318  3.17  0.  0.
319  3.18  0.  0.
320  3.19  0.  0.
321  3.20  0.  0.
322  3.21  0.  0.
323  3.22  0.  0.
324  3.23  0.  0.
325  3.24  0.  0.
326  3.25  0.  0.
327  3.26  0.  0.
328  3.27  0.  0.
329  3.28  0.  0.
330  3.29  0.  0.
331  3.30  0.  0.
332  3.31  0.  0.
333  3.32  0.  0.
334  3.33  0.  0.
335  3.34  0.  0.
336  3.35  0.  0.
337  3.36  0.  0.
338  3.37  0.  0.
339  3.38  0.  0.
340  3.39  0.  0.
341  3.40  0.  0.
342  3.41  0.  0.
343  3.42  0.  0.
344  3.43  0.  0.
345  3.44  0.  0.
346  3.45  0.  0.
347  3.46  0.  0.
348  3.47  0.  0.
349  3.48  0.  0.
350  3.49  0.  0.
351  3.50  0.  0.
352  3.51  0.  0.
353  3.52  0.  0.
354  3.53  0.  0.
355  3.54  0.  0.
356  3.55  0.  0.
357  3.56  0.  0.
358  3.57  0.  0.
359  3.58  0.  0.
360  3.59  0.  0.
361  3.60  0.  0.
362  3.61  0.  0.
363  3.62  0.  0.
364  3.63  0.  0.
365  3.64  0.  0.
366  3.65  0.  0.
367  3.66  0.  0.
368  3.67  0.  0.
369  3.68  0.  0.
370  3.69  0.  0.
371  3.70  0.  0.
372  3.71  0.  0.
373  3.72  0.  0.
374  3.73  0.  0.
375  3.74  0.  0.
376  3.75  0.  0.
377  3.76  0.  0.
378  3.77  0.  0.
379  3.78  0.  0.
380  3.79  0.  0.
381  3.80  0.  0.
382  3.81  0.  0.
383  3.82  0.  0.
384  3.83  0.  0.
385  3.84  0.  0.
386  3.85  0.  0.
387  3.86  0.  0.
388  3.87  0.  0.
389  3.88  0.  0.
390  3.89  0.  0.
391  3.90  0.  0.
392  3.91  0.  0.
393  3.92  0.  0.
394  3.93  0.  0.
395  3.94  0.  0.
396  3.95  0.  0.
397  3.96  0.  0.
398  3.97  0.  0.
399  3.98  0.  0.
400  3.99  0.  0.
401  4.00  0.  0.
402  4.01  0.  0.
403  4.02  0.  0.
404  4.03  0.  0.
405  4.04  0.  0.
406  4.05  0.  0.
407  4.06  0.  0.
408  4.07  0.  0.
409  4.08  0.  0.
410  4.09  0.  0.
411  4.10  0.  0.
412  4.11  0.  0.
413  4.12  0.  0.
414  4.13  0.  0.
415  4.14  0.  0.
416  4.15  0.  0.
417  4.16  0.  0.
418  4.17  0.  0.
419  4.18  0.  0.
420  4.19  0.  0.
421  4.20  0.  0.
422  4.21  0.  0.
423  4.22  0.  0.
424  4.23  0.  0.
425  4.24  0.  0.
426  4.25  0.  0.
427  4.26  0.  0.
428  4.27  0.  0.
429  4.28  0.  0.
430  4.29  0.  0.
431  4.30  0.  0.
432  4.31  0.  0.
433  4.32  0.  0.
434  4.33  0.  0.
435  4.34  0.  0.
436  4.35  0.  0.
437  4.36  0.  0.
438  4.37  0.  0.
439  4.38  0.  0.
440  4.39  0.  0.
441  4.40  0.  0.
442  4.41  0.  0.
443  4.42  0.  0.
444  4.43  0.  0.
445  4.44  0.  0.
446  4.45  0.  0.
447  4.46  0.  0.
448  4.47  0.  0.
449  4.48  0.  0.
450  4.49  0.  0.
451  4.50  0.  0.
452  4.51  0.  0.
453  4.52  0.  0.
454  4.53  0.  0.
455  4.54  0.  0.
456  4.55  0.  0.
457  4.56  0.  0.
458  4.57  0.  0.
459  4.58  0.  0.
460  4.59  0.  0.
461  4.60  0.  0.
462  4.61  0.  0.
463  4.62  0.  0.
464  4.63  0.  0.
465  4.64  0.  0.
466  4.65  0.  0.
467  4.66  0.  0.
468  4.67  0.  0.
469  4.68  0.  0.
470  4.69  0.  0.
471  4.70  0.  0.
472  4.71  0.  0.
473  4.72  0.  0.
474  4.73  0.  0.
475  4.74  0.  0.
476  4.75  0.  0.
477  4.76  0.  0.
478  4.77  0.  0.
479  4.78  0.  0.
480  4.79  0.  0.
481  4.80  0.  0.
482  4.81  0.  0.
483  4.82  0.  0.
484  4.83  0.  0.
485  4.84  0.  0.
486  4.85  0.  0.
487  4.86  0.  0.
488  4.87  0.  0.
489  4.88  0.  0.
490  4.89  0.  0.
491  4.90  0.  0.
492  4.91  0.  0.
493  4.92  0.  0.
494  4.93  0.  0.
495  4.94  0.  0.
496  4.95  0.  0.
497  4.96  0.  0.
498  4.97  0.  0.
499  4.98  0.  0.
500  4.99  0.  0.
501  5.00  0.  0.
502  5.01  0.  0.
503  5.02  0.  0.
504  5.03  0.  0.
505  5.04  0.  0.
506  5.05  0.  0.
507  5.06  0.  0.
508  5.07  0.  0.
509  5.08  0.  0.
510  5.09  0.  0.
511  5.10  0.  0.
512  5.11  0.  0.
513  5.12  0.  0.
514  5.13  0.  0.
515  5.14  0.  0.
516  5.15  0.  0.
517  5.16  0.  0.
518  5.17  0.  0.
519  5.18  0.  0.
520  5.19  0.  0.
521  5.20  0.  0.
522  5.21  0.  0.
523  5.22  0.  0.
524  5.23  0.  0.
525  5.24  0.  0.
526  5.25  0.  0.
527  5.26  0.  0.
528  5.27  0.  0.
529  5.28  0.  0.
530  5.29  0.  0.
531  5.30  0.  0.
532  5.31  0.  0.
533  5.32  0.  0.
534  5.33  0.  0.
535  5.34  0.  0.
536  5.35  0.  0.
537  5.36  0.  0.
538  5.37  0.  0.
539  5.38  0.  0.
540  5.39  0.  0.
541  5.40  0.  0.
542  5.41  0.  0.
543  5.42  0.  0.
544  5.43  0.  0.
545  5.44  0.  0.
546  5.45  0.  0.
547  5.46  0.  0.
548  5.47  0.  0.
549  5.48  0.  0.
550  5.49  0.  0.
551  5.50  0.  0.
552  5.51  0.  0.
553  5.52  0.  0.
554  5.53  0.  0.
555  5.54  0.  0.
556  5.55  0.  0.
557  5.56  0.  0.
558  5.57  0.  0.
559  5.58  0.  0.
560  5.59  0.  0.
561  5.60  0.  0.
562  5.61  0.  0.
563  5.62  0.  0.
564  5.63  0.  0.
565  5.64  0.  0.
566  5.65  0.  0.
567  5.66  0.  0.
568  5.67  0.  0.
569  5.68  0.  0.
570  5.69  0.  0.
571  5.70  0.  0.
572  5.71  0.  0.
573  5.72  0.  0.
574  5.73  0.  0.
575  5.74  0.  0.
576  5.75  0.  0.
577  5.76  0.  0.
578  5.77  0.  0.
579  5.78  0.  0.
580  5.79  0.  0.
581  5.80  0.  0.
582  5.81  0.  0.
583  5.82  0.  0.
584  5.83  0.  0.
585  5.84  0.  0.
586  5.85  0.  0.
587  5.86  0.  0.
588  5.87  0.  0.
589  5.88  0.  0.
590  5.89  0.  0.
591  5.90  0.  0.
592  5.91  0.  0.
593  5.92  0.  0.
594  5.93  0.  0.
595  5.94  0.  0.
596  5.95  0.  0.
597  5.96  0.  0.
598  5.97  0.  0.
599  5.98  0.  0.
600  5.99  0.  0.
1                         1.0556178485355E+01  6.8760470345264E-01 -1.9817057405085E-01
1  0.0000000000000E+00 -8.7987592212180E-10  1.6974539621128E-09 -1.9341437396125E-08
2  1.0000000000000E-02  1.5594174681082E-03 -7.2275165497637E-04  1.1308424414723E-03
3  2.0000000000000E-02  6.2326901533799E-03 -2.8879596799218E-03  4.5285218997353E-03
4  3.0000000000000E-02  1.4004873840650E-02 -6.4864567689772E-03  1.0208085944005E-02
5  4.0000000000000E-02  2.4851045191632E-02 -1.1502876839341E-02  1.8193263104197E-02
6  5.0000000000000E-02  3.8736279176236E-02 -1.7915527810316E-02  2.8514478515528E-02
7  6.0000000000000E-02  5.5615621228805E-02 -2.5696220679799E-02  4.1206158283878E-02
8  7.0000000000000E-02  7.5434057767864E-02 -3.4810061873826E-02  5.6303402534194E-02
9  8.0000000000000E-02  9.8126489597885E-02 -4.5215217542218E-02  7.3838126445590E-02
10  9.0000000000000E-02  1.2361771347681E-01 -5.6862659959145E-02  9.3834785404655E-02
11  1.0000000000000E-01  1.5182241776348E-01 -6.9695907423656E-02  1.1630581429019E-01
12  1.1000000000000E-01  1.8264519853787E-01 -8.3650770011012E-02  1.4124692147497E-01
13  1.2000000000000E-01  2.1598060290049E-01 -9.8655114175995E-02  1.6863238510940E-01
14  1.3000000000000E-01  2.5171320629585E-01 -1.1462865953599E-01  1.9841050244264E-01
15  1.4000000000000E-01  2.8971773066283E-01 -1.3148282115437E-01  2.3049934223156E-01
16  1.5000000000000E-01  3.2985920999037E-01 -1.4912061030073E-01  2.6478294567592E-01
17  1.6000000000000E-01  3.7199320945313E-01 -1.6743660598809E-01  3.0110811288424E-01
18  1.7000000000000E-01  4.1596610372491E-01 -1.8631700859189E-01  3.3928189979288E-01
19  1.8000000000000E-01  4.6161541932897E-01 -2.0563978556026E-01  3.7906993500093E-01
20  1.9000000000000E-01  5.0877024499813E-01 -2.2527491765764E-01  4.2019564749127E-01
21  2.0000000000000E-01  5.5725171300157E-01 -2.4508475237676E-01  4.6234047511394E-01
22  2.1000000000000E-01  6.0687355327115E-01 -2.6492446914688E-01  5.0514510049944E-01
23  2.2000000000000E-01  6.5744272095066E-01 -2.8464265880207E-01  5.4821173629647E-01
24  2.3000000000000E-01  7.0876009672296E-01 -3.0408201750033E-01  5.9110745587803E-01
25  2.4000000000000E-01  7.6062125796926E-01 -3.2308015295228E-01  6.3336853955001E-01
26  2.5000000000000E-01  8.1281731750994E-01 -3.4147049847837E-01  6.7450578045767E-01
27  2.6000000000000E-01  8.6513582539541E-01 -3.5908332811968E-01  7.1401066944937E-01
28  2.7000000000000E-01  9.1736172798662E-01 -3.7574686382881E-01  7.5136235473717E-01
29  2.8000000000000E-01  9.6927837741450E-01 -3.9128846371525E-01  7.8603525087476E-01
30  2.9000000000000E-01  1.0206685834608E+00 -4.0553587845960E-01  8.1750715289413E-01
31  3.0000000000000E-01  1.0713156989832E+00 -4.1831856138515E-01  8.4526769588506E-01
32  3.1000000000000E-01  1.1210047292344E+00 -4.2946901632138E-01  8.6882698827691E-01
33  3.2000000000000E-01  1.1695234548157E+00 -4.3882416634224E-01  8.8772423892395E-01
34  3.3000000000000E-01  1.2166635575735E+00 -4.4622672573812E-01  9.0153619404430E-01
35  3.4000000000000E-01  1.2622217385033E+00 -4.5152655719949E-01  9.0988520026904E-01
36  3.5000000000000E-01  1.3060008166707E+00 -4.5458199616459E-01  9.1244671456857E-01
37  3.6000000000000E-01  1.3478107983011E+00 -4.5526112461077E-01  9.0895609058547E-01
38  3.7000000000000E-01  1.3874699055207E+00 -4.5344297724741E-01  8.9921448376299E-01
39  3.8000000000000E-01  1.4248055547424E+00 -4.4901866407801E-01  8.8309373436059E-01
40  3.9000000000000E-01  1.4596552753792E+00 -4.4189239462333E-01  8.6054010764787E-01
41  4.0000000000000E-01  1.4918675604055E+00 -4.3198239070269E-01  8.3157679383089E-01
42  4.1000000000000E-01  1.5213026412693E+00 -4.1922167652451E-01  7.9630509607914E-01
43  4.2000000000000E-01  1.5478331807512E+00 -4.0355873689719E-01  7.5490426281326E-01
44  4.3000000000000E-01  1.5713448785575E+00 -3.8495803659145E-01  7.0762994955021E-01
45  4.4000000000000E-01  1.5917369856863E+00 -3.6340039621718E-01  6.5481132541905E-01
46  4.5000000000000E-01  1.6089227249023E+00 -3.3888322236799E-01  5.9684686926394E-01
47  4.6000000000000E-01  1.6228296159575E+00 -3.1142059218368E-01  5.3419892934273E-01
48  4.7000000000000E-01  1.6333997054869E+00 -2.8104319482957E-01  4.6738714832235E-01
49  4.8000000000000E-01  1.6405897027499E+00 -2.4779813464129E-01  3.9698088090017E-01
50  4.9000000000000E-01  1.6443710235641E+00 -2.1174860278516E-01  3.2359075432331E-01
51  5.0000000000000E-01  1.6447297458560E+00 -1.7297342618918E-01  2.4785954177010E-01
52  5.1000000000000E-01  1.6416664812191E+00 -1.3156650417039E-01  1.7045253450437E-01
53  5.2000000000000E-01  1.6351961676991E+00 -8.7636144582070E-02  9.2047610503057E-02
54  5.3000000000000E-01  1.6253477897054E+00 -4.1304312402870E-02  1.3325204574731E-02
55  5.4000000000000E-01  1.6121640314669E+00  7.2941955344998E-03 -6.5041612387195E-02
56  5.5000000000000E-01  1.5957008708027E+00  5.8012635536138E-02 -1.4239673953932E-01
57  5.6000000000000E-01  1.5760271201557E+00  1.1069324752283E-01 -2.1811013909085E-01
58  5.7000000000000E-01  1.5532239218493E+00  1.6516821698813E-01 -2.9158622927947E-01
59  5.8000000000000E-01  1.5273842043712E+00  2.2126065500239E-01 -3.6227140648659E-01
60  5.9000000000000E-01  1.4986121061824E+00  2.7878558369716E-01 -4.2966054581892E-01
61  6.0000000000000E-01  1.4670223730982E+00  3.3755091581567E-01 -4.9330235329737E-01
62  6.1000000000000E-01  1.4327397347190E+00  3.9735841831028E-01 -5.5280346973290E-01
63  6.2000000000000E-01  1.3958982647139E+00  4.5800465156979E-01 -6.0783125581615E-01
64  6.3000000000000E-01  1.3566407290068E+00  5.1928187761740E-01 -6.5811521922713E-01
65  6.4000000000000E-01  1.3151179251081E+00  5.8097893248961E-01 -7.0344707694667E-01
66  6.5000000000000E-01  1.2714880150032E+00  6.4288205992966E-01 -7.4367947866158E-01
67  6.6000000000000E-01  1.2259158531725E+00  7.0477570545369E-01 -7.7872344941775E-01
68  6.7000000000000E-01  1.1785723105132E+00  7.6644327171873E-01 -8.0854464070249E-01
69  6.8000000000000E-01  1.1296335941841E+00  8.2766783788396E-01 -8.3315850818128E-01
70  6.9000000000000E-01  1.0792805627181E+00  8.8823284725947E-01 -8.5262456063819E-01
71  7.0000000000000E-01  1.0276980351843E+00  9.4792276893260E-01 -8.6703984762083E-01
72  7.1000000000000E-01  9.7507409273041E-01  1.0065237402075E+00 -8.7653187227006E-01
73  7.2000000000000E-01  9.2159937053698E-01  1.0638241975529E+00 -8.8125113032058E-01
74  7.3000000000000E-01  8.6746633805868E-01  1.1196155042971E+00 -8.8136348588625E-01
75  7.4000000000000E-01  8.1286856544319E-01  1.1736925835171E+00 -8.7704259910678E-01
76  7.5000000000000E-01  7.5799997419448E-01  1.2258545644262E+00 -8.6846261985481E-01
77  7.6000000000000E-01  7.0305407049377E-01  1.2759054500733E+00 -8.5579135544715E-01
78  7.7000000000000E-01  6.4822316009789E-01  1.3236548133255E+00 -8.3918410875102E-01
79  7.8000000000000E-01  5.9369754439343E-01  1.3689185269406E+00 -8.1877836644503E-01
80  7.9000000000000E-01  5.3966469798021E-01  1.4115195320612E+00 -7.9468949582415E-01
81  8.0000000000000E-01  4.8630842907099E-01  1.4512886477196E+00 -7.6700758288376E-01
82  8.1000000000000E-01  4.3380802500165E-01  1.4880654219715E+00 -7.3579551505702E-01
83  8.2000000000000E-01  3.8233738622264E-01  1.5216990231270E+00 -7.0108837957089E-01
84  8.3000000000000E-01  3.3206415325661E-01  1.5520491672697E+00 -6.6289421368642E-01
85  8.4000000000000E-01  2.8314883222939E-01  1.5789870759227E+00 -6.2119610691013E-01
86  8.5000000000000E-01  2.3574392567700E-01  1.6023964553795E+00 -5.7595561847316E-01
87  8.6000000000000E-01  1.8999307636793E-01  1.6221744869480E+00 -5.2711743686621E-01
88  8.7000000000000E-01  1.4603023282268E-01  1.6382328152199E+00 -4.7461517288738E-01
89  8.8000000000000E-01  1.0397884603059E-01  1.6504985195355E+00 -4.1837814439795E-01
90  8.9000000000000E-01  6.3951107525594E-02  1.6589150521310E+00 -3.5833898063307E-01
91  9.0000000000000E-01  2.6047239460956E-02  1.6634431250942E+00 -2.9444184727583E-01
92  9.1000000000000E-01 -9.6451524066410E-03  1.6640615272527E+00 -2.2665107129217E-01
93  9.2000000000000E-01 -4.3051651869704E-02  1.6607678515351E+00 -1.5495992736189E-01
94  9.3000000000000E-01 -7.4111520805316E-02  1.6535791132064E+00 -7.9399336140777E-02
95  9.4000000000000E-01 -1.0277809279027E-01  1.6425322397078E+00 -4.6218940076475E-05
96  9.5000000000000E-01 -1.2901906220081E-01  1.6276844136519E+00  8.2968746040087E-02
97  9.6000000000000E-01 -1.5281666016246E-01  1.6091132518276E+00  1.6945421392252E-01
98  9.7000000000000E-01 -1.7416770992160E-01  1.5869168048556E+00  2.5915234467587E-01
99  9.8000000000000E-01 -1.9308355564711E-01  1.5612133643822E+00  3.5173427159463E-01
100  9.9000000000000E-01 -2.0958986031571E-01  1.5321410673668E+00  4.4679705743184E-01
101  1.0000000000000E+00 -2.2372627016495E-01  1.4998572900767E+00  5.4386229864163E-01
102  1.0100000000000E+00 -2.3554594517809E-01  1.4645378277850E+00  6.4237650330954E-01
103  1.0200000000000E+00 -2.4511495716079E-01  1.4263758598138E+00  7.4171332955236E-01
104  1.0300000000000E+00 -2.5251155914051E-01  1.3855807034093E+00  8.4117772927276E-01
105  1.0400000000000E+00 -2.5782533202161E-01  1.3423763638897E+00  9.4001199808557E-01
106  1.0500000000000E+00 -2.6115621661566E-01  1.2969998924901E+00  1.0374036870369E+00
107  1.0600000000000E+00 -2.6261344129259E-01  1.2496995672602E+00  1.1324952863425E+00
108  1.0700000000000E+00 -2.6231435751613E-01  1.2007329161501E+00  1.2243955469177E+00
109  1.0800000000000E+00 -2.6038319738650E-01  1.1503646049649E+00  1.3121922630336E+00
110  1.0900000000000E+00 -2.5694976897895E-01  1.0988642160996E+00  1.3949662998644E+00
111  1.1000000000000E+00 -2.5214810668463E-01  1.0465039467833E+00  1.4718066142441E+00
112  1.1100000000000E+00 -2.4611509490630E-01  9.9355625791688E-01  1.5418259862059E+00
113  1.1200000000000E+00 -2.3898908429103E-01  9.4029150638545E-01  1.6041771539115E+00
114  1.1300000000000E+00 -2.3090852017824E-01  8.8697559493830E-01  1.6580690258651E+00
115  1.1400000000000E+00 -2.2201060307667E-01  8.3386767428586E-01  1.7027826325300E+00
116  1.1500000000000E+00 -2.1243000075013E-01  7.8121793195065E-01  1.7376864749373E+00
117  1.1600000000000E+00 -2.0229763088033E-01  7.2926550159820E-01  1.7622509308867E+00
118  1.1700000000000E+00 -1.9173953228895E-01  6.7823652506653E-01  1.7760613899414E+00
119  1.1800000000000E+00 -1.8087584135335E-01  6.2834239712093E-01  1.7788298064620E+00
120  1.1900000000000E+00 -1.6981988854917E-01  5.7977822009722E-01  1.7704043853087E+00
121  1.2000000000000E+00 -1.5867742804537E-01  5.3272149213604E-01  1.7507771467688E+00
122  1.2100000000000E+00 -1.4754601096103E-01  4.8733104864890E-01  1.7200891557175E+00
123  1.2200000000000E+00 -1.3651451035411E-01  4.4374627214041E-01  1.6786332435003E+00
124  1.2300000000000E+00 -1.2566280324916E-01  4.0208658053950E-01  1.6268540994140E+00
125  1.2400000000000E+00 -1.1506161210577E-01  3.6245119891007E-01  1.5653456604711E+00
126  1.2500000000000E+00 -1.0477250513605E-01  3.2491921391659E-01  1.4948457822601E+00
127  1.2600000000000E+00 -9.4848051822880E-02  2.8954990475922E-01  1.4162282296035E+00
128  1.2700000000000E+00 -8.5332126979734E-02  2.5638333866495E-01  1.3304920812897E+00
129  1.2800000000000E+00 -7.6260353750149E-02  2.2544121347237E-01  1.2387486978661E+00
130  1.2900000000000E+00 -6.7660673135443E-02  1.9672792449636E-01  1.1422064540472E+00
131  1.3000000000000E+00 -5.9554025040151E-02  1.7023182785659E-01  1.0421534861588E+00
132  1.3100000000000E+00 -5.1955123469989E-02  1.4592666786438E-01  9.3993874949883E-01
133  1.3200000000000E+00 -4.4873306455380E-02  1.2377313198255E-01  8.3695171955004E-01
134  1.3300000000000E+00 -3.8313439568276E-02  1.0372049342755E-01  7.3460110337251E-01
135  1.3400000000000E+00 -3.2276850570716E-02  8.5708298715535E-02  6.3429295280519E-01