No    ONCVPSP-4.0.1  r_core=   1.15610   1.15610   1.15610   1.15610
102.0000     42.0000      231012    zatom,zion,pspd
8   -1012   3     4   600     0    pspcod,pspxc,lmax,lloc,mmax,r2well
5.99000000  5.00000000  0.00000000    rchrg fchrg qchrg
3     2     2     2     0    nproj
1     1           extension_switch
0                         2.2812869684242E+01  2.5138516738030E+00 -1.7433936712361E+00
1  0.0000000000000E+00 -1.5532238828442E-08  5.4035251384477E-08 -1.1534564414717E-09
2  1.0000000000000E-02  1.6434731507434E-01 -4.8527165913881E-02  4.1235863101411E-02
3  2.0000000000000E-02  3.2751528129372E-01 -9.5950193643772E-02  8.2330321123604E-02
4  3.0000000000000E-02  4.8833576963153E-01 -1.4118475309514E-01  1.2314335590715E-01
5  4.0000000000000E-02  6.4566292241427E-01 -1.8318565335754E-01  1.6353770732775E-01
6  5.0000000000000E-02  7.9838387246264E-01 -2.2096523455649E-01  2.0338021312265E-01
7  6.0000000000000E-02  9.4542897407788E-01 -2.5361038720280E-01  2.4254310257019E-01
8  7.0000000000000E-02  1.0857814022213E+00 -2.8029780801482E-01  2.8090523007324E-01
9  8.0000000000000E-02  1.2184859917673E+00 -3.0030715522394E-01  3.1835323585042E-01
10  9.0000000000000E-02  1.3426572071470E+00 -3.1303183036085E-01  3.5478262229199E-01
11  1.0000000000000E-01  1.4574861534385E+00 -3.1798718527067E-01  3.9009873603566E-01
12  1.1000000000000E-01  1.5622465623318E+00 -3.1481603017890E-01  4.2421764740391E-01
13  1.2000000000000E-01  1.6562997096788E+00 -3.0329139839975E-01  4.5706692045812E-01
14  1.3000000000000E-01  1.7390982447945E+00 -2.8331660305469E-01  4.8858626850678E-01
15  1.4000000000000E-01  1.8101889345673E+00 -2.5492269825475E-01  5.1872809139844E-01
16  1.5000000000000E-01  1.8692143470561E+00 -2.1826352902445E-01  5.4745789228701E-01
17  1.6000000000000E-01  1.9159135189543E+00 -1.7360861842646E-01  5.7475457273439E-01
18  1.7000000000000E-01  1.9501216685155E+00 -1.2133419479061E-01  6.0061060598570E-01
19  1.8000000000000E-01  1.9717690297764E+00 -6.1912704911879E-02  6.2503208899581E-01
20  1.9000000000000E-01  1.9808788948425E+00  4.0988107518743E-03  6.4803867429974E-01
21  2.0000000000000E-01  1.9775649583674E+00  7.6071088354457E-02  6.6966338311316E-01
22  2.1000000000000E-01  1.9620280620707E+00  1.5331536140757E-01  6.8995230114594E-01
23  2.2000000000000E-01  1.9345524372413E+00  2.3509604842593E-01  7.0896415854733E-01
24  2.3000000000000E-01  1.8955015398245E+00  3.2064304858513E-01  7.2676979522427E-01
25  2.4000000000000E-01  1.8453135662056E+00  4.0916332334790E-01  7.4345151254001E-01
26  2.5000000000000E-01  1.7844967285814E+00  4.9985148947442E-01  7.5910231217174E-01
27  2.6000000000000E-01  1.7136243573734E+00  5.9189920499413E-01  7.7382502275082E-01
28  2.7000000000000E-01  1.6333298850658E+00  6.8450319235321E-01  7.8773131489282E-01
29  2.8000000000000E-01  1.5443017518061E+00  7.7687180963227E-01  8.0094060541170E-01
30  2.9000000000000E-01  1.4472782587420E+00  8.6823014885149E-01  8.1357885195910E-01
31  3.0000000000000E-01  1.3430423810919E+00  9.5782370734238E-01  8.2577724008378E-01
32  3.1000000000000E-01  1.2324165399904E+00  1.0449207413814E+00  8.3767076580065E-01
33  3.2000000000000E-01  1.1162573208492E+00  1.1288134683424E+00  8.4939671821401E-01
34  3.3000000000000E-01  9.9545011685396E-01  1.2088183323398E+00  8.6109306855444E-01
35  3.4000000000000E-01  8.7090366973118E-01  1.2842755868385E+00  8.7289677414837E-01
36  3.5000000000000E-01  7.4354447640871E-01  1.3545484745227E+00  8.8494200830403E-01
37  3.6000000000000E-01  6.1431102986533E-01  1.4190222987912E+00  8.9735832981384E-01
38  3.7000000000000E-01  4.8414786540659E-01  1.4771036820351E+00  9.1026880866515E-01
39  3.8000000000000E-01  3.5399938975500E-01  1.5282202932810E+00  9.2378812752915E-01
40  3.9000000000000E-01  2.2480347951178E-01  1.5718213023081E+00  9.3802068155810E-01
41  4.0000000000000E-01  9.7484847410686E-02  1.6073787798890E+00  9.5305870184860E-01
42  4.1000000000000E-01 -2.7051811101947E-02  1.6343902157779E+00  9.6898043050367E-01
43  4.2000000000000E-01 -1.4792886260930E-01  1.6523822692566E+00  9.8584837742557E-01
44  4.3000000000000E-01 -2.6430292654676E-01  1.6609158036125E+00  1.0037076906752E+00
45  4.4000000000000E-01 -3.7537214959458E-01  1.6595921882680E+00  1.0225846733296E+00
46  4.5000000000000E-01 -4.8038348421282E-01  1.6480607830137E+00  1.0424854801551E+00
47  4.6000000000000E-01 -5.7863987606101E-01  1.6260274505925E+00  1.0633950270098E+00
48  4.7000000000000E-01 -6.6950725102659E-01  1.5932638794252E+00  1.0852761446246E+00
49  4.8000000000000E-01 -7.5242118105022E-01  1.5496174401135E+00  1.1080690062586E+00
50  4.9000000000000E-01 -8.2689309948935E-01  1.4950212498892E+00  1.1316908556607E+00
51  5.0000000000000E-01 -8.9251593191026E-01  1.4295040804625E+00  1.1560360578150E+00
52  5.1000000000000E-01 -9.4896900733592E-01  1.3531997184862E+00  1.1809764901528E+00
53  5.2000000000000E-01 -9.9602211836677E-01  1.2663553753759E+00  1.2063622863494E+00
54  5.3000000000000E-01 -1.0335386063492E+00  1.1693387453250E+00  1.2320229385966E+00
55  5.4000000000000E-01 -1.0614773598603E+00  1.0626433273227E+00  1.2577687574840E+00
56  5.5000000000000E-01 -1.0798936310263E+00  9.4689165859920E-01  1.2833926814844E+00
57  5.6000000000000E-01 -1.0889385942597E+00  8.2283615244123E-01  1.3086724206955E+00
58  5.7000000000000E-01 -1.0888575954182E+00  6.9135729149335E-01  1.3333729121313E+00
59  5.8000000000000E-01 -1.0799870655616E+00  5.5345899678810E-01  1.3572490566683E+00
60  5.9000000000000E-01 -1.0627501017050E+00  4.1026107072103E-01  1.3800487009447E+00
61  6.0000000000000E-01 -1.0376507464571E+00  2.6298869656745E-01  1.4015158212671E+00
62  6.1000000000000E-01 -1.0052670283355E+00  1.1295906523743E-01  1.4213938610920E+00
63  6.2000000000000E-01 -9.6624285400346E-01 -3.8434711065901E-02  1.4394291690813E+00
64  6.3000000000000E-01 -9.2127887177818E-01 -1.8974215169479E-01  1.4553744812322E+00
65  6.4000000000000E-01 -8.7112245168233E-01 -3.3947609832052E-01  1.4689923882737E+00
66  6.5000000000000E-01 -8.1655695023226E-01 -4.8613514068795E-01  1.4800587284878E+00
67  6.6000000000000E-01 -7.5839044737430E-01 -6.2822731029258E-01  1.4883658464150E+00
68  6.7000000000000E-01 -6.9744415787006E-01 -7.6429452317066E-01  1.4937256595610E+00
69  6.8000000000000E-01 -6.3454072950785E-01 -8.9293721547913E-01  1.4959724782035E+00
70  6.9000000000000E-01 -5.7049264543172E-01 -1.0128385936378E+00  1.4949655276688E+00
71  7.0000000000000E-01 -5.0609094743511E-01 -1.1227879153979E+00  1.4905911278945E+00
72  7.1000000000000E-01 -4.4209449122608E-01 -1.2217022296612E+00  1.4827644916068E+00
73  7.2000000000000E-01 -3.7921993355918E-01 -1.3086460310280E+00  1.4714311098539E+00
74  7.3000000000000E-01 -3.1813263502583E-01 -1.3828483292111E+00  1.4565677017721E+00
75  7.4000000000000E-01 -2.5943864162370E-01 -1.4437166924179E+00  1.4381827141172E+00
76  7.5000000000000E-01 -2.0367788355362E-01 -1.4908478958943E+00  1.4163163650501E+00
77  7.6000000000000E-01 -1.5131870168995E-01 -1.5240348899859E+00  1.3910402357045E+00
78  7.7000000000000E-01 -1.0275378161196E-01 -1.5432698938632E+00  1.3624564219535E+00
79  7.8000000000000E-01 -5.8297542812612E-02 -1.5487435187951E+00  1.3306962673123E+00
80  7.9000000000000E-01 -1.8184997600213E-02 -1.5408399256781E+00  1.2959187058607E+00
81  8.0000000000000E-01  1.7427938814620E-02 -1.5201281224600E+00  1.2583082512427E+00
82  8.1000000000000E-01  4.8462737609915E-02 -1.4873496052035E+00  1.2180726740380E+00
83  8.2000000000000E-01  7.4915225809692E-02 -1.4434026389234E+00  1.1754404149582E+00
84  8.3000000000000E-01  9.6851344301259E-02 -1.3893235583492E+00  1.1306577852862E+00
85  8.4000000000000E-01  1.1440182707343E-01 -1.3262655419613E+00  1.0839860086766E+00
86  8.5000000000000E-01  1.2775595466369E-01 -1.2554753729581E+00  1.0356981598225E+00
87  8.6000000000000E-01  1.3715455069618E-01 -1.1782687465148E+00  9.8607605556836E-01
88  8.7000000000000E-01  1.4288240150089E-01 -1.0960047125412E+00  9.3540715282784E-01
89  8.8000000000000E-01  1.4526028490937E-01 -1.0100598563447E+00  8.8398150522342E-01
90  8.9000000000000E-01  1.4463679535204E-01 -9.2180281584507E-01  8.3208882678060E-01
91  9.0000000000000E-01  1.4138014840540E-01 -8.3256971346563E-01  7.8001570641051E-01
92  9.1000000000000E-01  1.3587013916465E-01 -7.4364104419860E-01  7.2804301143687E-01
93  9.2000000000000E-01  1.2849041557984E-01 -6.5622050973278E-01  6.7644351222716E-01
94  9.3000000000000E-01  1.1962121064740E-01 -5.7141622345901E-01  6.2547975324508E-01
95  9.4000000000000E-01  1.0963265664730E-01 -4.9022463454720E-01  5.7540218873325E-01
96  9.5000000000000E-01  9.8878781087738E-02 -4.1351743327221E-01  5.2644759393986E-01
97  9.6000000000000E-01  8.7692258371082E-02 -3.4203160682819E-01  4.7883775550598E-01
98  9.7000000000000E-01  7.6379964161440E-02 -2.7636271757729E-01  4.3277843749960E-01
99  9.8000000000000E-01  6.5219351778238E-02 -2.1696137671905E-01  3.8845861278272E-01
100  9.9000000000000E-01  5.4455642427118E-02 -1.6413278845716E-01  3.4604994307445E-01
101  1.0000000000000E+00  4.4299794434346E-02 -1.1803914546104E-01  3.0570648535386E-01
102  1.0100000000000E+00  3.4927191593005E-02 -7.8704568348815E-02  2.6756459724243E-01
103  1.0200000000000E+00  2.6476967894505E-02 -4.6022202341441E-02  2.3174300980326E-01
104  1.0300000000000E+00  1.9051865859985E-02 -1.9763015154964E-02  1.9834303285484E-01
105  1.0400000000000E+00  1.2718508914721E-02  4.1421653705959E-04  1.6744885546804E-01
106  1.0500000000000E+00  7.5079551426342E-03  1.4952287757487E-02  1.3912790281274E-01
107  1.0600000000000E+00  3.4163905868723E-03  2.4384896989599E-02  1.1343120994337E-01
108  1.0700000000000E+00  4.0581524240470E-04  2.9326525871031E-02  9.0393773446201E-02
109  1.0800000000000E+00 -1.5954143992924E-03  3.0463423454421E-02  7.0034858254689E-02
110  1.0900000000000E+00 -2.6924158590734E-03  2.8546555838292E-02  5.2358103974893E-02
111  1.1000000000000E+00 -3.0256261341631E-03  2.4391806280522E-02  3.7349531515853E-02
112  1.1100000000000E+00 -2.8019041803011E-03  1.8978174841607E-02  2.4933733325609E-02
113  1.1200000000000E+00 -2.2049162141996E-03  1.3146272900096E-02  1.5076994546150E-02
114  1.1300000000000E+00 -1.4157759499496E-03  7.6383758156311E-03  7.7520036667481E-03
115  1.1400000000000E+00 -6.4178101614615E-04  3.1890988484114E-03  2.8952569555276E-03
116  1.1500000000000E+00 -1.0871529302424E-04  5.0355405308829E-04  4.1252867113822E-04
117  1.1600000000000E+00  6.4973742036356E-06 -2.8786036845884E-05 -2.1899061241562E-05
118  1.1700000000000E+00 -9.1429684365220E-09  4.1227945174869E-08  3.2273740121277E-08
119  1.18 -0.  0. -0.
120  1.19  0.  0.  0.
121  1.20  0.  0.  0.
122  1.21  0.  0.  0.
123  1.22  0.  0.  0.
124  1.23  0.  0.  0.
125  1.24  0.  0.  0.
126  1.25  0.  0.  0.
127  1.26  0.  0.  0.
128  1.27  0.  0.  0.
129  1.28  0.  0.  0.
130  1.29  0.  0.  0.
131  1.30  0.  0.  0.
132  1.31  0.  0.  0.
133  1.32  0.  0.  0.
134  1.33  0.  0.  0.
135  1.34  0.  0.  0.
136  1.35  0.  0.  0.
137  1.36  0.  0.  0.
138  1.37  0.  0.  0.
139  1.38  0.  0.  0.
140  1.39  0.  0.  0.
141  1.40  0.  0.  0.
142  1.41  0.  0.  0.
143  1.42  0.  0.  0.
144  1.43  0.  0.  0.
145  1.44  0.  0.  0.
146  1.45  0.  0.  0.
147  1.46  0.  0.  0.
148  1.47  0.  0.  0.
149  1.48  0.  0.  0.
150  1.49  0.  0.  0.
151  1.50  0.  0.  0.
152  1.51  0.  0.  0.
153  1.52  0.  0.  0.
154  1.53  0.  0.  0.
155  1.54  0.  0.  0.
156  1.55  0.  0.  0.
157  1.56  0.  0.  0.
158  1.57  0.  0.  0.
159  1.58  0.  0.  0.
160  1.59  0.  0.  0.
161  1.60  0.  0.  0.
162  1.61  0.  0.  0.
163  1.62  0.  0.  0.
164  1.63  0.  0.  0.
165  1.64  0.  0.  0.
166  1.65  0.  0.  0.
167  1.66  0.  0.  0.
168  1.67  0.  0.  0.
169  1.68  0.  0.  0.
170  1.69  0.  0.  0.
171  1.70  0.  0.  0.
172  1.71  0.  0.  0.
173  1.72  0.  0.  0.
174  1.73  0.  0.  0.
175  1.74  0.  0.  0.
176  1.75  0.  0.  0.
177  1.76  0.  0.  0.
178  1.77  0.  0.  0.
179  1.78  0.  0.  0.
180  1.79  0.  0.  0.
181  1.80  0.  0.  0.
182  1.81  0.  0.  0.
183  1.82  0.  0.  0.
184  1.83  0.  0.  0.
185  1.84  0.  0.  0.
186  1.85  0.  0.  0.
187  1.86  0.  0.  0.
188  1.87  0.  0.  0.
189  1.88  0.  0.  0.
190  1.89  0.  0.  0.
191  1.90  0.  0.  0.
192  1.91  0.  0.  0.
193  1.92  0.  0.  0.
194  1.93  0.  0.  0.
195  1.94  0.  0.  0.
196  1.95  0.  0.  0.
197  1.96  0.  0.  0.
198  1.97  0.  0.  0.
199  1.98  0.  0.  0.
200  1.99  0.  0.  0.
201  2.00  0.  0.  0.
202  2.01  0.  0.  0.
203  2.02  0.  0.  0.
204  2.03  0.  0.  0.
205  2.04  0.  0.  0.
206  2.05  0.  0.  0.
207  2.06  0.  0.  0.
208  2.07  0.  0.  0.
209  2.08  0.  0.  0.
210  2.09  0.  0.  0.
211  2.10  0.  0.  0.
212  2.11  0.  0.  0.
213  2.12  0.  0.  0.
214  2.13  0.  0.  0.
215  2.14  0.  0.  0.
216  2.15  0.  0.  0.
217  2.16  0.  0.  0.
218  2.17  0.  0.  0.
219  2.18  0.  0.  0.
220  2.19  0.  0.  0.
221  2.20  0.  0.  0.
222  2.21  0.  0.  0.
223  2.22  0.  0.  0.
224  2.23  0.  0.  0.
225  2.24  0.  0.  0.
226  2.25  0.  0.  0.
227  2.26  0.  0.  0.
228  2.27  0.  0.  0.
229  2.28  0.  0.  0.
230  2.29  0.  0.  0.
231  2.30  0.  0.  0.
232  2.31  0.  0.  0.
233  2.32  0.  0.  0.
234  2.33  0.  0.  0.
235  2.34  0.  0.  0.
236  2.35  0.  0.  0.
237  2.36  0.  0.  0.
238  2.37  0.  0.  0.
239  2.38  0.  0.  0.
240  2.39  0.  0.  0.
241  2.40  0.  0.  0.
242  2.41  0.  0.  0.
243  2.42  0.  0.  0.
244  2.43  0.  0.  0.
245  2.44  0.  0.  0.
246  2.45  0.  0.  0.
247  2.46  0.  0.  0.
248  2.47  0.  0.  0.
249  2.48  0.  0.  0.
250  2.49  0.  0.  0.
251  2.50  0.  0.  0.
252  2.51  0.  0.  0.
253  2.52  0.  0.  0.
254  2.53  0.  0.  0.
255  2.54  0.  0.  0.
256  2.55  0.  0.  0.
257  2.56  0.  0.  0.
258  2.57  0.  0.  0.
259  2.58  0.  0.  0.
260  2.59  0.  0.  0.
261  2.60  0.  0.  0.
262  2.61  0.  0.  0.
263  2.62  0.  0.  0.
264  2.63  0.  0.  0.
265  2.64  0.  0.  0.
266  2.65  0.  0.  0.
267  2.66  0.  0.  0.
268  2.67  0.  0.  0.
269  2.68  0.  0.  0.
270  2.69  0.  0.  0.
271  2.70  0.  0.  0.
272  2.71  0.  0.  0.
273  2.72  0.  0.  0.
274  2.73  0.  0.  0.
275  2.74  0.  0.  0.
276  2.75  0.  0.  0.
277  2.76  0.  0.  0.
278  2.77  0.  0.  0.
279  2.78  0.  0.  0.
280  2.79  0.  0.  0.
281  2.80  0.  0.  0.
282  2.81  0.  0.  0.
283  2.82  0.  0.  0.
284  2.83  0.  0.  0.
285  2.84  0.  0.  0.
286  2.85  0.  0.  0.
287  2.86  0.  0.  0.
288  2.87  0.  0.  0.
289  2.88  0.  0.  0.
290  2.89  0.  0.  0.
291  2.90  0.  0.  0.
292  2.91  0.  0.  0.
293  2.92  0.  0.  0.
294  2.93  0.  0.  0.
295  2.94  0.  0.  0.
296  2.95  0.  0.  0.
297  2.96  0.  0.  0.
298  2.97  0.  0.  0.
299  2.98  0.  0.  0.
300  2.99  0.  0.  0.
301  3.00  0.  0.  0.
302  3.01  0.  0.  0.
303  3.02  0.  0.  0.
304  3.03  0.  0.  0.
305  3.04  0.  0.  0.
306  3.05  0.  0.  0.
307  3.06  0.  0.  0.
308  3.07  0.  0.  0.
309  3.08  0.  0.  0.
310  3.09  0.  0.  0.
311  3.10  0.  0.  0.
312  3.11  0.  0.  0.
313  3.12  0.  0.  0.
314  3.13  0.  0.  0.
315  3.14  0.  0.  0.
316  3.15  0.  0.  0.
317  3.16  0.  0.  0.
318  3.17  0.  0.  0.
319  3.18  0.  0.  0.
320  3.19  0.  0.  0.
321  3.20  0.  0.  0.
322  3.21  0.  0.  0.
323  3.22  0.  0.  0.
324  3.23  0.  0.  0.
325  3.24  0.  0.  0.
326  3.25  0.  0.  0.
327  3.26  0.  0.  0.
328  3.27  0.  0.  0.
329  3.28  0.  0.  0.
330  3.29  0.  0.  0.
331  3.30  0.  0.  0.
332  3.31  0.  0.  0.
333  3.32  0.  0.  0.
334  3.33  0.  0.  0.
335  3.34  0.  0.  0.
336  3.35  0.  0.  0.
337  3.36  0.  0.  0.
338  3.37  0.  0.  0.
339  3.38  0.  0.  0.
340  3.39  0.  0.  0.
341  3.40  0.  0.  0.
342  3.41  0.  0.  0.
343  3.42  0.  0.  0.
344  3.43  0.  0.  0.
345  3.44  0.  0.  0.
346  3.45  0.  0.  0.
347  3.46  0.  0.  0.
348  3.47  0.  0.  0.
349  3.48  0.  0.  0.
350  3.49  0.  0.  0.
351  3.50  0.  0.  0.
352  3.51  0.  0.  0.
353  3.52  0.  0.  0.
354  3.53  0.  0.  0.
355  3.54  0.  0.  0.
356  3.55  0.  0.  0.
357  3.56  0.  0.  0.
358  3.57  0.  0.  0.
359  3.58  0.  0.  0.
360  3.59  0.  0.  0.
361  3.60  0.  0.  0.
362  3.61  0.  0.  0.
363  3.62  0.  0.  0.
364  3.63  0.  0.  0.
365  3.64  0.  0.  0.
366  3.65  0.  0.  0.
367  3.66  0.  0.  0.
368  3.67  0.  0.  0.
369  3.68  0.  0.  0.
370  3.69  0.  0.  0.
371  3.70  0.  0.  0.
372  3.71  0.  0.  0.
373  3.72  0.  0.  0.
374  3.73  0.  0.  0.
375  3.74  0.  0.  0.
376  3.75  0.  0.  0.
377  3.76  0.  0.  0.
378  3.77  0.  0.  0.
379  3.78  0.  0.  0.
380  3.79  0.  0.  0.
381  3.80  0.  0.  0.
382  3.81  0.  0.  0.
383  3.82  0.  0.  0.
384  3.83  0.  0.  0.
385  3.84  0.  0.  0.
386  3.85  0.  0.  0.
387  3.86  0.  0.  0.
388  3.87  0.  0.  0.
389  3.88  0.  0.  0.
390  3.89  0.  0.  0.
391  3.90  0.  0.  0.
392  3.91  0.  0.  0.
393  3.92  0.  0.  0.
394  3.93  0.  0.  0.
395  3.94  0.  0.  0.
396  3.95  0.  0.  0.
397  3.96  0.  0.  0.
398  3.97  0.  0.  0.
399  3.98  0.  0.  0.
400  3.99  0.  0.  0.
401  4.00  0.  0.  0.
402  4.01  0.  0.  0.
403  4.02  0.  0.  0.
404  4.03  0.  0.  0.
405  4.04  0.  0.  0.
406  4.05  0.  0.  0.
407  4.06  0.  0.  0.
408  4.07  0.  0.  0.
409  4.08  0.  0.  0.
410  4.09  0.  0.  0.
411  4.10  0.  0.  0.
412  4.11  0.  0.  0.
413  4.12  0.  0.  0.
414  4.13  0.  0.  0.
415  4.14  0.  0.  0.
416  4.15  0.  0.  0.
417  4.16  0.  0.  0.
418  4.17  0.  0.  0.
419  4.18  0.  0.  0.
420  4.19  0.  0.  0.
421  4.20  0.  0.  0.
422  4.21  0.  0.  0.
423  4.22  0.  0.  0.
424  4.23  0.  0.  0.
425  4.24  0.  0.  0.
426  4.25  0.  0.  0.
427  4.26  0.  0.  0.
428  4.27  0.  0.  0.
429  4.28  0.  0.  0.
430  4.29  0.  0.  0.
431  4.30  0.  0.  0.
432  4.31  0.  0.  0.
433  4.32  0.  0.  0.
434  4.33  0.  0.  0.
435  4.34  0.  0.  0.
436  4.35  0.  0.  0.
437  4.36  0.  0.  0.
438  4.37  0.  0.  0.
439  4.38  0.  0.  0.
440  4.39  0.  0.  0.
441  4.40  0.  0.  0.
442  4.41  0.  0.  0.
443  4.42  0.  0.  0.
444  4.43  0.  0.  0.
445  4.44  0.  0.  0.
446  4.45  0.  0.  0.
447  4.46  0.  0.  0.
448  4.47  0.  0.  0.
449  4.48  0.  0.  0.
450  4.49  0.  0.  0.
451  4.50  0.  0.  0.
452  4.51  0.  0.  0.
453  4.52  0.  0.  0.
454  4.53  0.  0.  0.
455  4.54  0.  0.  0.
456  4.55  0.  0.  0.
457  4.56  0.  0.  0.
458  4.57  0.  0.  0.
459  4.58  0.  0.  0.
460  4.59  0.  0.  0.
461  4.60  0.  0.  0.
462  4.61  0.  0.  0.
463  4.62  0.  0.  0.
464  4.63  0.  0.  0.
465  4.64  0.  0.  0.
466  4.65  0.  0.  0.
467  4.66  0.  0.  0.
468  4.67  0.  0.  0.
469  4.68  0.  0.  0.
470  4.69  0.  0.  0.
471  4.70  0.  0.  0.
472  4.71  0.  0.  0.
473  4.72  0.  0.  0.
474  4.73  0.  0.  0.
475  4.74  0.  0.  0.
476  4.75  0.  0.  0.
477  4.76  0.  0.  0.
478  4.77  0.  0.  0.
479  4.78  0.  0.  0.
480  4.79  0.  0.  0.
481  4.80  0.  0.  0.
482  4.81  0.  0.  0.
483  4.82  0.  0.  0.
484  4.83  0.  0.  0.
485  4.84  0.  0.  0.
486  4.85  0.  0.  0.
487  4.86  0.  0.  0.
488  4.87  0.  0.  0.
489  4.88  0.  0.  0.
490  4.89  0.  0.  0.
491  4.90  0.  0.  0.
492  4.91  0.  0.  0.
493  4.92  0.  0.  0.
494  4.93  0.  0.  0.
495  4.94  0.  0.  0.
496  4.95  0.  0.  0.
497  4.96  0.  0.  0.
498  4.97  0.  0.  0.
499  4.98  0.  0.  0.
500  4.99  0.  0.  0.
501  5.00  0.  0.  0.
502  5.01  0.  0.  0.
503  5.02  0.  0.  0.
504  5.03  0.  0.  0.
505  5.04  0.  0.  0.
506  5.05  0.  0.  0.
507  5.06  0.  0.  0.
508  5.07  0.  0.  0.
509  5.08  0.  0.  0.
510  5.09  0.  0.  0.
511  5.10  0.  0.  0.
512  5.11  0.  0.  0.
513  5.12  0.  0.  0.
514  5.13  0.  0.  0.
515  5.14  0.  0.  0.
516  5.15  0.  0.  0.
517  5.16  0.  0.  0.
518  5.17  0.  0.  0.
519  5.18  0.  0.  0.
520  5.19  0.  0.  0.
521  5.20  0.  0.  0.
522  5.21  0.  0.  0.
523  5.22  0.  0.  0.
524  5.23  0.  0.  0.
525  5.24  0.  0.  0.
526  5.25  0.  0.  0.
527  5.26  0.  0.  0.
528  5.27  0.  0.  0.
529  5.28  0.  0.  0.
530  5.29  0.  0.  0.
531  5.30  0.  0.  0.
532  5.31  0.  0.  0.
533  5.32  0.  0.  0.
534  5.33  0.  0.  0.
535  5.34  0.  0.  0.
536  5.35  0.  0.  0.
537  5.36  0.  0.  0.
538  5.37  0.  0.  0.
539  5.38  0.  0.  0.
540  5.39  0.  0.  0.
541  5.40  0.  0.  0.
542  5.41  0.  0.  0.
543  5.42  0.  0.  0.
544  5.43  0.  0.  0.
545  5.44  0.  0.  0.
546  5.45  0.  0.  0.
547  5.46  0.  0.  0.
548  5.47  0.  0.  0.
549  5.48  0.  0.  0.
550  5.49  0.  0.  0.
551  5.50  0.  0.  0.
552  5.51  0.  0.  0.
553  5.52  0.  0.  0.
554  5.53  0.  0.  0.
555  5.54  0.  0.  0.
556  5.55  0.  0.  0.
557  5.56  0.  0.  0.
558  5.57  0.  0.  0.
559  5.58  0.  0.  0.
560  5.59  0.  0.  0.
561  5.60  0.  0.  0.
562  5.61  0.  0.  0.
563  5.62  0.  0.  0.
564  5.63  0.  0.  0.
565  5.64  0.  0.  0.
566  5.65  0.  0.  0.
567  5.66  0.  0.  0.
568  5.67  0.  0.  0.
569  5.68  0.  0.  0.
570  5.69  0.  0.  0.
571  5.70  0.  0.  0.
572  5.71  0.  0.  0.
573  5.72  0.  0.  0.
574  5.73  0.  0.  0.
575  5.74  0.  0.  0.
576  5.75  0.  0.  0.
577  5.76  0.  0.  0.
578  5.77  0.  0.  0.
579  5.78  0.  0.  0.
580  5.79  0.  0.  0.
581  5.80  0.  0.  0.
582  5.81  0.  0.  0.
583  5.82  0.  0.  0.
584  5.83  0.  0.  0.
585  5.84  0.  0.  0.
586  5.85  0.  0.  0.
587  5.86  0.  0.  0.
588  5.87  0.  0.  0.
589  5.88  0.  0.  0.
590  5.89  0.  0.  0.
591  5.90  0.  0.  0.
592  5.91  0.  0.  0.
593  5.92  0.  0.  0.
594  5.93  0.  0.  0.
595  5.94  0.  0.  0.
596  5.95  0.  0.  0.
597  5.96  0.  0.  0.
598  5.97  0.  0.  0.
599  5.98  0.  0.  0.
600  5.99  0.  0.  0.
1                         6.7501702509717E+00 -1.5681094987074E+00
1  0.0000000000000E+00 -7.8155825700144E-09 -1.1438238332190E-08
2  1.0000000000000E-02  4.5566084543369E-03  4.3323378305318E-04
3  2.0000000000000E-02  1.8186603288973E-02  1.7409189155751E-03
4  3.0000000000000E-02  4.0770658718487E-02  3.9467586582830E-03
5  4.0000000000000E-02  7.2110457984379E-02  7.0894392350107E-03
6  5.0000000000000E-02  1.1192955638649E-01  1.1221427889807E-02
7  6.0000000000000E-02  1.5987463554408E-01  1.6407342964961E-02
8  7.0000000000000E-02  2.1551719170824E-01  2.2721946620141E-02
9  8.0000000000000E-02  2.7835570876306E-01  3.0247822251100E-02
10  9.0000000000000E-02  3.4781837130337E-01  3.9072807984461E-02
11  1.0000000000000E-01  4.2326637444638E-01  4.9287264510359E-02
12  1.1000000000000E-01  5.0399788455133E-01  6.0981259740511E-02
13  1.2000000000000E-01  5.8925269866815E-01  7.4241754212881E-02
14  1.3000000000000E-01  6.7821764036263E-01  8.9149869772657E-02
15  1.4000000000000E-01  7.7003271577987E-01  1.0577831990845E-01
16  1.5000000000000E-01  8.6379803678172E-01  1.2418907337761E-01
17  1.6000000000000E-01  9.5858149824122E-01  1.4443131367055E-01
18  1.7000000000000E-01  1.0534271747444E+00  1.6653974578049E-01
19  1.8000000000000E-01  1.1473643787871E+00  1.9053328907098E-01
20  1.9000000000000E-01  1.2394172988976E+00  2.1641418123346E-01
21  2.0000000000000E-01  1.3286151128390E+00  2.4416750390675E-01
22  2.1000000000000E-01  1.4140024490611E+00  2.7376112601233E-01
23  2.2000000000000E-01  1.4946500497466E+00  3.0514604677287E-01
24  2.3000000000000E-01  1.5696654719817E+00  3.3825710723402E-01
25  2.4000000000000E-01  1.6382036505124E+00  3.7301402737652E-01
26  2.5000000000000E-01  1.6994771368827E+00  4.0932271600563E-01
27  2.6000000000000E-01  1.7527658259723E+00  4.4707679289101E-01
28  2.7000000000000E-01  1.7974259824222E+00  4.8615925737093E-01
29  2.8000000000000E-01  1.8328983863094E+00  5.2644423500768E-01
30  2.9000000000000E-01  1.8587154296972E+00  5.6779873396602E-01
31  3.0000000000000E-01  1.8745070131412E+00  6.1008434555833E-01
32  3.1000000000000E-01  1.8800051134736E+00  6.5315882873522E-01
33  3.2000000000000E-01  1.8750469206651E+00  6.9687752597465E-01
34  3.3000000000000E-01  1.8595764715407E+00  7.4109456772541E-01
35  3.4000000000000E-01  1.8336447407564E+00  7.8566383389967E-01
36  3.5000000000000E-01  1.7974081837489E+00  8.3043965343128E-01
37  3.6000000000000E-01  1.7511257613207E+00  8.7527723611820E-01
38  3.7000000000000E-01  1.6951545100358E+00  9.2003284431815E-01
39  3.8000000000000E-01  1.6299437555919E+00  9.6456372502734E-01
40  3.9000000000000E-01  1.5560280967653E+00  1.0087278349133E+00
41  4.0000000000000E-01  1.4740193144206E+00  1.0523834014997E+00
42  4.1000000000000E-01  1.3845973825798E+00  1.0953883724670E+00
43  4.2000000000000E-01  1.2885007759353E+00  1.1375998115614E+00
44  4.3000000000000E-01  1.1865162799148E+00  1.1788733036034E+00
45  4.4000000000000E-01  1.0794685151065E+00  1.2190624323583E+00
46  4.5000000000000E-01  9.6820938737027E-01  1.2580183934842E+00
47  4.6000000000000E-01  8.5360766835111E-01  1.2955898004204E+00
48  4.7000000000000E-01  7.3653889864200E-01  1.3316227340578E+00
49  4.8000000000000E-01  6.1787578799119E-01  1.3659610775661E+00
50  4.9000000000000E-01  4.9847926436723E-01  1.3984471661870E+00
51  5.0000000000000E-01  3.7919029721905E-01  1.4289227685512E+00
52  5.1000000000000E-01  2.6082259085886E-01  1.4572304016440E+00
53  5.2000000000000E-01  1.4415621262412E-01  1.4832149664800E+00
54  5.3000000000000E-01  2.9932188473177E-02  1.5067256764347E+00
55  5.4000000000000E-01 -8.1151932902889E-02  1.5276182356362E+00
56  5.5000000000000E-01 -1.8844557637580E-01  1.5457572114152E+00
57  5.6000000000000E-01 -2.9134775336849E-01  1.5610185331307E+00
58  5.7000000000000E-01 -3.8930887156535E-01  1.5732920402186E+00
59  5.8000000000000E-01 -4.8183184066364E-01  1.5824839954982E+00
60  5.9000000000000E-01 -5.6847258765869E-01  1.5885194759502E+00
61  6.0000000000000E-01 -6.4884010374786E-01  1.5913445525877E+00
62  6.1000000000000E-01 -7.2259614770267E-01  1.5909281737921E+00
63  6.2000000000000E-01 -7.8945472747636E-01  1.5872636725721E+00
64  6.3000000000000E-01 -8.4918147309995E-01  1.5803698274921E+00
65  6.4000000000000E-01 -9.0159300001175E-01  1.5702914192456E+00
66  6.5000000000000E-01 -9.4655634351370E-01  1.5570992396479E+00
67  6.6000000000000E-01 -9.8398852288917E-01  1.5408895267025E+00
68  6.7000000000000E-01 -1.0138562688460E+00  1.5217828178036E+00
69  6.8000000000000E-01 -1.0361759214791E+00  1.4999222324130E+00
70  6.9000000000000E-01 -1.0510134790694E+00  1.4754712150302E+00
71  7.0000000000000E-01 -1.0584847519789E+00  1.4486107882396E+00
72  7.1000000000000E-01 -1.0587555518603E+00  1.4195363833655E+00
73  7.2000000000000E-01 -1.0520418255374E+00  1.3884543321308E+00
74  7.3000000000000E-01 -1.0386096262366E+00  1.3555781160696E+00
75  7.4000000000000E-01 -1.0187748032663E+00  1.3211244807593E+00
76  7.5000000000000E-01 -9.9290228541734E-01  1.2853095287680E+00
77  7.6000000000000E-01 -9.6140483377303E-01  1.2483449082531E+00
78  7.7000000000000E-01 -9.2474114649013E-01  1.2104342131949E+00
79  7.8000000000000E-01 -8.8341321140659E-01  1.1717697062762E+00
80  7.9000000000000E-01 -8.3796282174522E-01  1.1325294665191E+00
81  8.0000000000000E-01 -7.8896719516198E-01  1.0928750512080E+00
82  8.1000000000000E-01 -7.3703366613235E-01  1.0529497457553E+00
83  8.2000000000000E-01 -6.8279345516417E-01  1.0128774565030E+00
84  8.3000000000000E-01 -6.2689455437430E-01  9.7276228062239E-01
85  8.4000000000000E-01 -5.6999380623295E-01  9.3268876498066E-01
86  8.5000000000000E-01 -5.1274828933324E-01  8.9272284285178E-01
87  8.6000000000000E-01 -4.5580616041607E-01  8.5291341446979E-01
88  8.7000000000000E-01 -3.9979713411812E-01  8.1329451546059E-01
89  8.8000000000000E-01 -3.4532280963028E-01  7.7388799693525E-01
90  8.9000000000000E-01 -2.9294707539813E-01  7.3470662321975E-01
91  9.0000000000000E-01 -2.4318683808187E-01  6.9575747848857E-01
92  9.1000000000000E-01 -1.9650332935867E-01  6.5704556251718E-01
93  9.2000000000000E-01 -1.5329424319170E-01  6.1857744879733E-01
94  9.3000000000000E-01 -1.1388694658668E-01  5.8036487565509E-01
95  9.4000000000000E-01 -7.8532988603595E-02  5.4242814290275E-01
96  9.5000000000000E-01 -4.7404105774023E-02  5.0479919291594E-01
97  9.6000000000000E-01 -2.0589887717793E-02  4.6752426566013E-01
98  9.7000000000000E-01  1.9027744546798E-03  4.3066603175420E-01
99  9.8000000000000E-01  2.0148381249786E-02  3.9430512565831E-01
100  9.9000000000000E-01  3.4299634850653E-02  3.5854102188682E-01
101  1.0000000000000E+00  4.4582395434571E-02  3.2349222006403E-01
102  1.0100000000000E+00  5.1288867871170E-02  2.8929572883873E-01
103  1.0200000000000E+00  5.4769156912949E-02  2.5610586329520E-01
104  1.0300000000000E+00  5.5421380400874E-02  2.2409239469264E-01
105  1.0400000000000E+00  5.3680577024773E-02  1.9343811423349E-01
106  1.0500000000000E+00  5.0006686176160E-02  1.6433589328098E-01
107  1.0600000000000E+00  4.4871911028521E-02  1.3698534030724E-01
108  1.0700000000000E+00  3.8747800820150E-02  1.1158916914271E-01
109  1.0800000000000E+00  3.2092419887231E-02  8.8349412627180E-02
110  1.0900000000000E+00  2.5337832420479E-02  6.7463534371332E-02
111  1.1000000000000E+00  1.8876220525083E-02  4.9119496419997E-02
112  1.1100000000000E+00  1.3002503537784E-02  3.3463588239784E-02
113  1.1200000000000E+00  8.0121479902083E-03  2.0655108527158E-02
114  1.1300000000000E+00  4.1467806001504E-03  1.0842709989171E-02
115  1.1400000000000E+00  1.5393838263269E-03  4.1352550119861E-03
116  1.1500000000000E+00  2.1506805556841E-04  6.0179545985113E-04
117  1.1600000000000E+00 -1.1199574624698E-05 -3.2471436617353E-05
118  1.1700000000000E+00  1.6669427057466E-08  4.7548371854082E-08
119  1.18 -0. -0.
120  1.19  0.  0.
121  1.20  0.  0.
122  1.21  0.  0.
123  1.22  0.  0.
124  1.23  0.  0.
125  1.24  0.  0.
126  1.25  0.  0.
127  1.26  0.  0.
128  1.27  0.  0.
129  1.28  0.  0.
130  1.29  0.  0.
131  1.30  0.  0.
132  1.31  0.  0.
133  1.32  0.  0.
134  1.33  0.  0.
135  1.34  0.  0.
136  1.35  0.  0.
137  1.36  0.  0.
138  1.37  0.  0.
139  1.38  0.  0.
140  1.39  0.  0.
141  1.40  0.  0.
142  1.41  0.  0.
143  1.42  0.  0.
144  1.43  0.  0.
145  1.44  0.  0.
146  1.45  0.  0.
147  1.46  0.  0.
148  1.47  0.  0.
149  1.48  0.  0.
150  1.49  0.  0.
151  1.50  0.  0.
152  1.51  0.  0.
153  1.52  0.  0.
154  1.53  0.  0.
155  1.54  0.  0.
156  1.55  0.  0.
157  1.56  0.  0.
158  1.57  0.  0.
159  1.58  0.  0.
160  1.59  0.  0.
161  1.60  0.  0.
162  1.61  0.  0.
163  1.62  0.  0.
164  1.63  0.  0.
165  1.64  0.  0.