No    ONCVPSP-4.0.1  r_core=   1.15610   1.15610   1.15610   1.15610
102.0000     42.0000      231012    zatom,zion,pspd
8   -1012   3     4   600     0    pspcod,pspxc,lmax,lloc,mmax,r2well
5.99000000  5.00000000  0.00000000    rchrg fchrg qchrg
3     4     3     2    nproj
3     1           extension_switch
4     4     3    nprojso
0                         2.3004375255918E+01  2.5456603334996E+00 -1.6798775659003E+00
1  0.0000000000000E+00 -1.6042110972947E-08  5.5686257438570E-08 -9.3756424845992E-10
2  1.0000000000000E-02  1.6413890171263E-01 -4.8691079166991E-02  4.0803839748116E-02
3  2.0000000000000E-02  3.2710367457837E-01 -9.6274252445299E-02  8.1465562429030E-02
4  3.0000000000000E-02  4.8773140177357E-01 -1.4166160203990E-01  1.2184440964499E-01
5  4.0000000000000E-02  6.4488141968151E-01 -1.8380469956741E-01  1.6180232626805E-01
6  5.0000000000000E-02  7.9744602176405E-01 -2.2171314903235E-01  2.0120527716422E-01
7  6.0000000000000E-02  9.4436066723748E-01 -2.5447172978899E-01  2.3992452274657E-01
8  7.0000000000000E-02  1.0846135491928E+00 -2.8125574135874E-01  2.7783784080360E-01
9  8.0000000000000E-02  1.2172543928427E+00 -3.0134420765970E-01  3.1483068298649E-01
10  9.0000000000000E-02  1.3414023736069E+00 -3.1413066411533E-01  3.5079725543354E-01
11  1.0000000000000E-01  1.4562530661350E+00 -3.1913132496984E-01  3.8564151421503E-01
12  1.1000000000000E-01  1.5610843584119E+00 -3.1599050740895E-01  4.1927806754813E-01
13  1.2000000000000E-01  1.6552612890396E+00 -3.0448327105310E-01  4.5163297800765E-01
14  1.3000000000000E-01  1.7382397898787E+00 -2.8451531324781E-01  4.8264445919519E-01
15  1.4000000000000E-01  1.8095693396831E+00 -2.5612023955321E-01  5.1226346248016E-01
16  1.5000000000000E-01  1.8688945564556E+00 -2.1945440225371E-01  5.4045415045299E-01
17  1.6000000000000E-01  1.9159557762990E+00 -1.7478956512806E-01  5.6719425460181E-01
18  1.7000000000000E-01  1.9505886839644E+00 -1.2250370797385E-01  5.9247531541908E-01
19  1.8000000000000E-01  1.9727230746034E+00 -6.3070327693100E-02  6.1630280365575E-01
20  1.9000000000000E-01  1.9823808370572E+00  2.9533772312195E-03  6.3869612177055E-01
21  2.0000000000000E-01  1.9796732561289E+00  7.4939036165201E-02  6.5968848478798E-01
22  2.1000000000000E-01  1.9647977345903E+00  1.5219994558344E-01  6.7932667980898E-01
23  2.2000000000000E-01  1.9380340352272E+00  2.3400382702834E-01  6.9767070335266E-01
24  2.3000000000000E-01  1.8997401392164E+00  3.1958513921669E-01  7.1479327559570E-01
25  2.4000000000000E-01  1.8503478098750E+00  4.0815661876871E-01  7.3077923047327E-01
26  2.5000000000000E-01  1.7903579407782E+00  4.9891977387196E-01  7.4572478057496E-01
27  2.6000000000000E-01  1.7203357549376E+00  5.9107411384481E-01  7.5973665587059E-01
28  2.7000000000000E-01  1.6409059078064E+00  6.8382496268292E-01  7.7293111559938E-01
29  2.8000000000000E-01  1.5527475319977E+00  7.7638977372479E-01  7.8543283320295E-01
30  2.9000000000000E-01  1.4565892464905E+00  8.6800293285603E-01  7.9737365503074E-01
31  3.0000000000000E-01  1.3532041384541E+00  9.5791910649018E-01  8.0889123472842E-01
32  3.1000000000000E-01  1.2434047123456E+00  1.0454152552357E+00  8.2012754676098E-01
33  3.2000000000000E-01  1.1280377892502E+00  1.1297914922279E+00  8.3122728442729E-01
34  3.3000000000000E-01  1.0079793301076E+00  1.2103710143056E+00  8.4233614998108E-01
35  3.4000000000000E-01  8.8412914994830E-01  1.2864993726784E+00  8.5359904705401E-01
36  3.5000000000000E-01  7.5740548690689E-01  1.3575433759496E+00  8.6515818842982E-01
37  3.6000000000000E-01  6.2873938977754E-01  1.4228899313257E+00  8.7715113527684E-01
38  3.7000000000000E-01  4.9906889131731E-01  1.4819451290244E+00  8.8970878712442E-01
39  3.8000000000000E-01  3.6933294129816E-01  1.5341338602897E+00  9.0295334506620E-01
40  3.9000000000000E-01  2.4046508324689E-01  1.5789002315694E+00  9.1699627377871E-01
41  4.0000000000000E-01  1.1338687154248E-01  1.6157089973171E+00  9.3193629083739E-01
42  4.1000000000000E-01 -1.0998959420821E-02  1.6440481830774E+00  9.4785741436811E-01
43  4.2000000000000E-01 -1.3181554552460E-01  1.6634330108825E+00  9.6482710216828E-01
44  4.3000000000000E-01 -2.4821911636139E-01  1.6734111728268E+00  9.8289451694806E-01
45  4.4000000000000E-01 -3.5940632734181E-01  1.6735694284957E+00  1.0020889531699E+00
46  4.5000000000000E-01 -4.6462161827654E-01  1.6635414304358E+00  1.0224184610095E+00
47  4.6000000000000E-01 -5.6316449971302E-01  1.6430166118166E+00  1.0438687021501E+00
48  4.7000000000000E-01 -6.5439665373868E-01  1.6117499046366E+00  1.0664020703951E+00
49  4.8000000000000E-01 -7.3774872404163E-01  1.5695719978653E+00  1.0899571074296E+00
50  4.9000000000000E-01 -8.1272666136586E-01  1.5163997952191E+00  1.1144482404621E+00
51  5.0000000000000E-01 -8.7891748562615E-01  1.4522466939176E+00  1.1397658639817E+00
52  5.1000000000000E-01 -9.3599432525047E-01  1.3772322804804E+00  1.1657767825320E+00
53  5.2000000000000E-01 -9.8372059804816E-01  1.2915910286356E+00  1.1923250253123E+00
54  5.3000000000000E-01 -1.0219532061642E+00  1.1956795884937E+00  1.2192330367099E+00
55  5.4000000000000E-01 -1.0506446304142E+00  1.0899822754865E+00  1.2463032396680E+00
56  5.5000000000000E-01 -1.0698438262974E+00  9.7511440188184E-01  1.2733199612876E+00
57  5.6000000000000E-01 -1.0796958448778E+00  8.5182314208404E-01  1.3000517024230E+00
58  5.7000000000000E-01 -1.0804401260168E+00  7.2098568406167E-01  1.3262537254580E+00
59  5.8000000000000E-01 -1.0724074384794E+00  5.8360449127073E-01  1.3516709271449E+00
60  5.9000000000000E-01 -1.0560154704989E+00  4.4079958013937E-01  1.3760409565600E+00
61  6.0000000000000E-01 -1.0317631046338E+00  2.9379780498626E-01  1.3990975320577E+00
62  6.1000000000000E-01 -1.0002234413140E+00  1.4391923236640E-01  1.4205739057905E+00
63  6.2000000000000E-01 -9.6203566544277E-01 -7.4392226663192E-03  1.4402064200533E+00
64  6.3000000000000E-01 -9.1789587889042E-01 -1.5882263800227E-01  1.4577380965556E+00
65  6.4000000000000E-01 -8.6854704782184E-01 -3.0873906089237E-01  1.4729221978250E+00
66  6.5000000000000E-01 -8.1476823672596E-01 -4.5568220254998E-01  1.4855256993861E+00
67  6.6000000000000E-01 -7.5736332005115E-01 -5.9815537090583E-01  1.4953326121704E+00
68  6.7000000000000E-01 -6.9714937688226E-01 -7.3469611123325E-01  1.5021470968043E+00
69  6.8000000000000E-01 -6.3494498365428E-01 -8.6390098886203E-01  1.5057963149512E+00
70  6.9000000000000E-01 -5.7155862415630E-01 -9.8444992875770E-01  1.5061329676812E+00
71  7.0000000000000E-01 -5.0777743487208E-01 -1.0951295241364E+00  1.5030374767931E+00
72  7.1000000000000E-01 -4.4435649702790E-01 -1.1948547407633E+00  1.4964197719755E+00
73  7.2000000000000E-01 -3.8200887473559E-01 -1.2826884748473E+00  1.4862206545011E+00
74  7.3000000000000E-01 -3.2139658164950E-01 -1.3578584696585E+00  1.4724127165933E+00
75  7.4000000000000E-01 -2.6312263706643E-01 -1.4197711578317E+00  1.4550008044857E+00
76  7.5000000000000E-01 -2.0772434699054E-01 -1.4680220709648E+00  1.4340220222838E+00
77  7.6000000000000E-01 -1.5566791706919E-01 -1.5024025433984E+00  1.4095452827997E+00
78  7.7000000000000E-01 -1.0734447328619E-01 -1.5229025304360E+00  1.3816704203489E+00
79  7.8000000000000E-01 -6.3067533741074E-02 -1.5297094599648E+00  1.3505268888439E+00
80  7.9000000000000E-01 -2.3071941651066E-02 -1.5232031375550E+00  1.3162720761954E+00
81  8.0000000000000E-01  1.2485763201988E-02 -1.5039468256456E+00  1.2790892728565E+00
82  8.1000000000000E-01  4.3525589099845E-02 -1.4726747144397E+00  1.2391853381564E+00
83  8.2000000000000E-01  7.0041037333349E-02 -1.4302760927778E+00  1.1967881127493E+00
84  8.3000000000000E-01  9.2094858630657E-02 -1.3777766089325E+00  1.1521436289528E+00
85  8.4000000000000E-01  1.0981375567248E-01 -1.3163170816338E+00  1.1055131729091E+00
86  8.5000000000000E-01  1.2338218567874E-01 -1.2471303787121E+00  1.0571702533594E+00
87  8.6000000000000E-01  1.3303543192001E-01 -1.1715169229734E+00  1.0073975313768E+00
88  8.7000000000000E-01  1.3905212305599E-01 -1.0908194111821E+00  9.5648376371509E-01
89  8.8000000000000E-01  1.4174638425596E-01 -1.0063973416742E+00  9.0472080957589E-01
90  8.9000000000000E-01  1.4145980409065E-01 -9.1960193902821E-01  8.5240074667997E-01
91  9.0000000000000E-01  1.3855339630968E-01 -8.3175204068643E-01  7.9981313768946E-01
92  9.1000000000000E-01  1.3339972608728E-01 -7.4411147127978E-01  7.4724248241145E-01
93  9.2000000000000E-01  1.2637535649698E-01 -6.5786837687056E-01  6.9496588499136E-01
94  9.3000000000000E-01  1.1785375334685E-01 -5.7411692502201E-01  6.4325095864912E-01
95  9.4000000000000E-01  1.0819876564761E-01 -4.9384169950892E-01  5.9235398360506E-01
96  9.5000000000000E-01  9.7758775529472E-02 -4.1790503277622E-01  5.4251832685809E-01
97  9.6000000000000E-01  8.6861586088740E-02 -3.4703742743188E-01  4.9397312559357E-01
98  9.7000000000000E-01  7.5810089146540E-02 -2.8183112263152E-01  4.4693222936712E-01
99  9.8000000000000E-01  6.4878727993719E-02 -2.2273676482932E-01  4.0159338998273E-01
100  9.9000000000000E-01  5.4310743611085E-02 -1.7006304763520E-01  3.5813768228521E-01
101  1.0000000000000E+00  4.4316167284045E-02 -1.2397909490122E-01  3.1672913402437E-01
102  1.0100000000000E+00  3.5070498653745E-02 -8.4519277094386E-02  2.7751453861151E-01
103  1.0200000000000E+00  2.6713986651903E-02 -5.1590075627655E-02  2.4062342103802E-01
104  1.0300000000000E+00  1.9351411956243E-02 -2.4978544943416E-02  2.0616812450216E-01
105  1.0400000000000E+00  1.3052254039779E-02 -4.3618694613401E-03  1.7424398341651E-01
106  1.0500000000000E+00  7.8511138983444E-03  1.0682526783928E-02  1.4492954744139E-01
107  1.0600000000000E+00  3.7482553506283E-03  2.0666885039984E-02  1.1828682099021E-01
108  1.0700000000000E+00  7.1012358726568E-04  2.6183608678401E-02  9.4361483248619E-02
109  1.0800000000000E+00 -1.3302886856440E-03  2.7896886314754E-02  7.3183070707314E-02
110  1.0900000000000E+00 -2.4734536744703E-03  2.6536287762104E-02  5.4764967307904E-02
111  1.1000000000000E+00 -2.8553770391853E-03  2.2897708466542E-02  3.9102254988873E-02
112  1.1100000000000E+00 -2.6799698200720E-03  1.7945134083952E-02  2.6126514233272E-02
113  1.1200000000000E+00 -2.1271521402873E-03  1.2503315870542E-02  1.5811441568444E-02
114  1.1300000000000E+00 -1.3742496929462E-03  7.3001608469745E-03  8.1361139834944E-03
115  1.1400000000000E+00 -6.2591097258531E-04  3.0606418934546E-03  3.0410214017562E-03
116  1.1500000000000E+00 -1.0644875825263E-04  4.8507057819286E-04  4.3360506425171E-04
117  1.1600000000000E+00  6.3673163892520E-06 -2.7785865005348E-05 -2.3033339197319E-05
118  1.1700000000000E+00 -8.9558470234712E-09  3.9762618339618E-08  3.3936932120457E-08
119  1.18  0.  0.  0.
120  1.19  0.  0.  0.
121  1.20  0.  0.  0.
122  1.21  0.  0.  0.
123  1.22  0.  0.  0.
124  1.23  0.  0.  0.
125  1.24  0.  0.  0.
126  1.25  0.  0.  0.
127  1.26  0.  0.  0.
128  1.27  0.  0.  0.
129  1.28  0.  0.  0.
130  1.29  0.  0.  0.
131  1.30  0.  0.  0.
132  1.31  0.  0.  0.
133  1.32  0.  0.  0.
134  1.33  0.  0.  0.
135  1.34  0.  0.  0.
136  1.35  0.  0.  0.
137  1.36  0.  0.  0.
138  1.37  0.  0.  0.
139  1.38  0.  0.  0.
140  1.39  0.  0.  0.
141  1.40  0.  0.  0.
142  1.41  0.  0.  0.
143  1.42  0.  0.  0.
144  1.43  0.  0.  0.
145  1.44  0.  0.  0.
146  1.45  0.  0.  0.
147  1.46  0.  0.  0.
148  1.47  0.  0.  0.
149  1.48  0.  0.  0.
150  1.49  0.  0.  0.
151  1.50  0.  0.  0.
152  1.51  0.  0.  0.
153  1.52  0.  0.  0.
154  1.53  0.  0.  0.
155  1.54  0.  0.  0.
156  1.55  0.  0.  0.
157  1.56  0.  0.  0.
158  1.57  0.  0.  0.
159  1.58  0.  0.  0.
160  1.59  0.  0.  0.
161  1.60  0.  0.  0.
162  1.61  0.  0.  0.
163  1.62  0.  0.  0.
164  1.63  0.  0.  0.
165  1.64  0.  0.  0.
166  1.65  0.  0.  0.
167  1.66  0.  0.  0.
168  1.67  0.  0.  0.
169  1.68  0.  0.  0.
170  1.69  0.  0.  0.
171  1.70  0.  0.  0.
172  1.71  0.  0.  0.
173  1.72  0.  0.  0.
174  1.73  0.  0.  0.
175  1.74  0.  0.  0.
176  1.75  0.  0.  0.
177  1.76  0.  0.  0.
178  1.77  0.  0.  0.
179  1.78  0.  0.  0.
180  1.79  0.  0.  0.
181  1.80  0.  0.  0.
182  1.81  0.  0.  0.
183  1.82  0.  0.  0.
184  1.83  0.  0.  0.
185  1.84  0.  0.  0.
186  1.85  0.  0.  0.
187  1.86  0.  0.  0.
188  1.87  0.  0.  0.
189  1.88  0.  0.  0.
190  1.89  0.  0.  0.
191  1.90  0.  0.  0.
192  1.91  0.  0.  0.
193  1.92  0.  0.  0.
194  1.93  0.  0.  0.
195  1.94  0.  0.  0.
196  1.95  0.  0.  0.
197  1.96  0.  0.  0.
198  1.97  0.  0.  0.
199  1.98  0.  0.  0.
200  1.99  0.  0.  0.
201  2.00  0.  0.  0.
202  2.01  0.  0.  0.
203  2.02  0.  0.  0.
204  2.03  0.  0.  0.
205  2.04  0.  0.  0.
206  2.05  0.  0.  0.
207  2.06  0.  0.  0.
208  2.07  0.  0.  0.
209  2.08  0.  0.  0.
210  2.09  0.  0.  0.
211  2.10  0.  0.  0.
212  2.11  0.  0.  0.
213  2.12  0.  0.  0.
214  2.13  0.  0.  0.
215  2.14  0.  0.  0.
216  2.15  0.  0.  0.
217  2.16  0.  0.  0.
218  2.17  0.  0.  0.
219  2.18  0.  0.  0.
220  2.19  0.  0.  0.
221  2.20  0.  0.  0.
222  2.21  0.  0.  0.
223  2.22  0.  0.  0.
224  2.23  0.  0.  0.
225  2.24  0.  0.  0.
226  2.25  0.  0.  0.
227  2.26  0.  0.  0.
228  2.27  0.  0.  0.
229  2.28  0.  0.  0.
230  2.29  0.  0.  0.
231  2.30  0.  0.  0.
232  2.31  0.  0.  0.
233  2.32  0.  0.  0.
234  2.33  0.  0.  0.
235  2.34  0.  0.  0.
236  2.35  0.  0.  0.
237  2.36  0.  0.  0.
238  2.37  0.  0.  0.
239  2.38  0.  0.  0.
240  2.39  0.  0.  0.
241  2.40  0.  0.  0.
242  2.41  0.  0.  0.
243  2.42  0.  0.  0.
244  2.43  0.  0.  0.
245  2.44  0.  0.  0.
246  2.45  0.  0.  0.
247  2.46  0.  0.  0.
248  2.47  0.  0.  0.
249  2.48  0.  0.  0.
250  2.49  0.  0.  0.
251  2.50  0.  0.  0.
252  2.51  0.  0.  0.
253  2.52  0.  0.  0.
254  2.53  0.  0.  0.
255  2.54  0.  0.  0.
256  2.55  0.  0.  0.
257  2.56  0.  0.  0.
258  2.57  0.  0.  0.
259  2.58  0.  0.  0.
260  2.59  0.  0.  0.
261  2.60  0.  0.  0.
262  2.61  0.  0.  0.
263  2.62  0.  0.  0.
264  2.63  0.  0.  0.
265  2.64  0.  0.  0.
266  2.65  0.  0.  0.
267  2.66  0.  0.  0.
268  2.67  0.  0.  0.
269  2.68  0.  0.  0.
270  2.69  0.  0.  0.
271  2.70  0.  0.  0.
272  2.71  0.  0.  0.
273  2.72  0.  0.  0.
274  2.73  0.  0.  0.
275  2.74  0.  0.  0.
276  2.75  0.  0.  0.
277  2.76  0.  0.  0.
278  2.77  0.  0.  0.
279  2.78  0.  0.  0.
280  2.79  0.  0.  0.
281  2.80  0.  0.  0.
282  2.81  0.  0.  0.
283  2.82  0.  0.  0.
284  2.83  0.  0.  0.
285  2.84  0.  0.  0.
286  2.85  0.  0.  0.
287  2.86  0.  0.  0.
288  2.87  0.  0.  0.
289  2.88  0.  0.  0.
290  2.89  0.  0.  0.
291  2.90  0.  0.  0.
292  2.91  0.  0.  0.
293  2.92  0.  0.  0.
294  2.93  0.  0.  0.
295  2.94  0.  0.  0.
296  2.95  0.  0.  0.
297  2.96  0.  0.  0.
298  2.97  0.  0.  0.
299  2.98  0.  0.  0.
300  2.99  0.  0.  0.
301  3.00  0.  0.  0.
302  3.01  0.  0.  0.
303  3.02  0.  0.  0.
304  3.03  0.  0.  0.
305  3.04  0.  0.  0.
306  3.05  0.  0.  0.
307  3.06  0.  0.  0.
308  3.07  0.  0.  0.
309  3.08  0.  0.  0.
310  3.09  0.  0.  0.
311  3.10  0.  0.  0.
312  3.11  0.  0.  0.
313  3.12  0.  0.  0.
314  3.13  0.  0.  0.
315  3.14  0.  0.  0.
316  3.15  0.  0.  0.
317  3.16  0.  0.  0.
318  3.17  0.  0.  0.
319  3.18  0.  0.  0.
320  3.19  0.  0.  0.
321  3.20  0.  0.  0.
322  3.21  0.  0.  0.
323  3.22  0.  0.  0.
324  3.23  0.  0.  0.
325  3.24  0.  0.  0.
326  3.25  0.  0.  0.
327  3.26  0.  0.  0.
328  3.27  0.  0.  0.
329  3.28  0.  0.  0.
330  3.29  0.  0.  0.
331  3.30  0.  0.  0.
332  3.31  0.  0.  0.
333  3.32  0.  0.  0.
334  3.33  0.  0.  0.
335  3.34  0.  0.  0.
336  3.35  0.  0.  0.
337  3.36  0.  0.  0.
338  3.37  0.  0.  0.
339  3.38  0.  0.  0.
340  3.39  0.  0.  0.
341  3.40  0.  0.  0.
342  3.41  0.  0.  0.
343  3.42  0.  0.  0.
344  3.43  0.  0.  0.
345  3.44  0.  0.  0.
346  3.45  0.  0.  0.
347  3.46  0.  0.  0.
348  3.47  0.  0.  0.
349  3.48  0.  0.  0.
350  3.49  0.  0.  0.
351  3.50  0.  0.  0.
352  3.51  0.  0.  0.
353  3.52  0.  0.  0.
354  3.53  0.  0.  0.
355  3.54  0.  0.  0.
356  3.55  0.  0.  0.
357  3.56  0.  0.  0.
358  3.57  0.  0.  0.
359  3.58  0.  0.  0.
360  3.59  0.  0.  0.
361  3.60  0.  0.  0.
362  3.61  0.  0.  0.
363  3.62  0.  0.  0.
364  3.63  0.  0.  0.
365  3.64  0.  0.  0.
366  3.65  0.  0.  0.
367  3.66  0.  0.  0.
368  3.67  0.  0.  0.
369  3.68  0.  0.  0.
370  3.69  0.  0.  0.
371  3.70  0.  0.  0.
372  3.71  0.  0.  0.
373  3.72  0.  0.  0.
374  3.73  0.  0.  0.
375  3.74  0.  0.  0.
376  3.75  0.  0.  0.
377  3.76  0.  0.  0.
378  3.77  0.  0.  0.
379  3.78  0.  0.  0.
380  3.79  0.  0.  0.
381  3.80  0.  0.  0.
382  3.81  0.  0.  0.
383  3.82  0.  0.  0.
384  3.83  0.  0.  0.
385  3.84  0.  0.  0.
386  3.85  0.  0.  0.
387  3.86  0.  0.  0.
388  3.87  0.  0.  0.
389  3.88  0.  0.  0.
390  3.89  0.  0.  0.
391  3.90  0.  0.  0.
392  3.91  0.  0.  0.
393  3.92  0.  0.  0.
394  3.93  0.  0.  0.
395  3.94  0.  0.  0.
396  3.95  0.  0.  0.
397  3.96  0.  0.  0.
398  3.97  0.  0.  0.
399  3.98  0.  0.  0.
400  3.99  0.  0.  0.
401  4.00  0.  0.  0.
402  4.01  0.  0.  0.
403  4.02  0.  0.  0.
404  4.03  0.  0.  0.
405  4.04  0.  0.  0.
406  4.05  0.  0.  0.
407  4.06  0.  0.  0.
408  4.07  0.  0.  0.
409  4.08  0.  0.  0.
410  4.09  0.  0.  0.
411  4.10  0.  0.  0.
412  4.11  0.  0.  0.
413  4.12  0.  0.  0.
414  4.13  0.  0.  0.
415  4.14  0.  0.  0.
416  4.15  0.  0.  0.
417  4.16  0.  0.  0.
418  4.17  0.  0.  0.
419  4.18  0.  0.  0.
420  4.19  0.  0.  0.
421  4.20  0.  0.  0.
422  4.21  0.  0.  0.
423  4.22  0.  0.  0.
424  4.23  0.  0.  0.
425  4.24  0.  0.  0.
426  4.25  0.  0.  0.
427  4.26  0.  0.  0.
428  4.27  0.  0.  0.
429  4.28  0.  0.  0.
430  4.29  0.  0.  0.
431  4.30  0.  0.  0.
432  4.31  0.  0.  0.
433  4.32  0.  0.  0.
434  4.33  0.  0.  0.
435  4.34  0.  0.  0.
436  4.35  0.  0.  0.
437  4.36  0.  0.  0.
438  4.37  0.  0.  0.
439  4.38  0.  0.  0.
440  4.39  0.  0.  0.
441  4.40  0.  0.  0.
442  4.41  0.  0.  0.
443  4.42  0.  0.  0.
444  4.43  0.  0.  0.
445  4.44  0.  0.  0.
446  4.45  0.  0.  0.
447  4.46  0.  0.  0.
448  4.47  0.  0.  0.
449  4.48  0.  0.  0.
450  4.49  0.  0.  0.
451  4.50  0.  0.  0.
452  4.51  0.  0.  0.
453  4.52  0.  0.  0.
454  4.53  0.  0.  0.
455  4.54  0.  0.  0.
456  4.55  0.  0.  0.
457  4.56  0.  0.  0.
458  4.57  0.  0.  0.
459  4.58  0.  0.  0.
460  4.59  0.  0.  0.
461  4.60  0.  0.  0.
462  4.61  0.  0.  0.
463  4.62  0.  0.  0.
464  4.63  0.  0.  0.
465  4.64  0.  0.  0.
466  4.65  0.  0.  0.
467  4.66  0.  0.  0.
468  4.67  0.  0.  0.
469  4.68  0.  0.  0.
470  4.69  0.  0.  0.
471  4.70  0.  0.  0.
472  4.71  0.  0.  0.
473  4.72  0.  0.  0.
474  4.73  0.  0.  0.
475  4.74  0.  0.  0.
476  4.75  0.  0.  0.
477  4.76  0.  0.  0.
478  4.77  0.  0.  0.
479  4.78  0.  0.  0.
480  4.79  0.  0.  0.
481  4.80  0.  0.  0.
482  4.81  0.  0.  0.
483  4.82  0.  0.  0.
484  4.83  0.  0.  0.
485  4.84  0.  0.  0.
486  4.85  0.  0.  0.
487  4.86  0.  0.  0.
488  4.87  0.  0.  0.
489  4.88  0.  0.  0.
490  4.89  0.  0.  0.
491  4.90  0.  0.  0.
492  4.91  0.  0.  0.
493  4.92  0.  0.  0.
494  4.93  0.  0.  0.
495  4.94  0.  0.  0.
496  4.95  0.  0.  0.
497  4.96  0.  0.  0.
498  4.97  0.  0.  0.
499  4.98  0.  0.  0.
500  4.99  0.  0.  0.
501  5.00  0.  0.  0.
502  5.01  0.  0.  0.
503  5.02  0.  0.  0.
504  5.03  0.  0.  0.
505  5.04  0.  0.  0.
506  5.05  0.  0.  0.
507  5.06  0.  0.  0.
508  5.07  0.  0.  0.
509  5.08  0.  0.  0.
510  5.09  0.  0.  0.
511  5.10  0.  0.  0.
512  5.11  0.  0.  0.
513  5.12  0.  0.  0.
514  5.13  0.  0.  0.
515  5.14  0.  0.  0.
516  5.15  0.  0.  0.
517  5.16  0.  0.  0.
518  5.17  0.  0.  0.
519  5.18  0.  0.  0.
520  5.19  0.  0.  0.
521  5.20  0.  0.  0.
522  5.21  0.  0.  0.
523  5.22  0.  0.  0.
524  5.23  0.  0.  0.
525  5.24  0.  0.  0.
526  5.25  0.  0.  0.
527  5.26  0.  0.  0.
528  5.27  0.  0.  0.
529  5.28  0.  0.  0.
530  5.29  0.  0.  0.
531  5.30  0.  0.  0.
532  5.31  0.  0.  0.
533  5.32  0.  0.  0.
534  5.33  0.  0.  0.
535  5.34  0.  0.  0.
536  5.35  0.  0.  0.
537  5.36  0.  0.  0.
538  5.37  0.  0.  0.
539  5.38  0.  0.  0.
540  5.39  0.  0.  0.
541  5.40  0.  0.  0.
542  5.41  0.  0.  0.
543  5.42  0.  0.  0.
544  5.43  0.  0.  0.
545  5.44  0.  0.  0.
546  5.45  0.  0.  0.
547  5.46  0.  0.  0.
548  5.47  0.  0.  0.
549  5.48  0.  0.  0.
550  5.49  0.  0.  0.
551  5.50  0.  0.  0.
552  5.51  0.  0.  0.
553  5.52  0.  0.  0.
554  5.53  0.  0.  0.
555  5.54  0.  0.  0.
556  5.55  0.  0.  0.
557  5.56  0.  0.  0.
558  5.57  0.  0.  0.
559  5.58  0.  0.  0.
560  5.59  0.  0.  0.
561  5.60  0.  0.  0.
562  5.61  0.  0.  0.
563  5.62  0.  0.  0.
564  5.63  0.  0.  0.
565  5.64  0.  0.  0.
566  5.65  0.  0.  0.
567  5.66  0.  0.  0.
568  5.67  0.  0.  0.
569  5.68  0.  0.  0.
570  5.69  0.  0.  0.
571  5.70  0.  0.  0.
572  5.71  0.  0.  0.
573  5.72  0.  0.  0.
574  5.73  0.  0.  0.
575  5.74  0.  0.  0.
576  5.75  0.  0.  0.
577  5.76  0.  0.  0.
578  5.77  0.  0.  0.
579  5.78  0.  0.  0.
580  5.79  0.  0.  0.
581  5.80  0.  0.  0.
582  5.81  0.  0.  0.
583  5.82  0.  0.  0.
584  5.83  0.  0.  0.
585  5.84  0.  0.  0.
586  5.85  0.  0.  0.
587  5.86  0.  0.  0.
588  5.87  0.  0.  0.
589  5.88  0.  0.  0.
590  5.89  0.  0.  0.
591  5.90  0.  0.  0.
592  5.91  0.  0.  0.
593  5.92  0.  0.  0.
594  5.93  0.  0.  0.
595  5.94  0.  0.  0.
596  5.95  0.  0.  0.
597  5.96  0.  0.  0.
598  5.97  0.  0.  0.
599  5.98  0.  0.  0.
600  5.99  0.  0.  0.
1                         6.1742472979101E+00 -1.7561623594231E+00  8.3425120620703E-02 -9.2134391153639E-03
1  0.0000000000000E+00 -6.4206331917838E-09 -7.3140630565960E-09  5.0933712136825E-08 -2.3168758778169E-07
2  1.0000000000000E-02  4.6711000302265E-03  5.8117127913464E-04  5.5486999434890E-03 -6.7260696158983E-03
3  2.0000000000000E-02  1.8642086509356E-02  2.3295439786847E-03  2.2090442187858E-02 -2.6722262997522E-02
4  3.0000000000000E-02  4.1786228790794E-02  5.2595334719190E-03  4.9313901419362E-02 -5.9447602392251E-02
5  4.0000000000000E-02  7.3893015805240E-02  9.3946329588473E-03  8.6705997328825E-02 -1.0401719867822E-01
6  5.0000000000000E-02  1.1466923686845E-01  1.4766632006422E-02  1.3356048435705E-01 -1.5922682460749E-01
7  6.0000000000000E-02  1.6374053507260E-01  2.1414556246588E-02  1.8898977308376E-01 -2.2358626066792E-01
8  7.0000000000000E-02  2.2065347047451E-01  2.9383360584825E-02  2.5193978339161E-01 -2.9536039878392E-01
9  8.0000000000000E-02  2.8487813671498E-01  3.8722415585868E-02  3.2120757860321E-01 -3.7261685738846E-01
10  9.0000000000000E-02  3.5581137820731E-01  4.9483832665841E-02  3.9546148332075E-01 -4.5327867062157E-01
11  1.0000000000000E-01  4.3278065523049E-01  6.1720678131001E-02  4.7326334650739E-01 -5.3518047069608E-01
12  1.1000000000000E-01  5.1504860090103E-01  7.5485128819481E-02  5.5309257615660E-01 -6.1612649034196E-01
13  1.2000000000000E-01  6.0181830697862E-01  9.0826623039447E-02  6.3337154329102E-01 -6.9394867445917E-01
14  1.3000000000000E-01  6.9223936484205E-01  1.0779005963487E-01  7.1249193149992E-01 -7.6656320758952E-01
15  1.4000000000000E-01  7.8541467397135E-01  1.2641409539176E-01  7.8884159410080E-01 -8.3202383558367E-01
16  1.5000000000000E-01  8.8040801325764E-01  1.4672958672930E-01  8.6083147449678E-01 -8.8857048305822E-01
17  1.6000000000000E-01  9.7625235094736E-01  1.6875821586622E-01  9.2692214646462E-01 -9.3467183836374E-01
18  1.7000000000000E-01  1.0719588476451E+00  1.9251133463010E-01  9.8564953985881E-01 -9.6906078864303E-01
19  1.8000000000000E-01  1.1665264842881E+00  2.1798905104836E-01  1.0356494333433E+00 -9.9076183166400E-01
20  1.9000000000000E-01  1.2589522241801E+00  2.4517957512193E-01  1.0756803189029E+00 -9.9910985982965E-01
21  2.0000000000000E-01  1.3482415958867E+00  2.7405883105830E-01  1.1046442725706E+00 -9.9375999571452E-01
22  2.1000000000000E-01  1.4334195629345E+00  3.0459033406528E-01  1.1216055014360E+00 -9.7468844777318E-01
23  2.2000000000000E-01  1.5135415276616E+00  3.3672532091637E-01  1.1258062778812E+00 -9.4218463954282E-01
24  2.3000000000000E-01  1.5877043010615E+00  3.7040311521783E-01  1.1166800173491E+00 -8.9683513597756E-01
25  2.4000000000000E-01  1.6550568587497E+00  4.0555170093788E-01  1.0938613049193E+00 -8.3950013735221E-01
26  2.5000000000000E-01  1.7148106958885E+00  4.4208847156672E-01  1.0571927276650E+00 -7.7128352621477E-01
27  2.6000000000000E-01  1.7662495914966E+00  4.7992111748451E-01  1.0067284232291E+00 -6.9349762910404E-01
28  2.7000000000000E-01  1.8087385953636E+00  5.1894861089279E-01  9.4273430935252E-01 -6.0762398657298E-01
29  2.8000000000000E-01  1.8417320589287E+00  5.5906224612393E-01  8.6568501325046E-01 -5.1527150854190E-01
30  2.9000000000000E-01  1.8647805449323E+00  6.0014669332872E-01  7.7625757282918E-01 -4.1813342493672E-01
31  3.0000000000000E-01  1.8775364691779E+00  6.4208102543663E-01  6.7532203288286E-01 -3.1794442368255E-01
32  3.1000000000000E-01  1.8797583509481E+00  6.8473968180135E-01  5.6392910775561E-01 -2.1643930092524E-01
33  3.2000000000000E-01  1.8713135759226E+00  7.2799333693976E-01  4.4329512673397E-01 -1.1531433522042E-01
34  3.3000000000000E-01  1.8521796061197E+00  7.7170964904168E-01  3.1478451895973E-01 -1.6192443378785E-02
35  3.4000000000000E-01  1.8224436045596E+00  8.1575387021562E-01  1.7989013032084E-01  7.9407012814667E-02
36  3.5000000000000E-01  1.7823004770620E+00  8.5998930844812E-01  4.0211695099473E-02  1.7009311491796E-01
37  3.6000000000000E-01  1.7320493688079E+00  9.0427763966546E-01 -1.0256719026515E-01  2.5462255020661E-01
38  3.7000000000000E-01  1.6720886879355E+00  9.4847907675349E-01 -2.4670322537594E-01  3.3191286888444E-01
39  3.8000000000000E-01  1.6029097614363E+00  9.9245241056536E-01 -3.9041831773418E-01  4.0104989774495E-01
40  3.9000000000000E-01  1.5250892589326E+00  1.0360549454886E+00 -5.3192486380209E-01  4.6128960232441E-01
41  4.0000000000000E-01  1.4392805465903E+00  1.0791423587318E+00 -6.6945101485426E-01  5.1205490056122E-01
42  4.1000000000000E-01  1.3462041556093E+00  1.1215685178408E+00 -8.0126554925932E-01  5.5292811429213E-01
43  4.2000000000000E-01  1.2466375667254E+00  1.1631852948290E+00 -9.2570198465797E-01  5.8363989344952E-01
44  4.3000000000000E-01  1.1414045234164E+00  1.2038424175065E+00 -1.0411815807608E+00  6.0405555589728E-01
45  4.4000000000000E-01  1.0313640916838E+00  1.2433873990151E+00 -1.1462349057513E+00  6.1415984936057E-01
46  4.5000000000000E-01  9.1739968323099E-01  1.2816655851408E+00 -1.2395216660714E+00  6.1404115860623E-01
47  4.6000000000000E-01  8.0040825165048E-01  1.3185203557187E+00 -1.3198485301382E+00  6.0387615051942E-01
48  4.7000000000000E-01  6.8128985813888E-01  1.3537935114399E+00 -1.3861847107230E+00  5.8391577353924E-01
49  4.8000000000000E-01  5.6093778476099E-01  1.3873258707801E+00 -1.4376751076907E+00  5.5447340947529E-01
50  4.9000000000000E-01  4.4022935005136E-01  1.4189580938173E+00 -1.4736508519295E+00  5.1591582018230E-01
51  5.0000000000000E-01  3.2001755460405E-01  1.4485317406612E+00 -1.4936371319539E+00  4.6865734567383E-01
52  5.1000000000000E-01  2.0112365422941E-01  1.4758905624260E+00 -1.4973582262045E+00  4.1315760203500E-01
53  5.2000000000000E-01  8.4330726320894E-02  1.5008820124793E+00 -1.4847397058758E+00  3.4992270602323E-01
54  5.3000000000000E-01 -2.9621737588959E-02  1.5233589555067E+00 -1.4559078145751E+00  2.7950982823257E-01
55  5.4000000000000E-01 -1.4004221233736E-01  1.5431815421194E+00 -1.4111860716827E+00  2.0253465813977E-01
56  5.5000000000000E-01 -2.4629052262252E-01  1.5602192077043E+00 -1.3510891854076E+00  1.1968116213610E-01
57  5.6000000000000E-01 -3.4778028741063E-01  1.5743527463399E+00 -1.2763143987172E+00  3.1712839129214E-02
58  5.7000000000000E-01 -4.4398050758301E-01  1.5854764042085E+00 -1.1877304261092E+00 -6.0515464044893E-02
59  5.8000000000000E-01 -5.3441639907794E-01  1.5934999323234E+00 -1.0863641711813E+00 -1.5604621612966E-01
60  5.9000000000000E-01 -6.1866958858219E-01  1.5983505357731E+00 -9.7338544378181E-01 -2.5380943655851E-01
61  6.0000000000000E-01 -6.9637779803025E-01  1.5999746562402E+00 -8.5008992087067E-01 -3.5261559797318E-01
62  6.1000000000000E-01 -7.6723414752041E-01  1.5983395263445E+00 -7.1788061682987E-01 -4.5115224244700E-01
63  6.2000000000000E-01 -8.3098620373029E-01  1.5934344384046E+00 -5.7824814661305E-01 -5.4798525591961E-01
64  6.3000000000000E-01 -8.8743489271487E-01  1.5852716764195E+00 -4.3275007864531E-01 -6.4156559376991E-01
65  6.4000000000000E-01 -9.3643338252537E-01  1.5738870682821E+00 -2.8298968365509E-01 -7.3024205372139E-01
66  6.5000000000000E-01 -9.7788602303649E-01  1.5593401252145E+00 -1.3059439055937E-01 -8.1228045699426E-01
67  6.6000000000000E-01 -1.0117474085359E+00  1.5417137468437E+00  2.2805738900253E-02 -8.8588933317209E-01
68  6.7000000000000E-01 -1.0380216039978E+00  1.5211134828571E+00  1.7559920885020E-01 -9.4925191852699E-01
69  6.8000000000000E-01 -1.0567615496312E+00  1.4976663553717E+00  3.2621366145708E-01 -1.0005639825213E+00
70  6.9000000000000E-01 -1.0680686314457E+00  1.4715192595690E+00  4.7313553499853E-01 -1.0380767046475E+00
71  7.0000000000000E-01 -1.0720923794249E+00  1.4428369733343E+00  6.1492853656535E-01 -1.0601435456922E+00
72  7.1000000000000E-01 -1.0690302306420E+00  1.4117998191212E+00  7.5025067829369E-01 -1.0652698057724E+00
73  7.2000000000000E-01 -1.0591272734285E+00  1.3786010326026E+00  8.7786964980569E-01 -1.0521633473395E+00
74  7.3000000000000E-01 -1.0426758715483E+00  1.3434439024437E+00  9.9667632663244E-01 -1.0197847948839E+00
75  7.4000000000000E-01 -1.0200150551159E+00  1.3065387533918E+00  1.1056962444733E+00 -9.6739541294600E-01
76  7.5000000000000E-01 -9.9152955841996E-01  1.2680998505033E+00  1.2040989018126E+00 -8.9460081697161E-01
77  7.6000000000000E-01 -9.5764838435380E-01  1.2283423055086E+00  1.2912047882400E+00 -8.0138869208966E-01
78  7.7000000000000E-01 -9.1884278103815E-01  1.1874790668953E+00  1.3664900723097E+00 -6.8815878514456E-01
79  7.8000000000000E-01 -8.7562352843823E-01  1.1457180732297E+00  1.4295889204118E+00 -5.5574359480929E-01