Ra    ONCVPSP-4.0.1  r_core=   1.50132   1.50132   1.60343   1.85098
88.0000     28.0000      220327    zatom,zion,pspd
8      11   3     4   600     0    pspcod,pspxc,lmax,lloc,mmax,r2well
5.99000000  5.00000000  0.00000000    rchrg fchrg qchrg
3     2     2     1     0    nproj
1     1           extension_switch
0                         1.6351401388170E+01 -3.1479583454431E+00 -2.2372095748879E-01
1  0.0000000000000E+00 -1.9451418253880E-09 -4.6027713584973E-10  3.3151471567905E-08
2  1.0000000000000E-02  1.3775025202926E-01  1.1366004925593E-02 -1.5134914545531E-01
3  2.0000000000000E-02  2.7477015278795E-01  2.2789448952314E-02 -3.0066262801617E-01
4  3.0000000000000E-02  4.1033446528356E-01  3.4327671089328E-02 -4.4593366041319E-01
5  4.0000000000000E-02  5.4372813595071E-01  4.6037805799447E-02 -5.8521273980689E-01
6  5.0000000000000E-02  6.7425127404623E-01  5.7976669941919E-02 -7.1663513169446E-01
7  6.0000000000000E-02  8.0122399766643E-01  7.0200637113281E-02 -8.3844698814505E-01
8  7.0000000000000E-02  9.2399110424609E-01  8.2765495741975E-02 -9.4902968507907E-01
9  8.0000000000000E-02  1.0419265253441E+00  9.5726287752676E-02 -1.0469219964588E+00
10  9.0000000000000E-02  1.1544375278992E+00  1.0913712517103E-01 -1.1308397633518E+00
11  1.0000000000000E-01  1.2609686269186E+00  1.2305098267615E-01 -1.1996927620390E+00
12  1.1000000000000E-01  1.3610051777021E+00  1.3751946481170E-01 -1.2525985266923E+00
13  1.2000000000000E-01  1.4540766191648E+00  1.5259254732055E-01 -1.2888929375638E+00
14  1.3000000000000E-01  1.5397593435455E+00  1.6831829285539E-01 -1.3081374439729E+00
15  1.4000000000000E-01  1.6176791717405E+00  1.8474254211952E-01 -1.3101228514419E+00
16  1.5000000000000E-01  1.6875134176132E+00  2.0190858229101E-01 -1.2948696628891E+00
17  1.6000000000000E-01  1.7489925288585E+00  2.1985679535915E-01 -1.2626250236165E+00
18  1.7000000000000E-01  1.8019012962844E+00  2.3862428973868E-01 -1.2138563777426E+00
19  1.8000000000000E-01  1.8460796276611E+00  2.5824451920600E-01 -1.1492419985795E+00
20  1.9000000000000E-01  1.8814228865254E+00  2.7874689380783E-01 -1.0696586061968E+00
21  2.0000000000000E-01  1.9078818004659E+00  3.0015638791213E-01 -9.7616633108369E-01
22  2.1000000000000E-01  1.9254619474034E+00  3.2249315099131E-01 -8.6999132261758E-01
23  2.2000000000000E-01  1.9342228321771E+00  3.4577212703989E-01 -7.5250633424425E-01
24  2.3000000000000E-01  1.9342765693092E+00  3.7000268872427E-01 -6.2520964338674E-01
25  2.4000000000000E-01  1.9257861911172E+00  3.9518829243787E-01 -4.8970268271969E-01
26  2.5000000000000E-01  1.9089636033350E+00  4.2132616038731E-01 -3.4766677040971E-01
27  2.6000000000000E-01  1.8840672130805E+00  4.4840699566625E-01 -2.0083933018081E-01
28  2.7000000000000E-01  1.8513992563283E+00  4.7641473598568E-01 -5.0989987770345E-02
29  2.8000000000000E-01  1.8113028540245E+00  5.0532635132957E-01  1.0010308118008E-01
30  2.9000000000000E-01  1.7641588275780E+00  5.3511169030004E-01  2.5067619509135E-01
31  3.0000000000000E-01  1.7103823057053E+00  5.6573337931896E-01  3.9900227004682E-01
32  3.1000000000000E-01  1.6504191554729E+00  5.9714677817380E-01  5.4341168077330E-01
33  3.2000000000000E-01  1.5847422708967E+00  6.2929999464954E-01  6.8231161136713E-01
34  3.3000000000000E-01  1.5138477526227E+00  6.6213396019171E-01  8.1420366643973E-01
35  3.4000000000000E-01  1.4382510120504E+00  6.9558256771224E-01  9.3769955449894E-01
36  3.5000000000000E-01  1.3584828327860E+00  7.2957287179897E-01  1.0515346982319E+00
37  3.6000000000000E-01  1.2750854215494E+00  7.6402535073652E-01  1.1545796700243E+00
38  3.7000000000000E-01  1.1886084796346E+00  7.9885422890795E-01  1.2458493944573E+00
39  3.8000000000000E-01  1.0996053247588E+00  8.3396785733942E-01  1.3245101017798E+00
40  3.9000000000000E-01  1.0086290916678E+00  8.6926914938834E-01  1.3898840565103E+00
41  4.0000000000000E-01  9.1622903820990E-01  9.0465606787302E-01  1.4414521226358E+00
42  4.1000000000000E-01  8.2294698179107E-01  9.4002215931090E-01  1.4788542605584E+00
43  4.2000000000000E-01  7.2931388919540E-01  9.7525713038218E-01  1.5018880804701E+00
44  4.3000000000000E-01  6.3584664073101E-01  1.0102474612758E+00  1.5105056016728E+00
45  4.4000000000000E-01  5.4304498756702E-01  1.0448770502088E+00  1.5048083872319E+00
46  4.5000000000000E-01  4.5138871898467E-01  1.0790278831442E+00  1.4850412380044E+00
47  4.6000000000000E-01  3.6133505409831E-01  1.1125807225651E+00  1.4515846394933E+00
48  4.7000000000000E-01  2.7331627042872E-01  1.1454158090959E+00  1.4049461592417E+00
49  4.8000000000000E-01  1.8773757955149E-01  1.1774135697890E+00  1.3457509917324E+00
50  4.9000000000000E-01  1.0497525790877E-01  1.2084553270142E+00  1.2747318424751E+00
51  5.0000000000000E-01  2.5375038781540E-02  1.2384240020894E+00  1.1927183334188E+00
52  5.1000000000000E-01 -5.0749230623420E-02  1.2672048080675E+00  1.1006260987516E+00
53  5.2000000000000E-01 -1.2311666499818E-01  1.2946859264364E+00  9.9944572397342E-01
54  5.3000000000000E-01 -1.9148014961211E-01  1.3207591628812E+00  8.9023166272950E-01
55  5.4000000000000E-01 -2.5562688362936E-01  1.3453205776947E+00  7.7409124581867E-01
56  5.5000000000000E-01 -3.1537866161837E-01  1.3682710868860E+00  6.5217387589204E-01
57  5.6000000000000E-01 -3.7059189849657E-01  1.3895170305196E+00  5.2566048035275E-01
58  5.7000000000000E-01 -4.2115740476302E-01  1.4089707053022E+00  3.9575327451164E-01
59  5.8000000000000E-01 -4.6699992040004E-01  1.4265508589143E+00  2.6366586790311E-01
60  5.9000000000000E-01 -5.0807741727128E-01  1.4421831440455E+00  1.3061372934557E-01
61  6.0000000000000E-01 -5.4438018120580E-01  1.4558005305276E+00 -2.1949885422784E-03
62  6.1000000000000E-01 -5.7592968623438E-01  1.4673436743588E+00 -1.3356827677838E-01
63  6.2000000000000E-01 -6.0277727463480E-01  1.4767612427712E+00 -2.6233876967317E-01
64  6.3000000000000E-01 -6.2500265754169E-01  1.4840101948060E+00 -3.8737194255078E-01
65  6.4000000000000E-01 -6.4271225188377E-01  1.4890560171227E+00 -5.0757403538567E-01
66  6.5000000000000E-01 -6.5603737031901E-01  1.4918729149823E+00 -6.2189972884435E-01
67  6.6000000000000E-01 -6.6513228164464E-01  1.4924439585056E+00 -7.2935959445949E-01
68  6.7000000000000E-01 -6.7017215985508E-01  1.4907611844232E+00 -8.2902733291447E-01
69  6.8000000000000E-01 -6.7135094060282E-01  1.4868256536078E+00 -9.2004680390706E-01
70  6.9000000000000E-01 -6.6887910427564E-01  1.4806474647105E+00 -1.0016388383596E+00
71  7.0000000000000E-01 -6.6298140523243E-01  1.4722457242312E+00 -1.0731078093066E+00
72  7.1000000000000E-01 -6.5389456693114E-01  1.4616484733318E+00 -1.1338479222771E+00
73  7.2000000000000E-01 -6.4186496272838E-01  1.4488925716709E+00 -1.1833491700344E+00
74  7.3000000000000E-01 -6.2714630202508E-01  1.4340235385029E+00 -1.2212028808079E+00
75  7.4000000000000E-01 -6.0999734116838E-01  1.4170953512529E+00 -1.2471067744007E+00
76  7.5000000000000E-01 -5.9067963809490E-01  1.3981702017645E+00 -1.2608694273624E+00
77  7.6000000000000E-01 -5.6945536910685E-01  1.3773182104264E+00 -1.2624140375608E+00
78  7.7000000000000E-01 -5.4658522541279E-01  1.3546170984218E+00 -1.2517813704287E+00
79  7.8000000000000E-01 -5.2232640613615E-01  1.3301518184296E+00 -1.2291317645376E+00
80  7.9000000000000E-01 -4.9693072340089E-01  1.3040141442270E+00 -1.1947460733393E+00
81  8.0000000000000E-01 -4.7064283384985E-01  1.2763022198250E+00 -1.1490254232616E+00
82  8.1000000000000E-01 -4.4369860954434E-01  1.2471200689924E+00 -1.0924896760868E+00
83  8.2000000000000E-01 -4.1632365964389E-01  1.2165770663113E+00 -1.0257744957566E+00
84  8.3000000000000E-01 -3.8873201258636E-01  1.1847873712414E+00 -9.4962693640738E-01
85  8.4000000000000E-01 -3.6112496669452E-01  1.1518693270577E+00 -8.6489948939553E-01
86  8.5000000000000E-01 -3.3369011524703E-01  1.1179448269602E+00 -7.7254255197446E-01
87  8.6000000000000E-01 -3.0660055008648E-01  1.0831386501215E+00 -6.7359530878646E-01
88  8.7000000000000E-01 -2.8001424582055E-01  1.0475777709444E+00 -5.6917504878641E-01
89  8.8000000000000E-01 -2.5407362462730E-01  1.0113906453182E+00 -4.6046497406389E-01
90  8.9000000000000E-01 -2.2890529962882E-01  9.7470647819578E-01 -3.4870059242057E-01
91  9.0000000000000E-01 -2.0461999277565E-01  9.3765447733714E-01 -2.3515482176791E-01
92  9.1000000000000E-01 -1.8131262121659E-01  9.0036309857404E-01 -1.2112197042300E-01
93  9.2000000000000E-01 -1.5906254424066E-01  8.6295928842675E-01 -7.9007923921305E-03
94  9.3000000000000E-01 -1.3793396109971E-01  8.2556773033412E-01  1.0322315031324E-01
95  9.4000000000000E-01 -1.1797644837683E-01  7.8831010112920E-01  2.1099555624054E-01
96  9.5000000000000E-01 -9.9225624082925E-02  7.5130434468979E-01  3.1421159568319E-01
97  9.6000000000000E-01 -8.1703924365195E-02  7.1466396990503E-01  4.1173395475437E-01
98  9.7000000000000E-01 -6.5421477616851E-02  6.7849738021333E-01  5.0251038661767E-01
99  9.8000000000000E-01 -5.0377059906423E-02  6.4290724197476E-01  5.8559043430346E-01
100  9.9000000000000E-01 -3.6559115010549E-02  6.0798989883426E-01  6.6014098640137E-01
101  1.0000000000000E+00 -2.3946821948921E-02  5.7383483900463E-01  7.2546033092701E-01
102  1.0100000000000E+00 -1.2511192789244E-02  5.4052422204821E-01  7.8099038404973E-01
103  1.0200000000000E+00 -2.2161836189388E-03  5.0813247126067E-01  8.2632678932749E-01
104  1.0300000000000E+00  6.9801980355022E-03  4.7672593716415E-01  8.6122660944451E-01
105  1.0400000000000E+00  1.5124805423681E-02  4.4636263690073E-01  8.8561336613358E-01
106  1.0500000000000E+00  2.2268299625046E-02  4.1709207349165E-01  8.9957922448038E-01
107  1.0600000000000E+00  2.8464145542001E-02  3.8895513800097E-01  9.0338416458070E-01
108  1.0700000000000E+00  3.3767669616650E-02  3.6198409662460E-01  8.9745203605174E-01
109  1.0800000000000E+00  3.8235190555453E-02  3.3620266363519E-01  8.8236344805130E-01
110  1.0900000000000E+00  4.1923232681236E-02  3.1162615996291E-01  8.5884550849265E-01
111  1.1000000000000E+00  4.4887829730121E-02  2.8826175599903E-01  8.2775848999439E-01
112  1.1100000000000E+00  4.7183925009897E-02  2.6610879599817E-01  7.9007956531371E-01
113  1.1200000000000E+00  4.8864871850599E-02  2.4515920023472E-01  7.4688382100376E-01
114  1.1300000000000E+00  4.9982036265124E-02  2.2539793987480E-01  6.9932282269022E-01
115  1.1400000000000E+00  5.0584501699196E-02  2.0680357835936E-01  6.4860106850636E-01
116  1.1500000000000E+00  5.0718873753539E-02  1.8934887199583E-01  5.9595072653887E-01
117  1.1600000000000E+00  5.0429180801888E-02  1.7300142142401E-01  5.4260510754875E-01
118  1.1700000000000E+00  4.9756864573006E-02  1.5772436469341E-01  4.8977137370206E-01
119  1.1800000000000E+00  4.8740853006174E-02  1.4347710186191E-01  4.3860302746055E-01
120  1.1900000000000E+00  4.7417706084876E-02  1.3021604032869E-01  3.9017276063193E-01
121  1.2000000000000E+00  4.5821823898179E-02  1.1789534954605E-01  3.4544627171064E-01
122  1.2100000000000E+00  4.3985704910826E-02  1.0646771333334E-01  3.0525767919741E-01
123  1.2200000000000E+00  4.1940241346645E-02  9.5885067740992E-02  2.7028716946089E-01
124  1.2300000000000E+00  3.9715037715167E-02  8.6099312289067E-02  2.4104151965959E-01
125  1.2400000000000E+00  3.7338737852427E-02  7.7062982431303E-02  2.1783812942390E-01
126  1.2500000000000E+00  3.4839345393673E-02  6.8729871268824E-02  2.0079317960021E-01
127  1.2600000000000E+00  3.2244522356339E-02  6.1055588851478E-02  1.8981451280685E-01
128  1.2700000000000E+00  2.9581850469911E-02  5.3998047845273E-02  1.8459979980709E-01
129  1.2800000000000E+00  2.6879040041381E-02  4.7517864908120E-02  1.8464051787858E-01
130  1.2900000000000E+00  2.4164071470699E-02  4.1578667778013E-02  1.8923222422708E-01
131  1.3000000000000E+00  2.1465255013397E-02  3.6147298825852E-02  1.9749155964375E-01
132  1.3100000000000E+00  1.8811195010072E-02  3.1193906645135E-02  2.0838036612677E-01
133  1.3200000000000E+00  1.6230645537206E-02  2.6691918114596E-02  2.2073724871965E-01
134  1.3300000000000E+00  1.3752245255014E-02  2.2617884259887E-02  2.3331685757907E-01
135  1.3400000000000E+00  1.1404120120071E-02  1.8951194143039E-02  2.4483711206999E-01
136  1.3500000000000E+00  9.2133435547852E-03  1.5673651891536E-02  2.5403453655664E-01
137  1.3600000000000E+00  7.2052446078030E-03  1.2768912832526E-02  2.5972782810900E-01
138  1.3700000000000E+00  5.4025555640461E-03  1.0221775494384E-02  2.6088973127264E-01
139  1.3800000000000E+00  3.8243913647691E-03  8.0173269744096E-03  2.5672725460750E-01
140  1.3900000000000E+00  2.4850535720292E-03  6.1399392862287E-03  2.4677030259956E-01
141  1.4000000000000E+00  1.3926661749085E-03  4.5721288090807E-03  2.3096732504278E-01
142  1.4100000000000E+00  5.4752880524595E-04  3.2931760177700E-03  2.0979630820985E-01
143  1.4200000000000E+00 -5.8717393756492E-05  2.2786727505860E-03  1.8425278248478E-01
144  1.4300000000000E+00 -4.4519352908727E-04  1.4996194810371E-03  1.5565820159174E-01
145  1.4400000000000E+00 -6.5221901474051E-04  9.1394229470501E-04  1.2586300630197E-01
146  1.4500000000000E+00 -7.0466728153798E-04  4.9645550689283E-04  9.6144619133590E-02
147  1.4600000000000E+00 -6.3076222735957E-04  2.2425044969006E-04  6.7763558398565E-02
148  1.4700000000000E+00 -4.6966962029599E-04  7.0404168566507E-05  4.2199256234920E-02
149  1.4800000000000E+00 -2.7075370829569E-04  4.4962833621294E-06  2.1139779427958E-02
150  1.4900000000000E+00 -9.1207523423487E-05 -6.7514561286758E-06  6.3645025173345E-03
151  1.5000000000000E+00 -3.6759947453486E-06 -5.1619054250602E-07  2.3187488277832E-04
152  1.5100000000000E+00  2.7004274578989E-07  4.6016213892258E-08 -1.6444217056626E-05
153  1.5200000000000E+00  3.9430269671600E-08  3.8458385282458E-09 -2.6740558719208E-06
154  1.53 -0. -0.  0.
155  1.54  0.  0.  0.
156  1.55  0.  0.  0.
157  1.56  0.  0.  0.
158  1.57  0.  0.  0.
159  1.58  0.  0.  0.
160  1.59  0.  0.  0.
161  1.60  0.  0.  0.
162  1.61  0.  0.  0.
163  1.62  0.  0.  0.
164  1.63  0.  0.  0.
165  1.64  0.  0.  0.
166  1.65  0.  0.  0.
167  1.66  0.  0.  0.
168  1.67  0.  0.  0.
169  1.68  0.  0.  0.
170  1.69  0.  0.  0.
171  1.70  0.  0.  0.
172  1.71  0.  0.  0.
173  1.72  0.  0.  0.
174  1.73  0.  0.  0.
175  1.74  0.  0.  0.
176  1.75  0.  0.  0.
177  1.76  0.  0.  0.
178  1.77  0.  0.  0.
179  1.78  0.  0.  0.
180  1.79  0.  0.  0.
181  1.80  0.  0.  0.
182  1.81  0.  0.  0.
183  1.82  0.  0.  0.
184  1.83  0.  0.  0.
185  1.84  0.  0.  0.
186  1.85  0.  0.  0.
187  1.86  0.  0.  0.
188  1.87  0.  0.  0.
189  1.88  0.  0.  0.
190  1.89  0.  0.  0.
191  1.90  0.  0.  0.
192  1.91  0.  0.  0.
193  1.92  0.  0.  0.
194  1.93  0.  0.  0.
195  1.94  0.  0.  0.
196  1.95  0.  0.  0.
197  1.96  0.  0.  0.
198  1.97  0.  0.  0.
199  1.98  0.  0.  0.
200  1.99  0.  0.  0.
201  2.00  0.  0.  0.
202  2.01  0.  0.  0.
203  2.02  0.  0.  0.
204  2.03  0.  0.  0.
205  2.04  0.  0.  0.
206  2.05  0.  0.  0.
207  2.06  0.  0.  0.
208  2.07  0.  0.  0.
209  2.08  0.  0.  0.
210  2.09  0.  0.  0.
211  2.10  0.  0.  0.
212  2.11  0.  0.  0.
213  2.12  0.  0.  0.
214  2.13  0.  0.  0.
215  2.14  0.  0.  0.
216  2.15  0.  0.  0.
217  2.16  0.  0.  0.
218  2.17  0.  0.  0.
219  2.18  0.  0.  0.
220  2.19  0.  0.  0.
221  2.20  0.  0.  0.
222  2.21  0.  0.  0.
223  2.22  0.  0.  0.
224  2.23  0.  0.  0.
225  2.24  0.  0.  0.
226  2.25  0.  0.  0.
227  2.26  0.  0.  0.
228  2.27  0.  0.  0.
229  2.28  0.  0.  0.
230  2.29  0.  0.  0.
231  2.30  0.  0.  0.
232  2.31  0.  0.  0.
233  2.32  0.  0.  0.
234  2.33  0.  0.  0.
235  2.34  0.  0.  0.
236  2.35  0.  0.  0.
237  2.36  0.  0.  0.
238  2.37  0.  0.  0.
239  2.38  0.  0.  0.
240  2.39  0.  0.  0.
241  2.40  0.  0.  0.
242  2.41  0.  0.  0.
243  2.42  0.  0.  0.
244  2.43  0.  0.  0.
245  2.44  0.  0.  0.
246  2.45  0.  0.  0.
247  2.46  0.  0.  0.
248  2.47  0.  0.  0.
249  2.48  0.  0.  0.
250  2.49  0.  0.  0.
251  2.50  0.  0.  0.
252  2.51  0.  0.  0.
253  2.52  0.  0.  0.
254  2.53  0.  0.  0.
255  2.54  0.  0.  0.
256  2.55  0.  0.  0.
257  2.56  0.  0.  0.
258  2.57  0.  0.  0.
259  2.58  0.  0.  0.
260  2.59  0.  0.  0.
261  2.60  0.  0.  0.
262  2.61  0.  0.  0.
263  2.62  0.  0.  0.
264  2.63  0.  0.  0.
265  2.64  0.  0.  0.
266  2.65  0.  0.  0.
267  2.66  0.  0.  0.
268  2.67  0.  0.  0.
269  2.68  0.  0.  0.
270  2.69  0.  0.  0.
271  2.70  0.  0.  0.
272  2.71  0.  0.  0.
273  2.72  0.  0.  0.
274  2.73  0.  0.  0.
275  2.74  0.  0.  0.
276  2.75  0.  0.  0.
277  2.76  0.  0.  0.
278  2.77  0.  0.  0.
279  2.78  0.  0.  0.
280  2.79  0.  0.  0.
281  2.80  0.  0.  0.
282  2.81  0.  0.  0.
283  2.82  0.  0.  0.
284  2.83  0.  0.  0.
285  2.84  0.  0.  0.
286  2.85  0.  0.  0.
287  2.86  0.  0.  0.
288  2.87  0.  0.  0.
289  2.88  0.  0.  0.
290  2.89  0.  0.  0.
291  2.90  0.  0.  0.
292  2.91  0.  0.  0.
293  2.92  0.  0.  0.
294  2.93  0.  0.  0.
295  2.94  0.  0.  0.
296  2.95  0.  0.  0.
297  2.96  0.  0.  0.
298  2.97  0.  0.  0.
299  2.98  0.  0.  0.
300  2.99  0.  0.  0.
301  3.00  0.  0.  0.
302  3.01  0.  0.  0.
303  3.02  0.  0.  0.
304  3.03  0.  0.  0.
305  3.04  0.  0.  0.
306  3.05  0.  0.  0.
307  3.06  0.  0.  0.
308  3.07  0.  0.  0.
309  3.08  0.  0.  0.
310  3.09  0.  0.  0.
311  3.10  0.  0.  0.
312  3.11  0.  0.  0.
313  3.12  0.  0.  0.
314  3.13  0.  0.  0.
315  3.14  0.  0.  0.
316  3.15  0.  0.  0.
317  3.16  0.  0.  0.
318  3.17  0.  0.  0.
319  3.18  0.  0.  0.
320  3.19  0.  0.  0.
321  3.20  0.  0.  0.
322  3.21  0.  0.  0.
323  3.22  0.  0.  0.
324  3.23  0.  0.  0.
325  3.24  0.  0.  0.
326  3.25  0.  0.  0.
327  3.26  0.  0.  0.
328  3.27  0.  0.  0.
329  3.28  0.  0.  0.
330  3.29  0.  0.  0.
331  3.30  0.  0.  0.
332  3.31  0.  0.  0.
333  3.32  0.  0.  0.
334  3.33  0.  0.  0.
335  3.34  0.  0.  0.
336  3.35  0.  0.  0.
337  3.36  0.  0.  0.
338  3.37  0.  0.  0.
339  3.38  0.  0.  0.
340  3.39  0.  0.  0.
341  3.40  0.  0.  0.
342  3.41  0.  0.  0.
343  3.42  0.  0.  0.
344  3.43  0.  0.  0.
345  3.44  0.  0.  0.
346  3.45  0.  0.  0.
347  3.46  0.  0.  0.
348  3.47  0.  0.  0.
349  3.48  0.  0.  0.
350  3.49  0.  0.  0.
351  3.50  0.  0.  0.
352  3.51  0.  0.  0.
353  3.52  0.  0.  0.
354  3.53  0.  0.  0.
355  3.54  0.  0.  0.
356  3.55  0.  0.  0.
357  3.56  0.  0.  0.
358  3.57  0.  0.  0.
359  3.58  0.  0.  0.
360  3.59  0.  0.  0.
361  3.60  0.  0.  0.
362  3.61  0.  0.  0.
363  3.62  0.  0.  0.
364  3.63  0.  0.  0.
365  3.64  0.  0.  0.
366  3.65  0.  0.  0.
367  3.66  0.  0.  0.
368  3.67  0.  0.  0.
369  3.68  0.  0.  0.
370  3.69  0.  0.  0.
371  3.70  0.  0.  0.
372  3.71  0.  0.  0.
373  3.72  0.  0.  0.
374  3.73  0.  0.  0.
375  3.74  0.  0.  0.
376  3.75  0.  0.  0.
377  3.76  0.  0.  0.
378  3.77  0.  0.  0.
379  3.78  0.  0.  0.
380  3.79  0.  0.  0.
381  3.80  0.  0.  0.
382  3.81  0.  0.  0.
383  3.82  0.  0.  0.
384  3.83  0.  0.  0.
385  3.84  0.  0.  0.
386  3.85  0.  0.  0.
387  3.86  0.  0.  0.
388  3.87  0.  0.  0.
389  3.88  0.  0.  0.
390  3.89  0.  0.  0.
391  3.90  0.  0.  0.
392  3.91  0.  0.  0.
393  3.92  0.  0.  0.
394  3.93  0.  0.  0.
395  3.94  0.  0.  0.
396  3.95  0.  0.  0.
397  3.96  0.  0.  0.
398  3.97  0.  0.  0.
399  3.98  0.  0.  0.
400  3.99  0.  0.  0.
401  4.00  0.  0.  0.
402  4.01  0.  0.  0.
403  4.02  0.  0.  0.
404  4.03  0.  0.  0.
405  4.04  0.  0.  0.
406  4.05  0.  0.  0.
407  4.06  0.  0.  0.
408  4.07  0.  0.  0.
409  4.08  0.  0.  0.
410  4.09  0.  0.  0.
411  4.10  0.  0.  0.
412  4.11  0.  0.  0.
413  4.12  0.  0.  0.
414  4.13  0.  0.  0.
415  4.14  0.  0.  0.
416  4.15  0.  0.  0.
417  4.16  0.  0.  0.
418  4.17  0.  0.  0.
419  4.18  0.  0.  0.
420  4.19  0.  0.  0.
421  4.20  0.  0.  0.
422  4.21  0.  0.  0.
423  4.22  0.  0.  0.
424  4.23  0.  0.  0.
425  4.24  0.  0.  0.
426  4.25  0.  0.  0.
427  4.26  0.  0.  0.
428  4.27  0.  0.  0.
429  4.28  0.  0.  0.
430  4.29  0.  0.  0.
431  4.30  0.  0.  0.
432  4.31  0.  0.  0.
433  4.32  0.  0.  0.
434  4.33  0.  0.  0.
435  4.34  0.  0.  0.
436  4.35  0.  0.  0.
437  4.36  0.  0.  0.
438  4.37  0.  0.  0.
439  4.38  0.  0.  0.
440  4.39  0.  0.  0.
441  4.40  0.  0.  0.
442  4.41  0.  0.  0.
443  4.42  0.  0.  0.
444  4.43  0.  0.  0.
445  4.44  0.  0.  0.
446  4.45  0.  0.  0.
447  4.46  0.  0.  0.
448  4.47  0.  0.  0.
449  4.48  0.  0.  0.
450  4.49  0.  0.  0.
451  4.50  0.  0.  0.
452  4.51  0.  0.  0.
453  4.52  0.  0.  0.
454  4.53  0.  0.  0.
455  4.54  0.  0.  0.
456  4.55  0.  0.  0.
457  4.56  0.  0.  0.
458  4.57  0.  0.  0.
459  4.58  0.  0.  0.
460  4.59  0.  0.  0.
461  4.60  0.  0.  0.
462  4.61  0.  0.  0.
463  4.62  0.  0.  0.
464  4.63  0.  0.  0.
465  4.64  0.  0.  0.
466  4.65  0.  0.  0.
467  4.66  0.  0.  0.
468  4.67  0.  0.  0.
469  4.68  0.  0.  0.
470  4.69  0.  0.  0.
471  4.70  0.  0.  0.
472  4.71  0.  0.  0.
473  4.72  0.  0.  0.
474  4.73  0.  0.  0.
475  4.74  0.  0.  0.
476  4.75  0.  0.  0.
477  4.76  0.  0.  0.
478  4.77  0.  0.  0.
479  4.78  0.  0.  0.
480  4.79  0.  0.  0.
481  4.80  0.  0.  0.
482  4.81  0.  0.  0.
483  4.82  0.  0.  0.
484  4.83  0.  0.  0.
485  4.84  0.  0.  0.
486  4.85  0.  0.  0.
487  4.86  0.  0.  0.
488  4.87  0.  0.  0.
489  4.88  0.  0.  0.
490  4.89  0.  0.  0.
491  4.90  0.  0.  0.
492  4.91  0.  0.  0.
493  4.92  0.  0.  0.
494  4.93  0.  0.  0.
495  4.94  0.  0.  0.
496  4.95  0.  0.  0.
497  4.96  0.  0.  0.
498  4.97  0.  0.  0.
499  4.98  0.  0.  0.
500  4.99  0.  0.  0.
501  5.00  0.  0.  0.
502  5.01  0.  0.  0.
503  5.02  0.  0.  0.
504  5.03  0.  0.  0.
505  5.04  0.  0.  0.
506  5.05  0.  0.  0.
507  5.06  0.  0.  0.
508  5.07  0.  0.  0.
509  5.08  0.  0.  0.
510  5.09  0.  0.  0.
511  5.10  0.  0.  0.
512  5.11  0.  0.  0.
513  5.12  0.  0.  0.
514  5.13  0.  0.  0.
515  5.14  0.  0.  0.
516  5.15  0.  0.  0.
517  5.16  0.  0.  0.
518  5.17  0.  0.  0.
519  5.18  0.  0.  0.
520  5.19  0.  0.  0.
521  5.20  0.  0.  0.
522  5.21  0.  0.  0.
523  5.22  0.  0.  0.
524  5.23  0.  0.  0.
525  5.24  0.  0.  0.
526  5.25  0.  0.  0.
527  5.26  0.  0.  0.
528  5.27  0.  0.  0.
529  5.28  0.  0.  0.
530  5.29  0.  0.  0.
531  5.30  0.  0.  0.
532  5.31  0.  0.  0.
533  5.32  0.  0.  0.
534  5.33  0.  0.  0.
535  5.34  0.  0.  0.
536  5.35  0.  0.  0.
537  5.36  0.  0.  0.
538  5.37  0.  0.  0.
539  5.38  0.  0.  0.
540  5.39  0.  0.  0.
541  5.40  0.  0.  0.
542  5.41  0.  0.  0.
543  5.42  0.  0.  0.
544  5.43  0.  0.  0.
545  5.44  0.  0.  0.
546  5.45  0.  0.  0.
547  5.46  0.  0.  0.
548  5.47  0.  0.  0.
549  5.48  0.  0.  0.
550  5.49  0.  0.  0.
551  5.50  0.  0.  0.
552  5.51  0.  0.  0.
553  5.52  0.  0.  0.
554  5.53  0.  0.  0.
555  5.54  0.  0.  0.
556  5.55  0.  0.  0.
557  5.56  0.  0.  0.
558  5.57  0.  0.  0.
559  5.58  0.  0.  0.
560  5.59  0.  0.  0.
561  5.60  0.  0.  0.
562  5.61  0.  0.  0.
563  5.62  0.  0.  0.
564  5.63  0.  0.  0.
565  5.64  0.  0.  0.
566  5.65  0.  0.  0.
567  5.66  0.  0.  0.
568  5.67  0.  0.  0.
569  5.68  0.  0.  0.
570  5.69  0.  0.  0.
571  5.70  0.  0.  0.
572  5.71  0.  0.  0.
573  5.72  0.  0.  0.
574  5.73  0.  0.  0.
575  5.74  0.  0.  0.
576  5.75  0.  0.  0.
577  5.76  0.  0.  0.
578  5.77  0.  0.  0.
579  5.78  0.  0.  0.
580  5.79  0.  0.  0.
581  5.80  0.  0.  0.
582  5.81  0.  0.  0.
583  5.82  0.  0.  0.
584  5.83  0.  0.  0.
585  5.84  0.  0.  0.
586  5.85  0.  0.  0.
587  5.86  0.  0.  0.
588  5.87  0.  0.  0.
589  5.88  0.  0.  0.
590  5.89  0.  0.  0.
591  5.90  0.  0.  0.
592  5.91  0.  0.  0.
593  5.92  0.  0.  0.
594  5.93  0.  0.  0.
595  5.94  0.  0.  0.
596  5.95  0.  0.  0.
597  5.96  0.  0.  0.
598  5.97  0.  0.  0.
599  5.98  0.  0.  0.
600  5.99  0.  0.  0.
1                         3.0883372792118E+00 -2.9103876986831E+00
1  0.0000000000000E+00  3.0196515565795E-09 -3.1355618795859E-10
2  1.0000000000000E-02  3.4324455071679E-03  6.4338290397396E-04
3  2.0000000000000E-02  1.3702326502572E-02  2.5735600312160E-03
4  3.0000000000000E-02  3.0727488686055E-02  5.7906019896671E-03
5  4.0000000000000E-02  5.4371714241148E-02  1.0294577833883E-02
6  5.0000000000000E-02  8.4445775350478E-02  1.6085482714103E-02
7  6.0000000000000E-02  1.2070889812689E-01  2.3163137753893E-02
8  7.0000000000000E-02  1.6287062603943E-01  3.1527063313478E-02
9  8.0000000000000E-02  2.1059306889355E-01  4.1176327109458E-02
10  9.0000000000000E-02  2.6349352048141E-01  5.2109368962620E-02
11  1.0000000000000E-01  3.2114742516865E-01  6.4323804231209E-02
12  1.1000000000000E-01  3.8309167094749E-01  7.7816208254744E-02
13  1.2000000000000E-01  4.4882818388108E-01  9.2581884380576E-02
14  1.3000000000000E-01  5.1782779641094E-01  1.0861461836963E-01
15  1.4000000000000E-01  5.8953435971624E-01  1.2590642217654E-01
16  1.5000000000000E-01  6.6336906822329E-01  1.4444727027089E-01
17  1.6000000000000E-01  7.3873496248366E-01  1.6422483180795E-01
18  1.7000000000000E-01  8.1502157499120E-01  1.8522420206784E-01
19  1.8000000000000E-01  8.9160968211150E-01  2.0742763665959E-01
20  1.9000000000000E-01  9.6787612416979E-01  2.3081429202969E-01
21  2.0000000000000E-01  1.0431986549046E+00  2.5535997582242E-01
22  2.1000000000000E-01  1.1169607809585E+00  2.8103691061066E-01
23  2.2000000000000E-01  1.1885565518616E+00  3.0781351445090E-01
24  2.3000000000000E-01  1.2573952610771E+00  3.3565420161359E-01
25  2.4000000000000E-01  1.3229060191330E+00  3.6451920670161E-01
26  2.5000000000000E-01  1.3845421606688E+00  3.9436443519466E-01
27  2.6000000000000E-01  1.4417854483772E+00  4.2514134324740E-01
28  2.7000000000000E-01  1.4941500383277E+00  4.5679684932598E-01
29  2.8000000000000E-01  1.5411861730096E+00  4.8927327999205E-01
30  2.9000000000000E-01  1.5824835706238E+00  5.2250835183853E-01
31  3.0000000000000E-01  1.6176744816707E+00  5.5643519124957E-01
32  3.1000000000000E-01  1.6464363867075E+00  5.9098239330119E-01
33  3.2000000000000E-01  1.6684943122672E+00  6.2607412074254E-01
34  3.3000000000000E-01  1.6836227453108E+00  6.6163024360443E-01
35  3.4000000000000E-01  1.6916471302003E+00  6.9756651957503E-01
36  3.5000000000000E-01  1.6924449359929E+00  7.3379481486811E-01
37  3.6000000000000E-01  1.6859462858408E+00  7.7022336488913E-01
38  3.7000000000000E-01  1.6721341443787E+00  8.0675707358638E-01
39  3.8000000000000E-01  1.6510440631681E+00  8.4329784996000E-01
40  3.9000000000000E-01  1.6227634884832E+00  8.7974497979820E-01
41  4.0000000000000E-01  1.5874306399288E+00  9.1599553032101E-01
42  4.1000000000000E-01  1.5452329725270E+00  9.5194478504174E-01
43  4.2000000000000E-01  1.4964052389427E+00  9.8748670581133E-01
44  4.3000000000000E-01  1.4412271723992E+00  1.0225144186925E+00
45  4.4000000000000E-01  1.3800208145060E+00  1.0569207200260E+00
46  4.5000000000000E-01  1.3131475156461E+00  1.0905985988023E+00
47  4.6000000000000E-01  1.2410046386999E+00  1.1234417712412E+00
48  4.7000000000000E-01  1.1640219996782E+00  1.1553452233162E+00
49  4.8000000000000E-01  1.0826580812686E+00  1.1862057568349E+00
50  4.9000000000000E-01  9.9739605732175E-01  1.2159225346129E+00
51  5.0000000000000E-01  9.0873966790951E-01  1.2443976202463E+00
52  5.1000000000000E-01  8.1720898573516E-01  1.2715365080095E+00
53  5.2000000000000E-01  7.2333611536663E-01  1.2972486384716E+00
54  5.3000000000000E-01  6.2766086697905E-01  1.3214478955370E+00
55  5.4000000000000E-01  5.3072644603482E-01  1.3440530807808E+00
56  5.5000000000000E-01  4.3307519959911E-01  1.3649883611511E+00
57  5.6000000000000E-01  3.3524445879854E-01  1.3841836863587E+00
58  5.7000000000000E-01  2.3776251529614E-01  1.4015751725617E+00
59  5.8000000000000E-01  1.4114476760055E-01  1.4171054492718E+00
60  5.9000000000000E-01  4.5890070579986E-02  1.4307239667619E+00
61  6.0000000000000E-01 -4.7522681253981E-02  1.4423872616345E+00
62  6.1000000000000E-01 -1.3863770925130E-01  1.4520591786102E+00
63  6.2000000000000E-01 -2.2702522087431E-01  1.4597110470152E+00
64  6.3000000000000E-01 -3.1228397427842E-01  1.4653218108724E+00
65  6.4000000000000E-01 -3.9404352061037E-01  1.4688781119426E+00
66  6.5000000000000E-01 -4.7196611134060E-01  1.4703743254913E+00
67  6.6000000000000E-01 -5.4574826194677E-01  1.4698125489945E+00
68  6.7000000000000E-01 -6.1512196728246E-01  1.4672025444150E+00
69  6.8000000000000E-01 -6.7985556794533E-01  1.4625616350886E+00
70  6.9000000000000E-01 -7.3975427084939E-01  1.4559145586478E+00
71  7.0000000000000E-01 -7.9466033095578E-01  1.4472932777697E+00
72  7.1000000000000E-01 -8.4445290467754E-01  1.4367367508739E+00
73  7.2000000000000E-01 -8.8904758880153E-01  1.4242906651956E+00
74  7.3000000000000E-01 -9.2839566182515E-01  1.4100071349279E+00
75  7.4000000000000E-01 -9.6248304735028E-01  1.3939443673572E+00
76  7.5000000000000E-01 -9.9132902158250E-01  1.3761663001093E+00
77  7.6000000000000E-01 -1.0149846890252E+00  1.3567422127717E+00
78  7.7000000000000E-01 -1.0335312521173E+00  1.3357463162700E+00
79  7.8000000000000E-01 -1.0470781018258E+00  1.3132573234448E+00
80  7.9000000000000E-01 -1.0557607570703E+00  1.2893580043054E+00
81  8.0000000000000E-01 -1.0597386813163E+00  1.2641347294246E+00
82  8.1000000000000E-01 -1.0591930047444E+00  1.2376770048963E+00
83  8.2000000000000E-01 -1.0543241800899E+00  1.2100770021903E+00
84  8.3000000000000E-01 -1.0453495995733E+00  1.1814290861302E+00
85  8.4000000000000E-01 -1.0325011993257E+00  1.1518293440756E+00
86  8.5000000000000E-01 -1.0160230763913E+00  1.1213751192231E+00
87  8.6000000000000E-01 -9.9616914178437E-01  1.0901645507523E+00
88  8.7000000000000E-01 -9.7320083123389E-01  1.0582961233381E+00
89  8.8000000000000E-01 -9.4738489320252E-01  1.0258682283314E+00
90  8.9000000000000E-01 -9.1899127155619E-01  9.9297873868416E-01
91  9.0000000000000E-01 -8.8829109793230E-01  9.5972459946337E-01
92  9.1000000000000E-01 -8.5555480644937E-01  9.2620143556631E-01
93  9.2000000000000E-01 -8.2105038096151E-01  8.9250317802137E-01
94  9.3000000000000E-01 -7.8504174262969E-01  8.5872171003806E-01
95  9.4000000000000E-01 -7.4778728319713E-01  8.2494653375840E-01
96  9.5000000000000E-01 -7.0953854705696E-01  7.9126445846474E-01