Ra    ONCVPSP-4.0.1  r_core=   1.60343   1.60343   1.75396
     88.0000     28.0000      211120    zatom,zion,pspd
     8      11   2     4   600     0    pspcod,pspxc,lmax,lloc,mmax,r2well
  5.99000000  5.00000000  0.00000000    rchrg fchrg qchrg
     3     2     2     0     0    nproj
     1     1           extension_switch
   0                         9.3016675069653E+00 -3.8911291493803E+00  5.5027708489535E-01
     1  0.0000000000000E+00 -1.9172535781209E-09 -5.4368953783523E-11 -6.6884900395969E-09
     2  1.0000000000000E-02  1.1821055917445E-01  3.3279482266698E-02  4.6717310111280E-02
     3  2.0000000000000E-02  2.3581829547958E-01  6.6543571020445E-02  9.2811343762159E-02
     4  3.0000000000000E-02  3.5222449970834E-01  9.9776854837371E-02  1.3766651718824E-01
     5  4.0000000000000E-02  4.6683865082280E-01  1.3296388606967E-01  1.8068252288332E-01
     6  5.0000000000000E-02  5.7908241264844E-01  1.6608916174270E-01  2.2128169664020E-01
     7  6.0000000000000E-02  6.8839351508768E-01  1.9913710330291E-01  2.5891606414580E-01
     8  7.0000000000000E-02  7.9422948364877E-01  2.3209203489911E-01  2.9307396832567E-01
     9  8.0000000000000E-02  8.9607118300347E-01  2.6493815993387E-01  3.2328618532180E-01
    10  9.0000000000000E-02  9.9342614262790E-01  2.9765953568785E-01  3.4913144513009E-01
    11  1.0000000000000E-01  1.0858316353097E+00  3.3024004589497E-01  3.7024128238044E-01
    12  1.1000000000000E-01  1.1728574823798E+00  3.6266337123055E-01  3.8630415335213E-01
    13  1.2000000000000E-01  1.2541085629028E+00  3.9491295776464E-01  3.9706876689666E-01
    14  1.3000000000000E-01  1.3292270076815E+00  4.2697198352695E-01  4.0234658929428E-01
    15  1.4000000000000E-01  1.3978940627535E+00  4.5882332342715E-01  4.0201349598852E-01
    16  1.5000000000000E-01  1.4598316110103E+00  4.9044951287051E-01  3.9601055640234E-01
    17  1.6000000000000E-01  1.5148033446067E+00  5.2183271050386E-01  3.8434395142678E-01
    18  1.7000000000000E-01  1.5626155848860E+00  5.5295466061678E-01  3.6708403644638E-01
    19  1.8000000000000E-01  1.6031177505612E+00  5.8379665580674E-01  3.4436357572274E-01
    20  1.9000000000000E-01  1.6362024788193E+00  6.1433950059196E-01  3.1637518636803E-01
    21  2.0000000000000E-01  1.6618054077848E+00  6.4456347672010E-01  2.8336804180632E-01
    22  2.1000000000000E-01  1.6799046323519E+00  6.7444831097352E-01  2.4564389535409E-01
    23  2.2000000000000E-01  1.6905198487155E+00  7.0397314631030E-01  2.0355249417433E-01
    24  2.3000000000000E-01  1.6937112059557E+00  7.3311651720390E-01  1.5748646222300E-01
    25  2.4000000000000E-01  1.6895778857330E+00  7.6185633005205E-01  1.0787573777991E-01
    26  2.5000000000000E-01  1.6782564334828E+00  7.9016984951669E-01  5.5181656640083E-02
    27  2.6000000000000E-01  1.6599188664444E+00  8.1803369163070E-01 -1.0922405076678E-04
    28  2.7000000000000E-01  1.6347705854042E+00  8.4542382446441E-01 -5.7491464040074E-02
    29  2.8000000000000E-01  1.6030481181490E+00  8.7231557708517E-01 -1.1644714236809E-01
    30  2.9000000000000E-01  1.5650167233319E+00  8.9868365746744E-01 -1.7645222697987E-01
    31  3.0000000000000E-01  1.5209678837222E+00  9.2450217991977E-01 -2.3698281719204E-01
    32  3.1000000000000E-01  1.4712167176862E+00  9.4974470249008E-01 -2.9752116876292E-01
    33  3.2000000000000E-01  1.4160993372082E+00  9.7438427469277E-01 -3.5756141687660E-01
    34  3.3000000000000E-01  1.3559701798586E+00  9.9839349577318E-01 -4.1661491923477E-01
    35  3.4000000000000E-01  1.2911993408626E+00  1.0217445835871E+00 -4.7421514952659E-01
    36  3.5000000000000E-01  1.2221699298538E+00  1.0444094540295E+00 -5.2992208066243E-01
    37  3.6000000000000E-01  1.1492754750518E+00  1.0663598107984E+00 -5.8332600713688E-01
    38  3.7000000000000E-01  1.0729173955130E+00  1.0875672451285E+00 -6.3405076654560E-01
    39  3.8000000000000E-01  9.9350255983196E-01  1.1080033449811E+00 -6.8175633141906E-01
    40  3.9000000000000E-01  9.1144094723171E-01  1.1276398130280E+00 -7.2614075397082E-01
    41  4.0000000000000E-01  8.2714342445840E-01  1.1464485926266E+00 -7.6694145785114E-01
    42  4.1000000000000E-01  7.4101964930239E-01  1.1644020008513E+00 -8.0393588238381E-01
    43  4.2000000000000E-01  6.5347610897409E-01  1.1814728675187E+00 -8.3694149582088E-01
    44  4.3000000000000E-01  5.6491429900307E-01  1.1976346790387E+00 -8.6581520469045E-01
    45  4.4000000000000E-01  4.7572904584971E-01  1.2128617258212E+00 -8.9045219616531E-01
    46  4.5000000000000E-01  3.8630697405776E-01  1.2271292518916E+00 -9.1078425938160E-01
    47  4.6000000000000E-01  2.9702511657725E-01  1.2404136053015E+00 -9.2677763962172E-01
    48  4.7000000000000E-01  2.0824966487495E-01  1.2526923878792E+00 -9.3843048614379E-01
    49  4.8000000000000E-01  1.2033485365891E-01  1.2639446028360E+00 -9.4576996006412E-01
    50  4.9000000000000E-01  3.3621973496444E-02  1.2741507987430E+00 -9.4884907300506E-01
    51  5.0000000000000E-01 -5.1561496683245E-02  1.2832932084045E+00 -9.4774333015686E-01
    52  5.1000000000000E-01 -1.3490264622015E-01  1.2913558811934E+00 -9.4254725291571E-01
    53  5.2000000000000E-01 -2.1610378824002E-01  1.2983248074652E+00 -9.3337085637904E-01
    54  5.3000000000000E-01 -2.9488302425285E-01  1.3041880337464E+00 -9.2033615567865E-01
    55  5.4000000000000E-01 -3.7097472819925E-01  1.3089357674810E+00 -9.0357377249681E-01
    56  5.5000000000000E-01 -4.4412996020662E-01  1.3125604702323E+00 -8.8321970917446E-01
    57  5.6000000000000E-01 -5.1411681996081E-01  1.3150569383585E+00 -8.5941235270319E-01
    58  5.7000000000000E-01 -5.8072074900091E-01  1.3164223703212E+00 -8.3228976466884E-01
    59  5.8000000000000E-01 -6.4374479043779E-01  1.3166564199310E+00 -8.0198730605343E-01
    60  5.9000000000000E-01 -7.0300981359893E-01  1.3157612349979E+00 -7.6863563780737E-01
    61  6.0000000000000E-01 -7.5835470994993E-01  1.3137414810125E+00 -7.3235912946600E-01
    62  6.1000000000000E-01 -8.0963656536298E-01  1.3106043496586E+00 -6.9327469894146E-01
    63  6.2000000000000E-01 -8.5673081243646E-01  1.3063595521237E+00 -6.5149109717901E-01
    64  6.3000000000000E-01 -8.9953136514329E-01  1.3010192973457E+00 -6.0710864176381E-01
    65  6.4000000000000E-01 -9.3795073664457E-01  1.2945982554999E+00 -5.6021939402069E-01
    66  6.5000000000000E-01 -9.7192013967794E-01  1.2871135071896E+00 -5.1090776481108E-01
    67  6.6000000000000E-01 -1.0013895675528E+00  1.2785844789564E+00 -4.5925152527305E-01
    68  6.7000000000000E-01 -1.0263278524947E+00  1.2690328658680E+00 -4.0532319035681E-01
    69  6.8000000000000E-01 -1.0467226969019E+00  1.2584825420694E+00 -3.4919173529032E-01
    70  6.9000000000000E-01 -1.0625806720435E+00  1.2469594603008E+00 -2.9092459824373E-01
    71  7.0000000000000E-01 -1.0739271778616E+00  1.2344915414814E+00 -2.3058991653751E-01
    72  7.1000000000000E-01 -1.0808063568605E+00  1.2211085555445E+00 -1.6825893887475E-01
    73  7.2000000000000E-01 -1.0832809545919E+00  1.2068419947714E+00 -1.0400855235295E-01
    74  7.3000000000000E-01 -1.0814321189939E+00  1.1917249409179E+00 -3.7923860482347E-02
    75  7.4000000000000E-01 -1.0753591308063E+00  1.1757919274554E+00  2.9899252855259E-02
    76  7.5000000000000E-01 -1.0651790574905E+00  1.1590787982529E+00  9.9351638604513E-02
    77  7.6000000000000E-01 -1.0510263235080E+00  1.1416225640212E+00  1.7030854078072E-01
    78  7.7000000000000E-01 -1.0330521904616E+00  1.1234612578031E+00  2.4262745921718E-01
    79  7.8000000000000E-01 -1.0114241414661E+00  1.1046337907543E+00  3.1614627466594E-01
    80  7.9000000000000E-01 -9.8632516517402E-01  1.0851798093915E+00  3.9068168940547E-01
    81  8.0000000000000E-01 -9.5795293611604E-01  1.0651395554066E+00  4.6602803079484E-01
    82  8.1000000000000E-01 -9.2651888940962E-01  1.0445537290570E+00  5.4195645859808E-01
    83  8.2000000000000E-01 -8.9224718940871E-01  1.0234633570340E+00  6.1821460950741E-01
    84  8.3000000000000E-01 -8.5537359348987E-01  1.0019096656028E+00  6.9452670425862E-01
    85  8.4000000000000E-01 -8.1614421386410E-01  9.7993395968378E-01  7.7059413418799E-01
    86  8.5000000000000E-01 -7.7481418203389E-01  9.5757750841912E-01  8.4609653520731E-01
    87  8.6000000000000E-01 -7.3164622225289E-01  9.3488143764190E-01  9.2069334810666E-01
    88  8.7000000000000E-01 -6.8690914205272E-01  9.1188662953094E-01  9.9402585501927E-01
    89  8.8000000000000E-01 -6.4087624955043E-01  8.8863362960873E-01  1.0657196729377E+00
    90  8.9000000000000E-01 -5.9382370880009E-01  8.6516256111327E-01  1.1353876765472E+00
    91  9.0000000000000E-01 -5.4602884588146E-01  8.4151304665534E-01  1.2026333144575E+00
    92  9.1000000000000E-01 -4.9776841968949E-01  8.1772413696069E-01  1.2670542753495E+00
    93  9.2000000000000E-01 -4.4931687248045E-01  7.9383424639427E-01  1.3282464537160E+00
    94  9.3000000000000E-01 -4.0094457611680E-01  7.6988109487227E-01  1.3858081589036E+00
    95  9.4000000000000E-01 -3.5291609061202E-01  7.4590165568905E-01  1.4393445061619E+00
    96  9.5000000000000E-01 -3.0548845199842E-01  7.2193210872071E-01  1.4884719244482E+00
    97  9.6000000000000E-01 -2.5890950670342E-01  6.9800779841699E-01  1.5328227129218E+00
    98  9.7000000000000E-01 -2.1341630952438E-01  6.7416319595797E-01  1.5720495764133E+00
    99  9.8000000000000E-01 -1.6923360192895E-01  6.5043186493261E-01  1.6058300697237E+00
   100  9.9000000000000E-01 -1.2657238678233E-01  6.2684642989279E-01  1.6338708813835E+00
   101  1.0000000000000E+00 -8.5628614716845E-02  6.0343854714815E-01  1.6559118895024E+00
   102  1.0100000000000E+00 -4.6581996229402E-02  5.8023887719457E-01  1.6717299254851E+00
   103  1.0200000000000E+00 -9.5949522245453E-03  5.5727705821002E-01  1.6811421856868E+00
   104  1.0300000000000E+00  2.5188285853521E-02  5.3458168010665E-01  1.6840092363833E+00
   105  1.0400000000000E+00  5.7642416927819E-02  5.1218025869428E-01  1.6802375637210E+00
   106  1.0500000000000E+00  8.7661644791479E-02  4.9009920958803E-01  1.6697816274168E+00
   107  1.0600000000000E+00  1.1516008082708E-01  4.6836382157840E-01  1.6526453848023E+00
   108  1.0700000000000E+00  1.4007197172824E-01  4.4699822927539E-01  1.6288832602183E+00
   109  1.0800000000000E+00  1.6235175123683E-01  4.2602538493560E-01  1.5986005435841E+00
   110  1.0900000000000E+00  1.8197391716344E-01  4.0546702948209E-01  1.5619532110539E+00
   111  1.1000000000000E+00  1.9893273720751E-01  3.8534366282735E-01  1.5191471698684E+00
   112  1.1100000000000E+00  2.1324178928600E-01  3.6567451370948E-01  1.4704369386112E+00
   113  1.1200000000000E+00  2.2493334419095E-01  3.4647750934623E-01  1.4161237829615E+00
   114  1.1300000000000E+00  2.3405760037452E-01  3.2776924530108E-01  1.3565533354715E+00
   115  1.1400000000000E+00  2.4068178248610E-01  3.0956495603583E-01  1.2921127358016E+00
   116  1.1500000000000E+00  2.4488911689954E-01  2.9187848669411E-01  1.2232273349433E+00
   117  1.1600000000000E+00  2.4677769886943E-01  2.7472226671839E-01  1.1503570132552E+00
   118  1.1700000000000E+00  2.4645926708242E-01  2.5810728594629E-01  1.0739921673347E+00
   119  1.1800000000000E+00  2.4405790221822E-01  2.4204307386004E-01  9.9464942484374E-01
   120  1.1900000000000E+00  2.3970866667716E-01  2.2653768267444E-01  9.1286714924947E-01
   121  1.2000000000000E+00  2.3355620284165E-01  2.1159767494102E-01  8.2920079792030E-01
   122  1.2100000000000E+00  2.2575330711899E-01  1.9722811632127E-01  7.4421819712962E-01
   123  1.2200000000000E+00  2.1645949654087E-01  1.8343257413637E-01  6.5849479615231E-01
   124  1.2300000000000E+00  2.0583958387178E-01  1.7021312223695E-01  5.7260895979939E-01
   125  1.2400000000000E+00  1.9406227601687E-01  1.5757035265279E-01  4.8713735445240E-01
   126  1.2500000000000E+00  1.8129880900389E-01  1.4550339438036E-01  4.0265047687111E-01
   127  1.2600000000000E+00  1.6772163097853E-01  1.3400993954541E-01  3.1970836788229E-01
   128  1.2700000000000E+00  1.5350314251080E-01  1.2308627704137E-01  2.3885654456942E-01
   129  1.2800000000000E+00  1.3881450106417E-01  1.1272733359078E-01  1.6062217477713E-01
   130  1.2900000000000E+00  1.2382449378598E-01  1.0292672201066E-01  8.5510506849089E-02
   131  1.3000000000000E+00  1.0869847985808E-01  9.3676796284446E-02  1.4001555629409E-02
   132  1.3100000000000E+00  9.3597400511833E-02  8.4968712853762E-02 -5.3452967089664E-02
   133  1.3200000000000E+00  7.8676851538941E-02  7.6792497347538E-02 -1.1643250296066E-01
   134  1.3300000000000E+00  6.4086209745447E-02  6.9137115765319E-02 -1.7455031759168E-01
   135  1.3400000000000E+00  4.9967801320125E-02  6.1990548927312E-02 -2.2745604486832E-01
   136  1.3500000000000E+00  3.6456096608349E-02  5.5339868801089E-02 -2.7483817325738E-01
   137  1.3600000000000E+00  2.3676912308744E-02  4.9171315114469E-02 -3.1642655674647E-01
   138  1.3700000000000E+00  1.1746598728192E-02  4.3470370471153E-02 -3.5199504720194E-01
   139  1.3800000000000E+00  7.7118642517593E-04  3.8221831999232E-02 -3.8136435875849E-01
   140  1.3900000000000E+00 -9.1545365324196E-03  3.3409877390205E-02 -4.0440528785462E-01
   141  1.4000000000000E+00 -1.7948048393586E-02  2.9018123026339E-02 -4.2104242478517E-01
   142  1.4100000000000E+00 -2.5540252993541E-02  2.5029671752021E-02 -4.3125850379048E-01
   143  1.4200000000000E+00 -3.1876811213467E-02  2.1427147720844E-02 -4.3509954870356E-01
   144  1.4300000000000E+00 -3.6919683433037E-02  1.8192715647889E-02 -4.3268097976364E-01
   145  1.4400000000000E+00 -4.0648923480857E-02  1.5308081717274E-02 -4.2419485429246E-01
   146  1.4500000000000E+00 -4.3064765911397E-02  1.2754473339995E-02 -4.0991841939976E-01
   147  1.4600000000000E+00 -4.4190049353455E-02  1.0512594927913E-02 -3.9022415861167E-01
   148  1.4700000000000E+00 -4.4073019172918E-02  8.5625568469497E-03 -3.6559151625096E-01
   149  1.4800000000000E+00 -4.2790555545110E-02  6.8837745675799E-03 -3.3662049807723E-01
   150  1.4900000000000E+00 -4.0451865053519E-02  5.4548355437565E-03 -3.0404730402113E-01
   151  1.5000000000000E+00 -3.7202586985171E-02  4.2533371477381E-03 -2.6876171416263E-01
   152  1.5100000000000E+00 -3.3228824550648E-02  3.2557215404140E-03 -2.3182350069819E-01
   153  1.5200000000000E+00 -2.8743144495541E-02  2.4382165617073E-03 -1.9438489097590E-01
   154  1.5300000000000E+00 -2.3972580990255E-02  1.7769769406187E-03 -1.5761000600383E-01
   155  1.5400000000000E+00 -1.9154252331276E-02  1.2481219847871E-03 -1.2265287053090E-01
   156  1.5500000000000E+00 -1.4482504910018E-02  8.3440199805237E-04 -9.0462456033300E-02
   157  1.5600000000000E+00 -1.0151786742667E-02  5.2020249168680E-04 -6.1936383189304E-02
   158  1.5700000000000E+00 -6.3561184519442E-03  2.9146448484276E-04 -3.7918894103397E-02
   159  1.5800000000000E+00 -3.2888038174197E-03  1.3582257921740E-04 -1.9202594143518E-02
   160  1.5900000000000E+00 -1.1249136769323E-03  4.2191944090439E-05 -6.4355487555218E-03
   161  1.6000000000000E+00 -1.0687018113677E-04  3.6437900713880E-06 -5.9847102707242E-04
   162  1.6100000000000E+00  2.0377481038686E-05 -6.5408543191494E-07  1.1289805754086E-04
   163  1.6200000000000E+00 -6.3525641997388E-06  2.1356901562452E-07 -3.5545765577314E-05
   164  1.63  0. -0.  0.
   165  1.64 -0. -0. -0.
   166  1.65  0.  0.  0.
   167  1.66  0.  0.  0.
   168  1.67  0.  0.  0.
   169  1.68  0.  0.  0.
   170  1.69  0.  0.  0.
   171  1.70  0.  0.  0.
   172  1.71  0.  0.  0.
   173  1.72  0.  0.  0.
   174  1.73  0.  0.  0.
   175  1.74  0.  0.  0.
   176  1.75  0.  0.  0.
   177  1.76  0.  0.  0.
   178  1.77  0.  0.  0.
   179  1.78  0.  0.  0.
   180  1.79  0.  0.  0.
   181  1.80  0.  0.  0.
   182  1.81  0.  0.  0.
   183  1.82  0.  0.  0.
   184  1.83  0.  0.  0.
   185  1.84  0.  0.  0.
   186  1.85  0.  0.  0.
   187  1.86  0.  0.  0.
   188  1.87  0.  0.  0.
   189  1.88  0.  0.  0.
   190  1.89  0.  0.  0.
   191  1.90  0.  0.  0.
   192  1.91  0.  0.  0.
   193  1.92  0.  0.  0.
   194  1.93  0.  0.  0.
   195  1.94  0.  0.  0.
   196  1.95  0.  0.  0.
   197  1.96  0.  0.  0.
   198  1.97  0.  0.  0.
   199  1.98  0.  0.  0.
   200  1.99  0.  0.  0.
   201  2.00  0.  0.  0.
   202  2.01  0.  0.  0.
   203  2.02  0.  0.  0.
   204  2.03  0.  0.  0.
   205  2.04  0.  0.  0.
   206  2.05  0.  0.  0.
   207  2.06  0.  0.  0.
   208  2.07  0.  0.  0.
   209  2.08  0.  0.  0.
   210  2.09  0.  0.  0.
   211  2.10  0.  0.  0.
   212  2.11  0.  0.  0.
   213  2.12  0.  0.  0.
   214  2.13  0.  0.  0.
   215  2.14  0.  0.  0.
   216  2.15  0.  0.  0.
   217  2.16  0.  0.  0.
   218  2.17  0.  0.  0.
   219  2.18  0.  0.  0.
   220  2.19  0.  0.  0.
   221  2.20  0.  0.  0.
   222  2.21  0.  0.  0.
   223  2.22  0.  0.  0.
   224  2.23  0.  0.  0.
   225  2.24  0.  0.  0.
   226  2.25  0.  0.  0.
   227  2.26  0.  0.  0.
   228  2.27  0.  0.  0.
   229  2.28  0.  0.  0.
   230  2.29  0.  0.  0.
   231  2.30  0.  0.  0.
   232  2.31  0.  0.  0.
   233  2.32  0.  0.  0.
   234  2.33  0.  0.  0.
   235  2.34  0.  0.  0.
   236  2.35  0.  0.  0.
   237  2.36  0.  0.  0.
   238  2.37  0.  0.  0.
   239  2.38  0.  0.  0.
   240  2.39  0.  0.  0.
   241  2.40  0.  0.  0.
   242  2.41  0.  0.  0.
   243  2.42  0.  0.  0.
   244  2.43  0.  0.  0.
   245  2.44  0.  0.  0.
   246  2.45  0.  0.  0.
   247  2.46  0.  0.  0.
   248  2.47  0.  0.  0.
   249  2.48  0.  0.  0.
   250  2.49  0.  0.  0.
   251  2.50  0.  0.  0.
   252  2.51  0.  0.  0.
   253  2.52  0.  0.  0.
   254  2.53  0.  0.  0.
   255  2.54  0.  0.  0.
   256  2.55  0.  0.  0.
   257  2.56  0.  0.  0.
   258  2.57  0.  0.  0.
   259  2.58  0.  0.  0.
   260  2.59  0.  0.  0.
   261  2.60  0.  0.  0.
   262  2.61  0.  0.  0.
   263  2.62  0.  0.  0.
   264  2.63  0.  0.  0.
   265  2.64  0.  0.  0.
   266  2.65  0.  0.  0.
   267  2.66  0.  0.  0.
   268  2.67  0.  0.  0.
   269  2.68  0.  0.  0.
   270  2.69  0.  0.  0.
   271  2.70  0.  0.  0.
   272  2.71  0.  0.  0.
   273  2.72  0.  0.  0.
   274  2.73  0.  0.  0.
   275  2.74  0.  0.  0.
   276  2.75  0.  0.  0.
   277  2.76  0.  0.  0.
   278  2.77  0.  0.  0.
   279  2.78  0.  0.  0.
   280  2.79  0.  0.  0.
   281  2.80  0.  0.  0.
   282  2.81  0.  0.  0.
   283  2.82  0.  0.  0.
   284  2.83  0.  0.  0.
   285  2.84  0.  0.  0.
   286  2.85  0.  0.  0.
   287  2.86  0.  0.  0.
   288  2.87  0.  0.  0.
   289  2.88  0.  0.  0.
   290  2.89  0.  0.  0.
   291  2.90  0.  0.  0.
   292  2.91  0.  0.  0.
   293  2.92  0.  0.  0.
   294  2.93  0.  0.  0.
   295  2.94  0.  0.  0.
   296  2.95  0.  0.  0.
   297  2.96  0.  0.  0.
   298  2.97  0.  0.  0.
   299  2.98  0.  0.  0.
   300  2.99  0.  0.  0.
   301  3.00  0.  0.  0.
   302  3.01  0.  0.  0.
   303  3.02  0.  0.  0.
   304  3.03  0.  0.  0.
   305  3.04  0.  0.  0.
   306  3.05  0.  0.  0.
   307  3.06  0.  0.  0.
   308  3.07  0.  0.  0.
   309  3.08  0.  0.  0.
   310  3.09  0.  0.  0.
   311  3.10  0.  0.  0.
   312  3.11  0.  0.  0.
   313  3.12  0.  0.  0.
   314  3.13  0.  0.  0.
   315  3.14  0.  0.  0.
   316  3.15  0.  0.  0.
   317  3.16  0.  0.  0.
   318  3.17  0.  0.  0.
   319  3.18  0.  0.  0.
   320  3.19  0.  0.  0.
   321  3.20  0.  0.  0.
   322  3.21  0.  0.  0.
   323  3.22  0.  0.  0.
   324  3.23  0.  0.  0.
   325  3.24  0.  0.  0.
   326  3.25  0.  0.  0.
   327  3.26  0.  0.  0.
   328  3.27  0.  0.  0.
   329  3.28  0.  0.  0.
   330  3.29  0.  0.  0.
   331  3.30  0.  0.  0.
   332  3.31  0.  0.  0.
   333  3.32  0.  0.  0.
   334  3.33  0.  0.  0.
   335  3.34  0.  0.  0.
   336  3.35  0.  0.  0.
   337  3.36  0.  0.  0.
   338  3.37  0.  0.  0.
   339  3.38  0.  0.  0.
   340  3.39  0.  0.  0.
   341  3.40  0.  0.  0.
   342  3.41  0.  0.  0.
   343  3.42  0.  0.  0.
   344  3.43  0.  0.  0.
   345  3.44  0.  0.  0.
   346  3.45  0.  0.  0.
   347  3.46  0.  0.  0.
   348  3.47  0.  0.  0.
   349  3.48  0.  0.  0.
   350  3.49  0.  0.  0.
   351  3.50  0.  0.  0.
   352  3.51  0.  0.  0.
   353  3.52  0.  0.  0.
   354  3.53  0.  0.  0.
   355  3.54  0.  0.  0.
   356  3.55  0.  0.  0.
   357  3.56  0.  0.  0.
   358  3.57  0.  0.  0.
   359  3.58  0.  0.  0.
   360  3.59  0.  0.  0.
   361  3.60  0.  0.  0.
   362  3.61  0.  0.  0.
   363  3.62  0.  0.  0.
   364  3.63  0.  0.  0.
   365  3.64  0.  0.  0.
   366  3.65  0.  0.  0.
   367  3.66  0.  0.  0.
   368  3.67  0.  0.  0.
   369  3.68  0.  0.  0.
   370  3.69  0.  0.  0.
   371  3.70  0.  0.  0.
   372  3.71  0.  0.  0.
   373  3.72  0.  0.  0.
   374  3.73  0.  0.  0.
   375  3.74  0.  0.  0.
   376  3.75  0.  0.  0.
   377  3.76  0.  0.  0.
   378  3.77  0.  0.  0.
   379  3.78  0.  0.  0.
   380  3.79  0.  0.  0.
   381  3.80  0.  0.  0.
   382  3.81  0.  0.  0.
   383  3.82  0.  0.  0.
   384  3.83  0.  0.  0.
   385  3.84  0.  0.  0.
   386  3.85  0.  0.  0.
   387  3.86  0.  0.  0.
   388  3.87  0.  0.  0.
   389  3.88  0.  0.  0.
   390  3.89  0.  0.  0.
   391  3.90  0.  0.  0.
   392  3.91  0.  0.  0.
   393  3.92  0.  0.  0.
   394  3.93  0.  0.  0.
   395  3.94  0.  0.  0.
   396  3.95  0.  0.  0.
   397  3.96  0.  0.  0.
   398  3.97  0.  0.  0.
   399  3.98  0.  0.  0.
   400  3.99  0.  0.  0.
   401  4.00  0.  0.  0.
   402  4.01  0.  0.  0.
   403  4.02  0.  0.  0.
   404  4.03  0.  0.  0.
   405  4.04  0.  0.  0.
   406  4.05  0.  0.  0.
   407  4.06  0.  0.  0.
   408  4.07  0.  0.  0.
   409  4.08  0.  0.  0.
   410  4.09  0.  0.  0.
   411  4.10  0.  0.  0.
   412  4.11  0.  0.  0.
   413  4.12  0.  0.  0.
   414  4.13  0.  0.  0.
   415  4.14  0.  0.  0.
   416  4.15  0.  0.  0.
   417  4.16  0.  0.  0.
   418  4.17  0.  0.  0.
   419  4.18  0.  0.  0.
   420  4.19  0.  0.  0.
   421  4.20  0.  0.  0.
   422  4.21  0.  0.  0.
   423  4.22  0.  0.  0.
   424  4.23  0.  0.  0.
   425  4.24  0.  0.  0.
   426  4.25  0.  0.  0.
   427  4.26  0.  0.  0.
   428  4.27  0.  0.  0.
   429  4.28  0.  0.  0.
   430  4.29  0.  0.  0.
   431  4.30  0.  0.  0.
   432  4.31  0.  0.  0.
   433  4.32  0.  0.  0.
   434  4.33  0.  0.  0.
   435  4.34  0.  0.  0.
   436  4.35  0.  0.  0.
   437  4.36  0.  0.  0.
   438  4.37  0.  0.  0.
   439  4.38  0.  0.  0.
   440  4.39  0.  0.  0.
   441  4.40  0.  0.  0.
   442  4.41  0.  0.  0.
   443  4.42  0.  0.  0.
   444  4.43  0.  0.  0.
   445  4.44  0.  0.  0.
   446  4.45  0.  0.  0.
   447  4.46  0.  0.  0.
   448  4.47  0.  0.  0.
   449  4.48  0.  0.  0.
   450  4.49  0.  0.  0.
   451  4.50  0.  0.  0.
   452  4.51  0.  0.  0.
   453  4.52  0.  0.  0.
   454  4.53  0.  0.  0.
   455  4.54  0.  0.  0.
   456  4.55  0.  0.  0.
   457  4.56  0.  0.  0.
   458  4.57  0.  0.  0.
   459  4.58  0.  0.  0.
   460  4.59  0.  0.  0.
   461  4.60  0.  0.  0.
   462  4.61  0.  0.  0.
   463  4.62  0.  0.  0.
   464  4.63  0.  0.  0.
   465  4.64  0.  0.  0.
   466  4.65  0.  0.  0.
   467  4.66  0.  0.  0.
   468  4.67  0.  0.  0.
   469  4.68  0.  0.  0.
   470  4.69  0.  0.  0.
   471  4.70  0.  0.  0.
   472  4.71  0.  0.  0.
   473  4.72  0.  0.  0.
   474  4.73  0.  0.  0.
   475  4.74  0.  0.  0.
   476  4.75  0.  0.  0.
   477  4.76  0.  0.  0.
   478  4.77  0.  0.  0.
   479  4.78  0.  0.  0.
   480  4.79  0.  0.  0.
   481  4.80  0.  0.  0.
   482  4.81  0.  0.  0.
   483  4.82  0.  0.  0.
   484  4.83  0.  0.  0.
   485  4.84  0.  0.  0.
   486  4.85  0.  0.  0.
   487  4.86  0.  0.  0.
   488  4.87  0.  0.  0.
   489  4.88  0.  0.  0.
   490  4.89  0.  0.  0.
   491  4.90  0.  0.  0.
   492  4.91  0.  0.  0.
   493  4.92  0.  0.  0.
   494  4.93  0.  0.  0.
   495  4.94  0.  0.  0.
   496  4.95  0.  0.  0.
   497  4.96  0.  0.  0.
   498  4.97  0.  0.  0.
   499  4.98  0.  0.  0.
   500  4.99  0.  0.  0.
   501  5.00  0.  0.  0.
   502  5.01  0.  0.  0.
   503  5.02  0.  0.  0.
   504  5.03  0.  0.  0.
   505  5.04  0.  0.  0.
   506  5.05  0.  0.  0.
   507  5.06  0.  0.  0.
   508  5.07  0.  0.  0.
   509  5.08  0.  0.  0.
   510  5.09  0.  0.  0.
   511  5.10  0.  0.  0.
   512  5.11  0.  0.  0.
   513  5.12  0.  0.  0.
   514  5.13  0.  0.  0.
   515  5.14  0.  0.  0.
   516  5.15  0.  0.  0.
   517  5.16  0.  0.  0.
   518  5.17  0.  0.  0.
   519  5.18  0.  0.  0.
   520  5.19  0.  0.  0.
   521  5.20  0.  0.  0.
   522  5.21  0.  0.  0.
   523  5.22  0.  0.  0.
   524  5.23  0.  0.  0.
   525  5.24  0.  0.  0.
   526  5.25  0.  0.  0.
   527  5.26  0.  0.  0.
   528  5.27  0.  0.  0.
   529  5.28  0.  0.  0.
   530  5.29  0.  0.  0.
   531  5.30  0.  0.  0.
   532  5.31  0.  0.  0.
   533  5.32  0.  0.  0.
   534  5.33  0.  0.  0.
   535  5.34  0.  0.  0.
   536  5.35  0.  0.  0.
   537  5.36  0.  0.  0.
   538  5.37  0.  0.  0.
   539  5.38  0.  0.  0.
   540  5.39  0.  0.  0.
   541  5.40  0.  0.  0.
   542  5.41  0.  0.  0.
   543  5.42  0.  0.  0.
   544  5.43  0.  0.  0.
   545  5.44  0.  0.  0.
   546  5.45  0.  0.  0.
   547  5.46  0.  0.  0.
   548  5.47  0.  0.  0.
   549  5.48  0.  0.  0.
   550  5.49  0.  0.  0.
   551  5.50  0.  0.  0.
   552  5.51  0.  0.  0.
   553  5.52  0.  0.  0.
   554  5.53  0.  0.  0.
   555  5.54  0.  0.  0.
   556  5.55  0.  0.  0.
   557  5.56  0.  0.  0.
   558  5.57  0.  0.  0.
   559  5.58  0.  0.  0.
   560  5.59  0.  0.  0.
   561  5.60  0.  0.  0.
   562  5.61  0.  0.  0.
   563  5.62  0.  0.  0.
   564  5.63  0.  0.  0.
   565  5.64  0.  0.  0.
   566  5.65  0.  0.  0.
   567  5.66  0.  0.  0.
   568  5.67  0.  0.  0.
   569  5.68  0.  0.  0.
   570  5.69  0.  0.  0.
   571  5.70  0.  0.  0.
   572  5.71  0.  0.  0.
   573  5.72  0.  0.  0.
   574  5.73  0.  0.  0.
   575  5.74  0.  0.  0.
   576  5.75  0.  0.  0.
   577  5.76  0.  0.  0.
   578  5.77  0.  0.  0.
   579  5.78  0.  0.  0.
   580  5.79  0.  0.  0.
   581  5.80  0.  0.  0.
   582  5.81  0.  0.  0.
   583  5.82  0.  0.  0.
   584  5.83  0.  0.  0.
   585  5.84  0.  0.  0.
   586  5.85  0.  0.  0.
   587  5.86  0.  0.  0.
   588  5.87  0.  0.  0.
   589  5.88  0.  0.  0.
   590  5.89  0.  0.  0.
   591  5.90  0.  0.  0.
   592  5.91  0.  0.  0.
   593  5.92  0.  0.  0.
   594  5.93  0.  0.  0.
   595  5.94  0.  0.  0.
   596  5.95  0.  0.  0.
   597  5.96  0.  0.  0.
   598  5.97  0.  0.  0.
   599  5.98  0.  0.  0.
   600  5.99  0.  0.  0.
   1                        -4.1993961225505E+00 -3.5492773336463E-01
     1  0.0000000000000E+00  1.5368414874040E-10  4.4621671635436E-09
     2  1.0000000000000E-02  1.2015512360984E-03 -1.8183459657532E-03
     3  2.0000000000000E-02  4.8018722901877E-03 -7.2658179887664E-03
     4  3.0000000000000E-02  1.0787983431722E-02 -1.6319654824605E-02
     5  4.0000000000000E-02  1.9138312472412E-02 -2.8941711737195E-02
     6  5.0000000000000E-02  2.9822785538646E-02 -4.5078156041332E-02
     7  6.0000000000000E-02  4.2802953610193E-02 -6.4659059699004E-02
     8  7.0000000000000E-02  5.8032154283259E-02 -8.7597907262995E-02
     9  8.0000000000000E-02  7.5455708062323E-02 -1.1379104192338E-01
    10  9.0000000000000E-02  9.5011148332507E-02 -1.4311707632854E-01
    11  1.0000000000000E-01  1.1662848401287E-01 -1.7543629811523E-01
    12  1.1000000000000E-01  1.4023049374150E-01 -2.1059010261864E-01
    13  1.2000000000000E-01  1.6573305029570E-01 -2.4840048696791E-01
    14  1.3000000000000E-01  1.9304547380637E-01 -2.8866964065497E-01
    15  1.4000000000000E-01  2.2207091218393E-01 -3.3117966766846E-01
    16  1.5000000000000E-01  2.5270674703670E-01 -3.7569247438590E-01
    17  1.6000000000000E-01  2.8484502323020E-01 -4.2194985563372E-01
    18  1.7000000000000E-01  3.1837290010980E-01 -4.6967380867165E-01
    19  1.8000000000000E-01  3.5317312228949E-01 -5.1856710138741E-01
    20  1.9000000000000E-01  3.8912450779817E-01 -5.6831411675696E-01
    21  2.0000000000000E-01  4.2610245127169E-01 -6.1858199071870E-01
    22  2.1000000000000E-01  4.6397943978611E-01 -6.6902205511799E-01
    23  2.2000000000000E-01  5.0262557884555E-01 -7.1927159141308E-01
    24  2.3000000000000E-01  5.4190912596815E-01 -7.6895589451314E-01
    25  2.4000000000000E-01  5.8169702925679E-01 -8.1769063957274E-01
    26  2.5000000000000E-01  6.2185546829837E-01 -8.6508453793025E-01
    27  2.6000000000000E-01  6.6225039470800E-01 -9.1074226178863E-01
    28  2.7000000000000E-01  7.0274806962238E-01 -9.5426761083622E-01
    29  2.8000000000000E-01  7.4321559545159E-01 -9.9526688792782E-01
    30  2.9000000000000E-01  7.8352143922031E-01 -1.0333524453281E+00
    31  3.0000000000000E-01  8.2353594486957E-01 -1.0681463579813E+00
    32  3.1000000000000E-01  8.6313183194718E-01 -1.0992841759320E+00
    33  3.2000000000000E-01  9.0218467819124E-01 -1.1264187044764E+00
    34  3.3000000000000E-01  9.4057338360450E-01 -1.1492237579696E+00
    35  3.4000000000000E-01  9.7818061372891E-01 -1.1673978315098E+00
    36  3.5000000000000E-01  1.0148932199583E+00 -1.1806676340252E+00
    37  3.6000000000000E-01  1.0506026348724E+00 -1.1887914266371E+00
    38  3.7000000000000E-01  1.0852052407363E+00 -1.1915621115655E+00
    39  3.8000000000000E-01  1.1186027094848E+00 -1.1888100192869E+00
    40  3.9000000000000E-01  1.1507023126997E+00 -1.1804053451073E+00
    41  4.0000000000000E-01  1.1814172002890E+00 -1.1662601907342E+00
    42  4.1000000000000E-01  1.2106666467864E+00 -1.1463301717491E+00
    43  4.2000000000000E-01  1.2383762644104E+00 -1.1206155580058E+00
    44  4.3000000000000E-01  1.2644781822445E+00 -1.0891619208153E+00
    45  4.4000000000000E-01  1.2889111911330E+00 -1.0520602681980E+00
    46  4.5000000000000E-01  1.3116208541164E+00 -1.0094466573606E+00
    47  4.6000000000000E-01  1.3325595824618E+00 -9.6150128174986E-01
    48  4.7000000000000E-01  1.3516866775756E+00 -9.0844703839645E-01
    49  4.8000000000000E-01  1.3689683393091E+00 -8.5054758963947E-01
    50  4.9000000000000E-01  1.3843776413853E+00 -7.8810494155654E-01
    51  5.0000000000000E-01  1.3978944748880E+00 -7.2145656937035E-01
    52  5.1000000000000E-01  1.4095054609501E+00 -6.5097212760006E-01
    53  5.2000000000000E-01  1.4192038339657E+00 -5.7704978964463E-01