Ra    ONCVPSP-4.0.1  r_core=   1.60343   1.60343   1.75396   1.70228
88.0000     28.0000      220206    zatom,zion,pspd
8      11   3     4   600     0    pspcod,pspxc,lmax,lloc,mmax,r2well
5.99000000  5.00000000  0.00000000    rchrg fchrg qchrg
3     2     2     2     0    nproj
1     1           extension_switch
0                         6.4471096150322E+00 -3.9116344575570E+00  8.0158990953438E-01
1  0.0000000000000E+00 -8.5835546448365E-09  4.7143622339263E-11 -1.9029962106121E-08
2  1.0000000000000E-02  1.0423852782010E-01  3.8616685957652E-02  4.3257919113868E-02
3  2.0000000000000E-02  2.0781906667048E-01  7.7197249892635E-02  8.5670254837447E-02
4  3.0000000000000E-02  3.1009119217545E-01  1.1570559447747E-01  1.2640616768397E-01
5  4.0000000000000E-02  4.1041948581743E-01  1.5410567228553E-01  1.6466403801093E-01
6  5.0000000000000E-02  5.0819073179268E-01  1.9236151200521E-01  1.9968541102607E-01
7  6.0000000000000E-02  6.0282075284017E-01  2.3043724613603E-01  2.3076815777427E-01
8  7.0000000000000E-02  6.9376077500958E-01  2.6829714060385E-01  2.5727861361737E-01
9  8.0000000000000E-02  7.8050321991770E-01  3.0590562668527E-01  2.7866247474919E-01
10  9.0000000000000E-02  8.6258683346259E-01  3.4322733557417E-01  2.9445425639064E-01
11  1.0000000000000E-01  9.3960107202437E-01  3.8022713585772E-01  3.0428514304974E-01
12  1.1000000000000E-01  1.0111896806519E+00  4.1687017409596E-01  3.0788909110240E-01
13  1.2000000000000E-01  1.0770534123618E+00  4.5312191862053E-01  3.0510707638816E-01
14  1.3000000000000E-01  1.1369518531833E+00  4.8894820658481E-01  2.9588941390993E-01
15  1.4000000000000E-01  1.1907043336808E+00  5.2431529421272E-01  2.8029611243040E-01
16  1.5000000000000E-01  1.2381899240649E+00  5.5918991010748E-01  2.5849526309614E-01
17  1.6000000000000E-01  1.2793465263663E+00  5.9353931139677E-01  2.3075949751679E-01
18  1.7000000000000E-01  1.3141690931782E+00  6.2733134240943E-01  1.9746058629357E-01
19  1.8000000000000E-01  1.3427070178816E+00  6.6053449550169E-01  1.5906228317026E-01
20  1.9000000000000E-01  1.3650607557610E+00  6.9311797358042E-01  1.1611155212932E-01
21  2.0000000000000E-01  1.3813777487325E+00  7.2505175380836E-01  6.9228344279343E-02
22  2.1000000000000E-01  1.3918477382969E+00  7.5630665192265E-01  1.9094117731607E-02
23  2.2000000000000E-01  1.3966975615778E+00  7.8685438655473E-01 -3.3560683644330E-02
24  2.3000000000000E-01  1.3961855337276E+00  8.1666764290814E-01 -8.7969958074109E-02
25  2.4000000000000E-01  1.3905955264303E+00  8.4572013513025E-01 -1.4334583162300E-01
26  2.5000000000000E-01  1.3802308565933E+00  8.7398666670692E-01 -1.9889284356502E-01
27  2.6000000000000E-01  1.3654081015221E+00  9.0144318821371E-01 -2.5382216839567E-01
28  2.7000000000000E-01  1.3464509568883E+00  9.2806685177524E-01 -3.0736561169237E-01
29  2.8000000000000E-01  1.3236842516420E+00  9.5383606161379E-01 -3.5878912209737E-01
30  2.9000000000000E-01  1.2974282297369E+00  9.7873052011008E-01 -4.0740557153838E-01
31  3.0000000000000E-01  1.2679932022229E+00  1.0027312688513E+00 -4.5258657022234E-01
32  3.1000000000000E-01  1.2356746650493E+00  1.0258207242043E+00 -4.9377310164162E-01
33  3.2000000000000E-01  1.2007489679709E+00  1.0479827070218E+00 -5.3048478546730E-01
34  3.3000000000000E-01  1.1634696084713E+00  1.0692024661695E+00 -5.6232760232806E-01
35  3.4000000000000E-01  1.1240642118161E+00  1.0894666956441E+00 -5.8899994358940E-01
36  3.5000000000000E-01  1.0827322444963E+00  1.1087635451427E+00 -6.1029688080799E-01
37  3.6000000000000E-01  1.0396434936685E+00  1.1270826240328E+00 -6.2611258293553E-01
38  3.7000000000000E-01  9.9493733003029E-01  1.1444149987658E+00 -6.3644084397152E-01
39  3.8000000000000E-01  9.4872275618074E-01  1.1607531838656E+00 -6.4137371895447E-01
40  3.9000000000000E-01  9.0107922718582E-01  1.1760911267140E+00 -6.4109830129532E-01
41  4.0000000000000E-01  8.5205821509832E-01  1.1904241864364E+00 -6.3589170883637E-01
42  4.1000000000000E-01  8.0168547483935E-01  1.2037491072705E+00 -6.2611437903854E-01
43  4.2000000000000E-01  7.4996395540679E-01  1.2160639868708E+00 -6.1220180475050E-01
44  4.3000000000000E-01  6.9687728807756E-01  1.2273682400648E+00 -5.9465487053813E-01
45  4.4000000000000E-01  6.4239377234220E-01  1.2376625586275E+00 -5.7402897502775E-01
46  4.5000000000000E-01  5.8647077094349E-01  1.2469488676858E+00 -5.5092214670144E-01
47  4.6000000000000E-01  5.2905941775781E-01  1.2552302793923E+00 -5.2596237867211E-01
48  4.7000000000000E-01  4.7010953648365E-01  1.2625110445321E+00 -4.9979442186436E-01
49  4.8000000000000E-01  4.0957466428794E-01  1.2687965027283E+00 -4.7306628548398E-01
50  4.9000000000000E-01  3.4741707276244E-01  1.2740930319146E+00 -4.4641569853408E-01
51  5.0000000000000E-01  2.8361267878374E-01  1.2784079977228E+00 -4.2045678635429E-01
52  5.1000000000000E-01  2.1815574013075E-01  1.2817497034111E+00 -3.9576721174490E-01
53  5.2000000000000E-01  1.5106323494027E-01  1.2841273409195E+00 -3.7287602129263E-01
54  5.3000000000000E-01  8.2378830184791E-02  1.2855509435962E+00 -3.5225242421909E-01
55  5.4000000000000E-01  1.2176352207195E-02  1.2860313410831E+00 -3.3429571370085E-01
56  5.5000000000000E-01 -5.9437318203529E-02  1.2855801167869E+00 -3.1932651948204E-01
57  5.6000000000000E-01 -1.3231999285725E-01  1.2842095682977E+00 -3.0757955613525E-01
58  5.7000000000000E-01 -2.0629261992859E-01  1.2819326710446E+00 -2.9919800396278E-01
59  5.8000000000000E-01 -2.8113846601664E-01  1.2787630454027E+00 -2.9422962979906E-01
60  5.9000000000000E-01 -3.5660306431141E-01  1.2747149273920E+00 -2.9262472340125E-01
61  6.0000000000000E-01 -4.3239494245190E-01  1.2698031430322E+00 -2.9423589229055E-01
62  6.1000000000000E-01 -5.0818712922348E-01  1.2640430863428E+00 -2.9881972441992E-01
63  6.2000000000000E-01 -5.8361942485993E-01  1.2574507009075E+00 -3.0604029449616E-01
64  6.3000000000000E-01 -6.5830140564849E-01  1.2500424648531E+00 -3.1547445677447E-01
65  6.4000000000000E-01 -7.3181612003943E-01  1.2418353790324E+00 -3.2661883525933E-01
66  6.5000000000000E-01 -8.0372442076998E-01  1.2328469581432E+00 -3.3889839203954E-01
67  6.6000000000000E-01 -8.7356986585315E-01  1.2230952244685E+00 -3.5167642648868E-01
68  6.7000000000000E-01 -9.4088411085331E-01  1.2125987038794E+00 -3.6426583275156E-01
69  6.8000000000000E-01 -1.0051927058537E+00  1.2013764237118E+00 -3.7594142074938E-01
70  6.9000000000000E-01 -1.0660212030622E+00  1.1894479121033E+00 -3.8595308723143E-01
71  7.0000000000000E-01 -1.1229014752251E+00  1.1768331983584E+00 -3.9353960849785E-01
72  7.1000000000000E-01 -1.1753781410146E+00  1.1635528139090E+00 -3.9794281554512E-01
73  7.2000000000000E-01 -1.2230149913730E+00  1.1496277934317E+00 -3.9842190570957E-01
74  7.3000000000000E-01 -1.2654013104743E+00  1.1350796756987E+00 -3.9426764249463E-01
75  7.4000000000000E-01 -1.3021579864727E+00  1.1199305037534E+00 -3.8481619717865E-01
76  7.5000000000000E-01 -1.3329433105239E+00  1.1042028240236E+00 -3.6946239194564E-01
77  7.6000000000000E-01 -1.3574583676016E+00  1.0879196840195E+00 -3.4767211453265E-01
78  7.7000000000000E-01 -1.3754519292937E+00  1.0711046282912E+00 -3.1899368853449E-01
79  7.8000000000000E-01 -1.3867247669149E+00  1.0537816923642E+00 -2.8306800128178E-01
80  7.9000000000000E-01 -1.3911333127618E+00  1.0359753944098E+00 -2.3963721227919E-01
81  8.0000000000000E-01 -1.3885926079851E+00  1.0177107244470E+00 -1.8855188917484E-01
82  8.1000000000000E-01 -1.3790784871687E+00  9.9901313092248E-01 -1.2977644469693E-01
83  8.2000000000000E-01 -1.3626289620738E+00  9.7990850454993E-01 -6.3392776472321E-02
84  8.3000000000000E-01 -1.3393447799131E+00  9.6042315933773E-01  1.0397958365411E-02
85  8.4000000000000E-01 -1.3093891447366E+00  9.4058381076945E-01  9.1275470883286E-02
86  8.5000000000000E-01 -1.2729866038092E+00  9.2041755113903E-01  1.7880237602349E-01
87  8.6000000000000E-01 -1.2304211140143E+00  8.9995182207478E-01  2.7242811051338E-01
88  8.7000000000000E-01 -1.1820333161090E+00  8.7921438431413E-01  3.7149467649096E-01
89  8.8000000000000E-01 -1.1282170568707E+00  8.5823328481499E-01  4.7524412464144E-01
90  8.9000000000000E-01 -1.0694152106147E+00  8.3703682130793E-01  5.8282766254962E-01
91  9.0000000000000E-01 -1.0061148620511E+00  8.1565350440752E-01  6.9331624792580E-01
92  9.1000000000000E-01 -9.3884192181509E-01  7.9411201740993E-01  8.0571250277787E-01
93  9.2000000000000E-01 -8.6815525411796E-01  7.7244117390865E-01  9.1896376384391E-01
94  9.3000000000000E-01 -7.9464040270057E-01  7.5066987336033E-01  1.0319760669891E+00
95  9.4000000000000E-01 -7.1890300654167E-01  7.2882705472956E-01  1.1436288490667E+00
96  9.5000000000000E-01 -6.4156200051189E-01  7.0694164833522E-01  1.2527901401447E+00
97  9.6000000000000E-01 -5.6324269833424E-01  6.8504252601260E-01  1.3583320121537E+00
98  9.7000000000000E-01 -4.8456985580277E-01  6.6315844969545E-01  1.4591460469795E+00
99  9.8000000000000E-01 -4.0616081123830E-01  6.4131801851192E-01  1.5541585878352E+00
100  9.9000000000000E-01 -3.2861879766753E-01  6.1954961447841E-01  1.6423455423319E+00
101  1.0000000000000E+00 -2.5252651726729E-01  5.9788134686612E-01  1.7227465139200E+00
102  1.0100000000000E+00 -1.7844006330692E-01  5.7634099530919E-01  1.7944780501268E+00
103  1.0200000000000E+00 -1.0688326826283E-01  5.5495595171883E-01  1.8567458110320E+00
104  1.0300000000000E+00 -3.8342549103823E-02  5.3375316106857E-01  1.9088554794235E+00
105  1.0400000000000E+00  2.6737687906507E-02  5.1275906111949E-01  1.9502222547519E+00
106  1.0500000000000E+00  8.7959030013097E-02  4.9199952116393E-01  1.9803787959883E+00
107  1.0600000000000E+00  1.4497238559449E-01  4.7149977988015E-01  1.9989815033440E+00
108  1.0700000000000E+00  1.9748062441370E-01  4.5128438241044E-01  2.0058150552217E+00
109  1.0800000000000E+00  2.4524050914072E-01  4.3137711680029E-01  2.0007951441563E+00
110  1.0900000000000E+00  2.8806390774950E-01  4.1180094996652E-01  1.9839693835276E+00
111  1.1000000000000E+00  3.2581828727706E-01  3.9257796339825E-01  1.9555163850059E+00
112  1.1100000000000E+00  3.5842650003218E-01  3.7372928883388E-01  1.9157430344929E+00
113  1.1200000000000E+00  3.8586588356776E-01  3.5527504420142E-01  1.8650800214935E+00
114  1.1300000000000E+00  4.0816670531684E-01  3.3723427015582E-01  1.8040757026921E+00
115  1.1400000000000E+00  4.2540999172616E-01  3.1962486759579E-01  1.7333884049636E+00
116  1.1500000000000E+00  4.3772478973177E-01  3.0246353659140E-01  1.6537772953649E+00
117  1.1600000000000E+00  4.4528491554101E-01  2.8576571720321E-01  1.5660919658946E+00
118  1.1700000000000E+00  4.4830525168194E-01  2.6954553272006E-01  1.4712608982913E+00
119  1.1800000000000E+00  4.4703765820648E-01  2.5381573588710E-01  1.3702789889749E+00
120  1.1900000000000E+00  4.4176656762759E-01  2.3858765873431E-01  1.2641943259126E+00
121  1.2000000000000E+00  4.3280433567675E-01  2.2387116664950E-01  1.1540944177837E+00
122  1.2100000000000E+00  4.2048642122348E-01  2.0967461736537E-01  1.0410920810808E+00
123  1.2200000000000E+00  4.0516646873600E-01  1.9600482554769E-01  9.2631119274070E-01
124  1.2300000000000E+00  3.8721136548692E-01  1.8286703367894E-01  8.1087251450381E-01
125  1.2400000000000E+00  3.6699634339150E-01  1.7026488992886E-01  6.9587979056297E-01
126  1.2500000000000E+00  3.4490019192860E-01  1.5820043368804E-01  5.8240631219532E-01
127  1.2600000000000E+00  3.2130064414252E-01  1.4667408941367E-01  4.7148213218774E-01
128  1.2700000000000E+00  2.9656999236208E-01  1.3568466939690E-01  3.6408209820094E-01
129  1.2800000000000E+00  2.7107098402729E-01  1.2522938600814E-01  2.6111485780580E-01
130  1.2900000000000E+00  2.4515304109136E-01  1.1530387391154E-01  1.6341296927481E-01
131  1.3000000000000E+00  2.1914883894569E-01  1.0590222266204E-01  7.1724231534522E-02
132  1.3100000000000E+00  1.9337127276817E-01  9.7017020008629E-02 -1.3295675869035E-02
133  1.3200000000000E+00  1.6811083084910E-01  8.8639406127136E-02 -9.1089175733999E-02
134  1.3300000000000E+00  1.4363338588871E-01  8.0759138896174E-02 -1.6120135683864E-01
135  1.3400000000000E+00  1.2017840656565E-01  7.3364670211265E-02 -2.2328310158000E-01
136  1.3500000000000E+00  9.7957583068974E-02  6.6443233207594E-02 -2.7709278666261E-01
137  1.3600000000000E+00  7.7153851812680E-02  5.9980940132199E-02 -3.2249659158739E-01
138  1.3700000000000E+00  5.7920796406396E-02  5.3962890474912E-02 -3.5946747476665E-01
139  1.3800000000000E+00  4.0382394121629E-02  4.8373288833917E-02 -3.8808290158388E-01
140  1.3900000000000E+00  2.4633069835740E-02  4.3195571861705E-02 -4.0852143176433E-01
141  1.4000000000000E+00  1.0738012709374E-02  3.8412543510164E-02 -4.2105829513479E-01
142  1.4100000000000E+00 -1.2662951748744E-03  3.4006517673730E-02 -4.2606010465556E-01
143  1.4200000000000E+00 -1.1371394305810E-02  2.9959467217754E-02 -4.2397887343016E-01
144  1.4300000000000E+00 -1.9596067971502E-02  2.6253178278935E-02 -4.1534551785177E-01
145  1.4400000000000E+00 -2.5985531498306E-02  2.2869408637302E-02 -4.0076304198935E-01
146  1.4500000000000E+00 -3.0610657586002E-02  1.9790048886770E-02 -3.8089960859993E-01
147  1.4600000000000E+00 -3.3567306735880E-02  1.6997285075466E-02 -3.5648170961326E-01
148  1.4700000000000E+00 -3.4975832788252E-02  1.4473761449300E-02 -3.2828765351591E-01
149  1.4800000000000E+00 -3.4980835438834E-02  1.2202741915020E-02 -2.9714159393376E-01
150  1.4900000000000E+00 -3.3751226160414E-02  1.0168268834518E-02 -2.6390830757050E-01
151  1.5000000000000E+00 -3.1480617701035E-02  8.3553182306990E-03 -2.2948877413307E-01
152  1.5100000000000E+00 -2.8387778163559E-02  6.7499459099620E-03 -1.9481570522661E-01
153  1.5200000000000E+00 -2.4705951467642E-02  5.3394315729216E-03 -1.6081599723931E-01
154  1.5300000000000E+00 -2.0674266936783E-02  4.1117356612149E-03 -1.2837062769270E-01
155  1.5400000000000E+00 -1.6533137667500E-02  3.0553284886438E-03 -9.8299391705534E-02
156  1.5500000000000E+00 -1.2485571165473E-02  2.1627145264122E-03 -7.1297382551777E-02
157  1.5600000000000E+00 -8.7260437334333E-03  1.4280694323232E-03 -4.7973074381354E-02
158  1.5700000000000E+00 -5.4389971504539E-03  8.4716890966378E-04 -2.8843154403510E-02
159  1.5800000000000E+00 -2.7979408531166E-03  4.1757278262045E-04 -1.4332904877513E-02
160  1.5900000000000E+00 -9.5048660946338E-04  1.3684321828539E-04 -4.7111175367706E-03
161  1.6000000000000E+00 -8.9546697536321E-05  1.2478558842224E-05 -4.2861063099428E-04
162  1.6100000000000E+00  1.7004429156938E-05 -2.3235960539819E-06  7.9937610268996E-05
163  1.6200000000000E+00 -5.3235091647228E-06  7.3813312108528E-07 -2.5440378970263E-05
164  1.63  0. -0.  0.
165  1.64 -0. -0. -0.
166  1.65  0.  0.  0.
167  1.66  0.  0.  0.
168  1.67  0.  0.  0.
169  1.68  0.  0.  0.
170  1.69  0.  0.  0.
171  1.70  0.  0.  0.
172  1.71  0.  0.  0.
173  1.72  0.  0.  0.
174  1.73  0.  0.  0.
175  1.74  0.  0.  0.
176  1.75  0.  0.  0.
177  1.76  0.  0.  0.
178  1.77  0.  0.  0.
179  1.78  0.  0.  0.
180  1.79  0.  0.  0.
181  1.80  0.  0.  0.
182  1.81  0.  0.  0.
183  1.82  0.  0.  0.
184  1.83  0.  0.  0.
185  1.84  0.  0.  0.
186  1.85  0.  0.  0.
187  1.86  0.  0.  0.
188  1.87  0.  0.  0.
189  1.88  0.  0.  0.
190  1.89  0.  0.  0.
191  1.90  0.  0.  0.
192  1.91  0.  0.  0.
193  1.92  0.  0.  0.
194  1.93  0.  0.  0.
195  1.94  0.  0.  0.
196  1.95  0.  0.  0.
197  1.96  0.  0.  0.
198  1.97  0.  0.  0.
199  1.98  0.  0.  0.
200  1.99  0.  0.  0.
201  2.00  0.  0.  0.
202  2.01  0.  0.  0.
203  2.02  0.  0.  0.
204  2.03  0.  0.  0.
205  2.04  0.  0.  0.
206  2.05  0.  0.  0.
207  2.06  0.  0.  0.
208  2.07  0.  0.  0.
209  2.08  0.  0.  0.
210  2.09  0.  0.  0.
211  2.10  0.  0.  0.
212  2.11  0.  0.  0.
213  2.12  0.  0.  0.
214  2.13  0.  0.  0.
215  2.14  0.  0.  0.
216  2.15  0.  0.  0.
217  2.16  0.  0.  0.
218  2.17  0.  0.  0.
219  2.18  0.  0.  0.
220  2.19  0.  0.  0.
221  2.20  0.  0.  0.
222  2.21  0.  0.  0.
223  2.22  0.  0.  0.
224  2.23  0.  0.  0.
225  2.24  0.  0.  0.
226  2.25  0.  0.  0.
227  2.26  0.  0.  0.
228  2.27  0.  0.  0.
229  2.28  0.  0.  0.
230  2.29  0.  0.  0.
231  2.30  0.  0.  0.
232  2.31  0.  0.  0.
233  2.32  0.  0.  0.
234  2.33  0.  0.  0.
235  2.34  0.  0.  0.
236  2.35  0.  0.  0.
237  2.36  0.  0.  0.
238  2.37  0.  0.  0.
239  2.38  0.  0.  0.
240  2.39  0.  0.  0.
241  2.40  0.  0.  0.
242  2.41  0.  0.  0.
243  2.42  0.  0.  0.
244  2.43  0.  0.  0.
245  2.44  0.  0.  0.
246  2.45  0.  0.  0.
247  2.46  0.  0.  0.
248  2.47  0.  0.  0.
249  2.48  0.  0.  0.
250  2.49  0.  0.  0.
251  2.50  0.  0.  0.
252  2.51  0.  0.  0.
253  2.52  0.  0.  0.
254  2.53  0.  0.  0.
255  2.54  0.  0.  0.
256  2.55  0.  0.  0.
257  2.56  0.  0.  0.
258  2.57  0.  0.  0.
259  2.58  0.  0.  0.
260  2.59  0.  0.  0.
261  2.60  0.  0.  0.
262  2.61  0.  0.  0.
263  2.62  0.  0.  0.
264  2.63  0.  0.  0.
265  2.64  0.  0.  0.
266  2.65  0.  0.  0.
267  2.66  0.  0.  0.
268  2.67  0.  0.  0.
269  2.68  0.  0.  0.
270  2.69  0.  0.  0.
271  2.70  0.  0.  0.
272  2.71  0.  0.  0.
273  2.72  0.  0.  0.
274  2.73  0.  0.  0.
275  2.74  0.  0.  0.
276  2.75  0.  0.  0.
277  2.76  0.  0.  0.
278  2.77  0.  0.  0.
279  2.78  0.  0.  0.
280  2.79  0.  0.  0.
281  2.80  0.  0.  0.
282  2.81  0.  0.  0.
283  2.82  0.  0.  0.
284  2.83  0.  0.  0.
285  2.84  0.  0.  0.
286  2.85  0.  0.  0.
287  2.86  0.  0.  0.
288  2.87  0.  0.  0.
289  2.88  0.  0.  0.
290  2.89  0.  0.  0.
291  2.90  0.  0.  0.
292  2.91  0.  0.  0.
293  2.92  0.  0.  0.
294  2.93  0.  0.  0.
295  2.94  0.  0.  0.
296  2.95  0.  0.  0.
297  2.96  0.  0.  0.
298  2.97  0.  0.  0.
299  2.98  0.  0.  0.
300  2.99  0.  0.  0.
301  3.00  0.  0.  0.
302  3.01  0.  0.  0.
303  3.02  0.  0.  0.
304  3.03  0.  0.  0.
305  3.04  0.  0.  0.
306  3.05  0.  0.  0.
307  3.06  0.  0.  0.
308  3.07  0.  0.  0.
309  3.08  0.  0.  0.
310  3.09  0.  0.  0.
311  3.10  0.  0.  0.
312  3.11  0.  0.  0.
313  3.12  0.  0.  0.
314  3.13  0.  0.  0.
315  3.14  0.  0.  0.
316  3.15  0.  0.  0.
317  3.16  0.  0.  0.
318  3.17  0.  0.  0.
319  3.18  0.  0.  0.
320  3.19  0.  0.  0.
321  3.20  0.  0.  0.
322  3.21  0.  0.  0.
323  3.22  0.  0.  0.
324  3.23  0.  0.  0.
325  3.24  0.  0.  0.
326  3.25  0.  0.  0.
327  3.26  0.  0.  0.
328  3.27  0.  0.  0.
329  3.28  0.  0.  0.
330  3.29  0.  0.  0.
331  3.30  0.  0.  0.
332  3.31  0.  0.  0.
333  3.32  0.  0.  0.
334  3.33  0.  0.  0.
335  3.34  0.  0.  0.
336  3.35  0.  0.  0.
337  3.36  0.  0.  0.
338  3.37  0.  0.  0.
339  3.38  0.  0.  0.
340  3.39  0.  0.  0.
341  3.40  0.  0.  0.
342  3.41  0.  0.  0.
343  3.42  0.  0.  0.
344  3.43  0.  0.  0.
345  3.44  0.  0.  0.
346  3.45  0.  0.  0.
347  3.46  0.  0.  0.
348  3.47  0.  0.  0.
349  3.48  0.  0.  0.
350  3.49  0.  0.  0.
351  3.50  0.  0.  0.
352  3.51  0.  0.  0.
353  3.52  0.  0.  0.
354  3.53  0.  0.  0.
355  3.54  0.  0.  0.
356  3.55  0.  0.  0.
357  3.56  0.  0.  0.
358  3.57  0.  0.  0.
359  3.58  0.  0.  0.
360  3.59  0.  0.  0.
361  3.60  0.  0.  0.
362  3.61  0.  0.  0.
363  3.62  0.  0.  0.
364  3.63  0.  0.  0.
365  3.64  0.  0.  0.
366  3.65  0.  0.  0.
367  3.66  0.  0.  0.
368  3.67  0.  0.  0.
369  3.68  0.  0.  0.
370  3.69  0.  0.  0.
371  3.70  0.  0.  0.
372  3.71  0.  0.  0.
373  3.72  0.  0.  0.
374  3.73  0.  0.  0.
375  3.74  0.  0.  0.
376  3.75  0.  0.  0.
377  3.76  0.  0.  0.
378  3.77  0.  0.  0.
379  3.78  0.  0.  0.
380  3.79  0.  0.  0.
381  3.80  0.  0.  0.
382  3.81  0.  0.  0.
383  3.82  0.  0.  0.
384  3.83  0.  0.  0.
385  3.84  0.  0.  0.
386  3.85  0.  0.  0.
387  3.86  0.  0.  0.
388  3.87  0.  0.  0.
389  3.88  0.  0.  0.
390  3.89  0.  0.  0.
391  3.90  0.  0.  0.
392  3.91  0.  0.  0.
393  3.92  0.  0.  0.
394  3.93  0.  0.  0.
395  3.94  0.  0.  0.
396  3.95  0.  0.  0.
397  3.96  0.  0.  0.
398  3.97  0.  0.  0.
399  3.98  0.  0.  0.
400  3.99  0.  0.  0.
401  4.00  0.  0.  0.
402  4.01  0.  0.  0.
403  4.02  0.  0.  0.
404  4.03  0.  0.  0.
405  4.04  0.  0.  0.
406  4.05  0.  0.  0.
407  4.06  0.  0.  0.
408  4.07  0.  0.  0.
409  4.08  0.  0.  0.
410  4.09  0.  0.  0.
411  4.10  0.  0.  0.
412  4.11  0.  0.  0.
413  4.12  0.  0.  0.
414  4.13  0.  0.  0.
415  4.14  0.  0.  0.
416  4.15  0.  0.  0.
417  4.16  0.  0.  0.
418  4.17  0.  0.  0.
419  4.18  0.  0.  0.
420  4.19  0.  0.  0.
421  4.20  0.  0.  0.
422  4.21  0.  0.  0.
423  4.22  0.  0.  0.
424  4.23  0.  0.  0.
425  4.24  0.  0.  0.
426  4.25  0.  0.  0.
427  4.26  0.  0.  0.
428  4.27  0.  0.  0.
429  4.28  0.  0.  0.
430  4.29  0.  0.  0.
431  4.30  0.  0.  0.
432  4.31  0.  0.  0.
433  4.32  0.  0.  0.
434  4.33  0.  0.  0.
435  4.34  0.  0.  0.
436  4.35  0.  0.  0.
437  4.36  0.  0.  0.
438  4.37  0.  0.  0.
439  4.38  0.  0.  0.
440  4.39  0.  0.  0.
441  4.40  0.  0.  0.
442  4.41  0.  0.  0.
443  4.42  0.  0.  0.
444  4.43  0.  0.  0.
445  4.44  0.  0.  0.
446  4.45  0.  0.  0.
447  4.46  0.  0.  0.
448  4.47  0.  0.  0.
449  4.48  0.  0.  0.
450  4.49  0.  0.  0.
451  4.50  0.  0.  0.
452  4.51  0.  0.  0.
453  4.52  0.  0.  0.
454  4.53  0.  0.  0.
455  4.54  0.  0.  0.
456  4.55  0.  0.  0.
457  4.56  0.  0.  0.
458  4.57  0.  0.  0.
459  4.58  0.  0.  0.
460  4.59  0.  0.  0.
461  4.60  0.  0.  0.
462  4.61  0.  0.  0.
463  4.62  0.  0.  0.
464  4.63  0.  0.  0.
465  4.64  0.  0.  0.
466  4.65  0.  0.  0.
467  4.66  0.  0.  0.
468  4.67  0.  0.  0.
469  4.68  0.  0.  0.
470  4.69  0.  0.  0.
471  4.70  0.  0.  0.
472  4.71  0.  0.  0.
473  4.72  0.  0.  0.
474  4.73  0.  0.  0.
475  4.74  0.  0.  0.
476  4.75  0.  0.  0.
477  4.76  0.  0.  0.
478  4.77  0.  0.  0.
479  4.78  0.  0.  0.
480  4.79  0.  0.  0.
481  4.80  0.  0.  0.
482  4.81  0.  0.  0.
483  4.82  0.  0.  0.
484  4.83  0.  0.  0.
485  4.84  0.  0.  0.
486  4.85  0.  0.  0.
487  4.86  0.  0.  0.
488  4.87  0.  0.  0.
489  4.88  0.  0.  0.
490  4.89  0.  0.  0.
491  4.90  0.  0.  0.
492  4.91  0.  0.  0.
493  4.92  0.  0.  0.
494  4.93  0.  0.  0.
495  4.94  0.  0.  0.
496  4.95  0.  0.  0.
497  4.96  0.  0.  0.
498  4.97  0.  0.  0.
499  4.98  0.  0.  0.
500  4.99  0.  0.  0.
501  5.00  0.  0.  0.
502  5.01  0.  0.  0.
503  5.02  0.  0.  0.
504  5.03  0.  0.  0.
505  5.04  0.  0.  0.
506  5.05  0.  0.  0.
507  5.06  0.  0.  0.
508  5.07  0.  0.  0.
509  5.08  0.  0.  0.
510  5.09  0.  0.  0.
511  5.10  0.  0.  0.
512  5.11  0.  0.  0.
513  5.12  0.  0.  0.
514  5.13  0.  0.  0.
515  5.14  0.  0.  0.
516  5.15  0.  0.  0.
517  5.16  0.  0.  0.
518  5.17  0.  0.  0.
519  5.18  0.  0.  0.
520  5.19  0.  0.  0.
521  5.20  0.  0.  0.
522  5.21  0.  0.  0.
523  5.22  0.  0.  0.
524  5.23  0.  0.  0.
525  5.24  0.  0.  0.
526  5.25  0.  0.  0.
527  5.26  0.  0.  0.
528  5.27  0.  0.  0.
529  5.28  0.  0.  0.
530  5.29  0.  0.  0.
531  5.30  0.  0.  0.
532  5.31  0.  0.  0.
533  5.32  0.  0.  0.
534  5.33  0.  0.  0.
535  5.34  0.  0.  0.
536  5.35  0.  0.  0.
537  5.36  0.  0.  0.
538  5.37  0.  0.  0.
539  5.38  0.  0.  0.
540  5.39  0.  0.  0.
541  5.40  0.  0.  0.
542  5.41  0.  0.  0.
543  5.42  0.  0.  0.
544  5.43  0.  0.  0.
545  5.44  0.  0.  0.
546  5.45  0.  0.  0.
547  5.46  0.  0.  0.
548  5.47  0.  0.  0.
549  5.48  0.  0.  0.
550  5.49  0.  0.  0.
551  5.50  0.  0.  0.
552  5.51  0.  0.  0.
553  5.52  0.  0.  0.
554  5.53  0.  0.  0.
555  5.54  0.  0.  0.
556  5.55  0.  0.  0.
557  5.56  0.  0.  0.
558  5.57  0.  0.  0.
559  5.58  0.  0.  0.
560  5.59  0.  0.  0.
561  5.60  0.  0.  0.
562  5.61  0.  0.  0.
563  5.62  0.  0.  0.
564  5.63  0.  0.  0.
565  5.64  0.  0.  0.
566  5.65  0.  0.  0.
567  5.66  0.  0.  0.
568  5.67  0.  0.  0.
569  5.68  0.  0.  0.
570  5.69  0.  0.  0.
571  5.70  0.  0.  0.
572  5.71  0.  0.  0.
573  5.72  0.  0.  0.
574  5.73  0.  0.  0.
575  5.74  0.  0.  0.
576  5.75  0.  0.  0.
577  5.76  0.  0.  0.
578  5.77  0.  0.  0.
579  5.78  0.  0.  0.
580  5.79  0.  0.  0.
581  5.80  0.  0.  0.
582  5.81  0.  0.  0.
583  5.82  0.  0.  0.
584  5.83  0.  0.  0.
585  5.84  0.  0.  0.
586  5.85  0.  0.  0.
587  5.86  0.  0.  0.
588  5.87  0.  0.  0.
589  5.88  0.  0.  0.
590  5.89  0.  0.  0.
591  5.90  0.  0.  0.
592  5.91  0.  0.  0.
593  5.92  0.  0.  0.
594  5.93  0.  0.  0.
595  5.94  0.  0.  0.
596  5.95  0.  0.  0.
597  5.96  0.  0.  0.
598  5.97  0.  0.  0.
599  5.98  0.  0.  0.
600  5.99  0.  0.  0.
1                        -4.1382982762631E+00 -1.6744588687788E-01
1  0.0000000000000E+00  3.5324775049528E-10 -2.9321327976728E-08
2  1.0000000000000E-02  1.1466514214758E-03 -3.7912673573809E-03
3  2.0000000000000E-02  4.5824046239221E-03 -1.5108788458268E-02
4  3.0000000000000E-02  1.0294678587796E-02 -3.3784654713074E-02
5  4.0000000000000E-02  1.8262578636447E-02 -5.9542115597760E-02
6  5.0000000000000E-02  2.8457006277077E-02 -9.2000164168911E-02
7  6.0000000000000E-02  4.0840811602442E-02 -1.3067983764476E-01
8  7.0000000000000E-02  5.5368986901039E-02 -1.7501211669943E-01
9  8.0000000000000E-02  7.1988899770338E-02 -2.2434727779629E-01
10  9.0000000000000E-02  9.0640563698183E-02 -2.7796552639610E-01
11  1.0000000000000E-01  1.1125694377668E-01 -3.3508871573319E-01
12  1.1000000000000E-01  1.3376429494424E-01 -3.9489293650229E-01
13  1.2000000000000E-01  1.5808252991863E-01 -4.5652174761340E-01
14  1.3000000000000E-01  1.8412561378955E-01 -5.1909980743965E-01
15  1.4000000000000E-01  2.1180198208517E-01 -5.8174665890360E-01
16  1.5000000000000E-01  2.4101497901515E-01 -6.4359042043362E-01
17  1.6000000000000E-01  2.7166331252315E-01 -7.0378113828270E-01
18  1.7000000000000E-01  3.0364152275437E-01 -7.6150356386182E-01
19  1.8000000000000E-01  3.3684046055849E-01 -8.1598913242455E-01
20  1.9000000000000E-01  3.7114777270235E-01 -8.6652693638722E-01
21  2.0000000000000E-01  4.0644839055940E-01 -9.1247350743452E-01
22  2.1000000000000E-01  4.4262501917019E-01 -9.5326124592061E-01
23  2.2000000000000E-01  4.7955862372747E-01 -9.8840536344045E-01
24  2.3000000000000E-01  5.1712891072665E-01 -1.0175092342648E+00
25  2.4000000000000E-01  5.5521480123323E-01 -1.0402680830078E+00
26  2.5000000000000E-01  5.9369489394924E-01 -1.0564709687956E+00
27  2.6000000000000E-01  6.3244791600525E-01 -1.0660010596725E+00
28  2.7000000000000E-01  6.7135315965886E-01 -1.0688342243467E+00
29  2.8000000000000E-01  7.1029090334006E-01 -1.0650360009908E+00
30  2.9000000000000E-01  7.4914281574226E-01 -1.0547570340033E+00
31  3.0000000000000E-01  7.8779234191277E-01 -1.0382270988196E+00
32  3.1000000000000E-01  8.2612507054109E-01 -1.0157478614270E+00
33  3.2000000000000E-01  8.6402908187557E-01 -9.8768454269158E-01
34  3.3000000000000E-01  9.0139527591376E-01 -9.5445667746770E-01
35  3.4000000000000E-01  9.3811768070668E-01 -9.1652817435845E-01
36  3.5000000000000E-01  9.7409374078926E-01 -8.7439689361005E-01
37  3.6000000000000E-01  1.0092245858962E+00 -8.2858396774373E-01
38  3.7000000000000E-01  1.0434152802434E+00 -7.7962309201722E-01
39  3.8000000000000E-01  1.0765750527492E+00 -7.2805000963002E-01
40  3.9000000000000E-01  1.1086175086345E+00 -6.7439240979782E-01
41  4.0000000000000E-01  1.1394608228820E+00 -6.1916044557055E-01
42  4.1000000000000E-01  1.1690279160469E+00 -5.6283806279197E-01
43  4.2000000000000E-01  1.1972466129009E+00 -5.0587531222276E-01
44  4.3000000000000E-01  1.2240497843590E+00 -4.4868179397082E-01
45  4.4000000000000E-01  1.2493754730852E+00 -3.9162135746774E-01
46  4.5000000000000E-01  1.2731670031064E+00 -3.3500815182977E-01
47  4.6000000000000E-01  1.2953730736804E+00 -2.7910409112813E-01
48  4.7000000000000E-01  1.3159478375746E+00 -2.2411776749181E-01
49  4.8000000000000E-01  1.3348509638169E+00 -1.7020481272260E-01
50  4.9000000000000E-01  1.3520476848809E+00 -1.1746967688189E-01
51  5.0000000000000E-01  1.3675088281753E+00 -6.5968760773204E-02
52  5.1000000000000E-01  1.3812108316194E+00 -1.5714809046151E-02
53  5.2000000000000E-01  1.3931357430080E+00  3.3317557588673E-02
54  5.3000000000000E-01  1.4032712028078E+00  8.1185318231124E-02
55  5.4000000000000E-01  1.4116104099774E+00  1.2796970554595E-01
56  5.5000000000000E-01  1.4181520703817E+00  1.7376822623064E-01
57  5.6000000000000E-01  1.4229003273592E+00  2.1868625208813E-01
58  5.7000000000000E-01  1.4258646740277E+00  2.6282839635582E-01
59  5.8000000000000E-01  1.4270598469503E+00  3.0628989615592E-01
60  5.9000000000000E-01  1.4265057008574E+00  3.4914822344424E-01
61  6.0000000000000E-01  1.4242270642120E+00  3.9145514358863E-01
62  6.1000000000000E-01  1.4202535755254E+00  4.3322943273423E-01
63  6.2000000000000E-01  1.4146195004712E+00  4.7445045254574E-01
64  6.3000000000000E-01  1.4073635300106E+00  5.1505276396933E-01
65  6.4000000000000E-01  1.3985285599208E+00  5.5492194065656E-01
66  6.5000000000000E-01  1.3881614523188E+00  5.9389171801486E-01
67  6.6000000000000E-01  1.3763127799796E+00  6.3174258598094E-01
68  6.7000000000000E-01  1.3630365544696E+00  6.6820190308049E-01
69  6.8000000000000E-01  1.3483899393327E+00  7.0294557674453E-01
70  6.9000000000000E-01  1.3324329497937E+00  7.3560132083263E-01
71  7.0000000000000E-01  1.3152281406549E+00  7.6575346654686E-01
72  7.1000000000000E-01  1.2968402842727E+00  7.9294926809924E-01
73  7.2000000000000E-01  1.2773360406901E+00  8.1670661032843E-01
74  7.3000000000000E-01  1.2567836221759E+00  8.3652299263577E-01
75  7.4000000000000E-01  1.2352524545700E+00  8.5188563282048E-01
76  7.5000000000000E-01  1.2128128379596E+00  8.6228250626640E-01
77  7.6000000000000E-01  1.1895356092980E+00  8.6721411108023E-01
78  7.7000000000000E-01  1.1654918096417E+00  8.6620572874470E-01
79  7.8000000000000E-01  1.1407523586975E+00  8.5881993309562E-01
80  7.9000000000000E-01  1.1153877393579E+00  8.4466908836677E-01
81  8.0000000000000E-01  1.0894676948454E+00  8.2342756997163E-01
82  8.1000000000000E-01  1.0630609409887E+00  7.9484343982913E-01
83  8.2000000000000E-01  1.0362348960187E+00  7.5874931150614E-01
84  8.3000000000000E-01  1.0090554300966E+00  7.1507214926022E-01
85  8.4000000000000E-01  9.8158663657100E-01  6.6384175914115E-01
86  8.5000000000000E-01  9.5389062671805E-01  6.0519774945135E-01