Ra    ONCVPSP-4.0.1  r_core=   1.60343   1.60343   1.75396   1.70228
88.0000     28.0000      220712    zatom,zion,pspd
8      11   3     4   600     0    pspcod,pspxc,lmax,lloc,mmax,r2well
5.99000000  5.00000000  0.00000000    rchrg fchrg qchrg
3     2     2     1     0    nproj
1     1           extension_switch
0                         6.7007197936235E+00 -3.9057506950248E+00  6.9874969153580E-01
1  0.0000000000000E+00 -5.6855796737310E-09 -1.1726175586091E-11 -1.5036145772918E-08
2  1.0000000000000E-02  1.0442334963804E-01  3.7606844365181E-02  4.0654182494630E-02
3  2.0000000000000E-02  2.0825885841088E-01  7.5180709027590E-02  8.0576662085267E-02
4  3.0000000000000E-02  3.1092443317414E-01  1.1268865369438E-01  1.1904787449051E-01
5  4.0000000000000E-02  4.1184939104795E-01  1.5009781672459E-01  1.5537231768792E-01
6  5.0000000000000E-02  5.1047995309635E-01  1.8737545403823E-01  1.8889004951905E-01
7  6.0000000000000E-02  6.0628448840631E-01  2.2448897753367E-01  2.1898755602631E-01
8  7.0000000000000E-02  6.9875843218986E-01  2.6140599286357E-01  2.4510779881568E-01
9  8.0000000000000E-02  7.8742880721818E-01  2.9809433643126E-01  2.6675926477495E-01
10  9.0000000000000E-02  8.7185828480420E-01  3.3452211148364E-01  2.8352385974108E-01
11  1.0000000000000E-01  9.5164872955153E-01  3.7065772319324E-01  2.9506350885731E-01
12  1.1000000000000E-01  1.0264441810356E+00  4.0646991264039E-01  3.0112535000085E-01
13  1.2000000000000E-01  1.0959332353121E+00  4.4192778962629E-01  3.0154543235244E-01
14  1.3000000000000E-01  1.1598507994803E+00  4.7700086426889E-01  2.9625085944307E-01
15  1.4000000000000E-01  1.2179792032735E+00  5.1165907735526E-01  2.8526034434471E-01
16  1.5000000000000E-01  1.2701486626097E+00  5.4587282944626E-01  2.6868317354347E-01
17  1.6000000000000E-01  1.3162371010146E+00  5.7961300875126E-01  2.4671660491262E-01
18  1.7000000000000E-01  1.3561693456191E+00  6.1285101781211E-01  2.1964175355405E-01
19  1.8000000000000E-01  1.3899157248518E+00  6.4555879905585E-01  1.8781804657627E-01
20  1.9000000000000E-01  1.4174901047887E+00  6.7770885929460E-01  1.5167635362494E-01
21  2.0000000000000E-01  1.4389474102298E+00  7.0927429326836E-01  1.1171092370361E-01
22  2.1000000000000E-01  1.4543806847656E+00  7.4022880634093E-01  6.8470280083167E-02
23  2.2000000000000E-01  1.4639177512432E+00  7.7054673647192E-01  2.2547243518000E-02
24  2.3000000000000E-01  1.4677175400159E+00  8.0020307559700E-01 -2.5431730777234E-02
25  2.4000000000000E-01  1.4659661570514E+00  8.2917349055502E-01 -7.4817705149452E-02
26  2.5000000000000E-01  1.4588727673171E+00  8.5743434370390E-01 -1.2495069515695E-01
27  2.6000000000000E-01  1.4466653707946E+00  8.8496271336671E-01 -1.7517117915058E-01
28  2.7000000000000E-01  1.4295865489783E+00  9.1173641424571E-01 -2.2483147162516E-01
29  2.8000000000000E-01  1.4078892587844E+00  9.3773401793504E-01 -2.7330675358325E-01
30  2.9000000000000E-01  1.3818327484663E+00  9.6293487365175E-01 -3.2000556034098E-01
31  3.0000000000000E-01  1.3516786664493E+00  9.8731912929149E-01 -3.6437953804291E-01
32  3.1000000000000E-01  1.3176874290502E+00  1.0108677528977E+00 -4.0593229441293E-01
33  3.2000000000000E-01  1.2801149069201E+00  1.0335625546132E+00 -4.4422718669689E-01
34  3.3000000000000E-01  1.2392094828845E+00  1.0553862091621E+00 -4.7889390999627E-01
35  3.4000000000000E-01  1.1952095257802E+00  1.0763222788821E+00 -5.0963377188772E-01
36  3.5000000000000E-01  1.1483413160623E+00  1.0963552373055E+00 -5.3622356393132E-01
37  3.6000000000000E-01  1.0988174495582E+00  1.1154704932551E+00 -5.5851796693705E-01
38  3.7000000000000E-01  1.0468357359405E+00  1.1336544153963E+00 -5.7645045419438E-01
39  3.8000000000000E-01  9.9257859848010E-01  1.1508943571548E+00 -5.9003268476597E-01
40  3.9000000000000E-01  9.3621297160021E-01  1.1671786818838E+00 -5.9935240689597E-01
41  4.0000000000000E-01  8.7789068287755E-01  1.1824967881341E+00 -6.0456991906797E-01
42  4.1000000000000E-01  8.1774929660557E-01  1.1968391348551E+00 -6.0591316277036E-01
43  4.2000000000000E-01  7.5591338702619E-01  1.2101972663305E+00 -6.0367154610471E-01
44  4.3000000000000E-01  6.9249620101295E-01  1.2225638366297E+00 -5.9818862055581E-01
45  4.4000000000000E-01  6.2760166250189E-01  1.2339326333339E+00 -5.8985375410956E-01
46  4.5000000000000E-01  5.6132666444798E-01  1.2442986002853E+00 -5.7909296209555E-01
47  4.6000000000000E-01  4.9376358865443E-01  1.2536578590881E+00 -5.6635907231188E-01
48  4.7000000000000E-01  4.2500298956849E-01  1.2620077290863E+00 -5.5212141290803E-01
49  4.8000000000000E-01  3.5513637513552E-01  1.2693467455376E+00 -5.3685521994585E-01
50  4.9000000000000E-01  2.8425901609923E-01  1.2756746757002E+00 -5.2103096639612E-01
51  5.0000000000000E-01  2.1247271475487E-01  1.2809925325584E+00 -5.0510381547858E-01
52  5.1000000000000E-01  1.3988846510257E-01  1.2853025859175E+00 -4.8950339871589E-01
53  5.2000000000000E-01  6.6628938583356E-02  1.2886083706169E+00 -4.7462411290657E-01
54  5.3000000000000E-01 -7.1692669355293E-03  1.2909146916243E+00 -4.6081612054906E-01
55  5.4000000000000E-01 -8.1353672600475E-02  1.2922276258012E+00 -4.4837722526378E-01
56  5.5000000000000E-01 -1.5575431036788E-01  1.2925545201534E+00 -4.3754577770113E-01
57  5.6000000000000E-01 -2.3018250637425E-01  1.2919039864134E+00 -4.2849474859827E-01
58  5.7000000000000E-01 -3.0443009353819E-01  1.2902858918346E+00 -4.2132708439475E-01
59  5.8000000000000E-01 -3.7826908279386E-01  1.2877113461149E+00 -4.1607243753492E-01
60  5.9000000000000E-01 -4.5145181355011E-01  1.2841926844071E+00 -4.1268533868893E-01
61  6.0000000000000E-01 -5.2371159478191E-01  1.2797434464126E+00 -4.1104485206768E-01
62  6.1000000000000E-01 -5.9476383875747E-01  1.2743783516019E+00 -4.1095572825150E-01
63  6.2000000000000E-01 -6.6430767996237E-01  1.2681132706432E+00 -4.1215104198478E-01
64  6.3000000000000E-01 -7.3202806246417E-01  1.2609651931663E+00 -4.1429627566850E-01
65  6.4000000000000E-01 -7.9759826994480E-01  1.2529521920297E+00 -4.1699478330340E-01
66  6.5000000000000E-01 -8.6068286406377E-01  1.2440933842996E+00 -4.1979454482496E-01
67  6.6000000000000E-01 -9.2094098886463E-01  1.2344088891858E+00 -4.2219609758494E-01
68  6.7000000000000E-01 -9.7802999173138E-01  1.2239197832147E+00 -4.2366151055007E-01
69  6.8000000000000E-01 -1.0316093050715E+00  1.2126480529530E+00 -4.2362424798396E-01
70  6.9000000000000E-01 -1.0813445275530E+00  1.2006165456172E+00 -4.2149975326115E-01
71  7.0000000000000E-01 -1.1269116394471E+00  1.1878489179315E+00 -4.1669657030904E-01
72  7.1000000000000E-01 -1.1680012834965E+00  1.1743695836099E+00 -4.0862781019570E-01
73  7.2000000000000E-01 -1.2043230407879E+00  1.1602036598491E+00 -3.9672276373993E-01
74  7.3000000000000E-01 -1.2356096303939E+00  1.1453769132263E+00 -3.8043845781711E-01
75  7.4000000000000E-01 -1.2616209620605E+00  1.1299157053912E+00 -3.5927095330934E-01
76  7.5000000000000E-01 -1.2821479729440E+00  1.1138469389373E+00 -3.3276618638370E-01
77  7.6000000000000E-01 -1.2970161823131E+00  1.0971980038202E+00 -3.0053016189831E-01
78  7.7000000000000E-01 -1.3060889021583E+00  1.0799967246742E+00 -2.6223831809967E-01
79  7.8000000000000E-01 -1.3092700467405E+00  1.0622713093481E+00 -2.1764389519301E-01
80  7.9000000000000E-01 -1.3065064901450E+00  1.0440502989538E+00 -1.6658515660368E-01
81  8.0000000000000E-01 -1.2977899278026E+00  1.0253625196796E+00 -1.0899133051096E-01
82  8.1000000000000E-01 -1.2831582055582E+00  1.0062370365824E+00 -4.4887160203621E-02
83  8.2000000000000E-01 -1.2626960880853E+00  9.8670310952498E-01  2.5604025387972E-02
84  8.3000000000000E-01 -1.2365354471182E+00  9.6679015137507E-01  1.0225878537274E-01
85  8.4000000000000E-01 -1.2048548589539E+00  9.4652768853275E-01  1.8475362388867E-01
86  8.5000000000000E-01 -1.1678786098140E+00  9.2594532379808E-01  2.7266664359621E-01
87  8.6000000000000E-01 -1.1258751167977E+00  9.0507270153716E-01  3.6548078278593E-01
88  8.7000000000000E-01 -1.0791547811472E+00  8.8393947505086E-01  4.6258859739233E-01
89  8.8000000000000E-01 -1.0280672992501E+00  8.6257527599762E-01  5.6329852405852E-01
90  8.9000000000000E-01 -9.7299846506055E-01  8.4100968567120E-01  6.6684253635221E-01
91  9.0000000000000E-01 -9.1436650532091E-01  8.1927220788702E-01  7.7238508366627E-01
92  9.1000000000000E-01 -8.5261799596851E-01  7.9739224318745E-01  8.7903318162114E-01
93  9.2000000000000E-01 -7.8822341432454E-01  7.7539906403812E-01  9.8584750424131E-01
94  9.3000000000000E-01 -7.2167238698014E-01  7.5332179065570E-01  1.0918543121056E+00
95  9.4000000000000E-01 -6.5346869764544E-01  7.3118936708160E-01  1.1960580373104E+00
96  9.5000000000000E-01 -5.8412512254827E-01  7.0903053709841E-01  1.2974543356428E+00
97  9.6000000000000E-01 -5.1415816321601E-01  6.8687381957610E-01  1.3950434089925E+00
98  9.7000000000000E-01 -4.4408274762341E-01  6.6474748283331E-01  1.4878433968303E+00
99  9.8000000000000E-01 -3.7440697073046E-01  6.4267951760677E-01  1.5749036346092E+00
100  9.9000000000000E-01 -3.0562694438398E-01  6.2069760823837E-01  1.6553175791832E+00
101  1.0000000000000E+00 -2.3822182443730E-01  5.9882910171519E-01  1.7282352067514E+00
102  1.0100000000000E+00 -1.7264907980544E-01  5.7710097423220E-01  1.7928746972905E+00
103  1.0200000000000E+00 -1.0934006407455E-01  5.5553979499114E-01  1.8485332308198E+00
104  1.0300000000000E+00 -4.8695945310010E-02  5.3417168700069E-01  1.8945967348946E+00
105  1.0400000000000E+00  8.9159560660723E-03  5.1302228470239E-01  1.9305484392694E+00
106  1.0500000000000E+00  6.3165377919401E-02  4.9211668831373E-01  1.9559761123828E+00
107  1.0600000000000E+00  1.1376183919330E-01  4.7147941485200E-01  1.9705778748755E+00
108  1.0700000000000E+00  1.6045684597942E-01  4.5113434588051E-01  1.9741665074902E+00
109  1.0800000000000E+00  2.0304555983141E-01  4.3110467210043E-01  1.9666721939524E+00
110  1.0900000000000E+00  2.4136791532739E-01  4.1141283499584E-01  1.9481436634896E+00
111  1.1000000000000E+00  2.7530918201331E-01  3.9208046582533E-01  1.9187477221313E+00
112  1.1100000000000E+00  3.0479997390849E-01  3.7312832233909E-01  1.8787671863470E+00
113  1.1200000000000E+00  3.2981571766254E-01  3.5457622368462E-01  1.8285972567304E+00
114  1.1300000000000E+00  3.5037559800501E-01  3.3644298404493E-01  1.7687403926685E+00
115  1.1400000000000E+00  3.6654100632244E-01  3.1874634562994E-01  1.6997997712158E+00
116  1.1500000000000E+00  3.7841352479826E-01  3.0150291171161E-01  1.6224714340004E+00
117  1.1600000000000E+00  3.8613248458890E-01  2.8472808045675E-01  1.5375352449902E+00
118  1.1700000000000E+00  3.8987214177249E-01  2.6843598036476E-01  1.4458447986667E+00
119  1.1800000000000E+00  3.8983851933479E-01  2.5263940816187E-01  1.3483164326929E+00
120  1.1900000000000E+00  3.8626596708848E-01  2.3734977003548E-01  1.2459175109845E+00
121  1.2000000000000E+00  3.7941349418501E-01  2.2257702711237E-01  1.1396541522646E+00
122  1.2100000000000E+00  3.6956093068998E-01  2.0832964609148E-01  1.0305585854064E+00
123  1.2200000000000E+00  3.5700497556001E-01  1.9461455593483E-01  9.1967631613230E-01
124  1.2300000000000E+00  3.4205518826344E-01  1.8143711149869E-01  8.0805328986607E-01
125  1.2400000000000E+00  3.2502998025362E-01  1.6880106495150E-01  6.9672323274764E-01
126  1.2500000000000E+00  3.0625266053771E-01  1.5670854577396E-01  5.8669534703410E-01
127  1.2600000000000E+00  2.8604758673450E-01  1.4516005007209E-01  4.7894252842655E-01
128  1.2700000000000E+00  2.6473646935232E-01  1.3415443985514E-01  3.7439026149017E-01
129  1.2800000000000E+00  2.4263487254823E-01  1.2368895283764E-01  2.7390633526431E-01
130  1.2900000000000E+00  2.2004894949021E-01  1.1375922322066E-01  1.7829150480858E-01
131  1.3000000000000E+00  1.9727244469981E-01  1.0435931379157E-01  8.8271205995152E-02
132  1.3100000000000E+00  1.7458398944039E-01  9.5481759555873E-02  4.4884104338980E-03
133  1.3200000000000E+00  1.5224470951720E-01  8.7117622980471E-02 -7.2502314409812E-02
134  1.3300000000000E+00  1.3049615783577E-01  7.9256560788133E-02 -1.4223949787038E-01
135  1.3400000000000E+00  1.0955857678890E-01  7.1886902096918E-02 -2.0435819349311E-01
136  1.3500000000000E+00  8.9629488192698E-02  6.4995737551056E-02 -2.5859214758670E-01
137  1.3600000000000E+00  7.0882601118066E-02  5.8569018941198E-02 -3.0477473992959E-01
138  1.3700000000000E+00  5.3467020732343E-02  5.2591668665976E-02 -3.4283875192048E-01
139  1.3800000000000E+00  3.7506734174493E-02  4.7047698243177E-02 -3.7281504140160E-01
140  1.3900000000000E+00  2.3100342777728E-02  4.1920334942854E-02 -3.9483022614626E-01
141  1.4000000000000E+00  1.0321003599465E-02  3.7192155485961E-02 -4.0910349966650E-01
142  1.4100000000000E+00 -7.8346261357347E-04  3.2845225634385E-02 -4.1594272297810E-01
143  1.4200000000000E+00 -1.0190345184828E-02  2.8861244392208E-02 -4.1573995416138E-01
144  1.4300000000000E+00 -1.7901751781949E-02  2.5221691446642E-02 -4.0896659356844E-01
145  1.4400000000000E+00 -2.3944307920679E-02  2.1907976401406E-02 -3.9616833616581E-01
146  1.4500000000000E+00 -2.8368907593972E-02  1.8901588296764E-02 -3.7796013360042E-01
147  1.4600000000000E+00 -3.1250577302335E-02  1.6184243870464E-02 -3.5502137692961E-01
148  1.4700000000000E+00 -3.2688517322620E-02  1.3738032993066E-02 -3.2809151646652E-01
149  1.4800000000000E+00 -3.2806386571823E-02  1.1545559696568E-02 -2.9796634415695E-01
150  1.4900000000000E+00 -3.1752892458751E-02  9.5900772704732E-03 -2.6549514553791E-01
151  1.5000000000000E+00 -2.9702689690135E-02  7.8556168661701E-03 -2.3157873990708E-01
152  1.5100000000000E+00 -2.6857314566652E-02  6.3271068645167E-03 -1.9716733581750E-01
153  1.5200000000000E+00 -2.3434576337451E-02  4.9905892562019E-03 -1.6321794069236E-01
154  1.5300000000000E+00 -1.9660066437803E-02  3.8327326619743E-03 -1.3064914956591E-01
155  1.5400000000000E+00 -1.5762743423625E-02  2.8406815255911E-03 -1.0032486454539E-01
156  1.5500000000000E+00 -1.1935242768858E-02  2.0058958185910E-03 -7.2974708695319E-02
157  1.5600000000000E+00 -8.3639673588348E-03  1.3215249514396E-03 -4.9245860417916E-02
158  1.5700000000000E+00 -5.2277277181619E-03  7.8233620554744E-04 -2.9698099534027E-02
159  1.5800000000000E+00 -2.6968834560580E-03  3.8489273009429E-04 -1.4804170180486E-02
160  1.5900000000000E+00 -9.1877361454071E-04  1.2592676961350E-04 -4.8817051967986E-03
161  1.6000000000000E+00 -8.6831696383818E-05  1.1465785228564E-05 -4.4574980971034E-04
162  1.6100000000000E+00  1.6514656676712E-05 -2.1328057644232E-06  8.3294570239879E-05
163  1.6200000000000E+00 -5.1623912540466E-06  6.7801428860206E-07 -2.6461142246313E-05
164  1.63  0. -0.  0.
165  1.64 -0. -0. -0.
166  1.65  0.  0.  0.
167  1.66  0.  0.  0.
168  1.67  0.  0.  0.
169  1.68  0.  0.  0.
170  1.69  0.  0.  0.
171  1.70  0.  0.  0.
172  1.71  0.  0.  0.
173  1.72  0.  0.  0.
174  1.73  0.  0.  0.
175  1.74  0.  0.  0.
176  1.75  0.  0.  0.
177  1.76  0.  0.  0.
178  1.77  0.  0.  0.
179  1.78  0.  0.  0.
180  1.79  0.  0.  0.
181  1.80  0.  0.  0.
182  1.81  0.  0.  0.
183  1.82  0.  0.  0.
184  1.83  0.  0.  0.
185  1.84  0.  0.  0.
186  1.85  0.  0.  0.
187  1.86  0.  0.  0.
188  1.87  0.  0.  0.
189  1.88  0.  0.  0.
190  1.89  0.  0.  0.
191  1.90  0.  0.  0.
192  1.91  0.  0.  0.
193  1.92  0.  0.  0.
194  1.93  0.  0.  0.
195  1.94  0.  0.  0.
196  1.95  0.  0.  0.
197  1.96  0.  0.  0.
198  1.97  0.  0.  0.
199  1.98  0.  0.  0.
200  1.99  0.  0.  0.
201  2.00  0.  0.  0.
202  2.01  0.  0.  0.
203  2.02  0.  0.  0.
204  2.03  0.  0.  0.
205  2.04  0.  0.  0.
206  2.05  0.  0.  0.
207  2.06  0.  0.  0.
208  2.07  0.  0.  0.
209  2.08  0.  0.  0.
210  2.09  0.  0.  0.
211  2.10  0.  0.  0.
212  2.11  0.  0.  0.
213  2.12  0.  0.  0.
214  2.13  0.  0.  0.
215  2.14  0.  0.  0.
216  2.15  0.  0.  0.
217  2.16  0.  0.  0.
218  2.17  0.  0.  0.
219  2.18  0.  0.  0.
220  2.19  0.  0.  0.
221  2.20  0.  0.  0.
222  2.21  0.  0.  0.
223  2.22  0.  0.  0.
224  2.23  0.  0.  0.
225  2.24  0.  0.  0.
226  2.25  0.  0.  0.
227  2.26  0.  0.  0.
228  2.27  0.  0.  0.
229  2.28  0.  0.  0.
230  2.29  0.  0.  0.
231  2.30  0.  0.  0.
232  2.31  0.  0.  0.
233  2.32  0.  0.  0.
234  2.33  0.  0.  0.
235  2.34  0.  0.  0.
236  2.35  0.  0.  0.
237  2.36  0.  0.  0.
238  2.37  0.  0.  0.
239  2.38  0.  0.  0.
240  2.39  0.  0.  0.
241  2.40  0.  0.  0.
242  2.41  0.  0.  0.
243  2.42  0.  0.  0.
244  2.43  0.  0.  0.
245  2.44  0.  0.  0.
246  2.45  0.  0.  0.
247  2.46  0.  0.  0.
248  2.47  0.  0.  0.
249  2.48  0.  0.  0.
250  2.49  0.  0.  0.
251  2.50  0.  0.  0.
252  2.51  0.  0.  0.
253  2.52  0.  0.  0.
254  2.53  0.  0.  0.
255  2.54  0.  0.  0.
256  2.55  0.  0.  0.
257  2.56  0.  0.  0.
258  2.57  0.  0.  0.
259  2.58  0.  0.  0.
260  2.59  0.  0.  0.
261  2.60  0.  0.  0.
262  2.61  0.  0.  0.
263  2.62  0.  0.  0.
264  2.63  0.  0.  0.
265  2.64  0.  0.  0.
266  2.65  0.  0.  0.
267  2.66  0.  0.  0.
268  2.67  0.  0.  0.
269  2.68  0.  0.  0.
270  2.69  0.  0.  0.
271  2.70  0.  0.  0.
272  2.71  0.  0.  0.
273  2.72  0.  0.  0.
274  2.73  0.  0.  0.
275  2.74  0.  0.  0.
276  2.75  0.  0.  0.
277  2.76  0.  0.  0.
278  2.77  0.  0.  0.
279  2.78  0.  0.  0.
280  2.79  0.  0.  0.
281  2.80  0.  0.  0.
282  2.81  0.  0.  0.
283  2.82  0.  0.  0.
284  2.83  0.  0.  0.
285  2.84  0.  0.  0.
286  2.85  0.  0.  0.
287  2.86  0.  0.  0.
288  2.87  0.  0.  0.
289  2.88  0.  0.  0.
290  2.89  0.  0.  0.
291  2.90  0.  0.  0.
292  2.91  0.  0.  0.
293  2.92  0.  0.  0.
294  2.93  0.  0.  0.
295  2.94  0.  0.  0.
296  2.95  0.  0.  0.
297  2.96  0.  0.  0.
298  2.97  0.  0.  0.
299  2.98  0.  0.  0.
300  2.99  0.  0.  0.
301  3.00  0.  0.  0.
302  3.01  0.  0.  0.
303  3.02  0.  0.  0.
304  3.03  0.  0.  0.
305  3.04  0.  0.  0.
306  3.05  0.  0.  0.
307  3.06  0.  0.  0.
308  3.07  0.  0.  0.
309  3.08  0.  0.  0.
310  3.09  0.  0.  0.
311  3.10  0.  0.  0.
312  3.11  0.  0.  0.
313  3.12  0.  0.  0.
314  3.13  0.  0.  0.
315  3.14  0.  0.  0.
316  3.15  0.  0.  0.
317  3.16  0.  0.  0.
318  3.17  0.  0.  0.
319  3.18  0.  0.  0.
320  3.19  0.  0.  0.
321  3.20  0.  0.  0.
322  3.21  0.  0.  0.
323  3.22  0.  0.  0.
324  3.23  0.  0.  0.
325  3.24  0.  0.  0.
326  3.25  0.  0.  0.
327  3.26  0.  0.  0.
328  3.27  0.  0.  0.
329  3.28  0.  0.  0.
330  3.29  0.  0.  0.
331  3.30  0.  0.  0.
332  3.31  0.  0.  0.
333  3.32  0.  0.  0.
334  3.33  0.  0.  0.
335  3.34  0.  0.  0.
336  3.35  0.  0.  0.
337  3.36  0.  0.  0.
338  3.37  0.  0.  0.
339  3.38  0.  0.  0.
340  3.39  0.  0.  0.
341  3.40  0.  0.  0.
342  3.41  0.  0.  0.
343  3.42  0.  0.  0.
344  3.43  0.  0.  0.
345  3.44  0.  0.  0.
346  3.45  0.  0.  0.
347  3.46  0.  0.  0.
348  3.47  0.  0.  0.
349  3.48  0.  0.  0.
350  3.49  0.  0.  0.
351  3.50  0.  0.  0.
352  3.51  0.  0.  0.
353  3.52  0.  0.  0.
354  3.53  0.  0.  0.
355  3.54  0.  0.  0.
356  3.55  0.  0.  0.
357  3.56  0.  0.  0.
358  3.57  0.  0.  0.
359  3.58  0.  0.  0.
360  3.59  0.  0.  0.
361  3.60  0.  0.  0.
362  3.61  0.  0.  0.
363  3.62  0.  0.  0.
364  3.63  0.  0.  0.
365  3.64  0.  0.  0.
366  3.65  0.  0.  0.
367  3.66  0.  0.  0.
368  3.67  0.  0.  0.
369  3.68  0.  0.  0.
370  3.69  0.  0.  0.
371  3.70  0.  0.  0.
372  3.71  0.  0.  0.
373  3.72  0.  0.  0.
374  3.73  0.  0.  0.
375  3.74  0.  0.  0.
376  3.75  0.  0.  0.
377  3.76  0.  0.  0.
378  3.77  0.  0.  0.
379  3.78  0.  0.  0.
380  3.79  0.  0.  0.
381  3.80  0.  0.  0.
382  3.81  0.  0.  0.
383  3.82  0.  0.  0.
384  3.83  0.  0.  0.
385  3.84  0.  0.  0.
386  3.85  0.  0.  0.
387  3.86  0.  0.  0.
388  3.87  0.  0.  0.
389  3.88  0.  0.  0.
390  3.89  0.  0.  0.
391  3.90  0.  0.  0.
392  3.91  0.  0.  0.
393  3.92  0.  0.  0.
394  3.93  0.  0.  0.
395  3.94  0.  0.  0.
396  3.95  0.  0.  0.
397  3.96  0.  0.  0.
398  3.97  0.  0.  0.
399  3.98  0.  0.  0.
400  3.99  0.  0.  0.
401  4.00  0.  0.  0.
402  4.01  0.  0.  0.
403  4.02  0.  0.  0.
404  4.03  0.  0.  0.
405  4.04  0.  0.  0.
406  4.05  0.  0.  0.
407  4.06  0.  0.  0.
408  4.07  0.  0.  0.
409  4.08  0.  0.  0.
410  4.09  0.  0.  0.
411  4.10  0.  0.  0.
412  4.11  0.  0.  0.
413  4.12  0.  0.  0.
414  4.13  0.  0.  0.
415  4.14  0.  0.  0.
416  4.15  0.  0.  0.
417  4.16  0.  0.  0.
418  4.17  0.  0.  0.
419  4.18  0.  0.  0.
420  4.19  0.  0.  0.
421  4.20  0.  0.  0.
422  4.21  0.  0.  0.
423  4.22  0.  0.  0.
424  4.23  0.  0.  0.
425  4.24  0.  0.  0.
426  4.25  0.  0.  0.
427  4.26  0.  0.  0.
428  4.27  0.  0.  0.
429  4.28  0.  0.  0.
430  4.29  0.  0.  0.
431  4.30  0.  0.  0.
432  4.31  0.  0.  0.
433  4.32  0.  0.  0.
434  4.33  0.  0.  0.
435  4.34  0.  0.  0.
436  4.35  0.  0.  0.
437  4.36  0.  0.  0.
438  4.37  0.  0.  0.
439  4.38  0.  0.  0.
440  4.39  0.  0.  0.
441  4.40  0.  0.  0.
442  4.41  0.  0.  0.
443  4.42  0.  0.  0.
444  4.43  0.  0.  0.
445  4.44  0.  0.  0.
446  4.45  0.  0.  0.
447  4.46  0.  0.  0.
448  4.47  0.  0.  0.
449  4.48  0.  0.  0.
450  4.49  0.  0.  0.
451  4.50  0.  0.  0.
452  4.51  0.  0.  0.
453  4.52  0.  0.  0.
454  4.53  0.  0.  0.
455  4.54  0.  0.  0.
456  4.55  0.  0.  0.
457  4.56  0.  0.  0.
458  4.57  0.  0.  0.
459  4.58  0.  0.  0.
460  4.59  0.  0.  0.
461  4.60  0.  0.  0.
462  4.61  0.  0.  0.
463  4.62  0.  0.  0.
464  4.63  0.  0.  0.
465  4.64  0.  0.  0.
466  4.65  0.  0.  0.
467  4.66  0.  0.  0.
468  4.67  0.  0.  0.
469  4.68  0.  0.  0.
470  4.69  0.  0.  0.
471  4.70  0.  0.  0.
472  4.71  0.  0.  0.
473  4.72  0.  0.  0.
474  4.73  0.  0.  0.
475  4.74  0.  0.  0.
476  4.75  0.  0.  0.
477  4.76  0.  0.  0.
478  4.77  0.  0.  0.
479  4.78  0.  0.  0.
480  4.79  0.  0.  0.
481  4.80  0.  0.  0.
482  4.81  0.  0.  0.
483  4.82  0.  0.  0.
484  4.83  0.  0.  0.
485  4.84  0.  0.  0.
486  4.85  0.  0.  0.
487  4.86  0.  0.  0.
488  4.87  0.  0.  0.
489  4.88  0.  0.  0.
490  4.89  0.  0.  0.
491  4.90  0.  0.  0.
492  4.91  0.  0.  0.
493  4.92  0.  0.  0.
494  4.93  0.  0.  0.
495  4.94  0.  0.  0.
496  4.95  0.  0.  0.
497  4.96  0.  0.  0.
498  4.97  0.  0.  0.
499  4.98  0.  0.  0.
500  4.99  0.  0.  0.
501  5.00  0.  0.  0.
502  5.01  0.  0.  0.
503  5.02  0.  0.  0.
504  5.03  0.  0.  0.
505  5.04  0.  0.  0.
506  5.05  0.  0.  0.
507  5.06  0.  0.  0.
508  5.07  0.  0.  0.
509  5.08  0.  0.  0.
510  5.09  0.  0.  0.
511  5.10  0.  0.  0.
512  5.11  0.  0.  0.
513  5.12  0.  0.  0.
514  5.13  0.  0.  0.
515  5.14  0.  0.  0.
516  5.15  0.  0.  0.
517  5.16  0.  0.  0.
518  5.17  0.  0.  0.
519  5.18  0.  0.  0.
520  5.19  0.  0.  0.
521  5.20  0.  0.  0.
522  5.21  0.  0.  0.
523  5.22  0.  0.  0.
524  5.23  0.  0.  0.
525  5.24  0.  0.  0.
526  5.25  0.  0.  0.
527  5.26  0.  0.  0.
528  5.27  0.  0.  0.
529  5.28  0.  0.  0.
530  5.29  0.  0.  0.
531  5.30  0.  0.  0.
532  5.31  0.  0.  0.
533  5.32  0.  0.  0.
534  5.33  0.  0.  0.
535  5.34  0.  0.  0.
536  5.35  0.  0.  0.
537  5.36  0.  0.  0.
538  5.37  0.  0.  0.
539  5.38  0.  0.  0.
540  5.39  0.  0.  0.
541  5.40  0.  0.  0.
542  5.41  0.  0.  0.
543  5.42  0.  0.  0.
544  5.43  0.  0.  0.
545  5.44  0.  0.  0.
546  5.45  0.  0.  0.
547  5.46  0.  0.  0.
548  5.47  0.  0.  0.
549  5.48  0.  0.  0.
550  5.49  0.  0.  0.
551  5.50  0.  0.  0.
552  5.51  0.  0.  0.
553  5.52  0.  0.  0.
554  5.53  0.  0.  0.
555  5.54  0.  0.  0.
556  5.55  0.  0.  0.
557  5.56  0.  0.  0.
558  5.57  0.  0.  0.
559  5.58  0.  0.  0.
560  5.59  0.  0.  0.
561  5.60  0.  0.  0.
562  5.61  0.  0.  0.
563  5.62  0.  0.  0.
564  5.63  0.  0.  0.
565  5.64  0.  0.  0.
566  5.65  0.  0.  0.
567  5.66  0.  0.  0.
568  5.67  0.  0.  0.
569  5.68  0.  0.  0.
570  5.69  0.  0.  0.
571  5.70  0.  0.  0.
572  5.71  0.  0.  0.
573  5.72  0.  0.  0.
574  5.73  0.  0.  0.
575  5.74  0.  0.  0.
576  5.75  0.  0.  0.
577  5.76  0.  0.  0.
578  5.77  0.  0.  0.
579  5.78  0.  0.  0.
580  5.79  0.  0.  0.
581  5.80  0.  0.  0.
582  5.81  0.  0.  0.
583  5.82  0.  0.  0.
584  5.83  0.  0.  0.
585  5.84  0.  0.  0.
586  5.85  0.  0.  0.
587  5.86  0.  0.  0.
588  5.87  0.  0.  0.
589  5.88  0.  0.  0.
590  5.89  0.  0.  0.
591  5.90  0.  0.  0.
592  5.91  0.  0.  0.
593  5.92  0.  0.  0.
594  5.93  0.  0.  0.
595  5.94  0.  0.  0.
596  5.95  0.  0.  0.
597  5.96  0.  0.  0.
598  5.97  0.  0.  0.
599  5.98  0.  0.  0.
600  5.99  0.  0.  0.
1                        -4.1382982762631E+00 -1.6744588687788E-01
1  0.0000000000000E+00  3.5324775049528E-10 -2.9321327976728E-08
2  1.0000000000000E-02  1.1466514214758E-03 -3.7912673573809E-03
3  2.0000000000000E-02  4.5824046239221E-03 -1.5108788458268E-02
4  3.0000000000000E-02  1.0294678587796E-02 -3.3784654713074E-02
5  4.0000000000000E-02  1.8262578636447E-02 -5.9542115597760E-02
6  5.0000000000000E-02  2.8457006277077E-02 -9.2000164168911E-02
7  6.0000000000000E-02  4.0840811602442E-02 -1.3067983764476E-01
8  7.0000000000000E-02  5.5368986901039E-02 -1.7501211669943E-01
9  8.0000000000000E-02  7.1988899770338E-02 -2.2434727779629E-01
10  9.0000000000000E-02  9.0640563698183E-02 -2.7796552639610E-01
11  1.0000000000000E-01  1.1125694377668E-01 -3.3508871573319E-01
12  1.1000000000000E-01  1.3376429494424E-01 -3.9489293650229E-01
13  1.2000000000000E-01  1.5808252991863E-01 -4.5652174761340E-01
14  1.3000000000000E-01  1.8412561378955E-01 -5.1909980743965E-01
15  1.4000000000000E-01  2.1180198208517E-01 -5.8174665890360E-01
16  1.5000000000000E-01  2.4101497901515E-01 -6.4359042043362E-01
17  1.6000000000000E-01  2.7166331252315E-01 -7.0378113828270E-01
18  1.7000000000000E-01  3.0364152275437E-01 -7.6150356386182E-01
19  1.8000000000000E-01  3.3684046055849E-01 -8.1598913242455E-01
20  1.9000000000000E-01  3.7114777270235E-01 -8.6652693638722E-01
21  2.0000000000000E-01  4.0644839055940E-01 -9.1247350743452E-01
22  2.1000000000000E-01  4.4262501917019E-01 -9.5326124592061E-01
23  2.2000000000000E-01  4.7955862372747E-01 -9.8840536344045E-01
24  2.3000000000000E-01  5.1712891072665E-01 -1.0175092342648E+00
25  2.4000000000000E-01  5.5521480123323E-01 -1.0402680830078E+00
26  2.5000000000000E-01  5.9369489394924E-01 -1.0564709687956E+00
27  2.6000000000000E-01  6.3244791600525E-01 -1.0660010596725E+00
28  2.7000000000000E-01  6.7135315965886E-01 -1.0688342243467E+00
29  2.8000000000000E-01  7.1029090334006E-01 -1.0650360009908E+00
30  2.9000000000000E-01  7.4914281574226E-01 -1.0547570340033E+00
31  3.0000000000000E-01  7.8779234191277E-01 -1.0382270988196E+00
32  3.1000000000000E-01  8.2612507054109E-01 -1.0157478614270E+00
33  3.2000000000000E-01  8.6402908187557E-01 -9.8768454269158E-01
34  3.3000000000000E-01  9.0139527591376E-01 -9.5445667746770E-01
35  3.4000000000000E-01  9.3811768070668E-01 -9.1652817435845E-01
36  3.5000000000000E-01  9.7409374078926E-01 -8.7439689361005E-01
37  3.6000000000000E-01  1.0092245858962E+00 -8.2858396774373E-01
38  3.7000000000000E-01  1.0434152802434E+00 -7.7962309201722E-01
39  3.8000000000000E-01  1.0765750527492E+00 -7.2805000963002E-01
40  3.9000000000000E-01  1.1086175086345E+00 -6.7439240979782E-01
41  4.0000000000000E-01  1.1394608228820E+00 -6.1916044557055E-01
42  4.1000000000000E-01  1.1690279160469E+00 -5.6283806279197E-01
43  4.2000000000000E-01  1.1972466129009E+00 -5.0587531222276E-01
44  4.3000000000000E-01  1.2240497843590E+00 -4.4868179397082E-01
45  4.4000000000000E-01  1.2493754730852E+00 -3.9162135746774E-01
46  4.5000000000000E-01  1.2731670031064E+00 -3.3500815182977E-01
47  4.6000000000000E-01  1.2953730736804E+00 -2.7910409112813E-01
48  4.7000000000000E-01  1.3159478375746E+00 -2.2411776749181E-01
49  4.8000000000000E-01  1.3348509638169E+00 -1.7020481272260E-01
50  4.9000000000000E-01  1.3520476848809E+00 -1.1746967688189E-01
51  5.0000000000000E-01  1.3675088281753E+00 -6.5968760773204E-02
52  5.1000000000000E-01  1.3812108316194E+00 -1.5714809046151E-02
53  5.2000000000000E-01  1.3931357430080E+00  3.3317557588673E-02
54  5.3000000000000E-01  1.4032712028078E+00  8.1185318231124E-02
55  5.4000000000000E-01  1.4116104099774E+00  1.2796970554595E-01
56  5.5000000000000E-01  1.4181520703817E+00  1.7376822623064E-01
57  5.6000000000000E-01  1.4229003273592E+00  2.1868625208813E-01
58  5.7000000000000E-01  1.4258646740277E+00  2.6282839635582E-01
59  5.8000000000000E-01  1.4270598469503E+00  3.0628989615592E-01
60  5.9000000000000E-01  1.4265057008574E+00  3.4914822344424E-01
61  6.0000000000000E-01  1.4242270642120E+00  3.9145514358863E-01
62  6.1000000000000E-01  1.4202535755254E+00  4.3322943273423E-01
63  6.2000000000000E-01  1.4146195004712E+00  4.7445045254574E-01
64  6.3000000000000E-01  1.4073635300106E+00  5.1505276396933E-01
65  6.4000000000000E-01  1.3985285599208E+00  5.5492194065656E-01
66  6.5000000000000E-01  1.3881614523188E+00  5.9389171801486E-01
67  6.6000000000000E-01  1.3763127799796E+00  6.3174258598094E-01
68  6.7000000000000E-01  1.3630365544696E+00  6.6820190308049E-01
69  6.8000000000000E-01  1.3483899393327E+00  7.0294557674453E-01
70  6.9000000000000E-01  1.3324329497937E+00  7.3560132083263E-01
71  7.0000000000000E-01  1.3152281406549E+00  7.6575346654686E-01
72  7.1000000000000E-01  1.2968402842727E+00  7.9294926809924E-01
73  7.2000000000000E-01  1.2773360406901E+00  8.1670661032843E-01
74  7.3000000000000E-01  1.2567836221759E+00  8.3652299263577E-01
75  7.4000000000000E-01  1.2352524545700E+00  8.5188563282048E-01
76  7.5000000000000E-01  1.2128128379596E+00  8.6228250626640E-01
77  7.6000000000000E-01  1.1895356092980E+00  8.6721411108023E-01
78  7.7000000000000E-01  1.1654918096417E+00  8.6620572874470E-01
79  7.8000000000000E-01  1.1407523586975E+00  8.5881993309562E-01
80  7.9000000000000E-01  1.1153877393579E+00  8.4466908836677E-01
81  8.0000000000000E-01  1.0894676948454E+00  8.2342756997163E-01
82  8.1000000000000E-01  1.0630609409887E+00  7.9484343982913E-01
83  8.2000000000000E-01  1.0362348960187E+00  7.5874931150614E-01
84  8.3000000000000E-01  1.0090554300966E+00  7.1507214926022E-01
85  8.4000000000000E-01  9.8158663657100E-01  6.6384175914115E-01
86  8.5000000000000E-01  9.5389062671805E-01  6.0519774945135E-01