Ra    ONCVPSP-4.0.1  r_core=   1.20323   1.20323   1.20323   1.20323
88.0000     28.0000      230613    zatom,zion,pspd
8      11   3     4   600     0    pspcod,pspxc,lmax,lloc,mmax,r2well
5.99000000  5.00000000  0.00000000    rchrg fchrg qchrg
3     2     2     1     0    nproj
1     1           extension_switch
0                         4.5372075457118E+01  3.7752076711993E+00 -1.2657640764299E+00
1  0.0000000000000E+00 -3.5849942747745E-07  1.0388043187870E-06 -2.1531364752247E-07
2  1.0000000000000E-02  2.0742237507525E-01 -1.9826208757122E-01  5.0796798707765E-02
3  2.0000000000000E-02  4.1188346603351E-01 -3.8988462866132E-01  1.0024048474211E-01
4  3.0000000000000E-02  6.1050329417534E-01 -5.6845166479052E-01  1.4702430725868E-01
5  4.0000000000000E-02  8.0056174309758E-01 -7.2798651958811E-01  1.8993260582654E-01
6  5.0000000000000E-02  9.7957171694509E-01 -8.6315199042176E-01  2.2788233169134E-01
7  6.0000000000000E-02  1.1453444432371E+00 -9.6942798910491E-01  2.5995990379339E-01
8  7.0000000000000E-02  1.2960447445148E+00 -1.0432603976542E+00  2.8545211046431E-01
9  8.0000000000000E-02  1.4302344615555E+00 -1.0821759438733E+00  3.0386998304033E-01
10  9.0000000000000E-02  1.5469026337288E+00 -1.0848591266460E+00  3.1496482147051E-01
11  1.0000000000000E-01  1.6454815137614E+00 -1.0511885873555E+00  3.1873583501610E-01
12  1.1000000000000E-01  1.7258479974999E+00 -9.8223178178265E-01  3.1542916291642E-01
13  1.2000000000000E-01  1.7883105658600E+00 -8.8019830293342E-01  3.0552834935616E-01
14  1.3000000000000E-01  1.8335823472192E+00 -7.4835368489447E-01  2.8973665285760E-01
15  1.4000000000000E-01  1.8627413955071E+00 -5.9089692721131E-01  2.6895186116205E-01
16  1.5000000000000E-01  1.8771797245472E+00 -4.1280626725540E-01  2.4423454814825E-01
17  1.6000000000000E-01  1.8785430267882E+00 -2.1965884808033E-01  2.1677093973323E-01
18  1.7000000000000E-01  1.8686633205622E+00 -1.7430841091644E-02  1.8783174270021E-01
19  1.8000000000000E-01  1.8494870032451E+00  1.8771474598993E-01  1.5872842732948E-01
20  1.9000000000000E-01  1.8230009300649E+00  3.8964493847965E-01  1.3076853676096E-01
21  2.0000000000000E-01  1.7911591850744E+00  5.8247057507757E-01  1.0521162044201E-01
22  2.1000000000000E-01  1.7558131607593E+00  7.6074938552482E-01  8.3227355186335E-02
23  2.2000000000000E-01  1.7186474182533E+00  9.1967117922648E-01  6.5857326829729E-02
24  2.3000000000000E-01  1.6811235669739E+00  1.0552186437457E+00  5.3981801839723E-02
25  2.4000000000000E-01  1.6444340897050E+00  1.1642981690135E+00  4.8292627081232E-02
26  2.5000000000000E-01  1.6094676586465E+00  1.2448362271505E+00  4.9273164558089E-02
27  2.6000000000000E-01  1.5767870540345E+00  1.2958381073543E+00  5.7185905078646E-02
28  2.7000000000000E-01  1.5466203258237E+00  1.3174071832867E+00  7.2068120287734E-02
29  2.8000000000000E-01  1.5188653480690E+00  1.3107243260051E+00  9.3735616965973E-02
30  2.9000000000000E-01  1.4931074231430E+00  1.2779885160998E+00  1.2179436186243E-01
31  3.0000000000000E-01  1.4686491168006E+00  1.2223211018570E+00  1.5565946047635E-01
32  3.1000000000000E-01  1.4445510626616E+00  1.1476374455540E+00  1.9458070954342E-01
33  3.2000000000000E-01  1.4196820818847E+00  1.0584908508737E+00  2.3767371007628E-01
34  3.3000000000000E-01  1.3927766346604E+00  9.5989463002784E-01  2.8395533400139E-01
35  3.4000000000000E-01  1.3624973662492E+00  8.5712891560250E-01  3.3238218958606E-01
36  3.5000000000000E-01  1.3275003403528E+00  7.5553932382184E-01  3.8189063405073E-01
37  3.6000000000000E-01  1.2865004722214E+00  6.6033481639638E-01  4.3143683919243E-01
38  3.7000000000000E-01  1.2383346853045E+00  5.7639208061011E-01  4.8003542864216E-01
39  3.8000000000000E-01  1.1820204173153E+00  5.0807345487790E-01  5.2679527262910E-01
40  3.9000000000000E-01  1.1168072898218E+00  4.5906488242109E-01  5.7095114489605E-01
41  4.0000000000000E-01  1.0422200223063E+00  4.3223960083691E-01  6.1189011189043E-01
42  4.1000000000000E-01  9.5809100663544E-01  4.2955230025658E-01  6.4917173004039E-01
43  4.2000000000000E-01  8.6458134818818E-01  4.5196734472264E-01  6.8254136486285E-01
44  4.3000000000000E-01  7.6218961077046E-01  4.9942339312083E-01  7.1193620677539E-01
45  4.4000000000000E-01  6.5174795773417E-01  5.7083542438003E-01  7.3748383292444E-01
46  4.5000000000000E-01  5.3440584456344E-01  6.6413381573918E-01  7.5949344183772E-01
47  4.6000000000000E-01  4.1160187155956E-01  7.7633879225662E-01  7.7844015795382E-01
48  4.7000000000000E-01  2.8502483264810E-01  9.0366730852659E-01  7.9494305614032E-01
49  4.8000000000000E-01  1.5656538235098E-01  1.0416682847578E+00  8.0973778297295E-01
50  4.9000000000000E-01  2.8260073853918E-02  1.1853811392519E+00  8.2364484364597E-01
51  5.0000000000000E-01 -9.7770214689193E-02  1.3295117718280E+00  8.3753477414190E-01
52  5.1000000000000E-01 -2.1938525999812E-01  1.4686195846230E+00  8.5229152248367E-01
53  5.2000000000000E-01 -3.3449156740733E-01  1.5973087961992E+00  8.6877541712335E-01
54  5.3000000000000E-01 -4.4110720457522E-01  1.7104172215238E+00  8.8778710324207E-01
55  5.4000000000000E-01 -5.3742312440020E-01  1.8031958544159E+00  9.1003377935081E-01
56  5.5000000000000E-01 -6.2185885121564E-01  1.8714729917494E+00  9.3609896938347E-01
57  5.6000000000000E-01 -6.9311062466256E-01  1.9117972626353E+00  9.6641692355356E-01
58  5.7000000000000E-01 -7.5019038257899E-01  1.9215547456732E+00  1.0012525603228E+00
59  5.8000000000000E-01 -7.9245430656762E-01  1.8990563409536E+00  1.0406876490176E+00
60  5.9000000000000E-01 -8.1962003845980E-01  1.8435926729763E+00  1.0846136961627E+00
61  6.0000000000000E-01 -8.3177208811419E-01  1.7554549939729E+00  1.1327317475257E+00
62  6.1000000000000E-01 -8.2935537748143E-01  1.6359217897615E+00  1.1845590616619E+00
63  6.2000000000000E-01 -8.1315728692479E-01  1.4872120166597E+00  1.2394423590212E+00
64  6.3000000000000E-01 -7.8427897204608E-01  1.3124070734803E+00  1.2965771127480E+00
65  6.4000000000000E-01 -7.4409708822448E-01  1.1153446949557E+00  1.3550321318894E+00
66  6.5000000000000E-01 -6.9421738263905E-01  9.0048890377714E-01  1.4137785026188E+00
67  6.6000000000000E-01 -6.3642187850427E-01  6.7278094487380E-01  1.4717218048398E+00
68  6.7000000000000E-01 -5.7261157464946E-01  4.3747672110067E-01  1.5277364152970E+00
69  6.8000000000000E-01 -5.0474670906794E-01  1.9997663515452E-01  1.5807006475582E+00
70  6.9000000000000E-01 -4.3478668407009E-01 -3.4346092747646E-02  1.6295314656971E+00
71  7.0000000000000E-01 -3.6463172251997E-01 -2.6031262077778E-01  1.6732175421464E+00
72  7.1000000000000E-01 -2.9606822150073E-01 -4.7309546120957E-01  1.7108495091745E+00
73  7.2000000000000E-01 -2.3071959664551E-01 -6.6835998321774E-01  1.7416463742307E+00
74  7.3000000000000E-01 -1.7000417473806E-01 -8.4238585439515E-01  1.7649772269610E+00
75  7.4000000000000E-01 -1.1510140385193E-01 -9.9216465243392E-01  1.7803775535899E+00
76  7.5000000000000E-01 -6.6927320799507E-02 -1.1154708208106E+00  1.7875596851152E+00
77  7.6000000000000E-01 -2.6119857992084E-02 -1.2109041701216E+00  1.7864171311092E+00
78  7.7000000000000E-01  6.9658001604265E-03 -1.2779032000969E+00  1.7770227820969E+00
79  7.8000000000000E-01  3.2251973268195E-02 -1.3167295954095E+00  1.7596211916341E+00
80  7.9000000000000E-01  4.9923873585377E-02 -1.3284252907968E+00  1.7346153656815E+00
81  8.0000000000000E-01  6.0406478473674E-02 -1.3147444690862E+00  1.7025486835329E+00
82  8.1000000000000E-01  6.4334029812611E-02 -1.2780637145172E+00  1.6640827441413E+00
83  8.2000000000000E-01  6.2513545751965E-02 -1.2212742627920E+00  1.6199720680511E+00
84  8.3000000000000E-01  5.5883914601834E-02 -1.1476608440373E+00  1.5710366834722E+00
85  8.4000000000000E-01  4.5472261159908E-02 -1.0607719873160E+00  1.5181336820424E+00
86  8.5000000000000E-01  3.2349328956380E-02 -9.6428683485604E-01  1.4621288438666E+00
87  8.6000000000000E-01  1.7585606951872E-02 -8.6188349764980E-01  1.4038694025301E+00
88  8.7000000000000E-01  2.2098479963621E-03 -7.5711377598188E-01  1.3441589506625E+00
89  8.8000000000000E-01 -1.2828516754599E-02 -6.5328868061930E-01  1.2837353785675E+00
90  8.9000000000000E-01 -2.6691761542640E-02 -5.5337864138890E-01  1.2232525971873E+00
91  9.0000000000000E-01 -3.8679986553142E-02 -4.5993160422374E-01  1.1632666282220E+00
92  9.1000000000000E-01 -4.8250194600097E-02 -3.7501142490638E-01  1.1042264555790E+00
93  9.2000000000000E-01 -5.5027848010738E-02 -3.0015810084677E-01  1.0464698312167E+00
94  9.3000000000000E-01 -5.8810746260670E-02 -2.3637047675762E-01  9.9022402300793E-01
95  9.4000000000000E-01 -5.9565380357814E-02 -1.8411115244345E-01  9.3561129070056E-01
96  9.5000000000000E-01 -5.7416221858943E-02 -1.4333244695409E-01  8.8265868640919E-01
97  9.6000000000000E-01 -5.2628680930235E-02 -1.1352146699336E-01  8.3131160575181E-01
98  9.7000000000000E-01 -4.5586708517279E-02 -9.3761619100977E-02  7.8145037131523E-01
99  9.8000000000000E-01 -3.6766213386884E-02 -8.2807321172356E-02  7.3290901713044E-01
100  9.9000000000000E-01 -2.6705608626354E-02 -7.9168229672296E-02  6.8549536537280E-01
101  1.0000000000000E+00 -1.5974889311540E-02 -8.1199018914002E-02  6.3901144725800E-01
102  1.0100000000000E+00 -5.1446711104304E-03 -8.7190635497704E-02  5.9327332019178E-01
103  1.0200000000000E+00  5.2434114478468E-03 -9.5459005351352E-02  5.4812937216603E-01
104  1.0300000000000E+00  1.4703635697273E-02 -1.0442738579974E-01  5.0347627992795E-01
105  1.0400000000000E+00  2.2829278372291E-02 -1.1269891844789E-01  4.5927189616832E-01
106  1.0500000000000E+00  2.9310871714193E-02 -1.1911643132249E-01  4.1554447786068E-01
107  1.0600000000000E+00  3.3948859427539E-02 -1.2280713526878E-01  3.7239782655724E-01
108  1.0700000000000E+00  3.6660129783295E-02 -1.2321053475939E-01  3.3001208566783E-01
109  1.0800000000000E+00  3.7478163194095E-02 -1.2008859225463E-01  2.8864012101143E-01
110  1.0900000000000E+00  3.6546795024355E-02 -1.1351791828066E-01  2.4859959213564E-01
111  1.1000000000000E+00  3.4107849338309E-02 -1.0386447306373E-01  2.1026099505794E-01
112  1.1100000000000E+00  3.0483133819272E-02 -9.1741926254206E-02  1.7403211430283E-01
113  1.1200000000000E+00  2.6051496662569E-02 -7.7955417749959E-02  1.4033946164820E-01
114  1.1300000000000E+00  2.1221425395802E-02 -6.3431941350856E-02  1.0960708658134E-01
115  1.1400000000000E+00  1.6402782570396E-02 -4.9146644102992E-02  8.2235536513371E-02
116  1.1500000000000E+00  1.1843900487132E-02 -3.5699089635689E-02  5.8476858802224E-02
117  1.1600000000000E+00  7.6126877522261E-03 -2.3256870563169E-02  3.8420927519374E-02
118  1.1700000000000E+00  4.1594421443016E-03 -1.3009121898088E-02  2.2438228455050E-02
119  1.1800000000000E+00  1.7530833382624E-03 -5.7057717861115E-03  1.0747144441288E-02
120  1.1900000000000E+00  4.3893034398550E-04 -1.5370224816815E-03  3.3798115342824E-03
121  1.2000000000000E+00  1.9227620889353E-05 -8.0847459576396E-05  2.3903406470976E-04
122  1.2100000000000E+00 -3.1773297262813E-07  1.6408681588835E-06 -5.9159197968329E-06
123  1.2200000000000E+00 -2.3616994225037E-07  8.9765958694782E-07 -2.2660494460670E-06
124  1.23  0. -0.  0.
125  1.24  0.  0.  0.
126  1.25  0.  0.  0.
127  1.26  0.  0.  0.
128  1.27  0.  0.  0.
129  1.28  0.  0.  0.
130  1.29  0.  0.  0.
131  1.30  0.  0.  0.
132  1.31  0.  0.  0.
133  1.32  0.  0.  0.
134  1.33  0.  0.  0.
135  1.34  0.  0.  0.
136  1.35  0.  0.  0.
137  1.36  0.  0.  0.
138  1.37  0.  0.  0.
139  1.38  0.  0.  0.
140  1.39  0.  0.  0.
141  1.40  0.  0.  0.
142  1.41  0.  0.  0.
143  1.42  0.  0.  0.
144  1.43  0.  0.  0.
145  1.44  0.  0.  0.
146  1.45  0.  0.  0.
147  1.46  0.  0.  0.
148  1.47  0.  0.  0.
149  1.48  0.  0.  0.
150  1.49  0.  0.  0.
151  1.50  0.  0.  0.
152  1.51  0.  0.  0.
153  1.52  0.  0.  0.
154  1.53  0.  0.  0.
155  1.54  0.  0.  0.
156  1.55  0.  0.  0.
157  1.56  0.  0.  0.
158  1.57  0.  0.  0.
159  1.58  0.  0.  0.
160  1.59  0.  0.  0.
161  1.60  0.  0.  0.
162  1.61  0.  0.  0.
163  1.62  0.  0.  0.
164  1.63  0.  0.  0.
165  1.64  0.  0.  0.
166  1.65  0.  0.  0.
167  1.66  0.  0.  0.
168  1.67  0.  0.  0.
169  1.68  0.  0.  0.
170  1.69  0.  0.  0.
171  1.70  0.  0.  0.
172  1.71  0.  0.  0.
173  1.72  0.  0.  0.
174  1.73  0.  0.  0.
175  1.74  0.  0.  0.
176  1.75  0.  0.  0.
177  1.76  0.  0.  0.
178  1.77  0.  0.  0.
179  1.78  0.  0.  0.
180  1.79  0.  0.  0.
181  1.80  0.  0.  0.
182  1.81  0.  0.  0.
183  1.82  0.  0.  0.
184  1.83  0.  0.  0.
185  1.84  0.  0.  0.
186  1.85  0.  0.  0.
187  1.86  0.  0.  0.
188  1.87  0.  0.  0.
189  1.88  0.  0.  0.
190  1.89  0.  0.  0.
191  1.90  0.  0.  0.
192  1.91  0.  0.  0.
193  1.92  0.  0.  0.
194  1.93  0.  0.  0.
195  1.94  0.  0.  0.
196  1.95  0.  0.  0.
197  1.96  0.  0.  0.
198  1.97  0.  0.  0.
199  1.98  0.  0.  0.
200  1.99  0.  0.  0.
201  2.00  0.  0.  0.
202  2.01  0.  0.  0.
203  2.02  0.  0.  0.
204  2.03  0.  0.  0.
205  2.04  0.  0.  0.
206  2.05  0.  0.  0.
207  2.06  0.  0.  0.
208  2.07  0.  0.  0.
209  2.08  0.  0.  0.
210  2.09  0.  0.  0.
211  2.10  0.  0.  0.
212  2.11  0.  0.  0.
213  2.12  0.  0.  0.
214  2.13  0.  0.  0.
215  2.14  0.  0.  0.
216  2.15  0.  0.  0.
217  2.16  0.  0.  0.
218  2.17  0.  0.  0.
219  2.18  0.  0.  0.
220  2.19  0.  0.  0.
221  2.20  0.  0.  0.
222  2.21  0.  0.  0.
223  2.22  0.  0.  0.
224  2.23  0.  0.  0.
225  2.24  0.  0.  0.
226  2.25  0.  0.  0.
227  2.26  0.  0.  0.
228  2.27  0.  0.  0.
229  2.28  0.  0.  0.
230  2.29  0.  0.  0.
231  2.30  0.  0.  0.
232  2.31  0.  0.  0.
233  2.32  0.  0.  0.
234  2.33  0.  0.  0.
235  2.34  0.  0.  0.
236  2.35  0.  0.  0.
237  2.36  0.  0.  0.
238  2.37  0.  0.  0.
239  2.38  0.  0.  0.
240  2.39  0.  0.  0.
241  2.40  0.  0.  0.
242  2.41  0.  0.  0.
243  2.42  0.  0.  0.
244  2.43  0.  0.  0.
245  2.44  0.  0.  0.
246  2.45  0.  0.  0.
247  2.46  0.  0.  0.
248  2.47  0.  0.  0.
249  2.48  0.  0.  0.
250  2.49  0.  0.  0.
251  2.50  0.  0.  0.
252  2.51  0.  0.  0.
253  2.52  0.  0.  0.
254  2.53  0.  0.  0.
255  2.54  0.  0.  0.
256  2.55  0.  0.  0.
257  2.56  0.  0.  0.
258  2.57  0.  0.  0.
259  2.58  0.  0.  0.
260  2.59  0.  0.  0.
261  2.60  0.  0.  0.
262  2.61  0.  0.  0.
263  2.62  0.  0.  0.
264  2.63  0.  0.  0.
265  2.64  0.  0.  0.
266  2.65  0.  0.  0.
267  2.66  0.  0.  0.
268  2.67  0.  0.  0.
269  2.68  0.  0.  0.
270  2.69  0.  0.  0.
271  2.70  0.  0.  0.
272  2.71  0.  0.  0.
273  2.72  0.  0.  0.
274  2.73  0.  0.  0.
275  2.74  0.  0.  0.
276  2.75  0.  0.  0.
277  2.76  0.  0.  0.
278  2.77  0.  0.  0.
279  2.78  0.  0.  0.
280  2.79  0.  0.  0.
281  2.80  0.  0.  0.
282  2.81  0.  0.  0.
283  2.82  0.  0.  0.
284  2.83  0.  0.  0.
285  2.84  0.  0.  0.
286  2.85  0.  0.  0.
287  2.86  0.  0.  0.
288  2.87  0.  0.  0.
289  2.88  0.  0.  0.
290  2.89  0.  0.  0.
291  2.90  0.  0.  0.
292  2.91  0.  0.  0.
293  2.92  0.  0.  0.
294  2.93  0.  0.  0.
295  2.94  0.  0.  0.
296  2.95  0.  0.  0.
297  2.96  0.  0.  0.
298  2.97  0.  0.  0.
299  2.98  0.  0.  0.
300  2.99  0.  0.  0.
301  3.00  0.  0.  0.
302  3.01  0.  0.  0.
303  3.02  0.  0.  0.
304  3.03  0.  0.  0.
305  3.04  0.  0.  0.
306  3.05  0.  0.  0.
307  3.06  0.  0.  0.
308  3.07  0.  0.  0.
309  3.08  0.  0.  0.
310  3.09  0.  0.  0.
311  3.10  0.  0.  0.
312  3.11  0.  0.  0.
313  3.12  0.  0.  0.
314  3.13  0.  0.  0.
315  3.14  0.  0.  0.
316  3.15  0.  0.  0.
317  3.16  0.  0.  0.
318  3.17  0.  0.  0.
319  3.18  0.  0.  0.
320  3.19  0.  0.  0.
321  3.20  0.  0.  0.
322  3.21  0.  0.  0.
323  3.22  0.  0.  0.
324  3.23  0.  0.  0.
325  3.24  0.  0.  0.
326  3.25  0.  0.  0.
327  3.26  0.  0.  0.
328  3.27  0.  0.  0.
329  3.28  0.  0.  0.
330  3.29  0.  0.  0.
331  3.30  0.  0.  0.
332  3.31  0.  0.  0.
333  3.32  0.  0.  0.
334  3.33  0.  0.  0.
335  3.34  0.  0.  0.
336  3.35  0.  0.  0.
337  3.36  0.  0.  0.
338  3.37  0.  0.  0.
339  3.38  0.  0.  0.
340  3.39  0.  0.  0.
341  3.40  0.  0.  0.
342  3.41  0.  0.  0.
343  3.42  0.  0.  0.
344  3.43  0.  0.  0.
345  3.44  0.  0.  0.
346  3.45  0.  0.  0.
347  3.46  0.  0.  0.
348  3.47  0.  0.  0.
349  3.48  0.  0.  0.
350  3.49  0.  0.  0.
351  3.50  0.  0.  0.
352  3.51  0.  0.  0.
353  3.52  0.  0.  0.
354  3.53  0.  0.  0.
355  3.54  0.  0.  0.
356  3.55  0.  0.  0.
357  3.56  0.  0.  0.
358  3.57  0.  0.  0.
359  3.58  0.  0.  0.
360  3.59  0.  0.  0.
361  3.60  0.  0.  0.
362  3.61  0.  0.  0.
363  3.62  0.  0.  0.
364  3.63  0.  0.  0.
365  3.64  0.  0.  0.
366  3.65  0.  0.  0.
367  3.66  0.  0.  0.
368  3.67  0.  0.  0.
369  3.68  0.  0.  0.
370  3.69  0.  0.  0.
371  3.70  0.  0.  0.
372  3.71  0.  0.  0.
373  3.72  0.  0.  0.
374  3.73  0.  0.  0.
375  3.74  0.  0.  0.
376  3.75  0.  0.  0.
377  3.76  0.  0.  0.
378  3.77  0.  0.  0.
379  3.78  0.  0.  0.
380  3.79  0.  0.  0.
381  3.80  0.  0.  0.
382  3.81  0.  0.  0.
383  3.82  0.  0.  0.
384  3.83  0.  0.  0.
385  3.84  0.  0.  0.
386  3.85  0.  0.  0.
387  3.86  0.  0.  0.
388  3.87  0.  0.  0.
389  3.88  0.  0.  0.
390  3.89  0.  0.  0.
391  3.90  0.  0.  0.
392  3.91  0.  0.  0.
393  3.92  0.  0.  0.
394  3.93  0.  0.  0.
395  3.94  0.  0.  0.
396  3.95  0.  0.  0.
397  3.96  0.  0.  0.
398  3.97  0.  0.  0.
399  3.98  0.  0.  0.
400  3.99  0.  0.  0.
401  4.00  0.  0.  0.
402  4.01  0.  0.  0.
403  4.02  0.  0.  0.
404  4.03  0.  0.  0.
405  4.04  0.  0.  0.
406  4.05  0.  0.  0.
407  4.06  0.  0.  0.
408  4.07  0.  0.  0.
409  4.08  0.  0.  0.
410  4.09  0.  0.  0.
411  4.10  0.  0.  0.
412  4.11  0.  0.  0.
413  4.12  0.  0.  0.
414  4.13  0.  0.  0.
415  4.14  0.  0.  0.
416  4.15  0.  0.  0.
417  4.16  0.  0.  0.
418  4.17  0.  0.  0.
419  4.18  0.  0.  0.
420  4.19  0.  0.  0.
421  4.20  0.  0.  0.
422  4.21  0.  0.  0.
423  4.22  0.  0.  0.
424  4.23  0.  0.  0.
425  4.24  0.  0.  0.
426  4.25  0.  0.  0.
427  4.26  0.  0.  0.
428  4.27  0.  0.  0.
429  4.28  0.  0.  0.
430  4.29  0.  0.  0.
431  4.30  0.  0.  0.
432  4.31  0.  0.  0.
433  4.32  0.  0.  0.
434  4.33  0.  0.  0.
435  4.34  0.  0.  0.
436  4.35  0.  0.  0.
437  4.36  0.  0.  0.
438  4.37  0.  0.  0.
439  4.38  0.  0.  0.
440  4.39  0.  0.  0.
441  4.40  0.  0.  0.
442  4.41  0.  0.  0.
443  4.42  0.  0.  0.
444  4.43  0.  0.  0.
445  4.44  0.  0.  0.
446  4.45  0.  0.  0.
447  4.46  0.  0.  0.
448  4.47  0.  0.  0.
449  4.48  0.  0.  0.
450  4.49  0.  0.  0.
451  4.50  0.  0.  0.
452  4.51  0.  0.  0.
453  4.52  0.  0.  0.
454  4.53  0.  0.  0.
455  4.54  0.  0.  0.
456  4.55  0.  0.  0.
457  4.56  0.  0.  0.
458  4.57  0.  0.  0.
459  4.58  0.  0.  0.
460  4.59  0.  0.  0.
461  4.60  0.  0.  0.
462  4.61  0.  0.  0.
463  4.62  0.  0.  0.
464  4.63  0.  0.  0.
465  4.64  0.  0.  0.
466  4.65  0.  0.  0.
467  4.66  0.  0.  0.
468  4.67  0.  0.  0.
469  4.68  0.  0.  0.
470  4.69  0.  0.  0.
471  4.70  0.  0.  0.
472  4.71  0.  0.  0.
473  4.72  0.  0.  0.
474  4.73  0.  0.  0.
475  4.74  0.  0.  0.
476  4.75  0.  0.  0.
477  4.76  0.  0.  0.
478  4.77  0.  0.  0.
479  4.78  0.  0.  0.
480  4.79  0.  0.  0.
481  4.80  0.  0.  0.
482  4.81  0.  0.  0.
483  4.82  0.  0.  0.
484  4.83  0.  0.  0.
485  4.84  0.  0.  0.
486  4.85  0.  0.  0.
487  4.86  0.  0.  0.
488  4.87  0.  0.  0.
489  4.88  0.  0.  0.
490  4.89  0.  0.  0.
491  4.90  0.  0.  0.
492  4.91  0.  0.  0.
493  4.92  0.  0.  0.
494  4.93  0.  0.  0.
495  4.94  0.  0.  0.
496  4.95  0.  0.  0.
497  4.96  0.  0.  0.
498  4.97  0.  0.  0.
499  4.98  0.  0.  0.
500  4.99  0.  0.  0.
501  5.00  0.  0.  0.
502  5.01  0.  0.  0.
503  5.02  0.  0.  0.
504  5.03  0.  0.  0.
505  5.04  0.  0.  0.
506  5.05  0.  0.  0.
507  5.06  0.  0.  0.
508  5.07  0.  0.  0.
509  5.08  0.  0.  0.
510  5.09  0.  0.  0.
511  5.10  0.  0.  0.
512  5.11  0.  0.  0.
513  5.12  0.  0.  0.
514  5.13  0.  0.  0.
515  5.14  0.  0.  0.
516  5.15  0.  0.  0.
517  5.16  0.  0.  0.
518  5.17  0.  0.  0.
519  5.18  0.  0.  0.
520  5.19  0.  0.  0.
521  5.20  0.  0.  0.
522  5.21  0.  0.  0.
523  5.22  0.  0.  0.
524  5.23  0.  0.  0.
525  5.24  0.  0.  0.
526  5.25  0.  0.  0.
527  5.26  0.  0.  0.
528  5.27  0.  0.  0.
529  5.28  0.  0.  0.
530  5.29  0.  0.  0.
531  5.30  0.  0.  0.
532  5.31  0.  0.  0.
533  5.32  0.  0.  0.
534  5.33  0.  0.  0.
535  5.34  0.  0.  0.
536  5.35  0.  0.  0.
537  5.36  0.  0.  0.
538  5.37  0.  0.  0.
539  5.38  0.  0.  0.
540  5.39  0.  0.  0.
541  5.40  0.  0.  0.
542  5.41  0.  0.  0.
543  5.42  0.  0.  0.
544  5.43  0.  0.  0.
545  5.44  0.  0.  0.
546  5.45  0.  0.  0.
547  5.46  0.  0.  0.
548  5.47  0.  0.  0.
549  5.48  0.  0.  0.
550  5.49  0.  0.  0.
551  5.50  0.  0.  0.
552  5.51  0.  0.  0.
553  5.52  0.  0.  0.
554  5.53  0.  0.  0.
555  5.54  0.  0.  0.
556  5.55  0.  0.  0.
557  5.56  0.  0.  0.
558  5.57  0.  0.  0.
559  5.58  0.  0.  0.
560  5.59  0.  0.  0.
561  5.60  0.  0.  0.
562  5.61  0.  0.  0.
563  5.62  0.  0.  0.
564  5.63  0.  0.  0.
565  5.64  0.  0.  0.
566  5.65  0.  0.  0.
567  5.66  0.  0.  0.
568  5.67  0.  0.  0.
569  5.68  0.  0.  0.
570  5.69  0.  0.  0.
571  5.70  0.  0.  0.
572  5.71  0.  0.  0.
573  5.72  0.  0.  0.
574  5.73  0.  0.  0.
575  5.74  0.  0.  0.
576  5.75  0.  0.  0.
577  5.76  0.  0.  0.
578  5.77  0.  0.  0.
579  5.78  0.  0.  0.
580  5.79  0.  0.  0.
581  5.80  0.  0.  0.
582  5.81  0.  0.  0.
583  5.82  0.  0.  0.
584  5.83  0.  0.  0.
585  5.84  0.  0.  0.
586  5.85  0.  0.  0.
587  5.86  0.  0.  0.
588  5.87  0.  0.  0.
589  5.88  0.  0.  0.
590  5.89  0.  0.  0.
591  5.90  0.  0.  0.
592  5.91  0.  0.  0.
593  5.92  0.  0.  0.
594  5.93  0.  0.  0.
595  5.94  0.  0.  0.
596  5.95  0.  0.  0.
597  5.96  0.  0.  0.
598  5.97  0.  0.  0.
599  5.98  0.  0.  0.
600  5.99  0.  0.  0.
1                         7.8259453330038E+00 -7.2506426259861E-01
1  0.0000000000000E+00 -1.9256330668904E-08 -3.9072842159676E-08
2  1.0000000000000E-02  3.3506742569906E-03 -5.4138526549027E-04
3  2.0000000000000E-02  1.3385093742657E-02 -2.1435725666788E-03
4  3.0000000000000E-02  3.0050258225881E-02 -4.7413956969333E-03
5  4.0000000000000E-02  5.3257213424739E-02 -8.2286813881349E-03
6  5.0000000000000E-02  8.2880168658031E-02 -1.2461810769022E-02
7  6.0000000000000E-02  1.1875535650072E-01 -1.7264520662600E-02
8  7.0000000000000E-02  1.6067972468093E-01 -2.2433768171549E-02
9  8.0000000000000E-02  2.0840956971249E-01 -2.7746442927676E-02
10  9.0000000000000E-02  2.6165923645576E-01 -3.2966680264655E-02
11  1.0000000000000E-01  3.2010001728586E-01 -3.7853506570436E-02
12  1.1000000000000E-01  3.8335938836291E-01 -4.2168536013842E-02
13  1.2000000000000E-01  4.5102071839579E-01 -4.5683436183916E-02
14  1.3000000000000E-01  5.2262357724624E-01 -4.8186889016316E-02
15  1.4000000000000E-01  5.9766475793322E-01 -4.9490792411468E-02
16  1.5000000000000E-01  6.7560010648906E-01 -4.9435476503334E-02
17  1.6000000000000E-01  7.5584723031169E-01 -4.7893745595809E-02
18  1.7000000000000E-01  8.3778912795948E-01 -4.4773601010850E-02
19  1.8000000000000E-01  9.2077875270838E-01 -4.0019549888732E-02
20  1.9000000000000E-01  1.0041444897186E+00 -3.3612458534782E-02
21  2.0000000000000E-01  1.0871964935065E+00 -2.5567964263812E-02
22  2.1000000000000E-01  1.1692337997926E+00 -1.5933514822789E-02
23  2.2000000000000E-01  1.2495520949055E+00 -4.7841573410175E-03
24  2.3000000000000E-01  1.3274519979222E+00  7.7827525953832E-03
25  2.4000000000000E-01  1.4022476866888E+00  2.1653708541632E-02
26  2.5000000000000E-01  1.4732756797427E+00  3.6705829308137E-02
27  2.6000000000000E-01  1.5399035727202E+00  5.2813979475523E-02
28  2.7000000000000E-01  1.6015385206914E+00  6.9857944263530E-02
29  2.8000000000000E-01  1.6576352573796E+00  8.7729363469858E-02
30  2.9000000000000E-01  1.7077034485556E+00  1.0633813494657E-01
31  3.0000000000000E-01  1.7513141899598E+00  1.2561801471723E-01
32  3.1000000000000E-01  1.7881054795710E+00  1.4553116786222E-01
33  3.2000000000000E-01  1.8177865193650E+00  1.6607146083734E-01
34  3.3000000000000E-01  1.8401407321298E+00  1.8726633071897E-01
35  3.4000000000000E-01  1.8550274134801E+00  2.0917711845432E-01
36  3.5000000000000E-01  1.8623819768492E+00  2.3189780974868E-01
37  3.6000000000000E-01  1.8622147887159E+00  2.5555218675809E-01
38  3.7000000000000E-01  1.8546086313490E+00  2.8028945416365E-01
39  3.8000000000000E-01  1.8397148696114E+00  3.0627846231729E-01
40  3.9000000000000E-01  1.8177484355372E+00  3.3370070582508E-01
41  4.0000000000000E-01  1.7889817782285E+00  3.6274232612666E-01
42  4.1000000000000E-01  1.7537379559667E+00  3.9358538946270E-01
43  4.2000000000000E-01  1.7123830712745E+00  4.2639874545787E-01
44  4.3000000000000E-01  1.6653182671765E+00  4.6132879504207E-01
45  4.4000000000000E-01  1.6129715134549E+00  4.9849050859247E-01
46  4.5000000000000E-01  1.5557894148844E+00  5.3795903539170E-01
47  4.6000000000000E-01  1.4942292691132E+00  5.7976223356101E-01
48  4.7000000000000E-01  1.4287515901222E+00  6.2387442576093E-01
49  4.8000000000000E-01  1.3598132944109E+00  6.7021165079210E-01
50  4.9000000000000E-01  1.2878617217991E+00  7.1862863581245E-01
51  5.0000000000000E-01  1.2133296318336E+00  7.6891765962069E-01
52  5.1000000000000E-01  1.1366312812450E+00  8.2080941607116E-01
53  5.2000000000000E-01  1.0581596489012E+00  8.7397592018367E-01
54  5.3000000000000E-01  9.7828483354407E-01  9.2803543009958E-01
55  5.4000000000000E-01  8.9735360767413E-01  9.8255928805147E-01
56  5.5000000000000E-01  8.1569006967335E-01  1.0370805153505E+00
57  5.6000000000000E-01  7.3359729705781E-01  1.0911039324196E+00
58  5.7000000000000E-01  6.5135986797358E-01  1.1441175173734E+00
59  5.8000000000000E-01  5.6924708695045E-01  1.1956046676426E+00
60  5.9000000000000E-01  4.8751672560814E-01  1.2450569904799E+00
61  6.0000000000000E-01  4.0641907039082E-01  1.2919872213710E+00
62  6.1000000000000E-01  3.2620105818518E-01  1.3359418555233E+00
63  6.2000000000000E-01  2.4711027731261E-01  1.3765130774286E+00
64  6.3000000000000E-01  1.6939861607078E-01  1.4133495872503E+00
65  6.4000000000000E-01  9.3325353655731E-02  1.4461659502638E+00
66  6.5000000000000E-01  1.9159508574855E-02  1.4747501361211E+00
67  6.6000000000000E-01 -5.2818713050812E-02  1.4989689671926E+00
68  6.7000000000000E-01 -1.2231749345455E-01  1.5187712581512E+00
69  6.8000000000000E-01 -1.8903408910860E-01  1.5341885003784E+00
70  6.9000000000000E-01 -2.5265666984672E-01  1.5453330225100E+00
71  7.0000000000000E-01 -3.1286730982703E-01  1.5523936400008E+00
72  7.1000000000000E-01 -3.6934608333156E-01  1.5556288893829E+00
73  7.2000000000000E-01 -4.2177617348017E-01  1.5553580241730E+00
74  7.3000000000000E-01 -4.6984985926309E-01  1.5519500264701E+00
75  7.4000000000000E-01 -5.1327520739463E-01  1.5458109585348E+00
76  7.5000000000000E-01 -5.5178326176785E-01  1.5373700396288E+00
77  7.6000000000000E-01 -5.8513549601317E-01  1.5270648829394E+00
78  7.7000000000000E-01 -6.1313127490328E-01  1.5153263636721E+00
79  7.8000000000000E-01 -6.3561505893574E-01  1.5025636109383E+00
80  7.9000000000000E-01 -6.5248308393560E-01  1.4891496218985E+00
81  8.0000000000000E-01 -6.6368925423730E-01  1.4754079862774E+00
82  8.1000000000000E-01 -6.6925000390703E-01  1.4616011828540E+00
83  8.2000000000000E-01 -6.6924790522892E-01  1.4479208674357E+00
84  8.3000000000000E-01 -6.6383383667432E-01  1.4344805152004E+00
85  8.4000000000000E-01 -6.5322756288877E-01  1.4213107107259E+00
86  8.5000000000000E-01 -6.3771662569285E-01  1.4083572985217E+00
87  8.6000000000000E-01 -6.1765349629970E-01  1.3954825178560E+00
88  8.7000000000000E-01 -5.9345099331678E-01  1.3824691508472E+00
89  8.8000000000000E-01 -5.6557602689862E-01  1.3690276151383E+00
90  8.9000000000000E-01 -5.3454178484572E-01  1.3548058350950E+00
91  9.0000000000000E-01 -5.0089852966822E-01  1.3394016315314E+00
92  9.1000000000000E-01 -4.6522322485573E-01  1.3223772825604E+00
93  9.2000000000000E-01 -4.2810825210924E-01  1.3032758302520E+00
94  9.3000000000000E-01 -3.9014951754363E-01  1.2816386420439E+00
95  9.4000000000000E-01 -3.5193427250819E-01  1.2570236846417E+00
96  9.5000000000000E-01 -3.1402899259610E-01  1.2290239334016E+00
97  9.6000000000000E-01 -2.7696766581795E-01  1.1972853233233E+00
98  9.7000000000000E-01 -2.4124083730858E-01  1.1615236496918E+00
99  9.8000000000000E-01 -2.0728574318545E-01  1.1215398473802E+00
100  9.9000000000000E-01 -1.7547784048624E-01  1.0772331175660E+00
101  1.0000000000000E+00 -1.4612400409108E-01  1.0286114281505E+00
102  1.0100000000000E+00 -1.1945761602881E-01  9.7579898810312E-01
103  1.0200000000000E+00 -9.5635718873047E-02  9.1904038414513E-01
104  1.0300000000000E+00 -7.4738344583031E-02  8.5870116806989E-01
105  1.0400000000000E+00 -5.6770064811204E-02  7.9526479177176E-01
106  1.0500000000000E+00 -4.1663740416426E-02  7.2932590130489E-01
107  1.0600000000000E+00 -2.9286378830949E-02  6.6158011740446E-01
108  1.0700000000000E+00 -1.9446939925723E-02  5.9281054467507E-01
109  1.0800000000000E+00 -1.1905866602765E-02  5.2387136085448E-01
110  1.0900000000000E+00 -6.3860572843459E-03  4.5566893818911E-01
111  1.1000000000000E+00 -2.5849458203751E-03  3.8914103752181E-01
112  1.1100000000000E+00 -1.8731189828441E-04  3.2523468911090E-01
113  1.1200000000000E+00  1.1215880544155E-03  2.6488343122870E-01
114  1.1300000000000E+00  1.6429163759171E-03  2.0898455100186E-01
115  1.1400000000000E+00  1.6521753746351E-03  1.5837747354721E-01
116  1.1500000000000E+00  1.3593003408620E-03  1.1380066090748E-01
117  1.1600000000000E+00  9.0090103598144E-04  7.5871480803542E-02
118  1.1700000000000E+00  4.6216705405537E-04  4.5178444153471E-02
119  1.1800000000000E+00  1.5611134149460E-04  2.2183036798234E-02
120  1.1900000000000E+00  1.6837033335516E-05  7.1955831980626E-03
121  1.2000000000000E+00 -2.1691344292497E-06  5.2984935565826E-04
122  1.2100000000000E+00  1.0481616119887E-07 -1.3402370333226E-05
123  1.2200000000000E+00  6.9620127439262E-09 -4.9314793921449E-06
124  1.23 -0.  0.
125  1.24  0.  0.
126  1.25  0.  0.
127  1.26  0.  0.
128  1.27  0.  0.
129  1.28  0.  0.
130  1.29  0.  0.
131  1.30  0.  0.
132  1.31  0.  0.
133  1.32  0.  0.