Ra    ONCVPSP-4.0.1  r_core=   1.35615   1.35615   1.35615   1.35615
88.0000     28.0000      230615    zatom,zion,pspd
8      11   3     4   600     0    pspcod,pspxc,lmax,lloc,mmax,r2well
5.99000000  3.50000000  0.00000000    rchrg fchrg qchrg
3     2     2     1     0    nproj
1     1           extension_switch
0                         2.2331580341768E+01 -2.3758873253057E+00  1.9601628992888E+00
1  0.0000000000000E+00 -7.9084168103094E-08 -2.6082587561982E-08 -2.4251060171121E-07
2  1.0000000000000E-02  1.6859433570777E-01  3.2083497394025E-02  1.2881723412188E-01
3  2.0000000000000E-02  3.3553303742772E-01  6.3845024720661E-02  2.5428452524585E-01
4  3.0000000000000E-02  4.9919139460532E-01  9.4971545641585E-02  3.7313759571345E-01
5  4.0000000000000E-02  6.5800577020799E-01  1.2516764283292E-01  4.8228117216506E-01
6  5.0000000000000E-02  8.1050222538246E-01  1.5416371339896E-01  5.7886773694477E-01
7  6.0000000000000E-02  9.5532290850562E-01  1.8172344681598E-01  6.6036955932292E-01
8  7.0000000000000E-02  1.0912495598239E+00  2.0765037805489E-01  7.2464206212460E-01
9  8.0000000000000E-02  1.2172235619601E+00  2.3179333461366E-01  7.6997682186293E-01
10  9.0000000000000E-02  1.3323620611165E+00  2.5405062736067E-01  7.9514279035733E-01
11  1.0000000000000E-01  1.4359697911265E+00  2.7437287045342E-01  7.9941465480280E-01
12  1.1000000000000E-01  1.5275463495731E+00  2.9276435414164E-01  7.8258761197365E-01
13  1.2000000000000E-01  1.6067887986667E+00  3.0928293488630E-01  7.4497821048223E-01
14  1.3000000000000E-01  1.6735895899801E+00  3.2403844876584E-01  6.8741130202523E-01
15  1.4000000000000E-01  1.7280299379068E+00  3.3718969541479E-01  6.1119352735998E-01
16  1.5000000000000E-01  1.7703688882953E+00  3.4894007957124E-01  5.1807413446740E-01
17  1.6000000000000E-01  1.8010284427255E+00  3.5953203457156E-01  4.1019427449587E-01
18  1.7000000000000E-01  1.8205752021352E+00  3.6924038576588E-01  2.9002623584069E-01
19  1.8000000000000E-01  1.8296990831409E+00  3.7836484089479E-01  1.6030434931007E-01
20  1.9000000000000E-01  1.8291897339402E+00  3.8722181814933E-01  2.3949520163862E-02
21  2.0000000000000E-01  1.8199113321680E+00  3.9613584028117E-01 -1.1601049022656E-01
22  2.1000000000000E-01  1.8027764830204E+00  4.0543073425703E-01 -2.5652280377933E-01
23  2.2000000000000E-01  1.7787199514740E+00  4.1542088026937E-01 -3.9459091344145E-01
24  2.3000000000000E-01  1.7486729571879E+00  4.2640275133163E-01 -5.2735366725828E-01
25  2.4000000000000E-01  1.7135387349755E+00  4.3864697530315E-01 -6.5215958072797E-01
26  2.5000000000000E-01  1.6741700184302E+00  4.5239113530641E-01 -7.6663445392003E-01
27  2.6000000000000E-01  1.6313490408118E+00  4.6783350260036E-01 -8.6874047054466E-01
28  2.7000000000000E-01  1.5857705675761E+00  4.8512786871257E-01 -9.5682520706004E-01
29  2.8000000000000E-01  1.5380283813542E+00  5.0437961181441E-01 -1.0296592736324E+00
30  2.9000000000000E-01  1.4886055355172E+00  5.2564309687893E-01 -1.0864616367515E+00
31  3.0000000000000E-01  1.4378685797811E+00  5.4892047111944E-01 -1.1269120260645E+00
32  3.1000000000000E-01  1.3860658438809E+00  5.7416187666882E-01 -1.1511501953758E+00
33  3.2000000000000E-01  1.3333297465704E+00  6.0126706255883E-01 -1.1597621792698E+00
34  3.3000000000000E-01  1.2796829804981E+00  6.3008833893630E-01 -1.1537540518791E+00
35  3.4000000000000E-01  1.2250483121875E+00  6.6043477921676E-01 -1.1345140426473E+00
36  3.5000000000000E-01  1.1692616335594E+00  6.9207754157644E-01 -1.1037641857444E+00
37  3.6000000000000E-01  1.1120878100658E+00  7.2475615077793E-01 -1.0635029661318E+00
38  3.7000000000000E-01  1.0532387930714E+00  7.5818555565160E-01 -1.0159406682821E+00
39  3.8000000000000E-01  9.9239340274770E-01  7.9206375731456E-01 -9.6342932663113E-01
40  3.9000000000000E-01  9.2921814405875E-01  8.2607978893695E-01 -9.0838931486044E-01
41  4.0000000000000E-01  8.6338839353560E-01  8.5992181992555E-01 -8.5323469057711E-01
42  4.1000000000000E-01  7.9460928902134E-01  8.9328515596520E-01 -8.0029943102478E-01
43  4.2000000000000E-01  7.2263566841859E-01  9.2587991142790E-01 -7.5176665408470E-01
44  4.3000000000000E-01  6.4729043614581E-01  9.5743814203545E-01 -7.0960281858221E-01
45  4.4000000000000E-01  5.6848078639668E-01  9.8772024296281E-01 -6.7549874217965E-01
46  4.5000000000000E-01  4.8621177883190E-01  1.0165204402600E+00 -6.5081906868408E-01
47  4.6000000000000E-01  4.0059684295350E-01  1.0436712308526E+00 -6.3656156575063E-01
48  4.7000000000000E-01  3.1186487970300E-01  1.0690466576362E+00 -6.3332734614270E-01
49  4.8000000000000E-01  2.2036373003317E-01  1.0925643403818E+00 -6.4130278940576E-01
50  4.9000000000000E-01  1.2655988736082E-01  1.1141862193162E+00 -6.6025360518981E-01
51  5.0000000000000E-01  3.1034440782212E-02  1.1339180052806E+00 -6.8953113420938E-01
52  5.1000000000000E-01 -6.5524654437906E-02  1.1518073672442E+00 -7.2809063776607E-01
53  5.2000000000000E-01 -1.6233377646151E-01  1.1679409235962E+00 -7.7452099167537E-01
54  5.3000000000000E-01 -2.5852800427896E-01  1.1824401370638E+00 -8.2708488467959E-01
55  5.4000000000000E-01 -3.5317826030273E-01  1.1954562433583E+00 -8.8376833375179E-01
56  5.5000000000000E-01 -4.4531075699936E-01  1.2071643699214E+00 -9.4233807694332E-01
57  5.6000000000000E-01 -5.3392821181283E-01  1.2177570226958E+00 -1.0004051953752E+00
58  5.7000000000000E-01 -6.1803224570233E-01  1.2274371351297E+00 -1.0554931550849E+00
59  5.8000000000000E-01 -6.9664634861186E-01  1.2364108842137E+00 -1.1051083507739E+00
60  5.9000000000000E-01 -7.6883878086716E-01  1.2448804830124E+00 -1.1468111795872E+00
61  6.0000000000000E-01 -8.3374478310455E-01  1.2530371578017E+00 -1.1782856748368E+00
62  6.1000000000000E-01 -8.9058748861099E-01  1.2610545106735E+00 -1.1974057864255E+00
63  6.2000000000000E-01 -9.3869697011440E-01  1.2690824555823E+00 -1.2022965044009E+00
64  6.3000000000000E-01 -9.7752690687579E-01  1.2772418977092E+00 -1.1913881809477E+00
65  6.4000000000000E-01 -1.0066684257065E+00  1.2856203032903E+00 -1.1634626091291E+00
66  6.5000000000000E-01 -1.0258607492083E+00  1.2942682803899E+00 -1.1176896576159E+00
67  6.6000000000000E-01 -1.0349983737318E+00  1.3031972613026E+00 -1.0536535322670E+00
68  6.7000000000000E-01 -1.0341345956442E+00  1.3123783452286E+00 -9.7136802972654E-01
69  6.8000000000000E-01 -1.0234813046851E+00  1.3217423265246E+00 -8.7128045660057E-01
70  6.9000000000000E-01 -1.0034050646226E+00  1.3311809001512E+00 -7.5426420150032E-01
71  7.0000000000000E-01 -9.7441960117173E-01  1.3405490028926E+00 -6.2160025725631E-01
72  7.1000000000000E-01 -9.3717491246210E-01  1.3496682174347E+00 -4.7494828841305E-01
73  7.2000000000000E-01 -8.9244330555342E-01  1.3583311373551E+00 -3.1630811634950E-01
74  7.3000000000000E-01 -8.4110274123947E-01  1.3663065652800E+00 -1.4797274364349E-01
75  7.4000000000000E-01 -7.8411793651908E-01  1.3733453946083E+00  2.7525746100832E-02
76  7.5000000000000E-01 -7.2251972793518E-01  1.3791870078625E+00  2.0747590227861E-01
77  7.6000000000000E-01 -6.5738323813960E-01  1.3835660123290E+00  3.8905059450342E-01
78  7.7000000000000E-01 -5.8980541164183E-01  1.3862191264893E+00  5.6937294984148E-01
79  7.8000000000000E-01 -5.2088249330860E-01  1.3868920289551E+00  7.4558278340415E-01
80  7.9000000000000E-01 -4.5168801482443E-01  1.3853459851660E+00  9.1490178136174E-01
81  8.0000000000000E-01 -3.8325183048886E-01  1.3813640758222E+00  1.0746957591161E+00
82  8.1000000000000E-01 -3.1654070534075E-01  1.3747568645793E+00  1.2225324263881E+00
83  8.2000000000000E-01 -2.5244090699249E-01  1.3653673604532E+00  1.3562332414858E+00
84  8.3000000000000E-01 -1.9174318941964E-01  1.3530751521077E+00  1.4739181240306E+00
85  8.4000000000000E-01 -1.3513048428497E-01  1.3377996160260E+00  1.5740420129797E+00
86  8.5000000000000E-01 -8.3168535418039E-02  1.3195021277417E+00  1.6554224981616E+00
87  8.6000000000000E-01 -3.6299627243473E-02  1.2981872340086E+00  1.7172580114471E+00
88  8.7000000000000E-01  5.1605292310437E-03  1.2739027731540E+00  1.7591363304441E+00
89  8.8000000000000E-01  4.1022776246976E-02  1.2467389600490E+00  1.7810334154804E+00
90  8.9000000000000E-01  7.1221462633691E-02  1.2168264802788E+00  1.7833028619583E+00
91  9.0000000000000E-01  9.5808557586811E-02  1.1843336644254E+00  1.7666564975931E+00
92  9.1000000000000E-01  1.1494518382787E-01  1.1494628371480E+00  1.7321368808191E+00
93  9.2000000000000E-01  1.2889089192327E-01  1.1124459563173E+00  1.6810826566815E+00
94  9.3000000000000E-01  1.3799104958572E-01  1.0735396742976E+00  1.6150878947103E+00
95  9.4000000000000E-01  1.4266275975361E-01  1.0330199661502E+00  1.5359566654296E+00
96  9.5000000000000E-01  1.4337974825494E-01  9.9117647776942E-01  1.4456542053565E+00
97  9.6000000000000E-01  1.4065667541786E-01  9.4830675060743E-01  1.3462560727764E+00
98  9.7000000000000E-01  1.3503332601112E-01  9.0471047868201E-01  1.2398967077458E+00
99  9.8000000000000E-01  1.2705911869945E-01  8.6068394812133E-01  1.1287187803149E+00
100  9.9000000000000E-01  1.1727835050104E-01  8.1651479983515E-01  1.0148246427961E+00
101  1.0000000000000E+00  1.0621655462879E-01  7.7247724240459E-01  9.0023109807231E-01
102  1.0100000000000E+00  9.4368302923620E-02  7.2882782541625E-01  7.8682856025055E-01
103  1.0200000000000E+00  8.2186728568370E-02  6.8580186383237E-01  6.7634552143682E-01
104  1.0300000000000E+00  7.0074982802076E-02  6.4361058223970E-01  5.7031905458035E-01
105  1.0400000000000E+00  5.8379772886698E-02  6.0243902462827E-01  4.7007188299460E-01
106  1.0500000000000E+00  4.7387059821245E-02  5.6244475147503E-01  3.7669633887412E-01
107  1.0600000000000E+00  3.7319925459050E-02  5.2375732210229E-01  2.9104532253688E-01
108  1.0700000000000E+00  2.8338551621718E-02  4.8647853718036E-01  2.1373016682511E-01
109  1.0800000000000E+00  2.0542190858247E-02  4.5068339464577E-01  1.4512511423521E-01
110  1.0900000000000E+00  1.3972951192081E-02  4.1642169272619E-01  8.5377932599561E-02
111  1.1000000000000E+00  8.6211672515439E-03  3.8372019678323E-01  3.4426033825250E-02
112  1.1100000000000E+00  4.4320889763548E-03  3.5258527276917E-01 -7.9826762653877E-03
113  1.1200000000000E+00  1.3135874268079E-03  3.2300587951000E-01 -4.2265098051706E-02
114  1.1300000000000E+00 -8.5544396591367E-04  2.9495680508195E-01 -6.8975347727794E-02
115  1.1400000000000E+00 -2.2163250034360E-03  2.6840202926571E-01 -8.8775283515316E-02
116  1.1500000000000E+00 -2.9217934697641E-03  2.4329809445188E-01 -1.0240417140365E-01
117  1.1600000000000E+00 -3.1275010304945E-03  2.1959737131175E-01 -1.1064849847055E-01
118  1.1700000000000E+00 -2.9841026670710E-03  1.9725111269276E-01 -1.1431289848382E-01
119  1.1800000000000E+00 -2.6302136912644E-03  1.7621219934143E-01 -1.1419308448533E-01
120  1.1900000000000E+00 -2.1864731580782E-03  1.5643749355060E-01 -1.1105159130246E-01
121  1.2000000000000E+00 -1.7509112954333E-03  1.3788973136118E-01 -1.0559702012216E-01
122  1.2100000000000E+00 -1.3957735343860E-03  1.2053889977543E-01 -9.8467353357769E-02
123  1.2200000000000E+00 -1.1659063937138E-03  1.0436306202920E-01 -9.0217775500781E-02
124  1.2300000000000E+00 -1.0787624882241E-03  8.9348610758037E-02 -8.1313299181048E-02
125  1.2400000000000E+00 -1.1260356036656E-03  7.5489945076483E-02 -7.2126361960387E-02
126  1.2500000000000E+00 -1.2768930394187E-03  6.2788582856990E-02 -6.2939431182790E-02
127  1.2600000000000E+00 -1.4827334902654E-03  5.1251733073118E-02 -5.3952538000205E-02
128  1.2700000000000E+00 -1.6833794806156E-03  4.0890359399927E-02 -4.5295597401995E-02
129  1.2800000000000E+00 -1.8145124261360E-03  3.1716800330578E-02 -3.7045100181942E-02
130  1.2900000000000E+00 -1.8226924485978E-03  2.3739559665944E-02 -2.9262092064195E-02
131  1.3000000000000E+00 -1.7881322254981E-03  1.6916675806475E-02 -2.2320755579666E-02
132  1.3100000000000E+00 -1.6824084688401E-03  1.1248274792263E-02 -1.6261795787578E-02
133  1.3200000000000E+00 -1.4223255391322E-03  6.7578624649779E-03 -1.0933767289562E-02
134  1.3300000000000E+00 -1.0033481226921E-03  3.4420764322120E-03 -6.3526320833358E-03
135  1.3400000000000E+00 -5.0371529439928E-04  1.2693558901198E-03 -2.7180833650752E-03
136  1.3500000000000E+00 -9.8288621153687E-05  1.8403039857151E-04 -4.6515814323664E-04
137  1.3600000000000E+00  9.0667213787501E-06 -1.4102394313699E-05  3.9963566017459E-05
138  1.3700000000000E+00 -1.9565290331448E-06  3.3316112702557E-06 -8.9187591358227E-06
139  1.38  0. -0.  0.
140  1.39  0.  0.  0.
141  1.40  0.  0.  0.
142  1.41  0.  0.  0.
143  1.42  0.  0.  0.
144  1.43  0.  0.  0.
145  1.44  0.  0.  0.
146  1.45  0.  0.  0.
147  1.46  0.  0.  0.
148  1.47  0.  0.  0.
149  1.48  0.  0.  0.
150  1.49  0.  0.  0.
151  1.50  0.  0.  0.
152  1.51  0.  0.  0.
153  1.52  0.  0.  0.
154  1.53  0.  0.  0.
155  1.54  0.  0.  0.
156  1.55  0.  0.  0.
157  1.56  0.  0.  0.
158  1.57  0.  0.  0.
159  1.58  0.  0.  0.
160  1.59  0.  0.  0.
161  1.60  0.  0.  0.
162  1.61  0.  0.  0.
163  1.62  0.  0.  0.
164  1.63  0.  0.  0.
165  1.64  0.  0.  0.
166  1.65  0.  0.  0.
167  1.66  0.  0.  0.
168  1.67  0.  0.  0.
169  1.68  0.  0.  0.
170  1.69  0.  0.  0.
171  1.70  0.  0.  0.
172  1.71  0.  0.  0.
173  1.72  0.  0.  0.
174  1.73  0.  0.  0.
175  1.74  0.  0.  0.
176  1.75  0.  0.  0.
177  1.76  0.  0.  0.
178  1.77  0.  0.  0.
179  1.78  0.  0.  0.
180  1.79  0.  0.  0.
181  1.80  0.  0.  0.
182  1.81  0.  0.  0.
183  1.82  0.  0.  0.
184  1.83  0.  0.  0.
185  1.84  0.  0.  0.
186  1.85  0.  0.  0.
187  1.86  0.  0.  0.
188  1.87  0.  0.  0.
189  1.88  0.  0.  0.
190  1.89  0.  0.  0.
191  1.90  0.  0.  0.
192  1.91  0.  0.  0.
193  1.92  0.  0.  0.
194  1.93  0.  0.  0.
195  1.94  0.  0.  0.
196  1.95  0.  0.  0.
197  1.96  0.  0.  0.
198  1.97  0.  0.  0.
199  1.98  0.  0.  0.
200  1.99  0.  0.  0.
201  2.00  0.  0.  0.
202  2.01  0.  0.  0.
203  2.02  0.  0.  0.
204  2.03  0.  0.  0.
205  2.04  0.  0.  0.
206  2.05  0.  0.  0.
207  2.06  0.  0.  0.
208  2.07  0.  0.  0.
209  2.08  0.  0.  0.
210  2.09  0.  0.  0.
211  2.10  0.  0.  0.
212  2.11  0.  0.  0.
213  2.12  0.  0.  0.
214  2.13  0.  0.  0.
215  2.14  0.  0.  0.
216  2.15  0.  0.  0.
217  2.16  0.  0.  0.
218  2.17  0.  0.  0.
219  2.18  0.  0.  0.
220  2.19  0.  0.  0.
221  2.20  0.  0.  0.
222  2.21  0.  0.  0.
223  2.22  0.  0.  0.
224  2.23  0.  0.  0.
225  2.24  0.  0.  0.
226  2.25  0.  0.  0.
227  2.26  0.  0.  0.
228  2.27  0.  0.  0.
229  2.28  0.  0.  0.
230  2.29  0.  0.  0.
231  2.30  0.  0.  0.
232  2.31  0.  0.  0.
233  2.32  0.  0.  0.
234  2.33  0.  0.  0.
235  2.34  0.  0.  0.
236  2.35  0.  0.  0.
237  2.36  0.  0.  0.
238  2.37  0.  0.  0.
239  2.38  0.  0.  0.
240  2.39  0.  0.  0.
241  2.40  0.  0.  0.
242  2.41  0.  0.  0.
243  2.42  0.  0.  0.
244  2.43  0.  0.  0.
245  2.44  0.  0.  0.
246  2.45  0.  0.  0.
247  2.46  0.  0.  0.
248  2.47  0.  0.  0.
249  2.48  0.  0.  0.
250  2.49  0.  0.  0.
251  2.50  0.  0.  0.
252  2.51  0.  0.  0.
253  2.52  0.  0.  0.
254  2.53  0.  0.  0.
255  2.54  0.  0.  0.
256  2.55  0.  0.  0.
257  2.56  0.  0.  0.
258  2.57  0.  0.  0.
259  2.58  0.  0.  0.
260  2.59  0.  0.  0.
261  2.60  0.  0.  0.
262  2.61  0.  0.  0.
263  2.62  0.  0.  0.
264  2.63  0.  0.  0.
265  2.64  0.  0.  0.
266  2.65  0.  0.  0.
267  2.66  0.  0.  0.
268  2.67  0.  0.  0.
269  2.68  0.  0.  0.
270  2.69  0.  0.  0.
271  2.70  0.  0.  0.
272  2.71  0.  0.  0.
273  2.72  0.  0.  0.
274  2.73  0.  0.  0.
275  2.74  0.  0.  0.
276  2.75  0.  0.  0.
277  2.76  0.  0.  0.
278  2.77  0.  0.  0.
279  2.78  0.  0.  0.
280  2.79  0.  0.  0.
281  2.80  0.  0.  0.
282  2.81  0.  0.  0.
283  2.82  0.  0.  0.
284  2.83  0.  0.  0.
285  2.84  0.  0.  0.
286  2.85  0.  0.  0.
287  2.86  0.  0.  0.
288  2.87  0.  0.  0.
289  2.88  0.  0.  0.
290  2.89  0.  0.  0.
291  2.90  0.  0.  0.
292  2.91  0.  0.  0.
293  2.92  0.  0.  0.
294  2.93  0.  0.  0.
295  2.94  0.  0.  0.
296  2.95  0.  0.  0.
297  2.96  0.  0.  0.
298  2.97  0.  0.  0.
299  2.98  0.  0.  0.
300  2.99  0.  0.  0.
301  3.00  0.  0.  0.
302  3.01  0.  0.  0.
303  3.02  0.  0.  0.
304  3.03  0.  0.  0.
305  3.04  0.  0.  0.
306  3.05  0.  0.  0.
307  3.06  0.  0.  0.
308  3.07  0.  0.  0.
309  3.08  0.  0.  0.
310  3.09  0.  0.  0.
311  3.10  0.  0.  0.
312  3.11  0.  0.  0.
313  3.12  0.  0.  0.
314  3.13  0.  0.  0.
315  3.14  0.  0.  0.
316  3.15  0.  0.  0.
317  3.16  0.  0.  0.
318  3.17  0.  0.  0.
319  3.18  0.  0.  0.
320  3.19  0.  0.  0.
321  3.20  0.  0.  0.
322  3.21  0.  0.  0.
323  3.22  0.  0.  0.
324  3.23  0.  0.  0.
325  3.24  0.  0.  0.
326  3.25  0.  0.  0.
327  3.26  0.  0.  0.
328  3.27  0.  0.  0.
329  3.28  0.  0.  0.
330  3.29  0.  0.  0.
331  3.30  0.  0.  0.
332  3.31  0.  0.  0.
333  3.32  0.  0.  0.
334  3.33  0.  0.  0.
335  3.34  0.  0.  0.
336  3.35  0.  0.  0.
337  3.36  0.  0.  0.
338  3.37  0.  0.  0.
339  3.38  0.  0.  0.
340  3.39  0.  0.  0.
341  3.40  0.  0.  0.
342  3.41  0.  0.  0.
343  3.42  0.  0.  0.
344  3.43  0.  0.  0.
345  3.44  0.  0.  0.
346  3.45  0.  0.  0.
347  3.46  0.  0.  0.
348  3.47  0.  0.  0.
349  3.48  0.  0.  0.
350  3.49  0.  0.  0.
351  3.50  0.  0.  0.
352  3.51  0.  0.  0.
353  3.52  0.  0.  0.
354  3.53  0.  0.  0.
355  3.54  0.  0.  0.
356  3.55  0.  0.  0.
357  3.56  0.  0.  0.
358  3.57  0.  0.  0.
359  3.58  0.  0.  0.
360  3.59  0.  0.  0.
361  3.60  0.  0.  0.
362  3.61  0.  0.  0.
363  3.62  0.  0.  0.
364  3.63  0.  0.  0.
365  3.64  0.  0.  0.
366  3.65  0.  0.  0.
367  3.66  0.  0.  0.
368  3.67  0.  0.  0.
369  3.68  0.  0.  0.
370  3.69  0.  0.  0.
371  3.70  0.  0.  0.
372  3.71  0.  0.  0.
373  3.72  0.  0.  0.
374  3.73  0.  0.  0.
375  3.74  0.  0.  0.
376  3.75  0.  0.  0.
377  3.76  0.  0.  0.
378  3.77  0.  0.  0.
379  3.78  0.  0.  0.
380  3.79  0.  0.  0.
381  3.80  0.  0.  0.
382  3.81  0.  0.  0.
383  3.82  0.  0.  0.
384  3.83  0.  0.  0.
385  3.84  0.  0.  0.
386  3.85  0.  0.  0.
387  3.86  0.  0.  0.
388  3.87  0.  0.  0.
389  3.88  0.  0.  0.
390  3.89  0.  0.  0.
391  3.90  0.  0.  0.
392  3.91  0.  0.  0.
393  3.92  0.  0.  0.
394  3.93  0.  0.  0.
395  3.94  0.  0.  0.
396  3.95  0.  0.  0.
397  3.96  0.  0.  0.
398  3.97  0.  0.  0.
399  3.98  0.  0.  0.
400  3.99  0.  0.  0.
401  4.00  0.  0.  0.
402  4.01  0.  0.  0.
403  4.02  0.  0.  0.
404  4.03  0.  0.  0.
405  4.04  0.  0.  0.
406  4.05  0.  0.  0.
407  4.06  0.  0.  0.
408  4.07  0.  0.  0.
409  4.08  0.  0.  0.
410  4.09  0.  0.  0.
411  4.10  0.  0.  0.
412  4.11  0.  0.  0.
413  4.12  0.  0.  0.
414  4.13  0.  0.  0.
415  4.14  0.  0.  0.
416  4.15  0.  0.  0.
417  4.16  0.  0.  0.
418  4.17  0.  0.  0.
419  4.18  0.  0.  0.
420  4.19  0.  0.  0.
421  4.20  0.  0.  0.
422  4.21  0.  0.  0.
423  4.22  0.  0.  0.
424  4.23  0.  0.  0.
425  4.24  0.  0.  0.
426  4.25  0.  0.  0.
427  4.26  0.  0.  0.
428  4.27  0.  0.  0.
429  4.28  0.  0.  0.
430  4.29  0.  0.  0.
431  4.30  0.  0.  0.
432  4.31  0.  0.  0.
433  4.32  0.  0.  0.
434  4.33  0.  0.  0.
435  4.34  0.  0.  0.
436  4.35  0.  0.  0.
437  4.36  0.  0.  0.
438  4.37  0.  0.  0.
439  4.38  0.  0.  0.
440  4.39  0.  0.  0.
441  4.40  0.  0.  0.
442  4.41  0.  0.  0.
443  4.42  0.  0.  0.
444  4.43  0.  0.  0.
445  4.44  0.  0.  0.
446  4.45  0.  0.  0.
447  4.46  0.  0.  0.
448  4.47  0.  0.  0.
449  4.48  0.  0.  0.
450  4.49  0.  0.  0.
451  4.50  0.  0.  0.
452  4.51  0.  0.  0.
453  4.52  0.  0.  0.
454  4.53  0.  0.  0.
455  4.54  0.  0.  0.
456  4.55  0.  0.  0.
457  4.56  0.  0.  0.
458  4.57  0.  0.  0.
459  4.58  0.  0.  0.
460  4.59  0.  0.  0.
461  4.60  0.  0.  0.
462  4.61  0.  0.  0.
463  4.62  0.  0.  0.
464  4.63  0.  0.  0.
465  4.64  0.  0.  0.
466  4.65  0.  0.  0.
467  4.66  0.  0.  0.
468  4.67  0.  0.  0.
469  4.68  0.  0.  0.
470  4.69  0.  0.  0.
471  4.70  0.  0.  0.
472  4.71  0.  0.  0.
473  4.72  0.  0.  0.
474  4.73  0.  0.  0.
475  4.74  0.  0.  0.
476  4.75  0.  0.  0.
477  4.76  0.  0.  0.
478  4.77  0.  0.  0.
479  4.78  0.  0.  0.
480  4.79  0.  0.  0.
481  4.80  0.  0.  0.
482  4.81  0.  0.  0.
483  4.82  0.  0.  0.
484  4.83  0.  0.  0.
485  4.84  0.  0.  0.
486  4.85  0.  0.  0.
487  4.86  0.  0.  0.
488  4.87  0.  0.  0.
489  4.88  0.  0.  0.
490  4.89  0.  0.  0.
491  4.90  0.  0.  0.
492  4.91  0.  0.  0.
493  4.92  0.  0.  0.
494  4.93  0.  0.  0.
495  4.94  0.  0.  0.
496  4.95  0.  0.  0.
497  4.96  0.  0.  0.
498  4.97  0.  0.  0.
499  4.98  0.  0.  0.
500  4.99  0.  0.  0.
501  5.00  0.  0.  0.
502  5.01  0.  0.  0.
503  5.02  0.  0.  0.
504  5.03  0.  0.  0.
505  5.04  0.  0.  0.
506  5.05  0.  0.  0.
507  5.06  0.  0.  0.
508  5.07  0.  0.  0.
509  5.08  0.  0.  0.
510  5.09  0.  0.  0.
511  5.10  0.  0.  0.
512  5.11  0.  0.  0.
513  5.12  0.  0.  0.
514  5.13  0.  0.  0.
515  5.14  0.  0.  0.
516  5.15  0.  0.  0.
517  5.16  0.  0.  0.
518  5.17  0.  0.  0.
519  5.18  0.  0.  0.
520  5.19  0.  0.  0.
521  5.20  0.  0.  0.
522  5.21  0.  0.  0.
523  5.22  0.  0.  0.
524  5.23  0.  0.  0.
525  5.24  0.  0.  0.
526  5.25  0.  0.  0.
527  5.26  0.  0.  0.
528  5.27  0.  0.  0.
529  5.28  0.  0.  0.
530  5.29  0.  0.  0.
531  5.30  0.  0.  0.
532  5.31  0.  0.  0.
533  5.32  0.  0.  0.
534  5.33  0.  0.  0.
535  5.34  0.  0.  0.
536  5.35  0.  0.  0.
537  5.36  0.  0.  0.
538  5.37  0.  0.  0.
539  5.38  0.  0.  0.
540  5.39  0.  0.  0.
541  5.40  0.  0.  0.
542  5.41  0.  0.  0.
543  5.42  0.  0.  0.
544  5.43  0.  0.  0.
545  5.44  0.  0.  0.
546  5.45  0.  0.  0.
547  5.46  0.  0.  0.
548  5.47  0.  0.  0.
549  5.48  0.  0.  0.
550  5.49  0.  0.  0.
551  5.50  0.  0.  0.
552  5.51  0.  0.  0.
553  5.52  0.  0.  0.
554  5.53  0.  0.  0.
555  5.54  0.  0.  0.
556  5.55  0.  0.  0.
557  5.56  0.  0.  0.
558  5.57  0.  0.  0.
559  5.58  0.  0.  0.
560  5.59  0.  0.  0.
561  5.60  0.  0.  0.
562  5.61  0.  0.  0.
563  5.62  0.  0.  0.
564  5.63  0.  0.  0.
565  5.64  0.  0.  0.
566  5.65  0.  0.  0.
567  5.66  0.  0.  0.
568  5.67  0.  0.  0.
569  5.68  0.  0.  0.
570  5.69  0.  0.  0.
571  5.70  0.  0.  0.
572  5.71  0.  0.  0.
573  5.72  0.  0.  0.
574  5.73  0.  0.  0.
575  5.74  0.  0.  0.
576  5.75  0.  0.  0.
577  5.76  0.  0.  0.
578  5.77  0.  0.  0.
579  5.78  0.  0.  0.
580  5.79  0.  0.  0.
581  5.80  0.  0.  0.
582  5.81  0.  0.  0.
583  5.82  0.  0.  0.
584  5.83  0.  0.  0.
585  5.84  0.  0.  0.
586  5.85  0.  0.  0.
587  5.86  0.  0.  0.
588  5.87  0.  0.  0.
589  5.88  0.  0.  0.
590  5.89  0.  0.  0.
591  5.90  0.  0.  0.
592  5.91  0.  0.  0.
593  5.92  0.  0.  0.
594  5.93  0.  0.  0.
595  5.94  0.  0.  0.
596  5.95  0.  0.  0.
597  5.96  0.  0.  0.
598  5.97  0.  0.  0.
599  5.98  0.  0.  0.
600  5.99  0.  0.  0.
1                         3.5597117678413E+00 -2.2720473575428E+00
1  0.0000000000000E+00 -1.5529031921480E-08  4.9650010491842E-10
2  1.0000000000000E-02  2.7050155138023E-03  4.8661803385966E-04
3  2.0000000000000E-02  1.0810195753653E-02  1.9467076398081E-03
4  3.0000000000000E-02  2.4285716857220E-02  4.3809763114474E-03
5  4.0000000000000E-02  4.3081132784476E-02  7.7906061222653E-03
6  5.0000000000000E-02  6.7124301487044E-02  1.2177256887449E-02
7  6.0000000000000E-02  9.6319951538654E-02  1.7543068209133E-02
8  7.0000000000000E-02  1.3054795656245E-01  2.3890658133171E-02
9  8.0000000000000E-02  1.6966140031997E-01  3.1223115649016E-02
10  9.0000000000000E-02  2.1348452822296E-01  3.9543983875527E-02
11  1.0000000000000E-01  2.6181069086883E-01  4.8857230511823E-02
12  1.1000000000000E-01  3.1440039164790E-01  5.9167202006418E-02
13  1.2000000000000E-01  3.7097955329155E-01  7.0478557918985E-02
14  1.3000000000000E-01  4.3123811729383E-01  8.2796182121060E-02
15  1.4000000000000E-01  4.9482908542871E-01  9.6125067804639E-02
16  1.5000000000000E-01  5.6136810419155E-01  1.1047017373523E-01
17  1.6000000000000E-01  6.3043368112133E-01  1.2583624978879E-01
18  1.7000000000000E-01  7.0156810691373E-01  1.4222763053542E-01
19  1.8000000000000E-01  7.7427913941813E-01  1.5964799645859E-01
20  1.9000000000000E-01  8.4804248550910E-01  1.7810010330421E-01
21  2.0000000000000E-01  9.2230509499492E-01  1.9758548101536E-01
22  2.1000000000000E-01  9.9648925778265E-01  2.1810410469732E-01
23  2.2000000000000E-01  1.0699974721165E+00  2.3965404104619E-01
24  2.3000000000000E-01  1.1422180285134E+00  2.6223107463289E-01
25  2.4000000000000E-01  1.2125312317098E+00  2.8582831933385E-01
26  2.5000000000000E-01  1.2803161621656E+00  3.1043582101206E-01
27  2.6000000000000E-01  1.3449578600572E+00  3.3604015825121E-01
28  2.7000000000000E-01  1.4058547988026E+00  3.6262404850757E-01
29  2.8000000000000E-01  1.4624265024865E+00  3.9016596744928E-01
30  2.9000000000000E-01  1.5141211525031E+00  4.1863978948396E-01
31  3.0000000000000E-01  1.5604230236211E+00  4.4801445752142E-01
32  3.1000000000000E-01  1.6008595887007E+00  4.7825368987200E-01
33  3.2000000000000E-01  1.6350081345540E+00  5.0931573184038E-01
34  3.3000000000000E-01  1.6625017389102E+00  5.4115315904306E-01
35  3.4000000000000E-01  1.6830344699840E+00  5.7371273876404E-01
36  3.5000000000000E-01  1.6963656854980E+00  6.0693535478053E-01
37  3.6000000000000E-01  1.7023233268146E+00  6.4075600005759E-01
38  3.7000000000000E-01  1.7008061256318E+00  6.7510384054961E-01
39  3.8000000000000E-01  1.6917846649375E+00  7.0990235208423E-01
40  3.9000000000000E-01  1.6753012619925E+00  7.4506953096964E-01
41  4.0000000000000E-01  1.6514686683376E+00  7.8051817759078E-01
42  4.1000000000000E-01  1.6204676094910E+00  8.1615625087725E-01
43  4.2000000000000E-01  1.5825432143873E+00  8.5188729016893E-01
44  4.3000000000000E-01  1.5380004109787E+00  8.8761089970757E-01
45  4.4000000000000E-01  1.4871983890715E+00  9.2322328977717E-01
46  4.5000000000000E-01  1.4305442537265E+00  9.5861786743067E-01
47  4.6000000000000E-01  1.3684860118248E+00  9.9368586880530E-01
48  4.7000000000000E-01  1.3015050501309E+00  1.0283170242643E+00
49  4.8000000000000E-01  1.2301082749565E+00  1.0624002470309E+00
50  4.9000000000000E-01  1.1548200909870E+00  1.0958243356119E+00
51  5.0000000000000E-01  1.0761743997537E+00  1.1284786801584E+00
52  5.1000000000000E-01  9.9470679652276E-01  1.1602539629742E+00
53  5.2000000000000E-01  9.1094713803041E-01  1.1910428436674E+00
54  5.3000000000000E-01  8.2541264267181E-01  1.2207406199292E+00
55  5.4000000000000E-01  7.3860166971196E-01  1.2492458556139E+00
56  5.5000000000000E-01  6.5098830520083E-01  1.2764609686535E+00
57  5.6000000000000E-01  5.6301786003003E-01  1.3022927723633E+00
58  5.7000000000000E-01  4.7510336053706E-01  1.3266529648366E+00
59  5.8000000000000E-01  3.8762308490035E-01  1.3494585623742E+00
60  5.9000000000000E-01  3.0091916998928E-01  1.3706322741969E+00
61  6.0000000000000E-01  2.1529728409727E-01  1.3901028170308E+00
62  6.1000000000000E-01  1.3102733187369E-01  1.4078051694840E+00
63  6.2000000000000E-01  4.8345129567325E-02  1.4236807674244E+00
64  6.3000000000000E-01 -3.2545037835657E-02  1.4376776427835E+00
65  6.4000000000000E-01 -1.1146709012412E-01  1.4497505093206E+00
66  6.5000000000000E-01 -1.8826918962865E-01  1.4598607998516E+00
67  6.6000000000000E-01 -2.6281929424505E-01  1.4679766602576E+00
68  6.7000000000000E-01 -3.3500038995684E-01  1.4740729062157E+00
69  6.8000000000000E-01 -4.0470557578916E-01  1.4781309490229E+00
70  6.9000000000000E-01 -4.7183317799512E-01  1.4801386971016E+00
71  7.0000000000000E-01 -5.3628206917725E-01  1.4800904397814E+00
72  7.1000000000000E-01 -5.9794736196685E-01  1.4779867197437E+00
73  7.2000000000000E-01 -6.5671663594553E-01  1.4738342001027E+00
74  7.3000000000000E-01 -7.1246684094351E-01  1.4676455314908E+00
75  7.4000000000000E-01 -7.6506200007123E-01  1.4594392237401E+00
76  7.5000000000000E-01 -8.1435181232672E-01  1.4492395258224E+00
77  7.6000000000000E-01 -8.6017122797366E-01  1.4370763166637E+00
78  7.7000000000000E-01 -9.0234104079719E-01  1.4229850083117E+00
79  7.8000000000000E-01 -9.4066951058306E-01  1.4070064617468E+00
80  7.9000000000000E-01 -9.7495499754871E-01  1.3891869144192E+00
81  8.0000000000000E-01 -1.0049895588404E+00  1.3695779174136E+00
82  8.1000000000000E-01 -1.0305634264616E+00  1.3482362790174E+00
83  8.2000000000000E-01 -1.0514702569680E+00  1.3252240104449E+00
84  8.3000000000000E-01 -1.0675130167790E+00  1.3006082685750E+00
85  8.4000000000000E-01 -1.0785103437673E+00  1.2744612898313E+00
86  8.5000000000000E-01 -1.0843032066023E+00  1.2468603087982E+00
87  8.6000000000000E-01 -1.0847616687109E+00  1.2178874548413E+00
88  8.7000000000000E-01 -1.0797915541754E+00  1.1876296199155E+00
89  8.8000000000000E-01 -1.0693408087581E+00  1.1561782908933E+00
90  8.9000000000000E-01 -1.0534053507398E+00  1.1236293401507E+00
91  9.0000000000000E-01 -1.0320342134508E+00  1.0900827687938E+00
92  9.1000000000000E-01 -1.0053337941901E+00  1.0556423977908E+00
93  9.2000000000000E-01 -9.7347104241882E-01  1.0204155033780E+00
94  9.3000000000000E-01 -9.3667544332346E-01  9.8451239440236E-01
95  9.4000000000000E-01 -8.9523968054332E-01  9.4804593073308E-01
96  9.5000000000000E-01 -8.4951889340959E-01  9.1113098346541E-01
97  9.6000000000000E-01 -7.9992847868977E-01  8.7388383933276E-01
98  9.7000000000000E-01 -7.4694042373515E-01  8.3642155347836E-01
99  9.8000000000000E-01 -6.9107819614629E-01  7.9886125647821E-01
100  9.9000000000000E-01 -6.3291025364995E-01  7.6131942320133E-01
101  1.0000000000000E+00 -5.7304227578491E-01  7.2391111269310E-01
102  1.0100000000000E+00 -5.1210825527289E-01  6.8674918972718E-01
103  1.0200000000000E+00 -4.5076062056353E-01  6.4994353994314E-01
104  1.0300000000000E+00 -3.8965959108806E-01  6.1360029152934E-01
105  1.0400000000000E+00 -3.2946199239973E-01  5.7782105718817E-01
106  1.0500000000000E+00 -2.7080977881546E-01  5.4270221059720E-01
107  1.0600000000000E+00 -2.1431852579083E-01  5.0833421173460E-01
108  1.0700000000000E+00 -1.6056616257028E-01  4.7480099524813E-01
109  1.0800000000000E+00 -1.1008221726354E-01  4.4217943550729E-01
110  1.0900000000000E+00 -6.3337841280551E-02  4.1053890108529E-01
111  1.1000000000000E+00 -2.0736867916548E-02  3.7994091017659E-01