Og    ONCVPSP-4.0.1  r_core=   1.40539   1.55583   1.40539   1.55583
118.0000     26.0000      230804    zatom,zion,pspd
8      11   3     4   600     0    pspcod,pspxc,lmax,lloc,mmax,r2well
5.99000000  6.00000000  0.00000000    rchrg fchrg qchrg
2     2     2     1     0    nproj
1     1           extension_switch
0                         1.6583061631302E+01  2.3183219615562E+00
1  0.0000000000000E+00  3.0238775927671E-09 -8.3521543015053E-09
2  1.0000000000000E-02  7.2954814033197E-02 -3.1780997918140E-03
3  2.0000000000000E-02  1.4583058177876E-01 -6.4853473334294E-03
4  3.0000000000000E-02  2.1854673995669E-01 -1.0046235594673E-02
5  4.0000000000000E-02  2.9101972944959E-01 -1.3976052032488E-02
6  5.0000000000000E-02  3.6316159195583E-01 -1.8376533751135E-02
7  6.0000000000000E-02  4.3487867791591E-01 -2.3331826045162E-02
8  7.0000000000000E-02  5.0607049916302E-01 -2.8904835393881E-02
9  8.0000000000000E-02  5.7662875672479E-01 -3.5134059623891E-02
10  9.0000000000000E-02  6.4643657054177E-01 -4.2030967847042E-02
11  1.0000000000000E-01  7.1536793364280E-01 -4.9577991125422E-02
12  1.1000000000000E-01  7.8328740861705E-01 -5.7727171856000E-02
13  1.2000000000000E-01  8.5005007914170E-01 -6.6399505875927E-02
14  1.3000000000000E-01  9.1550176396881E-01 -7.5484996558243E-02
15  1.4000000000000E-01  9.7947949525507E-01 -8.4843425005465E-02
16  1.5000000000000E-01  1.0418122575472E+00 -9.4305825174020E-02
17  1.6000000000000E-01  1.1023219782294E+00 -1.0367663769731E-01
18  1.7000000000000E-01  1.1608247549121E+00 -1.1273650163781E-01
19  1.8000000000000E-01  1.2171323002016E+00 -1.2124562969689E-01
20  1.9000000000000E-01  1.2710535796476E+00 -1.2894769983743E-01
21  2.0000000000000E-01  1.3223966145096E+00 -1.3557418509645E-01
22  2.1000000000000E-01  1.3709704174105E+00 -1.4084903382528E-01
23  2.2000000000000E-01  1.4165870260232E+00 -1.4449360489895E-01
24  2.3000000000000E-01  1.4590635977275E+00 -1.4623175675439E-01
25  2.4000000000000E-01  1.4982245267337E+00 -1.4579498557570E-01
26  2.5000000000000E-01  1.5339035445187E+00 -1.4292750662738E-01
27  2.6000000000000E-01  1.5659457645759E+00 -1.3739117367770E-01
28  2.7000000000000E-01  1.5942096334526E+00 -1.2897013464426E-01
29  2.8000000000000E-01  1.6185687517948E+00 -1.1747512697057E-01
30  2.9000000000000E-01  1.6389135316335E+00 -1.0274732370156E-01
31  3.0000000000000E-01  1.6551526593457E+00 -8.4661650612985E-02
32  3.1000000000000E-01  1.6672143375715E+00 -6.3129505873992E-02
33  3.2000000000000E-01  1.6750472837587E+00 -3.8100826348360E-02
34  3.3000000000000E-01  1.6786214678653E+00 -9.5654585036361E-03
35  3.4000000000000E-01  1.6779285769644E+00  2.2446193295936E-02
36  3.5000000000000E-01  1.6729821999579E+00  5.7863252905435E-02
37  3.6000000000000E-01  1.6638177312017E+00  9.6575188991626E-02
38  3.7000000000000E-01  1.6504919974457E+00  1.3843334249348E-01
39  3.8000000000000E-01  1.6330826179918E+00  1.8325313005795E-01
40  3.9000000000000E-01  1.6116871132344E+00  2.3081687400323E-01
41  4.0000000000000E-01  1.5864217816722E+00  2.8087719585956E-01
42  4.1000000000000E-01  1.5574203699491E+00  3.3316089839292E-01
43  4.2000000000000E-01  1.5248325644025E+00  3.8737325050578E-01
44  4.3000000000000E-01  1.4888223358745E+00  4.4320258077601E-01
45  4.4000000000000E-01  1.4495661721158E+00  5.0032507884149E-01
46  4.5000000000000E-01  1.4072512339064E+00  5.5840969952923E-01
47  4.6000000000000E-01  1.3620734720046E+00  6.1712306266966E-01
48  4.7000000000000E-01  1.3142357421857E+00  6.7613424199684E-01
49  4.8000000000000E-01  1.2639459549359E+00  7.3511933941715E-01
50  4.9000000000000E-01  1.2114152948462E+00  7.9376574618956E-01
51  5.0000000000000E-01  1.1568565424272E+00  8.5177600009949E-01
52  5.1000000000000E-01  1.1004825279981E+00  9.0887115737536E-01
53  5.2000000000000E-01  1.0425047435512E+00  9.6479360969058E-01
54  5.3000000000000E-01  9.8313213414452E-01  1.0193092898688E+00
55  5.4000000000000E-01  9.2257008552765E-01  1.0722092245797E+00
56  5.5000000000000E-01  8.6101961946440E-01  1.1233104080530E+00
57  5.6000000000000E-01  7.9867680270734E-01  1.1724559873050E+00
58  5.7000000000000E-01  7.3573236992506E-01  1.2195147661844E+00
59  5.8000000000000E-01  6.7237155521861E-01  1.2643800523293E+00
60  5.9000000000000E-01  6.0877412132164E-01  1.3069678874916E+00
61  6.0000000000000E-01  5.4511457029213E-01  1.3472147172397E+00
62  6.1000000000000E-01  4.8156251460071E-01  1.3850745704383E+00
63  6.2000000000000E-01  4.1828318312256E-01  1.4205158317577E+00
64  6.3000000000000E-01  3.5543803275791E-01  1.4535177014787E+00
65  6.4000000000000E-01  2.9318543333882E-01  1.4840664457408E+00
66  6.5000000000000E-01  2.3168139121043E-01  1.5121515468995E+00
67  6.6000000000000E-01  1.7108027546831E-01  1.5377618676124E+00
68  6.7000000000000E-01  1.1153551033878E-01  1.5608819435498E+00
69  6.8000000000000E-01  5.3200197629876E-02  1.5814885181269E+00
70  6.9000000000000E-01 -3.7723654355167E-03  1.5995474283898E+00
71  7.0000000000000E-01 -5.9228305384801E-02  1.6150109441928E+00
72  7.1000000000000E-01 -1.1301295784444E-01  1.6278156532072E+00
73  7.2000000000000E-01 -1.6497084423707E-01  1.6378809722642E+00
74  7.3000000000000E-01 -2.1494586022421E-01  1.6451083513050E+00
75  7.4000000000000E-01 -2.6278169087885E-01  1.6493812200735E+00
76  7.5000000000000E-01 -3.0832246162771E-01  1.6505657099736E+00
77  7.6000000000000E-01 -3.5141362765918E-01  1.6485121646194E+00
78  7.7000000000000E-01 -3.9190309789216E-01  1.6430574329285E+00
79  7.8000000000000E-01 -4.2964258289392E-01  1.6340279186046E+00
80  7.9000000000000E-01 -4.6448914947918E-01  1.6212433399685E+00
81  8.0000000000000E-01 -4.9630695827701E-01  1.6045211347906E+00
82  8.1000000000000E-01 -5.2496915447294E-01  1.5836814265217E+00
83  8.2000000000000E-01 -5.5035987637476E-01  1.5585524515368E+00
84  8.3000000000000E-01 -5.7237634155377E-01  1.5289763321308E+00
85  8.4000000000000E-01 -5.9093096621070E-01  1.4948150674155E+00
86  8.5000000000000E-01 -6.0595347022312E-01  1.4559566042964E+00
87  8.6000000000000E-01 -6.1739291814600E-01  1.4123208436464E+00
88  8.7000000000000E-01 -6.2521964533615E-01  1.3638654328720E+00
89  8.8000000000000E-01 -6.2942701840862E-01  1.3105911954344E+00
90  8.9000000000000E-01 -6.3003298043713E-01  1.2525470506409E+00
91  9.0000000000000E-01 -6.2708133368516E-01  1.1898342831779E+00
92  9.1000000000000E-01 -6.2064271617642E-01  1.1226100313400E+00
93  9.2000000000000E-01 -6.1081523303362E-01  1.0510898756065E+00
94  9.3000000000000E-01 -5.9772470915762E-01  9.7554942489206E-01
95  9.4000000000000E-01 -5.8152453638651E-01  8.9632481618952E-01
96  9.5000000000000E-01 -5.6239509564336E-01  8.1381206407377E-01
97  9.6000000000000E-01 -5.4054274260834E-01  7.2846521923833E-01
98  9.7000000000000E-01 -5.1619835397998E-01  6.4079331944669E-01
99  9.8000000000000E-01 -4.8961544024154E-01  5.5135614148235E-01
100  9.9000000000000E-01 -4.6106783984198E-01  4.6075878836348E-01
101  1.0000000000000E+00 -4.3084701863828E-01  3.6964517167735E-01
102  1.0100000000000E+00 -3.9925900714373E-01  2.7869047386364E-01
103  1.0200000000000E+00 -3.6662101638020E-01  1.8859269904445E-01
104  1.0300000000000E+00 -3.3325778075947E-01  1.0006344303869E-01
105  1.0400000000000E+00 -2.9949768324803E-01  1.3818033017661E-02
106  1.0500000000000E+00 -2.6566872393062E-01 -6.9434795636815E-02
107  1.0600000000000E+00 -2.3209439783636E-01 -1.4900350373597E-01
108  1.0700000000000E+00 -1.9908955141502E-01 -2.2422444189472E-01
109  1.0800000000000E+00 -1.6695628923378E-01 -2.9447243456965E-01
110  1.0900000000000E+00 -1.3598000325346E-01 -3.5917105297196E-01
111  1.1000000000000E+00 -1.0642559637636E-01 -4.1780237666025E-01
112  1.1100000000000E+00 -7.8533969847142E-02 -4.6991604908353E-01
113  1.1200000000000E+00 -5.2518840514880E-02 -5.1513744197122E-01
114  1.1300000000000E+00 -2.8563949034267E-02 -5.5317475696580E-01
115  1.1400000000000E+00 -6.8207137980929E-03 -5.8382491025881E-01
116  1.1500000000000E+00  1.2593622036779E-02 -6.0697806663307E-01
117  1.1600000000000E+00  2.9597311636555E-02 -6.2262071321359E-01
118  1.1700000000000E+00  4.4144864283363E-02 -6.3083718948304E-01
119  1.1800000000000E+00  5.6227224682177E-02 -6.3180961875551E-01
120  1.1900000000000E+00  6.5871363221343E-02 -6.2581621615573E-01
121  1.2000000000000E+00  7.3139279676738E-02 -6.1322797922475E-01
122  1.2100000000000E+00  7.8126433915486E-02 -5.9450379842665E-01
123  1.2200000000000E+00  8.0959628126577E-02 -5.7018405574649E-01
124  1.2300000000000E+00  8.1794375740081E-02 -5.4088280955982E-01
125  1.2400000000000E+00  8.0811802187624E-02 -5.0727869214780E-01
126  1.2500000000000E+00  7.8215131959562E-02 -4.7010467249766E-01
127  1.2600000000000E+00  7.4225824661107E-02 -4.3013686032249E-01
128  1.2700000000000E+00  6.9079429891938E-02 -3.8818254735792E-01
129  1.2800000000000E+00  6.3021236798222E-02 -3.4506769909554E-01
130  1.2900000000000E+00  5.6301798156958E-02 -3.0162412126277E-01
131  1.3000000000000E+00  4.9172407226044E-02 -2.5867651915734E-01
132  1.3100000000000E+00  4.1880411656164E-02 -2.1702903666682E-01
133  1.3200000000000E+00  3.4662133949727E-02 -1.7744407964420E-01
134  1.3300000000000E+00  2.7735991826587E-02 -1.4062187677495E-01
135  1.3400000000000E+00  2.1294859390151E-02 -1.0717860136736E-01
136  1.3500000000000E+00  1.5494938570957E-02 -7.7613122277851E-02
137  1.3600000000000E+00  1.0485054185447E-02 -5.2395124709110E-02
138  1.3700000000000E+00  6.3828705008435E-03 -3.1897018070260E-02
139  1.3800000000000E+00  3.2693918429814E-03 -1.6377747307138E-02
140  1.3900000000000E+00  1.1858743737552E-03 -5.9694145121013E-03
141  1.4000000000000E+00  1.5555374872689E-04 -7.8897264245606E-04
142  1.4100000000000E+00 -1.4999457567654E-05  7.6503731671481E-05
143  1.4200000000000E+00  3.5092472499625E-06 -1.7833165337894E-05
144  1.43 -0.  0.
145  1.44  0.  0.
146  1.45  0.  0.
147  1.46  0.  0.
148  1.47  0.  0.
149  1.48  0.  0.
150  1.49  0.  0.
151  1.50  0.  0.
152  1.51  0.  0.
153  1.52  0.  0.
154  1.53  0.  0.
155  1.54  0.  0.
156  1.55  0.  0.
157  1.56  0.  0.
158  1.57  0.  0.
159  1.58  0.  0.
160  1.59  0.  0.
161  1.60  0.  0.
162  1.61  0.  0.
163  1.62  0.  0.
164  1.63  0.  0.
165  1.64  0.  0.
166  1.65  0.  0.
167  1.66  0.  0.
168  1.67  0.  0.
169  1.68  0.  0.
170  1.69  0.  0.
171  1.70  0.  0.
172  1.71  0.  0.
173  1.72  0.  0.
174  1.73  0.  0.
175  1.74  0.  0.
176  1.75  0.  0.
177  1.76  0.  0.
178  1.77  0.  0.
179  1.78  0.  0.
180  1.79  0.  0.
181  1.80  0.  0.
182  1.81  0.  0.
183  1.82  0.  0.
184  1.83  0.  0.
185  1.84  0.  0.
186  1.85  0.  0.
187  1.86  0.  0.
188  1.87  0.  0.
189  1.88  0.  0.
190  1.89  0.  0.
191  1.90  0.  0.
192  1.91  0.  0.
193  1.92  0.  0.
194  1.93  0.  0.
195  1.94  0.  0.
196  1.95  0.  0.
197  1.96  0.  0.
198  1.97  0.  0.
199  1.98  0.  0.
200  1.99  0.  0.
201  2.00  0.  0.
202  2.01  0.  0.
203  2.02  0.  0.
204  2.03  0.  0.
205  2.04  0.  0.
206  2.05  0.  0.
207  2.06  0.  0.
208  2.07  0.  0.
209  2.08  0.  0.
210  2.09  0.  0.
211  2.10  0.  0.
212  2.11  0.  0.
213  2.12  0.  0.
214  2.13  0.  0.
215  2.14  0.  0.
216  2.15  0.  0.
217  2.16  0.  0.
218  2.17  0.  0.
219  2.18  0.  0.
220  2.19  0.  0.
221  2.20  0.  0.
222  2.21  0.  0.
223  2.22  0.  0.
224  2.23  0.  0.
225  2.24  0.  0.
226  2.25  0.  0.
227  2.26  0.  0.
228  2.27  0.  0.
229  2.28  0.  0.
230  2.29  0.  0.
231  2.30  0.  0.
232  2.31  0.  0.
233  2.32  0.  0.
234  2.33  0.  0.
235  2.34  0.  0.
236  2.35  0.  0.
237  2.36  0.  0.
238  2.37  0.  0.
239  2.38  0.  0.
240  2.39  0.  0.
241  2.40  0.  0.
242  2.41  0.  0.
243  2.42  0.  0.
244  2.43  0.  0.
245  2.44  0.  0.
246  2.45  0.  0.
247  2.46  0.  0.
248  2.47  0.  0.
249  2.48  0.  0.
250  2.49  0.  0.
251  2.50  0.  0.
252  2.51  0.  0.
253  2.52  0.  0.
254  2.53  0.  0.
255  2.54  0.  0.
256  2.55  0.  0.
257  2.56  0.  0.
258  2.57  0.  0.
259  2.58  0.  0.
260  2.59  0.  0.
261  2.60  0.  0.
262  2.61  0.  0.
263  2.62  0.  0.
264  2.63  0.  0.
265  2.64  0.  0.
266  2.65  0.  0.
267  2.66  0.  0.
268  2.67  0.  0.
269  2.68  0.  0.
270  2.69  0.  0.
271  2.70  0.  0.
272  2.71  0.  0.
273  2.72  0.  0.
274  2.73  0.  0.
275  2.74  0.  0.
276  2.75  0.  0.
277  2.76  0.  0.
278  2.77  0.  0.
279  2.78  0.  0.
280  2.79  0.  0.
281  2.80  0.  0.
282  2.81  0.  0.
283  2.82  0.  0.
284  2.83  0.  0.
285  2.84  0.  0.
286  2.85  0.  0.
287  2.86  0.  0.
288  2.87  0.  0.
289  2.88  0.  0.
290  2.89  0.  0.
291  2.90  0.  0.
292  2.91  0.  0.
293  2.92  0.  0.
294  2.93  0.  0.
295  2.94  0.  0.
296  2.95  0.  0.
297  2.96  0.  0.
298  2.97  0.  0.
299  2.98  0.  0.
300  2.99  0.  0.
301  3.00  0.  0.
302  3.01  0.  0.
303  3.02  0.  0.
304  3.03  0.  0.
305  3.04  0.  0.
306  3.05  0.  0.
307  3.06  0.  0.
308  3.07  0.  0.
309  3.08  0.  0.
310  3.09  0.  0.
311  3.10  0.  0.
312  3.11  0.  0.
313  3.12  0.  0.
314  3.13  0.  0.
315  3.14  0.  0.
316  3.15  0.  0.
317  3.16  0.  0.
318  3.17  0.  0.
319  3.18  0.  0.
320  3.19  0.  0.
321  3.20  0.  0.
322  3.21  0.  0.
323  3.22  0.  0.
324  3.23  0.  0.
325  3.24  0.  0.
326  3.25  0.  0.
327  3.26  0.  0.
328  3.27  0.  0.
329  3.28  0.  0.
330  3.29  0.  0.
331  3.30  0.  0.
332  3.31  0.  0.
333  3.32  0.  0.
334  3.33  0.  0.
335  3.34  0.  0.
336  3.35  0.  0.
337  3.36  0.  0.
338  3.37  0.  0.
339  3.38  0.  0.
340  3.39  0.  0.
341  3.40  0.  0.
342  3.41  0.  0.
343  3.42  0.  0.
344  3.43  0.  0.
345  3.44  0.  0.
346  3.45  0.  0.
347  3.46  0.  0.
348  3.47  0.  0.
349  3.48  0.  0.
350  3.49  0.  0.
351  3.50  0.  0.
352  3.51  0.  0.
353  3.52  0.  0.
354  3.53  0.  0.
355  3.54  0.  0.
356  3.55  0.  0.
357  3.56  0.  0.
358  3.57  0.  0.
359  3.58  0.  0.
360  3.59  0.  0.
361  3.60  0.  0.
362  3.61  0.  0.
363  3.62  0.  0.
364  3.63  0.  0.
365  3.64  0.  0.
366  3.65  0.  0.
367  3.66  0.  0.
368  3.67  0.  0.
369  3.68  0.  0.
370  3.69  0.  0.
371  3.70  0.  0.
372  3.71  0.  0.
373  3.72  0.  0.
374  3.73  0.  0.
375  3.74  0.  0.
376  3.75  0.  0.
377  3.76  0.  0.
378  3.77  0.  0.
379  3.78  0.  0.
380  3.79  0.  0.
381  3.80  0.  0.
382  3.81  0.  0.
383  3.82  0.  0.
384  3.83  0.  0.
385  3.84  0.  0.
386  3.85  0.  0.
387  3.86  0.  0.
388  3.87  0.  0.
389  3.88  0.  0.
390  3.89  0.  0.
391  3.90  0.  0.
392  3.91  0.  0.
393  3.92  0.  0.
394  3.93  0.  0.
395  3.94  0.  0.
396  3.95  0.  0.
397  3.96  0.  0.
398  3.97  0.  0.
399  3.98  0.  0.
400  3.99  0.  0.
401  4.00  0.  0.
402  4.01  0.  0.
403  4.02  0.  0.
404  4.03  0.  0.
405  4.04  0.  0.
406  4.05  0.  0.
407  4.06  0.  0.
408  4.07  0.  0.
409  4.08  0.  0.
410  4.09  0.  0.
411  4.10  0.  0.
412  4.11  0.  0.
413  4.12  0.  0.
414  4.13  0.  0.
415  4.14  0.  0.
416  4.15  0.  0.
417  4.16  0.  0.
418  4.17  0.  0.
419  4.18  0.  0.
420  4.19  0.  0.
421  4.20  0.  0.
422  4.21  0.  0.
423  4.22  0.  0.
424  4.23  0.  0.
425  4.24  0.  0.
426  4.25  0.  0.
427  4.26  0.  0.
428  4.27  0.  0.
429  4.28  0.  0.
430  4.29  0.  0.
431  4.30  0.  0.
432  4.31  0.  0.
433  4.32  0.  0.
434  4.33  0.  0.
435  4.34  0.  0.
436  4.35  0.  0.
437  4.36  0.  0.
438  4.37  0.  0.
439  4.38  0.  0.
440  4.39  0.  0.
441  4.40  0.  0.
442  4.41  0.  0.
443  4.42  0.  0.
444  4.43  0.  0.
445  4.44  0.  0.
446  4.45  0.  0.
447  4.46  0.  0.
448  4.47  0.  0.
449  4.48  0.  0.
450  4.49  0.  0.
451  4.50  0.  0.
452  4.51  0.  0.
453  4.52  0.  0.
454  4.53  0.  0.
455  4.54  0.  0.
456  4.55  0.  0.
457  4.56  0.  0.
458  4.57  0.  0.
459  4.58  0.  0.
460  4.59  0.  0.
461  4.60  0.  0.
462  4.61  0.  0.
463  4.62  0.  0.
464  4.63  0.  0.
465  4.64  0.  0.
466  4.65  0.  0.
467  4.66  0.  0.
468  4.67  0.  0.
469  4.68  0.  0.
470  4.69  0.  0.
471  4.70  0.  0.
472  4.71  0.  0.
473  4.72  0.  0.
474  4.73  0.  0.
475  4.74  0.  0.
476  4.75  0.  0.
477  4.76  0.  0.
478  4.77  0.  0.
479  4.78  0.  0.
480  4.79  0.  0.
481  4.80  0.  0.
482  4.81  0.  0.
483  4.82  0.  0.
484  4.83  0.  0.
485  4.84  0.  0.
486  4.85  0.  0.
487  4.86  0.  0.
488  4.87  0.  0.
489  4.88  0.  0.
490  4.89  0.  0.
491  4.90  0.  0.
492  4.91  0.  0.
493  4.92  0.  0.
494  4.93  0.  0.
495  4.94  0.  0.
496  4.95  0.  0.
497  4.96  0.  0.
498  4.97  0.  0.
499  4.98  0.  0.
500  4.99  0.  0.
501  5.00  0.  0.
502  5.01  0.  0.
503  5.02  0.  0.
504  5.03  0.  0.
505  5.04  0.  0.
506  5.05  0.  0.
507  5.06  0.  0.
508  5.07  0.  0.
509  5.08  0.  0.
510  5.09  0.  0.
511  5.10  0.  0.
512  5.11  0.  0.
513  5.12  0.  0.
514  5.13  0.  0.
515  5.14  0.  0.
516  5.15  0.  0.
517  5.16  0.  0.
518  5.17  0.  0.
519  5.18  0.  0.
520  5.19  0.  0.
521  5.20  0.  0.
522  5.21  0.  0.
523  5.22  0.  0.
524  5.23  0.  0.
525  5.24  0.  0.
526  5.25  0.  0.
527  5.26  0.  0.
528  5.27  0.  0.
529  5.28  0.  0.
530  5.29  0.  0.
531  5.30  0.  0.
532  5.31  0.  0.
533  5.32  0.  0.
534  5.33  0.  0.
535  5.34  0.  0.
536  5.35  0.  0.
537  5.36  0.  0.
538  5.37  0.  0.
539  5.38  0.  0.
540  5.39  0.  0.
541  5.40  0.  0.
542  5.41  0.  0.
543  5.42  0.  0.
544  5.43  0.  0.
545  5.44  0.  0.
546  5.45  0.  0.
547  5.46  0.  0.
548  5.47  0.  0.
549  5.48  0.  0.
550  5.49  0.  0.
551  5.50  0.  0.
552  5.51  0.  0.
553  5.52  0.  0.
554  5.53  0.  0.
555  5.54  0.  0.
556  5.55  0.  0.
557  5.56  0.  0.
558  5.57  0.  0.
559  5.58  0.  0.
560  5.59  0.  0.
561  5.60  0.  0.
562  5.61  0.  0.
563  5.62  0.  0.
564  5.63  0.  0.
565  5.64  0.  0.
566  5.65  0.  0.
567  5.66  0.  0.
568  5.67  0.  0.
569  5.68  0.  0.
570  5.69  0.  0.
571  5.70  0.  0.
572  5.71  0.  0.
573  5.72  0.  0.
574  5.73  0.  0.
575  5.74  0.  0.
576  5.75  0.  0.
577  5.76  0.  0.
578  5.77  0.  0.
579  5.78  0.  0.
580  5.79  0.  0.
581  5.80  0.  0.
582  5.81  0.  0.
583  5.82  0.  0.
584  5.83  0.  0.
585  5.84  0.  0.
586  5.85  0.  0.
587  5.86  0.  0.
588  5.87  0.  0.
589  5.88  0.  0.
590  5.89  0.  0.
591  5.90  0.  0.
592  5.91  0.  0.
593  5.92  0.  0.
594  5.93  0.  0.
595  5.94  0.  0.
596  5.95  0.  0.
597  5.96  0.  0.
598  5.97  0.  0.
599  5.98  0.  0.
600  5.99  0.  0.
1                         1.1550944953824E+01  1.9123329612597E+00
1  0.0000000000000E+00 -1.6836172178625E-09  4.4487550691918E-09
2  1.0000000000000E-02  1.4679342994641E-03 -4.3001721232079E-04
3  2.0000000000000E-02  5.8683596132234E-03 -1.7215553114120E-03
4  3.0000000000000E-02  1.3191110618316E-02 -3.8789622610423E-03
5  4.0000000000000E-02  2.3419137550301E-02 -6.9091159057585E-03
6  5.0000000000000E-02  3.6528348357605E-02 -1.0820880039348E-02
7  6.0000000000000E-02  5.2487394630325E-02 -1.5624361128677E-02
8  7.0000000000000E-02  7.1257408044187E-02 -2.1329983472676E-02
9  8.0000000000000E-02  9.2791695743961E-02 -2.7947405025018E-02
10  9.0000000000000E-02  1.1703540459923E-01 -3.5484300101805E-02
11  1.0000000000000E-01  1.4392516556665E-01 -4.3945038648752E-02
12  1.1000000000000E-01  1.7338873045894E-01 -5.3329294583577E-02
13  1.2000000000000E-01  2.0534461422850E-01 -6.3630617897930E-02
14  1.3000000000000E-01  2.3970175640391E-01 -7.4835006651367E-02
15  1.4000000000000E-01  2.7635921555785E-01 -8.6919515684528E-02
16  1.5000000000000E-01  3.1520591062802E-01 -9.9850938800878E-02
17  1.6000000000000E-01  3.5612042255594E-01 -1.1358460031280E-01
18  1.7000000000000E-01  3.9897086905763E-01 -1.2806329023074E-01
19  1.8000000000000E-01  4.4361486440373E-01 -1.4321637502004E-01
20  1.9000000000000E-01  4.8989957488202E-01 -1.5895911280227E-01
21  2.0000000000000E-01  5.3766187916192E-01 -1.7519219819113E-01
22  2.1000000000000E-01  5.8672864110637E-01 -1.9180155769754E-01
23  2.2000000000000E-01  6.3691710071077E-01 -2.0865841189534E-01
24  2.3000000000000E-01  6.8803538682711E-01 -2.2561961539870E-01
25  2.4000000000000E-01  7.3988315319176E-01 -2.4252828026622E-01
26  2.5000000000000E-01  7.9225233705810E-01 -2.5921468282063E-01
27  2.6000000000000E-01  8.4492803748399E-01 -2.7549744816870E-01
28  2.7000000000000E-01  8.9768950808054E-01 -2.9118500103786E-01
29  2.8000000000000E-01  9.5031125683950E-01 -3.0607726602807E-01
30  2.9000000000000E-01  1.0025642435623E+00 -3.1996759512260E-01
31  3.0000000000000E-01  1.0542171634579E+00 -3.3264489541689E-01
32  3.1000000000000E-01  1.1050378036988E+00 -3.4389592561441E-01
33  3.2000000000000E-01  1.1547944581582E+00 -3.5350772599342E-01
34  3.3000000000000E-01  1.2032573842340E+00 -3.6127014335406E-01
35  3.4000000000000E-01  1.2502002846213E+00 -3.6697840998075E-01
36  3.5000000000000E-01  1.2954017961445E+00 -3.7043573395834E-01
37  3.6000000000000E-01  1.3386469673311E+00 -3.7145585730349E-01
38  3.7000000000000E-01  1.3797287062971E+00 -3.6986553834197E-01
39  3.8000000000000E-01  1.4184491807396E+00 -3.6550691558689E-01
40  3.9000000000000E-01  1.4546211523793E+00 -3.5823971204397E-01
41  4.0000000000000E-01  1.4880692290705E+00 -3.4794324136440E-01
42  4.1000000000000E-01  1.5186310189691E+00 -3.3451818053915E-01
43  4.2000000000000E-01  1.5461581726146E+00 -3.1788807782453E-01
44  4.3000000000000E-01  1.5705173005006E+00 -2.9800056923249E-01
45  4.4000000000000E-01  1.5915907556540E+00 -2.7482828212342E-01
46  4.5000000000000E-01  1.6092772728830E+00 -2.4836941010335E-01
47  4.6000000000000E-01  1.6234924586354E+00 -2.1864794944129E-01
48  4.7000000000000E-01  1.6341691278009E+00 -1.8571359346655E-01
49  4.8000000000000E-01  1.6412574862377E+00 -1.4964128775498E-01
50  4.9000000000000E-01  1.6447251602612E+00 -1.1053045523797E-01
51  5.0000000000000E-01  1.6445570767505E+00 -6.8503906539774E-02
52  5.1000000000000E-01  1.6407551998613E+00 -2.3706456737698E-02
53  5.2000000000000E-01  1.6333381325264E+00  2.3696724776721E-02
54  5.3000000000000E-01  1.6223405929491E+00  7.3521999697103E-02
55  5.4000000000000E-01  1.6078127780877E+00  1.2556934549349E-01
56  5.5000000000000E-01  1.5898196276763E+00  1.7962459982247E-01
57  5.6000000000000E-01  1.5684400035774E+00  2.3546182228624E-01
58  5.7000000000000E-01  1.5437658002047E+00  2.9284572924610E-01
59  5.8000000000000E-01  1.5159010023617E+00  3.5153415639280E-01
60  5.9000000000000E-01  1.4849607071003E+00  4.1128050372192E-01
61  6.0000000000000E-01  1.4510701261168E+00  4.7183611846765E-01
62  6.1000000000000E-01  1.4143635847624E+00  5.3295257340161E-01
63  6.2000000000000E-01  1.3749835329693E+00  5.9438380067275E-01
64  6.3000000000000E-01  1.3330795822914E+00  6.5588804499944E-01
65  6.4000000000000E-01  1.2888075818659E+00  7.1722960445432E-01
66  6.5000000000000E-01  1.2423287444357E+00  7.7818033221801E-01
67  6.6000000000000E-01  1.1938088316809E+00  8.3852087841434E-01
68  6.7000000000000E-01  1.1434174060300E+00  8.9804165735768E-01
69  6.8000000000000E-01  1.0913271538994E+00  9.5654353211064E-01
70  6.9000000000000E-01  1.0377132830072E+00  1.0138382150272E+00
71  7.0000000000000E-01  9.8275299405840E-01  1.0697483897932E+00
72  7.1000000000000E-01  9.2662502478012E-01  1.1241075672241E+00
73  7.2000000000000E-01  8.6950926203107E-01  1.1767596935835E+00
74  7.3000000000000E-01  8.1158641559100E-01  1.2275585363023E+00
75  7.4000000000000E-01  7.5303774529201E-01  1.2763668775563E+00
76  7.5000000000000E-01  6.9404483144083E-01  1.3230555510770E+00
77  7.6000000000000E-01  6.3478937703949E-01  1.3675023616957E+00
78  7.7000000000000E-01  5.7545302918195E-01  1.4095909303536E+00
79  7.8000000000000E-01  5.1621720621600E-01  1.4492095095669E+00
80  7.9000000000000E-01  4.5726291684042E-01  1.4862498155364E+00
81  8.0000000000000E-01  3.9877055727129E-01  1.5206059232036E+00
82  8.1000000000000E-01  3.4091967296878E-01  1.5521732695480E+00
83  8.2000000000000E-01  2.8388867216459E-01  1.5808478082978E+00
84  8.3000000000000E-01  2.2785447956235E-01  1.6065253560152E+00
85  8.4000000000000E-01  1.7299212007896E-01  1.6291011652670E+00
86  8.5000000000000E-01  1.1947422432829E-01  1.6484697553788E+00
87  8.6000000000000E-01  6.7470449683051E-02  1.6645250251909E+00
88  8.7000000000000E-01  1.7146813144091E-02  1.6771606654011E+00
89  8.8000000000000E-01 -3.1335065151405E-02  1.6862708806467E+00
90  8.9000000000000E-01 -7.7818806196564E-02  1.6917514235711E+00
91  9.0000000000000E-01 -1.2215419972257E-01  1.6935009349348E+00
92  9.1000000000000E-01 -1.6419820783789E-01  1.6914225755240E+00
93  9.2000000000000E-01 -2.0381603455164E-01  1.6854259273676E+00
94  9.3000000000000E-01 -2.4088224830072E-01  1.6754291337880E+00
95  9.4000000000000E-01 -2.7528194203879E-01  1.6613612402580E+00
96  9.5000000000000E-01 -3.0691191311900E-01  1.6431646910945E+00
97  9.6000000000000E-01 -3.3568184317232E-01  1.6207979308613E+00
98  9.7000000000000E-01 -3.6151545650522E-01  1.5942380541292E+00
99  9.8000000000000E-01 -3.8435163426252E-01  1.5634834430918E+00
100  9.9000000000000E-01 -4.0414546076748E-01  1.5285563295763E+00
101  1.0000000000000E+00 -4.2086917809189E-01  1.4895052163195E+00
102  1.0100000000000E+00 -4.3451302504984E-01  1.4464070920589E+00
103  1.0200000000000E+00 -4.4508593746353E-01  1.3993693760739E+00
104  1.0300000000000E+00 -4.5261608771844E-01  1.3485315303024E+00
105  1.0400000000000E+00 -4.5715124330299E-01  1.2940662810408E+00
106  1.0500000000000E+00 -4.5875892619515E-01  1.2361803974734E+00
107  1.0600000000000E+00 -4.5752635757959E-01  1.1751149807706E+00
108  1.0700000000000E+00 -4.5356017542499E-01  1.1111452251710E+00
109  1.0800000000000E+00 -4.4698591585887E-01  1.0445796211645E+00
110  1.0900000000000E+00 -4.3794725299400E-01  9.7575858046689E-01
111  1.1000000000000E+00 -4.2660499582649E-01  9.0505247278386E-01
112  1.1100000000000E+00 -4.1313584494279E-01  8.3285907512123E-01
113  1.1200000000000E+00 -3.9773091600426E-01  7.5960044553219E-01
114  1.1300000000000E+00 -3.8059404118614E-01  6.8571924431777E-01
115  1.1400000000000E+00 -3.6193986391229E-01  6.1167453676771E-01
116  1.1500000000000E+00 -3.4199174619638E-01  5.3793712213685E-01
117  1.1600000000000E+00 -3.2097951165965E-01  4.6498444365752E-01
118  1.1700000000000E+00 -2.9913705069793E-01  3.9329514359335E-01
119  1.1800000000000E+00 -2.7669981730784E-01  3.2334333562596E-01
120  1.1900000000000E+00 -2.5390224962530E-01  2.5559267387682E-01
121  1.2000000000000E+00 -2.3097514827008E-01  1.9049030358747E-01
122  1.2100000000000E+00 -2.0814304804108E-01  1.2846078266416E-01
123  1.2200000000000E+00 -1.8562161935150E-01  6.9900065898552E-02
124  1.2300000000000E+00 -1.6361513599007E-01  1.5169644585340E-02
125  1.2400000000000E+00 -1.4231404534024E-01 -3.5409066544353E-02
126  1.2500000000000E+00 -1.2189267606604E-01 -8.1560005716141E-02
127  1.2600000000000E+00 -1.0250711650462E-01 -1.2305731874075E-01
128  1.2700000000000E+00 -8.4293294617487E-02 -1.5972971269274E-01
129  1.2800000000000E+00 -6.7365287196316E-02 -1.9146423756465E-01
130  1.2900000000000E+00 -5.1813882760280E-02 -2.1820943267259E-01
131  1.3000000000000E+00 -3.7705422677042E-02 -2.3997777025001E-01
132  1.3100000000000E+00 -2.5081108968655E-02 -2.5684671262018E-01
133  1.3200000000000E+00 -1.3958774392721E-02 -2.6895112951510E-01
134  1.3300000000000E+00 -4.3353989457718E-03 -2.7647389438544E-01
135  1.3400000000000E+00  3.8120290741991E-03 -2.7964331533655E-01
136  1.3500000000000E+00  1.0525580010569E-02 -2.7873065506349E-01
137  1.3600000000000E+00  1.5865174511216E-02 -2.7404695343386E-01
138  1.3700000000000E+00  1.9907114089467E-02 -2.6593918498994E-01
139  1.3800000000000E+00  2.2742370161137E-02 -2.5478579952879E-01
140  1.3900000000000E+00  2.4474656110897E-02 -2.4099170779549E-01
141  1.4000000000000E+00  2.5218310698774E-02 -2.2498278409054E-01
142  1.4100000000000E+00  2.5096024614151E-02 -2.0719996692123E-01
143  1.4200000000000E+00  2.4236444994196E-02 -1.8809304689078E-01
144  1.4300000000000E+00  2.2771695105267E-02 -1.6811423741388E-01
145  1.4400000000000E+00  2.0834848203647E-02 -1.4771162880679E-01
146  1.4500000000000E+00  1.8557399305219E-02 -1.2732263738570E-01
147  1.4600000000000E+00  1.6066733123017E-02 -1.0736746133063E-01
148  1.4700000000000E+00  1.3483829475416E-02 -8.8243085678450E-02
149  1.4800000000000E+00  1.0920016814199E-02 -7.0315263639451E-02
150  1.4900000000000E+00  8.4658261549715E-03 -5.3892743856928E-02
151  1.5000000000000E+00  6.2089434516847E-03 -3.9266168439168E-02
152  1.5100000000000E+00  4.2303783075097E-03 -2.6699659991615E-02
153  1.5200000000000E+00  2.5927389857306E-03 -1.6404415134132E-02
154  1.5300000000000E+00  1.3401304730541E-03 -8.5387904915754E-03
155  1.5400000000000E+00  4.9461456729356E-04 -3.1882284126423E-03
156  1.5500000000000E+00  7.1965074327377E-05 -4.7191364942672E-04
157  1.5600000000000E+00 -7.9542669943398E-06  5.2800258695685E-05
158  1.5700000000000E+00  2.4273074158910E-06 -1.5979693864622E-05
159  1.58 -0.  0.
160  1.59 -0.  0.
161  1.60  0.  0.
162  1.61  0.  0.
163  1.62  0.  0.
164  1.63  0.  0.
165  1.64  0.  0.
166  1.65  0.  0.
167  1.66  0.  0.
168  1.67  0.  0.
169  1.68  0.  0.
170  1.69  0.  0.
171  1.70  0.  0.
172  1.71  0.  0.
173  1.72  0.  0.
174  1.73  0.  0.
175  1.74  0.  0.
176  1.75  0.  0.
177  1.76  0.  0.
178  1.77  0.  0.
179  1.78  0.  0.
180  1.79  0.  0.
181  1.80  0.  0.
182  1.81  0.  0.
183  1.82  0.  0.
184  1.83  0.  0.
185  1.84  0.  0.
186  1.85  0.  0.
187  1.86  0.  0.
188  1.87  0.  0.
189  1.88  0.  0.
190  1.89  0.  0.
191  1.90  0.  0.
192  1.91  0.  0.
193  1.92  0.  0.
194  1.93  0.  0.
195  1.94  0.  0.
196  1.95  0.  0.
197  1.96  0.  0.
198  1.97  0.  0.
199  1.98  0.  0.
200  1.99  0.  0.
201  2.00  0.  0.
202  2.01  0.  0.
203  2.02  0.  0.
204  2.03  0.  0.
205  2.04  0.  0.
206  2.05  0.  0.
207  2.06  0.  0.
208  2.07  0.  0.
209  2.08  0.  0.
210  2.09  0.  0.
211  2.10  0.  0.
212  2.11  0.  0.
213  2.12  0.  0.
214  2.13  0.  0.
215  2.14  0.  0.
216  2.15  0.  0.
217  2.16  0.  0.
218  2.17  0.  0.
219  2.18  0.  0.
220  2.19  0.  0.
221  2.20  0.  0.
222  2.21  0.  0.
223  2.22  0.  0.
224  2.23  0.  0.
225  2.24  0.  0.
226  2.25  0.  0.
227  2.26  0.  0.
228  2.27  0.  0.
229  2.28  0.  0.
230  2.29  0.  0.
231  2.30  0.  0.
232  2.31  0.  0.
233  2.32  0.  0.
234  2.33  0.  0.