Og    ONCVPSP-4.0.1  r_core=   1.15362   1.15362   1.25440   1.35584
118.0000     58.0000      220826    zatom,zion,pspd
8      11   3     4   600     0    pspcod,pspxc,lmax,lloc,mmax,r2well
5.99000000  2.00000000  0.00000000    rchrg fchrg qchrg
4     4     4     3     0    nproj
1     1           extension_switch
0                         1.4639207465863E+01 -1.3658292813941E+01  1.7107545193280E+00 -8.9802476061847E-01
1  0.0000000000000E+00 -2.6270482300639E-07  7.0741819069298E-09 -2.8825852215614E-07  3.5526378923123E-06
2  1.0000000000000E-02  2.0186723481793E-01  8.7923185178800E-02  4.8304333963556E-05 -2.5270809934274E-01
3  2.0000000000000E-02  4.0107690524903E-01  1.7562453906548E-01 -7.0765750357421E-04 -4.9571558901108E-01
4  3.0000000000000E-02  5.9502296462098E-01  2.6288202866755E-01 -3.0386254436526E-03 -7.1975225787306E-01
5  4.0000000000000E-02  7.8120072918613E-01  3.4947326010817E-01 -7.6498685642411E-03 -9.1638816094848E-01
6  5.0000000000000E-02  9.5725345302614E-01  4.3517540248287E-01 -1.5152320936934E-02 -1.0784034353142E+00
7  6.0000000000000E-02  1.1210141805322E+00  5.1976523138872E-01 -2.6038135605169E-02 -1.2001005135681E+00
8  7.0000000000000E-02  1.2705416337462E+00  6.0301932314514E-01 -4.0661763472532E-02 -1.2775440159401E+00
9  8.0000000000000E-02  1.4041491545526E+00  6.8471442365111E-01 -5.9227375621218E-02 -1.3087171547751E+00
10  9.0000000000000E-02  1.5204260246716E+00  7.6462800761382E-01 -8.1783117398023E-02 -1.2935875817875E+00
11  1.0000000000000E-01  1.6182508146066E+00  8.4253903491564E-01 -1.0822232819690E-01 -1.2340800453475E+00
12  1.1000000000000E-01  1.6967967499487E+00  9.1822890157077E-01 -1.3829150123316E-01 -1.1339577815118E+00
13  1.2000000000000E-01  1.7555294131644E+00  9.9148257348511E-01 -1.7160441204694E-01 -9.9861901205519E-01
14  1.3000000000000E-01  1.7941974051201E+00  1.0620898824926E+00 -2.0766153152193E-01 -8.3481904459671E-01
15  1.4000000000000E-01  1.8128168583360E+00  1.1298469562916E+00 -2.4587357569697E-01 -6.5033205953170E-01
16  1.5000000000000E-01  1.8116509106126E+00  1.1945577472965E+00 -2.8558784470787E-01 -4.5356954851154E-01
17  1.6000000000000E-01  1.7911854032059E+00  1.2560356203418E+00 -3.2611587760561E-01 -2.5317439755188E-01
18  1.7000000000000E-01  1.7521021553571E+00  1.3141049558453E+00 -3.6676090526838E-01 -5.7610685512144E-02
19  1.8000000000000E-01  1.6952511834566E+00  1.3686027235845E+00 -4.0684362255542E-01  1.2523065592138E-01
20  1.9000000000000E-01  1.6216231789034E+00  1.4193799827159E+00 -4.4572492107088E-01  2.8839110263258E-01
21  2.0000000000000E-01  1.5323234379512E+00  1.4663032660113E+00 -4.8282441886581E-01  4.2615138306673E-01
22  2.1000000000000E-01  1.4285482570924E+00  1.5092558103830E+00 -5.1763388245493E-01  5.3427131186733E-01
23  2.2000000000000E-01  1.3115645794414E+00  1.5481386013879E+00 -5.4972494549649E-01  6.1015147370264E-01
24  2.3000000000000E-01  1.1826934142351E+00  1.5828712062671E+00 -5.7875087044599E-01  6.5290961842208E-01
25  2.4000000000000E-01  1.0432972678547E+00  1.6133923778499E+00 -6.0444245562635E-01  6.6336896772041E-01
26  2.5000000000000E-01  8.9477153653850E-01  1.6396604199531E+00 -6.2659854080503E-01  6.4396009274406E-01
27  2.6000000000000E-01  7.3853953424163E-01  1.6616533133389E+00 -6.4507189003794E-01  5.9854237637182E-01
28  2.7000000000000E-01  5.7605057919693E-01  1.6793686094643E+00 -6.5975151303105E-01  5.3215510411436E-01
29  2.8000000000000E-01  4.0878035348004E-01  1.6928231067853E+00 -6.7054270958286E-01  4.5071173091049E-01
30  2.9000000000000E-01  2.3823259281450E-01  1.7020523309214E+00 -6.7734627298109E-01  3.6065367223075E-01
31  3.0000000000000E-01  6.5941067693623E-02  1.7071098452707E+00 -6.8003835850461E-01  2.6858192685554E-01
32  3.1000000000000E-01 -1.0652921300563E-01  1.7080664224567E+00 -6.7845250779964E-01  1.8088585891866E-01
33  3.2000000000000E-01 -2.7758260661738E-01  1.7050091091580E+00 -6.7236521883117E-01  1.0338849899229E-01
34  3.3000000000000E-01 -4.4559617603176E-01  1.6980402173554E+00 -6.6148626904701E-01  4.1026769551165E-02
35  3.4000000000000E-01 -6.0892652571600E-01  1.6872762738658E+00 -6.4545474544047E-01 -2.4168498776924E-03
36  3.5000000000000E-01 -7.6592068021114E-01  1.6728469573177E+00 -6.2384142251180E-01 -2.4517429286722E-02
37  3.6000000000000E-01 -9.1493129504508E-01  1.6548940476641E+00 -5.9615777413560E-01 -2.4335100459394E-02
38  3.7000000000000E-01 -1.0543362084659E+00  1.6335704081687E+00 -5.6187152697676E-01 -2.4605509389756E-03
39  3.8000000000000E-01 -1.1825620507031E+00  1.6090390138597E+00 -5.2042828170300E-01  3.9023664864399E-02
40  3.9000000000000E-01 -1.2981113418292E+00  1.5814720340559E+00 -4.7127836457003E-01  9.6663803288430E-02
41  4.0000000000000E-01 -1.3995922457196E+00  1.5510499701168E+00 -4.1390774597189E-01  1.6583116812513E-01
42  4.1000000000000E-01 -1.4857499210561E+00  1.5179608433934E+00 -3.4787159240197E-01  2.4098358027968E-01
43  4.2000000000000E-01 -1.5554982338778E+00  1.4823994228257E+00 -2.7282881927367E-01  3.1597839474053E-01
44  4.3000000000000E-01 -1.6079504803733E+00  1.4445664770434E+00 -1.8857589582200E-01  3.8442072662739E-01
45  4.4000000000000E-01 -1.6424477207945E+00  1.4046680324429E+00 -9.5078127145412E-02  4.4002873600603E-01
46  4.5000000000000E-01 -1.6585833493647E+00  1.3629146167180E+00  7.5032951282810E-03  4.7699693966323E-01
47  4.6000000000000E-01 -1.6562226208676E+00  1.3195204668457E+00  1.1879002547885E-01  4.9033860952782E-01
48  4.7000000000000E-01 -1.6355160184572E+00  1.2747026815849E+00  2.3817239285364E-01  4.7618937435427E-01
49  4.8000000000000E-01 -1.5969055717075E+00  1.2286803011111E+00  3.6480332650464E-01  4.3205610682794E-01
50  4.9000000000000E-01 -1.5411235083633E+00  1.1816733003343E+00  4.9760101484928E-01  3.5699794931946E-01
51  5.0000000000000E-01 -1.4691829343068E+00  1.1339014875425E+00  6.3526052984612E-01  2.5172976425049E-01
52  5.1000000000000E-01 -1.3823605685481E+00  1.0855833060112E+00  7.7627423023887E-01  1.1864221233820E-01
53  5.2000000000000E-01 -1.2821718970369E+00  1.0369345427955E+00  9.1896034352324E-01 -3.8263137192848E-02
54  5.3000000000000E-01 -1.1703394338938E+00  9.8816695574943E-01  1.0614987401536E+00 -2.1352099058542E-01
55  5.4000000000000E-01 -1.0487550749673E+00  9.3948683650340E-01  1.2019725744740E+00 -4.0042501210891E-01
56  5.5000000000000E-01 -9.1943778156536E-01  8.9109353334587E-01  1.3384141928121E+00 -5.9131544409200E-01
57  5.6000000000000E-01 -7.8448802913403E-01  8.4317796333256E-01  1.4688535143507E+00 -7.7791788260851E-01
58  5.7000000000000E-01 -6.4604058680119E-01  7.9592114720422E-01  1.5913669848147E+00 -9.5171691077966E-01
59  5.8000000000000E-01 -5.0621725272667E-01  7.4949280357416E-01  1.7041251919079E+00 -1.1043466022271E+00
60  5.9000000000000E-01 -3.6708115447969E-01  7.0405004017325E-01  1.8054373149829E+00 -1.2279791238548E+00
61  6.0000000000000E-01 -2.3059413447788E-01  6.5973617960689E-01  1.8937907546688E+00 -1.3156928219635E+00
62  6.1000000000000E-01 -9.8578582916591E-02  6.1667975506104E-01  1.9678845413640E+00 -1.3618022527118E+00
63  6.2000000000000E-01  2.7315136822248E-02  5.7499370775033E-01  2.0266554405269E+00 -1.3621345539327E+00
64  6.3000000000000E-01  1.4563479096259E-01  5.3477481276781E-01  2.0692960399649E+00 -1.3142392440128E+00
65  6.4000000000000E-01  2.5514532687348E-01  4.9610335358144E-01  2.0952644996426E+00 -1.2175218310002E+00
66  6.5000000000000E-01  3.5484061230734E-01  4.5904305799800E-01  2.1042860462701E+00 -1.0732953482204E+00
67  6.6000000000000E-01  4.4394792177092E-01  4.2364130029978E-01  2.0963466812184E+00 -8.8474790780189E-01
68  6.7000000000000E-01  5.2192553568652E-01  3.8992956580465E-01  2.0716799202367E+00 -6.5682837767968E-01
69  6.8000000000000E-01  5.8845409457556E-01  3.5792416567315E-01  2.0307476782340E+00 -3.9605613803278E-01
70  6.9000000000000E-01  6.4342258390704E-01  3.2762718175159E-01  1.9742166365026E+00 -1.1026436933082E-01
71  7.0000000000000E-01  6.8691000445189E-01  2.9902761394283E-01  1.9029315716808E+00  1.9171070398530E-01
72  7.1000000000000E-01  7.1916390010848E-01  2.7210269634411E-01  1.8178871787502E+00  5.0037988189798E-01
73  7.2000000000000E-01  7.4057696581917E-01  2.4681934344313E-01  1.7201998827883E+00  8.0597409582550E-01
74  7.3000000000000E-01  7.5166294175753E-01  2.2313568421423E-01  1.6110810096322E+00  1.0988235676559E+00
75  7.4000000000000E-01  7.5303291951458E-01  2.0100264013250E-01  1.4918124826798E+00  1.3697261667267E+00
76  7.5000000000000E-01  7.4537304815649E-01  1.8036550297404E-01  1.3637259448881E+00  1.6102890615765E+00
77  7.6000000000000E-01  7.2942444248247E-01  1.6116546977057E-01  1.2281858885828E+00  1.8132294637158E+00
78  7.7000000000000E-01  7.0596587484002E-01  1.4334109533606E-01  1.0865770307468E+00  1.9726226038027E+00
79  7.8000000000000E-01  6.7579958951784E-01  1.2682962721581E-01  9.4029581949084E-01  2.0840879287093E+00
80  7.9000000000000E-01  6.3974033007094E-01  1.1156819350126E-01  7.9074562032774E-01  2.1449077003368E+00
81  8.0000000000000E-01  5.9860743014934E-01  9.7494820436704E-02  6.3933482984311E-01  2.1540755383141E+00
82  8.1000000000000E-01  5.5321960189134E-01  8.4549263816772E-02  4.8747691841491E-01  2.1122757999774E+00
83  8.2000000000000E-01  5.0439187555678E-01  7.2673645518884E-02  3.3659122868690E-01  2.0217978583195E+00
84  8.3000000000000E-01  4.5293401033027E-01  6.1812893815009E-02  1.8810326431111E-01  1.8863921628588E+00
85  8.4000000000000E-01  3.9964961671936E-01  5.1914993058296E-02  4.3443200946601E-02  1.7110773136128E+00
86  8.5000000000000E-01  3.4533520996588E-01  4.2931054666547E-02 -9.5958559766440E-02  1.5019091383294E+00
87  8.6000000000000E-01  2.9077845205154E-01  3.4815226790636E-02 -2.2867979640574E-01  1.2657238666687E+00
88  8.7000000000000E-01  2.3675493428520E-01  2.7524464474969E-02 -3.5331958291169E-01  1.0098679086966E+00
89  8.8000000000000E-01  1.8402299675249E-01  2.1018185358917E-02 -4.6851654281567E-01  7.4192647430165E-01
90  8.9000000000000E-01  1.3331626569594E-01  1.5257837961919E-02 -5.7297230785838E-01  4.6946235769933E-01
91  9.0000000000000E-01  8.5333803303067E-02  1.0206410330038E-02 -6.6547985642527E-01  1.9977473360585E-01
92  9.1000000000000E-01  4.0727992754378E-02  5.8279063451220E-03 -7.4495601534965E-01 -6.0314125681135E-02
93  9.2000000000000E-01  9.0510109000464E-05  2.0868154082867E-03 -8.1047703840993E-01 -3.0463857321344E-01
94  9.3000000000000E-01 -3.6063051050190E-02 -1.0524013493517E-03 -8.6131584918022E-01 -5.2783257304389E-01
95  9.4000000000000E-01 -6.7309150272645E-02 -3.6257885255048E-03 -8.9697927558950E-01 -7.2543527825660E-01
96  9.5000000000000E-01 -9.3331968939149E-02 -5.6703217108169E-03 -9.1724342614706E-01 -8.9396093962606E-01
97  9.6000000000000E-01 -1.1393778512620E-01 -7.2242690054806E-03 -9.2218527640765E-01 -1.0309370608107E+00
98  9.7000000000000E-01 -1.2906702591666E-01 -8.3274817066359E-03 -9.1220855691642E-01 -1.1349165499922E+00
99  9.8000000000000E-01 -1.3880299309201E-01 -9.0216115049327E-03 -8.8806216283693E-01 -1.2054710177793E+00
100  9.9000000000000E-01 -1.4337634489196E-01 -9.3502557529410E-03 -8.5084953955706E-01 -1.2431732869027E+00
101  1.0000000000000E+00 -1.4316455200969E-01 -9.3590354732307E-03 -8.0202778184111E-01 -1.2495774120096E+00
102  1.0100000000000E+00 -1.3868571924340E-01 -9.0956122726166E-03 -7.4339548138500E-01 -1.2272039773534E+00
103  1.0200000000000E+00 -1.3057880152455E-01 -8.6090348896455E-03 -6.7703217780379E-01 -1.1793979373985E+00
104  1.0300000000000E+00 -1.1956139845702E-01 -7.9475473160035E-03 -6.0514483176757E-01 -1.1098554458569E+00
105  1.0400000000000E+00 -1.0639921189503E-01 -7.1574376608368E-03 -5.2998131522457E-01 -1.0223913262800E+00
106  1.0500000000000E+00 -9.1880654395864E-02 -6.2825618339206E-03 -4.5377965112421E-01 -9.2087412437077E-01
107  1.0600000000000E+00 -7.6788363162909E-02 -5.3638876050773E-03 -3.7871188024360E-01 -8.0918314404650E-01
108  1.0700000000000E+00 -6.1868552491996E-02 -4.4390670268133E-03 -3.0682426266194E-01 -6.9118651778319E-01
109  1.0800000000000E+00 -4.7799366380504E-02 -3.5420475823115E-03 -2.3997603408535E-01 -5.7073846679047E-01
110  1.0900000000000E+00 -3.5159509315746E-02 -2.7027304957812E-03 -1.7977913414709E-01 -4.5169286228983E-01
111  1.1000000000000E+00 -2.4349000558956E-02 -1.9473423612574E-03 -1.2746032105877E-01 -3.3817205738503E-01
112  1.1100000000000E+00 -1.5324127610125E-02 -1.3008497379242E-03 -8.3412588698407E-02 -2.3576266978631E-01
113  1.1200000000000E+00 -8.3746504871254E-03 -7.7665531891005E-04 -4.8469222188570E-02 -1.4763400380832E-01
114  1.1300000000000E+00 -3.6463643586898E-03 -3.8356001817780E-04 -2.3130874301699E-02 -7.6842499561427E-02
115  1.1400000000000E+00 -1.0086813875377E-03 -1.2701320648656E-04 -7.3418680195834E-03 -2.6944020189281E-02
116  1.1500000000000E+00 -6.1983029764274E-05 -1.0328849234168E-05 -5.6558633082053E-04 -2.3367462912462E-03
117  1.1600000000000E+00  1.2553009045251E-06  2.5799015794272E-07  1.3680871290726E-05  6.0409139693177E-05
118  1.1700000000000E+00  5.3573837106787E-07  7.9602502320636E-08  4.4527606197594E-06  1.7571614254044E-05
119  1.18 -0.  0. -0.  0.
120  1.19  0.  0.  0.  0.
121  1.20  0.  0.  0.  0.
122  1.21  0.  0.  0.  0.
123  1.22  0.  0.  0.  0.
124  1.23  0.  0.  0.  0.
125  1.24  0.  0.  0.  0.
126  1.25  0.  0.  0.  0.
127  1.26  0.  0.  0.  0.
128  1.27  0.  0.  0.  0.
129  1.28  0.  0.  0.  0.
130  1.29  0.  0.  0.  0.
131  1.30  0.  0.  0.  0.
132  1.31  0.  0.  0.  0.
133  1.32  0.  0.  0.  0.
134  1.33  0.  0.  0.  0.
135  1.34  0.  0.  0.  0.
136  1.35  0.  0.  0.  0.
137  1.36  0.  0.  0.  0.
138  1.37  0.  0.  0.  0.
139  1.38  0.  0.  0.  0.
140  1.39  0.  0.  0.  0.
141  1.40  0.  0.  0.  0.
142  1.41  0.  0.  0.  0.
143  1.42  0.  0.  0.  0.
144  1.43  0.  0.  0.  0.
145  1.44  0.  0.  0.  0.
146  1.45  0.  0.  0.  0.
147  1.46  0.  0.  0.  0.
148  1.47  0.  0.  0.  0.
149  1.48  0.  0.  0.  0.
150  1.49  0.  0.  0.  0.
151  1.50  0.  0.  0.  0.
152  1.51  0.  0.  0.  0.
153  1.52  0.  0.  0.  0.
154  1.53  0.  0.  0.  0.
155  1.54  0.  0.  0.  0.
156  1.55  0.  0.  0.  0.
157  1.56  0.  0.  0.  0.
158  1.57  0.  0.  0.  0.
159  1.58  0.  0.  0.  0.
160  1.59  0.  0.  0.  0.
161  1.60  0.  0.  0.  0.
162  1.61  0.  0.  0.  0.
163  1.62  0.  0.  0.  0.
164  1.63  0.  0.  0.  0.
165  1.64  0.  0.  0.  0.
166  1.65  0.  0.  0.  0.
167  1.66  0.  0.  0.  0.
168  1.67  0.  0.  0.  0.
169  1.68  0.  0.  0.  0.
170  1.69  0.  0.  0.  0.
171  1.70  0.  0.  0.  0.
172  1.71  0.  0.  0.  0.
173  1.72  0.  0.  0.  0.
174  1.73  0.  0.  0.  0.
175  1.74  0.  0.  0.  0.
176  1.75  0.  0.  0.  0.
177  1.76  0.  0.  0.  0.
178  1.77  0.  0.  0.  0.
179  1.78  0.  0.  0.  0.
180  1.79  0.  0.  0.  0.
181  1.80  0.  0.  0.  0.
182  1.81  0.  0.  0.  0.
183  1.82  0.  0.  0.  0.
184  1.83  0.  0.  0.  0.
185  1.84  0.  0.  0.  0.
186  1.85  0.  0.  0.  0.
187  1.86  0.  0.  0.  0.
188  1.87  0.  0.  0.  0.
189  1.88  0.  0.  0.  0.
190  1.89  0.  0.  0.  0.
191  1.90  0.  0.  0.  0.
192  1.91  0.  0.  0.  0.
193  1.92  0.  0.  0.  0.
194  1.93  0.  0.  0.  0.
195  1.94  0.  0.  0.  0.
196  1.95  0.  0.  0.  0.
197  1.96  0.  0.  0.  0.
198  1.97  0.  0.  0.  0.
199  1.98  0.  0.  0.  0.
200  1.99  0.  0.  0.  0.
201  2.00  0.  0.  0.  0.
202  2.01  0.  0.  0.  0.
203  2.02  0.  0.  0.  0.
204  2.03  0.  0.  0.  0.
205  2.04  0.  0.  0.  0.
206  2.05  0.  0.  0.  0.
207  2.06  0.  0.  0.  0.
208  2.07  0.  0.  0.  0.
209  2.08  0.  0.  0.  0.
210  2.09  0.  0.  0.  0.
211  2.10  0.  0.  0.  0.
212  2.11  0.  0.  0.  0.
213  2.12  0.  0.  0.  0.
214  2.13  0.  0.  0.  0.
215  2.14  0.  0.  0.  0.
216  2.15  0.  0.  0.  0.
217  2.16  0.  0.  0.  0.
218  2.17  0.  0.  0.  0.
219  2.18  0.  0.  0.  0.
220  2.19  0.  0.  0.  0.
221  2.20  0.  0.  0.  0.
222  2.21  0.  0.  0.  0.
223  2.22  0.  0.  0.  0.
224  2.23  0.  0.  0.  0.
225  2.24  0.  0.  0.  0.
226  2.25  0.  0.  0.  0.
227  2.26  0.  0.  0.  0.
228  2.27  0.  0.  0.  0.
229  2.28  0.  0.  0.  0.
230  2.29  0.  0.  0.  0.
231  2.30  0.  0.  0.  0.
232  2.31  0.  0.  0.  0.
233  2.32  0.  0.  0.  0.
234  2.33  0.  0.  0.  0.
235  2.34  0.  0.  0.  0.
236  2.35  0.  0.  0.  0.
237  2.36  0.  0.  0.  0.
238  2.37  0.  0.  0.  0.
239  2.38  0.  0.  0.  0.
240  2.39  0.  0.  0.  0.
241  2.40  0.  0.  0.  0.
242  2.41  0.  0.  0.  0.
243  2.42  0.  0.  0.  0.
244  2.43  0.  0.  0.  0.
245  2.44  0.  0.  0.  0.
246  2.45  0.  0.  0.  0.
247  2.46  0.  0.  0.  0.
248  2.47  0.  0.  0.  0.
249  2.48  0.  0.  0.  0.
250  2.49  0.  0.  0.  0.
251  2.50  0.  0.  0.  0.
252  2.51  0.  0.  0.  0.
253  2.52  0.  0.  0.  0.
254  2.53  0.  0.  0.  0.
255  2.54  0.  0.  0.  0.
256  2.55  0.  0.  0.  0.
257  2.56  0.  0.  0.  0.
258  2.57  0.  0.  0.  0.
259  2.58  0.  0.  0.  0.
260  2.59  0.  0.  0.  0.
261  2.60  0.  0.  0.  0.
262  2.61  0.  0.  0.  0.
263  2.62  0.  0.  0.  0.
264  2.63  0.  0.  0.  0.
265  2.64  0.  0.  0.  0.
266  2.65  0.  0.  0.  0.
267  2.66  0.  0.  0.  0.
268  2.67  0.  0.  0.  0.
269  2.68  0.  0.  0.  0.
270  2.69  0.  0.  0.  0.
271  2.70  0.  0.  0.  0.
272  2.71  0.  0.  0.  0.
273  2.72  0.  0.  0.  0.
274  2.73  0.  0.  0.  0.
275  2.74  0.  0.  0.  0.
276  2.75  0.  0.  0.  0.
277  2.76  0.  0.  0.  0.
278  2.77  0.  0.  0.  0.
279  2.78  0.  0.  0.  0.
280  2.79  0.  0.  0.  0.
281  2.80  0.  0.  0.  0.
282  2.81  0.  0.  0.  0.
283  2.82  0.  0.  0.  0.
284  2.83  0.  0.  0.  0.
285  2.84  0.  0.  0.  0.
286  2.85  0.  0.  0.  0.
287  2.86  0.  0.  0.  0.
288  2.87  0.  0.  0.  0.
289  2.88  0.  0.  0.  0.
290  2.89  0.  0.  0.  0.
291  2.90  0.  0.  0.  0.
292  2.91  0.  0.  0.  0.
293  2.92  0.  0.  0.  0.
294  2.93  0.  0.  0.  0.
295  2.94  0.  0.  0.  0.
296  2.95  0.  0.  0.  0.
297  2.96  0.  0.  0.  0.
298  2.97  0.  0.  0.  0.
299  2.98  0.  0.  0.  0.
300  2.99  0.  0.  0.  0.
301  3.00  0.  0.  0.  0.
302  3.01  0.  0.  0.  0.
303  3.02  0.  0.  0.  0.
304  3.03  0.  0.  0.  0.
305  3.04  0.  0.  0.  0.
306  3.05  0.  0.  0.  0.
307  3.06  0.  0.  0.  0.
308  3.07  0.  0.  0.  0.
309  3.08  0.  0.  0.  0.
310  3.09  0.  0.  0.  0.
311  3.10  0.  0.  0.  0.
312  3.11  0.  0.  0.  0.
313  3.12  0.  0.  0.  0.
314  3.13  0.  0.  0.  0.
315  3.14  0.  0.  0.  0.
316  3.15  0.  0.  0.  0.
317  3.16  0.  0.  0.  0.
318  3.17  0.  0.  0.  0.
319  3.18  0.  0.  0.  0.
320  3.19  0.  0.  0.  0.
321  3.20  0.  0.  0.  0.
322  3.21  0.  0.  0.  0.
323  3.22  0.  0.  0.  0.
324  3.23  0.  0.  0.  0.
325  3.24  0.  0.  0.  0.
326  3.25  0.  0.  0.  0.
327  3.26  0.  0.  0.  0.
328  3.27  0.  0.  0.  0.
329  3.28  0.  0.  0.  0.
330  3.29  0.  0.  0.  0.
331  3.30  0.  0.  0.  0.
332  3.31  0.  0.  0.  0.
333  3.32  0.  0.  0.  0.
334  3.33  0.  0.  0.  0.
335  3.34  0.  0.  0.  0.
336  3.35  0.  0.  0.  0.
337  3.36  0.  0.  0.  0.
338  3.37  0.  0.  0.  0.
339  3.38  0.  0.  0.  0.
340  3.39  0.  0.  0.  0.
341  3.40  0.  0.  0.  0.
342  3.41  0.  0.  0.  0.
343  3.42  0.  0.  0.  0.
344  3.43  0.  0.  0.  0.
345  3.44  0.  0.  0.  0.
346  3.45  0.  0.  0.  0.
347  3.46  0.  0.  0.  0.
348  3.47  0.  0.  0.  0.
349  3.48  0.  0.  0.  0.
350  3.49  0.  0.  0.  0.
351  3.50  0.  0.  0.  0.
352  3.51  0.  0.  0.  0.
353  3.52  0.  0.  0.  0.
354  3.53  0.  0.  0.  0.
355  3.54  0.  0.  0.  0.
356  3.55  0.  0.  0.  0.
357  3.56  0.  0.  0.  0.
358  3.57  0.  0.  0.  0.
359  3.58  0.  0.  0.  0.
360  3.59  0.  0.  0.  0.
361  3.60  0.  0.  0.  0.
362  3.61  0.  0.  0.  0.
363  3.62  0.  0.  0.  0.
364  3.63  0.  0.  0.  0.
365  3.64  0.  0.  0.  0.
366  3.65  0.  0.  0.  0.
367  3.66  0.  0.  0.  0.
368  3.67  0.  0.  0.  0.
369  3.68  0.  0.  0.  0.
370  3.69  0.  0.  0.  0.
371  3.70  0.  0.  0.  0.
372  3.71  0.  0.  0.  0.
373  3.72  0.  0.  0.  0.
374  3.73  0.  0.  0.  0.
375  3.74  0.  0.  0.  0.
376  3.75  0.  0.  0.  0.
377  3.76  0.  0.  0.  0.
378  3.77  0.  0.  0.  0.
379  3.78  0.  0.  0.  0.
380  3.79  0.  0.  0.  0.
381  3.80  0.  0.  0.  0.
382  3.81  0.  0.  0.  0.
383  3.82  0.  0.  0.  0.
384  3.83  0.  0.  0.  0.
385  3.84  0.  0.  0.  0.
386  3.85  0.  0.  0.  0.
387  3.86  0.  0.  0.  0.
388  3.87  0.  0.  0.  0.
389  3.88  0.  0.  0.  0.
390  3.89  0.  0.  0.  0.
391  3.90  0.  0.  0.  0.
392  3.91  0.  0.  0.  0.
393  3.92  0.  0.  0.  0.
394  3.93  0.  0.  0.  0.
395  3.94  0.  0.  0.  0.
396  3.95  0.  0.  0.  0.
397  3.96  0.  0.  0.  0.
398  3.97  0.  0.  0.  0.
399  3.98  0.  0.  0.  0.
400  3.99  0.  0.  0.  0.
401  4.00  0.  0.  0.  0.
402  4.01  0.  0.  0.  0.
403  4.02  0.  0.  0.  0.
404  4.03  0.  0.  0.  0.
405  4.04  0.  0.  0.  0.
406  4.05  0.  0.  0.  0.
407  4.06  0.  0.  0.  0.
408  4.07  0.  0.  0.  0.
409  4.08  0.  0.  0.  0.
410  4.09  0.  0.  0.  0.
411  4.10  0.  0.  0.  0.
412  4.11  0.  0.  0.  0.
413  4.12  0.  0.  0.  0.
414  4.13  0.  0.  0.  0.
415  4.14  0.  0.  0.  0.
416  4.15  0.  0.  0.  0.
417  4.16  0.  0.  0.  0.
418  4.17  0.  0.  0.  0.
419  4.18  0.  0.  0.  0.
420  4.19  0.  0.  0.  0.
421  4.20  0.  0.  0.  0.
422  4.21  0.  0.  0.  0.
423  4.22  0.  0.  0.  0.
424  4.23  0.  0.  0.  0.
425  4.24  0.  0.  0.  0.
426  4.25  0.  0.  0.  0.
427  4.26  0.  0.  0.  0.
428  4.27  0.  0.  0.  0.
429  4.28  0.  0.  0.  0.
430  4.29  0.  0.  0.  0.
431  4.30  0.  0.  0.  0.
432  4.31  0.  0.  0.  0.
433  4.32  0.  0.  0.  0.
434  4.33  0.  0.  0.  0.
435  4.34  0.  0.  0.  0.
436  4.35  0.  0.  0.  0.
437  4.36  0.  0.  0.  0.
438  4.37  0.  0.  0.  0.
439  4.38  0.  0.  0.  0.
440  4.39  0.  0.  0.  0.
441  4.40  0.  0.  0.  0.
442  4.41  0.  0.  0.  0.
443  4.42  0.  0.  0.  0.
444  4.43  0.  0.  0.  0.
445  4.44  0.  0.  0.  0.
446  4.45  0.  0.  0.  0.
447  4.46  0.  0.  0.  0.
448  4.47  0.  0.  0.  0.
449  4.48  0.  0.  0.  0.
450  4.49  0.  0.  0.  0.
451  4.50  0.  0.  0.  0.
452  4.51  0.  0.  0.  0.
453  4.52  0.  0.  0.  0.
454  4.53  0.  0.  0.  0.
455  4.54  0.  0.  0.  0.
456  4.55  0.  0.  0.  0.
457  4.56  0.  0.  0.  0.
458  4.57  0.  0.  0.  0.
459  4.58  0.  0.  0.  0.
460  4.59  0.  0.  0.  0.
461  4.60  0.  0.  0.  0.
462  4.61  0.  0.  0.  0.
463  4.62  0.  0.  0.  0.
464  4.63  0.  0.  0.  0.
465  4.64  0.  0.  0.  0.
466  4.65  0.  0.  0.  0.
467  4.66  0.  0.  0.  0.
468  4.67  0.  0.  0.  0.
469  4.68  0.  0.  0.  0.
470  4.69  0.  0.  0.  0.
471  4.70  0.  0.  0.  0.
472  4.71  0.  0.  0.  0.
473  4.72  0.  0.  0.  0.
474  4.73  0.  0.  0.  0.
475  4.74  0.  0.  0.  0.
476  4.75  0.  0.  0.  0.
477  4.76  0.  0.  0.  0.
478  4.77  0.  0.  0.  0.
479  4.78  0.  0.  0.  0.
480  4.79  0.  0.  0.  0.
481  4.80  0.  0.  0.  0.
482  4.81  0.  0.  0.  0.
483  4.82  0.  0.  0.  0.
484  4.83  0.  0.  0.  0.
485  4.84  0.  0.  0.  0.
486  4.85  0.  0.  0.  0.
487  4.86  0.  0.  0.  0.
488  4.87  0.  0.  0.  0.
489  4.88  0.  0.  0.  0.
490  4.89  0.  0.  0.  0.
491  4.90  0.  0.  0.  0.
492  4.91  0.  0.  0.  0.
493  4.92  0.  0.  0.  0.
494  4.93  0.  0.  0.  0.
495  4.94  0.  0.  0.  0.
496  4.95  0.  0.  0.  0.
497  4.96  0.  0.  0.  0.
498  4.97  0.  0.  0.  0.
499  4.98  0.  0.  0.  0.
500  4.99  0.  0.  0.  0.
501  5.00  0.  0.  0.  0.
502  5.01  0.  0.  0.  0.
503  5.02  0.  0.  0.  0.
504  5.03  0.  0.  0.  0.
505  5.04  0.  0.  0.  0.
506  5.05  0.  0.  0.  0.
507  5.06  0.  0.  0.  0.
508  5.07  0.  0.  0.  0.
509  5.08  0.  0.  0.  0.
510  5.09  0.  0.  0.  0.
511  5.10  0.  0.  0.  0.
512  5.11  0.  0.  0.  0.
513  5.12  0.  0.  0.  0.
514  5.13  0.  0.  0.  0.
515  5.14  0.  0.  0.  0.
516  5.15  0.  0.  0.  0.
517  5.16  0.  0.  0.  0.
518  5.17  0.  0.  0.  0.
519  5.18  0.  0.  0.  0.
520  5.19  0.  0.  0.  0.
521  5.20  0.  0.  0.  0.
522  5.21  0.  0.  0.  0.
523  5.22  0.  0.  0.  0.
524  5.23  0.  0.  0.  0.
525  5.24  0.  0.  0.  0.
526  5.25  0.  0.  0.  0.
527  5.26  0.  0.  0.  0.
528  5.27  0.  0.  0.  0.
529  5.28  0.  0.  0.  0.
530  5.29  0.  0.  0.  0.
531  5.30  0.  0.  0.  0.
532  5.31  0.  0.  0.  0.
533  5.32  0.  0.  0.  0.
534  5.33  0.  0.  0.  0.
535  5.34  0.  0.  0.  0.
536  5.35  0.  0.  0.  0.
537  5.36  0.  0.  0.  0.
538  5.37  0.  0.  0.  0.
539  5.38  0.  0.  0.  0.
540  5.39  0.  0.  0.  0.
541  5.40  0.  0.  0.  0.
542  5.41  0.  0.  0.  0.
543  5.42  0.  0.  0.  0.
544  5.43  0.  0.  0.  0.
545  5.44  0.  0.  0.  0.
546  5.45  0.  0.  0.  0.
547  5.46  0.  0.  0.  0.
548  5.47  0.  0.  0.  0.
549  5.48  0.  0.  0.  0.
550  5.49  0.  0.  0.  0.
551  5.50  0.  0.  0.  0.
552  5.51  0.  0.  0.  0.
553  5.52  0.  0.  0.  0.
554  5.53  0.  0.  0.  0.
555  5.54  0.  0.  0.  0.
556  5.55  0.  0.  0.  0.
557  5.56  0.  0.  0.  0.
558  5.57  0.  0.  0.  0.
559  5.58  0.  0.  0.  0.
560  5.59  0.  0.  0.  0.
561  5.60  0.  0.  0.  0.
562  5.61  0.  0.  0.  0.
563  5.62  0.  0.  0.  0.
564  5.63  0.  0.  0.  0.
565  5.64  0.  0.  0.  0.
566  5.65  0.  0.  0.  0.
567  5.66  0.  0.  0.  0.
568  5.67  0.  0.  0.  0.
569  5.68  0.  0.  0.  0.
570  5.69  0.  0.  0.  0.
571  5.70  0.  0.  0.  0.
572  5.71  0.  0.  0.  0.
573  5.72  0.  0.  0.  0.
574  5.73  0.  0.  0.  0.
575  5.74  0.  0.  0.  0.
576  5.75  0.  0.  0.  0.
577  5.76  0.  0.  0.  0.
578  5.77  0.  0.  0.  0.
579  5.78  0.  0.  0.  0.
580  5.79  0.  0.  0.  0.
581  5.80  0.  0.  0.  0.
582  5.81  0.  0.  0.  0.
583  5.82  0.  0.  0.  0.
584  5.83  0.  0.  0.  0.
585  5.84  0.  0.  0.  0.
586  5.85  0.  0.  0.  0.
587  5.86  0.  0.  0.  0.
588  5.87  0.  0.  0.  0.
589  5.88  0.  0.  0.  0.
590  5.89  0.  0.  0.  0.
591  5.90  0.  0.  0.  0.
592  5.91  0.  0.  0.  0.
593  5.92  0.  0.  0.  0.
594  5.93  0.  0.  0.  0.
595  5.94  0.  0.  0.  0.
596  5.95  0.  0.  0.  0.
597  5.96  0.  0.  0.  0.
598  5.97  0.  0.  0.  0.
599  5.98  0.  0.  0.  0.
600  5.99  0.  0.  0.  0.
1                         1.0321355138512E+01 -9.0711496133619E+00  1.4718696321929E+00 -1.4403921470557E-01
1  0.0000000000000E+00 -2.1940838148549E-06  8.4449822773669E-08  5.6415594809067E-06 -3.0046843083609E-06
2  1.0000000000000E-02 -1.6027001539419E-02  2.6612398473904E-03  1.9165938376090E-02 -7.9296980820102E-03
3  2.0000000000000E-02 -6.3443793303556E-02  1.0613244096907E-02  7.5293822733369E-02 -3.1075783999070E-02
4  3.0000000000000E-02 -1.4029185150532E-01  2.3762158878979E-02  1.6435808460011E-01 -6.7552789363723E-02
5  4.0000000000000E-02 -2.4341874811904E-01  4.1955791747158E-02  2.7992516319997E-01 -1.1436071986582E-01
6  5.0000000000000E-02 -3.6863914987344E-01  6.4989696152639E-02  4.1354979123243E-01 -1.6758932639841E-01
7  6.0000000000000E-02 -5.1094728075362E-01  9.2615182774336E-02  5.5529625804732E-01 -2.2268585659530E-01
8  7.0000000000000E-02 -6.6476882327441E-01  1.2454878742813E-01  6.9435350438456E-01 -2.7476939673727E-01
9  8.0000000000000E-02 -8.2423803970401E-01  1.6048264082905E-01  8.1970726129153E-01 -3.1897190929953E-01
10  9.0000000000000E-02 -9.8348453017670E-01  2.0009513434965E-01  9.2082898107098E-01 -3.5078428085778E-01
11  1.0000000000000E-01 -1.1369135889298E+00  2.4306126121668E-01  9.8834022613976E-01 -3.6638523038220E-01
12  1.1000000000000E-01 -1.2794645985301E+00  2.8906203527909E-01  1.0146125494996E+00 -3.6293182194120E-01
13  1.2000000000000E-01 -1.4068332855321E+00  3.3779244828860E-01  9.9426664007188E-01 -3.3879252913999E-01
14  1.3000000000000E-01 -1.5156458670637E+00  3.8896751813233E-01  9.2454039979457E-01 -2.9370718309089E-01
15  1.4000000000000E-01 -1.6035760155385E+00  4.4232609926291E-01  8.0550332223478E-01 -2.2886250168217E-01
16  1.5000000000000E-01 -1.6693989864833E+00  4.9763226565750E-01  6.4010360247406E-01 -1.4687698592051E-01
17  1.6000000000000E-01 -1.7129809902065E+00  5.5467422774698E-01  4.3404429242064E-01 -5.1694475299732E-02
18  1.7000000000000E-01 -1.7352057208272E+00  6.1326089888868E-01  1.9549494232178E-01  5.1608751753062E-02
19  1.8000000000000E-01 -1.7378436594233E+00  6.7321637489579E-01 -6.5345059515529E-02  1.5709310134871E-01
20  1.9000000000000E-01 -1.7233731228038E+00  7.3437272300079E-01 -3.3680639853495E-01  2.5828600829617E-01
21  2.0000000000000E-01 -1.6947648372462E+00  7.9656158639507E-01 -6.0640056566716E-01  3.4855458917280E-01
22  2.1000000000000E-01 -1.6552439114215E+00  8.5960519046411E-01 -8.6152349190497E-01  4.2149888820344E-01
23  2.2000000000000E-01 -1.6080443407585E+00  9.2330738208045E-01 -1.0901709071631E+00  4.7134247548214E-01
24  2.3000000000000E-01 -1.5561715223684E+00  9.8744534091102E-01 -1.2816234051410E+00  4.9329701271077E-01
25  2.4000000000000E-01 -1.5021876750533E+00  1.0517625709489E+00 -1.4270608332956E+00  4.8387865534770E-01
26  2.5000000000000E-01 -1.4480335779623E+00  1.1159637129660E+00 -1.5200696508217E+00  4.4115674642884E-01
27  2.6000000000000E-01 -1.3948977524954E+00  1.1797116180597E+00 -1.5570130762339E+00  3.6491903102901E-01
28  2.7000000000000E-01 -1.3431412517406E+00  1.2426269946576E+00 -1.5372418204203E+00  2.5674236432189E-01
29  2.8000000000000E-01 -1.2922827668865E+00  1.3042907936276E+00 -1.4631325048205E+00  1.1996332433953E-01
30  2.9000000000000E-01 -1.2410450172388E+00  1.3642493370776E+00 -1.3399509521975E+00 -4.0451046122439E-02
31  3.0000000000000E-01 -1.1874595838824E+00  1.4220220353243E+00 -1.1755478160817E+00 -2.1812629861784E-01
32  3.1000000000000E-01 -1.1290237050905E+00  1.4771113828046E+00 -9.7990387868242E-01 -4.0558583873536E-01
33  3.2000000000000E-01 -1.0628992933752E+00  1.5290147864497E+00 -7.6455121328498E-01 -5.9462189994983E-01
34  3.3000000000000E-01 -9.8614175631742E-01  1.5772376673719E+00 -5.4190375094958E-01 -7.7671179713512E-01
35  3.4000000000000E-01 -8.9594426856692E-01  1.6213071953331E+00 -3.2453617640830E-01 -9.4345625388110E-01
36  3.5000000000000E-01 -7.8988206915012E-01  1.6607859702615E+00 -1.2445318331403E-01 -1.0870151729920E+00
37  3.6000000000000E-01 -6.6614121387547E-01  1.6952849588458E+00  4.7608242853767E-02 -1.2005162320073E+00
38  3.7000000000000E-01 -5.2371700919657E-01  1.7244750274600E+00  1.8280271652269E-01 -1.2784131407380E+00