Og    ONCVPSP-4.0.1  r_core=   1.10631   1.10631   1.20296   1.30024
118.0000     58.0000      220208    zatom,zion,pspd
8      11   3     4   600     0    pspcod,pspxc,lmax,lloc,mmax,r2well
5.99000000  5.00000000  0.00000000    rchrg fchrg qchrg
4     4     4     3     0    nproj
1     1           extension_switch
0                         1.6571558691416E+01 -1.3659980964629E+01  2.2383649758911E+00 -1.4442946057923E+00
1  0.0000000000000E+00 -1.2946263887592E-06 -6.3916373305162E-09 -1.9333440188091E-06  7.0938552789723E-06
2  1.0000000000000E-02  2.3142523648239E-01  8.8708525515091E-02  4.2426670411755E-02 -2.7283678402996E-01
3  2.0000000000000E-02  4.5850269807498E-01  1.7716521765816E-01  8.1382911624022E-02 -5.3220789441050E-01
4  3.0000000000000E-02  6.7703037832982E-01  2.6511945450980E-01  1.1358303094115E-01 -7.6535290790522E-01
5  4.0000000000000E-02  8.8309083899251E-01  3.5232300688518E-01  1.3610075103951E-01 -9.6088412870500E-01
6  5.0000000000000E-02  1.0731764458355E+00  4.3853116115686E-01  1.4652433243501E-01 -1.1093805601504E+00
7  6.0000000000000E-02  1.2442951716670E+00  5.2350375897553E-01  1.4308372727429E-01 -1.2038766114855E+00
8  7.0000000000000E-02  1.3940521367293E+00  6.0700613442763E-01  1.2474290552030E-01 -1.2402194673121E+00
9  8.0000000000000E-02  1.5207033513289E+00  6.8880993556022E-01  9.1252427947542E-02 -1.2172761412662E+00
10  9.0000000000000E-02  1.6231796043252E+00  7.6869382440260E-01  4.3159545603906E-02 -1.1369793509140E+00
11  1.0000000000000E-01  1.7010800226220E+00  8.4644405716472E-01 -1.8224540755928E-02 -1.0042100477111E+00
12  1.1000000000000E-01  1.7546364240412E+00  9.2185495371373E-01 -9.0898256875723E-02 -8.2652324247283E-01
13  1.2000000000000E-01  1.7846511111906E+00  9.9472927224465E-01 -1.7227980700669E-01 -6.1373220579104E-01
14  1.3000000000000E-01  1.7924121235585E+00  1.0648785108253E+00 -2.5934762786304E-01 -3.7737373699786E-01
15  1.4000000000000E-01  1.7795911042539E+00  1.1321231618254E+00 -3.4880321045524E-01 -1.3008357253182E-01
16  1.5000000000000E-01  1.7481297846787E+00  1.1962929478358E+00 -4.3724714186826E-01  1.1508419977429E-01
17  1.6000000000000E-01  1.7001215994204E+00  1.2572270683495E+00 -5.2135851900286E-01  3.4535689839050E-01
18  1.7000000000000E-01  1.6376950881411E+00  1.3147744851324E+00 -5.9806773868106E-01  5.4892439846305E-01
19  1.8000000000000E-01  1.5629055148972E+00  1.3687942708965E+00 -6.6471308095303E-01  7.1556498626722E-01
20  1.9000000000000E-01  1.4776405525075E+00  1.4191560407729E+00 -7.1917245110357E-01  8.3718230593281E-01
21  2.0000000000000E-01  1.3835449745117E+00  1.4657404794282E+00 -7.5996307682120E-01  9.0822467970096E-01
22  2.1000000000000E-01  1.2819681220482E+00  1.5084399688624E+00 -7.8630378928797E-01  9.2596452398356E-01
23  2.2000000000000E-01  1.1739365347389E+00  1.5471593134058E+00 -7.9813664707900E-01  8.9062322010811E-01
24  2.3000000000000E-01  1.0601526317206E+00  1.5818165497040E+00 -7.9610696957750E-01  8.0533521404780E-01
25  2.4000000000000E-01  9.4101878643908E-01  1.6123438210541E+00 -7.8150320203113E-01  6.7595385488003E-01
26  2.5000000000000E-01  8.1668464389168E-01  1.6386882878559E+00 -7.5616030474434E-01  5.1071006180698E-01
27  2.6000000000000E-01  6.8711416596600E-01  1.6608130396197E+00 -7.2233241648360E-01  3.1974286813182E-01
28  2.7000000000000E-01  5.5216773610414E-01  1.6786979693517E+00 -6.8254227127985E-01  1.1452779601388E-01
29  2.8000000000000E-01  4.1169377353507E-01  1.6923405685106E+00 -6.3941615145091E-01 -9.2765505104491E-02
30  2.9000000000000E-01  2.6562374906810E-01  1.7017566003054E+00 -5.9551396487395E-01 -2.8995116571136E-01
31  3.0000000000000E-01  1.1406428993425E-01  1.7069806109501E+00 -5.5316429660432E-01 -4.6550352217287E-01
32  3.1000000000000E-01 -4.2619778602119E-02  1.7080662425577E+00 -5.1431398985255E-01 -6.0919521491557E-01
33  3.2000000000000E-01 -2.0373709176609E-01  1.7050863174509E+00 -4.8040097657538E-01 -7.1266229429533E-01
34  3.3000000000000E-01 -3.6822089999213E-01  1.6981326714988E+00 -4.5225775148977E-01 -7.6986572861082E-01
35  3.4000000000000E-01 -5.3460339759342E-01  1.6873157232392E+00 -4.3005114087781E-01 -7.7742441840490E-01
36  3.5000000000000E-01 -7.0101557098327E-01  1.6727637755522E+00 -4.1326195824434E-01 -7.3480186555515E-01
37  3.6000000000000E-01 -8.6521344168698E-01  1.6546220569546E+00 -4.0070587960543E-01 -6.4433663689491E-01
38  3.7000000000000E-01 -1.0246300541408E+00  1.6330515196570E+00 -3.9059453992426E-01 -5.1111526197924E-01
39  3.8000000000000E-01 -1.1764510644757E+00  1.6082274208059E+00 -3.8063358078584E-01 -3.4269474864134E-01
40  3.9000000000000E-01 -1.3177104085394E+00  1.5803377213285E+00 -3.6815229593328E-01 -1.4869002311803E-01
41  4.0000000000000E-01 -1.4454013430468E+00  1.5495813430928E+00 -3.5025774292841E-01  5.9751136463295E-02
42  4.1000000000000E-01 -1.5565972296129E+00  1.5161663293436E+00 -3.2400481544843E-01  2.7055709470904E-01
43  4.2000000000000E-01 -1.6485758193369E+00  1.4803079553884E+00 -2.8657287784276E-01  4.7139226666967E-01
44  4.3000000000000E-01 -1.7189405296230E+00  1.4422268361865E+00 -2.3543920019301E-01  6.5033229360642E-01
45  4.4000000000000E-01 -1.7657322995058E+00  1.4021470749165E+00 -1.6853961664619E-01  7.9651815160565E-01
46  4.5000000000000E-01 -1.7875260589211E+00  1.3602944919295E+00 -8.4407549343695E-02  9.0075413390329E-01
47  4.6000000000000E-01 -1.7835066251705E+00  1.3168949670643E+00  1.7716248443220E-02  9.5601780881501E-01
48  4.7000000000000E-01 -1.7535199018592E+00  1.2721729205066E+00  1.3780924444588E-01  9.5785491736375E-01
49  4.8000000000000E-01 -1.6980965415680E+00  1.2263499487082E+00  2.7503203151049E-01  9.0463846231386E-01
50  4.9000000000000E-01 -1.6184466707952E+00  1.1796436228847E+00  4.2773446966086E-01  7.9767860171183E-01
51  5.0000000000000E-01 -1.5164257834916E+00  1.1322664488274E+00  5.9350269275775E-01  6.4117798745554E-01
52  5.1000000000000E-01 -1.3944734034636E+00  1.0844249787315E+00  7.6924438718397E-01  4.4203544202254E-01
53  5.2000000000000E-01 -1.2555275130458E+00  1.0363190589434E+00  9.5130769641516E-01  2.0950889492897E-01
54  5.3000000000000E-01 -1.1029189688109E+00  9.8814119235972E-01  1.1356273325221E+00 -4.5244128130735E-02
55  5.4000000000000E-01 -9.4025110817476E-01  9.4007599096463E-01  1.3178900816769E+00 -3.0972384887420E-01
56  5.5000000000000E-01 -7.7127044126513E-01  8.9229969284380E-01  1.4937109510514E+00 -5.7071385736500E-01
57  5.6000000000000E-01 -5.9973468512545E-01  8.4497971898336E-01  1.6588107676385E+00 -8.1494214666531E-01
58  5.7000000000000E-01 -4.2928441599653E-01  7.9827424815714E-01  1.8091861244834E+00 -1.0297431812219E+00
59  5.8000000000000E-01 -2.6332429361729E-01  7.5233179297448E-01  1.9412631650975E+00 -1.2036869535859E+00
60  5.9000000000000E-01 -1.0491917219678E-01  7.0729076635103E-01  2.0520277613244E+00 -1.3271431262341E+00
61  6.0000000000000E-01  4.3290503187868E-02  6.6327903481919E-01  2.1391261056061E+00 -1.3927521630929E+00
62  6.1000000000000E-01  1.7915075222524E-01  6.2041346268800E-01  2.2009315145707E+00 -1.3957805973030E+00
63  6.2000000000000E-01  3.0103159282965E-01  5.7879945853657E-01  2.2365752191427E+00 -1.3343439511399E+00
64  6.3000000000000E-01  4.0783944256332E-01  5.3853054231926E-01  2.2459409781134E+00 -1.2094879566781E+00
65  6.4000000000000E-01  4.9900513915353E-01  4.9968795695124E-01  2.2296253750876E+00 -1.0251262220984E+00
66  6.5000000000000E-01  5.7444961084153E-01  4.6234035217724E-01  2.1888675243043E+00 -7.8783993545810E-01
67  6.6000000000000E-01  6.3453035348420E-01  4.2654357045142E-01  2.1254535113480E+00 -5.0655219292098E-01
68  6.7000000000000E-01  6.7997278219279E-01  3.9234056424598E-01  2.0416021396427E+00 -1.9209571229400E-01
69  6.8000000000000E-01  7.1179117260911E-01  3.5976147157661E-01  1.9398393747754E+00  1.4330227168168E-01
70  6.9000000000000E-01  7.3120425895080E-01  3.2882387165335E-01  1.8228692345252E+00  4.8659048279516E-01
71  7.0000000000000E-01  7.3955059897056E-01  2.9953323565266E-01  1.6934487499938E+00  8.2448990047668E-01
72  7.1000000000000E-01  7.3820855501363E-01  2.7188357902177E-01  1.5542740387479E+00  1.1440858512105E+00
73  7.2000000000000E-01  7.2852519866347E-01  2.4585831194915E-01  1.4078835288631E+00  1.4333869941328E+00
74  7.3000000000000E-01  7.1175766367163E-01  2.2143127424000E-01  1.2565830224227E+00  1.6818249263951E+00
75  7.4000000000000E-01  6.8902950183029E-01  1.9856793045906E-01  1.1023956788122E+00  1.8806720691296E+00
76  7.5000000000000E-01  6.6130350318538E-01  1.7722669150033E-01  9.4703823682123E-01  2.0233604835154E+00
77  7.6000000000000E-01  6.2937129624089E-01  1.5736032035591E-01  7.9192299376721E-01  2.1056899994685E+00
78  7.7000000000000E-01  5.9385891825169E-01  1.3891737336313E-01  6.3818333431361E-01  2.1259201752640E+00
79  7.8000000000000E-01  5.5524651059358E-01  1.2184362409649E-01  4.8671906033197E-01  2.0847467908924E+00
80  7.9000000000000E-01  5.1389941295599E-01  1.0608341569497E-01  3.3825651234984E-01  1.9851694663688E+00
81  8.0000000000000E-01  4.7010725577000E-01  9.1580888978733E-02  1.9341757097268E-01  1.8322622704201E+00
82  8.1000000000000E-01  4.2412722184183E-01  7.8281038244504E-02  5.2791137630956E-02  1.6328635748168E+00
83  8.2000000000000E-01  3.7622748874716E-01  6.6130553991248E-02 -8.2999353694229E-02  1.3952047039965E+00
84  8.3000000000000E-01  3.2672697883778E-01  5.5078421699135E-02 -2.1323844863410E-01  1.1284989891335E+00
85  8.4000000000000E-01  2.7602792191599E-01  4.5076257688266E-02 -3.3707645689579E-01  8.4251359775248E-01
86  8.5000000000000E-01  2.2463834828159E-01  3.6078376408111E-02 -4.5350659250325E-01  5.4714599001997E-01
87  8.6000000000000E-01  1.7318243382979E-01  2.8041597541121E-02 -5.6136410708116E-01  2.5202514104481E-01
88  8.7000000000000E-01  1.2239755917321E-01  2.0924815269501E-02 -6.5934842105172E-01 -3.3845078202944E-02
89  8.8000000000000E-01  7.3117958121275E-02  1.4688365160213E-02 -7.4606754591081E-01 -3.0238653884606E-01
90  8.9000000000000E-01  2.6245849790646E-02  9.2932356052683E-03 -8.2010241170468E-01 -5.4668183023116E-01
91  9.0000000000000E-01 -1.7288094235482E-02  4.7001799219958E-03 -8.8008717739231E-01 -7.6113833235117E-01
92  9.1000000000000E-01 -5.6572263935410E-02  8.6879149558192E-04 -9.2480030896931E-01 -9.4158059832089E-01
93  9.2000000000000E-01 -9.0766269381383E-02 -2.2433926891997E-03 -9.5326024672642E-01 -1.0852744652091E+00
94  9.3000000000000E-01 -1.1915397643095E-01 -4.6816953735067E-03 -9.6481891377084E-01 -1.1908900253942E+00
95  9.4000000000000E-01 -1.4119347215611E-01 -6.4949486523767E-03 -9.5924618300430E-01 -1.2584136165987E+00
96  9.5000000000000E-01 -1.5656009526703E-01 -7.7359369998785E-03 -9.3679873188191E-01 -1.2890211826852E+00
97  9.6000000000000E-01 -1.6517900711241E-01 -8.4615915287936E-03 -8.9826745734779E-01 -1.2849266354392E+00
98  9.7000000000000E-01 -1.6724435578904E-01 -8.7329066318758E-03 -8.4499875516110E-01 -1.2492191890713E+00
99  9.8000000000000E-01 -1.6322286229192E-01 -8.6145653291654E-03 -7.7888641960745E-01 -1.1857030849891E+00
100  9.9000000000000E-01 -1.5384058485351E-01 -8.1742759243076E-03 -7.0233260569202E-01 -1.0987517784082E+00
101  1.0000000000000E+00 -1.4005262887697E-01 -7.4818385293835E-03 -6.1817807810691E-01 -9.9318654708992E-01
102  1.0100000000000E+00 -1.2299659905646E-01 -6.6079745290066E-03 -5.2960372575755E-01 -8.7418672454064E-01
103  1.0200000000000E+00 -1.0392650961411E-01 -5.6225394949248E-03 -4.3998113659447E-01 -7.4713691367516E-01
104  1.0300000000000E+00 -8.4125559073614E-02 -4.5916131779624E-03 -3.5264908881667E-01 -6.1726664094917E-01
105  1.0400000000000E+00 -6.4825015915203E-02 -3.5753562206374E-03 -2.7073763396861E-01 -4.8948693816951E-01
106  1.0500000000000E+00 -4.7130059634619E-02 -2.6263983603480E-03 -1.9702570940704E-01 -3.6835707125839E-01
107  1.0600000000000E+00 -3.1620453053120E-02 -1.7886429885081E-03 -1.3328152728896E-01 -2.5876454086085E-01
108  1.0700000000000E+00 -1.8737066441049E-02 -1.0945528767408E-03 -8.0851597291954E-02 -1.6497031296709E-01
109  1.0800000000000E+00 -9.1782225953742E-03 -5.6518728279354E-04 -4.1294201907470E-02 -8.9702829460363E-02
110  1.0900000000000E+00 -3.1620880123903E-03 -2.1093911196877E-04 -1.5203426291984E-02 -3.5674322821409E-02
111  1.1000000000000E+00 -4.0360699608341E-04 -3.0356800284092E-05 -2.1511596579020E-03 -5.5438095475191E-03
112  1.1100000000000E+00  1.6304036057284E-05  1.3783744187860E-06  9.6274814543509E-05  2.6713246145361E-04
113  1.1200000000000E+00  2.4072625121080E-07  1.7991592940553E-08  1.2759642883356E-06  3.2686584183714E-06
114  1.13 -0. -0. -0.  0.
115  1.14  0.  0.  0.  0.
116  1.15  0.  0.  0.  0.
117  1.16  0.  0.  0.  0.
118  1.17  0.  0.  0.  0.
119  1.18  0.  0.  0.  0.
120  1.19  0.  0.  0.  0.
121  1.20  0.  0.  0.  0.
122  1.21  0.  0.  0.  0.
123  1.22  0.  0.  0.  0.
124  1.23  0.  0.  0.  0.
125  1.24  0.  0.  0.  0.
126  1.25  0.  0.  0.  0.
127  1.26  0.  0.  0.  0.
128  1.27  0.  0.  0.  0.
129  1.28  0.  0.  0.  0.
130  1.29  0.  0.  0.  0.
131  1.30  0.  0.  0.  0.
132  1.31  0.  0.  0.  0.
133  1.32  0.  0.  0.  0.
134  1.33  0.  0.  0.  0.
135  1.34  0.  0.  0.  0.
136  1.35  0.  0.  0.  0.
137  1.36  0.  0.  0.  0.
138  1.37  0.  0.  0.  0.
139  1.38  0.  0.  0.  0.
140  1.39  0.  0.  0.  0.
141  1.40  0.  0.  0.  0.
142  1.41  0.  0.  0.  0.
143  1.42  0.  0.  0.  0.
144  1.43  0.  0.  0.  0.
145  1.44  0.  0.  0.  0.
146  1.45  0.  0.  0.  0.
147  1.46  0.  0.  0.  0.
148  1.47  0.  0.  0.  0.
149  1.48  0.  0.  0.  0.
150  1.49  0.  0.  0.  0.
151  1.50  0.  0.  0.  0.
152  1.51  0.  0.  0.  0.
153  1.52  0.  0.  0.  0.
154  1.53  0.  0.  0.  0.
155  1.54  0.  0.  0.  0.
156  1.55  0.  0.  0.  0.
157  1.56  0.  0.  0.  0.
158  1.57  0.  0.  0.  0.
159  1.58  0.  0.  0.  0.
160  1.59  0.  0.  0.  0.
161  1.60  0.  0.  0.  0.
162  1.61  0.  0.  0.  0.
163  1.62  0.  0.  0.  0.
164  1.63  0.  0.  0.  0.
165  1.64  0.  0.  0.  0.
166  1.65  0.  0.  0.  0.
167  1.66  0.  0.  0.  0.
168  1.67  0.  0.  0.  0.
169  1.68  0.  0.  0.  0.
170  1.69  0.  0.  0.  0.
171  1.70  0.  0.  0.  0.
172  1.71  0.  0.  0.  0.
173  1.72  0.  0.  0.  0.
174  1.73  0.  0.  0.  0.
175  1.74  0.  0.  0.  0.
176  1.75  0.  0.  0.  0.
177  1.76  0.  0.  0.  0.
178  1.77  0.  0.  0.  0.
179  1.78  0.  0.  0.  0.
180  1.79  0.  0.  0.  0.
181  1.80  0.  0.  0.  0.
182  1.81  0.  0.  0.  0.
183  1.82  0.  0.  0.  0.
184  1.83  0.  0.  0.  0.
185  1.84  0.  0.  0.  0.
186  1.85  0.  0.  0.  0.
187  1.86  0.  0.  0.  0.
188  1.87  0.  0.  0.  0.
189  1.88  0.  0.  0.  0.
190  1.89  0.  0.  0.  0.
191  1.90  0.  0.  0.  0.
192  1.91  0.  0.  0.  0.
193  1.92  0.  0.  0.  0.
194  1.93  0.  0.  0.  0.
195  1.94  0.  0.  0.  0.
196  1.95  0.  0.  0.  0.
197  1.96  0.  0.  0.  0.
198  1.97  0.  0.  0.  0.
199  1.98  0.  0.  0.  0.
200  1.99  0.  0.  0.  0.
201  2.00  0.  0.  0.  0.
202  2.01  0.  0.  0.  0.
203  2.02  0.  0.  0.  0.
204  2.03  0.  0.  0.  0.
205  2.04  0.  0.  0.  0.
206  2.05  0.  0.  0.  0.
207  2.06  0.  0.  0.  0.
208  2.07  0.  0.  0.  0.
209  2.08  0.  0.  0.  0.
210  2.09  0.  0.  0.  0.
211  2.10  0.  0.  0.  0.
212  2.11  0.  0.  0.  0.
213  2.12  0.  0.  0.  0.
214  2.13  0.  0.  0.  0.
215  2.14  0.  0.  0.  0.
216  2.15  0.  0.  0.  0.
217  2.16  0.  0.  0.  0.
218  2.17  0.  0.  0.  0.
219  2.18  0.  0.  0.  0.
220  2.19  0.  0.  0.  0.
221  2.20  0.  0.  0.  0.
222  2.21  0.  0.  0.  0.
223  2.22  0.  0.  0.  0.
224  2.23  0.  0.  0.  0.
225  2.24  0.  0.  0.  0.
226  2.25  0.  0.  0.  0.
227  2.26  0.  0.  0.  0.
228  2.27  0.  0.  0.  0.
229  2.28  0.  0.  0.  0.
230  2.29  0.  0.  0.  0.
231  2.30  0.  0.  0.  0.
232  2.31  0.  0.  0.  0.
233  2.32  0.  0.  0.  0.
234  2.33  0.  0.  0.  0.
235  2.34  0.  0.  0.  0.
236  2.35  0.  0.  0.  0.
237  2.36  0.  0.  0.  0.
238  2.37  0.  0.  0.  0.
239  2.38  0.  0.  0.  0.
240  2.39  0.  0.  0.  0.
241  2.40  0.  0.  0.  0.
242  2.41  0.  0.  0.  0.
243  2.42  0.  0.  0.  0.
244  2.43  0.  0.  0.  0.
245  2.44  0.  0.  0.  0.
246  2.45  0.  0.  0.  0.
247  2.46  0.  0.  0.  0.
248  2.47  0.  0.  0.  0.
249  2.48  0.  0.  0.  0.
250  2.49  0.  0.  0.  0.
251  2.50  0.  0.  0.  0.
252  2.51  0.  0.  0.  0.
253  2.52  0.  0.  0.  0.
254  2.53  0.  0.  0.  0.
255  2.54  0.  0.  0.  0.
256  2.55  0.  0.  0.  0.
257  2.56  0.  0.  0.  0.
258  2.57  0.  0.  0.  0.
259  2.58  0.  0.  0.  0.
260  2.59  0.  0.  0.  0.
261  2.60  0.  0.  0.  0.
262  2.61  0.  0.  0.  0.
263  2.62  0.  0.  0.  0.
264  2.63  0.  0.  0.  0.
265  2.64  0.  0.  0.  0.
266  2.65  0.  0.  0.  0.
267  2.66  0.  0.  0.  0.
268  2.67  0.  0.  0.  0.
269  2.68  0.  0.  0.  0.
270  2.69  0.  0.  0.  0.
271  2.70  0.  0.  0.  0.
272  2.71  0.  0.  0.  0.
273  2.72  0.  0.  0.  0.
274  2.73  0.  0.  0.  0.
275  2.74  0.  0.  0.  0.
276  2.75  0.  0.  0.  0.
277  2.76  0.  0.  0.  0.
278  2.77  0.  0.  0.  0.
279  2.78  0.  0.  0.  0.
280  2.79  0.  0.  0.  0.
281  2.80  0.  0.  0.  0.
282  2.81  0.  0.  0.  0.
283  2.82  0.  0.  0.  0.
284  2.83  0.  0.  0.  0.
285  2.84  0.  0.  0.  0.
286  2.85  0.  0.  0.  0.
287  2.86  0.  0.  0.  0.
288  2.87  0.  0.  0.  0.
289  2.88  0.  0.  0.  0.
290  2.89  0.  0.  0.  0.
291  2.90  0.  0.  0.  0.
292  2.91  0.  0.  0.  0.
293  2.92  0.  0.  0.  0.
294  2.93  0.  0.  0.  0.
295  2.94  0.  0.  0.  0.
296  2.95  0.  0.  0.  0.
297  2.96  0.  0.  0.  0.
298  2.97  0.  0.  0.  0.
299  2.98  0.  0.  0.  0.
300  2.99  0.  0.  0.  0.
301  3.00  0.  0.  0.  0.
302  3.01  0.  0.  0.  0.
303  3.02  0.  0.  0.  0.
304  3.03  0.  0.  0.  0.
305  3.04  0.  0.  0.  0.
306  3.05  0.  0.  0.  0.
307  3.06  0.  0.  0.  0.
308  3.07  0.  0.  0.  0.
309  3.08  0.  0.  0.  0.
310  3.09  0.  0.  0.  0.
311  3.10  0.  0.  0.  0.
312  3.11  0.  0.  0.  0.
313  3.12  0.  0.  0.  0.
314  3.13  0.  0.  0.  0.
315  3.14  0.  0.  0.  0.
316  3.15  0.  0.  0.  0.
317  3.16  0.  0.  0.  0.
318  3.17  0.  0.  0.  0.
319  3.18  0.  0.  0.  0.
320  3.19  0.  0.  0.  0.
321  3.20  0.  0.  0.  0.
322  3.21  0.  0.  0.  0.
323  3.22  0.  0.  0.  0.
324  3.23  0.  0.  0.  0.
325  3.24  0.  0.  0.  0.
326  3.25  0.  0.  0.  0.
327  3.26  0.  0.  0.  0.
328  3.27  0.  0.  0.  0.
329  3.28  0.  0.  0.  0.
330  3.29  0.  0.  0.  0.
331  3.30  0.  0.  0.  0.
332  3.31  0.  0.  0.  0.
333  3.32  0.  0.  0.  0.
334  3.33  0.  0.  0.  0.
335  3.34  0.  0.  0.  0.
336  3.35  0.  0.  0.  0.
337  3.36  0.  0.  0.  0.
338  3.37  0.  0.  0.  0.
339  3.38  0.  0.  0.  0.
340  3.39  0.  0.  0.  0.
341  3.40  0.  0.  0.  0.
342  3.41  0.  0.  0.  0.
343  3.42  0.  0.  0.  0.
344  3.43  0.  0.  0.  0.
345  3.44  0.  0.  0.  0.
346  3.45  0.  0.  0.  0.
347  3.46  0.  0.  0.  0.
348  3.47  0.  0.  0.  0.
349  3.48  0.  0.  0.  0.
350  3.49  0.  0.  0.  0.
351  3.50  0.  0.  0.  0.
352  3.51  0.  0.  0.  0.
353  3.52  0.  0.  0.  0.
354  3.53  0.  0.  0.  0.
355  3.54  0.  0.  0.  0.
356  3.55  0.  0.  0.  0.
357  3.56  0.  0.  0.  0.
358  3.57  0.  0.  0.  0.
359  3.58  0.  0.  0.  0.
360  3.59  0.  0.  0.  0.
361  3.60  0.  0.  0.  0.
362  3.61  0.  0.  0.  0.
363  3.62  0.  0.  0.  0.
364  3.63  0.  0.  0.  0.
365  3.64  0.  0.  0.  0.
366  3.65  0.  0.  0.  0.
367  3.66  0.  0.  0.  0.
368  3.67  0.  0.  0.  0.
369  3.68  0.  0.  0.  0.
370  3.69  0.  0.  0.  0.
371  3.70  0.  0.  0.  0.
372  3.71  0.  0.  0.  0.
373  3.72  0.  0.  0.  0.
374  3.73  0.  0.  0.  0.
375  3.74  0.  0.  0.  0.
376  3.75  0.  0.  0.  0.
377  3.76  0.  0.  0.  0.
378  3.77  0.  0.  0.  0.
379  3.78  0.  0.  0.  0.
380  3.79  0.  0.  0.  0.
381  3.80  0.  0.  0.  0.
382  3.81  0.  0.  0.  0.
383  3.82  0.  0.  0.  0.
384  3.83  0.  0.  0.  0.
385  3.84  0.  0.  0.  0.
386  3.85  0.  0.  0.  0.
387  3.86  0.  0.  0.  0.
388  3.87  0.  0.  0.  0.
389  3.88  0.  0.  0.  0.
390  3.89  0.  0.  0.  0.
391  3.90  0.  0.  0.  0.
392  3.91  0.  0.  0.  0.
393  3.92  0.  0.  0.  0.
394  3.93  0.  0.  0.  0.
395  3.94  0.  0.  0.  0.
396  3.95  0.  0.  0.  0.
397  3.96  0.  0.  0.  0.
398  3.97  0.  0.  0.  0.
399  3.98  0.  0.  0.  0.
400  3.99  0.  0.  0.  0.
401  4.00  0.  0.  0.  0.
402  4.01  0.  0.  0.  0.
403  4.02  0.  0.  0.  0.
404  4.03  0.  0.  0.  0.
405  4.04  0.  0.  0.  0.
406  4.05  0.  0.  0.  0.
407  4.06  0.  0.  0.  0.
408  4.07  0.  0.  0.  0.
409  4.08  0.  0.  0.  0.
410  4.09  0.  0.  0.  0.
411  4.10  0.  0.  0.  0.
412  4.11  0.  0.  0.  0.
413  4.12  0.  0.  0.  0.
414  4.13  0.  0.  0.  0.
415  4.14  0.  0.  0.  0.
416  4.15  0.  0.  0.  0.
417  4.16  0.  0.  0.  0.
418  4.17  0.  0.  0.  0.
419  4.18  0.  0.  0.  0.
420  4.19  0.  0.  0.  0.
421  4.20  0.  0.  0.  0.
422  4.21  0.  0.  0.  0.
423  4.22  0.  0.  0.  0.
424  4.23  0.  0.  0.  0.
425  4.24  0.  0.  0.  0.
426  4.25  0.  0.  0.  0.
427  4.26  0.  0.  0.  0.
428  4.27  0.  0.  0.  0.
429  4.28  0.  0.  0.  0.
430  4.29  0.  0.  0.  0.
431  4.30  0.  0.  0.  0.
432  4.31  0.  0.  0.  0.
433  4.32  0.  0.  0.  0.
434  4.33  0.  0.  0.  0.
435  4.34  0.  0.  0.  0.
436  4.35  0.  0.  0.  0.
437  4.36  0.  0.  0.  0.
438  4.37  0.  0.  0.  0.
439  4.38  0.  0.  0.  0.
440  4.39  0.  0.  0.  0.
441  4.40  0.  0.  0.  0.
442  4.41  0.  0.  0.  0.
443  4.42  0.  0.  0.  0.
444  4.43  0.  0.  0.  0.
445  4.44  0.  0.  0.  0.
446  4.45  0.  0.  0.  0.
447  4.46  0.  0.  0.  0.
448  4.47  0.  0.  0.  0.
449  4.48  0.  0.  0.  0.
450  4.49  0.  0.  0.  0.
451  4.50  0.  0.  0.  0.
452  4.51  0.  0.  0.  0.
453  4.52  0.  0.  0.  0.
454  4.53  0.  0.  0.  0.
455  4.54  0.  0.  0.  0.
456  4.55  0.  0.  0.  0.
457  4.56  0.  0.  0.  0.
458  4.57  0.  0.  0.  0.
459  4.58  0.  0.  0.  0.
460  4.59  0.  0.  0.  0.
461  4.60  0.  0.  0.  0.
462  4.61  0.  0.  0.  0.
463  4.62  0.  0.  0.  0.
464  4.63  0.  0.  0.  0.
465  4.64  0.  0.  0.  0.
466  4.65  0.  0.  0.  0.
467  4.66  0.  0.  0.  0.
468  4.67  0.  0.  0.  0.
469  4.68  0.  0.  0.  0.
470  4.69  0.  0.  0.  0.
471  4.70  0.  0.  0.  0.
472  4.71  0.  0.  0.  0.
473  4.72  0.  0.  0.  0.
474  4.73  0.  0.  0.  0.
475  4.74  0.  0.  0.  0.
476  4.75  0.  0.  0.  0.
477  4.76  0.  0.  0.  0.
478  4.77  0.  0.  0.  0.
479  4.78  0.  0.  0.  0.
480  4.79  0.  0.  0.  0.
481  4.80  0.  0.  0.  0.
482  4.81  0.  0.  0.  0.
483  4.82  0.  0.  0.  0.
484  4.83  0.  0.  0.  0.
485  4.84  0.  0.  0.  0.
486  4.85  0.  0.  0.  0.
487  4.86  0.  0.  0.  0.
488  4.87  0.  0.  0.  0.
489  4.88  0.  0.  0.  0.
490  4.89  0.  0.  0.  0.
491  4.90  0.  0.  0.  0.
492  4.91  0.  0.  0.  0.
493  4.92  0.  0.  0.  0.
494  4.93  0.  0.  0.  0.
495  4.94  0.  0.  0.  0.
496  4.95  0.  0.  0.  0.
497  4.96  0.  0.  0.  0.
498  4.97  0.  0.  0.  0.
499  4.98  0.  0.  0.  0.
500  4.99  0.  0.  0.  0.
501  5.00  0.  0.  0.  0.
502  5.01  0.  0.  0.  0.
503  5.02  0.  0.  0.  0.
504  5.03  0.  0.  0.  0.
505  5.04  0.  0.  0.  0.
506  5.05  0.  0.  0.  0.
507  5.06  0.  0.  0.  0.
508  5.07  0.  0.  0.  0.
509  5.08  0.  0.  0.  0.
510  5.09  0.  0.  0.  0.
511  5.10  0.  0.  0.  0.
512  5.11  0.  0.  0.  0.
513  5.12  0.  0.  0.  0.
514  5.13  0.  0.  0.  0.
515  5.14  0.  0.  0.  0.
516  5.15  0.  0.  0.  0.
517  5.16  0.  0.  0.  0.
518  5.17  0.  0.  0.  0.
519  5.18  0.  0.  0.  0.
520  5.19  0.  0.  0.  0.
521  5.20  0.  0.  0.  0.
522  5.21  0.  0.  0.  0.
523  5.22  0.  0.  0.  0.
524  5.23  0.  0.  0.  0.
525  5.24  0.  0.  0.  0.
526  5.25  0.  0.  0.  0.
527  5.26  0.  0.  0.  0.
528  5.27  0.  0.  0.  0.
529  5.28  0.  0.  0.  0.
530  5.29  0.  0.  0.  0.
531  5.30  0.  0.  0.  0.
532  5.31  0.  0.  0.  0.
533  5.32  0.  0.  0.  0.
534  5.33  0.  0.  0.  0.
535  5.34  0.  0.  0.  0.
536  5.35  0.  0.  0.  0.
537  5.36  0.  0.  0.  0.
538  5.37  0.  0.  0.  0.
539  5.38  0.  0.  0.  0.
540  5.39  0.  0.  0.  0.
541  5.40  0.  0.  0.  0.
542  5.41  0.  0.  0.  0.
543  5.42  0.  0.  0.  0.
544  5.43  0.  0.  0.  0.
545  5.44  0.  0.  0.  0.
546  5.45  0.  0.  0.  0.
547  5.46  0.  0.  0.  0.
548  5.47  0.  0.  0.  0.
549  5.48  0.  0.  0.  0.
550  5.49  0.  0.  0.  0.
551  5.50  0.  0.  0.  0.
552  5.51  0.  0.  0.  0.
553  5.52  0.  0.  0.  0.
554  5.53  0.  0.  0.  0.
555  5.54  0.  0.  0.  0.
556  5.55  0.  0.  0.  0.
557  5.56  0.  0.  0.  0.
558  5.57  0.  0.  0.  0.
559  5.58  0.  0.  0.  0.
560  5.59  0.  0.  0.  0.
561  5.60  0.  0.  0.  0.
562  5.61  0.  0.  0.  0.
563  5.62  0.  0.  0.  0.
564  5.63  0.  0.  0.  0.
565  5.64  0.  0.  0.  0.
566  5.65  0.  0.  0.  0.
567  5.66  0.  0.  0.  0.
568  5.67  0.  0.  0.  0.
569  5.68  0.  0.  0.  0.
570  5.69  0.  0.  0.  0.
571  5.70  0.  0.  0.  0.
572  5.71  0.  0.  0.  0.
573  5.72  0.  0.  0.  0.
574  5.73  0.  0.  0.  0.
575  5.74  0.  0.  0.  0.
576  5.75  0.  0.  0.  0.
577  5.76  0.  0.  0.  0.
578  5.77  0.  0.  0.  0.
579  5.78  0.  0.  0.  0.
580  5.79  0.  0.  0.  0.
581  5.80  0.  0.  0.  0.
582  5.81  0.  0.  0.  0.
583  5.82  0.  0.  0.  0.
584  5.83  0.  0.  0.  0.
585  5.84  0.  0.  0.  0.
586  5.85  0.  0.  0.  0.
587  5.86  0.  0.  0.  0.
588  5.87  0.  0.  0.  0.
589  5.88  0.  0.  0.  0.
590  5.89  0.  0.  0.  0.
591  5.90  0.  0.  0.  0.
592  5.91  0.  0.  0.  0.
593  5.92  0.  0.  0.  0.
594  5.93  0.  0.  0.  0.
595  5.94  0.  0.  0.  0.
596  5.95  0.  0.  0.  0.
597  5.96  0.  0.  0.  0.
598  5.97  0.  0.  0.  0.
599  5.98  0.  0.  0.  0.
600  5.99  0.  0.  0.  0.
1                         1.6036050712340E+01 -9.1011280429262E+00  3.6506718587169E+00 -1.5115368180832E-01
1  0.0000000000000E+00 -6.4286536323177E-06  1.9859853297999E-07 -6.9211513663570E-06 -3.4823463826994E-06
2  1.0000000000000E-02 -2.6472387164108E-02  2.9536457667345E-03 -1.6856374005431E-02 -6.8219400906267E-03
3  2.0000000000000E-02 -1.0434187643242E-01  1.1759520314070E-02 -6.5935214851099E-02 -2.6629276753562E-02
4  3.0000000000000E-02 -2.2906106760873E-01  2.6255378046121E-02 -1.4286680193645E-01 -5.7496093892633E-02
5  4.0000000000000E-02 -3.9336365812460E-01  4.6180430635577E-02 -2.4069884792427E-01 -9.6374246595788E-02
6  5.0000000000000E-02 -5.8771278672436E-01  7.1189132954318E-02 -3.5037004405124E-01 -1.3932425750348E-01
7  6.0000000000000E-02 -8.0088865429899E-01  1.0086923467772E-01 -4.6132982676289E-01 -1.8181601516421E-01
8  7.0000000000000E-02 -1.0206784147183E+00  1.3476294514210E-01 -5.6226446732137E-01 -2.1907852322862E-01
9  8.0000000000000E-02 -1.2346248998569E+00  1.7238986043625E-01 -6.4188266488295E-01 -2.4647446698712E-01
10  9.0000000000000E-02 -1.4307870581779E+00  2.1327018954273E-01 -6.8970986802076E-01 -2.5987349345354E-01
11  1.0000000000000E-01 -1.5984642784430E+00  2.5694679788711E-01 -6.9683981290625E-01 -2.5599797163675E-01
12  1.1000000000000E-01 -1.7288390845202E+00  3.0300466321884E-01 -6.5659429860397E-01 -2.3271662548353E-01
13  1.2000000000000E-01 -1.8154978781838E+00  3.5108650561302E-01 -5.6504786544743E-01 -1.8926471279879E-01
14  1.3000000000000E-01 -1.8547971469222E+00  4.0090360007557E-01 -4.2138244923130E-01 -1.2637415002276E-01
15  1.4000000000000E-01 -1.8460523544720E+00  4.5224109118993E-01 -2.2804772550687E-01 -4.6302850325114E-02
16  1.5000000000000E-01 -1.7915379742181E+00  5.0495748478778E-01  9.2849330821869E-03  4.7240829481838E-02
17  1.6000000000000E-01 -1.6962990994457E+00  5.5897836921501E-01  2.8197395490036E-01  1.4927568108977E-01
18  1.7000000000000E-01 -1.5677870128866E+00  6.1428479441048E-01  5.7885060119045E-01  2.5381759374826E-01
19  1.8000000000000E-01 -1.4153422654409E+00  6.7089708680408E-01  8.8682745654106E-01  3.5422592360464E-01
20  1.9000000000000E-01 -1.2495584937680E+00  7.2885517964969E-01  1.1916357523636E+00  4.4360508122855E-01
21  2.0000000000000E-01 -1.0815677855834E+00  7.8819677251831E-01  1.4786466170481E+00  5.1523620968981E-01
22  2.1000000000000E-01 -9.2229339942780E-01  8.4893478520539E-01  1.7337258599481E+00  5.6301150527317E-01
23  2.2000000000000E-01 -7.8171774471577E-01  9.1103563036748E-01  1.9440695535498E+00  5.8184317999206E-01
24  2.3000000000000E-01 -6.6821259344572E-01  9.7439979174350E-01  2.0989686314099E+00  5.6802032741321E-01
25  2.4000000000000E-01 -5.8797458421657E-01  1.0388460628788E+00  2.1904549140246E+00  5.1948996105263E-01
26  2.5000000000000E-01 -5.4460243750932E-01  1.1041005828788E+00  2.2137881524478E+00  4.3604306409528E-01
27  2.6000000000000E-01 -5.3884334679608E-01  1.1697915143746E+00  2.1677533943230E+00  3.1939233441416E-01
28  2.7000000000000E-01 -5.6852530757201E-01  1.2354498627250E+00  2.0547496236651E+00  1.7313505959163E-01
29  2.8000000000000E-01 -6.2868037141953E-01  1.3005165561335E+00  1.8806634771427E+00  2.6017820314532E-03
30  2.9000000000000E-01 -7.1185170830839E-01  1.3643555175828E+00  1.6545350929146E+00 -1.8540134943419E-01
31  3.0000000000000E-01 -8.0856569223055E-01  1.4262720856798E+00  1.3880359749604E+00 -3.8294186446433E-01
32  3.1000000000000E-01 -9.0793973031798E-01  1.4855358061116E+00  1.0947903547754E+00 -5.8138133022525E-01
33  3.2000000000000E-01 -9.9838789709352E-01  1.5414063395430E+00  7.8958117894189E-01 -7.7184161517497E-01
34  3.3000000000000E-01 -1.0683801607233E+00  1.5931610327447E+00  4.8748894377936E-01 -9.4568886234786E-01
35  3.4000000000000E-01 -1.1072074934092E+00  1.6401225900612E+00  2.0301569617093E-01 -1.0950057332313E+00
36  3.5000000000000E-01 -1.1057046639484E+00  1.6816852688773E+00 -5.0752630007409E-02 -1.2130231088825E+00
37  3.6000000000000E-01 -1.0568850476345E+00  1.7173381063377E+00 -2.6289481824712E-01 -1.2944848959888E+00
38  3.7000000000000E-01 -9.5644719591267E-01  1.7466838599369E+00 -4.2526877455121E-01 -1.3359237295059E+00
39  3.8000000000000E-01 -8.0312084301236E-01  1.7694526006454E+00 -5.3295495973441E-01 -1.3358309283518E+00
40  3.9000000000000E-01 -5.9882998697555E-01  1.7855092178439E+00 -5.8450269532408E-01 -1.2947106915876E+00
41  4.0000000000000E-01 -3.4866203847108E-01  1.7948544603345E+00 -5.8196539395411E-01 -1.2150157947803E+00
42  4.1000000000000E-01 -6.0644065291050E-02  1.7976195241391E+00 -5.3072378666184E-01 -1.1009694923041E+00