Og    ONCVPSP-4.0.1  r_core=   1.10631   1.10631   1.20296   1.30024
118.0000     58.0000      220208    zatom,zion,pspd
8      11   3     4   600     0    pspcod,pspxc,lmax,lloc,mmax,r2well
5.99000000  5.00000000  0.00000000    rchrg fchrg qchrg
4     6     5     3    nproj
3     1           extension_switch
6     4     4    nprojso
0                         1.6128911275692E+01 -1.3160029376981E+01 -2.7348452124071E+00  2.0129313324004E+00
1  0.0000000000000E+00 -8.2739996387637E-07  2.1421586615666E-08  7.4244812955371E-06 -7.7814571669554E-07
2  1.0000000000000E-02  2.1444823113947E-01  8.6560927943624E-02 -2.8977808052200E-01  7.0444081359943E-03
3  2.0000000000000E-02  4.2544014579347E-01  1.7293097702463E-01 -5.6545972791389E-01  1.2673890656748E-02
4  3.0000000000000E-02  6.2961894049944E-01  2.5891766549418E-01 -8.1368420117465E-01  1.5545822893002E-02
5  4.0000000000000E-02  8.2382234592262E-01  3.4432542372946E-01 -1.0225226901136E+00  1.4458235073552E-02
6  5.0000000000000E-02  1.0051689029820E+00  4.2895433891572E-01 -1.1820977845704E+00  8.4104984482089E-03
7  6.0000000000000E-02  1.1711317054067E+00  5.1259922923475E-01 -1.2850930167347E+00 -3.3469380352481E-03
8  7.0000000000000E-02  1.3195964844726E+00  5.9504913027276E-01 -1.3271252725952E+00 -2.1276415278848E-02
9  8.0000000000000E-02  1.4489017390677E+00  6.7608725493950E-01 -1.3069602930274E+00 -4.5532412439944E-02
10  9.0000000000000E-02  1.5578595588898E+00  7.5549146358205E-01 -1.2265599767114E+00 -7.5957368447559E-02
11  1.0000000000000E-01  1.6457567982330E+00  8.3303525445879E-01 -1.0909592940965E+00 -1.1209402951462E-01
12  1.1000000000000E-01  1.7123372767131E+00  9.0848925768377E-01 -9.0797982949597E-01 -1.5321343559306E-01
13  1.2000000000000E-01  1.7577666552427E+00  9.8162318955824E-01 -6.8779578660989E-01 -1.9835677268496E-01
14  1.3000000000000E-01  1.7825825071953E+00  1.0522082002243E+00 -4.4237624245183E-01 -2.4638853712568E-01
15  1.4000000000000E-01  1.7876328282787E+00  1.1200195270381E+00 -1.8483408430785E-01 -2.9605782763420E-01
16  1.5000000000000E-01  1.7740067649189E+00  1.1848393500128E+00  7.1282946288801E-02 -3.4606413757208E-01
17  1.6000000000000E-01  1.7429616612031E+00  1.2464597349391E+00  3.1272061927295E-01 -3.9512378909178E-01
18  1.7000000000000E-01  1.6958506121618E+00  1.3046855448814E+00  5.2722654316686E-01 -4.4203314594951E-01
19  1.8000000000000E-01  1.6340545629626E+00  1.3593372018942E+00  7.0420018474797E-01 -4.8572496279894E-01
20  1.9000000000000E-01  1.5589226193140E+00  1.4102531879186E+00  8.3524956932300E-01 -5.2531466270095E-01
21  2.0000000000000E-01  1.4717236566216E+00  1.4572921864887E+00  9.1462480408882E-01 -5.6013395585994E-01
22  2.1000000000000E-01  1.3736115681731E+00  1.5003347844129E+00  9.3950533551022E-01 -5.8974998475194E-01
23  2.2000000000000E-01  1.2656056193606E+00  1.5392846740480E+00  9.1012586310993E-01 -6.1396905850128E-01
24  2.3000000000000E-01  1.1485864261405E+00  1.5740693210052E+00  8.2973464800793E-01 -6.3282497102762E-01
25  2.4000000000000E-01  1.0233071062679E+00  1.6046400878268E+00  7.0438709321786E-01 -6.4655282832928E-01
26  2.5000000000000E-01  8.9041821700310E-01  1.6309718299998E+00  5.4258643527462E-01 -6.5555018547288E-01
27  2.6000000000000E-01  7.5050424658663E-01  1.6530620052577E+00  3.5479168497011E-01 -6.6032806178600E-01
28  2.7000000000000E-01  6.0412871727068E-01  1.6709293591932E+00  1.5282013739832E-01 -6.6145501795858E-01
29  2.8000000000000E-01  4.5188442563173E-01  1.6846122686112E+00 -5.0822551206312E-02 -6.5949790472626E-01
30  2.9000000000000E-01  2.9444502164635E-01  1.6941668378534E+00 -2.4364785686697E-01 -6.5496310402538E-01
31  3.0000000000000E-01  1.3261403001879E-01  1.6996648518380E+00 -4.1388674150102E-01 -6.4824206709115E-01
32  3.1000000000000E-01 -3.2632449000894E-02  1.7011916923677E+00 -5.5115042433927E-01 -6.3956471035895E-01
33  3.2000000000000E-01 -2.0011276438908E-01  1.6988443212776E+00 -6.4701349068629E-01 -6.2896377309433E-01
34  3.3000000000000E-01 -3.6841930877911E-01  1.6927294254351E+00 -6.9548757968586E-01 -6.1625259684684E-01
35  3.4000000000000E-01 -5.3591279455829E-01  1.6829618049740E+00 -6.9335993332195E-01 -6.0101799366730E-01
36  3.5000000000000E-01 -7.0073246256649E-01  1.6696630682370E+00 -6.4037851318609E-01 -5.8262897396355E-01
37  3.6000000000000E-01 -8.6082253371686E-01  1.6529606757147E+00 -5.3927378975202E-01 -5.6026115856364E-01
38  3.7000000000000E-01 -1.0139742476933E+00  1.6329873519964E+00 -3.9561621946997E-01 -5.3293575873995E-01
39  3.8000000000000E-01 -1.1578818966505E+00  1.6098808606690E+00 -2.1751735963300E-01 -4.9957112820312E-01
40  3.9000000000000E-01 -1.2902104093133E+00  1.5837841135480E+00 -1.5191042065954E-02 -4.5904412450025E-01
41  4.0000000000000E-01 -1.4086713210143E+00  1.5548455638947E+00  1.9960142613383E-01 -4.1025790939355E-01
42  4.1000000000000E-01 -1.5111034194257E+00  1.5232198145522E+00  4.1419185108727E-01 -3.5221240491839E-01
43  4.2000000000000E-01 -1.5955540154263E+00  1.4890683572483E+00  6.1569679515485E-01 -2.8407342871501E-01
44  4.3000000000000E-01 -1.6603566733967E+00  1.4525603494729E+00  7.9172289338043E-01 -2.0523657073983E-01
45  4.4000000000000E-01 -1.7042013520196E+00  1.4138733308771E+00  9.3104785456608E-01 -1.1538214168792E-01
46  4.5000000000000E-01 -1.7261932489411E+00  1.3731937823117E+00  1.0242406109796E+00 -1.4518005887458E-02
47  4.6000000000000E-01 -1.7258971911003E+00  1.3307174373736E+00  1.0641875023623E+00  9.6992220245284E-02
48  4.7000000000000E-01 -1.7033651361165E+00  1.2866492683019E+00  1.0464965713977E+00  2.1841730825785E-01
49  4.8000000000000E-01 -1.6591452078978E+00  1.2412030846239E+00  9.6975871432345E-01  3.4866368711419E-01
50  4.9000000000000E-01 -1.5942716330864E+00  1.1946007032303E+00  8.3565219804132E-01  4.8629767554066E-01
51  5.0000000000000E-01 -1.5102359209075E+00  1.1470706714588E+00  6.4888549261512E-01  6.2958356592268E-01
52  5.1000000000000E-01 -1.4089405825808E+00  1.0988465490993E+00  4.1698201066207E-01  7.7653557222365E-01
53  5.2000000000000E-01 -1.2926375643948E+00  1.0501647796880E+00  1.4991872088799E-01  9.2498089884916E-01
54  5.3000000000000E-01 -1.1638543221597E+00  1.0012622047598E+00 -1.4036174110737E-01  1.0726305972093E+00
55  5.4000000000000E-01 -1.0253110527776E+00  9.5237329563424E-01 -4.4053931459786E-01  1.2171544867105E+00
56  5.5000000000000E-01 -8.7983298962571E-01  9.0372719472869E-01 -7.3657390242024E-01  1.3562562496916E+00
57  5.6000000000000E-01 -7.3026184242619E-01  8.5554467140708E-01 -1.0143973748701E+00  1.4877448745444E+00
58  5.7000000000000E-01 -5.7937041200403E-01  8.0803510529605E-01 -1.2606042201258E+00  1.6095989129197E+00
59  5.8000000000000E-01 -4.2978414158307E-01  7.6139361242692E-01 -1.4631053782757E+00  1.7200205166679E+00
60  5.9000000000000E-01 -2.8391289736813E-01  7.1579842635563E-01 -1.6117121901749E+00  1.8174768963410E+00
61  6.0000000000000E-01 -1.4389563188802E-01  6.7140863773962E-01 -1.6986215172545E+00  1.9007276532057E+00
62  6.1000000000000E-01 -1.1559813314264E-02  6.2836238215125E-01 -1.7187786927631E+00  1.9688373299458E+00
63  6.2000000000000E-01  1.1160335069770E-01  5.8677554787694E-01 -1.6701017197152E+00  2.0211734455436E+00
64  6.3000000000000E-01  2.2444775418853E-01  5.4674105399840E-01 -1.5535576483377E+00  2.0573911694133E+00
65  6.4000000000000E-01  3.2616602782385E-01  5.0832872525145E-01 -1.3730899225964E+00  2.0774065926981E+00
66  6.5000000000000E-01  4.1626949605299E-01  4.7158576518847E-01 -1.1354032465854E+00  2.0813612199956E+00
67  6.6000000000000E-01  4.9455666955483E-01  4.3653780425704E-01 -8.4961976553298E-01  2.0695807903882E+00
68  6.7000000000000E-01  5.6107301720155E-01  4.0319047575290E-01 -5.2682669838129E-01  2.0425318114162E+00
69  6.8000000000000E-01  6.1606511101084E-01  3.7153145133430E-01 -1.7954067228466E-01  2.0007792356343E+00
70  6.9000000000000E-01  6.5993238776994E-01  3.4153284987956E-01  1.7888235671635E-01  1.9449485231309E+00
71  7.0000000000000E-01  6.9317971737392E-01  3.1315391973129E-01  5.3486072146742E-01  1.8756949261634E+00
72  7.1000000000000E-01  7.1637371812663E-01  2.8634388537448E-01  8.7519304286132E-01  1.7936822292734E+00
73  7.2000000000000E-01  7.3010533301028E-01  2.6104484567152E-01  1.1876268502289E+00  1.6995724182235E+00
74  7.3000000000000E-01  7.3496060843241E-01  2.3719461199603E-01  1.4613630139824E+00  1.5940268823578E+00
75  7.4000000000000E-01  7.3150093735076E-01  2.1472938078526E-01  1.6874734768751E+00  1.4777188340080E+00
76  7.5000000000000E-01  7.2025328705590E-01  1.9358614574571E-01  1.8592151304207E+00  1.3513557154789E+00
77  7.6000000000000E-01  7.0171017697285E-01  1.7370476956424E-01  1.9722287747159E+00  1.2157095198230E+00
78  7.7000000000000E-01  6.7633845258591E-01  1.5502965269310E-01  2.0246185580407E+00  1.0716522332896E+00
79  7.8000000000000E-01  6.4459526427834E-01  1.3751095665926E-01  2.0169137417796E+00  9.2019306521306E-01
80  7.9000000000000E-01  6.0694914516724E-01  1.2110536039438E-01  1.9519207136851E+00  7.6251380503608E-01
81  8.0000000000000E-01  5.6390372258455E-01  1.0577634926182E-01  1.8344785469892E+00  5.9999856305807E-01
82  8.1000000000000E-01  5.1602141611438E-01  9.1494056781018E-02  1.6711357963558E+00  4.3425432327969E-01
83  8.2000000000000E-01  4.6394448206469E-01  7.8234697602664E-02  1.4697694215124E+00  2.6711915947534E-01
84  8.3000000000000E-01  4.0841095874971E-01  6.5979646282119E-02  1.2391686005430E+00  1.0065561951143E-01
85  8.4000000000000E-01  3.5026343574682E-01  5.4714229202662E-02  9.8860668526041E-01 -6.2872366908395E-02
86  8.5000000000000E-01  2.9044908892898E-01  4.4426306166060E-02  7.2742369218358E-01 -2.2103970339994E-01
87  8.6000000000000E-01  2.3001005745091E-01  3.5104723444164E-02  4.6463962507401E-01 -3.7131702280712E-01
88  8.7000000000000E-01  1.7006394738160E-01  2.6737721419686E-02  2.0861576913649E-01 -5.1114270859355E-01
89  8.8000000000000E-01  1.1177498284440E-01  1.9311377475606E-02 -3.3222880016687E-02 -6.3800741715525E-01
90  8.9000000000000E-01  5.6317040925010E-02  1.2808158833987E-02 -2.5459541033613E-01 -7.4954751850655E-01
91  9.0000000000000E-01  4.8304539368633E-03  7.2056510567261E-03 -4.5049913335796E-01 -8.4364308846701E-01
92  9.1000000000000E-01 -4.1625001303239E-02  2.4755164795183E-03 -6.1727090167848E-01 -9.1851552817158E-01
93  9.2000000000000E-01 -8.2118119070674E-02 -1.4172763881788E-03 -7.5258080108658E-01 -9.7281959739844E-01
94  9.3000000000000E-01 -1.1589226338295E-01 -4.5149258029406E-03 -8.5536718623774E-01 -1.0057246527339E+00
95  9.4000000000000E-01 -1.4240630519499E-01 -6.8669601107950E-03 -9.2572500314988E-01 -1.0169801889120E+00
96  9.5000000000000E-01 -1.6136762624903E-01 -8.5300939673647E-03 -9.6476137533367E-01 -1.0069613830602E+00
97  9.6000000000000E-01 -1.7275467735434E-01 -9.5677935589761E-03 -9.7443344664566E-01 -9.7669121031028E-01
98  9.7000000000000E-01 -1.7682710603758E-01 -1.0049579130424E-02 -9.5738346538422E-01 -9.2783679339976E-01
99  9.8000000000000E-01 -1.7412213209920E-01 -1.0050103513956E-02 -9.1678512095991E-01 -8.6267891087585E-01
100  9.9000000000000E-01 -1.6543661121610E-01 -9.6480536871442E-03 -8.5621333304037E-01 -7.8405495406794E-01
101  1.0000000000000E+00 -1.5179502889879E-01 -8.9249276125840E-03 -7.7954710955018E-01 -6.9527696854139E-01
102  1.0100000000000E+00 -1.3440445656701E-01 -7.9637402354239E-03 -6.9091188307457E-01 -6.0002764278351E-01
103  1.0200000000000E+00 -1.1458970098157E-01 -6.8470057439363E-03 -5.9457544978723E-01 -5.0220045197785E-01
104  1.0300000000000E+00 -9.3701067859087E-02 -5.6530421056198E-03 -4.9466279792856E-01 -4.0564191044231E-01
105  1.0400000000000E+00 -7.3035270706001E-02 -4.4536004241427E-03 -3.9504867113732E-01 -3.1396498218346E-01
106  1.0500000000000E+00 -5.3767815787197E-02 -3.3123951304285E-03 -2.9936714649823E-01 -2.3041171100730E-01
107  1.0600000000000E+00 -3.6628064300317E-02 -2.2877611938490E-03 -2.1186789847273E-01 -1.5734056749034E-01
108  1.0700000000000E+00 -2.2199688252368E-02 -1.4251198750827E-03 -1.3631656910586E-01 -9.6631882884942E-02
109  1.0800000000000E+00 -1.1233031352483E-02 -7.5235336059766E-04 -7.4922845613104E-02 -5.0143015441641E-02
110  1.0900000000000E+00 -4.0568552761936E-03 -2.8858157883821E-04 -3.0160419969293E-02 -1.8839565193063E-02
111  1.1000000000000E+00 -5.5603827067570E-04 -4.2957392452881E-05 -4.7496847171996E-03 -2.7359481690982E-03
112  1.1100000000000E+00  2.4071834738560E-05  2.0033174302050E-06  2.3122916689633E-04  1.2505170025082E-04
113  1.1200000000000E+00  3.2966239814117E-07  2.5395283295957E-08  2.8000433574164E-06  1.6191781715958E-06
114  1.13  0.  0.  0.  0.
115  1.14  0.  0.  0.  0.
116  1.15  0.  0.  0.  0.
117  1.16  0.  0.  0.  0.
118  1.17  0.  0.  0.  0.
119  1.18  0.  0.  0.  0.
120  1.19  0.  0.  0.  0.
121  1.20  0.  0.  0.  0.
122  1.21  0.  0.  0.  0.
123  1.22  0.  0.  0.  0.
124  1.23  0.  0.  0.  0.
125  1.24  0.  0.  0.  0.
126  1.25  0.  0.  0.  0.
127  1.26  0.  0.  0.  0.
128  1.27  0.  0.  0.  0.
129  1.28  0.  0.  0.  0.
130  1.29  0.  0.  0.  0.
131  1.30  0.  0.  0.  0.
132  1.31  0.  0.  0.  0.
133  1.32  0.  0.  0.  0.
134  1.33  0.  0.  0.  0.
135  1.34  0.  0.  0.  0.
136  1.35  0.  0.  0.  0.
137  1.36  0.  0.  0.  0.
138  1.37  0.  0.  0.  0.
139  1.38  0.  0.  0.  0.
140  1.39  0.  0.  0.  0.
141  1.40  0.  0.  0.  0.
142  1.41  0.  0.  0.  0.
143  1.42  0.  0.  0.  0.
144  1.43  0.  0.  0.  0.
145  1.44  0.  0.  0.  0.
146  1.45  0.  0.  0.  0.
147  1.46  0.  0.  0.  0.
148  1.47  0.  0.  0.  0.
149  1.48  0.  0.  0.  0.
150  1.49  0.  0.  0.  0.
151  1.50  0.  0.  0.  0.
152  1.51  0.  0.  0.  0.
153  1.52  0.  0.  0.  0.
154  1.53  0.  0.  0.  0.
155  1.54  0.  0.  0.  0.
156  1.55  0.  0.  0.  0.
157  1.56  0.  0.  0.  0.
158  1.57  0.  0.  0.  0.
159  1.58  0.  0.  0.  0.
160  1.59  0.  0.  0.  0.
161  1.60  0.  0.  0.  0.
162  1.61  0.  0.  0.  0.
163  1.62  0.  0.  0.  0.
164  1.63  0.  0.  0.  0.
165  1.64  0.  0.  0.  0.
166  1.65  0.  0.  0.  0.
167  1.66  0.  0.  0.  0.
168  1.67  0.  0.  0.  0.
169  1.68  0.  0.  0.  0.
170  1.69  0.  0.  0.  0.
171  1.70  0.  0.  0.  0.
172  1.71  0.  0.  0.  0.
173  1.72  0.  0.  0.  0.
174  1.73  0.  0.  0.  0.
175  1.74  0.  0.  0.  0.
176  1.75  0.  0.  0.  0.
177  1.76  0.  0.  0.  0.
178  1.77  0.  0.  0.  0.
179  1.78  0.  0.  0.  0.
180  1.79  0.  0.  0.  0.
181  1.80  0.  0.  0.  0.
182  1.81  0.  0.  0.  0.
183  1.82  0.  0.  0.  0.
184  1.83  0.  0.  0.  0.
185  1.84  0.  0.  0.  0.
186  1.85  0.  0.  0.  0.
187  1.86  0.  0.  0.  0.
188  1.87  0.  0.  0.  0.
189  1.88  0.  0.  0.  0.
190  1.89  0.  0.  0.  0.
191  1.90  0.  0.  0.  0.
192  1.91  0.  0.  0.  0.
193  1.92  0.  0.  0.  0.
194  1.93  0.  0.  0.  0.
195  1.94  0.  0.  0.  0.
196  1.95  0.  0.  0.  0.
197  1.96  0.  0.  0.  0.
198  1.97  0.  0.  0.  0.
199  1.98  0.  0.  0.  0.
200  1.99  0.  0.  0.  0.
201  2.00  0.  0.  0.  0.
202  2.01  0.  0.  0.  0.
203  2.02  0.  0.  0.  0.
204  2.03  0.  0.  0.  0.
205  2.04  0.  0.  0.  0.
206  2.05  0.  0.  0.  0.
207  2.06  0.  0.  0.  0.
208  2.07  0.  0.  0.  0.
209  2.08  0.  0.  0.  0.
210  2.09  0.  0.  0.  0.
211  2.10  0.  0.  0.  0.
212  2.11  0.  0.  0.  0.
213  2.12  0.  0.  0.  0.
214  2.13  0.  0.  0.  0.
215  2.14  0.  0.  0.  0.
216  2.15  0.  0.  0.  0.
217  2.16  0.  0.  0.  0.
218  2.17  0.  0.  0.  0.
219  2.18  0.  0.  0.  0.
220  2.19  0.  0.  0.  0.
221  2.20  0.  0.  0.  0.
222  2.21  0.  0.  0.  0.
223  2.22  0.  0.  0.  0.
224  2.23  0.  0.  0.  0.
225  2.24  0.  0.  0.  0.
226  2.25  0.  0.  0.  0.
227  2.26  0.  0.  0.  0.
228  2.27  0.  0.  0.  0.
229  2.28  0.  0.  0.  0.
230  2.29  0.  0.  0.  0.
231  2.30  0.  0.  0.  0.
232  2.31  0.  0.  0.  0.
233  2.32  0.  0.  0.  0.
234  2.33  0.  0.  0.  0.
235  2.34  0.  0.  0.  0.
236  2.35  0.  0.  0.  0.
237  2.36  0.  0.  0.  0.
238  2.37  0.  0.  0.  0.
239  2.38  0.  0.  0.  0.
240  2.39  0.  0.  0.  0.
241  2.40  0.  0.  0.  0.
242  2.41  0.  0.  0.  0.
243  2.42  0.  0.  0.  0.
244  2.43  0.  0.  0.  0.
245  2.44  0.  0.  0.  0.
246  2.45  0.  0.  0.  0.
247  2.46  0.  0.  0.  0.
248  2.47  0.  0.  0.  0.
249  2.48  0.  0.  0.  0.
250  2.49  0.  0.  0.  0.
251  2.50  0.  0.  0.  0.
252  2.51  0.  0.  0.  0.
253  2.52  0.  0.  0.  0.
254  2.53  0.  0.  0.  0.
255  2.54  0.  0.  0.  0.
256  2.55  0.  0.  0.  0.
257  2.56  0.  0.  0.  0.
258  2.57  0.  0.  0.  0.
259  2.58  0.  0.  0.  0.
260  2.59  0.  0.  0.  0.
261  2.60  0.  0.  0.  0.
262  2.61  0.  0.  0.  0.
263  2.62  0.  0.  0.  0.
264  2.63  0.  0.  0.  0.
265  2.64  0.  0.  0.  0.
266  2.65  0.  0.  0.  0.
267  2.66  0.  0.  0.  0.
268  2.67  0.  0.  0.  0.
269  2.68  0.  0.  0.  0.
270  2.69  0.  0.  0.  0.
271  2.70  0.  0.  0.  0.
272  2.71  0.  0.  0.  0.
273  2.72  0.  0.  0.  0.
274  2.73  0.  0.  0.  0.
275  2.74  0.  0.  0.  0.
276  2.75  0.  0.  0.  0.
277  2.76  0.  0.  0.  0.
278  2.77  0.  0.  0.  0.
279  2.78  0.  0.  0.  0.
280  2.79  0.  0.  0.  0.
281  2.80  0.  0.  0.  0.
282  2.81  0.  0.  0.  0.
283  2.82  0.  0.  0.  0.
284  2.83  0.  0.  0.  0.
285  2.84  0.  0.  0.  0.
286  2.85  0.  0.  0.  0.
287  2.86  0.  0.  0.  0.
288  2.87  0.  0.  0.  0.
289  2.88  0.  0.  0.  0.
290  2.89  0.  0.  0.  0.
291  2.90  0.  0.  0.  0.
292  2.91  0.  0.  0.  0.
293  2.92  0.  0.  0.  0.
294  2.93  0.  0.  0.  0.
295  2.94  0.  0.  0.  0.
296  2.95  0.  0.  0.  0.
297  2.96  0.  0.  0.  0.
298  2.97  0.  0.  0.  0.
299  2.98  0.  0.  0.  0.
300  2.99  0.  0.  0.  0.
301  3.00  0.  0.  0.  0.
302  3.01  0.  0.  0.  0.
303  3.02  0.  0.  0.  0.
304  3.03  0.  0.  0.  0.
305  3.04  0.  0.  0.  0.
306  3.05  0.  0.  0.  0.
307  3.06  0.  0.  0.  0.
308  3.07  0.  0.  0.  0.
309  3.08  0.  0.  0.  0.
310  3.09  0.  0.  0.  0.
311  3.10  0.  0.  0.  0.
312  3.11  0.  0.  0.  0.
313  3.12  0.  0.  0.  0.
314  3.13  0.  0.  0.  0.
315  3.14  0.  0.  0.  0.
316  3.15  0.  0.  0.  0.
317  3.16  0.  0.  0.  0.
318  3.17  0.  0.  0.  0.
319  3.18  0.  0.  0.  0.
320  3.19  0.  0.  0.  0.
321  3.20  0.  0.  0.  0.
322  3.21  0.  0.  0.  0.
323  3.22  0.  0.  0.  0.
324  3.23  0.  0.  0.  0.
325  3.24  0.  0.  0.  0.
326  3.25  0.  0.  0.  0.
327  3.26  0.  0.  0.  0.
328  3.27  0.  0.  0.  0.
329  3.28  0.  0.  0.  0.
330  3.29  0.  0.  0.  0.
331  3.30  0.  0.  0.  0.
332  3.31  0.  0.  0.  0.
333  3.32  0.  0.  0.  0.
334  3.33  0.  0.  0.  0.
335  3.34  0.  0.  0.  0.
336  3.35  0.  0.  0.  0.
337  3.36  0.  0.  0.  0.
338  3.37  0.  0.  0.  0.
339  3.38  0.  0.  0.  0.
340  3.39  0.  0.  0.  0.
341  3.40  0.  0.  0.  0.
342  3.41  0.  0.  0.  0.
343  3.42  0.  0.  0.  0.
344  3.43  0.  0.  0.  0.
345  3.44  0.  0.  0.  0.
346  3.45  0.  0.  0.  0.
347  3.46  0.  0.  0.  0.
348  3.47  0.  0.  0.  0.
349  3.48  0.  0.  0.  0.
350  3.49  0.  0.  0.  0.
351  3.50  0.  0.  0.  0.
352  3.51  0.  0.  0.  0.
353  3.52  0.  0.  0.  0.
354  3.53  0.  0.  0.  0.
355  3.54  0.  0.  0.  0.
356  3.55  0.  0.  0.  0.
357  3.56  0.  0.  0.  0.
358  3.57  0.  0.  0.  0.
359  3.58  0.  0.  0.  0.
360  3.59  0.  0.  0.  0.
361  3.60  0.  0.  0.  0.
362  3.61  0.  0.  0.  0.
363  3.62  0.  0.  0.  0.
364  3.63  0.  0.  0.  0.
365  3.64  0.  0.  0.  0.
366  3.65  0.  0.  0.  0.
367  3.66  0.  0.  0.  0.
368  3.67  0.  0.  0.  0.
369  3.68  0.  0.  0.  0.
370  3.69  0.  0.  0.  0.
371  3.70  0.  0.  0.  0.
372  3.71  0.  0.  0.  0.
373  3.72  0.  0.  0.  0.
374  3.73  0.  0.  0.  0.
375  3.74  0.  0.  0.  0.
376  3.75  0.  0.  0.  0.
377  3.76  0.  0.  0.  0.
378  3.77  0.  0.  0.  0.
379  3.78  0.  0.  0.  0.
380  3.79  0.  0.  0.  0.
381  3.80  0.  0.  0.  0.
382  3.81  0.  0.  0.  0.
383  3.82  0.  0.  0.  0.
384  3.83  0.  0.  0.  0.
385  3.84  0.  0.  0.  0.
386  3.85  0.  0.  0.  0.
387  3.86  0.  0.  0.  0.
388  3.87  0.  0.  0.  0.
389  3.88  0.  0.  0.  0.
390  3.89  0.  0.  0.  0.
391  3.90  0.  0.  0.  0.
392  3.91  0.  0.  0.  0.
393  3.92  0.  0.  0.  0.
394  3.93  0.  0.  0.  0.
395  3.94  0.  0.  0.  0.
396  3.95  0.  0.  0.  0.
397  3.96  0.  0.  0.  0.
398  3.97  0.  0.  0.  0.
399  3.98  0.  0.  0.  0.
400  3.99  0.  0.  0.  0.
401  4.00  0.  0.  0.  0.
402  4.01  0.  0.  0.  0.
403  4.02  0.  0.  0.  0.
404  4.03  0.  0.  0.  0.
405  4.04  0.  0.  0.  0.
406  4.05  0.  0.  0.  0.
407  4.06  0.  0.  0.  0.
408  4.07  0.  0.  0.  0.
409  4.08  0.  0.  0.  0.
410  4.09  0.  0.  0.  0.
411  4.10  0.  0.  0.  0.
412  4.11  0.  0.  0.  0.
413  4.12  0.  0.  0.  0.
414  4.13  0.  0.  0.  0.
415  4.14  0.  0.  0.  0.
416  4.15  0.  0.  0.  0.
417  4.16  0.  0.  0.  0.
418  4.17  0.  0.  0.  0.
419  4.18  0.  0.  0.  0.
420  4.19  0.  0.  0.  0.
421  4.20  0.  0.  0.  0.
422  4.21  0.  0.  0.  0.
423  4.22  0.  0.  0.  0.
424  4.23  0.  0.  0.  0.
425  4.24  0.  0.  0.  0.
426  4.25  0.  0.  0.  0.
427  4.26  0.  0.  0.  0.
428  4.27  0.  0.  0.  0.
429  4.28  0.  0.  0.  0.
430  4.29  0.  0.  0.  0.
431  4.30  0.  0.  0.  0.
432  4.31  0.  0.  0.  0.
433  4.32  0.  0.  0.  0.
434  4.33  0.  0.  0.  0.
435  4.34  0.  0.  0.  0.
436  4.35  0.  0.  0.  0.
437  4.36  0.  0.  0.  0.
438  4.37  0.  0.  0.  0.
439  4.38  0.  0.  0.  0.
440  4.39  0.  0.  0.  0.
441  4.40  0.  0.  0.  0.
442  4.41  0.  0.  0.  0.
443  4.42  0.  0.  0.  0.
444  4.43  0.  0.  0.  0.
445  4.44  0.  0.  0.  0.
446  4.45  0.  0.  0.  0.
447  4.46  0.  0.  0.  0.
448  4.47  0.  0.  0.  0.
449  4.48  0.  0.  0.  0.
450  4.49  0.  0.  0.  0.
451  4.50  0.  0.  0.  0.
452  4.51  0.  0.  0.  0.
453  4.52  0.  0.  0.  0.
454  4.53  0.  0.  0.  0.
455  4.54  0.  0.  0.  0.
456  4.55  0.  0.  0.  0.
457  4.56  0.  0.  0.  0.
458  4.57  0.  0.  0.  0.
459  4.58  0.  0.  0.  0.
460  4.59  0.  0.  0.  0.
461  4.60  0.  0.  0.  0.
462  4.61  0.  0.  0.  0.
463  4.62  0.  0.  0.  0.
464  4.63  0.  0.  0.  0.
465  4.64  0.  0.  0.  0.
466  4.65  0.  0.  0.  0.
467  4.66  0.  0.  0.  0.
468  4.67  0.  0.  0.  0.
469  4.68  0.  0.  0.  0.
470  4.69  0.  0.  0.  0.
471  4.70  0.  0.  0.  0.
472  4.71  0.  0.  0.  0.
473  4.72  0.  0.  0.  0.
474  4.73  0.  0.  0.  0.
475  4.74  0.  0.  0.  0.
476  4.75  0.  0.  0.  0.
477  4.76  0.  0.  0.  0.
478  4.77  0.  0.  0.  0.
479  4.78  0.  0.  0.  0.
480  4.79  0.  0.  0.  0.
481  4.80  0.  0.  0.  0.
482  4.81  0.  0.  0.  0.
483  4.82  0.  0.  0.  0.
484  4.83  0.  0.  0.  0.
485  4.84  0.  0.  0.  0.
486  4.85  0.  0.  0.  0.
487  4.86  0.  0.  0.  0.
488  4.87  0.  0.  0.  0.
489  4.88  0.  0.  0.  0.
490  4.89  0.  0.  0.  0.
491  4.90  0.  0.  0.  0.
492  4.91  0.  0.  0.  0.
493  4.92  0.  0.  0.  0.
494  4.93  0.  0.  0.  0.
495  4.94  0.  0.  0.  0.
496  4.95  0.  0.  0.  0.
497  4.96  0.  0.  0.  0.
498  4.97  0.  0.  0.  0.
499  4.98  0.  0.  0.  0.
500  4.99  0.  0.  0.  0.
501  5.00  0.  0.  0.  0.
502  5.01  0.  0.  0.  0.
503  5.02  0.  0.  0.  0.
504  5.03  0.  0.  0.  0.
505  5.04  0.  0.  0.  0.
506  5.05  0.  0.  0.  0.
507  5.06  0.  0.  0.  0.
508  5.07  0.  0.  0.  0.
509  5.08  0.  0.  0.  0.
510  5.09  0.  0.  0.  0.
511  5.10  0.  0.  0.  0.
512  5.11  0.  0.  0.  0.
513  5.12  0.  0.  0.  0.
514  5.13  0.  0.  0.  0.
515  5.14  0.  0.  0.  0.
516  5.15  0.  0.  0.  0.
517  5.16  0.  0.  0.  0.
518  5.17  0.  0.  0.  0.
519  5.18  0.  0.  0.  0.
520  5.19  0.  0.  0.  0.
521  5.20  0.  0.  0.  0.
522  5.21  0.  0.  0.  0.
523  5.22  0.  0.  0.  0.
524  5.23  0.  0.  0.  0.
525  5.24  0.  0.  0.  0.
526  5.25  0.  0.  0.  0.
527  5.26  0.  0.  0.  0.
528  5.27  0.  0.  0.  0.
529  5.28  0.  0.  0.  0.
530  5.29  0.  0.  0.  0.
531  5.30  0.  0.  0.  0.
532  5.31  0.  0.  0.  0.
533  5.32  0.  0.  0.  0.
534  5.33  0.  0.  0.  0.
535  5.34  0.  0.  0.  0.
536  5.35  0.  0.  0.  0.
537  5.36  0.  0.  0.  0.
538  5.37  0.  0.  0.  0.
539  5.38  0.  0.  0.  0.
540  5.39  0.  0.  0.  0.
541  5.40  0.  0.  0.  0.
542  5.41  0.  0.  0.  0.
543  5.42  0.  0.  0.  0.
544  5.43  0.  0.  0.  0.
545  5.44  0.  0.  0.  0.
546  5.45  0.  0.  0.  0.
547  5.46  0.  0.  0.  0.
548  5.47  0.  0.  0.  0.
549  5.48  0.  0.  0.  0.
550  5.49  0.  0.  0.  0.
551  5.50  0.  0.  0.  0.
552  5.51  0.  0.  0.  0.
553  5.52  0.  0.  0.  0.
554  5.53  0.  0.  0.  0.
555  5.54  0.  0.  0.  0.
556  5.55  0.  0.  0.  0.
557  5.56  0.  0.  0.  0.
558  5.57  0.  0.  0.  0.
559  5.58  0.  0.  0.  0.
560  5.59  0.  0.  0.  0.
561  5.60  0.  0.  0.  0.
562  5.61  0.  0.  0.  0.
563  5.62  0.  0.  0.  0.
564  5.63  0.  0.  0.  0.
565  5.64  0.  0.  0.  0.
566  5.65  0.  0.  0.  0.
567  5.66  0.  0.  0.  0.
568  5.67  0.  0.  0.  0.
569  5.68  0.  0.  0.  0.
570  5.69  0.  0.  0.  0.
571  5.70  0.  0.  0.  0.
572  5.71  0.  0.  0.  0.
573  5.72  0.  0.  0.  0.
574  5.73  0.  0.  0.  0.
575  5.74  0.  0.  0.  0.
576  5.75  0.  0.  0.  0.
577  5.76  0.  0.  0.  0.
578  5.77  0.  0.  0.  0.
579  5.78  0.  0.  0.  0.
580  5.79  0.  0.  0.  0.
581  5.80  0.  0.  0.  0.
582  5.81  0.  0.  0.  0.
583  5.82  0.  0.  0.  0.
584  5.83  0.  0.  0.  0.
585  5.84  0.  0.  0.  0.
586  5.85  0.  0.  0.  0.
587  5.86  0.  0.  0.  0.
588  5.87  0.  0.  0.  0.
589  5.88  0.  0.  0.  0.
590  5.89  0.  0.  0.  0.
591  5.90  0.  0.  0.  0.
592  5.91  0.  0.  0.  0.
593  5.92  0.  0.  0.  0.
594  5.93  0.  0.  0.  0.
595  5.94  0.  0.  0.  0.
596  5.95  0.  0.  0.  0.
597  5.96  0.  0.  0.  0.
598  5.97  0.  0.  0.  0.
599  5.98  0.  0.  0.  0.
600  5.99  0.  0.  0.  0.
1                         8.9597284866023E+01 -1.0463617748229E+01  8.4928631025829E+00  1.5690372211176E+00 -3.7662495888171E-01 -9.3246760076709E-02
1  0.0000000000000E+00 -8.0811043068341E-06  1.6687839893281E-07 -3.2407290086189E-06 -1.4141839007609E-06 -2.4981635162180E-06 -7.3883003168795E-06
2  1.0000000000000E-02 -2.6398035289228E-02  3.0763378540790E-03  1.7197648786076E-03 -1.0653053548350E-02 -9.5151234379056E-03 -2.4043142493028E-02
3  2.0000000000000E-02 -1.0380503857894E-01  1.2253061516618E-02  7.3496145796045E-03 -4.2083003501783E-02 -3.7469135542284E-02 -9.4427337334043E-02
4  3.0000000000000E-02 -2.2697780682444E-01  2.7375834666350E-02  1.8256987664946E-02 -9.2726390678713E-02 -8.2125229115560E-02 -2.0602725828100E-01
5  4.0000000000000E-02 -3.8756365132580E-01  4.8195717059796E-02  3.6576690171646E-02 -1.6005681845550E-01 -1.4071057842714E-01 -3.5066177830817E-01
6  5.0000000000000E-02 -5.7465292082562E-01  7.4381053311639E-02  6.5005372680794E-02 -2.4069984697339E-01 -2.0959096967247E-01 -5.1761214070740E-01
7  6.0000000000000E-02 -7.7550138459832E-01  1.0553306943299E-01  1.0653478699912E-01 -3.3058576651527E-01 -2.8449952422380E-01 -6.9430198791361E-01
8  7.0000000000000E-02 -9.7637530409878E-01  1.4120421003841E-01  1.6414313285739E-01 -4.2513271482001E-01 -3.6080497641912E-01 -8.6709723571527E-01
9  8.0000000000000E-02 -1.1634639406339E+00  1.8091808225410E-01  2.4046704575904E-01 -5.1945118891765E-01 -4.3380246947208E-01 -1.0221763922102E+00
10  9.0000000000000E-02 -1.3237997318264E+00  2.2418977780922E-01  3.3747851423467E-01 -6.0856007947119E-01 -4.9900842753753E-01 -1.1464175916823E+00
11  1.0000000000000E-01 -1.4461257175038E+00  2.7054532858187E-01  4.5619112450287E-01 -6.8760396917602E-01 -5.5244083808629E-01 -1.2282476074169E+00
12  1.1000000000000E-01 -1.5216530550177E+00  3.1953911401026E-01  5.9641849402657E-01 -7.5206159902814E-01 -5.9086724930831E-01 -1.2584004810321E+00
13  1.2000000000000E-01 -1.5446584331452E+00  3.7076817720662E-01  7.5660466037556E-01 -7.9793609740360E-01 -6.1200488812064E-01 -1.2305390053466E+00
14  1.3000000000000E-01 -1.5128814325731E+00  4.2388261144279E-01  9.3374172702050E-01 -8.2191873574537E-01 -6.1466039816959E-01 -1.1417007679890E+00
15  1.4000000000000E-01 -1.4276947391584E+00  4.7859143679053E-01  1.1233845118314E+00 -8.2151954327282E-01 -5.9880058302051E-01 -9.9254127140308E-01
16  1.5000000000000E-01 -1.2940347738024E+00  5.3466368155294E-01  1.3197656479754E+00 -7.9515998106202E-01 -5.6554996534894E-01 -7.8735911410351E-01
17  1.6000000000000E-01 -1.1200958227443E+00  5.9192469582226E-01  1.5160079517796E+00 -7.4222492742398E-01 -5.1711565180133E-01 -5.3390156929593E-01
18  1.7000000000000E-01 -9.1680613951766E-01  6.5024803500379E-01  1.7044243241550E+00 -6.6307333822319E-01 -4.5664462280685E-01 -2.4296229925618E-01
19  1.8000000000000E-01 -6.9711875539190E-01  7.0954353954372E-01  1.8768894155626E+00 -5.5900899393692E-01 -3.8802284808506E-01  7.2204434223991E-02
20  1.9000000000000E-01 -4.7516195843514E-01  7.6974248489671E-01  2.0252621545988E+00 -4.3221461429554E-01 -3.1562928634120E-01  3.9661764031778E-01
21  2.0000000000000E-01 -2.6530378963862E-01  8.3078086706158E-01  2.1418343581754E+00 -2.8565421057188E-01 -2.4406062703686E-01  7.1440730213539E-01
22  2.1000000000000E-01 -8.1190843744381E-02  8.9258201151449E-01  2.2197782719452E+00 -1.2294977548309E-01 -1.7784439489391E-01  1.0097056103655E+00
23  2.2000000000000E-01  6.5176243069215E-02  9.5503973920176E-01  2.2535652045596E+00  5.1760772470931E-02 -1.2115865363751E-01  1.2675385024913E+00
24  2.3000000000000E-01  1.6427013816926E-01  1.0180032894533E+00  2.2393284851122E+00  2.3397709486505E-01 -7.7575979101426E-02  1.4746646494066E+00
25  2.4000000000000E-01  2.0971230417970E-01  1.0812650883886E+00  2.1751467463094E+00  4.1899414981164E-01 -4.9847665207924E-02  1.6203126409300E+00
26  2.5000000000000E-01  1.9875128666833E-01  1.1445522697386E+00  2.0612278652269E+00  6.0205733707214E-01 -3.9741396171343E-02  1.6967737228962E+00
27  2.6000000000000E-01  1.3251074351417E-01  1.2075226146320E+00  1.8999795282734E+00  7.7850909227943E-01 -4.7942047750483E-02  1.6998165941539E+00
28  2.7000000000000E-01  1.5988648763097E-02  1.2697652932328E+00  1.6959589923483E+00  9.4392201999400E-01 -7.4021107730890E-02  1.6289018863532E+00
29  2.8000000000000E-01 -1.4219513152164E-01  1.3308064823555E+00  1.4557017912133E+00  1.0942148998538E+00 -1.1647570790412E-01  1.4871863093413E+00
30  2.9000000000000E-01 -3.3028964981534E-01  1.3901196191829E+00  1.1874364466337E+00  1.2257492202431E+00 -1.7283373466897E-01  1.2813192627779E+00