Og    ONCVPSP-4.0.1  r_core=   1.40539   1.50098   1.55583   1.40539
118.0000     26.0000      220206    zatom,zion,pspd
8      11   3     4   600     0    pspcod,pspxc,lmax,lloc,mmax,r2well
5.99000000  5.00000000  0.00000000    rchrg fchrg qchrg
2     2     2     1     0    nproj
1     1           extension_switch
0                         1.1304144116055E+01 -4.5733048312364E-01
1  0.0000000000000E+00  5.5294469003542E-10  1.6198041852267E-08
2  1.0000000000000E-02  7.7557525326648E-02  1.8437985724566E-02
3  2.0000000000000E-02  1.5495156844156E-01  3.7120174139278E-02
4  3.0000000000000E-02  2.3201875659114E-01  5.6282398278878E-02
5  4.0000000000000E-02  3.0859594212088E-01  7.6143946889693E-02
6  5.0000000000000E-02  3.8452033033623E-01  9.6899775565359E-02
7  6.0000000000000E-02  4.5962962533236E-01  1.1871328593718E-01
8  7.0000000000000E-02  5.3376219911665E-01  1.4170984274208E-01
9  8.0000000000000E-02  6.0675728879489E-01  1.6597118239313E-01
10  9.0000000000000E-02  6.7845522592269E-01  1.9153084709293E-01
11  1.0000000000000E-01  7.4869770135105E-01  2.1837075597961E-01
12  1.1000000000000E-01  8.1732806803621E-01  2.4641899976520E-01
13  1.2000000000000E-01  8.8419168335504E-01  2.7554891835440E-01
14  1.3000000000000E-01  9.4913629148932E-01  3.0557949260236E-01
15  1.4000000000000E-01  1.0120124454334E+00  3.3627705229387E-01
16  1.5000000000000E-01  1.0726739671635E+00  3.6735827323328E-01
17  1.6000000000000E-01  1.1309784434998E+00  3.9849440765896E-01
18  1.7000000000000E-01  1.1867877542233E+00  4.2931666466064E-01
19  1.8000000000000E-01  1.2399686280870E+00  4.5942263148484E-01
20  1.9000000000000E-01  1.2903932215155E+00  4.8838360312849E-01
21  2.0000000000000E-01  1.3379397140304E+00  5.1575266695848E-01
22  2.1000000000000E-01  1.3824929137876E+00  5.4107337171705E-01
23  2.2000000000000E-01  1.4239448660777E+00  5.6388879656511E-01
24  2.3000000000000E-01  1.4621954572453E+00  5.8375082609053E-01
25  2.4000000000000E-01  1.4971530062156E+00  6.0022943169134E-01
26  2.5000000000000E-01  1.5287348357039E+00  6.1292175857116E-01
27  2.6000000000000E-01  1.5568678152136E+00  6.2146082079752E-01
28  2.7000000000000E-01  1.5814888681085E+00  6.2552361442228E-01
29  2.8000000000000E-01  1.6025454353691E+00  6.2483847039805E-01
30  2.9000000000000E-01  1.6199958891054E+00  6.1919148471036E-01
31  3.0000000000000E-01  1.6338098894912E+00  6.0843188245412E-01
32  3.1000000000000E-01  1.6439686794957E+00  5.9247619511098E-01
33  3.2000000000000E-01  1.6504653126016E+00  5.7131115555368E-01
34  3.3000000000000E-01  1.6533048096020E+00  5.4499524277273E-01
35  3.4000000000000E-01  1.6525042415410E+00  5.1365883740020E-01
36  3.5000000000000E-01  1.6480927368850E+00  4.7750297916441E-01
37  3.6000000000000E-01  1.6401114120648E+00  4.3679674779186E-01
38  3.7000000000000E-01  1.6286132255947E+00  3.9187331891428E-01
39  3.8000000000000E-01  1.6136627570211E+00  3.4312477557334E-01
40  3.9000000000000E-01  1.5953359129792E+00  2.9099578329974E-01
41  4.0000000000000E-01  1.5737195635979E+00  2.3597626186124E-01
42  4.1000000000000E-01  1.5489111133962E+00  1.7859320905834E-01
43  4.2000000000000E-01  1.5210180116184E+00  1.1940185088401E-01
44  4.3000000000000E-01  1.4901572076667E+00  5.8976307517233E-02
45  4.4000000000000E-01  1.4564545578768E+00 -2.1000243755369E-03
46  4.5000000000000E-01  1.4200441903499E+00 -6.3244165970558E-02
47  4.6000000000000E-01  1.3810678348825E+00 -1.2388311819950E-01
48  4.7000000000000E-01  1.3396741252313E+00 -1.8346308487994E-01
49  4.8000000000000E-01  1.2960178809984E+00 -2.4145815803094E-01
50  4.9000000000000E-01  1.2502593763415E+00 -2.9737827819220E-01
51  5.0000000000000E-01  1.2025636024900E+00 -3.5077629870428E-01
52  5.1000000000000E-01  1.1530995307024E+00 -4.0125400300727E-01
53  5.2000000000000E-01  1.1020393818396E+00 -4.4846694765636E-01
54  5.3000000000000E-01  1.0495579081599E+00 -4.9212803043421E-01
55  5.4000000000000E-01  9.9583169228980E-01 -5.3200971208575E-01
56  5.5000000000000E-01  9.4103846759755E-01 -5.6794485117763E-01
57  5.6000000000000E-01  8.8535646341810E-01 -5.9982614370687E-01
58  5.7000000000000E-01  8.2896377776730E-01 -6.2760419163799E-01
59  5.8000000000000E-01  7.7203777935821E-01 -6.5128425679902E-01
60  5.9000000000000E-01  7.1475453991625E-01 -6.7092178778212E-01
61  6.0000000000000E-01  6.5728829700160E-01 -6.8661683695215E-01
62  6.1000000000000E-01  5.9981094680646E-01 -6.9850751167828E-01
63  6.2000000000000E-01  5.4249156572049E-01 -7.0676262782795E-01
64  6.3000000000000E-01  4.8549595886549E-01 -7.1157375381609E-01
65  6.4000000000000E-01  4.2898623330660E-01 -7.1314684958201E-01
66  6.5000000000000E-01  3.7312039326224E-01 -7.1169371635231E-01
67  6.6000000000000E-01  3.1805195436999E-01 -7.0742347961928E-01
68  6.7000000000000E-01  2.6392957392641E-01 -7.0053432920763E-01
69  6.8000000000000E-01  2.1089669400866E-01 -6.9120573651468E-01
70  6.9000000000000E-01  1.5909119450575E-01 -6.7959136000483E-01
71  7.0000000000000E-01  1.0864505333348E-01 -6.6581283595135E-01
72  7.1000000000000E-01  5.9684011473514E-02 -6.4995463249218E-01
73  7.2000000000000E-01  1.2327240954114E-02 -6.3206012166687E-01
74  7.3000000000000E-01 -3.3312985534627E-02 -6.1212899668741E-01
75  7.4000000000000E-01 -7.7131624040170E-02 -5.9011613084049E-01
76  7.5000000000000E-01 -1.1903118768713E-01 -5.6593194076111E-01
77  7.6000000000000E-01 -1.5892207311344E-01 -5.3944428108692E-01
78  7.7000000000000E-01 -1.9672288336578E-01 -5.1048186047628E-01
79  7.8000000000000E-01 -2.3236074482078E-01 -4.7883913147335E-01
80  7.9000000000000E-01 -2.6577161492329E-01 -4.4428256957195E-01
81  8.0000000000000E-01 -2.9690057680073E-01 -4.0655822092227E-01
82  8.1000000000000E-01 -3.2570211614665E-01 -3.6540036427292E-01
83  8.2000000000000E-01 -3.5214037518748E-01 -3.2054110175147E-01
84  8.3000000000000E-01 -3.7618937807457E-01 -2.7172066571359E-01
85  8.4000000000000E-01 -3.9783322169612E-01 -2.1869820581955E-01
86  8.5000000000000E-01 -4.1706622569617E-01 -1.6126280232791E-01
87  8.6000000000000E-01 -4.3389303543217E-01 -9.9244438834127E-02
88  8.7000000000000E-01 -4.4832867170792E-01 -3.2524660715246E-02
89  8.8000000000000E-01 -4.6039852139012E-01  3.8953355358876E-02
90  8.9000000000000E-01 -4.7013826345607E-01  1.1517559018337E-01
91  9.0000000000000E-01 -4.7759372562420E-01  1.9604908686763E-01
92  9.1000000000000E-01 -4.8282066748255E-01  2.8139521200932E-01
93  9.2000000000000E-01 -4.8588448694181E-01  3.7094449003009E-01
94  9.3000000000000E-01 -4.8685984788614E-01  4.6433319870727E-01
95  9.4000000000000E-01 -4.8583022805747E-01  5.6110188025486E-01
96  9.5000000000000E-01 -4.8288738746839E-01  6.6069588438805E-01
97  9.6000000000000E-01 -4.7813075896957E-01  7.6246801840730E-01
98  9.7000000000000E-01 -4.7166676397514E-01  8.6568333526964E-01
99  9.8000000000000E-01 -4.6360805774485E-01  9.6952604482009E-01
100  9.9000000000000E-01 -4.5407271000638E-01  1.0731084867589E+00
101  1.0000000000000E+00 -4.4318332804431E-01  1.1754820575628E+00
102  1.0100000000000E+00 -4.3106613065519E-01  1.2756499383974E+00
103  1.0200000000000E+00 -4.1784998254090E-01  1.3725814281211E+00
104  1.0300000000000E+00 -4.0366539975590E-01  1.4652276457244E+00
105  1.0400000000000E+00 -3.8864353771538E-01  1.5525383308574E+00
106  1.0500000000000E+00 -3.7291517398322E-01  1.6334794403577E+00
107  1.0600000000000E+00 -3.5660969857311E-01  1.7070512136348E+00
108  1.0700000000000E+00 -3.3985412479642E-01  1.7723063609916E+00
109  1.0800000000000E+00 -3.2277213376162E-01  1.8283680170521E+00
110  1.0900000000000E+00 -3.0548316546740E-01  1.8744470967165E+00
111  1.1000000000000E+00 -2.8810156902635E-01  1.9098586937786E+00
112  1.1100000000000E+00 -2.7073582391697E-01  1.9340371724885E+00
113  1.1200000000000E+00 -2.5348784328394E-01  1.9465496200048E+00
114  1.1300000000000E+00 -2.3645236921590E-01  1.9471073523484E+00
115  1.1400000000000E+00 -2.1971646862333E-01  1.9355751981204E+00
116  1.1500000000000E+00 -2.0335913685956E-01  1.9119783218306E+00
117  1.1600000000000E+00 -1.8745101457289E-01  1.8765063921635E+00
118  1.1700000000000E+00 -1.7205422150681E-01  1.8295149482589E+00
119  1.1800000000000E+00 -1.5722230907393E-01  1.7715238691681E+00
120  1.1900000000000E+00 -1.4300033158986E-01  1.7032129059560E+00
121  1.2000000000000E+00 -1.2942503406421E-01  1.6254142924713E+00
122  1.2100000000000E+00 -1.1652515247552E-01  1.5391025075372E+00
123  1.2200000000000E+00 -1.0432182052337E-01  1.4453813176674E+00
124  1.2300000000000E+00 -9.2829074994725E-02  1.3454682841213E+00
125  1.2400000000000E+00 -8.2054450152779E-02  1.2406769696284E+00
126  1.2500000000000E+00 -7.1999649963531E-02  1.1323971281660E+00
127  1.2600000000000E+00 -6.2661285577284E-02  1.0220732038941E+00
128  1.2700000000000E+00 -5.4031664291385E-02  9.1118150234325E-01
129  1.2800000000000E+00 -4.6099615262140E-02  8.0120642739513E-01
130  1.2900000000000E+00 -3.8851336538936E-02  6.9361620048813E-01
131  1.3000000000000E+00 -3.2271247566101E-02  5.8983849365037E-01
132  1.3100000000000E+00 -2.6342830517487E-02  4.9123644248907E-01
133  1.3200000000000E+00 -2.1049452988548E-02  3.9908513738081E-01
134  1.3300000000000E+00 -1.6375110081587E-02  3.1455076782388E-01
135  1.3400000000000E+00 -1.2305682954862E-02  2.3864742329078E-01
136  1.3500000000000E+00 -8.8303918463402E-03  1.7216490553543E-01
137  1.3600000000000E+00 -5.9374299728488E-03  1.1587555876318E-01
138  1.3700000000000E+00 -3.6184513833212E-03  7.0381791125971E-02
139  1.3800000000000E+00 -1.8693184992410E-03  3.6081428384294E-02
140  1.3900000000000E+00 -6.8893176984962E-04  1.3139778785411E-02
141  1.4000000000000E+00 -9.2566403324579E-05  1.7363824673531E-03
142  1.4100000000000E+00  9.0826271414878E-06 -1.6836107663687E-04
143  1.4200000000000E+00 -2.1009935760631E-06  3.9239573850422E-05
144  1.43  0. -0.
145  1.44  0.  0.
146  1.45  0.  0.
147  1.46  0.  0.
148  1.47  0.  0.
149  1.48  0.  0.
150  1.49  0.  0.
151  1.50  0.  0.
152  1.51  0.  0.
153  1.52  0.  0.
154  1.53  0.  0.
155  1.54  0.  0.
156  1.55  0.  0.
157  1.56  0.  0.
158  1.57  0.  0.
159  1.58  0.  0.
160  1.59  0.  0.
161  1.60  0.  0.
162  1.61  0.  0.
163  1.62  0.  0.
164  1.63  0.  0.
165  1.64  0.  0.
166  1.65  0.  0.
167  1.66  0.  0.
168  1.67  0.  0.
169  1.68  0.  0.
170  1.69  0.  0.
171  1.70  0.  0.
172  1.71  0.  0.
173  1.72  0.  0.
174  1.73  0.  0.
175  1.74  0.  0.
176  1.75  0.  0.
177  1.76  0.  0.
178  1.77  0.  0.
179  1.78  0.  0.
180  1.79  0.  0.
181  1.80  0.  0.
182  1.81  0.  0.
183  1.82  0.  0.
184  1.83  0.  0.
185  1.84  0.  0.
186  1.85  0.  0.
187  1.86  0.  0.
188  1.87  0.  0.
189  1.88  0.  0.
190  1.89  0.  0.
191  1.90  0.  0.
192  1.91  0.  0.
193  1.92  0.  0.
194  1.93  0.  0.
195  1.94  0.  0.
196  1.95  0.  0.
197  1.96  0.  0.
198  1.97  0.  0.
199  1.98  0.  0.
200  1.99  0.  0.
201  2.00  0.  0.
202  2.01  0.  0.
203  2.02  0.  0.
204  2.03  0.  0.
205  2.04  0.  0.
206  2.05  0.  0.
207  2.06  0.  0.
208  2.07  0.  0.
209  2.08  0.  0.
210  2.09  0.  0.
211  2.10  0.  0.
212  2.11  0.  0.
213  2.12  0.  0.
214  2.13  0.  0.
215  2.14  0.  0.
216  2.15  0.  0.
217  2.16  0.  0.
218  2.17  0.  0.
219  2.18  0.  0.
220  2.19  0.  0.
221  2.20  0.  0.
222  2.21  0.  0.
223  2.22  0.  0.
224  2.23  0.  0.
225  2.24  0.  0.
226  2.25  0.  0.
227  2.26  0.  0.
228  2.27  0.  0.
229  2.28  0.  0.
230  2.29  0.  0.
231  2.30  0.  0.
232  2.31  0.  0.
233  2.32  0.  0.
234  2.33  0.  0.
235  2.34  0.  0.
236  2.35  0.  0.
237  2.36  0.  0.
238  2.37  0.  0.
239  2.38  0.  0.
240  2.39  0.  0.
241  2.40  0.  0.
242  2.41  0.  0.
243  2.42  0.  0.
244  2.43  0.  0.
245  2.44  0.  0.
246  2.45  0.  0.
247  2.46  0.  0.
248  2.47  0.  0.
249  2.48  0.  0.
250  2.49  0.  0.
251  2.50  0.  0.
252  2.51  0.  0.
253  2.52  0.  0.
254  2.53  0.  0.
255  2.54  0.  0.
256  2.55  0.  0.
257  2.56  0.  0.
258  2.57  0.  0.
259  2.58  0.  0.
260  2.59  0.  0.
261  2.60  0.  0.
262  2.61  0.  0.
263  2.62  0.  0.
264  2.63  0.  0.
265  2.64  0.  0.
266  2.65  0.  0.
267  2.66  0.  0.
268  2.67  0.  0.
269  2.68  0.  0.
270  2.69  0.  0.
271  2.70  0.  0.
272  2.71  0.  0.
273  2.72  0.  0.
274  2.73  0.  0.
275  2.74  0.  0.
276  2.75  0.  0.
277  2.76  0.  0.
278  2.77  0.  0.
279  2.78  0.  0.
280  2.79  0.  0.
281  2.80  0.  0.
282  2.81  0.  0.
283  2.82  0.  0.
284  2.83  0.  0.
285  2.84  0.  0.
286  2.85  0.  0.
287  2.86  0.  0.
288  2.87  0.  0.
289  2.88  0.  0.
290  2.89  0.  0.
291  2.90  0.  0.
292  2.91  0.  0.
293  2.92  0.  0.
294  2.93  0.  0.
295  2.94  0.  0.
296  2.95  0.  0.
297  2.96  0.  0.
298  2.97  0.  0.
299  2.98  0.  0.
300  2.99  0.  0.
301  3.00  0.  0.
302  3.01  0.  0.
303  3.02  0.  0.
304  3.03  0.  0.
305  3.04  0.  0.
306  3.05  0.  0.
307  3.06  0.  0.
308  3.07  0.  0.
309  3.08  0.  0.
310  3.09  0.  0.
311  3.10  0.  0.
312  3.11  0.  0.
313  3.12  0.  0.
314  3.13  0.  0.
315  3.14  0.  0.
316  3.15  0.  0.
317  3.16  0.  0.
318  3.17  0.  0.
319  3.18  0.  0.
320  3.19  0.  0.
321  3.20  0.  0.
322  3.21  0.  0.
323  3.22  0.  0.
324  3.23  0.  0.
325  3.24  0.  0.
326  3.25  0.  0.
327  3.26  0.  0.
328  3.27  0.  0.
329  3.28  0.  0.
330  3.29  0.  0.
331  3.30  0.  0.
332  3.31  0.  0.
333  3.32  0.  0.
334  3.33  0.  0.
335  3.34  0.  0.
336  3.35  0.  0.
337  3.36  0.  0.
338  3.37  0.  0.
339  3.38  0.  0.
340  3.39  0.  0.
341  3.40  0.  0.
342  3.41  0.  0.
343  3.42  0.  0.
344  3.43  0.  0.
345  3.44  0.  0.
346  3.45  0.  0.
347  3.46  0.  0.
348  3.47  0.  0.
349  3.48  0.  0.
350  3.49  0.  0.
351  3.50  0.  0.
352  3.51  0.  0.
353  3.52  0.  0.
354  3.53  0.  0.
355  3.54  0.  0.
356  3.55  0.  0.
357  3.56  0.  0.
358  3.57  0.  0.
359  3.58  0.  0.
360  3.59  0.  0.
361  3.60  0.  0.
362  3.61  0.  0.
363  3.62  0.  0.
364  3.63  0.  0.
365  3.64  0.  0.
366  3.65  0.  0.
367  3.66  0.  0.
368  3.67  0.  0.
369  3.68  0.  0.
370  3.69  0.  0.
371  3.70  0.  0.
372  3.71  0.  0.
373  3.72  0.  0.
374  3.73  0.  0.
375  3.74  0.  0.
376  3.75  0.  0.
377  3.76  0.  0.
378  3.77  0.  0.
379  3.78  0.  0.
380  3.79  0.  0.
381  3.80  0.  0.
382  3.81  0.  0.
383  3.82  0.  0.
384  3.83  0.  0.
385  3.84  0.  0.
386  3.85  0.  0.
387  3.86  0.  0.
388  3.87  0.  0.
389  3.88  0.  0.
390  3.89  0.  0.
391  3.90  0.  0.
392  3.91  0.  0.
393  3.92  0.  0.
394  3.93  0.  0.
395  3.94  0.  0.
396  3.95  0.  0.
397  3.96  0.  0.
398  3.97  0.  0.
399  3.98  0.  0.
400  3.99  0.  0.
401  4.00  0.  0.
402  4.01  0.  0.
403  4.02  0.  0.
404  4.03  0.  0.
405  4.04  0.  0.
406  4.05  0.  0.
407  4.06  0.  0.
408  4.07  0.  0.
409  4.08  0.  0.
410  4.09  0.  0.
411  4.10  0.  0.
412  4.11  0.  0.
413  4.12  0.  0.
414  4.13  0.  0.
415  4.14  0.  0.
416  4.15  0.  0.
417  4.16  0.  0.
418  4.17  0.  0.
419  4.18  0.  0.
420  4.19  0.  0.
421  4.20  0.  0.
422  4.21  0.  0.
423  4.22  0.  0.
424  4.23  0.  0.
425  4.24  0.  0.
426  4.25  0.  0.
427  4.26  0.  0.
428  4.27  0.  0.
429  4.28  0.  0.
430  4.29  0.  0.
431  4.30  0.  0.
432  4.31  0.  0.
433  4.32  0.  0.
434  4.33  0.  0.
435  4.34  0.  0.
436  4.35  0.  0.
437  4.36  0.  0.
438  4.37  0.  0.
439  4.38  0.  0.
440  4.39  0.  0.
441  4.40  0.  0.
442  4.41  0.  0.
443  4.42  0.  0.
444  4.43  0.  0.
445  4.44  0.  0.
446  4.45  0.  0.
447  4.46  0.  0.
448  4.47  0.  0.
449  4.48  0.  0.
450  4.49  0.  0.
451  4.50  0.  0.
452  4.51  0.  0.
453  4.52  0.  0.
454  4.53  0.  0.
455  4.54  0.  0.
456  4.55  0.  0.
457  4.56  0.  0.
458  4.57  0.  0.
459  4.58  0.  0.
460  4.59  0.  0.
461  4.60  0.  0.
462  4.61  0.  0.
463  4.62  0.  0.
464  4.63  0.  0.
465  4.64  0.  0.
466  4.65  0.  0.
467  4.66  0.  0.
468  4.67  0.  0.
469  4.68  0.  0.
470  4.69  0.  0.
471  4.70  0.  0.
472  4.71  0.  0.
473  4.72  0.  0.
474  4.73  0.  0.
475  4.74  0.  0.
476  4.75  0.  0.
477  4.76  0.  0.
478  4.77  0.  0.
479  4.78  0.  0.
480  4.79  0.  0.
481  4.80  0.  0.
482  4.81  0.  0.
483  4.82  0.  0.
484  4.83  0.  0.
485  4.84  0.  0.
486  4.85  0.  0.
487  4.86  0.  0.
488  4.87  0.  0.
489  4.88  0.  0.
490  4.89  0.  0.
491  4.90  0.  0.
492  4.91  0.  0.
493  4.92  0.  0.
494  4.93  0.  0.
495  4.94  0.  0.
496  4.95  0.  0.
497  4.96  0.  0.
498  4.97  0.  0.
499  4.98  0.  0.
500  4.99  0.  0.
501  5.00  0.  0.
502  5.01  0.  0.
503  5.02  0.  0.
504  5.03  0.  0.
505  5.04  0.  0.
506  5.05  0.  0.
507  5.06  0.  0.
508  5.07  0.  0.
509  5.08  0.  0.
510  5.09  0.  0.
511  5.10  0.  0.
512  5.11  0.  0.
513  5.12  0.  0.
514  5.13  0.  0.
515  5.14  0.  0.
516  5.15  0.  0.
517  5.16  0.  0.
518  5.17  0.  0.
519  5.18  0.  0.
520  5.19  0.  0.
521  5.20  0.  0.
522  5.21  0.  0.
523  5.22  0.  0.
524  5.23  0.  0.
525  5.24  0.  0.
526  5.25  0.  0.
527  5.26  0.  0.
528  5.27  0.  0.
529  5.28  0.  0.
530  5.29  0.  0.
531  5.30  0.  0.
532  5.31  0.  0.
533  5.32  0.  0.
534  5.33  0.  0.
535  5.34  0.  0.
536  5.35  0.  0.
537  5.36  0.  0.
538  5.37  0.  0.
539  5.38  0.  0.
540  5.39  0.  0.
541  5.40  0.  0.
542  5.41  0.  0.
543  5.42  0.  0.
544  5.43  0.  0.
545  5.44  0.  0.
546  5.45  0.  0.
547  5.46  0.  0.
548  5.47  0.  0.
549  5.48  0.  0.
550  5.49  0.  0.
551  5.50  0.  0.
552  5.51  0.  0.
553  5.52  0.  0.
554  5.53  0.  0.
555  5.54  0.  0.
556  5.55  0.  0.
557  5.56  0.  0.
558  5.57  0.  0.
559  5.58  0.  0.
560  5.59  0.  0.
561  5.60  0.  0.
562  5.61  0.  0.
563  5.62  0.  0.
564  5.63  0.  0.
565  5.64  0.  0.
566  5.65  0.  0.
567  5.66  0.  0.
568  5.67  0.  0.
569  5.68  0.  0.
570  5.69  0.  0.
571  5.70  0.  0.
572  5.71  0.  0.
573  5.72  0.  0.
574  5.73  0.  0.
575  5.74  0.  0.
576  5.75  0.  0.
577  5.76  0.  0.
578  5.77  0.  0.
579  5.78  0.  0.
580  5.79  0.  0.
581  5.80  0.  0.
582  5.81  0.  0.
583  5.82  0.  0.
584  5.83  0.  0.
585  5.84  0.  0.
586  5.85  0.  0.
587  5.86  0.  0.
588  5.87  0.  0.
589  5.88  0.  0.
590  5.89  0.  0.
591  5.90  0.  0.
592  5.91  0.  0.
593  5.92  0.  0.
594  5.93  0.  0.
595  5.94  0.  0.
596  5.95  0.  0.
597  5.96  0.  0.
598  5.97  0.  0.
599  5.98  0.  0.
600  5.99  0.  0.
1                         1.0629720249593E+01  1.5226282552380E+00
1  0.0000000000000E+00 -4.2186419912937E-09  1.1125215304553E-08
2  1.0000000000000E-02  1.5061360033185E-03 -2.6238122613775E-04
3  2.0000000000000E-02  6.0226068253789E-03 -1.0561813221899E-03
4  3.0000000000000E-02  1.3543510708898E-02 -2.4011024324576E-03
5  4.0000000000000E-02  2.4058713316215E-02 -4.3290978770239E-03
6  5.0000000000000E-02  3.7553409551037E-02 -6.8830703272040E-03
7  6.0000000000000E-02  5.4007527767305E-02 -1.0115095806056E-02
8  7.0000000000000E-02  7.3394993534210E-02 -1.4084218780293E-02
9  8.0000000000000E-02  9.5682874345058E-02 -1.8853874735153E-02
10  9.0000000000000E-02  1.2083043038159E-01 -2.4489006446931E-02
11  1.0000000000000E-01  1.4878809958766E-01 -3.1052948460954E-02
12  1.1000000000000E-01  1.7949644779216E-01 -3.8604160849490E-02
13  1.2000000000000E-01  2.1288511638997E-01 -4.7192898007004E-02
14  1.3000000000000E-01  2.4887180109866E-01 -5.6857900924511E-02
15  1.4000000000000E-01  2.8736129552775E-01 -6.7623201998756E-02
16  1.5000000000000E-01  3.2824463271896E-01 -7.9495129951289E-02
17  1.6000000000000E-01  3.7139835644537E-01 -9.2459598879308E-02
18  1.7000000000000E-01  4.1668395192200E-01 -1.0647975990291E-01
19  1.8000000000000E-01  4.6394746272029E-01 -1.2149408642660E-01
20  1.9000000000000E-01  5.1301931715517E-01 -1.3741495485344E-01
21  2.0000000000000E-01  5.6371438329818E-01 -1.5412777187550E-01
22  2.1000000000000E-01  6.1583226715097E-01 -1.7149068744595E-01
23  2.2000000000000E-01  6.6915786349078E-01 -1.8933491948075E-01
24  2.3000000000000E-01  7.2346216357997E-01 -2.0746570252916E-01
25  2.4000000000000E-01  7.7850331843331E-01 -2.2566385839933E-01
26  2.5000000000000E-01  8.3402795077928E-01 -2.4368797234866E-01
27  2.6000000000000E-01  8.8977270335805E-01 -2.6127714427198E-01
28  2.7000000000000E-01  9.4546600589274E-01 -2.7815427066782E-01
29  2.8000000000000E-01  1.0008300380701E+00 -2.9402980034786E-01
30  2.9000000000000E-01  1.0555828612865E+00 -3.0860589517404E-01
31  3.0000000000000E-01  1.1094406878597E+00 -3.2158091683876E-01
32  3.1000000000000E-01  1.1621202529715E+00 -3.3265415208968E-01
33  3.2000000000000E-01  1.2133412518703E+00 -3.4153068205553E-01
34  3.3000000000000E-01  1.2628288029000E+00 -3.4792629662268E-01
35  3.4000000000000E-01  1.3103158957681E+00 -3.5157235227269E-01
36  3.5000000000000E-01  1.3555457841757E+00 -3.5222047149861E-01
37  3.6000000000000E-01  1.3982742824980E+00 -3.4964698390357E-01
38  3.7000000000000E-01  1.4382719276356E+00 -3.4365701332933E-01
39  3.8000000000000E-01  1.4753259694269E+00 -3.3408812179484E-01
40  3.9000000000000E-01  1.5092421560763E+00 -3.2081342952524E-01
41  4.0000000000000E-01  1.5398462848496E+00 -3.0374414075264E-01
42  4.1000000000000E-01  1.5669854927500E+00 -2.8283141705935E-01
43  4.2000000000000E-01  1.5905292669083E+00 -2.5806755355993E-01
44  4.3000000000000E-01  1.6103701599052E+00 -2.2948642789335E-01
45  4.4000000000000E-01  1.6264242010724E+00 -1.9716320750403E-01
46  4.5000000000000E-01  1.6386310008603E+00 -1.6121331669318E-01
47  4.6000000000000E-01  1.6469535514950E+00 -1.2179068106383E-01
48  4.7000000000000E-01  1.6513777332261E+00 -7.9085282906009E-02
49  4.8000000000000E-01  1.6519115413677E+00 -3.3320076408657E-02
50  4.9000000000000E-01  1.6485840549158E+00  1.5252674006535E-02
51  5.0000000000000E-01  1.6414441726684E+00  6.6355555795554E-02
52  5.1000000000000E-01  1.6305591473541E+00  1.1969058285397E-01
53  5.2000000000000E-01  1.6160129521878E+00  1.7494408483855E-01
54  5.3000000000000E-01  1.5979045174296E+00  2.3179180595998E-01
55  5.4000000000000E-01  1.5763458768409E+00  2.8990410266071E-01
56  5.5000000000000E-01  1.5514602653567E+00  3.4895112674264E-01
57  5.6000000000000E-01  1.5233802097840E+00  4.0860788020472E-01
58  5.7000000000000E-01  1.4922456538766E+00  4.6855903032869E-01
59  5.8000000000000E-01  1.4582021577263E+00  5.2850337839619E-01
60  5.9000000000000E-01  1.4213992090746E+00  5.8815788275470E-01
61  6.0000000000000E-01  1.3819886809356E+00  6.4726114664098E-01
62  6.1000000000000E-01  1.3401234658921E+00  7.0557629303151E-01
63  6.2000000000000E-01  1.2959563126696E+00  7.6289316257788E-01
64  6.3000000000000E-01  1.2496388852116E+00  8.1902978611724E-01
65  6.4000000000000E-01  1.2013210585875E+00  8.7383309999323E-01
66  6.5000000000000E-01  1.1511504598007E+00  9.2717889012052E-01
67  6.6000000000000E-01  1.0992722550623E+00  9.7897096898454E-01
68  6.7000000000000E-01  1.0458291785101E+00  1.0291396081808E+00
69  6.8000000000000E-01  9.9096179083384E-01  1.0776392672453E+00
70  6.9000000000000E-01  9.3480894997099E-01  1.1244456769923E+00
71  7.0000000000000E-01  8.7750847010882E-01  1.1695523519430E+00
72  7.1000000000000E-01  8.1919793982110E-01  1.2129666213168E+00
73  7.2000000000000E-01  7.6001566540625E-01  1.2547052810842E+00
74  7.3000000000000E-01  7.0010170150774E-01  1.2947899804395E+00
75  7.4000000000000E-01  6.3959892798910E-01  1.3332424644331E+00
76  7.5000000000000E-01  5.7865412989429E-01  1.3700798001949E+00
77  7.6000000000000E-01  5.1741903621523E-01  1.4053097169870E+00
78  7.7000000000000E-01  4.5605127315794E-01  1.4389261901417E+00
79  7.8000000000000E-01  3.9471518866610E-01  1.4709053957100E+00
80  7.9000000000000E-01  3.3358250712208E-01  1.5012021563916E+00
81  8.0000000000000E-01  2.7283277637217E-01  1.5297469901211E+00
82  8.1000000000000E-01  2.1265357345883E-01  1.5564438606964E+00
83  8.2000000000000E-01  1.5324044061244E-01  1.5811687152835E+00
84  8.3000000000000E-01  9.4796529054828E-02  1.6037688767862E+00
85  8.4000000000000E-01  3.7531934878004E-02  1.6240633402683E+00
86  8.5000000000000E-01 -1.8337281458876E-02  1.6418440022572E+00
87  8.6000000000000E-01 -7.2590392776318E-02  1.6568778302483E+00
88  8.7000000000000E-01 -1.2500361278647E-01  1.6689099575544E+00
89  8.8000000000000E-01 -1.7535199848110E-01  1.6776676662709E+00
90  8.9000000000000E-01 -2.2341162420784E-01  1.6828651990645E+00
91  9.0000000000000E-01 -2.6896199674362E-01  1.6842093192341E+00
92  9.1000000000000E-01 -3.1178867354448E-01  1.6814055185378E+00
93  9.2000000000000E-01 -3.5168603986893E-01  1.6741647540915E+00
94  9.3000000000000E-01 -3.8846019479781E-01  1.6622105796733E+00
95  9.4000000000000E-01 -4.2193189145433E-01  1.6452865234078E+00
96  9.5000000000000E-01 -4.5193947309179E-01  1.6231635534107E+00
97  9.6000000000000E-01 -4.7834174426997E-01  1.5956474658333E+00
98  9.7000000000000E-01 -5.0102071516591E-01  1.5625860260885E+00
99  9.8000000000000E-01 -5.1988415721792E-01  1.5238756940125E+00
100  9.9000000000000E-01 -5.3486790981043E-01  1.4794677674030E+00
101  1.0000000000000E+00 -5.4593788056661E-01  1.4293737857548E+00
102  1.0100000000000E+00 -5.5309168600128E-01  1.3736700470270E+00
103  1.0200000000000E+00 -5.5635988473083E-01  1.3125011047351E+00
104  1.0300000000000E+00 -5.5580676205027E-01  1.2460821303240E+00
105  1.0400000000000E+00 -5.5153063235834E-01  1.1747000463438E+00
106  1.0500000000000E+00 -5.4366363449763E-01  1.0987133590255E+00
107  1.0600000000000E+00 -5.3237100439601E-01  1.0185506439525E+00
108  1.0700000000000E+00 -5.1784981930165E-01  9.3470766523872E-01
109  1.0800000000000E+00 -5.0032721815596E-01  8.4774313630839E-01
110  1.0900000000000E+00 -4.8005811305948E-01  7.5827315851142E-01
111  1.1000000000000E+00 -4.5732241715159E-01  6.6696440185178E-01
112  1.1100000000000E+00 -4.3242182426992E-01  5.7452611930099E-01
113  1.1200000000000E+00 -4.0567618535547E-01  4.8170111218102E-01
114  1.1300000000000E+00 -3.7741953539676E-01  3.8925578803624E-01
115  1.1400000000000E+00 -3.4799583268988E-01  2.9796947408074E-01
116  1.1500000000000E+00 -3.1775447902405E-01  2.0862316787016E-01
117  1.1600000000000E+00 -2.8704569503678E-01  1.2198792217718E-01
118  1.1700000000000E+00 -2.5621582918132E-01  3.8813072501466E-02
119  1.1800000000000E+00 -2.2560268148239E-01 -4.0185476864796E-02
120  1.1900000000000E+00 -1.9553092438684E-01 -1.1433668913544E-01
121  1.2000000000000E+00 -1.6630770252567E-01 -1.8302533583896E-01
122  1.2100000000000E+00 -1.3821849107011E-01 -2.4570222995378E-01
123  1.2200000000000E+00 -1.1152328861118E-01 -3.0189354924091E-01
124  1.2300000000000E+00 -8.6453215143964E-02 -3.5120906201263E-01
125  1.2400000000000E+00 -6.3207578963956E-02 -3.9334908580264E-01
126  1.2500000000000E+00 -4.1951468070389E-02 -4.2811003152308E-01
127  1.2600000000000E+00 -2.2813912302788E-02 -4.5538841094097E-01
128  1.2700000000000E+00 -5.8866520343805E-03 -4.7518321335230E-01
129  1.2800000000000E+00  8.7764620576421E-03 -4.8759658781397E-01
130  1.2900000000000E+00  2.1159425474256E-02 -4.9283279925071E-01
131  1.3000000000000E+00  3.1283392204084E-02 -4.9119545978157E-01
132  1.3100000000000E+00  3.9205354878269E-02 -4.8308307016813E-01
133  1.3200000000000E+00  4.5016217056635E-02 -4.6898293936676E-01
134  1.3300000000000E+00  4.8838293832040E-02 -4.4946358224965E-01
135  1.3400000000000E+00  5.0822288320250E-02 -4.2516572622659E-01
136  1.3500000000000E+00  5.1143802053733E-02 -3.9679208564674E-01
137  1.3600000000000E+00  4.9999446746577E-02 -3.6509608828680E-01
138  1.3700000000000E+00  4.7602633059837E-02 -3.3086976017074E-01
139  1.3800000000000E+00  4.4179118785209E-02 -2.9493099317965E-01
140  1.3900000000000E+00  3.9962404885808E-02 -2.5811043651794E-01
141  1.4000000000000E+00  3.5189065339822E-02 -2.2123823378040E-01
142  1.4100000000000E+00  3.0094080575157E-02 -1.8513088224585E-01
143  1.4200000000000E+00  2.4905377044538E-02 -1.5057504778782E-01
144  1.4300000000000E+00  1.9832440574539E-02 -1.1829632274192E-01
145  1.4400000000000E+00  1.5047564306631E-02 -8.8914051207287E-02
146  1.4500000000000E+00  1.0723646193400E-02 -6.3020388628874E-02
147  1.4600000000000E+00  7.0099674892785E-03 -4.1127471350316E-02
148  1.4700000000000E+00  4.0215475092407E-03 -2.3642718230699E-02
149  1.4800000000000E+00  1.8377521687092E-03 -1.0866964826518E-02
150  1.4900000000000E+00  4.9384686315415E-04 -2.9480303386297E-03
151  1.5000000000000E+00  1.2161393656567E-05 -7.3625760280535E-05
152  1.5100000000000E+00  3.3345169048194E-08 -2.0086551213564E-07
153  1.5200000000000E+00 -3.2563217616353E-07  1.9497610020704E-06
154  1.53 -0.  0.
155  1.54  0.  0.
156  1.55  0.  0.
157  1.56  0.  0.
158  1.57  0.  0.
159  1.58  0.  0.
160  1.59  0.  0.
161  1.60  0.  0.
162  1.61  0.  0.
163  1.62  0.  0.
164  1.63  0.  0.
165  1.64  0.  0.
166  1.65  0.  0.
167  1.66  0.  0.
168  1.67  0.  0.
169  1.68  0.  0.
170  1.69  0.  0.
171  1.70  0.  0.
172  1.71  0.  0.
173  1.72  0.  0.
174  1.73  0.  0.
175  1.74  0.  0.
176  1.75  0.  0.
177  1.76  0.  0.
178  1.77  0.  0.
179  1.78  0.  0.
180  1.79  0.  0.
181  1.80  0.  0.
182  1.81  0.  0.
183  1.82  0.  0.
184  1.83  0.  0.
185  1.84  0.  0.
186  1.85  0.  0.
187  1.86  0.  0.
188  1.87  0.  0.
189  1.88  0.  0.
190  1.89  0.  0.
191  1.90  0.  0.
192  1.91  0.  0.
193  1.92  0.  0.
194  1.93  0.  0.
195  1.94  0.  0.
196  1.95  0.  0.
197  1.96  0.  0.
198  1.97  0.  0.
199  1.98  0.  0.
200  1.99  0.  0.
201  2.00  0.  0.
202  2.01  0.  0.
203  2.02  0.  0.
204  2.03  0.  0.
205  2.04  0.  0.
206  2.05  0.  0.
207  2.06  0.  0.
208  2.07  0.  0.
209  2.08  0.  0.
210  2.09  0.  0.
211  2.10  0.  0.
212  2.11  0.  0.
213  2.12  0.  0.
214  2.13  0.  0.
215  2.14  0.  0.
216  2.15  0.  0.
217  2.16  0.  0.
218  2.17  0.  0.
219  2.18  0.  0.
220  2.19  0.  0.
221  2.20  0.  0.
222  2.21  0.  0.
223  2.22  0.  0.
224  2.23  0.  0.
225  2.24  0.  0.
226  2.25  0.  0.
227  2.26  0.  0.
228  2.27  0.  0.
229  2.28  0.  0.
230  2.29  0.  0.
231  2.30  0.  0.
232  2.31  0.  0.
233  2.32  0.  0.
234  2.33  0.  0.
235  2.34  0.  0.
236  2.35  0.  0.
237  2.36  0.  0.
238  2.37  0.  0.
239  2.38  0.  0.
240  2.39  0.  0.
241  2.40  0.  0.
242  2.41  0.  0.
243  2.42  0.  0.
244  2.43  0.  0.
245  2.44  0.  0.
246  2.45  0.  0.
247  2.46  0.  0.