Og    ONCVPSP-4.0.1  r_core=   1.60307   1.60307   1.60307
    118.0000     26.0000      211120    zatom,zion,pspd
     8      11   2     4   600     0    pspcod,pspxc,lmax,lloc,mmax,r2well
  5.99000000  5.00000000  0.00000000    rchrg fchrg qchrg
     2     2     2     0     0    nproj
     1     1           extension_switch
   0                         7.3009989589297E+00 -1.0143107062252E+00
     1  0.0000000000000E+00  1.9216273017264E-10  3.2811622863171E-10
     2  1.0000000000000E-02  8.2171085450101E-02  1.5511326434323E-02
     3  2.0000000000000E-02  1.6412936539261E-01  3.1037182631452E-02
     4  3.0000000000000E-02  2.4566253493221E-01  4.6591815870205E-02
     5  4.0000000000000E-02  3.2655929154236E-01  6.2188913464410E-02
     6  5.0000000000000E-02  4.0660983906006E-01  7.7841335202352E-02
     7  6.0000000000000E-02  4.8560639491301E-01  9.3560860454492E-02
     8  7.0000000000000E-02  5.6334370142605E-01  1.0935795444638E-01
     9  8.0000000000000E-02  6.3961954186180E-01  1.2524155786550E-01
    10  9.0000000000000E-02  7.1423526161653E-01  1.4121890357099E-01
    11  1.0000000000000E-01  7.8699629472215E-01  1.5729536371013E-01
    12  1.1000000000000E-01  8.5771269550244E-01  1.7347433002297E-01
    13  1.2000000000000E-01  9.2619967490288E-01  1.8975712954522E-01
    14  1.3000000000000E-01  9.9227814066433E-01  2.0614297730893E-01
    15  1.4000000000000E-01  1.0557752401480E+00  2.2262896700044E-01
    16  1.5000000000000E-01  1.1165249042502E+00  2.3921009987689E-01
    17  1.6000000000000E-01  1.1743683904756E+00  2.5587935157635E-01
    18  1.7000000000000E-01  1.2291548228774E+00  2.7262777579415E-01
    19  1.8000000000000E-01  1.2807417262257E+00  2.8944464315006E-01
    20  1.9000000000000E-01  1.3289955514412E+00  3.0631761294861E-01
    21  2.0000000000000E-01  1.3737921890341E+00  3.2323293494823E-01
    22  2.1000000000000E-01  1.4150174670292E+00  3.4017567771460E-01
    23  2.2000000000000E-01  1.4525676296354E+00  3.5712997964804E-01
    24  2.3000000000000E-01  1.4863497927461E+00  3.7407931835306E-01
    25  2.4000000000000E-01  1.5162823722308E+00  3.9100679366716E-01
    26  2.5000000000000E-01  1.5422954809125E+00  4.0789541939198E-01
    27  2.6000000000000E-01  1.5643312901109E+00  4.2472841857783E-01
    28  2.7000000000000E-01  1.5823443516822E+00  4.4148951710633E-01
    29  2.8000000000000E-01  1.5963018765940E+00  4.5816323029743E-01
    30  2.9000000000000E-01  1.6061839662430E+00  4.7473513733686E-01
    31  3.0000000000000E-01  1.6119837929565E+00  4.9119213847857E-01
    32  3.1000000000000E-01  1.6137077264025E+00  5.0752269022027E-01
    33  3.2000000000000E-01  1.6113754029828E+00  5.2371701397690E-01
    34  3.3000000000000E-01  1.6050197356752E+00  5.3976727418013E-01
    35  3.4000000000000E-01  1.5946868622391E+00  5.5566772220749E-01
    36  3.5000000000000E-01  1.5804360301816E+00  5.7141480308334E-01
    37  3.6000000000000E-01  1.5623394174078E+00  5.8700722248783E-01
    38  3.7000000000000E-01  1.5404818880269E+00  6.0244597225075E-01
    39  3.8000000000000E-01  1.5149606833649E+00  6.1773431318212E-01
    40  3.9000000000000E-01  1.4858850488219E+00  6.3287771479247E-01
    41  4.0000000000000E-01  1.4533757978085E+00  6.4788375216907E-01
    42  4.1000000000000E-01  1.4175648145925E+00  6.6276196099020E-01
    43  4.2000000000000E-01  1.3785944984714E+00  6.7752365236479E-01
    44  4.3000000000000E-01  1.3366171522550E+00  6.9218168986851E-01
    45  4.4000000000000E-01  1.2917943185861E+00  7.0675023179807E-01
    46  4.5000000000000E-01  1.2442960681341E+00  7.2124444227184E-01
    47  4.6000000000000E-01  1.1943002441677E+00  7.3568017535737E-01
    48  4.7000000000000E-01  1.1419916684344E+00  7.5007363689499E-01
    49  4.8000000000000E-01  1.0875613136434E+00  7.6444102910311E-01
    50  4.9000000000000E-01  1.0312054481585E+00  7.7879818338787E-01
    51  5.0000000000000E-01  9.7312475875779E-01  7.9316018703140E-01
    52  5.1000000000000E-01  9.1352345749761E-01  8.0754100959452E-01
    53  5.2000000000000E-01  8.5260837883285E-01  8.2195313493750E-01
    54  5.3000000000000E-01  7.9058807318876E-01  8.3640720473571E-01
    55  5.4000000000000E-01  7.2767190315372E-01  8.5091167924457E-01
    56  5.5000000000000E-01  6.6406914836498E-01  8.6547252085227E-01
    57  5.6000000000000E-01  5.9998812499571E-01  8.8009290565150E-01
    58  5.7000000000000E-01  5.3563532552083E-01  8.9477296786823E-01
    59  5.8000000000000E-01  4.7121458414815E-01  9.0950958151166E-01
    60  5.9000000000000E-01  4.0692627295157E-01  9.2429618306239E-01
    61  6.0000000000000E-01  3.4296653334290E-01  9.3912263840408E-01
    62  6.1000000000000E-01  2.7952654707219E-01  9.5397515653728E-01
    63  6.2000000000000E-01  2.1679185046162E-01  9.6883625190295E-01
    64  6.3000000000000E-01  1.5494169506134E-01  9.8368475639911E-01
    65  6.4000000000000E-01  9.4148457376179E-02  9.9849588140916E-01
    66  6.5000000000000E-01  3.4577099756699E-02  1.0132413293870E+00
    67  6.6000000000000E-01 -2.3615316013939E-02  1.0278894537747E+00
    68  6.7000000000000E-01 -8.0280061466769E-02  1.0424054652764E+00
    69  6.8000000000000E-01 -1.3527712010805E-01  1.0567516817882E+00
    70  6.9000000000000E-01 -1.8847551210886E-01  1.0708878186039E+00
    71  7.0000000000000E-01 -2.3975356564579E-01  1.0847713148847E+00
    72  7.1000000000000E-01 -2.8899913599165E-01  1.0983576918193E+00
    73  7.2000000000000E-01 -3.3610977389166E-01  1.1116009374034E+00
    74  7.3000000000000E-01 -3.8099284515355E-01  1.1244539123628E+00
    75  7.4000000000000E-01 -4.2356560372249E-01  1.1368687714149E+00
    76  7.5000000000000E-01 -4.6375522080069E-01  1.1487973938423E+00
    77  7.6000000000000E-01 -5.0149877280402E-01  1.1601918172159E+00
    78  7.7000000000000E-01 -5.3674319112094E-01  1.1710046680833E+00
    79  7.8000000000000E-01 -5.6944517675281E-01  1.1811895835033E+00
    80  7.9000000000000E-01 -5.9957108296776E-01  1.1907016174904E+00
    81  8.0000000000000E-01 -6.2709676909576E-01  1.1994976266965E+00
    82  8.1000000000000E-01 -6.5200742853039E-01  1.2075366300324E+00
    83  8.2000000000000E-01 -6.7429739388831E-01  1.2147801373782E+00
    84  8.3000000000000E-01 -6.9396992211311E-01  1.2211924430745E+00
    85  8.4000000000000E-01 -7.1103696210237E-01  1.2267408804886E+00
    86  8.5000000000000E-01 -7.2551890719026E-01  1.2313960346227E+00
    87  8.6000000000000E-01 -7.3744433453975E-01  1.2351319104499E+00
    88  8.7000000000000E-01 -7.4684973319595E-01  1.2379260554242E+00
    89  8.8000000000000E-01 -7.5377922223186E-01  1.2397596353934E+00
    90  8.9000000000000E-01 -7.5828426008867E-01  1.2406174639430E+00
    91  9.0000000000000E-01 -7.6042334588181E-01  1.2404879859947E+00
    92  9.1000000000000E-01 -7.6026171311995E-01  1.2393632172631E+00
    93  9.2000000000000E-01 -7.5787101597430E-01  1.2372386419272E+00
    94  9.3000000000000E-01 -7.5332900794793E-01  1.2341130715844E+00
    95  9.4000000000000E-01 -7.4671921253582E-01  1.2299884692112E+00
    96  9.5000000000000E-01 -7.3813058524375E-01  1.2248697424439E+00
    97  9.6000000000000E-01 -7.2765716615206E-01  1.2187645110080E+00
    98  9.7000000000000E-01 -7.1539772207557E-01  1.2116828535527E+00
    99  9.8000000000000E-01 -7.0145537728633E-01  1.2036370394814E+00
   100  9.9000000000000E-01 -6.8593723173532E-01  1.1946412516017E+00
   101  1.0000000000000E+00 -6.6895396573415E-01  1.1847113055485E+00
   102  1.0100000000000E+00 -6.5061943013967E-01  1.1738643719547E+00
   103  1.0200000000000E+00 -6.3105022122291E-01  1.1621187072545E+00
   104  1.0300000000000E+00 -6.1036523959649E-01  1.1494933988109E+00
   105  1.0400000000000E+00 -5.8868523282103E-01  1.1360081297534E+00
   106  1.0500000000000E+00 -5.6613232160520E-01  1.1216829685116E+00
   107  1.0600000000000E+00 -5.4282950985245E-01  1.1065381875330E+00
   108  1.0700000000000E+00 -5.1890017918420E-01  1.0905941150870E+00
   109  1.0800000000000E+00 -4.9446756897728E-01  1.0738710233974E+00
   110  1.0900000000000E+00 -4.6965424338467E-01  1.0563890556186E+00
   111  1.1000000000000E+00 -4.4458154725706E-01  1.0381681933873E+00
   112  1.1100000000000E+00 -4.1936905333579E-01  1.0192282658630E+00
   113  1.1200000000000E+00 -3.9413400354115E-01  9.9958900031875E-01
   114  1.1300000000000E+00 -3.6899074761869E-01  9.7927011348770E-01
   115  1.1400000000000E+00 -3.4405018282699E-01  9.5829144201147E-01
   116  1.1500000000000E+00 -3.1941919873693E-01  9.3667310950084E-01
   117  1.1600000000000E+00 -2.9520013156311E-01  9.1443572691314E-01
   118  1.1700000000000E+00 -2.7149023274657E-01  8.9160062219737E-01
   119  1.1800000000000E+00 -2.4838115675338E-01  8.6819009446080E-01
   120  1.1900000000000E+00 -2.2595847323265E-01  8.4422768729502E-01
   121  1.2000000000000E+00 -2.0430120878790E-01  8.1973847536467E-01
   122  1.2100000000000E+00 -1.8348142365002E-01  7.9474935792864E-01
   123  1.2200000000000E+00 -1.6356382849455E-01  7.6928935263408E-01
   124  1.2300000000000E+00 -1.4460544651764E-01  7.4338988270773E-01
   125  1.2400000000000E+00 -1.2665532567338E-01  7.1708505057241E-01
   126  1.2500000000000E+00 -1.0975430567720E-01  6.9041189094085E-01
   127  1.2600000000000E+00 -9.3934843999926E-02  6.6341059658736E-01
   128  1.2700000000000E+00 -7.9220904617168E-02  6.3612471026723E-01
   129  1.2800000000000E+00 -6.5627912738931E-02  6.0860127664443E-01
   130  1.2900000000000E+00 -5.3162778136433E-02  5.8089094859219E-01
   131  1.3000000000000E+00 -4.1823989010915E-02  5.5304804284104E-01
   132  1.3100000000000E+00 -3.1601777616707E-02  5.2513054066191E-01
   133  1.3200000000000E+00 -2.2478358074412E-02  4.9720003006984E-01
   134  1.3300000000000E+00 -1.4428235997934E-02  4.6932158690557E-01
   135  1.3400000000000E+00 -7.4185887142393E-03  4.4156359309366E-01
   136  1.3500000000000E+00 -1.4097140018285E-03  4.1399749135736E-01
   137  1.3600000000000E+00  3.6444555855577E-03  3.8669747668912E-01
   138  1.3700000000000E+00  7.7957765888657E-03  3.5974012590389E-01
   139  1.3800000000000E+00  1.1101261315686E-02  3.3320396763872E-01
   140  1.3900000000000E+00  1.3622392709660E-02  3.0716899617046E-01
   141  1.4000000000000E+00  1.5424393557788E-02  2.8171613340387E-01
   142  1.4100000000000E+00  1.6575456857675E-02  2.5692664430550E-01
   143  1.4200000000000E+00  1.7145944783085E-02  2.3288151192159E-01
   144  1.4300000000000E+00  1.7207564217717E-02  2.0966077889398E-01
   145  1.4400000000000E+00  1.6832527271008E-02  1.8734286307023E-01
   146  1.4500000000000E+00  1.6092705535760E-02  1.6600385538008E-01
   147  1.4600000000000E+00  1.5058787088758E-02  1.4571680860726E-01
   148  1.4700000000000E+00  1.3799445367855E-02  1.2655102601773E-01
   149  1.4800000000000E+00  1.2380529077680E-02  1.0857135900427E-01
   150  1.4900000000000E+00  1.0864282179550E-02  9.1837522969044E-02
   151  1.5000000000000E+00  9.3086031859833E-03  7.6403442806570E-02
   152  1.5100000000000E+00  7.7663496382617E-03  6.2316621302938E-02
   153  1.5200000000000E+00  6.2847051807389E-03  4.9617605814870E-02
   154  1.5300000000000E+00  4.9038810644558E-03  3.8335055825501E-02
   155  1.5400000000000E+00  3.6569181817064E-03  2.8485315526911E-02
   156  1.5500000000000E+00  2.5722668239864E-03  2.0091362815839E-02
   157  1.5600000000000E+00  1.6703021823952E-03  1.3166483745067E-02
   158  1.5700000000000E+00  9.6315254295968E-04  7.7137595360039E-03
   159  1.5800000000000E+00  4.5478085587635E-04  3.7273587767987E-03
   160  1.5900000000000E+00  1.3932266171108E-04  1.1770737836228E-03
   161  1.6000000000000E+00  1.0726616785950E-05  9.4625181421341E-05
   162  1.6100000000000E+00 -2.0347219555711E-06 -1.8280943620079E-05
   163  1.6200000000000E+00  6.6567755069169E-07  5.8441373565942E-06
   164  1.63 -0. -0.
   165  1.64 -0. -0.
   166  1.65  0.  0.
   167  1.66  0.  0.
   168  1.67  0.  0.
   169  1.68  0.  0.
   170  1.69  0.  0.
   171  1.70  0.  0.
   172  1.71  0.  0.
   173  1.72  0.  0.
   174  1.73  0.  0.
   175  1.74  0.  0.
   176  1.75  0.  0.
   177  1.76  0.  0.
   178  1.77  0.  0.
   179  1.78  0.  0.
   180  1.79  0.  0.
   181  1.80  0.  0.
   182  1.81  0.  0.
   183  1.82  0.  0.
   184  1.83  0.  0.
   185  1.84  0.  0.
   186  1.85  0.  0.
   187  1.86  0.  0.
   188  1.87  0.  0.
   189  1.88  0.  0.
   190  1.89  0.  0.
   191  1.90  0.  0.
   192  1.91  0.  0.
   193  1.92  0.  0.
   194  1.93  0.  0.
   195  1.94  0.  0.
   196  1.95  0.  0.
   197  1.96  0.  0.
   198  1.97  0.  0.
   199  1.98  0.  0.
   200  1.99  0.  0.
   201  2.00  0.  0.
   202  2.01  0.  0.
   203  2.02  0.  0.
   204  2.03  0.  0.
   205  2.04  0.  0.
   206  2.05  0.  0.
   207  2.06  0.  0.
   208  2.07  0.  0.
   209  2.08  0.  0.
   210  2.09  0.  0.
   211  2.10  0.  0.
   212  2.11  0.  0.
   213  2.12  0.  0.
   214  2.13  0.  0.
   215  2.14  0.  0.
   216  2.15  0.  0.
   217  2.16  0.  0.
   218  2.17  0.  0.
   219  2.18  0.  0.
   220  2.19  0.  0.
   221  2.20  0.  0.
   222  2.21  0.  0.
   223  2.22  0.  0.
   224  2.23  0.  0.
   225  2.24  0.  0.
   226  2.25  0.  0.
   227  2.26  0.  0.
   228  2.27  0.  0.
   229  2.28  0.  0.
   230  2.29  0.  0.
   231  2.30  0.  0.
   232  2.31  0.  0.
   233  2.32  0.  0.
   234  2.33  0.  0.
   235  2.34  0.  0.
   236  2.35  0.  0.
   237  2.36  0.  0.
   238  2.37  0.  0.
   239  2.38  0.  0.
   240  2.39  0.  0.
   241  2.40  0.  0.
   242  2.41  0.  0.
   243  2.42  0.  0.
   244  2.43  0.  0.
   245  2.44  0.  0.
   246  2.45  0.  0.
   247  2.46  0.  0.
   248  2.47  0.  0.
   249  2.48  0.  0.
   250  2.49  0.  0.
   251  2.50  0.  0.
   252  2.51  0.  0.
   253  2.52  0.  0.
   254  2.53  0.  0.
   255  2.54  0.  0.
   256  2.55  0.  0.
   257  2.56  0.  0.
   258  2.57  0.  0.
   259  2.58  0.  0.
   260  2.59  0.  0.
   261  2.60  0.  0.
   262  2.61  0.  0.
   263  2.62  0.  0.
   264  2.63  0.  0.
   265  2.64  0.  0.
   266  2.65  0.  0.
   267  2.66  0.  0.
   268  2.67  0.  0.
   269  2.68  0.  0.
   270  2.69  0.  0.
   271  2.70  0.  0.
   272  2.71  0.  0.
   273  2.72  0.  0.
   274  2.73  0.  0.
   275  2.74  0.  0.
   276  2.75  0.  0.
   277  2.76  0.  0.
   278  2.77  0.  0.
   279  2.78  0.  0.
   280  2.79  0.  0.
   281  2.80  0.  0.
   282  2.81  0.  0.
   283  2.82  0.  0.
   284  2.83  0.  0.
   285  2.84  0.  0.
   286  2.85  0.  0.
   287  2.86  0.  0.
   288  2.87  0.  0.
   289  2.88  0.  0.
   290  2.89  0.  0.
   291  2.90  0.  0.
   292  2.91  0.  0.
   293  2.92  0.  0.
   294  2.93  0.  0.
   295  2.94  0.  0.
   296  2.95  0.  0.
   297  2.96  0.  0.
   298  2.97  0.  0.
   299  2.98  0.  0.
   300  2.99  0.  0.
   301  3.00  0.  0.
   302  3.01  0.  0.
   303  3.02  0.  0.
   304  3.03  0.  0.
   305  3.04  0.  0.
   306  3.05  0.  0.
   307  3.06  0.  0.
   308  3.07  0.  0.
   309  3.08  0.  0.
   310  3.09  0.  0.
   311  3.10  0.  0.
   312  3.11  0.  0.
   313  3.12  0.  0.
   314  3.13  0.  0.
   315  3.14  0.  0.
   316  3.15  0.  0.
   317  3.16  0.  0.
   318  3.17  0.  0.
   319  3.18  0.  0.
   320  3.19  0.  0.
   321  3.20  0.  0.
   322  3.21  0.  0.
   323  3.22  0.  0.
   324  3.23  0.  0.
   325  3.24  0.  0.
   326  3.25  0.  0.
   327  3.26  0.  0.
   328  3.27  0.  0.
   329  3.28  0.  0.
   330  3.29  0.  0.
   331  3.30  0.  0.
   332  3.31  0.  0.
   333  3.32  0.  0.
   334  3.33  0.  0.
   335  3.34  0.  0.
   336  3.35  0.  0.
   337  3.36  0.  0.
   338  3.37  0.  0.
   339  3.38  0.  0.
   340  3.39  0.  0.
   341  3.40  0.  0.
   342  3.41  0.  0.
   343  3.42  0.  0.
   344  3.43  0.  0.
   345  3.44  0.  0.
   346  3.45  0.  0.
   347  3.46  0.  0.
   348  3.47  0.  0.
   349  3.48  0.  0.
   350  3.49  0.  0.
   351  3.50  0.  0.
   352  3.51  0.  0.
   353  3.52  0.  0.
   354  3.53  0.  0.
   355  3.54  0.  0.
   356  3.55  0.  0.
   357  3.56  0.  0.
   358  3.57  0.  0.
   359  3.58  0.  0.
   360  3.59  0.  0.
   361  3.60  0.  0.
   362  3.61  0.  0.
   363  3.62  0.  0.
   364  3.63  0.  0.
   365  3.64  0.  0.
   366  3.65  0.  0.
   367  3.66  0.  0.
   368  3.67  0.  0.
   369  3.68  0.  0.
   370  3.69  0.  0.
   371  3.70  0.  0.
   372  3.71  0.  0.
   373  3.72  0.  0.
   374  3.73  0.  0.
   375  3.74  0.  0.
   376  3.75  0.  0.
   377  3.76  0.  0.
   378  3.77  0.  0.
   379  3.78  0.  0.
   380  3.79  0.  0.
   381  3.80  0.  0.
   382  3.81  0.  0.
   383  3.82  0.  0.
   384  3.83  0.  0.
   385  3.84  0.  0.
   386  3.85  0.  0.
   387  3.86  0.  0.
   388  3.87  0.  0.
   389  3.88  0.  0.
   390  3.89  0.  0.
   391  3.90  0.  0.
   392  3.91  0.  0.
   393  3.92  0.  0.
   394  3.93  0.  0.
   395  3.94  0.  0.
   396  3.95  0.  0.
   397  3.96  0.  0.
   398  3.97  0.  0.
   399  3.98  0.  0.
   400  3.99  0.  0.
   401  4.00  0.  0.
   402  4.01  0.  0.
   403  4.02  0.  0.
   404  4.03  0.  0.
   405  4.04  0.  0.
   406  4.05  0.  0.
   407  4.06  0.  0.
   408  4.07  0.  0.
   409  4.08  0.  0.
   410  4.09  0.  0.
   411  4.10  0.  0.
   412  4.11  0.  0.
   413  4.12  0.  0.
   414  4.13  0.  0.
   415  4.14  0.  0.
   416  4.15  0.  0.
   417  4.16  0.  0.
   418  4.17  0.  0.
   419  4.18  0.  0.
   420  4.19  0.  0.
   421  4.20  0.  0.
   422  4.21  0.  0.
   423  4.22  0.  0.
   424  4.23  0.  0.
   425  4.24  0.  0.
   426  4.25  0.  0.
   427  4.26  0.  0.
   428  4.27  0.  0.
   429  4.28  0.  0.
   430  4.29  0.  0.
   431  4.30  0.  0.
   432  4.31  0.  0.
   433  4.32  0.  0.
   434  4.33  0.  0.
   435  4.34  0.  0.
   436  4.35  0.  0.
   437  4.36  0.  0.
   438  4.37  0.  0.
   439  4.38  0.  0.
   440  4.39  0.  0.
   441  4.40  0.  0.
   442  4.41  0.  0.
   443  4.42  0.  0.
   444  4.43  0.  0.
   445  4.44  0.  0.
   446  4.45  0.  0.
   447  4.46  0.  0.
   448  4.47  0.  0.
   449  4.48  0.  0.
   450  4.49  0.  0.
   451  4.50  0.  0.
   452  4.51  0.  0.
   453  4.52  0.  0.
   454  4.53  0.  0.
   455  4.54  0.  0.
   456  4.55  0.  0.
   457  4.56  0.  0.
   458  4.57  0.  0.
   459  4.58  0.  0.
   460  4.59  0.  0.
   461  4.60  0.  0.
   462  4.61  0.  0.
   463  4.62  0.  0.
   464  4.63  0.  0.
   465  4.64  0.  0.
   466  4.65  0.  0.
   467  4.66  0.  0.
   468  4.67  0.  0.
   469  4.68  0.  0.
   470  4.69  0.  0.
   471  4.70  0.  0.
   472  4.71  0.  0.
   473  4.72  0.  0.
   474  4.73  0.  0.
   475  4.74  0.  0.
   476  4.75  0.  0.
   477  4.76  0.  0.
   478  4.77  0.  0.
   479  4.78  0.  0.
   480  4.79  0.  0.
   481  4.80  0.  0.
   482  4.81  0.  0.
   483  4.82  0.  0.
   484  4.83  0.  0.
   485  4.84  0.  0.
   486  4.85  0.  0.
   487  4.86  0.  0.
   488  4.87  0.  0.
   489  4.88  0.  0.
   490  4.89  0.  0.
   491  4.90  0.  0.
   492  4.91  0.  0.
   493  4.92  0.  0.
   494  4.93  0.  0.
   495  4.94  0.  0.
   496  4.95  0.  0.
   497  4.96  0.  0.
   498  4.97  0.  0.
   499  4.98  0.  0.
   500  4.99  0.  0.
   501  5.00  0.  0.
   502  5.01  0.  0.
   503  5.02  0.  0.
   504  5.03  0.  0.
   505  5.04  0.  0.
   506  5.05  0.  0.
   507  5.06  0.  0.
   508  5.07  0.  0.
   509  5.08  0.  0.
   510  5.09  0.  0.
   511  5.10  0.  0.
   512  5.11  0.  0.
   513  5.12  0.  0.
   514  5.13  0.  0.
   515  5.14  0.  0.
   516  5.15  0.  0.
   517  5.16  0.  0.
   518  5.17  0.  0.
   519  5.18  0.  0.
   520  5.19  0.  0.
   521  5.20  0.  0.
   522  5.21  0.  0.
   523  5.22  0.  0.
   524  5.23  0.  0.
   525  5.24  0.  0.
   526  5.25  0.  0.
   527  5.26  0.  0.
   528  5.27  0.  0.
   529  5.28  0.  0.
   530  5.29  0.  0.
   531  5.30  0.  0.
   532  5.31  0.  0.
   533  5.32  0.  0.
   534  5.33  0.  0.
   535  5.34  0.  0.
   536  5.35  0.  0.
   537  5.36  0.  0.
   538  5.37  0.  0.
   539  5.38  0.  0.
   540  5.39  0.  0.
   541  5.40  0.  0.
   542  5.41  0.  0.
   543  5.42  0.  0.
   544  5.43  0.  0.
   545  5.44  0.  0.
   546  5.45  0.  0.
   547  5.46  0.  0.
   548  5.47  0.  0.
   549  5.48  0.  0.
   550  5.49  0.  0.
   551  5.50  0.  0.
   552  5.51  0.  0.
   553  5.52  0.  0.
   554  5.53  0.  0.
   555  5.54  0.  0.
   556  5.55  0.  0.
   557  5.56  0.  0.
   558  5.57  0.  0.
   559  5.58  0.  0.
   560  5.59  0.  0.
   561  5.60  0.  0.
   562  5.61  0.  0.
   563  5.62  0.  0.
   564  5.63  0.  0.
   565  5.64  0.  0.
   566  5.65  0.  0.
   567  5.66  0.  0.
   568  5.67  0.  0.
   569  5.68  0.  0.
   570  5.69  0.  0.
   571  5.70  0.  0.
   572  5.71  0.  0.
   573  5.72  0.  0.
   574  5.73  0.  0.
   575  5.74  0.  0.
   576  5.75  0.  0.
   577  5.76  0.  0.
   578  5.77  0.  0.
   579  5.78  0.  0.
   580  5.79  0.  0.
   581  5.80  0.  0.
   582  5.81  0.  0.
   583  5.82  0.  0.
   584  5.83  0.  0.
   585  5.84  0.  0.
   586  5.85  0.  0.
   587  5.86  0.  0.
   588  5.87  0.  0.
   589  5.88  0.  0.
   590  5.89  0.  0.
   591  5.90  0.  0.
   592  5.91  0.  0.
   593  5.92  0.  0.
   594  5.93  0.  0.
   595  5.94  0.  0.
   596  5.95  0.  0.
   597  5.96  0.  0.
   598  5.97  0.  0.
   599  5.98  0.  0.
   600  5.99  0.  0.
   1                         5.5996117583315E+00 -2.1785340287874E-01
     1  0.0000000000000E+00 -7.6942203997010E-10 -7.5536058519177E-09
     2  1.0000000000000E-02  1.5973351980433E-03  3.1194256173089E-04
     3  2.0000000000000E-02  6.3839262471125E-03  1.2535539030618E-03
     4  3.0000000000000E-02  1.4343528184832E-02  2.8419874641638E-03
     5  4.0000000000000E-02  2.5449062121154E-02  5.1051783817435E-03
     6  5.0000000000000E-02  3.9662610947362E-02  8.0808782413388E-03
     7  6.0000000000000E-02  5.6935416565312E-02  1.1815334695694E-02
     8  7.0000000000000E-02  7.7207881781689E-02  1.6361646149886E-02
     9  8.0000000000000E-02  1.0040958078153E-01  2.1777829267488E-02
    10  9.0000000000000E-02  1.2645928277147E-01  2.8124643828893E-02
    11  1.0000000000000E-01  1.5526499394910E-01  3.5463225330918E-02
    12  1.1000000000000E-01  1.8672402339659E-01  4.3852580534281E-02
    13  1.2000000000000E-01  2.2072307880066E-01  5.3347004839273E-02
    14  1.3000000000000E-01  2.5713839805993E-01  6.3993482820516E-02
    15  1.4000000000000E-01  2.9583592284611E-01  7.5829134422941E-02
    16  1.5000000000000E-01  3.3667152003530E-01  8.8878769183813E-02
    17  1.6000000000000E-01  3.7949125661967E-01  1.0315260939396E-01
    18  1.7000000000000E-01  4.2413173325071E-01  1.1864424036890E-01
    19  1.8000000000000E-01  4.7042048095943E-01  1.3532884201401E-01
    20  1.9000000000000E-01  5.1817642485573E-01  1.5316175070983E-01
    21  2.0000000000000E-01  5.6721041774130E-01  1.7207739431241E-01
    22  2.1000000000000E-01  6.1732584559123E-01  1.9198863587469E-01
    23  2.2000000000000E-01  6.6831930578877E-01  2.1278655368944E-01
    24  2.3000000000000E-01  7.1998135785197E-01  2.3434067658478E-01
    25  2.4000000000000E-01  7.7209734519348E-01  2.5649968424141E-01
    26  2.5000000000000E-01  8.2444828522711E-01  2.7909257282448E-01
    27  2.6000000000000E-01  8.7681182389997E-01  3.0193027662161E-01
    28  2.7000000000000E-01  9.2896324951138E-01  3.2480772684270E-01
    29  2.8000000000000E-01  9.8067655950295E-01  3.4750631945829E-01
    30  2.9000000000000E-01  1.0317255727910E+00  3.6979675511967E-01
    31  3.0000000000000E-01  1.0818850791861E+00  3.9144220599536E-01
    32  3.1000000000000E-01  1.1309320165255E+00  4.1220175694513E-01
    33  3.2000000000000E-01  1.1786466653506E+00  4.3183406198992E-01
    34  3.3000000000000E-01  1.2248138503153E+00  4.5010115166002E-01
    35  3.4000000000000E-01  1.2692241370166E+00  4.6677232263481E-01
    36  3.5000000000000E-01  1.3116750126232E+00  4.8162803821698E-01
    37  3.6000000000000E-01  1.3519720385319E+00  4.9446376668560E-01
    38  3.7000000000000E-01  1.3899299633272E+00  5.0509368448678E-01
    39  3.8000000000000E-01  1.4253737845479E+00  5.1335417256624E-01
    40  3.9000000000000E-01  1.4581397481780E+00  5.1910703691290E-01
    41  4.0000000000000E-01  1.4880762753745E+00  5.2224238852664E-01
    42  4.1000000000000E-01  1.5150448067113E+00  5.2268112348148E-01
    43  4.2000000000000E-01  1.5389205551450E+00  5.2037695043266E-01
    44  4.3000000000000E-01  1.5595931599818E+00  5.1531792069665E-01
    45  4.4000000000000E-01  1.5769672353274E+00  5.0752742477562E-01
    46  4.5000000000000E-01  1.5909628078118E+00  4.9706462874157E-01
    47  4.6000000000000E-01  1.6015156397790E+00  4.8402433406404E-01
    48  4.7000000000000E-01  1.6085774355934E+00  4.6853625506584E-01
    49  4.8000000000000E-01  1.6121159302121E+00  4.5076371902290E-01
    50  4.9000000000000E-01  1.6121148606848E+00  4.3090180477877E-01
    51  5.0000000000000E-01  1.6085738227395E+00  4.0917494641014E-01
    52  5.1000000000000E-01  1.6015080160684E+00  3.8583403874870E-01
    53  5.2000000000000E-01  1.5909478833199E+00  3.6115309123289E-01
    54  5.3000000000000E-01  1.5769386491022E+00  3.3542548543652E-01
    55  5.4000000000000E-01  1.5595397664923E+00  3.0895989952052E-01
    56  5.5000000000000E-01  1.5388242795974E+00  2.8207596961469E-01
    57  5.6000000000000E-01  1.5148781116153E+00  2.5509976361771E-01
    58  5.7000000000000E-01  1.4877992885777E+00  2.2835914698481E-01
    59  5.8000000000000E-01  1.4576971095095E+00  2.0217912266109E-01
    60  5.9000000000000E-01  1.4246912741036E+00  1.7687722835067E-01
    61  6.0000000000000E-01  1.3889109791805E+00  1.5275907375014E-01
    62  6.1000000000000E-01  1.3504939951735E+00  1.3011409821637E-01
    63  6.2000000000000E-01  1.3095857336604E+00  1.0921162560956E-01
    64  6.3000000000000E-01  1.2663383165527E+00  9.0297287809319E-02
    65  6.4000000000000E-01  1.2209096569623E+00  7.3589881731959E-02
    66  6.5000000000000E-01  1.1734625610129E+00  5.9278716698609E-02
    67  6.6000000000000E-01  1.1241638589545E+00  4.7521499856277E-02
    68  6.7000000000000E-01  1.0731835729039E+00  3.8442797207463E-02
    69  6.8000000000000E-01  1.0206941273864E+00  3.2133096845267E-02
    70  6.9000000000000E-01  9.6686960762148E-01  2.8648489426837E-02
    71  7.0000000000000E-01  9.1188506920292E-01  2.8010968967922E-02
    72  7.1000000000000E-01  8.5591590149532E-01  3.0209344937316E-02
    73  7.2000000000000E-01  7.9913724574018E-01  3.5200744606092E-02
    74  7.3000000000000E-01  7.4172346755158E-01  4.2912672899243E-02
    75  7.4000000000000E-01  6.8384768222147E-01  5.3245585842741E-02
    76  7.5000000000000E-01  6.2568133006889E-01  6.6075923317500E-02
    77  7.6000000000000E-01  5.6739379798189E-01  8.1259537440507E-02
    78  7.7000000000000E-01  5.0915208233929E-01  9.8635444683982E-02
    79  7.8000000000000E-01  4.5112048768146E-01  1.1802982299317E-01
    80  7.9000000000000E-01  3.9346035484285E-01  1.3926016982067E-01
    81  8.0000000000000E-01  3.3632981177853E-01  1.6213953328272E-01
    82  8.1000000000000E-01  2.7988354002312E-01  1.8648072665317E-01
    83  8.2000000000000E-01  2.2427254962030E-01  2.1210043620108E-01
    84  8.3000000000000E-01  1.6964395545712E-01  2.3882313397605E-01
    85  8.4000000000000E-01  1.1614074822927E-01  2.6648471053763E-01
    86  8.5000000000000E-01  6.3901553744521E-02  2.9493574776964E-01
    87  8.6000000000000E-01  1.3060374934204E-02  3.2404435873393E-01
    88  8.7000000000000E-01 -3.6253688228568E-02  3.5369852988898E-01
    89  8.8000000000000E-01 -8.3916744725261E-02  3.8380791077909E-01
    90  8.9000000000000E-01 -1.2981044711524E-01  4.1430500731623E-01
    91  9.0000000000000E-01 -1.7382235628274E-01  4.4514574682518E-01
    92  9.1000000000000E-01 -2.1584633650874E-01  4.7630939587996E-01
    93  9.2000000000000E-01 -2.5578297972125E-01  5.0779782538139E-01
    94  9.3000000000000E-01 -2.9354005640795E-01  5.3963413105567E-01
    95  9.4000000000000E-01 -3.2903298931391E-01  5.7186063132140E-01
    96  9.5000000000000E-01 -3.6218534472570E-01  6.0453627801112E-01
    97  9.6000000000000E-01 -3.9292933489236E-01  6.3773352846564E-01
    98  9.7000000000000E-01 -4.2120632398324E-01  6.7153473978792E-01
    99  9.8000000000000E-01 -4.4696732896145E-01  7.0602815728793E-01
   100  9.9000000000000E-01 -4.7017350588586E-01  7.4130357913739E-01
   101  1.0000000000000E+00 -4.9079661146760E-01  7.7744778776378E-01
   102  1.0100000000000E+00 -5.0881942921991E-01  8.1453984536471E-01
   103  1.0200000000000E+00 -5.2423614926967E-01  8.5264635594199E-01
   104  1.0300000000000E+00 -5.3705269085735E-01  8.9181679932422E-01
   105  1.0400000000000E+00 -5.4728695674842E-01  9.3207904367068E-01
   106  1.0500000000000E+00 -5.5496900921781E-01  9.7343514186952E-01
   107  1.0600000000000E+00 -5.6014115794595E-01  1.0158575140599E+00
   108  1.0700000000000E+00 -5.6285795107943E-01  1.0592856132266E+00
   109  1.0800000000000E+00 -5.6318606184509E-01  1.1036231635247E+00
   110  1.0900000000000E+00 -5.6120406445134E-01  1.1487360517923E+00
   111  1.1000000000000E+00 -5.5700209454616E-01  1.1944509417195E+00
   112  1.1100000000000E+00 -5.5068139119546E-01  1.2405546676212E+00
   113  1.1200000000000E+00 -5.4235371918545E-01  1.2867944507860E+00
   114  1.1300000000000E+00 -5.3214067238550E-01  1.3328789663807E+00
   115  1.1400000000000E+00 -5.2017286092613E-01  1.3784802729176E+00
   116  1.1500000000000E+00 -5.0658898698369E-01  1.4232365998819E+00
   117  1.1600000000000E+00 -4.9153481601504E-01  1.4667559723010E+00
   118  1.1700000000000E+00 -4.7516205227595E-01  1.5086206344291E+00
   119  1.1800000000000E+00 -4.5762712938776E-01  1.5483922183083E+00
   120  1.1900000000000E+00 -4.3908992850887E-01  1.5856175874052E+00
   121  1.2000000000000E+00 -4.1971243832210E-01  1.6198352708034E+00
   122  1.2100000000000E+00 -3.9965737250087E-01  1.6505823900942E+00
   123  1.2200000000000E+00 -3.7908676155359E-01  1.6774019692761E+00
   124  1.2300000000000E+00 -3.5816053693186E-01  1.6998505079324E+00
   125  1.2400000000000E+00 -3.3703512599562E-01  1.7175056899796E+00
   126  1.2500000000000E+00 -3.1586207684694E-01  1.7299740944340E+00
   127  1.2600000000000E+00 -2.9478673214839E-01  1.7368987711979E+00