Og    ONCVPSP-4.0.1  r_core=   1.60307   1.60307   1.60307
118.0000     26.0000      230803    zatom,zion,pspd
8      11   2     4   600     0    pspcod,pspxc,lmax,lloc,mmax,r2well
5.99000000  7.80500000  0.00000000    rchrg fchrg qchrg
2     2     2     0     0    nproj
1     1           extension_switch
0                         1.2197058687911E+01 -6.8648858068665E-01
1  0.0000000000000E+00 -1.6235790489816E-11  1.4582677426711E-10
2  1.0000000000000E-02  9.3486332093721E-02  5.7139387229949E-03
3  2.0000000000000E-02  1.8669086373152E-01  1.1452658223091E-02
4  3.0000000000000E-02  2.7933282014755E-01  1.7240797812035E-02
5  4.0000000000000E-02  3.7113347438782E-01  2.3102716072188E-02
6  5.0000000000000E-02  4.6181716229880E-01  2.9062355957208E-02
7  6.0000000000000E-02  5.5111228682583E-01  3.5143116345600E-02
8  7.0000000000000E-02  6.3875230807557E-01  4.1367732023808E-02
9  8.0000000000000E-02  7.2447671561314E-01  4.7758163929699E-02
10  9.0000000000000E-02  8.0803197948603E-01  5.4335501309125E-02
11  1.0000000000000E-01  8.8917247649415E-01  6.1119877230824E-02
12  1.1000000000000E-01  9.6766138825981E-01  6.8130398671125E-02
13  1.2000000000000E-01  1.0432715676933E+00  7.5385092123677E-02
14  1.3000000000000E-01  1.1157863705003E+00  8.2900865414562E-02
15  1.4000000000000E-01  1.1850004484394E+00  9.0693486114063E-02
16  1.5000000000000E-01  1.2507205011068E+00  9.8777576637568E-02
17  1.6000000000000E-01  1.3127659831136E+00  1.0716662582432E-01
18  1.7000000000000E-01  1.3709697636135E+00  1.1587301647896E-01
19  1.8000000000000E-01  1.4251787352542E+00  1.2490806806147E-01
20  1.9000000000000E-01  1.4752543697496E+00  1.3428209342203E-01
21  2.0000000000000E-01  1.5210732174157E+00  1.4400446820166E-01
22  2.1000000000000E-01  1.5625273481714E+00  1.5408371126378E-01
23  2.2000000000000E-01  1.5995247316824E+00  1.6452757428831E-01
24  2.3000000000000E-01  1.6319895545261E+00  1.7534313845477E-01
25  2.4000000000000E-01  1.6598624724652E+00  1.8653691596527E-01
26  2.5000000000000E-01  1.6831007961533E+00  1.9811495401823E-01
27  2.6000000000000E-01  1.7016786088467E+00  2.1008293873920E-01
28  2.7000000000000E-01  1.7155868149642E+00  2.2244629651054E-01
29  2.8000000000000E-01  1.7248331186265E+00  2.3521029011764E-01
30  2.9000000000000E-01  1.7294419316050E+00  2.4838010714705E-01
31  3.0000000000000E-01  1.7294542104344E+00  2.6196093813165E-01
32  3.1000000000000E-01  1.7249272227688E+00  2.7595804204047E-01
33  3.2000000000000E-01  1.7159342434129E+00  2.9037679685428E-01
34  3.3000000000000E-01  1.7025641808091E+00  3.0522273315109E-01
35  3.4000000000000E-01  1.6849211351293E+00  3.2050154884798E-01
36  3.5000000000000E-01  1.6631238894865E+00  3.3621910350209E-01
37  3.6000000000000E-01  1.6373053361583E+00  3.5238139086298E-01
38  3.7000000000000E-01  1.6076118400830E+00  3.6899448868683E-01
39  3.8000000000000E-01  1.5742025422687E+00  3.8606448516502E-01
40  3.9000000000000E-01  1.5372486061139E+00  4.0359738168261E-01
41  4.0000000000000E-01  1.4969324100061E+00  4.2159897199980E-01
42  4.1000000000000E-01  1.4534466899065E+00  4.4007469833732E-01
43  4.2000000000000E-01  1.4069936359641E+00  4.5902948523907E-01
44  4.3000000000000E-01  1.3577839475230E+00  4.7846755247705E-01
45  4.4000000000000E-01  1.3060358511743E+00  4.9839220864822E-01
46  4.5000000000000E-01  1.2519740867842E+00  5.1880562748636E-01
47  4.6000000000000E-01  1.1958288666718E+00  5.3970860926678E-01
48  4.7000000000000E-01  1.1378348133245E+00  5.6110033001425E-01
49  4.8000000000000E-01  1.0782298812296E+00  5.8297808152843E-01
50  4.9000000000000E-01  1.0172542685452E+00  6.0533700551218E-01
51  5.0000000000000E-01  9.5514932445164E-01  6.2816982532200E-01
52  5.1000000000000E-01  8.9215645809898E-01  6.5146657905157E-01
53  5.2000000000000E-01  8.2851605510418E-01  6.7521435780712E-01
54  5.3000000000000E-01  7.6446640754644E-01  6.9939705313227E-01
55  5.4000000000000E-01  7.0024266336416E-01  7.2399511758904E-01
56  5.5000000000000E-01  6.3607580096928E-01  7.4898534249894E-01
57  5.6000000000000E-01  5.7219163476501E-01  7.7434065679161E-01
58  5.7000000000000E-01  5.0880985708136E-01  8.0002995079921E-01
59  5.8000000000000E-01  4.4614312183057E-01  8.2601792867205E-01
60  5.9000000000000E-01  3.8439617493194E-01  8.5226499287623E-01
61  6.0000000000000E-01  3.2376503626435E-01  8.7872716396913E-01
62  6.1000000000000E-01  2.6443623757763E-01  9.0535603853563E-01
63  6.2000000000000E-01  2.0658612043167E-01  9.3209878781019E-01
64  6.3000000000000E-01  1.5038019783876E-01  9.5889819911132E-01
65  6.4000000000000E-01  9.5972582862052E-02  9.8569276177904E-01
66  6.5000000000000E-01  4.3505486975012E-02  1.0124167988385E+00
67  6.6000000000000E-01 -6.8912094832776E-03  1.0390006451184E+00
68  6.7000000000000E-01 -5.5100312910813E-02  1.0653708720382E+00
69  6.8000000000000E-01 -1.0101759675991E-01  1.0914505587462E+00
70  6.9000000000000E-01 -1.4455200573879E-01  1.1171596087538E+00
71  7.0000000000000E-01 -1.8562578358655E-01  1.1424151106686E+00
72  7.1000000000000E-01 -2.2417452463147E-01  1.1671317410922E+00
73  7.2000000000000E-01 -2.6014714986079E-01  1.1912222072255E+00
74  7.3000000000000E-01 -2.9350580874176E-01  1.2145977262112E+00
75  7.4000000000000E-01 -3.2422570853310E-01  1.2371685377666E+00
76  7.5000000000000E-01 -3.5229487331116E-01  1.2588444461982E+00
77  7.6000000000000E-01 -3.7771383539912E-01  1.2795353874785E+00
78  7.7000000000000E-01 -4.0049526232942E-01  1.2991520166855E+00
79  7.8000000000000E-01 -4.2066352288306E-01  1.3176063107770E+00
80  7.9000000000000E-01 -4.3825419613297E-01  1.3348121813949E+00
81  8.0000000000000E-01 -4.5331352776800E-01  1.3506860921686E+00
82  8.1000000000000E-01 -4.6589783828660E-01  1.3651476748245E+00
83  8.2000000000000E-01 -4.7607288792310E-01  1.3781203383035E+00
84  8.3000000000000E-01 -4.8391320340140E-01  1.3895318650463E+00
85  8.4000000000000E-01 -4.8950137180037E-01  1.3993149886311E+00
86  8.5000000000000E-01 -4.9292730696005E-01  1.4074079470354E+00
87  8.6000000000000E-01 -4.9428749395746E-01  1.4137550059423E+00
88  8.7000000000000E-01 -4.9368421723504E-01  1.4183069467321E+00
89  8.8000000000000E-01 -4.9122477797313E-01  1.4210215140676E+00
90  8.9000000000000E-01 -4.8702070626096E-01  1.4218638183229E+00
91  9.0000000000000E-01 -4.8118697353982E-01  1.4208066884907E+00
92  9.1000000000000E-01 -4.7384121066741E-01  1.4178309716431E+00
93  9.2000000000000E-01 -4.6510293678681E-01  1.4129257755113E+00
94  9.3000000000000E-01 -4.5509280397835E-01  1.4060886512732E+00
95  9.4000000000000E-01 -4.4393186243023E-01  1.3973257142082E+00
96  9.5000000000000E-01 -4.3174085058748E-01  1.3866517004661E+00
97  9.6000000000000E-01 -4.1863951443077E-01  1.3740899588187E+00
98  9.7000000000000E-01 -4.0474595970091E-01  1.3596723768966E+00
99  9.8000000000000E-01 -3.9017604052456E-01  1.3434392420526E+00
100  9.9000000000000E-01 -3.7504278751516E-01  1.3254390376457E+00
101  1.0000000000000E+00 -3.5945587802580E-01  1.3057281761750E+00
102  1.0100000000000E+00 -3.4352115081889E-01  1.2843706713276E+00
103  1.0200000000000E+00 -3.2734016699777E-01  1.2614377516116E+00
104  1.0300000000000E+00 -3.1100981862090E-01  1.2370074188348E+00
105  1.0400000000000E+00 -2.9462198599266E-01  1.2111639552422E+00
106  1.0500000000000E+00 -2.7826324420275E-01  1.1839973836418E+00
107  1.0600000000000E+00 -2.6201461907020E-01  1.1556028853220E+00
108  1.0700000000000E+00 -2.4595139224283E-01  1.1260801809889E+00
109  1.0800000000000E+00 -2.3014295481239E-01  1.0955328803205E+00
110  1.0900000000000E+00 -2.1465270843241E-01  1.0640678060520E+00
111  1.1000000000000E+00 -1.9953801257290E-01  1.0317942987578E+00
112  1.1100000000000E+00 -1.8485017621779E-01  9.9882350868589E-01
113  1.1200000000000E+00 -1.7063449200723E-01  9.6526768112677E-01
114  1.1300000000000E+00 -1.5693031055309E-01  9.3123944185438E-01
115  1.1400000000000E+00 -1.4377115241076E-01  8.9685108917074E-01
116  1.1500000000000E+00 -1.3118485497844E-01  8.6221389900813E-01
117  1.1600000000000E+00 -1.1919375141447E-01  8.2743744940134E-01
118  1.1700000000000E+00 -1.0781487851786E-01  7.9262897043714E-01
119  1.1800000000000E+00 -9.7060210404504E-02  7.5789272551871E-01
120  1.1900000000000E+00 -8.6936914734532E-02  7.2332942945697E-01
121  1.2000000000000E+00 -7.7447628201685E-02  6.8903570851708E-01
122  1.2100000000000E+00 -6.8590747985793E-02  6.5510360711499E-01
123  1.2200000000000E+00 -6.0360735890829E-02  6.2162014537904E-01
124  1.2300000000000E+00 -5.2748431944386E-02  5.8866693126792E-01
125  1.2400000000000E+00 -4.5741374316428E-02  5.5631983038191E-01
126  1.2500000000000E+00 -3.9324122525762E-02  5.2464869601332E-01
127  1.2600000000000E+00 -3.3478581038205E-02  4.9371716137266E-01
128  1.2700000000000E+00 -2.8184320518950E-02  4.6358249529961E-01
129  1.2800000000000E+00 -2.3418894182011E-02  4.3429552212536E-01
130  1.2900000000000E+00 -1.9158146876817E-02  4.0590060571233E-01
131  1.3000000000000E+00 -1.5376514764734E-02  3.7843569705569E-01
132  1.3100000000000E+00 -1.2047313664246E-02  3.5193244419770E-01
133  1.3200000000000E+00 -9.1430143779802E-03  3.2641636258992E-01
134  1.3300000000000E+00 -6.6355035551369E-03  3.0190706344474E-01
135  1.3400000000000E+00 -4.4963288886171E-03  2.7841853704711E-01
136  1.3500000000000E+00 -2.6969276903967E-03  2.5595948746452E-01
137  1.3600000000000E+00 -1.2088381318927E-03  2.3453371459619E-01
138  1.3700000000000E+00 -3.8926728500546E-06  2.1414053904978E-01
139  1.3800000000000E+00  9.4560656663131E-04  1.9477526492616E-01
140  1.3900000000000E+00  1.6667305176472E-03  1.7642967523958E-01
141  1.4000000000000E+00  2.1857837765810E-03  1.5909255439843E-01
142  1.4100000000000E+00  2.5281827488085E-03  1.4275023193016E-01
143  1.4200000000000E+00  2.7183507722635E-03  1.2738714144760E-01
144  1.4300000000000E+00  2.7796295135757E-03  1.1298638873210E-01
145  1.4400000000000E+00  2.7342057909726E-03  9.9530322746247E-02
146  1.4500000000000E+00  2.6030528601171E-03  8.7001103389422E-02
147  1.4600000000000E+00  2.4058851028304E-03  7.5381259871408E-02
148  1.4700000000000E+00  2.1611249841645E-03  6.4654233701638E-02
149  1.4800000000000E+00  1.8858811829201E-03  5.4804900949914E-02
150  1.4900000000000E+00  1.5959364539277E-03  4.5820066996715E-02
151  1.5000000000000E+00  1.3057423152966E-03  3.7688922201096E-02
152  1.5100000000000E+00  1.0283865853750E-03  3.0403267254351E-02
153  1.5200000000000E+00  7.7495441608286E-04  2.3954604319147E-02
154  1.5300000000000E+00  5.5313827653971E-04  1.8322846925434E-02
155  1.5400000000000E+00  3.6737921014807E-04  1.3476617960377E-02
156  1.5500000000000E+00  2.2146324019323E-04  9.4071558770173E-03
157  1.5600000000000E+00  1.1591646010433E-04  6.1002102927272E-03
158  1.5700000000000E+00  4.8102021484600E-05  3.5360155245510E-03
159  1.5800000000000E+00  1.2325406278687E-05  1.6903270407000E-03
160  1.5900000000000E+00  7.5762255554546E-08  5.2811338537017E-04
161  1.6000000000000E+00 -3.7356734239626E-07  4.1966357469024E-05
162  1.6100000000000E+00  1.0470777581388E-07 -8.0509960184040E-06
163  1.6200000000000E+00 -2.1665385135568E-08  2.5894671938255E-06
164  1.63  0. -0.
165  1.64 -0. -0.
166  1.65  0.  0.
167  1.66  0.  0.
168  1.67  0.  0.
169  1.68  0.  0.
170  1.69  0.  0.
171  1.70  0.  0.
172  1.71  0.  0.
173  1.72  0.  0.
174  1.73  0.  0.
175  1.74  0.  0.
176  1.75  0.  0.
177  1.76  0.  0.
178  1.77  0.  0.
179  1.78  0.  0.
180  1.79  0.  0.
181  1.80  0.  0.
182  1.81  0.  0.
183  1.82  0.  0.
184  1.83  0.  0.
185  1.84  0.  0.
186  1.85  0.  0.
187  1.86  0.  0.
188  1.87  0.  0.
189  1.88  0.  0.
190  1.89  0.  0.
191  1.90  0.  0.
192  1.91  0.  0.
193  1.92  0.  0.
194  1.93  0.  0.
195  1.94  0.  0.
196  1.95  0.  0.
197  1.96  0.  0.
198  1.97  0.  0.
199  1.98  0.  0.
200  1.99  0.  0.
201  2.00  0.  0.
202  2.01  0.  0.
203  2.02  0.  0.
204  2.03  0.  0.
205  2.04  0.  0.
206  2.05  0.  0.
207  2.06  0.  0.
208  2.07  0.  0.
209  2.08  0.  0.
210  2.09  0.  0.
211  2.10  0.  0.
212  2.11  0.  0.
213  2.12  0.  0.
214  2.13  0.  0.
215  2.14  0.  0.
216  2.15  0.  0.
217  2.16  0.  0.
218  2.17  0.  0.
219  2.18  0.  0.
220  2.19  0.  0.
221  2.20  0.  0.
222  2.21  0.  0.
223  2.22  0.  0.
224  2.23  0.  0.
225  2.24  0.  0.
226  2.25  0.  0.
227  2.26  0.  0.
228  2.27  0.  0.
229  2.28  0.  0.
230  2.29  0.  0.
231  2.30  0.  0.
232  2.31  0.  0.
233  2.32  0.  0.
234  2.33  0.  0.
235  2.34  0.  0.
236  2.35  0.  0.
237  2.36  0.  0.
238  2.37  0.  0.
239  2.38  0.  0.
240  2.39  0.  0.
241  2.40  0.  0.
242  2.41  0.  0.
243  2.42  0.  0.
244  2.43  0.  0.
245  2.44  0.  0.
246  2.45  0.  0.
247  2.46  0.  0.
248  2.47  0.  0.
249  2.48  0.  0.
250  2.49  0.  0.
251  2.50  0.  0.
252  2.51  0.  0.
253  2.52  0.  0.
254  2.53  0.  0.
255  2.54  0.  0.
256  2.55  0.  0.
257  2.56  0.  0.
258  2.57  0.  0.
259  2.58  0.  0.
260  2.59  0.  0.
261  2.60  0.  0.
262  2.61  0.  0.
263  2.62  0.  0.
264  2.63  0.  0.
265  2.64  0.  0.
266  2.65  0.  0.
267  2.66  0.  0.
268  2.67  0.  0.
269  2.68  0.  0.
270  2.69  0.  0.
271  2.70  0.  0.
272  2.71  0.  0.
273  2.72  0.  0.
274  2.73  0.  0.
275  2.74  0.  0.
276  2.75  0.  0.
277  2.76  0.  0.
278  2.77  0.  0.
279  2.78  0.  0.
280  2.79  0.  0.
281  2.80  0.  0.
282  2.81  0.  0.
283  2.82  0.  0.
284  2.83  0.  0.
285  2.84  0.  0.
286  2.85  0.  0.
287  2.86  0.  0.
288  2.87  0.  0.
289  2.88  0.  0.
290  2.89  0.  0.
291  2.90  0.  0.
292  2.91  0.  0.
293  2.92  0.  0.
294  2.93  0.  0.
295  2.94  0.  0.
296  2.95  0.  0.
297  2.96  0.  0.
298  2.97  0.  0.
299  2.98  0.  0.
300  2.99  0.  0.
301  3.00  0.  0.
302  3.01  0.  0.
303  3.02  0.  0.
304  3.03  0.  0.
305  3.04  0.  0.
306  3.05  0.  0.
307  3.06  0.  0.
308  3.07  0.  0.
309  3.08  0.  0.
310  3.09  0.  0.
311  3.10  0.  0.
312  3.11  0.  0.
313  3.12  0.  0.
314  3.13  0.  0.
315  3.14  0.  0.
316  3.15  0.  0.
317  3.16  0.  0.
318  3.17  0.  0.
319  3.18  0.  0.
320  3.19  0.  0.
321  3.20  0.  0.
322  3.21  0.  0.
323  3.22  0.  0.
324  3.23  0.  0.
325  3.24  0.  0.
326  3.25  0.  0.
327  3.26  0.  0.
328  3.27  0.  0.
329  3.28  0.  0.
330  3.29  0.  0.
331  3.30  0.  0.
332  3.31  0.  0.
333  3.32  0.  0.
334  3.33  0.  0.
335  3.34  0.  0.
336  3.35  0.  0.
337  3.36  0.  0.
338  3.37  0.  0.
339  3.38  0.  0.
340  3.39  0.  0.
341  3.40  0.  0.
342  3.41  0.  0.
343  3.42  0.  0.
344  3.43  0.  0.
345  3.44  0.  0.
346  3.45  0.  0.
347  3.46  0.  0.
348  3.47  0.  0.
349  3.48  0.  0.
350  3.49  0.  0.
351  3.50  0.  0.
352  3.51  0.  0.
353  3.52  0.  0.
354  3.53  0.  0.
355  3.54  0.  0.
356  3.55  0.  0.
357  3.56  0.  0.
358  3.57  0.  0.
359  3.58  0.  0.
360  3.59  0.  0.
361  3.60  0.  0.
362  3.61  0.  0.
363  3.62  0.  0.
364  3.63  0.  0.
365  3.64  0.  0.
366  3.65  0.  0.
367  3.66  0.  0.
368  3.67  0.  0.
369  3.68  0.  0.
370  3.69  0.  0.
371  3.70  0.  0.
372  3.71  0.  0.
373  3.72  0.  0.
374  3.73  0.  0.
375  3.74  0.  0.
376  3.75  0.  0.
377  3.76  0.  0.
378  3.77  0.  0.
379  3.78  0.  0.
380  3.79  0.  0.
381  3.80  0.  0.
382  3.81  0.  0.
383  3.82  0.  0.
384  3.83  0.  0.
385  3.84  0.  0.
386  3.85  0.  0.
387  3.86  0.  0.
388  3.87  0.  0.
389  3.88  0.  0.
390  3.89  0.  0.
391  3.90  0.  0.
392  3.91  0.  0.
393  3.92  0.  0.
394  3.93  0.  0.
395  3.94  0.  0.
396  3.95  0.  0.
397  3.96  0.  0.
398  3.97  0.  0.
399  3.98  0.  0.
400  3.99  0.  0.
401  4.00  0.  0.
402  4.01  0.  0.
403  4.02  0.  0.
404  4.03  0.  0.
405  4.04  0.  0.
406  4.05  0.  0.
407  4.06  0.  0.
408  4.07  0.  0.
409  4.08  0.  0.
410  4.09  0.  0.
411  4.10  0.  0.
412  4.11  0.  0.
413  4.12  0.  0.
414  4.13  0.  0.
415  4.14  0.  0.
416  4.15  0.  0.
417  4.16  0.  0.
418  4.17  0.  0.
419  4.18  0.  0.
420  4.19  0.  0.
421  4.20  0.  0.
422  4.21  0.  0.
423  4.22  0.  0.
424  4.23  0.  0.
425  4.24  0.  0.
426  4.25  0.  0.
427  4.26  0.  0.
428  4.27  0.  0.
429  4.28  0.  0.
430  4.29  0.  0.
431  4.30  0.  0.
432  4.31  0.  0.
433  4.32  0.  0.
434  4.33  0.  0.
435  4.34  0.  0.
436  4.35  0.  0.
437  4.36  0.  0.
438  4.37  0.  0.
439  4.38  0.  0.
440  4.39  0.  0.
441  4.40  0.  0.
442  4.41  0.  0.
443  4.42  0.  0.
444  4.43  0.  0.
445  4.44  0.  0.
446  4.45  0.  0.
447  4.46  0.  0.
448  4.47  0.  0.
449  4.48  0.  0.
450  4.49  0.  0.
451  4.50  0.  0.
452  4.51  0.  0.
453  4.52  0.  0.
454  4.53  0.  0.
455  4.54  0.  0.
456  4.55  0.  0.
457  4.56  0.  0.
458  4.57  0.  0.
459  4.58  0.  0.
460  4.59  0.  0.
461  4.60  0.  0.
462  4.61  0.  0.
463  4.62  0.  0.
464  4.63  0.  0.
465  4.64  0.  0.
466  4.65  0.  0.
467  4.66  0.  0.
468  4.67  0.  0.
469  4.68  0.  0.
470  4.69  0.  0.
471  4.70  0.  0.
472  4.71  0.  0.
473  4.72  0.  0.
474  4.73  0.  0.
475  4.74  0.  0.
476  4.75  0.  0.
477  4.76  0.  0.
478  4.77  0.  0.
479  4.78  0.  0.
480  4.79  0.  0.
481  4.80  0.  0.
482  4.81  0.  0.
483  4.82  0.  0.
484  4.83  0.  0.
485  4.84  0.  0.
486  4.85  0.  0.
487  4.86  0.  0.
488  4.87  0.  0.
489  4.88  0.  0.
490  4.89  0.  0.
491  4.90  0.  0.
492  4.91  0.  0.
493  4.92  0.  0.
494  4.93  0.  0.
495  4.94  0.  0.
496  4.95  0.  0.
497  4.96  0.  0.
498  4.97  0.  0.
499  4.98  0.  0.
500  4.99  0.  0.
501  5.00  0.  0.
502  5.01  0.  0.
503  5.02  0.  0.
504  5.03  0.  0.
505  5.04  0.  0.
506  5.05  0.  0.
507  5.06  0.  0.
508  5.07  0.  0.
509  5.08  0.  0.
510  5.09  0.  0.
511  5.10  0.  0.
512  5.11  0.  0.
513  5.12  0.  0.
514  5.13  0.  0.
515  5.14  0.  0.
516  5.15  0.  0.
517  5.16  0.  0.
518  5.17  0.  0.
519  5.18  0.  0.
520  5.19  0.  0.
521  5.20  0.  0.
522  5.21  0.  0.
523  5.22  0.  0.
524  5.23  0.  0.
525  5.24  0.  0.
526  5.25  0.  0.
527  5.26  0.  0.
528  5.27  0.  0.
529  5.28  0.  0.
530  5.29  0.  0.
531  5.30  0.  0.
532  5.31  0.  0.
533  5.32  0.  0.
534  5.33  0.  0.
535  5.34  0.  0.
536  5.35  0.  0.
537  5.36  0.  0.
538  5.37  0.  0.
539  5.38  0.  0.
540  5.39  0.  0.
541  5.40  0.  0.
542  5.41  0.  0.
543  5.42  0.  0.
544  5.43  0.  0.
545  5.44  0.  0.
546  5.45  0.  0.
547  5.46  0.  0.
548  5.47  0.  0.
549  5.48  0.  0.
550  5.49  0.  0.
551  5.50  0.  0.
552  5.51  0.  0.
553  5.52  0.  0.
554  5.53  0.  0.
555  5.54  0.  0.
556  5.55  0.  0.
557  5.56  0.  0.
558  5.57  0.  0.
559  5.58  0.  0.
560  5.59  0.  0.
561  5.60  0.  0.
562  5.61  0.  0.
563  5.62  0.  0.
564  5.63  0.  0.
565  5.64  0.  0.
566  5.65  0.  0.
567  5.66  0.  0.
568  5.67  0.  0.
569  5.68  0.  0.
570  5.69  0.  0.
571  5.70  0.  0.
572  5.71  0.  0.
573  5.72  0.  0.
574  5.73  0.  0.
575  5.74  0.  0.
576  5.75  0.  0.
577  5.76  0.  0.
578  5.77  0.  0.
579  5.78  0.  0.
580  5.79  0.  0.
581  5.80  0.  0.
582  5.81  0.  0.
583  5.82  0.  0.
584  5.83  0.  0.
585  5.84  0.  0.
586  5.85  0.  0.
587  5.86  0.  0.
588  5.87  0.  0.
589  5.88  0.  0.
590  5.89  0.  0.
591  5.90  0.  0.
592  5.91  0.  0.
593  5.92  0.  0.
594  5.93  0.  0.
595  5.94  0.  0.
596  5.95  0.  0.
597  5.96  0.  0.
598  5.97  0.  0.
599  5.98  0.  0.
600  5.99  0.  0.
1                         6.3406485731380E+00 -1.7338781337351E+00
1  0.0000000000000E+00  2.9973168391706E-10  1.4535503356505E-10
2  1.0000000000000E-02  1.4362438056563E-03 -2.2958340037775E-03
3  2.0000000000000E-02  5.7396461289093E-03 -9.1674669919865E-03
4  3.0000000000000E-02  1.2894242634302E-02 -2.0567364332855E-02
5  4.0000000000000E-02  2.2873502413575E-02 -3.6416543271623E-02
6  5.0000000000000E-02  3.5640441875968E-02 -5.6604935969551E-02
7  6.0000000000000E-02  5.1147783031042E-02 -8.0991898895975E-02
8  7.0000000000000E-02  6.9338155019771E-02 -1.0940686960420E-01
9  8.0000000000000E-02  9.0144337449903E-02 -1.4165017206735E-01
10  9.0000000000000E-02  1.1348954381166E-01 -1.7749397178769E-01
11  1.0000000000000E-01  1.3928774299327E-01 -2.1668338180486E-01
12  1.1000000000000E-01  1.6744401668600E-01 -2.5893772049738E-01
13  1.2000000000000E-01  1.9785495026794E-01 -3.0395192168739E-01
14  1.3000000000000E-01  2.3040905458711E-01 -3.5139809700939E-01
15  1.4000000000000E-01  2.6498721592932E-01 -4.0092724978695E-01
16  1.5000000000000E-01  3.0146317135546E-01 -4.5217113877471E-01
17  1.6000000000000E-01  3.3970400652766E-01 -5.0474428907015E-01
18  1.7000000000000E-01  3.7957067311279E-01 -5.5824614628826E-01
19  1.8000000000000E-01  4.2091852285610E-01 -6.1226336873391E-01
20  1.9000000000000E-01  4.6359785545426E-01 -6.6637225081695E-01
21  2.0000000000000E-01  5.0745447742538E-01 -7.2014126935392E-01
22  2.1000000000000E-01  5.5233026927001E-01 -7.7313374271053E-01
23  2.2000000000000E-01  5.9806375834033E-01 -8.2491059098673E-01
24  2.3000000000000E-01  6.4449069497952E-01 -8.7503318366158E-01
25  2.4000000000000E-01  6.9144462965788E-01 -9.2306625932757E-01
26  2.5000000000000E-01  7.3875748901117E-01 -9.6858090038856E-01
27  2.6000000000000E-01  7.8626014887664E-01 -1.0111575439049E+00
28  2.7000000000000E-01  8.3378300261838E-01 -1.0503890081787E+00
29  2.8000000000000E-01  8.8115652323191E-01 -1.0858835132167E+00
30  2.9000000000000E-01  9.2821181791365E-01 -1.1172676719203E+00
31  3.0000000000000E-01  9.7478117397024E-01 -1.1441894277653E+00
32  3.1000000000000E-01  1.0206985951209E+00 -1.1663209138793E+00
33  3.2000000000000E-01  1.0658003274102E+00 -1.1833612078259E+00
34  3.3000000000000E-01  1.1099253740934E+00 -1.1950389560925E+00
35  3.4000000000000E-01  1.1529159989840E+00 -1.2011148422665E+00
36  3.5000000000000E-01  1.1946182178504E+00 -1.2013838731971E+00
37  3.6000000000000E-01  1.2348822775279E+00 -1.1956774580782E+00
38  3.7000000000000E-01  1.2735631224588E+00 -1.1838652563709E+00
39  3.8000000000000E-01  1.3105208483950E+00 -1.1658567718039E+00
40  3.9000000000000E-01  1.3456211429892E+00 -1.1416026713455E+00
41  4.0000000000000E-01  1.3787357129679E+00 -1.1110958100253E+00
42  4.1000000000000E-01  1.4097426975149E+00 -1.0743719447797E+00
43  4.2000000000000E-01  1.4385270674111E+00 -1.0315101230814E+00
44  4.3000000000000E-01  1.4649810093663E+00 -9.8263273496698E-01
45  4.4000000000000E-01  1.4890042948494E+00 -9.2790522016695E-01
46  4.5000000000000E-01  1.5105046325831E+00 -8.6753542533371E-01
47  4.6000000000000E-01  1.5293980037080E+00 -8.0177260981650E-01
48  4.7000000000000E-01  1.5456089784608E+00 -7.3090610200778E-01
49  4.8000000000000E-01  1.5590710130422E+00 -6.5526361193475E-01
50  4.9000000000000E-01  1.5697267251836E+00 -5.7520920944831E-01
51  5.0000000000000E-01  1.5775281467630E+00 -4.9114098101946E-01
52  5.1000000000000E-01  1.5824369516731E+00 -4.0348838173994E-01
53  5.2000000000000E-01  1.5844246570111E+00 -3.1270930259245E-01
54  5.3000000000000E-01  1.5834727955511E+00 -2.1928687635408E-01
55  5.4000000000000E-01  1.5795730573750E+00 -1.2372604858144E-01
56  5.5000000000000E-01  1.5727273984830E+00 -2.6549942947906E-02
57  5.6000000000000E-01  1.5629481141844E+00  7.1703947274028E-02
58  5.7000000000000E-01  1.5502578750855E+00  1.7048770761264E-01
59  5.8000000000000E-01  1.5346897235488E+00  2.6924705489778E-01
60  5.9000000000000E-01  1.5162870285936E+00  3.6742545667790E-01
61  6.0000000000000E-01  1.4951033973514E+00  4.6446827938742E-01
62  6.1000000000000E-01  1.4712025413730E+00  5.5982692656319E-01
63  6.2000000000000E-01  1.4446580963142E+00  6.5296292832551E-01
64  6.3000000000000E-01  1.4155533937949E+00  7.4335194371423E-01
65  6.4000000000000E-01  1.3839811845426E+00  8.3048763830339E-01
66  6.5000000000000E-01  1.3500433122768E+00  9.1388540079744E-01
67  6.6000000000000E-01  1.3138503381768E+00  9.9308586402574E-01
68  6.7000000000000E-01  1.2755211161928E+00  1.0676581978770E+00
69  6.8000000000000E-01  1.2351823198958E+00  1.1372031442253E+00
70  6.9000000000000E-01  1.1929679220294E+00  1.2013557667615E+00
71  7.0000000000000E-01  1.1490186283967E+00  1.2597878918189E+00
72  7.1000000000000E-01  1.1034812682044E+00  1.3122102197303E+00
73  7.2000000000000E-01  1.0565081434669E+00  1.3583740899261E+00
74  7.3000000000000E-01  1.0082563405578E+00  1.3980728868317E+00
75  7.4000000000000E-01  9.5888700745866E-01  1.4311430775955E+00
76  7.5000000000000E-01  9.0856460070692E-01  1.4574648767233E+00
77  7.6000000000000E-01  8.5745610646056E-01  1.4769625367519E+00
78  7.7000000000000E-01  8.0573024048846E-01  1.4896042681229E+00
79  7.8000000000000E-01  7.5355663223933E-01  1.4954017953417E+00
80  7.9000000000000E-01  7.0110499844401E-01  1.4944095603035E+00
81  8.0000000000000E-01  6.4854431195485E-01  1.4867235872622E+00
82  8.1000000000000E-01  5.9604197171813E-01  1.4724800272788E+00
83  8.2000000000000E-01  5.4376297990798E-01  1.4518534030718E+00
84  8.3000000000000E-01  4.9186913231797E-01  1.4250545779575E+00
85  8.4000000000000E-01  4.4051822810835E-01  1.3923284749851E+00
86  8.5000000000000E-01  3.8986330494094E-01  1.3539515744213E+00
87  8.6000000000000E-01  3.4005190539906E-01  1.3102292193853E+00
88  8.7000000000000E-01  2.9122538038722E-01  1.2614927606785E+00
89  8.8000000000000E-01  2.4351823493659E-01  1.2080965726770E+00
90  8.9000000000000E-01  1.9705752150843E-01  1.1504149725614E+00
91  9.0000000000000E-01  1.5196228549388E-01  1.0888390751470E+00
92  9.1000000000000E-01  1.0834306715762E-01  1.0237736151725E+00
93  9.2000000000000E-01  6.6301463770146E-02  9.5563376809873E-01
94  9.3000000000000E-01  2.5929755125615E-02  8.8484199931475E-01
95  9.4000000000000E-01 -1.2689404945517E-02  8.1182497014397E-01
96  9.5000000000000E-01 -4.9483229079291E-02  7.3701052724101E-01
97  9.6000000000000E-01 -8.4388967550891E-02  6.6082479989444E-01
98  9.7000000000000E-01 -1.1735400943218E-01  5.8368942744615E-01
99  9.8000000000000E-01 -1.4833591371833E-01  5.0601893654245E-01
100  9.9000000000000E-01 -1.7730237107683E-01  4.2821828529065E-01
101  1.0000000000000E+00 -2.0423109753276E-01  3.5068058865291E-01
102  1.0100000000000E+00 -2.2910966204904E-01  2.7378503660435E-01
103  1.0200000000000E+00 -2.5193525057948E-01  1.9789501376936E-01
104  1.0300000000000E+00 -2.7271436976103E-01  1.2335642646085E-01
105  1.0400000000000E+00 -2.9146249395941E-01  5.0496240329376E-02
106  1.0500000000000E+00 -3.0820365988630E-01 -2.0378770784513E-02
107  1.0600000000000E+00 -3.2297001345646E-01 -8.8983066668584E-02
108  1.0700000000000E+00 -3.3580131394908E-01 -1.5505317740240E-01
109  1.0800000000000E+00 -3.4674440087084E-01 -2.1834834113677E-01
110  1.0900000000000E+00 -3.5585262918818E-01 -2.7865095113548E-01
111  1.1000000000000E+00 -3.6318527879910E-01 -3.3576682186456E-01
112  1.1100000000000E+00 -3.6880694424976E-01 -3.8952528529527E-01
113  1.1200000000000E+00 -3.7278691076685E-01 -4.3977912971502E-01
114  1.1300000000000E+00 -3.7519852267492E-01 -4.8640439419981E-01
115  1.1400000000000E+00 -3.7611855019774E-01 -5.2930003250549E-01
116  1.1500000000000E+00 -3.7562656050956E-01 -5.6838746048298E-01
117  1.1600000000000E+00 -3.7380429870536E-01 -6.0361000122957E-01
118  1.1700000000000E+00 -3.7073508410651E-01 -6.3493224206852E-01
119  1.1800000000000E+00 -3.6650322700986E-01 -6.6233931712021E-01
120  1.1900000000000E+00 -3.6119347063474E-01 -6.8583612871566E-01
121  1.2000000000000E+00 -3.5489046262288E-01 -7.0544652022514E-01
122  1.2100000000000E+00 -3.4767826001362E-01 -7.2121241206519E-01
123  1.2200000000000E+00 -3.3963987115216E-01 -7.3319291172762E-01
124  1.2300000000000E+00 -3.3085683750059E-01 -7.4146340767318E-01
125  1.2400000000000E+00 -3.2140885781938E-01 -7.4611465588706E-01
126  1.2500000000000E+00 -3.1137345667122E-01 -7.4725186681504E-01
127  1.2600000000000E+00 -3.0082569868314E-01 -7.4499379933153E-01
128  1.2700000000000E+00 -2.8983794948997E-01 -7.3947186735049E-01
129  1.2800000000000E+00 -2.7847968377595E-01 -7.3082926369667E-01
130  1.2900000000000E+00 -2.6681734034346E-01 -7.1922010493913E-01
131  1.3000000000000E+00 -2.5491422366932E-01 -7.0480860006129E-01
132  1.3100000000000E+00 -2.4283045096400E-01 -6.8776824511429E-01
133  1.3200000000000E+00 -2.3062294333566E-01 -6.6828104539353E-01
134  1.3300000000000E+00 -2.1834545928032E-01 -6.4653676619097E-01
135  1.3400000000000E+00 -2.0604866837233E-01 -6.2273221281407E-01
136  1.3500000000000E+00 -1.9378026272349E-01 -5.9707054032952E-01
137  1.3600000000000E+00 -1.8158510351074E-01 -5.6976059337930E-01
138  1.3700000000000E+00 -1.6950539964676E-01 -5.4101627642373E-01
139  1.3800000000000E+00 -1.5758091548108E-01 -5.1105595488191E-01
140  1.3900000000000E+00 -1.4584920427563E-01 -4.8010188785124E-01
141  1.4000000000000E+00 -1.3434586409382E-01 -4.4837969338193E-01
142  1.4100000000000E+00 -1.2310481267684E-01 -4.1611784764041E-01
143  1.4200000000000E+00 -1.1215857785190E-01 -3.8354721970578E-01
144  1.4300000000000E+00 -1.0153860002403E-01 -3.5090064417998E-01
145  1.4400000000000E+00 -9.1275543341525E-02 -3.1841253424300E-01
146  1.4500000000000E+00 -8.1399612194151E-02 -2.8631853822623E-01
147  1.4600000000000E+00 -7.1940869798581E-02 -2.5485524319431E-01
148  1.4700000000000E+00 -6.2929555745155E-02 -2.2425992939999E-01
149  1.4800000000000E+00 -5.4396399842356E-02 -1.9477038163976E-01
150  1.4900000000000E+00 -4.6372928637281E-02 -1.6662475747131E-01
151  1.5000000000000E+00 -3.8891756648702E-02 -1.4006149100762E-01
152  1.5100000000000E+00 -3.1986740729460E-02 -1.1531851784694E-01
153  1.5200000000000E+00 -2.5690995003931E-02 -9.2620412130462E-02
154  1.5300000000000E+00 -2.0030981787310E-02 -7.2132182447945E-02
155  1.5400000000000E+00 -1.5025908021447E-02 -5.3954870871116E-02
156  1.5500000000000E+00 -1.0703067178681E-02 -3.8257717487834E-02
157  1.5600000000000E+00 -7.0864263018231E-03 -2.5171819745288E-02
158  1.5700000000000E+00 -4.1963772194145E-03 -1.4787312203200E-02
159  1.5800000000000E+00 -2.0505532004351E-03 -7.1556245855712E-03
160  1.5900000000000E+00 -6.5504235429449E-04 -2.2600754979106E-03
161  1.6000000000000E+00 -5.3358168529761E-05 -1.8148341023188E-04
162  1.6100000000000E+00  1.0375523060794E-05  3.5051971126102E-05
163  1.6200000000000E+00 -3.2950897670668E-06 -1.1215414325857E-05
164  1.63  0.  0.
165  1.64 -0.  0.
166  1.65  0.  0.