Og    ONCVPSP-4.0.1  r_core=   1.60307   1.60307   1.60307   1.40539
118.0000     26.0000      230803    zatom,zion,pspd
8      11   3     4   600     0    pspcod,pspxc,lmax,lloc,mmax,r2well
5.99000000  7.80500000  0.00000000    rchrg fchrg qchrg
2     2     2     1     0    nproj
1     1           extension_switch
0                         1.1514415812392E+01 -2.7424430026993E-01
1  0.0000000000000E+00  3.7857050827483E-11  1.1010126144129E-09
2  1.0000000000000E-02  8.3708706808634E-02  3.6736300345247E-02
3  2.0000000000000E-02  1.6720396587120E-01  7.3359060908274E-02
4  3.0000000000000E-02  2.5027295031911E-01  1.0975414176625E-01
5  4.0000000000000E-02  3.3270407386936E-01  1.4580622095895E-01
6  5.0000000000000E-02  4.1428760818384E-01  1.8139824879466E-01
7  6.0000000000000E-02  4.9481629668058E-01  2.1641095575178E-01
8  7.0000000000000E-02  5.7408596356856E-01  2.5072243052971E-01
9  8.0000000000000E-02  6.5189611683971E-01  2.8420778370186E-01
10  9.0000000000000E-02  7.2805054390603E-01  3.1673891107532E-01
11  1.0000000000000E-01  8.0235789851747E-01  3.4818436928652E-01
12  1.1000000000000E-01  8.7463227753780E-01  3.7840937437853E-01
13  1.2000000000000E-01  9.4469378609396E-01  4.0727593214184E-01
14  1.3000000000000E-01  1.0123690895494E+00  4.3464310687992E-01
15  1.4000000000000E-01  1.0774919506861E+00  4.6036743301527E-01
16  1.5000000000000E-01  1.1399037504158E+00  4.8430347161144E-01
17  1.6000000000000E-01  1.1994539902772E+00  5.0630451148282E-01
18  1.7000000000000E-01  1.2560007749202E+00  5.2622341213316E-01
19  1.8000000000000E-01  1.3094112727247E+00  5.4391358333531E-01
20  1.9000000000000E-01  1.3595621526600E+00  5.5923009377858E-01
21  2.0000000000000E-01  1.4063399954562E+00  5.7203089889285E-01
22  2.1000000000000E-01  1.4496416771384E+00  5.8217817575021E-01
23  2.2000000000000E-01  1.4893747229668E+00  5.8953975087106E-01
24  2.3000000000000E-01  1.5254576298314E+00  5.9399060485641E-01
25  2.4000000000000E-01  1.5578201551732E+00  5.9541443605675E-01
26  2.5000000000000E-01  1.5864035705474E+00  5.9370526399677E-01
27  2.6000000000000E-01  1.6111608779973E+00  5.8876905202768E-01
28  2.7000000000000E-01  1.6320569874935E+00  5.8052532769273E-01
29  2.8000000000000E-01  1.6490688537834E+00  5.6890877858400E-01
30  2.9000000000000E-01  1.6621855711209E+00  5.5387080105299E-01
31  3.0000000000000E-01  1.6714084244808E+00  5.3538097901956E-01
32  3.1000000000000E-01  1.6767508960232E+00  5.1342847031351E-01
33  3.2000000000000E-01  1.6782386257489E+00  4.8802327847565E-01
34  3.3000000000000E-01  1.6759093254876E+00  4.5919738874168E-01
35  3.4000000000000E-01  1.6698126455720E+00  4.2700574802400E-01
36  3.5000000000000E-01  1.6600099937848E+00  3.9152707008288E-01
37  3.6000000000000E-01  1.6465743064116E+00  3.5286444872380E-01
38  3.7000000000000E-01  1.6295897714925E+00  3.1114576375552E-01
39  3.8000000000000E-01  1.6091515046378E+00  2.6652386657055E-01
40  3.9000000000000E-01  1.5853651780543E+00  2.1917653454130E-01
41  4.0000000000000E-01  1.5583466037155E+00  1.6930618593472E-01
42  4.1000000000000E-01  1.5282212719038E+00  1.1713934970474E-01
43  4.2000000000000E-01  1.4951238466463E+00  6.2925887292980E-02
44  4.3000000000000E-01  1.4591976198606E+00  6.9379664220596E-03
45  4.4000000000000E-01  1.4205939263168E+00 -5.0531210236600E-02
46  4.5000000000000E-01  1.3794715218088E+00 -1.0916891572754E-01
47  4.6000000000000E-01  1.3359959271996E+00 -1.6864464013331E-01
48  4.7000000000000E-01  1.2903387412728E+00 -2.2861205105557E-01
49  4.8000000000000E-01  1.2426769255696E+00 -2.8871115903374E-01
50  4.9000000000000E-01  1.1931920646222E+00 -3.4857067108618E-01
51  5.0000000000000E-01  1.1420696052080E+00 -4.0781051313144E-01
52  5.1000000000000E-01  1.0894980784372E+00 -4.6604449981537E-01
53  5.2000000000000E-01  1.0356683086551E+00 -5.2288312826196E-01
54  5.3000000000000E-01  9.8077261327451E-01 -5.7793647050995E-01
55  5.4000000000000E-01  9.2500399777197E-01 -6.3081713791372E-01
56  5.5000000000000E-01  8.6855535015630E-01 -6.8114328959875E-01
57  5.6000000000000E-01  8.1161863927345E-01 -7.2854165618143E-01
58  5.7000000000000E-01  7.5438412132830E-01 -7.7265054940773E-01
59  5.8000000000000E-01  6.9703955899106E-01 -8.1312282813744E-01
60  5.9000000000000E-01  6.3976945740948E-01 -8.4962879121112E-01
61  6.0000000000000E-01  5.8275432136839E-01 -8.8185896818133E-01
62  6.1000000000000E-01  5.2616993772633E-01 -9.0952677966634E-01
63  6.2000000000000E-01  4.7018668711462E-01 -9.3237104018640E-01
64  6.3000000000000E-01  4.1496888870916E-01 -9.5015827775440E-01
65  6.4000000000000E-01  3.6067418167986E-01 -9.6268484620465E-01
66  6.5000000000000E-01  3.0745294668917E-01 -9.6977880822914E-01
67  6.6000000000000E-01  2.5544777055077E-01 -9.7130156933383E-01
68  6.7000000000000E-01  2.0479295687482E-01 -9.6714924539884E-01
69  6.8000000000000E-01  1.5561408521901E-01 -9.5725374919707E-01
70  6.9000000000000E-01  1.0802762093813E-01 -9.4158358406810E-01
71  7.0000000000000E-01  6.2140577580790E-02 -9.2014433592088E-01
72  7.1000000000000E-01  1.8050233324510E-02 -8.9297885781847E-01
73  7.2000000000000E-01 -2.4156097428761E-02 -8.6016714454359E-01
74  7.3000000000000E-01 -6.4401236551270E-02 -8.2182589771799E-01
75  7.4000000000000E-01 -1.0261825841826E-01 -7.7810778521611E-01
76  7.5000000000000E-01 -1.3875054988588E-01 -7.2920040173636E-01
77  7.6000000000000E-01 -1.7275181441800E-01 -6.7532494043608E-01
78  7.7000000000000E-01 -2.0458602113779E-01 -6.1673458846308E-01
79  7.8000000000000E-01 -2.3422729994732E-01 -5.5371266199523E-01
80  7.9000000000000E-01 -2.6165978421456E-01 -4.8657049899710E-01
81  8.0000000000000E-01 -2.8687740286897E-01 -4.1564513029044E-01
82  8.1000000000000E-01 -3.0988362407126E-01 -3.4129675168556E-01
83  8.2000000000000E-01 -3.3069115292738E-01 -2.6390602181246E-01
84  8.3000000000000E-01 -3.4932158599912E-01 -1.8387121189836E-01
85  8.4000000000000E-01 -3.6580502562093E-01 -1.0160523505001E-01
86  8.5000000000000E-01 -3.8017965726408E-01 -1.7532583599261E-02
87  8.6000000000000E-01 -3.9249129339120E-01  6.7913796253067E-02
88  8.7000000000000E-01 -4.0279288741796E-01  1.5429566290766E-01
89  8.8000000000000E-01 -4.1114402153998E-01  2.4117264134274E-01
90  8.9000000000000E-01 -4.1761037229400E-01  3.2810535929178E-01
91  9.0000000000000E-01 -4.2226315780000E-01  4.1465852894476E-01
92  9.1000000000000E-01 -4.2517857067692E-01  5.0040394643139E-01
93  9.2000000000000E-01 -4.2643720063780E-01  5.8492338258011E-01
94  9.3000000000000E-01 -4.2612345075153E-01  6.6781133996163E-01
95  9.4000000000000E-01 -4.2432495130854E-01  7.4867765300289E-01
96  9.5000000000000E-01 -4.2113197514753E-01  8.2714990997200E-01
97  9.6000000000000E-01 -4.1663685819127E-01  9.0287567786119E-01
98  9.7000000000000E-01 -4.1093342880252E-01  9.7552451360740E-01
99  9.8000000000000E-01 -4.0411644940922E-01  1.0447897476559E+00
100  9.9000000000000E-01 -3.9628107366104E-01  1.1103900285631E+00
101  1.0000000000000E+00 -3.8752232217253E-01  1.1720706201139E+00
102  1.0100000000000E+00 -3.7793457967995E-01  1.2296044452699E+00
103  1.0200000000000E+00 -3.6761111619560E-01  1.2827928741258E+00
104  1.0300000000000E+00 -3.5664363448477E-01  1.3314662559054E+00
105  1.0400000000000E+00 -3.4512184592068E-01  1.3754841978387E+00
106  1.0500000000000E+00 -3.3313307649403E-01  1.4147355965005E+00
107  1.0600000000000E+00 -3.2076190446885E-01  1.4491384298171E+00
108  1.0700000000000E+00 -3.0808983088789E-01  1.4786393204499E+00
109  1.0800000000000E+00 -2.9519498384197E-01  1.5032128835932E+00
110  1.0900000000000E+00 -2.8215185713041E-01  1.5228608743727E+00
111  1.1000000000000E+00 -2.6903108365703E-01  1.5376111519699E+00
112  1.1100000000000E+00 -2.5589924363096E-01  1.5475164792988E+00
113  1.1200000000000E+00 -2.4281870737440E-01  1.5526531785292E+00
114  1.1300000000000E+00 -2.2984751228526E-01  1.5531196639446E+00
115  1.1400000000000E+00 -2.1703927326045E-01  1.5490348745572E+00
116  1.1500000000000E+00 -2.0444312565972E-01  1.5405366295485E+00
117  1.1600000000000E+00 -1.9210369967990E-01  1.5277799299777E+00
118  1.1700000000000E+00 -1.8006112481858E-01  1.5109352302857E+00
119  1.1800000000000E+00 -1.6835106293353E-01  1.4901867029274E+00
120  1.1900000000000E+00 -1.5700476825287E-01  1.4657305190041E+00
121  1.2000000000000E+00 -1.4604917255965E-01  1.4377731670318E+00
122  1.2100000000000E+00 -1.3550699366496E-01  1.4065298310043E+00
123  1.2200000000000E+00 -1.2539686519556E-01  1.3722228476884E+00
124  1.2300000000000E+00 -1.1573348565532E-01  1.3350802616469E+00
125  1.2400000000000E+00 -1.0652778467450E-01  1.2953344948545E+00
126  1.2500000000000E+00 -9.7787104335960E-02  1.2532211459470E+00
127  1.2600000000000E+00 -8.9515393463120E-02  1.2089779321752E+00
128  1.2700000000000E+00 -8.1713412768902E-02  1.1628437850439E+00
129  1.2800000000000E+00 -7.4378948797794E-02  1.1150581083976E+00
130  1.2900000000000E+00 -6.7507034642996E-02  1.0658602054486E+00
131  1.3000000000000E+00 -6.1090175485750E-02  1.0154888789137E+00
132  1.3100000000000E+00 -5.5118577083787E-02  9.6418220606945E-01
133  1.3200000000000E+00 -4.9580375427955E-02  9.1217748820183E-01
134  1.3300000000000E+00 -4.4461865888752E-02  8.5971137161876E-01
135  1.3400000000000E+00 -3.9747730287404E-02  8.0702013513900E-01
136  1.3500000000000E+00 -3.5421260445576E-02  7.5434013681307E-01
137  1.3600000000000E+00 -3.1464576893686E-02  7.0190841057506E-01
138  1.3700000000000E+00 -2.7858841546832E-02  6.4996340160632E-01
139  1.3800000000000E+00 -2.4584463289951E-02  5.9874582741333E-01
140  1.3900000000000E+00 -2.1621295519127E-02  5.4849965595572E-01
141  1.4000000000000E+00 -1.8948825214479E-02  4.9947309373498E-01
142  1.4100000000000E+00 -1.6546351133520E-02  4.5192001597060E-01
143  1.4200000000000E+00 -1.4393186791999E-02  4.0609263467468E-01
144  1.4300000000000E+00 -1.2468937987994E-02  3.6221850132900E-01
145  1.4400000000000E+00 -1.0753749258406E-02  3.2049185641397E-01
146  1.4500000000000E+00 -9.2285013584456E-03  2.8107552135276E-01
147  1.4600000000000E+00 -7.8749914637210E-03  2.4410246449754E-01
148  1.4700000000000E+00 -6.6760950039973E-03  2.0967752125038E-01
149  1.4800000000000E+00 -5.6159099101387E-03  1.7787912488368E-01
150  1.4900000000000E+00 -4.6798837872929E-03  1.4876103001389E-01
151  1.5000000000000E+00 -3.8549248322994E-03  1.2235401972010E-01
152  1.5100000000000E+00 -3.1294953421042E-03  9.8667484231475E-02
153  1.5200000000000E+00 -2.4936968854493E-03  7.7691228799410E-02
154  1.5300000000000E+00 -1.9388272899621E-03  5.9371537773901E-02
155  1.5400000000000E+00 -1.4572961613339E-03  4.3614137772950E-02
156  1.5500000000000E+00 -1.0449663536049E-03  3.0396197588232E-02
157  1.5600000000000E+00 -6.9957210329928E-04  1.9672854258899E-02
158  1.5700000000000E+00 -4.2063873724462E-04  1.1377260788998E-02
159  1.5800000000000E+00 -2.0953371242654E-04  5.4240461088238E-03
160  1.5900000000000E+00 -6.8456952438187E-05  1.6894676390441E-03
161  1.6000000000000E+00 -5.7407337729735E-06  1.3373198598153E-04
162  1.6100000000000E+00  1.1275107950632E-06 -2.5610334985422E-05
163  1.6200000000000E+00 -3.5312521631740E-07  8.2536200148243E-06
164  1.63  0. -0.
165  1.64  0. -0.
166  1.65  0.  0.
167  1.66  0.  0.
168  1.67  0.  0.
169  1.68  0.  0.
170  1.69  0.  0.
171  1.70  0.  0.
172  1.71  0.  0.
173  1.72  0.  0.
174  1.73  0.  0.
175  1.74  0.  0.
176  1.75  0.  0.
177  1.76  0.  0.
178  1.77  0.  0.
179  1.78  0.  0.
180  1.79  0.  0.
181  1.80  0.  0.
182  1.81  0.  0.
183  1.82  0.  0.
184  1.83  0.  0.
185  1.84  0.  0.
186  1.85  0.  0.
187  1.86  0.  0.
188  1.87  0.  0.
189  1.88  0.  0.
190  1.89  0.  0.
191  1.90  0.  0.
192  1.91  0.  0.
193  1.92  0.  0.
194  1.93  0.  0.
195  1.94  0.  0.
196  1.95  0.  0.
197  1.96  0.  0.
198  1.97  0.  0.
199  1.98  0.  0.
200  1.99  0.  0.
201  2.00  0.  0.
202  2.01  0.  0.
203  2.02  0.  0.
204  2.03  0.  0.
205  2.04  0.  0.
206  2.05  0.  0.
207  2.06  0.  0.
208  2.07  0.  0.
209  2.08  0.  0.
210  2.09  0.  0.
211  2.10  0.  0.
212  2.11  0.  0.
213  2.12  0.  0.
214  2.13  0.  0.
215  2.14  0.  0.
216  2.15  0.  0.
217  2.16  0.  0.
218  2.17  0.  0.
219  2.18  0.  0.
220  2.19  0.  0.
221  2.20  0.  0.
222  2.21  0.  0.
223  2.22  0.  0.
224  2.23  0.  0.
225  2.24  0.  0.
226  2.25  0.  0.
227  2.26  0.  0.
228  2.27  0.  0.
229  2.28  0.  0.
230  2.29  0.  0.
231  2.30  0.  0.
232  2.31  0.  0.
233  2.32  0.  0.
234  2.33  0.  0.
235  2.34  0.  0.
236  2.35  0.  0.
237  2.36  0.  0.
238  2.37  0.  0.
239  2.38  0.  0.
240  2.39  0.  0.
241  2.40  0.  0.
242  2.41  0.  0.
243  2.42  0.  0.
244  2.43  0.  0.
245  2.44  0.  0.
246  2.45  0.  0.
247  2.46  0.  0.
248  2.47  0.  0.
249  2.48  0.  0.
250  2.49  0.  0.
251  2.50  0.  0.
252  2.51  0.  0.
253  2.52  0.  0.
254  2.53  0.  0.
255  2.54  0.  0.
256  2.55  0.  0.
257  2.56  0.  0.
258  2.57  0.  0.
259  2.58  0.  0.
260  2.59  0.  0.
261  2.60  0.  0.
262  2.61  0.  0.
263  2.62  0.  0.
264  2.63  0.  0.
265  2.64  0.  0.
266  2.65  0.  0.
267  2.66  0.  0.
268  2.67  0.  0.
269  2.68  0.  0.
270  2.69  0.  0.
271  2.70  0.  0.
272  2.71  0.  0.
273  2.72  0.  0.
274  2.73  0.  0.
275  2.74  0.  0.
276  2.75  0.  0.
277  2.76  0.  0.
278  2.77  0.  0.
279  2.78  0.  0.
280  2.79  0.  0.
281  2.80  0.  0.
282  2.81  0.  0.
283  2.82  0.  0.
284  2.83  0.  0.
285  2.84  0.  0.
286  2.85  0.  0.
287  2.86  0.  0.
288  2.87  0.  0.
289  2.88  0.  0.
290  2.89  0.  0.
291  2.90  0.  0.
292  2.91  0.  0.
293  2.92  0.  0.
294  2.93  0.  0.
295  2.94  0.  0.
296  2.95  0.  0.
297  2.96  0.  0.
298  2.97  0.  0.
299  2.98  0.  0.
300  2.99  0.  0.
301  3.00  0.  0.
302  3.01  0.  0.
303  3.02  0.  0.
304  3.03  0.  0.
305  3.04  0.  0.
306  3.05  0.  0.
307  3.06  0.  0.
308  3.07  0.  0.
309  3.08  0.  0.
310  3.09  0.  0.
311  3.10  0.  0.
312  3.11  0.  0.
313  3.12  0.  0.
314  3.13  0.  0.
315  3.14  0.  0.
316  3.15  0.  0.
317  3.16  0.  0.
318  3.17  0.  0.
319  3.18  0.  0.
320  3.19  0.  0.
321  3.20  0.  0.
322  3.21  0.  0.
323  3.22  0.  0.
324  3.23  0.  0.
325  3.24  0.  0.
326  3.25  0.  0.
327  3.26  0.  0.
328  3.27  0.  0.
329  3.28  0.  0.
330  3.29  0.  0.
331  3.30  0.  0.
332  3.31  0.  0.
333  3.32  0.  0.
334  3.33  0.  0.
335  3.34  0.  0.
336  3.35  0.  0.
337  3.36  0.  0.
338  3.37  0.  0.
339  3.38  0.  0.
340  3.39  0.  0.
341  3.40  0.  0.
342  3.41  0.  0.
343  3.42  0.  0.
344  3.43  0.  0.
345  3.44  0.  0.
346  3.45  0.  0.
347  3.46  0.  0.
348  3.47  0.  0.
349  3.48  0.  0.
350  3.49  0.  0.
351  3.50  0.  0.
352  3.51  0.  0.
353  3.52  0.  0.
354  3.53  0.  0.
355  3.54  0.  0.
356  3.55  0.  0.
357  3.56  0.  0.
358  3.57  0.  0.
359  3.58  0.  0.
360  3.59  0.  0.
361  3.60  0.  0.
362  3.61  0.  0.
363  3.62  0.  0.
364  3.63  0.  0.
365  3.64  0.  0.
366  3.65  0.  0.
367  3.66  0.  0.
368  3.67  0.  0.
369  3.68  0.  0.
370  3.69  0.  0.
371  3.70  0.  0.
372  3.71  0.  0.
373  3.72  0.  0.
374  3.73  0.  0.
375  3.74  0.  0.
376  3.75  0.  0.
377  3.76  0.  0.
378  3.77  0.  0.
379  3.78  0.  0.
380  3.79  0.  0.
381  3.80  0.  0.
382  3.81  0.  0.
383  3.82  0.  0.
384  3.83  0.  0.
385  3.84  0.  0.
386  3.85  0.  0.
387  3.86  0.  0.
388  3.87  0.  0.
389  3.88  0.  0.
390  3.89  0.  0.
391  3.90  0.  0.
392  3.91  0.  0.
393  3.92  0.  0.
394  3.93  0.  0.
395  3.94  0.  0.
396  3.95  0.  0.
397  3.96  0.  0.
398  3.97  0.  0.
399  3.98  0.  0.
400  3.99  0.  0.
401  4.00  0.  0.
402  4.01  0.  0.
403  4.02  0.  0.
404  4.03  0.  0.
405  4.04  0.  0.
406  4.05  0.  0.
407  4.06  0.  0.
408  4.07  0.  0.
409  4.08  0.  0.
410  4.09  0.  0.
411  4.10  0.  0.
412  4.11  0.  0.
413  4.12  0.  0.
414  4.13  0.  0.
415  4.14  0.  0.
416  4.15  0.  0.
417  4.16  0.  0.
418  4.17  0.  0.
419  4.18  0.  0.
420  4.19  0.  0.
421  4.20  0.  0.
422  4.21  0.  0.
423  4.22  0.  0.
424  4.23  0.  0.
425  4.24  0.  0.
426  4.25  0.  0.
427  4.26  0.  0.
428  4.27  0.  0.
429  4.28  0.  0.
430  4.29  0.  0.
431  4.30  0.  0.
432  4.31  0.  0.
433  4.32  0.  0.
434  4.33  0.  0.
435  4.34  0.  0.
436  4.35  0.  0.
437  4.36  0.  0.
438  4.37  0.  0.
439  4.38  0.  0.
440  4.39  0.  0.
441  4.40  0.  0.
442  4.41  0.  0.
443  4.42  0.  0.
444  4.43  0.  0.
445  4.44  0.  0.
446  4.45  0.  0.
447  4.46  0.  0.
448  4.47  0.  0.
449  4.48  0.  0.
450  4.49  0.  0.
451  4.50  0.  0.
452  4.51  0.  0.
453  4.52  0.  0.
454  4.53  0.  0.
455  4.54  0.  0.
456  4.55  0.  0.
457  4.56  0.  0.
458  4.57  0.  0.
459  4.58  0.  0.
460  4.59  0.  0.
461  4.60  0.  0.
462  4.61  0.  0.
463  4.62  0.  0.
464  4.63  0.  0.
465  4.64  0.  0.
466  4.65  0.  0.
467  4.66  0.  0.
468  4.67  0.  0.
469  4.68  0.  0.
470  4.69  0.  0.
471  4.70  0.  0.
472  4.71  0.  0.
473  4.72  0.  0.
474  4.73  0.  0.
475  4.74  0.  0.
476  4.75  0.  0.
477  4.76  0.  0.
478  4.77  0.  0.
479  4.78  0.  0.
480  4.79  0.  0.
481  4.80  0.  0.
482  4.81  0.  0.
483  4.82  0.  0.
484  4.83  0.  0.
485  4.84  0.  0.
486  4.85  0.  0.
487  4.86  0.  0.
488  4.87  0.  0.
489  4.88  0.  0.
490  4.89  0.  0.
491  4.90  0.  0.
492  4.91  0.  0.
493  4.92  0.  0.
494  4.93  0.  0.
495  4.94  0.  0.
496  4.95  0.  0.
497  4.96  0.  0.
498  4.97  0.  0.
499  4.98  0.  0.
500  4.99  0.  0.
501  5.00  0.  0.
502  5.01  0.  0.
503  5.02  0.  0.
504  5.03  0.  0.
505  5.04  0.  0.
506  5.05  0.  0.
507  5.06  0.  0.
508  5.07  0.  0.
509  5.08  0.  0.
510  5.09  0.  0.
511  5.10  0.  0.
512  5.11  0.  0.
513  5.12  0.  0.
514  5.13  0.  0.
515  5.14  0.  0.
516  5.15  0.  0.
517  5.16  0.  0.
518  5.17  0.  0.
519  5.18  0.  0.
520  5.19  0.  0.
521  5.20  0.  0.
522  5.21  0.  0.
523  5.22  0.  0.
524  5.23  0.  0.
525  5.24  0.  0.
526  5.25  0.  0.
527  5.26  0.  0.
528  5.27  0.  0.
529  5.28  0.  0.
530  5.29  0.  0.
531  5.30  0.  0.
532  5.31  0.  0.
533  5.32  0.  0.
534  5.33  0.  0.
535  5.34  0.  0.
536  5.35  0.  0.
537  5.36  0.  0.
538  5.37  0.  0.
539  5.38  0.  0.
540  5.39  0.  0.
541  5.40  0.  0.
542  5.41  0.  0.
543  5.42  0.  0.
544  5.43  0.  0.
545  5.44  0.  0.
546  5.45  0.  0.
547  5.46  0.  0.
548  5.47  0.  0.
549  5.48  0.  0.
550  5.49  0.  0.
551  5.50  0.  0.
552  5.51  0.  0.
553  5.52  0.  0.
554  5.53  0.  0.
555  5.54  0.  0.
556  5.55  0.  0.
557  5.56  0.  0.
558  5.57  0.  0.
559  5.58  0.  0.
560  5.59  0.  0.
561  5.60  0.  0.
562  5.61  0.  0.
563  5.62  0.  0.
564  5.63  0.  0.
565  5.64  0.  0.
566  5.65  0.  0.
567  5.66  0.  0.
568  5.67  0.  0.
569  5.68  0.  0.
570  5.69  0.  0.
571  5.70  0.  0.
572  5.71  0.  0.
573  5.72  0.  0.
574  5.73  0.  0.
575  5.74  0.  0.
576  5.75  0.  0.
577  5.76  0.  0.
578  5.77  0.  0.
579  5.78  0.  0.
580  5.79  0.  0.
581  5.80  0.  0.
582  5.81  0.  0.
583  5.82  0.  0.
584  5.83  0.  0.
585  5.84  0.  0.
586  5.85  0.  0.
587  5.86  0.  0.
588  5.87  0.  0.
589  5.88  0.  0.
590  5.89  0.  0.
591  5.90  0.  0.
592  5.91  0.  0.
593  5.92  0.  0.
594  5.93  0.  0.
595  5.94  0.  0.
596  5.95  0.  0.
597  5.96  0.  0.
598  5.97  0.  0.
599  5.98  0.  0.
600  5.99  0.  0.
1                         1.1774089977991E+01  1.4353836419154E+00
1  0.0000000000000E+00 -4.8577544764505E-11  4.5343499788242E-10
2  1.0000000000000E-02  1.9587857102784E-03 -1.0169163406396E-03
3  2.0000000000000E-02  7.8265303021583E-03 -4.0603014919206E-03
4  3.0000000000000E-02  1.7577425586502E-02 -9.1080861045851E-03
5  4.0000000000000E-02  3.1168556058402E-02 -1.6123562436191E-02
6  5.0000000000000E-02  4.8540046288516E-02 -2.5055497142488E-02
7  6.0000000000000E-02  6.9615267610280E-02 -3.5838291216735E-02
8  7.0000000000000E-02  9.4301104413686E-02 -4.8392189033194E-02
9  8.0000000000000E-02  1.2248828040486E-01 -6.2623538904460E-02
10  9.0000000000000E-02  1.5405174521011E-01 -7.8425107939043E-02
11  1.0000000000000E-01  1.8885112168814E-01 -9.5676454272281E-02
12  1.1000000000000E-01  2.2673121426055E-01 -1.1424435992758E-01
13  1.2000000000000E-01  2.6752257847394E-01 -1.3398332763644E-01
14  1.3000000000000E-01  3.1104215186536E-01 -1.5473614489644E-01
15  1.4000000000000E-01  3.5709394601309E-01 -1.7633451837077E-01
16  1.5000000000000E-01  4.0546979941694E-01 -1.9859978142849E-01
17  1.6000000000000E-01  4.5595019056605E-01 -2.2134367718977E-01
18  1.7000000000000E-01  5.0830511021868E-01 -2.4436921887923E-01
19  1.8000000000000E-01  5.6229499154029E-01 -2.6747162860529E-01
20  1.9000000000000E-01  6.1767169632571E-01 -2.9043935488434E-01
21  2.0000000000000E-01  6.7417955507400E-01 -3.1305516832353E-01
22  2.1000000000000E-01  7.3155645819429E-01 -3.3509733387835E-01
23  2.2000000000000E-01  7.8953499510483E-01 -3.5634085702535E-01
24  2.3000000000000E-01  8.4784363745188E-01 -3.7655880005222E-01
25  2.4000000000000E-01  9.0620796212739E-01 -3.9552366348650E-01
26  2.5000000000000E-01  9.6435190921332E-01 -4.1300882647793E-01
27  2.6000000000000E-01  1.0219990694336E+00 -4.2879003874098E-01
28  2.7000000000000E-01  1.0788739951625E+00 -4.4264695547270E-01
29  2.8000000000000E-01  1.1347035285261E+00 -4.5436470550978E-01
30  2.9000000000000E-01  1.1892181396584E+00 -4.6373548189882E-01
31  3.0000000000000E-01  1.2421532677305E+00 -4.7056014304713E-01
32  3.1000000000000E-01  1.2932506569882E+00 -4.7464981171781E-01
33  3.2000000000000E-01  1.3422596796961E+00 -4.7582745835305E-01
34  3.3000000000000E-01  1.3889386376249E+00 -4.7392945457051E-01
35  3.4000000000000E-01  1.4330560335207E+00 -4.6880708219636E-01
36  3.5000000000000E-01  1.4743918038794E+00 -4.6032798288906E-01
37  3.6000000000000E-01  1.5127385043169E+00 -4.4837753328134E-01
38  3.7000000000000E-01  1.5479024388770E+00 -4.3286013063449E-01
39  3.8000000000000E-01  1.5797047247663E+00 -4.1370037426404E-01
40  3.9000000000000E-01  1.6079822842367E+00 -3.9084412846305E-01
41  4.0000000000000E-01  1.6325887556672E+00 -3.6425945331905E-01
42  4.1000000000000E-01  1.6533953163150E+00 -3.3393739068891E-01
43  4.2000000000000E-01  1.6702914097137E+00 -2.9989259365854E-01
44  4.3000000000000E-01  1.6831853712904E+00 -2.6216378905923E-01
45  4.4000000000000E-01  1.6920049464531E+00 -2.2081406403040E-01
46  4.5000000000000E-01  1.6966976961441E+00 -1.7593096919141E-01
47  4.6000000000000E-01  1.6972312856804E+00 -1.2762643269715E-01
48  4.7000000000000E-01  1.6935936535779E+00 -7.6036481282142E-02
49  4.8000000000000E-01  1.6857930579882E+00 -2.1320766322851E-02
50  4.9000000000000E-01  1.6738579993465E+00  3.6338105055297E-02
51  5.0000000000000E-01  1.6578370188359E+00  9.6735431757583E-02
52  5.1000000000000E-01  1.6377983732881E+00  1.5964546925780E-01
53  5.2000000000000E-01  1.6138295881782E+00  2.2482266271375E-01
54  5.3000000000000E-01  1.5860368913911E+00  2.9200305446609E-01
55  5.4000000000000E-01  1.5545445314509E+00  3.6090585577548E-01
56  5.5000000000000E-01  1.5194939848870E+00  4.3123517079543E-01
57  5.6000000000000E-01  1.4810430583547E+00  5.0268185903676E-01
58  5.7000000000000E-01  1.4393648920231E+00  5.7492552098109E-01
59  5.8000000000000E-01  1.3946468715774E+00  6.4763659006653E-01
60  5.9000000000000E-01  1.3470894569484E+00  7.2047851302055E-01
61  6.0000000000000E-01  1.2969049365655E+00  7.9310999946851E-01
62  6.1000000000000E-01  1.2443161165335E+00  8.6518732092007E-01
63  6.2000000000000E-01  1.1895549546347E+00  9.3636663863833E-01
64  6.3000000000000E-01  1.1328611494715E+00  1.0063063395387E+00
65  6.4000000000000E-01  1.0744806953657E+00  1.0746693591518E+00
66  6.5000000000000E-01  1.0146644138341E+00  1.1411254708167E+00
67  6.6000000000000E-01  9.5366647255121E-01  1.2053535206499E+00
68  6.7000000000000E-01  8.9174290269575E-01  1.2670435884503E+00
69  6.8000000000000E-01  8.2915012546120E-01  1.3258990555498E+00
70  6.9000000000000E-01  7.6614349828378E-01  1.3816385616839E+00
71  7.0000000000000E-01  7.0297589102275E-01  1.4339978342263E+00
72  7.1000000000000E-01  6.3989630191096E-01  1.4827313745878E+00
73  7.2000000000000E-01  5.7714852259053E-01  1.5276139881972E+00
74  7.3000000000000E-01  5.1496986096458E-01  1.5684421462464E+00
75  7.4000000000000E-01  4.5358992994022E-01  1.6050351692591E+00
76  7.5000000000000E-01  3.9322950941859E-01  1.6372362245138E+00
77  7.6000000000000E-01  3.3409948811488E-01  1.6649131313852E+00
78  7.7000000000000E-01  2.7639989097478E-01  1.6879589707395E+00
79  7.8000000000000E-01  2.2031899710429E-01  1.7062924965942E+00
80  7.9000000000000E-01  1.6603255225695E-01  1.7198583503125E+00
81  8.0000000000000E-01  1.1370307903856E-01  1.7286270796130E+00
82  8.1000000000000E-01  6.3479287102672E-02  1.7325949666095E+00
83  8.2000000000000E-01  1.5495584732482E-02  1.7317836709379E+00
84  8.3000000000000E-01 -3.0128307655752E-02  1.7262396957431E+00
85  8.4000000000000E-01 -7.3287642385332E-02  1.7160336858771E+00
86  8.5000000000000E-01 -1.1389282886351E-01  1.7012595690761E+00
87  8.6000000000000E-01 -1.5186951924809E-01  1.6820335521317E+00
88  8.7000000000000E-01 -1.8715859799217E-01  1.6584929851241E+00
89  8.8000000000000E-01 -2.1971607847293E-01  1.6307951076503E+00
90  8.9000000000000E-01 -2.4951291050075E-01  1.5991156916410E+00
91  9.0000000000000E-01 -2.7653470303130E-01  1.5636475958130E+00
92  9.1000000000000E-01 -3.0078136686377E-01  1.5245992470600E+00
93  9.2000000000000E-01 -3.2226668250094E-01  1.4821930641351E+00
94  9.3000000000000E-01 -3.4101779867110E-01  1.4366638388384E+00
95  9.4000000000000E-01 -3.5707466726852E-01  1.3882570895988E+00
96  9.5000000000000E-01 -3.7048942065935E-01  1.3372274018407E+00
97  9.6000000000000E-01 -3.8132569742573E-01  1.2838367688753E+00
98  9.7000000000000E-01 -3.8965792268621E-01  1.2283529462588E+00
99  9.8000000000000E-01 -3.9557054913802E-01  1.1710478316429E+00
100  9.9000000000000E-01 -3.9915726492155E-01  1.1121958811199E+00
101  1.0000000000000E+00 -4.0052017431378E-01  1.0520725719633E+00
102  1.0100000000000E+00 -3.9976895712053E-01  9.9095292049076E-01
103  1.0200000000000E+00 -3.9702001246305E-01  9.2911006257520E-01
104  1.0300000000000E+00 -3.9239559244759E-01  8.6681390309304E-01
105  1.0400000000000E+00 -3.8602293097266E-01  8.0432983937374E-01
106  1.0500000000000E+00 -3.7803337267374E-01  7.4191756250010E-01
107  1.0600000000000E+00 -3.6856150673346E-01  6.7982993913733E-01
108  1.0700000000000E+00 -3.5774431000222E-01  6.1831197544602E-01
109  1.0800000000000E+00 -3.4572030358412E-01  5.5759986358293E-01
110  1.0900000000000E+00 -3.3262872675009E-01  4.9792011032167E-01
111  1.1000000000000E+00 -3.1860873174705E-01  4.3948874644445E-01
112  1.1100000000000E+00 -3.0379860278365E-01  3.8251061477702E-01
113  1.1200000000000E+00 -2.8833500218880E-01  3.2717873406241E-01
114  1.1300000000000E+00 -2.7235224646489E-01  2.7367373530521E-01
115  1.1400000000000E+00 -2.5598161468980E-01  2.2216336676120E-01
116  1.1500000000000E+00 -2.3935069146625E-01  1.7280206340253E-01
117  1.1600000000000E+00 -2.2258274636852E-01  1.2573057644737E-01
118  1.1700000000000E+00 -2.0579615160059E-01  8.1075658404647E-02
119  1.1800000000000E+00 -1.8910383934944E-01  3.8949799038484E-02
120  1.1900000000000E+00 -1.7261280009771E-01 -5.4899230350344E-04
121  1.2000000000000E+00 -1.5642362294395E-01 -3.7337362438593E-02
122  1.2100000000000E+00 -1.4063007876968E-01 -7.1346752435737E-02
123  1.2200000000000E+00 -1.2531874688521E-01 -1.0252350207096E-01
124  1.2300000000000E+00 -1.1056868558032E-01 -1.3082892440809E-01
125  1.2400000000000E+00 -9.6451146800907E-02 -1.5623935396290E-01
126  1.2500000000000E+00 -8.3029334963738E-02 -1.7874617159026E-01
127  1.2600000000000E+00 -7.0358209710731E-02 -1.9835580891355E-01
128  1.2700000000000E+00 -5.8484332188948E-02 -2.1508973480167E-01
129  1.2800000000000E+00 -4.7445754220604E-02 -2.2898442609960E-01
130  1.2900000000000E+00 -3.7271949501605E-02 -2.4009132454685E-01
131  1.3000000000000E+00 -2.7983785734961E-02 -2.4847678157923E-01
132  1.3100000000000E+00 -1.9593536367582E-02 -2.5422199250772E-01
133  1.3200000000000E+00 -1.2104930357281E-02 -2.5742292141327E-01
134  1.3300000000000E+00 -5.5132381530814E-03 -2.5819021798596E-01
135  1.3400000000000E+00  1.9460817516764E-04 -2.5664912747511E-01
136  1.3500000000000E+00  5.0398629659295E-03 -2.5293939490332E-01
137  1.3600000000000E+00  9.0517857034003E-03 -2.4721516472840E-01
138  1.3700000000000E+00  1.2267433246934E-02 -2.3964487721116E-01
139  1.3800000000000E+00  1.4731428562380E-02 -2.3041116285898E-01
140  1.3900000000000E+00  1.6495710076294E-02 -2.1971073955828E-01
141  1.4000000000000E+00  1.7619251510402E-02 -2.0775426700524E-01
142  1.4100000000000E+00  1.8167822118262E-02 -1.9476639129247E-01
143  1.4200000000000E+00  1.8212430463273E-02 -1.8098124910477E-01
144  1.4300000000000E+00  1.7825277075798E-02 -1.6662954325727E-01
145  1.4400000000000E+00  1.7077559496285E-02 -1.5193242140089E-01
146  1.4500000000000E+00  1.6038774541781E-02 -1.3710063620778E-01
147  1.4600000000000E+00  1.4775988914954E-02 -1.2233355906285E-01
148  1.4700000000000E+00  1.3353153763262E-02 -1.0781830297729E-01
149  1.4800000000000E+00  1.1830450583261E-02 -9.3728898232126E-02
150  1.4900000000000E+00  1.0263673152205E-02 -8.0225526266038E-02
151  1.5000000000000E+00  8.7036524365051E-03 -6.7453822711888E-02
152  1.5100000000000E+00  7.1957063876333E-03 -5.5544197734784E-02
153  1.5200000000000E+00  5.7792114125919E-03 -4.4611414740367E-02
154  1.5300000000000E+00  4.4810501582473E-03 -3.4738656358357E-02
155  1.5400000000000E+00  3.3151062798479E-03 -2.5976289163857E-02
156  1.5500000000000E+00  2.3088240956887E-03 -1.8409610758874E-02
157  1.5600000000000E+00  1.4810354769905E-03 -1.2104151339392E-02
158  1.5700000000000E+00  8.4132534735622E-04 -7.1042122045704E-03
159  1.5800000000000E+00  3.9000904795100E-04 -3.4339167362996E-03
160  1.5900000000000E+00  1.1683872352508E-04 -1.0831678486378E-03
161  1.6000000000000E+00  8.7304142612953E-06 -8.6832085669338E-05
162  1.6100000000000E+00 -1.6261879432644E-06  1.6757432241154E-05
163  1.6200000000000E+00  5.4156218251586E-07 -5.3665541522164E-06
164  1.63 -0.  0.
165  1.64 -0.  0.
166  1.65  0.  0.