Og    ONCVPSP-4.0.1  r_core=   1.40539   1.40539   1.40539   1.40539
118.0000     26.0000      230612    zatom,zion,pspd
8      11   3     4   600     0    pspcod,pspxc,lmax,lloc,mmax,r2well
5.99000000  5.00000000  0.00000000    rchrg fchrg qchrg
2     3     3     2    nproj
3     1           extension_switch
4     3     2    nprojso
0                         1.3560599595095E+01 -3.3883127828168E-01
1  0.0000000000000E+00  4.4061132520312E-10  7.6700709117361E-09
2  1.0000000000000E-02  8.3936072180845E-02  2.2621955104963E-02
3  2.0000000000000E-02  1.6766943221423E-01  4.5305828377385E-02
4  3.0000000000000E-02  2.5099772135901E-01  6.8109670738398E-02
5  4.0000000000000E-02  3.3371929181396E-01  9.1083892620266E-02
6  5.0000000000000E-02  4.1563357239011E-01  1.1426767670949E-01
7  6.0000000000000E-02  4.9654144610301E-01  1.3768566465576E-01
8  7.0000000000000E-02  5.7624564312788E-01  1.6134499982954E-01
9  8.0000000000000E-02  6.5455115211966E-01  1.8523280054105E-01
10  9.0000000000000E-02  7.3126565236686E-01  2.0931412885161E-01
11  1.0000000000000E-01  8.0619996863285E-01  2.3353050940933E-01
12  1.1000000000000E-01  8.7916854985481E-01  2.5779904084868E-01
13  1.2000000000000E-01  9.4998997213183E-01  2.8201212945818E-01
14  1.3000000000000E-01  1.0184874656564E+00  3.0603786131054E-01
15  1.4000000000000E-01  1.0844894644430E+00  3.2972101515041E-01
16  1.5000000000000E-01  1.1478301769017E+00  3.5288470433820E-01
17  1.6000000000000E-01  1.2083501745086E+00  3.7533262234989E-01
18  1.7000000000000E-01  1.2658969950580E+00  3.9685185302359E-01
19  1.8000000000000E-01  1.3203257562585E+00  4.1721619420573E-01
20  1.9000000000000E-01  1.3714997747711E+00  4.3618993194973E-01
21  2.0000000000000E-01  1.4192911851979E+00  4.5353199220190E-01
22  2.1000000000000E-01  1.4635815530305E+00  4.6900038819306E-01
23  2.2000000000000E-01  1.5042624751598E+00  4.8235687472611E-01
24  2.3000000000000E-01  1.5412361612562E+00  4.9337171536384E-01
25  2.4000000000000E-01  1.5744159891489E+00  5.0182846529006E-01
26  2.5000000000000E-01  1.6037270272676E+00  5.0752867141590E-01
27  2.6000000000000E-01  1.6291065172800E+00  5.1029639216188E-01
28  2.7000000000000E-01  1.6505043102333E+00  5.0998244225284E-01
29  2.8000000000000E-01  1.6678832498231E+00  5.0646827276256E-01
30  2.9000000000000E-01  1.6812194968251E+00  4.9966940343866E-01
31  3.0000000000000E-01  1.6905027892624E+00  4.8953833289059E-01
32  3.1000000000000E-01  1.6957366335070E+00  4.7606686235683E-01
33  3.2000000000000E-01  1.6969384222332E+00  4.5928778027328E-01
34  3.3000000000000E-01  1.6941394759388E+00  4.3927586750561E-01
35  3.4000000000000E-01  1.6873850056018E+00  4.1614819661782E-01
36  3.5000000000000E-01  1.6767339949491E+00  3.9006371264707E-01
37  3.6000000000000E-01  1.6622590017427E+00  3.6122209724292E-01
38  3.7000000000000E-01  1.6440458784381E+00  3.2986193240582E-01
39  3.8000000000000E-01  1.6221934135126E+00  2.9625819411808E-01
40  3.9000000000000E-01  1.5968128956824E+00  2.6071911960653E-01
41  4.0000000000000E-01  1.5680276041141E+00  2.2358250451895E-01
42  4.1000000000000E-01  1.5359722285696E+00  1.8521149767183E-01
43  4.2000000000000E-01  1.5007922241883E+00  1.4598997098899E-01
44  4.3000000000000E-01  1.4626431062987E+00  1.0631755058638E-01
45  4.4000000000000E-01  1.4216896912461E+00  6.6604401486792E-02
46  4.5000000000000E-01  1.3781052897195E+00  2.7265863028083E-02
47  4.6000000000000E-01  1.3320708594485E+00 -1.1282965440342E-02
48  4.7000000000000E-01  1.2837741244173E+00 -4.8632588553025E-02
49  4.8000000000000E-01  1.2334086679051E+00 -8.4384330286052E-02
50  4.9000000000000E-01  1.1811730067089E+00 -1.1815530612037E-01
51  5.0000000000000E-01  1.1272696538371E+00 -1.4958306322659E-01
52  5.1000000000000E-01  1.0719041767933E+00 -1.7832980753868E-01
53  5.2000000000000E-01  1.0152842582905E+00 -2.0408614594518E-01
54  5.3000000000000E-01  9.5761876587171E-01 -2.2657428269674E-01
55  5.4000000000000E-01  8.9911683646458E-01 -2.4555062126819E-01
56  5.5000000000000E-01  8.3998698137939E-01 -2.6080773605674E-01
57  5.6000000000000E-01  7.8043621668614E-01 -2.7217569215453E-01
58  5.7000000000000E-01  7.2066922329217E-01 -2.7952270569782E-01
59  5.8000000000000E-01  6.6088754040030E-01 -2.8275515164674E-01
60  5.9000000000000E-01  6.0128879537565E-01 -2.8181693997284E-01
61  6.0000000000000E-01  5.4206597240201E-01 -2.7668829480209E-01
62  6.1000000000000E-01  4.8340672168041E-01 -2.6738398378012E-01
63  6.2000000000000E-01  4.2549271032854E-01 -2.5395105649780E-01
64  6.3000000000000E-01  3.6849901559129E-01 -2.3646616097848E-01
65  6.4000000000000E-01  3.1259356048312E-01 -2.1503251574678E-01
66  6.5000000000000E-01  2.5793659156112E-01 -1.8977662167256E-01
67  6.6000000000000E-01  2.0468019818127E-01 -1.6084480245541E-01
68  6.7000000000000E-01  1.5296787232643E-01 -1.2839966516933E-01
69  6.8000000000000E-01  1.0293410791490E-01 -9.2616572656266E-02
70  6.9000000000000E-01  5.4704038405722E-02 -5.3680217725086E-02
71  7.0000000000000E-01  8.3931115086585E-03 -1.1781385108160E-02
72  7.1000000000000E-01 -3.5893200119877E-02  3.2886018963437E-02
73  7.2000000000000E-01 -7.8059653164990E-02  8.0127597754593E-02
74  7.3000000000000E-01 -1.1802145367981E-01  1.2975069361016E-01
75  7.4000000000000E-01 -1.5570444333166E-01  1.8156616553955E-01
76  7.5000000000000E-01 -1.9104525203099E-01  2.3538967690947E-01
77  7.6000000000000E-01 -2.2399141675615E-01  2.9104246906353E-01
78  7.7000000000000E-01 -2.5450146601937E-01  3.4835161109385E-01
79  7.8000000000000E-01 -2.8254496904982E-01  4.0714973075810E-01
80  7.9000000000000E-01 -3.0810254841251E-01  4.6727424631649E-01
81  8.0000000000000E-01 -3.3116585445497E-01  5.2856613350073E-01
82  8.1000000000000E-01 -3.5173749968962E-01  5.9086827557488E-01
83  8.2000000000000E-01 -3.6983095099518E-01  6.5402345716540E-01
84  8.3000000000000E-01 -3.8547037736707E-01  7.1787207390583E-01
85  8.4000000000000E-01 -3.9869045087703E-01  7.8224963966878E-01
86  8.5000000000000E-01 -4.0953609852506E-01  8.4698418098212E-01
87  8.6000000000000E-01 -4.1806220279064E-01  9.1189361393419E-01
88  8.7000000000000E-01 -4.2433324891925E-01  9.7678320228416E-01
89  8.8000000000000E-01 -4.2842291731745E-01  1.0414431964918E+00
90  8.9000000000000E-01 -4.3041361987432E-01  1.1056467518913E+00
91  9.0000000000000E-01 -4.3039597957615E-01  1.1691482202445E+00
92  9.1000000000000E-01 -4.2846825342817E-01  1.2316819024667E+00
93  9.2000000000000E-01 -4.2473569943317E-01  1.2929613415151E+00
94  9.3000000000000E-01 -4.1930988919027E-01  1.3526792234343E+00
95  9.4000000000000E-01 -4.1230796855346E-01  1.4105079415597E+00
96  9.5000000000000E-01 -4.0385186971295E-01  1.4661008641621E+00
97  9.6000000000000E-01 -3.9406747901298E-01  1.5190943296629E+00
98  9.7000000000000E-01 -3.8308376577979E-01  1.5691103763081E+00
99  9.8000000000000E-01 -3.7103187837921E-01  1.6157601952286E+00
100  9.9000000000000E-01 -3.5804421463472E-01  1.6586482775276E+00
101  1.0000000000000E+00 -3.4425347459099E-01  1.6973772078405E+00
102  1.0100000000000E+00 -3.2979170438257E-01  1.7315530391017E+00
103  1.0200000000000E+00 -3.1478934064267E-01  1.7607911664619E+00
104  1.0300000000000E+00 -2.9937426544065E-01  1.7847226028236E+00
105  1.0400000000000E+00 -2.8367088215392E-01  1.8030005446536E+00
106  1.0500000000000E+00 -2.6779922294110E-01  1.8153071049732E+00
107  1.0600000000000E+00 -2.5187409857781E-01  1.8213600810093E+00
108  1.0700000000000E+00 -2.3600430133248E-01  1.8209196171667E+00
109  1.0800000000000E+00 -2.2029187129018E-01  1.8137946199930E+00
110  1.0900000000000E+00 -2.0483143607547E-01  1.7998487807753E+00
111  1.1000000000000E+00 -1.8970963327749E-01  1.7790060634550E+00
112  1.1100000000000E+00 -1.7500462405206E-01  1.7512555206601E+00
113  1.1200000000000E+00 -1.6078570536512E-01  1.7166553088631E+00
114  1.1300000000000E+00 -1.4711302717367E-01  1.6753357847613E+00
115  1.1400000000000E+00 -1.3403741951371E-01  1.6275015789365E+00
116  1.1500000000000E+00 -1.2160033301842E-01  1.5734325592324E+00
117  1.1600000000000E+00 -1.0983389482122E-01  1.5134836150838E+00
118  1.1700000000000E+00 -9.8761080161851E-02  1.4480832145392E+00
119  1.1800000000000E+00 -8.8395998301681E-02  1.3777307079863E+00
120  1.1900000000000E+00 -7.8744289633469E-02  1.3029923757031E+00
121  1.2000000000000E+00 -6.9803629134237E-02  1.2244962403409E+00
122  1.2100000000000E+00 -6.1564329619257E-02  1.1429256894253E+00
123  1.2200000000000E+00 -5.4010036622056E-02  1.0590119766892E+00
124  1.2300000000000E+00 -4.7118505184444E-02  9.7352569401848E-01
125  1.2400000000000E+00 -4.0862447432639E-02  8.8726732731532E-01
126  1.2500000000000E+00 -3.5210438545719E-02  8.0105702957850E-01
127  1.2600000000000E+00 -3.0127867640086E-02  7.1572376215506E-01
128  1.2700000000000E+00 -2.5577919205608E-02  6.3209397028514E-01
129  1.2800000000000E+00 -2.1522570056975E-02  5.5097997138363E-01
130  1.2900000000000E+00 -1.7923586329909E-02  4.7316824356796E-01
131  1.3000000000000E+00 -1.4743504858399E-02  3.9940780767779E-01
132  1.3100000000000E+00 -1.1946581900112E-02  3.3039892713355E-01
133  1.3200000000000E+00 -9.4997119937427E-03  2.6678196474466E-01
134  1.3300000000000E+00 -7.3732057289028E-03  2.0912841749038E-01
135  1.3400000000000E+00 -5.5427521772132E-03  1.5790769415918E-01
136  1.3500000000000E+00 -3.9924601881341E-03  1.1342253661679E-01
137  1.3600000000000E+00 -2.7041095472503E-03  7.6035267083981E-02
138  1.3700000000000E+00 -1.6656044841787E-03  4.6016089562796E-02
139  1.3800000000000E+00 -8.7240521039206E-04  2.3513370359426E-02
140  1.3900000000000E+00 -3.2689854917057E-04  8.5380534361788E-03
141  1.4000000000000E+00 -4.4799810832853E-05  1.1253166721907E-03
142  1.4100000000000E+00  4.4501029000226E-06 -1.0890898623469E-04
143  1.4200000000000E+00 -1.0215405284464E-06  2.5406349755837E-05
144  1.43  0.  0.
145  1.44  0.  0.
146  1.45  0.  0.
147  1.46  0.  0.
148  1.47  0.  0.
149  1.48  0.  0.
150  1.49  0.  0.
151  1.50  0.  0.
152  1.51  0.  0.
153  1.52  0.  0.
154  1.53  0.  0.
155  1.54  0.  0.
156  1.55  0.  0.
157  1.56  0.  0.
158  1.57  0.  0.
159  1.58  0.  0.
160  1.59  0.  0.
161  1.60  0.  0.
162  1.61  0.  0.
163  1.62  0.  0.
164  1.63  0.  0.
165  1.64  0.  0.
166  1.65  0.  0.
167  1.66  0.  0.
168  1.67  0.  0.
169  1.68  0.  0.
170  1.69  0.  0.
171  1.70  0.  0.
172  1.71  0.  0.
173  1.72  0.  0.
174  1.73  0.  0.
175  1.74  0.  0.
176  1.75  0.  0.
177  1.76  0.  0.
178  1.77  0.  0.
179  1.78  0.  0.
180  1.79  0.  0.
181  1.80  0.  0.
182  1.81  0.  0.
183  1.82  0.  0.
184  1.83  0.  0.
185  1.84  0.  0.
186  1.85  0.  0.
187  1.86  0.  0.
188  1.87  0.  0.
189  1.88  0.  0.
190  1.89  0.  0.
191  1.90  0.  0.
192  1.91  0.  0.
193  1.92  0.  0.
194  1.93  0.  0.
195  1.94  0.  0.
196  1.95  0.  0.
197  1.96  0.  0.
198  1.97  0.  0.
199  1.98  0.  0.
200  1.99  0.  0.
201  2.00  0.  0.
202  2.01  0.  0.
203  2.02  0.  0.
204  2.03  0.  0.
205  2.04  0.  0.
206  2.05  0.  0.
207  2.06  0.  0.
208  2.07  0.  0.
209  2.08  0.  0.
210  2.09  0.  0.
211  2.10  0.  0.
212  2.11  0.  0.
213  2.12  0.  0.
214  2.13  0.  0.
215  2.14  0.  0.
216  2.15  0.  0.
217  2.16  0.  0.
218  2.17  0.  0.
219  2.18  0.  0.
220  2.19  0.  0.
221  2.20  0.  0.
222  2.21  0.  0.
223  2.22  0.  0.
224  2.23  0.  0.
225  2.24  0.  0.
226  2.25  0.  0.
227  2.26  0.  0.
228  2.27  0.  0.
229  2.28  0.  0.
230  2.29  0.  0.
231  2.30  0.  0.
232  2.31  0.  0.
233  2.32  0.  0.
234  2.33  0.  0.
235  2.34  0.  0.
236  2.35  0.  0.
237  2.36  0.  0.
238  2.37  0.  0.
239  2.38  0.  0.
240  2.39  0.  0.
241  2.40  0.  0.
242  2.41  0.  0.
243  2.42  0.  0.
244  2.43  0.  0.
245  2.44  0.  0.
246  2.45  0.  0.
247  2.46  0.  0.
248  2.47  0.  0.
249  2.48  0.  0.
250  2.49  0.  0.
251  2.50  0.  0.
252  2.51  0.  0.
253  2.52  0.  0.
254  2.53  0.  0.
255  2.54  0.  0.
256  2.55  0.  0.
257  2.56  0.  0.
258  2.57  0.  0.
259  2.58  0.  0.
260  2.59  0.  0.
261  2.60  0.  0.
262  2.61  0.  0.
263  2.62  0.  0.
264  2.63  0.  0.
265  2.64  0.  0.
266  2.65  0.  0.
267  2.66  0.  0.
268  2.67  0.  0.
269  2.68  0.  0.
270  2.69  0.  0.
271  2.70  0.  0.
272  2.71  0.  0.
273  2.72  0.  0.
274  2.73  0.  0.
275  2.74  0.  0.
276  2.75  0.  0.
277  2.76  0.  0.
278  2.77  0.  0.
279  2.78  0.  0.
280  2.79  0.  0.
281  2.80  0.  0.
282  2.81  0.  0.
283  2.82  0.  0.
284  2.83  0.  0.
285  2.84  0.  0.
286  2.85  0.  0.
287  2.86  0.  0.
288  2.87  0.  0.
289  2.88  0.  0.
290  2.89  0.  0.
291  2.90  0.  0.
292  2.91  0.  0.
293  2.92  0.  0.
294  2.93  0.  0.
295  2.94  0.  0.
296  2.95  0.  0.
297  2.96  0.  0.
298  2.97  0.  0.
299  2.98  0.  0.
300  2.99  0.  0.
301  3.00  0.  0.
302  3.01  0.  0.
303  3.02  0.  0.
304  3.03  0.  0.
305  3.04  0.  0.
306  3.05  0.  0.
307  3.06  0.  0.
308  3.07  0.  0.
309  3.08  0.  0.
310  3.09  0.  0.
311  3.10  0.  0.
312  3.11  0.  0.
313  3.12  0.  0.
314  3.13  0.  0.
315  3.14  0.  0.
316  3.15  0.  0.
317  3.16  0.  0.
318  3.17  0.  0.
319  3.18  0.  0.
320  3.19  0.  0.
321  3.20  0.  0.
322  3.21  0.  0.
323  3.22  0.  0.
324  3.23  0.  0.
325  3.24  0.  0.
326  3.25  0.  0.
327  3.26  0.  0.
328  3.27  0.  0.
329  3.28  0.  0.
330  3.29  0.  0.
331  3.30  0.  0.
332  3.31  0.  0.
333  3.32  0.  0.
334  3.33  0.  0.
335  3.34  0.  0.
336  3.35  0.  0.
337  3.36  0.  0.
338  3.37  0.  0.
339  3.38  0.  0.
340  3.39  0.  0.
341  3.40  0.  0.
342  3.41  0.  0.
343  3.42  0.  0.
344  3.43  0.  0.
345  3.44  0.  0.
346  3.45  0.  0.
347  3.46  0.  0.
348  3.47  0.  0.
349  3.48  0.  0.
350  3.49  0.  0.
351  3.50  0.  0.
352  3.51  0.  0.
353  3.52  0.  0.
354  3.53  0.  0.
355  3.54  0.  0.
356  3.55  0.  0.
357  3.56  0.  0.
358  3.57  0.  0.
359  3.58  0.  0.
360  3.59  0.  0.
361  3.60  0.  0.
362  3.61  0.  0.
363  3.62  0.  0.
364  3.63  0.  0.
365  3.64  0.  0.
366  3.65  0.  0.
367  3.66  0.  0.
368  3.67  0.  0.
369  3.68  0.  0.
370  3.69  0.  0.
371  3.70  0.  0.
372  3.71  0.  0.
373  3.72  0.  0.
374  3.73  0.  0.
375  3.74  0.  0.
376  3.75  0.  0.
377  3.76  0.  0.
378  3.77  0.  0.
379  3.78  0.  0.
380  3.79  0.  0.
381  3.80  0.  0.
382  3.81  0.  0.
383  3.82  0.  0.
384  3.83  0.  0.
385  3.84  0.  0.
386  3.85  0.  0.
387  3.86  0.  0.
388  3.87  0.  0.
389  3.88  0.  0.
390  3.89  0.  0.
391  3.90  0.  0.
392  3.91  0.  0.
393  3.92  0.  0.
394  3.93  0.  0.
395  3.94  0.  0.
396  3.95  0.  0.
397  3.96  0.  0.
398  3.97  0.  0.
399  3.98  0.  0.
400  3.99  0.  0.
401  4.00  0.  0.
402  4.01  0.  0.
403  4.02  0.  0.
404  4.03  0.  0.
405  4.04  0.  0.
406  4.05  0.  0.
407  4.06  0.  0.
408  4.07  0.  0.
409  4.08  0.  0.
410  4.09  0.  0.
411  4.10  0.  0.
412  4.11  0.  0.
413  4.12  0.  0.
414  4.13  0.  0.
415  4.14  0.  0.
416  4.15  0.  0.
417  4.16  0.  0.
418  4.17  0.  0.
419  4.18  0.  0.
420  4.19  0.  0.
421  4.20  0.  0.
422  4.21  0.  0.
423  4.22  0.  0.
424  4.23  0.  0.
425  4.24  0.  0.
426  4.25  0.  0.
427  4.26  0.  0.
428  4.27  0.  0.
429  4.28  0.  0.
430  4.29  0.  0.
431  4.30  0.  0.
432  4.31  0.  0.
433  4.32  0.  0.
434  4.33  0.  0.
435  4.34  0.  0.
436  4.35  0.  0.
437  4.36  0.  0.
438  4.37  0.  0.
439  4.38  0.  0.
440  4.39  0.  0.
441  4.40  0.  0.
442  4.41  0.  0.
443  4.42  0.  0.
444  4.43  0.  0.
445  4.44  0.  0.
446  4.45  0.  0.
447  4.46  0.  0.
448  4.47  0.  0.
449  4.48  0.  0.
450  4.49  0.  0.
451  4.50  0.  0.
452  4.51  0.  0.
453  4.52  0.  0.
454  4.53  0.  0.
455  4.54  0.  0.
456  4.55  0.  0.
457  4.56  0.  0.
458  4.57  0.  0.
459  4.58  0.  0.
460  4.59  0.  0.
461  4.60  0.  0.
462  4.61  0.  0.
463  4.62  0.  0.
464  4.63  0.  0.
465  4.64  0.  0.
466  4.65  0.  0.
467  4.66  0.  0.
468  4.67  0.  0.
469  4.68  0.  0.
470  4.69  0.  0.
471  4.70  0.  0.
472  4.71  0.  0.
473  4.72  0.  0.
474  4.73  0.  0.
475  4.74  0.  0.
476  4.75  0.  0.
477  4.76  0.  0.
478  4.77  0.  0.
479  4.78  0.  0.
480  4.79  0.  0.
481  4.80  0.  0.
482  4.81  0.  0.
483  4.82  0.  0.
484  4.83  0.  0.
485  4.84  0.  0.
486  4.85  0.  0.
487  4.86  0.  0.
488  4.87  0.  0.
489  4.88  0.  0.
490  4.89  0.  0.
491  4.90  0.  0.
492  4.91  0.  0.
493  4.92  0.  0.
494  4.93  0.  0.
495  4.94  0.  0.
496  4.95  0.  0.
497  4.96  0.  0.
498  4.97  0.  0.
499  4.98  0.  0.
500  4.99  0.  0.
501  5.00  0.  0.
502  5.01  0.  0.
503  5.02  0.  0.
504  5.03  0.  0.
505  5.04  0.  0.
506  5.05  0.  0.
507  5.06  0.  0.
508  5.07  0.  0.
509  5.08  0.  0.
510  5.09  0.  0.
511  5.10  0.  0.
512  5.11  0.  0.
513  5.12  0.  0.
514  5.13  0.  0.
515  5.14  0.  0.
516  5.15  0.  0.
517  5.16  0.  0.
518  5.17  0.  0.
519  5.18  0.  0.
520  5.19  0.  0.
521  5.20  0.  0.
522  5.21  0.  0.
523  5.22  0.  0.
524  5.23  0.  0.
525  5.24  0.  0.
526  5.25  0.  0.
527  5.26  0.  0.
528  5.27  0.  0.
529  5.28  0.  0.
530  5.29  0.  0.
531  5.30  0.  0.
532  5.31  0.  0.
533  5.32  0.  0.
534  5.33  0.  0.
535  5.34  0.  0.
536  5.35  0.  0.
537  5.36  0.  0.
538  5.37  0.  0.
539  5.38  0.  0.
540  5.39  0.  0.
541  5.40  0.  0.
542  5.41  0.  0.
543  5.42  0.  0.
544  5.43  0.  0.
545  5.44  0.  0.
546  5.45  0.  0.
547  5.46  0.  0.
548  5.47  0.  0.
549  5.48  0.  0.
550  5.49  0.  0.
551  5.50  0.  0.
552  5.51  0.  0.
553  5.52  0.  0.
554  5.53  0.  0.
555  5.54  0.  0.
556  5.55  0.  0.
557  5.56  0.  0.
558  5.57  0.  0.
559  5.58  0.  0.
560  5.59  0.  0.
561  5.60  0.  0.
562  5.61  0.  0.
563  5.62  0.  0.
564  5.63  0.  0.
565  5.64  0.  0.
566  5.65  0.  0.
567  5.66  0.  0.
568  5.67  0.  0.
569  5.68  0.  0.
570  5.69  0.  0.
571  5.70  0.  0.
572  5.71  0.  0.
573  5.72  0.  0.
574  5.73  0.  0.
575  5.74  0.  0.
576  5.75  0.  0.
577  5.76  0.  0.
578  5.77  0.  0.
579  5.78  0.  0.
580  5.79  0.  0.
581  5.80  0.  0.
582  5.81  0.  0.
583  5.82  0.  0.
584  5.83  0.  0.
585  5.84  0.  0.
586  5.85  0.  0.
587  5.86  0.  0.
588  5.87  0.  0.
589  5.88  0.  0.
590  5.89  0.  0.
591  5.90  0.  0.
592  5.91  0.  0.
593  5.92  0.  0.
594  5.93  0.  0.
595  5.94  0.  0.
596  5.95  0.  0.
597  5.96  0.  0.
598  5.97  0.  0.
599  5.98  0.  0.
600  5.99  0.  0.
1                         1.1008524467534E+01  9.6892732870921E-01 -7.2212919699096E-02
1  0.0000000000000E+00 -3.2489396589730E-09  1.1950502594449E-08 -3.3612386440146E-08
2  1.0000000000000E-02  1.8010854940151E-03 -8.8656901041258E-04  2.8945580453014E-04
3  2.0000000000000E-02  7.1990182442399E-03 -3.5469697840609E-03  1.1763706414945E-03
4  3.0000000000000E-02  1.6177778601064E-02 -7.9830488900458E-03  2.7156551446598E-03
5  4.0000000000000E-02  2.8710507689760E-02 -1.4197109299173E-02  4.9964094037992E-03
6  5.0000000000000E-02  4.4759275359788E-02 -2.2190774637242E-02  8.1383699955323E-03
7  6.0000000000000E-02  6.4274769389900E-02 -3.1963450852958E-02  1.2287080781233E-02
8  7.0000000000000E-02  8.7195919566812E-02 -4.3510435338093E-02  1.7607927797225E-02
9  8.0000000000000E-02  1.1344947350412E-01 -5.6820735487997E-02  2.4279212174870E-02
10  9.0000000000000E-02  1.4294954385827E-01 -7.1874668964573E-02  3.2484464007676E-02
11  1.0000000000000E-01  1.7559714885154E-01 -8.8641326238215E-02  4.2404223649653E-02
12  1.1000000000000E-01  2.1127976966459E-01 -1.0707598210678E-01  5.4207534436120E-02
13  1.2000000000000E-01  2.4987094926344E-01 -1.2711754664251E-01  6.8043401781447E-02
14  1.3000000000000E-01  2.9122995754595E-01 -1.4868614728527E-01  8.4032477703370E-02
15  1.4000000000000E-01  3.3520154731575E-01 -1.7168093253205E-01  1.0225922690986E-01
16  1.5000000000000E-01  3.8161582451954E-01 -1.9597818388131E-01  1.2276482069955E-01
17  1.6000000000000E-01  4.3028825443780E-01 -2.2142981645699E-01  1.4554098828807E-01
18  1.7000000000000E-01  4.8101982313656E-01 -2.4786234020371E-01  1.7052503217624E-01
19  1.8000000000000E-01  5.3359737052405E-01 -2.7507634291576E-01  1.9759618538244E-01
20  1.9000000000000E-01  5.8779410787954E-01 -3.0284654389741E-01  2.2657345448589E-01
21  2.0000000000000E-01  6.4337032881634E-01 -3.3092245306012E-01  2.5721505431964E-01
22  2.1000000000000E-01  7.0007431840049E-01 -3.5902965509230E-01  2.8921949877808E-01
23  2.2000000000000E-01  7.5764346067573E-01 -3.8687172237472E-01  3.2222836861782E-01
24  2.3000000000000E-01  8.1580554025354E-01 -4.1413274396510E-01  3.5583073245616E-01
25  2.4000000000000E-01  8.7428022902854E-01 -4.4048044165945E-01  3.8956915256232E-01
26  2.5000000000000E-01  9.3278074459040E-01 -4.6556982827850E-01  4.2294716365905E-01
27  2.6000000000000E-01  9.9101566263587E-01 -4.8904734834002E-01  4.5543807194701E-01
28  2.7000000000000E-01  1.0486908617483E+00 -5.1055542755828E-01  4.8649488402173E-01
29  2.8000000000000E-01  1.1055115754073E+00 -5.2973734552780E-01  5.1556114228313E-01
30  2.9000000000000E-01  1.1611845231104E+00 -5.4624233582974E-01  5.4208241574436E-01
31  3.0000000000000E-01  1.2154200901098E+00 -5.5973080992711E-01  5.6551817360473E-01
32  3.1000000000000E-01  1.2679345235524E+00 -5.6987959581795E-01  5.8535375418349E-01
33  3.2000000000000E-01  1.3184521118184E+00 -5.7638707966013E-01  6.0111213427268E-01
34  3.3000000000000E-01  1.3667073135933E+00 -5.7897813856867E-01  6.1236520393315E-01
35  3.4000000000000E-01  1.4124468037210E+00 -5.7740875554942E-01  6.1874425931216E-01
36  3.5000000000000E-01  1.4554314041364E+00 -5.7147021303353E-01  6.1994944109604E-01
37  3.6000000000000E-01  1.4954378701605E+00 -5.6099276960773E-01  6.1575786842476E-01
38  3.7000000000000E-01  1.5322605051058E+00 -5.4584873512131E-01  6.0603024700092E-01
39  3.8000000000000E-01  1.5657125794266E+00 -5.2595487215117E-01  5.9071576505679E-01
40  3.9000000000000E-01  1.5956275344795E+00 -5.0127406652470E-01  5.6985513097688E-01
41  4.0000000000000E-01  1.6218599552493E+00 -4.7181622588514E-01  5.4358165074124E-01
42  4.1000000000000E-01  1.6442863010292E+00 -4.3763838274372E-01  5.1212029087091E-01
43  4.2000000000000E-01  1.6628053879277E+00 -3.9884399666924E-01  4.7578472204356E-01
44  4.3000000000000E-01  1.6773386220680E+00 -3.5558146876879E-01  4.3497238876224E-01
45  4.4000000000000E-01  1.6878299873502E+00 -3.0804189995006E-01  3.9015770012808E-01
46  4.5000000000000E-01  1.6942457965129E+00 -2.5645614216332E-01  3.4188348461596E-01
47  4.6000000000000E-01  1.6965742188673E+00 -2.0109120844646E-01  2.9075089653277E-01
48  4.7000000000000E-01  1.6948246023370E+00 -1.4224612271055E-01  2.3740800237584E-01
49  4.8000000000000E-01  1.6890266112473E+00 -8.0247303410110E-02  1.8253731051490E-01
50  4.9000000000000E-01  1.6792292045411E+00 -1.5443586189717E-02  1.2684253653387E-01
51  5.0000000000000E-01  1.6654994817007E+00  5.1799001011069E-02  7.1034918374369E-02
52  5.1000000000000E-01  1.6479214255406E+00  1.2110259131524E-01  1.5819409479585E-02
53  5.2000000000000E-01  1.6265945721716E+00  1.9208283901366E-01 -3.8118916009712E-02
54  5.3000000000000E-01  1.6016326387816E+00  2.6435416512255E-01 -9.0127914551761E-02
55  5.4000000000000E-01  1.5731621394377E+00  3.3753477058980E-01 -1.3960056062373E-01
56  5.5000000000000E-01  1.5413210178858E+00  4.1125130585027E-01 -1.8598596928863E-01
57  5.6000000000000E-01  1.5062573243521E+00  4.8514309480671E-01 -2.2879898024172E-01
58  5.7000000000000E-01  1.4681279606827E+00  5.5886582334920E-01 -2.6762806429068E-01
59  5.8000000000000E-01  1.4270975148614E+00  6.3209461693658E-01 -3.0214135436458E-01
60  5.9000000000000E-01  1.3833372021179E+00  7.0452644820107E-01 -3.3209064983325E-01
61  6.0000000000000E-01  1.3370239255711E+00  7.7588183359630E-01 -3.5731329402556E-01
62  6.1000000000000E-01  1.2883394647686E+00  8.4590579733895E-01 -3.7773187910580E-01
63  6.2000000000000E-01  1.2374697957054E+00  9.1436810080653E-01 -3.9335178855165E-01
64  6.3000000000000E-01  1.1846045410597E+00  9.8106275563999E-01 -4.0425664395557E-01
65  6.4000000000000E-01  1.1299365446136E+00  1.0458068585349E+00 -4.1060177829822E-01
66  6.5000000000000E-01  1.0736615592557E+00  1.1084388045717E+00 -4.1260591077682E-01
67  6.6000000000000E-01  1.0159780337278E+00  1.1688159534284E+00 -4.1054124731508E-01
68  6.7000000000000E-01  9.5708697950020E-01  1.2268118384593E+00 -4.0472227471957E-01
69  6.8000000000000E-01  8.9719189594587E-01  1.2823130219844E+00 -3.9549355387180E-01
70  6.9000000000000E-01  8.3649872944039E-01  1.3352157108202E+00 -3.8321684730291E-01
71  7.0000000000000E-01  7.7521584021500E-01  1.3854222537893E+00 -3.6825793810299E-01
72  7.1000000000000E-01  7.1355394980248E-01  1.4328376474161E+00 -3.5097350968878E-01
73  7.2000000000000E-01  6.5172604177967E-01  1.4773661770873E+00 -3.3169845902951E-01
74  7.3000000000000E-01  5.8994718924651E-01  1.5189083185469E+00 -3.1073400928402E-01
75  7.4000000000000E-01  5.2843428408675E-01  1.5573580187094E+00 -2.8833697145105E-01
76  7.5000000000000E-01  4.6740564550196E-01  1.5926004655172E+00 -2.6471047884569E-01
77  7.6000000000000E-01  4.0708048855016E-01  1.6245104441113E+00 -2.3999648349558E-01
78  7.7000000000000E-01  3.4767823737990E-01  1.6529513612145E+00 -2.1427026065117E-01
79  7.8000000000000E-01  2.8941767243748E-01  1.6777750016827E+00 -1.8753711749002E-01
80  7.9000000000000E-01  2.3251590602900E-01  1.6988220610921E+00 -1.5973144592757E-01
81  8.0000000000000E-01  1.7718718611057E-01  1.7159234764823E+00 -1.3071819857225E-01
82  8.1000000000000E-01  1.2364153392022E-01  1.7289025545079E+00 -1.0029680275580E-01
83  8.2000000000000E-01  7.2083226902773E-02  1.7375778728338E+00 -6.8207461818155E-02
84  8.3000000000000E-01  2.2709144157434E-02  1.7417669072525E+00 -3.4139727087090E-02
85  8.4000000000000E-01 -2.4293002801040E-02  1.7412903143065E+00  2.2568400532244E-03
86  8.5000000000000E-01 -6.8746525990262E-02  1.7359767777789E+00  4.1360157295101E-02
87  8.6000000000000E-01 -1.1048767097815E-01  1.7256683078473E+00  8.3561558743529E-02
88  8.7000000000000E-01 -1.4936754433664E-01  1.7102258645359E+00  1.2925052668274E-01
89  8.8000000000000E-01 -1.8525401869435E-01  1.6895351628384E+00  1.7879860536417E-01
90  8.9000000000000E-01 -2.1803357325184E-01  1.6635125059630E+00  2.3254291670840E-01
91  9.0000000000000E-01 -2.4761302631600E-01  1.6321104859180E+00  2.9076972005751E-01
92  9.1000000000000E-01 -2.7392111616096E-01  1.5953233873937E+00  3.5369846954558E-01
93  9.2000000000000E-01 -2.9690988737396E-01  1.5531921317756E+00  4.2146682276868E-01
94  9.3000000000000E-01 -3.1655584180824E-01  1.5058086032190E+00  4.9411704301072E-01
95  9.4000000000000E-01 -3.3286081632955E-01  1.4533192080076E+00  5.7158421437379E-01
96  9.5000000000000E-01 -3.4585255366517E-01  1.3959275317654E+00  6.5368665511489E-01
97  9.6000000000000E-01 -3.5558493777503E-01  1.3338959762571E+00  7.4011886995260E-01
98  9.7000000000000E-01 -3.6213787117061E-01  1.2675462781654E+00  8.3044732794321E-01
99  9.8000000000000E-01 -3.6561677838499E-01  1.1972588359383E+00  9.2410928993664E-01
100  9.9000000000000E-01 -3.6615172720879E-01  1.1234707970405E+00  1.0204148399445E+00
101  1.0000000000000E+00 -3.6389616718365E-01  1.0466728861294E+00  1.1185521996445E+00
102  1.0100000000000E+00 -3.5902529302301E-01  9.6740498417804E-01  1.2175963263329E+00
103  1.0200000000000E+00 -3.5173404890857E-01  8.8625049867222E-01  1.3165207139045E+00
104  1.0300000000000E+00 -3.4223479779985E-01  8.0382959499249E-01  1.4142122357965E+00
105  1.0400000000000E+00 -3.3075468780241E-01  7.2079138825622E-01  1.5094887901907E+00
106  1.0500000000000E+00 -3.1753275506616E-01  6.3780522248541E-01  1.6011194331427E+00
107  1.0600000000000E+00 -3.0281680943618E-01  5.5555118926373E-01  1.6878466166576E+00
108  1.0700000000000E+00 -2.8686015499967E-01  4.7471006046921E-01  1.7684100876062E+00
109  1.0800000000000E+00 -2.6991820257723E-01  3.9595282851522E-01  1.8415719516863E+00
110  1.0900000000000E+00 -2.5224503497891E-01  3.1993006235698E-01  1.9061423655711E+00
111  1.1000000000000E+00 -2.3408998835879E-01  2.4726129784930E-01  1.9610052912234E+00
112  1.1100000000000E+00 -2.1569431417353E-01  1.7852468653876E-01  2.0051437300127E+00
113  1.1200000000000E+00 -1.9728798601924E-01  1.1424712741178E-01  2.0376638513366E+00
114  1.1300000000000E+00 -1.7908671397449E-01  5.4895101419214E-02  2.0578174411759E+00
115  1.1400000000000E+00 -1.6128922599445E-01  8.6641867690935E-04  2.0650221205740E+00
116  1.1500000000000E+00 -1.4407487147364E-01 -4.7516926595988E-02  2.0588788216669E+00
117  1.1600000000000E+00 -1.2760159631836E-01 -9.0014618110020E-02  2.0391860595906E+00
118  1.1700000000000E+00 -1.1200433195951E-01 -1.2647244516829E-01  2.0059506003971E+00
119  1.1800000000000E+00 -9.7393832684424E-02 -1.5682517277001E-01  1.9593941980219E+00
120  1.1900000000000E+00 -8.3855986802976E-02 -1.8109776214483E-01  1.8999561542911E+00
121  1.2000000000000E+00 -7.1451617495831E-02 -1.9940488387570E-01  1.8282915447693E+00
122  1.2100000000000E+00 -6.0216779082486E-02 -2.1194870163538E-01  1.7452650465479E+00
123  1.2200000000000E+00 -5.0163544011663E-02 -2.1901494168794E-01  1.6519404006534E+00
124  1.2300000000000E+00 -4.1281265355975E-02 -2.2096730083001E-01  1.5495656393395E+00
125  1.2400000000000E+00 -3.3538289313243E-02 -2.1824028218307E-01  1.4395543039837E+00
126  1.2500000000000E+00 -2.6884082237056E-02 -2.1133058397446E-01  1.3234629720255E+00
127  1.2600000000000E+00 -2.1251727447383E-02 -2.0078719968507E-01  1.2029654974892E+00
128  1.2700000000000E+00 -1.6560738614782E-02 -1.8720041830116E-01  1.0798244480807E+00
129  1.2800000000000E+00 -1.2720129060296E-02 -1.7118994018770E-01  9.5586029079298E-01
130  1.2900000000000E+00 -9.6316701254207E-03 -1.5339234636486E-01  8.3291893497267E-01
131  1.3000000000000E+00 -7.1932669129648E-03 -1.3444817645501E-01  7.1283828620459E-01
132  1.3100000000000E+00 -5.3023699085123E-03 -1.1498889962996E-01  5.9741452922650E-01
133  1.3200000000000E+00 -3.8594232358008E-03 -9.5623848872762E-02  4.8836842269460E-01
134  1.3300000000000E+00 -2.7708782903696E-03 -7.6928423797032E-02  3.8731442055440E-01
135  1.3400000000000E+00 -1.9575509863485E-03 -5.9418457008391E-02  2.9570190061567E-01