Og    ONCVPSP-4.0.1  r_core=   1.40539   1.40539   1.40539   1.40539
118.0000     26.0000      220326    zatom,zion,pspd
8      11   3     4   600     0    pspcod,pspxc,lmax,lloc,mmax,r2well
5.99000000  5.00000000  0.00000000    rchrg fchrg qchrg
2     2     2     1     0    nproj
1     1           extension_switch
0                         1.3397574814416E+01 -3.4818526777930E-01
1  0.0000000000000E+00  4.4497261431076E-10  7.5167836399714E-09
2  1.0000000000000E-02  8.4304616122592E-02  2.3348667388201E-02
3  2.0000000000000E-02  1.6840408043963E-01  4.6751243069070E-02
4  3.0000000000000E-02  2.5209360462200E-01  7.0257890013917E-02
5  4.0000000000000E-02  3.3516913142272E-01  9.3911372439196E-02
6  5.0000000000000E-02  4.1742771042356E-01  1.1774358416712E-01
7  6.0000000000000E-02  4.9866788570268E-01  1.4177234476477E-01
8  7.0000000000000E-02  5.7869009886078E-01  1.6599854366637E-01
9  8.0000000000000E-02  6.5729711039844E-01  1.9040370496654E-01
10  9.0000000000000E-02  7.3429444189898E-01  2.1494803647655E-01
11  1.0000000000000E-01  8.0949084084968E-01  2.3956901615050E-01
12  1.1000000000000E-01  8.8269876924448E-01  2.6418055733577E-01
13  1.2000000000000E-01  9.5373491636532E-01  2.8867278172454E-01
14  1.3000000000000E-01  1.0224207353551E+00  3.1291241564737E-01
15  1.4000000000000E-01  1.0885830023877E+00  3.3674381173232E-01
16  1.5000000000000E-01  1.1520543964271E+00  3.5999058424294E-01
17  1.6000000000000E-01  1.2126740967657E+00  3.8245783289323E-01
18  1.7000000000000E-01  1.2702883947595E+00  4.0393491690452E-01
19  1.8000000000000E-01  1.3247513154481E+00  4.2419872879455E-01
20  1.9000000000000E-01  1.3759252440818E+00  4.4301740613281E-01
21  2.0000000000000E-01  1.4236815519846E+00  4.6015440949983E-01
22  2.1000000000000E-01  1.4679012156781E+00  4.7537288636559E-01
23  2.2000000000000E-01  1.5084754227906E+00  4.8844023373672E-01
24  2.3000000000000E-01  1.5453061579760E+00  4.9913276736479E-01
25  2.4000000000000E-01  1.5783067618950E+00  5.0724040216867E-01
26  2.5000000000000E-01  1.6074024562504E+00  5.1257124737709E-01
27  2.6000000000000E-01  1.6325308279389E+00  5.1495602077034E-01
28  2.7000000000000E-01  1.6536422655729E+00  5.1425218928347E-01
29  2.8000000000000E-01  1.6707003419401E+00  5.1034774806997E-01
30  2.9000000000000E-01  1.6836821364016E+00  5.0316455682082E-01
31  3.0000000000000E-01  1.6925784917682E+00  4.9266116055224E-01
32  3.1000000000000E-01  1.6973942008399E+00  4.7883503204474E-01
33  3.2000000000000E-01  1.6981481185255E+00  4.6172418443077E-01
34  3.3000000000000E-01  1.6948731962663E+00  4.4140811485296E-01
35  3.4000000000000E-01  1.6876164363628E+00  4.1800805339163E-01
36  3.5000000000000E-01  1.6764387647184E+00  3.9168650531072E-01
37  3.6000000000000E-01  1.6614148214641E+00  3.6264608880382E-01
38  3.7000000000000E-01  1.6426326698891E+00  3.3112768454039E-01
39  3.8000000000000E-01  1.6201934250570E+00  2.9740792711674E-01
40  3.9000000000000E-01  1.5942108044268E+00  2.6179608171350E-01
41  4.0000000000000E-01  1.5648106036905E+00  2.2463036157256E-01
42  4.1000000000000E-01  1.5321301018863E+00  1.8627375306558E-01
43  4.2000000000000E-01  1.4963174006201E+00  1.4710942489738E-01
44  4.3000000000000E-01  1.4575307029212E+00  1.0753580615685E-01
45  4.4000000000000E-01  1.4159375378608E+00  6.7961424323235E-02
46  4.5000000000000E-01  1.3717139375607E+00  2.8799598812301E-02
47  4.6000000000000E-01  1.3250435736070E+00 -9.5369118871377E-03
48  4.7000000000000E-01  1.2761168601618E+00 -4.6641211042128E-02
49  4.8000000000000E-01  1.2251300312248E+00 -8.2117415709275E-02
50  4.9000000000000E-01  1.1722841995353E+00 -1.1558556694231E-01
51  5.0000000000000E-01  1.1177844045376E+00 -1.4668621083891E-01
52  5.1000000000000E-01  1.0618386566468E+00 -1.7508457063112E-01
53  5.2000000000000E-01  1.0046569847698E+00 -2.0047423924543E-01
54  5.3000000000000E-01  9.4645049365661E-01 -2.2258033245929E-01
55  5.4000000000000E-01  8.8743043719528E-01 -2.4116205473084E-01
56  5.5000000000000E-01  8.2780731323408E-01 -2.5601464271083E-01
57  5.6000000000000E-01  7.6778998492371E-01 -2.6697066508139E-01
58  5.7000000000000E-01  7.0758483294369E-01 -2.7390067139758E-01
59  5.8000000000000E-01  6.4739494231978E-01 -2.7671319672796E-01
60  5.9000000000000E-01  5.8741932687202E-01 -2.7535414278021E-01
61  6.0000000000000E-01  5.2785219367028E-01 -2.6980556954835E-01
62  6.1000000000000E-01  4.6888224923193E-01 -2.6008394402694E-01
63  6.2000000000000E-01  4.1069204858768E-01 -2.4623790391935E-01
64  6.3000000000000E-01  3.5345738778161E-01 -2.2834560426416E-01
65  6.4000000000000E-01  2.9734673987006E-01 -2.0651172328232E-01
66  6.5000000000000E-01  2.4252073405242E-01 -1.8086421031360E-01
67  6.6000000000000E-01  1.8913167721306E-01 -1.5155086330793E-01
68  6.7000000000000E-01  1.3732311688263E-01 -1.1873582585267E-01
69  6.8000000000000E-01  8.7229444443457E-02 -8.2596094084832E-02
70  6.9000000000000E-01  3.8975537308392E-02 -4.3318122039216E-02
71  7.0000000000000E-01 -7.3235612065263E-03 -1.0946100541717E-03
72  7.1000000000000E-01 -5.1562925520354E-02  4.3878445128719E-02
73  7.2000000000000E-01 -9.3647995989919E-02  9.1404367840440E-02
74  7.3000000000000E-01 -1.3349479250978E-01  1.4128802746568E-01
75  7.4000000000000E-01 -1.7103009406345E-01  1.9333761905136E-01
76  7.5000000000000E-01 -2.0619158445458E-01  2.4736596313970E-01
77  7.6000000000000E-01 -2.3892796408819E-01  3.0319130089588E-01
78  7.7000000000000E-01 -2.6919902729581E-01  3.6063757475652E-01
79  7.8000000000000E-01 -2.9697570431867E-01  4.1953419933695E-01
80  7.9000000000000E-01 -3.2224006669726E-01  4.7971534185903E-01
81  8.0000000000000E-01 -3.4498529447802E-01  5.4101874554921E-01
82  8.1000000000000E-01 -3.6521560335548E-01  6.0328414296507E-01
83  8.2000000000000E-01 -3.8294612963433E-01  6.6635131870560E-01
84  8.3000000000000E-01 -3.9820277073513E-01  7.3005789213151E-01
85  8.4000000000000E-01 -4.1102197889043E-01  7.9423690028005E-01
86  8.5000000000000E-01 -4.2145050569618E-01  8.5871426884868E-01
87  8.6000000000000E-01 -4.2954509530253E-01  9.2330626473036E-01
88  8.7000000000000E-01 -4.3537212425536E-01  9.8781702693739E-01
89  8.8000000000000E-01 -4.3900718633618E-01  1.0520362737324E+00
90  8.9000000000000E-01 -4.4053462119388E-01  1.1157372823239E+00
91  9.0000000000000E-01 -4.4004698611352E-01  1.1786752335669E+00
92  9.1000000000000E-01 -4.3764447091891E-01  1.2405860077813E+00
93  9.2000000000000E-01 -4.3343425674785E-01  1.3011855091581E+00
94  9.3000000000000E-01 -4.2752982025998E-01  1.3601695854198E+00
95  9.4000000000000E-01 -4.2005018572231E-01  1.4172145966485E+00
96  9.5000000000000E-01 -4.1111912835081E-01  1.4719786727330E+00
97  9.6000000000000E-01 -4.0086433324805E-01  1.5241036830309E+00
98  9.7000000000000E-01 -3.8941651524792E-01  1.5732179249077E+00
99  9.8000000000000E-01 -3.7690850593574E-01  1.6189395201826E+00
100  9.9000000000000E-01 -3.6347431503535E-01  1.6608804905550E+00
101  1.0000000000000E+00 -3.4924817421908E-01  1.6986514652267E+00
102  1.0100000000000E+00 -3.3436357218240E-01  1.7318669565481E+00
103  1.0200000000000E+00 -3.1895229050881E-01  1.7601511230430E+00
104  1.0300000000000E+00 -3.0314345041250E-01  1.7831439239767E+00
105  1.0400000000000E+00 -2.8706258086954E-01  1.8005075560923E+00
106  1.0500000000000E+00 -2.7083071891366E-01  1.8119330516108E+00
107  1.0600000000000E+00 -2.5456355296995E-01  1.8171469073602E+00
108  1.0700000000000E+00 -2.3837062001528E-01  1.8159176082260E+00
109  1.0800000000000E+00 -2.2235456708296E-01  1.8080619042205E+00
110  1.0900000000000E+00 -2.0661048716698E-01  1.7934506994813E+00
111  1.1000000000000E+00 -1.9122533892631E-01  1.7720144135504E+00
112  1.1100000000000E+00 -1.7627745875156E-01  1.7437476803305E+00
113  1.1200000000000E+00 -1.6183617273356E-01  1.7087132582095E+00
114  1.1300000000000E+00 -1.4796151489140E-01  1.6670450357598E+00
115  1.1400000000000E+00 -1.3470405667429E-01  1.6189500311565E+00
116  1.1500000000000E+00 -1.2210485128743E-01  1.5647092995720E+00
117  1.1600000000000E+00 -1.1019549480442E-01  1.5046776812849E+00
118  1.1700000000000E+00 -9.8998304371354E-02  1.4392823434043E+00
119  1.1800000000000E+00 -8.8526612075095E-02  1.3690200899915E+00
120  1.1900000000000E+00 -7.8785171305607E-02  1.2944534380757E+00
121  1.2000000000000E+00 -6.9770670684333E-02  1.2162054806223E+00
122  1.2100000000000E+00 -6.1472348919259E-02  1.1349535810610E+00
123  1.2200000000000E+00 -5.3872702294369E-02  1.0514219672882E+00
124  1.2300000000000E+00 -4.6948274941824E-02  9.6637331559748E-01
125  1.2400000000000E+00 -4.0670520620721E-02  8.8059943612315E-01
126  1.2500000000000E+00 -3.5006723441857E-02  7.9491119099479E-01
127  1.2600000000000E+00 -2.9920963883431E-02  7.1012779371569E-01
128  1.2700000000000E+00 -2.5375115545338E-02  6.2706565314322E-01
129  1.2800000000000E+00 -2.1329857411352E-02  5.4652693751462E-01
130  1.2900000000000E+00 -1.7745685951597E-02  4.6928804282522E-01
131  1.3000000000000E+00 -1.4583911204460E-02  3.9608815545586E-01
132  1.3100000000000E+00 -1.1807619670958E-02  3.2761812886683E-01
133  1.3200000000000E+00 -9.3826059066941E-03  2.6450952329908E-01
134  1.3300000000000E+00 -7.2781650148679E-03  2.0732575829716E-01
135  1.3400000000000E+00 -5.4690178054248E-03  1.5652994042345E-01
136  1.3500000000000E+00 -3.9382366401514E-03  1.1242265558036E-01
137  1.3600000000000E+00 -2.6669877836133E-03  7.5359450460287E-02
138  1.3700000000000E+00 -1.6427127708007E-03  4.5604544999300E-02
139  1.3800000000000E+00 -8.6050904728511E-04  2.3302179738476E-02
140  1.3900000000000E+00 -3.2251056377622E-04  8.4611879056387E-03
141  1.4000000000000E+00 -4.4206029640096E-05  1.1151917871528E-03
142  1.4100000000000E+00  4.3967224364927E-06 -1.0792097120353E-04
143  1.4200000000000E+00 -1.0088254666089E-06  2.5176350361158E-05
144  1.43  0. -0.
145  1.44  0.  0.
146  1.45  0.  0.
147  1.46  0.  0.
148  1.47  0.  0.
149  1.48  0.  0.
150  1.49  0.  0.
151  1.50  0.  0.
152  1.51  0.  0.
153  1.52  0.  0.
154  1.53  0.  0.
155  1.54  0.  0.
156  1.55  0.  0.
157  1.56  0.  0.
158  1.57  0.  0.
159  1.58  0.  0.
160  1.59  0.  0.
161  1.60  0.  0.
162  1.61  0.  0.
163  1.62  0.  0.
164  1.63  0.  0.
165  1.64  0.  0.
166  1.65  0.  0.
167  1.66  0.  0.
168  1.67  0.  0.
169  1.68  0.  0.
170  1.69  0.  0.
171  1.70  0.  0.
172  1.71  0.  0.
173  1.72  0.  0.
174  1.73  0.  0.
175  1.74  0.  0.
176  1.75  0.  0.
177  1.76  0.  0.
178  1.77  0.  0.
179  1.78  0.  0.
180  1.79  0.  0.
181  1.80  0.  0.
182  1.81  0.  0.
183  1.82  0.  0.
184  1.83  0.  0.
185  1.84  0.  0.
186  1.85  0.  0.
187  1.86  0.  0.
188  1.87  0.  0.
189  1.88  0.  0.
190  1.89  0.  0.
191  1.90  0.  0.
192  1.91  0.  0.
193  1.92  0.  0.
194  1.93  0.  0.
195  1.94  0.  0.
196  1.95  0.  0.
197  1.96  0.  0.
198  1.97  0.  0.
199  1.98  0.  0.
200  1.99  0.  0.
201  2.00  0.  0.
202  2.01  0.  0.
203  2.02  0.  0.
204  2.03  0.  0.
205  2.04  0.  0.
206  2.05  0.  0.
207  2.06  0.  0.
208  2.07  0.  0.
209  2.08  0.  0.
210  2.09  0.  0.
211  2.10  0.  0.
212  2.11  0.  0.
213  2.12  0.  0.
214  2.13  0.  0.
215  2.14  0.  0.
216  2.15  0.  0.
217  2.16  0.  0.
218  2.17  0.  0.
219  2.18  0.  0.
220  2.19  0.  0.
221  2.20  0.  0.
222  2.21  0.  0.
223  2.22  0.  0.
224  2.23  0.  0.
225  2.24  0.  0.
226  2.25  0.  0.
227  2.26  0.  0.
228  2.27  0.  0.
229  2.28  0.  0.
230  2.29  0.  0.
231  2.30  0.  0.
232  2.31  0.  0.
233  2.32  0.  0.
234  2.33  0.  0.
235  2.34  0.  0.
236  2.35  0.  0.
237  2.36  0.  0.
238  2.37  0.  0.
239  2.38  0.  0.
240  2.39  0.  0.
241  2.40  0.  0.
242  2.41  0.  0.
243  2.42  0.  0.
244  2.43  0.  0.
245  2.44  0.  0.
246  2.45  0.  0.
247  2.46  0.  0.
248  2.47  0.  0.
249  2.48  0.  0.
250  2.49  0.  0.
251  2.50  0.  0.
252  2.51  0.  0.
253  2.52  0.  0.
254  2.53  0.  0.
255  2.54  0.  0.
256  2.55  0.  0.
257  2.56  0.  0.
258  2.57  0.  0.
259  2.58  0.  0.
260  2.59  0.  0.
261  2.60  0.  0.
262  2.61  0.  0.
263  2.62  0.  0.
264  2.63  0.  0.
265  2.64  0.  0.
266  2.65  0.  0.
267  2.66  0.  0.
268  2.67  0.  0.
269  2.68  0.  0.
270  2.69  0.  0.
271  2.70  0.  0.
272  2.71  0.  0.
273  2.72  0.  0.
274  2.73  0.  0.
275  2.74  0.  0.
276  2.75  0.  0.
277  2.76  0.  0.
278  2.77  0.  0.
279  2.78  0.  0.
280  2.79  0.  0.
281  2.80  0.  0.
282  2.81  0.  0.
283  2.82  0.  0.
284  2.83  0.  0.
285  2.84  0.  0.
286  2.85  0.  0.
287  2.86  0.  0.
288  2.87  0.  0.
289  2.88  0.  0.
290  2.89  0.  0.
291  2.90  0.  0.
292  2.91  0.  0.
293  2.92  0.  0.
294  2.93  0.  0.
295  2.94  0.  0.
296  2.95  0.  0.
297  2.96  0.  0.
298  2.97  0.  0.
299  2.98  0.  0.
300  2.99  0.  0.
301  3.00  0.  0.
302  3.01  0.  0.
303  3.02  0.  0.
304  3.03  0.  0.
305  3.04  0.  0.
306  3.05  0.  0.
307  3.06  0.  0.
308  3.07  0.  0.
309  3.08  0.  0.
310  3.09  0.  0.
311  3.10  0.  0.
312  3.11  0.  0.
313  3.12  0.  0.
314  3.13  0.  0.
315  3.14  0.  0.
316  3.15  0.  0.
317  3.16  0.  0.
318  3.17  0.  0.
319  3.18  0.  0.
320  3.19  0.  0.
321  3.20  0.  0.
322  3.21  0.  0.
323  3.22  0.  0.
324  3.23  0.  0.
325  3.24  0.  0.
326  3.25  0.  0.
327  3.26  0.  0.
328  3.27  0.  0.
329  3.28  0.  0.
330  3.29  0.  0.
331  3.30  0.  0.
332  3.31  0.  0.
333  3.32  0.  0.
334  3.33  0.  0.
335  3.34  0.  0.
336  3.35  0.  0.
337  3.36  0.  0.
338  3.37  0.  0.
339  3.38  0.  0.
340  3.39  0.  0.
341  3.40  0.  0.
342  3.41  0.  0.
343  3.42  0.  0.
344  3.43  0.  0.
345  3.44  0.  0.
346  3.45  0.  0.
347  3.46  0.  0.
348  3.47  0.  0.
349  3.48  0.  0.
350  3.49  0.  0.
351  3.50  0.  0.
352  3.51  0.  0.
353  3.52  0.  0.
354  3.53  0.  0.
355  3.54  0.  0.
356  3.55  0.  0.
357  3.56  0.  0.
358  3.57  0.  0.
359  3.58  0.  0.
360  3.59  0.  0.
361  3.60  0.  0.
362  3.61  0.  0.
363  3.62  0.  0.
364  3.63  0.  0.
365  3.64  0.  0.
366  3.65  0.  0.
367  3.66  0.  0.
368  3.67  0.  0.
369  3.68  0.  0.
370  3.69  0.  0.
371  3.70  0.  0.
372  3.71  0.  0.
373  3.72  0.  0.
374  3.73  0.  0.
375  3.74  0.  0.
376  3.75  0.  0.
377  3.76  0.  0.
378  3.77  0.  0.
379  3.78  0.  0.
380  3.79  0.  0.
381  3.80  0.  0.
382  3.81  0.  0.
383  3.82  0.  0.
384  3.83  0.  0.
385  3.84  0.  0.
386  3.85  0.  0.
387  3.86  0.  0.
388  3.87  0.  0.
389  3.88  0.  0.
390  3.89  0.  0.
391  3.90  0.  0.
392  3.91  0.  0.
393  3.92  0.  0.
394  3.93  0.  0.
395  3.94  0.  0.
396  3.95  0.  0.
397  3.96  0.  0.
398  3.97  0.  0.
399  3.98  0.  0.
400  3.99  0.  0.
401  4.00  0.  0.
402  4.01  0.  0.
403  4.02  0.  0.
404  4.03  0.  0.
405  4.04  0.  0.
406  4.05  0.  0.
407  4.06  0.  0.
408  4.07  0.  0.
409  4.08  0.  0.
410  4.09  0.  0.
411  4.10  0.  0.
412  4.11  0.  0.
413  4.12  0.  0.
414  4.13  0.  0.
415  4.14  0.  0.
416  4.15  0.  0.
417  4.16  0.  0.
418  4.17  0.  0.
419  4.18  0.  0.
420  4.19  0.  0.
421  4.20  0.  0.
422  4.21  0.  0.
423  4.22  0.  0.
424  4.23  0.  0.
425  4.24  0.  0.
426  4.25  0.  0.
427  4.26  0.  0.
428  4.27  0.  0.
429  4.28  0.  0.
430  4.29  0.  0.
431  4.30  0.  0.
432  4.31  0.  0.
433  4.32  0.  0.
434  4.33  0.  0.
435  4.34  0.  0.
436  4.35  0.  0.
437  4.36  0.  0.
438  4.37  0.  0.
439  4.38  0.  0.
440  4.39  0.  0.
441  4.40  0.  0.
442  4.41  0.  0.
443  4.42  0.  0.
444  4.43  0.  0.
445  4.44  0.  0.
446  4.45  0.  0.
447  4.46  0.  0.
448  4.47  0.  0.
449  4.48  0.  0.
450  4.49  0.  0.
451  4.50  0.  0.
452  4.51  0.  0.
453  4.52  0.  0.
454  4.53  0.  0.
455  4.54  0.  0.
456  4.55  0.  0.
457  4.56  0.  0.
458  4.57  0.  0.
459  4.58  0.  0.
460  4.59  0.  0.
461  4.60  0.  0.
462  4.61  0.  0.
463  4.62  0.  0.
464  4.63  0.  0.
465  4.64  0.  0.
466  4.65  0.  0.
467  4.66  0.  0.
468  4.67  0.  0.
469  4.68  0.  0.
470  4.69  0.  0.
471  4.70  0.  0.
472  4.71  0.  0.
473  4.72  0.  0.
474  4.73  0.  0.
475  4.74  0.  0.
476  4.75  0.  0.
477  4.76  0.  0.
478  4.77  0.  0.
479  4.78  0.  0.
480  4.79  0.  0.
481  4.80  0.  0.
482  4.81  0.  0.
483  4.82  0.  0.
484  4.83  0.  0.
485  4.84  0.  0.
486  4.85  0.  0.
487  4.86  0.  0.
488  4.87  0.  0.
489  4.88  0.  0.
490  4.89  0.  0.
491  4.90  0.  0.
492  4.91  0.  0.
493  4.92  0.  0.
494  4.93  0.  0.
495  4.94  0.  0.
496  4.95  0.  0.
497  4.96  0.  0.
498  4.97  0.  0.
499  4.98  0.  0.
500  4.99  0.  0.
501  5.00  0.  0.
502  5.01  0.  0.
503  5.02  0.  0.
504  5.03  0.  0.
505  5.04  0.  0.
506  5.05  0.  0.
507  5.06  0.  0.
508  5.07  0.  0.
509  5.08  0.  0.
510  5.09  0.  0.
511  5.10  0.  0.
512  5.11  0.  0.
513  5.12  0.  0.
514  5.13  0.  0.
515  5.14  0.  0.
516  5.15  0.  0.
517  5.16  0.  0.
518  5.17  0.  0.
519  5.18  0.  0.
520  5.19  0.  0.
521  5.20  0.  0.
522  5.21  0.  0.
523  5.22  0.  0.
524  5.23  0.  0.
525  5.24  0.  0.
526  5.25  0.  0.
527  5.26  0.  0.
528  5.27  0.  0.
529  5.28  0.  0.
530  5.29  0.  0.
531  5.30  0.  0.
532  5.31  0.  0.
533  5.32  0.  0.
534  5.33  0.  0.
535  5.34  0.  0.
536  5.35  0.  0.
537  5.36  0.  0.
538  5.37  0.  0.
539  5.38  0.  0.
540  5.39  0.  0.
541  5.40  0.  0.
542  5.41  0.  0.
543  5.42  0.  0.
544  5.43  0.  0.
545  5.44  0.  0.
546  5.45  0.  0.
547  5.46  0.  0.
548  5.47  0.  0.
549  5.48  0.  0.
550  5.49  0.  0.
551  5.50  0.  0.
552  5.51  0.  0.
553  5.52  0.  0.
554  5.53  0.  0.
555  5.54  0.  0.
556  5.55  0.  0.
557  5.56  0.  0.
558  5.57  0.  0.
559  5.58  0.  0.
560  5.59  0.  0.
561  5.60  0.  0.
562  5.61  0.  0.
563  5.62  0.  0.
564  5.63  0.  0.
565  5.64  0.  0.
566  5.65  0.  0.
567  5.66  0.  0.
568  5.67  0.  0.
569  5.68  0.  0.
570  5.69  0.  0.
571  5.70  0.  0.
572  5.71  0.  0.
573  5.72  0.  0.
574  5.73  0.  0.
575  5.74  0.  0.
576  5.75  0.  0.
577  5.76  0.  0.
578  5.77  0.  0.
579  5.78  0.  0.
580  5.79  0.  0.
581  5.80  0.  0.
582  5.81  0.  0.
583  5.82  0.  0.
584  5.83  0.  0.
585  5.84  0.  0.
586  5.85  0.  0.
587  5.86  0.  0.
588  5.87  0.  0.
589  5.88  0.  0.
590  5.89  0.  0.
591  5.90  0.  0.
592  5.91  0.  0.
593  5.92  0.  0.
594  5.93  0.  0.
595  5.94  0.  0.
596  5.95  0.  0.
597  5.96  0.  0.
598  5.97  0.  0.
599  5.98  0.  0.
600  5.99  0.  0.
1                         1.4382212304005E+01  1.6113889665866E+00
1  0.0000000000000E+00 -5.8270279434947E-09  1.8177676107400E-08
2  1.0000000000000E-02  1.8801379485724E-03 -5.9017568856583E-04
3  2.0000000000000E-02  7.5162214442588E-03 -2.3671484133800E-03
4  3.0000000000000E-02  1.6895156402169E-02 -5.3498722950608E-03
5  4.0000000000000E-02  2.9994779575140E-02 -9.5686727849599E-03
6  5.0000000000000E-02  4.6783361666264E-02 -1.5063389275676E-02
7  6.0000000000000E-02  6.7218936876282E-02 -2.1880853141346E-02
8  7.0000000000000E-02  9.1248483262973E-02 -3.0071777090720E-02
9  8.0000000000000E-02  1.1880698411666E-01 -3.9687149893666E-02
10  9.0000000000000E-02  1.4981640556921E-01 -5.0774246214686E-02
11  1.0000000000000E-01  1.8418462971603E-01 -6.3372374032285E-02
12  1.1000000000000E-01  2.2180438552703E-01 -7.7508491591528E-02
13  1.2000000000000E-01  2.6255222166851E-01 -9.3192831764140E-02
14  1.3000000000000E-01  3.0628756599369E-01 -1.1041467390111E-01
15  1.4000000000000E-01  3.5285191586157E-01 -1.2913840167824E-01
16  1.5000000000000E-01  4.0206820161486E-01 -1.4929998007423E-01
17  1.6000000000000E-01  4.5374036252669E-01 -1.7080397559922E-01
18  1.7000000000000E-01  5.0765317037872E-01 -1.9352123142138E-01
19  1.8000000000000E-01  5.6357233065861E-01 -2.1728729342074E-01
20  1.9000000000000E-01  6.2124488528530E-01 -2.4190166481723E-01
21  2.0000000000000E-01  6.8039993393463E-01 -2.6712794633222E-01
22  2.1000000000000E-01  7.4074968361324E-01 -2.9269489636814E-01
23  2.2000000000000E-01  8.0199082829992E-01 -3.1829842200043E-01
24  2.3000000000000E-01  8.6380625243671E-01 -3.4360448727232E-01
25  2.4000000000000E-01  9.2586704400901E-01 -3.6825290099317E-01
26  2.5000000000000E-01  9.8783479511035E-01 -3.9186192259169E-01
27  2.6000000000000E-01  1.0493641604428E+00 -4.1403360218676E-01
28  2.7000000000000E-01  1.1101056373522E+00 -4.3435975049870E-01
29  2.8000000000000E-01  1.1697085249150E+00 -4.5242841608255E-01
30  2.9000000000000E-01  1.2278240144471E+00 -4.6783073211213E-01
31  3.0000000000000E-01  1.2841083597215E+00 -4.8016798300245E-01
32  3.1000000000000E-01  1.3382260722932E+00 -4.8905873286760E-01
33  3.2000000000000E-01  1.3898530856960E+00 -4.9414585342430E-01
34  3.3000000000000E-01  1.4386798319742E+00 -4.9510328861994E-01
35  3.4000000000000E-01  1.4844141750416E+00 -4.9164239704015E-01
36  3.5000000000000E-01  1.5267841477243E+00 -4.8351772098240E-01
37  3.6000000000000E-01  1.5655404429799E+00 -4.7053204281134E-01
38  3.7000000000000E-01  1.6004586146291E+00 -4.5254060458263E-01
39  3.8000000000000E-01  1.6313409488638E+00 -4.2945438558032E-01
40  3.9000000000000E-01  1.6580179746788E+00 -4.0124235392006E-01
41  4.0000000000000E-01  1.6803495890399E+00 -3.6793263220855E-01
42  4.1000000000000E-01  1.6982257808743E+00 -3.2961254283775E-01
43  4.2000000000000E-01  1.7115669466399E+00 -2.8642752519675E-01
44  4.3000000000000E-01  1.7203237990904E+00 -2.3857894424011E-01
45  4.4000000000000E-01  1.7244768796790E+00 -1.8632083676950E-01
46  4.5000000000000E-01  1.7240356936211E+00 -1.2995566778170E-01
47  4.6000000000000E-01  1.7190374947408E+00 -6.9829193636729E-02
48  4.7000000000000E-01  1.7095457546616E+00 -6.3245509686411E-03
49  4.8000000000000E-01  1.6956483574675E+00  6.0144290390428E-02
50  4.9000000000000E-01  1.6774555664994E+00  1.2913955619727E-01
51  5.0000000000000E-01  1.6550978143042E+00  2.0020701180210E-01
52  5.1000000000000E-01  1.6287233698180E+00  2.7288344679605E-01
53  5.2000000000000E-01  1.5984959385490E+00  3.4670412203568E-01
54  5.3000000000000E-01  1.5645922517807E+00  4.2121000161537E-01
55  5.4000000000000E-01  1.5271996996314E+00  4.9595459775134E-01
56  5.5000000000000E-01  1.4865140602109E+00  5.7051026639922E-01
57  5.6000000000000E-01  1.4427373731542E+00  6.4447380554765E-01
58  5.7000000000000E-01  1.3960760006031E+00  7.1747122619301E-01
59  5.8000000000000E-01  1.3467389123620E+00  7.8916158758711E-01
60  5.9000000000000E-01  1.2949362246441E+00  8.5923981293922E-01
61  6.0000000000000E-01  1.2408780137316E+00  9.2743842874699E-01
62  6.1000000000000E-01  1.1847734172109E+00  9.9352819965512E-01
63  6.2000000000000E-01  1.1268300264368E+00  1.0573176604720E+00
64  6.3000000000000E-01  1.0672535647626E+00  1.1186515769514E+00
65  6.4000000000000E-01  1.0062478371022E+00  1.1774083963929E+00
66  6.5000000000000E-01  9.4401492779082E-01  1.2334967772536E+00
67  6.6000000000000E-01  8.8075561573724E-01  1.2868513130458E+00
68  6.7000000000000E-01  8.1666996872454E-01  1.3374275891069E+00
69  6.8000000000000E-01  7.5195807262634E-01  1.3851967307222E+00
70  6.9000000000000E-01  6.8682084644184E-01  1.4301396169830E+00
71  7.0000000000000E-01  6.2146089056467E-01  1.4722409462021E+00
72  7.1000000000000E-01  5.5608331370405E-01  1.5114833453004E+00
73  7.2000000000000E-01  4.9089648345144E-01  1.5478417170930E+00
74  7.3000000000000E-01  4.2611264666963E-01  1.5812780156943E+00
75  7.4000000000000E-01  3.6194836867233E-01  1.6117366313495E+00
76  7.5000000000000E-01  2.9862474451412E-01  1.6391405520242E+00
77  7.6000000000000E-01  2.3636734153751E-01  1.6633884503145E+00
78  7.7000000000000E-01  1.7540583949743E-01  1.6843528210820E+00
79  7.8000000000000E-01  1.1597334293910E-01  1.7018792681937E+00
80  7.9000000000000E-01  5.8305349844134E-02  1.7157870084787E+00
81  8.0000000000000E-01  2.6383706527556E-03  1.7258706282381E+00
82  8.1000000000000E-01 -5.0791797635965E-02  1.7319030931477E+00
83  8.2000000000000E-01 -1.0175212675896E-01  1.7336399770493E+00
84  8.3000000000000E-01 -1.5001471558034E-01  1.7308248398200E+00
85  8.4000000000000E-01 -1.9535941484751E-01  1.7231956501645E+00
86  8.5000000000000E-01 -2.3757667177283E-01  1.7104921166887E+00
87  8.6000000000000E-01 -2.7647053899185E-01  1.6924637608677E+00
88  8.7000000000000E-01 -3.1186178469643E-01  1.6688785393351E+00
89  8.8000000000000E-01 -3.4359103437774E-01  1.6395318010482E+00
90  8.9000000000000E-01 -3.7152186984371E-01  1.6042553479704E+00
91  9.0000000000000E-01 -3.9554380816526E-01  1.5629263565122E+00
92  9.1000000000000E-01 -4.1557508208089E-01  1.5154759114880E+00
93  9.2000000000000E-01 -4.3156514423193E-01  1.4618969050606E+00
94  9.3000000000000E-01 -4.4349682044364E-01  1.4022510601758E+00
95  9.4000000000000E-01 -4.5138804209382E-01  1.3366748513096E+00
96  9.5000000000000E-01 -4.5529309435662E-01  1.2653841147667E+00
97  9.6000000000000E-01 -4.5530332565364E-01  1.1886771659380E+00
98  9.7000000000000E-01 -4.5154727383220E-01  1.1069362713613E+00
99  9.8000000000000E-01 -4.4419017620611E-01  1.0206273584810E+00
100  9.9000000000000E-01 -4.3343284339797E-01  9.3029788493732E-01
101  1.0000000000000E+00 -4.1950989061931E-01  8.3657283112044E-01
102  1.0100000000000E+00 -4.0268733432722E-01  7.4014882370158E-01
103  1.0200000000000E+00 -3.8325957675005E-01  6.4178644281716E-01
104  1.0300000000000E+00 -3.6154581524278E-01  5.4230081047239E-01
105  1.0400000000000E+00 -3.3788592747714E-01  4.4255060149752E-01
106  1.0500000000000E+00 -3.1263589673177E-01  3.4342565990969E-01
107  1.0600000000000E+00 -2.8616285368284E-01  2.4583344173271E-01
108  1.0700000000000E+00 -2.5883982182549E-01  1.5068453932995E-01
109  1.0800000000000E+00 -2.3104026264722E-01  5.8877571060130E-02
110  1.0900000000000E+00 -2.0313252371466E-01 -2.8716257101040E-02
111  1.1000000000000E+00 -1.7547429769816E-01 -1.1126859513311E-01
112  1.1100000000000E+00 -1.4840720288602E-01 -1.8800906585284E-01
113  1.1200000000000E+00 -1.2225159582343E-01 -2.5823972167542E-01
114  1.1300000000000E+00 -9.7301724313998E-02 -3.2134851391985E-01
115  1.1400000000000E+00 -7.3821324106652E-02 -3.7682146118262E-01
116  1.1500000000000E+00 -5.2039755303786E-02 -4.2425322450624E-01
117  1.1600000000000E+00 -3.2148764862632E-02 -4.6335582563469E-01
118  1.1700000000000E+00 -1.4299949883445E-02 -4.9396527948854E-01
119  1.1800000000000E+00  1.3970173262180E-03 -5.1604595313834E-01
120  1.1900000000000E+00  1.4875356583736E-02 -5.2969250928553E-01
121  1.2000000000000E+00  2.6111310336241E-02 -5.3512934251476E-01
122  1.2100000000000E+00  3.5123425536342E-02 -5.3270746946471E-01
123  1.2200000000000E+00  4.1970993116857E-02 -5.2289888891892E-01
124  1.2300000000000E+00  4.6751669515387E-02 -5.0628848337233E-01
125  1.2400000000000E+00  4.9598322543190E-02 -4.8356358812530E-01
126  1.2500000000000E+00  5.0675161252311E-02 -4.5550140706184E-01
127  1.2600000000000E+00  5.0173225616586E-02 -4.2295450379043E-01
128  1.2700000000000E+00  4.8305326616392E-02 -3.8683464216957E-01
129  1.2800000000000E+00  4.5300540367324E-02 -3.4809529036770E-01
130  1.2900000000000E+00  4.1398370805970E-02 -3.0771313611466E-01
131  1.3000000000000E+00  3.6842704014244E-02 -2.6666898729027E-01
132  1.3100000000000E+00  3.1875692686577E-02 -2.2592847454273E-01
133  1.3200000000000E+00  2.6731589170053E-02 -1.8642267161310E-01
134  1.3300000000000E+00  2.1631238785418E-02 -1.4903049039287E-01
135  1.3400000000000E+00  1.6768773775375E-02 -1.1454153371796E-01
136  1.3500000000000E+00  1.2286949903594E-02 -8.3589268692543E-02
137  1.3600000000000E+00  8.3490472610867E-03 -5.6830847940006E-02
138  1.3700000000000E+00  5.0897749077426E-03 -3.4822166303087E-02
139  1.3800000000000E+00  2.6034762311530E-03 -1.7985526422884E-02
140  1.3900000000000E+00  9.4031478913774E-04 -6.5905790754307E-03
141  1.4000000000000E+00  1.2240628993265E-04 -8.7541684306593E-04
142  1.4100000000000E+00 -1.1742513116375E-05  8.5195847474359E-05
143  1.4200000000000E+00  2.7574527639733E-06 -1.9823226417724E-05
144  1.43 -0.  0.
145  1.44  0.  0.
146  1.45  0.  0.
147  1.46  0.  0.
148  1.47  0.  0.
149  1.48  0.  0.
150  1.49  0.  0.
151  1.50  0.  0.
152  1.51  0.  0.
153  1.52  0.  0.
154  1.53  0.  0.
155  1.54  0.  0.
156  1.55  0.  0.
157  1.56  0.  0.
158  1.57  0.  0.
159  1.58  0.  0.
160  1.59  0.  0.
161  1.60  0.  0.
162  1.61  0.  0.
163  1.62  0.  0.
164  1.63  0.  0.
165  1.64  0.  0.
166  1.65  0.  0.
167  1.66  0.  0.
168  1.67  0.  0.
169  1.68  0.  0.
170  1.69  0.  0.
171  1.70  0.  0.
172  1.71  0.  0.
173  1.72  0.  0.
174  1.73  0.  0.
175  1.74  0.  0.
176  1.75  0.  0.
177  1.76  0.  0.
178  1.77  0.  0.
179  1.78  0.  0.
180  1.79  0.  0.
181  1.80  0.  0.
182  1.81  0.  0.
183  1.82  0.  0.
184  1.83  0.  0.
185  1.84  0.  0.
186  1.85  0.  0.
187  1.86  0.  0.
188  1.87  0.  0.
189  1.88  0.  0.
190  1.89  0.  0.
191  1.90  0.  0.
192  1.91  0.  0.
193  1.92  0.  0.
194  1.93  0.  0.
195  1.94  0.  0.
196  1.95  0.  0.
197  1.96  0.  0.
198  1.97  0.  0.
199  1.98  0.  0.
200  1.99  0.  0.
201  2.00  0.  0.
202  2.01  0.  0.
203  2.02  0.  0.
204  2.03  0.  0.
205  2.04  0.  0.
206  2.05  0.  0.
207  2.06  0.  0.
208  2.07  0.  0.
209  2.08  0.  0.
210  2.09  0.  0.
211  2.10  0.  0.
212  2.11  0.  0.
213  2.12  0.  0.
214  2.13  0.  0.
215  2.14  0.  0.
216  2.15  0.  0.
217  2.16  0.  0.
218  2.17  0.  0.
219  2.18  0.  0.
220  2.19  0.  0.
221  2.20  0.  0.
222  2.21  0.  0.
223  2.22  0.  0.
224  2.23  0.  0.
225  2.24  0.  0.
226  2.25  0.  0.
227  2.26  0.  0.
228  2.27  0.  0.
229  2.28  0.  0.
230  2.29  0.  0.
231  2.30  0.  0.
232  2.31  0.  0.
233  2.32  0.  0.
234  2.33  0.  0.
235  2.34  0.  0.
236  2.35  0.  0.
237  2.36  0.  0.
238  2.37  0.  0.
239  2.38  0.  0.
240  2.39  0.  0.
241  2.40  0.  0.
242  2.41  0.  0.
243  2.42  0.  0.
244  2.43  0.  0.
245  2.44  0.  0.
246  2.45  0.  0.
247  2.46  0.  0.
248  2.47  0.  0.
249  2.48  0.  0.
250  2.49  0.  0.
251  2.50  0.  0.
252  2.51  0.  0.
253  2.52  0.  0.
254  2.53  0.  0.
255  2.54  0.  0.
256  2.55  0.  0.
257  2.56  0.  0.
258  2.57  0.  0.
259  2.58  0.  0.
260  2.59  0.  0.
261  2.60  0.  0.
262  2.61  0.  0.
263  2.62  0.  0.
264  2.63  0.  0.
265  2.64  0.  0.
266  2.65  0.  0.
267  2.66  0.  0.
268  2.67  0.  0.
269  2.68  0.  0.
270  2.69  0.  0.
271  2.70  0.  0.
272  2.71  0.  0.
273  2.72  0.  0.
274  2.73  0.  0.
275  2.74  0.  0.