Og    ONCVPSP-4.0.1  r_core=   1.60307   1.60307   1.60307
118.0000     26.0000      220307    zatom,zion,pspd
8      11   2     4   600     0    pspcod,pspxc,lmax,lloc,mmax,r2well
5.99000000  5.00000000  0.00000000    rchrg fchrg qchrg
2     2     2     0     0    nproj
1     1           extension_switch
0                         7.3009989587818E+00 -1.0143107066126E+00
1  0.0000000000000E+00  1.9217238911295E-10  3.2812991213049E-10
2  1.0000000000000E-02  8.2171085452463E-02  1.5511326433595E-02
3  2.0000000000000E-02  1.6412936539732E-01  3.1037182629999E-02
4  3.0000000000000E-02  2.4566253493922E-01  4.6591815868034E-02
5  4.0000000000000E-02  3.2655929155162E-01  6.2188913461532E-02
6  5.0000000000000E-02  4.0660983907151E-01  7.7841335198780E-02
7  6.0000000000000E-02  4.8560639492654E-01  9.3560860450247E-02
8  7.0000000000000E-02  5.6334370144156E-01  1.0935795444148E-01
9  8.0000000000000E-02  6.3961954187917E-01  1.2524155785998E-01
10  9.0000000000000E-02  7.1423526163562E-01  1.4121890356489E-01
11  1.0000000000000E-01  7.8699629474280E-01  1.5729536370350E-01
12  1.1000000000000E-01  8.5771269552449E-01  1.7347433001585E-01
13  1.2000000000000E-01  9.2619967492616E-01  1.8975712953769E-01
14  1.3000000000000E-01  9.9227814068863E-01  2.0614297730104E-01
15  1.4000000000000E-01  1.0557752401732E+00  2.2262896699229E-01
16  1.5000000000000E-01  1.1165249042760E+00  2.3921009986857E-01
17  1.6000000000000E-01  1.1743683905018E+00  2.5587935156797E-01
18  1.7000000000000E-01  1.2291548229037E+00  2.7262777578583E-01
19  1.8000000000000E-01  1.2807417262520E+00  2.8944464314193E-01
20  1.9000000000000E-01  1.3289955514672E+00  3.0631761294081E-01
21  2.0000000000000E-01  1.3737921890596E+00  3.2323293494093E-01
22  2.1000000000000E-01  1.4150174670539E+00  3.4017567770798E-01
23  2.2000000000000E-01  1.4525676296591E+00  3.5712997964228E-01
24  2.3000000000000E-01  1.4863497927686E+00  3.7407931834837E-01
25  2.4000000000000E-01  1.5162823722518E+00  3.9100679366375E-01
26  2.5000000000000E-01  1.5422954809318E+00  4.0789541939007E-01
27  2.6000000000000E-01  1.5643312901283E+00  4.2472841857765E-01
28  2.7000000000000E-01  1.5823443516975E+00  4.4148951710813E-01
29  2.8000000000000E-01  1.5963018766069E+00  4.5816323030146E-01
30  2.9000000000000E-01  1.6061839662534E+00  4.7473513734337E-01
31  3.0000000000000E-01  1.6119837929641E+00  4.9119213848781E-01
32  3.1000000000000E-01  1.6137077264072E+00  5.0752269023251E-01
33  3.2000000000000E-01  1.6113754029845E+00  5.2371701399239E-01
34  3.3000000000000E-01  1.6050197356736E+00  5.3976727419913E-01
35  3.4000000000000E-01  1.5946868622341E+00  5.5566772223026E-01
36  3.5000000000000E-01  1.5804360301731E+00  5.7141480311010E-01
37  3.6000000000000E-01  1.5623394173957E+00  5.8700722251882E-01
38  3.7000000000000E-01  1.5404818880111E+00  6.0244597228618E-01
39  3.8000000000000E-01  1.5149606833453E+00  6.1773431322219E-01
40  3.9000000000000E-01  1.4858850487985E+00  6.3287771483736E-01
41  4.0000000000000E-01  1.4533757977812E+00  6.4788375221895E-01
42  4.1000000000000E-01  1.4175648145613E+00  6.6276196104520E-01
43  4.2000000000000E-01  1.3785944984362E+00  6.7752365242501E-01
44  4.3000000000000E-01  1.3366171522159E+00  6.9218168993405E-01
45  4.4000000000000E-01  1.2917943185432E+00  7.0675023186898E-01
46  4.5000000000000E-01  1.2442960680873E+00  7.2124444234815E-01
47  4.6000000000000E-01  1.1943002441171E+00  7.3568017543906E-01
48  4.7000000000000E-01  1.1419916683801E+00  7.5007363698203E-01
49  4.8000000000000E-01  1.0875613135854E+00  7.6444102919543E-01
50  4.9000000000000E-01  1.0312054480970E+00  7.7879818348536E-01
51  5.0000000000000E-01  9.7312475869284E-01  7.9316018713392E-01
52  5.1000000000000E-01  9.1352345742939E-01  8.0754100970190E-01
53  5.2000000000000E-01  8.5260837876149E-01  8.2195313504953E-01
54  5.3000000000000E-01  7.9058807311444E-01  8.3640720485215E-01
55  5.4000000000000E-01  7.2767190307661E-01  8.5091167936516E-01
56  5.5000000000000E-01  6.6406914828527E-01  8.6547252097672E-01
57  5.6000000000000E-01  5.9998812491360E-01  8.8009290577947E-01
58  5.7000000000000E-01  5.3563532543653E-01  8.9477296799937E-01
59  5.8000000000000E-01  4.7121458406189E-01  9.0950958164560E-01
60  5.9000000000000E-01  4.0692627286356E-01  9.2429618319873E-01
61  6.0000000000000E-01  3.4296653325338E-01  9.3912263854241E-01
62  6.1000000000000E-01  2.7952654698142E-01  9.5397515667717E-01
63  6.2000000000000E-01  2.1679185036984E-01  9.6883625204395E-01
64  6.3000000000000E-01  1.5494169496880E-01  9.8368475654077E-01
65  6.4000000000000E-01  9.4148457283139E-02  9.9849588155101E-01
66  6.5000000000000E-01  3.4577099663417E-02  1.0132413295286E+00
67  6.6000000000000E-01 -2.3615316107202E-02  1.0278894539156E+00
68  6.7000000000000E-01 -8.0280061559754E-02  1.0424054654160E+00
69  6.8000000000000E-01 -1.3527712020050E-01  1.0567516819261E+00
70  6.9000000000000E-01 -1.8847551220051E-01  1.0708878187396E+00
71  7.0000000000000E-01 -2.3975356573640E-01  1.0847713150179E+00
72  7.1000000000000E-01 -2.8899913608096E-01  1.0983576919493E+00
73  7.2000000000000E-01 -3.3610977397944E-01  1.1116009375300E+00
74  7.3000000000000E-01 -3.8099284523956E-01  1.1244539124854E+00
75  7.4000000000000E-01 -4.2356560380650E-01  1.1368687715333E+00
76  7.5000000000000E-01 -4.6375522088249E-01  1.1487973939559E+00
77  7.6000000000000E-01 -5.0149877288340E-01  1.1601918173245E+00
78  7.7000000000000E-01 -5.3674319119771E-01  1.1710046681864E+00
79  7.8000000000000E-01 -5.6944517682678E-01  1.1811895836006E+00
80  7.9000000000000E-01 -5.9957108303876E-01  1.1907016175816E+00
81  8.0000000000000E-01 -6.2709676916364E-01  1.1994976267813E+00
82  8.1000000000000E-01 -6.5200742859502E-01  1.2075366301105E+00
83  8.2000000000000E-01 -6.7429739394955E-01  1.2147801374493E+00
84  8.3000000000000E-01 -6.9396992217084E-01  1.2211924431385E+00
85  8.4000000000000E-01 -7.1103696215651E-01  1.2267408805452E+00
86  8.5000000000000E-01 -7.2551890724073E-01  1.2313960346717E+00
87  8.6000000000000E-01 -7.3744433458649E-01  1.2351319104912E+00
88  8.7000000000000E-01 -7.4684973323892E-01  1.2379260554576E+00
89  8.8000000000000E-01 -7.5377922227103E-01  1.2397596354187E+00
90  8.9000000000000E-01 -7.5828426012403E-01  1.2406174639601E+00
91  9.0000000000000E-01 -7.6042334591337E-01  1.2404879860036E+00
92  9.1000000000000E-01 -7.6026171314772E-01  1.2393632172636E+00
93  9.2000000000000E-01 -7.5787101599834E-01  1.2372386419192E+00
94  9.3000000000000E-01 -7.5332900796828E-01  1.2341130715679E+00
95  9.4000000000000E-01 -7.4671921255257E-01  1.2299884691863E+00
96  9.5000000000000E-01 -7.3813058525697E-01  1.2248697424105E+00
97  9.6000000000000E-01 -7.2765716616186E-01  1.2187645109660E+00
98  9.7000000000000E-01 -7.1539772208205E-01  1.2116828535023E+00
99  9.8000000000000E-01 -7.0145537728962E-01  1.2036370394226E+00
100  9.9000000000000E-01 -6.8593723173555E-01  1.1946412515345E+00
101  1.0000000000000E+00 -6.6895396573145E-01  1.1847113054731E+00
102  1.0100000000000E+00 -6.5061943013421E-01  1.1738643718711E+00
103  1.0200000000000E+00 -6.3105022121484E-01  1.1621187071629E+00
104  1.0300000000000E+00 -6.1036523958598E-01  1.1494933987114E+00
105  1.0400000000000E+00 -5.8868523280823E-01  1.1360081296463E+00
106  1.0500000000000E+00 -5.6613232159029E-01  1.1216829683970E+00
107  1.0600000000000E+00 -5.4282950983560E-01  1.1065381874112E+00
108  1.0700000000000E+00 -5.1890017916558E-01  1.0905941149582E+00
109  1.0800000000000E+00 -4.9446756895707E-01  1.0738710232620E+00
110  1.0900000000000E+00 -4.6965424336303E-01  1.0563890554768E+00
111  1.1000000000000E+00 -4.4458154723416E-01  1.0381681932396E+00
112  1.1100000000000E+00 -4.1936905331179E-01  1.0192282657097E+00
113  1.1200000000000E+00 -3.9413400351620E-01  9.9958900016020E-01
114  1.1300000000000E+00 -3.6899074759295E-01  9.7927011332440E-01
115  1.1400000000000E+00 -3.4405018280059E-01  9.5829144184389E-01
116  1.1500000000000E+00 -3.1941919871002E-01  9.3667310932947E-01
117  1.1600000000000E+00 -2.9520013153580E-01  9.1443572673851E-01
118  1.1700000000000E+00 -2.7149023271898E-01  8.9160062202003E-01
119  1.1800000000000E+00 -2.4838115672562E-01  8.6819009428133E-01
120  1.1900000000000E+00 -2.2595847320482E-01  8.4422768711400E-01
121  1.2000000000000E+00 -2.0430120876008E-01  8.1973847518272E-01
122  1.2100000000000E+00 -1.8348142362229E-01  7.9474935774639E-01
123  1.2200000000000E+00 -1.6356382846698E-01  7.6928935245216E-01
124  1.2300000000000E+00 -1.4460544649029E-01  7.4338988252678E-01
125  1.2400000000000E+00 -1.2665532564629E-01  7.1708505039310E-01
126  1.2500000000000E+00 -1.0975430565041E-01  6.9041189076381E-01
127  1.2600000000000E+00 -9.3934843973469E-02  6.6341059641324E-01
128  1.2700000000000E+00 -7.9220904591066E-02  6.3612471009666E-01
129  1.2800000000000E+00 -6.5627912713202E-02  6.0860127647802E-01
130  1.2900000000000E+00 -5.3162778111084E-02  5.8089094843054E-01
131  1.3000000000000E+00 -4.1823988985949E-02  5.5304804268473E-01
132  1.3100000000000E+00 -3.1601777592129E-02  5.2513054051147E-01
133  1.3200000000000E+00 -2.2478358050217E-02  4.9720002992576E-01
134  1.3300000000000E+00 -1.4428235974115E-02  4.6932158676832E-01
135  1.3400000000000E+00 -7.4185886907909E-03  4.4156359296365E-01
136  1.3500000000000E+00 -1.4097139787425E-03  4.1399749123496E-01
137  1.3600000000000E+00  3.6444556082870E-03  3.8669747657464E-01
138  1.3700000000000E+00  7.7957766112420E-03  3.5974012579758E-01
139  1.3800000000000E+00  1.1101261337713E-02  3.3320396754076E-01
140  1.3900000000000E+00  1.3622392731334E-02  3.0716899608097E-01
141  1.4000000000000E+00  1.5424393579105E-02  2.8171613332292E-01
142  1.4100000000000E+00  1.6575456878624E-02  2.5692664423306E-01
143  1.4200000000000E+00  1.7145944803647E-02  2.3288151185759E-01
144  1.4300000000000E+00  1.7207564237870E-02  2.0966077883826E-01
145  1.4400000000000E+00  1.6832527290721E-02  1.8734286302257E-01
146  1.4500000000000E+00  1.6092705554995E-02  1.6600385534018E-01
147  1.4600000000000E+00  1.5058787107468E-02  1.4571680857475E-01
148  1.4700000000000E+00  1.3799445385990E-02  1.2655102599220E-01
149  1.4800000000000E+00  1.2380529095176E-02  1.0857135898522E-01
150  1.4900000000000E+00  1.0864282196337E-02  9.1837522955907E-02
151  1.5000000000000E+00  9.3086032019846E-03  7.6403442798751E-02
152  1.5100000000000E+00  7.7663496533947E-03  6.2316621299780E-02
153  1.5200000000000E+00  6.2847051949094E-03  4.9617605815665E-02
154  1.5300000000000E+00  4.9038810775652E-03  3.8335055829508E-02
155  1.5400000000000E+00  3.6569181936504E-03  2.8485315533359E-02
156  1.5500000000000E+00  2.5722668346497E-03  2.0091362823923E-02
157  1.5600000000000E+00  1.6703021916635E-03  1.3166483753966E-02
158  1.5700000000000E+00  9.6315255071339E-04  7.7137595448805E-03
159  1.5800000000000E+00  4.5478086198880E-04  3.7273587848084E-03
160  1.5900000000000E+00  1.3932266605445E-04  1.1770737899359E-03
161  1.6000000000000E+00  1.0726619257466E-05  9.4625185208053E-05
162  1.6100000000000E+00 -2.0347215784899E-06 -1.8280943038579E-05
163  1.6200000000000E+00  6.6567746357504E-07  5.8441372215549E-06
164  1.63 -0. -0.
165  1.64 -0. -0.
166  1.65  0.  0.
167  1.66  0.  0.
168  1.67  0.  0.
169  1.68  0.  0.
170  1.69  0.  0.
171  1.70  0.  0.
172  1.71  0.  0.
173  1.72  0.  0.
174  1.73  0.  0.
175  1.74  0.  0.
176  1.75  0.  0.
177  1.76  0.  0.
178  1.77  0.  0.
179  1.78  0.  0.
180  1.79  0.  0.
181  1.80  0.  0.
182  1.81  0.  0.
183  1.82  0.  0.
184  1.83  0.  0.
185  1.84  0.  0.
186  1.85  0.  0.
187  1.86  0.  0.
188  1.87  0.  0.
189  1.88  0.  0.
190  1.89  0.  0.
191  1.90  0.  0.
192  1.91  0.  0.
193  1.92  0.  0.
194  1.93  0.  0.
195  1.94  0.  0.
196  1.95  0.  0.
197  1.96  0.  0.
198  1.97  0.  0.
199  1.98  0.  0.
200  1.99  0.  0.
201  2.00  0.  0.
202  2.01  0.  0.
203  2.02  0.  0.
204  2.03  0.  0.
205  2.04  0.  0.
206  2.05  0.  0.
207  2.06  0.  0.
208  2.07  0.  0.
209  2.08  0.  0.
210  2.09  0.  0.
211  2.10  0.  0.
212  2.11  0.  0.
213  2.12  0.  0.
214  2.13  0.  0.
215  2.14  0.  0.
216  2.15  0.  0.
217  2.16  0.  0.
218  2.17  0.  0.
219  2.18  0.  0.
220  2.19  0.  0.
221  2.20  0.  0.
222  2.21  0.  0.
223  2.22  0.  0.
224  2.23  0.  0.
225  2.24  0.  0.
226  2.25  0.  0.
227  2.26  0.  0.
228  2.27  0.  0.
229  2.28  0.  0.
230  2.29  0.  0.
231  2.30  0.  0.
232  2.31  0.  0.
233  2.32  0.  0.
234  2.33  0.  0.
235  2.34  0.  0.
236  2.35  0.  0.
237  2.36  0.  0.
238  2.37  0.  0.
239  2.38  0.  0.
240  2.39  0.  0.
241  2.40  0.  0.
242  2.41  0.  0.
243  2.42  0.  0.
244  2.43  0.  0.
245  2.44  0.  0.
246  2.45  0.  0.
247  2.46  0.  0.
248  2.47  0.  0.
249  2.48  0.  0.
250  2.49  0.  0.
251  2.50  0.  0.
252  2.51  0.  0.
253  2.52  0.  0.
254  2.53  0.  0.
255  2.54  0.  0.
256  2.55  0.  0.
257  2.56  0.  0.
258  2.57  0.  0.
259  2.58  0.  0.
260  2.59  0.  0.
261  2.60  0.  0.
262  2.61  0.  0.
263  2.62  0.  0.
264  2.63  0.  0.
265  2.64  0.  0.
266  2.65  0.  0.
267  2.66  0.  0.
268  2.67  0.  0.
269  2.68  0.  0.
270  2.69  0.  0.
271  2.70  0.  0.
272  2.71  0.  0.
273  2.72  0.  0.
274  2.73  0.  0.
275  2.74  0.  0.
276  2.75  0.  0.
277  2.76  0.  0.
278  2.77  0.  0.
279  2.78  0.  0.
280  2.79  0.  0.
281  2.80  0.  0.
282  2.81  0.  0.
283  2.82  0.  0.
284  2.83  0.  0.
285  2.84  0.  0.
286  2.85  0.  0.
287  2.86  0.  0.
288  2.87  0.  0.
289  2.88  0.  0.
290  2.89  0.  0.
291  2.90  0.  0.
292  2.91  0.  0.
293  2.92  0.  0.
294  2.93  0.  0.
295  2.94  0.  0.
296  2.95  0.  0.
297  2.96  0.  0.
298  2.97  0.  0.
299  2.98  0.  0.
300  2.99  0.  0.
301  3.00  0.  0.
302  3.01  0.  0.
303  3.02  0.  0.
304  3.03  0.  0.
305  3.04  0.  0.
306  3.05  0.  0.
307  3.06  0.  0.
308  3.07  0.  0.
309  3.08  0.  0.
310  3.09  0.  0.
311  3.10  0.  0.
312  3.11  0.  0.
313  3.12  0.  0.
314  3.13  0.  0.
315  3.14  0.  0.
316  3.15  0.  0.
317  3.16  0.  0.
318  3.17  0.  0.
319  3.18  0.  0.
320  3.19  0.  0.
321  3.20  0.  0.
322  3.21  0.  0.
323  3.22  0.  0.
324  3.23  0.  0.
325  3.24  0.  0.
326  3.25  0.  0.
327  3.26  0.  0.
328  3.27  0.  0.
329  3.28  0.  0.
330  3.29  0.  0.
331  3.30  0.  0.
332  3.31  0.  0.
333  3.32  0.  0.
334  3.33  0.  0.
335  3.34  0.  0.
336  3.35  0.  0.
337  3.36  0.  0.
338  3.37  0.  0.
339  3.38  0.  0.
340  3.39  0.  0.
341  3.40  0.  0.
342  3.41  0.  0.
343  3.42  0.  0.
344  3.43  0.  0.
345  3.44  0.  0.
346  3.45  0.  0.
347  3.46  0.  0.
348  3.47  0.  0.
349  3.48  0.  0.
350  3.49  0.  0.
351  3.50  0.  0.
352  3.51  0.  0.
353  3.52  0.  0.
354  3.53  0.  0.
355  3.54  0.  0.
356  3.55  0.  0.
357  3.56  0.  0.
358  3.57  0.  0.
359  3.58  0.  0.
360  3.59  0.  0.
361  3.60  0.  0.
362  3.61  0.  0.
363  3.62  0.  0.
364  3.63  0.  0.
365  3.64  0.  0.
366  3.65  0.  0.
367  3.66  0.  0.
368  3.67  0.  0.
369  3.68  0.  0.
370  3.69  0.  0.
371  3.70  0.  0.
372  3.71  0.  0.
373  3.72  0.  0.
374  3.73  0.  0.
375  3.74  0.  0.
376  3.75  0.  0.
377  3.76  0.  0.
378  3.77  0.  0.
379  3.78  0.  0.
380  3.79  0.  0.
381  3.80  0.  0.
382  3.81  0.  0.
383  3.82  0.  0.
384  3.83  0.  0.
385  3.84  0.  0.
386  3.85  0.  0.
387  3.86  0.  0.
388  3.87  0.  0.
389  3.88  0.  0.
390  3.89  0.  0.
391  3.90  0.  0.
392  3.91  0.  0.
393  3.92  0.  0.
394  3.93  0.  0.
395  3.94  0.  0.
396  3.95  0.  0.
397  3.96  0.  0.
398  3.97  0.  0.
399  3.98  0.  0.
400  3.99  0.  0.
401  4.00  0.  0.
402  4.01  0.  0.
403  4.02  0.  0.
404  4.03  0.  0.
405  4.04  0.  0.
406  4.05  0.  0.
407  4.06  0.  0.
408  4.07  0.  0.
409  4.08  0.  0.
410  4.09  0.  0.
411  4.10  0.  0.
412  4.11  0.  0.
413  4.12  0.  0.
414  4.13  0.  0.
415  4.14  0.  0.
416  4.15  0.  0.
417  4.16  0.  0.
418  4.17  0.  0.
419  4.18  0.  0.
420  4.19  0.  0.
421  4.20  0.  0.
422  4.21  0.  0.
423  4.22  0.  0.
424  4.23  0.  0.
425  4.24  0.  0.
426  4.25  0.  0.
427  4.26  0.  0.
428  4.27  0.  0.
429  4.28  0.  0.
430  4.29  0.  0.
431  4.30  0.  0.
432  4.31  0.  0.
433  4.32  0.  0.
434  4.33  0.  0.
435  4.34  0.  0.
436  4.35  0.  0.
437  4.36  0.  0.
438  4.37  0.  0.
439  4.38  0.  0.
440  4.39  0.  0.
441  4.40  0.  0.
442  4.41  0.  0.
443  4.42  0.  0.
444  4.43  0.  0.
445  4.44  0.  0.
446  4.45  0.  0.
447  4.46  0.  0.
448  4.47  0.  0.
449  4.48  0.  0.
450  4.49  0.  0.
451  4.50  0.  0.
452  4.51  0.  0.
453  4.52  0.  0.
454  4.53  0.  0.
455  4.54  0.  0.
456  4.55  0.  0.
457  4.56  0.  0.
458  4.57  0.  0.
459  4.58  0.  0.
460  4.59  0.  0.
461  4.60  0.  0.
462  4.61  0.  0.
463  4.62  0.  0.
464  4.63  0.  0.
465  4.64  0.  0.
466  4.65  0.  0.
467  4.66  0.  0.
468  4.67  0.  0.
469  4.68  0.  0.
470  4.69  0.  0.
471  4.70  0.  0.
472  4.71  0.  0.
473  4.72  0.  0.
474  4.73  0.  0.
475  4.74  0.  0.
476  4.75  0.  0.
477  4.76  0.  0.
478  4.77  0.  0.
479  4.78  0.  0.
480  4.79  0.  0.
481  4.80  0.  0.
482  4.81  0.  0.
483  4.82  0.  0.
484  4.83  0.  0.
485  4.84  0.  0.
486  4.85  0.  0.
487  4.86  0.  0.
488  4.87  0.  0.
489  4.88  0.  0.
490  4.89  0.  0.
491  4.90  0.  0.
492  4.91  0.  0.
493  4.92  0.  0.
494  4.93  0.  0.
495  4.94  0.  0.
496  4.95  0.  0.
497  4.96  0.  0.
498  4.97  0.  0.
499  4.98  0.  0.
500  4.99  0.  0.
501  5.00  0.  0.
502  5.01  0.  0.
503  5.02  0.  0.
504  5.03  0.  0.
505  5.04  0.  0.
506  5.05  0.  0.
507  5.06  0.  0.
508  5.07  0.  0.
509  5.08  0.  0.
510  5.09  0.  0.
511  5.10  0.  0.
512  5.11  0.  0.
513  5.12  0.  0.
514  5.13  0.  0.
515  5.14  0.  0.
516  5.15  0.  0.
517  5.16  0.  0.
518  5.17  0.  0.
519  5.18  0.  0.
520  5.19  0.  0.
521  5.20  0.  0.
522  5.21  0.  0.
523  5.22  0.  0.
524  5.23  0.  0.
525  5.24  0.  0.
526  5.25  0.  0.
527  5.26  0.  0.
528  5.27  0.  0.
529  5.28  0.  0.
530  5.29  0.  0.
531  5.30  0.  0.
532  5.31  0.  0.
533  5.32  0.  0.
534  5.33  0.  0.
535  5.34  0.  0.
536  5.35  0.  0.
537  5.36  0.  0.
538  5.37  0.  0.
539  5.38  0.  0.
540  5.39  0.  0.
541  5.40  0.  0.
542  5.41  0.  0.
543  5.42  0.  0.
544  5.43  0.  0.
545  5.44  0.  0.
546  5.45  0.  0.
547  5.46  0.  0.
548  5.47  0.  0.
549  5.48  0.  0.
550  5.49  0.  0.
551  5.50  0.  0.
552  5.51  0.  0.
553  5.52  0.  0.
554  5.53  0.  0.
555  5.54  0.  0.
556  5.55  0.  0.
557  5.56  0.  0.
558  5.57  0.  0.
559  5.58  0.  0.
560  5.59  0.  0.
561  5.60  0.  0.
562  5.61  0.  0.
563  5.62  0.  0.
564  5.63  0.  0.
565  5.64  0.  0.
566  5.65  0.  0.
567  5.66  0.  0.
568  5.67  0.  0.
569  5.68  0.  0.
570  5.69  0.  0.
571  5.70  0.  0.
572  5.71  0.  0.
573  5.72  0.  0.
574  5.73  0.  0.
575  5.74  0.  0.
576  5.75  0.  0.
577  5.76  0.  0.
578  5.77  0.  0.
579  5.78  0.  0.
580  5.79  0.  0.
581  5.80  0.  0.
582  5.81  0.  0.
583  5.82  0.  0.
584  5.83  0.  0.
585  5.84  0.  0.
586  5.85  0.  0.
587  5.86  0.  0.
588  5.87  0.  0.
589  5.88  0.  0.
590  5.89  0.  0.
591  5.90  0.  0.
592  5.91  0.  0.
593  5.92  0.  0.
594  5.93  0.  0.
595  5.94  0.  0.
596  5.95  0.  0.
597  5.96  0.  0.
598  5.97  0.  0.
599  5.98  0.  0.
600  5.99  0.  0.
1                         5.5996117582424E+00 -2.1785340305512E-01
1  0.0000000000000E+00 -7.6949828453632E-10 -7.5534290627788E-09
2  1.0000000000000E-02  1.5973351981213E-03  3.1194256218353E-04
3  2.0000000000000E-02  6.3839262474220E-03  1.2535539048609E-03
4  3.0000000000000E-02  1.4343528185528E-02  2.8419874681824E-03
5  4.0000000000000E-02  2.5449062122387E-02  5.1051783887820E-03
6  5.0000000000000E-02  3.9662610949280E-02  8.0808782521479E-03
7  6.0000000000000E-02  5.6935416568062E-02  1.1815334710943E-02
8  7.0000000000000E-02  7.7207881785413E-02  1.6361646170127E-02
9  8.0000000000000E-02  1.0040958078637E-01  2.1777829293156E-02
10  9.0000000000000E-02  1.2645928277754E-01  2.8124643860311E-02
11  1.0000000000000E-01  1.5526499395655E-01  3.5463225368265E-02
12  1.1000000000000E-01  1.8672402340552E-01  4.3852580577601E-02
13  1.2000000000000E-01  2.2072307881117E-01  5.3347004888460E-02
14  1.3000000000000E-01  2.5713839807213E-01  6.3993482875329E-02
15  1.4000000000000E-01  2.9583592286008E-01  7.5829134482988E-02
16  1.5000000000000E-01  3.3667152005112E-01  8.8878769248586E-02
17  1.6000000000000E-01  3.7949125663740E-01  1.0315260946281E-01
18  1.7000000000000E-01  4.2413173327041E-01  1.1864424044112E-01
19  1.8000000000000E-01  4.7042048098112E-01  1.3532884208873E-01
20  1.9000000000000E-01  5.1817642487944E-01  1.5316175078615E-01
21  2.0000000000000E-01  5.6721041776701E-01  1.7207739438933E-01
22  2.1000000000000E-01  6.1732584561894E-01  1.9198863595121E-01
23  2.2000000000000E-01  6.6831930581844E-01  2.1278655376452E-01
24  2.3000000000000E-01  7.1998135788354E-01  2.3434067665739E-01
25  2.4000000000000E-01  7.7209734522688E-01  2.5649968431053E-01
26  2.5000000000000E-01  8.2444828526225E-01  2.7909257288916E-01
27  2.6000000000000E-01  8.7681182393672E-01  3.0193027668097E-01
28  2.7000000000000E-01  9.2896324954961E-01  3.2480772689592E-01
29  2.8000000000000E-01  9.8067655954251E-01  3.4750631950469E-01
30  2.9000000000000E-01  1.0317255728317E+00  3.6979675515869E-01
31  3.0000000000000E-01  1.0818850792278E+00  3.9144220602657E-01
32  3.1000000000000E-01  1.1309320165679E+00  4.1220175696825E-01
33  3.2000000000000E-01  1.1786466653935E+00  4.3183406200484E-01
34  3.3000000000000E-01  1.2248138503584E+00  4.5010115166680E-01
35  3.4000000000000E-01  1.2692241370597E+00  4.6677232263367E-01
36  3.5000000000000E-01  1.3116750126660E+00  4.8162803820830E-01
37  3.6000000000000E-01  1.3519720385740E+00  4.9446376666996E-01
38  3.7000000000000E-01  1.3899299633685E+00  5.0509368446489E-01
39  3.8000000000000E-01  1.4253737845880E+00  5.1335417253899E-01
40  3.9000000000000E-01  1.4581397482165E+00  5.1910703688128E-01
41  4.0000000000000E-01  1.4880762754111E+00  5.2224238849178E-01
42  4.1000000000000E-01  1.5150448067458E+00  5.2268112344461E-01
43  4.2000000000000E-01  1.5389205551769E+00  5.2037695039508E-01
44  4.3000000000000E-01  1.5595931600109E+00  5.1531792065975E-01
45  4.4000000000000E-01  1.5769672353533E+00  5.0752742474081E-01
46  4.5000000000000E-01  1.5909628078342E+00  4.9706462871027E-01
47  4.6000000000000E-01  1.6015156397976E+00  4.8402433403766E-01
48  4.7000000000000E-01  1.6085774356079E+00  4.6853625504573E-01
49  4.8000000000000E-01  1.6121159302222E+00  4.5076371901037E-01
50  4.9000000000000E-01  1.6121148606903E+00  4.3090180477504E-01
51  5.0000000000000E-01  1.6085738227402E+00  4.0917494641633E-01
52  5.1000000000000E-01  1.6015080160640E+00  3.8583403876579E-01
53  5.2000000000000E-01  1.5909478833102E+00  3.6115309126171E-01
54  5.3000000000000E-01  1.5769386490870E+00  3.3542548547775E-01
55  5.4000000000000E-01  1.5595397664716E+00  3.0895989957468E-01
56  5.5000000000000E-01  1.5388242795709E+00  2.8207596968207E-01
57  5.6000000000000E-01  1.5148781115830E+00  2.5509976369848E-01
58  5.7000000000000E-01  1.4877992885395E+00  2.2835914707889E-01
59  5.8000000000000E-01  1.4576971094654E+00  2.0217912276823E-01
60  5.9000000000000E-01  1.4246912740536E+00  1.7687722847046E-01
61  6.0000000000000E-01  1.3889109791246E+00  1.5275907388198E-01
62  6.1000000000000E-01  1.3504939951117E+00  1.3011409835946E-01
63  6.2000000000000E-01  1.3095857335928E+00  1.0921162576304E-01
64  6.3000000000000E-01  1.2663383164793E+00  9.0297287972119E-02
65  6.4000000000000E-01  1.2209096568833E+00  7.3589881902942E-02
66  6.5000000000000E-01  1.1734625609285E+00  5.9278716876573E-02
67  6.6000000000000E-01  1.1241638588648E+00  4.7521500039939E-02
68  6.7000000000000E-01  1.0731835728091E+00  3.8442797395475E-02
69  6.8000000000000E-01  1.0206941272867E+00  3.2133097036327E-02
70  6.9000000000000E-01  9.6686960751709E-01  2.8648489619643E-02
71  7.0000000000000E-01  9.1188506909408E-01  2.8010969161224E-02
72  7.1000000000000E-01  8.5591590138227E-01  3.0209345129952E-02
73  7.2000000000000E-01  7.9913724562319E-01  3.5200744796953E-02
74  7.3000000000000E-01  7.4172346743091E-01  4.2912673087420E-02
75  7.4000000000000E-01  6.8384768209740E-01  5.3245586027405E-02
76  7.5000000000000E-01  6.2568132994171E-01  6.6075923497975E-02
77  7.6000000000000E-01  5.6739379785188E-01  8.1259537616323E-02
78  7.7000000000000E-01  5.0915208220676E-01  9.8635444854839E-02
79  7.8000000000000E-01  4.5112048754670E-01  1.1802982315896E-01
80  7.9000000000000E-01  3.9346035470617E-01  1.3926016998149E-01
81  8.0000000000000E-01  3.3632981164022E-01  1.6213953343885E-01
82  8.1000000000000E-01  2.7988353988350E-01  1.8648072680507E-01
83  8.2000000000000E-01  2.2427254947966E-01  2.1210043634939E-01
84  8.3000000000000E-01  1.6964395531577E-01  2.3882313412161E-01
85  8.4000000000000E-01  1.1614074808750E-01  2.6648471068134E-01
86  8.5000000000000E-01  6.3901553602636E-02  2.9493574791262E-01
87  8.6000000000000E-01  1.3060374792501E-02  3.2404435887738E-01
88  8.7000000000000E-01 -3.6253688369796E-02  3.5369853003410E-01
89  8.8000000000000E-01 -8.3916744865719E-02  3.8380791092724E-01
90  8.9000000000000E-01 -1.2981044725463E-01  4.1430500746869E-01
91  9.0000000000000E-01 -1.7382235642079E-01  4.4514574698331E-01
92  9.1000000000000E-01 -2.1584633664516E-01  4.7630939604497E-01
93  9.2000000000000E-01 -2.5578297985576E-01  5.0779782555452E-01
94  9.3000000000000E-01 -2.9354005654027E-01  5.3963413123794E-01
95  9.4000000000000E-01 -3.2903298944376E-01  5.7186063151376E-01
96  9.5000000000000E-01 -3.6218534485282E-01  6.0453627821435E-01
97  9.6000000000000E-01 -3.9292933501648E-01  6.3773352868026E-01
98  9.7000000000000E-01 -4.2120632410409E-01  6.7153474001432E-01
99  9.8000000000000E-01 -4.4696732907880E-01  7.0602815752619E-01
100  9.9000000000000E-01 -4.7017350599945E-01  7.4130357938740E-01
101  1.0000000000000E+00 -4.9079661157718E-01  7.7744778802514E-01
102  1.0100000000000E+00 -5.0881942932527E-01  8.1453984563673E-01
103  1.0200000000000E+00 -5.2423614937058E-01  8.5264635622375E-01
104  1.0300000000000E+00 -5.3705269095361E-01  8.9181679961449E-01
105  1.0400000000000E+00 -5.4728695683984E-01  9.3207904396800E-01
106  1.0500000000000E+00 -5.5496900930421E-01  9.7343514217221E-01
107  1.0600000000000E+00 -5.6014115802718E-01  1.0158575143660E+00
108  1.0700000000000E+00 -5.6285795115534E-01  1.0592856135340E+00
109  1.0800000000000E+00 -5.6318606191558E-01  1.1036231638310E+00
110  1.0900000000000E+00 -5.6120406451630E-01  1.1487360520950E+00
111  1.1000000000000E+00 -5.5700209460553E-01  1.1944509420162E+00
112  1.1100000000000E+00 -5.5068139124918E-01  1.2405546679092E+00
113  1.1200000000000E+00 -5.4235371923351E-01  1.2867944510625E+00
114  1.1300000000000E+00 -5.3214067242791E-01  1.3328789666430E+00
115  1.1400000000000E+00 -5.2017286096294E-01  1.3784802731632E+00
116  1.1500000000000E+00 -5.0658898701496E-01  1.4232366001080E+00
117  1.1600000000000E+00 -4.9153481604087E-01  1.4667559725053E+00
118  1.1700000000000E+00 -4.7516205229649E-01  1.5086206346094E+00
119  1.1800000000000E+00 -4.5762712940316E-01  1.5483922184624E+00
120  1.1900000000000E+00 -4.3908992851932E-01  1.5856175875313E+00
121  1.2000000000000E+00 -4.1971243832784E-01  1.6198352708998E+00
122  1.2100000000000E+00 -3.9965737250215E-01  1.6505823901598E+00
123  1.2200000000000E+00 -3.7908676155070E-01  1.6774019693098E+00
124  1.2300000000000E+00 -3.5816053692510E-01  1.6998505079337E+00
125  1.2400000000000E+00 -3.3703512598532E-01  1.7175056899481E+00
126  1.2500000000000E+00 -3.1586207683346E-01  1.7299740943698E+00
127  1.2600000000000E+00 -2.9478673213209E-01  1.7368987711015E+00
128  1.2700000000000E+00 -2.7394697081298E-01  1.7379665436932E+00
129  1.2800000000000E+00 -2.5347203604472E-01  1.7329149025132E+00
130  1.2900000000000E+00 -2.3348146697214E-01  1.7215383557499E+00
131  1.3000000000000E+00 -2.1408415057488E-01  1.7036941120963E+00
132  1.3100000000000E+00 -1.9537750851858E-01  1.6793069778564E+00
133  1.3200000000000E+00 -1.7744683212377E-01  1.6483733623388E+00
134  1.3300000000000E+00 -1.6036477657983E-01  1.6109642985698E+00
135  1.3400000000000E+00 -1.4419102328929E-01  1.5672274015548E+00
136  1.3500000000000E+00 -1.2897211681029E-01  1.5173877030256E+00
137  1.3600000000000E+00 -1.1474148028245E-01  1.4617473197745E+00
138  1.3700000000000E+00 -1.0151961053855E-01  1.4006839317849E+00
139  1.3800000000000E+00 -8.9314451329826E-02  1.3346480663850E+00
140  1.3900000000000E+00 -7.8121940319083E-02  1.2641592048536E+00
141  1.4000000000000E+00 -6.7926722727158E-02  1.1898007482792E+00
142  1.4100000000000E+00 -5.8703021836662E-02  1.1122138993699E+00
143  1.4200000000000E+00 -5.0415653971942E-02  1.0320905362732E+00
144  1.4300000000000E+00 -4.3021173167999E-02  9.5016517264047E-01
145  1.4400000000000E+00 -3.6469128532215E-02  8.6720611502841E-01
146  1.4500000000000E+00 -3.0703415337281E-02  7.8400594389221E-01
147  1.4600000000000E+00 -2.5663699201382E-02  7.0137145759386E-01
148  1.4700000000000E+00 -2.1286891337561E-02  6.2011322980747E-01
149  1.4800000000000E+00 -1.7508651817160E-02  5.4103493923416E-01
150  1.4900000000000E+00 -1.4264897117004E-02  4.6492263642676E-01
151  1.5000000000000E+00 -1.1493285752657E-02  3.9253412678290E-01
152  1.5100000000000E+00 -9.1346732466082E-03  3.2458856005902E-01
153  1.5200000000000E+00 -7.1344483632213E-03  2.6175673837708E-01
154  1.5300000000000E+00 -5.4481104592188E-03  2.0462962839718E-01
155  1.5400000000000E+00 -4.0423385786123E-03  1.5370798052562E-01
156  1.5500000000000E+00 -2.8772621042727E-03  1.0949286703906E-01
157  1.5600000000000E+00 -1.9230485121356E-03  7.2401975998462E-02
158  1.5700000000000E+00 -1.1608552019603E-03  4.2762044966012E-02
159  1.5800000000000E+00 -5.8358256982451E-04  2.0812274315894E-02
160  1.5900000000000E+00 -1.9324431233695E-04  6.6134302471555E-03
161  1.6000000000000E+00 -1.6491297744820E-05  5.3481702719510E-04
162  1.6100000000000E+00  3.2733077174773E-06 -1.0367029438105E-04
163  1.6200000000000E+00 -1.0147690252304E-06  3.3050801556327E-05
164  1.63  0. -0.
165  1.64 -0. -0.
166  1.65  0.  0.