Og    ONCVPSP-4.0.1  r_core=   1.40539   1.50098   1.55583   1.40539
118.0000     26.0000      220208    zatom,zion,pspd
8      11   3     4   600     0    pspcod,pspxc,lmax,lloc,mmax,r2well
5.99000000  5.00000000  0.00000000    rchrg fchrg qchrg
2     4     2     2    nproj
3     1           extension_switch
4     4     2    nprojso
0                         1.1418458859651E+01 -4.5088841287006E-01
1  0.0000000000000E+00  5.3228710328312E-10  1.6403772923335E-08
2  1.0000000000000E-02  7.7188624892103E-02  1.7807251596025E-02
3  2.0000000000000E-02  1.5421575396836E-01  3.5867732277831E-02
4  3.0000000000000E-02  2.3092000071380E-01  5.4426153501659E-02
5  4.0000000000000E-02  3.0714020319314E-01  7.3710389186709E-02
6  5.0000000000000E-02  3.8271555114500E-01  9.3923546921362E-02
7  6.0000000000000E-02  4.5748573045212E-01  1.1523661510718E-01
8  7.0000000000000E-02  5.3129109013831E-01  1.3778185824365E-01
9  8.0000000000000E-02  6.0397283651142E-01  1.6164711615286E-01
10  9.0000000000000E-02  6.7537325842637E-01  1.8687114310997E-01
11  1.0000000000000E-01  7.4533598689892E-01  2.1344010000767E-01
12  1.1000000000000E-01  8.1370629147355E-01  2.4128528733394E-01
13  1.2000000000000E-01  8.8033141485402E-01  2.7028217942646E-01
14  1.3000000000000E-01  9.4506094636305E-01  3.0025079177509E-01
15  1.4000000000000E-01  1.0077472338254E+00  3.3095738369433E-01
16  1.5000000000000E-01  1.0682458324880E+00  3.6211746911916E-01
17  1.6000000000000E-01  1.1264159886208E+00  3.9340007923054E-01
18  1.7000000000000E-01  1.1821211545042E+00  4.2443319272375E-01
19  1.8000000000000E-01  1.2352295306201E+00  4.5481022340141E-01
20  1.9000000000000E-01  1.2856146300454E+00  4.8409743097658E-01
21  2.0000000000000E-01  1.3331558593134E+00  5.1184210003249E-01
22  2.1000000000000E-01  1.3777391093760E+00  5.3758131446868E-01
23  2.2000000000000E-01  1.4192573497842E+00  5.6085114086239E-01
24  2.3000000000000E-01  1.4576112188099E+00  5.8119602430225E-01
25  2.4000000000000E-01  1.4927096019752E+00  5.9817819464030E-01
26  2.5000000000000E-01  1.5244701913359E+00  6.1138687989238E-01
27  2.6000000000000E-01  1.5528200178879E+00  6.2044712674249E-01
28  2.7000000000000E-01  1.5776959496333E+00  6.2502803571827E-01
29  2.8000000000000E-01  1.5990451481428E+00  6.2485023045552E-01
30  2.9000000000000E-01  1.6168254768922E+00  6.1969239631888E-01
31  3.0000000000000E-01  1.6310058552119E+00  6.0939674316287E-01
32  3.1000000000000E-01  1.6415665523628E+00  5.9387326979533E-01
33  3.2000000000000E-01  1.6484994170308E+00  5.7310273325598E-01
34  3.3000000000000E-01  1.6518080383919E+00  5.4713825380465E-01
35  3.4000000000000E-01  1.6515078358302E+00  5.1610551592452E-01
36  3.5000000000000E-01  1.6476260753689E+00  4.8020155605065E-01
37  3.6000000000000E-01  1.6402018118858E+00  4.3969215846882E-01
38  3.7000000000000E-01  1.6292857572012E+00  3.9490791122044E-01
39  3.8000000000000E-01  1.6149400751391E+00  3.4623900322454E-01
40  3.9000000000000E-01  1.5972381056402E+00  2.9412887153504E-01
41  4.0000000000000E-01  1.5762640209381E+00  2.3906683306705E-01
42  4.1000000000000E-01  1.5521124176756E+00  1.8157985767729E-01
43  4.2000000000000E-01  1.5248878496188E+00  1.2222365865162E-01
44  4.3000000000000E-01  1.4947043063129E+00  6.1573291991959E-02
45  4.4000000000000E-01  1.4616846435985E+00  2.1346704122178E-04
46  4.5000000000000E-01  1.4259599723608E+00 -6.1271222339978E-02
47  4.6000000000000E-01  1.3876690122146E+00 -1.2230593480292E-01
48  4.7000000000000E-01  1.3469574170210E+00 -1.8233487820477E-01
49  4.8000000000000E-01  1.3039770791981E+00 -2.4083006482422E-01
50  4.9000000000000E-01  1.2588854197156E+00 -2.9729933592715E-01
51  5.0000000000000E-01  1.2118446704692E+00 -3.5129348281655E-01
52  5.1000000000000E-01  1.1630211554110E+00 -4.0241231181536E-01
53  5.2000000000000E-01  1.1125845763837E+00 -4.5030952452407E-01
54  5.3000000000000E-01  1.0607073090800E+00 -4.9469631166563E-01
55  5.4000000000000E-01  1.0075637139348E+00 -5.3534358829202E-01
56  5.5000000000000E-01  9.5332946607658E-01 -5.7208282943983E-01
57  5.6000000000000E-01  8.9818090773449E-01 -6.0480549779644E-01
58  5.7000000000000E-01  8.4229442573071E-01 -6.3346108784692E-01
59  5.8000000000000E-01  7.8584585591310E-01 -6.5805384357604E-01
60  5.9000000000000E-01  7.2900991561084E-01 -6.7863823835490E-01
61  6.0000000000000E-01  6.7195966445228E-01 -6.9531333542006E-01
62  6.1000000000000E-01  6.1486599318380E-01 -7.0821617465806E-01
63  6.2000000000000E-01  5.5789713949041E-01 -7.1751435558971E-01
64  6.3000000000000E-01  5.0121822925893E-01 -7.2339800691958E-01
65  6.4000000000000E-01  4.4499084125609E-01 -7.2607134926473E-01
66  6.5000000000000E-01  3.8937259282939E-01 -7.2574406928010E-01
67  6.6000000000000E-01  3.3451674398644E-01 -7.2262273003173E-01
68  6.7000000000000E-01  2.8057181707542E-01 -7.1690244391601E-01
69  6.8000000000000E-01  2.2768122927865E-01 -7.0875903058109E-01
70  6.9000000000000E-01  1.7598293524290E-01 -6.9834187318885E-01
71  7.0000000000000E-01  1.2560907740118E-01 -6.8576767209711E-01
72  7.1000000000000E-01  7.6685641885594E-02 -6.7111527588958E-01
73  7.2000000000000E-01  2.9332118379830E-02 -6.5442174600676E-01
74  7.3000000000000E-01 -1.6338837198452E-02 -6.3567978349511E-01
75  7.4000000000000E-01 -6.0221737675510E-02 -6.1483661517706E-01
76  7.5000000000000E-01 -1.0221859706871E-01 -5.9179440249650E-01
77  7.6000000000000E-01 -1.4223925958846E-01 -5.6641220014858E-01
78  7.7000000000000E-01 -1.8020172353404E-01 -5.3850945414901E-01
79  7.8000000000000E-01 -2.1603245767489E-01 -5.0787099106337E-01
80  7.9000000000000E-01 -2.4966670698165E-01 -4.7425341255756E-01
81  8.0000000000000E-01 -2.8104878388597E-01 -4.3739277310630E-01
82  8.1000000000000E-01 -3.1013234062617E-01 -3.9701338445487E-01
83  8.2000000000000E-01 -3.3688061769772E-01 -3.5283755908066E-01
84  8.3000000000000E-01 -3.6126666299123E-01 -3.0459607721098E-01
85  8.4000000000000E-01 -3.8327351588399E-01 -2.5203913861420E-01
86  8.5000000000000E-01 -4.0289435036738E-01 -1.9494754200122E-01
87  8.6000000000000E-01 -4.2013257125416E-01 -1.3314382196238E-01
88  8.7000000000000E-01 -4.3500185762422E-01 -6.6503066315120E-02
89  8.8000000000000E-01 -4.4752614794039E-01  5.0368641744202E-03
90  8.9000000000000E-01 -4.5773956169853E-01  8.1465986370704E-02
91  9.0000000000000E-01 -4.6568625306551E-01  1.6269397667868E-01
92  9.1000000000000E-01 -4.7142019269944E-01  2.4854332752267E-01
93  9.2000000000000E-01 -4.7500487482770E-01  3.3874409796497E-01
94  9.3000000000000E-01 -4.7651294766735E-01  4.3293044889817E-01
95  9.4000000000000E-01 -4.7602576639147E-01  5.3063911917089E-01
96  9.5000000000000E-01 -4.7363286905527E-01  6.3130996064240E-01
97  9.6000000000000E-01 -4.6943137717242E-01  7.3428860827629E-01
98  9.7000000000000E-01 -4.6352532395341E-01  8.3883131679313E-01
99  9.8000000000000E-01 -4.5602491455321E-01  9.4411194906134E-01
100  9.9000000000000E-01 -4.4704572400053E-01  1.0492310542503E+00
101  1.0000000000000E+00 -4.3670783976464E-01  1.1532269268518E+00
102  1.0100000000000E+00 -4.2513495713110E-01  1.2550884919438E+00
103  1.0200000000000E+00 -4.1245343667571E-01  1.3537698186052E+00
104  1.0300000000000E+00 -3.9879133412044E-01  1.4482060231351E+00
105  1.0400000000000E+00 -3.8427741370103E-01  1.5373302875893E+00
106  1.0500000000000E+00 -3.6904015685172E-01  1.6200916879974E+00
107  1.0600000000000E+00 -3.5320677849632E-01  1.6954735012397E+00
108  1.0700000000000E+00 -3.3690226351476E-01  1.7625116405103E+00
109  1.0800000000000E+00 -3.2024843601341E-01  1.8203128571946E+00
110  1.0900000000000E+00 -3.0336307386243E-01  1.8680723421306E+00
111  1.1000000000000E+00 -2.8635908056687E-01  1.9050903619127E+00
112  1.1100000000000E+00 -2.6934372591609E-01  1.9307875761081E+00
113  1.1200000000000E+00 -2.5241796600680E-01  1.9447186990700E+00
114  1.1300000000000E+00 -2.3567585218105E-01  1.9465841949315E+00
115  1.1400000000000E+00 -2.1920403716052E-01  1.9362397263396E+00
116  1.1500000000000E+00 -2.0308138523257E-01  1.9137031154645E+00
117  1.1600000000000E+00 -1.8737869175026E-01  1.8791586197694E+00
118  1.1700000000000E+00 -1.7215851550467E-01  1.8329583733050E+00
119  1.1800000000000E+00 -1.5747512570852E-01  1.7756208969590E+00
120  1.1900000000000E+00 -1.4337456346610E-01  1.7078266360249E+00
121  1.2000000000000E+00 -1.2989481569237E-01  1.6304105406603E+00
122  1.2100000000000E+00 -1.1706609755119E-01  1.5443517622112E+00
123  1.2200000000000E+00 -1.0491123762514E-01  1.4507605954005E+00
124  1.2300000000000E+00 -9.3446158245905E-02  1.3508628517699E+00
125  1.2400000000000E+00 -8.2680441754644E-02  1.2459819019155E+00
126  1.2500000000000E+00 -7.2617971930827E-02  1.1375186727363E+00
127  1.2600000000000E+00 -6.3257638486102E-02  1.0269299291951E+00
128  1.2700000000000E+00 -5.4594091375514E-02  9.1570520759549E-01
129  1.2800000000000E+00 -4.6618530757866E-02  8.0534279826540E-01
130  1.2900000000000E+00 -3.9319517769229E-02  6.9732519879077E-01
131  1.3000000000000E+00 -3.2683790862354E-02  5.9309447439514E-01
132  1.3100000000000E+00 -2.6697071657103E-02  4.9402799769653E-01
133  1.3200000000000E+00 -2.1344853812823E-02  4.0141466017957E-01
134  1.3300000000000E+00 -1.6613111638483E-02  3.1643379248936E-01
135  1.3400000000000E+00 -1.2489554950215E-02  2.4011095934804E-01
136  1.3500000000000E+00 -8.9651253037801E-03  1.7324363726551E-01
137  1.3600000000000E+00 -6.0293449078951E-03  1.1661533710334E-01
138  1.3700000000000E+00 -3.6749312232255E-03  7.0838502317726E-02
139  1.3800000000000E+00 -1.8985608741132E-03  3.6318869995768E-02
140  1.3900000000000E+00 -6.9967207497954E-04  1.3227281294787E-02
141  1.4000000000000E+00 -9.4002817163154E-05  1.7480570189726E-03
142  1.4100000000000E+00  9.2180673489449E-06 -1.6950658748735E-04
143  1.4200000000000E+00 -2.1328044427278E-06  3.9505269727501E-05
144  1.43  0.  0.
145  1.44  0.  0.
146  1.45  0.  0.
147  1.46  0.  0.
148  1.47  0.  0.
149  1.48  0.  0.
150  1.49  0.  0.
151  1.50  0.  0.
152  1.51  0.  0.
153  1.52  0.  0.
154  1.53  0.  0.
155  1.54  0.  0.
156  1.55  0.  0.
157  1.56  0.  0.
158  1.57  0.  0.
159  1.58  0.  0.
160  1.59  0.  0.
161  1.60  0.  0.
162  1.61  0.  0.
163  1.62  0.  0.
164  1.63  0.  0.
165  1.64  0.  0.
166  1.65  0.  0.
167  1.66  0.  0.
168  1.67  0.  0.
169  1.68  0.  0.
170  1.69  0.  0.
171  1.70  0.  0.
172  1.71  0.  0.
173  1.72  0.  0.
174  1.73  0.  0.
175  1.74  0.  0.
176  1.75  0.  0.
177  1.76  0.  0.
178  1.77  0.  0.
179  1.78  0.  0.
180  1.79  0.  0.
181  1.80  0.  0.
182  1.81  0.  0.
183  1.82  0.  0.
184  1.83  0.  0.
185  1.84  0.  0.
186  1.85  0.  0.
187  1.86  0.  0.
188  1.87  0.  0.
189  1.88  0.  0.
190  1.89  0.  0.
191  1.90  0.  0.
192  1.91  0.  0.
193  1.92  0.  0.
194  1.93  0.  0.
195  1.94  0.  0.
196  1.95  0.  0.
197  1.96  0.  0.
198  1.97  0.  0.
199  1.98  0.  0.
200  1.99  0.  0.
201  2.00  0.  0.
202  2.01  0.  0.
203  2.02  0.  0.
204  2.03  0.  0.
205  2.04  0.  0.
206  2.05  0.  0.
207  2.06  0.  0.
208  2.07  0.  0.
209  2.08  0.  0.
210  2.09  0.  0.
211  2.10  0.  0.
212  2.11  0.  0.
213  2.12  0.  0.
214  2.13  0.  0.
215  2.14  0.  0.
216  2.15  0.  0.
217  2.16  0.  0.
218  2.17  0.  0.
219  2.18  0.  0.
220  2.19  0.  0.
221  2.20  0.  0.
222  2.21  0.  0.
223  2.22  0.  0.
224  2.23  0.  0.
225  2.24  0.  0.
226  2.25  0.  0.
227  2.26  0.  0.
228  2.27  0.  0.
229  2.28  0.  0.
230  2.29  0.  0.
231  2.30  0.  0.
232  2.31  0.  0.
233  2.32  0.  0.
234  2.33  0.  0.
235  2.34  0.  0.
236  2.35  0.  0.
237  2.36  0.  0.
238  2.37  0.  0.
239  2.38  0.  0.
240  2.39  0.  0.
241  2.40  0.  0.
242  2.41  0.  0.
243  2.42  0.  0.
244  2.43  0.  0.
245  2.44  0.  0.
246  2.45  0.  0.
247  2.46  0.  0.
248  2.47  0.  0.
249  2.48  0.  0.
250  2.49  0.  0.
251  2.50  0.  0.
252  2.51  0.  0.
253  2.52  0.  0.
254  2.53  0.  0.
255  2.54  0.  0.
256  2.55  0.  0.
257  2.56  0.  0.
258  2.57  0.  0.
259  2.58  0.  0.
260  2.59  0.  0.
261  2.60  0.  0.
262  2.61  0.  0.
263  2.62  0.  0.
264  2.63  0.  0.
265  2.64  0.  0.
266  2.65  0.  0.
267  2.66  0.  0.
268  2.67  0.  0.
269  2.68  0.  0.
270  2.69  0.  0.
271  2.70  0.  0.
272  2.71  0.  0.
273  2.72  0.  0.
274  2.73  0.  0.
275  2.74  0.  0.
276  2.75  0.  0.
277  2.76  0.  0.
278  2.77  0.  0.
279  2.78  0.  0.
280  2.79  0.  0.
281  2.80  0.  0.
282  2.81  0.  0.
283  2.82  0.  0.
284  2.83  0.  0.
285  2.84  0.  0.
286  2.85  0.  0.
287  2.86  0.  0.
288  2.87  0.  0.
289  2.88  0.  0.
290  2.89  0.  0.
291  2.90  0.  0.
292  2.91  0.  0.
293  2.92  0.  0.
294  2.93  0.  0.
295  2.94  0.  0.
296  2.95  0.  0.
297  2.96  0.  0.
298  2.97  0.  0.
299  2.98  0.  0.
300  2.99  0.  0.
301  3.00  0.  0.
302  3.01  0.  0.
303  3.02  0.  0.
304  3.03  0.  0.
305  3.04  0.  0.
306  3.05  0.  0.
307  3.06  0.  0.
308  3.07  0.  0.
309  3.08  0.  0.
310  3.09  0.  0.
311  3.10  0.  0.
312  3.11  0.  0.
313  3.12  0.  0.
314  3.13  0.  0.
315  3.14  0.  0.
316  3.15  0.  0.
317  3.16  0.  0.
318  3.17  0.  0.
319  3.18  0.  0.
320  3.19  0.  0.
321  3.20  0.  0.
322  3.21  0.  0.
323  3.22  0.  0.
324  3.23  0.  0.
325  3.24  0.  0.
326  3.25  0.  0.
327  3.26  0.  0.
328  3.27  0.  0.
329  3.28  0.  0.
330  3.29  0.  0.
331  3.30  0.  0.
332  3.31  0.  0.
333  3.32  0.  0.
334  3.33  0.  0.
335  3.34  0.  0.
336  3.35  0.  0.
337  3.36  0.  0.
338  3.37  0.  0.
339  3.38  0.  0.
340  3.39  0.  0.
341  3.40  0.  0.
342  3.41  0.  0.
343  3.42  0.  0.
344  3.43  0.  0.
345  3.44  0.  0.
346  3.45  0.  0.
347  3.46  0.  0.
348  3.47  0.  0.
349  3.48  0.  0.
350  3.49  0.  0.
351  3.50  0.  0.
352  3.51  0.  0.
353  3.52  0.  0.
354  3.53  0.  0.
355  3.54  0.  0.
356  3.55  0.  0.
357  3.56  0.  0.
358  3.57  0.  0.
359  3.58  0.  0.
360  3.59  0.  0.
361  3.60  0.  0.
362  3.61  0.  0.
363  3.62  0.  0.
364  3.63  0.  0.
365  3.64  0.  0.
366  3.65  0.  0.
367  3.66  0.  0.
368  3.67  0.  0.
369  3.68  0.  0.
370  3.69  0.  0.
371  3.70  0.  0.
372  3.71  0.  0.
373  3.72  0.  0.
374  3.73  0.  0.
375  3.74  0.  0.
376  3.75  0.  0.
377  3.76  0.  0.
378  3.77  0.  0.
379  3.78  0.  0.
380  3.79  0.  0.
381  3.80  0.  0.
382  3.81  0.  0.
383  3.82  0.  0.
384  3.83  0.  0.
385  3.84  0.  0.
386  3.85  0.  0.
387  3.86  0.  0.
388  3.87  0.  0.
389  3.88  0.  0.
390  3.89  0.  0.
391  3.90  0.  0.
392  3.91  0.  0.
393  3.92  0.  0.
394  3.93  0.  0.
395  3.94  0.  0.
396  3.95  0.  0.
397  3.96  0.  0.
398  3.97  0.  0.
399  3.98  0.  0.
400  3.99  0.  0.
401  4.00  0.  0.
402  4.01  0.  0.
403  4.02  0.  0.
404  4.03  0.  0.
405  4.04  0.  0.
406  4.05  0.  0.
407  4.06  0.  0.
408  4.07  0.  0.
409  4.08  0.  0.
410  4.09  0.  0.
411  4.10  0.  0.
412  4.11  0.  0.
413  4.12  0.  0.
414  4.13  0.  0.
415  4.14  0.  0.
416  4.15  0.  0.
417  4.16  0.  0.
418  4.17  0.  0.
419  4.18  0.  0.
420  4.19  0.  0.
421  4.20  0.  0.
422  4.21  0.  0.
423  4.22  0.  0.
424  4.23  0.  0.
425  4.24  0.  0.
426  4.25  0.  0.
427  4.26  0.  0.
428  4.27  0.  0.
429  4.28  0.  0.
430  4.29  0.  0.
431  4.30  0.  0.
432  4.31  0.  0.
433  4.32  0.  0.
434  4.33  0.  0.
435  4.34  0.  0.
436  4.35  0.  0.
437  4.36  0.  0.
438  4.37  0.  0.
439  4.38  0.  0.
440  4.39  0.  0.
441  4.40  0.  0.
442  4.41  0.  0.
443  4.42  0.  0.
444  4.43  0.  0.
445  4.44  0.  0.
446  4.45  0.  0.
447  4.46  0.  0.
448  4.47  0.  0.
449  4.48  0.  0.
450  4.49  0.  0.
451  4.50  0.  0.
452  4.51  0.  0.
453  4.52  0.  0.
454  4.53  0.  0.
455  4.54  0.  0.
456  4.55  0.  0.
457  4.56  0.  0.
458  4.57  0.  0.
459  4.58  0.  0.
460  4.59  0.  0.
461  4.60  0.  0.
462  4.61  0.  0.
463  4.62  0.  0.
464  4.63  0.  0.
465  4.64  0.  0.
466  4.65  0.  0.
467  4.66  0.  0.
468  4.67  0.  0.
469  4.68  0.  0.
470  4.69  0.  0.
471  4.70  0.  0.
472  4.71  0.  0.
473  4.72  0.  0.
474  4.73  0.  0.
475  4.74  0.  0.
476  4.75  0.  0.
477  4.76  0.  0.
478  4.77  0.  0.
479  4.78  0.  0.
480  4.79  0.  0.
481  4.80  0.  0.
482  4.81  0.  0.
483  4.82  0.  0.
484  4.83  0.  0.
485  4.84  0.  0.
486  4.85  0.  0.
487  4.86  0.  0.
488  4.87  0.  0.
489  4.88  0.  0.
490  4.89  0.  0.
491  4.90  0.  0.
492  4.91  0.  0.
493  4.92  0.  0.
494  4.93  0.  0.
495  4.94  0.  0.
496  4.95  0.  0.
497  4.96  0.  0.
498  4.97  0.  0.
499  4.98  0.  0.
500  4.99  0.  0.
501  5.00  0.  0.
502  5.01  0.  0.
503  5.02  0.  0.
504  5.03  0.  0.
505  5.04  0.  0.
506  5.05  0.  0.
507  5.06  0.  0.
508  5.07  0.  0.
509  5.08  0.  0.
510  5.09  0.  0.
511  5.10  0.  0.
512  5.11  0.  0.
513  5.12  0.  0.
514  5.13  0.  0.
515  5.14  0.  0.
516  5.15  0.  0.
517  5.16  0.  0.
518  5.17  0.  0.
519  5.18  0.  0.
520  5.19  0.  0.
521  5.20  0.  0.
522  5.21  0.  0.
523  5.22  0.  0.
524  5.23  0.  0.
525  5.24  0.  0.
526  5.25  0.  0.
527  5.26  0.  0.
528  5.27  0.  0.
529  5.28  0.  0.
530  5.29  0.  0.
531  5.30  0.  0.
532  5.31  0.  0.
533  5.32  0.  0.
534  5.33  0.  0.
535  5.34  0.  0.
536  5.35  0.  0.
537  5.36  0.  0.
538  5.37  0.  0.
539  5.38  0.  0.
540  5.39  0.  0.
541  5.40  0.  0.
542  5.41  0.  0.
543  5.42  0.  0.
544  5.43  0.  0.
545  5.44  0.  0.
546  5.45  0.  0.
547  5.46  0.  0.
548  5.47  0.  0.
549  5.48  0.  0.
550  5.49  0.  0.
551  5.50  0.  0.
552  5.51  0.  0.
553  5.52  0.  0.
554  5.53  0.  0.
555  5.54  0.  0.
556  5.55  0.  0.
557  5.56  0.  0.
558  5.57  0.  0.
559  5.58  0.  0.
560  5.59  0.  0.
561  5.60  0.  0.
562  5.61  0.  0.
563  5.62  0.  0.
564  5.63  0.  0.
565  5.64  0.  0.
566  5.65  0.  0.
567  5.66  0.  0.
568  5.67  0.  0.
569  5.68  0.  0.
570  5.69  0.  0.
571  5.70  0.  0.
572  5.71  0.  0.
573  5.72  0.  0.
574  5.73  0.  0.
575  5.74  0.  0.
576  5.75  0.  0.
577  5.76  0.  0.
578  5.77  0.  0.
579  5.78  0.  0.
580  5.79  0.  0.
581  5.80  0.  0.
582  5.81  0.  0.
583  5.82  0.  0.
584  5.83  0.  0.
585  5.84  0.  0.
586  5.85  0.  0.
587  5.86  0.  0.
588  5.87  0.  0.
589  5.88  0.  0.
590  5.89  0.  0.
591  5.90  0.  0.
592  5.91  0.  0.
593  5.92  0.  0.
594  5.93  0.  0.
595  5.94  0.  0.
596  5.95  0.  0.
597  5.96  0.  0.
598  5.97  0.  0.
599  5.98  0.  0.
600  5.99  0.  0.
1                         9.0627056761828E+00  1.1570958461622E+00 -5.7544517511164E-02  1.8538456177767E-02
1  0.0000000000000E+00 -3.2222245288649E-09  8.2299045842116E-09 -2.5902944308584E-08  2.5254155988641E-08
2  1.0000000000000E-02  1.5026405530000E-03 -4.9066266805323E-04 -3.4390958641804E-04  3.9311410393527E-03
3  2.0000000000000E-02  6.0078463328095E-03 -1.9654587724222E-03 -1.3522558834474E-03  1.5672711325249E-02
4  3.0000000000000E-02  1.3507404349558E-02 -4.4326250295696E-03 -2.9555458573888E-03  3.5069953579985E-02
5  4.0000000000000E-02  2.3987410410847E-02 -7.9052690469152E-03 -5.0401232231231E-03  6.1867594664203E-02
6  5.0000000000000E-02  3.7427952139823E-02 -1.2400456420076E-02 -7.4513618733705E-03  9.5713776628060E-02
7  6.0000000000000E-02  5.3802678701805E-02 -1.7937967204310E-02 -9.9980285063353E-03  1.3616545643604E-01
8  7.0000000000000E-02  7.3078270364767E-02 -2.4538755325996E-02 -1.2457709240509E-02  1.8269517321651E-01
9  8.0000000000000E-02  9.5213824241197E-02 -3.2223152729868E-02 -1.4583169102463E-02  2.3469905663303E-01
10  9.0000000000000E-02  1.2016017540101E-01 -4.1008867308506E-02 -1.6109490362998E-02  2.9150592734994E-01
11  1.0000000000000E-01  1.4785917494044E-01 -5.0908829760632E-02 -1.6761816305973E-02  3.5238732103430E-01
12  1.1000000000000E-01  1.7824294848235E-01 -6.1928949326560E-02 -1.6263511593770E-02  4.1656825130317E-01
13  1.2000000000000E-01  2.1123315992379E-01 -7.4065841735950E-02 -1.4344539303861E-02  4.8323851481310E-01
14  1.3000000000000E-01  2.4674030600166E-01 -8.7304594587347E-02 -1.0749848221839E-02  5.5156433354611E-01
15  1.4000000000000E-01  2.8466306739723E-01 -1.0161663570955E-01 -5.2475622492615E-03  6.2070012542677E-01
16  1.5000000000000E-01  3.2488774163548E-01 -1.1695776881290E-01  2.3632331204067E-03  6.8980019477887E-01
17  1.6000000000000E-01  3.6728778196385E-01 -1.3326643794268E-01  1.2245304436530E-02  7.5803013876950E-01
18  1.7000000000000E-01  4.1172346473396E-01 -1.5046227794949E-01  2.4516868732631E-02  8.2457777477888E-01
19  1.8000000000000E-01  4.5804170559405E-01 -1.6844500248006E-01  3.9246144629586E-02  8.8866340636890E-01
20  1.9000000000000E-01  5.0607604207273E-01 -1.8709367398644E-01  5.6447003119756E-02  9.4954926190986E-01
21  2.0000000000000E-01  5.5564679695419E-01 -2.0626639210087E-01  7.6075840666835E-02  1.0065479595972E+00
22  2.1000000000000E-01  6.0656143327737E-01 -2.2580042760505E-01  9.8029769856970E-02  1.0590298751024E+00
23  2.2000000000000E-01  6.5861510791382E-01 -2.4551281933547E-01  1.2214619302543E-01  1.1064293129580E+00
24  2.3000000000000E-01  7.1159142657440E-01 -2.6520144092906E-01  1.4820379271834E-01  1.1482494094169E+00
25  2.4000000000000E-01  7.6526339885239E-01 -2.8464653355859E-01  1.7592494023610E-01  1.1840657223660E+00
26  2.5000000000000E-01  8.1939458762393E-01 -3.0361268997697E-01  2.0497949057392E-01  1.2135284922879E+00
27  2.6000000000000E-01  8.7374044288937E-01 -3.2185126452862E-01  2.3498989957093E-01  1.2363635866312E+00
28  2.7000000000000E-01  9.2804980604636E-01 -3.3910317353899E-01  2.6553756774066E-01  1.2523721676278E+00
29  2.8000000000000E-01  9.8206656672890E-01 -3.5510204089662E-01  2.9617028580276E-01  1.2614291499886E+00
30  2.9000000000000E-01  1.0355314508127E+00 -3.6957763492058E-01  3.2641063004996E-01  1.2634805394096E+00
31  3.0000000000000E-01  1.0881839150581E+00 -3.8225953496663E-01  3.5576513199729E-01  1.2585397649075E+00
32  3.1000000000000E-01  1.1397641212105E+00 -3.9288095985302E-01  3.8373402683533E-01  1.2466831371685E+00
33  3.2000000000000E-01  1.1900149602638E+00 -4.0118268524022E-01  4.0982136953151E-01  1.2280445809242E+00
34  3.3000000000000E-01  1.2386840960741E+00 -4.0691697370583E-01  4.3354529638735E-01  1.2028098015096E+00
35  3.4000000000000E-01  1.2855259966168E+00 -4.0985143951165E-01  4.5444820375738E-01  1.1712100539420E+00
36  3.5000000000000E-01  1.3303039209487E+00 -4.0977277002363E-01  4.7210661465592E-01  1.1335156869108E+00
37  3.6000000000000E-01  1.3727918303630E+00 -4.0649022743770E-01  4.8614050819059E-01  1.0900296339043E+00
38  3.7000000000000E-01  1.4127761933246E+00 -3.9983885787021E-01  4.9622189612755E-01  1.0410810193298E+00
39  3.8000000000000E-01  1.4500576555097E+00 -3.8968233993351E-01  5.0208244525213E-01  9.8701903902190E-01
40  3.9000000000000E-01  1.4844525486264E+00 -3.7591541154422E-01  5.0351996326931E-01  9.2820726218368E-01
41  4.0000000000000E-01  1.5157942146138E+00 -3.5846582177331E-01  5.0040358941136E-01  8.6501848585944E-01
42  4.1000000000000E-01  1.5439341252418E+00 -3.3729576388234E-01  4.9267755820302E-01  7.9783025388815E-01
43  4.2000000000000E-01  1.5687427809971E+00 -3.1240275610529E-01  4.8036343540526E-01  7.2702113037646E-01
44  4.3000000000000E-01  1.5901103773624E+00 -2.8381994801159E-01  4.6356075836307E-01  6.5296779360182E-01
45  4.4000000000000E-01  1.6079472310749E+00 -2.5161584218267E-01  4.4244604810354E-01  5.7604299047930E-01
46  4.5000000000000E-01  1.6221839636111E+00 -2.1589343319245E-01  4.1727019679476E-01  4.9661436493775E-01
47  4.6000000000000E-01  1.6327714438620E+00 -1.7678877823492E-01  3.8835427078119E-01  4.1504414639776E-01
48  4.7000000000000E-01  1.6396804966546E+00 -1.3446902591200E-01  3.5608380553432E-01  3.3168965770603E-01
49  4.8000000000000E-01  1.6429013883214E+00 -8.9129941411372E-02  3.2090170367760E-01  2.4690457601939E-01
50  4.9000000000000E-01  1.6424431048346E+00 -4.0992977297011E-02  2.8329987996060E-01  1.6104085591386E-01
51  5.0000000000000E-01  1.6383324419875E+00  9.6980508474169E-03  2.4380982690667E-01  7.4451202031809E-02
52  5.1000000000000E-01  1.6306129306574E+00  6.2680615877519E-02  2.0299230112787E-01 -1.2508040539086E-02
53  5.2000000000000E-01  1.6193436232159E+00  1.1767738222420E-01  1.6142635235836E-01 -9.9473725721367E-02
54  5.3000000000000E-01  1.6045977696110E+00  1.7440027950782E-01  1.1969793454737E-01 -1.8607263525834E-01
55  5.4000000000000E-01  1.5864614134629E+00  2.3255466141359E-01  7.8388350425879E-02 -2.7191826418751E-01
56  5.5000000000000E-01  1.5650319396447E+00  2.9184346246147E-01  3.8062787477841E-02 -3.5660783362982E-01
57  5.6000000000000E-01  1.5404166052439E+00  3.5197126509281E-01 -7.4079601363160E-04 -4.3971970029112E-01
58  5.7000000000000E-01  1.5127310854861E+00  4.1264819125261E-01 -3.7522181304063E-02 -5.2081132614578E-01
59  5.8000000000000E-01  1.4820980651699E+00  4.7359353635690E-01 -7.1828553328008E-02 -5.9941796122582E-01
60  5.9000000000000E-01  1.4486459044175E+00  5.3453906913847E-01 -1.0326309268299E-01 -6.7505217743690E-01
61  6.0000000000000E-01  1.4125074051295E+00  5.9523192826006E-01 -1.3149229148191E-01 -7.4720437212656E-01
62  6.1000000000000E-01  1.3738187014930E+00  6.5543705562804E-01 -1.5625181602074E-01 -8.1534433711791E-01
63  6.2000000000000E-01  1.3327182942981E+00  7.1493911684765E-01 -1.7735077052894E-01 -8.7892396256471E-01
64  6.3000000000000E-01  1.2893462447404E+00  7.7354387101468E-01 -1.9467425134023E-01 -9.3738111584335E-01
65  6.4000000000000E-01  1.2438435389281E+00  8.3107896478828E-01 -2.0818411890062E-01 -9.9014470440944E-01
66  6.5000000000000E-01  1.1963516295595E+00  8.8739413915881E-01 -2.1791795530060E-01 -1.0366408988220E+00
67  6.6000000000000E-01  1.1470121563097E+00  9.4236085121668E-01 -2.2398621659731E-01 -1.0763004587253E+00
68  6.7000000000000E-01  1.0959668414722E+00  9.9587132723359E-01 -2.2656763115940E-01 -1.1085670712683E+00
69  6.8000000000000E-01  1.0433575524568E+00  1.0478370771664E+00 -2.2590293667401E-01 -1.1329065790442E+00
70  6.9000000000000E-01  9.8932651797763E-01  1.0981869139708E+00 -2.2228708836018E-01 -1.1488169439395E+00
71  7.0000000000000E-01  9.3401668027399E-01  1.1468645335541E+00 -2.1606010840325E-01 -1.1558387650948E+00
72  7.1000000000000E-01  8.7757216161674E-01  1.1938257225039E+00 -2.0759678077929E-01 -1.1535661442265E+00
73  7.2000000000000E-01  8.2013881975915E-01  1.2390352706355E+00 -1.9729542564799E-01 -1.1416576705448E+00
74  7.3000000000000E-01  7.6186486398727E-01  1.2824636736384E+00 -1.8556601261669E-01 -1.1198472810384E+00
75  7.4000000000000E-01  7.0290150109467E-01  1.3240837174781E+00 -1.7281789176467E-01 -1.0879547405113E+00
76  7.5000000000000E-01  6.4340357901433E-01  1.3638670405244E+00 -1.5944743484020E-01 -1.0458954798816E+00
77  7.6000000000000E-01  5.8353019503718E-01  1.4017807715147E+00 -1.4582588609354E-01 -9.9368953119761E-01
78  7.7000000000000E-01  5.2344523556811E-01  1.4377843413204E+00 -1.3228772252462E-01 -9.3146930378308E-01
79  7.8000000000000E-01  4.6331781522784E-01  1.4718265640436E+00 -1.1911981678623E-01 -8.5948595794763E-01
80  7.9000000000000E-01  4.0332258480273E-01  1.5038430782250E+00 -1.0655168262253E-01 -7.7811415072087E-01
81  8.0000000000000E-01  3.4363988004826E-01  1.5337542319791E+00 -9.4747062730674E-02 -6.8785495186634E-01
82  8.1000000000000E-01  2.8445568662521E-01  1.5614634867916E+00 -8.3797092643552E-02 -5.8933675766455E-01
83  8.2000000000000E-01  2.2596140042972E-01  1.5868564036898E+00 -7.3715242132865E-02 -4.8331406414616E-01
84  8.3000000000000E-01  1.6835336719033E-01  1.6098002627429E+00 -6.4434198343483E-02 -3.7066399999313E-01
85  8.4000000000000E-01  1.1183219035546E-01  1.6301443526214E+00 -5.5804813144367E-02 -2.5238056152070E-01
86  8.5000000000000E-01  5.6601801872453E-02  1.6477209515356E+00 -4.7597191875110E-02 -1.2956653716211E-01
87  8.6000000000000E-01  2.8682963481122E-03  1.6623470046124E+00 -3.9503952735965E-02 -3.4231558405985E-03
88  8.7000000000000E-01 -4.9161464851636E-02  1.6738264860013E+00 -3.1145636542128E-02  1.2476245845834E-01
89  8.8000000000000E-01 -9.9281466892269E-02  1.6819534171023E+00 -2.2078196515936E-02  2.5363189569357E-01
90  8.9000000000000E-01 -1.4728835346304E-01  1.6865154956488E+00 -1.1802448339854E-02  3.8177195528401E-01
91  9.0000000000000E-01 -1.9298341300033E-01  1.6872982743438E+00  2.2468705456001E-04  5.0773280630806E-01
92  9.1000000000000E-01 -2.3617470926148E-01  1.6840898127099E+00  1.4577360430781E-02  6.3004754890475E-01
93  9.2000000000000E-01 -2.7667932146397E-01  1.6766857121274E+00  3.1846644487890E-02  7.4725287581601E-01
94  9.3000000000000E-01 -3.1432565492907E-01  1.6648944320356E+00  5.2625347221090E-02  8.5791050041108E-01
95  9.4000000000000E-01 -3.4895577963356E-01  1.6485427752680E+00  7.7492108764526E-02  9.6062899073861E-01
96  9.5000000000000E-01 -3.8042775137653E-01  1.6274814227367E+00  1.0699512611293E-01  1.0540856288784E+00
97  9.6000000000000E-01 -4.0861786849057E-01  1.6015903924059E+00  1.4163586700601E-01  1.1370479017029E+00
98  9.7000000000000E-01 -4.3342281623133E-01  1.5707842948590E+00  1.8185314349909E-01  1.2083942235729E+00
99  9.8000000000000E-01 -4.5476165120766E-01  1.5350172578891E+00  2.2800791699364E-01  1.2671334937782E+00
100  9.9000000000000E-01 -4.7257757948760E-01  1.4942873954788E+00  2.8036919959202E-01  1.3124231018583E+00
101  1.0000000000000E+00 -4.8683948432788E-01  1.4486407022793E+00  3.3910140159753E-01  1.3435850122441E+00
102  1.0100000000000E+00 -4.9754316280612E-01  1.3981742631854E+00  4.0425345195821E-01  1.3601195858125E+00
103  1.0200000000000E+00 -5.0471223493385E-01  1.3430386787040E+00  4.7574998783969E-01  1.3617168295441E+00
104  1.0300000000000E+00 -5.0839869402302E-01  1.2834396203348E+00  5.5338487185865E-01  1.3482648059953E+00
105  1.0400000000000E+00 -5.0868307308315E-01  1.2196384458891E+00  6.3681725147094E-01  1.3198549811050E+00
106  1.0500000000000E+00 -5.0567420873009E-01  1.1519518222815E+00  7.2557032544473E-01  1.2767843411182E+00
107  1.0600000000000E+00 -4.9950859134869E-01  1.0807503224443E+00  8.1903292834059E-01  1.2195541660794E+00
108  1.0700000000000E+00 -4.9034929795772E-01  1.0064559833542E+00  9.1646398634392E-01  1.1488654075810E+00
109  1.0800000000000E+00 -4.7838451218950E-01  9.2953883320372E-01  1.0169998380853E+00  1.0656106808437E+00