Uu    ONCVPSP-4.0.1  r_core=   1.50628   1.50628   1.50628
119.0000     27.0000      231012    zatom,zion,pspd
8 -116133   2     4   600     0    pspcod,pspxc,lmax,lloc,mmax,r2well
5.99000000  5.00000000  0.00000000    rchrg fchrg qchrg
3     2     2     0     0    nproj
1     1           extension_switch
0                         2.2756951513476E+01 -3.1660559355375E+00 -3.1432251283403E-01
1  0.0000000000000E+00 -1.8769361620485E-09 -9.6227051327169E-10  2.9550529023759E-08
2  1.0000000000000E-02  1.2927502919161E-01  1.6574323316612E-02 -1.2559355175647E-01
3  2.0000000000000E-02  2.5791455685294E-01  3.3134689581930E-02 -2.4956252345526E-01
4  3.0000000000000E-02  3.8528733344942E-01  4.9667737966973E-02 -3.7030553665866E-01
5  4.0000000000000E-02  5.1077057484264E-01  6.6161287543380E-02 -4.8626722177186E-01
6  5.0000000000000E-02  6.3375409899018E-01  8.2604896127923E-02 -5.9596024428046E-01
7  6.0000000000000E-02  7.5364434881096E-01  9.8990382506223E-02 -6.9798617886047E-01
8  7.0000000000000E-02  8.6986826551827E-01  1.1531230098927E-01 -7.9105488296419E-01
9  8.0000000000000E-02  9.8187697860017E-01  1.3156835821858E-01 -8.7400205103574E-01
10  9.0000000000000E-02  1.0891492809117E+00  1.4775976329880E-01 -9.4580466621456E-01
11  1.0000000000000E-01  1.1911948600000E+00  1.6389150367539E-01 -1.0055941074753E+00
12  1.1000000000000E-01  1.2875572597648E+00  1.7997254066041E-01 -1.0526667157279E+00
13  1.2000000000000E-01  1.3778165498146E+00  1.9601592010999E-01 -1.0864916714806E+00
14  1.3000000000000E-01  1.4615916833619E+00  2.1203879543802E-01 -1.1067160881944E+00
15  1.4000000000000E-01  1.5385425281456E+00  2.2806236187670E-01 -1.1131672783208E+00
16  1.5000000000000E-01  1.6083715586299E+00  2.4411170262885E-01 -1.1058522020965E+00
17  1.6000000000000E-01  1.6708252015324E+00  2.6021554926329E-01 -1.0849541613356E+00
18  1.7000000000000E-01  1.7256948305338E+00  2.7640596034743E-01 -1.0508268506329E+00
19  1.8000000000000E-01  1.7728174097563E+00  2.9271792385681E-01 -1.0039859255197E+00
20  1.9000000000000E-01  1.8120757892106E+00  3.0918889031841E-01 -9.4509829023857E-01
21  2.0000000000000E-01  1.8433986588592E+00  3.2585824490478E-01 -8.7496934606625E-01
22  2.1000000000000E-01  1.8667601711743E+00  3.4276672777539E-01 -7.9452847376526E-01
23  2.2000000000000E-01  1.8821792450441E+00  3.5995581283979E-01 -7.0481305016969E-01
24  2.3000000000000E-01  1.8897185665702E+00  3.7746705577828E-01 -6.0695131865460E-01
25  2.4000000000000E-01  1.8894833046676E+00  3.9534142259090E-01 -5.0214444597751E-01
26  2.5000000000000E-01  1.8816195614129E+00  4.1361861014715E-01 -3.9164810357710E-01
27  2.6000000000000E-01  1.8663125787677E+00  4.3233637017940E-01 -2.7675390988055E-01
28  2.7000000000000E-01  1.8437847246254E+00  4.5152984790568E-01 -1.5877106167349E-01
29  2.8000000000000E-01  1.8142932821008E+00  4.7123094599362E-01 -3.9008467472024E-02
30  2.9000000000000E-01  1.7781280665917E+00  4.9146772390114E-01  8.1242325437764E-02
31  3.0000000000000E-01  1.7356088954245E+00  5.1226384177078E-01  2.0072314543712E-01
32  3.1000000000000E-01  1.6870829348551E+00  5.3363805703487E-01  3.1822391927120E-01
33  3.2000000000000E-01  1.6329219488647E+00  5.5560378073598E-01  4.3259590540301E-01
34  3.3000000000000E-01  1.5735194735919E+00  5.7816869930794E-01  5.4276327915641E-01
35  3.4000000000000E-01  1.5092879404130E+00  6.0133446622892E-01  6.4773295162664E-01
36  3.5000000000000E-01  1.4406557696550E+00  6.2509646658063E-01  7.4660254635196E-01
37  3.6000000000000E-01  1.3680644557339E+00  6.4944365615783E-01  8.3856649989975E-01
38  3.7000000000000E-01  1.2919656631995E+00  6.7435847540244E-01  9.2292029384877E-01
39  3.8000000000000E-01  1.2128183517639E+00  6.9981683711566E-01  9.9906286522173E-01
40  3.9000000000000E-01  1.1310859469385E+00  7.2578818565876E-01  1.0664972793183E+00
41  4.0000000000000E-01  1.0472335714311E+00  7.5223562421340E-01  1.1248297823691E+00
42  4.1000000000000E-01  9.6172535099951E-01  7.7911610565884E-01  1.1737673807248E+00
43  4.2000000000000E-01  8.7502180703884E-01  8.0638068175492E-01  1.2131141178534E+00
44  4.3000000000000E-01  7.8757734682913E-01  8.3397480461085E-01  1.2427662397802E+00
45  4.4000000000000E-01  6.9983786110466E-01  8.6183867388213E-01  1.2627064534277E+00
46  4.5000000000000E-01  6.1223843743939E-01  8.8990762277653E-01  1.2729974904313E+00
47  4.6000000000000E-01  5.2520119688818E-01  9.1811253576793E-01  1.2737751913838E+00
48  4.7000000000000E-01  4.3913326038387E-01  9.4638029090956E-01  1.2652413221864E+00
49  4.8000000000000E-01  3.5442485056791E-01  9.7463421980022E-01  1.2476563255196E+00
50  4.9000000000000E-01  2.7144753402203E-01  1.0027945785759E+00  1.2213321967609E+00
51  5.0000000000000E-01  1.9055260826378E-01  1.0307790237598E+00  1.1866256554617E+00
52  5.1000000000000E-01  1.1206963735660E-01  1.0585030873900E+00  1.1439317613532E+00
53  5.2000000000000E-01  3.6305139551059E-02  1.0858806465291E+00  1.0936780984782E+00
54  5.3000000000000E-01 -3.6458569999308E-02  1.1128243830303E+00  1.0363196231893E+00
55  5.4000000000000E-01 -1.0596437873676E-01  1.1392462302526E+00  9.7233424223448E-01
56  5.5000000000000E-01 -1.7198121601410E-01  1.1650578042709E+00  9.0221915681807E-01
57  5.6000000000000E-01 -2.3430473013899E-01  1.1901708179770E+00  8.2648797819386E-01
58  5.7000000000000E-01 -2.9275780139612E-01  1.2144974772995E+00  7.4566859090442E-01
59  5.8000000000000E-01 -3.4719088967008E-01  1.2379508595539E+00  6.6030171198236E-01
60  5.9000000000000E-01 -3.9748221572616E-01  1.2604452746455E+00  5.7094006904712E-01
61  6.0000000000000E-01 -4.4353777571454E-01  1.2818966104724E+00  4.7814809793440E-01
62  6.1000000000000E-01 -4.8529118905909E-01  1.3022226643934E+00  3.8250204186831E-01
63  6.2000000000000E-01 -5.2270338058335E-01  1.3213434630159E+00  2.8459031971111E-01
64  6.3000000000000E-01 -5.5576209851958E-01  1.3391815728256E+00  1.8501402086785E-01
65  6.4000000000000E-01 -5.8448127094269E-01  1.3556624042999E+00  8.4387379237843E-02
66  6.5000000000000E-01 -6.0890020416614E-01  1.3707145121316E+00 -1.6661921715561E-02
67  6.6000000000000E-01 -6.2908262772563E-01  1.3842698940295E+00 -1.1749275614517E-01
68  6.7000000000000E-01 -6.4511559174536E-01  1.3962642902740E+00 -2.1745100935676E-01
69  6.8000000000000E-01 -6.5710822371732E-01  1.4066374857854E+00 -3.1587059807856E-01
70  6.9000000000000E-01 -6.6519035300638E-01  1.4153336159357E+00 -4.1207516006488E-01
71  7.0000000000000E-01 -6.6951101270142E-01  1.4223014767121E+00 -5.0538049428069E-01
72  7.1000000000000E-01 -6.7023682974010E-01  1.4274948391350E+00 -5.9509780858699E-01
73  7.2000000000000E-01 -6.6755031551644E-01  1.4308727670835E+00 -6.8053780520839E-01
74  7.3000000000000E-01 -6.6164807040659E-01  1.4323999368872E+00 -7.6101560603457E-01
75  7.4000000000000E-01 -6.5273891679101E-01  1.4320469562535E+00 -8.3585649079165E-01
76  7.5000000000000E-01 -6.4104197618260E-01  1.4297906793178E+00 -9.0440239206403E-01
77  7.6000000000000E-01 -6.2678470696117E-01  1.4256145138693E+00 -9.6601906288829E-01
78  7.7000000000000E-01 -6.1020091993950E-01  1.4195087161360E+00 -1.0201038059563E+00
79  7.8000000000000E-01 -5.9152878952112E-01  1.4114706679307E+00 -1.0660936290791E+00
80  7.9000000000000E-01 -5.7100887853449E-01  1.4015051304877E+00 -1.1034736701830E+00
81  8.0000000000000E-01 -5.4888219492402E-01  1.3896244689762E+00 -1.1317857173460E+00
82  8.1000000000000E-01 -5.2538829833394E-01  1.3758488414727E+00 -1.1506366357695E+00
83  8.2000000000000E-01 -5.0076347422686E-01  1.3602063461289E+00 -1.1597065045164E+00
84  8.3000000000000E-01 -4.7523899253190E-01  1.3427331203824E+00 -1.1587562616901E+00
85  8.4000000000000E-01 -4.4903946691947E-01  1.3234733863375E+00 -1.1476346576257E+00
86  8.5000000000000E-01 -4.2238132965748E-01  1.3024794368888E+00 -1.1262843217060E+00
87  8.6000000000000E-01 -3.9547143563009E-01  1.2798115577625E+00 -1.0947467595359E+00
88  8.7000000000000E-01 -3.6850580751167E-01  1.2555378814097E+00 -1.0531661132083E+00
89  8.8000000000000E-01 -3.4166853230770E-01  1.2297341695825E+00 -1.0017915379781E+00
90  8.9000000000000E-01 -3.1513081752813E-01  1.2024835224413E+00 -9.4097807338088E-01
91  9.0000000000000E-01 -2.8905021317642E-01  1.1738760131691E+00 -8.7118591517951E-01
92  9.1000000000000E-01 -2.6357000355445E-01  1.1440082482704E+00 -7.9297802584864E-01
93  9.2000000000000E-01 -2.3881877063503E-01  1.1129828549974E+00 -7.0701605492627E-01
94  9.3000000000000E-01 -2.1491012847865E-01  1.0809078986356E+00 -6.1405457569667E-01
95  9.4000000000000E-01 -1.9194262590874E-01  1.0478962336763E+00 -5.1493368053134E-01
96  9.5000000000000E-01 -1.6999981245007E-01  1.0140647941719E+00 -4.1057001294414E-01
97  9.6000000000000E-01 -1.4915046041638E-01  9.7953382978246E-01 -3.0194634921483E-01
98  9.7000000000000E-01 -1.2944893404412E-01  9.4442609515457E-01 -1.9009987544776E-01
99  9.8000000000000E-01 -1.1093569474512E-01  9.0886600129864E-01 -7.6109336406323E-02
100  9.9000000000000E-01 -9.3637929922248E-02  8.7297873852067E-01  3.8918740344475E-02
101  1.0000000000000E+00 -7.7570291390978E-02  8.3688938120564E-01  1.5386451820277E-01
102  1.0100000000000E+00 -6.2735728296564E-02  8.0072198531597E-01  2.6760977766882E-01
103  1.0200000000000E+00 -4.9126398533463E-02  7.6459868984989E-01  3.7905303554261E-01
104  1.0300000000000E+00 -3.6724642073034E-02  7.2863883368843E-01  4.8712458941840E-01
105  1.0400000000000E+00 -2.5503999296997E-02  6.9295809923976E-01  5.9080121683307E-01
106  1.0500000000000E+00 -1.5430257418759E-02  6.5766769406356E-01  6.8912026120301E-01
107  1.0600000000000E+00 -6.4625083513975E-03  6.2287358122740E-01  7.8119284514660E-01
108  1.0700000000000E+00  1.4457980624704E-03  5.8867576851967E-01  8.6621596571332E-01
109  1.0800000000000E+00  8.3458207177492E-03  5.5516766582741E-01  9.4348324525885E-01
110  1.0900000000000E+00  1.4292327998765E-02  5.2243551900006E-01  1.0123941357166E+00
111  1.1000000000000E+00  1.9342745509434E-02  4.9055792737816E-01  1.0724614024070E+00
112  1.1100000000000E+00  2.3556262185044E-02  4.5960545088926E-01  1.1233167457013E+00
113  1.1200000000000E+00  2.6993004542696E-02  4.2964031123259E-01  1.1647144540175E+00
114  1.1300000000000E+00  2.9713287045702E-02  4.0071619020325E-01  1.1965330193087E+00
115  1.1400000000000E+00  3.1776944698606E-02  3.7287812669177E-01  1.2187746851948E+00
116  1.1500000000000E+00  3.3242752064732E-02  3.4616251234240E-01  1.2315629379302E+00
117  1.1600000000000E+00  3.4167930977883E-02  3.2059718431779E-01  1.2351379900097E+00
118  1.1700000000000E+00  3.4607747307925E-02  2.9620161210121E-01  1.2298503452769E+00
119  1.1800000000000E+00  3.4615195305831E-02  2.7298717382330E-01  1.2161525714640E+00
120  1.1900000000000E+00  3.4240766303709E-02  2.5095751623206E-01  1.1945894409815E+00
121  1.2000000000000E+00  3.3532296931555E-02  2.3010899117424E-01  1.1657866324079E+00
122  1.2100000000000E+00  3.2534890550559E-02  2.1043116033237E-01  1.1304382131587E+00
123  1.2200000000000E+00  3.1290904318575E-02  1.9190735898679E-01  1.0892931476731E+00
124  1.2300000000000E+00  2.9839993223475E-02  1.7451530876417E-01  1.0431410946579E+00
125  1.2400000000000E+00  2.8219201542749E-02  1.5822776869324E-01  9.9279777140963E-01
126  1.2500000000000E+00  2.6463091538501E-02  1.4301321343302E-01  9.3909017260727E-01
127  1.2600000000000E+00  2.4603898766905E-02  1.2883652726216E-01  8.8284193534300E-01
128  1.2700000000000E+00  2.2671703171860E-02  1.1565970232177E-01  8.2485914158562E-01
129  1.2800000000000E+00  2.0694605138689E-02  1.0344252968210E-01  7.6591684391354E-01
130  1.2900000000000E+00  1.8698895888089E-02  9.2143272044610E-02  7.0674659059896E-01
131  1.3000000000000E+00  1.6709211981484E-02  8.1719307284230E-02  6.4802521227518E-01
132  1.3100000000000E+00  1.4748664260984E-02  7.2127732563034E-02  5.9036511510426E-01
133  1.3200000000000E+00  1.2838932237294E-02  6.3325919387648E-02  5.3430630510871E-01
134  1.3300000000000E+00  1.1000315744235E-02  5.5272010721433E-02  4.8031034566867E-01
135  1.3400000000000E+00  9.2517365640882E-03  4.7925352070252E-02  4.2875642597728E-01
136  1.3500000000000E+00  7.6106836640764E-03  4.1246849315220E-02  3.7993969314775E-01
137  1.3600000000000E+00  6.0930966495605E-03  3.5199246950531E-02  3.3407197517693E-01
138  1.3700000000000E+00  4.7131829916029E-03  2.9747321265439E-02  2.9128499709568E-01
139  1.3800000000000E+00  3.4831655058805E-03  2.4857983872049E-02  2.5163616880338E-01
140  1.3900000000000E+00  2.4129574146140E-03  2.0500291798799E-02  2.1511700104145E-01
141  1.4000000000000E+00  1.5097630958388E-03  1.6645361130898E-02  1.8166418608606E-01
142  1.4100000000000E+00  7.7760473096029E-04  1.3266183075619E-02  1.5117333982825E-01
143  1.4200000000000E+00  2.1675833423022E-04  1.0337325911358E-02  1.2351567514371E-01
144  1.4300000000000E+00 -1.7692141710580E-04  7.8345230770998E-03  9.8557747369850E-02
145  1.4400000000000E+00 -4.2435640696164E-04  5.7242374706847E-03  7.6369012585468E-02
146  1.4500000000000E+00 -5.4896801296386E-04  3.9752992976299E-03  5.7011883081799E-02
147  1.4600000000000E+00 -5.5821565876355E-04  2.5752115957638E-03  4.0255856271948E-02
148  1.4700000000000E+00 -4.7234522520217E-04  1.5063819050376E-03  2.6043745534354E-02
149  1.4800000000000E+00 -3.2347704702119E-04  7.4661822003629E-04  1.4496833317473E-02
150  1.4900000000000E+00 -1.5575410120389E-04  2.6765088000827E-04  5.9283248799236E-03
151  1.5000000000000E+00 -3.0391815722914E-05  3.9177688445730E-05  1.0113792489099E-03
152  1.5100000000000E+00  3.2688506818081E-06 -3.4886933021449E-06 -1.0083628090644E-04
153  1.5200000000000E+00 -9.1076283050871E-07  1.0722713258800E-06  2.9170918511552E-05
154  1.53  0. -0. -0.
155  1.54 -0. -0.  0.
156  1.55  0.  0.  0.
157  1.56  0.  0.  0.
158  1.57  0.  0.  0.
159  1.58  0.  0.  0.
160  1.59  0.  0.  0.
161  1.60  0.  0.  0.
162  1.61  0.  0.  0.
163  1.62  0.  0.  0.
164  1.63  0.  0.  0.
165  1.64  0.  0.  0.
166  1.65  0.  0.  0.
167  1.66  0.  0.  0.
168  1.67  0.  0.  0.
169  1.68  0.  0.  0.
170  1.69  0.  0.  0.
171  1.70  0.  0.  0.
172  1.71  0.  0.  0.
173  1.72  0.  0.  0.
174  1.73  0.  0.  0.
175  1.74  0.  0.  0.
176  1.75  0.  0.  0.
177  1.76  0.  0.  0.
178  1.77  0.  0.  0.
179  1.78  0.  0.  0.
180  1.79  0.  0.  0.
181  1.80  0.  0.  0.
182  1.81  0.  0.  0.
183  1.82  0.  0.  0.
184  1.83  0.  0.  0.
185  1.84  0.  0.  0.
186  1.85  0.  0.  0.
187  1.86  0.  0.  0.
188  1.87  0.  0.  0.
189  1.88  0.  0.  0.
190  1.89  0.  0.  0.
191  1.90  0.  0.  0.
192  1.91  0.  0.  0.
193  1.92  0.  0.  0.
194  1.93  0.  0.  0.
195  1.94  0.  0.  0.
196  1.95  0.  0.  0.
197  1.96  0.  0.  0.
198  1.97  0.  0.  0.
199  1.98  0.  0.  0.
200  1.99  0.  0.  0.
201  2.00  0.  0.  0.
202  2.01  0.  0.  0.
203  2.02  0.  0.  0.
204  2.03  0.  0.  0.
205  2.04  0.  0.  0.
206  2.05  0.  0.  0.
207  2.06  0.  0.  0.
208  2.07  0.  0.  0.
209  2.08  0.  0.  0.
210  2.09  0.  0.  0.
211  2.10  0.  0.  0.
212  2.11  0.  0.  0.
213  2.12  0.  0.  0.
214  2.13  0.  0.  0.
215  2.14  0.  0.  0.
216  2.15  0.  0.  0.
217  2.16  0.  0.  0.
218  2.17  0.  0.  0.
219  2.18  0.  0.  0.
220  2.19  0.  0.  0.
221  2.20  0.  0.  0.
222  2.21  0.  0.  0.
223  2.22  0.  0.  0.
224  2.23  0.  0.  0.
225  2.24  0.  0.  0.
226  2.25  0.  0.  0.
227  2.26  0.  0.  0.
228  2.27  0.  0.  0.
229  2.28  0.  0.  0.
230  2.29  0.  0.  0.
231  2.30  0.  0.  0.
232  2.31  0.  0.  0.
233  2.32  0.  0.  0.
234  2.33  0.  0.  0.
235  2.34  0.  0.  0.
236  2.35  0.  0.  0.
237  2.36  0.  0.  0.
238  2.37  0.  0.  0.
239  2.38  0.  0.  0.
240  2.39  0.  0.  0.
241  2.40  0.  0.  0.
242  2.41  0.  0.  0.
243  2.42  0.  0.  0.
244  2.43  0.  0.  0.
245  2.44  0.  0.  0.
246  2.45  0.  0.  0.
247  2.46  0.  0.  0.
248  2.47  0.  0.  0.
249  2.48  0.  0.  0.
250  2.49  0.  0.  0.
251  2.50  0.  0.  0.
252  2.51  0.  0.  0.
253  2.52  0.  0.  0.
254  2.53  0.  0.  0.
255  2.54  0.  0.  0.
256  2.55  0.  0.  0.
257  2.56  0.  0.  0.
258  2.57  0.  0.  0.
259  2.58  0.  0.  0.
260  2.59  0.  0.  0.
261  2.60  0.  0.  0.
262  2.61  0.  0.  0.
263  2.62  0.  0.  0.
264  2.63  0.  0.  0.
265  2.64  0.  0.  0.
266  2.65  0.  0.  0.
267  2.66  0.  0.  0.
268  2.67  0.  0.  0.
269  2.68  0.  0.  0.
270  2.69  0.  0.  0.
271  2.70  0.  0.  0.
272  2.71  0.  0.  0.
273  2.72  0.  0.  0.
274  2.73  0.  0.  0.
275  2.74  0.  0.  0.
276  2.75  0.  0.  0.
277  2.76  0.  0.  0.
278  2.77  0.  0.  0.
279  2.78  0.  0.  0.
280  2.79  0.  0.  0.
281  2.80  0.  0.  0.
282  2.81  0.  0.  0.
283  2.82  0.  0.  0.
284  2.83  0.  0.  0.
285  2.84  0.  0.  0.
286  2.85  0.  0.  0.
287  2.86  0.  0.  0.
288  2.87  0.  0.  0.
289  2.88  0.  0.  0.
290  2.89  0.  0.  0.
291  2.90  0.  0.  0.
292  2.91  0.  0.  0.
293  2.92  0.  0.  0.
294  2.93  0.  0.  0.
295  2.94  0.  0.  0.
296  2.95  0.  0.  0.
297  2.96  0.  0.  0.
298  2.97  0.  0.  0.
299  2.98  0.  0.  0.
300  2.99  0.  0.  0.
301  3.00  0.  0.  0.
302  3.01  0.  0.  0.
303  3.02  0.  0.  0.
304  3.03  0.  0.  0.
305  3.04  0.  0.  0.
306  3.05  0.  0.  0.
307  3.06  0.  0.  0.
308  3.07  0.  0.  0.
309  3.08  0.  0.  0.
310  3.09  0.  0.  0.
311  3.10  0.  0.  0.
312  3.11  0.  0.  0.
313  3.12  0.  0.  0.
314  3.13  0.  0.  0.
315  3.14  0.  0.  0.
316  3.15  0.  0.  0.
317  3.16  0.  0.  0.
318  3.17  0.  0.  0.
319  3.18  0.  0.  0.
320  3.19  0.  0.  0.
321  3.20  0.  0.  0.
322  3.21  0.  0.  0.
323  3.22  0.  0.  0.
324  3.23  0.  0.  0.
325  3.24  0.  0.  0.
326  3.25  0.  0.  0.
327  3.26  0.  0.  0.
328  3.27  0.  0.  0.
329  3.28  0.  0.  0.
330  3.29  0.  0.  0.
331  3.30  0.  0.  0.
332  3.31  0.  0.  0.
333  3.32  0.  0.  0.
334  3.33  0.  0.  0.
335  3.34  0.  0.  0.
336  3.35  0.  0.  0.
337  3.36  0.  0.  0.
338  3.37  0.  0.  0.
339  3.38  0.  0.  0.
340  3.39  0.  0.  0.
341  3.40  0.  0.  0.
342  3.41  0.  0.  0.
343  3.42  0.  0.  0.
344  3.43  0.  0.  0.
345  3.44  0.  0.  0.
346  3.45  0.  0.  0.
347  3.46  0.  0.  0.
348  3.47  0.  0.  0.
349  3.48  0.  0.  0.
350  3.49  0.  0.  0.
351  3.50  0.  0.  0.
352  3.51  0.  0.  0.
353  3.52  0.  0.  0.
354  3.53  0.  0.  0.
355  3.54  0.  0.  0.
356  3.55  0.  0.  0.
357  3.56  0.  0.  0.
358  3.57  0.  0.  0.
359  3.58  0.  0.  0.
360  3.59  0.  0.  0.
361  3.60  0.  0.  0.
362  3.61  0.  0.  0.
363  3.62  0.  0.  0.
364  3.63  0.  0.  0.
365  3.64  0.  0.  0.
366  3.65  0.  0.  0.
367  3.66  0.  0.  0.
368  3.67  0.  0.  0.
369  3.68  0.  0.  0.
370  3.69  0.  0.  0.
371  3.70  0.  0.  0.
372  3.71  0.  0.  0.
373  3.72  0.  0.  0.
374  3.73  0.  0.  0.
375  3.74  0.  0.  0.
376  3.75  0.  0.  0.
377  3.76  0.  0.  0.
378  3.77  0.  0.  0.
379  3.78  0.  0.  0.
380  3.79  0.  0.  0.
381  3.80  0.  0.  0.
382  3.81  0.  0.  0.
383  3.82  0.  0.  0.
384  3.83  0.  0.  0.
385  3.84  0.  0.  0.
386  3.85  0.  0.  0.
387  3.86  0.  0.  0.
388  3.87  0.  0.  0.
389  3.88  0.  0.  0.
390  3.89  0.  0.  0.
391  3.90  0.  0.  0.
392  3.91  0.  0.  0.
393  3.92  0.  0.  0.
394  3.93  0.  0.  0.
395  3.94  0.  0.  0.
396  3.95  0.  0.  0.
397  3.96  0.  0.  0.
398  3.97  0.  0.  0.
399  3.98  0.  0.  0.
400  3.99  0.  0.  0.
401  4.00  0.  0.  0.
402  4.01  0.  0.  0.
403  4.02  0.  0.  0.
404  4.03  0.  0.  0.
405  4.04  0.  0.  0.
406  4.05  0.  0.  0.
407  4.06  0.  0.  0.
408  4.07  0.  0.  0.
409  4.08  0.  0.  0.
410  4.09  0.  0.  0.
411  4.10  0.  0.  0.
412  4.11  0.  0.  0.
413  4.12  0.  0.  0.
414  4.13  0.  0.  0.
415  4.14  0.  0.  0.
416  4.15  0.  0.  0.
417  4.16  0.  0.  0.
418  4.17  0.  0.  0.
419  4.18  0.  0.  0.
420  4.19  0.  0.  0.
421  4.20  0.  0.  0.
422  4.21  0.  0.  0.
423  4.22  0.  0.  0.
424  4.23  0.  0.  0.
425  4.24  0.  0.  0.
426  4.25  0.  0.  0.
427  4.26  0.  0.  0.
428  4.27  0.  0.  0.
429  4.28  0.  0.  0.
430  4.29  0.  0.  0.
431  4.30  0.  0.  0.
432  4.31  0.  0.  0.
433  4.32  0.  0.  0.
434  4.33  0.  0.  0.
435  4.34  0.  0.  0.
436  4.35  0.  0.  0.
437  4.36  0.  0.  0.
438  4.37  0.  0.  0.
439  4.38  0.  0.  0.
440  4.39  0.  0.  0.
441  4.40  0.  0.  0.
442  4.41  0.  0.  0.
443  4.42  0.  0.  0.
444  4.43  0.  0.  0.
445  4.44  0.  0.  0.
446  4.45  0.  0.  0.
447  4.46  0.  0.  0.
448  4.47  0.  0.  0.
449  4.48  0.  0.  0.
450  4.49  0.  0.  0.
451  4.50  0.  0.  0.
452  4.51  0.  0.  0.
453  4.52  0.  0.  0.
454  4.53  0.  0.  0.
455  4.54  0.  0.  0.
456  4.55  0.  0.  0.
457  4.56  0.  0.  0.
458  4.57  0.  0.  0.
459  4.58  0.  0.  0.
460  4.59  0.  0.  0.
461  4.60  0.  0.  0.
462  4.61  0.  0.  0.
463  4.62  0.  0.  0.
464  4.63  0.  0.  0.
465  4.64  0.  0.  0.
466  4.65  0.  0.  0.
467  4.66  0.  0.  0.
468  4.67  0.  0.  0.
469  4.68  0.  0.  0.
470  4.69  0.  0.  0.
471  4.70  0.  0.  0.
472  4.71  0.  0.  0.
473  4.72  0.  0.  0.
474  4.73  0.  0.  0.
475  4.74  0.  0.  0.
476  4.75  0.  0.  0.
477  4.76  0.  0.  0.
478  4.77  0.  0.  0.
479  4.78  0.  0.  0.
480  4.79  0.  0.  0.
481  4.80  0.  0.  0.
482  4.81  0.  0.  0.
483  4.82  0.  0.  0.
484  4.83  0.  0.  0.
485  4.84  0.  0.  0.
486  4.85  0.  0.  0.
487  4.86  0.  0.  0.
488  4.87  0.  0.  0.
489  4.88  0.  0.  0.
490  4.89  0.  0.  0.
491  4.90  0.  0.  0.
492  4.91  0.  0.  0.
493  4.92  0.  0.  0.
494  4.93  0.  0.  0.
495  4.94  0.  0.  0.
496  4.95  0.  0.  0.
497  4.96  0.  0.  0.
498  4.97  0.  0.  0.
499  4.98  0.  0.  0.
500  4.99  0.  0.  0.
501  5.00  0.  0.  0.
502  5.01  0.  0.  0.
503  5.02  0.  0.  0.
504  5.03  0.  0.  0.
505  5.04  0.  0.  0.
506  5.05  0.  0.  0.
507  5.06  0.  0.  0.
508  5.07  0.  0.  0.
509  5.08  0.  0.  0.
510  5.09  0.  0.  0.
511  5.10  0.  0.  0.
512  5.11  0.  0.  0.
513  5.12  0.  0.  0.
514  5.13  0.  0.  0.
515  5.14  0.  0.  0.
516  5.15  0.  0.  0.
517  5.16  0.  0.  0.
518  5.17  0.  0.  0.
519  5.18  0.  0.  0.
520  5.19  0.  0.  0.
521  5.20  0.  0.  0.
522  5.21  0.  0.  0.
523  5.22  0.  0.  0.
524  5.23  0.  0.  0.
525  5.24  0.  0.  0.
526  5.25  0.  0.  0.
527  5.26  0.  0.  0.
528  5.27  0.  0.  0.
529  5.28  0.  0.  0.
530  5.29  0.  0.  0.
531  5.30  0.  0.  0.
532  5.31  0.  0.  0.
533  5.32  0.  0.  0.
534  5.33  0.  0.  0.
535  5.34  0.  0.  0.
536  5.35  0.  0.  0.
537  5.36  0.  0.  0.
538  5.37  0.  0.  0.
539  5.38  0.  0.  0.
540  5.39  0.  0.  0.
541  5.40  0.  0.  0.
542  5.41  0.  0.  0.
543  5.42  0.  0.  0.
544  5.43  0.  0.  0.
545  5.44  0.  0.  0.
546  5.45  0.  0.  0.
547  5.46  0.  0.  0.
548  5.47  0.  0.  0.
549  5.48  0.  0.  0.
550  5.49  0.  0.  0.
551  5.50  0.  0.  0.
552  5.51  0.  0.  0.
553  5.52  0.  0.  0.
554  5.53  0.  0.  0.
555  5.54  0.  0.  0.
556  5.55  0.  0.  0.
557  5.56  0.  0.  0.
558  5.57  0.  0.  0.
559  5.58  0.  0.  0.
560  5.59  0.  0.  0.
561  5.60  0.  0.  0.
562  5.61  0.  0.  0.
563  5.62  0.  0.  0.
564  5.63  0.  0.  0.
565  5.64  0.  0.  0.
566  5.65  0.  0.  0.
567  5.66  0.  0.  0.
568  5.67  0.  0.  0.
569  5.68  0.  0.  0.
570  5.69  0.  0.  0.
571  5.70  0.  0.  0.
572  5.71  0.  0.  0.
573  5.72  0.  0.  0.
574  5.73  0.  0.  0.
575  5.74  0.  0.  0.
576  5.75  0.  0.  0.
577  5.76  0.  0.  0.
578  5.77  0.  0.  0.
579  5.78  0.  0.  0.
580  5.79  0.  0.  0.
581  5.80  0.  0.  0.
582  5.81  0.  0.  0.
583  5.82  0.  0.  0.
584  5.83  0.  0.  0.
585  5.84  0.  0.  0.
586  5.85  0.  0.  0.
587  5.86  0.  0.  0.
588  5.87  0.  0.  0.
589  5.88  0.  0.  0.
590  5.89  0.  0.  0.
591  5.90  0.  0.  0.
592  5.91  0.  0.  0.
593  5.92  0.  0.  0.
594  5.93  0.  0.  0.
595  5.94  0.  0.  0.
596  5.95  0.  0.  0.
597  5.96  0.  0.  0.
598  5.97  0.  0.  0.
599  5.98  0.  0.  0.
600  5.99  0.  0.  0.
1                         1.0248152786746E+01 -1.0553843498965E+00
1  0.0000000000000E+00  1.4714398588467E-09 -7.0412947868193E-10
2  1.0000000000000E-02  2.9297781095620E-03  4.5115362952325E-06
3  2.0000000000000E-02  1.1699888482367E-02  1.9544502046425E-05
4  3.0000000000000E-02  2.6252785824326E-02  4.9575213678470E-05
5  4.0000000000000E-02  4.6492982482717E-02  1.0200212427161E-04
6  5.0000000000000E-02  7.2287677609090E-02  1.8705423946549E-04
7  6.0000000000000E-02  1.0346763280279E-01  3.1766591397576E-04
8  7.0000000000000E-02  1.3982828905577E-01  5.0932095006245E-04
9  8.0000000000000E-02  1.8113111834790E-01  7.7986962341854E-04
10  9.0000000000000E-02  2.2710520177908E-01  1.1493228727182E-03
11  1.0000000000000E-01  2.7744902467377E-01  1.6396283905327E-03
12  1.1000000000000E-01  3.3183247766024E-01  2.2744337315652E-03
13  1.2000000000000E-01  3.8989905131785E-01  3.0788417995961E-03
14  1.3000000000000E-01  4.5126821060778E-01  4.0791641791822E-03
15  1.4000000000000E-01  5.1553793396607E-01  5.3026777390771E-03
16  1.5000000000000E-01  5.8228740065242E-01  6.7773897508406E-03
17  1.6000000000000E-01  6.5107980872567E-01  8.5318164419846E-03
18  1.7000000000000E-01  7.2146530487079E-01  1.0594779445006E-02
19  1.8000000000000E-01  7.9298400624541E-01  1.2995224022167E-02
20  1.9000000000000E-01  8.6516909356175E-01  1.5762062254382E-02
21  2.0000000000000E-01  9.3754995378716E-01  1.8924043597280E-02
22  2.1000000000000E-01  1.0096553501479E+00  2.2509654347377E-02
23  2.2000000000000E-01  1.0810165965728E+00  2.6547046646965E-02
24  2.3000000000000E-01  1.1511707133271E+00  3.1063996710422E-02
25  2.4000000000000E-01  1.2196635403835E+00  3.6087891000552E-02
26  2.5000000000000E-01  1.2860527850551E+00  4.1645738145323E-02
27  2.6000000000000E-01  1.3499109806048E+00  4.7764203487064E-02
28  2.7000000000000E-01  1.4108283329338E+00  5.4469662321041E-02
29  2.8000000000000E-01  1.4684154330643E+00  6.1788267130772E-02
30  2.9000000000000E-01  1.5223058139597E+00  6.9746023483909E-02
31  3.0000000000000E-01  1.5721583312736E+00  7.8368868733507E-02
32  3.1000000000000E-01  1.6176593488901E+00  8.7682747290683E-02
33  3.2000000000000E-01  1.6585247115972E+00  9.7713676008892E-02
34  3.3000000000000E-01  1.6945014889210E+00  1.0848779315668E-01
35  3.4000000000000E-01  1.7253694760308E+00  1.2003138456055E-01
36  3.5000000000000E-01  1.7509424396766E+00  1.3237088077475E-01
37  3.6000000000000E-01  1.7710690993408E+00  1.4553281957808E-01
38  3.7000000000000E-01  1.7856338361337E+00  1.5954376870395E-01
39  3.8000000000000E-01  1.7945571244337E+00  1.7443020446903E-01
40  3.9000000000000E-01  1.7977956838195E+00  1.9021834286485E-01
41  4.0000000000000E-01  1.7953423514549E+00  2.0693392069895E-01
42  4.1000000000000E-01  1.7872256777209E+00  2.2460192549793E-01
43  4.2000000000000E-01  1.7735092505203E+00  2.4324627409192E-01
44  4.3000000000000E-01  1.7542907562723E+00  2.6288944106350E-01
45  4.4000000000000E-01  1.7297007881364E+00  2.8355203953788E-01
46  4.5000000000000E-01  1.6999014144203E+00  3.0525235808773E-01
47  4.6000000000000E-01  1.6650845224098E+00  3.2800585879711E-01
48  4.7000000000000E-01  1.6254699549734E+00  3.5182464274624E-01
49  4.8000000000000E-01  1.5813034592144E+00  3.7671689031527E-01
50  4.9000000000000E-01  1.5328544681437E+00  4.0268628473388E-01
51  5.0000000000000E-01  1.4804137378020E+00  4.2973142819994E-01
52  5.1000000000000E-01  1.4242908634526E+00  4.5784526063286E-01
53  5.2000000000000E-01  1.3648116993774E+00  4.8701449169485E-01
54  5.3000000000000E-01  1.3023157074288E+00  5.1721905709164E-01
55  5.4000000000000E-01  1.2371532598109E+00  5.4843161033863E-01
56  5.5000000000000E-01  1.1696829215807E+00  5.8061706114177E-01
57  5.6000000000000E-01  1.1002687380727E+00  6.1373217128973E-01
58  5.7000000000000E-01  1.0292775518722E+00  6.4772521848364E-01
59  5.8000000000000E-01  9.5707637309367E-01  6.8253573784944E-01
60  5.9000000000000E-01  8.8402982558095E-01  7.1809434999092E-01
61  6.0000000000000E-01  8.1049769025674E-01  7.5432268336433E-01
62  6.1000000000000E-01  7.3683256522542E-01  7.9113339750234E-01
63  6.2000000000000E-01  6.6337766040774E-01  8.2843031220766E-01
64  6.3000000000000E-01  5.9046474248426E-01  8.6610864629757E-01
65  6.4000000000000E-01  5.1841224377889E-01  9.0405536783719E-01
66  6.5000000000000E-01  4.4752354645731E-01  9.4214965607894E-01
67  6.6000000000000E-01  3.7808545108280E-01  9.8026347356069E-01
68  6.7000000000000E-01  3.1036683619903E-01  1.0182622450359E+00
69  6.8000000000000E-01  2.4461751323143E-01  1.0560056381488E+00
70  6.9000000000000E-01  1.8106727865151E-01  1.0933484390588E+00
71  7.0000000000000E-01  1.1992516306464E-01  1.1301415145920E+00
72  7.1000000000000E-01  6.1378874696191E-02  1.1662328509862E+00
73  7.2000000000000E-01  5.5944326906907E-03  1.2014686579243E+00
74  7.3000000000000E-01 -4.7284016265757E-02  1.2356945253495E+00
75  7.4000000000000E-01 -9.7134206216250E-02  1.2687566195467E+00
76  7.5000000000000E-01 -1.4385559484017E-01  1.3005029041722E+00
77  7.6000000000000E-01 -1.8736905205058E-01  1.3307843713457E+00
78  7.7000000000000E-01 -2.2761640641808E-01  1.3594562675826E+00
79  7.8000000000000E-01 -2.6455986240236E-01  1.3863792992595E+00
80  7.9000000000000E-01 -2.9818130197762E-01  1.4114208024679E+00
81  8.0000000000000E-01 -3.2848148460221E-01  1.4344558625209E+00
82  8.1000000000000E-01 -3.5547915961348E-01  1.4553683690279E+00
83  8.2000000000000E-01 -3.7921010503249E-01  1.4740519933333E+00
84  8.3000000000000E-01 -3.9972610645587E-01  1.4904110762099E+00
85  8.4000000000000E-01 -4.1709388920868E-01  1.5043614149883E+00
86  8.5000000000000E-01 -4.3139401625400E-01  1.5158309407668E+00
87  8.6000000000000E-01 -4.4271976352416E-01  1.5247602779557E+00
88  8.7000000000000E-01 -4.5117598338149E-01  1.5311031801373E+00
89  8.8000000000000E-01 -4.5687796585902E-01  1.5348268380374E+00
90  8.9000000000000E-01 -4.5995030620282E-01  1.5359120572717E+00
91  9.0000000000000E-01 -4.6052578606623E-01  1.5343533054210E+00
92  9.1000000000000E-01 -4.5874427452028E-01  1.5301586298651E+00
93  9.2000000000000E-01 -4.5475165387350E-01  1.5233494496377E+00
94  9.3000000000000E-01 -4.4869877416377E-01  1.5139602263148E+00
95  9.4000000000000E-01 -4.4074043912048E-01  1.5020380205970E+00
96  9.5000000000000E-01 -4.3103442542080E-01  1.4876419427490E+00