Uu    ONCVPSP-4.0.1  r_core=   1.50628   1.50628   1.50628
119.0000     27.0000      231012    zatom,zion,pspd
8 -116133   2     4   600     0    pspcod,pspxc,lmax,lloc,mmax,r2well
5.99000000  5.00000000  0.00000000    rchrg fchrg qchrg
3     3     3     0    nproj
3     1           extension_switch
3     4     0    nprojso
0                         2.3578011275399E+01 -3.0811551425545E+00 -3.3329112417352E-01
1  0.0000000000000E+00 -1.9078382207383E-09 -1.1007232902926E-09  3.1136133116227E-08
2  1.0000000000000E-02  1.2899058519388E-01  1.6406988961284E-02 -1.2752481889636E-01
3  2.0000000000000E-02  2.5734985784187E-01  3.2793719563679E-02 -2.5339064620425E-01
4  3.0000000000000E-02  3.8445073387046E-01  4.9140634250395E-02 -3.7596240210878E-01
5  4.0000000000000E-02  5.0967454745832E-01  6.5429562717543E-02 -4.9365241898420E-01
6  5.0000000000000E-02  6.3241516392908E-01  8.1644379953207E-02 -6.0494312732597E-01
7  6.0000000000000E-02  7.5208297855079E-01  9.7771622379720E-02 -7.0840854035579E-01
8  7.0000000000000E-02  8.6810876549630E-01  1.1380104946146E-01 -8.0273417443212E-01
9  8.0000000000000E-02  9.7994734312680E-01  1.2972613924121E-01 -8.8673507353531E-01
10  9.0000000000000E-02  1.0870810240829E+00  1.4554450759853E-01 -9.5937164371371E-01
11  1.0000000000000E-01  1.1890228213654E+00  1.6125824255429E-01 -1.0197630466486E+00
12  1.1000000000000E-01  1.2853193846148E+00  1.7687414664408E-01 -1.0671979494701E+00
13  1.2000000000000E-01  1.3755536441012E+00  1.9240388221211E-01 -1.1011424795943E+00
14  1.3000000000000E-01  1.4593471434680E+00  2.0786401639760E-01 -1.1212452875247E+00
15  1.4000000000000E-01  1.5363620459621E+00  2.2327596455697E-01 -1.1273396761019E+00
16  1.5000000000000E-01  1.6063028026855E+00  2.3866583284368E-01 -1.1194428103951E+00
17  1.6000000000000E-01  1.6689174752454E+00  2.5406416261440E-01 -1.0977520771289E+00
18  1.7000000000000E-01  1.7239987090105E+00  2.6950558120159E-01 -1.0626387150590E+00
19  1.8000000000000E-01  1.7713843569402E+00  2.8502836535218E-01 -1.0146388869590E+00
20  1.9000000000000E-01  1.8109577575801E+00  3.0067392524337E-01 -9.5444240885447E-01
21  2.0000000000000E-01  1.8426476742730E+00  3.1648621841626E-01 -8.8287939189574E-01
22  2.1000000000000E-01  1.8664279058582E+00  3.3251110419089E-01 -8.0090508606299E-01
23  2.2000000000000E-01  1.8823165820952E+00  3.4879565011667E-01 -7.0958324206319E-01
24  2.3000000000000E-01  1.8903751597066E+00  3.6538740275477E-01 -6.1006832784313E-01
25  2.4000000000000E-01  1.8907071372733E+00  3.8233363557097E-01 -5.0358694879709E-01
26  2.5000000000000E-01  1.8834565091948E+00  3.9968058693391E-01 -3.9141882582049E-01
27  2.6000000000000E-01  1.8688059805591E+00  4.1747270116421E-01 -2.7487768291030E-01
28  2.7000000000000E-01  1.8469749660196E+00  4.3575188527130E-01 -1.5529238620713E-01
29  2.8000000000000E-01  1.8182173966746E+00  4.5455679345936E-01 -3.3988659608375E-02
30  2.9000000000000E-01  1.7828193594797E+00  4.7392215069769E-01  8.7728321159910E-02
31  3.0000000000000E-01  1.7410965939221E+00  4.9387812565828E-01  2.0859018315007E-01
32  3.1000000000000E-01  1.6933918705598E+00  5.1444976214897E-01  3.2738022067354E-01
33  3.2000000000000E-01  1.6400722756142E+00  5.3565647684597E-01  4.4294666903567E-01
34  3.3000000000000E-01  1.5815264251216E+00  5.5751162968748E-01  5.5421422825960E-01
35  3.4000000000000E-01  1.5181616312391E+00  5.8002217176483E-01  6.6019372103541E-01
36  3.5000000000000E-01  1.4504010421998E+00  6.0318837397706E-01  7.5998981372165E-01
37  3.6000000000000E-01  1.3786807761518E+00  6.2700363813369E-01  8.5280677384628E-01
38  3.7000000000000E-01  1.3034470677482E+00  6.5145439063646E-01  9.3795228115005E-01
39  3.8000000000000E-01  1.2251534448982E+00  6.7652005737681E-01  1.0148393508136E+00
40  3.9000000000000E-01  1.1442579516082E+00  7.0217311708586E-01  1.0829864661349E+00
41  4.0000000000000E-01  1.0612204313413E+00  7.2837922909558E-01  1.1420160527738E+00
42  4.1000000000000E-01  9.7649988385771E-01  7.5509743033968E-01  1.1916514569926E+00
43  4.2000000000000E-01  8.9055190708952E-01  7.8228039546303E-01  1.2317126154801E+00
44  4.3000000000000E-01  8.0382623426615E-01  8.0987475313367E-01  1.2621106239017E+00
45  4.4000000000000E-01  7.1676437527841E-01  8.3782145107607E-01  1.2828414249065E+00
46  4.5000000000000E-01  6.2979737014707E-01  8.6605616197283E-01  1.2939788437879E+00
47  4.6000000000000E-01  5.4334366146708E-01  8.9450972221646E-01  1.2956672013165E+00
48  4.7000000000000E-01  4.5780709183005E-01  9.2310859553002E-01  1.2881137285586E+00
49  4.8000000000000E-01  3.7357503148597E-01  9.5177535370458E-01  1.2715809980649E+00
50  4.9000000000000E-01  2.9101664088517E-01  9.8042916711089E-01  1.2463795700528E+00
51  5.0000000000000E-01  2.1048127223287E-01  1.0089862982133E+00  1.2128610316839E+00
52  5.1000000000000E-01  1.3229701377736E-01  1.0373605920234E+00  1.1714115829081E+00
53  5.2000000000000E-01  5.6769380222372E-02  1.0654639582557E+00  1.1224462943404E+00
54  5.3000000000000E-01 -1.5819847615299E-02  1.0932068408613E+00  1.0664041321099E+00
55  5.4000000000000E-01 -8.5213631013287E-02  1.1204986715812E+00  1.0037438124413E+00
56  5.5000000000000E-01 -1.5118052674079E-01  1.1472483051650E+00  9.3494051579095E-01
57  5.6000000000000E-01 -2.1351538319168E-01  1.1733644348911E+00  8.6048345760200E-01
58  5.7000000000000E-01 -2.7203987705103E-01  1.1987559879905E+00  7.8087428104908E-01
59  5.8000000000000E-01 -3.2660288859489E-01  1.2233325014808E+00  6.9662620736740E-01
60  5.9000000000000E-01 -3.7708071409591E-01  1.2470044797330E+00  6.0826385232422E-01
61  6.0000000000000E-01 -4.2337711426749E-01  1.2696837358001E+00  5.1632359377288E-01
62  6.1000000000000E-01 -4.6542319824046E-01  1.2912837191195E+00  4.2135435569846E-01
63  6.2000000000000E-01 -5.0317714323742E-01  1.3117198326266E+00  3.2391865917022E-01
64  6.3000000000000E-01 -5.3662375089878E-01  1.3309097425999E+00  2.2459378060457E-01
65  6.4000000000000E-01 -5.6577384211896E-01  1.3487736846608E+00  1.2397285288734E-01
66  6.5000000000000E-01 -5.9066349327226E-01  1.3652347693018E+00  2.2665745391413E-02
67  6.6000000000000E-01 -6.1135311783298E-01  1.3802192900890E+00 -7.8700435345994E-02
68  6.7000000000000E-01 -6.2792639861526E-01  1.3936570373112E+00 -1.7948137167805E-01
69  6.8000000000000E-01 -6.4048907715499E-01  1.4054816193181E+00 -2.7901621940169E-01
70  6.9000000000000E-01 -6.4916760811077E-01  1.4156307931365E+00 -3.7662906259283E-01
71  7.0000000000000E-01 -6.5410768794798E-01  1.4240468051855E+00 -4.7163122671077E-01
72  7.1000000000000E-01 -6.5547266856364E-01  1.4306767420554E+00 -5.6332451101735E-01
73  7.2000000000000E-01 -6.5344186788073E-01  1.4354728903990E+00 -6.5100537196278E-01
74  7.3000000000000E-01 -6.4820879075811E-01  1.4383931040264E+00 -7.3397005820933E-01
75  7.4000000000000E-01 -6.3997927479690E-01  1.4394011753379E+00 -8.1152066613884E-01
76  7.5000000000000E-01 -6.2896957674263E-01  1.4384672072871E+00 -8.8297205299823E-01
77  7.6000000000000E-01 -6.1540441615695E-01  1.4355679811855E+00 -9.4765951404998E-01
78  7.7000000000000E-01 -5.9951499383405E-01  1.4306873148467E+00 -1.0049471011127E+00
79  7.8000000000000E-01 -5.8153700303974E-01  1.4238164048735E+00 -1.0542364334678E+00
80  7.9000000000000E-01 -5.6170865203202E-01  1.4149541463180E+00 -1.0949758290702E+00
81  8.0000000000000E-01 -5.4026871646511E-01  1.4041074225261E+00 -1.1266695648877E+00
82  8.1000000000000E-01 -5.1745464016630E-01  1.3912913577269E+00 -1.1488870607010E+00
83  8.2000000000000E-01 -4.9350070240122E-01  1.3765295248615E+00 -1.1612717711547E+00
84  8.3000000000000E-01 -4.6863626910228E-01  1.3598541012629E+00 -1.1635495666590E+00
85  8.4000000000000E-01 -4.4308414462944E-01  1.3413059651209E+00 -1.1555363850643E+00
86  8.5000000000000E-01 -4.1705903946926E-01  1.3209347261743E+00 -1.1371449429363E+00
87  8.6000000000000E-01 -3.9076616787090E-01  1.2987986847724E+00 -1.1083903076534E+00
88  8.7000000000000E-01 -3.6439998778370E-01  1.2749647143294E+00 -1.0693941492279E+00
89  8.8000000000000E-01 -3.3814309362459E-01  1.2495080632328E+00 -1.0203875133518E+00
90  8.9000000000000E-01 -3.1216527039229E-01  1.2225120734564E+00 -9.6171198421605E-01
91  9.0000000000000E-01 -2.8662271549198E-01  1.1940678144324E+00 -8.9381913656450E-01
92  9.1000000000000E-01 -2.6165743237396E-01  1.1642736321422E+00 -8.1726821052968E-01
93  9.2000000000000E-01 -2.3739679776199E-01  1.1332346148469E+00 -7.3272197927145E-01
94  9.3000000000000E-01 -2.1395330189195E-01  1.1010619783853E+00 -6.4094081750013E-01
95  9.4000000000000E-01 -1.9142445884023E-01  1.0678723754655E+00 -5.4277501769440E-01
96  9.5000000000000E-01 -1.6989288173665E-01  1.0337871348481E+00 -4.3915543935060E-01
97  9.6000000000000E-01 -1.4942651546944E-01  9.9893143772619E-01 -3.3108261399258E-01
98  9.7000000000000E-01 -1.3007901743926E-01  9.6343343991666E-01 -2.1961446407140E-01
99  9.8000000000000E-01 -1.1189027504356E-01  9.2742334965812E-01 -1.0585282642258E-01
100  9.9000000000000E-01 -9.4887046903687E-02  8.9103247184259E-01  9.0710001306215E-03
101  1.0000000000000E+00 -7.9083713417680E-02  8.5439223035401E-01  1.2401143886089E-01
102  1.0100000000000E+00 -6.4483121054348E-02  8.1763318083617E-01  2.3782428709996E-01
103  1.0200000000000E+00 -5.1077503920025E-02  7.8088402664435E-01  3.4938255805158E-01
104  1.0300000000000E+00 -3.8849465542791E-02  7.4427065093604E-01  4.5759222601773E-01
105  1.0400000000000E+00 -2.7773003537703E-02  7.0791517782229E-01  5.6140758622547E-01
106  1.0500000000000E+00 -1.7814559842534E-02  6.7193507522716E-01  6.5984594419770E-01
107  1.0600000000000E+00 -8.9340795439854E-03  6.3644231159310E-01  7.5200135948888E-01
108  1.0700000000000E+00 -1.0860619360269E-03  6.0154257783382E-01  8.3705718436004E-01
109  1.0800000000000E+00  5.7794116470443E-03  5.6733458498274E-01  9.1429715937827E-01
110  1.0900000000000E+00  1.1715687525537E-02  5.3390944683640E-01  9.8311485446386E-01
111  1.1000000000000E+00  1.6778599817336E-02  5.0135015556812E-01  1.0430212750415E+00
112  1.1100000000000E+00  2.1025592364880E-02  4.6973115681000E-01  1.0936504881106E+00
113  1.1200000000000E+00  2.4514912042618E-02  4.3911802910972E-01  1.1347631612536E+00
114  1.1300000000000E+00  2.7304881165755E-02  4.0956727097690E-01  1.1662479484158E+00
115  1.1400000000000E+00  2.9453254774322E-02  3.8112619699794E-01  1.1881206983194E+00
116  1.1500000000000E+00  3.1016666557438E-02  3.5383294272392E-01  1.2005215043977E+00
117  1.1600000000000E+00  3.2050165189274E-02  3.2771657628955E-01  1.2037096574642E+00
118  1.1700000000000E+00  3.2606840871088E-02  3.0279731300191E-01  1.1980566039220E+00
119  1.1800000000000E+00  3.2737539989930E-02  2.7908682751085E-01  1.1840370515057E+00
120  1.1900000000000E+00  3.2490664016752E-02  2.5658865664030E-01  1.1622184012373E+00
121  1.2000000000000E+00  3.1912047132653E-02  2.3529868456942E-01  1.1332487172308E+00
122  1.2100000000000E+00  3.1044905605939E-02  2.1520570081720E-01  1.0978434748601E+00
123  1.2200000000000E+00  2.9929850671637E-02  1.9629202042537E-01  1.0567713520357E+00
124  1.2300000000000E+00  2.8604955616107E-02  1.7853415487532E-01  1.0108393473570E+00
125  1.2400000000000E+00  2.7105866940475E-02  1.6190352161404E-01  9.6087752271677E-01
126  1.2500000000000E+00  2.5465948892305E-02  1.4636717962027E-01  9.0772367610083E-01
127  1.2600000000000E+00  2.3716450304753E-02  1.3188857820859E-01  8.5220825304807E-01
128  1.2700000000000E+00  2.1886682568648E-02  1.1842830624588E-01  7.9513980250449E-01
129  1.2800000000000E+00  2.0004197674788E-02  1.0594482913249E-01  7.3729127494982E-01
130  1.2900000000000E+00  1.8094955585178E-02  9.4395201266116E-02  6.7938744803478E-01
131  1.3000000000000E+00  1.6183470707012E-02  8.3735742245805E-02  6.2209374797308E-01
132  1.3100000000000E+00  1.4292927923868E-02  7.3922665762116E-02  5.6600671427562E-01
133  1.3200000000000E+00  1.2445259459046E-02  6.4912650935403E-02  5.1164633169821E-01
134  1.3300000000000E+00  1.0661174781231E-02  5.6663346786547E-02  4.5945042710262E-01
135  1.3400000000000E+00  8.9601367724903E-03  4.9133801517534E-02  4.0977130128549E-01
136  1.3500000000000E+00  7.3602784327314E-03  4.2284809317355E-02  3.6287473742064E-01
137  1.3600000000000E+00  5.8782554672879E-03  3.6079168470533E-02  3.1894149918888E-01
138  1.3700000000000E+00  4.5290311508503E-03  3.0481845591347E-02  2.7807140401221E-01
139  1.3800000000000E+00  3.3255908592900E-03  2.5460041818445E-02  2.4029003057831E-01
140  1.3900000000000E+00  2.2785845766411E-03  2.0983157751251E-02  2.0555809584091E-01
141  1.4000000000000E+00  1.3958964992477E-03  1.7022654776823E-02  1.7378351534662E-01
142  1.4100000000000E+00  6.8214303421266E-04  1.3551812533588E-02  1.4483611880055E-01
143  1.4200000000000E+00  1.3808292582448E-04  1.0545365177748E-02  1.1856528357151E-01
144  1.4300000000000E+00 -2.4007733377389E-04  7.9790189906240E-03  9.4820558765182E-02
145  1.4400000000000E+00 -4.7346062539452E-04  5.8179353506935E-03  7.3669336094284E-02
146  1.4500000000000E+00 -5.8584129772911E-04  4.0294869766572E-03  5.5177672402879E-02
147  1.4600000000000E+00 -5.8441954795703E-04  2.6012425843788E-03  3.9107999566313E-02
148  1.4700000000000E+00 -4.8938867422772E-04  1.5148469092281E-03  2.5405417070738E-02
149  1.4800000000000E+00 -3.3298984343814E-04  7.4655567677009E-04  1.4202452968047E-02
150  1.4900000000000E+00 -1.5964303030318E-04  2.6569234728938E-04  5.8330700094368E-03
151  1.5000000000000E+00 -3.1062834845018E-05  3.8515236626956E-05  9.9946080021423E-04
152  1.5100000000000E+00  3.3250786468442E-06 -3.4023280500100E-06 -9.9909867111252E-05
153  1.5200000000000E+00 -9.2819207842369E-07  1.0503559549769E-06  2.8862710350181E-05
154  1.53  0.  0.  0.
155  1.54  0.  0.  0.
156  1.55  0.  0.  0.
157  1.56  0.  0.  0.
158  1.57  0.  0.  0.
159  1.58  0.  0.  0.
160  1.59  0.  0.  0.
161  1.60  0.  0.  0.
162  1.61  0.  0.  0.
163  1.62  0.  0.  0.
164  1.63  0.  0.  0.
165  1.64  0.  0.  0.
166  1.65  0.  0.  0.
167  1.66  0.  0.  0.
168  1.67  0.  0.  0.
169  1.68  0.  0.  0.
170  1.69  0.  0.  0.
171  1.70  0.  0.  0.
172  1.71  0.  0.  0.
173  1.72  0.  0.  0.
174  1.73  0.  0.  0.
175  1.74  0.  0.  0.
176  1.75  0.  0.  0.
177  1.76  0.  0.  0.
178  1.77  0.  0.  0.
179  1.78  0.  0.  0.
180  1.79  0.  0.  0.
181  1.80  0.  0.  0.
182  1.81  0.  0.  0.
183  1.82  0.  0.  0.
184  1.83  0.  0.  0.
185  1.84  0.  0.  0.
186  1.85  0.  0.  0.
187  1.86  0.  0.  0.
188  1.87  0.  0.  0.
189  1.88  0.  0.  0.
190  1.89  0.  0.  0.
191  1.90  0.  0.  0.
192  1.91  0.  0.  0.
193  1.92  0.  0.  0.
194  1.93  0.  0.  0.
195  1.94  0.  0.  0.
196  1.95  0.  0.  0.
197  1.96  0.  0.  0.
198  1.97  0.  0.  0.
199  1.98  0.  0.  0.
200  1.99  0.  0.  0.
201  2.00  0.  0.  0.
202  2.01  0.  0.  0.
203  2.02  0.  0.  0.
204  2.03  0.  0.  0.
205  2.04  0.  0.  0.
206  2.05  0.  0.  0.
207  2.06  0.  0.  0.
208  2.07  0.  0.  0.
209  2.08  0.  0.  0.
210  2.09  0.  0.  0.
211  2.10  0.  0.  0.
212  2.11  0.  0.  0.
213  2.12  0.  0.  0.
214  2.13  0.  0.  0.
215  2.14  0.  0.  0.
216  2.15  0.  0.  0.
217  2.16  0.  0.  0.
218  2.17  0.  0.  0.
219  2.18  0.  0.  0.
220  2.19  0.  0.  0.
221  2.20  0.  0.  0.
222  2.21  0.  0.  0.
223  2.22  0.  0.  0.
224  2.23  0.  0.  0.
225  2.24  0.  0.  0.
226  2.25  0.  0.  0.
227  2.26  0.  0.  0.
228  2.27  0.  0.  0.
229  2.28  0.  0.  0.
230  2.29  0.  0.  0.
231  2.30  0.  0.  0.
232  2.31  0.  0.  0.
233  2.32  0.  0.  0.
234  2.33  0.  0.  0.
235  2.34  0.  0.  0.
236  2.35  0.  0.  0.
237  2.36  0.  0.  0.
238  2.37  0.  0.  0.
239  2.38  0.  0.  0.
240  2.39  0.  0.  0.
241  2.40  0.  0.  0.
242  2.41  0.  0.  0.
243  2.42  0.  0.  0.
244  2.43  0.  0.  0.
245  2.44  0.  0.  0.
246  2.45  0.  0.  0.
247  2.46  0.  0.  0.
248  2.47  0.  0.  0.
249  2.48  0.  0.  0.
250  2.49  0.  0.  0.
251  2.50  0.  0.  0.
252  2.51  0.  0.  0.
253  2.52  0.  0.  0.
254  2.53  0.  0.  0.
255  2.54  0.  0.  0.
256  2.55  0.  0.  0.
257  2.56  0.  0.  0.
258  2.57  0.  0.  0.
259  2.58  0.  0.  0.
260  2.59  0.  0.  0.
261  2.60  0.  0.  0.
262  2.61  0.  0.  0.
263  2.62  0.  0.  0.
264  2.63  0.  0.  0.
265  2.64  0.  0.  0.
266  2.65  0.  0.  0.
267  2.66  0.  0.  0.
268  2.67  0.  0.  0.
269  2.68  0.  0.  0.
270  2.69  0.  0.  0.
271  2.70  0.  0.  0.
272  2.71  0.  0.  0.
273  2.72  0.  0.  0.
274  2.73  0.  0.  0.
275  2.74  0.  0.  0.
276  2.75  0.  0.  0.
277  2.76  0.  0.  0.
278  2.77  0.  0.  0.
279  2.78  0.  0.  0.
280  2.79  0.  0.  0.
281  2.80  0.  0.  0.
282  2.81  0.  0.  0.
283  2.82  0.  0.  0.
284  2.83  0.  0.  0.
285  2.84  0.  0.  0.
286  2.85  0.  0.  0.
287  2.86  0.  0.  0.
288  2.87  0.  0.  0.
289  2.88  0.  0.  0.
290  2.89  0.  0.  0.
291  2.90  0.  0.  0.
292  2.91  0.  0.  0.
293  2.92  0.  0.  0.
294  2.93  0.  0.  0.
295  2.94  0.  0.  0.
296  2.95  0.  0.  0.
297  2.96  0.  0.  0.
298  2.97  0.  0.  0.
299  2.98  0.  0.  0.
300  2.99  0.  0.  0.
301  3.00  0.  0.  0.
302  3.01  0.  0.  0.
303  3.02  0.  0.  0.
304  3.03  0.  0.  0.
305  3.04  0.  0.  0.
306  3.05  0.  0.  0.
307  3.06  0.  0.  0.
308  3.07  0.  0.  0.
309  3.08  0.  0.  0.
310  3.09  0.  0.  0.
311  3.10  0.  0.  0.
312  3.11  0.  0.  0.
313  3.12  0.  0.  0.
314  3.13  0.  0.  0.
315  3.14  0.  0.  0.
316  3.15  0.  0.  0.
317  3.16  0.  0.  0.
318  3.17  0.  0.  0.
319  3.18  0.  0.  0.
320  3.19  0.  0.  0.
321  3.20  0.  0.  0.
322  3.21  0.  0.  0.
323  3.22  0.  0.  0.
324  3.23  0.  0.  0.
325  3.24  0.  0.  0.
326  3.25  0.  0.  0.
327  3.26  0.  0.  0.
328  3.27  0.  0.  0.
329  3.28  0.  0.  0.
330  3.29  0.  0.  0.
331  3.30  0.  0.  0.
332  3.31  0.  0.  0.
333  3.32  0.  0.  0.
334  3.33  0.  0.  0.
335  3.34  0.  0.  0.
336  3.35  0.  0.  0.
337  3.36  0.  0.  0.
338  3.37  0.  0.  0.
339  3.38  0.  0.  0.
340  3.39  0.  0.  0.
341  3.40  0.  0.  0.
342  3.41  0.  0.  0.
343  3.42  0.  0.  0.
344  3.43  0.  0.  0.
345  3.44  0.  0.  0.
346  3.45  0.  0.  0.
347  3.46  0.  0.  0.
348  3.47  0.  0.  0.
349  3.48  0.  0.  0.
350  3.49  0.  0.  0.
351  3.50  0.  0.  0.
352  3.51  0.  0.  0.
353  3.52  0.  0.  0.
354  3.53  0.  0.  0.
355  3.54  0.  0.  0.
356  3.55  0.  0.  0.
357  3.56  0.  0.  0.
358  3.57  0.  0.  0.
359  3.58  0.  0.  0.
360  3.59  0.  0.  0.
361  3.60  0.  0.  0.
362  3.61  0.  0.  0.
363  3.62  0.  0.  0.
364  3.63  0.  0.  0.
365  3.64  0.  0.  0.
366  3.65  0.  0.  0.
367  3.66  0.  0.  0.
368  3.67  0.  0.  0.
369  3.68  0.  0.  0.
370  3.69  0.  0.  0.
371  3.70  0.  0.  0.
372  3.71  0.  0.  0.
373  3.72  0.  0.  0.
374  3.73  0.  0.  0.
375  3.74  0.  0.  0.
376  3.75  0.  0.  0.
377  3.76  0.  0.  0.
378  3.77  0.  0.  0.
379  3.78  0.  0.  0.
380  3.79  0.  0.  0.
381  3.80  0.  0.  0.
382  3.81  0.  0.  0.
383  3.82  0.  0.  0.
384  3.83  0.  0.  0.
385  3.84  0.  0.  0.
386  3.85  0.  0.  0.
387  3.86  0.  0.  0.
388  3.87  0.  0.  0.
389  3.88  0.  0.  0.
390  3.89  0.  0.  0.
391  3.90  0.  0.  0.
392  3.91  0.  0.  0.
393  3.92  0.  0.  0.
394  3.93  0.  0.  0.
395  3.94  0.  0.  0.
396  3.95  0.  0.  0.
397  3.96  0.  0.  0.
398  3.97  0.  0.  0.
399  3.98  0.  0.  0.
400  3.99  0.  0.  0.
401  4.00  0.  0.  0.
402  4.01  0.  0.  0.
403  4.02  0.  0.  0.
404  4.03  0.  0.  0.
405  4.04  0.  0.  0.
406  4.05  0.  0.  0.
407  4.06  0.  0.  0.
408  4.07  0.  0.  0.
409  4.08  0.  0.  0.
410  4.09  0.  0.  0.
411  4.10  0.  0.  0.
412  4.11  0.  0.  0.
413  4.12  0.  0.  0.
414  4.13  0.  0.  0.
415  4.14  0.  0.  0.
416  4.15  0.  0.  0.
417  4.16  0.  0.  0.
418  4.17  0.  0.  0.
419  4.18  0.  0.  0.
420  4.19  0.  0.  0.
421  4.20  0.  0.  0.
422  4.21  0.  0.  0.
423  4.22  0.  0.  0.
424  4.23  0.  0.  0.
425  4.24  0.  0.  0.
426  4.25  0.  0.  0.
427  4.26  0.  0.  0.
428  4.27  0.  0.  0.
429  4.28  0.  0.  0.
430  4.29  0.  0.  0.
431  4.30  0.  0.  0.
432  4.31  0.  0.  0.
433  4.32  0.  0.  0.
434  4.33  0.  0.  0.
435  4.34  0.  0.  0.
436  4.35  0.  0.  0.
437  4.36  0.  0.  0.
438  4.37  0.  0.  0.
439  4.38  0.  0.  0.
440  4.39  0.  0.  0.
441  4.40  0.  0.  0.
442  4.41  0.  0.  0.
443  4.42  0.  0.  0.
444  4.43  0.  0.  0.
445  4.44  0.  0.  0.
446  4.45  0.  0.  0.
447  4.46  0.  0.  0.
448  4.47  0.  0.  0.
449  4.48  0.  0.  0.
450  4.49  0.  0.  0.
451  4.50  0.  0.  0.
452  4.51  0.  0.  0.
453  4.52  0.  0.  0.
454  4.53  0.  0.  0.
455  4.54  0.  0.  0.
456  4.55  0.  0.  0.
457  4.56  0.  0.  0.
458  4.57  0.  0.  0.
459  4.58  0.  0.  0.
460  4.59  0.  0.  0.
461  4.60  0.  0.  0.
462  4.61  0.  0.  0.
463  4.62  0.  0.  0.
464  4.63  0.  0.  0.
465  4.64  0.  0.  0.
466  4.65  0.  0.  0.
467  4.66  0.  0.  0.
468  4.67  0.  0.  0.
469  4.68  0.  0.  0.
470  4.69  0.  0.  0.
471  4.70  0.  0.  0.
472  4.71  0.  0.  0.
473  4.72  0.  0.  0.
474  4.73  0.  0.  0.
475  4.74  0.  0.  0.
476  4.75  0.  0.  0.
477  4.76  0.  0.  0.
478  4.77  0.  0.  0.
479  4.78  0.  0.  0.
480  4.79  0.  0.  0.
481  4.80  0.  0.  0.
482  4.81  0.  0.  0.
483  4.82  0.  0.  0.
484  4.83  0.  0.  0.
485  4.84  0.  0.  0.
486  4.85  0.  0.  0.
487  4.86  0.  0.  0.
488  4.87  0.  0.  0.
489  4.88  0.  0.  0.
490  4.89  0.  0.  0.
491  4.90  0.  0.  0.
492  4.91  0.  0.  0.
493  4.92  0.  0.  0.
494  4.93  0.  0.  0.
495  4.94  0.  0.  0.
496  4.95  0.  0.  0.
497  4.96  0.  0.  0.
498  4.97  0.  0.  0.
499  4.98  0.  0.  0.
500  4.99  0.  0.  0.
501  5.00  0.  0.  0.
502  5.01  0.  0.  0.
503  5.02  0.  0.  0.
504  5.03  0.  0.  0.
505  5.04  0.  0.  0.
506  5.05  0.  0.  0.
507  5.06  0.  0.  0.
508  5.07  0.  0.  0.
509  5.08  0.  0.  0.
510  5.09  0.  0.  0.
511  5.10  0.  0.  0.
512  5.11  0.  0.  0.
513  5.12  0.  0.  0.
514  5.13  0.  0.  0.
515  5.14  0.  0.  0.
516  5.15  0.  0.  0.
517  5.16  0.  0.  0.
518  5.17  0.  0.  0.
519  5.18  0.  0.  0.
520  5.19  0.  0.  0.
521  5.20  0.  0.  0.
522  5.21  0.  0.  0.
523  5.22  0.  0.  0.
524  5.23  0.  0.  0.
525  5.24  0.  0.  0.
526  5.25  0.  0.  0.
527  5.26  0.  0.  0.
528  5.27  0.  0.  0.
529  5.28  0.  0.  0.
530  5.29  0.  0.  0.
531  5.30  0.  0.  0.
532  5.31  0.  0.  0.
533  5.32  0.  0.  0.
534  5.33  0.  0.  0.
535  5.34  0.  0.  0.
536  5.35  0.  0.  0.
537  5.36  0.  0.  0.
538  5.37  0.  0.  0.
539  5.38  0.  0.  0.
540  5.39  0.  0.  0.
541  5.40  0.  0.  0.
542  5.41  0.  0.  0.
543  5.42  0.  0.  0.
544  5.43  0.  0.  0.
545  5.44  0.  0.  0.
546  5.45  0.  0.  0.
547  5.46  0.  0.  0.
548  5.47  0.  0.  0.
549  5.48  0.  0.  0.
550  5.49  0.  0.  0.
551  5.50  0.  0.  0.
552  5.51  0.  0.  0.
553  5.52  0.  0.  0.
554  5.53  0.  0.  0.
555  5.54  0.  0.  0.
556  5.55  0.  0.  0.
557  5.56  0.  0.  0.
558  5.57  0.  0.  0.
559  5.58  0.  0.  0.
560  5.59  0.  0.  0.
561  5.60  0.  0.  0.
562  5.61  0.  0.  0.
563  5.62  0.  0.  0.
564  5.63  0.  0.  0.
565  5.64  0.  0.  0.
566  5.65  0.  0.  0.
567  5.66  0.  0.  0.
568  5.67  0.  0.  0.
569  5.68  0.  0.  0.
570  5.69  0.  0.  0.
571  5.70  0.  0.  0.
572  5.71  0.  0.  0.
573  5.72  0.  0.  0.
574  5.73  0.  0.  0.
575  5.74  0.  0.  0.
576  5.75  0.  0.  0.
577  5.76  0.  0.  0.
578  5.77  0.  0.  0.
579  5.78  0.  0.  0.
580  5.79  0.  0.  0.
581  5.80  0.  0.  0.
582  5.81  0.  0.  0.
583  5.82  0.  0.  0.
584  5.83  0.  0.  0.
585  5.84  0.  0.  0.
586  5.85  0.  0.  0.
587  5.86  0.  0.  0.
588  5.87  0.  0.  0.
589  5.88  0.  0.  0.
590  5.89  0.  0.  0.
591  5.90  0.  0.  0.
592  5.91  0.  0.  0.
593  5.92  0.  0.  0.
594  5.93  0.  0.  0.
595  5.94  0.  0.  0.
596  5.95  0.  0.  0.
597  5.96  0.  0.  0.
598  5.97  0.  0.  0.
599  5.98  0.  0.  0.
600  5.99  0.  0.  0.
1                         5.7579699395087E+01  2.3585799756654E+00 -9.0122346271346E-01
1  0.0000000000000E+00  1.9572810039392E-09 -4.6998317911051E-10 -1.5340858444679E-10
2  1.0000000000000E-02  3.4931452425825E-03 -2.5779758531779E-04  9.0193398822260E-04
3  2.0000000000000E-02  1.3945645923465E-02 -1.0224822576884E-03  3.6005321844648E-03
4  3.0000000000000E-02  3.1276883880060E-02 -2.2680043950409E-03  8.0742283096750E-03
5  4.0000000000000E-02  5.5353117835163E-02 -3.9511965834798E-03  1.4287228859330E-02
6  5.0000000000000E-02  8.5988413616430E-02 -6.0121460511435E-03  2.2189739250454E-02
7  6.0000000000000E-02  1.2294593989939E-01 -8.3747150303542E-03  3.1718281779642E-02
8  7.0000000000000E-02  1.6593962285999E-01 -1.0947207900235E-02  4.2796106605785E-02
9  8.0000000000000E-02  2.1463615116541E-01 -1.3623183491989E-02  5.5333697124648E-02
10  9.0000000000000E-02  2.6865732073013E-01 -1.6282410369064E-02  6.9229371119059E-02
11  1.0000000000000E-01  3.2758270661449E-01 -1.8791962210413E-02  8.4369978926237E-02
12  1.1000000000000E-01  3.9095264734578E-01 -2.1007449616060E-02  1.0063169954582E-01
13  1.2000000000000E-01  4.5827152480100E-01 -2.2774383714422E-02  1.1788093510666E-01
14  1.3000000000000E-01  5.2901132061533E-01 -2.3929665880549E-02  1.3597530341242E-01
15  1.4000000000000E-01  6.0261542788306E-01 -2.4303196676675E-02  1.5476472739475E-01
16  1.5000000000000E-01  6.7850269471660E-01 -2.3719595812272E-02  1.7409261922594E-01
17  1.6000000000000E-01  7.5607167404588E-01 -2.2000023505446E-02  1.9379715559359E-01
18  1.7000000000000E-01  8.3470505190038E-01 -1.8964092130243E-02  2.1371263923570E-01
19  1.8000000000000E-01  9.1377422434988E-01 -1.4431855481920E-02  2.3367094030265E-01
20  1.9000000000000E-01  9.9264399131937E-01 -8.2258614123215E-03  2.5350300948075E-01
21  2.0000000000000E-01  1.0706773336751E+00 -1.7325201459601E-04  2.7304045311678E-01
22  2.1000000000000E-01  1.1472402383379E+00  9.8921059950004E-03  2.9211715886146E-01
23  2.2000000000000E-01  1.2217065347565E+00  2.2127479500725E-02  3.1057095864474E-01
24  2.3000000000000E-01  1.2934627049043E+00  3.6679135950325E-02  3.2824531414994E-01
25  2.4000000000000E-01  1.3619126280859E+00  5.3680240363268E-02  3.4499100841192E-01
26  2.5000000000000E-01  1.4264822212898E+00  7.3248804664264E-02  3.6066782577130E-01
27  2.6000000000000E-01  1.4866239356326E+00  9.5485712361270E-02  3.7514620121511E-01
28  2.7000000000000E-01  1.5418210696408E+00  1.2047284205738E-01  3.8830881916571E-01
29  2.8000000000000E-01  1.5915918607234E+00  1.4827131345559E-01  4.0005214108143E-01
30  2.9000000000000E-01  1.6354933172356E+00  1.7891987935981E-01  4.1028784083816E-01
31  3.0000000000000E-01  1.6731247550146E+00  2.1243348667213E-01  4.1894412679878E-01
32  3.1000000000000E-01  1.7041310042095E+00  2.4880202852253E-01  4.2596692976880E-01
33  3.2000000000000E-01  1.7282052546052E+00  2.8798930843270E-01  4.3132093669778E-01
34  3.3000000000000E-01  1.7450915104643E+00  3.2993223581159E-01  4.3499045102445E-01
35  3.4000000000000E-01  1.7545866291519E+00  3.7454027011192E-01  4.3698006197916E-01
36  3.5000000000000E-01  1.7565419214442E+00  4.2169512865819E-01  4.3731510694335E-01
37  3.6000000000000E-01  1.7508642954234E+00  4.7125077051006E-01  4.3604191310577E-01
38  3.7000000000000E-01  1.7375169301810E+00  5.2303366577821E-01  4.3322780712578E-01
39  3.8000000000000E-01  1.7165194701485E+00  5.7684335659936E-01  4.2896088428432E-01
40  3.9000000000000E-01  1.6879477356893E+00  6.3245331254525E-01  4.2334953163453E-01
41  4.0000000000000E-01  1.6519329505630E+00  6.8961207963451E-01  4.1652170291129E-01
42  4.1000000000000E-01  1.6086604919455E+00  7.4804471839040E-01  4.0862394637268E-01
43  4.2000000000000E-01  1.5583681737907E+00  8.0745452259791E-01  3.9982019026928E-01
44  4.3000000000000E-01  1.5013440793772E+00  8.6752500662067E-01  3.9029029421259E-01
45  4.4000000000000E-01  1.4379239638285E+00  9.2792214540424E-01  3.8022837827686E-01
46  4.5000000000000E-01  1.3684882521569E+00  9.8829684767946E-01  3.6984094515902E-01
47  4.6000000000000E-01  1.2934586628794E+00  1.0482876394509E+00  3.5934481407277E-01
48  4.7000000000000E-01  1.2132944914356E+00  1.1075235316708E+00  3.4896488820513E-01
49  4.8000000000000E-01  1.1284885914245E+00  1.1656270431163E+00  3.3893178045492E-01
50  4.9000000000000E-01  1.0395630950173E+00  1.2222173469607E+00  3.2947932474762E-01
51  5.0000000000000E-01  9.4706491674263E-01  1.2769135074075E+00  3.2084200242648E-01
52  5.1000000000000E-01  8.5156108713308E-01  1.3293377710767E+00  3.1325231501150E-01
53  5.2000000000000E-01  7.5363396442651E-01  1.3791188766400E+00  3.0693813595494E-01
54  5.3000000000000E-01  6.5387637361119E-01  1.4258953455122E+00  3.0212007487471E-01
55  5.4000000000000E-01  5.5288672256198E-01  1.4693187162448E+00  2.9900888809094E-01
56  5.5000000000000E-01  4.5126414483440E-01  1.5090566856466E+00  2.9780296911313E-01
57  5.6000000000000E-01  3.4960371786041E-01  1.5447961205652E+00  2.9868595202082E-01
58  5.7000000000000E-01  2.4849180383882E-01  1.5762459057067E+00  3.0182445945437E-01
59  5.8000000000000E-01  1.4850155855427E-01  1.6031395948176E+00  3.0736602519874E-01
60  5.9000000000000E-01  5.0188650724954E-02  1.6252378349876E+00  3.1543721912670E-01
61  6.0000000000000E-01 -4.5912768688907E-02  1.6423305367059E+00  3.2614199960067E-01
62  6.1000000000000E-01 -1.3929381143625E-01  1.6542387655834E+00  3.3956031535645E-01
63  6.2000000000000E-01 -2.2947427948467E-01  1.6608163352817E+00  3.5574697545652E-01
64  6.3000000000000E-01 -3.1600574782661E-01  1.6619510851091E+00  3.7473080216146E-01
65  6.4000000000000E-01 -3.9847428005134E-01  1.6575658298926E+00  3.9651407758647E-01
66  6.5000000000000E-01 -4.7650275909734E-01  1.6476189740472E+00  4.2107229085409E-01
67  6.6000000000000E-01 -5.4975282068379E-01  1.6321047861630E+00  4.4835418819217E-01
68  6.7000000000000E-01 -6.1792638205951E-01  1.6110533348536E+00  4.7828212413180E-01
69  6.8000000000000E-01 -6.8076676382572E-01  1.5845300909768E+00  5.1075270770466E-01
70  6.9000000000000E-01 -7.3805940760350E-01  1.5526352055816E+00  5.4563773339724E-01
71  7.0000000000000E-01 -7.8963219715267E-01  1.5155024769894E+00  5.8278538265852E-01
72  7.1000000000000E-01 -8.3535539513242E-01  1.4732980242073E+00  6.2202167804834E-01