Nh    ONCVPSP-4.0.1  r_core=   1.50312   1.50312   1.50312   1.40739
113.0000     35.0000      220326    zatom,zion,pspd
8      11   3     4   600     0    pspcod,pspxc,lmax,lloc,mmax,r2well
5.99000000  5.00000000  0.00000000    rchrg fchrg qchrg
2     2     2     2     0    nproj
1     1           extension_switch
0                         1.7701654983524E+01  2.3625411876979E+00
1  0.0000000000000E+00  6.5704763851926E-10 -1.9104952342364E-09
2  1.0000000000000E-02  5.3089611489338E-02 -3.8034777025409E-03
3  2.0000000000000E-02  1.0617699803145E-01 -7.7277877912395E-03
4  3.0000000000000E-02  1.5925899508830E-01 -1.1891336664399E-02
5  4.0000000000000E-02  2.1233057191565E-01 -1.6407713364091E-02
6  5.0000000000000E-02  2.6538393072854E-01 -2.1383366950960E-02
7  6.0000000000000E-02  3.1840764411507E-01 -2.6915385761754E-02
8  7.0000000000000E-02  3.7138584266526E-01 -3.3089410230990E-02
9  8.0000000000000E-02  4.2429746412452E-01 -3.9977709047661E-02
10  9.0000000000000E-02  4.7711557457714E-01 -4.7637446083169E-02
11  1.0000000000000E-01  5.2980677122517E-01 -5.6109162802297E-02
12  1.1000000000000E-01  5.8233067526449E-01 -6.5415497795110E-02
13  1.2000000000000E-01  6.3463952218864E-01 -7.5560161690044E-02
14  1.3000000000000E-01  6.8667785558665E-01 -8.6527182076541E-02
15  1.4000000000000E-01  7.3838232916273E-01 -9.8280429233947E-02
16  1.5000000000000E-01  7.8968162031032E-01 -1.1076342948825E-01
17  1.6000000000000E-01  8.4049645714054E-01 -1.2389946895889E-01
18  1.7000000000000E-01  8.9073975941519E-01 -1.3759198637465E-01
19  1.8000000000000E-01  9.4031689238674E-01 -1.5172524959108E-01
20  1.9000000000000E-01  9.8912603112189E-01 -1.6616530649219E-01
21  2.0000000000000E-01  1.0370586315013E+00 -1.8076119716510E-01
22  2.1000000000000E-01  1.0840000027639E+00 -1.9534641065403E-01
23  2.2000000000000E-01  1.1298299752180E+00 -2.0974056628261E-01
24  2.3000000000000E-01  1.1744236555909E+00 -2.2375129653003E-01
25  2.4000000000000E-01  1.2176522614452E+00 -2.3717630580122E-01
26  2.5000000000000E-01  1.2593840251738E+00 -2.4980557718165E-01
27  2.6000000000000E-01  1.2994851573014E+00 -2.6142369744762E-01
28  2.7000000000000E-01  1.3378208581794E+00 -2.7181226923600E-01
29  2.8000000000000E-01  1.3742563666774E+00 -2.8075237838381E-01
30  2.9000000000000E-01  1.4086580341409E+00 -2.8802708403715E-01
31  3.0000000000000E-01  1.4408944117151E+00 -2.9342389920397E-01
32  3.1000000000000E-01  1.4708373391244E+00 -2.9673722998118E-01
33  3.2000000000000E-01  1.4983630231412E+00 -2.9777074271088E-01
34  3.3000000000000E-01  1.5233530942777E+00 -2.9633962979221E-01
35  3.4000000000000E-01  1.5456956306806E+00 -2.9227274676746E-01
36  3.5000000000000E-01  1.5652861387873E+00 -2.8541459557759E-01
37  3.6000000000000E-01  1.5820284810108E+00 -2.7562713150421E-01
38  3.7000000000000E-01  1.5958357415416E+00 -2.6279137423287E-01
39  3.8000000000000E-01  1.6066310222682E+00 -2.4680880663749E-01
40  3.9000000000000E-01  1.6143481618213E+00 -2.2760254823993E-01
41  4.0000000000000E-01  1.6189323718067E+00 -2.0511829378473E-01
42  4.1000000000000E-01  1.6203407854044E+00 -1.7932501092524E-01
43  4.2000000000000E-01  1.6185429146475E+00 -1.5021539458324E-01
44  4.3000000000000E-01  1.6135210138451E+00 -1.1780607905667E-01
45  4.4000000000000E-01  1.6052703477474E+00 -8.2137612350233E-02
46  4.5000000000000E-01  1.5937993641675E+00 -4.3274200433031E-02
47  4.6000000000000E-01  1.5791297718397E+00 -1.3032321315813E-03
48  4.7000000000000E-01  1.5612965253005E+00  4.3665401904227E-02
49  4.8000000000000E-01  1.5403477195133E+00  9.1500180314537E-02
50  4.9000000000000E-01  1.5163443978032E+00  1.4204899432217E-01
51  5.0000000000000E-01  1.4893602774118E+00  1.9514034364050E-01
52  5.1000000000000E-01  1.4594813976257E+00  2.5058466417989E-01
53  5.2000000000000E-01  1.4268056959550E+00  3.0817576591088E-01
54  5.3000000000000E-01  1.3914425182457E+00  3.6769235884962E-01
55  5.4000000000000E-01  1.3535120688985E+00  4.2889964517086E-01
56  5.5000000000000E-01  1.3131448075350E+00  4.9155095591230E-01
57  5.6000000000000E-01  1.2704807985038E+00  5.5538941159543E-01
58  5.7000000000000E-01  1.2256690195622E+00  6.2014958732131E-01
59  5.8000000000000E-01  1.1788666359093E+00  6.8555916447228E-01
60  5.9000000000000E-01  1.1302382454937E+00  7.5134055301898E-01
61  6.0000000000000E-01  1.0799551011830E+00  8.1721247054883E-01
62  6.1000000000000E-01  1.0281943149844E+00  8.8289146644230E-01
63  6.2000000000000E-01  9.7513804904795E-01  9.4809338207232E-01
64  6.3000000000000E-01  9.2097269769114E-01  1.0125347404263E+00
65  6.4000000000000E-01  8.6588806417138E-01  1.0759340610898E+00
66  6.5000000000000E-01  8.1007653540964E-01  1.1380130990244E+00
67  6.6000000000000E-01  7.5373225736041E-01  1.1984980079528E+00
68  6.7000000000000E-01  6.9705031323830E-01  1.2571204313855E+00
69  6.8000000000000E-01  6.4022590636891E-01  1.3136185263118E+00
70  6.9000000000000E-01  5.8345354904127E-01  1.3677379263052E+00
71  7.0000000000000E-01  5.2692625841660E-01  1.4192326521941E+00
72  7.1000000000000E-01  4.7083476029940E-01  1.4678659795045E+00
73  7.2000000000000E-01  4.1536670141309E-01  1.5134112725521E+00
74  7.3000000000000E-01  3.6070587074710E-01  1.5556527953287E+00
75  7.4000000000000E-01  3.0703143055871E-01  1.5943865091906E+00
76  7.5000000000000E-01  2.5451715772260E-01  1.6294208667977E+00
77  7.6000000000000E-01  2.0333069631957E-01  1.6605776108006E+00
78  7.7000000000000E-01  1.5363282264062E-01  1.6876925844284E+00
79  7.8000000000000E-01  1.0557672414419E-01  1.7106165594411E+00
80  7.9000000000000E-01  5.9307294333620E-02  1.7292160848947E+00
81  8.0000000000000E-01  1.4960446007043E-02  1.7433743578920E+00
82  8.1000000000000E-01 -2.7337554142492E-02  1.7529921149948E+00
83  8.2000000000000E-01 -6.7470726047365E-02  1.7579885403246E+00
84  8.3000000000000E-01 -1.0533398781786E-01  1.7583021836395E+00
85  8.4000000000000E-01 -1.4083373368936E-01  1.7538918789208E+00
86  8.5000000000000E-01 -1.7388837320696E-01  1.7447376512972E+00
87  8.6000000000000E-01 -2.0442882601815E-01  1.7308415975576E+00
88  8.7000000000000E-01 -2.3239896623855E-01  1.7122287231286E+00
89  8.8000000000000E-01 -2.5775601003466E-01  1.6889477162793E+00
90  8.9000000000000E-01 -2.8047083984639E-01  1.6610716385419E+00
91  9.0000000000000E-01 -3.0052825856768E-01  1.6286985089570E+00
92  9.1000000000000E-01 -3.1792716702645E-01  1.5919517588133E+00
93  9.2000000000000E-01 -3.3268065826691E-01  1.5509805331121E+00
94  9.3000000000000E-01 -3.4481602244547E-01  1.5059598150654E+00
95  9.4000000000000E-01 -3.5437465661002E-01  1.4570903505695E+00
96  9.5000000000000E-01 -3.6141187424279E-01  1.4045983507895E+00
97  9.6000000000000E-01 -3.6599661020738E-01  1.3487349527438E+00
98  9.7000000000000E-01 -3.6821101764478E-01  1.2897754200878E+00
99  9.8000000000000E-01 -3.6814995440303E-01  1.2280180691236E+00
100  9.9000000000000E-01 -3.6592035774686E-01  1.1637829083878E+00
101  1.0000000000000E+00 -3.6164050736358E-01  1.0974099839298E+00
102  1.0100000000000E+00 -3.5543917803904E-01  1.0292574265402E+00
103  1.0200000000000E+00 -3.4745468480280E-01  9.5969920164477E-01
104  1.0300000000000E+00 -3.3783382481027E-01  8.8912256727034E-01
105  1.0400000000000E+00 -3.2673072171764E-01  8.1792525033669E-01
106  1.0500000000000E+00 -3.1430557978354E-01  7.4651235642315E-01
107  1.0600000000000E+00 -3.0072335637430E-01  6.7529303302710E-01
108  1.0700000000000E+00 -2.8615236292920E-01  6.0467691106642E-01
109  1.0800000000000E+00 -2.7076280572731E-01  5.3507035387561E-01
110  1.0900000000000E+00 -2.5472527896785E-01  4.6687254713336E-01
111  1.1000000000000E+00 -2.3820922369795E-01  4.0047146691821E-01
112  1.1100000000000E+00 -2.2138136697936E-01  3.3623976636038E-01
113  1.1200000000000E+00 -2.0440415635249E-01  2.7453062404705E-01
114  1.1300000000000E+00 -1.8743420511691E-01  2.1567359938671E-01
115  1.1400000000000E+00 -1.7062076418653E-01  1.5997054148775E-01
116  1.1500000000000E+00 -1.5410423628472E-01  1.0769159871208E-01
117  1.1600000000000E+00 -1.3801474801162E-01  5.9071375897517E-02
118  1.1700000000000E+00 -1.2247079484247E-01  1.4305285287833E-02
119  1.1800000000000E+00 -1.0757797340172E-01 -2.6453864535733E-02
120  1.1900000000000E+00 -9.3427814385810E-02 -6.3099000061487E-02
121  1.2000000000000E+00 -8.0096731662267E-02 -9.5571580734155E-02
122  1.2100000000000E+00 -6.7645090341523E-02 -1.2386406637523E-01
123  1.2200000000000E+00 -5.6117557773393E-02 -1.4801671146628E-01
124  1.2300000000000E+00 -4.5545687509183E-02 -1.6810477212690E-01
125  1.2400000000000E+00 -3.5948938564597E-02 -1.8423386645422E-01
126  1.2500000000000E+00 -2.7334898779721E-02 -1.9653936009991E-01
127  1.2600000000000E+00 -1.9699643775153E-02 -2.0518533078015E-01
128  1.2700000000000E+00 -1.3028217475770E-02 -2.1036317145010E-01
129  1.2800000000000E+00 -7.2952338041345E-03 -2.1228982521280E-01
130  1.2900000000000E+00 -2.4655943237293E-03 -2.1120566516661E-01
131  1.3000000000000E+00  1.5046850732004E-03 -2.0737203785824E-01
132  1.3100000000000E+00  4.6675470665000E-03 -2.0106849477706E-01
133  1.3200000000000E+00  7.0818756213737E-03 -1.9258974163111E-01
134  1.3300000000000E+00  8.8124002172376E-03 -1.8224234013218E-01
135  1.3400000000000E+00  9.9285346441351E-03 -1.7034120161896E-01
136  1.3500000000000E+00  1.0503164557212E-02 -1.5720591573805E-01
137  1.3600000000000E+00  1.0611398953295E-02 -1.4315696080895E-01
138  1.3700000000000E+00  1.0329301490131E-02 -1.2851184519563E-01
139  1.3800000000000E+00  9.7326180585434E-03 -1.1358123080947E-01
140  1.3900000000000E+00  8.8955173303980E-03 -9.8665091149309E-02
141  1.4000000000000E+00  7.8893622862797E-03 -8.4048960709528E-02
142  1.4100000000000E+00  6.7815105608807E-03 -7.0000267003977E-02
143  1.4200000000000E+00  5.6342578440686E-03 -5.6765111595175E-02
144  1.4300000000000E+00  4.5031751788808E-03 -4.4563082141217E-02
145  1.4400000000000E+00  3.4300458575816E-03 -3.3563906122606E-02
146  1.4500000000000E+00  2.4561504291109E-03 -2.3931233242402E-02
147  1.4600000000000E+00  1.6190619888529E-03 -1.5813171094246E-02
148  1.4700000000000E+00  9.4540811172767E-04 -9.3187094852134E-03
149  1.4800000000000E+00  4.5110490080219E-04 -4.5194128971410E-03
150  1.4900000000000E+00  1.3965478898619E-04 -1.4324721741512E-03
151  1.5000000000000E+00  1.0588063838430E-05 -1.1240094596060E-04
152  1.5100000000000E+00 -1.5217659030443E-06  1.6445279129777E-05
153  1.5200000000000E+00  3.3178000837179E-07 -3.5178490710315E-06
154  1.53 -0.  0.
155  1.54  0.  0.
156  1.55  0.  0.
157  1.56  0.  0.
158  1.57  0.  0.
159  1.58  0.  0.
160  1.59  0.  0.
161  1.60  0.  0.
162  1.61  0.  0.
163  1.62  0.  0.
164  1.63  0.  0.
165  1.64  0.  0.
166  1.65  0.  0.
167  1.66  0.  0.
168  1.67  0.  0.
169  1.68  0.  0.
170  1.69  0.  0.
171  1.70  0.  0.
172  1.71  0.  0.
173  1.72  0.  0.
174  1.73  0.  0.
175  1.74  0.  0.
176  1.75  0.  0.
177  1.76  0.  0.
178  1.77  0.  0.
179  1.78  0.  0.
180  1.79  0.  0.
181  1.80  0.  0.
182  1.81  0.  0.
183  1.82  0.  0.
184  1.83  0.  0.
185  1.84  0.  0.
186  1.85  0.  0.
187  1.86  0.  0.
188  1.87  0.  0.
189  1.88  0.  0.
190  1.89  0.  0.
191  1.90  0.  0.
192  1.91  0.  0.
193  1.92  0.  0.
194  1.93  0.  0.
195  1.94  0.  0.
196  1.95  0.  0.
197  1.96  0.  0.
198  1.97  0.  0.
199  1.98  0.  0.
200  1.99  0.  0.
201  2.00  0.  0.
202  2.01  0.  0.
203  2.02  0.  0.
204  2.03  0.  0.
205  2.04  0.  0.
206  2.05  0.  0.
207  2.06  0.  0.
208  2.07  0.  0.
209  2.08  0.  0.
210  2.09  0.  0.
211  2.10  0.  0.
212  2.11  0.  0.
213  2.12  0.  0.
214  2.13  0.  0.
215  2.14  0.  0.
216  2.15  0.  0.
217  2.16  0.  0.
218  2.17  0.  0.
219  2.18  0.  0.
220  2.19  0.  0.
221  2.20  0.  0.
222  2.21  0.  0.
223  2.22  0.  0.
224  2.23  0.  0.
225  2.24  0.  0.
226  2.25  0.  0.
227  2.26  0.  0.
228  2.27  0.  0.
229  2.28  0.  0.
230  2.29  0.  0.
231  2.30  0.  0.
232  2.31  0.  0.
233  2.32  0.  0.
234  2.33  0.  0.
235  2.34  0.  0.
236  2.35  0.  0.
237  2.36  0.  0.
238  2.37  0.  0.
239  2.38  0.  0.
240  2.39  0.  0.
241  2.40  0.  0.
242  2.41  0.  0.
243  2.42  0.  0.
244  2.43  0.  0.
245  2.44  0.  0.
246  2.45  0.  0.
247  2.46  0.  0.
248  2.47  0.  0.
249  2.48  0.  0.
250  2.49  0.  0.
251  2.50  0.  0.
252  2.51  0.  0.
253  2.52  0.  0.
254  2.53  0.  0.
255  2.54  0.  0.
256  2.55  0.  0.
257  2.56  0.  0.
258  2.57  0.  0.
259  2.58  0.  0.
260  2.59  0.  0.
261  2.60  0.  0.
262  2.61  0.  0.
263  2.62  0.  0.
264  2.63  0.  0.
265  2.64  0.  0.
266  2.65  0.  0.
267  2.66  0.  0.
268  2.67  0.  0.
269  2.68  0.  0.
270  2.69  0.  0.
271  2.70  0.  0.
272  2.71  0.  0.
273  2.72  0.  0.
274  2.73  0.  0.
275  2.74  0.  0.
276  2.75  0.  0.
277  2.76  0.  0.
278  2.77  0.  0.
279  2.78  0.  0.
280  2.79  0.  0.
281  2.80  0.  0.
282  2.81  0.  0.
283  2.82  0.  0.
284  2.83  0.  0.
285  2.84  0.  0.
286  2.85  0.  0.
287  2.86  0.  0.
288  2.87  0.  0.
289  2.88  0.  0.
290  2.89  0.  0.
291  2.90  0.  0.
292  2.91  0.  0.
293  2.92  0.  0.
294  2.93  0.  0.
295  2.94  0.  0.
296  2.95  0.  0.
297  2.96  0.  0.
298  2.97  0.  0.
299  2.98  0.  0.
300  2.99  0.  0.
301  3.00  0.  0.
302  3.01  0.  0.
303  3.02  0.  0.
304  3.03  0.  0.
305  3.04  0.  0.
306  3.05  0.  0.
307  3.06  0.  0.
308  3.07  0.  0.
309  3.08  0.  0.
310  3.09  0.  0.
311  3.10  0.  0.
312  3.11  0.  0.
313  3.12  0.  0.
314  3.13  0.  0.
315  3.14  0.  0.
316  3.15  0.  0.
317  3.16  0.  0.
318  3.17  0.  0.
319  3.18  0.  0.
320  3.19  0.  0.
321  3.20  0.  0.
322  3.21  0.  0.
323  3.22  0.  0.
324  3.23  0.  0.
325  3.24  0.  0.
326  3.25  0.  0.
327  3.26  0.  0.
328  3.27  0.  0.
329  3.28  0.  0.
330  3.29  0.  0.
331  3.30  0.  0.
332  3.31  0.  0.
333  3.32  0.  0.
334  3.33  0.  0.
335  3.34  0.  0.
336  3.35  0.  0.
337  3.36  0.  0.
338  3.37  0.  0.
339  3.38  0.  0.
340  3.39  0.  0.
341  3.40  0.  0.
342  3.41  0.  0.
343  3.42  0.  0.
344  3.43  0.  0.
345  3.44  0.  0.
346  3.45  0.  0.
347  3.46  0.  0.
348  3.47  0.  0.
349  3.48  0.  0.
350  3.49  0.  0.
351  3.50  0.  0.
352  3.51  0.  0.
353  3.52  0.  0.
354  3.53  0.  0.
355  3.54  0.  0.
356  3.55  0.  0.
357  3.56  0.  0.
358  3.57  0.  0.
359  3.58  0.  0.
360  3.59  0.  0.
361  3.60  0.  0.
362  3.61  0.  0.
363  3.62  0.  0.
364  3.63  0.  0.
365  3.64  0.  0.
366  3.65  0.  0.
367  3.66  0.  0.
368  3.67  0.  0.
369  3.68  0.  0.
370  3.69  0.  0.
371  3.70  0.  0.
372  3.71  0.  0.
373  3.72  0.  0.
374  3.73  0.  0.
375  3.74  0.  0.
376  3.75  0.  0.
377  3.76  0.  0.
378  3.77  0.  0.
379  3.78  0.  0.
380  3.79  0.  0.
381  3.80  0.  0.
382  3.81  0.  0.
383  3.82  0.  0.
384  3.83  0.  0.
385  3.84  0.  0.
386  3.85  0.  0.
387  3.86  0.  0.
388  3.87  0.  0.
389  3.88  0.  0.
390  3.89  0.  0.
391  3.90  0.  0.
392  3.91  0.  0.
393  3.92  0.  0.
394  3.93  0.  0.
395  3.94  0.  0.
396  3.95  0.  0.
397  3.96  0.  0.
398  3.97  0.  0.
399  3.98  0.  0.
400  3.99  0.  0.
401  4.00  0.  0.
402  4.01  0.  0.
403  4.02  0.  0.
404  4.03  0.  0.
405  4.04  0.  0.
406  4.05  0.  0.
407  4.06  0.  0.
408  4.07  0.  0.
409  4.08  0.  0.
410  4.09  0.  0.
411  4.10  0.  0.
412  4.11  0.  0.
413  4.12  0.  0.
414  4.13  0.  0.
415  4.14  0.  0.
416  4.15  0.  0.
417  4.16  0.  0.
418  4.17  0.  0.
419  4.18  0.  0.
420  4.19  0.  0.
421  4.20  0.  0.
422  4.21  0.  0.
423  4.22  0.  0.
424  4.23  0.  0.
425  4.24  0.  0.
426  4.25  0.  0.
427  4.26  0.  0.
428  4.27  0.  0.
429  4.28  0.  0.
430  4.29  0.  0.
431  4.30  0.  0.
432  4.31  0.  0.
433  4.32  0.  0.
434  4.33  0.  0.
435  4.34  0.  0.
436  4.35  0.  0.
437  4.36  0.  0.
438  4.37  0.  0.
439  4.38  0.  0.
440  4.39  0.  0.
441  4.40  0.  0.
442  4.41  0.  0.
443  4.42  0.  0.
444  4.43  0.  0.
445  4.44  0.  0.
446  4.45  0.  0.
447  4.46  0.  0.
448  4.47  0.  0.
449  4.48  0.  0.
450  4.49  0.  0.
451  4.50  0.  0.
452  4.51  0.  0.
453  4.52  0.  0.
454  4.53  0.  0.
455  4.54  0.  0.
456  4.55  0.  0.
457  4.56  0.  0.
458  4.57  0.  0.
459  4.58  0.  0.
460  4.59  0.  0.
461  4.60  0.  0.
462  4.61  0.  0.
463  4.62  0.  0.
464  4.63  0.  0.
465  4.64  0.  0.
466  4.65  0.  0.
467  4.66  0.  0.
468  4.67  0.  0.
469  4.68  0.  0.
470  4.69  0.  0.
471  4.70  0.  0.
472  4.71  0.  0.
473  4.72  0.  0.
474  4.73  0.  0.
475  4.74  0.  0.
476  4.75  0.  0.
477  4.76  0.  0.
478  4.77  0.  0.
479  4.78  0.  0.
480  4.79  0.  0.
481  4.80  0.  0.
482  4.81  0.  0.
483  4.82  0.  0.
484  4.83  0.  0.
485  4.84  0.  0.
486  4.85  0.  0.
487  4.86  0.  0.
488  4.87  0.  0.
489  4.88  0.  0.
490  4.89  0.  0.
491  4.90  0.  0.
492  4.91  0.  0.
493  4.92  0.  0.
494  4.93  0.  0.
495  4.94  0.  0.
496  4.95  0.  0.
497  4.96  0.  0.
498  4.97  0.  0.
499  4.98  0.  0.
500  4.99  0.  0.
501  5.00  0.  0.
502  5.01  0.  0.
503  5.02  0.  0.
504  5.03  0.  0.
505  5.04  0.  0.
506  5.05  0.  0.
507  5.06  0.  0.
508  5.07  0.  0.
509  5.08  0.  0.
510  5.09  0.  0.
511  5.10  0.  0.
512  5.11  0.  0.
513  5.12  0.  0.
514  5.13  0.  0.
515  5.14  0.  0.
516  5.15  0.  0.
517  5.16  0.  0.
518  5.17  0.  0.
519  5.18  0.  0.
520  5.19  0.  0.
521  5.20  0.  0.
522  5.21  0.  0.
523  5.22  0.  0.
524  5.23  0.  0.
525  5.24  0.  0.
526  5.25  0.  0.
527  5.26  0.  0.
528  5.27  0.  0.
529  5.28  0.  0.
530  5.29  0.  0.
531  5.30  0.  0.
532  5.31  0.  0.
533  5.32  0.  0.
534  5.33  0.  0.
535  5.34  0.  0.
536  5.35  0.  0.
537  5.36  0.  0.
538  5.37  0.  0.
539  5.38  0.  0.
540  5.39  0.  0.
541  5.40  0.  0.
542  5.41  0.  0.
543  5.42  0.  0.
544  5.43  0.  0.
545  5.44  0.  0.
546  5.45  0.  0.
547  5.46  0.  0.
548  5.47  0.  0.
549  5.48  0.  0.
550  5.49  0.  0.
551  5.50  0.  0.
552  5.51  0.  0.
553  5.52  0.  0.
554  5.53  0.  0.
555  5.54  0.  0.
556  5.55  0.  0.
557  5.56  0.  0.
558  5.57  0.  0.
559  5.58  0.  0.
560  5.59  0.  0.
561  5.60  0.  0.
562  5.61  0.  0.
563  5.62  0.  0.
564  5.63  0.  0.
565  5.64  0.  0.
566  5.65  0.  0.
567  5.66  0.  0.
568  5.67  0.  0.
569  5.68  0.  0.
570  5.69  0.  0.
571  5.70  0.  0.
572  5.71  0.  0.
573  5.72  0.  0.
574  5.73  0.  0.
575  5.74  0.  0.
576  5.75  0.  0.
577  5.76  0.  0.
578  5.77  0.  0.
579  5.78  0.  0.
580  5.79  0.  0.
581  5.80  0.  0.
582  5.81  0.  0.
583  5.82  0.  0.
584  5.83  0.  0.
585  5.84  0.  0.
586  5.85  0.  0.
587  5.86  0.  0.
588  5.87  0.  0.
589  5.88  0.  0.
590  5.89  0.  0.
591  5.90  0.  0.
592  5.91  0.  0.
593  5.92  0.  0.
594  5.93  0.  0.
595  5.94  0.  0.
596  5.95  0.  0.
597  5.96  0.  0.
598  5.97  0.  0.
599  5.98  0.  0.
600  5.99  0.  0.
1                         1.4615711103951E+01  1.9757174225701E+00
1  0.0000000000000E+00 -1.7493358706044E-09  4.7206883194151E-09
2  1.0000000000000E-02  1.1419585799586E-03 -5.0486977052852E-04
3  2.0000000000000E-02  4.5669024758110E-03 -2.0215841768157E-03
4  3.0000000000000E-02  1.0271990461962E-02 -4.5563377169546E-03
5  4.0000000000000E-02  1.8252335883650E-02 -8.1190547582470E-03
6  5.0000000000000E-02  2.8500783333845E-02 -1.2722799666523E-02
7  6.0000000000000E-02  4.1007603118484E-02 -1.8382970421965E-02
8  7.0000000000000E-02  5.5760110459687E-02 -2.5116294664308E-02
9  8.0000000000000E-02  7.2742218135932E-02 -3.2939651831002E-02
10  9.0000000000000E-02  9.1933932836725E-02 -4.1868749273657E-02
11  1.0000000000000E-01  1.1331080688564E-01 -5.1916683869904E-02
12  1.1000000000000E-01  1.3684335813296E-01 -6.3092423612923E-02
13  1.2000000000000E-01  1.6249647171431E-01 -7.5399245893703E-02
14  1.3000000000000E-01  1.9022879799709E-01 -8.8833170642824E-02
15  1.4000000000000E-01  2.1999216137942E-01 -1.0338142713521E-01
16  1.5000000000000E-01  2.5173099465963E-01 -1.1902099306655E-01
17  1.6000000000000E-01  2.8538181345676E-01 -1.3571724348368E-01
18  1.7000000000000E-01  3.2087274463792E-01 -1.5342274531168E-01
19  1.8000000000000E-01  3.5812312190767E-01 -1.7207623060153E-01
20  1.9000000000000E-01  3.9704316065150E-01 -1.9160177827594E-01
21  2.0000000000000E-01  4.3753372282292E-01 -2.1190823014328E-01
22  2.1000000000000E-01  4.7948618114447E-01 -2.3288886236161E-01
23  2.2000000000000E-01  5.2278239018946E-01 -2.5442132846016E-01
24  2.3000000000000E-01  5.6729477005442E-01 -2.7636788456845E-01
25  2.4000000000000E-01  6.1288650636103E-01 -2.9857590177678E-01
26  2.5000000000000E-01  6.5941186827773E-01 -3.2087866467587E-01
27  2.6000000000000E-01  7.0671664416698E-01 -3.4309644922115E-01
28  2.7000000000000E-01  7.5463869238546E-01 -3.6503786726497E-01
29  2.8000000000000E-01  8.0300860273218E-01 -3.8650145952009E-01
30  2.9000000000000E-01  8.5165046209446E-01 -4.0727751348281E-01
31  3.0000000000000E-01  9.0038271602270E-01 -4.2715007806626E-01
32  3.1000000000000E-01  9.4901911630738E-01 -4.4589914247974E-01
33  3.2000000000000E-01  9.9736974316961E-01 -4.6330294333310E-01
34  3.3000000000000E-01  1.0452420894378E+00 -4.7914036112570E-01
35  3.4000000000000E-01  1.0924421930926E+00 -4.9319336526416E-01
36  3.5000000000000E-01  1.1387758038378E+00 -5.0524946559012E-01
37  3.6000000000000E-01  1.1840495689138E+00 -5.1510412811955E-01
38  3.7000000000000E-01  1.2280722232115E+00 -5.2256311331055E-01
39  3.8000000000000E-01  1.2706557688837E+00 -5.2744469667943E-01
40  3.9000000000000E-01  1.3116166300644E+00 -5.2958173394751E-01
41  4.0000000000000E-01  1.3507767690040E+00 -5.2882353607781E-01
42  4.1000000000000E-01  1.3879647508739E+00 -5.2503752348548E-01
43  4.2000000000000E-01  1.4230167456788E+00 -5.1811063329714E-01
44  4.3000000000000E-01  1.4557774571051E+00 -5.0795045869329E-01
45  4.4000000000000E-01  1.4861009696963E+00 -4.9448610498334E-01
46  4.5000000000000E-01  1.5138515074493E+00 -4.7766875301011E-01
47  4.6000000000000E-01  1.5389040987240E+00 -4.5747192662887E-01
48  4.7000000000000E-01  1.5611451442175E+00 -4.3389146721522E-01
49  4.8000000000000E-01  1.5804728866212E+00 -4.0694522428496E-01
50  4.9000000000000E-01  1.5967977824246E+00 -3.7667247721715E-01
51  5.0000000000000E-01  1.6100427780920E+00 -3.4313310861882E-01
52  5.1000000000000E-01  1.6201434944979E+00 -3.0640655492561E-01
53  5.2000000000000E-01  1.6270483250047E+00 -2.6659056427487E-01
54  5.3000000000000E-01  1.6307184538828E+00 -2.2379979540580E-01
55  5.4000000000000E-01  1.6311278028673E+00 -1.7816429424293E-01
56  5.5000000000000E-01  1.6282629144994E+00 -1.2982788682515E-01
57  5.6000000000000E-01  1.6221227814845E+00 -7.8946528299863E-02
58  5.7000000000000E-01  1.6127186316147E+00 -2.5686647772074E-02
59  5.8000000000000E-01  1.6000736778243E+00  2.9776472128132E-02
60  5.9000000000000E-01  1.5842228426956E+00  8.7260244009086E-02
61  6.0000000000000E-01  1.5652124661932E+00  1.4657621872563E-01
62  6.1000000000000E-01  1.5431000046164E+00  2.0753139230144E-01
63  6.2000000000000E-01  1.5179537277208E+00  2.6992935100361E-01
64  6.3000000000000E-01  1.4898524197154E+00  3.3357123408557E-01
65  6.4000000000000E-01  1.4588850884170E+00  3.9825649957981E-01
66  6.5000000000000E-01  1.4251506852794E+00  4.6378348484008E-01
67  6.6000000000000E-01  1.3887578373536E+00  5.2994976014872E-01
68  6.7000000000000E-01  1.3498245905280E+00  5.9655228045929E-01
69  6.8000000000000E-01  1.3084781616839E+00  6.6338734706792E-01
70  6.9000000000000E-01  1.2648546957416E+00  7.3025039752784E-01
71  7.0000000000000E-01  1.2190990220096E+00  7.9693564826827E-01
72  7.1000000000000E-01  1.1713644028321E+00  8.6323561998844E-01
73  7.2000000000000E-01  1.1218122663093E+00  9.2894058081005E-01
74  7.3000000000000E-01  1.0706119138745E+00  9.9383794624723E-01
75  7.4000000000000E-01  1.0179401927991E+00  1.0577116781627E+00
76  7.5000000000000E-01  9.6398112328104E-01  1.1203417269170E+00
77  7.6000000000000E-01  9.0892546969096E-01  1.1815035618035E+00
78  7.7000000000000E-01  8.5297024580741E-01  1.2409678345303E+00
79  7.8000000000000E-01  7.9631814448630E-01  1.2985002189449E+00
80  7.9000000000000E-01  7.3917688317493E-01  1.3538614673831E+00
81  8.0000000000000E-01  6.8175845798997E-01  1.4068077199967E+00
82  8.1000000000000E-01  6.2427830071294E-01  1.4570910982404E+00
83  8.2000000000000E-01  5.6695433499000E-01  1.5044606074475E+00
84  8.3000000000000E-01  5.1000593021958E-01  1.5486633662347E+00
85  8.4000000000000E-01  4.5365275402870E-01  1.5894461724687E+00
86  8.5000000000000E-01  3.9811352682703E-01  1.6265574068880E+00
87  8.6000000000000E-01  3.4360468463138E-01  1.6597492663667E+00
88  8.7000000000000E-01  2.9033895911127E-01  1.6887803094509E+00
89  8.8000000000000E-01  2.3852388655504E-01  1.7134182873935E+00
90  8.9000000000000E-01  1.8836026013014E-01  1.7334432246877E+00
91  9.0000000000000E-01  1.4004054234251E-01  1.7486507042703E+00
92  9.1000000000000E-01  9.3747256925526E-02  1.7588553043499E+00
93  9.2000000000000E-01  4.9651381443297E-02  1.7638941264332E+00
94  9.3000000000000E-01  7.9107636189001E-03  1.7636303477574E+00
95  9.4000000000000E-01 -3.1331414257815E-02  1.7579567261816E+00
96  9.5000000000000E-01 -6.7948097573034E-02  1.7467989817901E+00
97  9.6000000000000E-01 -1.0182972256319E-01  1.7301189771570E+00
98  9.7000000000000E-01 -1.3288545474727E-01  1.7079176175039E+00
99  9.8000000000000E-01 -1.6104427750286E-01  1.6802373929225E+00
100  9.9000000000000E-01 -1.8625590675156E-01  1.6471644874640E+00
101  1.0000000000000E+00 -2.0849150931598E-01  1.6088303842041E+00
102  1.0100000000000E+00 -2.2774420460980E-01  1.5654129013442E+00
103  1.0200000000000E+00 -2.4402933189502E-01  1.5171366019090E+00
104  1.0300000000000E+00 -2.5738446835027E-01  1.4642725285415E+00
105  1.0400000000000E+00 -2.6786918659372E-01  1.4071372251312E+00
106  1.0500000000000E+00 -2.7556454403083E-01  1.3460910183345E+00
107  1.0600000000000E+00 -2.8057230038811E-01  1.2815355442636E+00
108  1.0700000000000E+00 -2.8301386397804E-01  1.2139105185072E+00
109  1.0800000000000E+00 -2.8302897152223E-01  1.1436897608891E+00
110  1.0900000000000E+00 -2.8077411068270E-01  1.0713764997991E+00
111  1.1000000000000E+00 -2.7642069869591E-01  9.9749799414829E-01
112  1.1100000000000E+00 -2.7015303461220E-01  9.2259952383592E-01
113  1.1200000000000E+00 -2.6216604651123E-01  8.4723781171696E-01
114  1.1300000000000E+00 -2.5266285861542E-01  7.7197395119654E-01
115  1.1400000000000E+00 -2.4185220638391E-01  6.9736592350082E-01
116  1.1500000000000E+00 -2.2994573036126E-01  6.2396079713355E-01
117  1.1600000000000E+00 -2.1715518172475E-01  5.5228670885506E-01
118  1.1700000000000E+00 -2.0368957406308E-01  4.8284473051831E-01
119  1.1800000000000E+00 -1.8975231689085E-01  4.1610072915327E-01
120  1.1900000000000E+00 -1.7553836670571E-01  3.5247732858046E-01
121  1.2000000000000E+00 -1.6123143407903E-01  2.9234609673339E-01
122  1.2100000000000E+00 -1.4700127401395E-01  2.3602002172995E-01
123  1.2200000000000E+00 -1.3300216601011E-01  1.8375227067454E-01
124  1.2300000000000E+00 -1.1937366533166E-01  1.3574609412860E-01
125  1.2400000000000E+00 -1.0624024442558E-01  9.2156583756831E-02
126  1.2500000000000E+00 -9.3710359154693E-02  5.3088395969759E-02
127  1.2600000000000E+00 -8.1875766133175E-02  1.8594275977022E-02
128  1.2700000000000E+00 -7.0811092731514E-02 -1.1325641099195E-02
129  1.2800000000000E+00 -6.0573670768629E-02 -3.6723710159562E-02
130  1.2900000000000E+00 -5.1203637690904E-02 -5.7703825130055E-02
131  1.3000000000000E+00 -4.2724304455793E-02 -7.4419639509336E-02
132  1.3100000000000E+00 -3.5142784597413E-02 -8.7071976136233E-02
133  1.3200000000000E+00 -2.8450874297617E-02 -9.5905458713876E-02
134  1.3300000000000E+00 -2.2626168759648E-02 -1.0120441212591E-01
135  1.3400000000000E+00 -1.7633395862871E-02 -1.0328809245737E-01
136  1.3500000000000E+00 -1.3425944080286E-02 -1.0250532041486E-01
137  1.3600000000000E+00 -9.9475580234660E-03 -9.9228603483231E-02
138  1.3700000000000E+00 -7.1341718044670E-03 -9.3847842366268E-02
139  1.3800000000000E+00 -4.9158478061929E-03 -8.6763725574277E-02
140  1.3900000000000E+00 -3.2187863424792E-03 -7.8380922862568E-02
141  1.4000000000000E+00 -1.9673687898450E-03 -6.9101196305646E-02
142  1.4100000000000E+00 -1.0862186752705E-03 -5.9316496378940E-02
143  1.4200000000000E+00 -5.0213776157773E-04 -4.9402409881277E-02
144  1.4300000000000E+00 -1.4671766936223E-04 -3.9710104599399E-02
145  1.4400000000000E+00  3.4326367946087E-05 -3.0541966788625E-02
146  1.4500000000000E+00  9.5798488587939E-05 -2.2185064175442E-02
147  1.4600000000000E+00  8.9644155472487E-05 -1.4902324626211E-02
148  1.4700000000000E+00  5.6002882851182E-05 -8.9099525376689E-03
149  1.4800000000000E+00  2.2562343742585E-05 -4.3761738897844E-03
150  1.4900000000000E+00  3.7538298398994E-06 -1.4021275324339E-03
151  1.5000000000000E+00 -1.6716167443508E-07 -1.1112406008636E-04
152  1.5100000000000E+00  5.4538932185346E-08  1.6354341435970E-05
153  1.5200000000000E+00 -3.5780528760182E-09 -3.4827905047800E-06
154  1.53 -0.  0.
155  1.54  0.  0.
156  1.55  0.  0.
157  1.56  0.  0.
158  1.57  0.  0.
159  1.58  0.  0.
160  1.59  0.  0.
161  1.60  0.  0.
162  1.61  0.  0.
163  1.62  0.  0.
164  1.63  0.  0.
165  1.64  0.  0.
166  1.65  0.  0.
167  1.66  0.  0.
168  1.67  0.  0.
169  1.68  0.  0.
170  1.69  0.  0.
171  1.70  0.  0.
172  1.71  0.  0.
173  1.72  0.  0.
174  1.73  0.  0.
175  1.74  0.  0.
176  1.75  0.  0.
177  1.76  0.  0.
178  1.77  0.  0.
179  1.78  0.  0.
180  1.79  0.  0.
181  1.80  0.  0.
182  1.81  0.  0.
183  1.82  0.  0.
184  1.83  0.  0.
185  1.84  0.  0.
186  1.85  0.  0.
187  1.86  0.  0.
188  1.87  0.  0.
189  1.88  0.  0.
190  1.89  0.  0.
191  1.90  0.  0.
192  1.91  0.  0.
193  1.92  0.  0.
194  1.93  0.  0.
195  1.94  0.  0.
196  1.95  0.  0.
197  1.96  0.  0.
198  1.97  0.  0.
199  1.98  0.  0.
200  1.99  0.  0.
201  2.00  0.  0.
202  2.01  0.  0.
203  2.02  0.  0.
204  2.03  0.  0.
205  2.04  0.  0.
206  2.05  0.  0.
207  2.06  0.  0.
208  2.07  0.  0.
209  2.08  0.  0.
210  2.09  0.  0.
211  2.10  0.  0.
212  2.11  0.  0.
213  2.12  0.  0.
214  2.13  0.  0.
215  2.14  0.  0.
216  2.15  0.  0.
217  2.16  0.  0.
218  2.17  0.  0.
219  2.18  0.  0.
220  2.19  0.  0.