Nh    ONCVPSP-4.0.1  r_core=   1.35777   1.35777   1.35777   1.40739
113.0000     35.0000      230504    zatom,zion,pspd
8      11   3     4   600     0    pspcod,pspxc,lmax,lloc,mmax,r2well
5.99000000  5.00000000  0.00000000    rchrg fchrg qchrg
2     2     2     2     0    nproj
1     1           extension_switch
0                         3.1393164715026E+01  2.9989910942025E+00
1  0.0000000000000E+00  1.0814297346506E-08 -2.5021897220867E-08
2  1.0000000000000E-02  5.2719522059988E-02  3.7030530482546E-02
3  2.0000000000000E-02  1.0559834222837E-01  7.3459261510343E-02
4  3.0000000000000E-02  1.5879016419321E-01  1.0869735059346E-01
5  4.0000000000000E-02  2.1243762916769E-01  1.4218158021485E-01
6  5.0000000000000E-02  2.6666709770271E-01  1.7338645455577E-01
7  6.0000000000000E-02  3.2158379920421E-01  2.0183545572211E-01
8  7.0000000000000E-02  3.7726745865914E-01  2.2711120954206E-01
9  8.0000000000000E-02  4.3376849925957E-01  2.4886433602780E-01
10  9.0000000000000E-02  4.9110490656622E-01  2.6682078977491E-01
11  1.0000000000000E-01  5.4925982486822E-01  2.8078753022101E-01
12  1.1000000000000E-01  6.0817993981670E-01  2.9065640000094E-01
13  1.2000000000000E-01  6.6777468361447E-01  2.9640613073811E-01
14  1.3000000000000E-01  7.2791628043965E-01  2.9810243855203E-01
15  1.4000000000000E-01  7.8844063079257E-01  2.9589621534942E-01
16  1.5000000000000E-01  8.4914901451757E-01  2.9001986558838E-01
17  1.6000000000000E-01  9.0981057379921E-01  2.8078188064997E-01
18  1.7000000000000E-01  9.7016551988897E-01  2.6855978323567E-01
19  1.8000000000000E-01  1.0299289910875E+00  2.5379161139243E-01
20  1.9000000000000E-01  1.0887954749632E+00  2.3696614498331E-01
21  2.0000000000000E-01  1.1464436952671E+00  2.1861210589038E-01
22  2.1000000000000E-01  1.2025418537935E+00  1.9928658628754E-01
23  2.2000000000000E-01  1.2567531097811E+00  1.7956297640733E-01
24  2.3000000000000E-01  1.3087411745176E+00  1.6001867393465E-01
25  2.4000000000000E-01  1.3581758967318E+00  1.4122286123225E-01
26  2.5000000000000E-01  1.4047387151715E+00  1.2372463392123E-01
27  2.6000000000000E-01  1.4481278584648E+00  1.0804175495916E-01
28  2.7000000000000E-01  1.4880631788569E+00  9.4650292474216E-02
29  2.8000000000000E-01  1.5242905155642E+00  8.3975377588531E-02
30  2.9000000000000E-01  1.5565854950715E+00  7.6383290795479E-02
31  3.0000000000000E-01  1.5847566894619E+00  7.2175052781865E-02
32  3.1000000000000E-01  1.6086480694748E+00  7.1581658664684E-02
33  3.2000000000000E-01  1.6281407060880E+00  7.4761054301967E-02
34  3.3000000000000E-01  1.6431536926038E+00  8.1796910588580E-02
35  3.4000000000000E-01  1.6536442780533E+00  9.2699207465303E-02
36  3.5000000000000E-01  1.6596072217887E+00  1.0740659480662E-01
37  3.6000000000000E-01  1.6610733979309E+00  1.2579045347305E-01
38  3.7000000000000E-01  1.6581076964535E+00  1.4766053767561E-01
39  3.8000000000000E-01  1.6508062846565E+00  1.7277204042656E-01
40  3.9000000000000E-01  1.6392933082148E+00  2.0083388820908E-01
41  4.0000000000000E-01  1.6237171244884E+00  2.3151803997225E-01
42  4.1000000000000E-01  1.6042461720249E+00  2.6446953993291E-01
43  4.2000000000000E-01  1.5810645888754E+00  2.9931705410065E-01
44  4.3000000000000E-01  1.5543676982694E+00  3.3568360746239E-01
45  4.4000000000000E-01  1.5243574831726E+00  3.7319723273789E-01
46  4.5000000000000E-01  1.4912381712108E+00  4.1150124275597E-01
47  4.6000000000000E-01  1.4552120483386E+00  4.5026384684413E-01
48  4.7000000000000E-01  1.4164756135386E+00  4.8918684703708E-01
49  4.8000000000000E-01  1.3752161778548E+00  5.2801317209178E-01
50  4.9000000000000E-01  1.3316089994102E+00  5.6653303577758E-01
51  5.0000000000000E-01  1.2858150319706E+00  6.0458854006690E-01
52  5.1000000000000E-01  1.2379793484382E+00  6.4207658291449E-01
53  5.2000000000000E-01  1.1882302827473E+00  6.7894997338813E-01
54  5.3000000000000E-01  1.1366793144225E+00  7.1521670299576E-01
55  5.4000000000000E-01  1.0834217000057E+00  7.5093737005657E-01
56  5.5000000000000E-01  1.0285378351400E+00  7.8622080273653E-01
57  5.6000000000000E-01  9.7209531082087E-01  8.2121797473102E-01
58  5.7000000000000E-01  9.1415160769410E-01  8.5611435433581E-01
59  5.8000000000000E-01  8.5475735377875E-01  8.9112087163704E-01
60  5.9000000000000E-01  7.9396005411040E-01  9.2646372865067E-01
61  6.0000000000000E-01  7.3180818596497E-01  9.6237331240962E-01
62  6.1000000000000E-01  6.6835554094268E-01  9.9907250029332E-01
63  6.2000000000000E-01  6.0366568560899E-01  1.0367646695031E+00
64  6.3000000000000E-01  5.3781640588774E-01  1.0756217378460E+00
65  6.4000000000000E-01  4.7090399719743E-01  1.1157725703911E+00
66  6.5000000000000E-01  4.0304726255148E-01  1.1572920857907E+00
67  6.6000000000000E-01  3.3439108456630E-01  1.2001913869801E+00
68  6.7000000000000E-01  2.6510944451223E-01  1.2444092236421E+00
69  6.8000000000000E-01  1.9540777209295E-01  1.2898050685265E+00
70  6.9000000000000E-01  1.2552452335910E-01  1.3361540568792E+00
71  7.0000000000000E-01  5.5731900780109E-02  1.3831439985348E+00
72  7.1000000000000E-01 -1.3664351327852E-02  1.4303746264555E+00
73  7.2000000000000E-01 -8.2326121502861E-02  1.4773591946489E+00
74  7.3000000000000E-01 -1.4988509846113E-01  1.5235284835759E+00
75  7.4000000000000E-01 -2.1594592939004E-01  1.5682372136011E+00
76  7.5000000000000E-01 -2.8009034280966E-01  1.6107728080551E+00
77  7.6000000000000E-01 -3.4188218483207E-01  1.6503663884453E+00
78  7.7000000000000E-01 -4.0087329344843E-01  1.6862058266656E+00
79  7.8000000000000E-01 -4.5661011243183E-01  1.7174506241198E+00
80  7.9000000000000E-01 -5.0864092513258E-01  1.7432483368251E+00
81  8.0000000000000E-01 -5.5652356940174E-01  1.7627522201011E+00
82  8.1000000000000E-01 -5.9983347860934E-01  1.7751397275446E+00
83  8.2000000000000E-01 -6.3817188066838E-01  1.7796314676975E+00
84  8.3000000000000E-01 -6.7117397750835E-01  1.7755101990137E+00
85  8.4000000000000E-01 -6.9851692186547E-01  1.7621394301442E+00
86  8.5000000000000E-01 -7.1992740678179E-01  1.7389811886759E+00
87  8.6000000000000E-01 -7.3518868595647E-01  1.7056125275867E+00
88  8.7000000000000E-01 -7.4414685009540E-01  1.6617403548629E+00
89  8.8000000000000E-01 -7.4671619558905E-01  1.6072141978136E+00
90  8.9000000000000E-01 -7.4288353704267E-01  1.5420365491937E+00
91  9.0000000000000E-01 -7.3271133412360E-01  1.4663704866984E+00
92  9.1000000000000E-01 -7.1633952551964E-01  1.3805443098680E+00
93  9.2000000000000E-01 -6.9398598808078E-01  1.2850529979035E+00
94  9.3000000000000E-01 -6.6594556692736E-01  1.1805563571260E+00
95  9.4000000000000E-01 -6.3258765187017E-01  1.0678737964329E+00
96  9.5000000000000E-01 -5.9435230626606E-01  9.4797574162588E-01
97  9.6000000000000E-01 -5.5174498576318E-01  8.2197177332382E-01
98  9.7000000000000E-01 -5.0532991556368E-01  6.9109564667119E-01
99  9.8000000000000E-01 -4.5572222516063E-01  5.5668742256880E-01
100  9.9000000000000E-01 -4.0357896827378E-01  4.2017300800878E-01
101  1.0000000000000E+00 -3.4958918227248E-01  2.8304146576390E-01
102  1.0100000000000E+00 -2.9446316507294E-01  1.4682050960425E-01
103  1.0200000000000E+00 -2.3892116776680E-01  1.3050649060484E-02
104  1.0300000000000E+00 -1.8368171757296E-01 -1.1674151367419E-01
105  1.0400000000000E+00 -1.2944979767329E-01 -2.4107030382900E-01
106  1.0500000000000E+00 -7.6905117749521E-02 -3.5851776307946E-01
107  1.0600000000000E+00 -2.6690711373283E-02 -4.6775965389272E-01
108  1.0700000000000E+00  2.0597906351962E-02 -5.6759013200397E-01
109  1.0800000000000E+00  6.4422795299139E-02 -6.5694455816247E-01
110  1.0900000000000E+00  1.0431264820907E-01 -7.3491995047694E-01
111  1.1000000000000E+00  1.3987065475355E-01 -8.0079262002009E-01
112  1.1100000000000E+00  1.7078099860779E-01 -8.5403258428116E-01
113  1.1200000000000E+00  1.9681384043940E-01 -8.9431441446205E-01
114  1.1300000000000E+00  2.1782866928717E-01 -9.2152424226490E-01
115  1.1400000000000E+00  2.3377593734039E-01 -9.3576272847666E-01
116  1.1500000000000E+00  2.4469692782841E-01 -9.3734387740771E-01
117  1.1600000000000E+00  2.5072184204077E-01 -9.2678966679198E-01
118  1.1700000000000E+00  2.5206612846788E-01 -9.0482054985582E-01
119  1.1800000000000E+00  2.4902511402365E-01 -8.7234197336249E-01
120  1.1900000000000E+00  2.4196703345034E-01 -8.3042714057009E-01
121  1.2000000000000E+00  2.3132458740168E-01 -7.8029632905551E-01
122  1.2100000000000E+00  2.1758519189723E-01 -7.2329314917882E-01
123  1.2200000000000E+00  2.0128011066031E-01 -6.6085819681353E-01
124  1.2300000000000E+00  1.8297268718284E-01 -5.9450061358387E-01
125  1.2400000000000E+00  1.6324591414856E-01 -5.2576811674607E-01
126  1.2500000000000E+00  1.4268959391313E-01 -4.5621609860548E-01
127  1.2600000000000E+00  1.2188735461346E-01 -3.8737642085916E-01
128  1.2700000000000E+00  1.0140380534275E-01 -3.2072657137171E-01
129  1.2800000000000E+00  8.1771979301506E-02 -2.5765955315621E-01
130  1.2900000000000E+00  6.3481029463919E-02 -1.9945450693363E-01
131  1.3000000000000E+00  4.6921301807421E-02 -1.4715358184266E-01
132  1.3100000000000E+00  3.2446984878133E-02 -1.0169651663471E-01
133  1.3200000000000E+00  2.0399069524840E-02 -6.3971308460709E-02
134  1.3300000000000E+00  1.1027751737831E-02 -3.4643078921420E-02
135  1.3400000000000E+00  4.4919171308834E-03 -1.4152647578394E-02
136  1.3500000000000E+00  8.5280077496430E-04 -2.6981340664201E-03
137  1.3600000000000E+00 -4.1888230694892E-05  1.3306494702372E-04
138  1.3700000000000E+00  1.3530322562629E-05 -4.2913461430045E-05
139  1.38 -0.  0.
140  1.39 -0.  0.
141  1.40  0.  0.
142  1.41  0.  0.
143  1.42  0.  0.
144  1.43  0.  0.
145  1.44  0.  0.
146  1.45  0.  0.
147  1.46  0.  0.
148  1.47  0.  0.
149  1.48  0.  0.
150  1.49  0.  0.
151  1.50  0.  0.
152  1.51  0.  0.
153  1.52  0.  0.
154  1.53  0.  0.
155  1.54  0.  0.
156  1.55  0.  0.
157  1.56  0.  0.
158  1.57  0.  0.
159  1.58  0.  0.
160  1.59  0.  0.
161  1.60  0.  0.
162  1.61  0.  0.
163  1.62  0.  0.
164  1.63  0.  0.
165  1.64  0.  0.
166  1.65  0.  0.
167  1.66  0.  0.
168  1.67  0.  0.
169  1.68  0.  0.
170  1.69  0.  0.
171  1.70  0.  0.
172  1.71  0.  0.
173  1.72  0.  0.
174  1.73  0.  0.
175  1.74  0.  0.
176  1.75  0.  0.
177  1.76  0.  0.
178  1.77  0.  0.
179  1.78  0.  0.
180  1.79  0.  0.
181  1.80  0.  0.
182  1.81  0.  0.
183  1.82  0.  0.
184  1.83  0.  0.
185  1.84  0.  0.
186  1.85  0.  0.
187  1.86  0.  0.
188  1.87  0.  0.
189  1.88  0.  0.
190  1.89  0.  0.
191  1.90  0.  0.
192  1.91  0.  0.
193  1.92  0.  0.
194  1.93  0.  0.
195  1.94  0.  0.
196  1.95  0.  0.
197  1.96  0.  0.
198  1.97  0.  0.
199  1.98  0.  0.
200  1.99  0.  0.
201  2.00  0.  0.
202  2.01  0.  0.
203  2.02  0.  0.
204  2.03  0.  0.
205  2.04  0.  0.
206  2.05  0.  0.
207  2.06  0.  0.
208  2.07  0.  0.
209  2.08  0.  0.
210  2.09  0.  0.
211  2.10  0.  0.
212  2.11  0.  0.
213  2.12  0.  0.
214  2.13  0.  0.
215  2.14  0.  0.
216  2.15  0.  0.
217  2.16  0.  0.
218  2.17  0.  0.
219  2.18  0.  0.
220  2.19  0.  0.
221  2.20  0.  0.
222  2.21  0.  0.
223  2.22  0.  0.
224  2.23  0.  0.
225  2.24  0.  0.
226  2.25  0.  0.
227  2.26  0.  0.
228  2.27  0.  0.
229  2.28  0.  0.
230  2.29  0.  0.
231  2.30  0.  0.
232  2.31  0.  0.
233  2.32  0.  0.
234  2.33  0.  0.
235  2.34  0.  0.
236  2.35  0.  0.
237  2.36  0.  0.
238  2.37  0.  0.
239  2.38  0.  0.
240  2.39  0.  0.
241  2.40  0.  0.
242  2.41  0.  0.
243  2.42  0.  0.
244  2.43  0.  0.
245  2.44  0.  0.
246  2.45  0.  0.
247  2.46  0.  0.
248  2.47  0.  0.
249  2.48  0.  0.
250  2.49  0.  0.
251  2.50  0.  0.
252  2.51  0.  0.
253  2.52  0.  0.
254  2.53  0.  0.
255  2.54  0.  0.
256  2.55  0.  0.
257  2.56  0.  0.
258  2.57  0.  0.
259  2.58  0.  0.
260  2.59  0.  0.
261  2.60  0.  0.
262  2.61  0.  0.
263  2.62  0.  0.
264  2.63  0.  0.
265  2.64  0.  0.
266  2.65  0.  0.
267  2.66  0.  0.
268  2.67  0.  0.
269  2.68  0.  0.
270  2.69  0.  0.
271  2.70  0.  0.
272  2.71  0.  0.
273  2.72  0.  0.
274  2.73  0.  0.
275  2.74  0.  0.
276  2.75  0.  0.
277  2.76  0.  0.
278  2.77  0.  0.
279  2.78  0.  0.
280  2.79  0.  0.
281  2.80  0.  0.
282  2.81  0.  0.
283  2.82  0.  0.
284  2.83  0.  0.
285  2.84  0.  0.
286  2.85  0.  0.
287  2.86  0.  0.
288  2.87  0.  0.
289  2.88  0.  0.
290  2.89  0.  0.
291  2.90  0.  0.
292  2.91  0.  0.
293  2.92  0.  0.
294  2.93  0.  0.
295  2.94  0.  0.
296  2.95  0.  0.
297  2.96  0.  0.
298  2.97  0.  0.
299  2.98  0.  0.
300  2.99  0.  0.
301  3.00  0.  0.
302  3.01  0.  0.
303  3.02  0.  0.
304  3.03  0.  0.
305  3.04  0.  0.
306  3.05  0.  0.
307  3.06  0.  0.
308  3.07  0.  0.
309  3.08  0.  0.
310  3.09  0.  0.
311  3.10  0.  0.
312  3.11  0.  0.
313  3.12  0.  0.
314  3.13  0.  0.
315  3.14  0.  0.
316  3.15  0.  0.
317  3.16  0.  0.
318  3.17  0.  0.
319  3.18  0.  0.
320  3.19  0.  0.
321  3.20  0.  0.
322  3.21  0.  0.
323  3.22  0.  0.
324  3.23  0.  0.
325  3.24  0.  0.
326  3.25  0.  0.
327  3.26  0.  0.
328  3.27  0.  0.
329  3.28  0.  0.
330  3.29  0.  0.
331  3.30  0.  0.
332  3.31  0.  0.
333  3.32  0.  0.
334  3.33  0.  0.
335  3.34  0.  0.
336  3.35  0.  0.
337  3.36  0.  0.
338  3.37  0.  0.
339  3.38  0.  0.
340  3.39  0.  0.
341  3.40  0.  0.
342  3.41  0.  0.
343  3.42  0.  0.
344  3.43  0.  0.
345  3.44  0.  0.
346  3.45  0.  0.
347  3.46  0.  0.
348  3.47  0.  0.
349  3.48  0.  0.
350  3.49  0.  0.
351  3.50  0.  0.
352  3.51  0.  0.
353  3.52  0.  0.
354  3.53  0.  0.
355  3.54  0.  0.
356  3.55  0.  0.
357  3.56  0.  0.
358  3.57  0.  0.
359  3.58  0.  0.
360  3.59  0.  0.
361  3.60  0.  0.
362  3.61  0.  0.
363  3.62  0.  0.
364  3.63  0.  0.
365  3.64  0.  0.
366  3.65  0.  0.
367  3.66  0.  0.
368  3.67  0.  0.
369  3.68  0.  0.
370  3.69  0.  0.
371  3.70  0.  0.
372  3.71  0.  0.
373  3.72  0.  0.
374  3.73  0.  0.
375  3.74  0.  0.
376  3.75  0.  0.
377  3.76  0.  0.
378  3.77  0.  0.
379  3.78  0.  0.
380  3.79  0.  0.
381  3.80  0.  0.
382  3.81  0.  0.
383  3.82  0.  0.
384  3.83  0.  0.
385  3.84  0.  0.
386  3.85  0.  0.
387  3.86  0.  0.
388  3.87  0.  0.
389  3.88  0.  0.
390  3.89  0.  0.
391  3.90  0.  0.
392  3.91  0.  0.
393  3.92  0.  0.
394  3.93  0.  0.
395  3.94  0.  0.
396  3.95  0.  0.
397  3.96  0.  0.
398  3.97  0.  0.
399  3.98  0.  0.
400  3.99  0.  0.
401  4.00  0.  0.
402  4.01  0.  0.
403  4.02  0.  0.
404  4.03  0.  0.
405  4.04  0.  0.
406  4.05  0.  0.
407  4.06  0.  0.
408  4.07  0.  0.
409  4.08  0.  0.
410  4.09  0.  0.
411  4.10  0.  0.
412  4.11  0.  0.
413  4.12  0.  0.
414  4.13  0.  0.
415  4.14  0.  0.
416  4.15  0.  0.
417  4.16  0.  0.
418  4.17  0.  0.
419  4.18  0.  0.
420  4.19  0.  0.
421  4.20  0.  0.
422  4.21  0.  0.
423  4.22  0.  0.
424  4.23  0.  0.
425  4.24  0.  0.
426  4.25  0.  0.
427  4.26  0.  0.
428  4.27  0.  0.
429  4.28  0.  0.
430  4.29  0.  0.
431  4.30  0.  0.
432  4.31  0.  0.
433  4.32  0.  0.
434  4.33  0.  0.
435  4.34  0.  0.
436  4.35  0.  0.
437  4.36  0.  0.
438  4.37  0.  0.
439  4.38  0.  0.
440  4.39  0.  0.
441  4.40  0.  0.
442  4.41  0.  0.
443  4.42  0.  0.
444  4.43  0.  0.
445  4.44  0.  0.
446  4.45  0.  0.
447  4.46  0.  0.
448  4.47  0.  0.
449  4.48  0.  0.
450  4.49  0.  0.
451  4.50  0.  0.
452  4.51  0.  0.
453  4.52  0.  0.
454  4.53  0.  0.
455  4.54  0.  0.
456  4.55  0.  0.
457  4.56  0.  0.
458  4.57  0.  0.
459  4.58  0.  0.
460  4.59  0.  0.
461  4.60  0.  0.
462  4.61  0.  0.
463  4.62  0.  0.
464  4.63  0.  0.
465  4.64  0.  0.
466  4.65  0.  0.
467  4.66  0.  0.
468  4.67  0.  0.
469  4.68  0.  0.
470  4.69  0.  0.
471  4.70  0.  0.
472  4.71  0.  0.
473  4.72  0.  0.
474  4.73  0.  0.
475  4.74  0.  0.
476  4.75  0.  0.
477  4.76  0.  0.
478  4.77  0.  0.
479  4.78  0.  0.
480  4.79  0.  0.
481  4.80  0.  0.
482  4.81  0.  0.
483  4.82  0.  0.
484  4.83  0.  0.
485  4.84  0.  0.
486  4.85  0.  0.
487  4.86  0.  0.
488  4.87  0.  0.
489  4.88  0.  0.
490  4.89  0.  0.
491  4.90  0.  0.
492  4.91  0.  0.
493  4.92  0.  0.
494  4.93  0.  0.
495  4.94  0.  0.
496  4.95  0.  0.
497  4.96  0.  0.
498  4.97  0.  0.
499  4.98  0.  0.
500  4.99  0.  0.
501  5.00  0.  0.
502  5.01  0.  0.
503  5.02  0.  0.
504  5.03  0.  0.
505  5.04  0.  0.
506  5.05  0.  0.
507  5.06  0.  0.
508  5.07  0.  0.
509  5.08  0.  0.
510  5.09  0.  0.
511  5.10  0.  0.
512  5.11  0.  0.
513  5.12  0.  0.
514  5.13  0.  0.
515  5.14  0.  0.
516  5.15  0.  0.
517  5.16  0.  0.
518  5.17  0.  0.
519  5.18  0.  0.
520  5.19  0.  0.
521  5.20  0.  0.
522  5.21  0.  0.
523  5.22  0.  0.
524  5.23  0.  0.
525  5.24  0.  0.
526  5.25  0.  0.
527  5.26  0.  0.
528  5.27  0.  0.
529  5.28  0.  0.
530  5.29  0.  0.
531  5.30  0.  0.
532  5.31  0.  0.
533  5.32  0.  0.
534  5.33  0.  0.
535  5.34  0.  0.
536  5.35  0.  0.
537  5.36  0.  0.
538  5.37  0.  0.
539  5.38  0.  0.
540  5.39  0.  0.
541  5.40  0.  0.
542  5.41  0.  0.
543  5.42  0.  0.
544  5.43  0.  0.
545  5.44  0.  0.
546  5.45  0.  0.
547  5.46  0.  0.
548  5.47  0.  0.
549  5.48  0.  0.
550  5.49  0.  0.
551  5.50  0.  0.
552  5.51  0.  0.
553  5.52  0.  0.
554  5.53  0.  0.
555  5.54  0.  0.
556  5.55  0.  0.
557  5.56  0.  0.
558  5.57  0.  0.
559  5.58  0.  0.
560  5.59  0.  0.
561  5.60  0.  0.
562  5.61  0.  0.
563  5.62  0.  0.
564  5.63  0.  0.
565  5.64  0.  0.
566  5.65  0.  0.
567  5.66  0.  0.
568  5.67  0.  0.
569  5.68  0.  0.
570  5.69  0.  0.
571  5.70  0.  0.
572  5.71  0.  0.
573  5.72  0.  0.
574  5.73  0.  0.
575  5.74  0.  0.
576  5.75  0.  0.
577  5.76  0.  0.
578  5.77  0.  0.
579  5.78  0.  0.
580  5.79  0.  0.
581  5.80  0.  0.
582  5.81  0.  0.
583  5.82  0.  0.
584  5.83  0.  0.
585  5.84  0.  0.
586  5.85  0.  0.
587  5.86  0.  0.
588  5.87  0.  0.
589  5.88  0.  0.
590  5.89  0.  0.
591  5.90  0.  0.
592  5.91  0.  0.
593  5.92  0.  0.
594  5.93  0.  0.
595  5.94  0.  0.
596  5.95  0.  0.
597  5.96  0.  0.
598  5.97  0.  0.
599  5.98  0.  0.
600  5.99  0.  0.
1                         1.2691472204913E+01  1.1212688323661E+00
1  0.0000000000000E+00  1.5645017503729E-09 -1.1344210168462E-08
2  1.0000000000000E-02  1.4249600554277E-03 -1.2735451445249E-03
3  2.0000000000000E-02  5.6938785006533E-03 -5.0762479262333E-03
4  3.0000000000000E-02  1.2788921659872E-02 -1.1354639381045E-02
5  4.0000000000000E-02  2.2680537429307E-02 -2.0020694471675E-02
6  5.0000000000000E-02  3.5327708057279E-02 -3.0953443504841E-02
7  6.0000000000000E-02  5.0678297598933E-02 -4.4001181728586E-02
8  7.0000000000000E-02  6.8669487770724E-02 -5.8984231851319E-02
9  8.0000000000000E-02  8.9228294365283E-02 -7.5698202879991E-02
10  9.0000000000000E-02  1.1227215498766E-01 -9.3917678478349E-02
11  1.0000000000000E-01  1.3770957766885E-01 -1.1340025920502E-01
12  1.1000000000000E-01  1.6544083892743E-01 -1.3389087568791E-01
13  1.2000000000000E-01  1.9535871910688E-01 -1.5512628417720E-01
14  1.3000000000000E-01  2.2734926232968E-01 -1.7683965211193E-01
15  1.4000000000000E-01  2.6129254819235E-01 -1.9876513941901E-01
16  1.5000000000000E-01  2.9706346238138E-01 -2.2064238128167E-01
17  1.6000000000000E-01  3.3453245372058E-01 -2.4222078007572E-01
18  1.7000000000000E-01  3.7356626575737E-01 -2.6326351804389E-01
19  1.8000000000000E-01  4.1402863184947E-01 -2.8355120799033E-01
20  1.9000000000000E-01  4.5578092380568E-01 -3.0288510672387E-01
21  2.0000000000000E-01  4.9868274544382E-01 -3.2108982501571E-01
22  2.1000000000000E-01  5.4259246392827E-01 -3.3801547829130E-01
23  2.2000000000000E-01  5.8736767340812E-01 -3.5353923394373E-01
24  2.3000000000000E-01  6.3286558725972E-01 -3.6756622380598E-01
25  2.4000000000000E-01  6.7894335710797E-01 -3.8002980370362E-01
26  2.5000000000000E-01  7.2545831871810E-01 -3.9089115585901E-01
27  2.6000000000000E-01  7.7226816677449E-01 -4.0013824395661E-01
28  2.7000000000000E-01  8.1923106245217E-01 -4.0778414462152E-01
29  2.8000000000000E-01  8.6620567950026E-01 -4.1386479262640E-01
30  2.9000000000000E-01  9.1305119625362E-01 -4.1843619004620E-01
31  3.0000000000000E-01  9.5962724253165E-01 -4.2157114155845E-01
32  3.1000000000000E-01  1.0057938117359E+00 -4.2335558888549E-01
33  3.2000000000000E-01  1.0514111495888E+00 -4.2388462676597E-01
34  3.3000000000000E-01  1.0963396318381E+00 -4.2325829061866E-01
35  3.4000000000000E-01  1.1404396438579E+00 -4.2157721204958E-01
36  3.5000000000000E-01  1.1835714753979E+00 -4.1893824241214E-01
37  3.6000000000000E-01  1.2255952437458E+00 -4.1543014665613E-01
38  3.7000000000000E-01  1.2663708582759E+00 -4.1112946963022E-01
39  3.8000000000000E-01  1.3057580387559E+00 -4.0609667481181E-01
40  3.9000000000000E-01  1.3436163988795E+00 -4.0037265114540E-01
41  4.0000000000000E-01  1.3798056053030E+00 -3.9397567733805E-01
42  4.1000000000000E-01  1.4141856209997E+00 -3.8689892468801E-01
43  4.2000000000000E-01  1.4466170400389E+00 -3.7910856945502E-01
44  4.3000000000000E-01  1.4769615189765E+00 -3.7054257409265E-01
45  4.4000000000000E-01  1.5050823079352E+00 -3.6111018357285E-01
46  4.5000000000000E-01  1.5308448822150E+00 -3.5069216877945E-01
47  4.6000000000000E-01  1.5541176729252E+00 -3.3914183380381E-01
48  4.7000000000000E-01  1.5747728927367E+00 -3.2628678823081E-01
49  4.8000000000000E-01  1.5926874504512E+00 -3.1193146946444E-01
50  4.9000000000000E-01  1.6077439457210E+00 -2.9586038412447E-01
51  5.0000000000000E-01  1.6198317329891E+00 -2.7784202186912E-01
52  5.1000000000000E-01  1.6288480415826E+00 -2.5763337998057E-01
53  5.2000000000000E-01  1.6346991369503E+00 -2.3498502299822E-01
54  5.3000000000000E-01  1.6373015063121E+00 -2.0964658889236E-01
55  5.4000000000000E-01  1.6365830505311E+00 -1.8137264201178E-01
56  5.5000000000000E-01  1.6324842628689E+00 -1.4992876355646E-01
57  5.6000000000000E-01  1.6249593744546E+00 -1.1509776283754E-01
58  5.7000000000000E-01  1.6139774458307E+00 -7.6685887268334E-02
59  5.8000000000000E-01  1.5995233838361E+00 -3.4528906020065E-02
60  5.9000000000000E-01  1.5815988633681E+00  1.1502058331004E-02
61  6.0000000000000E-01  1.5602231342319E+00  6.1495073992210E-02
62  6.1000000000000E-01  1.5354336943314E+00  1.1549243950738E-01
63  6.2000000000000E-01  1.5072868118732E+00  1.7348633149426E-01
64  6.3000000000000E-01  1.4758578810226E+00  2.3541516436600E-01
65  6.4000000000000E-01  1.4412415975470E+00  3.0116075464040E-01
66  6.5000000000000E-01  1.4035519433703E+00  3.7054636925518E-01
67  6.6000000000000E-01  1.3629219716066E+00  4.4333572235686E-01
68  6.7000000000000E-01  1.3195033865058E+00  5.1923296857991E-01
69  6.8000000000000E-01  1.2734659157658E+00  5.9788372317164E-01
70  6.9000000000000E-01  1.2249964758080E+00  6.7887712077576E-01
71  7.0000000000000E-01  1.1742981338154E+00  7.6174890560203E-01
72  7.1000000000000E-01  1.1215888735344E+00  8.4598552644121E-01
73  7.2000000000000E-01  1.0671001749965E+00  9.3102919090102E-01
74  7.3000000000000E-01  1.0110754213571E+00  1.0162838147069E+00
75  7.4000000000000E-01  9.5376814892543E-01  1.1011217842911E+00
76  7.5000000000000E-01  8.9544015912048E-01  1.1848914345367E+00
77  7.6000000000000E-01  8.3635951347859E-01  1.2669251287745E+00
78  7.7000000000000E-01  7.7679843491699E-01  1.3465478152526E+00
79  7.8000000000000E-01  7.1703114018438E-01  1.4230859235823E+00
80  7.9000000000000E-01  6.5733162976807E-01  1.4958764563384E+00
81  8.0000000000000E-01  5.9797146245292E-01  1.5642761252377E+00
82  8.1000000000000E-01  5.3921754221875E-01  1.6276703782921E+00
83  8.2000000000000E-01  4.8132994520813E-01  1.6854821641037E+00
84  8.3000000000000E-01  4.2455981409221E-01  1.7371802820839E+00
85  8.4000000000000E-01  3.6914734631154E-01  1.7822871728220E+00
86  8.5000000000000E-01  3.1531990138435E-01  1.8203860110173E+00
87  8.6000000000000E-01  2.6329025077696E-01  1.8511269742109E+00
88  8.7000000000000E-01  2.1325499174666E-01  1.8742325738187E+00
89  8.8000000000000E-01  1.6539314413285E-01  1.8895019504610E+00
90  8.9000000000000E-01  1.1986494632773E-01  1.8968140530247E+00
91  9.0000000000000E-01  7.6810863651708E-02  1.8961296399834E+00
92  9.1000000000000E-01  3.6350819142170E-02  1.8874920618800E+00
93  9.2000000000000E-01 -1.4163466049509E-03  1.8710268051842E+00
94  9.3000000000000E-01 -3.6413183365629E-02  1.8469397995738E+00
95  9.4000000000000E-01 -6.8583707311870E-02  1.8155145126461E+00
96  9.5000000000000E-01 -9.7893248919297E-02  1.7771078777317E+00
97  9.6000000000000E-01 -1.2432807992636E-01  1.7321451214491E+00
98  9.7000000000000E-01 -1.4789482974107E-01  1.6811135774975E+00
99  9.8000000000000E-01 -1.6861970471224E-01  1.6245555915565E+00
100  9.9000000000000E-01 -1.8654752644184E-01  1.5630606386884E+00
101  1.0000000000000E+00 -2.0174060776690E-01  1.4972567889940E+00
102  1.0100000000000E+00 -2.1427748713795E-01  1.4278016691696E+00
103  1.0200000000000E+00 -2.2425154383186E-01  1.3553730768105E+00
104  1.0300000000000E+00 -2.3176951773009E-01  1.2806594106123E+00
105  1.0400000000000E+00 -2.3694995824844E-01  1.2043500828985E+00
106  1.0500000000000E+00 -2.3992162740668E-01  1.1271260810696E+00
107  1.0600000000000E+00 -2.4082188197402E-01  1.0496508416083E+00
108  1.0700000000000E+00 -2.3979505911876E-01  9.7256159420543E-01
109  1.0800000000000E+00 -2.3699088904736E-01  8.9646132453493E-01
110  1.0900000000000E+00 -2.3256295675008E-01  8.2191149228515E-01
111  1.1000000000000E+00 -2.2666723321717E-01  7.4942562654712E-01
112  1.1100000000000E+00 -2.1946069437774E-01  6.7946390374798E-01
113  1.1200000000000E+00 -2.1110004359039E-01  6.1242879436114E-01
114  1.1300000000000E+00 -2.0174055082986E-01  5.4866184396509E-01
115  1.1400000000000E+00 -1.9153501881335E-01  4.8844163220368E-01
116  1.1500000000000E+00 -1.8063288326333E-01  4.3198293031762E-01
117  1.1600000000000E+00 -1.6917945135528E-01  3.7943705449016E-01
118  1.1700000000000E+00 -1.5731527922502E-01  3.3089338883456E-01
119  1.1800000000000E+00 -1.4517568626348E-01  2.8638202880922E-01
120  1.1900000000000E+00 -1.3289040086830E-01  2.4587747363659E-01
121  1.2000000000000E+00 -1.2058332942407E-01  2.0930327542456E-01
122  1.2100000000000E+00 -1.0837243757444E-01  1.7653753336290E-01
123  1.2200000000000E+00 -9.6369730422602E-02  1.4741910424237E-01
124  1.2300000000000E+00 -8.4681316152668E-02  1.2175438563437E-01
125  1.2400000000000E+00 -7.3407535784464E-02  9.9324515950548E-02
126  1.2500000000000E+00 -6.2643140367323E-02  7.9892826332520E-02
127  1.2600000000000E+00 -5.2477495917912E-02  6.3212373147095E-02
128  1.2700000000000E+00 -4.2994793097940E-02  4.9033369494527E-02
129  1.2800000000000E+00 -3.4274268067378E-02  3.7110417132294E-02
130  1.2900000000000E+00 -2.6390441172030E-02  2.7209407700715E-02
131  1.3000000000000E+00 -1.9422550531647E-02  1.9139359119950E-02
132  1.3100000000000E+00 -1.3440755322343E-02  1.2721144044677E-02
133  1.3200000000000E+00 -8.4977643037084E-03  7.7674162611285E-03
134  1.3300000000000E+00 -4.6425313154218E-03  4.1229766657834E-03
135  1.3400000000000E+00 -1.9205076976472E-03  1.6677596315638E-03
136  1.3500000000000E+00 -3.7212604345716E-04  3.1810079217185E-04
137  1.3600000000000E+00  1.8614433632647E-05 -1.5718164378218E-05
138  1.3700000000000E+00 -5.9718979685542E-06  5.0579909927931E-06
139  1.38  0. -0.
140  1.39 -0. -0.
141  1.40  0.  0.
142  1.41  0.  0.
143  1.42  0.  0.
144  1.43  0.  0.
145  1.44  0.  0.
146  1.45  0.  0.
147  1.46  0.  0.
148  1.47  0.  0.
149  1.48  0.  0.
150  1.49  0.  0.
151  1.50  0.  0.
152  1.51  0.  0.
153  1.52  0.  0.
154  1.53  0.  0.
155  1.54  0.  0.
156  1.55  0.  0.
157  1.56  0.  0.
158  1.57  0.  0.
159  1.58  0.  0.
160  1.59  0.  0.
161  1.60  0.  0.
162  1.61  0.  0.
163  1.62  0.  0.
164  1.63  0.  0.
165  1.64  0.  0.
166  1.65  0.  0.
167  1.66  0.  0.
168  1.67  0.  0.
169  1.68  0.  0.
170  1.69  0.  0.
171  1.70  0.  0.
172  1.71  0.  0.
173  1.72  0.  0.
174  1.73  0.  0.
175  1.74  0.  0.
176  1.75  0.  0.
177  1.76  0.  0.
178  1.77  0.  0.
179  1.78  0.  0.
180  1.79  0.  0.
181  1.80  0.  0.
182  1.81  0.  0.
183  1.82  0.  0.
184  1.83  0.  0.
185  1.84  0.  0.
186  1.85  0.  0.
187  1.86  0.  0.
188  1.87  0.  0.
189  1.88  0.  0.
190  1.89  0.  0.
191  1.90  0.  0.
192  1.91  0.  0.
193  1.92  0.  0.
194  1.93  0.  0.
195  1.94  0.  0.
196  1.95  0.  0.
197  1.96  0.  0.
198  1.97  0.  0.
199  1.98  0.  0.
200  1.99  0.  0.
201  2.00  0.  0.
202  2.01  0.  0.
203  2.02  0.  0.
204  2.03  0.  0.
205  2.04  0.  0.
206  2.05  0.  0.
207  2.06  0.  0.
208  2.07  0.  0.
209  2.08  0.  0.
210  2.09  0.  0.
211  2.10  0.  0.
212  2.11  0.  0.
213  2.12  0.  0.
214  2.13  0.  0.
215  2.14  0.  0.
216  2.15  0.  0.
217  2.16  0.  0.
218  2.17  0.  0.
219  2.18  0.  0.
220  2.19  0.  0.
221  2.20  0.  0.
222  2.21  0.  0.
223  2.22  0.  0.
224  2.23  0.  0.
225  2.24  0.  0.
226  2.25  0.  0.
227  2.26  0.  0.
228  2.27  0.  0.
229  2.28  0.  0.
230  2.29  0.  0.
231  2.30  0.  0.
232  2.31  0.  0.
233  2.32  0.  0.
234  2.33  0.  0.
235  2.34  0.  0.
236  2.35  0.  0.
237  2.36  0.  0.
238  2.37  0.  0.
239  2.38  0.  0.
240  2.39  0.  0.
241  2.40  0.  0.
242  2.41  0.  0.
243  2.42  0.  0.
244  2.43  0.  0.
245  2.44  0.  0.
246  2.45  0.  0.
247  2.46  0.  0.
248  2.47  0.  0.
249  2.48  0.  0.
250  2.49  0.  0.
251  2.50  0.  0.
252  2.51  0.  0.
253  2.52  0.  0.
254  2.53  0.  0.
255  2.54  0.  0.
256  2.55  0.  0.
257  2.56  0.  0.
258  2.57  0.  0.
259  2.58  0.  0.
260  2.59  0.  0.
261  2.60  0.  0.
262  2.61  0.  0.
263  2.62  0.  0.
264  2.63  0.  0.
265  2.64  0.  0.
266  2.65  0.  0.
267  2.66  0.  0.
268  2.67  0.  0.
269  2.68  0.  0.
270  2.69  0.  0.
271  2.70  0.  0.
272  2.71  0.  0.
273  2.72  0.  0.
274  2.73  0.  0.
275  2.74  0.  0.
276  2.75  0.  0.
277  2.76  0.  0.
278  2.77  0.  0.
279  2.78  0.  0.
280  2.79  0.  0.
281  2.80  0.  0.
282  2.81  0.  0.
283  2.82  0.  0.
284  2.83  0.  0.
285  2.84  0.  0.
286  2.85  0.  0.
287  2.86  0.  0.
288  2.87  0.  0.
289  2.88  0.  0.
290  2.89  0.  0.
291  2.90  0.  0.
292  2.91  0.  0.
293  2.92  0.  0.
294  2.93  0.  0.
295  2.94  0.  0.
296  2.95  0.  0.
297  2.96  0.  0.
298  2.97  0.  0.
299  2.98  0.  0.
300  2.99  0.  0.
301  3.00  0.  0.
302  3.01  0.  0.