Nh    ONCVPSP-4.0.1  r_core=   1.50312   1.50312   1.50312   1.90947
113.0000     21.0000      220328    zatom,zion,pspd
8      11   3     4   600     0    pspcod,pspxc,lmax,lloc,mmax,r2well
5.99000000  5.00000000  0.00000000    rchrg fchrg qchrg
2     2     2     2     0    nproj
1     1           extension_switch
0                         1.8342626105363E+01  1.9653524443419E+00
1  0.0000000000000E+00  1.3022548595032E-09 -3.6830656927056E-09
2  1.0000000000000E-02  6.7421972892883E-02 -3.9707100836936E-03
3  2.0000000000000E-02  1.3477288106392E-01 -8.0362884409909E-03
4  3.0000000000000E-02  2.0198076171510E-01 -1.2288674281416E-02
5  4.0000000000000E-02  2.6897187530954E-01 -1.6814002984306E-02
6  5.0000000000000E-02  3.3566986539561E-01 -2.1689838965592E-02
7  6.0000000000000E-02  4.0199497531641E-01 -2.6982567603289E-02
8  7.0000000000000E-02  4.6786333920626E-01 -3.2744994826503E-02
9  8.0000000000000E-02  5.3318636337359E-01 -3.9014199289642E-02
10  9.0000000000000E-02  5.9787021258480E-01 -4.5809677574109E-02
11  1.0000000000000E-01  6.6181541392455E-01 -5.3131817663360E-02
12  1.1000000000000E-01  7.2491658884595E-01 -6.0960730116432E-02
13  1.2000000000000E-01  7.8706232177541E-01 -6.9255460023499E-02
14  1.3000000000000E-01  8.4813517124135E-01 -7.7953596077205E-02
15  1.4000000000000E-01  9.0801182699443E-01 -8.6971286056105E-02
16  1.5000000000000E-01  9.6656341402402E-01 -9.6203660816786E-02
17  1.6000000000000E-01  1.0236559417953E+00 -1.0552566165688E-01
18  1.7000000000000E-01  1.0791508944798E+00 -1.1479325877272E-01
19  1.8000000000000E-01  1.1329059554717E+00 -1.2384504161803E-01
20  1.9000000000000E-01  1.1847758571197E+00 -1.3250415540016E-01
21  2.0000000000000E-01  1.2346133443968E+00 -1.4058055184227E-01
22  2.1000000000000E-01  1.2822702392195E+00 -1.4787351680550E-01
23  2.2000000000000E-01  1.3275985903462E+00 -1.5417443250181E-01
24  2.3000000000000E-01  1.3704518922674E+00 -1.5926972792324E-01
25  2.4000000000000E-01  1.4106863552646E+00 -1.6294396784095E-01
26  2.5000000000000E-01  1.4481622078937E+00 -1.6498302834459E-01
27  2.6000000000000E-01  1.4827450125495E+00 -1.6517730544345E-01
28  2.7000000000000E-01  1.5143069744999E+00 -1.6332490275918E-01
29  2.8000000000000E-01  1.5427282248523E+00 -1.5923474481564E-01
30  2.9000000000000E-01  1.5678980583233E+00 -1.5272956386353E-01
31  3.0000000000000E-01  1.5897161074143E+00 -1.4364871054057E-01
32  3.1000000000000E-01  1.6080934356476E+00 -1.3185074191668E-01
33  3.2000000000000E-01  1.6229535338559E+00 -1.1721574454949E-01
34  3.3000000000000E-01  1.6342332051311E+00 -9.9647355001046E-02
35  3.4000000000000E-01  1.6418833258816E+00 -7.9074445754715E-02
36  3.5000000000000E-01  1.6458694725067E+00 -5.5452450518017E-02
37  3.6000000000000E-01  1.6461724054084E+00 -2.8764309392471E-02
38  3.7000000000000E-01  1.6427884044108E+00  9.7897878707669E-04
39  3.8000000000000E-01  1.6357294520809E+00  3.3738202619607E-02
40  3.9000000000000E-01  1.6250232639101E+00  6.9446181396892E-02
41  4.0000000000000E-01  1.6107131667733E+00  1.0800839701242E-01
42  4.1000000000000E-01  1.5928578294846E+00  1.4930399924743E-01
43  4.2000000000000E-01  1.5715308515801E+00  1.9318716265180E-01
44  4.3000000000000E-01  1.5468202186226E+00  2.3948876717531E-01
45  4.4000000000000E-01  1.5188276343186E+00  2.8801836920239E-01
46  4.5000000000000E-01  1.4876677415102E+00  3.3856642480412E-01
47  4.6000000000000E-01  1.4534672456367E+00  3.9090672293878E-01
48  4.7000000000000E-01  1.4163639555176E+00  4.4479898308214E-01
49  4.8000000000000E-01  1.3765057572666E+00  4.9999156941323E-01
50  4.9000000000000E-01  1.3340495377968E+00  5.5622427226607E-01
51  5.0000000000000E-01  1.2891600747042E+00  6.1323110710865E-01
52  5.1000000000000E-01  1.2420089093149E+00  6.7074308183558E-01
53  5.2000000000000E-01  1.1927732193567E+00  7.2849088465091E-01
54  5.3000000000000E-01  1.1416347070804E+00  7.8620744724102E-01
55  5.4000000000000E-01  1.0887785177100E+00  8.4363034124901E-01
56  5.5000000000000E-01  1.0343922018885E+00  9.0050397019364E-01
57  5.6000000000000E-01  9.7866473430603E-01  9.5658152384829E-01
58  5.7000000000000E-01  9.2178559900937E-01  1.0116266676095E+00
59  5.8000000000000E-01  8.6394395000623E-01  1.0654149454318E+00
60  5.9000000000000E-01  8.0532785375590E-01  1.1177348813644E+00
61  6.0000000000000E-01  7.4612361800607E-01  1.1683887714638E+00
62  6.1000000000000E-01  6.8651520925094E-01  1.2171931647416E+00
63  6.2000000000000E-01  6.2668375888668E-01  1.2639790386932E+00
64  6.3000000000000E-01  5.6680715597857E-01  1.3085916817018E+00
65  6.4000000000000E-01  5.0705972247384E-01  1.3508903010874E+00
66  6.5000000000000E-01  4.4761196474120E-01  1.3907473816233E+00
67  6.6000000000000E-01  3.8863039353456E-01  1.4280478248627E+00
68  6.7000000000000E-01  3.3027740290433E-01  1.4626879044722E+00
69  6.8000000000000E-01  2.7271119724999E-01  1.4945740768550E+00
70  6.9000000000000E-01  2.1608575465255E-01  1.5236216895808E+00
71  7.0000000000000E-01  1.6055081387122E-01  1.5497536324276E+00
72  7.1000000000000E-01  1.0625187195231E-01  1.5728989771513E+00
73  7.2000000000000E-01  5.3330179294368E-02  1.5929916523668E+00
74  7.3000000000000E-01  1.9227192460999E-03  1.6099691991559E+00
75  7.4000000000000E-01 -4.7837840118564E-02  1.6237716512018E+00
76  7.5000000000000E-01 -9.5823233508316E-02  1.6343405804174E+00
77  7.6000000000000E-01 -1.4190973545947E-01  1.6416183452367E+00
78  7.7000000000000E-01 -1.8597835567687E-01  1.6455475740293E+00
79  7.8000000000000E-01 -2.2791509967410E-01  1.6460709105800E+00
80  7.9000000000000E-01 -2.6761129973692E-01  1.6431310423409E+00
81  8.0000000000000E-01 -3.0496401906760E-01  1.6366710253374E+00
82  8.1000000000000E-01 -3.3987652966354E-01  1.6266349123277E+00
83  8.2000000000000E-01 -3.7225886208624E-01  1.6129686832228E+00
84  8.3000000000000E-01 -4.0202842283997E-01  1.5956214690214E+00
85  8.4000000000000E-01 -4.2911067265566E-01  1.5745470527725E+00
86  8.5000000000000E-01 -4.5343985661847E-01  1.5497056234969E+00
87  8.6000000000000E-01 -4.7495977484180E-01  1.5210657517523E+00
88  8.7000000000000E-01 -4.9362458032702E-01  1.4886065487672E+00
89  8.8000000000000E-01 -5.0939958880811E-01  1.4523199649489E+00
90  8.9000000000000E-01 -5.2226208380865E-01  1.4122131782329E+00
91  9.0000000000000E-01 -5.3220209887819E-01  1.3683110183155E+00
92  9.1000000000000E-01 -5.3922315806061E-01  1.3206583694049E+00
93  9.2000000000000E-01 -5.4334295510976E-01  1.2693224918351E+00
94  9.3000000000000E-01 -5.4459395182981E-01  1.2143952017901E+00
95  9.4000000000000E-01 -5.4302387619419E-01  1.1559948485240E+00
96  9.5000000000000E-01 -5.3869610159563E-01  1.0942680298668E+00
97  9.6000000000000E-01 -5.3168988969851E-01  1.0293909894849E+00
98  9.7000000000000E-01 -5.2210048089450E-01  9.6157064328241E-01
99  9.8000000000000E-01 -5.1003901828493E-01  8.9104518744872E-01
100  9.9000000000000E-01 -4.9563229340048E-01  8.1808424690068E-01
101  1.0000000000000E+00 -4.7902230448927E-01  7.4298853013567E-01
102  1.0100000000000E+00 -4.6036562111326E-01  6.6608896469343E-01
103  1.0200000000000E+00 -4.3983255194306E-01  5.8774529637193E-01
104  1.0300000000000E+00 -4.1760611597758E-01  5.0834414490250E-01
105  1.0400000000000E+00 -3.9388082088081E-01  4.2829651879903E-01
106  1.0500000000000E+00 -3.6886125565436E-01  3.4803480235085E-01
107  1.0600000000000E+00 -3.4276050839106E-01  2.6800923805691E-01
108  1.0700000000000E+00 -3.1579842331488E-01  1.8868393800080E-01
109  1.0800000000000E+00 -2.8819971462709E-01  1.1053246751493E-01
110  1.0900000000000E+00 -2.6019195780289E-01  3.4033053839957E-02
111  1.1000000000000E+00 -2.3200348182641E-01 -4.0336518909766E-02
112  1.1100000000000E+00 -2.0386118837884E-01 -1.1210425942442E-01
113  1.1200000000000E+00 -1.7598832613183E-01 -1.8080948780863E-01
114  1.1300000000000E+00 -1.4860225000649E-01 -2.4600844195171E-01
115  1.1400000000000E+00 -1.2191219649160E-01 -3.0727988636346E-01
116  1.1500000000000E+00 -9.6117106839278E-02 -3.6423063550161E-01
117  1.1600000000000E+00 -7.1403530146729E-02 -4.1650090245800E-01
118  1.1700000000000E+00 -4.7943637975267E-02 -4.6376938428300E-01
119  1.1800000000000E+00 -2.5893381243053E-02 -5.0575799723942E-01
120  1.1900000000000E+00 -5.3908186609631E-03 -5.4223617888467E-01
121  1.2000000000000E+00  1.3445356015188E-02 -5.7302467902177E-01
122  1.2100000000000E+00  3.0517063168663E-02 -5.9799876823962E-01
123  1.2200000000000E+00  4.5747841170587E-02 -6.1709080076466E-01
124  1.2300000000000E+00  5.9083586564132E-02 -6.3029207771092E-01
125  1.2400000000000E+00  7.0493016054021E-02 -6.3765396724370E-01
126  1.2500000000000E+00  7.9967839896286E-02 -6.3928824957097E-01
127  1.2600000000000E+00  8.7522640682726E-02 -6.3536666690285E-01
128  1.2700000000000E+00  9.3194456064244E-02 -6.2611967122153E-01
129  1.2800000000000E+00  9.7042068636806E-02 -6.1183437582054E-01
130  1.2900000000000E+00  9.9145010918377E-02 -5.9285172980662E-01
131  1.3000000000000E+00  9.9602297976950E-02 -5.6956294782816E-01
132  1.3100000000000E+00  9.8530904782083E-02 -5.4240524006665E-01
133  1.3200000000000E+00  9.6064009649154E-02 -5.1185689972634E-01
134  1.3300000000000E+00  9.2349029141337E-02 -4.7843181663539E-01
135  1.3400000000000E+00  8.7545473420948E-02 -4.4267349593261E-01
136  1.3500000000000E+00  8.1822654263672E-02 -4.0514867005210E-01
137  1.3600000000000E+00  7.5357280649371E-02 -3.6644059999784E-01
138  1.3700000000000E+00  6.8330979021458E-02 -3.2714216821633E-01
139  1.3800000000000E+00  6.0927776893718E-02 -2.8784887002751E-01
140  1.3900000000000E+00  5.3331589569927E-02 -2.4915181385410E-01
141  1.4000000000000E+00  4.5723748840448E-02 -2.1163083657015E-01
142  1.4100000000000E+00  3.8280602319927E-02 -1.7584782586970E-01
143  1.4200000000000E+00  3.1170513070330E-02 -1.4233800466367E-01
144  1.4300000000000E+00  2.4545977114860E-02 -1.1158630079308E-01
145  1.4400000000000E+00  1.8523784702982E-02 -8.3969889748679E-02
146  1.4500000000000E+00  1.3217500989414E-02 -5.9850567267658E-02
147  1.4600000000000E+00  8.7301063168960E-03 -3.9555352294962E-02
148  1.4700000000000E+00  5.1364145902713E-03 -2.3326873355612E-02
149  1.4800000000000E+00  2.4840655131095E-03 -1.1327485367774E-02
150  1.4900000000000E+00  7.8419911634180E-04 -3.5968106554714E-03
151  1.5000000000000E+00  6.1182893751944E-05 -2.8294669804816E-04
152  1.5100000000000E+00 -8.9257091840784E-06  4.1450742999999E-05
153  1.5200000000000E+00  1.9152414568911E-06 -8.8546955942246E-06
154  1.53 -0.  0.
155  1.54  0.  0.
156  1.55  0.  0.
157  1.56  0.  0.
158  1.57  0.  0.
159  1.58  0.  0.
160  1.59  0.  0.
161  1.60  0.  0.
162  1.61  0.  0.
163  1.62  0.  0.
164  1.63  0.  0.
165  1.64  0.  0.
166  1.65  0.  0.
167  1.66  0.  0.
168  1.67  0.  0.
169  1.68  0.  0.
170  1.69  0.  0.
171  1.70  0.  0.
172  1.71  0.  0.
173  1.72  0.  0.
174  1.73  0.  0.
175  1.74  0.  0.
176  1.75  0.  0.
177  1.76  0.  0.
178  1.77  0.  0.
179  1.78  0.  0.
180  1.79  0.  0.
181  1.80  0.  0.
182  1.81  0.  0.
183  1.82  0.  0.
184  1.83  0.  0.
185  1.84  0.  0.
186  1.85  0.  0.
187  1.86  0.  0.
188  1.87  0.  0.
189  1.88  0.  0.
190  1.89  0.  0.
191  1.90  0.  0.
192  1.91  0.  0.
193  1.92  0.  0.
194  1.93  0.  0.
195  1.94  0.  0.
196  1.95  0.  0.
197  1.96  0.  0.
198  1.97  0.  0.
199  1.98  0.  0.
200  1.99  0.  0.
201  2.00  0.  0.
202  2.01  0.  0.
203  2.02  0.  0.
204  2.03  0.  0.
205  2.04  0.  0.
206  2.05  0.  0.
207  2.06  0.  0.
208  2.07  0.  0.
209  2.08  0.  0.
210  2.09  0.  0.
211  2.10  0.  0.
212  2.11  0.  0.
213  2.12  0.  0.
214  2.13  0.  0.
215  2.14  0.  0.
216  2.15  0.  0.
217  2.16  0.  0.
218  2.17  0.  0.
219  2.18  0.  0.
220  2.19  0.  0.
221  2.20  0.  0.
222  2.21  0.  0.
223  2.22  0.  0.
224  2.23  0.  0.
225  2.24  0.  0.
226  2.25  0.  0.
227  2.26  0.  0.
228  2.27  0.  0.
229  2.28  0.  0.
230  2.29  0.  0.
231  2.30  0.  0.
232  2.31  0.  0.
233  2.32  0.  0.
234  2.33  0.  0.
235  2.34  0.  0.
236  2.35  0.  0.
237  2.36  0.  0.
238  2.37  0.  0.
239  2.38  0.  0.
240  2.39  0.  0.
241  2.40  0.  0.
242  2.41  0.  0.
243  2.42  0.  0.
244  2.43  0.  0.
245  2.44  0.  0.
246  2.45  0.  0.
247  2.46  0.  0.
248  2.47  0.  0.
249  2.48  0.  0.
250  2.49  0.  0.
251  2.50  0.  0.
252  2.51  0.  0.
253  2.52  0.  0.
254  2.53  0.  0.
255  2.54  0.  0.
256  2.55  0.  0.
257  2.56  0.  0.
258  2.57  0.  0.
259  2.58  0.  0.
260  2.59  0.  0.
261  2.60  0.  0.
262  2.61  0.  0.
263  2.62  0.  0.
264  2.63  0.  0.
265  2.64  0.  0.
266  2.65  0.  0.
267  2.66  0.  0.
268  2.67  0.  0.
269  2.68  0.  0.
270  2.69  0.  0.
271  2.70  0.  0.
272  2.71  0.  0.
273  2.72  0.  0.
274  2.73  0.  0.
275  2.74  0.  0.
276  2.75  0.  0.
277  2.76  0.  0.
278  2.77  0.  0.
279  2.78  0.  0.
280  2.79  0.  0.
281  2.80  0.  0.
282  2.81  0.  0.
283  2.82  0.  0.
284  2.83  0.  0.
285  2.84  0.  0.
286  2.85  0.  0.
287  2.86  0.  0.
288  2.87  0.  0.
289  2.88  0.  0.
290  2.89  0.  0.
291  2.90  0.  0.
292  2.91  0.  0.
293  2.92  0.  0.
294  2.93  0.  0.
295  2.94  0.  0.
296  2.95  0.  0.
297  2.96  0.  0.
298  2.97  0.  0.
299  2.98  0.  0.
300  2.99  0.  0.
301  3.00  0.  0.
302  3.01  0.  0.
303  3.02  0.  0.
304  3.03  0.  0.
305  3.04  0.  0.
306  3.05  0.  0.
307  3.06  0.  0.
308  3.07  0.  0.
309  3.08  0.  0.
310  3.09  0.  0.
311  3.10  0.  0.
312  3.11  0.  0.
313  3.12  0.  0.
314  3.13  0.  0.
315  3.14  0.  0.
316  3.15  0.  0.
317  3.16  0.  0.
318  3.17  0.  0.
319  3.18  0.  0.
320  3.19  0.  0.
321  3.20  0.  0.
322  3.21  0.  0.
323  3.22  0.  0.
324  3.23  0.  0.
325  3.24  0.  0.
326  3.25  0.  0.
327  3.26  0.  0.
328  3.27  0.  0.
329  3.28  0.  0.
330  3.29  0.  0.
331  3.30  0.  0.
332  3.31  0.  0.
333  3.32  0.  0.
334  3.33  0.  0.
335  3.34  0.  0.
336  3.35  0.  0.
337  3.36  0.  0.
338  3.37  0.  0.
339  3.38  0.  0.
340  3.39  0.  0.
341  3.40  0.  0.
342  3.41  0.  0.
343  3.42  0.  0.
344  3.43  0.  0.
345  3.44  0.  0.
346  3.45  0.  0.
347  3.46  0.  0.
348  3.47  0.  0.
349  3.48  0.  0.
350  3.49  0.  0.
351  3.50  0.  0.
352  3.51  0.  0.
353  3.52  0.  0.
354  3.53  0.  0.
355  3.54  0.  0.
356  3.55  0.  0.
357  3.56  0.  0.
358  3.57  0.  0.
359  3.58  0.  0.
360  3.59  0.  0.
361  3.60  0.  0.
362  3.61  0.  0.
363  3.62  0.  0.
364  3.63  0.  0.
365  3.64  0.  0.
366  3.65  0.  0.
367  3.66  0.  0.
368  3.67  0.  0.
369  3.68  0.  0.
370  3.69  0.  0.
371  3.70  0.  0.
372  3.71  0.  0.
373  3.72  0.  0.
374  3.73  0.  0.
375  3.74  0.  0.
376  3.75  0.  0.
377  3.76  0.  0.
378  3.77  0.  0.
379  3.78  0.  0.
380  3.79  0.  0.
381  3.80  0.  0.
382  3.81  0.  0.
383  3.82  0.  0.
384  3.83  0.  0.
385  3.84  0.  0.
386  3.85  0.  0.
387  3.86  0.  0.
388  3.87  0.  0.
389  3.88  0.  0.
390  3.89  0.  0.
391  3.90  0.  0.
392  3.91  0.  0.
393  3.92  0.  0.
394  3.93  0.  0.
395  3.94  0.  0.
396  3.95  0.  0.
397  3.96  0.  0.
398  3.97  0.  0.
399  3.98  0.  0.
400  3.99  0.  0.
401  4.00  0.  0.
402  4.01  0.  0.
403  4.02  0.  0.
404  4.03  0.  0.
405  4.04  0.  0.
406  4.05  0.  0.
407  4.06  0.  0.
408  4.07  0.  0.
409  4.08  0.  0.
410  4.09  0.  0.
411  4.10  0.  0.
412  4.11  0.  0.
413  4.12  0.  0.
414  4.13  0.  0.
415  4.14  0.  0.
416  4.15  0.  0.
417  4.16  0.  0.
418  4.17  0.  0.
419  4.18  0.  0.
420  4.19  0.  0.
421  4.20  0.  0.
422  4.21  0.  0.
423  4.22  0.  0.
424  4.23  0.  0.
425  4.24  0.  0.
426  4.25  0.  0.
427  4.26  0.  0.
428  4.27  0.  0.
429  4.28  0.  0.
430  4.29  0.  0.
431  4.30  0.  0.
432  4.31  0.  0.
433  4.32  0.  0.
434  4.33  0.  0.
435  4.34  0.  0.
436  4.35  0.  0.
437  4.36  0.  0.
438  4.37  0.  0.
439  4.38  0.  0.
440  4.39  0.  0.
441  4.40  0.  0.
442  4.41  0.  0.
443  4.42  0.  0.
444  4.43  0.  0.
445  4.44  0.  0.
446  4.45  0.  0.
447  4.46  0.  0.
448  4.47  0.  0.
449  4.48  0.  0.
450  4.49  0.  0.
451  4.50  0.  0.
452  4.51  0.  0.
453  4.52  0.  0.
454  4.53  0.  0.
455  4.54  0.  0.
456  4.55  0.  0.
457  4.56  0.  0.
458  4.57  0.  0.
459  4.58  0.  0.
460  4.59  0.  0.
461  4.60  0.  0.
462  4.61  0.  0.
463  4.62  0.  0.
464  4.63  0.  0.
465  4.64  0.  0.
466  4.65  0.  0.
467  4.66  0.  0.
468  4.67  0.  0.
469  4.68  0.  0.
470  4.69  0.  0.
471  4.70  0.  0.
472  4.71  0.  0.
473  4.72  0.  0.
474  4.73  0.  0.
475  4.74  0.  0.
476  4.75  0.  0.
477  4.76  0.  0.
478  4.77  0.  0.
479  4.78  0.  0.
480  4.79  0.  0.
481  4.80  0.  0.
482  4.81  0.  0.
483  4.82  0.  0.
484  4.83  0.  0.
485  4.84  0.  0.
486  4.85  0.  0.
487  4.86  0.  0.
488  4.87  0.  0.
489  4.88  0.  0.
490  4.89  0.  0.
491  4.90  0.  0.
492  4.91  0.  0.
493  4.92  0.  0.
494  4.93  0.  0.
495  4.94  0.  0.
496  4.95  0.  0.
497  4.96  0.  0.
498  4.97  0.  0.
499  4.98  0.  0.
500  4.99  0.  0.
501  5.00  0.  0.
502  5.01  0.  0.
503  5.02  0.  0.
504  5.03  0.  0.
505  5.04  0.  0.
506  5.05  0.  0.
507  5.06  0.  0.
508  5.07  0.  0.
509  5.08  0.  0.
510  5.09  0.  0.
511  5.10  0.  0.
512  5.11  0.  0.
513  5.12  0.  0.
514  5.13  0.  0.
515  5.14  0.  0.
516  5.15  0.  0.
517  5.16  0.  0.
518  5.17  0.  0.
519  5.18  0.  0.
520  5.19  0.  0.
521  5.20  0.  0.
522  5.21  0.  0.
523  5.22  0.  0.
524  5.23  0.  0.
525  5.24  0.  0.
526  5.25  0.  0.
527  5.26  0.  0.
528  5.27  0.  0.
529  5.28  0.  0.
530  5.29  0.  0.
531  5.30  0.  0.
532  5.31  0.  0.
533  5.32  0.  0.
534  5.33  0.  0.
535  5.34  0.  0.
536  5.35  0.  0.
537  5.36  0.  0.
538  5.37  0.  0.
539  5.38  0.  0.
540  5.39  0.  0.
541  5.40  0.  0.
542  5.41  0.  0.
543  5.42  0.  0.
544  5.43  0.  0.
545  5.44  0.  0.
546  5.45  0.  0.
547  5.46  0.  0.
548  5.47  0.  0.
549  5.48  0.  0.
550  5.49  0.  0.
551  5.50  0.  0.
552  5.51  0.  0.
553  5.52  0.  0.
554  5.53  0.  0.
555  5.54  0.  0.
556  5.55  0.  0.
557  5.56  0.  0.
558  5.57  0.  0.
559  5.58  0.  0.
560  5.59  0.  0.
561  5.60  0.  0.
562  5.61  0.  0.
563  5.62  0.  0.
564  5.63  0.  0.
565  5.64  0.  0.
566  5.65  0.  0.
567  5.66  0.  0.
568  5.67  0.  0.
569  5.68  0.  0.
570  5.69  0.  0.
571  5.70  0.  0.
572  5.71  0.  0.
573  5.72  0.  0.
574  5.73  0.  0.
575  5.74  0.  0.
576  5.75  0.  0.
577  5.76  0.  0.
578  5.77  0.  0.
579  5.78  0.  0.
580  5.79  0.  0.
581  5.80  0.  0.
582  5.81  0.  0.
583  5.82  0.  0.
584  5.83  0.  0.
585  5.84  0.  0.
586  5.85  0.  0.
587  5.86  0.  0.
588  5.87  0.  0.
589  5.88  0.  0.
590  5.89  0.  0.
591  5.90  0.  0.
592  5.91  0.  0.
593  5.92  0.  0.
594  5.93  0.  0.
595  5.94  0.  0.
596  5.95  0.  0.
597  5.96  0.  0.
598  5.97  0.  0.
599  5.98  0.  0.
600  5.99  0.  0.
1                         1.1356293562854E+01  1.2726449478255E+00
1  0.0000000000000E+00 -2.0538217099242E-09  6.5546994984511E-09
2  1.0000000000000E-02  1.3222601243353E-03 -5.4315427297915E-04
3  2.0000000000000E-02  5.2866854712614E-03 -2.1747747602164E-03
4  3.0000000000000E-02  1.1886168624974E-02 -4.9011823918873E-03
5  4.0000000000000E-02  2.1108724014986E-02 -8.7324091353761E-03
6  5.0000000000000E-02  3.2937282438447E-02 -1.3681457525677E-02
7  6.0000000000000E-02  4.7349411967072E-02 -1.9763291485831E-02
8  7.0000000000000E-02  6.4316973579806E-02 -2.6993585148044E-02
9  8.0000000000000E-02  8.3805721916170E-02 -3.5387262940820E-02
10  9.0000000000000E-02  1.0577486336209E-01 -4.4956869988182E-02
11  1.0000000000000E-01  1.3017658521764E-01 -5.5710816735984E-02
12  1.1000000000000E-01  1.5695557091899E-01 -6.7651545563433E-02
13  1.2000000000000E-01  1.8604851716578E-01 -8.0773669860422E-02
14  1.3000000000000E-01  2.1738366931872E-01 -9.5062137586196E-02
15  1.4000000000000E-01  2.5088039156679E-01 -1.1049047163016E-01
16  1.5000000000000E-01  2.8644878811442E-01 -1.2701913835818E-01
17  1.6000000000000E-01  3.2398939100898E-01 -1.4459409356095E-01
18  1.7000000000000E-01  3.6339292922989E-01 -1.6314555166781E-01
19  1.8000000000000E-01  4.0454019231316E-01 -1.8258701961861E-01
20  1.9000000000000E-01  4.4730200011554E-01 -2.0281463129277E-01
21  2.0000000000000E-01  4.9153928836659E-01 -2.2370681199639E-01
22  2.1000000000000E-01  5.3710331745649E-01 -2.4512429534647E-01
23  2.2000000000000E-01  5.8383600950761E-01 -2.6691050712142E-01
24  2.3000000000000E-01  6.3157041623246E-01 -2.8889232244363E-01
25  2.4000000000000E-01  6.8013131744274E-01 -3.1088119420566E-01
26  2.5000000000000E-01  7.2933594740281E-01 -3.3267464213723E-01
27  2.6000000000000E-01  7.7899484357251E-01 -3.5405808352953E-01
28  2.7000000000000E-01  8.2891280971946E-01 -3.7480697857784E-01
29  2.8000000000000E-01  8.7888998295409E-01 -3.9468925576041E-01
30  2.9000000000000E-01  9.2872299200736E-01 -4.1346797581552E-01
31  3.0000000000000E-01  9.7820619208078E-01 -4.3090418687469E-01
32  3.1000000000000E-01  1.0271329598961E+00 -4.4675991829995E-01
33  3.2000000000000E-01  1.0752970311967E+00 -4.6080125688310E-01
34  3.3000000000000E-01  1.1224938619370E+00 -4.7280144639285E-01
35  3.4000000000000E-01  1.1685219937619E+00 -4.8254395007612E-01
36  3.5000000000000E-01  1.2131844041469E+00 -4.8982541567629E-01
37  3.6000000000000E-01  1.2562898217396E+00 -4.9445848384030E-01
38  3.7000000000000E-01  1.2976539880228E+00 -4.9627438343154E-01
39  3.8000000000000E-01  1.3371008473905E+00 -4.9512526120266E-01
40  3.9000000000000E-01  1.3744636490740E+00 -4.9088619843575E-01
41  4.0000000000000E-01  1.4095859460481E+00 -4.8345687342391E-01
42  4.1000000000000E-01  1.4423224780532E+00 -4.7276283591859E-01
43  4.2000000000000E-01  1.4725399281386E+00 -4.5875636774844E-01
44  4.3000000000000E-01  1.5001175446245E+00 -4.4141691255315E-01
45  4.4000000000000E-01  1.5249476230363E+00 -4.2075106678090E-01
46  4.5000000000000E-01  1.5469358453231E+00 -3.9679213356549E-01
47  4.6000000000000E-01  1.5660014764810E+00 -3.6959925061873E-01
48  4.7000000000000E-01  1.5820774214873E+00 -3.3925611262846E-01
49  4.8000000000000E-01  1.5951101481589E+00 -3.0586931762927E-01
50  4.9000000000000E-01  1.6050594841136E+00 -2.6956637520094E-01
51  5.0000000000000E-01  1.6118982983731E+00 -2.3049342195324E-01
52  5.1000000000000E-01  1.6156120802593E+00 -1.8881269638931E-01
53  5.2000000000000E-01  1.6161984300318E+00 -1.4469983074117E-01
54  5.3000000000000E-01  1.6136664771759E+00 -9.8341021600312E-02
55  5.4000000000000E-01  1.6080362433187E+00 -4.9930144008786E-02
56  5.5000000000000E-01  1.5993379674157E+00  3.3412494996141E-04
57  5.6000000000000E-01  1.5876114110868E+00  5.2251107168314E-02
58  5.7000000000000E-01  1.5729051617805E+00  1.0562078493250E-01
59  5.8000000000000E-01  1.5552759508167E+00  1.6024626174016E-01
60  5.9000000000000E-01  1.5347880023027E+00  2.1593596619086E-01
61  6.0000000000000E-01  1.5115124274712E+00  2.7250554868000E-01
62  6.1000000000000E-01  1.4855266771675E+00  3.2977942794726E-01
63  6.2000000000000E-01  1.4569140630732E+00  3.8759195296465E-01
64  6.3000000000000E-01  1.4257633558272E+00  4.4578815501951E-01
65  6.4000000000000E-01  1.3921684655667E+00  5.0422407495225E-01
66  6.5000000000000E-01  1.3562282076012E+00  5.6276666112468E-01
67  6.6000000000000E-01  1.3180461530360E+00  6.2129324458670E-01
68  6.7000000000000E-01  1.2777305612415E+00  6.7969060882701E-01
69  6.8000000000000E-01  1.2353943881828E+00  7.3785368218563E-01
70  6.9000000000000E-01  1.1911553618731E+00  7.9568389122080E-01
71  7.0000000000000E-01  1.1451361136378E+00  8.5308722281183E-01
72  7.1000000000000E-01  1.0974643515683E+00  9.0997205131194E-01
73  7.2000000000000E-01  1.0482730605376E+00  9.6624679442091E-01
74  7.3000000000000E-01  9.9770071153188E-01  1.0218174674350E+00
75  7.4000000000000E-01  9.4589146183805E-01  1.0765852099821E+00
76  7.5000000000000E-01  8.9299532688526E-01  1.1304438621299E+00
77  7.6000000000000E-01  8.3916830427701E-01  1.1832776677611E+00
78  7.7000000000000E-01  7.8457243079891E-01  1.2349591822841E+00
79  7.8000000000000E-01  7.2937575394952E-01  1.2853474590629E+00
80  7.9000000000000E-01  6.7375220081243E-01  1.3342865844315E+00
81  8.0000000000000E-01  6.1788132885183E-01  1.3816046248607E+00
82  8.1000000000000E-01  5.6194794544213E-01  1.4271130418743E+00
83  8.2000000000000E-01  5.0614158559487E-01  1.4706066208138E+00
84  8.3000000000000E-01  4.5065584037405E-01  1.5118639486892E+00
85  8.4000000000000E-01  3.9568753183258E-01  1.5506484643661E+00
86  8.5000000000000E-01  3.4143573389031E-01  1.5867100914425E+00
87  8.6000000000000E-01  2.8810064233199E-01  1.6197874506510E+00
88  8.7000000000000E-01  2.3588230094979E-01  1.6496106347617E+00
89  8.8000000000000E-01  1.8497919470432E-01  1.6759045150592E+00
90  8.9000000000000E-01  1.3558672454358E-01  1.6983925348391E+00
91  9.0000000000000E-01  8.7895582111604E-02  1.7168009323146E+00
92  9.1000000000000E-01  4.2090045914206E-02  1.7308633231570E+00
93  9.2000000000000E-01 -1.6537764973129E-03  1.7403255618948E+00
94  9.3000000000000E-01 -4.3169733185881E-02  1.7449507918436E+00
95  9.4000000000000E-01 -8.2303410103203E-02  1.7445245853722E+00
96  9.5000000000000E-01 -1.1891388020692E-01  1.7388600703453E+00
97  9.6000000000000E-01 -1.5287538770137E-01  1.7278029346981E+00
98  9.7000000000000E-01 -1.8407893537098E-01  1.7112361994210E+00
99  9.8000000000000E-01 -2.1243374332261E-01  1.6890846508610E+00
100  9.9000000000000E-01 -2.3786854847123E-01  1.6613188262176E+00
101  1.0000000000000E+00 -2.6033271578891E-01  1.6279584514152E+00
102  1.0100000000000E+00 -2.7979713467341E-01  1.5890752381195E+00
103  1.0200000000000E+00 -2.9625487674657E-01  1.5447949564168E+00
104  1.0300000000000E+00 -3.0972159491787E-01  1.4952987114325E+00
105  1.0400000000000E+00 -3.2023564759109E-01  1.4408233657449E+00
106  1.0500000000000E+00 -3.2785793637085E-01  1.3816610645742E+00
107  1.0600000000000E+00 -3.3267145046764E-01  1.3181578371357E+00
108  1.0700000000000E+00 -3.3478051611446E-01  1.2507112649324E+00
109  1.0800000000000E+00 -3.3430975457830E-01  1.1797672257254E+00
110  1.0900000000000E+00 -3.3140275770538E-01  1.1058157401992E+00
111  1.1000000000000E+00 -3.2622049523002E-01  1.0293859664415E+00
112  1.1100000000000E+00 -3.1893947323238E-01  9.5104040500844E-01
113  1.1200000000000E+00 -3.0974966801640E-01  8.7136839410257E-01
114  1.1300000000000E+00 -2.9885226420237E-01  7.9097898991888E-01
115  1.1400000000000E+00 -2.8645722989152E-01  7.1049334117791E-01
116  1.1500000000000E+00 -2.7278076526202E-01  6.3053667891416E-01
117  1.1600000000000E+00 -2.5804266382876E-01  5.5173005248686E-01
118  1.1700000000000E+00 -2.4246362776245E-01  4.7468195024683E-01
119  1.1800000000000E+00 -2.2626258006835E-01  3.9997994815893E-01
120  1.1900000000000E+00 -2.0965401702708E-01  3.2818253178850E-01
121  1.2000000000000E+00 -1.9284544407733E-01  2.5981123633734E-01
122  1.2100000000000E+00 -1.7603493725367E-01  1.9534324578898E-01
123  1.2200000000000E+00 -1.5940887041576E-01  1.3520458581096E-01
124  1.2300000000000E+00 -1.4313984580325E-01  7.9764035812143E-02
125  1.2400000000000E+00 -1.2738486200666E-01  2.9327873750057E-02
126  1.2500000000000E+00 -1.1228374929891E-01 -1.5864446934749E-02
127  1.2600000000000E+00 -9.7957897473334E-02 -5.5643605342959E-02
128  1.2700000000000E+00 -8.4509296030463E-02 -8.9912641387916E-02
129  1.2800000000000E+00 -7.2019900780983E-02 -1.1864805942086E-01
130  1.2900000000000E+00 -6.0551334822118E-02 -1.4189978329032E-01
131  1.3000000000000E+00 -5.0144925540474E-02 -1.5978996055093E-01
132  1.3100000000000E+00 -4.0822072873407E-02 -1.7251063556998E-01
133  1.3200000000000E+00 -3.2584937667167E-02 -1.8032033321287E-01
134  1.3300000000000E+00 -2.5417432743572E-02 -1.8353961613765E-01
135  1.3400000000000E+00 -1.9286493352613E-02 -1.8254569906442E-01
136  1.3500000000000E+00 -1.4143598104860E-02 -1.7776622250144E-01
137  1.3600000000000E+00 -9.9265064592981E-03 -1.6967230557043E-01
138  1.3700000000000E+00 -6.5611744034677E-03 -1.5877101272611E-01
139  1.3800000000000E+00 -3.9638062471656E-03 -1.4559738181599E-01
140  1.3900000000000E+00 -2.0429974265168E-03 -1.3070617125680E-01
141  1.4000000000000E+00 -7.0192190226915E-04 -1.1466348358128E-01
142  1.4100000000000E+00  1.5947766768565E-04 -9.8038462806826E-02
143  1.4200000000000E+00  6.4188365189768E-04 -8.1392861567899E-02
144  1.4300000000000E+00  8.4085154745858E-04 -6.5258676985884E-02
145  1.4400000000000E+00  8.3283965773146E-04 -5.0097077523691E-02
146  1.4500000000000E+00  6.9457757367568E-04 -3.6343807359637E-02
147  1.4600000000000E+00  4.9855502692071E-04 -2.4396837393480E-02
148  1.4700000000000E+00  3.0112330531604E-04 -1.4585076803135E-02
149  1.4800000000000E+00  1.4164619276764E-04 -7.1667311200075E-03
150  1.4900000000000E+00  4.0988587444417E-05 -2.2984636794281E-03
151  1.5000000000000E+00  2.6608571791643E-06 -1.8246179357778E-04
152  1.5100000000000E+00 -3.5374269007809E-07  2.6872555773373E-05
153  1.5200000000000E+00  8.5495808852112E-08 -5.7175483640083E-06
154  1.53 -0.  0.
155  1.54  0.  0.
156  1.55  0.  0.
157  1.56  0.  0.
158  1.57  0.  0.
159  1.58  0.  0.
160  1.59  0.  0.
161  1.60  0.  0.
162  1.61  0.  0.
163  1.62  0.  0.
164  1.63  0.  0.
165  1.64  0.  0.
166  1.65  0.  0.
167  1.66  0.  0.
168  1.67  0.  0.
169  1.68  0.  0.
170  1.69  0.  0.
171  1.70  0.  0.
172  1.71  0.  0.
173  1.72  0.  0.
174  1.73  0.  0.
175  1.74  0.  0.
176  1.75  0.  0.
177  1.76  0.  0.
178  1.77  0.  0.
179  1.78  0.  0.
180  1.79  0.  0.
181  1.80  0.  0.
182  1.81  0.  0.
183  1.82  0.  0.
184  1.83  0.  0.
185  1.84  0.  0.
186  1.85  0.  0.
187  1.86  0.  0.
188  1.87  0.  0.
189  1.88  0.  0.
190  1.89  0.  0.
191  1.90  0.  0.
192  1.91  0.  0.
193  1.92  0.  0.
194  1.93  0.  0.
195  1.94  0.  0.
196  1.95  0.  0.
197  1.96  0.  0.
198  1.97  0.  0.
199  1.98  0.  0.
200  1.99  0.  0.
201  2.00  0.  0.
202  2.01  0.  0.
203  2.02  0.  0.
204  2.03  0.  0.
205  2.04  0.  0.
206  2.05  0.  0.
207  2.06  0.  0.
208  2.07  0.  0.
209  2.08  0.  0.
210  2.09  0.  0.
211  2.10  0.  0.
212  2.11  0.  0.
213  2.12  0.  0.
214  2.13  0.  0.
215  2.14  0.  0.
216  2.15  0.  0.
217  2.16  0.  0.
218  2.17  0.  0.
219  2.18  0.  0.
220  2.19  0.  0.