Nh    ONCVPSP-4.0.1  r_core=   1.40739   1.40739   1.40739   1.60535
113.0000     21.0000      230504    zatom,zion,pspd
8      11   3     4   600     0    pspcod,pspxc,lmax,lloc,mmax,r2well
5.99000000  5.00000000  0.00000000    rchrg fchrg qchrg
2     2     2     2     0    nproj
1     1           extension_switch
0                         1.4212379511250E+01 -4.1440103734460E-01
1  0.0000000000000E+00 -9.3970498049600E-11  1.7919324059312E-08
2  1.0000000000000E-02  6.9902604376129E-02 -1.7004840699198E-03
3  2.0000000000000E-02  1.3967094917195E-01 -2.9124974781252E-03
4  3.0000000000000E-02  2.0917106631334E-01 -3.1587883061317E-03
5  4.0000000000000E-02  2.7826956961368E-01 -1.9843131294469E-03
6  5.0000000000000E-02  3.4683394293064E-01  1.0332264941307E-03
7  6.0000000000000E-02  4.1473282504838E-01  6.2735157218203E-03
8  7.0000000000000E-02  4.8183629030802E-01  1.4064627455729E-02
9  8.0000000000000E-02  5.4801612410332E-01  2.4675075932913E-02
10  9.0000000000000E-02  6.1314609247058E-01  3.8307084414423E-02
11  1.0000000000000E-01  6.7710220513029E-01  5.5091203505757E-02
12  1.1000000000000E-01  7.3976297147730E-01  7.5082388836648E-02
13  1.2000000000000E-01  8.0100964916410E-01  9.8257616808302E-02
14  1.3000000000000E-01  8.6072648507313E-01  1.2451508550215E-01
15  1.4000000000000E-01  9.1880094862415E-01  1.5367501530005E-01
16  1.5000000000000E-01  9.7512395750826E-01  1.8548203096721E-01
17  1.6000000000000E-01  1.0295900960752E+00  2.1960907458224E-01
18  1.7000000000000E-01  1.0820978267224E+00  2.5566276743854E-01
19  1.8000000000000E-01  1.1325496947370E+00  2.9319010954185E-01
20  1.9000000000000E-01  1.1808525271249E+00  3.3168637820546E-01
21  2.0000000000000E-01  1.2269176260155E+00  3.7060406306490E-01
22  2.1000000000000E-01  1.2706609572622E+00  4.0936265410291E-01
23  2.2000000000000E-01  1.3120033348573E+00  4.4735908242758E-01
24  2.3000000000000E-01  1.3508706017469E+00  4.8397860093052E-01
25  2.4000000000000E-01  1.3871938075718E+00  5.1860588383416E-01
26  2.5000000000000E-01  1.4209093837613E+00  5.5063612068266E-01
27  2.6000000000000E-01  1.4519593162870E+00  5.7948588160987E-01
28  2.7000000000000E-01  1.4802913162250E+00  6.0460353669942E-01
29  2.8000000000000E-01  1.5058589880985E+00  6.2547902280433E-01
30  2.9000000000000E-01  1.5286219957694E+00  6.4165276608968E-01
31  3.0000000000000E-01  1.5485462254245E+00  6.5272358747828E-01
32  3.1000000000000E-01  1.5656039449681E+00  6.5835544070961E-01
33  3.2000000000000E-01  1.5797739588848E+00  6.5828285838156E-01
34  3.3000000000000E-01  1.5910417573914E+00  6.5231500957566E-01
35  3.4000000000000E-01  1.5993996584454E+00  6.4033830286314E-01
36  3.5000000000000E-01  1.6048469409445E+00  6.2231749999475E-01
37  3.6000000000000E-01  1.6073899672220E+00  5.9829533771023E-01
38  3.7000000000000E-01  1.6070422927467E+00  5.6839068716377E-01
39  3.8000000000000E-01  1.6038247607521E+00  5.3279531175025E-01
40  3.9000000000000E-01  1.5977655793820E+00  4.9176931395189E-01
41  4.0000000000000E-01  1.5889003788286E+00  4.4563538954856E-01
42  4.1000000000000E-01  1.5772722458770E+00  3.9477203253794E-01
43  4.2000000000000E-01  1.5629317332497E+00  3.3960585584238E-01
44  4.3000000000000E-01  1.5459368411779E+00  2.8060321085072E-01
45  4.4000000000000E-01  1.5263529687060E+00  2.1826130265548E-01
46  4.5000000000000E-01  1.5042528323733E+00  1.5309900718472E-01
47  4.6000000000000E-01  1.4797163501046E+00  8.5647601077267E-02
48  4.7000000000000E-01  1.4528304883822E+00  1.6441614996344E-02
49  4.8000000000000E-01  1.4236890710639E+00 -5.3989983884472E-02
50  4.9000000000000E-01  1.3923925485538E+00 -1.2513208416318E-01
51  5.0000000000000E-01  1.3590477264127E+00 -1.9649101537637E-01
52  5.1000000000000E-01  1.3237674529237E+00 -2.6760126254597E-01
53  5.2000000000000E-01  1.2866702655816E+00 -3.3803116877565E-01
54  5.3000000000000E-01  1.2478799969622E+00 -4.0738751004541E-01
55  5.4000000000000E-01  1.2075253409305E+00 -4.7531885457632E-01
56  5.5000000000000E-01  1.1657393806639E+00 -5.4151764946387E-01
57  5.6000000000000E-01  1.1226590804856E+00 -6.0572100902653E-01
58  5.7000000000000E-01  1.0784247440200E+00 -6.6771021176539E-01
59  5.8000000000000E-01  1.0331794416818E+00 -7.2730894522834E-01
60  5.9000000000000E-01  9.8706841098847E-01 -7.8438036967967E-01
61  6.0000000000000E-01  9.4023843363694E-01 -8.3882310153827E-01
62  6.1000000000000E-01  8.9283719368773E-01 -8.9056624537077E-01
63  6.2000000000000E-01  8.4501262156548E-01 -9.3956362812477E-01
64  6.3000000000000E-01  7.9691222888817E-01 -9.8578741066480E-01
65  6.4000000000000E-01  7.4868243938403E-01 -1.0292212689896E+00
66  6.5000000000000E-01  7.0046792133472E-01 -1.0698533503142E+00
67  6.6000000000000E-01  6.5241092709230E-01 -1.1076692171423E+00
68  6.7000000000000E-01  6.0465064525344E-01 -1.1426449952900E+00
69  6.8000000000000E-01  5.5732257103429E-01 -1.1747409394155E+00
70  6.9000000000000E-01  5.1055790027371E-01 -1.2038956219457E+00
71  7.0000000000000E-01  4.6448295230088E-01 -1.2300209384817E+00
72  7.1000000000000E-01  4.1921862663860E-01 -1.2529981050191E+00
73  7.2000000000000E-01  3.7487989817794E-01 -1.2726747999910E+00
74  7.3000000000000E-01  3.3157535505932E-01 -1.2888635776702E+00
75  7.4000000000000E-01  2.8940678303360E-01 -1.3013416493966E+00
76  7.5000000000000E-01  2.4846879956247E-01 -1.3098520960811E+00
77  7.6000000000000E-01  2.0884854035740E-01 -1.3141065401762E+00
78  7.7000000000000E-01  1.7062540045926E-01 -1.3137892685821E+00
79  7.8000000000000E-01  1.3387083133591E-01 -1.3085627606038E+00
80  7.9000000000000E-01  9.8648194832200E-02 -1.2980745379331E+00
81  8.0000000000000E-01  6.5012674156061E-02 -1.2819652175609E+00
82  8.1000000000000E-01  3.3011241435864E-02 -1.2598776143925E+00
83  8.2000000000000E-01  2.6826807483603E-03 -1.2314667089486E+00
84  8.3000000000000E-01 -2.5942335096850E-02 -1.1964102676803E+00
85  8.4000000000000E-01 -5.2841116311664E-02 -1.1544198798004E+00
86  8.5000000000000E-01 -7.7998779258201E-02 -1.1052521557818E+00
87  8.6000000000000E-01 -1.0140802427830E-01 -1.0487198193125E+00
88  8.7000000000000E-01 -1.2306887198454E-01 -9.8470241695435E-01
89  8.8000000000000E-01 -1.4298836214490E-01 -9.1315636832662E-01
90  8.9000000000000E-01 -1.6118021959656E-01 -8.3412408448720E-01
91  9.0000000000000E-01 -1.7766449185602E-01 -7.4774189335705E-01
92  9.1000000000000E-01 -1.9246716324977E-01 -6.5424652840544E-01
93  9.2000000000000E-01 -2.0561975047157E-01 -5.5397996015022E-01
94  9.3000000000000E-01 -2.1715888447847E-01 -4.4739237893980E-01
95  9.4000000000000E-01 -2.2712588357036E-01 -3.3504317146094E-01
96  9.5000000000000E-01 -2.3556632235922E-01 -2.1759977182136E-01
97  9.6000000000000E-01 -2.4252960112920E-01 -9.5834310160029E-02
98  9.7000000000000E-01 -2.4806851982154E-01  2.9381973314234E-02
99  9.8000000000000E-01 -2.5223886055661E-01  1.5708653405844E-01
100  9.9000000000000E-01 -2.5509898223534E-01  2.8623548606211E-01
101  1.0000000000000E+00 -2.5670943035218E-01  4.1571561137574E-01
102  1.0100000000000E+00 -2.5713256471084E-01  5.4435825909883E-01
103  1.0200000000000E+00 -2.5643220726981E-01  6.7095493199328E-01
104  1.0300000000000E+00 -2.5467331186841E-01  7.9427431734877E-01
105  1.0400000000000E+00 -2.5192165710286E-01  9.1308048122509E-01
106  1.0500000000000E+00 -2.4824356314660E-01  1.0261519126550E+00
107  1.0600000000000E+00 -2.4370563284748E-01  1.1323010775382E+00
108  1.0700000000000E+00 -2.3837451699489E-01  1.2303941215176E+00
109  1.0800000000000E+00 -2.3231670324105E-01  1.3193703476637E+00
110  1.0900000000000E+00 -2.2559832778700E-01  1.3982610886841E+00
111  1.1000000000000E+00 -2.1828500861435E-01  1.4662075949439E+00
112  1.1100000000000E+00 -2.1044169876026E-01  1.5224775689002E+00
113  1.1200000000000E+00 -2.0213255790138E-01  1.5664799936216E+00
114  1.1300000000000E+00 -1.9342084033355E-01  1.5977779275971E+00
115  1.1400000000000E+00 -1.8436879731054E-01  1.6160989697974E+00
116  1.1500000000000E+00 -1.7503759163545E-01  1.6213431372240E+00
117  1.1600000000000E+00 -1.6548722238328E-01  1.6135879415352E+00
118  1.1700000000000E+00 -1.5577645766866E-01  1.5930905007272E+00
119  1.1800000000000E+00 -1.4596277345639E-01  1.5602865755381E+00
120  1.1900000000000E+00 -1.3610229654009E-01  1.5157864771853E+00
121  1.2000000000000E+00 -1.2624974997919E-01  1.4603678519113E+00
122  1.2100000000000E+00 -1.1645839948373E-01  1.3949654080188E+00
123  1.2200000000000E+00 -1.0677999945936E-01  1.3206577105129E+00
124  1.2300000000000E+00 -9.7264737669089E-02  1.2386512270633E+00
125  1.2400000000000E+00 -8.7961177723102E-02  1.1502618645343E+00
126  1.2500000000000E+00 -7.8916198867518E-02  1.0568942872673E+00
127  1.2600000000000E+00 -7.0174932801226E-02  9.6001935555270E-01
128  1.2700000000000E+00 -6.1780697497341E-02  8.6115006385528E-01
129  1.2800000000000E+00 -5.3774928238850E-02  7.6181639303196E-01
130  1.2900000000000E+00 -4.6197106289381E-02  6.6353951791024E-01
131  1.3000000000000E+00 -3.9084685804099E-02  5.6780583059873E-01
132  1.3100000000000E+00 -3.2473019728201E-02  4.7604125351878E-01
133  1.3200000000000E+00 -2.6395286736513E-02  3.8958609656303E-01
134  1.3300000000000E+00 -2.0882409428500E-02  3.0967244825534E-01
135  1.3400000000000E+00 -1.5963087332776E-02  2.3738072770534E-01
136  1.3500000000000E+00 -1.1664046241695E-02  1.7346171104317E-01
137  1.3600000000000E+00 -8.0083258393238E-03  1.1873667847424E-01
138  1.3700000000000E+00 -5.0165497487865E-03  7.3929288658879E-02
139  1.3800000000000E+00 -2.7072866714164E-03  3.9536249613838E-02
140  1.3900000000000E+00 -1.0969920283077E-03  1.5826681599135E-02
141  1.4000000000000E+00 -2.0208742247555E-04  2.8714830223710E-03
142  1.4100000000000E+00  1.2320618673336E-05 -1.7273891049120E-04
143  1.4200000000000E+00 -3.8127974483928E-06  5.3756396243498E-05
144  1.43  0. -0.
145  1.44 -0. -0.
146  1.45  0.  0.
147  1.46  0.  0.
148  1.47  0.  0.
149  1.48  0.  0.
150  1.49  0.  0.
151  1.50  0.  0.
152  1.51  0.  0.
153  1.52  0.  0.
154  1.53  0.  0.
155  1.54  0.  0.
156  1.55  0.  0.
157  1.56  0.  0.
158  1.57  0.  0.
159  1.58  0.  0.
160  1.59  0.  0.
161  1.60  0.  0.
162  1.61  0.  0.
163  1.62  0.  0.
164  1.63  0.  0.
165  1.64  0.  0.
166  1.65  0.  0.
167  1.66  0.  0.
168  1.67  0.  0.
169  1.68  0.  0.
170  1.69  0.  0.
171  1.70  0.  0.
172  1.71  0.  0.
173  1.72  0.  0.
174  1.73  0.  0.
175  1.74  0.  0.
176  1.75  0.  0.
177  1.76  0.  0.
178  1.77  0.  0.
179  1.78  0.  0.
180  1.79  0.  0.
181  1.80  0.  0.
182  1.81  0.  0.
183  1.82  0.  0.
184  1.83  0.  0.
185  1.84  0.  0.
186  1.85  0.  0.
187  1.86  0.  0.
188  1.87  0.  0.
189  1.88  0.  0.
190  1.89  0.  0.
191  1.90  0.  0.
192  1.91  0.  0.
193  1.92  0.  0.
194  1.93  0.  0.
195  1.94  0.  0.
196  1.95  0.  0.
197  1.96  0.  0.
198  1.97  0.  0.
199  1.98  0.  0.
200  1.99  0.  0.
201  2.00  0.  0.
202  2.01  0.  0.
203  2.02  0.  0.
204  2.03  0.  0.
205  2.04  0.  0.
206  2.05  0.  0.
207  2.06  0.  0.
208  2.07  0.  0.
209  2.08  0.  0.
210  2.09  0.  0.
211  2.10  0.  0.
212  2.11  0.  0.
213  2.12  0.  0.
214  2.13  0.  0.
215  2.14  0.  0.
216  2.15  0.  0.
217  2.16  0.  0.
218  2.17  0.  0.
219  2.18  0.  0.
220  2.19  0.  0.
221  2.20  0.  0.
222  2.21  0.  0.
223  2.22  0.  0.
224  2.23  0.  0.
225  2.24  0.  0.
226  2.25  0.  0.
227  2.26  0.  0.
228  2.27  0.  0.
229  2.28  0.  0.
230  2.29  0.  0.
231  2.30  0.  0.
232  2.31  0.  0.
233  2.32  0.  0.
234  2.33  0.  0.
235  2.34  0.  0.
236  2.35  0.  0.
237  2.36  0.  0.
238  2.37  0.  0.
239  2.38  0.  0.
240  2.39  0.  0.
241  2.40  0.  0.
242  2.41  0.  0.
243  2.42  0.  0.
244  2.43  0.  0.
245  2.44  0.  0.
246  2.45  0.  0.
247  2.46  0.  0.
248  2.47  0.  0.
249  2.48  0.  0.
250  2.49  0.  0.
251  2.50  0.  0.
252  2.51  0.  0.
253  2.52  0.  0.
254  2.53  0.  0.
255  2.54  0.  0.
256  2.55  0.  0.
257  2.56  0.  0.
258  2.57  0.  0.
259  2.58  0.  0.
260  2.59  0.  0.
261  2.60  0.  0.
262  2.61  0.  0.
263  2.62  0.  0.
264  2.63  0.  0.
265  2.64  0.  0.
266  2.65  0.  0.
267  2.66  0.  0.
268  2.67  0.  0.
269  2.68  0.  0.
270  2.69  0.  0.
271  2.70  0.  0.
272  2.71  0.  0.
273  2.72  0.  0.
274  2.73  0.  0.
275  2.74  0.  0.
276  2.75  0.  0.
277  2.76  0.  0.
278  2.77  0.  0.
279  2.78  0.  0.
280  2.79  0.  0.
281  2.80  0.  0.
282  2.81  0.  0.
283  2.82  0.  0.
284  2.83  0.  0.
285  2.84  0.  0.
286  2.85  0.  0.
287  2.86  0.  0.
288  2.87  0.  0.
289  2.88  0.  0.
290  2.89  0.  0.
291  2.90  0.  0.
292  2.91  0.  0.
293  2.92  0.  0.
294  2.93  0.  0.
295  2.94  0.  0.
296  2.95  0.  0.
297  2.96  0.  0.
298  2.97  0.  0.
299  2.98  0.  0.
300  2.99  0.  0.
301  3.00  0.  0.
302  3.01  0.  0.
303  3.02  0.  0.
304  3.03  0.  0.
305  3.04  0.  0.
306  3.05  0.  0.
307  3.06  0.  0.
308  3.07  0.  0.
309  3.08  0.  0.
310  3.09  0.  0.
311  3.10  0.  0.
312  3.11  0.  0.
313  3.12  0.  0.
314  3.13  0.  0.
315  3.14  0.  0.
316  3.15  0.  0.
317  3.16  0.  0.
318  3.17  0.  0.
319  3.18  0.  0.
320  3.19  0.  0.
321  3.20  0.  0.
322  3.21  0.  0.
323  3.22  0.  0.
324  3.23  0.  0.
325  3.24  0.  0.
326  3.25  0.  0.
327  3.26  0.  0.
328  3.27  0.  0.
329  3.28  0.  0.
330  3.29  0.  0.
331  3.30  0.  0.
332  3.31  0.  0.
333  3.32  0.  0.
334  3.33  0.  0.
335  3.34  0.  0.
336  3.35  0.  0.
337  3.36  0.  0.
338  3.37  0.  0.
339  3.38  0.  0.
340  3.39  0.  0.
341  3.40  0.  0.
342  3.41  0.  0.
343  3.42  0.  0.
344  3.43  0.  0.
345  3.44  0.  0.
346  3.45  0.  0.
347  3.46  0.  0.
348  3.47  0.  0.
349  3.48  0.  0.
350  3.49  0.  0.
351  3.50  0.  0.
352  3.51  0.  0.
353  3.52  0.  0.
354  3.53  0.  0.
355  3.54  0.  0.
356  3.55  0.  0.
357  3.56  0.  0.
358  3.57  0.  0.
359  3.58  0.  0.
360  3.59  0.  0.
361  3.60  0.  0.
362  3.61  0.  0.
363  3.62  0.  0.
364  3.63  0.  0.
365  3.64  0.  0.
366  3.65  0.  0.
367  3.66  0.  0.
368  3.67  0.  0.
369  3.68  0.  0.
370  3.69  0.  0.
371  3.70  0.  0.
372  3.71  0.  0.
373  3.72  0.  0.
374  3.73  0.  0.
375  3.74  0.  0.
376  3.75  0.  0.
377  3.76  0.  0.
378  3.77  0.  0.
379  3.78  0.  0.
380  3.79  0.  0.
381  3.80  0.  0.
382  3.81  0.  0.
383  3.82  0.  0.
384  3.83  0.  0.
385  3.84  0.  0.
386  3.85  0.  0.
387  3.86  0.  0.
388  3.87  0.  0.
389  3.88  0.  0.
390  3.89  0.  0.
391  3.90  0.  0.
392  3.91  0.  0.
393  3.92  0.  0.
394  3.93  0.  0.
395  3.94  0.  0.
396  3.95  0.  0.
397  3.96  0.  0.
398  3.97  0.  0.
399  3.98  0.  0.
400  3.99  0.  0.
401  4.00  0.  0.
402  4.01  0.  0.
403  4.02  0.  0.
404  4.03  0.  0.
405  4.04  0.  0.
406  4.05  0.  0.
407  4.06  0.  0.
408  4.07  0.  0.
409  4.08  0.  0.
410  4.09  0.  0.
411  4.10  0.  0.
412  4.11  0.  0.
413  4.12  0.  0.
414  4.13  0.  0.
415  4.14  0.  0.
416  4.15  0.  0.
417  4.16  0.  0.
418  4.17  0.  0.
419  4.18  0.  0.
420  4.19  0.  0.
421  4.20  0.  0.
422  4.21  0.  0.
423  4.22  0.  0.
424  4.23  0.  0.
425  4.24  0.  0.
426  4.25  0.  0.
427  4.26  0.  0.
428  4.27  0.  0.
429  4.28  0.  0.
430  4.29  0.  0.
431  4.30  0.  0.
432  4.31  0.  0.
433  4.32  0.  0.
434  4.33  0.  0.
435  4.34  0.  0.
436  4.35  0.  0.
437  4.36  0.  0.
438  4.37  0.  0.
439  4.38  0.  0.
440  4.39  0.  0.
441  4.40  0.  0.
442  4.41  0.  0.
443  4.42  0.  0.
444  4.43  0.  0.
445  4.44  0.  0.
446  4.45  0.  0.
447  4.46  0.  0.
448  4.47  0.  0.
449  4.48  0.  0.
450  4.49  0.  0.
451  4.50  0.  0.
452  4.51  0.  0.
453  4.52  0.  0.
454  4.53  0.  0.
455  4.54  0.  0.
456  4.55  0.  0.
457  4.56  0.  0.
458  4.57  0.  0.
459  4.58  0.  0.
460  4.59  0.  0.
461  4.60  0.  0.
462  4.61  0.  0.
463  4.62  0.  0.
464  4.63  0.  0.
465  4.64  0.  0.
466  4.65  0.  0.
467  4.66  0.  0.
468  4.67  0.  0.
469  4.68  0.  0.
470  4.69  0.  0.
471  4.70  0.  0.
472  4.71  0.  0.
473  4.72  0.  0.
474  4.73  0.  0.
475  4.74  0.  0.
476  4.75  0.  0.
477  4.76  0.  0.
478  4.77  0.  0.
479  4.78  0.  0.
480  4.79  0.  0.
481  4.80  0.  0.
482  4.81  0.  0.
483  4.82  0.  0.
484  4.83  0.  0.
485  4.84  0.  0.
486  4.85  0.  0.
487  4.86  0.  0.
488  4.87  0.  0.
489  4.88  0.  0.
490  4.89  0.  0.
491  4.90  0.  0.
492  4.91  0.  0.
493  4.92  0.  0.
494  4.93  0.  0.
495  4.94  0.  0.
496  4.95  0.  0.
497  4.96  0.  0.
498  4.97  0.  0.
499  4.98  0.  0.
500  4.99  0.  0.
501  5.00  0.  0.
502  5.01  0.  0.
503  5.02  0.  0.
504  5.03  0.  0.
505  5.04  0.  0.
506  5.05  0.  0.
507  5.06  0.  0.
508  5.07  0.  0.
509  5.08  0.  0.
510  5.09  0.  0.
511  5.10  0.  0.
512  5.11  0.  0.
513  5.12  0.  0.
514  5.13  0.  0.
515  5.14  0.  0.
516  5.15  0.  0.
517  5.16  0.  0.
518  5.17  0.  0.
519  5.18  0.  0.
520  5.19  0.  0.
521  5.20  0.  0.
522  5.21  0.  0.
523  5.22  0.  0.
524  5.23  0.  0.
525  5.24  0.  0.
526  5.25  0.  0.
527  5.26  0.  0.
528  5.27  0.  0.
529  5.28  0.  0.
530  5.29  0.  0.
531  5.30  0.  0.
532  5.31  0.  0.
533  5.32  0.  0.
534  5.33  0.  0.
535  5.34  0.  0.
536  5.35  0.  0.
537  5.36  0.  0.
538  5.37  0.  0.
539  5.38  0.  0.
540  5.39  0.  0.
541  5.40  0.  0.
542  5.41  0.  0.
543  5.42  0.  0.
544  5.43  0.  0.
545  5.44  0.  0.
546  5.45  0.  0.
547  5.46  0.  0.
548  5.47  0.  0.
549  5.48  0.  0.
550  5.49  0.  0.
551  5.50  0.  0.
552  5.51  0.  0.
553  5.52  0.  0.
554  5.53  0.  0.
555  5.54  0.  0.
556  5.55  0.  0.
557  5.56  0.  0.
558  5.57  0.  0.
559  5.58  0.  0.
560  5.59  0.  0.
561  5.60  0.  0.
562  5.61  0.  0.
563  5.62  0.  0.
564  5.63  0.  0.
565  5.64  0.  0.
566  5.65  0.  0.
567  5.66  0.  0.
568  5.67  0.  0.
569  5.68  0.  0.
570  5.69  0.  0.
571  5.70  0.  0.
572  5.71  0.  0.
573  5.72  0.  0.
574  5.73  0.  0.
575  5.74  0.  0.
576  5.75  0.  0.
577  5.76  0.  0.
578  5.77  0.  0.
579  5.78  0.  0.
580  5.79  0.  0.
581  5.80  0.  0.
582  5.81  0.  0.
583  5.82  0.  0.
584  5.83  0.  0.
585  5.84  0.  0.
586  5.85  0.  0.
587  5.86  0.  0.
588  5.87  0.  0.
589  5.88  0.  0.
590  5.89  0.  0.
591  5.90  0.  0.
592  5.91  0.  0.
593  5.92  0.  0.
594  5.93  0.  0.
595  5.94  0.  0.
596  5.95  0.  0.
597  5.96  0.  0.
598  5.97  0.  0.
599  5.98  0.  0.
600  5.99  0.  0.
1                         1.2326599247953E+01  9.2214664059632E-01
1  0.0000000000000E+00 -1.3799899001299E-09  5.5514139396529E-09
2  1.0000000000000E-02  1.4650385803761E-03 -8.0427042183021E-04
3  2.0000000000000E-02  5.8560576823417E-03 -3.2153637693101E-03
4  3.0000000000000E-02  1.3160749866957E-02 -7.2280275170437E-03
5  4.0000000000000E-02  2.3358545206266E-02 -1.2833181790350E-02
6  5.0000000000000E-02  3.6420528027706E-02 -2.0017443266342E-02
7  6.0000000000000E-02  5.2309326348866E-02 -2.8762483066780E-02
8  7.0000000000000E-02  7.0978979798099E-02 -3.9044242225576E-02
9  8.0000000000000E-02  9.2374793196496E-02 -5.0832033865246E-02
10  9.0000000000000E-02  1.1643318415968E-01 -6.4087565922917E-02
11  1.0000000000000E-01  1.4308153403054E-01 -7.8763921987129E-02
12  1.1000000000000E-01  1.7223805214915E-01 -9.4804540428734E-02
13  1.2000000000000E-01  2.0381166388310E-01 -1.1214223344918E-01
14  1.3000000000000E-01  2.3770193296688E-01 -1.3069828787662E-01
15  1.4000000000000E-01  2.7379902852693E-01 -1.5038168849702E-01
16  1.5000000000000E-01  3.1198374670151E-01 -1.7108850243153E-01
17  1.6000000000000E-01  3.5212759601078E-01 -1.9270145961391E-01
18  1.7000000000000E-01  3.9409295461025E-01 -2.1508975986773E-01
19  1.8000000000000E-01  4.3773330629351E-01 -2.3810913154772E-01
20  1.9000000000000E-01  4.8289356062840E-01 -2.6160216033701E-01
21  2.0000000000000E-01  5.2941046095215E-01 -2.8539889975010E-01
22  2.1000000000000E-01  5.7711308215454E-01 -3.0931776736894E-01
23  2.2000000000000E-01  6.2582341829061E-01 -3.3316672303972E-01
24  2.3000000000000E-01  6.7535705813286E-01 -3.5674471739560E-01
25  2.4000000000000E-01  7.2552394484503E-01 -3.7984339136191E-01
26  2.5000000000000E-01  7.7612921408699E-01 -4.0224899996438E-01
27  2.6000000000000E-01  8.2697410308843E-01 -4.2374452700401E-01
28  2.7000000000000E-01  8.7785692160544E-01 -4.4411195118368E-01
29  2.8000000000000E-01  9.2857407424027E-01 -4.6313461924574E-01
30  2.9000000000000E-01  9.7892112239755E-01 -4.8059967776531E-01
31  3.0000000000000E-01  1.0286938732032E+00 -4.9630051256228E-01
32  3.1000000000000E-01  1.0776894820488E+00 -5.1003914334595E-01
33  3.2000000000000E-01  1.1257075550637E+00 -5.2162852124576E-01
34  3.3000000000000E-01  1.1725512377708E+00 -5.3089467833629E-01
35  3.4000000000000E-01  1.2180282764476E+00 -5.3767868111834E-01
36  3.5000000000000E-01  1.2619520392951E+00 -5.4183834411796E-01
37  3.6000000000000E-01  1.3041424853858E+00 -5.4324966522372E-01
38  3.7000000000000E-01  1.3444270705128E+00 -5.4180795097081E-01
39  3.8000000000000E-01  1.3826415804520E+00 -5.3742860754320E-01
40  3.9000000000000E-01  1.4186308837487E+00 -5.3004758161349E-01
41  4.0000000000000E-01  1.4522495979115E+00 -5.1962144406203E-01
42  4.1000000000000E-01  1.4833626647848E+00 -5.0612711888140E-01
43  4.2000000000000E-01  1.5118458328328E+00 -4.8956126893397E-01
44  4.3000000000000E-01  1.5375860460533E+00 -4.6993935943594E-01
45  4.4000000000000E-01  1.5604817411866E+00 -4.4729442883832E-01
46  4.5000000000000E-01  1.5804430567530E+00 -4.2167560491415E-01
47  4.6000000000000E-01  1.5973919591797E+00 -3.9314641110902E-01
48  4.7000000000000E-01  1.6112622928283E+00 -3.6178291434916E-01
49  4.8000000000000E-01  1.6219997620539E+00 -3.2767177033904E-01
50  4.9000000000000E-01  1.6295618544883E+00 -2.9090822575561E-01
51  5.0000000000000E-01  1.6339177155067E+00 -2.5159413853496E-01
52  5.1000000000000E-01  1.6350479842885E+00 -2.0983607756184E-01
53  5.2000000000000E-01  1.6329446020077E+00 -1.6574356147021E-01
54  5.3000000000000E-01  1.6276106024732E+00 -1.1942749294542E-01
55  5.4000000000000E-01  1.6190598949986E+00 -7.0998839931340E-02
56  5.5000000000000E-01  1.6073170484171E+00 -2.0567608581598E-02
57  5.6000000000000E-01  1.5924170840031E+00  3.1757855210203E-02
58  5.7000000000000E-01  1.5744052836343E+00  8.5871208134314E-02
59  5.8000000000000E-01  1.5533370178844E+00  1.4166807839037E-01
60  5.9000000000000E-01  1.5292775968988E+00  1.9904565507522E-01
61  6.0000000000000E-01  1.5023021449511E+00  2.5790190352848E-01
62  6.1000000000000E-01  1.4724954975393E+00  3.1813442399085E-01
63  6.2000000000000E-01  1.4399521178362E+00  3.7963898270154E-01
64  6.3000000000000E-01  1.4047760273050E+00  4.4230775592973E-01
65  6.4000000000000E-01  1.3670807434026E+00  5.0602733808085E-01
66  6.5000000000000E-01  1.3269892155694E+00  5.7067657464029E-01
67  6.6000000000000E-01  1.2846337492099E+00  6.3612428902309E-01
68  6.7000000000000E-01  1.2401559061519E+00  7.0222697912876E-01
69  6.8000000000000E-01  1.1937063691793E+00  7.6882656432622E-01
70  6.9000000000000E-01  1.1454447577098E+00  8.3574826652570E-01
71  7.0000000000000E-01  1.0955393815495E+00  9.0279870978844E-01
72  7.1000000000000E-01  1.0441669199452E+00  9.6976432149090E-01
73  7.2000000000000E-01  9.9151201385342E-01  1.0364101143547E+00
74  7.3000000000000E-01  9.3776676047882E-01  1.1024789227003E+00
75  7.4000000000000E-01  8.8313010067120E-01  1.1676911581500E+00
76  7.5000000000000E-01  8.2780709169669E-01  1.2317451398335E+00
77  7.6000000000000E-01  7.7200806017674E-01  1.2943180421183E+00
78  7.7000000000000E-01  7.1594763257299E-01  1.3550674892425E+00
79  7.8000000000000E-01  6.5984364343301E-01  1.4136338112500E+00
80  7.9000000000000E-01  6.0391592463778E-01  1.4696429596560E+00
81  8.0000000000000E-01  5.4838498203713E-01  1.5227100646521E+00
82  8.1000000000000E-01  4.9347056904842E-01  1.5724435988003E+00
83  8.2000000000000E-01  4.3939016994675E-01  1.6184500954589E+00
84  8.3000000000000E-01  3.8635740861315E-01  1.6603393540495E+00
85  8.4000000000000E-01  3.3458040134657E-01  1.6977300491249E+00
86  8.5000000000000E-01  2.8426007491146E-01  1.7302556464328E+00
87  8.6000000000000E-01  2.3558847320710E-01  1.7575705171665E+00
88  8.7000000000000E-01  1.8874707774311E-01  1.7793561316978E+00
89  8.8000000000000E-01  1.4390516842476E-01  1.7953272066018E+00
90  8.9000000000000E-01  1.0121825194346E-01  1.8052376739674E+00
91  9.0000000000000E-01  6.0826585291866E-02  1.8088863400311E+00
92  9.1000000000000E-01  2.2853821553011E-02  1.8061221012181E+00
93  9.2000000000000E-01 -1.2594195864659E-02  1.7968485897849E+00
94  9.3000000000000E-01 -4.5430465958570E-02  1.7810281284299E+00
95  9.4000000000000E-01 -7.5587667417866E-02  1.7586848833959E+00
96  9.5000000000000E-01 -1.0301878078955E-01  1.7299071185788E+00
97  9.6000000000000E-01 -1.2769747910723E-01  1.6948484687679E+00
98  9.7000000000000E-01 -1.4961827428240E-01  1.6537281680782E+00
99  9.8000000000000E-01 -1.6879641066836E-01  1.6068301895583E+00
100  9.9000000000000E-01 -1.8526750162788E-01  1.5545012734468E+00
101  1.0000000000000E+00 -1.9908690958118E-01  1.4971478441864E+00
102  1.0100000000000E+00 -2.1032887478010E-01  1.4352318395689E+00
103  1.0200000000000E+00 -2.1908540284732E-01  1.3692654987924E+00
104  1.0300000000000E+00 -2.2546492582980E-01  1.2998051792087E+00
105  1.0400000000000E+00 -2.2959075604109E-01  1.2274442936416E+00
106  1.0500000000000E+00 -2.3159935619561E-01  1.1528054807792E+00
107  1.0600000000000E+00 -2.3163845317930E-01  1.0765321398527E+00
108  1.0700000000000E+00 -2.2986502615748E-01  9.9927947711896E-01
109  1.0800000000000E+00 -2.2644320250435E-01  9.2170522511814E-01
110  1.0900000000000E+00 -2.2154209718797E-01  8.4446020599639E-01
111  1.1000000000000E+00 -2.1533363268605E-01  7.6817891697153E-01
112  1.1100000000000E+00 -2.0799037720779E-01  6.9347031914232E-01
113  1.1200000000000E+00 -1.9968343891810E-01  6.2090901009005E-01
114  1.1300000000000E+00 -1.9058045299671E-01  5.5102695608309E-01
115  1.1400000000000E+00 -1.8084369671308E-01  4.8430595114957E-01
116  1.1500000000000E+00 -1.7062836529249E-01  4.2117095800948E-01
117  1.1600000000000E+00 -1.6008103821409E-01  3.6198446997269E-01
118  1.1700000000000E+00 -1.4933836179144E-01  3.0704201379168E-01
119  1.1800000000000E+00 -1.3852596949853E-01  2.5656889139369E-01
120  1.1900000000000E+00 -1.2775765660820E-01  2.1071823385318E-01
121  1.2000000000000E+00 -1.1713482042421E-01  1.6957041450005E-01
122  1.2100000000000E+00 -1.0674617176979E-01  1.3313383996963E-01
123  1.2200000000000E+00 -9.6667717648421E-02  1.0134710931498E-01
124  1.2300000000000E+00 -8.6963009130456E-02  7.4082502081414E-02
125  1.2400000000000E+00 -7.7683642768702E-02  5.1150727623046E-02
126  1.2500000000000E+00 -6.8869998274660E-02  3.2306840254812E-02
127  1.2600000000000E+00 -6.0552189912049E-02  1.7257198668665E-02
128  1.2700000000000E+00 -5.2751204256639E-02  5.6673242477131E-03
129  1.2800000000000E+00 -4.5480192674562E-02 -2.8295082945014E-03
130  1.2900000000000E+00 -3.8745883220159E-02 -8.6231324702505E-03
131  1.3000000000000E+00 -3.2550073734395E-02 -1.2117002556717E-02
132  1.3100000000000E+00 -2.6891165576484E-02 -1.3718566932523E-02
133  1.3200000000000E+00 -2.1765710393184E-02 -1.3829672525734E-02
134  1.3300000000000E+00 -1.7169835011104E-02 -1.2837506202210E-02
135  1.3400000000000E+00 -1.3102049549965E-02 -1.1101326850947E-02
136  1.3500000000000E+00 -9.5758336371853E-03 -8.9066680071733E-03
137  1.3600000000000E+00 -6.5925732571849E-03 -6.5500168893585E-03
138  1.3700000000000E+00 -4.1514188104217E-03 -4.3055861430927E-03
139  1.3800000000000E+00 -2.2578034687033E-03 -2.3953725645296E-03
140  1.3900000000000E+00 -9.2417930526819E-04 -9.8479011933133E-04
141  1.4000000000000E+00 -1.7239621075055E-04 -1.8131216423733E-04
142  1.4100000000000E+00  1.0609747972239E-05  1.1040926246571E-05
143  1.4200000000000E+00 -3.2708540767942E-06 -3.4272341350660E-06
144  1.43  0.  0.
145  1.44 -0. -0.
146  1.45  0.  0.
147  1.46  0.  0.
148  1.47  0.  0.
149  1.48  0.  0.
150  1.49  0.  0.
151  1.50  0.  0.
152  1.51  0.  0.
153  1.52  0.  0.
154  1.53  0.  0.
155  1.54  0.  0.
156  1.55  0.  0.
157  1.56  0.  0.
158  1.57  0.  0.
159  1.58  0.  0.
160  1.59  0.  0.
161  1.60  0.  0.
162  1.61  0.  0.
163  1.62  0.  0.
164  1.63  0.  0.
165  1.64  0.  0.
166  1.65  0.  0.
167  1.66  0.  0.
168  1.67  0.  0.
169  1.68  0.  0.
170  1.69  0.  0.
171  1.70  0.  0.
172  1.71  0.  0.
173  1.72  0.  0.
174  1.73  0.  0.
175  1.74  0.  0.
176  1.75  0.  0.
177  1.76  0.  0.
178  1.77  0.  0.
179  1.78  0.  0.
180  1.79  0.  0.
181  1.80  0.  0.
182  1.81  0.  0.
183  1.82  0.  0.
184  1.83  0.  0.
185  1.84  0.  0.
186  1.85  0.  0.
187  1.86  0.  0.
188  1.87  0.  0.
189  1.88  0.  0.
190  1.89  0.  0.
191  1.90  0.  0.
192  1.91  0.  0.
193  1.92  0.  0.
194  1.93  0.  0.
195  1.94  0.  0.
196  1.95  0.  0.
197  1.96  0.  0.
198  1.97  0.  0.
199  1.98  0.  0.
200  1.99  0.  0.
201  2.00  0.  0.
202  2.01  0.  0.
203  2.02  0.  0.
204  2.03  0.  0.
205  2.04  0.  0.
206  2.05  0.  0.
207  2.06  0.  0.
208  2.07  0.  0.
209  2.08  0.  0.
210  2.09  0.  0.
211  2.10  0.  0.
212  2.11  0.  0.
213  2.12  0.  0.
214  2.13  0.  0.
215  2.14  0.  0.
216  2.15  0.  0.
217  2.16  0.  0.
218  2.17  0.  0.
219  2.18  0.  0.
220  2.19  0.  0.
221  2.20  0.  0.
222  2.21  0.  0.
223  2.22  0.  0.
224  2.23  0.  0.
225  2.24  0.  0.
226  2.25  0.  0.
227  2.26  0.  0.
228  2.27  0.  0.
229  2.28  0.  0.
230  2.29  0.  0.
231  2.30  0.  0.
232  2.31  0.  0.
233  2.32  0.  0.
234  2.33  0.  0.
235  2.34  0.  0.
236  2.35  0.  0.
237  2.36  0.  0.
238  2.37  0.  0.
239  2.38  0.  0.
240  2.39  0.  0.
241  2.40  0.  0.
242  2.41  0.  0.
243  2.42  0.  0.
244  2.43  0.  0.
245  2.44  0.  0.
246  2.45  0.  0.
247  2.46  0.  0.
248  2.47  0.  0.
249  2.48  0.  0.
250  2.49  0.  0.
251  2.50  0.  0.
252  2.51  0.  0.
253  2.52  0.  0.
254  2.53  0.  0.
255  2.54  0.  0.
256  2.55  0.  0.
257  2.56  0.  0.
258  2.57  0.  0.
259  2.58  0.  0.
260  2.59  0.  0.
261  2.60  0.  0.
262  2.61  0.  0.
263  2.62  0.  0.
264  2.63  0.  0.
265  2.64  0.  0.
266  2.65  0.  0.
267  2.66  0.  0.
268  2.67  0.  0.
269  2.68  0.  0.
270  2.69  0.  0.
271  2.70  0.  0.
272  2.71  0.  0.
273  2.72  0.  0.
274  2.73  0.  0.
275  2.74  0.  0.