Nh    ONCVPSP-4.0.1  r_core=   1.10128   1.10128   1.10128   1.10128
113.0000     53.0000      220206    zatom,zion,pspd
8      11   3     4   600     0    pspcod,pspxc,lmax,lloc,mmax,r2well
5.99000000  5.00000000  0.00000000    rchrg fchrg qchrg
3     2     2     2     0    nproj
1     1           extension_switch
0                         1.5936423288323E+01 -8.1085531252482E+00  1.7172382103900E+00
1  0.0000000000000E+00  9.7154577716196E-08  9.7047466729450E-09  3.0170859852824E-07
2  1.0000000000000E-02  1.7403957073204E-01  6.9797706528403E-02  8.0324006000499E-03
3  2.0000000000000E-02  3.4664267441149E-01  1.3948856305740E-01  1.6018482511269E-02
4  3.0000000000000E-02  5.1637779139862E-01  2.0896463956885E-01  2.3889388781514E-02
5  4.0000000000000E-02  6.8182371692384E-01  2.7811590565126E-01  3.1532770131954E-02
6  5.0000000000000E-02  8.4157574090461E-01  3.4682932667650E-01  3.8774913411425E-02
7  6.0000000000000E-02  9.9425297839459E-01  4.1498812808933E-01  4.5367283427623E-02
8  7.0000000000000E-02  1.1385071113480E+00  4.8247127166549E-01  5.0978568380887E-02
9  8.0000000000000E-02  1.2730327052274E+00  5.4915317789001E-01  5.5193017417729E-02
10  9.0000000000000E-02  1.3965791522718E+00  6.1490371735603E-01  5.7515511242900E-02
11  1.0000000000000E-01  1.5079641727667E+00  6.7958848181372E-01  5.7383430869114E-02
12  1.1000000000000E-01  1.6060886827195E+00  7.4306933278061E-01  5.4185004550376E-02
13  1.2000000000000E-01  1.6899527174480E+00  8.0520521305368E-01  4.7283438448894E-02
14  1.3000000000000E-01  1.7586719921136E+00  8.6585319462751E-01  3.6045791966487E-02
15  1.4000000000000E-01  1.8114945881540E+00  9.2486972597287E-01  1.9875261953673E-02
16  1.5000000000000E-01  1.8478171841104E+00  9.8211203285970E-01 -1.7546929892967E-03
17  1.6000000000000E-01  1.8672002047724E+00  1.0374396203232E+00 -2.9266113386968E-02
18  1.7000000000000E-01  1.8693812469244E+00  1.0907158192766E+00 -6.2943981015368E-02
19  1.8000000000000E-01  1.8542861549578E+00  1.1418093198547E+00 -1.0290711851019E-01
20  1.9000000000000E-01  1.8220371654296E+00  1.1905956348827E+00 -1.4908421162494E-01
21  2.0000000000000E-01  1.7729576150336E+00  1.2369584408377E+00 -2.0119642099296E-01
22  2.1000000000000E-01  1.7075728086651E+00  1.2807907500991E+00 -2.5874777304679E-01
23  2.2000000000000E-01  1.6266067692232E+00  1.3219958768486E+00 -3.2102417602618E-01
24  2.3000000000000E-01  1.5309747332673E+00  1.3604881692618E+00 -3.8710151264787E-01
25  2.4000000000000E-01  1.4217714104295E+00  1.3961934921150E+00 -4.5586283463079E-01
26  2.5000000000000E-01  1.3002551827387E+00  1.4290494560483E+00 -5.2602424639475E-01
27  2.6000000000000E-01  1.1678285755599E+00  1.4590054018774E+00 -5.9616863730944E-01
28  2.7000000000000E-01  1.0260154774965E+00  1.4860221599195E+00 -6.6478602518448E-01
29  2.8000000000000E-01  8.7643571550356E-01  1.5100716147211E+00 -7.3031892842491E-01
30  2.9000000000000E-01  7.2077769743417E-01  1.5311361143090E+00 -7.9121090843275E-01
31  3.0000000000000E-01  5.6076991208983E-01  1.5492077696949E+00 -8.4595623233542E-01
32  3.1000000000000E-01  3.9815212260016E-01  1.5642876944917E+00 -8.9314851003980E-01
33  3.2000000000000E-01  2.3464710009801E-01  1.5763852359352E+00 -9.3152616553100E-01
34  3.3000000000000E-01  7.1933720247601E-02  1.5855172472491E+00 -9.6001271199170E-01
35  3.4000000000000E-01 -8.8377814048804E-02  1.5917074471996E+00 -9.7775001036629E-01
36  3.5000000000000E-01 -2.4476795213190E-01  1.5949859060429E+00 -9.8412299313100E-01
37  3.6000000000000E-01 -3.9582642583802E-01  1.5953886882042E+00 -9.7877471625454E-01
38  3.7000000000000E-01 -5.4026712253094E-01  1.5929576713631E+00 -9.6161104551557E-01
39  3.8000000000000E-01 -6.7693895306308E-01  1.5877405497131E+00 -9.3279476797438E-01
40  3.9000000000000E-01 -8.0483263632386E-01  1.5797910166073E+00 -8.9272942250959E-01
41  4.0000000000000E-01 -9.2308349302218E-01  1.5691691092555E+00 -8.4203364058493E-01
42  4.1000000000000E-01 -1.0309705057803E+00  1.5559416862690E+00 -7.8150725524914E-01
43  4.2000000000000E-01 -1.1279120526727E+00  1.5401829982955E+00 -7.1209084920893E-01
44  4.3000000000000E-01 -1.2134588498231E+00  1.5219753033452E+00 -6.3482075022610E-01
45  4.4000000000000E-01 -1.2872847393281E+00  1.5014094721796E+00 -5.5078172588665E-01
46  4.5000000000000E-01 -1.3491760266672E+00  1.4785855257200E+00 -4.6105976601544E-01
47  4.6000000000000E-01 -1.3990201034526E+00  1.4536130460874E+00 -3.6669736066572E-01
48  4.7000000000000E-01 -1.4367940852220E+00  1.4266114057285E+00 -2.6865358126673E-01
49  4.8000000000000E-01 -1.4625541501301E+00  1.3977097650630E+00 -1.6777105454529E-01
50  4.9000000000000E-01 -1.4764261849076E+00  1.3670467980001E+00 -6.4751591491472E-02
51  5.0000000000000E-01 -1.4785982331604E+00  1.3347701161632E+00  3.9858189276004E-02
52  5.1000000000000E-01 -1.4693151034609E+00  1.3010353762201E+00  1.4567040401845E-01
53  5.2000000000000E-01 -1.4488753376112E+00  1.2660050697413E+00  2.5244832581808E-01
54  5.3000000000000E-01 -1.4176305709011E+00  1.2298470107758E+00  3.6008798018420E-01
55  5.4000000000000E-01 -1.3759871448125E+00  1.1927325520910E+00  4.6858978839136E-01
56  5.5000000000000E-01 -1.3244096673913E+00  1.1548345759807E+00  5.7802168274073E-01
57  5.6000000000000E-01 -1.2634260662439E+00  1.1163253189262E+00  6.8847561023650E-01
58  5.7000000000000E-01 -1.1936335520267E+00  1.0773741004985E+00  8.0001974970719E-01
59  5.8000000000000E-01 -1.1157048136055E+00  1.0381450350852E+00  9.1264906971167E-01
60  5.9000000000000E-01 -1.0303937055802E+00  9.9879480981598E-01  1.0262370328596E+00
61  6.0000000000000E-01 -9.3853966870590E-01  9.5947061310698E-01  1.1404912943104E+00
62  6.1000000000000E-01 -8.4107014604551E-01  9.2030829537198E-01  1.2549161424338E+00
63  6.2000000000000E-01 -7.3900032251299E-01  8.8143083667210E-01  1.3687841889829E+00
64  6.3000000000000E-01 -6.3342962069686E-01  8.4294718560193E-01  1.4811194426367E+00
65  6.4000000000000E-01 -5.2553452729770E-01  8.0495151992761E-01  1.5906934080966E+00
66  6.5000000000000E-01 -4.1655749602037E-01  7.6752296296091E-01  1.6960352639233E+00
67  6.6000000000000E-01 -3.0779186652834E-01  7.3072577107924E-01  1.7954565120513E+00
68  6.7000000000000E-01 -2.0056294593962E-01  6.9460998800894E-01  1.8870897906782E+00
69  6.8000000000000E-01 -9.6205609279641E-02  6.5921254137865E-01  1.9689408329567E+00
70  6.9000000000000E-01  3.9610221666178E-03  6.2455873756168E-01  2.0389518707728E+00
71  7.0000000000000E-01  9.8661080961647E-02  5.9066409289319E-01  2.0950741597019E+00
72  7.1000000000000E-01  1.8669073134831E-01  5.5753642384773E-01  2.1353467695658E+00
73  7.2000000000000E-01  2.6694720334138E-01  5.2517810648170E-01  2.1579783730053E+00
74  7.3000000000000E-01  3.3845698438559E-01  4.9358840702788E-01  2.1614284949528E+00
75  7.4000000000000E-01  4.0040204143401E-01  4.6276578145581E-01  2.1444845755036E+00
76  7.5000000000000E-01  4.5214296961217E-01  4.3271004236061E-01  2.1063312567013E+00
77  7.6000000000000E-01  4.9323803928963E-01  4.0342429678140E-01  2.0466085316275E+00
78  7.7000000000000E-01  5.2345723940988E-01  3.7491656832008E-01  1.9654557851462E+00
79  7.8000000000000E-01  5.4279058687386E-01  3.4720103085564E-01  1.8635392949189E+00
80  7.9000000000000E-01  5.5145018278994E-01  3.2029879863959E-01  1.7420614264947E+00
81  8.0000000000000E-01  5.4986573760516E-01  2.9423823784681E-01  1.6027505184429E+00
82  8.1000000000000E-01  5.3867354780900E-01  2.6905478681244E-01  1.4478312779447E+00
83  8.2000000000000E-01  5.1869917512375E-01  2.4479029517028E-01  1.2799763554323E+00
84  8.3000000000000E-01  4.9093434209443E-01  2.2149191480619E-01  1.1022405976211E+00
85  8.4000000000000E-01  4.5650880278108E-01  1.9921059681470E-01  9.1798024985215E-01
86  8.5000000000000E-01  4.1665816116284E-01  1.7799926738620E-01  7.3076005039493E-01
87  8.6000000000000E-01  3.7268878109717E-01  1.5791077071808E-01  5.4425169351464E-01
88  8.7000000000000E-01  3.2594104983267E-01  1.3899567771770E-01  3.6212750145702E-01
89  8.8000000000000E-01  2.7775231359692E-01  1.2130006468803E-01  1.8795331084565E-01
90  8.9000000000000E-01  2.2942079232982E-01  1.0486336579085E-01  2.5084526259496E-02
91  9.0000000000000E-01  1.8217169736518E-01  8.9716396515553E-02 -1.2343098903599E-01
92  9.1000000000000E-01  1.3712661958560E-01  7.5879632522850E-02 -2.5494003156641E-01
93  9.2000000000000E-01  9.5277027800811E-02  6.3361809196811E-02 -3.6725877633556E-01
94  9.3000000000000E-01  5.7462421955385E-02  5.2158882367392E-02 -4.5873364604710E-01
95  9.4000000000000E-01  2.4353329847903E-02  4.2253360517475E-02 -5.2828803364551E-01
96  9.5000000000000E-01 -3.5610719258242E-03  3.3613984108885E-02 -5.7545589815106E-01
97  9.6000000000000E-01 -2.5981381736814E-02  2.6195689341089E-02 -6.0040470198738E-01
98  9.7000000000000E-01 -4.2803589726106E-02  1.9939752721355E-02 -6.0395169860255E-01
99  9.8000000000000E-01 -5.4123532834720E-02  1.4773970338148E-02 -5.8757917223678E-01
100  9.9000000000000E-01 -6.0242343820979E-02  1.0612682090274E-02 -5.5345587424537E-01
101  1.0000000000000E+00 -6.1675440742772E-02  7.3564168669967E-03 -5.0447303623737E-01
102  1.0100000000000E+00 -5.9162485051395E-02  4.8913261239571E-03 -4.4428081715366E-01
103  1.0200000000000E+00 -5.3599989806467E-02  3.0945486887658E-03 -3.7699204655777E-01
104  1.0300000000000E+00 -4.5925929143859E-02  1.8436797623962E-03 -3.0670340026703E-01
105  1.0400000000000E+00 -3.7068511379182E-02  1.0214915392418E-03 -2.3730995581769E-01
106  1.0500000000000E+00 -2.7895443530332E-02  5.1862512036919E-04 -1.7234583514093E-01
107  1.0600000000000E+00 -1.9106581463942E-02  2.3205381177490E-04 -1.1470099389431E-01
108  1.0700000000000E+00 -1.1415105276260E-02  8.7071936614892E-05 -6.6986739851893E-02
109  1.0800000000000E+00 -5.4180436096330E-03  2.5579537148889E-05 -3.1235668385407E-02
110  1.0900000000000E+00 -1.5350499252527E-03  4.9739091276229E-06 -8.7318876355728E-03
111  1.1000000000000E+00 -3.9791366595939E-05  1.2816496199358E-07 -2.2384134206596E-04
112  1.1100000000000E+00 -7.1565379251773E-06  1.8615326000804E-08 -4.0313912899615E-05
113  1.1200000000000E+00  7.0401744076563E-07 -2.0121179914929E-09  3.9853554954136E-06
114  1.13  0.  0.  0.
115  1.14  0.  0.  0.
116  1.15  0.  0.  0.
117  1.16  0.  0.  0.
118  1.17  0.  0.  0.
119  1.18  0.  0.  0.
120  1.19  0.  0.  0.
121  1.20  0.  0.  0.
122  1.21  0.  0.  0.
123  1.22  0.  0.  0.
124  1.23  0.  0.  0.
125  1.24  0.  0.  0.
126  1.25  0.  0.  0.
127  1.26  0.  0.  0.
128  1.27  0.  0.  0.
129  1.28  0.  0.  0.
130  1.29  0.  0.  0.
131  1.30  0.  0.  0.
132  1.31  0.  0.  0.
133  1.32  0.  0.  0.
134  1.33  0.  0.  0.
135  1.34  0.  0.  0.
136  1.35  0.  0.  0.
137  1.36  0.  0.  0.
138  1.37  0.  0.  0.
139  1.38  0.  0.  0.
140  1.39  0.  0.  0.
141  1.40  0.  0.  0.
142  1.41  0.  0.  0.
143  1.42  0.  0.  0.
144  1.43  0.  0.  0.
145  1.44  0.  0.  0.
146  1.45  0.  0.  0.
147  1.46  0.  0.  0.
148  1.47  0.  0.  0.
149  1.48  0.  0.  0.
150  1.49  0.  0.  0.
151  1.50  0.  0.  0.
152  1.51  0.  0.  0.
153  1.52  0.  0.  0.
154  1.53  0.  0.  0.
155  1.54  0.  0.  0.
156  1.55  0.  0.  0.
157  1.56  0.  0.  0.
158  1.57  0.  0.  0.
159  1.58  0.  0.  0.
160  1.59  0.  0.  0.
161  1.60  0.  0.  0.
162  1.61  0.  0.  0.
163  1.62  0.  0.  0.
164  1.63  0.  0.  0.
165  1.64  0.  0.  0.
166  1.65  0.  0.  0.
167  1.66  0.  0.  0.
168  1.67  0.  0.  0.
169  1.68  0.  0.  0.
170  1.69  0.  0.  0.
171  1.70  0.  0.  0.
172  1.71  0.  0.  0.
173  1.72  0.  0.  0.
174  1.73  0.  0.  0.
175  1.74  0.  0.  0.
176  1.75  0.  0.  0.
177  1.76  0.  0.  0.
178  1.77  0.  0.  0.
179  1.78  0.  0.  0.
180  1.79  0.  0.  0.
181  1.80  0.  0.  0.
182  1.81  0.  0.  0.
183  1.82  0.  0.  0.
184  1.83  0.  0.  0.
185  1.84  0.  0.  0.
186  1.85  0.  0.  0.
187  1.86  0.  0.  0.
188  1.87  0.  0.  0.
189  1.88  0.  0.  0.
190  1.89  0.  0.  0.
191  1.90  0.  0.  0.
192  1.91  0.  0.  0.
193  1.92  0.  0.  0.
194  1.93  0.  0.  0.
195  1.94  0.  0.  0.
196  1.95  0.  0.  0.
197  1.96  0.  0.  0.
198  1.97  0.  0.  0.
199  1.98  0.  0.  0.
200  1.99  0.  0.  0.
201  2.00  0.  0.  0.
202  2.01  0.  0.  0.
203  2.02  0.  0.  0.
204  2.03  0.  0.  0.
205  2.04  0.  0.  0.
206  2.05  0.  0.  0.
207  2.06  0.  0.  0.
208  2.07  0.  0.  0.
209  2.08  0.  0.  0.
210  2.09  0.  0.  0.
211  2.10  0.  0.  0.
212  2.11  0.  0.  0.
213  2.12  0.  0.  0.
214  2.13  0.  0.  0.
215  2.14  0.  0.  0.
216  2.15  0.  0.  0.
217  2.16  0.  0.  0.
218  2.17  0.  0.  0.
219  2.18  0.  0.  0.
220  2.19  0.  0.  0.
221  2.20  0.  0.  0.
222  2.21  0.  0.  0.
223  2.22  0.  0.  0.
224  2.23  0.  0.  0.
225  2.24  0.  0.  0.
226  2.25  0.  0.  0.
227  2.26  0.  0.  0.
228  2.27  0.  0.  0.
229  2.28  0.  0.  0.
230  2.29  0.  0.  0.
231  2.30  0.  0.  0.
232  2.31  0.  0.  0.
233  2.32  0.  0.  0.
234  2.33  0.  0.  0.
235  2.34  0.  0.  0.
236  2.35  0.  0.  0.
237  2.36  0.  0.  0.
238  2.37  0.  0.  0.
239  2.38  0.  0.  0.
240  2.39  0.  0.  0.
241  2.40  0.  0.  0.
242  2.41  0.  0.  0.
243  2.42  0.  0.  0.
244  2.43  0.  0.  0.
245  2.44  0.  0.  0.
246  2.45  0.  0.  0.
247  2.46  0.  0.  0.
248  2.47  0.  0.  0.
249  2.48  0.  0.  0.
250  2.49  0.  0.  0.
251  2.50  0.  0.  0.
252  2.51  0.  0.  0.
253  2.52  0.  0.  0.
254  2.53  0.  0.  0.
255  2.54  0.  0.  0.
256  2.55  0.  0.  0.
257  2.56  0.  0.  0.
258  2.57  0.  0.  0.
259  2.58  0.  0.  0.
260  2.59  0.  0.  0.
261  2.60  0.  0.  0.
262  2.61  0.  0.  0.
263  2.62  0.  0.  0.
264  2.63  0.  0.  0.
265  2.64  0.  0.  0.
266  2.65  0.  0.  0.
267  2.66  0.  0.  0.
268  2.67  0.  0.  0.
269  2.68  0.  0.  0.
270  2.69  0.  0.  0.
271  2.70  0.  0.  0.
272  2.71  0.  0.  0.
273  2.72  0.  0.  0.
274  2.73  0.  0.  0.
275  2.74  0.  0.  0.
276  2.75  0.  0.  0.
277  2.76  0.  0.  0.
278  2.77  0.  0.  0.
279  2.78  0.  0.  0.
280  2.79  0.  0.  0.
281  2.80  0.  0.  0.
282  2.81  0.  0.  0.
283  2.82  0.  0.  0.
284  2.83  0.  0.  0.
285  2.84  0.  0.  0.
286  2.85  0.  0.  0.
287  2.86  0.  0.  0.
288  2.87  0.  0.  0.
289  2.88  0.  0.  0.
290  2.89  0.  0.  0.
291  2.90  0.  0.  0.
292  2.91  0.  0.  0.
293  2.92  0.  0.  0.
294  2.93  0.  0.  0.
295  2.94  0.  0.  0.
296  2.95  0.  0.  0.
297  2.96  0.  0.  0.
298  2.97  0.  0.  0.
299  2.98  0.  0.  0.
300  2.99  0.  0.  0.
301  3.00  0.  0.  0.
302  3.01  0.  0.  0.
303  3.02  0.  0.  0.
304  3.03  0.  0.  0.
305  3.04  0.  0.  0.
306  3.05  0.  0.  0.
307  3.06  0.  0.  0.
308  3.07  0.  0.  0.
309  3.08  0.  0.  0.
310  3.09  0.  0.  0.
311  3.10  0.  0.  0.
312  3.11  0.  0.  0.
313  3.12  0.  0.  0.
314  3.13  0.  0.  0.
315  3.14  0.  0.  0.
316  3.15  0.  0.  0.
317  3.16  0.  0.  0.
318  3.17  0.  0.  0.
319  3.18  0.  0.  0.
320  3.19  0.  0.  0.
321  3.20  0.  0.  0.
322  3.21  0.  0.  0.
323  3.22  0.  0.  0.
324  3.23  0.  0.  0.
325  3.24  0.  0.  0.
326  3.25  0.  0.  0.
327  3.26  0.  0.  0.
328  3.27  0.  0.  0.
329  3.28  0.  0.  0.
330  3.29  0.  0.  0.
331  3.30  0.  0.  0.
332  3.31  0.  0.  0.
333  3.32  0.  0.  0.
334  3.33  0.  0.  0.
335  3.34  0.  0.  0.
336  3.35  0.  0.  0.
337  3.36  0.  0.  0.
338  3.37  0.  0.  0.
339  3.38  0.  0.  0.
340  3.39  0.  0.  0.
341  3.40  0.  0.  0.
342  3.41  0.  0.  0.
343  3.42  0.  0.  0.
344  3.43  0.  0.  0.
345  3.44  0.  0.  0.
346  3.45  0.  0.  0.
347  3.46  0.  0.  0.
348  3.47  0.  0.  0.
349  3.48  0.  0.  0.
350  3.49  0.  0.  0.
351  3.50  0.  0.  0.
352  3.51  0.  0.  0.
353  3.52  0.  0.  0.
354  3.53  0.  0.  0.
355  3.54  0.  0.  0.
356  3.55  0.  0.  0.
357  3.56  0.  0.  0.
358  3.57  0.  0.  0.
359  3.58  0.  0.  0.
360  3.59  0.  0.  0.
361  3.60  0.  0.  0.
362  3.61  0.  0.  0.
363  3.62  0.  0.  0.
364  3.63  0.  0.  0.
365  3.64  0.  0.  0.
366  3.65  0.  0.  0.
367  3.66  0.  0.  0.
368  3.67  0.  0.  0.
369  3.68  0.  0.  0.
370  3.69  0.  0.  0.
371  3.70  0.  0.  0.
372  3.71  0.  0.  0.
373  3.72  0.  0.  0.
374  3.73  0.  0.  0.
375  3.74  0.  0.  0.
376  3.75  0.  0.  0.
377  3.76  0.  0.  0.
378  3.77  0.  0.  0.
379  3.78  0.  0.  0.
380  3.79  0.  0.  0.
381  3.80  0.  0.  0.
382  3.81  0.  0.  0.
383  3.82  0.  0.  0.
384  3.83  0.  0.  0.
385  3.84  0.  0.  0.
386  3.85  0.  0.  0.
387  3.86  0.  0.  0.
388  3.87  0.  0.  0.
389  3.88  0.  0.  0.
390  3.89  0.  0.  0.
391  3.90  0.  0.  0.
392  3.91  0.  0.  0.
393  3.92  0.  0.  0.
394  3.93  0.  0.  0.
395  3.94  0.  0.  0.
396  3.95  0.  0.  0.
397  3.96  0.  0.  0.
398  3.97  0.  0.  0.
399  3.98  0.  0.  0.
400  3.99  0.  0.  0.
401  4.00  0.  0.  0.
402  4.01  0.  0.  0.
403  4.02  0.  0.  0.
404  4.03  0.  0.  0.
405  4.04  0.  0.  0.
406  4.05  0.  0.  0.
407  4.06  0.  0.  0.
408  4.07  0.  0.  0.
409  4.08  0.  0.  0.
410  4.09  0.  0.  0.
411  4.10  0.  0.  0.
412  4.11  0.  0.  0.
413  4.12  0.  0.  0.
414  4.13  0.  0.  0.
415  4.14  0.  0.  0.
416  4.15  0.  0.  0.
417  4.16  0.  0.  0.
418  4.17  0.  0.  0.
419  4.18  0.  0.  0.
420  4.19  0.  0.  0.
421  4.20  0.  0.  0.
422  4.21  0.  0.  0.
423  4.22  0.  0.  0.
424  4.23  0.  0.  0.
425  4.24  0.  0.  0.
426  4.25  0.  0.  0.
427  4.26  0.  0.  0.
428  4.27  0.  0.  0.
429  4.28  0.  0.  0.
430  4.29  0.  0.  0.
431  4.30  0.  0.  0.
432  4.31  0.  0.  0.
433  4.32  0.  0.  0.
434  4.33  0.  0.  0.
435  4.34  0.  0.  0.
436  4.35  0.  0.  0.
437  4.36  0.  0.  0.
438  4.37  0.  0.  0.
439  4.38  0.  0.  0.
440  4.39  0.  0.  0.
441  4.40  0.  0.  0.
442  4.41  0.  0.  0.
443  4.42  0.  0.  0.
444  4.43  0.  0.  0.
445  4.44  0.  0.  0.
446  4.45  0.  0.  0.
447  4.46  0.  0.  0.
448  4.47  0.  0.  0.
449  4.48  0.  0.  0.
450  4.49  0.  0.  0.
451  4.50  0.  0.  0.
452  4.51  0.  0.  0.
453  4.52  0.  0.  0.
454  4.53  0.  0.  0.
455  4.54  0.  0.  0.
456  4.55  0.  0.  0.
457  4.56  0.  0.  0.
458  4.57  0.  0.  0.
459  4.58  0.  0.  0.
460  4.59  0.  0.  0.
461  4.60  0.  0.  0.
462  4.61  0.  0.  0.
463  4.62  0.  0.  0.
464  4.63  0.  0.  0.
465  4.64  0.  0.  0.
466  4.65  0.  0.  0.
467  4.66  0.  0.  0.
468  4.67  0.  0.  0.
469  4.68  0.  0.  0.
470  4.69  0.  0.  0.
471  4.70  0.  0.  0.
472  4.71  0.  0.  0.
473  4.72  0.  0.  0.
474  4.73  0.  0.  0.
475  4.74  0.  0.  0.
476  4.75  0.  0.  0.
477  4.76  0.  0.  0.
478  4.77  0.  0.  0.
479  4.78  0.  0.  0.
480  4.79  0.  0.  0.
481  4.80  0.  0.  0.
482  4.81  0.  0.  0.
483  4.82  0.  0.  0.
484  4.83  0.  0.  0.
485  4.84  0.  0.  0.
486  4.85  0.  0.  0.
487  4.86  0.  0.  0.
488  4.87  0.  0.  0.
489  4.88  0.  0.  0.
490  4.89  0.  0.  0.
491  4.90  0.  0.  0.
492  4.91  0.  0.  0.
493  4.92  0.  0.  0.
494  4.93  0.  0.  0.
495  4.94  0.  0.  0.
496  4.95  0.  0.  0.
497  4.96  0.  0.  0.
498  4.97  0.  0.  0.
499  4.98  0.  0.  0.
500  4.99  0.  0.  0.
501  5.00  0.  0.  0.
502  5.01  0.  0.  0.
503  5.02  0.  0.  0.
504  5.03  0.  0.  0.
505  5.04  0.  0.  0.
506  5.05  0.  0.  0.
507  5.06  0.  0.  0.
508  5.07  0.  0.  0.
509  5.08  0.  0.  0.
510  5.09  0.  0.  0.
511  5.10  0.  0.  0.
512  5.11  0.  0.  0.
513  5.12  0.  0.  0.
514  5.13  0.  0.  0.
515  5.14  0.  0.  0.
516  5.15  0.  0.  0.
517  5.16  0.  0.  0.
518  5.17  0.  0.  0.
519  5.18  0.  0.  0.
520  5.19  0.  0.  0.
521  5.20  0.  0.  0.
522  5.21  0.  0.  0.
523  5.22  0.  0.  0.
524  5.23  0.  0.  0.
525  5.24  0.  0.  0.
526  5.25  0.  0.  0.
527  5.26  0.  0.  0.
528  5.27  0.  0.  0.
529  5.28  0.  0.  0.
530  5.29  0.  0.  0.
531  5.30  0.  0.  0.
532  5.31  0.  0.  0.
533  5.32  0.  0.  0.
534  5.33  0.  0.  0.
535  5.34  0.  0.  0.
536  5.35  0.  0.  0.
537  5.36  0.  0.  0.
538  5.37  0.  0.  0.
539  5.38  0.  0.  0.
540  5.39  0.  0.  0.
541  5.40  0.  0.  0.
542  5.41  0.  0.  0.
543  5.42  0.  0.  0.
544  5.43  0.  0.  0.
545  5.44  0.  0.  0.
546  5.45  0.  0.  0.
547  5.46  0.  0.  0.
548  5.47  0.  0.  0.
549  5.48  0.  0.  0.
550  5.49  0.  0.  0.
551  5.50  0.  0.  0.
552  5.51  0.  0.  0.
553  5.52  0.  0.  0.
554  5.53  0.  0.  0.
555  5.54  0.  0.  0.
556  5.55  0.  0.  0.
557  5.56  0.  0.  0.
558  5.57  0.  0.  0.
559  5.58  0.  0.  0.
560  5.59  0.  0.  0.
561  5.60  0.  0.  0.
562  5.61  0.  0.  0.
563  5.62  0.  0.  0.
564  5.63  0.  0.  0.
565  5.64  0.  0.  0.
566  5.65  0.  0.  0.
567  5.66  0.  0.  0.
568  5.67  0.  0.  0.
569  5.68  0.  0.  0.
570  5.69  0.  0.  0.
571  5.70  0.  0.  0.
572  5.71  0.  0.  0.
573  5.72  0.  0.  0.
574  5.73  0.  0.  0.
575  5.74  0.  0.  0.
576  5.75  0.  0.  0.
577  5.76  0.  0.  0.
578  5.77  0.  0.  0.
579  5.78  0.  0.  0.
580  5.79  0.  0.  0.
581  5.80  0.  0.  0.
582  5.81  0.  0.  0.
583  5.82  0.  0.  0.
584  5.83  0.  0.  0.
585  5.84  0.  0.  0.
586  5.85  0.  0.  0.
587  5.86  0.  0.  0.
588  5.87  0.  0.  0.
589  5.88  0.  0.  0.
590  5.89  0.  0.  0.
591  5.90  0.  0.  0.
592  5.91  0.  0.  0.
593  5.92  0.  0.  0.
594  5.93  0.  0.  0.
595  5.94  0.  0.  0.
596  5.95  0.  0.  0.
597  5.96  0.  0.  0.
598  5.97  0.  0.  0.
599  5.98  0.  0.  0.
600  5.99  0.  0.  0.
1                         6.9337361489066E+00 -6.2766518898414E+00
1  0.0000000000000E+00  2.7575049632578E-08 -5.8660439700153E-09
2  1.0000000000000E-02  7.3663485278878E-03  1.4466006255610E-03
3  2.0000000000000E-02  2.9359193044028E-02  5.7869520052018E-03
4  3.0000000000000E-02  6.5661295820179E-02  1.3022562373933E-02
5  4.0000000000000E-02  1.1574846569232E-01  2.3155481506330E-02
6  5.0000000000000E-02  1.7889631935179E-01  3.6187617402829E-02
7  6.0000000000000E-02  2.5418965427674E-01  5.2119804552799E-02
8  7.0000000000000E-02  3.4053433975263E-01  7.0950647935169E-02
9  8.0000000000000E-02  4.3667160485499E-01  9.2675172783417E-02
10  9.0000000000000E-02  5.4119457425680E-01  1.1728331526857E-01
11  1.0000000000000E-01  6.5256687438955E-01  1.4475829351852E-01
12  1.1000000000000E-01  7.6914310405253E-01  1.7507490169454E-01
13  1.2000000000000E-01  8.8919093536552E-01  2.0819777211166E-01
14  1.3000000000000E-01  1.0109145834441E+00  2.4407965157173E-01
15  1.4000000000000E-01  1.1324793569008E+00  2.8265973815736E-01
16  1.5000000000000E-01  1.2520369768878E+00  3.2386212372121E-01
17  1.6000000000000E-01  1.3677513306192E+00  3.6759438523605E-01
18  1.7000000000000E-01  1.4778243069178E+00  4.1374636511055E-01
19  1.8000000000000E-01  1.5805213471115E+00  4.6218917661310E-01
20  1.9000000000000E-01  1.6741963353421E+00  5.1277446579047E-01
21  2.0000000000000E-01  1.7573154487758E+00  5.6533395584955E-01
22  2.1000000000000E-01  1.8284795909741E+00  6.1967929403106E-01
23  2.2000000000000E-01  1.8864450413307E+00  6.7560221469760E-01
24  2.3000000000000E-01  1.9301419703977E+00  7.3287502584364E-01
25  2.4000000000000E-01  1.9586904953152E+00  7.9125141967269E-01
26  2.5000000000000E-01  1.9714139814408E+00  8.5046760143363E-01
27  2.6000000000000E-01  1.9678493354384E+00  9.1024372451370E-01
28  2.7000000000000E-01  1.9477540810887E+00  9.7028561398794E-01
29  2.8000000000000E-01  1.9111100612704E+00  1.0302867555466E+00
30  2.9000000000000E-01  1.8581236670232E+00  1.0899305220681E+00
31  3.0000000000000E-01  1.7892225562618E+00  1.1488926061591E+00
32  3.1000000000000E-01  1.7050488892506E+00  1.2068436238085E+00
33  3.2000000000000E-01  1.6064491739572E+00  1.2634518519336E+00
34  3.3000000000000E-01  1.4944608802966E+00  1.3183860610568E+00
35  3.4000000000000E-01  1.3702960464421E+00  1.3713184036214E+00
36  3.5000000000000E-01  1.2353221611523E+00  1.4219273185185E+00
37  3.6000000000000E-01  1.0910406618291E+00  1.4699004131942E+00
38  3.7000000000000E-01  9.3906343722907E-01  1.5149372861762E+00
39  3.8000000000000E-01  7.8108776500305E-01  1.5567522549213E+00
40  3.9000000000000E-01  6.1887014631206E-01  1.5950769564448E+00
41  4.0000000000000E-01  4.5419952166567E-01  1.6296627911540E+00
42  4.1000000000000E-01  2.8887036313718E-01  1.6602831835700E+00
43  4.2000000000000E-01  1.2465613779694E-01  1.6867356370733E+00
44  4.3000000000000E-01 -3.6716374529611E-02  1.7088435633635E+00
45  4.4000000000000E-01 -1.9359144900531E-01  1.7264578708793E+00
46  4.5000000000000E-01 -3.4440704242726E-01  1.7394582999040E+00
47  4.6000000000000E-01 -4.8771529552214E-01  1.7477544954111E+00
48  4.7000000000000E-01 -6.2220057958787E-01  1.7512868118315E+00
49  4.8000000000000E-01 -7.4669481530837E-01  1.7500268468017E+00
50  4.9000000000000E-01 -8.6018985623713E-01  1.7439777035579E+00
51  5.0000000000000E-01 -9.6184679784749E-01  1.7331739839618E+00
52  5.1000000000000E-01 -1.0510021432752E+00  1.7176815161846E+00
53  5.2000000000000E-01 -1.1271708269786E+00  1.6975968228489E+00
54  5.3000000000000E-01 -1.1900461655829E+00  1.6730463369712E+00
55  5.4000000000000E-01 -1.2394968693176E+00  1.6441853743783E+00
56  5.5000000000000E-01 -1.2755613060018E+00  1.6111968724589E+00
57  5.6000000000000E-01 -1.2984392609945E+00  1.5742899061723E+00
58  5.7000000000000E-01 -1.3084814796684E+00  1.5336979932434E+00
59  5.8000000000000E-01 -1.3061773128475E+00  1.4896772014504E+00
60  5.9000000000000E-01 -1.2921408096456E+00  1.4425040719140E+00
61  6.0000000000000E-01 -1.2670956159872E+00  1.3924733733395E+00
62  6.1000000000000E-01 -1.2318590408286E+00  1.3398957032861E+00
63  6.2000000000000E-01 -1.1873256461434E+00  1.2850949537374E+00
64  6.3000000000000E-01 -1.1344507017842E+00  1.2284056595314E+00
65  6.4000000000000E-01 -1.0742338233770E+00  1.1701702495631E+00
66  6.5000000000000E-01 -1.0077030816623E+00  1.1107362220741E+00
67  6.6000000000000E-01 -9.3589983656996E-01  1.0504532667579E+00
68  6.7000000000000E-01 -8.5986451031684E-01  9.8967035778867E-01
69  6.8000000000000E-01 -7.8062347253300E-01  9.2873284318584E-01
70  6.9000000000000E-01 -6.9917716841270E-01  8.6797955708330E-01
71  7.0000000000000E-01 -6.1648957965140E-01  8.0773998244243E-01
72  7.1000000000000E-01 -5.3347906882648E-01  7.4833149245853E-01
73  7.2000000000000E-01 -4.5101062208750E-01  6.9005669931804E-01
74  7.3000000000000E-01 -3.6988947347849E-01  6.3320093901636E-01
75  7.4000000000000E-01 -2.9085606760034E-01  5.7802992060683E-01
76  7.5000000000000E-01 -2.1458229601995E-01  5.2478756749267E-01
77  7.6000000000000E-01 -1.4166892692887E-01  4.7369407718127E-01
78  7.7000000000000E-01 -7.2644136838022E-02  4.2494422429352E-01
79  7.8000000000000E-01 -7.9630470695887E-03  3.7870592957439E-01
80  7.9000000000000E-01  5.1991834276184E-02  3.3511911521438E-01
81  8.0000000000000E-01  1.0690936331261E-01  2.9429486400651E-01
82  8.1000000000000E-01  1.5654780002647E-01  2.5631489678806E-01
83  8.2000000000000E-01  2.0073222901864E-01  2.2123137931560E-01
84  8.3000000000000E-01  2.3935145118496E-01  1.8906706627306E-01
85  8.4000000000000E-01  2.7235443571140E-01  1.5981578659694E-01
86  8.5000000000000E-01  2.9974642460632E-01  1.3344327080532E-01
87  8.6000000000000E-01  3.2158478933138E-01  1.0988831762502E-01
88  8.7000000000000E-01  3.3797475191509E-01  8.9064294004763E-02
89  8.8000000000000E-01  3.4906510203286E-01  7.0860959662056E-02
90  8.9000000000000E-01  3.5504406746451E-01  5.5146604705420E-02
91  9.0000000000000E-01  3.5613552838858E-01  4.1770486663743E-02
92  9.1000000000000E-01  3.5259580615299E-01  3.0565551489891E-02
93  9.2000000000000E-01  3.4471130420770E-01  2.1351421824365E-02
94  9.3000000000000E-01  3.3279733225291E-01  1.3937635033373E-02
95  9.4000000000000E-01  3.1719850353896E-01  8.1271132890659E-03
96  9.5000000000000E-01  2.9829115860763E-01  3.7198482435778E-03
97  9.6000000000000E-01  2.7648833535106E-01  5.1678366010151E-04
98  9.7000000000000E-01  2.5224787363973E-01 -1.6761193050188E-03
99  9.8000000000000E-01  2.2608431141500E-01 -3.0436476369875E-03
100  9.9000000000000E-01  1.9858530761100E-01 -3.7569430639535E-03
101  1.0000000000000E+00  1.7043326509307E-01 -3.9689672154243E-03
102  1.0100000000000E+00  1.4242585332166E-01 -3.8104072009820E-03
103  1.0200000000000E+00  1.1539887606505E-01 -3.3936602247904E-03
104  1.0300000000000E+00  9.0106866169063E-02 -2.8196613830449E-03
105  1.0400000000000E+00  6.7197684639212E-02 -2.1769384738855E-03
106  1.0500000000000E+00  4.7193586993055E-02 -1.5417772143771E-03
107  1.0600000000000E+00  3.0446751439980E-02 -9.8772037284308E-04
108  1.0700000000000E+00  1.7272145066160E-02 -5.4903199552763E-04
109  1.0800000000000E+00  7.8372464054163E-03 -2.4030796707142E-04
110  1.0900000000000E+00  2.1352816944138E-03 -6.1940178448473E-05
111  1.1000000000000E+00  5.3323762368626E-05 -1.4044963948194E-06
112  1.1100000000000E+00  9.6252268893350E-06 -2.6144969056474E-07
113  1.1200000000000E+00 -9.6237464241826E-07  2.7064291346543E-08
114  1.13  0.  0.
115  1.14  0.  0.
116  1.15  0.  0.
117  1.16  0.  0.
118  1.17  0.  0.
119  1.18  0.  0.
120  1.19  0.  0.
121  1.20  0.  0.
122  1.21  0.  0.
123  1.22  0.  0.
124  1.23  0.  0.
125  1.24  0.  0.
126  1.25  0.  0.
127  1.26  0.  0.
128  1.27  0.  0.
129  1.28  0.  0.
130  1.29  0.  0.
131  1.30  0.  0.
132  1.31  0.  0.
133  1.32  0.  0.
134  1.33  0.  0.
135  1.34  0.  0.
136  1.35  0.  0.
137  1.36  0.  0.
138  1.37  0.  0.
139  1.38  0.  0.
140  1.39  0.  0.
141  1.40  0.  0.
142  1.41  0.  0.
143  1.42  0.  0.
144  1.43  0.  0.
145  1.44  0.  0.
146  1.45  0.  0.
147  1.46  0.  0.
148  1.47  0.  0.
149  1.48  0.  0.
150  1.49  0.  0.
151  1.50  0.  0.
152  1.51  0.  0.
153  1.52  0.  0.
154  1.53  0.  0.
155  1.54  0.  0.
156  1.55  0.  0.
157  1.56  0.  0.
158  1.57  0.  0.
159  1.58  0.  0.
160  1.59  0.  0.
161  1.60  0.  0.
162  1.61  0.  0.
163  1.62  0.  0.
164  1.63  0.  0.
165  1.64  0.  0.
166  1.65  0.  0.
167  1.66  0.  0.
168  1.67  0.  0.
169  1.68  0.  0.
170  1.69  0.  0.
171  1.70  0.  0.
172  1.71  0.  0.
173  1.72  0.  0.
174  1.73  0.  0.
175  1.74  0.  0.
176  1.75  0.  0.
177  1.76  0.  0.
178  1.77  0.  0.
179  1.78  0.  0.
180  1.79  0.  0.
181  1.80  0.  0.
182  1.81  0.  0.
183  1.82  0.  0.
184  1.83  0.  0.
185  1.84  0.  0.
186  1.85  0.  0.
187  1.86  0.  0.
188  1.87  0.  0.
189  1.88  0.  0.
190  1.89  0.  0.
191  1.90  0.  0.
192  1.91  0.  0.
193  1.92  0.  0.
194  1.93  0.  0.
195  1.94  0.  0.
196  1.95  0.  0.
197  1.96  0.  0.