Nh    ONCVPSP-4.0.1  r_core=   1.10128   1.10128   1.10128   1.10128
    113.0000     53.0000      211217    zatom,zion,pspd
     8      11   3     4   600     0    pspcod,pspxc,lmax,lloc,mmax,r2well
  5.99000000  5.00000000  0.00000000    rchrg fchrg qchrg
     3     2     2     2     0    nproj
     1     1           extension_switch
   0                         2.9041420421293E+01 -8.2381184309430E+00  3.1742802805277E+00
     1  0.0000000000000E+00  4.0911285470457E-09  2.1834600794080E-09  3.1165735603356E-08
     2  1.0000000000000E-02  2.2291599393146E-01  6.7629094320241E-02  4.3386313266891E-02
     3  2.0000000000000E-02  4.4332281093398E-01  1.3510753786816E-01  8.5332074704137E-02
     4  3.0000000000000E-02  6.5874063745176E-01  2.0228529952929E-01  1.2441974235466E-01
     5  4.0000000000000E-02  8.6674811068329E-01  2.6901359204383E-01  1.5927764956446E-01
     6  5.0000000000000E-02  1.0650108523109E+00  3.3514550465014E-01  1.8860257206949E-01
     7  6.0000000000000E-02  1.2513091678489E+00  4.0053664685563E-01  2.1118182460594E-01
     8  7.0000000000000E-02  1.4235646269296E+00  4.6504580426095E-01  2.2591468924833E-01
     9  8.0000000000000E-02  1.5798652357530E+00  5.2853560518007E-01  2.3183294651392E-01
    10  9.0000000000000E-02  1.7184889096256E+00  5.9087319431053E-01  2.2812024601527E-01
    11  1.0000000000000E-01  1.8379249520570E+00  6.5193090706000E-01  2.1413001888233E-01
    12  1.1000000000000E-01  1.9368932484183E+00  7.1158693548254E-01  1.8940160230890E-01
    13  1.2000000000000E-01  2.0143608878267E+00  7.6972597428467E-01  1.5367422048579E-01
    14  1.3000000000000E-01  2.0695559378104E+00  8.2623983318536E-01  1.0689844883636E-01
    15  1.4000000000000E-01  2.1019781133780E+00  8.8102800020603E-01  4.9244782593053E-02
    16  1.5000000000000E-01  2.1114061061677E+00  9.3399813935806E-01 -1.8891061337232E-02
    17  1.6000000000000E-01  2.0979013708981E+00  9.8506650579194E-01 -9.6886456817681E-02
    18  1.7000000000000E-01  2.0618082056667E+00  1.0341582618534E+00 -1.8389410271391E-01
    19  1.8000000000000E-01  2.0037500096412E+00  1.0812076786967E+00 -2.7884842925690E-01
    20  1.9000000000000E-01  1.9246216559731E+00  1.1261582101423E+00 -3.8047635315268E-01
    21  2.0000000000000E-01  1.8255779785472E+00  1.1689624282949E+00 -4.8731246900517E-01
    22  2.1000000000000E-01  1.7080184373682E+00  1.2095818139946E+00 -5.9771866228637E-01
    23  2.2000000000000E-01  1.5735680975486E+00  1.2479863993382E+00 -7.0990801628304E-01
    24  2.3000000000000E-01  1.4240551293003E+00  1.2841542641481E+00 -8.2197276561209E-01
    25  2.4000000000000E-01  1.2614851091181E+00  1.3180708932082E+00 -9.3191592601620E-01
    26  2.5000000000000E-01  1.0880124734097E+00  1.3497284061383E+00 -1.0376861085746E+00
    27  2.6000000000000E-01  9.0590954298057E-01  1.3791246767476E+00 -1.1372149107687E+00
    28  2.7000000000000E-01  7.1753359788768E-01  1.4062623633741E+00 -1.2284561716122E+00
    29  2.8000000000000E-01  5.2529253511051E-01  1.4311478758891E+00 -1.3094262877091E+00
    30  2.9000000000000E-01  3.3160968434654E-01  1.4537903085282E+00 -1.3782447156997E+00
    31  3.0000000000000E-01  1.3888838831969E-01  1.4742003703346E+00 -1.4331737376257E+00
    32  3.1000000000000E-01 -5.0523028076844E-02  1.4923893466325E+00 -1.4726565420894E+00
    33  3.2000000000000E-01 -2.3436527169944E-01  1.5083681254753E+00 -1.4953526777053E+00
    34  3.3000000000000E-01 -4.1050046098527E-01  1.5221463223824E+00 -1.5001699672672E+00
    35  3.4000000000000E-01 -5.7694228036247E-01  1.5337315348593E+00 -1.4862920313207E+00
    36  3.5000000000000E-01 -7.3188335824496E-01  1.5431287552256E+00 -1.4532006574291E+00
    37  3.6000000000000E-01 -8.7371937167567E-01  1.5503399662143E+00 -1.4006923643232E+00
    38  3.7000000000000E-01 -1.0010694471986E+00  1.5553639387819E+00 -1.3288886453305E+00
    39  3.8000000000000E-01 -1.1127925048606E+00  1.5581962457220E+00 -1.2382395291335E+00
    40  3.9000000000000E-01 -1.2079992783405E+00  1.5588294982079E+00 -1.1295202633930E+00
    41  4.0000000000000E-01 -1.2860598367720E+00  1.5572538055069E+00 -1.0038211029318E+00
    42  4.1000000000000E-01 -1.3466065303501E+00  1.5534574510468E+00 -8.6253036345514E-01
    43  4.2000000000000E-01 -1.3895323796360E+00  1.5474277710205E+00 -7.0731107845164E-01
    44  4.3000000000000E-01 -1.4149850249429E+00  1.5391522150239E+00 -5.4007176531065E-01
    45  4.4000000000000E-01 -1.4233564446629E+00  1.5286195620728E+00 -3.6293196137289E-01
    46  4.5000000000000E-01 -1.4152687374280E+00  1.5158212599509E+00 -1.7818332665352E-01
    47  4.6000000000000E-01 -1.3915563403534E+00  1.5007528513868E+00  1.1752776954433E-02
    48  4.7000000000000E-01 -1.3532451223563E+00  1.4834154472008E+00  2.0437023357562E-01
    49  4.8000000000000E-01 -1.3015288461302E+00  1.4638172044135E+00  3.9712459429259E-01
    50  4.9000000000000E-01 -1.2377435336333E+00  1.4419747664317E+00  5.8747988994874E-01
    51  5.0000000000000E-01 -1.1633402972213E+00  1.4179146228557E+00  7.7295475843213E-01
    52  5.1000000000000E-01 -1.0798572115784E+00  1.3916743481455E+00  9.5116684313857E-01
    53  5.2000000000000E-01 -9.8889080056763E-01  1.3633036812912E+00  1.1198744819856E+00
    54  5.3000000000000E-01 -8.9206769867303E-01  1.3328654126216E+00  1.2770147949649E+00
    55  5.4000000000000E-01 -7.9101701984107E-01  1.3004360488284E+00  1.4207373893082E+00
    56  5.5000000000000E-01 -6.8734392859069E-01  1.2661062329872E+00  1.5494330307430E+00
    57  5.6000000000000E-01 -5.8260486086290E-01  1.2299809026318E+00  1.6617567723807E+00
    58  5.7000000000000E-01 -4.7828478700924E-01  1.1921791755686E+00  1.7566451845655E+00
    59  5.8000000000000E-01 -3.7577684849487E-01  1.1528339598885E+00  1.8333274844767E+00
    60  5.9000000000000E-01 -2.7636463525723E-01  1.1120912913315E+00  1.8913305184984E+00
    61  6.0000000000000E-01 -1.8120730412386E-01  1.0701094075873E+00  1.9304776987244E+00
    62  6.1000000000000E-01 -9.1327672046572E-02  1.0270575750944E+00  1.9508821333279E+00
    63  6.2000000000000E-01 -7.6033527745462E-03  9.8311468928329E-01  1.9529343153720E+00
    64  6.3000000000000E-01  6.9239056630608E-02  9.3846767387076E-01  1.9372848432220E+00
    65  6.4000000000000E-01  1.3862679119689E-01  8.9330970868162E-01  1.9048227360712E+00
    66  6.5000000000000E-01  2.0014084035447E-01  8.4783831848838E-01  1.8566499791248E+00
    67  6.6000000000000E-01  2.5351312987231E-01  8.0225335752447E-01  1.7940529844232E+00
    68  6.7000000000000E-01  2.9862115801744E-01  7.5675492565411E-01  1.7184716856444E+00
    69  6.8000000000000E-01  3.3548031651093E-01  7.1154125273118E-01  1.6314669997179E+00
    70  6.9000000000000E-01  3.6423415705136E-01  6.6680658752547E-01  1.5346873864822E+00
    71  7.0000000000000E-01  3.8514288887755E-01  6.2273912683281E-01  1.4298352221151E+00
    72  7.1000000000000E-01  3.9857041243798E-01  5.7951901911977E-01  1.3186336750901E+00
    73  7.2000000000000E-01  4.0497020915046E-01  5.3731647539188E-01  1.2027947374655E+00
    74  7.3000000000000E-01  4.0487041787493E-01  4.9629001801499E-01  1.0839890217421E+00
    75  7.4000000000000E-01  3.9885843541497E-01  4.5658489605125E-01  9.6381788641614E-01
    76  7.5000000000000E-01  3.8756538129548E-01  4.1833169335827E-01  8.4378840329470E-01
    77  7.6000000000000E-01  3.7165076624694E-01  3.8164515328246E-01  7.2529162762464E-01
    78  7.7000000000000E-01  3.5178769905594E-01  3.4662324126225E-01  6.0958457841066E-01
    79  7.8000000000000E-01  3.2864895727149E-01  3.1334646401709E-01  4.9777628045321E-01
    80  7.9000000000000E-01  3.0289423299441E-01  2.8187746117129E-01  3.9081816030482E-01
    81  8.0000000000000E-01  2.7515884467940E-01  2.5226088204754E-01  2.8949902336662E-01
    82  8.1000000000000E-01  2.4604417837685E-01  2.2452355683214E-01  1.9444476580479E-01
    83  8.2000000000000E-01  2.1611008575305E-01  1.9867496719704E-01  1.0612288919233E-01
    84  8.3000000000000E-01  1.8586942000928E-01  1.7470801657307E-01  2.4851783520670E-02
    85  8.4000000000000E-01  1.5578483279734E-01  1.5260009439231E-01 -4.9185379298059E-02
    86  8.5000000000000E-01  1.2626788365774E-01  1.3231442153012E-01 -1.1592244920308E-01
    87  8.6000000000000E-01  9.7680426604747E-02  1.1380165564250E-01 -1.7538828839073E-01
    88  8.7000000000000E-01  7.0338134503065E-02  9.7001724877683E-02 -2.2768165638128E-01
    89  8.8000000000000E-01  4.4515899131421E-02  8.1845846308060E-02 -2.7294395884052E-01
    90  8.9000000000000E-01  2.0454701734869E-02  6.8258671158128E-02 -3.1133113779821E-01
    91  9.0000000000000E-01 -1.6306160214388E-03  5.6160482286684E-02 -3.4298634174368E-01
    92  9.1000000000000E-01 -2.1543438750708E-02  4.5469350226662E-02 -3.6801543159205E-01
    93  9.2000000000000E-01 -3.9098291920862E-02  3.6103132221847E-02 -3.8646785667440E-01
    94  9.3000000000000E-01 -5.4115791876939E-02  2.7981173974843E-02 -3.9832597721828E-01
    95  9.4000000000000E-01 -6.6421102200682E-02  2.1025546104248E-02 -4.0350651929607E-01
    96  9.5000000000000E-01 -7.5847657282672E-02  1.5161616488900E-02 -4.0187852754153E-01
    97  9.6000000000000E-01 -8.2248231311631E-02  1.0317725645406E-02 -3.9330293256709E-01
    98  9.7000000000000E-01 -8.5515776017681E-02  6.4236949649067E-03 -3.7769967577032E-01
    99  9.8000000000000E-01 -8.5616824205146E-02  3.4078569205396E-03 -3.5514923649798E-01
   100  9.9000000000000E-01 -8.2640679758865E-02  1.1922500453830E-03 -3.2603644599866E-01
   101  1.0000000000000E+00 -7.6867814206832E-02 -3.1440249570632E-04 -2.9124487280251E-01
   102  1.0100000000000E+00 -6.8848635623339E-02 -1.2250742228449E-03 -2.5237505136807E-01
   103  1.0200000000000E+00 -5.9312860052965E-02 -1.6657970240499E-03 -2.1147802607504E-01
   104  1.0300000000000E+00 -4.8979669335178E-02 -1.7563866329969E-03 -1.7051927147587E-01
   105  1.0400000000000E+00 -3.8519105331627E-02 -1.6061342485995E-03 -1.3128190991260E-01
   106  1.0500000000000E+00 -2.8518283416557E-02 -1.3116870326396E-03 -9.5297623627650E-02
   107  1.0600000000000E+00 -1.9343946367074E-02 -9.5155822311973E-04 -6.3557172118837E-02
   108  1.0700000000000E+00 -1.1503641256960E-02 -5.9243881508589E-04 -3.7269296934638E-02
   109  1.0800000000000E+00 -5.4600636972828E-03 -2.8953468457706E-04 -1.7484183403843E-02
   110  1.0900000000000E+00 -1.5536408451306E-03 -8.3646931020504E-05 -4.9273963963885E-03
   111  1.1000000000000E+00 -4.0610937241787E-05 -2.1849943285706E-06 -1.2763157007834E-04
   112  1.1100000000000E+00 -7.2954543433663E-06 -3.9601522256174E-07 -2.2963333121797E-05
   113  1.1200000000000E+00  7.1548193264067E-07  3.8733071861824E-08  2.2606072051129E-06
   114  1.13  0.  0.  0.
   115  1.14  0.  0.  0.
   116  1.15  0.  0.  0.
   117  1.16  0.  0.  0.
   118  1.17  0.  0.  0.
   119  1.18  0.  0.  0.
   120  1.19  0.  0.  0.
   121  1.20  0.  0.  0.
   122  1.21  0.  0.  0.
   123  1.22  0.  0.  0.
   124  1.23  0.  0.  0.
   125  1.24  0.  0.  0.
   126  1.25  0.  0.  0.
   127  1.26  0.  0.  0.
   128  1.27  0.  0.  0.
   129  1.28  0.  0.  0.
   130  1.29  0.  0.  0.
   131  1.30  0.  0.  0.
   132  1.31  0.  0.  0.
   133  1.32  0.  0.  0.
   134  1.33  0.  0.  0.
   135  1.34  0.  0.  0.
   136  1.35  0.  0.  0.
   137  1.36  0.  0.  0.
   138  1.37  0.  0.  0.
   139  1.38  0.  0.  0.
   140  1.39  0.  0.  0.
   141  1.40  0.  0.  0.
   142  1.41  0.  0.  0.
   143  1.42  0.  0.  0.
   144  1.43  0.  0.  0.
   145  1.44  0.  0.  0.
   146  1.45  0.  0.  0.
   147  1.46  0.  0.  0.
   148  1.47  0.  0.  0.
   149  1.48  0.  0.  0.
   150  1.49  0.  0.  0.
   151  1.50  0.  0.  0.
   152  1.51  0.  0.  0.
   153  1.52  0.  0.  0.
   154  1.53  0.  0.  0.
   155  1.54  0.  0.  0.
   156  1.55  0.  0.  0.
   157  1.56  0.  0.  0.
   158  1.57  0.  0.  0.
   159  1.58  0.  0.  0.
   160  1.59  0.  0.  0.
   161  1.60  0.  0.  0.
   162  1.61  0.  0.  0.
   163  1.62  0.  0.  0.
   164  1.63  0.  0.  0.
   165  1.64  0.  0.  0.
   166  1.65  0.  0.  0.
   167  1.66  0.  0.  0.
   168  1.67  0.  0.  0.
   169  1.68  0.  0.  0.
   170  1.69  0.  0.  0.
   171  1.70  0.  0.  0.
   172  1.71  0.  0.  0.
   173  1.72  0.  0.  0.
   174  1.73  0.  0.  0.
   175  1.74  0.  0.  0.
   176  1.75  0.  0.  0.
   177  1.76  0.  0.  0.
   178  1.77  0.  0.  0.
   179  1.78  0.  0.  0.
   180  1.79  0.  0.  0.
   181  1.80  0.  0.  0.
   182  1.81  0.  0.  0.
   183  1.82  0.  0.  0.
   184  1.83  0.  0.  0.
   185  1.84  0.  0.  0.
   186  1.85  0.  0.  0.
   187  1.86  0.  0.  0.
   188  1.87  0.  0.  0.
   189  1.88  0.  0.  0.
   190  1.89  0.  0.  0.
   191  1.90  0.  0.  0.
   192  1.91  0.  0.  0.
   193  1.92  0.  0.  0.
   194  1.93  0.  0.  0.
   195  1.94  0.  0.  0.
   196  1.95  0.  0.  0.
   197  1.96  0.  0.  0.
   198  1.97  0.  0.  0.
   199  1.98  0.  0.  0.
   200  1.99  0.  0.  0.
   201  2.00  0.  0.  0.
   202  2.01  0.  0.  0.
   203  2.02  0.  0.  0.
   204  2.03  0.  0.  0.
   205  2.04  0.  0.  0.
   206  2.05  0.  0.  0.
   207  2.06  0.  0.  0.
   208  2.07  0.  0.  0.
   209  2.08  0.  0.  0.
   210  2.09  0.  0.  0.
   211  2.10  0.  0.  0.
   212  2.11  0.  0.  0.
   213  2.12  0.  0.  0.
   214  2.13  0.  0.  0.
   215  2.14  0.  0.  0.
   216  2.15  0.  0.  0.
   217  2.16  0.  0.  0.
   218  2.17  0.  0.  0.
   219  2.18  0.  0.  0.
   220  2.19  0.  0.  0.
   221  2.20  0.  0.  0.
   222  2.21  0.  0.  0.
   223  2.22  0.  0.  0.
   224  2.23  0.  0.  0.
   225  2.24  0.  0.  0.
   226  2.25  0.  0.  0.
   227  2.26  0.  0.  0.
   228  2.27  0.  0.  0.
   229  2.28  0.  0.  0.
   230  2.29  0.  0.  0.
   231  2.30  0.  0.  0.
   232  2.31  0.  0.  0.
   233  2.32  0.  0.  0.
   234  2.33  0.  0.  0.
   235  2.34  0.  0.  0.
   236  2.35  0.  0.  0.
   237  2.36  0.  0.  0.
   238  2.37  0.  0.  0.
   239  2.38  0.  0.  0.
   240  2.39  0.  0.  0.
   241  2.40  0.  0.  0.
   242  2.41  0.  0.  0.
   243  2.42  0.  0.  0.
   244  2.43  0.  0.  0.
   245  2.44  0.  0.  0.
   246  2.45  0.  0.  0.
   247  2.46  0.  0.  0.
   248  2.47  0.  0.  0.
   249  2.48  0.  0.  0.
   250  2.49  0.  0.  0.
   251  2.50  0.  0.  0.
   252  2.51  0.  0.  0.
   253  2.52  0.  0.  0.
   254  2.53  0.  0.  0.
   255  2.54  0.  0.  0.
   256  2.55  0.  0.  0.
   257  2.56  0.  0.  0.
   258  2.57  0.  0.  0.
   259  2.58  0.  0.  0.
   260  2.59  0.  0.  0.
   261  2.60  0.  0.  0.
   262  2.61  0.  0.  0.
   263  2.62  0.  0.  0.
   264  2.63  0.  0.  0.
   265  2.64  0.  0.  0.
   266  2.65  0.  0.  0.
   267  2.66  0.  0.  0.
   268  2.67  0.  0.  0.
   269  2.68  0.  0.  0.
   270  2.69  0.  0.  0.
   271  2.70  0.  0.  0.
   272  2.71  0.  0.  0.
   273  2.72  0.  0.  0.
   274  2.73  0.  0.  0.
   275  2.74  0.  0.  0.
   276  2.75  0.  0.  0.
   277  2.76  0.  0.  0.
   278  2.77  0.  0.  0.
   279  2.78  0.  0.  0.
   280  2.79  0.  0.  0.
   281  2.80  0.  0.  0.
   282  2.81  0.  0.  0.
   283  2.82  0.  0.  0.
   284  2.83  0.  0.  0.
   285  2.84  0.  0.  0.
   286  2.85  0.  0.  0.
   287  2.86  0.  0.  0.
   288  2.87  0.  0.  0.
   289  2.88  0.  0.  0.
   290  2.89  0.  0.  0.
   291  2.90  0.  0.  0.
   292  2.91  0.  0.  0.
   293  2.92  0.  0.  0.
   294  2.93  0.  0.  0.
   295  2.94  0.  0.  0.
   296  2.95  0.  0.  0.
   297  2.96  0.  0.  0.
   298  2.97  0.  0.  0.
   299  2.98  0.  0.  0.
   300  2.99  0.  0.  0.
   301  3.00  0.  0.  0.
   302  3.01  0.  0.  0.
   303  3.02  0.  0.  0.
   304  3.03  0.  0.  0.
   305  3.04  0.  0.  0.
   306  3.05  0.  0.  0.
   307  3.06  0.  0.  0.
   308  3.07  0.  0.  0.
   309  3.08  0.  0.  0.
   310  3.09  0.  0.  0.
   311  3.10  0.  0.  0.
   312  3.11  0.  0.  0.
   313  3.12  0.  0.  0.
   314  3.13  0.  0.  0.
   315  3.14  0.  0.  0.
   316  3.15  0.  0.  0.
   317  3.16  0.  0.  0.
   318  3.17  0.  0.  0.
   319  3.18  0.  0.  0.
   320  3.19  0.  0.  0.
   321  3.20  0.  0.  0.
   322  3.21  0.  0.  0.
   323  3.22  0.  0.  0.
   324  3.23  0.  0.  0.
   325  3.24  0.  0.  0.
   326  3.25  0.  0.  0.
   327  3.26  0.  0.  0.
   328  3.27  0.  0.  0.
   329  3.28  0.  0.  0.
   330  3.29  0.  0.  0.
   331  3.30  0.  0.  0.
   332  3.31  0.  0.  0.
   333  3.32  0.  0.  0.
   334  3.33  0.  0.  0.
   335  3.34  0.  0.  0.
   336  3.35  0.  0.  0.
   337  3.36  0.  0.  0.
   338  3.37  0.  0.  0.
   339  3.38  0.  0.  0.
   340  3.39  0.  0.  0.
   341  3.40  0.  0.  0.
   342  3.41  0.  0.  0.
   343  3.42  0.  0.  0.
   344  3.43  0.  0.  0.
   345  3.44  0.  0.  0.
   346  3.45  0.  0.  0.
   347  3.46  0.  0.  0.
   348  3.47  0.  0.  0.
   349  3.48  0.  0.  0.
   350  3.49  0.  0.  0.
   351  3.50  0.  0.  0.
   352  3.51  0.  0.  0.
   353  3.52  0.  0.  0.
   354  3.53  0.  0.  0.
   355  3.54  0.  0.  0.
   356  3.55  0.  0.  0.
   357  3.56  0.  0.  0.
   358  3.57  0.  0.  0.
   359  3.58  0.  0.  0.
   360  3.59  0.  0.  0.
   361  3.60  0.  0.  0.
   362  3.61  0.  0.  0.
   363  3.62  0.  0.  0.
   364  3.63  0.  0.  0.
   365  3.64  0.  0.  0.
   366  3.65  0.  0.  0.
   367  3.66  0.  0.  0.
   368  3.67  0.  0.  0.
   369  3.68  0.  0.  0.
   370  3.69  0.  0.  0.
   371  3.70  0.  0.  0.
   372  3.71  0.  0.  0.
   373  3.72  0.  0.  0.
   374  3.73  0.  0.  0.
   375  3.74  0.  0.  0.
   376  3.75  0.  0.  0.
   377  3.76  0.  0.  0.
   378  3.77  0.  0.  0.
   379  3.78  0.  0.  0.
   380  3.79  0.  0.  0.
   381  3.80  0.  0.  0.
   382  3.81  0.  0.  0.
   383  3.82  0.  0.  0.
   384  3.83  0.  0.  0.
   385  3.84  0.  0.  0.
   386  3.85  0.  0.  0.
   387  3.86  0.  0.  0.
   388  3.87  0.  0.  0.
   389  3.88  0.  0.  0.
   390  3.89  0.  0.  0.
   391  3.90  0.  0.  0.
   392  3.91  0.  0.  0.
   393  3.92  0.  0.  0.
   394  3.93  0.  0.  0.
   395  3.94  0.  0.  0.
   396  3.95  0.  0.  0.
   397  3.96  0.  0.  0.
   398  3.97  0.  0.  0.
   399  3.98  0.  0.  0.
   400  3.99  0.  0.  0.
   401  4.00  0.  0.  0.
   402  4.01  0.  0.  0.
   403  4.02  0.  0.  0.
   404  4.03  0.  0.  0.
   405  4.04  0.  0.  0.
   406  4.05  0.  0.  0.
   407  4.06  0.  0.  0.
   408  4.07  0.  0.  0.
   409  4.08  0.  0.  0.
   410  4.09  0.  0.  0.
   411  4.10  0.  0.  0.
   412  4.11  0.  0.  0.
   413  4.12  0.  0.  0.
   414  4.13  0.  0.  0.
   415  4.14  0.  0.  0.
   416  4.15  0.  0.  0.
   417  4.16  0.  0.  0.
   418  4.17  0.  0.  0.
   419  4.18  0.  0.  0.
   420  4.19  0.  0.  0.
   421  4.20  0.  0.  0.
   422  4.21  0.  0.  0.
   423  4.22  0.  0.  0.
   424  4.23  0.  0.  0.
   425  4.24  0.  0.  0.
   426  4.25  0.  0.  0.
   427  4.26  0.  0.  0.
   428  4.27  0.  0.  0.
   429  4.28  0.  0.  0.
   430  4.29  0.  0.  0.
   431  4.30  0.  0.  0.
   432  4.31  0.  0.  0.
   433  4.32  0.  0.  0.
   434  4.33  0.  0.  0.
   435  4.34  0.  0.  0.
   436  4.35  0.  0.  0.
   437  4.36  0.  0.  0.
   438  4.37  0.  0.  0.
   439  4.38  0.  0.  0.
   440  4.39  0.  0.  0.
   441  4.40  0.  0.  0.
   442  4.41  0.  0.  0.
   443  4.42  0.  0.  0.
   444  4.43  0.  0.  0.
   445  4.44  0.  0.  0.
   446  4.45  0.  0.  0.
   447  4.46  0.  0.  0.
   448  4.47  0.  0.  0.
   449  4.48  0.  0.  0.
   450  4.49  0.  0.  0.
   451  4.50  0.  0.  0.
   452  4.51  0.  0.  0.
   453  4.52  0.  0.  0.
   454  4.53  0.  0.  0.
   455  4.54  0.  0.  0.
   456  4.55  0.  0.  0.
   457  4.56  0.  0.  0.
   458  4.57  0.  0.  0.
   459  4.58  0.  0.  0.
   460  4.59  0.  0.  0.
   461  4.60  0.  0.  0.
   462  4.61  0.  0.  0.
   463  4.62  0.  0.  0.
   464  4.63  0.  0.  0.
   465  4.64  0.  0.  0.
   466  4.65  0.  0.  0.
   467  4.66  0.  0.  0.
   468  4.67  0.  0.  0.
   469  4.68  0.  0.  0.
   470  4.69  0.  0.  0.
   471  4.70  0.  0.  0.
   472  4.71  0.  0.  0.
   473  4.72  0.  0.  0.
   474  4.73  0.  0.  0.
   475  4.74  0.  0.  0.
   476  4.75  0.  0.  0.
   477  4.76  0.  0.  0.
   478  4.77  0.  0.  0.
   479  4.78  0.  0.  0.
   480  4.79  0.  0.  0.
   481  4.80  0.  0.  0.
   482  4.81  0.  0.  0.
   483  4.82  0.  0.  0.
   484  4.83  0.  0.  0.
   485  4.84  0.  0.  0.
   486  4.85  0.  0.  0.
   487  4.86  0.  0.  0.
   488  4.87  0.  0.  0.
   489  4.88  0.  0.  0.
   490  4.89  0.  0.  0.
   491  4.90  0.  0.  0.
   492  4.91  0.  0.  0.
   493  4.92  0.  0.  0.
   494  4.93  0.  0.  0.
   495  4.94  0.  0.  0.
   496  4.95  0.  0.  0.
   497  4.96  0.  0.  0.
   498  4.97  0.  0.  0.
   499  4.98  0.  0.  0.
   500  4.99  0.  0.  0.
   501  5.00  0.  0.  0.
   502  5.01  0.  0.  0.
   503  5.02  0.  0.  0.
   504  5.03  0.  0.  0.
   505  5.04  0.  0.  0.
   506  5.05  0.  0.  0.
   507  5.06  0.  0.  0.
   508  5.07  0.  0.  0.
   509  5.08  0.  0.  0.
   510  5.09  0.  0.  0.
   511  5.10  0.  0.  0.
   512  5.11  0.  0.  0.
   513  5.12  0.  0.  0.
   514  5.13  0.  0.  0.
   515  5.14  0.  0.  0.
   516  5.15  0.  0.  0.
   517  5.16  0.  0.  0.
   518  5.17  0.  0.  0.
   519  5.18  0.  0.  0.
   520  5.19  0.  0.  0.
   521  5.20  0.  0.  0.
   522  5.21  0.  0.  0.
   523  5.22  0.  0.  0.
   524  5.23  0.  0.  0.
   525  5.24  0.  0.  0.
   526  5.25  0.  0.  0.
   527  5.26  0.  0.  0.
   528  5.27  0.  0.  0.
   529  5.28  0.  0.  0.
   530  5.29  0.  0.  0.
   531  5.30  0.  0.  0.
   532  5.31  0.  0.  0.
   533  5.32  0.  0.  0.
   534  5.33  0.  0.  0.
   535  5.34  0.  0.  0.
   536  5.35  0.  0.  0.
   537  5.36  0.  0.  0.
   538  5.37  0.  0.  0.
   539  5.38  0.  0.  0.
   540  5.39  0.  0.  0.
   541  5.40  0.  0.  0.
   542  5.41  0.  0.  0.
   543  5.42  0.  0.  0.
   544  5.43  0.  0.  0.
   545  5.44  0.  0.  0.
   546  5.45  0.  0.  0.
   547  5.46  0.  0.  0.
   548  5.47  0.  0.  0.
   549  5.48  0.  0.  0.
   550  5.49  0.  0.  0.
   551  5.50  0.  0.  0.
   552  5.51  0.  0.  0.
   553  5.52  0.  0.  0.
   554  5.53  0.  0.  0.
   555  5.54  0.  0.  0.
   556  5.55  0.  0.  0.
   557  5.56  0.  0.  0.
   558  5.57  0.  0.  0.
   559  5.58  0.  0.  0.
   560  5.59  0.  0.  0.
   561  5.60  0.  0.  0.
   562  5.61  0.  0.  0.
   563  5.62  0.  0.  0.
   564  5.63  0.  0.  0.
   565  5.64  0.  0.  0.
   566  5.65  0.  0.  0.
   567  5.66  0.  0.  0.
   568  5.67  0.  0.  0.
   569  5.68  0.  0.  0.
   570  5.69  0.  0.  0.
   571  5.70  0.  0.  0.
   572  5.71  0.  0.  0.
   573  5.72  0.  0.  0.
   574  5.73  0.  0.  0.
   575  5.74  0.  0.  0.
   576  5.75  0.  0.  0.
   577  5.76  0.  0.  0.
   578  5.77  0.  0.  0.
   579  5.78  0.  0.  0.
   580  5.79  0.  0.  0.
   581  5.80  0.  0.  0.
   582  5.81  0.  0.  0.
   583  5.82  0.  0.  0.
   584  5.83  0.  0.  0.
   585  5.84  0.  0.  0.
   586  5.85  0.  0.  0.
   587  5.86  0.  0.  0.
   588  5.87  0.  0.  0.
   589  5.88  0.  0.  0.
   590  5.89  0.  0.  0.
   591  5.90  0.  0.  0.
   592  5.91  0.  0.  0.
   593  5.92  0.  0.  0.
   594  5.93  0.  0.  0.
   595  5.94  0.  0.  0.
   596  5.95  0.  0.  0.
   597  5.96  0.  0.  0.
   598  5.97  0.  0.  0.
   599  5.98  0.  0.  0.
   600  5.99  0.  0.  0.
   1                         9.9498272104413E+00 -6.2981716280381E+00
     1  0.0000000000000E+00  6.0503641208243E-08 -5.9175132710587E-09
     2  1.0000000000000E-02  8.5873542063277E-03  1.5216249620155E-03
     3  2.0000000000000E-02  3.4209100167637E-02  6.0872199677932E-03
     4  3.0000000000000E-02  7.6446482205848E-02  1.3698794015416E-02
     5  4.0000000000000E-02  1.3460885424207E-01  2.4359194391756E-02
     6  5.0000000000000E-02  2.0774448045436E-01  3.8071367267426E-02
     7  6.0000000000000E-02  2.9465541918820E-01  5.4837346604109E-02
     8  7.0000000000000E-02  3.9391625735089E-01  7.4656994881360E-02
     9  8.0000000000000E-02  5.0389640201758E-01  9.7526525067479E-02
    10  9.0000000000000E-02  6.2278557987235E-01  1.2343683859853E-01
    11  1.0000000000000E-01  7.4862214426754E-01  1.5237171878463E-01
    12  1.1000000000000E-01  8.7932374490800E-01  1.8430592294060E-01
    13  1.2000000000000E-01  1.0127198771709E+00  2.1920321955997E-01
    14  1.3000000000000E-01  1.1465857974893E+00  2.5701441895556E-01
    15  1.4000000000000E-01  1.2786772685861E+00  2.9767544693106E-01
    16  1.5000000000000E-01  1.4067655840656E+00  3.4110551119936E-01
    17  1.6000000000000E-01  1.5286723162529E+00  3.8720540941790E-01
    18  1.7000000000000E-01  1.6423032343950E+00  4.3585602587889E-01
    19  1.8000000000000E-01  1.7456808524372E+00  4.8691706110366E-01
    20  1.9000000000000E-01  1.8369750864755E+00  5.4022603489407E-01
    21  2.0000000000000E-01  1.9145315314258E+00  5.9559759885484E-01
    22  2.1000000000000E-01  1.9768969040541E+00  6.5282318910156E-01
    23  2.2000000000000E-01  2.0228412447849E+00  7.1167104390685E-01
    24  2.3000000000000E-01  2.0513765229696E+00  7.7188660452092E-01
    25  2.4000000000000E-01  2.0617713487931E+00  8.3319331045439E-01
    26  2.5000000000000E-01  2.0535615588034E+00  8.9529379325929E-01
    27  2.6000000000000E-01  2.0265565101693E+00  9.5787146542509E-01
    28  2.7000000000000E-01  1.9808409900806E+00  1.0205924935601E+00
    29  2.8000000000000E-01  1.9167727200330E+00  1.0831081376941E+00
    30  2.9000000000000E-01  1.8349755088243E+00  1.1450574314575E+00
    31  3.0000000000000E-01  1.7363281816519E+00  1.2060701711948E+00
    32  3.1000000000000E-01  1.6219494844383E+00  1.2657701758925E+00
    33  3.2000000000000E-01  1.4931792311237E+00  1.3237787742531E+00
    34  3.3000000000000E-01  1.3515560258891E+00  1.3797184704395E+00
    35  3.4000000000000E-01  1.1987919509063E+00  1.4332167360424E+00
    36  3.5000000000000E-01  1.0367446621223E+00  1.4839098727619E+00
    37  3.6000000000000E-01  8.6738737976034E-01  1.5314468882033E+00
    38  3.7000000000000E-01  6.9277729577395E-01  1.5754933261153E+00
    39  3.8000000000000E-01  5.1502294667476E-01  1.6157349923594E+00
    40  3.9000000000000E-01  3.3625111641754E-01  1.6518815189052E+00
    41  4.0000000000000E-01  1.5857383996990E-01  1.6836697101773E+00
    42  4.1000000000000E-01 -1.5943926356492E-02  1.7108666190990E+00
    43  4.2000000000000E-01 -1.8531541676575E-01  1.7332723041324E+00
    44  4.3000000000000E-01 -3.4766142425799E-01  1.7507222234373E+00
    45  4.4000000000000E-01 -5.0123743464639E-01  1.7630892278617E+00
    46  4.5000000000000E-01 -6.4445807988177E-01  1.7702851207454E+00
    47  4.6000000000000E-01 -7.7591851684232E-01  1.7722617593405E+00
    48  4.7000000000000E-01 -8.9441239765145E-01  1.7690116799037E+00
    49  4.8000000000000E-01 -9.9894616363698E-01  1.7605682360646E+00
    50  4.9000000000000E-01 -1.0887494659297E+00  1.7470052477817E+00
    51  5.0000000000000E-01 -1.1632815899993E+00  1.7284361659155E+00
    52  5.1000000000000E-01 -1.2222338376410E+00  1.7050127650459E+00
    53  5.2000000000000E-01 -1.2655278965111E+00  1.6769233844914E+00
    54  5.3000000000000E-01 -1.2933103027029E+00  1.6443907444209E+00
    55  5.4000000000000E-01 -1.3059431745166E+00  1.6076693703668E+00
    56  5.5000000000000E-01 -1.3039914640296E+00  1.5670426652256E+00
    57  5.6000000000000E-01 -1.2882070359185E+00  1.5228196728850E+00
    58  5.7000000000000E-01 -1.2595099389557E+00  1.4753315818478E+00
    59  5.8000000000000E-01 -1.2189672835835E+00  1.4249280205688E+00
    60  5.9000000000000E-01 -1.1677701780145E+00  1.3719731986361E+00
    61  6.0000000000000E-01 -1.1072092046809E+00  1.3168419493751E+00
    62  6.1000000000000E-01 -1.0386489380311E+00  1.2599157299237E+00
    63  6.2000000000000E-01 -9.6350201336205E-01  1.2015786343306E+00
    64  6.3000000000000E-01 -8.8320325450676E-01  1.1422134737890E+00
    65  6.4000000000000E-01 -7.9918435596088E-01  1.0821979757827E+00
    66  6.5000000000000E-01 -7.1284959281978E-01  1.0219011507554E+00
    67  6.6000000000000E-01 -6.2555300033816E-01  9.6167987099035E-01
    68  6.7000000000000E-01 -5.3857742483774E-01  9.0187570180804E-01
    69  6.8000000000000E-01 -4.5311580007520E-01  8.4281202004798E-01
    70  6.9000000000000E-01 -3.7025494919088E-01  7.8479144922133E-01
    71  7.0000000000000E-01 -2.9096215326470E-01  7.2809363481882E-01
    72  7.1000000000000E-01 -2.1607466465779E-01  6.7297337716122E-01
    73  7.2000000000000E-01 -1.4629227813278E-01  6.1965913301374E-01
    74  7.3000000000000E-01 -8.2173006634414E-02  5.6835189107799E-01
    75  7.4000000000000E-01 -2.4131842976002E-02  5.1922442054590E-01
    76  7.5000000000000E-01  2.7557475144429E-02  4.7242088626654E-01
    77  7.6000000000000E-01  7.2757840145836E-02  4.2805681884412E-01
    78  7.7000000000000E-01  1.1146148952245E-01  3.8621942325040E-01
    79  7.8000000000000E-01  1.4378031214677E-01  3.4696820537910E-01
    80  7.9000000000000E-01  1.6993404281081E-01  3.1033589246317E-01
    81  8.0000000000000E-01  1.9023668086153E-01  2.7632962046920E-01
    82  8.1000000000000E-01  2.0508150079159E-01  2.4493235951490E-01
    83  8.2000000000000E-01  2.1492504750387E-01  2.1610454704403E-01
    84  8.3000000000000E-01  2.2027052668144E-01  1.8978589794225E-01
    85  8.4000000000000E-01  2.2165101147266E-01  1.6589736097352E-01
    86  8.5000000000000E-01  2.1961289093967E-01  1.4434319183188E-01
    87  8.6000000000000E-01  2.1469998398546E-01  1.2501311469476E-01
    88  8.7000000000000E-01  2.0743873548660E-01  1.0778454637627E-01
    89  8.8000000000000E-01  1.9832489996058E-01  9.2524859946768E-02
    90  8.9000000000000E-01  1.8781210322925E-01  7.9093667931976E-02
    91  9.0000000000000E-01  1.7630265521455E-01  6.7345108852580E-02
    92  9.1000000000000E-01  1.6414096827043E-01  5.7130124824683E-02
    93  9.2000000000000E-01  1.5160991637532E-01  4.8298722128798E-02
    94  9.3000000000000E-01  1.3893045212195E-01  4.0702210981356E-02
    95  9.4000000000000E-01  1.2626478174194E-01  3.4195425125630E-02
    96  9.5000000000000E-01  1.1372338430969E-01  2.8638926218959E-02
    97  9.6000000000000E-01  1.0137615061272E-01  2.3901202260293E-02
    98  9.7000000000000E-01  8.9267910672302E-02  1.9860873410957E-02
    99  9.8000000000000E-01  7.7438617134134E-02  1.6408922461565E-02
   100  9.9000000000000E-01  6.5948464106236E-02  1.3450971599968E-02