Pu    ONCVPSP-4.0.1  r_core=   1.15370   1.20304   1.10639   1.18164
94.0000     34.0000      231012    zatom,zion,pspd
8   -1012   3     4   600     0    pspcod,pspxc,lmax,lloc,mmax,r2well
5.99000000  5.00000000  0.00000000    rchrg fchrg qchrg
3     3     3     2    nproj
3     1           extension_switch
4     4     3    nprojso
0                         3.8843250054169E+01  3.3971349527858E+00 -9.2284491756634E-01
1  0.0000000000000E+00 -6.7065004882849E-08  2.5112249402159E-07  2.7786310086153E-08
2  1.0000000000000E-02  1.6131524167560E-01 -9.1282801064112E-02  2.6193707548817E-02
3  2.0000000000000E-02  3.2146081929420E-01 -1.8056768306332E-01  5.2303692816662E-02
4  3.0000000000000E-02  4.7928428079232E-01 -2.6590857033521E-01  7.8242975423644E-02
5  4.0000000000000E-02  6.3366710443622E-01 -3.4546127744612E-01  1.0391825127559E-01
6  5.0000000000000E-02  7.8354044841446E-01 -4.1753003237836E-01  1.2922720428000E-01
7  6.0000000000000E-02  9.2789949300244E-01 -4.8060888528299E-01  1.5405636525158E-01
8  7.0000000000000E-02  1.0658159893988E+00 -5.3341660962018E-01  1.7827966607510E-01
9  8.0000000000000E-02  1.1964486963989E+00 -5.7492395363114E-01  2.0175780940723E-01
10  9.0000000000000E-02  1.3190514647473E+00 -6.0437239475215E-01  2.2433854144269E-01
11  1.0000000000000E-01  1.4329788161680E+00 -6.2128387609921E-01  2.4585787875475E-01
12  1.1000000000000E-01  1.5376889562432E+00 -6.2546134956710E-01  2.6614230129569E-01
13  1.2000000000000E-01  1.6327442538311E+00 -6.1698030070022E-01  2.8501188375000E-01
14  1.3000000000000E-01  1.7178093108670E+00 -5.9617177239647E-01  3.0228429805164E-01
15  1.4000000000000E-01  1.7926468315636E+00 -5.6359772415283E-01  3.1777958246635E-01
16  1.5000000000000E-01  1.8571115758381E+00 -5.2001984828650E-01  3.3132553859663E-01
17  1.6000000000000E-01  1.9111427452595E+00 -4.6636320310880E-01  3.4276358825971E-01
18  1.7000000000000E-01  1.9547551984207E+00 -4.0367620597120E-01  3.5195489852501E-01
19  1.8000000000000E-01  1.9880299245210E+00 -3.3308864926379E-01  3.5878656617421E-01
20  1.9000000000000E-01  2.0111042178625E+00 -2.5576945513716E-01  3.6317764312392E-01
21  2.0000000000000E-01  2.0241619914450E+00 -1.7288586798924E-01  3.6508478232187E-01
22  2.1000000000000E-01  2.0274246451405E+00 -8.5565698412799E-02  3.6450728941343E-01
23  2.2000000000000E-01  2.0211428640457E+00  5.1359180731198E-03  3.6149137890969E-01
24  2.3000000000000E-01  2.0055896672519E+00  9.8263993396031E-02  3.5613345423733E-01
25  2.4000000000000E-01  1.9810549587706E+00  1.9298439575985E-01  3.4858225821482E-01
26  2.5000000000000E-01  1.9478417535878E+00  2.8859709940457E-01  3.3903977325394E-01
27  2.6000000000000E-01  1.9062641660900E+00  3.8454160632181E-01  3.2776078780215E-01
28  2.7000000000000E-01  1.8566471590138E+00  4.8039451158079E-01  3.1505108593816E-01
29  2.8000000000000E-01  1.7993279623479E+00  5.7585952470774E-01  3.0126425921858E-01
30  2.9000000000000E-01  1.7346589870177E+00  6.7075058652198E-01  2.8679718239596E-01
31  3.0000000000000E-01  1.6630119812762E+00  7.6496902055831E-01  2.7208423603345E-01
32  3.1000000000000E-01  1.5847831118032E+00  8.5847591831757E-01  2.5759039791660E-01
33  3.2000000000000E-01  1.5003985994178E+00  9.5126116732862E-01  2.4380336019902E-01
34  3.3000000000000E-01  1.4103205033225E+00  1.0433106816198E+00  2.3122485924665E-01
35  3.4000000000000E-01  1.3150522295651E+00  1.1345734793005E+00  2.2036142918369E-01
36  3.5000000000000E-01  1.2151433398417E+00  1.2249302678226E+00  2.1171480742859E-01
37  3.6000000000000E-01  1.1111932560141E+00  1.3141651432185E+00  2.0577223052538E-01
38  3.7000000000000E-01  1.0038534931793E+00  1.4019418870963E+00  2.0299686106510E-01
39  3.8000000000000E-01  8.9382810841234E-01  1.4877861591741E+00  2.0381858146909E-01
40  3.9000000000000E-01  7.8187212134922E-01  1.5710746409494E+00  2.0862537814616E-01
41  4.0000000000000E-01  6.6878774388452E-01  1.6510318973808E+00  2.1775552056519E-01
42  4.1000000000000E-01  5.5541834621435E-01  1.7267353997957E+00  2.3149071486342E-01
43  4.2000000000000E-01  4.4264018166868E-01  1.7971288076817E+00  2.5005038168834E-01
44  4.3000000000000E-01  3.3135198939876E-01  1.8610432535759E+00  2.7358717416491E-01
45  4.4000000000000E-01  2.2246268808240E-01  1.9172260283595E+00  3.0218381541642E-01
46  4.5000000000000E-01  1.1687746151973E-01  1.9643757380609E+00  3.3585129724761E-01
47  4.6000000000000E-01  1.5482614672958E-02  2.0011827112398E+00  3.7452844373777E-01
48  4.7000000000000E-01 -8.0870356911835E-02  2.0263731902656E+00  4.1808280687936E-01
49  4.8000000000000E-01 -1.7138099302774E-01  2.0387556506143E+00  4.6631282724213E-01
50  4.9000000000000E-01 -2.5531586865299E-01  2.0372674677572E+00  5.1895116203210E-01
51  5.0000000000000E-01 -3.3202383576015E-01  2.0210200967944E+00  5.7566905677854E-01
52  5.1000000000000E-01 -4.0094998484656E-01  1.9893409483664E+00  6.3608161595345E-01
53  5.2000000000000E-01 -4.6164783376410E-01  1.9418102353225E+00  6.9975381262826E-01
54  5.3000000000000E-01 -5.1378930040004E-01  1.8782912249909E+00  7.6620706809138E-01
55  5.4000000000000E-01 -5.5717208215829E-01  1.7989525556960E+00  8.3492622923786E-01
56  5.5000000000000E-01 -5.9172414659921E-01  1.7042815548871E+00  9.0536677432051E-01
57  5.6000000000000E-01 -6.1750513099091E-01  1.5950878191301E+00  9.7696208591706E-01
58  5.7000000000000E-01 -6.3470455039975E-01  1.4724966707198E+00  1.0491306431249E+00
59  5.8000000000000E-01 -6.4363682044482E-01  1.3379324779395E+00  1.1212830022681E+00
60  5.9000000000000E-01 -6.4473320792544E-01  1.1930922014915E+00  1.1928284558920E+00
61  6.0000000000000E-01 -6.3853092612430E-01  1.0399098936050E+00  1.2631812825249E+00
62  6.1000000000000E-01 -6.2565968776086E-01  8.8051321457359E-01  1.3317665235574E+00
63  6.2000000000000E-01 -6.0682611366736E-01  7.1717333071846E-01  1.3980252475598E+00
64  6.3000000000000E-01 -5.8279646608895E-01  5.5224980640595E-01  1.4614192854145E+00
65  6.4000000000000E-01 -5.5437822941733E-01  3.8813229108821E-01  1.5214354408271E+00
66  6.5000000000000E-01 -5.2240109618987E-01  2.2718092320096E-01  1.5775891992673E+00
67  6.6000000000000E-01 -4.8769793109978E-01  7.1667421628769E-02  1.6294279734961E+00
68  6.7000000000000E-01 -4.5108628012768E-01 -7.6281189333388E-02  1.6765339350388E+00
69  6.8000000000000E-01 -4.1335096610250E-01 -2.1473437271879E-01  1.7185264879389E+00
70  6.9000000000000E-01 -3.7522826717624E-01 -3.4200370589447E-01  1.7550644437547E+00
71  7.0000000000000E-01 -3.3739211274989E-01 -4.5668088518379E-01  1.7858479550906E+00
72  7.1000000000000E-01 -3.0044265484188E-01 -5.5766693052411E-01  1.8106202592765E+00
73  7.2000000000000E-01 -2.6489748483824E-01 -6.4419173272334E-01  1.8291692745279E+00
74  7.3000000000000E-01 -2.3118566946958E-01 -7.1582343453323E-01  1.8413290786524E+00
75  7.4000000000000E-01 -1.9964467949701E-01 -7.7246750020492E-01  1.8469812858107E+00
76  7.5000000000000E-01 -1.7052018379561E-01 -8.1435569246889E-01  1.8460563208104E+00
77  7.6000000000000E-01 -1.4396858411095E-01 -8.4202552710452E-01  1.8385345737596E+00
78  7.7000000000000E-01 -1.2006207533576E-01 -8.5629110028741E-01  1.8244474015249E+00
79  7.8000000000000E-01 -9.8795935954219E-02 -8.5820647088200E-01  1.8038779271814E+00
80  7.9000000000000E-01 -8.0097686100461E-02 -8.4902301864904E-01  1.7769615753134E+00
81  8.0000000000000E-01 -6.3837698679939E-02 -8.3014238188807E-01  1.7438862703571E+00
82  8.1000000000000E-01 -4.9840813728649E-02 -8.0306669873748E-01  1.7048922177732E+00
83  8.2000000000000E-01 -3.7898488471108E-02 -7.6934793211567E-01  1.6602711841780E+00
84  8.3000000000000E-01 -2.7781015486869E-02 -7.3053804867914E-01  1.6103651929797E+00
85  8.4000000000000E-01 -1.9249358408270E-02 -6.8814174933679E-01  1.5555645567407E+00
86  8.5000000000000E-01 -1.2066187395135E-02 -6.4357331733277E-01  1.4963051764407E+00
87  8.6000000000000E-01 -6.0057434275471E-03 -5.9811896636784E-01  1.4330650509422E+00
88  8.7000000000000E-01 -8.6221891870973E-04 -5.5290584407661E-01  1.3663599569997E+00
89  8.8000000000000E-01  3.5435903897749E-03 -5.0887858514382E-01  1.2967382807710E+00
90  8.9000000000000E-01  7.3595337004784E-03 -4.6678402392767E-01  1.2247750055404E+00
91  9.0000000000000E-01  1.0699348275035E-02 -4.2716437942470E-01  1.1510648867638E+00
92  9.1000000000000E-01  1.3641914949206E-02 -3.9035892620730E-01  1.0762148741004E+00
93  9.2000000000000E-01  1.6232468762354E-02 -3.5651387320840E-01  1.0008358703053E+00
94  9.3000000000000E-01  1.8485637077097E-02 -3.2559989615879E-01  9.2553394828029E-01
95  9.4000000000000E-01  2.0390113469957E-02 -2.9743651555777E-01  8.5090117984928E-01
96  9.5000000000000E-01  2.1914718955795E-02 -2.7172228454009E-01  7.7750626267151E-01
97  9.6000000000000E-01  2.3015553228878E-02 -2.4806955171822E-01  7.0588516497690E-01
98  9.7000000000000E-01  2.3643897263710E-02 -2.2604239208044E-01  6.3653204151927E-01
99  9.8000000000000E-01  2.3754493823200E-02 -2.0519615084614E-01  5.6989070840996E-01
100  9.9000000000000E-01  2.3313802352454E-02 -1.8511691432980E-01  5.0634699964427E-01
101  1.0000000000000E+00  2.2307796946379E-02 -1.6545909959362E-01  4.4622236456746E-01
102  1.0100000000000E+00  2.0748847376328E-02 -1.4597922945058E-01  3.8976910389560E-01
103  1.0200000000000E+00  1.8681189866291E-02 -1.2656381797476E-01  3.3716768285772E-01
104  1.0300000000000E+00  1.6184452248490E-02 -1.0724911897984E-01  2.8852660439065E-01
105  1.0400000000000E+00  1.3374642732129E-02 -8.8230269384202E-02  2.4388537402688E-01
106  1.0500000000000E+00  1.0401937979374E-02 -6.9857073581669E-02  2.0322114210997E-01
107  1.0600000000000E+00  7.4445098712150E-03 -5.2613307104157E-02  1.6645966912981E-01
108  1.0700000000000E+00  4.6975059471993E-03 -3.7075948631025E-02  1.3349132751934E-01
109  1.0800000000000E+00  2.3561494200415E-03 -2.3850188848838E-02  1.0419293192713E-01
110  1.0900000000000E+00  5.9172714136498E-04 -1.3475315741997E-02  7.8456273134504E-02
111  1.1000000000000E+00 -5.0812134841883E-04 -6.2056164878494E-03  5.6213463544355E-02
112  1.1100000000000E+00 -1.1111511573603E-03 -1.4082023454613E-03  3.7429101379981E-02
113  1.1200000000000E+00 -1.2253679638694E-03  1.0685137664976E-03  2.2294643417440E-02
114  1.1300000000000E+00 -9.3479226974451E-04  1.6133060212145E-03  1.1003049876884E-02
115  1.1400000000000E+00 -4.3807769399944E-04  9.4692568906112E-04  3.6557790915696E-03
116  1.1500000000000E+00 -4.9014339965218E-05  1.1862512112070E-04  3.0442644916599E-04
117  1.1600000000000E+00  1.5825075509784E-06 -3.9942743101384E-06 -8.4700940461270E-06
118  1.1700000000000E+00  3.2832186061073E-07 -7.7218071828533E-07 -2.2287487867849E-06
119  1.18  0.  0.  0.
120  1.19  0.  0.  0.
121  1.20  0.  0.  0.
122  1.21  0.  0.  0.
123  1.22  0.  0.  0.
124  1.23  0.  0.  0.
125  1.24  0.  0.  0.
126  1.25  0.  0.  0.
127  1.26  0.  0.  0.
128  1.27  0.  0.  0.
129  1.28  0.  0.  0.
130  1.29  0.  0.  0.
131  1.30  0.  0.  0.
132  1.31  0.  0.  0.
133  1.32  0.  0.  0.
134  1.33  0.  0.  0.
135  1.34  0.  0.  0.
136  1.35  0.  0.  0.
137  1.36  0.  0.  0.
138  1.37  0.  0.  0.
139  1.38  0.  0.  0.
140  1.39  0.  0.  0.
141  1.40  0.  0.  0.
142  1.41  0.  0.  0.
143  1.42  0.  0.  0.
144  1.43  0.  0.  0.
145  1.44  0.  0.  0.
146  1.45  0.  0.  0.
147  1.46  0.  0.  0.
148  1.47  0.  0.  0.
149  1.48  0.  0.  0.
150  1.49  0.  0.  0.
151  1.50  0.  0.  0.
152  1.51  0.  0.  0.
153  1.52  0.  0.  0.
154  1.53  0.  0.  0.
155  1.54  0.  0.  0.
156  1.55  0.  0.  0.
157  1.56  0.  0.  0.
158  1.57  0.  0.  0.
159  1.58  0.  0.  0.
160  1.59  0.  0.  0.
161  1.60  0.  0.  0.
162  1.61  0.  0.  0.
163  1.62  0.  0.  0.
164  1.63  0.  0.  0.
165  1.64  0.  0.  0.
166  1.65  0.  0.  0.
167  1.66  0.  0.  0.
168  1.67  0.  0.  0.
169  1.68  0.  0.  0.
170  1.69  0.  0.  0.
171  1.70  0.  0.  0.
172  1.71  0.  0.  0.
173  1.72  0.  0.  0.
174  1.73  0.  0.  0.
175  1.74  0.  0.  0.
176  1.75  0.  0.  0.
177  1.76  0.  0.  0.
178  1.77  0.  0.  0.
179  1.78  0.  0.  0.
180  1.79  0.  0.  0.
181  1.80  0.  0.  0.
182  1.81  0.  0.  0.
183  1.82  0.  0.  0.
184  1.83  0.  0.  0.
185  1.84  0.  0.  0.
186  1.85  0.  0.  0.
187  1.86  0.  0.  0.
188  1.87  0.  0.  0.
189  1.88  0.  0.  0.
190  1.89  0.  0.  0.
191  1.90  0.  0.  0.
192  1.91  0.  0.  0.
193  1.92  0.  0.  0.
194  1.93  0.  0.  0.
195  1.94  0.  0.  0.
196  1.95  0.  0.  0.
197  1.96  0.  0.  0.
198  1.97  0.  0.  0.
199  1.98  0.  0.  0.
200  1.99  0.  0.  0.
201  2.00  0.  0.  0.
202  2.01  0.  0.  0.
203  2.02  0.  0.  0.
204  2.03  0.  0.  0.
205  2.04  0.  0.  0.
206  2.05  0.  0.  0.
207  2.06  0.  0.  0.
208  2.07  0.  0.  0.
209  2.08  0.  0.  0.
210  2.09  0.  0.  0.
211  2.10  0.  0.  0.
212  2.11  0.  0.  0.
213  2.12  0.  0.  0.
214  2.13  0.  0.  0.
215  2.14  0.  0.  0.
216  2.15  0.  0.  0.
217  2.16  0.  0.  0.
218  2.17  0.  0.  0.
219  2.18  0.  0.  0.
220  2.19  0.  0.  0.
221  2.20  0.  0.  0.
222  2.21  0.  0.  0.
223  2.22  0.  0.  0.
224  2.23  0.  0.  0.
225  2.24  0.  0.  0.
226  2.25  0.  0.  0.
227  2.26  0.  0.  0.
228  2.27  0.  0.  0.
229  2.28  0.  0.  0.
230  2.29  0.  0.  0.
231  2.30  0.  0.  0.
232  2.31  0.  0.  0.
233  2.32  0.  0.  0.
234  2.33  0.  0.  0.
235  2.34  0.  0.  0.
236  2.35  0.  0.  0.
237  2.36  0.  0.  0.
238  2.37  0.  0.  0.
239  2.38  0.  0.  0.
240  2.39  0.  0.  0.
241  2.40  0.  0.  0.
242  2.41  0.  0.  0.
243  2.42  0.  0.  0.
244  2.43  0.  0.  0.
245  2.44  0.  0.  0.
246  2.45  0.  0.  0.
247  2.46  0.  0.  0.
248  2.47  0.  0.  0.
249  2.48  0.  0.  0.
250  2.49  0.  0.  0.
251  2.50  0.  0.  0.
252  2.51  0.  0.  0.
253  2.52  0.  0.  0.
254  2.53  0.  0.  0.
255  2.54  0.  0.  0.
256  2.55  0.  0.  0.
257  2.56  0.  0.  0.
258  2.57  0.  0.  0.
259  2.58  0.  0.  0.
260  2.59  0.  0.  0.
261  2.60  0.  0.  0.
262  2.61  0.  0.  0.
263  2.62  0.  0.  0.
264  2.63  0.  0.  0.
265  2.64  0.  0.  0.
266  2.65  0.  0.  0.
267  2.66  0.  0.  0.
268  2.67  0.  0.  0.
269  2.68  0.  0.  0.
270  2.69  0.  0.  0.
271  2.70  0.  0.  0.
272  2.71  0.  0.  0.
273  2.72  0.  0.  0.
274  2.73  0.  0.  0.
275  2.74  0.  0.  0.
276  2.75  0.  0.  0.
277  2.76  0.  0.  0.
278  2.77  0.  0.  0.
279  2.78  0.  0.  0.
280  2.79  0.  0.  0.
281  2.80  0.  0.  0.
282  2.81  0.  0.  0.
283  2.82  0.  0.  0.
284  2.83  0.  0.  0.
285  2.84  0.  0.  0.
286  2.85  0.  0.  0.
287  2.86  0.  0.  0.
288  2.87  0.  0.  0.
289  2.88  0.  0.  0.
290  2.89  0.  0.  0.
291  2.90  0.  0.  0.
292  2.91  0.  0.  0.
293  2.92  0.  0.  0.
294  2.93  0.  0.  0.
295  2.94  0.  0.  0.
296  2.95  0.  0.  0.
297  2.96  0.  0.  0.
298  2.97  0.  0.  0.
299  2.98  0.  0.  0.
300  2.99  0.  0.  0.
301  3.00  0.  0.  0.
302  3.01  0.  0.  0.
303  3.02  0.  0.  0.
304  3.03  0.  0.  0.
305  3.04  0.  0.  0.
306  3.05  0.  0.  0.
307  3.06  0.  0.  0.
308  3.07  0.  0.  0.
309  3.08  0.  0.  0.
310  3.09  0.  0.  0.
311  3.10  0.  0.  0.
312  3.11  0.  0.  0.
313  3.12  0.  0.  0.
314  3.13  0.  0.  0.
315  3.14  0.  0.  0.
316  3.15  0.  0.  0.
317  3.16  0.  0.  0.
318  3.17  0.  0.  0.
319  3.18  0.  0.  0.
320  3.19  0.  0.  0.
321  3.20  0.  0.  0.
322  3.21  0.  0.  0.
323  3.22  0.  0.  0.
324  3.23  0.  0.  0.
325  3.24  0.  0.  0.
326  3.25  0.  0.  0.
327  3.26  0.  0.  0.
328  3.27  0.  0.  0.
329  3.28  0.  0.  0.
330  3.29  0.  0.  0.
331  3.30  0.  0.  0.
332  3.31  0.  0.  0.
333  3.32  0.  0.  0.
334  3.33  0.  0.  0.
335  3.34  0.  0.  0.
336  3.35  0.  0.  0.
337  3.36  0.  0.  0.
338  3.37  0.  0.  0.
339  3.38  0.  0.  0.
340  3.39  0.  0.  0.
341  3.40  0.  0.  0.
342  3.41  0.  0.  0.
343  3.42  0.  0.  0.
344  3.43  0.  0.  0.
345  3.44  0.  0.  0.
346  3.45  0.  0.  0.
347  3.46  0.  0.  0.
348  3.47  0.  0.  0.
349  3.48  0.  0.  0.
350  3.49  0.  0.  0.
351  3.50  0.  0.  0.
352  3.51  0.  0.  0.
353  3.52  0.  0.  0.
354  3.53  0.  0.  0.
355  3.54  0.  0.  0.
356  3.55  0.  0.  0.
357  3.56  0.  0.  0.
358  3.57  0.  0.  0.
359  3.58  0.  0.  0.
360  3.59  0.  0.  0.
361  3.60  0.  0.  0.
362  3.61  0.  0.  0.
363  3.62  0.  0.  0.
364  3.63  0.  0.  0.
365  3.64  0.  0.  0.
366  3.65  0.  0.  0.
367  3.66  0.  0.  0.
368  3.67  0.  0.  0.
369  3.68  0.  0.  0.
370  3.69  0.  0.  0.
371  3.70  0.  0.  0.
372  3.71  0.  0.  0.
373  3.72  0.  0.  0.
374  3.73  0.  0.  0.
375  3.74  0.  0.  0.
376  3.75  0.  0.  0.
377  3.76  0.  0.  0.
378  3.77  0.  0.  0.
379  3.78  0.  0.  0.
380  3.79  0.  0.  0.
381  3.80  0.  0.  0.
382  3.81  0.  0.  0.
383  3.82  0.  0.  0.
384  3.83  0.  0.  0.
385  3.84  0.  0.  0.
386  3.85  0.  0.  0.
387  3.86  0.  0.  0.
388  3.87  0.  0.  0.
389  3.88  0.  0.  0.
390  3.89  0.  0.  0.
391  3.90  0.  0.  0.
392  3.91  0.  0.  0.
393  3.92  0.  0.  0.
394  3.93  0.  0.  0.
395  3.94  0.  0.  0.
396  3.95  0.  0.  0.
397  3.96  0.  0.  0.
398  3.97  0.  0.  0.
399  3.98  0.  0.  0.
400  3.99  0.  0.  0.
401  4.00  0.  0.  0.
402  4.01  0.  0.  0.
403  4.02  0.  0.  0.
404  4.03  0.  0.  0.
405  4.04  0.  0.  0.
406  4.05  0.  0.  0.
407  4.06  0.  0.  0.
408  4.07  0.  0.  0.
409  4.08  0.  0.  0.
410  4.09  0.  0.  0.
411  4.10  0.  0.  0.
412  4.11  0.  0.  0.
413  4.12  0.  0.  0.
414  4.13  0.  0.  0.
415  4.14  0.  0.  0.
416  4.15  0.  0.  0.
417  4.16  0.  0.  0.
418  4.17  0.  0.  0.
419  4.18  0.  0.  0.
420  4.19  0.  0.  0.
421  4.20  0.  0.  0.
422  4.21  0.  0.  0.
423  4.22  0.  0.  0.
424  4.23  0.  0.  0.
425  4.24  0.  0.  0.
426  4.25  0.  0.  0.
427  4.26  0.  0.  0.
428  4.27  0.  0.  0.
429  4.28  0.  0.  0.
430  4.29  0.  0.  0.
431  4.30  0.  0.  0.
432  4.31  0.  0.  0.
433  4.32  0.  0.  0.
434  4.33  0.  0.  0.
435  4.34  0.  0.  0.
436  4.35  0.  0.  0.
437  4.36  0.  0.  0.
438  4.37  0.  0.  0.
439  4.38  0.  0.  0.
440  4.39  0.  0.  0.
441  4.40  0.  0.  0.
442  4.41  0.  0.  0.
443  4.42  0.  0.  0.
444  4.43  0.  0.  0.
445  4.44  0.  0.  0.
446  4.45  0.  0.  0.
447  4.46  0.  0.  0.
448  4.47  0.  0.  0.
449  4.48  0.  0.  0.
450  4.49  0.  0.  0.
451  4.50  0.  0.  0.
452  4.51  0.  0.  0.
453  4.52  0.  0.  0.
454  4.53  0.  0.  0.
455  4.54  0.  0.  0.
456  4.55  0.  0.  0.
457  4.56  0.  0.  0.
458  4.57  0.  0.  0.
459  4.58  0.  0.  0.
460  4.59  0.  0.  0.
461  4.60  0.  0.  0.
462  4.61  0.  0.  0.
463  4.62  0.  0.  0.
464  4.63  0.  0.  0.
465  4.64  0.  0.  0.
466  4.65  0.  0.  0.
467  4.66  0.  0.  0.
468  4.67  0.  0.  0.
469  4.68  0.  0.  0.
470  4.69  0.  0.  0.
471  4.70  0.  0.  0.
472  4.71  0.  0.  0.
473  4.72  0.  0.  0.
474  4.73  0.  0.  0.
475  4.74  0.  0.  0.
476  4.75  0.  0.  0.
477  4.76  0.  0.  0.
478  4.77  0.  0.  0.
479  4.78  0.  0.  0.
480  4.79  0.  0.  0.
481  4.80  0.  0.  0.
482  4.81  0.  0.  0.
483  4.82  0.  0.  0.
484  4.83  0.  0.  0.
485  4.84  0.  0.  0.
486  4.85  0.  0.  0.
487  4.86  0.  0.  0.
488  4.87  0.  0.  0.
489  4.88  0.  0.  0.
490  4.89  0.  0.  0.
491  4.90  0.  0.  0.
492  4.91  0.  0.  0.
493  4.92  0.  0.  0.
494  4.93  0.  0.  0.
495  4.94  0.  0.  0.
496  4.95  0.  0.  0.
497  4.96  0.  0.  0.
498  4.97  0.  0.  0.
499  4.98  0.  0.  0.
500  4.99  0.  0.  0.
501  5.00  0.  0.  0.
502  5.01  0.  0.  0.
503  5.02  0.  0.  0.
504  5.03  0.  0.  0.
505  5.04  0.  0.  0.
506  5.05  0.  0.  0.
507  5.06  0.  0.  0.
508  5.07  0.  0.  0.
509  5.08  0.  0.  0.
510  5.09  0.  0.  0.
511  5.10  0.  0.  0.
512  5.11  0.  0.  0.
513  5.12  0.  0.  0.
514  5.13  0.  0.  0.
515  5.14  0.  0.  0.
516  5.15  0.  0.  0.
517  5.16  0.  0.  0.
518  5.17  0.  0.  0.
519  5.18  0.  0.  0.
520  5.19  0.  0.  0.
521  5.20  0.  0.  0.
522  5.21  0.  0.  0.
523  5.22  0.  0.  0.
524  5.23  0.  0.  0.
525  5.24  0.  0.  0.
526  5.25  0.  0.  0.
527  5.26  0.  0.  0.
528  5.27  0.  0.  0.
529  5.28  0.  0.  0.
530  5.29  0.  0.  0.
531  5.30  0.  0.  0.
532  5.31  0.  0.  0.
533  5.32  0.  0.  0.
534  5.33  0.  0.  0.
535  5.34  0.  0.  0.
536  5.35  0.  0.  0.
537  5.36  0.  0.  0.
538  5.37  0.  0.  0.
539  5.38  0.  0.  0.
540  5.39  0.  0.  0.
541  5.40  0.  0.  0.
542  5.41  0.  0.  0.
543  5.42  0.  0.  0.
544  5.43  0.  0.  0.
545  5.44  0.  0.  0.
546  5.45  0.  0.  0.
547  5.46  0.  0.  0.
548  5.47  0.  0.  0.
549  5.48  0.  0.  0.
550  5.49  0.  0.  0.
551  5.50  0.  0.  0.
552  5.51  0.  0.  0.
553  5.52  0.  0.  0.
554  5.53  0.  0.  0.
555  5.54  0.  0.  0.
556  5.55  0.  0.  0.
557  5.56  0.  0.  0.
558  5.57  0.  0.  0.
559  5.58  0.  0.  0.
560  5.59  0.  0.  0.
561  5.60  0.  0.  0.
562  5.61  0.  0.  0.
563  5.62  0.  0.  0.
564  5.63  0.  0.  0.
565  5.64  0.  0.  0.
566  5.65  0.  0.  0.
567  5.66  0.  0.  0.
568  5.67  0.  0.  0.
569  5.68  0.  0.  0.
570  5.69  0.  0.  0.
571  5.70  0.  0.  0.
572  5.71  0.  0.  0.
573  5.72  0.  0.  0.
574  5.73  0.  0.  0.
575  5.74  0.  0.  0.
576  5.75  0.  0.  0.
577  5.76  0.  0.  0.
578  5.77  0.  0.  0.
579  5.78  0.  0.  0.
580  5.79  0.  0.  0.
581  5.80  0.  0.  0.
582  5.81  0.  0.  0.
583  5.82  0.  0.  0.
584  5.83  0.  0.  0.
585  5.84  0.  0.  0.
586  5.85  0.  0.  0.
587  5.86  0.  0.  0.
588  5.87  0.  0.  0.
589  5.88  0.  0.  0.
590  5.89  0.  0.  0.
591  5.90  0.  0.  0.
592  5.91  0.  0.  0.
593  5.92  0.  0.  0.
594  5.93  0.  0.  0.
595  5.94  0.  0.  0.
596  5.95  0.  0.  0.
597  5.96  0.  0.  0.
598  5.97  0.  0.  0.
599  5.98  0.  0.  0.
600  5.99  0.  0.  0.
1                         8.6799224873642E+00 -3.5641218338303E-01 -7.1750330742063E-02
1  0.0000000000000E+00 -2.0096510844336E-09 -4.8105602487580E-08  9.6490606607579E-08
2  1.0000000000000E-02  3.6908354494334E-03  9.8310639508433E-04  2.0100479524462E-04
3  2.0000000000000E-02  1.4736395012631E-02  3.9396974802096E-03  7.6263809502706E-04
4  3.0000000000000E-02  3.3055967389220E-02  8.8908166852879E-03  1.5625989716761E-03
5  4.0000000000000E-02  5.8515465806139E-02  1.5868995546323E-02  2.4031288763244E-03
6  5.0000000000000E-02  9.0928082566877E-02  2.4914558064422E-02  3.0199015868199E-03
7  6.0000000000000E-02  1.3005521792889E-01  3.6070673725700E-02  3.0940277180871E-03
8  7.0000000000000E-02  1.7560769488267E-01  4.9377376117976E-02  2.2667500388035E-03
9  8.0000000000000E-02  2.2724727341560E-01  6.4864812185731E-02  1.5630934765136E-04
10  9.0000000000000E-02  2.8458847894719E-01  8.2546025520993E-02 -3.6236184955150E-03
11  1.0000000000000E-01  3.4720075968946E-01  1.0240960423104E-01 -9.4445729591345E-03
12  1.1000000000000E-01  4.1461098662547E-01  1.2441253877598E-01 -1.7643742389124E-02
13  1.2000000000000E-01  4.8630630756207E-01  1.4847363707793E-01 -2.8504890329015E-02
14  1.3000000000000E-01  5.6173736329661E-01  1.7446783296307E-01 -4.2240474273103E-02
15  1.4000000000000E-01  6.4032186938399E-01  2.0222169986079E-01 -5.8975622995857E-02
16  1.5000000000000E-01  7.2144856138818E-01  2.3151044535789E-01 -7.8734582548766E-02
17  1.6000000000000E-01  8.0448149498255E-01  2.6205661482604E-01 -1.0143016419900E-01
18  1.7000000000000E-01  8.8876468499604E-01  2.9353067544218E-01 -1.2685663247129E-01
19  1.8000000000000E-01  9.7362705969208E-01  3.2555358738428E-01 -1.5468636111924E-01
20  1.9000000000000E-01  1.0583876984469E+00  3.5770139897741E-01 -1.8447046288127E-01
21  2.0000000000000E-01  1.1423613128161E+00  3.8951182946826E-01 -2.1564346925643E-01
22  2.1000000000000E-01  1.2248639230075E+00  4.2049272944053E-01 -2.4753200351629E-01
23  2.2000000000000E-01  1.3052186742846E+00  4.5013223721923E-01 -2.7936725813487E-01
24  2.3000000000000E-01  1.3827617310716E+00  4.7791038248561E-01 -3.1030096113599E-01
25  2.4000000000000E-01  1.4568481807607E+00  5.0331182815119E-01 -3.3942439873548E-01
26  2.5000000000000E-01  1.5268578746764E+00  5.2583939053122E-01 -3.6578995800908E-01
27  2.6000000000000E-01  1.5922011305031E+00  5.4502793794136E-01 -3.8843456662466E-01
28  2.7000000000000E-01  1.6523242189115E+00  5.6045824059718E-01 -4.0640433988312E-01
29  2.8000000000000E-01  1.7067145572198E+00  5.7177033129139E-01 -4.1877970070066E-01
30  2.9000000000000E-01  1.7549055347773E+00  5.7867593747461E-01 -4.2470021730999E-01
31  3.0000000000000E-01  1.7964808983661E+00  5.8096956130379E-01 -4.2338840713014E-01
32  3.1000000000000E-01  1.8310786312421E+00  5.7853781468128E-01 -4.1417178343877E-01
33  3.2000000000000E-01  1.8583942663946E+00  5.7136666052300E-01 -3.9650247331284E-01
34  3.3000000000000E-01  1.8781835830407E+00  5.5954626822884E-01 -3.6997380915642E-01
35  3.4000000000000E-01  1.8902646451122E+00  5.4327325889703E-01 -3.3433338961057E-01
36  3.5000000000000E-01  1.8945191512909E+00  5.2285019215695E-01 -2.8949221568916E-01
37  3.6000000000000E-01  1.8908930777559E+00  4.9868222919014E-01 -2.3552963098200E-01
38  3.7000000000000E-01  1.8793966069164E+00  4.7127099291793E-01 -1.7269392662650E-01
39  3.8000000000000E-01  1.8601033477169E+00  4.4120573364266E-01 -1.0139860808369E-01
40  3.9000000000000E-01  1.8331488652911E+00  4.0915199375284E-01 -2.2214456990983E-02
41  4.0000000000000E-01  1.7987285494998E+00  3.7583804558091E-01  6.4142347080899E-02
42  4.1000000000000E-01  1.7570948629012E+00  3.4203944939978E-01  1.5682565770633E-01
43  4.2000000000000E-01  1.7085540186940E+00  3.0856214134058E-01  2.5487784910444E-01
44  4.3000000000000E-01  1.6534621478884E+00  2.7622451149525E-01  3.5725077148135E-01
45  4.4000000000000E-01  1.5922210221814E+00  2.4583896880551E-01  4.6282851361559E-01
46  4.5000000000000E-01  1.5252734045807E+00  2.1819351015731E-01  5.7045126266072E-01
47  4.6000000000000E-01  1.4530981036041E+00  1.9403381552637E-01  6.7893952602733E-01
48  4.7000000000000E-01  1.3762048088341E+00  1.7404637872766E-01  7.8711798023311E-01
49  4.8000000000000E-01  1.2951287857112E+00  1.5884315454156E-01  8.9383823678898E-01
50  4.9000000000000E-01  1.2104255057625E+00  1.4894815851289E-01  9.9799986460740E-01
51  5.0000000000000E-01  1.1226652850936E+00  1.4478639687975E-01  1.0985690803270E+00
52  5.1000000000000E-01  1.0324279990706E+00  1.4667543272175E-01  1.1945946097935E+00
53  5.2000000000000E-01  9.4029793490548E-01  1.5481981279849E-01  1.2852203324495E+00
54  5.3000000000000E-01  8.4685883655560E-01  1.6930849033532E-01  1.3696944416708E+00
55  5.4000000000000E-01  7.5268918824827E-01  1.9011528513704E-01  1.4473749838064E+00
56  5.5000000000000E-01  6.5835777432337E-01  2.1710232700277E-01  1.5177317721242E+00
57  5.6000000000000E-01  5.6441954426278E-01  2.5002633467756E-01  1.5803448042072E+00
58  5.7000000000000E-01  4.7141180304348E-01  2.8854749369311E-01  1.6348994377459E+00
59  5.8000000000000E-01  3.7985073860331E-01  3.3224061545783E-01  1.6811786954751E+00
60  5.9000000000000E-01  2.9022829051306E-01  3.8060818964851E-01  1.7190531709305E+00
61  6.0000000000000E-01  2.0300935714220E-01  4.3309488478001E-01  1.7484690889647E+00
62  6.1000000000000E-01  1.1862933288435E-01  4.8910300979130E-01  1.7694351354458E+00
63  6.2000000000000E-01  3.7491962520915E-02  5.4800842408510E-01  1.7820087069438E+00
64  6.3000000000000E-01 -4.0032503357463E-02  6.0917637561988E-01  1.7862822420054E+00
65  6.4000000000000E-01 -1.1360886974276E-01  6.7197675669199E-01  1.7823702803366E+00
66  6.5000000000000E-01 -1.8293829372802E-01  7.3579829465442E-01  1.7703978552777E+00
67  6.6000000000000E-01 -2.4775933363464E-01  8.0006123906089E-01  1.7504907598089E+00
68  6.7000000000000E-01 -3.0784876625642E-01  8.6422816607392E-01  1.7227681393013E+00
69  6.8000000000000E-01 -3.6302218479052E-01  9.2781259334932E-01  1.6873377585378E+00
70  6.9000000000000E-01 -4.1313438634242E-01  9.9038518146143E-01  1.6442941701102E+00
71  7.0000000000000E-01 -4.5807955372039E-01  1.0515773883014E+00  1.5937198807309E+00
72  7.1000000000000E-01 -4.9779123184757E-01  1.1110825375414E+00  1.5356894762661E+00
73  7.2000000000000E-01 -5.3224209480808E-01  1.1686543577815E+00  1.4702765307146E+00
74  7.3000000000000E-01 -5.6144349559222E-01  1.2241031419256E+00  1.3975629942458E+00
75  7.4000000000000E-01 -5.8544478729303E-01  1.2772897632664E+00  1.3176506360393E+00
76  7.5000000000000E-01 -6.0433240208176E-01  1.3281178624894E+00  1.2306740139244E+00
77  7.6000000000000E-01 -6.1822867297152E-01  1.3765245854587E+00  1.1368143591110E+00
78  7.7000000000000E-01 -6.2729038333688E-01  1.4224703027447E+00  1.0363137043440E+00
79  7.8000000000000E-01 -6.3170703051239E-01  1.4659277764639E+00  9.2948855046260E-01
80  7.9000000000000E-01 -6.3169879260283E-01  1.5068712567778E+00  8.1674236150017E-01
81  8.0000000000000E-01 -6.2751419189759E-01  1.5452659886450E+00  6.9857620295579E-01
82  8.1000000000000E-01 -6.1942745392028E-01  1.5810585891578E+00  5.7559689140643E-01
83  8.2000000000000E-01 -6.0773556802457E-01  1.6141687177078E+00  4.4852210477593E-01
84  8.3000000000000E-01 -5.9275506337026E-01  1.6444824067302E+00  3.1818200878216E-01
85  8.4000000000000E-01 -5.7481852282136E-01  1.6718473519101E+00  1.8551708271174E-01
86  8.5000000000000E-01 -5.5427086649438E-01  1.6960703801341E+00  5.1571972147837E-02
87  8.6000000000000E-01 -5.3146544600187E-01  1.7169172243074E+00 -8.2514647840607E-02
88  8.7000000000000E-01 -5.0675999950708E-01  1.7341146399619E+00 -2.1552405434723E-01
89  8.8000000000000E-01 -4.8051252613425E-01  1.7473548032509E+00 -3.4617499852136E-01
90  8.9000000000000E-01 -4.5307714566815E-01  1.7563018374663E+00 -4.7314431141611E-01
91  9.0000000000000E-01 -4.2480001543492E-01  1.7606002297255E+00 -5.9509000099035E-01
92  9.1000000000000E-01 -3.9601538041606E-01  1.7598848249409E+00 -7.1067613298895E-01
93  9.2000000000000E-01 -3.6704183467586E-01  1.7537920243941E+00 -8.1859870252429E-01
94  9.3000000000000E-01 -3.3817887179214E-01  1.7419717746228E+00 -9.1761165184006E-01
95  9.4000000000000E-01 -3.0970379893985E-01  1.7240999119170E+00 -1.0065521782428E+00
96  9.5000000000000E-01 -2.8186908342021E-01  1.6998904309612E+00 -1.0843645089941E+00
97  9.6000000000000E-01 -2.5490019166165E-01  1.6691072749175E+00 -1.1501214004422E+00
98  9.7000000000000E-01 -2.2899396901524E-01  1.6315752997308E+00 -1.2030427493205E+00
99  9.8000000000000E-01 -2.0431759409049E-01  1.5871901481250E+00 -1.2425108860753E+00