Pu    ONCVPSP-4.0.1  r_core=   1.15370   1.20304   1.10639   1.15370
94.0000     34.0000      231012    zatom,zion,pspd
8   -1012   3     4   600     0    pspcod,pspxc,lmax,lloc,mmax,r2well
5.99000000  5.00000000  0.00000000    rchrg fchrg qchrg
3     2     2     2     0    nproj
1     1           extension_switch
0                         3.8533977784190E+01  3.3852721779884E+00 -9.3575663404366E-01
1  0.0000000000000E+00 -6.6016206501374E-08  2.4725391412073E-07  2.6130757030396E-08
2  1.0000000000000E-02  1.6150926896553E-01 -9.0817972247831E-02  2.6486293825348E-02
3  2.0000000000000E-02  3.2184833629621E-01 -1.7965033103769E-01  5.2881650666914E-02
4  3.0000000000000E-02  4.7986409207620E-01 -2.6456273486187E-01  7.9092180934944E-02
5  4.0000000000000E-02  6.3443712280872E-01 -3.4372161498451E-01  1.0501827042286E-01
6  5.0000000000000E-02  7.8449736035709E-01 -4.1544020244338E-01  1.3055216230803E-01
7  6.0000000000000E-02  9.2903834221721E-01 -4.7821951270140E-01  1.5557605248749E-01
8  7.0000000000000E-02  1.0671297021679E+00 -5.3078291398093E-01  1.7996083708318E-01
9  8.0000000000000E-02  1.1979275763622E+00 -5.7210315256773E-01  2.0356562482032E-01
10  9.0000000000000E-02  1.3206826873701E+00 -6.0142099850386E-01  2.2623809617314E-01
11  1.0000000000000E-01  1.4347459544896E+00 -6.1825499660802E-01  2.4781575681789E-01
12  1.1000000000000E-01  1.5395715693848E+00 -6.2240214790566E-01  2.6812809630204E-01
13  1.2000000000000E-01  1.6347175682005E+00 -6.1392969185285E-01  2.8699962528274E-01
14  1.3000000000000E-01  1.7198440210668E+00 -5.9315849649750E-01  3.0425372759480E-01
15  1.4000000000000E-01  1.7947090438048E+00 -5.6063887861661E-01  3.1971722815396E-01
16  1.5000000000000E-01  1.8591629113401E+00 -5.1711995642877E-01  3.3322554559278E-01
17  1.6000000000000E-01  1.9131406148946E+00 -4.6351387261303E-01  3.4462827076483E-01
18  1.7000000000000E-01  1.9566532529830E+00 -4.0085640582046E-01  3.5379498987605E-01
19  1.8000000000000E-01  1.9897786777494E+00 -3.3026560753138E-01  3.6062115486422E-01
20  1.9000000000000E-01  2.0126518320192E+00 -2.5290015341376E-01  3.6503379436946E-01
21  2.0000000000000E-01  2.0254552081492E+00 -1.6991908230072E-01  3.6699685660327E-01
22  2.1000000000000E-01  2.0284098375798E+00 -8.2444512356913E-02  3.6651598074760E-01
23  2.2000000000000E-01  2.0217671809130E+00  8.4712235738720E-03  3.6364250605695E-01
24  2.3000000000000E-01  2.0058022340310E+00  1.0187278694931E-01  3.5847654719338E-01
25  2.4000000000000E-01  1.9808080985257E+00  1.9692240533995E-01  3.5116898985016E-01
26  2.5000000000000E-01  1.9470921873622E+00  2.9291311965427E-01  3.4192229155500E-01
27  2.6000000000000E-01  1.9049741524899E+00  3.8927434047152E-01  3.3099000763286E-01
28  2.7000000000000E-01  1.8547855335782E+00  4.8556968223707E-01  3.1867500045776E-01
29  2.8000000000000E-01  1.7968710398798E+00  5.8148737932926E-01  3.0532633002310E-01
30  2.9000000000000E-01  1.7315912940740E+00  6.7682390976372E-01  2.9133486415441E-01
31  3.0000000000000E-01  1.6593267913568E+00  7.7146174729889E-01  2.7712768600357E-01
32  3.1000000000000E-01  1.5804827622375E+00  8.6534241882383E-01  2.6316141347330E-01
33  3.2000000000000E-01  1.4954945762833E+00  9.5843625051539E-01  2.4991457868383E-01
34  3.3000000000000E-01  1.4048332886596E+00  1.0507103347371E+00  2.3787924440353E-01
35  3.4000000000000E-01  1.3090109133794E+00  1.1420963337258E+00  2.2755205758402E-01
36  3.5000000000000E-01  1.2085850075777E+00  1.2324597521075E+00  2.1942495703851E-01
37  3.6000000000000E-01  1.1041621700400E+00  1.3215722572640E+00  2.1397576237100E-01
38  3.7000000000000E-01  9.9640009401977E-01  1.4090885064421E+00  2.1165887424697E-01
39  3.8000000000000E-01  8.8600786773067E-01  1.4945287568762E+00  2.1289631198013E-01
40  3.9000000000000E-01  7.7374428376591E-01  1.5772682972729E+00  2.1806930343434E-01
41  4.0000000000000E-01  6.6041399842001E-01  1.6565344552787E+00  2.2751062487872E-01
42  4.1000000000000E-01  5.4686147032267E-01  1.7314116173727E+00  2.4149786537683E-01
43  4.2000000000000E-01  4.3396270139323E-01  1.8008543578689E+00  2.6024776241614E-01
44  4.3000000000000E-01  3.2261489811394E-01  1.8637084261222E+00  2.8391172382106E-01
45  4.4000000000000E-01  2.1372426363094E-01  1.9187389997955E+00  3.1257261668548E-01
46  4.5000000000000E-01  1.0819221741856E-01  1.9646652911274E+00  3.4624286831953E-01
47  4.6000000000000E-01  6.9004156100231E-03  2.0002003057583E+00  3.8486388826546E-01
48  4.7000000000000E-01 -8.9304991611225E-02  2.0240943117554E+00  4.2830678550780E-01
49  4.8000000000000E-01 -1.7962938166440E-01  2.0351803901801E+00  4.7637432223044E-01
50  4.9000000000000E-01 -2.6334544675991E-01  2.0324203157776E+00  5.2880401588630E-01
51  5.0000000000000E-01 -3.3980822279549E-01  2.0149489625852E+00  5.8527227583704E-01
52  5.1000000000000E-01 -4.0846884574660E-01  1.9821154470990E+00  6.4539944010201E-01
53  5.2000000000000E-01 -4.6888655073134E-01  1.9335193108610E+00  7.0875556233832E-01
54  5.3000000000000E-01 -5.2073847717997E-01  1.8690402019052E+00  7.7486678936462E-01
55  5.4000000000000E-01 -5.6382690893861E-01  1.7888597345035E+00  8.4322216541294E-01
56  5.5000000000000E-01 -5.9808365832430E-01  1.6934744807806E+00  9.1328070071602E-01
57  5.6000000000000E-01 -6.2357139514186E-01  1.5836993654095E+00  9.8447854866441E-01
58  5.7000000000000E-01 -6.4048182202457E-01  1.4606610834329E+00  1.0562361470704E+00
59  5.8000000000000E-01 -6.4913070238879E-01  1.3257815277031E+00  1.1279651943630E+00
60  5.9000000000000E-01 -6.4994985280531E-01  1.1807515821115E+00  1.1990753499849E+00
61  6.0000000000000E-01 -6.4347631369930E-01  1.0274959952820E+00  1.2689805689613E+00
62  6.1000000000000E-01 -6.3033900710364E-01  8.6813038264521E-01  1.3371050025831E+00
63  6.2000000000000E-01 -6.1124327413026E-01  7.0491169980683E-01  1.4028884194227E+00
64  6.3000000000000E-01 -5.8695375472765E-01  5.4018377537071E-01  1.4657911225166E+00
65  6.4000000000000E-01 -5.5827612555415E-01  3.7631967737957E-01  1.5252983586248E+00
66  6.5000000000000E-01 -5.2603824647701E-01  2.1566280718550E-01  1.5809242332165E+00
67  6.6000000000000E-01 -4.9107128108637E-01  6.0468663369809E-02  1.6322151595895E+00
68  6.7000000000000E-01 -4.5419135126389E-01 -8.7150805335517E-02  1.6787528817938E+00
69  6.8000000000000E-01 -4.1618226062359E-01 -2.2527843409010E-01  1.7201571184775E+00
70  6.9000000000000E-01 -3.7777977767317E-01 -3.5223700106895E-01  1.7560878782506E+00
71  7.0000000000000E-01 -3.3965790868534E-01 -4.6662687247868E-01  1.7862474967050E+00
72  7.1000000000000E-01 -3.0241751499603E-01 -5.6735496857480E-01  1.8103824410512E+00
73  7.2000000000000E-01 -2.6657754279735E-01 -6.5365420067909E-01  1.8282849208012E+00
74  7.3000000000000E-01 -2.3256903887165E-01 -7.2509287233625E-01  1.8397943325689E+00
75  7.4000000000000E-01 -2.0073202682708E-01 -7.8157389566604E-01  1.8447985545054E+00
76  7.5000000000000E-01 -1.7131521901821E-01 -8.2332403292855E-01  1.8432350918619E+00
77  7.6000000000000E-01 -1.4447844322224E-01 -8.5087371965862E-01  1.8350920604625E+00
78  7.7000000000000E-01 -1.2029757383495E-01 -8.6502834651593E-01  1.8204089802733E+00
79  7.8000000000000E-01 -9.8771678052381E-02 -8.6683216055574E-01  1.7992773375650E+00
80  7.9000000000000E-01 -7.9832020945288E-02 -8.5752618296069E-01  1.7718408621291E+00
81  8.0000000000000E-01 -6.3352521690855E-02 -8.3850172141477E-01  1.7382954563026E+00
82  8.1000000000000E-01 -4.9161218010470E-02 -8.1125117568919E-01  1.6988887057512E+00
83  8.2000000000000E-01 -3.7052277906991E-02 -7.7731789156143E-01  1.6539188985187E+00
84  8.3000000000000E-01 -2.6798097216564E-02 -7.3824681042912E-01  1.6037334790972E+00
85  8.4000000000000E-01 -1.8161037717062E-02 -6.9553759195066E-01  1.5487268683977E+00
86  8.5000000000000E-01 -1.0904392346240E-02 -6.5060175916287E-01  1.4893375885507E+00
87  8.6000000000000E-01 -4.8022096924812E-03 -6.0472523627933E-01  1.4260446433725E+00
88  8.7000000000000E-01  3.5233293157588E-04 -5.5903742699611E-01  1.3593631208799E+00
89  8.8000000000000E-01  4.7402524370920E-03 -5.1448772511421E-01  1.2898390031495E+00
90  8.9000000000000E-01  8.5119513282175E-03 -4.7183006992952E-01  1.2180431906973E+00
91  9.0000000000000E-01  1.1784374441207E-02 -4.3161586666946E-01  1.1445647730047E+00
92  9.1000000000000E-01  1.4640152101742E-02 -3.9419529752970E-01  1.0700036033709E+00
93  9.2000000000000E-01  1.7128676954436E-02 -3.5972676098856E-01  9.9496226451115E-01
94  9.3000000000000E-01  1.9268992231596E-02 -3.2819390417895E-01  9.2003754083731E-01
95  9.4000000000000E-01  2.1054305744126E-02 -2.9942946147601E-01  8.4581154382742E-01
96  9.5000000000000E-01  2.2457887521120E-02 -2.7314488634491E-01  7.7284266806969E-01
97  9.6000000000000E-01  2.3440060244022E-02 -2.4896456466531E-01  7.0165658731291E-01
98  9.7000000000000E-01  2.3955950136048E-02 -2.2646322532146E-01  6.3273753217796E-01
99  9.8000000000000E-01  2.3963630794520E-02 -2.0520501440018E-01  5.6652012418505E-01
100  9.9000000000000E-01  2.3432261824605E-02 -1.8478256656345E-01  5.0338207471270E-01
101  1.0000000000000E+00  2.2349795639789E-02 -1.6485428244929E-01  4.4363809278712E-01
102  1.0100000000000E+00  2.0729796315702E-02 -1.4517789303730E-01  3.8753538277926E-01
103  1.0200000000000E+00  1.8616880304062E-02 -1.2563824778304E-01  3.3525115274488E-01
104  1.0300000000000E+00  1.6090246046558E-02 -1.0626708819729E-01  2.8689259701446E-01
105  1.0400000000000E+00  1.3264703577894E-02 -8.7252346133098E-02  2.4249986356977E-01
106  1.0500000000000E+00  1.0288541361671E-02 -6.8934219288005E-02  2.0205256856711E-01
107  1.0600000000000E+00  7.3374713100039E-03 -5.1784908833148E-02  1.6548047787115E-01
108  1.0700000000000E+00  4.6037689778953E-03 -3.6368436628946E-02  1.3267903976137E-01
109  1.0800000000000E+00  2.2795776498227E-03 -2.3276402103622E-02  1.0353052776406E-01
110  1.0900000000000E+00  5.3314964114063E-04 -1.3034797723622E-02  7.7931630948547E-02
111  1.1000000000000E+00 -5.5015182881095E-04 -5.8874335332233E-03  5.5817378575151E-02
112  1.1100000000000E+00 -1.1371597471358E-03 -1.2022173121933E-03  3.7150883515339E-02
113  1.1200000000000E+00 -1.2382053911056E-03  1.1823410673650E-03  2.2119792698620E-02
114  1.1300000000000E+00 -9.3906893092070E-04  1.6623975975722E-03  1.0911978542759E-02
115  1.1400000000000E+00 -4.3855782071559E-04  9.5996882656341E-04  3.6238368246007E-03
116  1.1500000000000E+00 -4.8952132988011E-05  1.1938675625415E-04  3.0162320212888E-04
117  1.1600000000000E+00  1.5788361459537E-06 -4.0048867662370E-06 -8.3881805363326E-06
118  1.1700000000000E+00  3.2809194066407E-07 -7.7751243376120E-07 -2.2082530627251E-06
119  1.18 -0.  0. -0.
120  1.19  0.  0.  0.
121  1.20  0.  0.  0.
122  1.21  0.  0.  0.
123  1.22  0.  0.  0.
124  1.23  0.  0.  0.
125  1.24  0.  0.  0.
126  1.25  0.  0.  0.
127  1.26  0.  0.  0.
128  1.27  0.  0.  0.
129  1.28  0.  0.  0.
130  1.29  0.  0.  0.
131  1.30  0.  0.  0.
132  1.31  0.  0.  0.
133  1.32  0.  0.  0.
134  1.33  0.  0.  0.
135  1.34  0.  0.  0.
136  1.35  0.  0.  0.
137  1.36  0.  0.  0.
138  1.37  0.  0.  0.
139  1.38  0.  0.  0.
140  1.39  0.  0.  0.
141  1.40  0.  0.  0.
142  1.41  0.  0.  0.
143  1.42  0.  0.  0.
144  1.43  0.  0.  0.
145  1.44  0.  0.  0.
146  1.45  0.  0.  0.
147  1.46  0.  0.  0.
148  1.47  0.  0.  0.
149  1.48  0.  0.  0.
150  1.49  0.  0.  0.
151  1.50  0.  0.  0.
152  1.51  0.  0.  0.
153  1.52  0.  0.  0.
154  1.53  0.  0.  0.
155  1.54  0.  0.  0.
156  1.55  0.  0.  0.
157  1.56  0.  0.  0.
158  1.57  0.  0.  0.
159  1.58  0.  0.  0.
160  1.59  0.  0.  0.
161  1.60  0.  0.  0.
162  1.61  0.  0.  0.
163  1.62  0.  0.  0.
164  1.63  0.  0.  0.
165  1.64  0.  0.  0.
166  1.65  0.  0.  0.
167  1.66  0.  0.  0.
168  1.67  0.  0.  0.
169  1.68  0.  0.  0.
170  1.69  0.  0.  0.
171  1.70  0.  0.  0.
172  1.71  0.  0.  0.
173  1.72  0.  0.  0.
174  1.73  0.  0.  0.
175  1.74  0.  0.  0.
176  1.75  0.  0.  0.
177  1.76  0.  0.  0.
178  1.77  0.  0.  0.
179  1.78  0.  0.  0.
180  1.79  0.  0.  0.
181  1.80  0.  0.  0.
182  1.81  0.  0.  0.
183  1.82  0.  0.  0.
184  1.83  0.  0.  0.
185  1.84  0.  0.  0.
186  1.85  0.  0.  0.
187  1.86  0.  0.  0.
188  1.87  0.  0.  0.
189  1.88  0.  0.  0.
190  1.89  0.  0.  0.
191  1.90  0.  0.  0.
192  1.91  0.  0.  0.
193  1.92  0.  0.  0.
194  1.93  0.  0.  0.
195  1.94  0.  0.  0.
196  1.95  0.  0.  0.
197  1.96  0.  0.  0.
198  1.97  0.  0.  0.
199  1.98  0.  0.  0.
200  1.99  0.  0.  0.
201  2.00  0.  0.  0.
202  2.01  0.  0.  0.
203  2.02  0.  0.  0.
204  2.03  0.  0.  0.
205  2.04  0.  0.  0.
206  2.05  0.  0.  0.
207  2.06  0.  0.  0.
208  2.07  0.  0.  0.
209  2.08  0.  0.  0.
210  2.09  0.  0.  0.
211  2.10  0.  0.  0.
212  2.11  0.  0.  0.
213  2.12  0.  0.  0.
214  2.13  0.  0.  0.
215  2.14  0.  0.  0.
216  2.15  0.  0.  0.
217  2.16  0.  0.  0.
218  2.17  0.  0.  0.
219  2.18  0.  0.  0.
220  2.19  0.  0.  0.
221  2.20  0.  0.  0.
222  2.21  0.  0.  0.
223  2.22  0.  0.  0.
224  2.23  0.  0.  0.
225  2.24  0.  0.  0.
226  2.25  0.  0.  0.
227  2.26  0.  0.  0.
228  2.27  0.  0.  0.
229  2.28  0.  0.  0.
230  2.29  0.  0.  0.
231  2.30  0.  0.  0.
232  2.31  0.  0.  0.
233  2.32  0.  0.  0.
234  2.33  0.  0.  0.
235  2.34  0.  0.  0.
236  2.35  0.  0.  0.
237  2.36  0.  0.  0.
238  2.37  0.  0.  0.
239  2.38  0.  0.  0.
240  2.39  0.  0.  0.
241  2.40  0.  0.  0.
242  2.41  0.  0.  0.
243  2.42  0.  0.  0.
244  2.43  0.  0.  0.
245  2.44  0.  0.  0.
246  2.45  0.  0.  0.
247  2.46  0.  0.  0.
248  2.47  0.  0.  0.
249  2.48  0.  0.  0.
250  2.49  0.  0.  0.
251  2.50  0.  0.  0.
252  2.51  0.  0.  0.
253  2.52  0.  0.  0.
254  2.53  0.  0.  0.
255  2.54  0.  0.  0.
256  2.55  0.  0.  0.
257  2.56  0.  0.  0.
258  2.57  0.  0.  0.
259  2.58  0.  0.  0.
260  2.59  0.  0.  0.
261  2.60  0.  0.  0.
262  2.61  0.  0.  0.
263  2.62  0.  0.  0.
264  2.63  0.  0.  0.
265  2.64  0.  0.  0.
266  2.65  0.  0.  0.
267  2.66  0.  0.  0.
268  2.67  0.  0.  0.
269  2.68  0.  0.  0.
270  2.69  0.  0.  0.
271  2.70  0.  0.  0.
272  2.71  0.  0.  0.
273  2.72  0.  0.  0.
274  2.73  0.  0.  0.
275  2.74  0.  0.  0.
276  2.75  0.  0.  0.
277  2.76  0.  0.  0.
278  2.77  0.  0.  0.
279  2.78  0.  0.  0.
280  2.79  0.  0.  0.
281  2.80  0.  0.  0.
282  2.81  0.  0.  0.
283  2.82  0.  0.  0.
284  2.83  0.  0.  0.
285  2.84  0.  0.  0.
286  2.85  0.  0.  0.
287  2.86  0.  0.  0.
288  2.87  0.  0.  0.
289  2.88  0.  0.  0.
290  2.89  0.  0.  0.
291  2.90  0.  0.  0.
292  2.91  0.  0.  0.
293  2.92  0.  0.  0.
294  2.93  0.  0.  0.
295  2.94  0.  0.  0.
296  2.95  0.  0.  0.
297  2.96  0.  0.  0.
298  2.97  0.  0.  0.
299  2.98  0.  0.  0.
300  2.99  0.  0.  0.
301  3.00  0.  0.  0.
302  3.01  0.  0.  0.
303  3.02  0.  0.  0.
304  3.03  0.  0.  0.
305  3.04  0.  0.  0.
306  3.05  0.  0.  0.
307  3.06  0.  0.  0.
308  3.07  0.  0.  0.
309  3.08  0.  0.  0.
310  3.09  0.  0.  0.
311  3.10  0.  0.  0.
312  3.11  0.  0.  0.
313  3.12  0.  0.  0.
314  3.13  0.  0.  0.
315  3.14  0.  0.  0.
316  3.15  0.  0.  0.
317  3.16  0.  0.  0.
318  3.17  0.  0.  0.
319  3.18  0.  0.  0.
320  3.19  0.  0.  0.
321  3.20  0.  0.  0.
322  3.21  0.  0.  0.
323  3.22  0.  0.  0.
324  3.23  0.  0.  0.
325  3.24  0.  0.  0.
326  3.25  0.  0.  0.
327  3.26  0.  0.  0.
328  3.27  0.  0.  0.
329  3.28  0.  0.  0.
330  3.29  0.  0.  0.
331  3.30  0.  0.  0.
332  3.31  0.  0.  0.
333  3.32  0.  0.  0.
334  3.33  0.  0.  0.
335  3.34  0.  0.  0.
336  3.35  0.  0.  0.
337  3.36  0.  0.  0.
338  3.37  0.  0.  0.
339  3.38  0.  0.  0.
340  3.39  0.  0.  0.
341  3.40  0.  0.  0.
342  3.41  0.  0.  0.
343  3.42  0.  0.  0.
344  3.43  0.  0.  0.
345  3.44  0.  0.  0.
346  3.45  0.  0.  0.
347  3.46  0.  0.  0.
348  3.47  0.  0.  0.
349  3.48  0.  0.  0.
350  3.49  0.  0.  0.
351  3.50  0.  0.  0.
352  3.51  0.  0.  0.
353  3.52  0.  0.  0.
354  3.53  0.  0.  0.
355  3.54  0.  0.  0.
356  3.55  0.  0.  0.
357  3.56  0.  0.  0.
358  3.57  0.  0.  0.
359  3.58  0.  0.  0.
360  3.59  0.  0.  0.
361  3.60  0.  0.  0.
362  3.61  0.  0.  0.
363  3.62  0.  0.  0.
364  3.63  0.  0.  0.
365  3.64  0.  0.  0.
366  3.65  0.  0.  0.
367  3.66  0.  0.  0.
368  3.67  0.  0.  0.
369  3.68  0.  0.  0.
370  3.69  0.  0.  0.
371  3.70  0.  0.  0.
372  3.71  0.  0.  0.
373  3.72  0.  0.  0.
374  3.73  0.  0.  0.
375  3.74  0.  0.  0.
376  3.75  0.  0.  0.
377  3.76  0.  0.  0.
378  3.77  0.  0.  0.
379  3.78  0.  0.  0.
380  3.79  0.  0.  0.
381  3.80  0.  0.  0.
382  3.81  0.  0.  0.
383  3.82  0.  0.  0.
384  3.83  0.  0.  0.
385  3.84  0.  0.  0.
386  3.85  0.  0.  0.
387  3.86  0.  0.  0.
388  3.87  0.  0.  0.
389  3.88  0.  0.  0.
390  3.89  0.  0.  0.
391  3.90  0.  0.  0.
392  3.91  0.  0.  0.
393  3.92  0.  0.  0.
394  3.93  0.  0.  0.
395  3.94  0.  0.  0.
396  3.95  0.  0.  0.
397  3.96  0.  0.  0.
398  3.97  0.  0.  0.
399  3.98  0.  0.  0.
400  3.99  0.  0.  0.
401  4.00  0.  0.  0.
402  4.01  0.  0.  0.
403  4.02  0.  0.  0.
404  4.03  0.  0.  0.
405  4.04  0.  0.  0.
406  4.05  0.  0.  0.
407  4.06  0.  0.  0.
408  4.07  0.  0.  0.
409  4.08  0.  0.  0.
410  4.09  0.  0.  0.
411  4.10  0.  0.  0.
412  4.11  0.  0.  0.
413  4.12  0.  0.  0.
414  4.13  0.  0.  0.
415  4.14  0.  0.  0.
416  4.15  0.  0.  0.
417  4.16  0.  0.  0.
418  4.17  0.  0.  0.
419  4.18  0.  0.  0.
420  4.19  0.  0.  0.
421  4.20  0.  0.  0.
422  4.21  0.  0.  0.
423  4.22  0.  0.  0.
424  4.23  0.  0.  0.
425  4.24  0.  0.  0.
426  4.25  0.  0.  0.
427  4.26  0.  0.  0.
428  4.27  0.  0.  0.
429  4.28  0.  0.  0.
430  4.29  0.  0.  0.
431  4.30  0.  0.  0.
432  4.31  0.  0.  0.
433  4.32  0.  0.  0.
434  4.33  0.  0.  0.
435  4.34  0.  0.  0.
436  4.35  0.  0.  0.
437  4.36  0.  0.  0.
438  4.37  0.  0.  0.
439  4.38  0.  0.  0.
440  4.39  0.  0.  0.
441  4.40  0.  0.  0.
442  4.41  0.  0.  0.
443  4.42  0.  0.  0.
444  4.43  0.  0.  0.
445  4.44  0.  0.  0.
446  4.45  0.  0.  0.
447  4.46  0.  0.  0.
448  4.47  0.  0.  0.
449  4.48  0.  0.  0.
450  4.49  0.  0.  0.
451  4.50  0.  0.  0.
452  4.51  0.  0.  0.
453  4.52  0.  0.  0.
454  4.53  0.  0.  0.
455  4.54  0.  0.  0.
456  4.55  0.  0.  0.
457  4.56  0.  0.  0.
458  4.57  0.  0.  0.
459  4.58  0.  0.  0.
460  4.59  0.  0.  0.
461  4.60  0.  0.  0.
462  4.61  0.  0.  0.
463  4.62  0.  0.  0.
464  4.63  0.  0.  0.
465  4.64  0.  0.  0.
466  4.65  0.  0.  0.
467  4.66  0.  0.  0.
468  4.67  0.  0.  0.
469  4.68  0.  0.  0.
470  4.69  0.  0.  0.
471  4.70  0.  0.  0.
472  4.71  0.  0.  0.
473  4.72  0.  0.  0.
474  4.73  0.  0.  0.
475  4.74  0.  0.  0.
476  4.75  0.  0.  0.
477  4.76  0.  0.  0.
478  4.77  0.  0.  0.
479  4.78  0.  0.  0.
480  4.79  0.  0.  0.
481  4.80  0.  0.  0.
482  4.81  0.  0.  0.
483  4.82  0.  0.  0.
484  4.83  0.  0.  0.
485  4.84  0.  0.  0.
486  4.85  0.  0.  0.
487  4.86  0.  0.  0.
488  4.87  0.  0.  0.
489  4.88  0.  0.  0.
490  4.89  0.  0.  0.
491  4.90  0.  0.  0.
492  4.91  0.  0.  0.
493  4.92  0.  0.  0.
494  4.93  0.  0.  0.
495  4.94  0.  0.  0.
496  4.95  0.  0.  0.
497  4.96  0.  0.  0.
498  4.97  0.  0.  0.
499  4.98  0.  0.  0.
500  4.99  0.  0.  0.
501  5.00  0.  0.  0.
502  5.01  0.  0.  0.
503  5.02  0.  0.  0.
504  5.03  0.  0.  0.
505  5.04  0.  0.  0.
506  5.05  0.  0.  0.
507  5.06  0.  0.  0.
508  5.07  0.  0.  0.
509  5.08  0.  0.  0.
510  5.09  0.  0.  0.
511  5.10  0.  0.  0.
512  5.11  0.  0.  0.
513  5.12  0.  0.  0.
514  5.13  0.  0.  0.
515  5.14  0.  0.  0.
516  5.15  0.  0.  0.
517  5.16  0.  0.  0.
518  5.17  0.  0.  0.
519  5.18  0.  0.  0.
520  5.19  0.  0.  0.
521  5.20  0.  0.  0.
522  5.21  0.  0.  0.
523  5.22  0.  0.  0.
524  5.23  0.  0.  0.
525  5.24  0.  0.  0.
526  5.25  0.  0.  0.
527  5.26  0.  0.  0.
528  5.27  0.  0.  0.
529  5.28  0.  0.  0.
530  5.29  0.  0.  0.
531  5.30  0.  0.  0.
532  5.31  0.  0.  0.
533  5.32  0.  0.  0.
534  5.33  0.  0.  0.
535  5.34  0.  0.  0.
536  5.35  0.  0.  0.
537  5.36  0.  0.  0.
538  5.37  0.  0.  0.
539  5.38  0.  0.  0.
540  5.39  0.  0.  0.
541  5.40  0.  0.  0.
542  5.41  0.  0.  0.
543  5.42  0.  0.  0.
544  5.43  0.  0.  0.
545  5.44  0.  0.  0.
546  5.45  0.  0.  0.
547  5.46  0.  0.  0.
548  5.47  0.  0.  0.
549  5.48  0.  0.  0.
550  5.49  0.  0.  0.
551  5.50  0.  0.  0.
552  5.51  0.  0.  0.
553  5.52  0.  0.  0.
554  5.53  0.  0.  0.
555  5.54  0.  0.  0.
556  5.55  0.  0.  0.
557  5.56  0.  0.  0.
558  5.57  0.  0.  0.
559  5.58  0.  0.  0.
560  5.59  0.  0.  0.
561  5.60  0.  0.  0.
562  5.61  0.  0.  0.
563  5.62  0.  0.  0.
564  5.63  0.  0.  0.
565  5.64  0.  0.  0.
566  5.65  0.  0.  0.
567  5.66  0.  0.  0.
568  5.67  0.  0.  0.
569  5.68  0.  0.  0.
570  5.69  0.  0.  0.
571  5.70  0.  0.  0.
572  5.71  0.  0.  0.
573  5.72  0.  0.  0.
574  5.73  0.  0.  0.
575  5.74  0.  0.  0.
576  5.75  0.  0.  0.
577  5.76  0.  0.  0.
578  5.77  0.  0.  0.
579  5.78  0.  0.  0.
580  5.79  0.  0.  0.
581  5.80  0.  0.  0.
582  5.81  0.  0.  0.
583  5.82  0.  0.  0.
584  5.83  0.  0.  0.
585  5.84  0.  0.  0.
586  5.85  0.  0.  0.
587  5.86  0.  0.  0.
588  5.87  0.  0.  0.
589  5.88  0.  0.  0.
590  5.89  0.  0.  0.
591  5.90  0.  0.  0.
592  5.91  0.  0.  0.
593  5.92  0.  0.  0.
594  5.93  0.  0.  0.
595  5.94  0.  0.  0.
596  5.95  0.  0.  0.
597  5.96  0.  0.  0.
598  5.97  0.  0.  0.
599  5.98  0.  0.  0.
600  5.99  0.  0.  0.
1                         9.3415085908931E+00 -3.4467686342920E-01
1  0.0000000000000E+00 -3.2295989493836E-09 -5.0725514205707E-08
2  1.0000000000000E-02  3.6944381504043E-03  1.0839858109702E-03
3  2.0000000000000E-02  1.4751247294008E-02  4.3427594877132E-03
4  3.0000000000000E-02  3.3091018088981E-02  9.7959612426347E-03
5  4.0000000000000E-02  5.8581759604399E-02  1.7473664917862E-02
6  5.0000000000000E-02  9.1039445593593E-02  2.7412510194034E-02
7  6.0000000000000E-02  1.3022879740031E-01  3.9650527050401E-02
8  7.0000000000000E-02  1.7586432045677E-01  5.4220881302925E-02
9  8.0000000000000E-02  2.2761161456236E-01  7.1144820772630E-02
10  9.0000000000000E-02  2.8508898023025E-01  9.0424142065972E-02
11  1.0000000000000E-01  3.4786934419239E-01  1.1203352653710E-01
12  1.1000000000000E-01  4.1548252654388E-01  1.3591310961107E-01
13  1.2000000000000E-01  4.8741786992083E-01  1.6196164958768E-01
14  1.3000000000000E-01  5.6312724753180E-01  1.9003065010050E-01
15  1.4000000000000E-01  6.4202846184807E-01  2.1991976484326E-01
16  1.5000000000000E-01  7.2350903940460E-01  2.5137377474273E-01
17  1.6000000000000E-01  8.0693041962627E-01  2.8408137765194E-01
18  1.7000000000000E-01  8.9163252707587E-01  3.1767597048479E-01
19  1.8000000000000E-01  9.7693870726641E-01  3.5173853549477E-01
20  1.9000000000000E-01  1.0621609964709E+00  3.8580266841026E-01
21  2.0000000000000E-01  1.1466056861018E+00  4.1936170888987E-01
22  2.1000000000000E-01  1.2295791325428E+00  4.5187785591662E-01
23  2.2000000000000E-01  1.3103937541194E+00  4.8279307502377E-01
24  2.3000000000000E-01  1.3883741485195E+00  5.1154153331763E-01
25  2.4000000000000E-01  1.4628632567146E+00  5.3756323468468E-01
26  2.5000000000000E-01  1.5332284935724E+00  5.6031847367678E-01
27  2.6000000000000E-01  1.5988677611267E+00  5.7930268439746E-01
28  2.7000000000000E-01  1.6592152580795E+00  5.9406123192957E-01
29  2.8000000000000E-01  1.7137469986902E+00  6.0420367968627E-01
30  2.9000000000000E-01  1.7619859558505E+00  6.0941706728913E-01
31  3.0000000000000E-01  1.8035067468635E+00  6.0947775042251E-01
32  3.1000000000000E-01  1.8379397862135E+00  6.0426138630356E-01
33  3.2000000000000E-01  1.8649748373088E+00  5.9375069513352E-01
34  3.3000000000000E-01  1.8843639046561E+00  5.7804068785211E-01
35  3.4000000000000E-01  1.8959234189452E+00  5.5734112192561E-01
36  3.5000000000000E-01  1.8995356798262E+00  5.3197602757139E-01
37  3.6000000000000E-01  1.8951495344233E+00  5.0238023422460E-01
38  3.7000000000000E-01  1.8827802835174E+00  4.6909291838780E-01
39  3.8000000000000E-01  1.8625088214577E+00  4.3274828630020E-01
40  3.9000000000000E-01  1.8344800298690E+00  3.9406359507461E-01
41  4.0000000000000E-01  1.7989004587171E+00  3.5382480105651E-01
42  4.1000000000000E-01  1.7560353409169E+00  3.1287020127296E-01
43  4.2000000000000E-01  1.7062049980899E+00  2.7207250029623E-01
44  4.3000000000000E-01  1.6497807049794E+00  2.3231978831361E-01
45  4.4000000000000E-01  1.5871800881750E+00  1.9449595473640E-01
46  4.5000000000000E-01  1.5188621409731E+00  1.5946108384656E-01
47  4.6000000000000E-01  1.4453219402689E+00  1.2803238384749E-01
48  4.7000000000000E-01  1.3670851532698E+00  1.0096618790988E-01
49  4.8000000000000E-01  1.2847024215330E+00  7.8941535627191E-02
50  4.9000000000000E-01  1.1987437074231E+00  6.2545796554953E-02
51  5.0000000000000E-01  1.1097926836997E+00  5.2262735608728E-02
52  5.1000000000000E-01  1.0184412407639E+00  4.8463344972402E-02
53  5.2000000000000E-01  9.2528417836766E-01  5.1399681227186E-02
54  5.3000000000000E-01  8.3091413962389E-01  6.1201852449929E-02
55  5.4000000000000E-01  7.3591683526634E-01  7.7878201145891E-02
56  5.5000000000000E-01  6.4086659566662E-01  1.0131862837427E-01
57  5.6000000000000E-01  5.4632227747974E-01  1.3130090567685E-01
58  5.7000000000000E-01  4.5282354133236E-01  1.6749972778381E-01
59  5.8000000000000E-01  3.6088750703972E-01  2.0949817375284E-01
60  5.9000000000000E-01  2.7100578376511E-01  2.5680117014183E-01
61  6.0000000000000E-01  1.8364186460669E-01  3.0885048959892E-01
62  6.1000000000000E-01  9.9228868548060E-02  3.6504077399398E-01
63  6.2000000000000E-01  1.8167607721288E-02  4.2473604448939E-01
64  6.3000000000000E-01 -5.9175045380921E-02  4.8728615272304E-01
65  6.4000000000000E-01 -1.3246751769801E-01  5.5204263789145E-01
66  6.5000000000000E-01 -2.0141464924707E-01  6.1837348363518E-01
67  6.6000000000000E-01 -2.6575858576072E-01  6.8567631525833E-01
68  6.7000000000000E-01 -3.2527947230798E-01  7.5338964034131E-01
69  6.8000000000000E-01 -3.7979596551986E-01  8.2100181203000E-01
70  6.9000000000000E-01 -4.2916557672612E-01  8.8805748151475E-01
71  7.0000000000000E-01 -4.7328485236158E-01  9.5416140132386E-01
72  7.1000000000000E-01 -5.1208939176333E-01  1.0189795406424E+00
73  7.2000000000000E-01 -5.4555369631178E-01  1.0822375743107E+00
74  7.3000000000000E-01 -5.7369083812817E-01  1.1437169048170E+00
75  7.4000000000000E-01 -5.9655193157479E-01  1.2032484678698E+00
76  7.5000000000000E-01 -6.1422538692893E-01  1.2607046536612E+00
77  7.6000000000000E-01 -6.2683592309202E-01  1.3159897446648E+00
78  7.7000000000000E-01 -6.3454331527632E-01  1.3690293241484E+00
79  7.8000000000000E-01 -6.3754085443618E-01  1.4197591454966E+00
80  7.9000000000000E-01 -6.3605349786901E-01  1.4681139695084E+00
81  8.0000000000000E-01 -6.3033569490614E-01  1.5140168743436E+00
82  8.1000000000000E-01 -6.2066887787452E-01  1.5573695207571E+00
83  8.2000000000000E-01 -6.0735861638148E-01  1.5980438144341E+00
84  8.3000000000000E-01 -5.9073144222546E-01  1.6358753490977E+00
85  8.4000000000000E-01 -5.7113136256262E-01  1.6706589407846E+00
86  8.5000000000000E-01 -5.4891608999721E-01  1.7021464780612E+00
87  8.6000000000000E-01 -5.2445302959528E-01  1.7300472183075E+00
88  8.7000000000000E-01 -4.9811507399147E-01  1.7540305603113E+00
89  8.8000000000000E-01 -4.7027626828777E-01  1.7737312223465E+00
90  8.9000000000000E-01 -4.4130741584416E-01  1.7887566569303E+00
91  9.0000000000000E-01 -4.1157170385445E-01  1.7986964428621E+00
92  9.1000000000000E-01 -3.8142043333098E-01  1.8031333161575E+00
93  9.2000000000000E-01 -3.5118894137308E-01  1.8016554380721E+00
94  9.3000000000000E-01 -3.2119280400346E-01  1.7938694542097E+00
95  9.4000000000000E-01 -2.9172440512671E-01  1.7794138768601E+00
96  9.5000000000000E-01 -2.6304995107269E-01  1.7579723258300E+00
97  9.6000000000000E-01 -2.3540700060142E-01  1.7292861930174E+00
98  9.7000000000000E-01 -2.0900256710818E-01  1.6931663541326E+00
99  9.8000000000000E-01 -1.8401183313079E-01  1.6495036377264E+00
100  9.9000000000000E-01 -1.6057749724589E-01  1.5982778768733E+00
101  1.0000000000000E+00 -1.3880975029367E-01  1.5395655113429E+00
102  1.0100000000000E+00 -1.1878685185209E-01  1.4735458764336E+00
103  1.0200000000000E+00 -1.0055624940958E-01  1.4005065062764E+00
104  1.0300000000000E+00 -8.4136152191541E-02  1.3208479914370E+00
105  1.0400000000000E+00 -6.9517439545555E-02  1.2350891598734E+00
106  1.0500000000000E+00 -5.6665750734194E-02  1.1438735928052E+00
107  1.0600000000000E+00 -4.5523569520450E-02  1.0479787384104E+00
108  1.0700000000000E+00 -3.6012083500185E-02  9.4832914317404E-01
109  1.0800000000000E+00 -2.8032565449508E-02  8.4601557771726E-01
110  1.0900000000000E+00 -2.1466991767825E-02  7.4232209754221E-01
111  1.1000000000000E+00 -1.6177590266930E-02  6.3876322119194E-01
112  1.1100000000000E+00 -1.2004957811880E-02  5.3713400765057E-01
113  1.1200000000000E+00 -8.7698773426558E-03  4.3949567533552E-01
114  1.1300000000000E+00 -6.2935971129516E-03  3.4789819166867E-01
115  1.1400000000000E+00 -4.4124173968379E-03  2.6421314910774E-01
116  1.1500000000000E+00 -2.9990536401581E-03  1.9000900695721E-01
117  1.1600000000000E+00 -1.9628728652655E-03  1.2653785705239E-01
118  1.1700000000000E+00 -1.1918907834749E-03  7.5083433441661E-02
119  1.1800000000000E+00 -6.1730162634705E-04  3.6602945722490E-02
120  1.1900000000000E+00 -2.1587387380472E-04  1.1680891941284E-02
121  1.2000000000000E+00 -1.6719897963118E-05  8.0255830078534E-04
122  1.2100000000000E+00  2.8239518825923E-07 -1.2734750488830E-05
123  1.2200000000000E+00  1.6917248834506E-07 -8.5441786625678E-06
124  1.23 -0. -0.
125  1.24  0.  0.
126  1.25  0.  0.
127  1.26  0.  0.
128  1.27  0.  0.
129  1.28  0.  0.
130  1.29  0.  0.
131  1.30  0.  0.
132  1.31  0.  0.
133  1.32  0.  0.
134  1.33  0.  0.
135  1.34  0.  0.
136  1.35  0.  0.
137  1.36  0.  0.
138  1.37  0.  0.
139  1.38  0.  0.
140  1.39  0.  0.
141  1.40  0.  0.
142  1.41  0.  0.
143  1.42  0.  0.
144  1.43  0.  0.
145  1.44  0.  0.
146  1.45  0.  0.
147  1.46  0.  0.
148  1.47  0.  0.
149  1.48  0.  0.
150  1.49  0.  0.
151  1.50  0.  0.