Pa    ONCVPSP-4.0.1  r_core=   1.30362   1.30362   1.20608   1.40064
91.0000     31.0000      220327    zatom,zion,pspd
8      11   3     4   600     0    pspcod,pspxc,lmax,lloc,mmax,r2well
5.99000000  5.00000000  0.00000000    rchrg fchrg qchrg
3     2     2     2     0    nproj
1     1           extension_switch
0                         1.9994811428548E+01  2.8240798336207E+00 -7.1005986837480E-01
1  0.0000000000000E+00 -1.3968575185430E-09 -4.9966871612517E-09 -2.2594620696648E-07
2  1.0000000000000E-02  1.0770386910012E-01 -1.6241246965046E-02  1.3587889838685E-01
3  2.0000000000000E-02  2.1503261377517E-01 -3.2347992356545E-02  2.6889642790617E-01
4  3.0000000000000E-02  3.2161245012582E-01 -4.8184189542644E-02  3.9626616223735E-01
5  4.0000000000000E-02  4.2707226573405E-01 -6.3610760626068E-02  5.1534944472175E-01
6  5.0000000000000E-02  5.3104493186900E-01 -7.8484226628692E-02  6.2372404538369E-01
7  6.0000000000000E-02  6.3316858852771E-01 -9.2655509011473E-02  7.1924671299311E-01
8  7.0000000000000E-02  7.3308789499990E-01 -1.0596895364043E-01  8.0010786269062E-01
9  8.0000000000000E-02  8.3045524004302E-01 -1.1826162331262E-01  8.6487686564179E-01
10  9.0000000000000E-02  9.2493190738107E-01 -1.2936289889178E-01  9.1253667720134E-01
11  1.0000000000000E-01  1.0161891940264E+00 -1.3909442208795E-01  9.4250684639945E-01
12  1.1000000000000E-01  1.1039094807863E+00 -1.4727040508437E-01  9.5465428340571E-01
13  1.2000000000000E-01  1.1877872561698E+00 -1.5369832372172E-01  9.4929151338534E-01
14  1.3000000000000E-01  1.2675300966662E+00 -1.5818000196042E-01  9.2716250470623E-01
15  1.4000000000000E-01  1.3428596079381E+00 -1.6051308603511E-01  8.8941651643139E-01
16  1.5000000000000E-01  1.4135123327780E+00 -1.6049289727880E-01  8.3757075414542E-01
17  1.6000000000000E-01  1.4792406326391E+00 -1.5791464321869E-01  7.7346294446437E-01
18  1.7000000000000E-01  1.5398135501133E+00 -1.5257595742541E-01  6.9919522779643E-01
19  1.8000000000000E-01  1.5950176598332E+00 -1.4427972992428E-01  6.1707101763872E-01
20  1.9000000000000E-01  1.6446579148951E+00 -1.3283718193618E-01  5.2952667572869E-01
21  2.0000000000000E-01  1.6885584950162E+00 -1.1807113148508E-01  4.3905999981009E-01
22  2.1000000000000E-01  1.7265636612552E+00 -9.9819390150801E-02  3.4815761034566E-01
23  2.2000000000000E-01  1.7585386202708E+00 -7.7938226109190E-02  2.5922335151970E-01
24  2.3000000000000E-01  1.7843703987964E+00 -5.2305824713261E-02  1.7450978943810E-01
25  2.4000000000000E-01  1.8039687263516E+00 -2.2825675334509E-02  9.6054797420654E-02
26  2.5000000000000E-01  1.8172669212540E+00  1.0570187917199E-02  2.5625067311298E-02
27  2.6000000000000E-01  1.8242227718411E+00  4.7918163591076E-02 -3.5331818854411E-02
28  2.7000000000000E-01  1.8248194015683E+00  8.9220348512225E-02 -8.5725374809915E-02
29  2.8000000000000E-01  1.8190661034285E+00  1.3444215832316E-01 -1.2484916440934E-01
30  2.9000000000000E-01  1.8069991260619E+00  1.8351036479784E-01 -1.5239595984988E-01
31  3.0000000000000E-01  1.7886823911201E+00  2.3631160552444E-01 -1.6846068649286E-01
32  3.1000000000000E-01  1.7642081190339E+00  2.9269141401162E-01 -1.7353109665564E-01
33  3.2000000000000E-01  1.7336973384218E+00  3.5245380956932E-01 -1.6846647626996E-01
34  3.3000000000000E-01  1.6973002530766E+00  4.1536147660870E-01 -1.5446504116454E-01
35  3.4000000000000E-01  1.6551964398636E+00  4.8113655247857E-01 -1.3302101351173E-01
36  3.5000000000000E-01  1.6075948510330E+00  5.4946203181149E-01 -1.0587267392408E-01
37  3.6000000000000E-01  1.5547335954369E+00  6.1998378381381E-01 -7.4942951765955E-02
38  3.7000000000000E-01  1.4968794749775E+00  6.9231316723511E-01 -4.2274337559201E-02
39  3.8000000000000E-01  1.4343272553027E+00  7.6603021613722E-01 -9.9600703638692E-03
40  3.9000000000000E-01  1.3673986532724E+00  8.4068735829807E-01  1.9926335353148E-02
41  4.0000000000000E-01  1.2964410280088E+00  9.1581361737549E-01  4.5401107948674E-02
42  4.1000000000000E-01  1.2218257673249E+00  9.9091924005768E-01  6.4637677897919E-02
43  4.2000000000000E-01  1.1439463669013E+00  1.0655006805634E+00  7.6029547517023E-02
44  4.3000000000000E-01  1.0632162056310E+00  1.1390458672310E+00  7.8246673788086E-02
45  4.4000000000000E-01  9.8006602692763E-01  1.2110396697335E+00  7.0283656273226E-02
46  4.5000000000000E-01  8.9494114233361E-01  1.2809694808240E+00  5.1498261876196E-02
47  4.6000000000000E-01  8.0829838030888E-01  1.3483308235808E+00  2.1639101352564E-02
48  4.7000000000000E-01  7.2060280944295E-01  1.4126328939577E+00 -1.9138409368373E-02
49  4.8000000000000E-01  6.3232427134006E-01  1.4734039491023E+00 -7.0268326267390E-02
50  4.9000000000000E-01  5.4393376390393E-01  1.5301964543883E+00 -1.3078285679053E-01
51  5.0000000000000E-01  4.5589972053019E-01  1.5825919063730E+00 -1.9933324210773E-01
52  5.1000000000000E-01  3.6868423465071E-01  1.6302052548679E+00 -2.7422228450542E-01
53  5.2000000000000E-01  2.8273928203487E-01  1.6726888548686E+00 -3.5344762126606E-01
54  5.3000000000000E-01  1.9850299512899E-01  1.7097358880840E+00 -4.3475453211019E-01
55  5.4000000000000E-01  1.1639604442883E-01  1.7410832040315E+00 -5.1569678911788E-01
56  5.5000000000000E-01  3.6818181379737E-02  1.7665135419140E+00 -5.9370382421800E-01
57  5.6000000000000E-01 -3.9855004431588E-02  1.7858571065049E+00 -6.6615230670113E-01
58  5.7000000000000E-01 -1.1327506397526E-01  1.7989924837865E+00 -7.3044009706409E-01
59  5.8000000000000E-01 -1.8312335765842E-01  1.8058468948235E+00 -7.8406047744191E-01
60  5.9000000000000E-01 -2.4911337387234E-01  1.8063957990317E+00 -8.2467455467099E-01
61  6.0000000000000E-01 -3.1099266285422E-01  1.8006618703269E+00 -8.5017978953255E-01
62  6.1000000000000E-01 -3.6854435850165E-01  1.7887133813453E+00 -8.5877272296498E-01
63  6.2000000000000E-01 -4.2158826843190E-01  1.7706620417479E+00 -8.4900414317217E-01
64  6.3000000000000E-01 -4.6998152070964E-01  1.7466603463176E+00 -8.1982516112801E-01
65  6.4000000000000E-01 -5.1361876407686E-01  1.7168984969252E+00 -7.7062292893162E-01
66  6.5000000000000E-01 -5.5243192699939E-01  1.6816009692975E+00 -7.0124503752163E-01
67  6.6000000000000E-01 -5.8638954918416E-01  1.6410228007347E+00 -6.1201195804673E-01
68  6.7000000000000E-01 -6.1549570721159E-01  1.5954456783906E+00 -5.0371723462639E-01
69  6.8000000000000E-01 -6.3978856337166E-01  1.5451739094082E+00 -3.7761548483926E-01
70  6.9000000000000E-01 -6.5933857350346E-01  1.4905303540770E+00 -2.3539860739530E-01
71  7.0000000000000E-01 -6.7424639545525E-01  1.4318524012908E+00 -7.9160923767763E-02
72  7.1000000000000E-01 -6.8464054456494E-01  1.3694880620118E+00  8.8645717745363E-02
73  7.2000000000000E-01 -6.9067484619968E-01  1.3037922513168E+00  2.6526557992439E-01
74  7.3000000000000E-01 -6.9252573780849E-01  1.2351233230575E+00  4.4769989610623E-01
75  7.4000000000000E-01 -6.9038947408918E-01  1.1638399134107E+00  6.3277325479849E-01
76  7.5000000000000E-01 -6.8447928873728E-01  1.0902981408229E+00  8.1720369056647E-01
77  7.6000000000000E-01 -6.7502256485498E-01  1.0148492003041E+00  9.9767459657913E-01
78  7.7000000000000E-01 -6.6225806350567E-01  9.3783737992849E-01  1.1709065664899E+00
79  7.8000000000000E-01 -6.4643325619115E-01  8.5959851699684E-01  1.3337273230829E+00
80  7.9000000000000E-01 -6.2780180231631E-01  7.8045890083596E-01  1.4831379960245E+00
81  8.0000000000000E-01 -6.0662120712492E-01  7.0073461887367E-01  1.6163741670076E+00
82  8.1000000000000E-01 -5.8315068929423E-01  6.2073133262604E-01  1.7309603019293E+00
83  8.2000000000000E-01 -5.5764928053084E-01  5.4074446073666E-01  1.8247564293524E+00
84  8.3000000000000E-01 -5.3037417229037E-01  4.6105973734496E-01  1.8959961940953E+00
85  8.4000000000000E-01 -5.0157931732303E-01  3.8195410592680E-01  1.9433157050998E+00
86  8.5000000000000E-01 -4.7151428629838E-01  3.0369690139458E-01  1.9657728977862E+00
87  8.6000000000000E-01 -4.4042337244809E-01  2.2655126667143E-01  1.9628574325825E+00
88  8.7000000000000E-01 -4.0854493013256E-01  1.5077574412345E-01  1.9344914427085E+00
89  8.8000000000000E-01 -3.7611092661884E-01  7.6625977057765E-02  1.8810217152758E+00
90  8.9000000000000E-01 -3.4334668026104E-01  4.3564518431853E-03  1.8032041304093E+00
91  9.0000000000000E-01 -3.1047075278804E-01 -6.5777793088585E-02  1.7021813840387E+00
92  9.1000000000000E-01 -2.7769495858755E-01 -1.3351956925677E-01  1.5794551727842E+00
93  9.2000000000000E-01 -2.4522444976693E-01 -1.9860813330486E-01  1.4368541163493E+00
94  9.3000000000000E-01 -2.1325783238127E-01 -2.6077806208627E-01  1.2764987275273E+00
95  9.4000000000000E-01 -1.8198726653685E-01 -3.1975849966774E-01  1.1007647068897E+00
96  9.5000000000000E-01 -1.5159850107215E-01 -3.7527287444903E-01  9.1224573402503E-01
97  9.6000000000000E-01 -1.2227079213990E-01 -4.2703919203139E-01  7.1371674656849E-01
98  9.7000000000000E-01 -9.4176654203475E-02 -4.7477101844269E-01  5.0809843961710E-01
99  9.8000000000000E-01 -6.7481391647642E-02 -5.1817927913034E-01  2.9842337996881E-01
100  9.9000000000000E-01 -4.2342359319906E-02 -5.5697501204201E-01  8.7803710616751E-02
101  1.0000000000000E+00 -1.8907900793622E-02 -5.9087322837797E-01 -1.2060007960699E-01
102  1.0100000000000E+00  2.6840860779199E-03 -6.1959805244611E-01 -3.2361042926521E-01
103  1.0200000000000E+00  2.2308005712694E-02 -6.4288933264833E-01 -5.1806579387423E-01
104  1.0300000000000E+00  3.9852891579514E-02 -6.6051093917212E-01 -7.0085807596810E-01
105  1.0400000000000E+00  5.5225249815892E-02 -6.7226099051787E-01 -8.6897775636784E-01
106  1.0500000000000E+00  6.8352464503904E-02 -6.7798428060683E-01 -1.0195710123248E+00
107  1.0600000000000E+00  7.9186807275479E-02 -6.7758721098648E-01 -1.1500141284925E+00
108  1.0700000000000E+00  8.7710091302296E-02 -6.7105556838792E-01 -1.2580116234713E+00
109  1.0800000000000E+00  9.3939006472283E-02 -6.5847552657436E-01 -1.3417257377747E+00
110  1.0900000000000E+00  9.7931170125468E-02 -6.4005829969744E-01 -1.3999463117627E+00
111  1.1000000000000E+00  9.9791881743292E-02 -6.1616875496648E-01 -1.4323105340651E+00
112  1.1100000000000E+00  9.9681119353560E-02 -5.8735656168765E-01 -1.4395727766954E+00
113  1.1200000000000E+00  9.7802790423729E-02 -5.5431806679425E-01 -1.4234807795447E+00
114  1.1300000000000E+00  9.4375999149690E-02 -5.1778628055634E-01 -1.3861661313219E+00
115  1.1400000000000E+00  8.9626995401806E-02 -4.7850290023166E-01 -1.3299796141314E+00
116  1.1500000000000E+00  8.3786382887653E-02 -4.3721145216950E-01 -1.2574500620941E+00
117  1.1600000000000E+00  7.7086170910335E-02 -3.9464997891436E-01 -1.1712416324464E+00
118  1.1700000000000E+00  6.9756718172581E-02 -3.5154343141074E-01 -1.0741107497910E+00
119  1.1800000000000E+00  6.2023605238730E-02 -3.0859586930066E-01 -9.6886349745540E-01
120  1.1900000000000E+00  5.4104476062510E-02 -2.6648257761248E-01 -8.5831410666161E-01
121  1.2000000000000E+00  4.6205895634978E-02 -2.2584222668212E-01 -7.4524518560325E-01
122  1.2100000000000E+00  3.8520272668082E-02 -1.8726920263582E-01 -6.3237021045765E-01
123  1.2200000000000E+00  3.1222901317878E-02 -1.5130624695366E-01 -5.2229870194092E-01
124  1.2300000000000E+00  2.4469148422973E-02 -1.1843746781375E-01 -4.1750467088652E-01
125  1.2400000000000E+00  1.8390877553972E-02 -8.9079525365960E-02 -3.2030685465441E-01
126  1.2500000000000E+00  1.3074141438746E-02 -6.3525340582494E-02 -2.3301442206480E-01
127  1.2600000000000E+00  8.6029958679385E-03 -4.2052570565973E-02 -1.5751391927932E-01
128  1.2700000000000E+00  5.0483850697939E-03 -2.4899017989347E-02 -9.5334500538018E-02
129  1.2800000000000E+00  2.4450035748215E-03 -1.2205158636289E-02 -4.7822869770872E-02
130  1.2900000000000E+00  7.9002518507880E-04 -4.0045570950293E-03 -1.6074550766992E-02
131  1.3000000000000E+00  6.5824670665794E-05 -3.4035748543793E-04 -1.4030333501742E-03
132  1.3100000000000E+00 -4.7326359712699E-06  2.4767574560256E-05  1.0375723788547E-04
133  1.3200000000000E+00 -2.1161150694837E-07  1.0848461226984E-06  4.4249880822311E-06
134  1.33 -0.  0. -0.
135  1.34  0.  0.  0.
136  1.35  0.  0.  0.
137  1.36  0.  0.  0.
138  1.37  0.  0.  0.
139  1.38  0.  0.  0.
140  1.39  0.  0.  0.
141  1.40  0.  0.  0.
142  1.41  0.  0.  0.
143  1.42  0.  0.  0.
144  1.43  0.  0.  0.
145  1.44  0.  0.  0.
146  1.45  0.  0.  0.
147  1.46  0.  0.  0.
148  1.47  0.  0.  0.
149  1.48  0.  0.  0.
150  1.49  0.  0.  0.
151  1.50  0.  0.  0.
152  1.51  0.  0.  0.
153  1.52  0.  0.  0.
154  1.53  0.  0.  0.
155  1.54  0.  0.  0.
156  1.55  0.  0.  0.
157  1.56  0.  0.  0.
158  1.57  0.  0.  0.
159  1.58  0.  0.  0.
160  1.59  0.  0.  0.
161  1.60  0.  0.  0.
162  1.61  0.  0.  0.
163  1.62  0.  0.  0.
164  1.63  0.  0.  0.
165  1.64  0.  0.  0.
166  1.65  0.  0.  0.
167  1.66  0.  0.  0.
168  1.67  0.  0.  0.
169  1.68  0.  0.  0.
170  1.69  0.  0.  0.
171  1.70  0.  0.  0.
172  1.71  0.  0.  0.
173  1.72  0.  0.  0.
174  1.73  0.  0.  0.
175  1.74  0.  0.  0.
176  1.75  0.  0.  0.
177  1.76  0.  0.  0.
178  1.77  0.  0.  0.
179  1.78  0.  0.  0.
180  1.79  0.  0.  0.
181  1.80  0.  0.  0.
182  1.81  0.  0.  0.
183  1.82  0.  0.  0.
184  1.83  0.  0.  0.
185  1.84  0.  0.  0.
186  1.85  0.  0.  0.
187  1.86  0.  0.  0.
188  1.87  0.  0.  0.
189  1.88  0.  0.  0.
190  1.89  0.  0.  0.
191  1.90  0.  0.  0.
192  1.91  0.  0.  0.
193  1.92  0.  0.  0.
194  1.93  0.  0.  0.
195  1.94  0.  0.  0.
196  1.95  0.  0.  0.
197  1.96  0.  0.  0.
198  1.97  0.  0.  0.
199  1.98  0.  0.  0.
200  1.99  0.  0.  0.
201  2.00  0.  0.  0.
202  2.01  0.  0.  0.
203  2.02  0.  0.  0.
204  2.03  0.  0.  0.
205  2.04  0.  0.  0.
206  2.05  0.  0.  0.
207  2.06  0.  0.  0.
208  2.07  0.  0.  0.
209  2.08  0.  0.  0.
210  2.09  0.  0.  0.
211  2.10  0.  0.  0.
212  2.11  0.  0.  0.
213  2.12  0.  0.  0.
214  2.13  0.  0.  0.
215  2.14  0.  0.  0.
216  2.15  0.  0.  0.
217  2.16  0.  0.  0.
218  2.17  0.  0.  0.
219  2.18  0.  0.  0.
220  2.19  0.  0.  0.
221  2.20  0.  0.  0.
222  2.21  0.  0.  0.
223  2.22  0.  0.  0.
224  2.23  0.  0.  0.
225  2.24  0.  0.  0.
226  2.25  0.  0.  0.
227  2.26  0.  0.  0.
228  2.27  0.  0.  0.
229  2.28  0.  0.  0.
230  2.29  0.  0.  0.
231  2.30  0.  0.  0.
232  2.31  0.  0.  0.
233  2.32  0.  0.  0.
234  2.33  0.  0.  0.
235  2.34  0.  0.  0.
236  2.35  0.  0.  0.
237  2.36  0.  0.  0.
238  2.37  0.  0.  0.
239  2.38  0.  0.  0.
240  2.39  0.  0.  0.
241  2.40  0.  0.  0.
242  2.41  0.  0.  0.
243  2.42  0.  0.  0.
244  2.43  0.  0.  0.
245  2.44  0.  0.  0.
246  2.45  0.  0.  0.
247  2.46  0.  0.  0.
248  2.47  0.  0.  0.
249  2.48  0.  0.  0.
250  2.49  0.  0.  0.
251  2.50  0.  0.  0.
252  2.51  0.  0.  0.
253  2.52  0.  0.  0.
254  2.53  0.  0.  0.
255  2.54  0.  0.  0.
256  2.55  0.  0.  0.
257  2.56  0.  0.  0.
258  2.57  0.  0.  0.
259  2.58  0.  0.  0.
260  2.59  0.  0.  0.
261  2.60  0.  0.  0.
262  2.61  0.  0.  0.
263  2.62  0.  0.  0.
264  2.63  0.  0.  0.
265  2.64  0.  0.  0.
266  2.65  0.  0.  0.
267  2.66  0.  0.  0.
268  2.67  0.  0.  0.
269  2.68  0.  0.  0.
270  2.69  0.  0.  0.
271  2.70  0.  0.  0.
272  2.71  0.  0.  0.
273  2.72  0.  0.  0.
274  2.73  0.  0.  0.
275  2.74  0.  0.  0.
276  2.75  0.  0.  0.
277  2.76  0.  0.  0.
278  2.77  0.  0.  0.
279  2.78  0.  0.  0.
280  2.79  0.  0.  0.
281  2.80  0.  0.  0.
282  2.81  0.  0.  0.
283  2.82  0.  0.  0.
284  2.83  0.  0.  0.
285  2.84  0.  0.  0.
286  2.85  0.  0.  0.
287  2.86  0.  0.  0.
288  2.87  0.  0.  0.
289  2.88  0.  0.  0.
290  2.89  0.  0.  0.
291  2.90  0.  0.  0.
292  2.91  0.  0.  0.
293  2.92  0.  0.  0.
294  2.93  0.  0.  0.
295  2.94  0.  0.  0.
296  2.95  0.  0.  0.
297  2.96  0.  0.  0.
298  2.97  0.  0.  0.
299  2.98  0.  0.  0.
300  2.99  0.  0.  0.
301  3.00  0.  0.  0.
302  3.01  0.  0.  0.
303  3.02  0.  0.  0.
304  3.03  0.  0.  0.
305  3.04  0.  0.  0.
306  3.05  0.  0.  0.
307  3.06  0.  0.  0.
308  3.07  0.  0.  0.
309  3.08  0.  0.  0.
310  3.09  0.  0.  0.
311  3.10  0.  0.  0.
312  3.11  0.  0.  0.
313  3.12  0.  0.  0.
314  3.13  0.  0.  0.
315  3.14  0.  0.  0.
316  3.15  0.  0.  0.
317  3.16  0.  0.  0.
318  3.17  0.  0.  0.
319  3.18  0.  0.  0.
320  3.19  0.  0.  0.
321  3.20  0.  0.  0.
322  3.21  0.  0.  0.
323  3.22  0.  0.  0.
324  3.23  0.  0.  0.
325  3.24  0.  0.  0.
326  3.25  0.  0.  0.
327  3.26  0.  0.  0.
328  3.27  0.  0.  0.
329  3.28  0.  0.  0.
330  3.29  0.  0.  0.
331  3.30  0.  0.  0.
332  3.31  0.  0.  0.
333  3.32  0.  0.  0.
334  3.33  0.  0.  0.
335  3.34  0.  0.  0.
336  3.35  0.  0.  0.
337  3.36  0.  0.  0.
338  3.37  0.  0.  0.
339  3.38  0.  0.  0.
340  3.39  0.  0.  0.
341  3.40  0.  0.  0.
342  3.41  0.  0.  0.
343  3.42  0.  0.  0.
344  3.43  0.  0.  0.
345  3.44  0.  0.  0.
346  3.45  0.  0.  0.
347  3.46  0.  0.  0.
348  3.47  0.  0.  0.
349  3.48  0.  0.  0.
350  3.49  0.  0.  0.
351  3.50  0.  0.  0.
352  3.51  0.  0.  0.
353  3.52  0.  0.  0.
354  3.53  0.  0.  0.
355  3.54  0.  0.  0.
356  3.55  0.  0.  0.
357  3.56  0.  0.  0.
358  3.57  0.  0.  0.
359  3.58  0.  0.  0.
360  3.59  0.  0.  0.
361  3.60  0.  0.  0.
362  3.61  0.  0.  0.
363  3.62  0.  0.  0.
364  3.63  0.  0.  0.
365  3.64  0.  0.  0.
366  3.65  0.  0.  0.
367  3.66  0.  0.  0.
368  3.67  0.  0.  0.
369  3.68  0.  0.  0.
370  3.69  0.  0.  0.
371  3.70  0.  0.  0.
372  3.71  0.  0.  0.
373  3.72  0.  0.  0.
374  3.73  0.  0.  0.
375  3.74  0.  0.  0.
376  3.75  0.  0.  0.
377  3.76  0.  0.  0.
378  3.77  0.  0.  0.
379  3.78  0.  0.  0.
380  3.79  0.  0.  0.
381  3.80  0.  0.  0.
382  3.81  0.  0.  0.
383  3.82  0.  0.  0.
384  3.83  0.  0.  0.
385  3.84  0.  0.  0.
386  3.85  0.  0.  0.
387  3.86  0.  0.  0.
388  3.87  0.  0.  0.
389  3.88  0.  0.  0.
390  3.89  0.  0.  0.
391  3.90  0.  0.  0.
392  3.91  0.  0.  0.
393  3.92  0.  0.  0.
394  3.93  0.  0.  0.
395  3.94  0.  0.  0.
396  3.95  0.  0.  0.
397  3.96  0.  0.  0.
398  3.97  0.  0.  0.
399  3.98  0.  0.  0.
400  3.99  0.  0.  0.
401  4.00  0.  0.  0.
402  4.01  0.  0.  0.
403  4.02  0.  0.  0.
404  4.03  0.  0.  0.
405  4.04  0.  0.  0.
406  4.05  0.  0.  0.
407  4.06  0.  0.  0.
408  4.07  0.  0.  0.
409  4.08  0.  0.  0.
410  4.09  0.  0.  0.
411  4.10  0.  0.  0.
412  4.11  0.  0.  0.
413  4.12  0.  0.  0.
414  4.13  0.  0.  0.
415  4.14  0.  0.  0.
416  4.15  0.  0.  0.
417  4.16  0.  0.  0.
418  4.17  0.  0.  0.
419  4.18  0.  0.  0.
420  4.19  0.  0.  0.
421  4.20  0.  0.  0.
422  4.21  0.  0.  0.
423  4.22  0.  0.  0.
424  4.23  0.  0.  0.
425  4.24  0.  0.  0.
426  4.25  0.  0.  0.
427  4.26  0.  0.  0.
428  4.27  0.  0.  0.
429  4.28  0.  0.  0.
430  4.29  0.  0.  0.
431  4.30  0.  0.  0.
432  4.31  0.  0.  0.
433  4.32  0.  0.  0.
434  4.33  0.  0.  0.
435  4.34  0.  0.  0.
436  4.35  0.  0.  0.
437  4.36  0.  0.  0.
438  4.37  0.  0.  0.
439  4.38  0.  0.  0.
440  4.39  0.  0.  0.
441  4.40  0.  0.  0.
442  4.41  0.  0.  0.
443  4.42  0.  0.  0.
444  4.43  0.  0.  0.
445  4.44  0.  0.  0.
446  4.45  0.  0.  0.
447  4.46  0.  0.  0.
448  4.47  0.  0.  0.
449  4.48  0.  0.  0.
450  4.49  0.  0.  0.
451  4.50  0.  0.  0.
452  4.51  0.  0.  0.
453  4.52  0.  0.  0.
454  4.53  0.  0.  0.
455  4.54  0.  0.  0.
456  4.55  0.  0.  0.
457  4.56  0.  0.  0.
458  4.57  0.  0.  0.
459  4.58  0.  0.  0.
460  4.59  0.  0.  0.
461  4.60  0.  0.  0.
462  4.61  0.  0.  0.
463  4.62  0.  0.  0.
464  4.63  0.  0.  0.
465  4.64  0.  0.  0.
466  4.65  0.  0.  0.
467  4.66  0.  0.  0.
468  4.67  0.  0.  0.
469  4.68  0.  0.  0.
470  4.69  0.  0.  0.
471  4.70  0.  0.  0.
472  4.71  0.  0.  0.
473  4.72  0.  0.  0.
474  4.73  0.  0.  0.
475  4.74  0.  0.  0.
476  4.75  0.  0.  0.
477  4.76  0.  0.  0.
478  4.77  0.  0.  0.
479  4.78  0.  0.  0.
480  4.79  0.  0.  0.
481  4.80  0.  0.  0.
482  4.81  0.  0.  0.
483  4.82  0.  0.  0.
484  4.83  0.  0.  0.
485  4.84  0.  0.  0.
486  4.85  0.  0.  0.
487  4.86  0.  0.  0.
488  4.87  0.  0.  0.
489  4.88  0.  0.  0.
490  4.89  0.  0.  0.
491  4.90  0.  0.  0.
492  4.91  0.  0.  0.
493  4.92  0.  0.  0.
494  4.93  0.  0.  0.
495  4.94  0.  0.  0.
496  4.95  0.  0.  0.
497  4.96  0.  0.  0.
498  4.97  0.  0.  0.
499  4.98  0.  0.  0.
500  4.99  0.  0.  0.
501  5.00  0.  0.  0.
502  5.01  0.  0.  0.
503  5.02  0.  0.  0.
504  5.03  0.  0.  0.
505  5.04  0.  0.  0.
506  5.05  0.  0.  0.
507  5.06  0.  0.  0.
508  5.07  0.  0.  0.
509  5.08  0.  0.  0.
510  5.09  0.  0.  0.
511  5.10  0.  0.  0.
512  5.11  0.  0.  0.
513  5.12  0.  0.  0.
514  5.13  0.  0.  0.
515  5.14  0.  0.  0.
516  5.15  0.  0.  0.
517  5.16  0.  0.  0.
518  5.17  0.  0.  0.
519  5.18  0.  0.  0.
520  5.19  0.  0.  0.
521  5.20  0.  0.  0.
522  5.21  0.  0.  0.
523  5.22  0.  0.  0.
524  5.23  0.  0.  0.
525  5.24  0.  0.  0.
526  5.25  0.  0.  0.
527  5.26  0.  0.  0.
528  5.27  0.  0.  0.
529  5.28  0.  0.  0.
530  5.29  0.  0.  0.
531  5.30  0.  0.  0.
532  5.31  0.  0.  0.
533  5.32  0.  0.  0.
534  5.33  0.  0.  0.
535  5.34  0.  0.  0.
536  5.35  0.  0.  0.
537  5.36  0.  0.  0.
538  5.37  0.  0.  0.
539  5.38  0.  0.  0.
540  5.39  0.  0.  0.
541  5.40  0.  0.  0.
542  5.41  0.  0.  0.
543  5.42  0.  0.  0.
544  5.43  0.  0.  0.
545  5.44  0.  0.  0.
546  5.45  0.  0.  0.
547  5.46  0.  0.  0.
548  5.47  0.  0.  0.
549  5.48  0.  0.  0.
550  5.49  0.  0.  0.
551  5.50  0.  0.  0.
552  5.51  0.  0.  0.
553  5.52  0.  0.  0.
554  5.53  0.  0.  0.
555  5.54  0.  0.  0.
556  5.55  0.  0.  0.
557  5.56  0.  0.  0.
558  5.57  0.  0.  0.
559  5.58  0.  0.  0.
560  5.59  0.  0.  0.
561  5.60  0.  0.  0.
562  5.61  0.  0.  0.
563  5.62  0.  0.  0.
564  5.63  0.  0.  0.
565  5.64  0.  0.  0.
566  5.65  0.  0.  0.
567  5.66  0.  0.  0.
568  5.67  0.  0.  0.
569  5.68  0.  0.  0.
570  5.69  0.  0.  0.
571  5.70  0.  0.  0.
572  5.71  0.  0.  0.
573  5.72  0.  0.  0.
574  5.73  0.  0.  0.
575  5.74  0.  0.  0.
576  5.75  0.  0.  0.
577  5.76  0.  0.  0.
578  5.77  0.  0.  0.
579  5.78  0.  0.  0.
580  5.79  0.  0.  0.
581  5.80  0.  0.  0.
582  5.81  0.  0.  0.
583  5.82  0.  0.  0.
584  5.83  0.  0.  0.
585  5.84  0.  0.  0.
586  5.85  0.  0.  0.
587  5.86  0.  0.  0.
588  5.87  0.  0.  0.
589  5.88  0.  0.  0.
590  5.89  0.  0.  0.
591  5.90  0.  0.  0.
592  5.91  0.  0.  0.
593  5.92  0.  0.  0.
594  5.93  0.  0.  0.
595  5.94  0.  0.  0.
596  5.95  0.  0.  0.
597  5.96  0.  0.  0.
598  5.97  0.  0.  0.
599  5.98  0.  0.  0.
600  5.99  0.  0.  0.
1                         1.1584795225865E+01  1.5891164586598E+00
1  0.0000000000000E+00 -1.0790525861726E-08  3.0665812179517E-08
2  1.0000000000000E-02  2.9615831772167E-03 -9.8703105230974E-05
3  2.0000000000000E-02  1.1832521806202E-02 -4.0532381120195E-04
4  3.0000000000000E-02  2.6571263435721E-02 -9.5080909526969E-04
5  4.0000000000000E-02  4.7108162025232E-02 -1.7847998879742E-03
6  5.0000000000000E-02  7.3344914941833E-02 -2.9727942426537E-03
7  6.0000000000000E-02  1.0515382378493E-01 -4.5923120722921E-03
8  7.0000000000000E-02  1.4237692615477E-01 -6.7281928341354E-03
9  8.0000000000000E-02  1.8482505627158E-01 -9.4671882084216E-03
10  9.0000000000000E-02  2.3227690124534E-01 -1.2892037599282E-02
11  1.0000000000000E-01  2.8447812648495E-01 -1.7075234386597E-02
12  1.1000000000000E-01  3.4114064797591E-01 -2.2072704644582E-02
13  1.2000000000000E-01  4.0194213077527E-01 -2.7917627060109E-02
14  1.3000000000000E-01  4.6652579197495E-01 -3.4614622773374E-02
15  1.4000000000000E-01  5.3450058255409E-01 -4.2134536765662E-02
16  1.5000000000000E-01  6.0544181604107E-01 -5.0410018382816E-02
17  1.6000000000000E-01  6.7889230288242E-01 -5.9332087957624E-02
18  1.7000000000000E-01  7.5436403808774E-01 -6.8747849824884E-02
19  1.8000000000000E-01  8.3134047638057E-01 -7.8459480033108E-02
20  1.9000000000000E-01  9.0927941408877E-01 -8.8224580633484E-02
21  2.0000000000000E-01  9.8761648076395E-01 -9.7757952592544E-02
22  2.1000000000000E-01  1.0657692264803E+00 -1.0673479726414E-01
23  2.2000000000000E-01  1.1431417734110E+00 -1.1479531318040E-01
24  2.3000000000000E-01  1.2191299831153E+00 -1.2155061193823E-01
25  2.4000000000000E-01  1.2931270744979E+00 -1.2658983543410E-01
26  2.5000000000000E-01  1.3645296121090E+00 -1.2948831787654E-01
27  2.6000000000000E-01  1.4327437708190E+00 -1.2981660106090E-01
28  2.7000000000000E-01  1.4971917713393E+00 -1.2715008140796E-01
29  2.8000000000000E-01  1.5573183719609E+00 -1.2107904319753E-01
30  2.9000000000000E-01  1.6125972955524E+00 -1.1121881506839E-01
31  3.0000000000000E-01  1.6625374675373E+00 -9.7219776815961E-02
32  3.1000000000000E-01  1.7066889404267E+00 -7.8776941209903E-02
33  3.2000000000000E-01  1.7446483835803E+00 -5.5638841164653E-02
34  3.3000000000000E-01  1.7760640231941E+00 -2.7615466091208E-02
35  3.4000000000000E-01  1.8006399269586E+00  5.4149876273261E-03
36  3.5000000000000E-01  1.8181395401944E+00  4.3500758851838E-02
37  3.6000000000000E-01  1.8283883952751E+00  8.6612728745589E-02
38  3.7000000000000E-01  1.8312759334165E+00  1.3464232464097E-01
39  3.8000000000000E-01  1.8267563970295E+00  1.8740120805480E-01
40  3.9000000000000E-01  1.8148487712880E+00  2.4462278634838E-01
41  4.0000000000000E-01  1.7956357748391E+00  3.0596553780397E-01
42  4.1000000000000E-01  1.7692619210946E+00  3.7101808969779E-01
43  4.2000000000000E-01  1.7359306927117E+00  4.3930593974025E-01
44  4.3000000000000E-01  1.6959008921268E+00  5.1029966446971E-01
45  4.4000000000000E-01  1.6494822497599E+00  5.8342441522411E-01
46  4.5000000000000E-01  1.5970303882632E+00  6.5807046447940E-01
47  4.6000000000000E-01  1.5389412554331E+00  7.3360453381263E-01
48  4.7000000000000E-01  1.4756451497550E+00  8.0938161052853E-01
49  4.8000000000000E-01  1.4076004706539E+00  8.8475694389539E-01
50  4.9000000000000E-01  1.3352873301359E+00  9.5909790454935E-01
51  5.0000000000000E-01  1.2592011634912E+00  1.0317953922858E+00
52  5.1000000000000E-01  1.1798464740184E+00  1.1022744882351E+00
53  5.2000000000000E-01  1.0977308404119E+00  1.1700040671274E+00
54  5.3000000000000E-01  1.0133593056694E+00  1.2345051135217E+00
55  5.4000000000000E-01  9.2722925341220E-01  1.2953575217977E+00
56  5.5000000000000E-01  8.3982586171682E-01  1.3522052024219E+00
57  5.6000000000000E-01  7.5161820639295E-01  1.4047593653268E+00
58  5.7000000000000E-01  6.6305606562121E-01  1.4527999038368E+00
59  5.8000000000000E-01  5.7456745657647E-01  1.4961748579186E+00
60  5.9000000000000E-01  4.8655691272239E-01  1.5347979920383E+00
61  6.0000000000000E-01  3.9940448852185E-01  1.5686445788973E+00
62  6.1000000000000E-01  3.1346545701394E-01  1.5977455341413E+00
63  6.2000000000000E-01  2.2907064569615E-01  1.6221800971497E+00
64  6.3000000000000E-01  1.4652733801925E-01  1.6420672977161E+00
65  6.4000000000000E-01  6.6120652098084E-02  1.6575564864035E+00
66  6.5000000000000E-01 -1.1884704563065E-02  1.6688172364361E+00
67  6.6000000000000E-01 -8.7242415047598E-02  1.6760289461648E+00
68  6.7000000000000E-01 -1.5972238436264E-01  1.6793704827295E+00
69  6.8000000000000E-01 -2.2910854097417E-01  1.6790102090779E+00
70  6.9000000000000E-01 -2.9519672574411E-01  1.6750967278702E+00
71  7.0000000000000E-01 -3.5779278006947E-01  1.6677506571634E+00
72  7.1000000000000E-01 -4.1671093602564E-01  1.6570577246099E+00
73  7.2000000000000E-01 -4.7177259900645E-01  1.6430634299767E+00
74  7.3000000000000E-01 -5.2280559812168E-01  1.6257694811513E+00
75  7.4000000000000E-01 -5.6964396193587E-01  1.6051321576967E+00
76  7.5000000000000E-01 -6.1212825756994E-01  1.5810626999506E+00
77  7.6000000000000E-01 -6.5010651035486E-01  1.5534297622529E+00
78  7.7000000000000E-01 -6.8343569977819E-01  1.5220639078618E+00
79  7.8000000000000E-01 -7.1198380607694E-01  1.4867640622772E+00
80  7.9000000000000E-01 -7.3563236116987E-01  1.4473057827920E+00
81  8.0000000000000E-01 -7.5427943833441E-01  1.4034511468567E+00
82  8.1000000000000E-01 -7.6784299770860E-01  1.3549600118402E+00
83  8.2000000000000E-01 -7.7626448986560E-01  1.3016023554207E+00
84  8.3000000000000E-01 -7.7951260780082E-01  1.2431713703177E+00
85  8.4000000000000E-01 -7.7758706902625E-01  1.1794969602990E+00
86  8.5000000000000E-01 -7.7052230429726E-01  1.1104592669790E+00
87  8.6000000000000E-01 -7.5839092789815E-01  1.0360018491558E+00
88  8.7000000000000E-01 -7.4130686634166E-01  9.5614413826862E-01
89  8.8000000000000E-01 -7.1942802762287E-01  8.7099280459066E-01
90  8.9000000000000E-01 -6.9295840150516E-01  7.8075168827748E-01
91  9.0000000000000E-01 -6.6214949227894E-01  6.8572997630305E-01
92  9.1000000000000E-01 -6.2730099847912E-01  5.8634833927647E-01
93  9.2000000000000E-01 -5.8876066853385E-01  4.8314277951343E-01
94  9.3000000000000E-01 -5.4692327651548E-01  3.7676598168428E-01
95  9.4000000000000E-01 -5.0222867728123E-01  2.6798599784011E-01
96  9.5000000000000E-01 -4.5515891448375E-01  1.5768213746486E-01
97  9.6000000000000E-01 -4.0623436733028E-01  4.6837968168580E-02
98  9.7000000000000E-01 -3.5600893170103E-01 -6.3468638541056E-02
99  9.8000000000000E-01 -3.0506423744093E-01 -1.7207846153801E-01
100  9.9000000000000E-01 -2.5400290549386E-01 -2.7776691964077E-01
101  1.0000000000000E+00 -2.0344084527641E-01 -3.7926313438058E-01
102  1.0100000000000E+00 -1.5399858358488E-01 -4.7527212103988E-01
103  1.0200000000000E+00 -1.0629160079985E-01 -5.6450019622098E-01
104  1.0300000000000E+00 -6.0919627627596E-02 -6.4568374097501E-01
105  1.0400000000000E+00 -1.8454825710713E-02 -7.1762152795207E-01
106  1.0500000000000E+00  2.0571262109203E-02 -7.7921090987550E-01
107  1.0600000000000E+00  5.5682151621461E-02 -8.2948827582565E-01
108  1.0700000000000E+00  8.6472460284905E-02 -8.6767431111896E-01
109  1.0800000000000E+00  1.1262582787338E-01 -8.9322474622115E-01
110  1.0900000000000E+00  1.3393506227926E-01 -9.0588746243203E-01
111  1.1000000000000E+00  1.5032483846487E-01 -9.0576671400985E-01
112  1.1100000000000E+00  1.6187632462324E-01 -8.9339221345009E-01
113  1.1200000000000E+00  1.6881132792801E-01 -8.6966231669284E-01
114  1.1300000000000E+00  1.7143058570656E-01 -8.3565094861091E-01
115  1.1400000000000E+00  1.7009583859384E-01 -7.9255655327976E-01