Pa    ONCVPSP-4.0.1  r_core=   1.10257   1.10257   1.10257   1.15662
91.0000     31.0000      220329    zatom,zion,pspd
8      11   3     4   600     0    pspcod,pspxc,lmax,lloc,mmax,r2well
5.99000000  5.00000000  0.00000000    rchrg fchrg qchrg
3     2     2     2     0    nproj
1     1           extension_switch
0                         3.9285698135173E+01  3.9678856591831E+00 -2.5354055146434E-01
1  0.0000000000000E+00 -3.0938655104507E-07  1.0344977994237E-06  2.0928559438804E-06
2  1.0000000000000E-02  1.4846626398387E-01 -1.1611018170476E-01 -1.6774284993359E-01
3  2.0000000000000E-02  2.9536034543604E-01 -2.2826175239334E-01 -3.2771438038702E-01
4  3.0000000000000E-02  4.3915840271551E-01 -3.3265368157485E-01 -4.7247408819494E-01
5  4.0000000000000E-02  5.7843126882101E-01 -4.2579338124632E-01 -5.9522921712690E-01
6  5.0000000000000E-02  7.1188685729031E-01 -5.0463441964136E-01 -6.9012450024114E-01
7  6.0000000000000E-02  8.3840688867854E-01 -5.6669522250382E-01 -7.5249255306681E-01
8  7.0000000000000E-02  9.5707643058317E-01 -6.1015371515859E-01 -7.7905440878199E-01
9  8.0000000000000E-02  1.0672050535694E+00 -6.3391389314987E-01 -7.6806177941149E-01
10  9.0000000000000E-02  1.1683387662288E+00 -6.3764151615436E-01 -7.1937507249694E-01
11  1.0000000000000E-01  1.2602622893964E+00 -6.2176744731966E-01 -6.3447388768072E-01
12  1.1000000000000E-01  1.3429916451361E+00 -5.8745855100533E-01 -5.1639954869222E-01
13  1.2000000000000E-01  1.4167574525285E+00 -5.3655745626704E-01 -3.6963207415734E-01
14  1.3000000000000E-01  1.4819797216040E+00 -4.7149383134562E-01 -1.9990673568891E-01
15  1.4000000000000E-01  1.5392353016976E+00 -3.9517103833659E-01 -1.3977878459024E-02
16  1.5000000000000E-01  1.5892194553287E+00 -3.1083309450758E-01  1.8066011812169E-01
17  1.6000000000000E-01  1.6327032798278E+00 -2.2191771193479E-01  3.7608307620290E-01
18  1.7000000000000E-01  1.6704888755114E+00 -1.3190178394577E-01  5.6426549379624E-01
19  1.8000000000000E-01  1.7033642536271E+00 -4.4146009678643E-02  7.3741355007213E-01
20  1.9000000000000E-01  1.7320599854843E+00  3.8254616906984E-02  8.8828876039060E-01
21  2.0000000000000E-01  1.7572095158054E+00  1.1260798140957E-01  1.0105088082324E+00
22  2.1000000000000E-01  1.7793149017709E+00  1.7674374691725E-01  1.0988130536076E+00
23  2.2000000000000E-01  1.7987195014736E+00  2.2910882312668E-01  1.1492817120335E+00
24  2.3000000000000E-01  1.8155888318173E+00  2.6883526286935E-01  1.1594996507843E+00
25  2.4000000000000E-01  1.8299004594052E+00  2.9577762852753E-01  1.1286580768237E+00
26  2.5000000000000E-01  1.8414433940560E+00  3.1051818360215E-01  1.0575899947535E+00
27  2.6000000000000E-01  1.8498270402692E+00  3.1433964750229E-01  9.4873808308479E-01
28  2.7000000000000E-01  1.8544993450949E+00  3.0916664497681E-01  8.0605645617553E-01
29  2.8000000000000E-01  1.8547733794272E+00  2.9747832563104E-01  6.3485052854328E-01
30  2.9000000000000E-01  1.8498612210251E+00  2.8219586600348E-01  4.4156176249978E-01
31  3.0000000000000E-01  1.8389136874287E+00  2.6654964372818E-01  2.3350635186683E-01
32  3.1000000000000E-01  1.8210642091316E+00  2.5393174438972E-01  1.8578779367350E-02
33  3.2000000000000E-01  1.7954749489365E+00  2.4774008971291E-01 -1.9506739479837E-01
34  3.3000000000000E-01  1.7613831702131E+00  2.5122083424242E-01 -3.9934825856111E-01
35  3.4000000000000E-01  1.7181458391349E+00  2.6731575180028E-01 -5.8657419446581E-01
36  3.5000000000000E-01  1.6652805145287E+00  2.9852112026342E-01 -7.4975708520331E-01
37  3.6000000000000E-01  1.6025007306416E+00  3.4676412338548E-01 -8.8288750568513E-01
38  3.7000000000000E-01  1.5297443062325E+00  4.1330204332606E-01 -9.8117064020847E-01
39  3.8000000000000E-01  1.4471933079829E+00  4.9864854993582E-01 -1.0412114381813E+00
40  3.9000000000000E-01  1.3552847444824E+00  6.0253024493978E-01 -1.0611416832731E+00
41  4.0000000000000E-01  1.2547114538931E+00  7.2387534083849E-01 -1.0406841054070E+00
42  4.1000000000000E-01  1.1464130571364E+00  8.6083500092981E-01 -9.8115130746500E-01
43  4.2000000000000E-01  1.0315572614795E+00  1.0108364967035E+00 -8.8537999629849E-01
44  4.3000000000000E-01  9.1151219902259E-01  1.1706660108056E+00 -7.5760368547661E-01
45  4.4000000000000E-01  7.8781085375926E-01  1.3365776845097E+00 -6.0326956254461E-01
46  4.5000000000000E-01  6.6210895394109E-01  1.5044244303823E+00 -4.2880748085907E-01
47  4.6000000000000E-01  5.3613796986146E-01  1.6698051488745E+00 -2.4136095175728E-01
48  4.7000000000000E-01  4.1165504996710E-01  1.8282223385229E+00 -4.8491498807386E-02
49  4.8000000000000E-01  2.9039184262823E-01  1.9752436995122E+00  1.4213126685251E-01
50  4.9000000000000E-01  1.7400418262548E-01  2.1066612143442E+00  3.2304102026210E-01
51  5.0000000000000E-01  6.4024569736364E-02  2.2186413500649E+00  4.8727478622710E-01
52  5.1000000000000E-01 -3.8180765333324E-02  2.3078604546250E+00  6.2864953708721E-01
53  5.2000000000000E-01 -1.3144861861200E-01  2.3716200946229E+00  7.4200427455011E-01
54  5.3000000000000E-01 -2.1484807568439E-01  2.4079379714173E+00  8.2339810071902E-01
55  5.4000000000000E-01 -2.8770128397329E-01  2.4156111167939E+00  8.7025671738596E-01
56  5.5000000000000E-01 -3.4959509911464E-01  2.3942492601313E+00  8.8146201884822E-01
57  5.6000000000000E-01 -4.0038335197584E-01  2.3442775233468E+00  8.5738186389157E-01
58  5.7000000000000E-01 -4.4017986955346E-01  2.2669088820965E+00  7.9983962188962E-01
59  5.8000000000000E-01 -4.6934275760608E-01  2.1640880758399E+00  7.1202557843778E-01
60  5.9000000000000E-01 -4.8845079929996E-01  2.0384098017995E+00  5.9835465191605E-01
61  6.0000000000000E-01 -4.9827312767713E-01  1.8930150395493E+00  4.6427701499328E-01
62  6.1000000000000E-01 -4.9973357778263E-01  1.7314701817665E+00  3.1605004652973E-01
63  6.2000000000000E-01 -4.9387130680925E-01  1.5576342589767E+00  1.6048148636918E-01
64  6.3000000000000E-01 -4.8179938069811E-01  1.3755199184216E+00  4.6546727901750E-03
65  6.4000000000000E-01 -4.6466305965663E-01  1.1891539369630E+00 -1.4435272562466E-01
66  6.5000000000000E-01 -4.4359947286858E-01  1.0024429141504E+00 -2.7974502954942E-01
67  6.6000000000000E-01 -4.1970025756602E-01  8.1904941459901E-01 -3.9526890564124E-01
68  6.7000000000000E-01 -3.9397855613694E-01  6.4228322979599E-01 -4.8544764021469E-01
69  6.8000000000000E-01 -3.6734152649781E-01  4.7501163922831E-01 -5.4578051036740E-01
70  6.9000000000000E-01 -3.4056923747570E-01  3.1959160843769E-01 -5.7290007597062E-01
71  7.0000000000000E-01 -3.1430050617507E-01  1.7782581259578E-01 -5.6468212294207E-01
72  7.1000000000000E-01 -2.8902590326640E-01  5.0943268102125E-02 -5.2030507092899E-01
73  7.2000000000000E-01 -2.6508782030752E-01 -6.0395757140540E-02 -4.4025782291902E-01
74  7.3000000000000E-01 -2.4268717593450E-01 -1.5607195074268E-01 -3.2629718430667E-01
75  7.4000000000000E-01 -2.2189604936554E-01 -2.3645864971644E-01 -1.8135802182821E-01
76  7.5000000000000E-01 -2.0267528300884E-01 -3.0235622837559E-01 -9.4211819612049E-03
77  7.6000000000000E-01 -1.8489590166071E-01 -3.5491305317853E-01  1.8465423146872E-01
78  7.7000000000000E-01 -1.6836306185351E-01 -3.9553734419613E-01  3.9532637141779E-01
79  7.8000000000000E-01 -1.5284117641272E-01 -4.2580453310172E-01  6.1658523143626E-01
80  7.9000000000000E-01 -1.3807885805865E-01 -4.4736473430758E-01  8.4217710759116E-01
81  8.0000000000000E-01 -1.2383239057481E-01 -4.6185475277247E-01  1.0658296893041E+00
82  8.1000000000000E-01 -1.0988656218579E-01 -4.7081865304928E-01  1.2814688736593E+00
83  8.2000000000000E-01 -9.6071875957771E-02 -4.7564033295378E-01  1.4834191143150E+00
84  8.3000000000000E-01 -8.2277376420173E-02 -4.7749081363198E-01  1.6665801608543E+00
85  8.4000000000000E-01 -6.8458588362284E-02 -4.7729211434693E-01  1.8265743587713E+00
86  8.5000000000000E-01 -5.4640339659130E-02 -4.7569866825609E-01  1.9598601951575E+00
87  8.6000000000000E-01 -4.0914521060303E-02 -4.7309630067809E-01  2.0638094142965E+00
88  8.7000000000000E-01 -2.7433108114954E-02 -4.6961788006335E-01  2.1367467111551E+00
89  8.8000000000000E-01 -1.4397020415142E-02 -4.6517390840912E-01  2.1779526601013E+00
90  8.9000000000000E-01 -2.0416090065436E-03 -4.5949558247483E-01  2.1876320763216E+00
91  9.0000000000000E-01  9.3802661241219E-03 -4.5218726421927E-01  2.1668513713278E+00
92  9.1000000000000E-01  1.9616488041864E-02 -4.4278487518594E-01  2.1174495954674E+00
93  9.2000000000000E-01  2.8434123107608E-02 -4.3081649313798E-01  2.0419287165572E+00
94  9.3000000000000E-01  3.5636907486571E-02 -4.1586138854208E-01  1.9433292366429E+00
95  9.4000000000000E-01  4.1080696458048E-02 -3.9760389208818E-01  1.8250974865659E+00
96  9.5000000000000E-01  4.4685907190577E-02 -3.7587882126261E-01  1.6909508644136E+00
97  9.6000000000000E-01  4.6446148895939E-02 -3.5070569381910E-01  1.5447469186921E+00
98  9.7000000000000E-01  4.6432437831761E-02 -3.2230959085230E-01  1.3903615535553E+00
99  9.8000000000000E-01  4.4792627593461E-02 -2.9112726723730E-01  1.2315807973763E+00
100  9.9000000000000E-01  4.1745935427867E-02 -2.5779790356257E-01  1.0720095816133E+00
101  1.0000000000000E+00  3.7572699863152E-02 -2.2313870922686E-01  9.1499988532519E-01
102  1.0100000000000E+00  3.2599750688266E-02 -1.8810637867293E-01  7.6359947542334E-01
103  1.0200000000000E+00  2.7181996562652E-02 -1.5374613061836E-01  6.2052137748353E-01
104  1.0300000000000E+00  2.1681096701166E-02 -1.2113089871202E-01  4.8813304396439E-01
105  1.0400000000000E+00  1.6441587087234E-02 -9.1291766915230E-02  3.6846480768540E-01
106  1.0500000000000E+00  1.1749113186551E-02 -6.5093102322130E-02  2.6327290090398E-01
107  1.0600000000000E+00  7.5843235483713E-03 -4.2482845898049E-02  1.7458680314849E-01
108  1.0700000000000E+00  4.1918956122153E-03 -2.4221870195151E-02  1.0339240420904E-01
109  1.0800000000000E+00  1.8078100180825E-03 -1.1063288086057E-02  5.0260239884614E-02
110  1.0900000000000E+00  4.6996556805716E-04 -3.1723676109905E-03  1.5781522146679E-02
111  1.1000000000000E+00  1.9140893086612E-05 -1.5551094729132E-04  8.8512873859014E-04
112  1.1100000000000E+00  6.7529364640119E-07 -5.4015412351460E-06  3.0335870798640E-05
113  1.1200000000000E+00 -2.6168155502811E-07  1.9356427220040E-06 -1.0312889321383E-05
114  1.13  0.  0.  0.
115  1.14  0.  0.  0.
116  1.15  0.  0.  0.
117  1.16  0.  0.  0.
118  1.17  0.  0.  0.
119  1.18  0.  0.  0.
120  1.19  0.  0.  0.
121  1.20  0.  0.  0.
122  1.21  0.  0.  0.
123  1.22  0.  0.  0.
124  1.23  0.  0.  0.
125  1.24  0.  0.  0.
126  1.25  0.  0.  0.
127  1.26  0.  0.  0.
128  1.27  0.  0.  0.
129  1.28  0.  0.  0.
130  1.29  0.  0.  0.
131  1.30  0.  0.  0.
132  1.31  0.  0.  0.
133  1.32  0.  0.  0.
134  1.33  0.  0.  0.
135  1.34  0.  0.  0.
136  1.35  0.  0.  0.
137  1.36  0.  0.  0.
138  1.37  0.  0.  0.
139  1.38  0.  0.  0.
140  1.39  0.  0.  0.
141  1.40  0.  0.  0.
142  1.41  0.  0.  0.
143  1.42  0.  0.  0.
144  1.43  0.  0.  0.
145  1.44  0.  0.  0.
146  1.45  0.  0.  0.
147  1.46  0.  0.  0.
148  1.47  0.  0.  0.
149  1.48  0.  0.  0.
150  1.49  0.  0.  0.
151  1.50  0.  0.  0.
152  1.51  0.  0.  0.
153  1.52  0.  0.  0.
154  1.53  0.  0.  0.
155  1.54  0.  0.  0.
156  1.55  0.  0.  0.
157  1.56  0.  0.  0.
158  1.57  0.  0.  0.
159  1.58  0.  0.  0.
160  1.59  0.  0.  0.
161  1.60  0.  0.  0.
162  1.61  0.  0.  0.
163  1.62  0.  0.  0.
164  1.63  0.  0.  0.
165  1.64  0.  0.  0.
166  1.65  0.  0.  0.
167  1.66  0.  0.  0.
168  1.67  0.  0.  0.
169  1.68  0.  0.  0.
170  1.69  0.  0.  0.
171  1.70  0.  0.  0.
172  1.71  0.  0.  0.
173  1.72  0.  0.  0.
174  1.73  0.  0.  0.
175  1.74  0.  0.  0.
176  1.75  0.  0.  0.
177  1.76  0.  0.  0.
178  1.77  0.  0.  0.
179  1.78  0.  0.  0.
180  1.79  0.  0.  0.
181  1.80  0.  0.  0.
182  1.81  0.  0.  0.
183  1.82  0.  0.  0.
184  1.83  0.  0.  0.
185  1.84  0.  0.  0.
186  1.85  0.  0.  0.
187  1.86  0.  0.  0.
188  1.87  0.  0.  0.
189  1.88  0.  0.  0.
190  1.89  0.  0.  0.
191  1.90  0.  0.  0.
192  1.91  0.  0.  0.
193  1.92  0.  0.  0.
194  1.93  0.  0.  0.
195  1.94  0.  0.  0.
196  1.95  0.  0.  0.
197  1.96  0.  0.  0.
198  1.97  0.  0.  0.
199  1.98  0.  0.  0.
200  1.99  0.  0.  0.
201  2.00  0.  0.  0.
202  2.01  0.  0.  0.
203  2.02  0.  0.  0.
204  2.03  0.  0.  0.
205  2.04  0.  0.  0.
206  2.05  0.  0.  0.
207  2.06  0.  0.  0.
208  2.07  0.  0.  0.
209  2.08  0.  0.  0.
210  2.09  0.  0.  0.
211  2.10  0.  0.  0.
212  2.11  0.  0.  0.
213  2.12  0.  0.  0.
214  2.13  0.  0.  0.
215  2.14  0.  0.  0.
216  2.15  0.  0.  0.
217  2.16  0.  0.  0.
218  2.17  0.  0.  0.
219  2.18  0.  0.  0.
220  2.19  0.  0.  0.
221  2.20  0.  0.  0.
222  2.21  0.  0.  0.
223  2.22  0.  0.  0.
224  2.23  0.  0.  0.
225  2.24  0.  0.  0.
226  2.25  0.  0.  0.
227  2.26  0.  0.  0.
228  2.27  0.  0.  0.
229  2.28  0.  0.  0.
230  2.29  0.  0.  0.
231  2.30  0.  0.  0.
232  2.31  0.  0.  0.
233  2.32  0.  0.  0.
234  2.33  0.  0.  0.
235  2.34  0.  0.  0.
236  2.35  0.  0.  0.
237  2.36  0.  0.  0.
238  2.37  0.  0.  0.
239  2.38  0.  0.  0.
240  2.39  0.  0.  0.
241  2.40  0.  0.  0.
242  2.41  0.  0.  0.
243  2.42  0.  0.  0.
244  2.43  0.  0.  0.
245  2.44  0.  0.  0.
246  2.45  0.  0.  0.
247  2.46  0.  0.  0.
248  2.47  0.  0.  0.
249  2.48  0.  0.  0.
250  2.49  0.  0.  0.
251  2.50  0.  0.  0.
252  2.51  0.  0.  0.
253  2.52  0.  0.  0.
254  2.53  0.  0.  0.
255  2.54  0.  0.  0.
256  2.55  0.  0.  0.
257  2.56  0.  0.  0.
258  2.57  0.  0.  0.
259  2.58  0.  0.  0.
260  2.59  0.  0.  0.
261  2.60  0.  0.  0.
262  2.61  0.  0.  0.
263  2.62  0.  0.  0.
264  2.63  0.  0.  0.
265  2.64  0.  0.  0.
266  2.65  0.  0.  0.
267  2.66  0.  0.  0.
268  2.67  0.  0.  0.
269  2.68  0.  0.  0.
270  2.69  0.  0.  0.
271  2.70  0.  0.  0.
272  2.71  0.  0.  0.
273  2.72  0.  0.  0.
274  2.73  0.  0.  0.
275  2.74  0.  0.  0.
276  2.75  0.  0.  0.
277  2.76  0.  0.  0.
278  2.77  0.  0.  0.
279  2.78  0.  0.  0.
280  2.79  0.  0.  0.
281  2.80  0.  0.  0.
282  2.81  0.  0.  0.
283  2.82  0.  0.  0.
284  2.83  0.  0.  0.
285  2.84  0.  0.  0.
286  2.85  0.  0.  0.
287  2.86  0.  0.  0.
288  2.87  0.  0.  0.
289  2.88  0.  0.  0.
290  2.89  0.  0.  0.
291  2.90  0.  0.  0.
292  2.91  0.  0.  0.
293  2.92  0.  0.  0.
294  2.93  0.  0.  0.
295  2.94  0.  0.  0.
296  2.95  0.  0.  0.
297  2.96  0.  0.  0.
298  2.97  0.  0.  0.
299  2.98  0.  0.  0.
300  2.99  0.  0.  0.
301  3.00  0.  0.  0.
302  3.01  0.  0.  0.
303  3.02  0.  0.  0.
304  3.03  0.  0.  0.
305  3.04  0.  0.  0.
306  3.05  0.  0.  0.
307  3.06  0.  0.  0.
308  3.07  0.  0.  0.
309  3.08  0.  0.  0.
310  3.09  0.  0.  0.
311  3.10  0.  0.  0.
312  3.11  0.  0.  0.
313  3.12  0.  0.  0.
314  3.13  0.  0.  0.
315  3.14  0.  0.  0.
316  3.15  0.  0.  0.
317  3.16  0.  0.  0.
318  3.17  0.  0.  0.
319  3.18  0.  0.  0.
320  3.19  0.  0.  0.
321  3.20  0.  0.  0.
322  3.21  0.  0.  0.
323  3.22  0.  0.  0.
324  3.23  0.  0.  0.
325  3.24  0.  0.  0.
326  3.25  0.  0.  0.
327  3.26  0.  0.  0.
328  3.27  0.  0.  0.
329  3.28  0.  0.  0.
330  3.29  0.  0.  0.
331  3.30  0.  0.  0.
332  3.31  0.  0.  0.
333  3.32  0.  0.  0.
334  3.33  0.  0.  0.
335  3.34  0.  0.  0.
336  3.35  0.  0.  0.
337  3.36  0.  0.  0.
338  3.37  0.  0.  0.
339  3.38  0.  0.  0.
340  3.39  0.  0.  0.
341  3.40  0.  0.  0.
342  3.41  0.  0.  0.
343  3.42  0.  0.  0.
344  3.43  0.  0.  0.
345  3.44  0.  0.  0.
346  3.45  0.  0.  0.
347  3.46  0.  0.  0.
348  3.47  0.  0.  0.
349  3.48  0.  0.  0.
350  3.49  0.  0.  0.
351  3.50  0.  0.  0.
352  3.51  0.  0.  0.
353  3.52  0.  0.  0.
354  3.53  0.  0.  0.
355  3.54  0.  0.  0.
356  3.55  0.  0.  0.
357  3.56  0.  0.  0.
358  3.57  0.  0.  0.
359  3.58  0.  0.  0.
360  3.59  0.  0.  0.
361  3.60  0.  0.  0.
362  3.61  0.  0.  0.
363  3.62  0.  0.  0.
364  3.63  0.  0.  0.
365  3.64  0.  0.  0.
366  3.65  0.  0.  0.
367  3.66  0.  0.  0.
368  3.67  0.  0.  0.
369  3.68  0.  0.  0.
370  3.69  0.  0.  0.
371  3.70  0.  0.  0.
372  3.71  0.  0.  0.
373  3.72  0.  0.  0.
374  3.73  0.  0.  0.
375  3.74  0.  0.  0.
376  3.75  0.  0.  0.
377  3.76  0.  0.  0.
378  3.77  0.  0.  0.
379  3.78  0.  0.  0.
380  3.79  0.  0.  0.
381  3.80  0.  0.  0.
382  3.81  0.  0.  0.
383  3.82  0.  0.  0.
384  3.83  0.  0.  0.
385  3.84  0.  0.  0.
386  3.85  0.  0.  0.
387  3.86  0.  0.  0.
388  3.87  0.  0.  0.
389  3.88  0.  0.  0.
390  3.89  0.  0.  0.
391  3.90  0.  0.  0.
392  3.91  0.  0.  0.
393  3.92  0.  0.  0.
394  3.93  0.  0.  0.
395  3.94  0.  0.  0.
396  3.95  0.  0.  0.
397  3.96  0.  0.  0.
398  3.97  0.  0.  0.
399  3.98  0.  0.  0.
400  3.99  0.  0.  0.
401  4.00  0.  0.  0.
402  4.01  0.  0.  0.
403  4.02  0.  0.  0.
404  4.03  0.  0.  0.
405  4.04  0.  0.  0.
406  4.05  0.  0.  0.
407  4.06  0.  0.  0.
408  4.07  0.  0.  0.
409  4.08  0.  0.  0.
410  4.09  0.  0.  0.
411  4.10  0.  0.  0.
412  4.11  0.  0.  0.
413  4.12  0.  0.  0.
414  4.13  0.  0.  0.
415  4.14  0.  0.  0.
416  4.15  0.  0.  0.
417  4.16  0.  0.  0.
418  4.17  0.  0.  0.
419  4.18  0.  0.  0.
420  4.19  0.  0.  0.
421  4.20  0.  0.  0.
422  4.21  0.  0.  0.
423  4.22  0.  0.  0.
424  4.23  0.  0.  0.
425  4.24  0.  0.  0.
426  4.25  0.  0.  0.
427  4.26  0.  0.  0.
428  4.27  0.  0.  0.
429  4.28  0.  0.  0.
430  4.29  0.  0.  0.
431  4.30  0.  0.  0.
432  4.31  0.  0.  0.
433  4.32  0.  0.  0.
434  4.33  0.  0.  0.
435  4.34  0.  0.  0.
436  4.35  0.  0.  0.
437  4.36  0.  0.  0.
438  4.37  0.  0.  0.
439  4.38  0.  0.  0.
440  4.39  0.  0.  0.
441  4.40  0.  0.  0.
442  4.41  0.  0.  0.
443  4.42  0.  0.  0.
444  4.43  0.  0.  0.
445  4.44  0.  0.  0.
446  4.45  0.  0.  0.
447  4.46  0.  0.  0.
448  4.47  0.  0.  0.
449  4.48  0.  0.  0.
450  4.49  0.  0.  0.
451  4.50  0.  0.  0.
452  4.51  0.  0.  0.
453  4.52  0.  0.  0.
454  4.53  0.  0.  0.
455  4.54  0.  0.  0.
456  4.55  0.  0.  0.
457  4.56  0.  0.  0.
458  4.57  0.  0.  0.
459  4.58  0.  0.  0.
460  4.59  0.  0.  0.
461  4.60  0.  0.  0.
462  4.61  0.  0.  0.
463  4.62  0.  0.  0.
464  4.63  0.  0.  0.
465  4.64  0.  0.  0.
466  4.65  0.  0.  0.
467  4.66  0.  0.  0.
468  4.67  0.  0.  0.
469  4.68  0.  0.  0.
470  4.69  0.  0.  0.
471  4.70  0.  0.  0.
472  4.71  0.  0.  0.
473  4.72  0.  0.  0.
474  4.73  0.  0.  0.
475  4.74  0.  0.  0.
476  4.75  0.  0.  0.
477  4.76  0.  0.  0.
478  4.77  0.  0.  0.
479  4.78  0.  0.  0.
480  4.79  0.  0.  0.
481  4.80  0.  0.  0.
482  4.81  0.  0.  0.
483  4.82  0.  0.  0.
484  4.83  0.  0.  0.
485  4.84  0.  0.  0.
486  4.85  0.  0.  0.
487  4.86  0.  0.  0.
488  4.87  0.  0.  0.
489  4.88  0.  0.  0.
490  4.89  0.  0.  0.
491  4.90  0.  0.  0.
492  4.91  0.  0.  0.
493  4.92  0.  0.  0.
494  4.93  0.  0.  0.
495  4.94  0.  0.  0.
496  4.95  0.  0.  0.
497  4.96  0.  0.  0.
498  4.97  0.  0.  0.
499  4.98  0.  0.  0.
500  4.99  0.  0.  0.
501  5.00  0.  0.  0.
502  5.01  0.  0.  0.
503  5.02  0.  0.  0.
504  5.03  0.  0.  0.
505  5.04  0.  0.  0.
506  5.05  0.  0.  0.
507  5.06  0.  0.  0.
508  5.07  0.  0.  0.
509  5.08  0.  0.  0.
510  5.09  0.  0.  0.
511  5.10  0.  0.  0.
512  5.11  0.  0.  0.
513  5.12  0.  0.  0.
514  5.13  0.  0.  0.
515  5.14  0.  0.  0.
516  5.15  0.  0.  0.
517  5.16  0.  0.  0.
518  5.17  0.  0.  0.
519  5.18  0.  0.  0.
520  5.19  0.  0.  0.
521  5.20  0.  0.  0.
522  5.21  0.  0.  0.
523  5.22  0.  0.  0.
524  5.23  0.  0.  0.
525  5.24  0.  0.  0.
526  5.25  0.  0.  0.
527  5.26  0.  0.  0.
528  5.27  0.  0.  0.
529  5.28  0.  0.  0.
530  5.29  0.  0.  0.
531  5.30  0.  0.  0.
532  5.31  0.  0.  0.
533  5.32  0.  0.  0.
534  5.33  0.  0.  0.
535  5.34  0.  0.  0.
536  5.35  0.  0.  0.
537  5.36  0.  0.  0.
538  5.37  0.  0.  0.
539  5.38  0.  0.  0.
540  5.39  0.  0.  0.
541  5.40  0.  0.  0.
542  5.41  0.  0.  0.
543  5.42  0.  0.  0.
544  5.43  0.  0.  0.
545  5.44  0.  0.  0.
546  5.45  0.  0.  0.
547  5.46  0.  0.  0.
548  5.47  0.  0.  0.
549  5.48  0.  0.  0.
550  5.49  0.  0.  0.
551  5.50  0.  0.  0.
552  5.51  0.  0.  0.
553  5.52  0.  0.  0.
554  5.53  0.  0.  0.
555  5.54  0.  0.  0.
556  5.55  0.  0.  0.
557  5.56  0.  0.  0.
558  5.57  0.  0.  0.
559  5.58  0.  0.  0.
560  5.59  0.  0.  0.
561  5.60  0.  0.  0.
562  5.61  0.  0.  0.
563  5.62  0.  0.  0.
564  5.63  0.  0.  0.
565  5.64  0.  0.  0.
566  5.65  0.  0.  0.
567  5.66  0.  0.  0.
568  5.67  0.  0.  0.
569  5.68  0.  0.  0.
570  5.69  0.  0.  0.
571  5.70  0.  0.  0.
572  5.71  0.  0.  0.
573  5.72  0.  0.  0.
574  5.73  0.  0.  0.
575  5.74  0.  0.  0.
576  5.75  0.  0.  0.
577  5.76  0.  0.  0.
578  5.77  0.  0.  0.
579  5.78  0.  0.  0.
580  5.79  0.  0.  0.
581  5.80  0.  0.  0.
582  5.81  0.  0.  0.
583  5.82  0.  0.  0.
584  5.83  0.  0.  0.
585  5.84  0.  0.  0.
586  5.85  0.  0.  0.
587  5.86  0.  0.  0.
588  5.87  0.  0.  0.
589  5.88  0.  0.  0.
590  5.89  0.  0.  0.
591  5.90  0.  0.  0.
592  5.91  0.  0.  0.
593  5.92  0.  0.  0.
594  5.93  0.  0.  0.
595  5.94  0.  0.  0.
596  5.95  0.  0.  0.
597  5.96  0.  0.  0.
598  5.97  0.  0.  0.
599  5.98  0.  0.  0.
600  5.99  0.  0.  0.
1                         1.9142243149275E+01  2.5128727356583E+00
1  0.0000000000000E+00 -4.8929598706060E-08  1.3304001569847E-07
2  1.0000000000000E-02  3.5780120087755E-03 -9.2408299044264E-04
3  2.0000000000000E-02  1.4299676364242E-02 -3.7183823529740E-03
4  3.0000000000000E-02  3.2127238513387E-02 -8.4470246182278E-03
5  4.0000000000000E-02  5.6995679147555E-02 -1.5210237880262E-02
6  5.0000000000000E-02  8.8809698621400E-02 -2.4134721020981E-02
7  6.0000000000000E-02  1.2743974338092E-01 -3.5360832052394E-02
8  7.0000000000000E-02  1.7271730945159E-01 -4.9027231743502E-02
9  8.0000000000000E-02  2.2442980696735E-01 -6.5253751738651E-02
10  9.0000000000000E-02  2.8231530603046E-01 -8.4123355690481E-02
11  1.0000000000000E-01  3.4605750619190E-01 -1.0566412301776E-01
12  1.1000000000000E-01  4.1528127843864E-01 -1.2983220485258E-01
13  1.2000000000000E-01  4.8954911932150E-01 -1.5649667938687E-01
14  1.3000000000000E-01  5.6835883197411E-01 -1.8542716977471E-01
15  1.4000000000000E-01  6.5114270913997E-01 -2.1628498437225E-01
16  1.5000000000000E-01  7.3726844044913E-01 -2.4861840045909E-01
17  1.6000000000000E-01  8.2604190214651E-01 -2.8186254426274E-01
18  1.7000000000000E-01  9.1671191483549E-01 -3.1534412897960E-01
19  1.8000000000000E-01  1.0084769765139E+00 -3.4829110645360E-01
20  1.9000000000000E-01  1.1004938974604E+00 -3.7984707584124E-01
21  2.0000000000000E-01  1.1918881837306E+00 -4.0909008291492E-01
22  2.1000000000000E-01  1.2817659404914E+00 -4.3505524557331E-01
23  2.2000000000000E-01  1.3692269983715E+00 -4.5676046318737E-01
24  2.3000000000000E-01  1.4533789083719E+00 -4.7323431741593E-01
25  2.4000000000000E-01  1.5333514061973E+00 -4.8354515680047E-01
26  2.5000000000000E-01  1.6083109171805E+00 -4.8683028215137E-01
27  2.6000000000000E-01  1.6774746597054E+00 -4.8232411821839E-01
28  2.7000000000000E-01  1.7401239089801E+00 -4.6938427137194E-01
29  2.8000000000000E-01  1.7956160042429E+00 -4.4751443309857E-01
30  2.9000000000000E-01  1.8433947203756E+00 -4.1638319322228E-01
31  3.0000000000000E-01  1.8829986781299E+00 -3.7583797123009E-01
32  3.1000000000000E-01  1.9140675337702E+00 -3.2591345350870E-01
33  3.2000000000000E-01  1.9363457663735E+00 -2.6683413176384E-01
34  3.3000000000000E-01  1.9496839662764E+00 -1.9901076520803E-01
35  3.4000000000000E-01  1.9540376178569E+00 -1.2303082713956E-01
36  3.5000000000000E-01  1.9494634603958E+00 -3.9643235592569E-02
37  3.6000000000000E-01  1.9361135984948E+00  5.0262102072645E-02
38  3.7000000000000E-01  1.9142276148528E+00  1.4567918911359E-01
39  3.8000000000000E-01  1.8841230097303E+00  2.4551435827713E-01
40  3.9000000000000E-01  1.8461843501526E+00  3.4861713552230E-01
41  4.0000000000000E-01  1.8008515553000E+00  4.5381236834175E-01
42  4.1000000000000E-01  1.7486077706747E+00  5.5993237958095E-01
43  4.2000000000000E-01  1.6899672913047E+00  6.6584789928388E-01
44  4.3000000000000E-01  1.6254639829560E+00  7.7049657030884E-01
45  4.4000000000000E-01  1.5556406203774E+00  8.7290791724479E-01
46  4.5000000000000E-01  1.4810395140842E+00  9.7222380938907E-01
47  4.6000000000000E-01  1.4021947339152E+00  1.0677136320738E+00
48  4.7000000000000E-01  1.3196261610924E+00  1.1587835994596E+00
49  4.8000000000000E-01  1.2338355138533E+00  1.2449798874793E+00
50  4.9000000000000E-01  1.1453043984992E+00  1.3259855280759E+00
51  5.0000000000000E-01  1.0544943417808E+00  1.4016112745347E+00
52  5.1000000000000E-01  9.6184866601168E-01  1.4717809113992E+00
53  5.2000000000000E-01  8.6779597921237E-01  1.5365117300366E+00
54  5.3000000000000E-01  7.7275497287572E-01  1.5958911116912E+00
55  5.4000000000000E-01  6.7714015316796E-01  1.6500503440589E+00
56  5.5000000000000E-01  5.8136808065711E-01  1.6991369365873E+00
57  5.6000000000000E-01  4.8586366145955E-01  1.7432867871211E+00
58  5.7000000000000E-01  3.9106602076961E-01  1.7825975834483E+00
59  5.8000000000000E-01  2.9743349900739E-01  1.8171047952819E+00
60  5.9000000000000E-01  2.0544734134066E-01  1.8467615251640E+00
61  6.0000000000000E-01  1.1561370226340E-01  1.8714233430637E+00
62  6.1000000000000E-01  2.8463656529593E-02  1.8908390338182E+00
63  6.2000000000000E-01 -5.5449006496361E-02  1.9046479460550E+00
64  6.3000000000000E-01 -1.3555232937538E-01  1.9123843548361E+00
65  6.4000000000000E-01 -2.1126309070008E-01  1.9134889486925E+00
66  6.5000000000000E-01 -2.8199597120825E-01  1.9073272369145E+00
67  6.6000000000000E-01 -3.4717477411499E-01  1.8932143577335E+00
68  6.7000000000000E-01 -4.0624538443784E-01  1.8704454654423E+00
69  6.8000000000000E-01 -4.5869005411294E-01  1.8383305974201E+00
70  6.9000000000000E-01 -5.0404251559886E-01  1.7962326825771E+00
71  7.0000000000000E-01 -5.4190336037098E-01  1.7436071617641E+00
72  7.1000000000000E-01 -5.7195507353710E-01  1.6800415573345E+00
73  7.2000000000000E-01 -5.9397609427684E-01  1.6052932603108E+00
74  7.3000000000000E-01 -6.0785327554578E-01  1.5193238040300E+00
75  7.4000000000000E-01 -6.1359214612831E-01  1.4223279645791E+00
76  7.5000000000000E-01 -6.1132443326468E-01  1.3147561698175E+00
77  7.6000000000000E-01 -6.0131238327439E-01  1.1973289064741E+00
78  7.7000000000000E-01 -5.8394951840799E-01  1.0710420821972E+00
79  7.8000000000000E-01 -5.5975758718873E-01  9.3716261736012E-01
80  7.9000000000000E-01 -5.2937959857355E-01  7.9721389860632E-01
81  8.0000000000000E-01 -4.9356897249759E-01  6.5295110936795E-01
82  8.1000000000000E-01 -4.5317498544617E-01  5.0632684747648E-01
83  8.2000000000000E-01 -4.0912483397807E-01  3.5944783119223E-01
84  8.3000000000000E-01 -3.6240277593572E-01  2.1452386709780E-01
85  8.4000000000000E-01 -3.1402693289059E-01  7.3810591277837E-02
86  8.5000000000000E-01 -2.6502444304483E-01 -6.0452214965390E-02
87  8.6000000000000E-01 -2.1640573679553E-01 -1.8610470435844E-01
88  8.7000000000000E-01 -1.6913876370040E-01 -3.0113124899760E-01
89  8.8000000000000E-01 -1.2412402684436E-01 -4.0372266319964E-01
90  8.9000000000000E-01 -8.2171276848991E-02 -4.9233409907454E-01
91  9.0000000000000E-01 -4.3978682407842E-02 -5.6573643906155E-01
92  9.1000000000000E-01 -1.0115227888194E-02 -6.2305918239882E-01
93  9.2000000000000E-01  1.8993006971561E-02 -6.6382307415485E-01
94  9.3000000000000E-01  4.3072151938226E-02 -6.8796104809796E-01
95  9.4000000000000E-01  6.2005046287515E-02 -6.9582643761562E-01
96  9.5000000000000E-01  7.5830705622039E-02 -6.8818783887315E-01
97  9.6000000000000E-01  8.4738699890740E-02 -6.6621047214894E-01
98  9.7000000000000E-01  8.9058565103747E-02 -6.3142436421977E-01
99  9.8000000000000E-01  8.9244548199403E-02 -5.8568014914575E-01
100  9.9000000000000E-01  8.5856153879860E-02 -5.3109373939950E-01
101  1.0000000000000E+00  7.9535117587067E-02 -4.6998153672423E-01
102  1.0100000000000E+00  7.0979564254430E-02 -4.0478821648566E-01
103  1.0200000000000E+00  6.0916222795483E-02 -3.3800941642170E-01
104  1.0300000000000E+00  5.0071674174651E-02 -2.7211193774805E-01
105  1.0400000000000E+00  3.9143402802061E-02 -2.0945363182798E-01
106  1.0500000000000E+00  2.8765383721093E-02 -1.5219210404529E-01
107  1.0600000000000E+00  1.9394371908115E-02 -1.0201947021503E-01
108  1.0700000000000E+00  1.1516207931838E-02 -6.0597110142550E-02
109  1.0800000000000E+00  5.5360476071824E-03 -2.9313198407156E-02
110  1.0900000000000E+00  1.6950204038589E-03 -9.0865136833786E-03
111  1.1000000000000E+00  9.1141492940032E-05 -4.9822587818584E-04
112  1.1100000000000E+00  3.1395829801746E-06 -1.7143399612621E-05
113  1.1200000000000E+00 -1.0842081195049E-06  5.8761784265360E-06
114  1.13  0.  0.
115  1.14  0.  0.
116  1.15  0.  0.
117  1.16  0.  0.
118  1.17  0.  0.
119  1.18  0.  0.
120  1.19  0.  0.
121  1.20  0.  0.
122  1.21  0.  0.
123  1.22  0.  0.
124  1.23  0.  0.
125  1.24  0.  0.
126  1.25  0.  0.
127  1.26  0.  0.
128  1.27  0.  0.
129  1.28  0.  0.
130  1.29  0.  0.
131  1.30  0.  0.
132  1.31  0.  0.
133  1.32  0.  0.
134  1.33  0.  0.
135  1.34  0.  0.
136  1.35  0.  0.
137  1.36  0.  0.
138  1.37  0.  0.
139  1.38  0.  0.
140  1.39  0.  0.
141  1.40  0.  0.
142  1.41  0.  0.
143  1.42  0.  0.
144  1.43  0.  0.
145  1.44  0.  0.
146  1.45  0.  0.
147  1.46  0.  0.
148  1.47  0.  0.
149  1.48  0.  0.
150  1.49  0.  0.
151  1.50  0.  0.
152  1.51  0.  0.
153  1.52  0.  0.
154  1.53  0.  0.
155  1.54  0.  0.
156  1.55  0.  0.
157  1.56  0.  0.
158  1.57  0.  0.
159  1.58  0.  0.
160  1.59  0.  0.
161  1.60  0.  0.
162  1.61  0.  0.
163  1.62  0.  0.
164  1.63  0.  0.
165  1.64  0.  0.
166  1.65  0.  0.
167  1.66  0.  0.
168  1.67  0.  0.
169  1.68  0.  0.
170  1.69  0.  0.
171  1.70  0.  0.
172  1.71  0.  0.
173  1.72  0.  0.
174  1.73  0.  0.
175  1.74  0.  0.
176  1.75  0.  0.
177  1.76  0.  0.
178  1.77  0.  0.
179  1.78  0.  0.
180  1.79  0.  0.
181  1.80  0.  0.
182  1.81  0.  0.
183  1.82  0.  0.
184  1.83  0.  0.
185  1.84  0.  0.
186  1.85  0.  0.
187  1.86  0.  0.
188  1.87  0.  0.
189  1.88  0.  0.
190  1.89  0.  0.
191  1.90  0.  0.
192  1.91  0.  0.
193  1.92  0.  0.
194  1.93  0.  0.
195  1.94  0.  0.
196  1.95  0.  0.
197  1.96  0.  0.