Pa    ONCVPSP-4.0.1  r_core=   1.20608   1.20608   1.10257   1.20608
91.0000     31.0000      220329    zatom,zion,pspd
8      11   3     4   600     0    pspcod,pspxc,lmax,lloc,mmax,r2well
5.99000000  3.00000000  0.00000000    rchrg fchrg qchrg
3     2     2     2     0    nproj
1     1           extension_switch
0                         3.1946391876736E+01  3.3323227152674E+00 -2.5639811345129E-01
1  0.0000000000000E+00 -4.0540651724541E-08  1.4514200052940E-07  2.0158861129341E-07
2  1.0000000000000E-02  1.3453484584846E-01 -6.9078943056401E-02 -7.7937740941169E-03
3  2.0000000000000E-02  2.6828602722946E-01 -1.3681433550672E-01 -1.4485353967750E-02
4  3.0000000000000E-02  4.0048062496113E-01 -2.0189595943292E-01 -1.9016649111913E-02
5  4.0000000000000E-02  5.3036689995757E-01 -2.6307915424399E-01 -2.0416197597998E-02
6  5.0000000000000E-02  6.5722411821991E-01 -3.1921486502340E-01 -1.7838588346300E-02
7  6.0000000000000E-02  7.8037148851995E-01 -3.6927652451758E-01 -1.0599365292004E-02
8  7.0000000000000E-02  8.9917596706745E-01 -4.1238289241220E-01  1.7958443918579E-03
9  8.0000000000000E-02  1.0130587239933E+00 -4.4781612068522E-01  1.9629034266334E-02
10  9.0000000000000E-02  1.1215001142971E+00 -4.7503448514325E-01  4.2955172537680E-02
11  1.0000000000000E-01  1.2240430492482E+00 -4.9367941453625E-01  7.1595756520158E-02
12  1.1000000000000E-01  1.3202947211346E+00 -5.0357665297743E-01  1.0514083179238E-01
13  1.2000000000000E-01  1.4099266926369E+00 -5.0473160135945E-01  1.4295944434288E-01
14  1.3000000000000E-01  1.4926734198171E+00 -4.9731909143570E-01  1.8421819906758E-01
15  1.4000000000000E-01  1.5683293326223E+00 -4.8166804466848E-01  2.2790731421726E-01
16  1.5000000000000E-01  1.6367446468955E+00 -4.5824164961214E-01  2.7287329867168E-01
17  1.6000000000000E-01  1.6978201252898E+00 -4.2761384987457E-01  3.1785714637196E-01
18  1.7000000000000E-01  1.7515010395984E+00 -3.9044306380155E-01  3.6153674796266E-01
19  1.8000000000000E-01  1.7977706125169E+00 -3.4744415221250E-01  4.0257207044057E-01
20  1.9000000000000E-01  1.8366432317924E+00 -2.9935970827661E-01  4.3965155655692E-01
21  2.0000000000000E-01  1.8681577334999E+00 -2.4693176178892E-01  4.7153815031769E-01
22  2.1000000000000E-01  1.8923710436650E+00 -1.9087496796598E-01  4.9711336473695E-01
23  2.2000000000000E-01  1.9093524488561E+00 -1.3185228916913E-01  5.1541787266106E-01
24  2.3000000000000E-01  1.9191787373740E+00 -7.0454078867273E-02  5.2568721872657E-01
25  2.4000000000000E-01  1.9219304143089E+00 -7.1813442250591E-03  5.2738141623062E-01
26  2.5000000000000E-01  1.9176891474110E+00  5.7566198255204E-02  5.2020740108709E-01
27  2.6000000000000E-01  1.9065365481393E+00  1.2349684471782E-01  5.0413355881903E-01
28  2.7000000000000E-01  1.8885543353439E+00  1.9042817576954E-01  4.7939581118949E-01
29  2.8000000000000E-01  1.8638258699191E+00  2.5828286089412E-01  4.4649503712996E-01
30  2.9000000000000E-01  1.8324389896419E+00  3.2707919012368E-01  4.0618589805343E-01
31  3.0000000000000E-01  1.7944900165092E+00  3.9691673301022E-01  3.5945743010248E-01
32  3.1000000000000E-01  1.7500887563557E+00  4.6795771625586E-01  3.0750604523860E-01
33  3.2000000000000E-01  1.6993642643937E+00  5.4040488143747E-01  2.5170183955663E-01
34  3.3000000000000E-01  1.6424711123440E+00  6.1447672676820E-01  1.9354933196541E-01
35  3.4000000000000E-01  1.5795958645375E+00  6.9038114633689E-01  1.3464394159868E-01
36  3.5000000000000E-01  1.5109634529080E+00  7.6828855256713E-01  7.6625651683320E-02
37  3.6000000000000E-01  1.4368431349452E+00  8.4830559983955E-01  2.1131396333490E-02
38  3.7000000000000E-01  1.3575537247750E+00  9.3045061791737E-01 -3.0252258050001E-02
39  3.8000000000000E-01  1.2734678055011E+00  1.0146318130702E+00 -7.6034584481504E-02
40  3.9000000000000E-01  1.1850146602469E+00  1.1006292042267E+00 -1.1486284095132E-01
41  4.0000000000000E-01  1.0926816990488E+00  1.1880811341489E+00 -1.4555973455719E-01
42  4.1000000000000E-01  9.9701420752714E-01  1.2764760359451E+00 -1.6715501915532E-01
43  4.2000000000000E-01  8.9861329943451E-01  1.3651499488565E+00 -1.7891025178181E-01
44  4.3000000000000E-01  7.9813201679801E-01  1.4532900707893E+00 -1.8033597584158E-01
45  4.4000000000000E-01  6.9626958624646E-01  1.5399444159430E+00 -1.7120086546240E-01
46  4.5000000000000E-01  5.9376390596179E-01  1.6240374219792E+00 -1.5153264594633E-01
47  4.6000000000000E-01  4.9138240212772E-01  1.7043911306435E+00 -1.2161088980701E-01
48  4.7000000000000E-01  3.8991145446276E-01  1.7797513565883E+00 -8.1952066394425E-02
49  4.8000000000000E-01  2.9014464519373E-01  1.8488180690387E+00 -3.3287485643566E-02
50  4.9000000000000E-01  1.9287013264134E-01  1.9102790468827E+00  2.3464986197386E-02
51  5.0000000000000E-01  9.8857487715689E-02  1.9628457358307E+00  8.7234357195136E-02
52  5.1000000000000E-01  8.8443576477910E-03  2.0052901414371E+00  1.5683384182770E-01
53  5.2000000000000E-01 -7.6476664791645E-02  2.0364815375929E+00  2.3100073254725E-01
54  5.3000000000000E-01 -1.5647058709867E-01  2.0554217587537E+00  3.0843738165426E-01
55  5.4000000000000E-01 -2.3057160996499E-01  2.0612778762542E+00  3.8785184915061E-01
56  5.5000000000000E-01 -2.9829342350156E-01  2.0534111335920E+00  4.6799680911695E-01
57  5.6000000000000E-01 -3.5923789872432E-01  2.0314011300495E+00  5.4770539432070E-01
58  5.7000000000000E-01 -4.1310191258824E-01  1.9950643924734E+00  6.2592279256384E-01
59  5.8000000000000E-01 -4.5968210012625E-01  1.9444666561835E+00  7.0173258342472E-01
60  5.9000000000000E-01 -4.9887738957897E-01  1.8799283814473E+00  7.7437701374110E-01
61  6.0000000000000E-01 -5.3068924364504E-01  1.8020232544532E+00  8.4327064641826E-01
62  6.1000000000000E-01 -5.5521959981901E-01  1.7115696533639E+00  9.0800707098235E-01
63  6.2000000000000E-01 -5.7266657280722E-01  1.6096152926187E+00  9.6835862622398E-01
64  6.3000000000000E-01 -5.8331804980931E-01  1.4974154839417E+00  1.0242693455365E+00
65  6.4000000000000E-01 -5.8754337270192E-01  1.3764056625569E+00  1.0758415845462E+00
66  6.5000000000000E-01 -5.8578335770280E-01  1.2481690145108E+00  1.1233170192086E+00
67  6.6000000000000E-01 -5.7853895102890E-01  1.1144001992440E+00  1.1670529024454E+00
68  6.7000000000000E-01 -5.6635885679346E-01  9.7686628513566E-01  1.2074946314100E+00
69  6.8000000000000E-01 -5.4982649970915E-01  8.3736610052463E-01  1.2451457998665E+00
70  6.9000000000000E-01 -5.2954669926402E-01  6.9768924587579E-01  1.2805369867090E+00
71  7.0000000000000E-01 -5.0613243356642E-01  5.5957601309889E-01  1.3141945599388E+00
72  7.1000000000000E-01 -4.8019206009582E-01  4.2467941581051E-01  1.3466107547760E+00
73  7.2000000000000E-01 -4.5231733768848E-01  2.9453045139923E-01  1.3782162162351E+00
74  7.3000000000000E-01 -4.2307256018130E-01  1.7050759537872E-01  1.4093560833538E+00
75  7.4000000000000E-01 -3.9298506856456E-01  5.3811375271908E-02  1.4402705389426E+00
76  7.5000000000000E-01 -3.6253735691343E-01 -5.4555309121352E-02  1.4710805612128E+00
77  7.6000000000000E-01 -3.3216092969713E-01 -1.5380065313901E-01  1.5017793992195E+00
78  7.7000000000000E-01 -3.0223200639797E-01 -2.4335095062763E-01  1.5322300608324E+00
79  7.8000000000000E-01 -2.7306910592829E-01 -3.2285110136438E-01  1.5621688587504E+00
80  7.9000000000000E-01 -2.4493248032593E-01 -3.9215880838511E-01  1.5912148159277E+00
81  8.0000000000000E-01 -2.1802530681791E-01 -4.5133285920761E-01  1.6188844957275E+00
82  8.1000000000000E-01 -1.9249649158069E-01 -5.0061607644539E-01  1.6446116027781E+00
83  8.2000000000000E-01 -1.6844488922371E-01 -5.4041369181113E-01  1.6677705058937E+00
84  8.3000000000000E-01 -1.4592470071382E-01 -5.7126803764402E-01  1.6877026715454E+00
85  8.4000000000000E-01 -1.2495178037154E-01 -5.9383055755236E-01  1.7037448711304E+00
86  8.5000000000000E-01 -1.0551056057154E-01 -6.0883220946759E-01  1.7152579422578E+00
87  8.6000000000000E-01 -8.7561291363681E-02 -6.1705336858455E-01  1.7216548465657E+00
88  8.7000000000000E-01 -7.1047291517002E-02 -6.1929433382320E-01  1.7224267758909E+00
89  8.8000000000000E-01 -5.5901917231915E-02 -6.1634750037120E-01  1.7171661151363E+00
90  8.9000000000000E-01 -4.2054974389703E-02 -6.0897218448377E-01  1.7055851727800E+00
91  9.0000000000000E-01 -2.9438328850425E-02 -5.9787297795674E-01  1.6875297362911E+00
92  9.1000000000000E-01 -1.7990505871149E-02 -5.8368237231095E-01  1.6629866963803E+00
93  9.2000000000000E-01 -7.6601129399682E-03 -5.6694823104866E-01  1.6320852068900E+00
94  9.3000000000000E-01  1.5920311498744E-03 -5.4812650704801E-01  1.5950911015558E+00
95  9.4000000000000E-01  9.7921256846201E-03 -5.2757940594936E-01  1.5523945700449E+00
96  9.5000000000000E-01  1.6953985440502E-02 -5.0557898975378E-01  1.5044913989008E+00
97  9.6000000000000E-01  2.3080959054542E-02 -4.8231600183440E-01  1.4519584039673E+00
98  9.7000000000000E-01  2.8169064066367E-02 -4.5791347836181E-01  1.3954240160710E+00
99  9.8000000000000E-01  3.2211177181544E-02 -4.3244449411479E-01  1.3355353285291E+00
100  9.9000000000000E-01  3.5202061472696E-02 -4.0595317378695E-01  1.2729232722643E+00
101  1.0000000000000E+00  3.7143955638183E-02 -3.7847788302170E-01  1.2081679519667E+00
102  1.0100000000000E+00  3.8052393530223E-02 -3.5007529474198E-01  1.1417665566399E+00
103  1.0200000000000E+00  3.7961864016823E-02 -3.2084380283850E-01  1.0741066530215E+00
104  1.0300000000000E+00  3.6930860306933E-02 -2.9094452170311E-01  1.0054480866340E+00
105  1.0400000000000E+00  3.5045802379449E-02 -2.6061786054987E-01  9.3591715857781E-01
106  1.0500000000000E+00  3.2423243828268E-02 -2.3019338821725E-01  8.6551722494232E-01
107  1.0600000000000E+00  2.9209692344850E-02 -2.0009039721343E-01  7.9416039118863E-01
108  1.0700000000000E+00  2.5578278486453E-02 -1.7080622602732E-01  7.2172555513963E-01
109  1.0800000000000E+00  2.1721396780720E-02 -1.4288899404772E-01  6.4814870309311E-01
110  1.0900000000000E+00  1.7838310467756E-02 -1.1689092070242E-01  5.7355213384203E-01
111  1.1000000000000E+00  1.4116608578812E-02 -9.3298074523632E-02  4.9841928331029E-01
112  1.1100000000000E+00  1.0706760431290E-02 -7.2434145099687E-02  4.2381379066570E-01
113  1.1200000000000E+00  7.7123065743526E-03 -5.4438145632058E-02  3.5127633742795E-01
114  1.1300000000000E+00  5.2078433707671E-03 -3.9361814504057E-02  2.8233247021392E-01
115  1.1400000000000E+00  3.2405709258824E-03 -2.7187173778314E-02  2.1838013472987E-01
116  1.1500000000000E+00  1.8045691276372E-03 -1.7750030505614E-02  1.6071246221834E-01
117  1.1600000000000E+00  7.5177162935364E-04 -1.0462284929057E-02  1.1062419598428E-01
118  1.1700000000000E+00  9.5673850981392E-05 -5.2675459634053E-03  6.9013366689096E-02
119  1.1800000000000E+00 -1.8126387954717E-04 -2.0443245278889E-03  3.6627569290058E-02
120  1.1900000000000E+00 -1.7189870351116E-04 -4.6782808352161E-04  1.4124566275275E-02
121  1.2000000000000E+00 -4.2359274678484E-05 -1.7200505514594E-05  2.0897979012264E-03
122  1.2100000000000E+00  3.3622126868027E-06 -1.3076491556575E-06 -1.2755901717340E-04
123  1.2200000000000E+00 -2.2426034861525E-07  2.0902592583516E-08  9.4685122696426E-06
124  1.23 -0.  0. -0.
125  1.24  0.  0.  0.
126  1.25  0.  0.  0.
127  1.26  0.  0.  0.
128  1.27  0.  0.  0.
129  1.28  0.  0.  0.
130  1.29  0.  0.  0.
131  1.30  0.  0.  0.
132  1.31  0.  0.  0.
133  1.32  0.  0.  0.
134  1.33  0.  0.  0.
135  1.34  0.  0.  0.
136  1.35  0.  0.  0.
137  1.36  0.  0.  0.
138  1.37  0.  0.  0.
139  1.38  0.  0.  0.
140  1.39  0.  0.  0.
141  1.40  0.  0.  0.
142  1.41  0.  0.  0.
143  1.42  0.  0.  0.
144  1.43  0.  0.  0.
145  1.44  0.  0.  0.
146  1.45  0.  0.  0.
147  1.46  0.  0.  0.
148  1.47  0.  0.  0.
149  1.48  0.  0.  0.
150  1.49  0.  0.  0.
151  1.50  0.  0.  0.
152  1.51  0.  0.  0.
153  1.52  0.  0.  0.
154  1.53  0.  0.  0.
155  1.54  0.  0.  0.
156  1.55  0.  0.  0.
157  1.56  0.  0.  0.
158  1.57  0.  0.  0.
159  1.58  0.  0.  0.
160  1.59  0.  0.  0.
161  1.60  0.  0.  0.
162  1.61  0.  0.  0.
163  1.62  0.  0.  0.
164  1.63  0.  0.  0.
165  1.64  0.  0.  0.
166  1.65  0.  0.  0.
167  1.66  0.  0.  0.
168  1.67  0.  0.  0.
169  1.68  0.  0.  0.
170  1.69  0.  0.  0.
171  1.70  0.  0.  0.
172  1.71  0.  0.  0.
173  1.72  0.  0.  0.
174  1.73  0.  0.  0.
175  1.74  0.  0.  0.
176  1.75  0.  0.  0.
177  1.76  0.  0.  0.
178  1.77  0.  0.  0.
179  1.78  0.  0.  0.
180  1.79  0.  0.  0.
181  1.80  0.  0.  0.
182  1.81  0.  0.  0.
183  1.82  0.  0.  0.
184  1.83  0.  0.  0.
185  1.84  0.  0.  0.
186  1.85  0.  0.  0.
187  1.86  0.  0.  0.
188  1.87  0.  0.  0.
189  1.88  0.  0.  0.
190  1.89  0.  0.  0.
191  1.90  0.  0.  0.
192  1.91  0.  0.  0.
193  1.92  0.  0.  0.
194  1.93  0.  0.  0.
195  1.94  0.  0.  0.
196  1.95  0.  0.  0.
197  1.96  0.  0.  0.
198  1.97  0.  0.  0.
199  1.98  0.  0.  0.
200  1.99  0.  0.  0.
201  2.00  0.  0.  0.
202  2.01  0.  0.  0.
203  2.02  0.  0.  0.
204  2.03  0.  0.  0.
205  2.04  0.  0.  0.
206  2.05  0.  0.  0.
207  2.06  0.  0.  0.
208  2.07  0.  0.  0.
209  2.08  0.  0.  0.
210  2.09  0.  0.  0.
211  2.10  0.  0.  0.
212  2.11  0.  0.  0.
213  2.12  0.  0.  0.
214  2.13  0.  0.  0.
215  2.14  0.  0.  0.
216  2.15  0.  0.  0.
217  2.16  0.  0.  0.
218  2.17  0.  0.  0.
219  2.18  0.  0.  0.
220  2.19  0.  0.  0.
221  2.20  0.  0.  0.
222  2.21  0.  0.  0.
223  2.22  0.  0.  0.
224  2.23  0.  0.  0.
225  2.24  0.  0.  0.
226  2.25  0.  0.  0.
227  2.26  0.  0.  0.
228  2.27  0.  0.  0.
229  2.28  0.  0.  0.
230  2.29  0.  0.  0.
231  2.30  0.  0.  0.
232  2.31  0.  0.  0.
233  2.32  0.  0.  0.
234  2.33  0.  0.  0.
235  2.34  0.  0.  0.
236  2.35  0.  0.  0.
237  2.36  0.  0.  0.
238  2.37  0.  0.  0.
239  2.38  0.  0.  0.
240  2.39  0.  0.  0.
241  2.40  0.  0.  0.
242  2.41  0.  0.  0.
243  2.42  0.  0.  0.
244  2.43  0.  0.  0.
245  2.44  0.  0.  0.
246  2.45  0.  0.  0.
247  2.46  0.  0.  0.
248  2.47  0.  0.  0.
249  2.48  0.  0.  0.
250  2.49  0.  0.  0.
251  2.50  0.  0.  0.
252  2.51  0.  0.  0.
253  2.52  0.  0.  0.
254  2.53  0.  0.  0.
255  2.54  0.  0.  0.
256  2.55  0.  0.  0.
257  2.56  0.  0.  0.
258  2.57  0.  0.  0.
259  2.58  0.  0.  0.
260  2.59  0.  0.  0.
261  2.60  0.  0.  0.
262  2.61  0.  0.  0.
263  2.62  0.  0.  0.
264  2.63  0.  0.  0.
265  2.64  0.  0.  0.
266  2.65  0.  0.  0.
267  2.66  0.  0.  0.
268  2.67  0.  0.  0.
269  2.68  0.  0.  0.
270  2.69  0.  0.  0.
271  2.70  0.  0.  0.
272  2.71  0.  0.  0.
273  2.72  0.  0.  0.
274  2.73  0.  0.  0.
275  2.74  0.  0.  0.
276  2.75  0.  0.  0.
277  2.76  0.  0.  0.
278  2.77  0.  0.  0.
279  2.78  0.  0.  0.
280  2.79  0.  0.  0.
281  2.80  0.  0.  0.
282  2.81  0.  0.  0.
283  2.82  0.  0.  0.
284  2.83  0.  0.  0.
285  2.84  0.  0.  0.
286  2.85  0.  0.  0.
287  2.86  0.  0.  0.
288  2.87  0.  0.  0.
289  2.88  0.  0.  0.
290  2.89  0.  0.  0.
291  2.90  0.  0.  0.
292  2.91  0.  0.  0.
293  2.92  0.  0.  0.
294  2.93  0.  0.  0.
295  2.94  0.  0.  0.
296  2.95  0.  0.  0.
297  2.96  0.  0.  0.
298  2.97  0.  0.  0.
299  2.98  0.  0.  0.
300  2.99  0.  0.  0.
301  3.00  0.  0.  0.
302  3.01  0.  0.  0.
303  3.02  0.  0.  0.
304  3.03  0.  0.  0.
305  3.04  0.  0.  0.
306  3.05  0.  0.  0.
307  3.06  0.  0.  0.
308  3.07  0.  0.  0.
309  3.08  0.  0.  0.
310  3.09  0.  0.  0.
311  3.10  0.  0.  0.
312  3.11  0.  0.  0.
313  3.12  0.  0.  0.
314  3.13  0.  0.  0.
315  3.14  0.  0.  0.
316  3.15  0.  0.  0.
317  3.16  0.  0.  0.
318  3.17  0.  0.  0.
319  3.18  0.  0.  0.
320  3.19  0.  0.  0.
321  3.20  0.  0.  0.
322  3.21  0.  0.  0.
323  3.22  0.  0.  0.
324  3.23  0.  0.  0.
325  3.24  0.  0.  0.
326  3.25  0.  0.  0.
327  3.26  0.  0.  0.
328  3.27  0.  0.  0.
329  3.28  0.  0.  0.
330  3.29  0.  0.  0.
331  3.30  0.  0.  0.
332  3.31  0.  0.  0.
333  3.32  0.  0.  0.
334  3.33  0.  0.  0.
335  3.34  0.  0.  0.
336  3.35  0.  0.  0.
337  3.36  0.  0.  0.
338  3.37  0.  0.  0.
339  3.38  0.  0.  0.
340  3.39  0.  0.  0.
341  3.40  0.  0.  0.
342  3.41  0.  0.  0.
343  3.42  0.  0.  0.
344  3.43  0.  0.  0.
345  3.44  0.  0.  0.
346  3.45  0.  0.  0.
347  3.46  0.  0.  0.
348  3.47  0.  0.  0.
349  3.48  0.  0.  0.
350  3.49  0.  0.  0.
351  3.50  0.  0.  0.
352  3.51  0.  0.  0.
353  3.52  0.  0.  0.
354  3.53  0.  0.  0.
355  3.54  0.  0.  0.
356  3.55  0.  0.  0.
357  3.56  0.  0.  0.
358  3.57  0.  0.  0.
359  3.58  0.  0.  0.
360  3.59  0.  0.  0.
361  3.60  0.  0.  0.
362  3.61  0.  0.  0.
363  3.62  0.  0.  0.
364  3.63  0.  0.  0.
365  3.64  0.  0.  0.
366  3.65  0.  0.  0.
367  3.66  0.  0.  0.
368  3.67  0.  0.  0.
369  3.68  0.  0.  0.
370  3.69  0.  0.  0.
371  3.70  0.  0.  0.
372  3.71  0.  0.  0.
373  3.72  0.  0.  0.
374  3.73  0.  0.  0.
375  3.74  0.  0.  0.
376  3.75  0.  0.  0.
377  3.76  0.  0.  0.
378  3.77  0.  0.  0.
379  3.78  0.  0.  0.
380  3.79  0.  0.  0.
381  3.80  0.  0.  0.
382  3.81  0.  0.  0.
383  3.82  0.  0.  0.
384  3.83  0.  0.  0.
385  3.84  0.  0.  0.
386  3.85  0.  0.  0.
387  3.86  0.  0.  0.
388  3.87  0.  0.  0.
389  3.88  0.  0.  0.
390  3.89  0.  0.  0.
391  3.90  0.  0.  0.
392  3.91  0.  0.  0.
393  3.92  0.  0.  0.
394  3.93  0.  0.  0.
395  3.94  0.  0.  0.
396  3.95  0.  0.  0.
397  3.96  0.  0.  0.
398  3.97  0.  0.  0.
399  3.98  0.  0.  0.
400  3.99  0.  0.  0.
401  4.00  0.  0.  0.
402  4.01  0.  0.  0.
403  4.02  0.  0.  0.
404  4.03  0.  0.  0.
405  4.04  0.  0.  0.
406  4.05  0.  0.  0.
407  4.06  0.  0.  0.
408  4.07  0.  0.  0.
409  4.08  0.  0.  0.
410  4.09  0.  0.  0.
411  4.10  0.  0.  0.
412  4.11  0.  0.  0.
413  4.12  0.  0.  0.
414  4.13  0.  0.  0.
415  4.14  0.  0.  0.
416  4.15  0.  0.  0.
417  4.16  0.  0.  0.
418  4.17  0.  0.  0.
419  4.18  0.  0.  0.
420  4.19  0.  0.  0.
421  4.20  0.  0.  0.
422  4.21  0.  0.  0.
423  4.22  0.  0.  0.
424  4.23  0.  0.  0.
425  4.24  0.  0.  0.
426  4.25  0.  0.  0.
427  4.26  0.  0.  0.
428  4.27  0.  0.  0.
429  4.28  0.  0.  0.
430  4.29  0.  0.  0.
431  4.30  0.  0.  0.
432  4.31  0.  0.  0.
433  4.32  0.  0.  0.
434  4.33  0.  0.  0.
435  4.34  0.  0.  0.
436  4.35  0.  0.  0.
437  4.36  0.  0.  0.
438  4.37  0.  0.  0.
439  4.38  0.  0.  0.
440  4.39  0.  0.  0.
441  4.40  0.  0.  0.
442  4.41  0.  0.  0.
443  4.42  0.  0.  0.
444  4.43  0.  0.  0.
445  4.44  0.  0.  0.
446  4.45  0.  0.  0.
447  4.46  0.  0.  0.
448  4.47  0.  0.  0.
449  4.48  0.  0.  0.
450  4.49  0.  0.  0.
451  4.50  0.  0.  0.
452  4.51  0.  0.  0.
453  4.52  0.  0.  0.
454  4.53  0.  0.  0.
455  4.54  0.  0.  0.
456  4.55  0.  0.  0.
457  4.56  0.  0.  0.
458  4.57  0.  0.  0.
459  4.58  0.  0.  0.
460  4.59  0.  0.  0.
461  4.60  0.  0.  0.
462  4.61  0.  0.  0.
463  4.62  0.  0.  0.
464  4.63  0.  0.  0.
465  4.64  0.  0.  0.
466  4.65  0.  0.  0.
467  4.66  0.  0.  0.
468  4.67  0.  0.  0.
469  4.68  0.  0.  0.
470  4.69  0.  0.  0.
471  4.70  0.  0.  0.
472  4.71  0.  0.  0.
473  4.72  0.  0.  0.
474  4.73  0.  0.  0.
475  4.74  0.  0.  0.
476  4.75  0.  0.  0.
477  4.76  0.  0.  0.
478  4.77  0.  0.  0.
479  4.78  0.  0.  0.
480  4.79  0.  0.  0.
481  4.80  0.  0.  0.
482  4.81  0.  0.  0.
483  4.82  0.  0.  0.
484  4.83  0.  0.  0.
485  4.84  0.  0.  0.
486  4.85  0.  0.  0.
487  4.86  0.  0.  0.
488  4.87  0.  0.  0.
489  4.88  0.  0.  0.
490  4.89  0.  0.  0.
491  4.90  0.  0.  0.
492  4.91  0.  0.  0.
493  4.92  0.  0.  0.
494  4.93  0.  0.  0.
495  4.94  0.  0.  0.
496  4.95  0.  0.  0.
497  4.96  0.  0.  0.
498  4.97  0.  0.  0.
499  4.98  0.  0.  0.
500  4.99  0.  0.  0.
501  5.00  0.  0.  0.
502  5.01  0.  0.  0.
503  5.02  0.  0.  0.
504  5.03  0.  0.  0.
505  5.04  0.  0.  0.
506  5.05  0.  0.  0.
507  5.06  0.  0.  0.
508  5.07  0.  0.  0.
509  5.08  0.  0.  0.
510  5.09  0.  0.  0.
511  5.10  0.  0.  0.
512  5.11  0.  0.  0.
513  5.12  0.  0.  0.
514  5.13  0.  0.  0.
515  5.14  0.  0.  0.
516  5.15  0.  0.  0.
517  5.16  0.  0.  0.
518  5.17  0.  0.  0.
519  5.18  0.  0.  0.
520  5.19  0.  0.  0.
521  5.20  0.  0.  0.
522  5.21  0.  0.  0.
523  5.22  0.  0.  0.
524  5.23  0.  0.  0.
525  5.24  0.  0.  0.
526  5.25  0.  0.  0.
527  5.26  0.  0.  0.
528  5.27  0.  0.  0.
529  5.28  0.  0.  0.
530  5.29  0.  0.  0.
531  5.30  0.  0.  0.
532  5.31  0.  0.  0.
533  5.32  0.  0.  0.
534  5.33  0.  0.  0.
535  5.34  0.  0.  0.
536  5.35  0.  0.  0.
537  5.36  0.  0.  0.
538  5.37  0.  0.  0.
539  5.38  0.  0.  0.
540  5.39  0.  0.  0.
541  5.40  0.  0.  0.
542  5.41  0.  0.  0.
543  5.42  0.  0.  0.
544  5.43  0.  0.  0.
545  5.44  0.  0.  0.
546  5.45  0.  0.  0.
547  5.46  0.  0.  0.
548  5.47  0.  0.  0.
549  5.48  0.  0.  0.
550  5.49  0.  0.  0.
551  5.50  0.  0.  0.
552  5.51  0.  0.  0.
553  5.52  0.  0.  0.
554  5.53  0.  0.  0.
555  5.54  0.  0.  0.
556  5.55  0.  0.  0.
557  5.56  0.  0.  0.
558  5.57  0.  0.  0.
559  5.58  0.  0.  0.
560  5.59  0.  0.  0.
561  5.60  0.  0.  0.
562  5.61  0.  0.  0.
563  5.62  0.  0.  0.
564  5.63  0.  0.  0.
565  5.64  0.  0.  0.
566  5.65  0.  0.  0.
567  5.66  0.  0.  0.
568  5.67  0.  0.  0.
569  5.68  0.  0.  0.
570  5.69  0.  0.  0.
571  5.70  0.  0.  0.
572  5.71  0.  0.  0.
573  5.72  0.  0.  0.
574  5.73  0.  0.  0.
575  5.74  0.  0.  0.
576  5.75  0.  0.  0.
577  5.76  0.  0.  0.
578  5.77  0.  0.  0.
579  5.78  0.  0.  0.
580  5.79  0.  0.  0.
581  5.80  0.  0.  0.
582  5.81  0.  0.  0.
583  5.82  0.  0.  0.
584  5.83  0.  0.  0.
585  5.84  0.  0.  0.
586  5.85  0.  0.  0.
587  5.86  0.  0.  0.
588  5.87  0.  0.  0.
589  5.88  0.  0.  0.
590  5.89  0.  0.  0.
591  5.90  0.  0.  0.
592  5.91  0.  0.  0.
593  5.92  0.  0.  0.
594  5.93  0.  0.  0.
595  5.94  0.  0.  0.
596  5.95  0.  0.  0.
597  5.96  0.  0.  0.
598  5.97  0.  0.  0.
599  5.98  0.  0.  0.
600  5.99  0.  0.  0.
1                         9.0650546543125E+00 -1.9721525109046E+00
1  0.0000000000000E+00  6.7107226997543E-09  5.4055147302723E-08
2  1.0000000000000E-02  2.8375171090385E-03 -3.0607801240247E-03
3  2.0000000000000E-02  1.1330536196621E-02 -1.2229208903960E-02
4  3.0000000000000E-02  2.5420664249665E-02 -2.7462825827372E-02
5  4.0000000000000E-02  4.5011254171386E-02 -4.8688482068478E-02
6  5.0000000000000E-02  6.9968401315292E-02 -7.5798899474081E-02
7  6.0000000000000E-02  1.0012230842384E-01 -1.0864811001219E-01
8  7.0000000000000E-02  1.3526898990791E-01 -1.4704602101610E-01
9  8.0000000000000E-02  1.7517227969268E-01 -1.9075240561200E-01
10  9.0000000000000E-02  2.1956610126538E-01 -2.3947066050095E-01
11  1.0000000000000E-01  2.6815695426270E-01 -2.9284170308025E-01
12  1.1000000000000E-01  3.2062656905530E-01 -3.5043839548230E-01
13  1.2000000000000E-01  3.7663467940535E-01 -4.1176088372057E-01
14  1.3000000000000E-01  4.3582186341788E-01 -4.7623322551555E-01
15  1.4000000000000E-01  4.9781240465662E-01 -5.4320165081294E-01
16  1.5000000000000E-01  5.6221712837543E-01 -6.1193475531127E-01
17  1.6000000000000E-01  6.2863617220721E-01 -6.8162587079147E-01
18  1.7000000000000E-01  6.9666165618461E-01 -7.5139778845752E-01
19  1.8000000000000E-01  7.6588022343713E-01 -8.2030993502602E-01
20  1.9000000000000E-01  8.3587543007748E-01 -8.8736801845261E-01
21  2.0000000000000E-01  9.0622997039482E-01 -9.5153607371588E-01
22  2.1000000000000E-01  9.7652773123384E-01 -1.0117507519216E+00
23  2.2000000000000E-01  1.0463556770736E+00 -1.0669376111358E+00
24  2.3000000000000E-01  1.1153055745453E+00 -1.1160290877618E+00
25  2.4000000000000E-01  1.1829755716773E+00 -1.1579837557816E+00
26  2.5000000000000E-01  1.2489716527813E+00 -1.1918064203720E+00
27  2.6000000000000E-01  1.3129089943837E+00 -1.2165685445787E+00
28  2.7000000000000E-01  1.3744132507819E+00 -1.2314284747552E+00
29  2.8000000000000E-01  1.4331217995398E+00 -1.2356509137762E+00
30  2.9000000000000E-01  1.4886849774499E+00 -1.2286250915007E+00
31  3.0000000000000E-01  1.5407673361538E+00 -1.2098810999370E+00
32  3.1000000000000E-01  1.5890489437643E+00 -1.1791038958043E+00
33  3.2000000000000E-01  1.6332267545489E+00 -1.1361445248826E+00
34  3.3000000000000E-01  1.6730160631660E+00 -1.0810281893276E+00
35  3.4000000000000E-01  1.7081520532702E+00 -1.0139588590987E+00
36  3.5000000000000E-01  1.7383914427627E+00 -9.3532021947390E-01
37  3.6000000000000E-01  1.7635142198243E+00 -8.4567284553910E-01
38  3.7000000000000E-01  1.7833254554239E+00 -7.4574759851877E-01
39  3.8000000000000E-01  1.7976571695727E+00 -6.3643534458241E-01
40  3.9000000000000E-01  1.8063702205026E+00 -5.1877320097986E-01
41  4.0000000000000E-01  1.8093561785160E+00 -3.9392761366787E-01
42  4.1000000000000E-01  1.8065391397891E+00 -2.6317466177122E-01
43  4.2000000000000E-01  1.7978774301815E+00 -1.2787806427470E-01
44  4.3000000000000E-01  1.7833651453734E+00  1.0534569398057E-02
45  4.4000000000000E-01  1.7630334715972E+00  1.5059665303094E-01
46  4.5000000000000E-01  1.7369517310228E+00  2.9082807713159E-01
47  4.6000000000000E-01  1.7052280975589E+00  4.2976056441810E-01
48  4.7000000000000E-01  1.6680099324973E+00  5.6596229530530E-01
49  4.8000000000000E-01  1.6254836949900E+00  6.9806119672499E-01
50  4.9000000000000E-01  1.5778743897195E+00  8.2476633155874E-01
51  5.0000000000000E-01  1.5254445231267E+00  9.4488688718039E-01
52  5.1000000000000E-01  1.4684925499630E+00  1.0573483381434E+00
53  5.2000000000000E-01  1.4073508034663E+00  1.1612054474317E+00
54  5.3000000000000E-01  1.3423829147771E+00  1.2556518699916E+00
55  5.4000000000000E-01  1.2739807399744E+00  1.3400262282042E+00
56  5.5000000000000E-01  1.2025608259096E+00  1.4138146380208E+00
57  5.6000000000000E-01  1.1285604584805E+00  1.4766497730296E+00
58  5.7000000000000E-01  1.0524333486984E+00  1.5283066581066E+00
59  5.8000000000000E-01  9.7464502250143E-01  1.5686954810205E+00
60  5.9000000000000E-01  8.9566798938939E-01  1.5978517961461E+00
61  6.0000000000000E-01  8.1597677229504E-01  1.6159245663996E+00
62  6.1000000000000E-01  7.3604288640743E-01  1.6231625452254E+00
63  6.2000000000000E-01  6.5632985771508E-01  1.6198995380794E+00
64  6.3000000000000E-01  5.7728837271851E-01  1.6065391011275E+00
65  6.4000000000000E-01  4.9935164900894E-01  1.5835392332868E+00
66  6.5000000000000E-01  4.2293111224396E-01  1.5513975964137E+00
67  6.6000000000000E-01  3.4841245856521E-01  1.5106377582761E+00
68  6.7000000000000E-01  2.7615217286896E-01  1.4617968954619E+00
69  6.8000000000000E-01  2.0647456279639E-01  1.4054153207684E+00
70  6.9000000000000E-01  1.3966935615923E-01  1.3420281146075E+00
71  7.0000000000000E-01  7.5989896114014E-02  1.2721590457531E+00
72  7.1000000000000E-01  1.5651954141143E-02  1.1963168669059E+00
73  7.2000000000000E-01 -4.1166833800374E-02  1.1149939688073E+00
74  7.3000000000000E-01 -9.4326917244100E-02  1.0286672768939E+00
75  7.4000000000000E-01 -1.4372619083519E-01  9.3780118050923E-01
76  7.5000000000000E-01 -1.8929880046027E-01  8.4285220013235E-01
77  7.6000000000000E-01 -2.3101344481823E-01  7.4427502618953E-01
78  7.7000000000000E-01 -2.6887123180224E-01  6.4252950661902E-01
79  7.8000000000000E-01 -3.0290315757993E-01  5.3808812170704E-01
80  7.9000000000000E-01 -3.3316728262032E-01  4.3144346538495E-01
81  8.0000000000000E-01 -3.5974568296797E-01  3.2311525302693E-01
82  8.1000000000000E-01 -3.8274125673048E-01  2.1365639688646E-01
83  8.2000000000000E-01 -4.0227446503325E-01  1.0365773093023E-01
84  8.3000000000000E-01 -4.1848008369786E-01 -6.2489745424154E-03
85  8.4000000000000E-01 -4.3150403679170E-01 -1.1538999373442E-01
86  8.5000000000000E-01 -4.4150037622721E-01 -2.2305081971831E-01
87  8.6000000000000E-01 -4.4862846307922E-01 -3.2847963401777E-01
88  8.7000000000000E-01 -4.5305039661753E-01 -4.3089307150113E-01
89  8.8000000000000E-01 -4.5492872664564E-01 -5.2948417832971E-01
90  8.9000000000000E-01 -4.5442447405519E-01 -6.2343236222299E-01
91  9.0000000000000E-01 -4.5169547403104E-01 -7.1191504442682E-01
92  9.1000000000000E-01 -4.4689504655799E-01 -7.9412064616865E-01
93  9.2000000000000E-01 -4.4017099026417E-01 -8.6926248351620E-01
94  9.3000000000000E-01 -4.3166488864018E-01 -9.3659310753690E-01
95  9.4000000000000E-01 -4.2151171271173E-01 -9.9541861512768E-01
96  9.5000000000000E-01 -4.0983970168445E-01 -1.0451124729193E+00
97  9.6000000000000E-01 -3.9677050323023E-01 -1.0851284446428E+00
98  9.7000000000000E-01 -3.8241955818711E-01 -1.1150122929624E+00
99  9.8000000000000E-01 -3.6689672066668E-01 -1.1344120408619E+00
100  9.9000000000000E-01 -3.5030711399888E-01 -1.1430867253547E+00
101  1.0000000000000E+00 -3.3275223561346E-01 -1.1409137568550E+00
102  1.0100000000000E+00 -3.1433133980203E-01 -1.1278952095473E+00
103  1.0200000000000E+00 -2.9514314617823E-01 -1.1041636091210E+00
104  1.0300000000000E+00 -2.7528794340118E-01 -1.0699880519871E+00
105  1.0400000000000E+00 -2.5487018205452E-01 -1.0257817806558E+00
106  1.0500000000000E+00 -2.3400167716698E-01 -9.7211264946338E-01
107  1.0600000000000E+00 -2.1280556945535E-01 -9.0971823999841E-01
108  1.0700000000000E+00 -1.9142122446568E-01 -8.3952772058288E-01
109  1.0800000000000E+00 -1.7001028007768E-01 -7.6269288556798E-01
110  1.0900000000000E+00 -1.4876408760050E-01 -6.8063117358627E-01
111  1.1000000000000E+00 -1.2791275953323E-01 -5.9508332600173E-01
112  1.1100000000000E+00 -1.0773536677980E-01 -5.0818349866000E-01
113  1.1200000000000E+00 -8.8543070743144E-02 -4.2233242079335E-01
114  1.1300000000000E+00 -7.0634540146299E-02 -3.3985595279626E-01
115  1.1400000000000E+00 -5.4284462255728E-02 -2.6289833364186E-01
116  1.1500000000000E+00 -3.9738547559490E-02 -1.9333771742157E-01
117  1.1600000000000E+00 -2.7200388502035E-02 -1.3256980898884E-01
118  1.1700000000000E+00 -1.6862121791303E-02 -8.2082715131338E-02
119  1.1800000000000E+00 -8.8862088332926E-03 -4.3077697360739E-02
120  1.1900000000000E+00 -3.3999394159101E-03 -1.6365514398136E-02
121  1.2000000000000E+00 -4.9864795272088E-04 -2.3761560982780E-03
122  1.2100000000000E+00  3.0258154099997E-05  1.4300202611152E-04
123  1.2200000000000E+00 -2.2519347962412E-06 -1.0684536365397E-05
124  1.23 -0. -0.
125  1.24  0.  0.
126  1.25  0.  0.
127  1.26  0.  0.
128  1.27  0.  0.
129  1.28  0.  0.
130  1.29  0.  0.
131  1.30  0.  0.
132  1.31  0.  0.
133  1.32  0.  0.