Pa    ONCVPSP-4.0.1  r_core=   1.25016   1.25016   1.45183   1.45183
91.0000     31.0000      230727    zatom,zion,pspd
8      11   3     4   600     0    pspcod,pspxc,lmax,lloc,mmax,r2well
5.99000000  4.00000000  0.00000000    rchrg fchrg qchrg
3     3     4     3    nproj
3     1           extension_switch
4     4     4    nprojso
0                         2.5067709490438E+01  3.4181189108997E+00 -1.3272970228876E-01
1  0.0000000000000E+00 -2.4708583512556E-08  7.3380864940020E-08  4.5935681558529E-07
2  1.0000000000000E-02  1.2202475850113E-01 -4.7483090572141E-02 -1.2524069412027E-01
3  2.0000000000000E-02  2.4342484998384E-01 -9.4078980757241E-02 -2.4655005720141E-01
4  3.0000000000000E-02  3.6358319597854E-01 -1.3892026210678E-01 -3.6012061021668E-01
5  4.0000000000000E-02  4.8189769199810E-01 -1.8117850518018E-01 -4.6238865336446E-01
6  5.0000000000000E-02  5.9778819347162E-01 -2.2008225683965E-01 -5.5014646819812E-01
7  6.0000000000000E-02  7.1070291902829E-01 -2.5493330213203E-01 -6.2064323947792E-01
8  7.0000000000000E-02  8.2012410727703E-01 -2.8512070239049E-01 -6.7167149944096E-01
9  8.0000000000000E-02  9.2557278793592E-01 -3.1013219456952E-01 -7.0163635654223E-01
10  9.0000000000000E-02  1.0266125574567E+00 -3.2956262388604E-01 -7.0960531697163E-01
11  1.0000000000000E-01  1.1228522821798E+00 -3.4311917969470E-01 -6.9533712309106E-01
12  1.1000000000000E-01  1.2139476874357E+00 -3.5062330993077E-01 -6.5928869882476E-01
13  1.2000000000000E-01  1.2996018276884E+00 -3.5200929890925E-01 -6.0259998683844E-01
14  1.3000000000000E-01  1.3795644695576E+00 -3.4731960314118E-01 -5.2705716403482E-01
15  1.4000000000000E-01  1.4536304551100E+00 -3.3669714645301E-01 -4.3503540815631E-01
16  1.5000000000000E-01  1.5216371459794E+00 -3.2037487552316E-01 -3.2942303734627E-01
17  1.6000000000000E-01  1.5834610785215E+00 -2.9866296663942E-01 -2.1352943572841E-01
18  1.7000000000000E-01  1.6390139853183E+00 -2.7193415102645E-01 -9.0979692622684E-02
19  1.8000000000000E-01  1.6882383580643E+00 -2.4060768691468E-01  3.4400695471823E-02
20  1.9000000000000E-01  1.7311027404895E+00 -2.0513254955792E-01  1.5870739594726E-01
21  2.0000000000000E-01  1.7675969470291E+00 -1.6597043418225E-01  2.7808122151757E-01
22  2.1000000000000E-01  1.7977274031737E+00 -1.2357917052139E-01  3.8883058367611E-01
23  2.2000000000000E-01  1.8215127967826E+00 -7.8397130992949E-02  4.8754852953151E-01
24  2.3000000000000E-01  1.8389802163206E+00 -3.0829178193600E-02  5.7122064683492E-01
25  2.4000000000000E-01  1.8501619324108E+00  1.8765357591934E-02  6.3732041372981E-01
26  2.5000000000000E-01  1.8550929539088E+00  7.0082251982261E-02  6.8388897047738E-01
27  2.6000000000000E-01  1.8538094597419E+00  1.2287917858083E-01  7.0959678735211E-01
28  2.7000000000000E-01  1.8463481740060E+00  1.7697948483043E-01  7.1378528020854E-01
29  2.8000000000000E-01  1.8327467154102E+00  2.3227282318885E-01  6.9648706447333E-01
30  2.9000000000000E-01  1.8130449143353E+00  2.8871262026619E-01  6.5842421907520E-01
31  3.0000000000000E-01  1.7872870528076E+00  3.4631047876226E-01  6.0098463231197E-01
32  3.1000000000000E-01  1.7555249458898E+00  4.0512771657820E-01  5.2617719949761E-01
33  3.2000000000000E-01  1.7178217486283E+00  4.6526435063204E-01  4.3656731501166E-01
34  3.3000000000000E-01  1.6742563419572E+00  5.2684592619023E-01  3.3519472764903E-01
35  3.4000000000000E-01  1.6249281249529E+00  5.9000867272289E-01  2.2547638778387E-01
36  3.5000000000000E-01  1.5699620204722E+00  6.5488353163507E-01  1.1109738998593E-01
37  3.6000000000000E-01  1.5095134872598E+00  7.2157964744776E-01 -4.1065099108120E-03
38  3.7000000000000E-01  1.4437733246185E+00  7.9016794044625E-01 -1.1627106057556E-01
39  3.8000000000000E-01  1.3729720560143E+00  8.6066538444772E-01 -2.2162647750517E-01
40  3.9000000000000E-01  1.2973836856107E+00  9.3302059785942E-01 -3.1661729656454E-01
41  4.0000000000000E-01  1.2173286365277E+00  1.0071013199663E+00 -3.9801531942191E-01
42  4.1000000000000E-01  1.1331757011825E+00  1.0826842884905E+00 -4.6302207899688E-01
43  4.2000000000000E-01  1.0453428617580E+00  1.1594479606355E+00 -5.0935759442579E-01
44  4.3000000000000E-01  9.5429687179990E-01  1.2369684304200E+00 -5.3533262913756E-01
45  4.4000000000000E-01  8.6055152714471E-01  1.3147187929917E+00 -5.3990219794156E-01
46  4.5000000000000E-01  7.6466459463077E-01  1.3920720951200E+00 -5.2269867210536E-01
47  4.6000000000000E-01  6.6723340906617E-01  1.4683078938359E+00 -4.8404348566321E-01
48  4.7000000000000E-01  5.6888919134485E-01  1.5426223260897E+00 -4.2493713027544E-01
49  4.8000000000000E-01  4.7029018204285E-01  1.6141414752520E+00 -3.4702781769196E-01
50  4.9000000000000E-01  3.7211372392254E-01  1.6819377091996E+00 -2.5255986577028E-01
51  5.0000000000000E-01  2.7504746223536E-01  1.7450485632886E+00 -1.4430350421768E-01
52  5.1000000000000E-01  1.7977986236266E-01  1.8024976531334E+00 -2.5468379119970E-02
53  5.2000000000000E-01  8.6990269140771E-02  1.8533170297496E+00  1.0039645783388E-01
54  5.3000000000000E-01 -2.6612496567010E-03  1.8965703357271E+00  2.2951287478485E-01
55  5.4000000000000E-01 -8.8544022385785E-02  1.9313760875282E+00  3.5799078965269E-01
56  5.5000000000000E-01 -1.7006659872427E-01  1.9569303969064E+00  4.8194839965374E-01
57  5.6000000000000E-01 -2.4668602926225E-01  1.9725284542909E+00  5.9763173112169E-01
58  5.7000000000000E-01 -3.1791636016504E-01  1.9775841284878E+00  7.0152977817240E-01
59  5.8000000000000E-01 -3.8333612331352E-01  1.9716470892275E+00  7.9048166638752E-01
60  5.9000000000000E-01 -4.4259462877649E-01  1.9544169302606E+00  8.6177255889924E-01
61  6.0000000000000E-01 -4.9541689879675E-01  1.9257538585441E+00  9.1321540692317E-01
62  6.1000000000000E-01 -5.4160711965972E-01  1.8856856167194E+00  9.4321612168081E-01
63  6.2000000000000E-01 -5.8105052866737E-01  1.8344104182220E+00  9.5082029329968E-01
64  6.3000000000000E-01 -6.1371369666885E-01  1.7722957933373E+00  9.3574018620103E-01
65  6.4000000000000E-01 -6.3964321082154E-01  1.6998733664261E+00  8.9836137921115E-01
66  6.5000000000000E-01 -6.5896280607515E-01  1.6178297054376E+00  8.3972907087820E-01
67  6.6000000000000E-01 -6.7186903590511E-01  1.5269935007793E+00  7.6151471456030E-01
68  6.7000000000000E-01 -6.7862561175469E-01  1.4283194378905E+00  6.6596426260716E-01
69  6.8000000000000E-01 -6.7955657527747E-01  1.3228692230449E+00  5.5582986435534E-01
70  6.9000000000000E-01 -6.7503849674663E-01  1.2117903019777E+00  4.3428736049564E-01
71  7.0000000000000E-01 -6.6549191605107E-01  1.0962928734176E+00  3.0484233093226E-01
72  7.1000000000000E-01 -6.5137225887102E-01  9.7762584262243E-01  1.7122777167868E-01
73  7.2000000000000E-01 -6.3316046950032E-01  8.5705238235124E-01  3.7296689261112E-02
74  7.3000000000000E-01 -6.1135360317549E-01  7.3582576983916E-01 -9.3086997366511E-02
75  7.4000000000000E-01 -5.8645561475851E-01  6.1516614846056E-01 -2.1615586914891E-01
76  7.5000000000000E-01 -5.5896856750990E-01  4.9623882275855E-01 -3.2834147851873E-01
77  7.6000000000000E-01 -5.2938446602439E-01  3.8013463692414E-01 -4.2636885443492E-01
78  7.7000000000000E-01 -4.9817789192940E-01  2.6785291176191E-01 -5.0734034106662E-01
79  7.8000000000000E-01 -4.6579959059439E-01  1.6028732633707E-01 -5.6880648092021E-01
80  7.9000000000000E-01 -4.3267112293490E-01  5.8215030928460E-02 -6.0882213348608E-01
81  8.0000000000000E-01 -3.9918065959599E-01 -3.7710829002446E-02 -6.2598655328912E-01
82  8.1000000000000E-01 -3.6567995659761E-01 -1.2696510882294E-01 -6.1946671795950E-01
83  8.2000000000000E-01 -3.3248251318419E-01 -2.0915122256168E-01 -5.8900377784732E-01
84  8.3000000000000E-01 -2.9986287537122E-01 -2.8399841183162E-01 -5.3490307397503E-01
85  8.4000000000000E-01 -2.6805701369637E-01 -3.5135597571032E-01 -4.5800872109529E-01
86  8.5000000000000E-01 -2.3726367203370E-01 -4.1118480209835E-01 -3.5966425871343E-01
87  8.6000000000000E-01 -2.0764655695297E-01 -4.6354661903923E-01 -2.4166131797464E-01
88  8.7000000000000E-01 -1.7933721478434E-01 -5.0859144746061E-01 -1.0617862115579E-01
89  8.8000000000000E-01 -1.5243842688224E-01 -5.4654378299958E-01  4.4286089695265E-02
90  8.9000000000000E-01 -1.2702794298652E-01 -5.7768806275580E-01  2.0698841788705E-01
91  9.0000000000000E-01 -1.0316236827511E-01 -6.0235398227929E-01  3.7901112004861E-01
92  9.1000000000000E-01 -8.0881021727502E-02 -6.2090221868603E-01  5.5733654352336E-01
93  9.2000000000000E-01 -6.0209591633433E-02 -6.3371108784925E-01  7.3891503062673E-01
94  9.3000000000000E-01 -4.1163428194959E-02 -6.4116461793676E-01  9.2072689075152E-01
95  9.4000000000000E-01 -2.3750332765844E-02 -6.4364245931154E-01  1.0998359148529E+00
96  9.5000000000000E-01 -7.9727278371559E-03 -6.4151197343939E-01  1.2734328857824E+00
97  9.6000000000000E-01  6.1708791601320E-03 -6.3512275258296E-01  1.4388681163205E+00
98  9.7000000000000E-01  1.8685192389645E-02 -6.2480371938568E-01  1.5936727179870E+00
99  9.8000000000000E-01  2.9578202628299E-02 -6.1086284265101E-01  1.7355690605432E+00
100  9.9000000000000E-01  3.8862020165325E-02 -5.9358938413125E-01  1.8624717182539E+00
101  1.0000000000000E+00  4.6554403900040E-02 -5.7325846220312E-01  1.9724811085114E+00
102  1.0100000000000E+00  5.2680881808172E-02 -5.5013758272076E-01  2.0638730072567E+00
103  1.0200000000000E+00  5.7277312864071E-02 -5.2449464558078E-01  2.1350881704528E+00
104  1.0300000000000E+00  6.0392693298545E-02 -4.9660678712845E-01  2.1847274038368E+00
105  1.0400000000000E+00  6.2091960508837E-02 -4.6676926294998E-01  2.2115586048194E+00
106  1.0500000000000E+00  6.2458495461439E-02 -4.3530341135041E-01  2.2145435564051E+00
107  1.0600000000000E+00  6.1595968084378E-02 -4.0256256226560E-01  2.1928935957929E+00
108  1.0700000000000E+00  5.9629109108741E-02 -3.6893456733419E-01  2.1461647164544E+00
109  1.0800000000000E+00  5.6702924629457E-02 -3.3483942027982E-01  2.0744042112176E+00
110  1.0900000000000E+00  5.2979794209940E-02 -3.0072020609811E-01  1.9783627105111E+00
111  1.1000000000000E+00  4.8633818178577E-02 -2.6702540373423E-01  1.8597857697563E+00
112  1.1100000000000E+00  4.3841773927627E-02 -2.3418069658236E-01  1.7217846862608E+00
113  1.1200000000000E+00  3.8774649930333E-02 -2.0256840674231E-01  1.5686142741593E+00
114  1.1300000000000E+00  3.3595803942301E-02 -1.7253437181455E-01  1.4047279816906E+00
115  1.1400000000000E+00  2.8458995559506E-02 -1.4438897852230E-01  1.2345233869205E+00
116  1.1500000000000E+00  2.3505598059540E-02 -1.1840401621699E-01  1.0622834815106E+00
117  1.1600000000000E+00  1.8861656770094E-02 -9.4808927841421E-02  8.9212250591758E-01
118  1.1700000000000E+00  1.4634870931309E-02 -7.3786601852964E-02  7.2793750670863E-01
119  1.1800000000000E+00  1.0911527301861E-02 -5.5468724643701E-02  5.7336617999885E-01
120  1.1900000000000E+00  7.7492303063576E-03 -3.9919609417527E-02  4.3177284541952E-01
121  1.2000000000000E+00  5.1192491650690E-03 -2.6983719273938E-02  3.0649831754733E-01
122  1.2100000000000E+00  3.0450759063996E-03 -1.6658293353896E-02  2.0011346388474E-01
123  1.2200000000000E+00  1.5485190575966E-03 -8.9547386008905E-03  1.1466958686279E-01
124  1.2300000000000E+00  6.0100427975099E-04 -3.7700272092734E-03  5.1940107508026E-02
125  1.2400000000000E+00  1.2509346857352E-04 -8.8415162607890E-04  1.3235727464976E-02
126  1.2500000000000E+00  3.5535308700933E-07 -2.8611024053311E-06  4.4983179027474E-05
127  1.2600000000000E+00  7.4888027925307E-07 -6.0642139842978E-06  9.7925765775570E-05
128  1.2700000000000E+00 -1.4702639689049E-07  1.0904086842894E-06 -1.6807312432578E-05
129  1.28  0.  0.  0.
130  1.29  0.  0.  0.
131  1.30  0.  0.  0.
132  1.31  0.  0.  0.
133  1.32  0.  0.  0.
134  1.33  0.  0.  0.
135  1.34  0.  0.  0.
136  1.35  0.  0.  0.
137  1.36  0.  0.  0.
138  1.37  0.  0.  0.
139  1.38  0.  0.  0.
140  1.39  0.  0.  0.
141  1.40  0.  0.  0.
142  1.41  0.  0.  0.
143  1.42  0.  0.  0.
144  1.43  0.  0.  0.
145  1.44  0.  0.  0.
146  1.45  0.  0.  0.
147  1.46  0.  0.  0.
148  1.47  0.  0.  0.
149  1.48  0.  0.  0.
150  1.49  0.  0.  0.
151  1.50  0.  0.  0.
152  1.51  0.  0.  0.
153  1.52  0.  0.  0.
154  1.53  0.  0.  0.
155  1.54  0.  0.  0.
156  1.55  0.  0.  0.
157  1.56  0.  0.  0.
158  1.57  0.  0.  0.
159  1.58  0.  0.  0.
160  1.59  0.  0.  0.
161  1.60  0.  0.  0.
162  1.61  0.  0.  0.
163  1.62  0.  0.  0.
164  1.63  0.  0.  0.
165  1.64  0.  0.  0.
166  1.65  0.  0.  0.
167  1.66  0.  0.  0.
168  1.67  0.  0.  0.
169  1.68  0.  0.  0.
170  1.69  0.  0.  0.
171  1.70  0.  0.  0.
172  1.71  0.  0.  0.
173  1.72  0.  0.  0.
174  1.73  0.  0.  0.
175  1.74  0.  0.  0.
176  1.75  0.  0.  0.
177  1.76  0.  0.  0.
178  1.77  0.  0.  0.
179  1.78  0.  0.  0.
180  1.79  0.  0.  0.
181  1.80  0.  0.  0.
182  1.81  0.  0.  0.
183  1.82  0.  0.  0.
184  1.83  0.  0.  0.
185  1.84  0.  0.  0.
186  1.85  0.  0.  0.
187  1.86  0.  0.  0.
188  1.87  0.  0.  0.
189  1.88  0.  0.  0.
190  1.89  0.  0.  0.
191  1.90  0.  0.  0.
192  1.91  0.  0.  0.
193  1.92  0.  0.  0.
194  1.93  0.  0.  0.
195  1.94  0.  0.  0.
196  1.95  0.  0.  0.
197  1.96  0.  0.  0.
198  1.97  0.  0.  0.
199  1.98  0.  0.  0.
200  1.99  0.  0.  0.
201  2.00  0.  0.  0.
202  2.01  0.  0.  0.
203  2.02  0.  0.  0.
204  2.03  0.  0.  0.
205  2.04  0.  0.  0.
206  2.05  0.  0.  0.
207  2.06  0.  0.  0.
208  2.07  0.  0.  0.
209  2.08  0.  0.  0.
210  2.09  0.  0.  0.
211  2.10  0.  0.  0.
212  2.11  0.  0.  0.
213  2.12  0.  0.  0.
214  2.13  0.  0.  0.
215  2.14  0.  0.  0.
216  2.15  0.  0.  0.
217  2.16  0.  0.  0.
218  2.17  0.  0.  0.
219  2.18  0.  0.  0.
220  2.19  0.  0.  0.
221  2.20  0.  0.  0.
222  2.21  0.  0.  0.
223  2.22  0.  0.  0.
224  2.23  0.  0.  0.
225  2.24  0.  0.  0.
226  2.25  0.  0.  0.
227  2.26  0.  0.  0.
228  2.27  0.  0.  0.
229  2.28  0.  0.  0.
230  2.29  0.  0.  0.
231  2.30  0.  0.  0.
232  2.31  0.  0.  0.
233  2.32  0.  0.  0.
234  2.33  0.  0.  0.
235  2.34  0.  0.  0.
236  2.35  0.  0.  0.
237  2.36  0.  0.  0.
238  2.37  0.  0.  0.
239  2.38  0.  0.  0.
240  2.39  0.  0.  0.
241  2.40  0.  0.  0.
242  2.41  0.  0.  0.
243  2.42  0.  0.  0.
244  2.43  0.  0.  0.
245  2.44  0.  0.  0.
246  2.45  0.  0.  0.
247  2.46  0.  0.  0.
248  2.47  0.  0.  0.
249  2.48  0.  0.  0.
250  2.49  0.  0.  0.
251  2.50  0.  0.  0.
252  2.51  0.  0.  0.
253  2.52  0.  0.  0.
254  2.53  0.  0.  0.
255  2.54  0.  0.  0.
256  2.55  0.  0.  0.
257  2.56  0.  0.  0.
258  2.57  0.  0.  0.
259  2.58  0.  0.  0.
260  2.59  0.  0.  0.
261  2.60  0.  0.  0.
262  2.61  0.  0.  0.
263  2.62  0.  0.  0.
264  2.63  0.  0.  0.
265  2.64  0.  0.  0.
266  2.65  0.  0.  0.
267  2.66  0.  0.  0.
268  2.67  0.  0.  0.
269  2.68  0.  0.  0.
270  2.69  0.  0.  0.
271  2.70  0.  0.  0.
272  2.71  0.  0.  0.
273  2.72  0.  0.  0.
274  2.73  0.  0.  0.
275  2.74  0.  0.  0.
276  2.75  0.  0.  0.
277  2.76  0.  0.  0.
278  2.77  0.  0.  0.
279  2.78  0.  0.  0.
280  2.79  0.  0.  0.
281  2.80  0.  0.  0.
282  2.81  0.  0.  0.
283  2.82  0.  0.  0.
284  2.83  0.  0.  0.
285  2.84  0.  0.  0.
286  2.85  0.  0.  0.
287  2.86  0.  0.  0.
288  2.87  0.  0.  0.
289  2.88  0.  0.  0.
290  2.89  0.  0.  0.
291  2.90  0.  0.  0.
292  2.91  0.  0.  0.
293  2.92  0.  0.  0.
294  2.93  0.  0.  0.
295  2.94  0.  0.  0.
296  2.95  0.  0.  0.
297  2.96  0.  0.  0.
298  2.97  0.  0.  0.
299  2.98  0.  0.  0.
300  2.99  0.  0.  0.
301  3.00  0.  0.  0.
302  3.01  0.  0.  0.
303  3.02  0.  0.  0.
304  3.03  0.  0.  0.
305  3.04  0.  0.  0.
306  3.05  0.  0.  0.
307  3.06  0.  0.  0.
308  3.07  0.  0.  0.
309  3.08  0.  0.  0.
310  3.09  0.  0.  0.
311  3.10  0.  0.  0.
312  3.11  0.  0.  0.
313  3.12  0.  0.  0.
314  3.13  0.  0.  0.
315  3.14  0.  0.  0.
316  3.15  0.  0.  0.
317  3.16  0.  0.  0.
318  3.17  0.  0.  0.
319  3.18  0.  0.  0.
320  3.19  0.  0.  0.
321  3.20  0.  0.  0.
322  3.21  0.  0.  0.
323  3.22  0.  0.  0.
324  3.23  0.  0.  0.
325  3.24  0.  0.  0.
326  3.25  0.  0.  0.
327  3.26  0.  0.  0.
328  3.27  0.  0.  0.
329  3.28  0.  0.  0.
330  3.29  0.  0.  0.
331  3.30  0.  0.  0.
332  3.31  0.  0.  0.
333  3.32  0.  0.  0.
334  3.33  0.  0.  0.
335  3.34  0.  0.  0.
336  3.35  0.  0.  0.
337  3.36  0.  0.  0.
338  3.37  0.  0.  0.
339  3.38  0.  0.  0.
340  3.39  0.  0.  0.
341  3.40  0.  0.  0.
342  3.41  0.  0.  0.
343  3.42  0.  0.  0.
344  3.43  0.  0.  0.
345  3.44  0.  0.  0.
346  3.45  0.  0.  0.
347  3.46  0.  0.  0.
348  3.47  0.  0.  0.
349  3.48  0.  0.  0.
350  3.49  0.  0.  0.
351  3.50  0.  0.  0.
352  3.51  0.  0.  0.
353  3.52  0.  0.  0.
354  3.53  0.  0.  0.
355  3.54  0.  0.  0.
356  3.55  0.  0.  0.
357  3.56  0.  0.  0.
358  3.57  0.  0.  0.
359  3.58  0.  0.  0.
360  3.59  0.  0.  0.
361  3.60  0.  0.  0.
362  3.61  0.  0.  0.
363  3.62  0.  0.  0.
364  3.63  0.  0.  0.
365  3.64  0.  0.  0.
366  3.65  0.  0.  0.
367  3.66  0.  0.  0.
368  3.67  0.  0.  0.
369  3.68  0.  0.  0.
370  3.69  0.  0.  0.
371  3.70  0.  0.  0.
372  3.71  0.  0.  0.
373  3.72  0.  0.  0.
374  3.73  0.  0.  0.
375  3.74  0.  0.  0.
376  3.75  0.  0.  0.
377  3.76  0.  0.  0.
378  3.77  0.  0.  0.
379  3.78  0.  0.  0.
380  3.79  0.  0.  0.
381  3.80  0.  0.  0.
382  3.81  0.  0.  0.
383  3.82  0.  0.  0.
384  3.83  0.  0.  0.
385  3.84  0.  0.  0.
386  3.85  0.  0.  0.
387  3.86  0.  0.  0.
388  3.87  0.  0.  0.
389  3.88  0.  0.  0.
390  3.89  0.  0.  0.
391  3.90  0.  0.  0.
392  3.91  0.  0.  0.
393  3.92  0.  0.  0.
394  3.93  0.  0.  0.
395  3.94  0.  0.  0.
396  3.95  0.  0.  0.
397  3.96  0.  0.  0.
398  3.97  0.  0.  0.
399  3.98  0.  0.  0.
400  3.99  0.  0.  0.
401  4.00  0.  0.  0.
402  4.01  0.  0.  0.
403  4.02  0.  0.  0.
404  4.03  0.  0.  0.
405  4.04  0.  0.  0.
406  4.05  0.  0.  0.
407  4.06  0.  0.  0.
408  4.07  0.  0.  0.
409  4.08  0.  0.  0.
410  4.09  0.  0.  0.
411  4.10  0.  0.  0.
412  4.11  0.  0.  0.
413  4.12  0.  0.  0.
414  4.13  0.  0.  0.
415  4.14  0.  0.  0.
416  4.15  0.  0.  0.
417  4.16  0.  0.  0.
418  4.17  0.  0.  0.
419  4.18  0.  0.  0.
420  4.19  0.  0.  0.
421  4.20  0.  0.  0.
422  4.21  0.  0.  0.
423  4.22  0.  0.  0.
424  4.23  0.  0.  0.
425  4.24  0.  0.  0.
426  4.25  0.  0.  0.
427  4.26  0.  0.  0.
428  4.27  0.  0.  0.
429  4.28  0.  0.  0.
430  4.29  0.  0.  0.
431  4.30  0.  0.  0.
432  4.31  0.  0.  0.
433  4.32  0.  0.  0.
434  4.33  0.  0.  0.
435  4.34  0.  0.  0.
436  4.35  0.  0.  0.
437  4.36  0.  0.  0.
438  4.37  0.  0.  0.
439  4.38  0.  0.  0.
440  4.39  0.  0.  0.
441  4.40  0.  0.  0.
442  4.41  0.  0.  0.
443  4.42  0.  0.  0.
444  4.43  0.  0.  0.
445  4.44  0.  0.  0.
446  4.45  0.  0.  0.
447  4.46  0.  0.  0.
448  4.47  0.  0.  0.
449  4.48  0.  0.  0.
450  4.49  0.  0.  0.
451  4.50  0.  0.  0.
452  4.51  0.  0.  0.
453  4.52  0.  0.  0.
454  4.53  0.  0.  0.
455  4.54  0.  0.  0.
456  4.55  0.  0.  0.
457  4.56  0.  0.  0.
458  4.57  0.  0.  0.
459  4.58  0.  0.  0.
460  4.59  0.  0.  0.
461  4.60  0.  0.  0.
462  4.61  0.  0.  0.
463  4.62  0.  0.  0.
464  4.63  0.  0.  0.
465  4.64  0.  0.  0.
466  4.65  0.  0.  0.
467  4.66  0.  0.  0.
468  4.67  0.  0.  0.
469  4.68  0.  0.  0.
470  4.69  0.  0.  0.
471  4.70  0.  0.  0.
472  4.71  0.  0.  0.
473  4.72  0.  0.  0.
474  4.73  0.  0.  0.
475  4.74  0.  0.  0.
476  4.75  0.  0.  0.
477  4.76  0.  0.  0.
478  4.77  0.  0.  0.
479  4.78  0.  0.  0.
480  4.79  0.  0.  0.
481  4.80  0.  0.  0.
482  4.81  0.  0.  0.
483  4.82  0.  0.  0.
484  4.83  0.  0.  0.
485  4.84  0.  0.  0.
486  4.85  0.  0.  0.
487  4.86  0.  0.  0.
488  4.87  0.  0.  0.
489  4.88  0.  0.  0.
490  4.89  0.  0.  0.
491  4.90  0.  0.  0.
492  4.91  0.  0.  0.
493  4.92  0.  0.  0.
494  4.93  0.  0.  0.
495  4.94  0.  0.  0.
496  4.95  0.  0.  0.
497  4.96  0.  0.  0.
498  4.97  0.  0.  0.
499  4.98  0.  0.  0.
500  4.99  0.  0.  0.
501  5.00  0.  0.  0.
502  5.01  0.  0.  0.
503  5.02  0.  0.  0.
504  5.03  0.  0.  0.
505  5.04  0.  0.  0.
506  5.05  0.  0.  0.
507  5.06  0.  0.  0.
508  5.07  0.  0.  0.
509  5.08  0.  0.  0.
510  5.09  0.  0.  0.
511  5.10  0.  0.  0.
512  5.11  0.  0.  0.
513  5.12  0.  0.  0.
514  5.13  0.  0.  0.
515  5.14  0.  0.  0.
516  5.15  0.  0.  0.
517  5.16  0.  0.  0.
518  5.17  0.  0.  0.
519  5.18  0.  0.  0.
520  5.19  0.  0.  0.
521  5.20  0.  0.  0.
522  5.21  0.  0.  0.
523  5.22  0.  0.  0.
524  5.23  0.  0.  0.
525  5.24  0.  0.  0.
526  5.25  0.  0.  0.
527  5.26  0.  0.  0.
528  5.27  0.  0.  0.
529  5.28  0.  0.  0.
530  5.29  0.  0.  0.
531  5.30  0.  0.  0.
532  5.31  0.  0.  0.
533  5.32  0.  0.  0.
534  5.33  0.  0.  0.
535  5.34  0.  0.  0.
536  5.35  0.  0.  0.
537  5.36  0.  0.  0.
538  5.37  0.  0.  0.
539  5.38  0.  0.  0.
540  5.39  0.  0.  0.
541  5.40  0.  0.  0.
542  5.41  0.  0.  0.
543  5.42  0.  0.  0.
544  5.43  0.  0.  0.
545  5.44  0.  0.  0.
546  5.45  0.  0.  0.
547  5.46  0.  0.  0.
548  5.47  0.  0.  0.
549  5.48  0.  0.  0.
550  5.49  0.  0.  0.
551  5.50  0.  0.  0.
552  5.51  0.  0.  0.
553  5.52  0.  0.  0.
554  5.53  0.  0.  0.
555  5.54  0.  0.  0.
556  5.55  0.  0.  0.
557  5.56  0.  0.  0.
558  5.57  0.  0.  0.
559  5.58  0.  0.  0.
560  5.59  0.  0.  0.
561  5.60  0.  0.  0.
562  5.61  0.  0.  0.
563  5.62  0.  0.  0.
564  5.63  0.  0.  0.
565  5.64  0.  0.  0.
566  5.65  0.  0.  0.
567  5.66  0.  0.  0.
568  5.67  0.  0.  0.
569  5.68  0.  0.  0.
570  5.69  0.  0.  0.
571  5.70  0.  0.  0.
572  5.71  0.  0.  0.
573  5.72  0.  0.  0.
574  5.73  0.  0.  0.
575  5.74  0.  0.  0.
576  5.75  0.  0.  0.
577  5.76  0.  0.  0.
578  5.77  0.  0.  0.
579  5.78  0.  0.  0.
580  5.79  0.  0.  0.
581  5.80  0.  0.  0.
582  5.81  0.  0.  0.
583  5.82  0.  0.  0.
584  5.83  0.  0.  0.
585  5.84  0.  0.  0.
586  5.85  0.  0.  0.
587  5.86  0.  0.  0.
588  5.87  0.  0.  0.
589  5.88  0.  0.  0.
590  5.89  0.  0.  0.
591  5.90  0.  0.  0.
592  5.91  0.  0.  0.
593  5.92  0.  0.  0.
594  5.93  0.  0.  0.
595  5.94  0.  0.  0.
596  5.95  0.  0.  0.
597  5.96  0.  0.  0.
598  5.97  0.  0.  0.
599  5.98  0.  0.  0.
600  5.99  0.  0.  0.
1                         1.1773614795877E+01  1.2540665059798E+00 -6.6494768116209E-02
1  0.0000000000000E+00 -1.2701613150146E-08  4.1346376711271E-08 -6.3502621189260E-08
2  1.0000000000000E-02  3.1557551411707E-03 -6.5004525114910E-04  5.2765680268743E-04
3  2.0000000000000E-02  1.2607373603146E-02 -2.6073560192090E-03  2.1306002007304E-03
4  3.0000000000000E-02  2.8307784730272E-02 -5.8927464143919E-03  4.8676134356529E-03
5  4.0000000000000E-02  5.0178113570795E-02 -1.0538564619150E-02  8.8329255422318E-03
6  5.0000000000000E-02  7.8107075270318E-02 -1.6585276183718E-02  1.4150744916670E-02
7  6.0000000000000E-02  1.1195018649118E-01 -2.4076869938335E-02  2.0967897456807E-02
8  7.0000000000000E-02  1.5152885060543E-01 -3.3055268234075E-02  2.9444848695028E-02
9  8.0000000000000E-02  1.9662938611078E-01 -4.3553964570591E-02  3.9745452847145E-02
10  9.0000000000000E-02  2.4700207793969E-01 -5.5591145545061E-02  5.2025823665156E-02
11  1.0000000000000E-01  3.0236033868498E-01 -6.9162579293604E-02  6.6422760615284E-02
12  1.1000000000000E-01  3.6238007095534E-01 -8.4234568298441E-02  8.3042187827260E-02
13  1.2000000000000E-01  4.2669932290531E-01 -1.0073727000492E-01  1.0194807157326E-01
14  1.3000000000000E-01  4.9491832636960E-01 -1.1855868385918E-01  1.2315227432742E-01
15  1.4000000000000E-01  5.6660000099375E-01 -1.3753958819503E-01  1.4660577983964E-01
16  1.5000000000000E-01  6.4127099842683E-01 -1.5746968525865E-01  1.7219168475300E-01
17  1.6000000000000E-01  7.1842334826889E-01 -1.7808517827099E-01  1.9972029922685E-01
18  1.7000000000000E-01  7.9751675238939E-01 -1.9906796180424E-01  2.2892663338620E-01
19  1.8000000000000E-01  8.7798155688726E-01 -2.2004655717521E-01  2.5947047021530E-01
20  1.9000000000000E-01  9.5922241186184E-01 -2.4059886955585E-01  2.9093914112076E-01
21  2.0000000000000E-01  1.0406226088831E+00 -2.6025678477881E-01  3.2285303047085E-01
22  2.1000000000000E-01  1.1215490652122E+00 -2.7851256322093E-01  3.5467374284341E-01
23  2.2000000000000E-01  1.2013579030785E+00 -2.9482692760889E-01  3.8581477447678E-01
24  2.3000000000000E-01  1.2794005523273E+00 -3.0863868305918E-01  4.1565444153610E-01
25  2.4000000000000E-01  1.3550302861534E+00 -3.1937565304860E-01  4.4355073523001E-01
26  2.5000000000000E-01  1.4276090830429E+00 -3.2646666612557E-01  4.6885770033126E-01
27  2.6000000000000E-01  1.4965146940215E+00 -3.2935428666764E-01  4.9094287180315E-01
28  2.7000000000000E-01  1.5611477833308E+00 -3.2750795031155E-01  5.0920525621501E-01
29  2.8000000000000E-01  1.6209390031357E+00 -3.2043714201100E-01  5.2309331223212E-01
30  2.9000000000000E-01  1.6753558591004E+00 -3.0770424289803E-01  5.3212236900970E-01
31  3.0000000000000E-01  1.7239092238502E+00 -2.8893667178875E-01  5.3589092360239E-01
32  3.1000000000000E-01  1.7661593595315E+00 -2.6383795848115E-01  5.3409527876451E-01
33  3.2000000000000E-01  1.8017213188408E+00 -2.3219740877731E-01  5.2654202043669E-01
34  3.3000000000000E-01  1.8302696058485E+00 -1.9389805489321E-01  5.1315788889748E-01
35  3.4000000000000E-01  1.8515419933880E+00 -1.4892262871405E-01  4.9399666755903E-01
36  3.5000000000000E-01  1.8653424123302E+00 -9.7357347997574E-02  4.6924279675367E-01
37  3.6000000000000E-01  1.8715428491986E+00 -3.9393365612338E-02  4.3921151417571E-01
38  3.7000000000000E-01  1.8700842117179E+00  2.4674202542359E-02  4.0434542611303E-01
39  3.8000000000000E-01  1.8609761463719E+00  9.4449686119069E-02  3.6520752111358E-01
40  3.9000000000000E-01  1.8442958171607E+00  1.6944264992194E-01  3.2247074696651E-01
41  4.0000000000000E-01  1.8201856797625E+00  2.4907593905563E-01  2.7690437939915E-01
42  4.1000000000000E-01  1.7888503094815E+00  3.3269578705617E-01  2.2935751326963E-01
43  4.2000000000000E-01  1.7505523639665E+00  4.1958373236066E-01  1.8074010093345E-01
44  4.3000000000000E-01  1.7056077820524E+00  5.0897003342750E-01  1.3200204477163E-01
45  4.4000000000000E-01  1.6543803375681E+00  6.0004822662302E-01  8.4110918779853E-02
46  4.5000000000000E-01  1.5972756810509E+00  6.9199043520208E-01  3.8028945248865E-02
47  4.6000000000000E-01  1.5347350125613E+00  7.8396301358518E-01 -5.3101149827826E-03
48  4.7000000000000E-01  1.4672285348949E+00  8.7514209956801E-01 -4.5023487782313E-02
49  4.8000000000000E-01  1.3952488382390E+00  9.6472864860787E-01 -8.0300663846375E-02
50  4.9000000000000E-01  1.3193043646721E+00  1.0519625390104E+00 -1.1042279614098E-01
51  5.0000000000000E-01  1.2399130939331E+00  1.1361353643776E+00 -1.3477963238077E-01
52  5.1000000000000E-01  1.1575965808136E+00  1.2166015693381E+00 -1.5288346650004E-01
53  5.2000000000000E-01  1.0728744597055E+00  1.2927876352277E+00 -1.6437967837219E-01
54  5.3000000000000E-01  9.8625951374232E-01  1.3641990825341E+00 -1.6905353095948E-01
55  5.4000000000000E-01  8.9825338517714E-01  1.4304251247225E+00 -1.6683300567467E-01
56  5.5000000000000E-01  8.0934298083832E-01  1.4911408814452E+00 -1.5778757662381E-01
57  5.6000000000000E-01  7.1999760240839E-01  1.5461071357875E+00 -1.4212294889569E-01
58  5.7000000000000E-01  6.3066680669508E-01  1.5951676976941E+00 -1.2017191126467E-01
59  5.8000000000000E-01  5.4177897679729E-01  1.6382445115569E+00 -9.2381575613854E-02
60  5.9000000000000E-01  4.5374056192114E-01  1.6753307176576E+00 -5.9297390138465E-02
61  6.0000000000000E-01  3.6693592233881E-01  1.7064819423905E+00 -2.1544417205816E-02
62  6.1000000000000E-01  2.8172769731484E-01  1.7318061487617E+00  2.0193543815255E-02
63  6.2000000000000E-01  1.9845759837664E-01  1.7514524246496E+00  6.5196336416172E-02
64  6.3000000000000E-01  1.1744751860009E-01  1.7655991201333E+00  1.1273062504899E-01
65  6.4000000000000E-01  3.9000841012730E-02  1.7744417656329E+00  1.6207313670884E-01
66  6.5000000000000E-01 -3.6596173954698E-02  1.7781812088844E+00  2.1253322395201E-01
67  6.6000000000000E-01 -1.0907304070337E-01  1.7770124005645E+00  2.6347402351127E-01
68  6.7000000000000E-01 -1.7817385332926E-01  1.7711142358509E+00  3.1433152409347E-01
69  6.8000000000000E-01 -2.4365634599869E-01  1.7606408229770E+00  3.6463091855001E-01
70  6.9000000000000E-01 -3.0529129775414E-01  1.7457145010169E+00  4.1399969762926E-01
71  7.0000000000000E-01 -3.6286235327530E-01  1.7264208692404E+00  4.6217704250080E-01
72  7.1000000000000E-01 -4.1616631091512E-01  1.7028060213284E+00  5.0901918812702E-01
73  7.2000000000000E-01 -4.6501390702688E-01  1.6748761017523E+00  5.5450055577355E-01
74  7.3000000000000E-01 -5.0923110199341E-01  1.6425992212211E+00  5.9871058651778E-01
75  7.4000000000000E-01 -5.4866084930897E-01  1.6059096859028E+00  6.4184634430114E-01
76  7.5000000000000E-01 -5.8316530542503E-01  1.5647144139206E+00  6.8420109248259E-01
77  7.6000000000000E-01 -6.1262841571698E-01  1.5189013351066E+00  7.2614917762819E-01
78  7.7000000000000E-01 -6.3695879169031E-01  1.4683494988138E+00  7.6812767422022E-01
79  7.8000000000000E-01 -6.5609277718711E-01  1.4129405521672E+00  8.1061535016838E-01
80  7.9000000000000E-01 -6.6999758754336E-01  1.3525711996286E+00  8.5410960200801E-01
81  8.0000000000000E-01 -6.7867439593475E-01  1.2871662159442E+00  8.9910207756712E-01
82  8.1000000000000E-01 -6.8216123594023E-01  1.2166915597992E+00  9.4605375044015E-01
83  8.2000000000000E-01 -6.8053558889767E-01  1.1411671257077E+00  9.9537023332857E-01
84  8.3000000000000E-01 -6.7391652900346E-01  1.0606786771683E+00  1.0473781155151E+00
85  8.4000000000000E-01 -6.6246630821867E-01  9.7538852473778E-01  1.1023030835889E+00
86  8.5000000000000E-01 -6.4639127661334E-01  8.8554454770038E-01  1.1602505350277E+00
87  8.6000000000000E-01 -6.2594205135983E-01  7.9148720615482E-01  1.2211893232006E+00
88  8.7000000000000E-01 -6.0141286856503E-01  6.9365424987132E-01  1.2849391823821E+00
89  8.8000000000000E-01 -5.7314007575637E-01  5.9258289894586E-01  1.3511622757508E+00
90  8.9000000000000E-01 -5.4149974822641E-01  4.8890934650085E-01  1.4193591920095E+00
91  9.0000000000000E-01 -5.0690443861754E-01  3.8336551251250E-01  1.4888695915741E+00