Pa    ONCVPSP-4.0.1  r_core=   1.20608   1.20608   1.20608   1.20608
91.0000     61.0000      220330    zatom,zion,pspd
8      11   3     4   600     0    pspcod,pspxc,lmax,lloc,mmax,r2well
5.99000000  1.50000000  0.00000000    rchrg fchrg qchrg
3     3     3     2     0    nproj
1     1           extension_switch
0                         6.5986086542915E+01  4.0286245189979E+00 -7.4268031141263E-01
1  0.0000000000000E+00 -4.6879089277141E-08  1.4605397269385E-07  4.0929966638181E-09
2  1.0000000000000E-02  1.6998320160812E-01 -9.5909898141701E-02  2.5514985416603E-02
3  2.0000000000000E-02  3.3870126478393E-01 -1.8994779456702E-01  5.0808638184457E-02
4  3.0000000000000E-02  5.0490585182546E-01 -2.8028157969136E-01  7.5661454759493E-02
5  4.0000000000000E-02  6.6738183120295E-01 -3.6515776711091E-01  9.9857602360806E-02
6  5.0000000000000E-02  8.2496290528468E-01 -4.4293794259871E-01  1.2318678461296E-01
7  6.0000000000000E-02  9.7654610317302E-01 -5.1213188882512E-01  1.4544614039578E-01
8  7.0000000000000E-02  1.1211048182105E+00 -5.7142645808594E-01  1.6644218191651E-01
9  8.0000000000000E-02  1.2577001165952E+00 -6.1970941137555E-01  1.8599277392661E-01
10  9.0000000000000E-02  1.3854900988760E+00 -6.5608761440694E-01  2.0392915117881E-01
11  1.0000000000000E-01  1.5037371578815E+00 -6.7989917334287E-01  2.2009796584094E-01
12  1.1000000000000E-01  1.6118130426435E+00 -6.9071929804631E-01  2.3436335085199E-01
13  1.2000000000000E-01  1.7092017057378E+00 -6.8835989109796E-01  2.4660897934392E-01
14  1.3000000000000E-01  1.7954999787491E+00 -6.7286306901245E-01  2.5674009448652E-01
15  1.4000000000000E-01  1.8704161848782E+00 -6.4448902044675E-01  2.6468547867463E-01
16  1.5000000000000E-01  1.9337668567779E+00 -6.0369878758364E-01  2.7039932609012E-01
17  1.6000000000000E-01  1.9854717794585E+00 -5.5113271476281E-01  2.7386297855101E-01
18  1.7000000000000E-01  2.0255476207650E+00 -4.8758543721991E-01  2.7508648139657E-01
19  1.8000000000000E-01  2.0541004440579E+00 -4.1397837794783E-01  2.7410991412060E-01
20  1.9000000000000E-01  2.0713174183107E+00 -3.3133077901494E-01  2.7100444968873E-01
21  2.0000000000000E-01  2.0774580492556E+00 -2.4073031325449E-01  2.6587309706020E-01
22  2.1000000000000E-01  2.0728452513649E+00 -1.4330430276910E-01  2.5885108343892E-01
23  2.2000000000000E-01  2.0578565646591E+00 -4.0192513181142E-02  2.5010583622102E-01
24  2.3000000000000E-01  2.0329157933899E+00  6.7477600416678E-02  2.3983652945944E-01
25  2.4000000000000E-01  1.9984853067565E+00  1.7861244448098E-01  2.2827316586127E-01
26  2.5000000000000E-01  1.9550591965648E+00  2.9217003490832E-01  2.1567517276015E-01
27  2.6000000000000E-01  1.9031574350176E+00  4.0717351349394E-01  2.0232949901244E-01
28  2.7000000000000E-01  1.8433211197784E+00  5.2272019023417E-01  1.8854820916712E-01
29  2.8000000000000E-01  1.7761088353636E+00  6.3798606079458E-01  1.7466558133963E-01
30  2.9000000000000E-01  1.7020941021527E+00  7.5222593946334E-01  1.6103472573779E-01
31  3.0000000000000E-01  1.6218638292121E+00  8.6476953037132E-01  1.4802375148589E-01
32  3.1000000000000E-01  1.5360176369221E+00  9.7501392657588E-01  1.3601152000088E-01
33  3.2000000000000E-01  1.4451678721229E+00  1.0824131712570E+00  1.2538303342043E-01
34  3.3000000000000E-01  1.3499401038962E+00  1.1864656321269E+00  1.1652451619646E-01
35  3.4000000000000E-01  1.2509738635926E+00  1.2867000246492E+00  1.0981825669461E-01
36  3.5000000000000E-01  1.1489233793037E+00  1.3826609685225E+00  1.0563728323975E-01
37  3.6000000000000E-01  1.0444580532268E+00  1.4738949731819E+00  1.0433995530851E-01
38  3.7000000000000E-01  9.3826244038687E-01  1.5599377214113E+00  1.0626455530988E-01
39  3.8000000000000E-01  8.3103550859045E-01  1.6403034565650E+00  1.1172396946841E-01
40  3.9000000000000E-01  7.2348899146550E-01  1.7144771808956E+00  1.2100054762719E-01
41  4.0000000000000E-01  6.1634468773601E-01  1.7819102439356E+00  1.3434123125624E-01
42  4.1000000000000E-01  5.1033060885600E-01  1.8420197458632E+00  1.5195303656964E-01
43  4.2000000000000E-01  4.0617593182470E-01  1.8941920074113E+00  1.7399897544938E-01
44  4.3000000000000E-01  3.0460477223363E-01  1.9377901720274E+00  2.0059449091687E-01
45  4.4000000000000E-01  2.0632885199034E-01  1.9721658150938E+00  2.3180447629918E-01
46  4.5000000000000E-01  1.1203919429308E-01  1.9966742467389E+00  2.6764093815999E-01
47  4.6000000000000E-01  2.2397032895200E-02  2.0106930167042E+00  3.0806135269314E-01
48  4.7000000000000E-01 -6.1975828787120E-02  2.0136429691326E+00  3.5296775382811E-01
49  4.8000000000000E-01 -1.4050693269432E-01  2.0050110586706E+00  4.0220657901510E-01
50  4.9000000000000E-01 -2.1268304857157E-01  1.9843740326039E+00  4.5556928580230E-01
51  5.0000000000000E-01 -2.7805969772899E-01  1.9514220115470E+00  5.1279373916332E-01
52  5.1000000000000E-01 -3.3626998481302E-01  1.9059809667270E+00  5.7356635635177E-01
53  5.2000000000000E-01 -3.8703240989422E-01  1.8480330970498E+00  6.3752498313075E-01
54  5.3000000000000E-01 -4.3015735160293E-01  1.7777341541998E+00  7.0426246280804E-01
55  5.4000000000000E-01 -4.6555194286459E-01  1.6954268478378E+00  7.7333084785653E-01
56  5.5000000000000E-01 -4.9322310304714E-01  1.6016495827317E+00  8.4424619323836E-01
57  5.6000000000000E-01 -5.1327854267470E-01  1.4971399313028E+00  9.1649386108733E-01
58  5.7000000000000E-01 -5.2592561748149E-01  1.3828324231168E+00  9.8953425830549E-01
59  5.8000000000000E-01 -5.3146797535487E-01  1.2598504308185E+00  1.0628089220373E+00
60  5.9000000000000E-01 -5.3030001027310E-01  1.1294921426062E+00  1.1357468630026E+00
61  6.0000000000000E-01 -5.2289920910472E-01  9.9321082664430E-01  1.2077710733585E+00
62  6.1000000000000E-01 -5.0981654748317E-01  8.5258980472035E-01  1.2783051041580E+00
63  6.2000000000000E-01 -4.9166515728043E-01  7.0931275286038E-01  1.3467796175571E+00
64  6.3000000000000E-01 -4.6910754799711E-01  5.6513012783243E-01  1.4126388206642E+00
65  6.4000000000000E-01 -4.4284171538456E-01  4.2182267340515E-01  1.4753466912354E+00
66  6.5000000000000E-01 -4.1358651085868E-01  2.8116308278922E-01  1.5343929101984E+00
67  6.6000000000000E-01 -3.8206667317081E-01  1.4487697891981E-01  1.5892984220973E+00
68  6.7000000000000E-01 -3.4899793822929E-01  1.4604418558857E-02  1.6396205518399E+00
69  6.8000000000000E-01 -3.1507264327853E-01 -1.0813687242379E-01  1.6849576144220E+00
70  6.9000000000000E-01 -2.8094622770101E-01 -2.2198536727936E-01  1.7249529634123E+00
71  7.0000000000000E-01 -2.4722500493021E-01 -3.2576562904828E-01  1.7592984337198E+00
72  7.1000000000000E-01 -2.1445553924719E-01 -4.1851326629911E-01  1.7877371443239E+00
73  7.2000000000000E-01 -1.8311590899332E-01 -4.9949415541205E-01  1.8100656370413E+00
74  7.3000000000000E-01 -1.5360907579570E-01 -5.6821731924854E-01  1.8261353378292E+00
75  7.4000000000000E-01 -1.2625850996000E-01 -6.2444106319832E-01  1.8358533374118E+00
76  7.5000000000000E-01 -1.0130614774339E-01 -6.6817219581323E-01  1.8391824979824E+00
77  7.6000000000000E-01 -7.8912679430173E-02 -6.9965839434300E-01  1.8361409022307E+00
78  7.7000000000000E-01 -5.9160090779723E-02 -7.1937400689148E-01  1.8268006698321E+00
79  7.8000000000000E-01 -4.2056307256654E-02 -7.2799980410893E-01  1.8112861746930E+00
80  7.9000000000000E-01 -2.7541723120956E-02 -7.2639739620348E-01  1.7897717035715E+00
81  8.0000000000000E-01 -1.5497338390322E-02 -7.1557920806899E-01  1.7624786031157E+00
82  8.1000000000000E-01 -5.7541779922042E-03 -6.9667505000951E-01  1.7296719678075E+00
83  8.2000000000000E-01  1.8963691495080E-03 -6.7089642850723E-01  1.6916569257462E+00
84  8.3000000000000E-01  7.6916765388274E-03 -6.3949980687348E-01  1.6487745826218E+00
85  8.4000000000000E-01  1.1886866504500E-02 -6.0375004703528E-01  1.6013976866131E+00
86  8.5000000000000E-01  1.4744045635986E-02 -5.6488524046811E-01  1.5499260783189E+00
87  8.6000000000000E-01  1.6522158806687E-02 -5.2408406933796E-01  1.4947819902149E+00
88  8.7000000000000E-01  1.7467798516622E-02 -4.8243673088830E-01  1.4364052595744E+00
89  8.8000000000000E-01  1.7807261486179E-02 -4.4092031313531E-01  1.3752485173384E+00
90  8.9000000000000E-01  1.7740089415700E-02 -4.0037933356963E-01  1.3117724131557E+00
91  9.0000000000000E-01  1.7434267726123E-02 -3.6151195148693E-01  1.2464409337776E+00
92  9.1000000000000E-01  1.7023187350718E-02 -3.2486214640743E-01  1.1797168682943E+00
93  9.2000000000000E-01  1.6604402884432E-02 -2.9081792800479E-01  1.1120574693970E+00
94  9.3000000000000E-01  1.6240148355618E-02 -2.5961541560467E-01  1.0439103550441E+00
95  9.4000000000000E-01  1.5959502272283E-02 -2.3134840607802E-01  9.7570968968257E-01
96  9.5000000000000E-01  1.5762029035631E-02 -2.0598284602595E-01  9.0787267861765E-01
97  9.6000000000000E-01  1.5622666696183E-02 -1.8337544497126E-01  8.4079640332448E-01
98  9.7000000000000E-01  1.5497583447398E-02 -1.6329551735620E-01  7.7485501954649E-01
99  9.8000000000000E-01  1.5330688917912E-02 -1.4544902780546E-01  7.1039733401186E-01
100  9.9000000000000E-01  1.5060462480461E-02 -1.2950374020255E-01  6.4774476960806E-01
101  1.0000000000000E+00  1.4626750225312E-02 -1.1511433905250E-01  5.8718972297169E-01
102  1.0100000000000E+00  1.3977185179983E-02 -1.0194640204974E-01  5.2899431275247E-01
103  1.0200000000000E+00  1.3072901471047E-02 -8.9698154683445E-02  4.7338951138181E-01
104  1.0300000000000E+00  1.1893241678467E-02 -7.8119028746751E-02  4.2057464807619E-01
105  1.0400000000000E+00  1.0439196286452E-02 -6.7024172536146E-02  3.7071726611734E-01
106  1.0500000000000E+00  8.7353631295876E-03 -5.6304215801492E-02  3.2395331322871E-01
107  1.0600000000000E+00  6.8302711714320E-03 -4.5929771175436E-02  2.8038764016176E-01
108  1.0700000000000E+00  4.7949742415339E-03 -3.5950347724768E-02  2.4009477947841E-01
109  1.0800000000000E+00  2.7198841586318E-03 -2.6487554095657E-02  2.0311997399565E-01
110  1.0900000000000E+00  7.0987639343914E-04 -1.7722670349155E-02  1.6948042248157E-01
111  1.1000000000000E+00 -1.1222377572751E-03 -9.8788601162314E-03  1.3916670898567E-01
112  1.1100000000000E+00 -2.6637225534894E-03 -3.1984720434845E-03  1.1214438165530E-01
113  1.1200000000000E+00 -3.8112145330786E-03  2.0839671958303E-03  8.8355647043177E-02
114  1.1300000000000E+00 -4.4811532534973E-03  5.7725943323950E-03  6.7721109236005E-02
115  1.1400000000000E+00 -4.6203043609254E-03  7.7417956388104E-03  5.0141856793728E-02
116  1.1500000000000E+00 -4.2641817448053E-03  8.1093274633953E-03  3.5480877387676E-02
117  1.1600000000000E+00 -3.7348796602985E-03  7.8229446875993E-03  2.3483007715775E-02
118  1.1700000000000E+00 -2.9825713851542E-03  6.7200632716521E-03  1.4069872761778E-02
119  1.1800000000000E+00 -2.0087611872388E-03  4.7726131821836E-03  7.1630318584395E-03
120  1.1900000000000E+00 -9.6907549174750E-04  2.3933536959446E-03  2.6463495057875E-03
121  1.2000000000000E+00 -1.7669429083651E-04  4.4918745349449E-04  3.7455048730312E-04
122  1.2100000000000E+00  1.2326742279994E-05 -3.1808769343523E-05 -2.2105579564350E-05
123  1.2200000000000E+00 -8.6404665013256E-07  2.2156848404955E-06  1.6640299978030E-06
124  1.23 -0.  0. -0.
125  1.24  0.  0.  0.
126  1.25  0.  0.  0.
127  1.26  0.  0.  0.
128  1.27  0.  0.  0.
129  1.28  0.  0.  0.
130  1.29  0.  0.  0.
131  1.30  0.  0.  0.
132  1.31  0.  0.  0.
133  1.32  0.  0.  0.
134  1.33  0.  0.  0.
135  1.34  0.  0.  0.
136  1.35  0.  0.  0.
137  1.36  0.  0.  0.
138  1.37  0.  0.  0.
139  1.38  0.  0.  0.
140  1.39  0.  0.  0.
141  1.40  0.  0.  0.
142  1.41  0.  0.  0.
143  1.42  0.  0.  0.
144  1.43  0.  0.  0.
145  1.44  0.  0.  0.
146  1.45  0.  0.  0.
147  1.46  0.  0.  0.
148  1.47  0.  0.  0.
149  1.48  0.  0.  0.
150  1.49  0.  0.  0.
151  1.50  0.  0.  0.
152  1.51  0.  0.  0.
153  1.52  0.  0.  0.
154  1.53  0.  0.  0.
155  1.54  0.  0.  0.
156  1.55  0.  0.  0.
157  1.56  0.  0.  0.
158  1.57  0.  0.  0.
159  1.58  0.  0.  0.
160  1.59  0.  0.  0.
161  1.60  0.  0.  0.
162  1.61  0.  0.  0.
163  1.62  0.  0.  0.
164  1.63  0.  0.  0.
165  1.64  0.  0.  0.
166  1.65  0.  0.  0.
167  1.66  0.  0.  0.
168  1.67  0.  0.  0.
169  1.68  0.  0.  0.
170  1.69  0.  0.  0.
171  1.70  0.  0.  0.
172  1.71  0.  0.  0.
173  1.72  0.  0.  0.
174  1.73  0.  0.  0.
175  1.74  0.  0.  0.
176  1.75  0.  0.  0.
177  1.76  0.  0.  0.
178  1.77  0.  0.  0.
179  1.78  0.  0.  0.
180  1.79  0.  0.  0.
181  1.80  0.  0.  0.
182  1.81  0.  0.  0.
183  1.82  0.  0.  0.
184  1.83  0.  0.  0.
185  1.84  0.  0.  0.
186  1.85  0.  0.  0.
187  1.86  0.  0.  0.
188  1.87  0.  0.  0.
189  1.88  0.  0.  0.
190  1.89  0.  0.  0.
191  1.90  0.  0.  0.
192  1.91  0.  0.  0.
193  1.92  0.  0.  0.
194  1.93  0.  0.  0.
195  1.94  0.  0.  0.
196  1.95  0.  0.  0.
197  1.96  0.  0.  0.
198  1.97  0.  0.  0.
199  1.98  0.  0.  0.
200  1.99  0.  0.  0.
201  2.00  0.  0.  0.
202  2.01  0.  0.  0.
203  2.02  0.  0.  0.
204  2.03  0.  0.  0.
205  2.04  0.  0.  0.
206  2.05  0.  0.  0.
207  2.06  0.  0.  0.
208  2.07  0.  0.  0.
209  2.08  0.  0.  0.
210  2.09  0.  0.  0.
211  2.10  0.  0.  0.
212  2.11  0.  0.  0.
213  2.12  0.  0.  0.
214  2.13  0.  0.  0.
215  2.14  0.  0.  0.
216  2.15  0.  0.  0.
217  2.16  0.  0.  0.
218  2.17  0.  0.  0.
219  2.18  0.  0.  0.
220  2.19  0.  0.  0.
221  2.20  0.  0.  0.
222  2.21  0.  0.  0.
223  2.22  0.  0.  0.
224  2.23  0.  0.  0.
225  2.24  0.  0.  0.
226  2.25  0.  0.  0.
227  2.26  0.  0.  0.
228  2.27  0.  0.  0.
229  2.28  0.  0.  0.
230  2.29  0.  0.  0.
231  2.30  0.  0.  0.
232  2.31  0.  0.  0.
233  2.32  0.  0.  0.
234  2.33  0.  0.  0.
235  2.34  0.  0.  0.
236  2.35  0.  0.  0.
237  2.36  0.  0.  0.
238  2.37  0.  0.  0.
239  2.38  0.  0.  0.
240  2.39  0.  0.  0.
241  2.40  0.  0.  0.
242  2.41  0.  0.  0.
243  2.42  0.  0.  0.
244  2.43  0.  0.  0.
245  2.44  0.  0.  0.
246  2.45  0.  0.  0.
247  2.46  0.  0.  0.
248  2.47  0.  0.  0.
249  2.48  0.  0.  0.
250  2.49  0.  0.  0.
251  2.50  0.  0.  0.
252  2.51  0.  0.  0.
253  2.52  0.  0.  0.
254  2.53  0.  0.  0.
255  2.54  0.  0.  0.
256  2.55  0.  0.  0.
257  2.56  0.  0.  0.
258  2.57  0.  0.  0.
259  2.58  0.  0.  0.
260  2.59  0.  0.  0.
261  2.60  0.  0.  0.
262  2.61  0.  0.  0.
263  2.62  0.  0.  0.
264  2.63  0.  0.  0.
265  2.64  0.  0.  0.
266  2.65  0.  0.  0.
267  2.66  0.  0.  0.
268  2.67  0.  0.  0.
269  2.68  0.  0.  0.
270  2.69  0.  0.  0.
271  2.70  0.  0.  0.
272  2.71  0.  0.  0.
273  2.72  0.  0.  0.
274  2.73  0.  0.  0.
275  2.74  0.  0.  0.
276  2.75  0.  0.  0.
277  2.76  0.  0.  0.
278  2.77  0.  0.  0.
279  2.78  0.  0.  0.
280  2.79  0.  0.  0.
281  2.80  0.  0.  0.
282  2.81  0.  0.  0.
283  2.82  0.  0.  0.
284  2.83  0.  0.  0.
285  2.84  0.  0.  0.
286  2.85  0.  0.  0.
287  2.86  0.  0.  0.
288  2.87  0.  0.  0.
289  2.88  0.  0.  0.
290  2.89  0.  0.  0.
291  2.90  0.  0.  0.
292  2.91  0.  0.  0.
293  2.92  0.  0.  0.
294  2.93  0.  0.  0.
295  2.94  0.  0.  0.
296  2.95  0.  0.  0.
297  2.96  0.  0.  0.
298  2.97  0.  0.  0.
299  2.98  0.  0.  0.
300  2.99  0.  0.  0.
301  3.00  0.  0.  0.
302  3.01  0.  0.  0.
303  3.02  0.  0.  0.
304  3.03  0.  0.  0.
305  3.04  0.  0.  0.
306  3.05  0.  0.  0.
307  3.06  0.  0.  0.
308  3.07  0.  0.  0.
309  3.08  0.  0.  0.
310  3.09  0.  0.  0.
311  3.10  0.  0.  0.
312  3.11  0.  0.  0.
313  3.12  0.  0.  0.
314  3.13  0.  0.  0.
315  3.14  0.  0.  0.
316  3.15  0.  0.  0.
317  3.16  0.  0.  0.
318  3.17  0.  0.  0.
319  3.18  0.  0.  0.
320  3.19  0.  0.  0.
321  3.20  0.  0.  0.
322  3.21  0.  0.  0.
323  3.22  0.  0.  0.
324  3.23  0.  0.  0.
325  3.24  0.  0.  0.
326  3.25  0.  0.  0.
327  3.26  0.  0.  0.
328  3.27  0.  0.  0.
329  3.28  0.  0.  0.
330  3.29  0.  0.  0.
331  3.30  0.  0.  0.
332  3.31  0.  0.  0.
333  3.32  0.  0.  0.
334  3.33  0.  0.  0.
335  3.34  0.  0.  0.
336  3.35  0.  0.  0.
337  3.36  0.  0.  0.
338  3.37  0.  0.  0.
339  3.38  0.  0.  0.
340  3.39  0.  0.  0.
341  3.40  0.  0.  0.
342  3.41  0.  0.  0.
343  3.42  0.  0.  0.
344  3.43  0.  0.  0.
345  3.44  0.  0.  0.
346  3.45  0.  0.  0.
347  3.46  0.  0.  0.
348  3.47  0.  0.  0.
349  3.48  0.  0.  0.
350  3.49  0.  0.  0.
351  3.50  0.  0.  0.
352  3.51  0.  0.  0.
353  3.52  0.  0.  0.
354  3.53  0.  0.  0.
355  3.54  0.  0.  0.
356  3.55  0.  0.  0.
357  3.56  0.  0.  0.
358  3.57  0.  0.  0.
359  3.58  0.  0.  0.
360  3.59  0.  0.  0.
361  3.60  0.  0.  0.
362  3.61  0.  0.  0.
363  3.62  0.  0.  0.
364  3.63  0.  0.  0.
365  3.64  0.  0.  0.
366  3.65  0.  0.  0.
367  3.66  0.  0.  0.
368  3.67  0.  0.  0.
369  3.68  0.  0.  0.
370  3.69  0.  0.  0.
371  3.70  0.  0.  0.
372  3.71  0.  0.  0.
373  3.72  0.  0.  0.
374  3.73  0.  0.  0.
375  3.74  0.  0.  0.
376  3.75  0.  0.  0.
377  3.76  0.  0.  0.
378  3.77  0.  0.  0.
379  3.78  0.  0.  0.
380  3.79  0.  0.  0.
381  3.80  0.  0.  0.
382  3.81  0.  0.  0.
383  3.82  0.  0.  0.
384  3.83  0.  0.  0.
385  3.84  0.  0.  0.
386  3.85  0.  0.  0.
387  3.86  0.  0.  0.
388  3.87  0.  0.  0.
389  3.88  0.  0.  0.
390  3.89  0.  0.  0.
391  3.90  0.  0.  0.
392  3.91  0.  0.  0.
393  3.92  0.  0.  0.
394  3.93  0.  0.  0.
395  3.94  0.  0.  0.
396  3.95  0.  0.  0.
397  3.96  0.  0.  0.
398  3.97  0.  0.  0.
399  3.98  0.  0.  0.
400  3.99  0.  0.  0.
401  4.00  0.  0.  0.
402  4.01  0.  0.  0.
403  4.02  0.  0.  0.
404  4.03  0.  0.  0.
405  4.04  0.  0.  0.
406  4.05  0.  0.  0.
407  4.06  0.  0.  0.
408  4.07  0.  0.  0.
409  4.08  0.  0.  0.
410  4.09  0.  0.  0.
411  4.10  0.  0.  0.
412  4.11  0.  0.  0.
413  4.12  0.  0.  0.
414  4.13  0.  0.  0.
415  4.14  0.  0.  0.
416  4.15  0.  0.  0.
417  4.16  0.  0.  0.
418  4.17  0.  0.  0.
419  4.18  0.  0.  0.
420  4.19  0.  0.  0.
421  4.20  0.  0.  0.
422  4.21  0.  0.  0.
423  4.22  0.  0.  0.
424  4.23  0.  0.  0.
425  4.24  0.  0.  0.
426  4.25  0.  0.  0.
427  4.26  0.  0.  0.
428  4.27  0.  0.  0.
429  4.28  0.  0.  0.
430  4.29  0.  0.  0.
431  4.30  0.  0.  0.
432  4.31  0.  0.  0.
433  4.32  0.  0.  0.
434  4.33  0.  0.  0.
435  4.34  0.  0.  0.
436  4.35  0.  0.  0.
437  4.36  0.  0.  0.
438  4.37  0.  0.  0.
439  4.38  0.  0.  0.
440  4.39  0.  0.  0.
441  4.40  0.  0.  0.
442  4.41  0.  0.  0.
443  4.42  0.  0.  0.
444  4.43  0.  0.  0.
445  4.44  0.  0.  0.
446  4.45  0.  0.  0.
447  4.46  0.  0.  0.
448  4.47  0.  0.  0.
449  4.48  0.  0.  0.
450  4.49  0.  0.  0.
451  4.50  0.  0.  0.
452  4.51  0.  0.  0.
453  4.52  0.  0.  0.
454  4.53  0.  0.  0.
455  4.54  0.  0.  0.
456  4.55  0.  0.  0.
457  4.56  0.  0.  0.
458  4.57  0.  0.  0.
459  4.58  0.  0.  0.
460  4.59  0.  0.  0.
461  4.60  0.  0.  0.
462  4.61  0.  0.  0.
463  4.62  0.  0.  0.
464  4.63  0.  0.  0.
465  4.64  0.  0.  0.
466  4.65  0.  0.  0.
467  4.66  0.  0.  0.
468  4.67  0.  0.  0.
469  4.68  0.  0.  0.
470  4.69  0.  0.  0.
471  4.70  0.  0.  0.
472  4.71  0.  0.  0.
473  4.72  0.  0.  0.
474  4.73  0.  0.  0.
475  4.74  0.  0.  0.
476  4.75  0.  0.  0.
477  4.76  0.  0.  0.
478  4.77  0.  0.  0.
479  4.78  0.  0.  0.
480  4.79  0.  0.  0.
481  4.80  0.  0.  0.
482  4.81  0.  0.  0.
483  4.82  0.  0.  0.
484  4.83  0.  0.  0.
485  4.84  0.  0.  0.
486  4.85  0.  0.  0.
487  4.86  0.  0.  0.
488  4.87  0.  0.  0.
489  4.88  0.  0.  0.
490  4.89  0.  0.  0.
491  4.90  0.  0.  0.
492  4.91  0.  0.  0.
493  4.92  0.  0.  0.
494  4.93  0.  0.  0.
495  4.94  0.  0.  0.
496  4.95  0.  0.  0.
497  4.96  0.  0.  0.
498  4.97  0.  0.  0.
499  4.98  0.  0.  0.
500  4.99  0.  0.  0.
501  5.00  0.  0.  0.
502  5.01  0.  0.  0.
503  5.02  0.  0.  0.
504  5.03  0.  0.  0.
505  5.04  0.  0.  0.
506  5.05  0.  0.  0.
507  5.06  0.  0.  0.
508  5.07  0.  0.  0.
509  5.08  0.  0.  0.
510  5.09  0.  0.  0.
511  5.10  0.  0.  0.
512  5.11  0.  0.  0.
513  5.12  0.  0.  0.
514  5.13  0.  0.  0.
515  5.14  0.  0.  0.
516  5.15  0.  0.  0.
517  5.16  0.  0.  0.
518  5.17  0.  0.  0.
519  5.18  0.  0.  0.
520  5.19  0.  0.  0.
521  5.20  0.  0.  0.
522  5.21  0.  0.  0.
523  5.22  0.  0.  0.
524  5.23  0.  0.  0.
525  5.24  0.  0.  0.
526  5.25  0.  0.  0.
527  5.26  0.  0.  0.
528  5.27  0.  0.  0.
529  5.28  0.  0.  0.
530  5.29  0.  0.  0.
531  5.30  0.  0.  0.
532  5.31  0.  0.  0.
533  5.32  0.  0.  0.
534  5.33  0.  0.  0.
535  5.34  0.  0.  0.
536  5.35  0.  0.  0.
537  5.36  0.  0.  0.
538  5.37  0.  0.  0.
539  5.38  0.  0.  0.
540  5.39  0.  0.  0.
541  5.40  0.  0.  0.
542  5.41  0.  0.  0.
543  5.42  0.  0.  0.
544  5.43  0.  0.  0.
545  5.44  0.  0.  0.
546  5.45  0.  0.  0.
547  5.46  0.  0.  0.
548  5.47  0.  0.  0.
549  5.48  0.  0.  0.
550  5.49  0.  0.  0.
551  5.50  0.  0.  0.
552  5.51  0.  0.  0.
553  5.52  0.  0.  0.
554  5.53  0.  0.  0.
555  5.54  0.  0.  0.
556  5.55  0.  0.  0.
557  5.56  0.  0.  0.
558  5.57  0.  0.  0.
559  5.58  0.  0.  0.
560  5.59  0.  0.  0.
561  5.60  0.  0.  0.
562  5.61  0.  0.  0.
563  5.62  0.  0.  0.
564  5.63  0.  0.  0.
565  5.64  0.  0.  0.
566  5.65  0.  0.  0.
567  5.66  0.  0.  0.
568  5.67  0.  0.  0.
569  5.68  0.  0.  0.
570  5.69  0.  0.  0.
571  5.70  0.  0.  0.
572  5.71  0.  0.  0.
573  5.72  0.  0.  0.
574  5.73  0.  0.  0.
575  5.74  0.  0.  0.
576  5.75  0.  0.  0.
577  5.76  0.  0.  0.
578  5.77  0.  0.  0.
579  5.78  0.  0.  0.
580  5.79  0.  0.  0.
581  5.80  0.  0.  0.
582  5.81  0.  0.  0.
583  5.82  0.  0.  0.
584  5.83  0.  0.  0.
585  5.84  0.  0.  0.
586  5.85  0.  0.  0.
587  5.86  0.  0.  0.
588  5.87  0.  0.  0.
589  5.88  0.  0.  0.
590  5.89  0.  0.  0.
591  5.90  0.  0.  0.
592  5.91  0.  0.  0.
593  5.92  0.  0.  0.
594  5.93  0.  0.  0.
595  5.94  0.  0.  0.
596  5.95  0.  0.  0.
597  5.96  0.  0.  0.
598  5.97  0.  0.  0.
599  5.98  0.  0.  0.
600  5.99  0.  0.  0.
1                        -3.6153145273634E+01 -1.8138963132417E+01 -4.8513051524964E+00
1  0.0000000000000E+00  6.4674536282006E-09 -1.2600071930269E-08 -1.1771348729095E-08
2  1.0000000000000E-02  4.2335317750611E-03 -5.1791287897668E-03  3.2591212579079E-03
3  2.0000000000000E-02  1.6895552309632E-02 -2.0637679841268E-02  1.2979250191150E-02
4  3.0000000000000E-02  3.7870709552837E-02 -4.6140058861553E-02  2.8989182504640E-02
5  4.0000000000000E-02  6.6967987956499E-02 -8.1296644049122E-02  5.1005262074538E-02
6  5.0000000000000E-02  1.0392255407354E-01 -1.2556832644370E-01  7.8633965333729E-02
7  6.0000000000000E-02  1.4839831796024E-01 -1.7827283971647E-01  1.1137562982797E-01
8  7.0000000000000E-02  1.9999118790209E-01 -2.3859284966779E-01  1.4862942539647E-01
9  8.0000000000000E-02  2.5823298951566E-01 -3.0558576109968E-01  1.8969967820196E-01
10  9.0000000000000E-02  3.2259601381061E-01 -3.7819518443800E-01  2.3380365857620E-01
11  1.0000000000000E-01  3.9249815236109E-01 -4.5526398630422E-01  2.8008093220996E-01
12  1.1000000000000E-01  4.6730857138535E-01 -5.3554882719575E-01  3.2760435013525E-01
13  1.2000000000000E-01  5.4635387033501E-01 -6.1773606577024E-01  3.7539271647508E-01
14  1.3000000000000E-01  6.2892466463872E-01 -7.0045888340364E-01  4.2242512505102E-01
15  1.4000000000000E-01  7.1428252662947E-01 -7.8231545537858E-01  4.6765689831201E-01
16  1.5000000000000E-01  8.0166721352738E-01 -8.6188796711548E-01  5.1003699697600E-01
17  1.6000000000000E-01  8.9030410677405E-01 -9.3776224629666E-01  5.4852669908279E-01
18  1.7000000000000E-01  9.7941178315024E-01 -1.0085477556750E+00  5.8211927606842E-01
19  1.8000000000000E-01  1.0682096350862E+00 -1.0728976679872E+00  6.0986032446689E-01
20  1.9000000000000E-01  1.1559254555166E+00 -1.1295287248978E+00  6.3086834849593E-01
21  2.0000000000000E-01  1.2418029016527E+00 -1.1772405674269E+00  6.4435513457779E-01
22  2.1000000000000E-01  1.3251087522414E+00 -1.2149342168937E+00  6.4964541702551E-01
23  2.2000000000000E-01  1.4051398743248E+00 -1.2416293839264E+00  6.4619530751484E-01
24  2.3000000000000E-01  1.4812298182569E+00 -1.2564802892074E+00  6.3360895182878E-01
25  2.4000000000000E-01  1.5527549637925E+00 -1.2587896937698E+00  6.1165288728835E-01
26  2.5000000000000E-01  1.6191401454169E+00 -1.2480208589902E+00  5.8026760407426E-01
27  2.6000000000000E-01  1.6798636916968E+00 -1.2238071867709E+00  5.3957586326231E-01
28  2.7000000000000E-01  1.7344618211982E+00 -1.1859593283309E+00  4.8988739294147E-01
29  2.8000000000000E-01  1.7825323463376E+00 -1.1344695947706E+00  4.3169966950696E-01
30  2.9000000000000E-01  1.8237376462416E+00 -1.0695135531160E+00  3.6569459157566E-01
31  3.0000000000000E-01  1.8578068801175E+00 -9.9144874660090E-01  2.9273096570424E-01
32  3.1000000000000E-01  1.8845374235783E+00 -9.0081053603562E-01  2.1383284236793E-01
33  3.2000000000000E-01  1.9037955215987E+00 -7.9830511859894E-01  1.3017386321413E-01
34  3.3000000000000E-01  1.9155161630745E+00 -6.8479983954769E-01  4.3057901917498E-02
35  3.4000000000000E-01  1.9197021930817E+00 -5.6131096941431E-01 -4.6103603555217E-02
36  3.5000000000000E-01  1.9164226896496E+00 -4.2898917253260E-01 -1.3581712427743E-01
37  3.6000000000000E-01  1.9058106419527E+00 -2.8910294058658E-01 -2.2453472554989E-01
38  3.7000000000000E-01  1.8880599760866E+00 -1.4302030586794E-01 -3.1068329753258E-01
39  3.8000000000000E-01  1.8634219828398E+00  7.8108181660523E-03 -3.9269461330062E-01
40  3.9000000000000E-01  1.8322012089570E+00  1.6188329757013E-01 -4.6903546793065E-01
41  4.0000000000000E-01  1.7947508791923E+00  3.1765205416025E-01 -5.3823714836518E-01
42  4.1000000000000E-01  1.7514679208876E+00  4.7355556744771E-01 -5.9892350476920E-01
43  4.2000000000000E-01  1.7027876658469E+00  6.2803721808097E-01 -6.4983693920455E-01
44  4.3000000000000E-01  1.6491783059011E+00  7.7956610387455E-01 -6.8986169505271E-01
45  4.4000000000000E-01  1.5911351788076E+00  9.2665698359169E-01 -7.1804391815569E-01
46  4.5000000000000E-01  1.5291749600789E+00  1.0678890355565E+00 -7.3360806474989E-01
47  4.6000000000000E-01  1.4638298340758E+00  1.2019231566345E+00 -7.3596934790244E-01
48  4.7000000000000E-01  1.3956417143779E+00  1.3275175706745E+00 -7.2474203878581E-01
49  4.8000000000000E-01  1.3251565791938E+00  1.4435415625371E+00 -6.9974356689757E-01
50  4.9000000000000E-01  1.2529189825683E+00  1.5489872026760E+00 -6.6099448929861E-01
51  5.0000000000000E-01  1.1794667965606E+00  1.6429789761915E+00 -6.0871451826345E-01
52  5.1000000000000E-01  1.1053262335691E+00  1.7247812777343E+00 -5.4331490488880E-01
53  5.2000000000000E-01  1.0310071917520E+00  1.7938037781046E+00 -4.6538756918289E-01
54  5.3000000000000E-01  9.5699896018121E-01  1.8496047085757E+00 -3.7569144163637E-01
55  5.4000000000000E-01  8.8376631412160E-01  1.8918921438085E+00 -2.7513653476859E-01
56  5.5000000000000E-01  8.1174602476408E-01  1.9205233929375E+00 -1.6476629410129E-01
57  5.6000000000000E-01  7.4134380196036E-01  1.9355026305278E+00 -4.5738785893551E-02
58  5.7000000000000E-01  6.7293168307270E-01  1.9369769144624E+00  8.0692735738729E-02
59  5.8000000000000E-01  6.0684587601305E-01  1.9252307465903E+00  2.1319937550902E-01
60  5.9000000000000E-01  5.4338505991495E-01  1.9006793345901E+00  3.5039580514075E-01
61  6.0000000000000E-01  4.8280914265297E-01  1.8638607107159E+00  4.9085875067484E-01
62  6.1000000000000E-01  4.2533847056899E-01  1.8154268558336E+00  6.3314445802001E-01
63  6.2000000000000E-01  3.7115348223691E-01  1.7561339665460E+00  7.7580492449340E-01
64  6.3000000000000E-01  3.2039479484055E-01  1.6868319904738E+00  9.1740277520827E-01
65  6.4000000000000E-01  2.7316370868911E-01  1.6084535411736E+00  1.0565247520230E+00
66  6.5000000000000E-01  2.2952311248651E-01  1.5220022909908E+00  1.1917938648065E+00
67  6.6000000000000E-01  1.8949876914570E-01  1.4285409285153E+00  1.3218803258181E+00
68  6.7000000000000E-01  1.5308095914614E-01  1.3291787582362E+00  1.4455114444487E+00
69  6.8000000000000E-01  1.2022645563841E-01  1.2250590142881E+00  1.5614806985898E+00
70  6.9000000000000E-01  9.0860802686034E-02  1.1173459583822E+00  1.6686562185554E+00
71  7.0000000000000E-01  6.4880865207532E-02  1.0072118343957E+00  1.7659889188538E+00
72  7.1000000000000E-01  4.2157616366054E-02  8.9582375861986E-01  1.8525204923244E+00
73  7.2000000000000E-01  2.2539125400403E-02  7.8433063500293E-01  1.9273914414104E+00
74  7.3000000000000E-01  5.8537062692920E-03  6.7385019824775E-01  1.9898492648625E+00
75  7.4000000000000E-01 -8.0868149213986E-03  5.6545630345214E-01  2.0392568480804E+00
76  7.5000000000000E-01 -1.9483757817405E-02  4.6016659800904E-01  2.0751010255510E+00
77  7.6000000000000E-01 -2.8548216793512E-02  3.5893072844459E-01  2.0970011989506E+00
78  7.7000000000000E-01 -3.5497707854474E-02  2.6261925040088E-01  2.1047178093766E+00
79  7.8000000000000E-01 -4.0552880731850E-02  1.7201342266309E-01  2.0981603819601E+00
80  7.9000000000000E-01 -4.3934343108229E-02  8.7796074638287E-02  2.0773947907823E+00
81  8.0000000000000E-01 -4.5859642703057E-02  1.0543739776933E-02  2.0426493362517E+00
82  8.1000000000000E-01 -4.6540450834527E-02 -5.9279755956695E-02  1.9943191900031E+00
83  8.2000000000000E-01 -4.6179987991926E-02 -1.2132807210528E-01  1.9329687472718E+00
84  8.3000000000000E-01 -4.4970727905827E-02 -1.7537533816360E-01  1.8593314359345E+00
85  8.4000000000000E-01 -4.3092411619003E-02 -2.2131721065782E-01  1.7743065662262E+00
86  8.5000000000000E-01 -4.0710397204509E-02 -2.5916990299261E-01  1.6789528655876E+00
87  8.6000000000000E-01 -3.7974364152292E-02 -2.8906712915135E-01  1.5744784279509E+00
88  8.7000000000000E-01 -3.5017384190280E-02 -3.1125494932149E-01  1.4622269135966E+00
89  8.8000000000000E-01 -3.1955362590870E-02 -3.2608455719918E-01  1.3436599609083E+00
90  8.9000000000000E-01 -2.8886846036964E-02 -3.3400310346263E-01  1.2203359102884E+00
91  9.0000000000000E-01 -2.5893185102349E-02 -3.3554270580635E-01  1.0938850876826E+00
92  9.1000000000000E-01 -2.3039031571669E-02 -3.3130785094090E-01  9.6598204448683E-01
93  9.2000000000000E-01 -2.0373143422970E-02 -3.2196144594290E-01  8.3831529557571E-01
94  9.3000000000000E-01 -1.7929463555093E-02 -3.0820982314058E-01  7.1255523120169E-01
95  9.4000000000000E-01 -1.5728432482457E-02 -2.9078704230169E-01  5.9032099517958E-01