Pa    ONCVPSP-4.0.1  r_core=   1.10257   1.10257   1.10257   1.10257
91.0000     31.0000      220309    zatom,zion,pspd
8      11   3     4   600     0    pspcod,pspxc,lmax,lloc,mmax,r2well
5.99000000  5.00000000  0.00000000    rchrg fchrg qchrg
3     2     2     2     0    nproj
1     1           extension_switch
0                         4.2341534499494E+01  5.4308184940790E+00 -5.5225311204422E-01
1  0.0000000000000E+00 -6.4978883673739E-07  1.7714103101030E-06  4.0052044219391E-07
2  1.0000000000000E-02  1.8184020793496E-01 -1.6580664941682E-01 -1.8313749278055E-02
3  2.0000000000000E-02  3.6079779722604E-01 -3.2491928642611E-01 -3.5102571348569E-02
4  3.0000000000000E-02  5.3409195465892E-01 -4.7091833326396E-01 -4.8908359170878E-02
5  4.0000000000000E-02  6.9914122761371E-01 -5.9792147371437E-01 -5.8403905509160E-02
6  5.0000000000000E-02  8.5365276006821E-01 -7.0082375880743E-01 -6.2451612680157E-02
7  6.0000000000000E-02  9.9569949551188E-01 -7.7550484528426E-01 -6.0154420859355E-02
8  7.0000000000000E-02  1.1237821462128E+00 -8.1899462009893E-01 -5.0896858980662E-02
9  8.0000000000000E-02  1.2368733780691E+00 -8.2959023563809E-01 -3.4374522785098E-02
10  9.0000000000000E-02  1.3344424186635E+00 -8.0691964824224E-01 -1.0610753734077E-02
11  1.0000000000000E-01  1.4164591306555E+00 -7.5194902872457E-01  2.0040188779143E-02
12  1.1000000000000E-01  1.4833774675684E+00 -6.6693380078378E-01  5.6903622291823E-02
13  1.2000000000000E-01  1.5360991069137E+00 -5.5531545961855E-01  9.9008210139995E-02
14  1.3000000000000E-01  1.5759188988811E+00 -4.2156862647888E-01  1.4512207403837E-01
15  1.4000000000000E-01  1.6044545414340E+00 -2.7100490712189E-01  1.9379982084581E-01
16  1.5000000000000E-01  1.6235635615759E+00 -1.0954195319607E-01  2.4343861295990E-01
17  1.6000000000000E-01  1.6352512192001E+00  5.6552402461759E-02  2.9234104676709E-01
18  1.7000000000000E-01  1.6415733314339E+00  2.2093001531136E-01  3.3878232926680E-01
19  1.8000000000000E-01  1.6445382254963E+00  3.7743479784584E-01  3.8107907036359E-01
20  1.9000000000000E-01  1.6460120579470E+00  5.2036598844427E-01  4.1765694420312E-01
21  2.0000000000000E-01  1.6476315866653E+00  6.4472112173286E-01  4.4711451970527E-01
22  2.1000000000000E-01  1.6507281556149E+00  7.4640837888476E-01  4.6828071598884E-01
23  2.2000000000000E-01  1.6562661655489E+00  8.2241931187048E-01  4.8026359613856E-01
24  2.3000000000000E-01  1.6647986773160E+00  8.7095463306630E-01  4.8248856202954E-01
25  2.4000000000000E-01  1.6764420553046E+00  8.9149776789956E-01  4.7472443930771E-01
26  2.5000000000000E-01  1.6908707386265E+00  8.8483309721570E-01  4.5709642761648E-01
27  2.6000000000000E-01  1.7073323620914E+00  8.5300817230782E-01  4.3008541689260E-01
28  2.7000000000000E-01  1.7246825750213E+00  7.9924156821375E-01  3.9451371458831E-01
29  2.8000000000000E-01  1.7414380609294E+00  7.2778034818687E-01  3.5151776891105E-01
30  2.9000000000000E-01  1.7558454812183E+00  6.4371324580508E-01  3.0250898772923E-01
31  3.0000000000000E-01  1.7659633846023E+00  5.5274754027624E-01  2.4912422093479E-01
32  3.1000000000000E-01  1.7697535699558E+00  4.6095912592915E-01  1.9316787701268E-01
33  3.2000000000000E-01  1.7651779871830E+00  3.7452639437986E-01  1.3654796631864E-01
34  3.3000000000000E-01  1.7502970254297E+00  2.9945921082905E-01  8.1208591469670E-02
35  3.4000000000000E-01  1.7233649801734E+00  2.4133444742347E-01  2.9061530556804E-02
36  3.5000000000000E-01  1.6829186124371E+00  2.0504923040811E-01 -1.8080422914777E-02
37  3.6000000000000E-01  1.6278550088421E+00  1.9460227867774E-01 -5.8565788489735E-02
38  3.7000000000000E-01  1.5574954072316E+00  2.1291249440517E-01 -9.0960012755109E-02
39  3.8000000000000E-01  1.4716322490873E+00  2.6168236543911E-01 -1.1409227249185E-01
40  3.9000000000000E-01  1.3705574308496E+00  3.4131182427907E-01 -1.2709173936153E-01
41  4.0000000000000E-01  1.2550705206173E+00  4.5086606297963E-01 -1.2941201394217E-01
42  4.1000000000000E-01  1.1264665501696E+00  5.8809852028767E-01 -1.2084292087006E-01
43  4.2000000000000E-01  9.8650384843419E-01  7.4952793508885E-01 -1.0150936925881E-01
44  4.3000000000000E-01  8.3735321468441E-01  9.3056609852831E-01 -7.1857502379830E-02
45  4.4000000000000E-01  6.8153050235232E-01  1.1256908324710E+00 -3.2628866600512E-02
46  4.5000000000000E-01  5.2181536462224E-01  1.3286568635016E+00  1.5176198697124E-02
47  4.6000000000000E-01  3.6115947235534E-01  1.5327357274333E+00  7.0344329953887E-02
48  4.7000000000000E-01  2.0258793021655E-01  1.7309746927844E+00  1.3150209797154E-01
49  4.8000000000000E-01  4.9097871378094E-02  1.9164639791423E+00  1.9717392160831E-01
50  4.9000000000000E-01 -9.6441704798975E-02  2.0826012948310E+00  2.6584252991499E-01
51  5.0000000000000E-01 -2.3138487631208E-01  2.2233429346771E+00  3.3600949321459E-01
52  5.1000000000000E-01 -3.5339480337734E-01  2.3334313493436E+00  4.0625337218986E-01
53  5.2000000000000E-01 -4.6051748519350E-01  2.4085901893929E+00  4.7528316169424E-01
54  5.3000000000000E-01 -5.5124050506783E-01  2.4456792886100E+00  5.4198492646079E-01
55  5.4000000000000E-01 -6.2453465654664E-01  2.4428038150770E+00  6.0545982910878E-01
56  5.5000000000000E-01 -6.7987708008025E-01  2.3993738054253E+00  6.6505212352513E-01
57  5.6000000000000E-01 -7.1725532444611E-01  2.3161124189111E+00  7.2036611280652E-01
58  5.7000000000000E-01 -7.3715254502751E-01  2.1950134098883E+00  7.7127153247815E-01
59  5.8000000000000E-01 -7.4051482724696E-01  2.0392504254670E+00  8.1789729741787E-01
60  5.9000000000000E-01 -7.2870234450015E-01  1.8530426987348E+00  8.6061402516759E-01
61  6.0000000000000E-01 -7.0342669517794E-01  1.6414834433781E+00  9.0000619987182E-01
62  6.1000000000000E-01 -6.6667728634569E-01  1.4103386905579E+00  9.3683525193052E-01
63  6.2000000000000E-01 -6.2064002124309E-01  1.1658253853568E+00  9.7199518249948E-01
64  6.3000000000000E-01 -5.6761178908846E-01  9.1437823668988E-01  1.0064626457198E+00
65  6.4000000000000E-01 -5.0991434065833E-01  6.6241506825953E-01  1.0412436045939E+00
66  6.5000000000000E-01 -4.4981106084446E-01  4.1611024522423E-01  1.0773187918281E+00
67  6.6000000000000E-01 -3.8942992600617E-01  1.8118516711336E-01  1.1155902315015E+00
68  6.7000000000000E-01 -3.3069557233399E-01 -3.7276144135240E-02  1.1568310116405E+00
69  6.8000000000000E-01 -2.7527292049608E-01 -2.3497962132231E-01  1.2016403458946E+00
70  6.9000000000000E-01 -2.2452422562692E-01 -4.0853670713816E-01  1.2504057321602E+00
71  7.0000000000000E-01 -1.7948077812647E-01 -5.5553944125413E-01  1.3032737178337E+00
72  7.1000000000000E-01 -1.4082980036722E-01 -6.7459348071752E-01  1.3601304286006E+00
73  7.2000000000000E-01 -1.0891639886400E-01 -7.6530932345891E-01  1.4205926253321E+00
74  7.3000000000000E-01 -8.3759772170023E-02 -8.2825380909811E-01  1.4840096381391E+00
75  7.4000000000000E-01 -6.5082271137941E-02 -8.6486563159621E-01  1.5494761047041E+00
76  7.5000000000000E-01 -5.2349386729716E-02 -8.7734004226625E-01  1.6158550283889E+00
77  7.6000000000000E-01 -4.4818323229121E-02 -8.6848908887327E-01  1.6818102860436E+00
78  7.7000000000000E-01 -4.1592518267445E-02 -8.4158458046410E-01  1.7458473701699E+00
79  7.8000000000000E-01 -4.1679306255942E-02 -8.0019145767429E-01  1.8063608573886E+00
80  7.9000000000000E-01 -4.4047892901992E-02 -7.4799937139725E-01  1.8616868647113E+00
81  8.0000000000000E-01 -4.7684913241720E-02 -6.8866003316856E-01  1.9101585938801E+00
82  8.1000000000000E-01 -5.1645075547511E-02 -6.2563731964850E-01  1.9501629759532E+00
83  8.2000000000000E-01 -5.5094734201771E-02 -5.6207622826617E-01  1.9801964143202E+00
84  8.3000000000000E-01 -5.7346666859206E-02 -5.0069564198331E-01  1.9989176824249E+00
85  8.4000000000000E-01 -5.7884831619574E-02 -4.4370852982897E-01  2.0051961579431E+00
86  8.5000000000000E-01 -5.6378422398679E-02 -3.9277175564846E-01  1.9981537609336E+00
87  8.6000000000000E-01 -5.2685097642816E-02 -3.4896616395495E-01  1.9771992005104E+00
88  8.7000000000000E-01 -4.6843801316952E-02 -3.1280613298229E-01  1.9420534123832E+00
89  8.8000000000000E-01 -3.9058099325442E-02 -2.8427640201565E-01  1.8927653767750E+00
90  8.9000000000000E-01 -2.9671395367523E-02 -2.6289275728976E-01  1.8297178309757E+00
91  9.0000000000000E-01 -1.9135747581912E-02 -2.4778215297746E-01  1.7536227215576E+00
92  9.1000000000000E-01 -7.9762657560935E-03 -2.3777709358537E-01  1.6655065671567E+00
93  9.2000000000000E-01  3.2467816870494E-03 -2.3151863976277E-01  1.5666862140075E+00
94  9.3000000000000E-01  1.3975985440865E-02 -2.2756223390092E-01  1.4587357548516E+00
95  9.4000000000000E-01  2.3692847406174E-02 -2.2448067181255E-01  1.3434456410672E+00
96  9.5000000000000E-01  3.1949955471342E-02 -2.2095895340619E-01  1.2227752434413E+00
97  9.6000000000000E-01  3.8397638508406E-02 -2.1587639497440E-01  1.0988003065643E+00
98  9.7000000000000E-01  4.2803800755843E-02 -2.0837223213392E-01  9.7365689507384E-01
99  9.8000000000000E-01  4.5066026760803E-02 -1.9789192807936E-01  8.4948354845468E-01
100  9.9000000000000E-01  4.5215465743556E-02 -1.8421246207990E-01  7.2836344811722E-01
101  1.0000000000000E+00  4.3412420941145E-02 -1.6744593797949E-01  6.1226846066331E-01
102  1.0100000000000E+00  3.9933958156277E-02 -1.4802185060819E-01  5.0300696035574E-01
103  1.0200000000000E+00  3.5154182049136E-02 -1.2664920985734E-01  4.0217735827342E-01
104  1.0300000000000E+00  2.9518170860371E-02 -1.0426059401907E-01  3.1112932109751E-01
105  1.0400000000000E+00  2.3509917024597E-02 -8.1938654367925E-02  2.3093431316853E-01
106  1.0500000000000E+00  1.7595086662796E-02 -6.0778109534675E-02  1.6235830931270E-01
107  1.0600000000000E+00  1.1907185178687E-02 -4.1116727384021E-02  1.0573246591551E-01
108  1.0700000000000E+00  6.9391502508027E-03 -2.4213295654784E-02  6.1296201958265E-02
109  1.0800000000000E+00  3.1888937562410E-03 -1.1381655679951E-02  2.9089612772909E-02
110  1.0900000000000E+00  9.0090135511585E-04 -3.3435893944033E-03  8.8988034701023E-03
111  1.1000000000000E+00  4.1977076933698E-05 -1.6703292738699E-04  4.8467121316204E-04
112  1.1100000000000E+00  1.4697290839281E-06 -5.8133883809681E-06  1.6644605262717E-05
113  1.1200000000000E+00 -5.3674234039338E-07  2.0643726661890E-06 -5.7246973621328E-06
114  1.13  0.  0.  0.
115  1.14  0.  0.  0.
116  1.15  0.  0.  0.
117  1.16  0.  0.  0.
118  1.17  0.  0.  0.
119  1.18  0.  0.  0.
120  1.19  0.  0.  0.
121  1.20  0.  0.  0.
122  1.21  0.  0.  0.
123  1.22  0.  0.  0.
124  1.23  0.  0.  0.
125  1.24  0.  0.  0.
126  1.25  0.  0.  0.
127  1.26  0.  0.  0.
128  1.27  0.  0.  0.
129  1.28  0.  0.  0.
130  1.29  0.  0.  0.
131  1.30  0.  0.  0.
132  1.31  0.  0.  0.
133  1.32  0.  0.  0.
134  1.33  0.  0.  0.
135  1.34  0.  0.  0.
136  1.35  0.  0.  0.
137  1.36  0.  0.  0.
138  1.37  0.  0.  0.
139  1.38  0.  0.  0.
140  1.39  0.  0.  0.
141  1.40  0.  0.  0.
142  1.41  0.  0.  0.
143  1.42  0.  0.  0.
144  1.43  0.  0.  0.
145  1.44  0.  0.  0.
146  1.45  0.  0.  0.
147  1.46  0.  0.  0.
148  1.47  0.  0.  0.
149  1.48  0.  0.  0.
150  1.49  0.  0.  0.
151  1.50  0.  0.  0.
152  1.51  0.  0.  0.
153  1.52  0.  0.  0.
154  1.53  0.  0.  0.
155  1.54  0.  0.  0.
156  1.55  0.  0.  0.
157  1.56  0.  0.  0.
158  1.57  0.  0.  0.
159  1.58  0.  0.  0.
160  1.59  0.  0.  0.
161  1.60  0.  0.  0.
162  1.61  0.  0.  0.
163  1.62  0.  0.  0.
164  1.63  0.  0.  0.
165  1.64  0.  0.  0.
166  1.65  0.  0.  0.
167  1.66  0.  0.  0.
168  1.67  0.  0.  0.
169  1.68  0.  0.  0.
170  1.69  0.  0.  0.
171  1.70  0.  0.  0.
172  1.71  0.  0.  0.
173  1.72  0.  0.  0.
174  1.73  0.  0.  0.
175  1.74  0.  0.  0.
176  1.75  0.  0.  0.
177  1.76  0.  0.  0.
178  1.77  0.  0.  0.
179  1.78  0.  0.  0.
180  1.79  0.  0.  0.
181  1.80  0.  0.  0.
182  1.81  0.  0.  0.
183  1.82  0.  0.  0.
184  1.83  0.  0.  0.
185  1.84  0.  0.  0.
186  1.85  0.  0.  0.
187  1.86  0.  0.  0.
188  1.87  0.  0.  0.
189  1.88  0.  0.  0.
190  1.89  0.  0.  0.
191  1.90  0.  0.  0.
192  1.91  0.  0.  0.
193  1.92  0.  0.  0.
194  1.93  0.  0.  0.
195  1.94  0.  0.  0.
196  1.95  0.  0.  0.
197  1.96  0.  0.  0.
198  1.97  0.  0.  0.
199  1.98  0.  0.  0.
200  1.99  0.  0.  0.
201  2.00  0.  0.  0.
202  2.01  0.  0.  0.
203  2.02  0.  0.  0.
204  2.03  0.  0.  0.
205  2.04  0.  0.  0.
206  2.05  0.  0.  0.
207  2.06  0.  0.  0.
208  2.07  0.  0.  0.
209  2.08  0.  0.  0.
210  2.09  0.  0.  0.
211  2.10  0.  0.  0.
212  2.11  0.  0.  0.
213  2.12  0.  0.  0.
214  2.13  0.  0.  0.
215  2.14  0.  0.  0.
216  2.15  0.  0.  0.
217  2.16  0.  0.  0.
218  2.17  0.  0.  0.
219  2.18  0.  0.  0.
220  2.19  0.  0.  0.
221  2.20  0.  0.  0.
222  2.21  0.  0.  0.
223  2.22  0.  0.  0.
224  2.23  0.  0.  0.
225  2.24  0.  0.  0.
226  2.25  0.  0.  0.
227  2.26  0.  0.  0.
228  2.27  0.  0.  0.
229  2.28  0.  0.  0.
230  2.29  0.  0.  0.
231  2.30  0.  0.  0.
232  2.31  0.  0.  0.
233  2.32  0.  0.  0.
234  2.33  0.  0.  0.
235  2.34  0.  0.  0.
236  2.35  0.  0.  0.
237  2.36  0.  0.  0.
238  2.37  0.  0.  0.
239  2.38  0.  0.  0.
240  2.39  0.  0.  0.
241  2.40  0.  0.  0.
242  2.41  0.  0.  0.
243  2.42  0.  0.  0.
244  2.43  0.  0.  0.
245  2.44  0.  0.  0.
246  2.45  0.  0.  0.
247  2.46  0.  0.  0.
248  2.47  0.  0.  0.
249  2.48  0.  0.  0.
250  2.49  0.  0.  0.
251  2.50  0.  0.  0.
252  2.51  0.  0.  0.
253  2.52  0.  0.  0.
254  2.53  0.  0.  0.
255  2.54  0.  0.  0.
256  2.55  0.  0.  0.
257  2.56  0.  0.  0.
258  2.57  0.  0.  0.
259  2.58  0.  0.  0.
260  2.59  0.  0.  0.
261  2.60  0.  0.  0.
262  2.61  0.  0.  0.
263  2.62  0.  0.  0.
264  2.63  0.  0.  0.
265  2.64  0.  0.  0.
266  2.65  0.  0.  0.
267  2.66  0.  0.  0.
268  2.67  0.  0.  0.
269  2.68  0.  0.  0.
270  2.69  0.  0.  0.
271  2.70  0.  0.  0.
272  2.71  0.  0.  0.
273  2.72  0.  0.  0.
274  2.73  0.  0.  0.
275  2.74  0.  0.  0.
276  2.75  0.  0.  0.
277  2.76  0.  0.  0.
278  2.77  0.  0.  0.
279  2.78  0.  0.  0.
280  2.79  0.  0.  0.
281  2.80  0.  0.  0.
282  2.81  0.  0.  0.
283  2.82  0.  0.  0.
284  2.83  0.  0.  0.
285  2.84  0.  0.  0.
286  2.85  0.  0.  0.
287  2.86  0.  0.  0.
288  2.87  0.  0.  0.
289  2.88  0.  0.  0.
290  2.89  0.  0.  0.
291  2.90  0.  0.  0.
292  2.91  0.  0.  0.
293  2.92  0.  0.  0.
294  2.93  0.  0.  0.
295  2.94  0.  0.  0.
296  2.95  0.  0.  0.
297  2.96  0.  0.  0.
298  2.97  0.  0.  0.
299  2.98  0.  0.  0.
300  2.99  0.  0.  0.
301  3.00  0.  0.  0.
302  3.01  0.  0.  0.
303  3.02  0.  0.  0.
304  3.03  0.  0.  0.
305  3.04  0.  0.  0.
306  3.05  0.  0.  0.
307  3.06  0.  0.  0.
308  3.07  0.  0.  0.
309  3.08  0.  0.  0.
310  3.09  0.  0.  0.
311  3.10  0.  0.  0.
312  3.11  0.  0.  0.
313  3.12  0.  0.  0.
314  3.13  0.  0.  0.
315  3.14  0.  0.  0.
316  3.15  0.  0.  0.
317  3.16  0.  0.  0.
318  3.17  0.  0.  0.
319  3.18  0.  0.  0.
320  3.19  0.  0.  0.
321  3.20  0.  0.  0.
322  3.21  0.  0.  0.
323  3.22  0.  0.  0.
324  3.23  0.  0.  0.
325  3.24  0.  0.  0.
326  3.25  0.  0.  0.
327  3.26  0.  0.  0.
328  3.27  0.  0.  0.
329  3.28  0.  0.  0.
330  3.29  0.  0.  0.
331  3.30  0.  0.  0.
332  3.31  0.  0.  0.
333  3.32  0.  0.  0.
334  3.33  0.  0.  0.
335  3.34  0.  0.  0.
336  3.35  0.  0.  0.
337  3.36  0.  0.  0.
338  3.37  0.  0.  0.
339  3.38  0.  0.  0.
340  3.39  0.  0.  0.
341  3.40  0.  0.  0.
342  3.41  0.  0.  0.
343  3.42  0.  0.  0.
344  3.43  0.  0.  0.
345  3.44  0.  0.  0.
346  3.45  0.  0.  0.
347  3.46  0.  0.  0.
348  3.47  0.  0.  0.
349  3.48  0.  0.  0.
350  3.49  0.  0.  0.
351  3.50  0.  0.  0.
352  3.51  0.  0.  0.
353  3.52  0.  0.  0.
354  3.53  0.  0.  0.
355  3.54  0.  0.  0.
356  3.55  0.  0.  0.
357  3.56  0.  0.  0.
358  3.57  0.  0.  0.
359  3.58  0.  0.  0.
360  3.59  0.  0.  0.
361  3.60  0.  0.  0.
362  3.61  0.  0.  0.
363  3.62  0.  0.  0.
364  3.63  0.  0.  0.
365  3.64  0.  0.  0.
366  3.65  0.  0.  0.
367  3.66  0.  0.  0.
368  3.67  0.  0.  0.
369  3.68  0.  0.  0.
370  3.69  0.  0.  0.
371  3.70  0.  0.  0.
372  3.71  0.  0.  0.
373  3.72  0.  0.  0.
374  3.73  0.  0.  0.
375  3.74  0.  0.  0.
376  3.75  0.  0.  0.
377  3.76  0.  0.  0.
378  3.77  0.  0.  0.
379  3.78  0.  0.  0.
380  3.79  0.  0.  0.
381  3.80  0.  0.  0.
382  3.81  0.  0.  0.
383  3.82  0.  0.  0.
384  3.83  0.  0.  0.
385  3.84  0.  0.  0.
386  3.85  0.  0.  0.
387  3.86  0.  0.  0.
388  3.87  0.  0.  0.
389  3.88  0.  0.  0.
390  3.89  0.  0.  0.
391  3.90  0.  0.  0.
392  3.91  0.  0.  0.
393  3.92  0.  0.  0.
394  3.93  0.  0.  0.
395  3.94  0.  0.  0.
396  3.95  0.  0.  0.
397  3.96  0.  0.  0.
398  3.97  0.  0.  0.
399  3.98  0.  0.  0.
400  3.99  0.  0.  0.
401  4.00  0.  0.  0.
402  4.01  0.  0.  0.
403  4.02  0.  0.  0.
404  4.03  0.  0.  0.
405  4.04  0.  0.  0.
406  4.05  0.  0.  0.
407  4.06  0.  0.  0.
408  4.07  0.  0.  0.
409  4.08  0.  0.  0.
410  4.09  0.  0.  0.
411  4.10  0.  0.  0.
412  4.11  0.  0.  0.
413  4.12  0.  0.  0.
414  4.13  0.  0.  0.
415  4.14  0.  0.  0.
416  4.15  0.  0.  0.
417  4.16  0.  0.  0.
418  4.17  0.  0.  0.
419  4.18  0.  0.  0.
420  4.19  0.  0.  0.
421  4.20  0.  0.  0.
422  4.21  0.  0.  0.
423  4.22  0.  0.  0.
424  4.23  0.  0.  0.
425  4.24  0.  0.  0.
426  4.25  0.  0.  0.
427  4.26  0.  0.  0.
428  4.27  0.  0.  0.
429  4.28  0.  0.  0.
430  4.29  0.  0.  0.
431  4.30  0.  0.  0.
432  4.31  0.  0.  0.
433  4.32  0.  0.  0.
434  4.33  0.  0.  0.
435  4.34  0.  0.  0.
436  4.35  0.  0.  0.
437  4.36  0.  0.  0.
438  4.37  0.  0.  0.
439  4.38  0.  0.  0.
440  4.39  0.  0.  0.
441  4.40  0.  0.  0.
442  4.41  0.  0.  0.
443  4.42  0.  0.  0.
444  4.43  0.  0.  0.
445  4.44  0.  0.  0.
446  4.45  0.  0.  0.
447  4.46  0.  0.  0.
448  4.47  0.  0.  0.
449  4.48  0.  0.  0.
450  4.49  0.  0.  0.
451  4.50  0.  0.  0.
452  4.51  0.  0.  0.
453  4.52  0.  0.  0.
454  4.53  0.  0.  0.
455  4.54  0.  0.  0.
456  4.55  0.  0.  0.
457  4.56  0.  0.  0.
458  4.57  0.  0.  0.
459  4.58  0.  0.  0.
460  4.59  0.  0.  0.
461  4.60  0.  0.  0.
462  4.61  0.  0.  0.
463  4.62  0.  0.  0.
464  4.63  0.  0.  0.
465  4.64  0.  0.  0.
466  4.65  0.  0.  0.
467  4.66  0.  0.  0.
468  4.67  0.  0.  0.
469  4.68  0.  0.  0.
470  4.69  0.  0.  0.
471  4.70  0.  0.  0.
472  4.71  0.  0.  0.
473  4.72  0.  0.  0.
474  4.73  0.  0.  0.
475  4.74  0.  0.  0.
476  4.75  0.  0.  0.
477  4.76  0.  0.  0.
478  4.77  0.  0.  0.
479  4.78  0.  0.  0.
480  4.79  0.  0.  0.
481  4.80  0.  0.  0.
482  4.81  0.  0.  0.
483  4.82  0.  0.  0.
484  4.83  0.  0.  0.
485  4.84  0.  0.  0.
486  4.85  0.  0.  0.
487  4.86  0.  0.  0.
488  4.87  0.  0.  0.
489  4.88  0.  0.  0.
490  4.89  0.  0.  0.
491  4.90  0.  0.  0.
492  4.91  0.  0.  0.
493  4.92  0.  0.  0.
494  4.93  0.  0.  0.
495  4.94  0.  0.  0.
496  4.95  0.  0.  0.
497  4.96  0.  0.  0.
498  4.97  0.  0.  0.
499  4.98  0.  0.  0.
500  4.99  0.  0.  0.
501  5.00  0.  0.  0.
502  5.01  0.  0.  0.
503  5.02  0.  0.  0.
504  5.03  0.  0.  0.
505  5.04  0.  0.  0.
506  5.05  0.  0.  0.
507  5.06  0.  0.  0.
508  5.07  0.  0.  0.
509  5.08  0.  0.  0.
510  5.09  0.  0.  0.
511  5.10  0.  0.  0.
512  5.11  0.  0.  0.
513  5.12  0.  0.  0.
514  5.13  0.  0.  0.
515  5.14  0.  0.  0.
516  5.15  0.  0.  0.
517  5.16  0.  0.  0.
518  5.17  0.  0.  0.
519  5.18  0.  0.  0.
520  5.19  0.  0.  0.
521  5.20  0.  0.  0.
522  5.21  0.  0.  0.
523  5.22  0.  0.  0.
524  5.23  0.  0.  0.
525  5.24  0.  0.  0.
526  5.25  0.  0.  0.
527  5.26  0.  0.  0.
528  5.27  0.  0.  0.
529  5.28  0.  0.  0.
530  5.29  0.  0.  0.
531  5.30  0.  0.  0.
532  5.31  0.  0.  0.
533  5.32  0.  0.  0.
534  5.33  0.  0.  0.
535  5.34  0.  0.  0.
536  5.35  0.  0.  0.
537  5.36  0.  0.  0.
538  5.37  0.  0.  0.
539  5.38  0.  0.  0.
540  5.39  0.  0.  0.
541  5.40  0.  0.  0.
542  5.41  0.  0.  0.
543  5.42  0.  0.  0.
544  5.43  0.  0.  0.
545  5.44  0.  0.  0.
546  5.45  0.  0.  0.
547  5.46  0.  0.  0.
548  5.47  0.  0.  0.
549  5.48  0.  0.  0.
550  5.49  0.  0.  0.
551  5.50  0.  0.  0.
552  5.51  0.  0.  0.
553  5.52  0.  0.  0.
554  5.53  0.  0.  0.
555  5.54  0.  0.  0.
556  5.55  0.  0.  0.
557  5.56  0.  0.  0.
558  5.57  0.  0.  0.
559  5.58  0.  0.  0.
560  5.59  0.  0.  0.
561  5.60  0.  0.  0.
562  5.61  0.  0.  0.
563  5.62  0.  0.  0.
564  5.63  0.  0.  0.
565  5.64  0.  0.  0.
566  5.65  0.  0.  0.
567  5.66  0.  0.  0.
568  5.67  0.  0.  0.
569  5.68  0.  0.  0.
570  5.69  0.  0.  0.
571  5.70  0.  0.  0.
572  5.71  0.  0.  0.
573  5.72  0.  0.  0.
574  5.73  0.  0.  0.
575  5.74  0.  0.  0.
576  5.75  0.  0.  0.
577  5.76  0.  0.  0.
578  5.77  0.  0.  0.
579  5.78  0.  0.  0.
580  5.79  0.  0.  0.
581  5.80  0.  0.  0.
582  5.81  0.  0.  0.
583  5.82  0.  0.  0.
584  5.83  0.  0.  0.
585  5.84  0.  0.  0.
586  5.85  0.  0.  0.
587  5.86  0.  0.  0.
588  5.87  0.  0.  0.
589  5.88  0.  0.  0.
590  5.89  0.  0.  0.
591  5.90  0.  0.  0.
592  5.91  0.  0.  0.
593  5.92  0.  0.  0.
594  5.93  0.  0.  0.
595  5.94  0.  0.  0.
596  5.95  0.  0.  0.
597  5.96  0.  0.  0.
598  5.97  0.  0.  0.
599  5.98  0.  0.  0.
600  5.99  0.  0.  0.
1                         1.3355042973682E+01 -5.1258483769417E-01
1  0.0000000000000E+00 -1.1193825838474E-08 -2.4681190187448E-07
2  1.0000000000000E-02  3.4916935779909E-03  1.6024762196057E-03
3  2.0000000000000E-02  1.3945322347286E-02  6.4561925263554E-03
4  3.0000000000000E-02  3.1296487416138E-02  1.4696241210358E-02
5  4.0000000000000E-02  5.5437722621960E-02  2.6535391754602E-02
6  5.0000000000000E-02  8.6218322387797E-02  4.2246152075344E-02
7  6.0000000000000E-02  1.2344415903323E-01  6.2136901094769E-02
8  7.0000000000000E-02  1.6687754457447E-01  8.6523273856361E-02
9  8.0000000000000E-02  2.1623720324230E-01  1.1569622720530E-01
10  9.0000000000000E-02  2.7119842900067E-01  1.4988839810665E-01
11  1.0000000000000E-01  3.3139350684039E-01  1.8924047958058E-01
12  1.1000000000000E-01  3.9641247727376E-01  2.3376937559664E-01
13  1.2000000000000E-01  4.6580432015181E-01  2.8333985390747E-01
14  1.3000000000000E-01  5.3907862671193E-01  3.3764129585934E-01
15  1.4000000000000E-01  6.1570781785341E-01  3.9617094913325E-01
16  1.5000000000000E-01  6.9512995239783E-01  4.5822483071297E-01
17  1.6000000000000E-01  7.7675215203239E-01  5.2289711355136E-01
18  1.7000000000000E-01  8.5995465038849E-01  5.8908847424059E-01
19  1.8000000000000E-01  9.4409545300757E-01  6.5552349522053E-01
20  1.9000000000000E-01  1.0285155735908E+00  7.2077681973095E-01
21  2.0000000000000E-01  1.1125447907572E+00  7.8330736753094E-01
22  2.1000000000000E-01  1.1955078493882E+00  8.4149955104599E-01
23  2.2000000000000E-01  1.2767310123271E+00  8.9371010101080E-01
24  2.3000000000000E-01  1.3555488524803E+00  9.3831883241099E-01
25  2.4000000000000E-01  1.4313111628904E+00  9.7378146813868E-01
26  2.5000000000000E-01  1.5033898536534E+00  9.9868249925985E-01
27  2.6000000000000E-01  1.5711857000319E+00  1.0117860041458E+00
28  2.7000000000000E-01  1.6341348060012E+00  1.0120823776237E+00
29  2.8000000000000E-01  1.6917146518276E+00  9.9882903591799E-01
30  2.9000000000000E-01  1.7434496030003E+00  9.7158336007903E-01
31  3.0000000000000E-01  1.7889157706459E+00  9.3022641296531E-01
32  3.1000000000000E-01  1.8277451300004E+00  8.7497630253996E-01
33  3.2000000000000E-01  1.8596288230159E+00  8.0639045431401E-01
34  3.3000000000000E-01  1.8843195930282E+00  7.2535648287677E-01
35  3.4000000000000E-01  1.9016333228018E+00  6.3307179951435E-01
36  3.5000000000000E-01  1.9114496713404E+00  5.3101254175431E-01
37  3.6000000000000E-01  1.9137118287069E+00  4.2089284276638E-01
38  3.7000000000000E-01  1.9084254308496E+00  3.0461585578428E-01
39  3.8000000000000E-01  1.8956566972433E+00  1.8421829414830E-01
40  3.9000000000000E-01  1.8755298722556E+00  6.1810526137301E-02
41  4.0000000000000E-01  1.8482240658837E+00 -6.0485537063983E-02
42  4.1000000000000E-01  1.8139696003638E+00 -1.8059841157018E-01
43  4.2000000000000E-01  1.7730439757614E+00 -2.9656650487266E-01
44  4.3000000000000E-01  1.7257675698326E+00 -4.0659279069379E-01
45  4.4000000000000E-01  1.6724991851883E+00 -5.0909258764010E-01
46  4.5000000000000E-01  1.6136315502869E+00 -6.0273259983661E-01
47  4.6000000000000E-01  1.5495868703719E+00 -6.8645972227136E-01
48  4.7000000000000E-01  1.4808125106929E+00 -7.5951852440249E-01
49  4.8000000000000E-01  1.4077768778543E+00 -8.2145678660140E-01
50  4.9000000000000E-01  1.3309655467071E+00 -8.7211895679298E-01
51  5.0000000000000E-01  1.2508776607074E+00 -9.1162789914597E-01
52  5.1000000000000E-01  1.1680226139997E+00 -9.4035580196663E-01
53  5.2000000000000E-01  1.0829170045830E+00 -9.5888557719916E-01
54  5.3000000000000E-01  9.9608183065400E-01 -9.6796449914888E-01
55  5.4000000000000E-01  9.0803988741550E-01 -9.6845217697965E-01
56  5.5000000000000E-01  8.1931331000620E-01 -9.6126521847233E-01
57  5.6000000000000E-01  7.3042120031213E-01 -9.4732110896589E-01
58  5.7000000000000E-01  6.4187727167731E-01 -9.2748389062957E-01
59  5.8000000000000E-01  5.5418744615941E-01 -9.0251417877063E-01
60  5.9000000000000E-01  4.6784734400050E-01 -8.7302589378247E-01
61  6.0000000000000E-01  3.8333961422688E-01 -8.3945182419345E-01
62  6.1000000000000E-01  3.0113106837849E-01 -8.0201977715954E-01
63  6.2000000000000E-01  2.2166959573681E-01 -7.6074063092112E-01
64  6.3000000000000E-01  1.4538085734476E-01 -7.1540909618805E-01
65  6.4000000000000E-01  7.2664776731676E-02 -6.6561744019067E-01
66  6.5000000000000E-01  3.8918666065534E-03 -6.1078185059599E-01
67  6.6000000000000E-01 -6.0600548158743E-02 -5.5018054044021E-01
68  6.7000000000000E-01 -1.2051213121388E-01 -4.8300214395191E-01
69  6.8000000000000E-01 -1.7558326166961E-01 -4.0840245034574E-01
70  6.9000000000000E-01 -2.2559857580872E-01 -3.2556709063855E-01
71  7.0000000000000E-01 -2.7039020214136E-01 -2.3377745101158E-01
72  7.1000000000000E-01 -3.0984056324145E-01 -1.3247685170059E-01
73  7.2000000000000E-01 -3.4388461796530E-01 -2.1333915223987E-02
74  7.3000000000000E-01 -3.7251142339712E-01  9.9699940296628E-02
75  7.4000000000000E-01 -3.9576490724349E-01  2.3034180519431E-01
76  7.5000000000000E-01 -4.1374375822040E-01  3.6994003314364E-01
77  7.6000000000000E-01 -4.2660036382030E-01  5.1745071189037E-01
78  7.7000000000000E-01 -4.3453875106492E-01  6.7142961979198E-01
79  7.8000000000000E-01 -4.3781151558634E-01  8.3004085402801E-01
80  7.9000000000000E-01 -4.3671575660755E-01  9.9108266455429E-01
81  8.0000000000000E-01 -4.3158806894466E-01  1.1520303331507E+00
82  8.1000000000000E-01 -4.2279867676888E-01  1.3100952260828E+00
83  8.2000000000000E-01 -4.1074482623523E-01  1.4622984502506E+00
84  8.3000000000000E-01 -3.9584358390688E-01  1.6055568844681E+00
85  8.4000000000000E-01 -3.7852421393227E-01  1.7367787671011E+00
86  8.5000000000000E-01 -3.5922032802617E-01  1.8529655239757E+00
87  8.6000000000000E-01 -3.3836201747923E-01  1.9513161385203E+00
88  8.7000000000000E-01 -3.1636818488073E-01  2.0293301177746E+00
89  8.8000000000000E-01 -2.9363929442156E-01  2.0849050067930E+00
90  8.9000000000000E-01 -2.7055075323791E-01  2.1164244583627E+00
91  9.0000000000000E-01 -2.4744712221920E-01  2.1228330775032E+00
92  9.1000000000000E-01 -2.2463733326983E-01  2.1036946277856E+00
93  9.2000000000000E-01 -2.0239106168344E-01  2.0592307002831E+00
94  9.3000000000000E-01 -1.8093636782192E-01  1.9903375916131E+00
95  9.4000000000000E-01 -1.6045868266817E-01  1.8985798960187E+00
96  9.5000000000000E-01 -1.4110116822124E-01  1.7861601643833E+00
97  9.6000000000000E-01 -1.2296643746045E-01  1.6558648937429E+00
98  9.7000000000000E-01 -1.0611957114459E-01  1.5109880554080E+00
99  9.8000000000000E-01 -9.0592321537755E-02  1.3552343176368E+00
100  9.9000000000000E-01 -7.6388347724812E-02  1.1926050399004E+00
101  1.0000000000000E+00 -6.3489284940120E-02  1.0272709804138E+00
102  1.0100000000000E+00 -5.1861412594297E-02  8.6343643945691E-01
103  1.0200000000000E+00 -4.1462653613549E-02  7.0520023355724E-01
104  1.0300000000000E+00 -3.2249601253892E-02  5.5641954716435E-01
105  1.0400000000000E+00 -2.4184353328382E-02  4.2058207841156E-01
106  1.0500000000000E+00 -1.7243416605557E-02  3.0066832531176E-01
107  1.0600000000000E+00 -1.1457990630920E-02  1.9870902761913E-01
108  1.0700000000000E+00 -6.8245112700943E-03  1.1663247231306E-01
109  1.0800000000000E+00 -3.3467143784583E-03  5.5895640582271E-02
110  1.0900000000000E+00 -1.0625049629273E-03  1.7217304381101E-02
111  1.1000000000000E+00 -6.0316334768355E-05  9.4118507423924E-04
112  1.1100000000000E+00 -2.0717581694803E-06  3.2365593254041E-05
113  1.1200000000000E+00  7.0084115883679E-07 -1.1111005351627E-05
114  1.13  0.  0.
115  1.14  0.  0.
116  1.15  0.  0.
117  1.16  0.  0.
118  1.17  0.  0.
119  1.18  0.  0.
120  1.19  0.  0.
121  1.20  0.  0.
122  1.21  0.  0.
123  1.22  0.  0.
124  1.23  0.  0.
125  1.24  0.  0.
126  1.25  0.  0.
127  1.26  0.  0.
128  1.27  0.  0.
129  1.28  0.  0.
130  1.29  0.  0.
131  1.30  0.  0.
132  1.31  0.  0.
133  1.32  0.  0.
134  1.33  0.  0.
135  1.34  0.  0.
136  1.35  0.  0.
137  1.36  0.  0.
138  1.37  0.  0.
139  1.38  0.  0.
140  1.39  0.  0.
141  1.40  0.  0.
142  1.41  0.  0.
143  1.42  0.  0.
144  1.43  0.  0.
145  1.44  0.  0.
146  1.45  0.  0.
147  1.46  0.  0.
148  1.47  0.  0.
149  1.48  0.  0.
150  1.49  0.  0.
151  1.50  0.  0.
152  1.51  0.  0.
153  1.52  0.  0.
154  1.53  0.  0.
155  1.54  0.  0.
156  1.55  0.  0.
157  1.56  0.  0.
158  1.57  0.  0.
159  1.58  0.  0.
160  1.59  0.  0.
161  1.60  0.  0.
162  1.61  0.  0.
163  1.62  0.  0.
164  1.63  0.  0.
165  1.64  0.  0.
166  1.65  0.  0.
167  1.66  0.  0.
168  1.67  0.  0.
169  1.68  0.  0.
170  1.69  0.  0.
171  1.70  0.  0.
172  1.71  0.  0.
173  1.72  0.  0.
174  1.73  0.  0.
175  1.74  0.  0.
176  1.75  0.  0.
177  1.76  0.  0.
178  1.77  0.  0.
179  1.78  0.  0.
180  1.79  0.  0.
181  1.80  0.  0.
182  1.81  0.  0.
183  1.82  0.  0.
184  1.83  0.  0.
185  1.84  0.  0.
186  1.85  0.  0.
187  1.86  0.  0.
188  1.87  0.  0.
189  1.88  0.  0.
190  1.89  0.  0.
191  1.90  0.  0.
192  1.91  0.  0.
193  1.92  0.  0.
194  1.93  0.  0.
195  1.94  0.  0.
196  1.95  0.  0.
197  1.96  0.  0.