Pa    ONCVPSP-4.0.1  r_core=   1.20608   1.25016   1.20608   1.40064
91.0000     31.0000      230114    zatom,zion,pspd
8      11   3     4   600     0    pspcod,pspxc,lmax,lloc,mmax,r2well
5.99000000  5.00000000  0.00000000    rchrg fchrg qchrg
3     2     2     2     0    nproj
1     1           extension_switch
0                         3.8197774506768E+01  4.0105601458467E+00 -1.1685691038491E+00
1  0.0000000000000E+00 -1.2695071305302E-07  3.5486436189558E-07  6.1937920903254E-09
2  1.0000000000000E-02  1.6552440071057E-01 -1.0133371634977E-01  1.9588717290632E-02
3  2.0000000000000E-02  3.2952010603500E-01 -1.9989397385645E-01  3.9124144684485E-02
4  3.0000000000000E-02  4.9049012923146E-01 -2.9298905928363E-01  5.8552159000016E-02
5  4.0000000000000E-02  6.4699990667321E-01 -3.7808799416239E-01  7.7817022173350E-02
6  5.0000000000000E-02  7.9770605875401E-01 -4.5289410826416E-01  9.6860701375094E-02
7  6.0000000000000E-02  9.4138230615601E-01 -5.1541072908277E-01  1.1562233759391E-01
8  7.0000000000000E-02  1.0769417498207E+00 -5.6399679688105E-01  1.3403790463935E-01
9  8.0000000000000E-02  1.2034548499145E+00 -5.9741056972246E-01  1.5204009432252E-01
10  9.0000000000000E-02  1.3201625890278E+00 -6.1484000211370E-01  1.6955845615609E-01
11  1.0000000000000E-01  1.4264844724311E+00 -6.1591884947859E-01  1.8651981147812E-01
12  1.1000000000000E-01  1.5220211974402E+00 -6.0072805195250E-01  2.0284895268262E-01
13  1.2000000000000E-01  1.6065520084157E+00 -5.6978246705552E-01  2.1846962848895E-01
14  1.3000000000000E-01  1.6800269370460E+00 -5.2400353328139E-01  2.3330580617698E-01
15  1.4000000000000E-01  1.7425543028097E+00 -4.6467893727058E-01  2.4728319173867E-01
16  1.5000000000000E-01  1.7943840096338E+00 -3.9341080856046E-01  2.6033097923443E-01
17  1.6000000000000E-01  1.8358873160188E+00 -3.1205436187504E-01  2.7238379157618E-01
18  1.7000000000000E-01  1.8675338722868E+00 -2.2264923348322E-01  2.8338376675533E-01
19  1.8000000000000E-01  1.8898669059906E+00 -1.2734600374766E-01  2.9328273644223E-01
20  1.9000000000000E-01  1.9034774918424E+00 -2.8330553971978E-02  3.0204443812519E-01
21  2.0000000000000E-01  1.9089788638606E+00  7.2251033412566E-02  3.0964669772082E-01
22  2.1000000000000E-01  1.9069817140995E+00  1.7236435841808E-01  3.1608351702456E-01
23  2.2000000000000E-01  1.8980713748915E+00  2.7015282967235E-01  3.2136699958763E-01
24  2.3000000000000E-01  1.8827877017697E+00  3.6399571449253E-01  3.2552904966645E-01
25  2.4000000000000E-01  1.8616083651244E+00  4.5255609920836E-01  3.2862278180549E-01
26  2.5000000000000E-01  1.8349361241740E+00  5.3481712258883E-01  3.3072358334677E-01
27  2.6000000000000E-01  1.8030905019423E+00  6.1010527956049E-01  3.3192977862242E-01
28  2.7000000000000E-01  1.7663041102764E+00  6.7810006883073E-01  3.3236285164529E-01
29  2.8000000000000E-01  1.7247236957092E+00  7.3882975932997E-01  3.3216719358528E-01
30  2.9000000000000E-01  1.6784157966683E+00  7.9265355845462E-01  3.3150935198401E-01
31  3.0000000000000E-01  1.6273767267080E+00  8.4023096163283E-01  3.3057677025800E-01
32  3.1000000000000E-01  1.5715464335184E+00  8.8247952981397E-01  3.2957601828248E-01
33  3.2000000000000E-01  1.5108256354215E+00  9.2052276234538E-01  3.2873052742128E-01
34  3.3000000000000E-01  1.4450955112995E+00  9.5563009219367E-01  3.2827785594780E-01
35  3.4000000000000E-01  1.3742391209869E+00  9.8915131570312E-01  3.2846652305257E-01
36  3.5000000000000E-01  1.2981636646846E+00  1.0224479698962E+00  3.2955246122653E-01
37  3.6000000000000E-01  1.2168226544251E+00  1.0568242795322E+00  3.3179514742375E-01
38  3.7000000000000E-01  1.1302370693166E+00  1.0934603099791E+00  3.3545348274824E-01
39  3.8000000000000E-01  1.0385145992753E+00  1.1333498800059E+00  3.4078149820392E-01
40  3.9000000000000E-01  9.4186614802549E-01  1.1772456140177E+00  3.4802397006582E-01
41  4.0000000000000E-01  8.4061886291503E-01  1.2256132523979E+00  3.5741203248376E-01
42  4.1000000000000E-01  7.3522508304063E-01  1.2785970011219E+00  3.6915887688081E-01
43  4.2000000000000E-01  6.2626674382822E-01  1.3359972998852E+00  3.8345562747441E-01
44  4.3000000000000E-01  5.1445494024228E-01  1.3972619363117E+00  4.0046747980316E-01
45  4.4000000000000E-01  4.0062452626893E-01  1.4614909487267E+00  4.2033018452298E-01
46  4.5000000000000E-01  2.8572380888674E-01  1.5274552590646E+00  4.4314695203688E-01
47  4.6000000000000E-01  1.7079957387249E-01  1.5936284788116E+00  4.6898584489785E-01
48  4.7000000000000E-01  5.6977852019463E-02  1.6582308524578E+00  4.9787771458191E-01
49  4.8000000000000E-01 -5.4559008489886E-02  1.7192838618932E+00  5.2981472742706E-01
50  4.9000000000000E-01 -1.6259826039091E-01  1.7746736273935E+00  5.6474951157720E-01
51  5.0000000000000E-01 -2.6592485037970E-01  1.8222209200600E+00  6.0259494299313E-01
52  5.1000000000000E-01 -3.6335078686178E-01  1.8597553582054E+00  6.4322457436214E-01
53  5.2000000000000E-01 -4.5374482995337E-01  1.8851912046804E+00  6.8647369643233E-01
54  5.3000000000000E-01 -5.3606153235187E-01  1.8966021188193E+00  7.3214100730350E-01
55  5.4000000000000E-01 -6.0936867486734E-01  1.8922922475148E+00  7.7999085190415E-01
56  5.5000000000000E-01 -6.7287218906351E-01  1.8708611634304E+00  8.2975598163601E-01
57  5.6000000000000E-01 -7.2593773976623E-01  1.8312603697394E+00  8.8114077331031E-01
58  5.7000000000000E-01 -7.6810824919428E-01  1.7728393820567E+00  9.3382483732980E-01
59  5.8000000000000E-01 -7.9911677816837E-01  1.6953797586207E+00  9.8746693783840E-01
60  5.9000000000000E-01 -8.1889433339383E-01  1.5991158659978E+00  1.0417091424604E+00
61  6.0000000000000E-01 -8.2757233765687E-01  1.4847416244803E+00  1.0961811164153E+00
62  6.1000000000000E-01 -8.2547967588513E-01  1.3534029583272E+00  1.1505044752902E+00
63  6.2000000000000E-01 -8.1313440812243E-01  1.2066761637722E+00  1.2042971125723E+00
64  6.3000000000000E-01 -7.9123041424444E-01  1.0465328848475E+00  1.2571774221197E+00
65  6.4000000000000E-01 -7.6061939859530E-01  8.7529283666480E-01  1.3087683419301E+00
66  6.5000000000000E-01 -7.2228882998285E-01  6.9556582208644E-01  1.3587011536582E+00
67  6.6000000000000E-01 -6.7733651859858E-01  5.1018493668987E-01  1.4066189820462E+00
68  6.7000000000000E-01 -6.2694263220604E-01  3.2213313674984E-01  1.4521799494754E+00
69  6.8000000000000E-01 -5.7234002611967E-01  1.3446554647505E-01  1.4950599528340E+00
70  6.9000000000000E-01 -5.1478380288732E-01 -4.9770002316219E-02  1.5349550424508E+00
71  7.0000000000000E-01 -4.5552102717214E-01 -2.2761167555856E-01  1.5715833955514E+00
72  7.1000000000000E-01 -3.9576149923111E-01 -3.9625912296601E-01  1.6046868891314E+00
73  7.2000000000000E-01 -3.3665043790140E-01 -5.5314342263561E-01  1.6340322889030E+00
74  7.3000000000000E-01 -2.7924384351933E-01 -6.9598938218672E-01  1.6594120816699E+00
75  7.4000000000000E-01 -2.2448720606024E-01 -8.2286838313420E-01  1.6806449877607E+00
76  7.5000000000000E-01 -1.7319809823239E-01 -9.3224030110243E-01  1.6975761976911E+00
77  7.6000000000000E-01 -1.2605305216868E-01 -1.0229834241966E+00  1.7100773827854E+00
78  7.7000000000000E-01 -8.3578967097174E-02 -1.0944117106370E+00  1.7180465328660E+00
79  7.8000000000000E-01 -4.6149139606608E-02 -1.1462791589975E+00  1.7214076752115E+00
80  7.9000000000000E-01 -1.3983853523278E-02 -1.1787714944101E+00  1.7201105277431E+00
81  8.0000000000000E-01  1.2844681453744E-02 -1.1924857864610E+00  1.7141301358715E+00
82  8.1000000000000E-01  3.4403389224057E-02 -1.1883989949381E+00  1.7034665367398E+00
83  8.2000000000000E-01  5.0885851251791E-02 -1.1678267751396E+00  1.6881444869330E+00
84  8.3000000000000E-01  6.2596860602987E-02 -1.1323741542897E+00  1.6682132803597E+00
85  8.4000000000000E-01  6.9934647470890E-02 -1.0838799061641E+00  1.6437466722827E+00
86  8.5000000000000E-01  7.3371468055925E-02 -1.0243565963880E+00  1.6148429137697E+00
87  8.6000000000000E-01  7.3433272707247E-02 -9.5592834293000E-01  1.5816248885852E+00
88  8.7000000000000E-01  7.0679166879718E-02 -8.8076833480510E-01  1.5442403322123E+00
89  8.8000000000000E-01  6.5681350746631E-02 -8.0103807947343E-01  1.5028621007532E+00
90  8.9000000000000E-01  5.9006172213208E-02 -7.1883021103545E-01  1.4576884463882E+00
91  9.0000000000000E-01  5.1196856427140E-02 -6.3611649462105E-01  1.4089432463332E+00
92  9.1000000000000E-01  4.2758386215404E-02 -5.5470241685741E-01  1.3568761242673E+00
93  9.2000000000000E-01  3.4144906277521E-02 -4.7618946905994E-01  1.3017623973758E+00
94  9.3000000000000E-01  2.5749913893701E-02 -4.0194592097616E-01  1.2439027788264E+00
95  9.4000000000000E-01  1.7899384972489E-02 -3.3308656115343E-01  1.1836227649101E+00
96  9.5000000000000E-01  1.0847871069309E-02 -2.7046155796271E-01  1.1212716384389E+00
97  9.6000000000000E-01  4.7774949309542E-03 -2.1465428510124E-01  1.0572210254034E+00
98  9.7000000000000E-01 -2.0032689183578E-04 -1.6598766799733E-01  9.9186295036780E-01
99  9.8000000000000E-01 -4.0406923614938E-03 -1.2453835252303E-01  9.2560734756349E-01
100  9.9000000000000E-01 -6.7588826264389E-03 -9.0157782279058E-02  8.5887899897005E-01
101  1.0000000000000E+00 -8.4222749277661E-03 -6.2499100874492E-02  7.9211388762015E-01
102  1.0100000000000E+00 -9.1409201460502E-03 -4.1048674020400E-02  7.2575497361355E-01
103  1.0200000000000E+00 -9.0572240452340E-03 -2.5160953148603E-02  6.6024742148602E-01
104  1.0300000000000E+00 -8.3351729585378E-03 -1.4095375488116E-02  5.9603333025549E-01
105  1.0400000000000E+00 -7.1495312531152E-03 -7.0540104056116E-03  5.3354604113799E-01
106  1.0500000000000E+00 -5.6754121841600E-03 -3.2187110989580E-03  4.7320412208406E-01
107  1.0600000000000E+00 -4.0785890177131E-03 -1.7866056747471E-03  4.1540515247045E-01
108  1.0700000000000E+00 -2.5068738065142E-03 -2.0028510516565E-03  3.6051945485947E-01
109  1.0800000000000E+00 -1.0828513476569E-03 -3.1896651932466E-03  3.0888394328202E-01
110  1.0900000000000E+00  1.0177948822041E-04 -4.7707348276769E-03  2.6079627850295E-01
111  1.1000000000000E+00  9.9003065206395E-04 -6.2901535357235E-03  2.1650953966993E-01
112  1.1100000000000E+00  1.5614010225091E-03 -7.4250657200766E-03  1.7622763836856E-01
113  1.1200000000000E+00  1.8313809309152E-03 -7.9911626702582E-03  1.4010171489262E-01
114  1.1300000000000E+00  1.8483650834604E-03 -7.9399202620852E-03  1.0822774579698E-01
115  1.1400000000000E+00  1.6882528404327E-03 -7.3479451653886E-03  8.0645811617803E-02
116  1.1500000000000E+00  1.4096589259470E-03 -6.3047706528024E-03  5.7329149080874E-02
117  1.1600000000000E+00  8.9924710875327E-04 -4.5189040222382E-03  3.8139175811711E-02
118  1.1700000000000E+00  3.6553473562673E-04 -2.5574807060461E-03  2.3000618392378E-02
119  1.1800000000000E+00  2.1149201360373E-06 -9.9359922964552E-04  1.1806739661920E-02
120  1.1900000000000E+00 -1.1126729337001E-04 -1.4303060424764E-04  4.4077688889278E-03
121  1.2000000000000E+00 -3.9469479967883E-05  3.1573580124178E-05  6.3215662599420E-04
122  1.2100000000000E+00  3.5267710932797E-06 -4.5173707543035E-06 -3.7736074199724E-05
123  1.2200000000000E+00 -2.2235196036069E-07  2.4201723220922E-07  2.8261648505302E-06
124  1.23 -0.  0. -0.
125  1.24  0.  0.  0.
126  1.25  0.  0.  0.
127  1.26  0.  0.  0.
128  1.27  0.  0.  0.
129  1.28  0.  0.  0.
130  1.29  0.  0.  0.
131  1.30  0.  0.  0.
132  1.31  0.  0.  0.
133  1.32  0.  0.  0.
134  1.33  0.  0.  0.
135  1.34  0.  0.  0.
136  1.35  0.  0.  0.
137  1.36  0.  0.  0.
138  1.37  0.  0.  0.
139  1.38  0.  0.  0.
140  1.39  0.  0.  0.
141  1.40  0.  0.  0.
142  1.41  0.  0.  0.
143  1.42  0.  0.  0.
144  1.43  0.  0.  0.
145  1.44  0.  0.  0.
146  1.45  0.  0.  0.
147  1.46  0.  0.  0.
148  1.47  0.  0.  0.
149  1.48  0.  0.  0.
150  1.49  0.  0.  0.
151  1.50  0.  0.  0.
152  1.51  0.  0.  0.
153  1.52  0.  0.  0.
154  1.53  0.  0.  0.
155  1.54  0.  0.  0.
156  1.55  0.  0.  0.
157  1.56  0.  0.  0.
158  1.57  0.  0.  0.
159  1.58  0.  0.  0.
160  1.59  0.  0.  0.
161  1.60  0.  0.  0.
162  1.61  0.  0.  0.
163  1.62  0.  0.  0.
164  1.63  0.  0.  0.
165  1.64  0.  0.  0.
166  1.65  0.  0.  0.
167  1.66  0.  0.  0.
168  1.67  0.  0.  0.
169  1.68  0.  0.  0.
170  1.69  0.  0.  0.
171  1.70  0.  0.  0.
172  1.71  0.  0.  0.
173  1.72  0.  0.  0.
174  1.73  0.  0.  0.
175  1.74  0.  0.  0.
176  1.75  0.  0.  0.
177  1.76  0.  0.  0.
178  1.77  0.  0.  0.
179  1.78  0.  0.  0.
180  1.79  0.  0.  0.
181  1.80  0.  0.  0.
182  1.81  0.  0.  0.
183  1.82  0.  0.  0.
184  1.83  0.  0.  0.
185  1.84  0.  0.  0.
186  1.85  0.  0.  0.
187  1.86  0.  0.  0.
188  1.87  0.  0.  0.
189  1.88  0.  0.  0.
190  1.89  0.  0.  0.
191  1.90  0.  0.  0.
192  1.91  0.  0.  0.
193  1.92  0.  0.  0.
194  1.93  0.  0.  0.
195  1.94  0.  0.  0.
196  1.95  0.  0.  0.
197  1.96  0.  0.  0.
198  1.97  0.  0.  0.
199  1.98  0.  0.  0.
200  1.99  0.  0.  0.
201  2.00  0.  0.  0.
202  2.01  0.  0.  0.
203  2.02  0.  0.  0.
204  2.03  0.  0.  0.
205  2.04  0.  0.  0.
206  2.05  0.  0.  0.
207  2.06  0.  0.  0.
208  2.07  0.  0.  0.
209  2.08  0.  0.  0.
210  2.09  0.  0.  0.
211  2.10  0.  0.  0.
212  2.11  0.  0.  0.
213  2.12  0.  0.  0.
214  2.13  0.  0.  0.
215  2.14  0.  0.  0.
216  2.15  0.  0.  0.
217  2.16  0.  0.  0.
218  2.17  0.  0.  0.
219  2.18  0.  0.  0.
220  2.19  0.  0.  0.
221  2.20  0.  0.  0.
222  2.21  0.  0.  0.
223  2.22  0.  0.  0.
224  2.23  0.  0.  0.
225  2.24  0.  0.  0.
226  2.25  0.  0.  0.
227  2.26  0.  0.  0.
228  2.27  0.  0.  0.
229  2.28  0.  0.  0.
230  2.29  0.  0.  0.
231  2.30  0.  0.  0.
232  2.31  0.  0.  0.
233  2.32  0.  0.  0.
234  2.33  0.  0.  0.
235  2.34  0.  0.  0.
236  2.35  0.  0.  0.
237  2.36  0.  0.  0.
238  2.37  0.  0.  0.
239  2.38  0.  0.  0.
240  2.39  0.  0.  0.
241  2.40  0.  0.  0.
242  2.41  0.  0.  0.
243  2.42  0.  0.  0.
244  2.43  0.  0.  0.
245  2.44  0.  0.  0.
246  2.45  0.  0.  0.
247  2.46  0.  0.  0.
248  2.47  0.  0.  0.
249  2.48  0.  0.  0.
250  2.49  0.  0.  0.
251  2.50  0.  0.  0.
252  2.51  0.  0.  0.
253  2.52  0.  0.  0.
254  2.53  0.  0.  0.
255  2.54  0.  0.  0.
256  2.55  0.  0.  0.
257  2.56  0.  0.  0.
258  2.57  0.  0.  0.
259  2.58  0.  0.  0.
260  2.59  0.  0.  0.
261  2.60  0.  0.  0.
262  2.61  0.  0.  0.
263  2.62  0.  0.  0.
264  2.63  0.  0.  0.
265  2.64  0.  0.  0.
266  2.65  0.  0.  0.
267  2.66  0.  0.  0.
268  2.67  0.  0.  0.
269  2.68  0.  0.  0.
270  2.69  0.  0.  0.
271  2.70  0.  0.  0.
272  2.71  0.  0.  0.
273  2.72  0.  0.  0.
274  2.73  0.  0.  0.
275  2.74  0.  0.  0.
276  2.75  0.  0.  0.
277  2.76  0.  0.  0.
278  2.77  0.  0.  0.
279  2.78  0.  0.  0.
280  2.79  0.  0.  0.
281  2.80  0.  0.  0.
282  2.81  0.  0.  0.
283  2.82  0.  0.  0.
284  2.83  0.  0.  0.
285  2.84  0.  0.  0.
286  2.85  0.  0.  0.
287  2.86  0.  0.  0.
288  2.87  0.  0.  0.
289  2.88  0.  0.  0.
290  2.89  0.  0.  0.
291  2.90  0.  0.  0.
292  2.91  0.  0.  0.
293  2.92  0.  0.  0.
294  2.93  0.  0.  0.
295  2.94  0.  0.  0.
296  2.95  0.  0.  0.
297  2.96  0.  0.  0.
298  2.97  0.  0.  0.
299  2.98  0.  0.  0.
300  2.99  0.  0.  0.
301  3.00  0.  0.  0.
302  3.01  0.  0.  0.
303  3.02  0.  0.  0.
304  3.03  0.  0.  0.
305  3.04  0.  0.  0.
306  3.05  0.  0.  0.
307  3.06  0.  0.  0.
308  3.07  0.  0.  0.
309  3.08  0.  0.  0.
310  3.09  0.  0.  0.
311  3.10  0.  0.  0.
312  3.11  0.  0.  0.
313  3.12  0.  0.  0.
314  3.13  0.  0.  0.
315  3.14  0.  0.  0.
316  3.15  0.  0.  0.
317  3.16  0.  0.  0.
318  3.17  0.  0.  0.
319  3.18  0.  0.  0.
320  3.19  0.  0.  0.
321  3.20  0.  0.  0.
322  3.21  0.  0.  0.
323  3.22  0.  0.  0.
324  3.23  0.  0.  0.
325  3.24  0.  0.  0.
326  3.25  0.  0.  0.
327  3.26  0.  0.  0.
328  3.27  0.  0.  0.
329  3.28  0.  0.  0.
330  3.29  0.  0.  0.
331  3.30  0.  0.  0.
332  3.31  0.  0.  0.
333  3.32  0.  0.  0.
334  3.33  0.  0.  0.
335  3.34  0.  0.  0.
336  3.35  0.  0.  0.
337  3.36  0.  0.  0.
338  3.37  0.  0.  0.
339  3.38  0.  0.  0.
340  3.39  0.  0.  0.
341  3.40  0.  0.  0.
342  3.41  0.  0.  0.
343  3.42  0.  0.  0.
344  3.43  0.  0.  0.
345  3.44  0.  0.  0.
346  3.45  0.  0.  0.
347  3.46  0.  0.  0.
348  3.47  0.  0.  0.
349  3.48  0.  0.  0.
350  3.49  0.  0.  0.
351  3.50  0.  0.  0.
352  3.51  0.  0.  0.
353  3.52  0.  0.  0.
354  3.53  0.  0.  0.
355  3.54  0.  0.  0.
356  3.55  0.  0.  0.
357  3.56  0.  0.  0.
358  3.57  0.  0.  0.
359  3.58  0.  0.  0.
360  3.59  0.  0.  0.
361  3.60  0.  0.  0.
362  3.61  0.  0.  0.
363  3.62  0.  0.  0.
364  3.63  0.  0.  0.
365  3.64  0.  0.  0.
366  3.65  0.  0.  0.
367  3.66  0.  0.  0.
368  3.67  0.  0.  0.
369  3.68  0.  0.  0.
370  3.69  0.  0.  0.
371  3.70  0.  0.  0.
372  3.71  0.  0.  0.
373  3.72  0.  0.  0.
374  3.73  0.  0.  0.
375  3.74  0.  0.  0.
376  3.75  0.  0.  0.
377  3.76  0.  0.  0.
378  3.77  0.  0.  0.
379  3.78  0.  0.  0.
380  3.79  0.  0.  0.
381  3.80  0.  0.  0.
382  3.81  0.  0.  0.
383  3.82  0.  0.  0.
384  3.83  0.  0.  0.
385  3.84  0.  0.  0.
386  3.85  0.  0.  0.
387  3.86  0.  0.  0.
388  3.87  0.  0.  0.
389  3.88  0.  0.  0.
390  3.89  0.  0.  0.
391  3.90  0.  0.  0.
392  3.91  0.  0.  0.
393  3.92  0.  0.  0.
394  3.93  0.  0.  0.
395  3.94  0.  0.  0.
396  3.95  0.  0.  0.
397  3.96  0.  0.  0.
398  3.97  0.  0.  0.
399  3.98  0.  0.  0.
400  3.99  0.  0.  0.
401  4.00  0.  0.  0.
402  4.01  0.  0.  0.
403  4.02  0.  0.  0.
404  4.03  0.  0.  0.
405  4.04  0.  0.  0.
406  4.05  0.  0.  0.
407  4.06  0.  0.  0.
408  4.07  0.  0.  0.
409  4.08  0.  0.  0.
410  4.09  0.  0.  0.
411  4.10  0.  0.  0.
412  4.11  0.  0.  0.
413  4.12  0.  0.  0.
414  4.13  0.  0.  0.
415  4.14  0.  0.  0.
416  4.15  0.  0.  0.
417  4.16  0.  0.  0.
418  4.17  0.  0.  0.
419  4.18  0.  0.  0.
420  4.19  0.  0.  0.
421  4.20  0.  0.  0.
422  4.21  0.  0.  0.
423  4.22  0.  0.  0.
424  4.23  0.  0.  0.
425  4.24  0.  0.  0.
426  4.25  0.  0.  0.
427  4.26  0.  0.  0.
428  4.27  0.  0.  0.
429  4.28  0.  0.  0.
430  4.29  0.  0.  0.
431  4.30  0.  0.  0.
432  4.31  0.  0.  0.
433  4.32  0.  0.  0.
434  4.33  0.  0.  0.
435  4.34  0.  0.  0.
436  4.35  0.  0.  0.
437  4.36  0.  0.  0.
438  4.37  0.  0.  0.
439  4.38  0.  0.  0.
440  4.39  0.  0.  0.
441  4.40  0.  0.  0.
442  4.41  0.  0.  0.
443  4.42  0.  0.  0.
444  4.43  0.  0.  0.
445  4.44  0.  0.  0.
446  4.45  0.  0.  0.
447  4.46  0.  0.  0.
448  4.47  0.  0.  0.
449  4.48  0.  0.  0.
450  4.49  0.  0.  0.
451  4.50  0.  0.  0.
452  4.51  0.  0.  0.
453  4.52  0.  0.  0.
454  4.53  0.  0.  0.
455  4.54  0.  0.  0.
456  4.55  0.  0.  0.
457  4.56  0.  0.  0.
458  4.57  0.  0.  0.
459  4.58  0.  0.  0.
460  4.59  0.  0.  0.
461  4.60  0.  0.  0.
462  4.61  0.  0.  0.
463  4.62  0.  0.  0.
464  4.63  0.  0.  0.
465  4.64  0.  0.  0.
466  4.65  0.  0.  0.
467  4.66  0.  0.  0.
468  4.67  0.  0.  0.
469  4.68  0.  0.  0.
470  4.69  0.  0.  0.
471  4.70  0.  0.  0.
472  4.71  0.  0.  0.
473  4.72  0.  0.  0.
474  4.73  0.  0.  0.
475  4.74  0.  0.  0.
476  4.75  0.  0.  0.
477  4.76  0.  0.  0.
478  4.77  0.  0.  0.
479  4.78  0.  0.  0.
480  4.79  0.  0.  0.
481  4.80  0.  0.  0.
482  4.81  0.  0.  0.
483  4.82  0.  0.  0.
484  4.83  0.  0.  0.
485  4.84  0.  0.  0.
486  4.85  0.  0.  0.
487  4.86  0.  0.  0.
488  4.87  0.  0.  0.
489  4.88  0.  0.  0.
490  4.89  0.  0.  0.
491  4.90  0.  0.  0.
492  4.91  0.  0.  0.
493  4.92  0.  0.  0.
494  4.93  0.  0.  0.
495  4.94  0.  0.  0.
496  4.95  0.  0.  0.
497  4.96  0.  0.  0.
498  4.97  0.  0.  0.
499  4.98  0.  0.  0.
500  4.99  0.  0.  0.
501  5.00  0.  0.  0.
502  5.01  0.  0.  0.
503  5.02  0.  0.  0.
504  5.03  0.  0.  0.
505  5.04  0.  0.  0.
506  5.05  0.  0.  0.
507  5.06  0.  0.  0.
508  5.07  0.  0.  0.
509  5.08  0.  0.  0.
510  5.09  0.  0.  0.
511  5.10  0.  0.  0.
512  5.11  0.  0.  0.
513  5.12  0.  0.  0.
514  5.13  0.  0.  0.
515  5.14  0.  0.  0.
516  5.15  0.  0.  0.
517  5.16  0.  0.  0.
518  5.17  0.  0.  0.
519  5.18  0.  0.  0.
520  5.19  0.  0.  0.
521  5.20  0.  0.  0.
522  5.21  0.  0.  0.
523  5.22  0.  0.  0.
524  5.23  0.  0.  0.
525  5.24  0.  0.  0.
526  5.25  0.  0.  0.
527  5.26  0.  0.  0.
528  5.27  0.  0.  0.
529  5.28  0.  0.  0.
530  5.29  0.  0.  0.
531  5.30  0.  0.  0.
532  5.31  0.  0.  0.
533  5.32  0.  0.  0.
534  5.33  0.  0.  0.
535  5.34  0.  0.  0.
536  5.35  0.  0.  0.
537  5.36  0.  0.  0.
538  5.37  0.  0.  0.
539  5.38  0.  0.  0.
540  5.39  0.  0.  0.
541  5.40  0.  0.  0.
542  5.41  0.  0.  0.
543  5.42  0.  0.  0.
544  5.43  0.  0.  0.
545  5.44  0.  0.  0.
546  5.45  0.  0.  0.
547  5.46  0.  0.  0.
548  5.47  0.  0.  0.
549  5.48  0.  0.  0.
550  5.49  0.  0.  0.
551  5.50  0.  0.  0.
552  5.51  0.  0.  0.
553  5.52  0.  0.  0.
554  5.53  0.  0.  0.
555  5.54  0.  0.  0.
556  5.55  0.  0.  0.
557  5.56  0.  0.  0.
558  5.57  0.  0.  0.
559  5.58  0.  0.  0.
560  5.59  0.  0.  0.
561  5.60  0.  0.  0.
562  5.61  0.  0.  0.
563  5.62  0.  0.  0.
564  5.63  0.  0.  0.
565  5.64  0.  0.  0.
566  5.65  0.  0.  0.
567  5.66  0.  0.  0.
568  5.67  0.  0.  0.
569  5.68  0.  0.  0.
570  5.69  0.  0.  0.
571  5.70  0.  0.  0.
572  5.71  0.  0.  0.
573  5.72  0.  0.  0.
574  5.73  0.  0.  0.
575  5.74  0.  0.  0.
576  5.75  0.  0.  0.
577  5.76  0.  0.  0.
578  5.77  0.  0.  0.
579  5.78  0.  0.  0.
580  5.79  0.  0.  0.
581  5.80  0.  0.  0.
582  5.81  0.  0.  0.
583  5.82  0.  0.  0.
584  5.83  0.  0.  0.
585  5.84  0.  0.  0.
586  5.85  0.  0.  0.
587  5.86  0.  0.  0.
588  5.87  0.  0.  0.
589  5.88  0.  0.  0.
590  5.89  0.  0.  0.
591  5.90  0.  0.  0.
592  5.91  0.  0.  0.
593  5.92  0.  0.  0.
594  5.93  0.  0.  0.
595  5.94  0.  0.  0.
596  5.95  0.  0.  0.
597  5.96  0.  0.  0.
598  5.97  0.  0.  0.
599  5.98  0.  0.  0.
600  5.99  0.  0.  0.
1                         9.3182912385332E+00 -7.5991756386653E-01
1  0.0000000000000E+00 -1.1930124388382E-09 -1.0171785400082E-08
2  1.0000000000000E-02  3.7127579640754E-03  5.2919292578891E-04
3  2.0000000000000E-02  1.4823743223483E-02  2.1168672417307E-03
4  3.0000000000000E-02  3.3251231557091E-02  4.7631581681322E-03
5  4.0000000000000E-02  5.8859489439456E-02  8.4677934147534E-03
6  5.0000000000000E-02  9.1459488602100E-02  1.3229370925685E-02
7  6.0000000000000E-02  1.3080991470708E-01  1.9044395297695E-02
8  7.0000000000000E-02  1.7661847771874E-01  2.5906118408470E-02
9  8.0000000000000E-02  2.2854353275252E-01  3.3803239962958E-02
10  9.0000000000000E-02  2.8619602068937E-01  4.2718531835516E-02
11  1.0000000000000E-01  3.4914173757078E-01  5.2627455945262E-02
12  1.1000000000000E-01  4.1690394066034E-01  6.3496848717797E-02
13  1.2000000000000E-01  4.8896629703220E-01  7.5283745809446E-02
14  1.3000000000000E-01  5.6477617761732E-01  8.7934418637484E-02
15  1.4000000000000E-01  6.4374829583073E-01  1.0138368940251E-01
16  1.5000000000000E-01  7.2526868527787E-01  1.1555458382581E-01
17  1.6000000000000E-01  8.0869900568765E-01  1.3035837096480E-01
18  1.7000000000000E-01  8.9338116026708E-01  1.4569502750175E-01
19  1.8000000000000E-01  9.7864220126662E-01  1.6145415018834E-01
20  1.9000000000000E-01  1.0637994938592E+00  1.7751632509713E-01
21  2.0000000000000E-01  1.1481661016581E+00  1.9375494645392E-01
22  2.1000000000000E-01  1.2310563505329E+00  2.1003846161325E-01
23  2.2000000000000E-01  1.3117915210312E+00  2.2623300272110E-01
24  2.3000000000000E-01  1.3897056138921E+00  2.4220535031548E-01
25  2.4000000000000E-01  1.4641511280322E+00  2.5782616006404E-01
26  2.5000000000000E-01  1.5345047861976E+00  2.7297337151489E-01
27  2.6000000000000E-01  1.6001731403558E+00  2.8753570758203E-01
28  2.7000000000000E-01  1.6605979870085E+00  3.0141616587938E-01
29  2.8000000000000E-01  1.7152615220342E+00  3.1453539826250E-01
30  2.9000000000000E-01  1.7636911655123E+00  3.2683487325640E-01
31  3.0000000000000E-01  1.8054639892642E+00  3.3827971756985E-01
32  3.1000000000000E-01  1.8402106835849E+00  3.4886113765216E-01
33  3.2000000000000E-01  1.8676190047860E+00  3.5859833017025E-01
34  3.3000000000000E-01  1.8874366516524E+00  3.6753980120124E-01
35  3.4000000000000E-01  1.8994735266145E+00  3.7576402758848E-01
36  3.5000000000000E-01  1.9036033462055E+00  3.8337940994116E-01
37  3.6000000000000E-01  1.8997645750287E+00  3.9052348474050E-01
38  3.7000000000000E-01  1.8879606677851E+00  3.9736138244904E-01
39  3.8000000000000E-01  1.8682596146949E+00  4.0408353885299E-01
40  3.9000000000000E-01  1.8407927966219E+00  4.1090268751423E-01
41  4.0000000000000E-01  1.8057531671409E+00  4.1805018156079E-01
42  4.1000000000000E-01  1.7633927894153E+00  4.2577171249737E-01
43  4.2000000000000E-01  1.7140197658288E+00  4.3432251168075E-01
44  4.3000000000000E-01  1.6579946076063E+00  4.4396213602746E-01
45  4.4000000000000E-01  1.5957260999564E+00  4.5494895290383E-01
46  4.5000000000000E-01  1.5276667253820E+00  4.6753444956327E-01
47  4.6000000000000E-01  1.4543077135752E+00  4.8195749959635E-01
48  4.7000000000000E-01  1.3761737906348E+00  4.9843872239737E-01
49  4.8000000000000E-01  1.2938177031196E+00  5.1717507147884E-01
50  4.9000000000000E-01  1.2078145936617E+00  5.3833478354829E-01
51  5.0000000000000E-01  1.1187563045021E+00  5.6205281267381E-01
52  5.1000000000000E-01  1.0272456834282E+00  5.8842686279286E-01
53  5.2000000000000E-01  9.3389096328935E-01  6.1751411755609E-01
54  5.3000000000000E-01  8.3930028164773E-01  6.4932874943307E-01
55  5.4000000000000E-01  7.4407640137448E-01  6.8384027062045E-01
56  5.5000000000000E-01  6.4881168629378E-01  7.2097276713328E-01
57  5.6000000000000E-01  5.5408337853710E-01  7.6060503513724E-01
58  5.7000000000000E-01  4.6044921631807E-01  8.0257161573878E-01
59  5.8000000000000E-01  3.6844342261553E-01  8.4666470175662E-01
60  5.9000000000000E-01  2.7857308699579E-01  8.9263686811654E-01
61  6.0000000000000E-01  1.9131495474747E-01  9.4020455708167E-01
62  6.1000000000000E-01  1.0711262986186E-01  9.8905223115317E-01
63  6.2000000000000E-01  2.6374191365604E-02  1.0388370906875E+00
64  6.3000000000000E-01 -5.0529783728614E-02  1.0891942405351E+00
65  6.4000000000000E-01 -1.2326780290540E-01  1.1397421806798E+00
66  6.5000000000000E-01 -1.9154866240912E-01  1.1900884902003E+00
67  6.6000000000000E-01 -2.5512229283681E-01  1.2398355720444E+00
68  6.7000000000000E-01 -3.1378026771142E-01  1.2885863281105E+00
69  6.8000000000000E-01 -3.6735599769678E-01  1.3359496398934E+00
70  6.9000000000000E-01 -4.1572463310202E-01  1.3815455392458E+00
71  7.0000000000000E-01 -4.5880269638186E-01  1.4250099663121E+00
72  7.1000000000000E-01 -4.9654746460483E-01  1.4659990269852E+00
73  7.2000000000000E-01 -5.2895611949417E-01  1.5041926797934E+00
74  7.3000000000000E-01 -5.5606467983156E-01  1.5392978013637E+00
75  7.4000000000000E-01 -5.7794672795099E-01  1.5710505998876E+00
76  7.5000000000000E-01 -5.9471193894833E-01  1.5992183666512E+00
77  7.6000000000000E-01 -6.0650441829865E-01  1.6236005760166E+00
78  7.7000000000000E-01 -6.1350085100990E-01  1.6440293635626E+00
79  7.8000000000000E-01 -6.1590846343189E-01  1.6603694297871E+00
80  7.9000000000000E-01 -6.1396279754636E-01  1.6725174322484E+00
81  8.0000000000000E-01 -6.0792529711845E-01  1.6804009417711E+00
82  8.1000000000000E-01 -5.9808070558902E-01  1.6839770479547E+00
83  8.2000000000000E-01 -5.8473427708827E-01  1.6832307053827E+00
84  8.3000000000000E-01 -5.6820880446555E-01  1.6781729144528E+00
85  8.4000000000000E-01 -5.4884147172969E-01  1.6688388295709E+00
86  8.5000000000000E-01 -5.2698054269852E-01  1.6552858826333E+00
87  8.6000000000000E-01 -5.0298190284945E-01  1.6375920014637E+00
88  8.7000000000000E-01 -4.7720547718019E-01  1.6158539914809E+00
89  8.8000000000000E-01 -4.5001155313641E-01  1.5901861347953E+00
90  8.9000000000000E-01 -4.2175704411047E-01  1.5607190446827E+00
91  9.0000000000000E-01 -3.9279173541296E-01  1.5275987955968E+00
92  9.1000000000000E-01 -3.6345456069689E-01  1.4909863302327E+00
93  9.2000000000000E-01 -3.3406996229911E-01  1.4510571263804E+00
94  9.3000000000000E-01 -3.0494439357832E-01  1.4080010881587E+00
95  9.4000000000000E-01 -2.7636302481074E-01  1.3620226094624E+00
96  9.5000000000000E-01 -2.4858671630592E-01  1.3133407428076E+00
97  9.6000000000000E-01 -2.2184932290594E-01  1.2621893949281E+00
98  9.7000000000000E-01 -1.9635539274625E-01  1.2088174620656E+00
99  9.8000000000000E-01 -1.7227831994010E-01  1.1534888134633E+00
100  9.9000000000000E-01 -1.4975900560054E-01  1.0964820315368E+00
101  1.0000000000000E+00 -1.2890507428249E-01  1.0380898219046E+00
102  1.0100000000000E+00 -1.0979068351178E-01  9.7861801610358E-01
103  1.0200000000000E+00 -9.2456952633728E-02  9.1838410446026E-01
104  1.0300000000000E+00 -7.6913023838267E-02  8.5771525621940E-01
105  1.0400000000000E+00 -6.3137753080974E-02  7.9694580843943E-01
106  1.0500000000000E+00 -5.1082011923569E-02  7.3641423403023E-01
107  1.0600000000000E+00 -4.0671563251512E-02  6.7645963232780E-01
108  1.0700000000000E+00 -3.1810454741350E-02  6.1741782212509E-01
109  1.0800000000000E+00 -2.4384854088505E-02  5.5961715662532E-01
110  1.0900000000000E+00 -1.8267229679966E-02  5.0337422173676E-01
111  1.1000000000000E+00 -1.3320760028822E-02  4.4898962258383E-01
112  1.1100000000000E+00 -9.4038350362637E-03  3.9674410773728E-01
113  1.1200000000000E+00 -6.3744925638354E-03  3.4689532524033E-01
114  1.1300000000000E+00 -4.0946149485951E-03  2.9967554888026E-01
115  1.1400000000000E+00 -2.4336924974846E-03  2.5529075610934E-01
116  1.1500000000000E+00 -1.2719446910987E-03  2.1392148046533E-01
117  1.1600000000000E+00 -5.0257522650895E-04  1.7572590022694E-01
118  1.1700000000000E+00 -3.2920035134267E-05  1.4084566850840E-01
119  1.1800000000000E+00  2.1572157199230E-04  1.0941493717550E-01
120  1.1900000000000E+00  3.0724963438739E-04  8.1568785560169E-02
121  1.2000000000000E+00  2.6021177430553E-04  5.7398874561946E-02
122  1.2100000000000E+00  1.4010148291685E-04  3.7125535457415E-02
123  1.2200000000000E+00  2.9280028767931E-05  2.1050591372772E-02
124  1.2300000000000E+00 -2.4664279532425E-05  9.4236880871930E-03
125  1.2400000000000E+00 -1.9416400280849E-05  2.3708638014836E-03