Pa    ONCVPSP-4.0.1  r_core=   1.25016   1.25016   1.45183   1.45183
91.0000     31.0000      230727    zatom,zion,pspd
8      11   3     4   600     0    pspcod,pspxc,lmax,lloc,mmax,r2well
5.99000000  4.00000000  0.00000000    rchrg fchrg qchrg
3     2     2     2     0    nproj
1     1           extension_switch
0                         2.4989245335422E+01  3.4189700228505E+00 -1.3168048939413E-01
1  0.0000000000000E+00 -2.4510450225002E-08  7.2852401111767E-08  4.4713770430693E-07
2  1.0000000000000E-02  1.2234028325191E-01 -4.7366130821165E-02 -1.2157339814788E-01
3  2.0000000000000E-02  2.4405280357500E-01 -9.3844318279973E-02 -2.3930930199519E-01
4  3.0000000000000E-02  3.6451738606355E-01 -1.3856636720356E-01 -3.4949109045881E-01
5  4.0000000000000E-02  4.8312882989829E-01 -1.8070297715044E-01 -4.4864006321081E-01
6  5.0000000000000E-02  5.9930389716537E-01 -2.1948170547455E-01 -5.3362495804561E-01
7  6.0000000000000E-02  7.1248772227460E-01 -2.5420320406185E-01 -6.0176047213253E-01
8  7.0000000000000E-02  8.2215947896005E-01 -2.8425524374596E-01 -6.5089166956141E-01
9  8.0000000000000E-02  9.2783716635655E-01 -3.0912411326107E-01 -6.7946160472686E-01
10  9.0000000000000E-02  1.0290814047048E+00 -3.2840306603195E-01 -6.8656002286622E-01
11  1.0000000000000E-01  1.1254981638699E+00 -3.4179758526853E-01 -6.7195159863232E-01
12  1.1000000000000E-01  1.2167403829648E+00 -3.4912734251434E-01 -6.3608282196292E-01
13  1.2000000000000E-01  1.3025084757763E+00 -3.5032483351818E-01 -5.8006731715023E-01
14  1.3000000000000E-01  1.3825497531555E+00 -3.4543078445780E-01 -5.0565006450520E-01
15  1.4000000000000E-01  1.4566568288442E+00 -3.3458652750448E-01 -4.1515166263232E-01
16  1.5000000000000E-01  1.5246651081497E+00 -3.1802364396202E-01 -3.1139440193167E-01
17  1.6000000000000E-01  1.5864494883392E+00 -2.9605126242016E-01 -1.9761249638826E-01
18  1.7000000000000E-01  1.6419204246035E+00 -2.6904147555301E-01 -7.7349322740977E-02
19  1.8000000000000E-01  1.6910195350600E+00 -2.3741339979967E-01  4.5655072268286E-02
20  1.9000000000000E-01  1.7337149318660E+00 -2.0161644514270E-01  1.6758262772366E-01
21  2.0000000000000E-01  1.7699964726001E+00 -1.6211338607401E-01  2.8465832379253E-01
22  2.1000000000000E-01  1.7998711263795E+00 -1.1936382877370E-01  3.9326979746953E-01
23  2.2000000000000E-01  1.8233586426860E+00 -7.3808653339806E-02  4.9008172654637E-01
24  2.3000000000000E-01  1.8404876977550E+00 -2.5855974090040E-02  5.7214135672310E-01
25  2.4000000000000E-01  1.8512926740645E+00  2.4130893345956E-02  6.3697182915756E-01
26  2.5000000000000E-01  1.8558112035716E+00  7.5843040452352E-02  6.8265035438455E-01
27  2.6000000000000E-01  1.8540825757021E+00  1.2903281749613E-01  7.0786876102715E-01
28  2.7000000000000E-01  1.8461470776925E+00  1.8351769316183E-01  7.1197450874785E-01
29  2.8000000000000E-01  1.8320462988314E+00  2.3918099222598E-01  6.9499087650116E-01
30  2.9000000000000E-01  1.8118243926669E+00  2.9596949155530E-01  6.5761569959418E-01
31  3.0000000000000E-01  1.7855302536098E+00  3.5388796608128E-01  6.0119871110915E-01
32  3.1000000000000E-01  1.7532205278608E+00  4.1299088520171E-01  5.2769822317752E-01
33  3.2000000000000E-01  1.7149633444782E+00  4.7337156260000E-01  4.3961853962557E-01
34  3.3000000000000E-01  1.6708426218773E+00  5.3514915528437E-01  3.3993010273266E-01
35  3.4000000000000E-01  1.6209627791820E+00  5.9845398754004E-01  2.3197492363395E-01
36  3.5000000000000E-01  1.5654536615739E+00  6.6341173971451E-01  1.1936031089039E-01
37  3.6000000000000E-01  1.5044754748446E+00  7.3012708804916E-01  5.8442799973072E-03
38  3.7000000000000E-01  1.4382235173053E+00  7.9866740847699E-01 -1.0478371355067E-01
39  3.8000000000000E-01  1.3669324973495E+00  8.6904716340165E-01 -2.0882293183498E-01
40  3.9000000000000E-01  1.2908802323964E+00  9.4121357561841E-01 -3.0277859488268E-01
41  4.0000000000000E-01  1.2103905394769E+00  1.0150341581002E+00 -3.8347249560833E-01
42  4.1000000000000E-01  1.1258351489810E+00  1.0902866133950E+00 -4.4814349906799E-01
43  4.2000000000000E-01  1.0376345004146E+00  1.1666515435795E+00 -4.9453476480940E-01
44  4.3000000000000E-01  9.4625731159078E-01  1.2437083233972E+00 -5.2096496049475E-01
45  4.4000000000000E-01  8.5221884947680E-01  1.3209343882188E+00 -5.2638125062709E-01
46  4.5000000000000E-01  7.5607787076916E-01  1.3977080780805E+00 -5.1039242936498E-01
47  4.6000000000000E-01  6.5843224189629E-01  1.4733150628894E+00 -4.7328120196787E-01
48  4.7000000000000E-01  5.5991329020204E-01  1.5469582557527E+00 -4.1599528475813E-01
49  4.8000000000000E-01  4.6117897917768E-01  1.6177710051902E+00 -3.4011766703094E-01
50  4.9000000000000E-01  3.6290603942997E-01  1.6848332465830E+00 -2.4781703824400E-01
51  5.0000000000000E-01  2.6578122232514E-01  1.7471901922676E+00 -1.4178000886901E-01
52  5.1000000000000E-01  1.7049187375167E-01  1.8038730515884E+00 -2.5127323244111E-02
53  5.2000000000000E-01  7.7716050188332E-02  1.8539211999124E+00  9.8683240449752E-02
54  5.3000000000000E-01 -1.1887582599774E-02  1.8964051615612E+00  2.2596418028902E-01
55  5.4000000000000E-01 -9.7689816999359E-02  1.9304497376330E+00  3.5291238208438E-01
56  5.5000000000000E-01 -1.7910068258664E-01  1.9552565969872E+00  4.7572642892890E-01
57  5.6000000000000E-01 -2.5557868668508E-01  1.9701256576867E+00  5.9072342780221E-01
58  5.7000000000000E-01 -3.2663927846372E-01  1.9744746167252E+00  6.9445171333422E-01
59  5.8000000000000E-01 -3.9186231797165E-01  1.9678560369129E+00  7.8379594656214E-01
60  5.9000000000000E-01 -4.5089835756022E-01  1.9499714697451E+00  8.5607139505533E-01
61  6.0000000000000E-01 -5.0347357505351E-01  1.9206821796365E+00  9.0910455042220E-01
62  6.1000000000000E-01 -5.4939323478457E-01  1.8800161352656E+00  9.4129769719474E-01
63  6.2000000000000E-01 -5.8854359305109E-01  1.8281710446640E+00  9.5167557768053E-01
64  6.3000000000000E-01 -6.2089220737099E-01  1.7655133284756E+00  9.3991288251536E-01
65  6.4000000000000E-01 -6.4648665278437E-01  1.6925730466810E+00  9.0634191675549E-01
66  6.5000000000000E-01 -6.6545169195772E-01  1.6100349140935E+00  8.5194042559471E-01
67  6.6000000000000E-01 -6.7798498763961E-01  1.5187256552096E+00  7.7830019127007E-01
68  6.7000000000000E-01 -6.8435148478224E-01  1.4195980558258E+00  6.8757761274114E-01
69  6.8000000000000E-01 -6.8487662419203E-01  1.3137121638184E+00  5.8242803284680E-01
70  6.9000000000000E-01 -6.7993857884896E-01  1.2022141716137E+00  4.6592606602863E-01
71  7.0000000000000E-01 -6.6995972717919E-01  1.0863135756922E+00  3.4147458801452E-01
72  7.1000000000000E-01 -6.5539759391398E-01  9.6725925206236E-01  2.1270536438835E-01
73  7.2000000000000E-01 -6.3673549829878E-01  8.4631510979425E-01  8.3374508478143E-02
74  7.3000000000000E-01 -6.1447315113835E-01  7.2473598685693E-01 -4.2743935442938E-02
75  7.4000000000000E-01 -5.8911743653775E-01  6.0374443382175E-01 -1.6196299212284E-01
76  7.5000000000000E-01 -5.6117360152404E-01  4.8450899231299E-01 -2.7078315991023E-01
77  7.6000000000000E-01 -5.3113705753392E-01  3.6812451790553E-01 -3.6598525764154E-01
78  7.7000000000000E-01 -4.9948597275798E-01  2.5559502356641E-01 -4.4471306247396E-01
79  7.8000000000000E-01 -4.6667480445379E-01  1.4781943231937E-01 -5.0454348123180E-01
80  7.9000000000000E-01 -4.3312888662558E-01  4.5580529592677E-02 -5.4354246043611E-01
81  8.0000000000000E-01 -3.9924015207879E-01 -5.0462699979799E-02 -5.6030535496142E-01
82  8.1000000000000E-01 -3.6536403000971E-01 -1.3977927618035E-01 -5.5398102420905E-01
83  8.2000000000000E-01 -3.3181752223260E-01 -2.2196700213167E-01 -5.2427948874885E-01
84  8.3000000000000E-01 -2.9887842409819E-01 -2.9674996022673E-01 -4.7146354026943E-01
85  8.4000000000000E-01 -2.6678562128282E-01 -3.6397296703370E-01 -3.9632523433267E-01
86  8.5000000000000E-01 -2.3574036199238E-01 -4.2359331974634E-01 -3.0014869068891E-01
87  8.6000000000000E-01 -2.0590837666595E-01 -4.7567024494649E-01 -1.8466106301478E-01
88  8.7000000000000E-01 -1.7742269476399E-01 -5.2035252393130E-01 -5.1973903979605E-02
89  8.8000000000000E-01 -1.5038699129191E-01 -5.5786481582960E-01  9.5482570104938E-02
90  8.9000000000000E-01 -1.2487928476711E-01 -5.8849322890959E-01  2.5502962833250E-01
91  9.0000000000000E-01 -1.0095580362004E-01 -6.1257070112919E-01  4.2381182213157E-01
92  9.1000000000000E-01 -7.8654839579823E-02 -6.3046274289708E-01  5.9886769333890E-01
93  9.2000000000000E-01 -5.8000414313082E-02 -6.4255406848335E-01  7.7719679615289E-01
94  9.3000000000000E-01 -3.9005599188699E-02 -6.4923659828643E-01  9.5582068527493E-01
95  9.4000000000000E-01 -2.1675347135299E-02 -6.5089925332327E-01  1.1318358798854E+00
96  9.5000000000000E-01 -6.0087196531715E-03 -6.4791988724789E-01  1.3024572740580E+00
97  9.6000000000000E-01  7.9995794150956E-03 -6.4065961149410E-01  1.4650510232663E+00
98  9.7000000000000E-01  2.0358419322896E-02 -6.2945966739618E-01  1.6171565876501E+00
99  9.8000000000000E-01  3.1080227282444E-02 -6.1464088700058E-01  1.7564983488975E+00
100  9.9000000000000E-01  4.0181724366669E-02 -5.9650566313097E-01  1.8809880330071E+00
101  1.0000000000000E+00  4.7685353013863E-02 -5.7534222030669E-01  1.9887200602664E+00
102  1.0100000000000E+00  5.3621293447708E-02 -5.5143084211693E-01  2.0779629026191E+00
103  1.0200000000000E+00  5.8029921002508E-02 -5.2505156807719E-01  2.1471505540801E+00
104  1.0300000000000E+00  6.0964508755334E-02 -4.9649272335437E-01  2.1948793141093E+00
105  1.0400000000000E+00  6.2493929785244E-02 -4.6605948752104E-01  2.2199162473784E+00
106  1.0500000000000E+00  6.2705060253243E-02 -4.3408154222294E-01  2.2212269215751E+00
107  1.0600000000000E+00  6.1704527377839E-02 -4.0091865969693E-01  2.1980313498509E+00
108  1.0700000000000E+00  5.9619384460574E-02 -3.6696290234013E-01  2.1498984823810E+00
109  1.0800000000000E+00  5.6596226950761E-02 -3.3263589397431E-01  2.0768911208264E+00
110  1.0900000000000E+00  5.2798187014419E-02 -2.9837938947948E-01  1.9797748540716E+00
111  1.1000000000000E+00  4.8399168415342E-02 -2.6463715494812E-01  1.8603049088013E+00
112  1.1100000000000E+00  4.3574683162442E-02 -2.3182632488503E-01  1.7215905180335E+00
113  1.1200000000000E+00  3.8493530476952E-02 -2.0031750231619E-01  1.5678730968720E+00
114  1.1300000000000E+00  3.3316413896527E-02 -1.7044356184846E-01  1.4035913644656E+00
115  1.1400000000000E+00  2.8194169758342E-02 -1.4250141482454E-01  1.2331288157619E+00
116  1.1500000000000E+00  2.3265104217948E-02 -1.1674927361783E-01  1.0607545968490E+00
117  1.1600000000000E+00  1.8652178490186E-02 -9.3403313277267E-02  8.9056889932574E-01
118  1.1700000000000E+00  1.4460114879573E-02 -7.2633861439198E-02  7.2645400587806E-01
119  1.1800000000000E+00  1.0772448056806E-02 -5.4561124659519E-02  5.7203160453020E-01
120  1.1900000000000E+00  7.6443961131540E-03 -3.9239455089547E-02  4.3064737164370E-01
121  1.2000000000000E+00  5.0458002778662E-03 -2.6506622339411E-02  3.0560796108919E-01
122  1.2100000000000E+00  2.9985620409766E-03 -1.6353158609187E-02  1.9946523609639E-01
123  1.2200000000000E+00  1.5231353710040E-03 -8.7849722445233E-03  1.1425576262682E-01
124  1.2300000000000E+00  5.9027638616132E-04 -3.6960576250201E-03  5.1731650519244E-02
125  1.2400000000000E+00  1.2260094822435E-04 -8.6618169779474E-04  1.3176894098224E-02
126  1.2500000000000E+00  3.5031986064381E-07 -2.7912991721548E-06  4.4816570811242E-05
127  1.2600000000000E+00  7.3171546676016E-07 -5.9381630047900E-06  9.7449782975070E-05
128  1.2700000000000E+00 -1.4390901841657E-07  1.0682082681245E-06 -1.6729229830953E-05
129  1.28 -0.  0.  0.
130  1.29  0.  0.  0.
131  1.30  0.  0.  0.
132  1.31  0.  0.  0.
133  1.32  0.  0.  0.
134  1.33  0.  0.  0.
135  1.34  0.  0.  0.
136  1.35  0.  0.  0.
137  1.36  0.  0.  0.
138  1.37  0.  0.  0.
139  1.38  0.  0.  0.
140  1.39  0.  0.  0.
141  1.40  0.  0.  0.
142  1.41  0.  0.  0.
143  1.42  0.  0.  0.
144  1.43  0.  0.  0.
145  1.44  0.  0.  0.
146  1.45  0.  0.  0.
147  1.46  0.  0.  0.
148  1.47  0.  0.  0.
149  1.48  0.  0.  0.
150  1.49  0.  0.  0.
151  1.50  0.  0.  0.
152  1.51  0.  0.  0.
153  1.52  0.  0.  0.
154  1.53  0.  0.  0.
155  1.54  0.  0.  0.
156  1.55  0.  0.  0.
157  1.56  0.  0.  0.
158  1.57  0.  0.  0.
159  1.58  0.  0.  0.
160  1.59  0.  0.  0.
161  1.60  0.  0.  0.
162  1.61  0.  0.  0.
163  1.62  0.  0.  0.
164  1.63  0.  0.  0.
165  1.64  0.  0.  0.
166  1.65  0.  0.  0.
167  1.66  0.  0.  0.
168  1.67  0.  0.  0.
169  1.68  0.  0.  0.
170  1.69  0.  0.  0.
171  1.70  0.  0.  0.
172  1.71  0.  0.  0.
173  1.72  0.  0.  0.
174  1.73  0.  0.  0.
175  1.74  0.  0.  0.
176  1.75  0.  0.  0.
177  1.76  0.  0.  0.
178  1.77  0.  0.  0.
179  1.78  0.  0.  0.
180  1.79  0.  0.  0.
181  1.80  0.  0.  0.
182  1.81  0.  0.  0.
183  1.82  0.  0.  0.
184  1.83  0.  0.  0.
185  1.84  0.  0.  0.
186  1.85  0.  0.  0.
187  1.86  0.  0.  0.
188  1.87  0.  0.  0.
189  1.88  0.  0.  0.
190  1.89  0.  0.  0.
191  1.90  0.  0.  0.
192  1.91  0.  0.  0.
193  1.92  0.  0.  0.
194  1.93  0.  0.  0.
195  1.94  0.  0.  0.
196  1.95  0.  0.  0.
197  1.96  0.  0.  0.
198  1.97  0.  0.  0.
199  1.98  0.  0.  0.
200  1.99  0.  0.  0.
201  2.00  0.  0.  0.
202  2.01  0.  0.  0.
203  2.02  0.  0.  0.
204  2.03  0.  0.  0.
205  2.04  0.  0.  0.
206  2.05  0.  0.  0.
207  2.06  0.  0.  0.
208  2.07  0.  0.  0.
209  2.08  0.  0.  0.
210  2.09  0.  0.  0.
211  2.10  0.  0.  0.
212  2.11  0.  0.  0.
213  2.12  0.  0.  0.
214  2.13  0.  0.  0.
215  2.14  0.  0.  0.
216  2.15  0.  0.  0.
217  2.16  0.  0.  0.
218  2.17  0.  0.  0.
219  2.18  0.  0.  0.
220  2.19  0.  0.  0.
221  2.20  0.  0.  0.
222  2.21  0.  0.  0.
223  2.22  0.  0.  0.
224  2.23  0.  0.  0.
225  2.24  0.  0.  0.
226  2.25  0.  0.  0.
227  2.26  0.  0.  0.
228  2.27  0.  0.  0.
229  2.28  0.  0.  0.
230  2.29  0.  0.  0.
231  2.30  0.  0.  0.
232  2.31  0.  0.  0.
233  2.32  0.  0.  0.
234  2.33  0.  0.  0.
235  2.34  0.  0.  0.
236  2.35  0.  0.  0.
237  2.36  0.  0.  0.
238  2.37  0.  0.  0.
239  2.38  0.  0.  0.
240  2.39  0.  0.  0.
241  2.40  0.  0.  0.
242  2.41  0.  0.  0.
243  2.42  0.  0.  0.
244  2.43  0.  0.  0.
245  2.44  0.  0.  0.
246  2.45  0.  0.  0.
247  2.46  0.  0.  0.
248  2.47  0.  0.  0.
249  2.48  0.  0.  0.
250  2.49  0.  0.  0.
251  2.50  0.  0.  0.
252  2.51  0.  0.  0.
253  2.52  0.  0.  0.
254  2.53  0.  0.  0.
255  2.54  0.  0.  0.
256  2.55  0.  0.  0.
257  2.56  0.  0.  0.
258  2.57  0.  0.  0.
259  2.58  0.  0.  0.
260  2.59  0.  0.  0.
261  2.60  0.  0.  0.
262  2.61  0.  0.  0.
263  2.62  0.  0.  0.
264  2.63  0.  0.  0.
265  2.64  0.  0.  0.
266  2.65  0.  0.  0.
267  2.66  0.  0.  0.
268  2.67  0.  0.  0.
269  2.68  0.  0.  0.
270  2.69  0.  0.  0.
271  2.70  0.  0.  0.
272  2.71  0.  0.  0.
273  2.72  0.  0.  0.
274  2.73  0.  0.  0.
275  2.74  0.  0.  0.
276  2.75  0.  0.  0.
277  2.76  0.  0.  0.
278  2.77  0.  0.  0.
279  2.78  0.  0.  0.
280  2.79  0.  0.  0.
281  2.80  0.  0.  0.
282  2.81  0.  0.  0.
283  2.82  0.  0.  0.
284  2.83  0.  0.  0.
285  2.84  0.  0.  0.
286  2.85  0.  0.  0.
287  2.86  0.  0.  0.
288  2.87  0.  0.  0.
289  2.88  0.  0.  0.
290  2.89  0.  0.  0.
291  2.90  0.  0.  0.
292  2.91  0.  0.  0.
293  2.92  0.  0.  0.
294  2.93  0.  0.  0.
295  2.94  0.  0.  0.
296  2.95  0.  0.  0.
297  2.96  0.  0.  0.
298  2.97  0.  0.  0.
299  2.98  0.  0.  0.
300  2.99  0.  0.  0.
301  3.00  0.  0.  0.
302  3.01  0.  0.  0.
303  3.02  0.  0.  0.
304  3.03  0.  0.  0.
305  3.04  0.  0.  0.
306  3.05  0.  0.  0.
307  3.06  0.  0.  0.
308  3.07  0.  0.  0.
309  3.08  0.  0.  0.
310  3.09  0.  0.  0.
311  3.10  0.  0.  0.
312  3.11  0.  0.  0.
313  3.12  0.  0.  0.
314  3.13  0.  0.  0.
315  3.14  0.  0.  0.
316  3.15  0.  0.  0.
317  3.16  0.  0.  0.
318  3.17  0.  0.  0.
319  3.18  0.  0.  0.
320  3.19  0.  0.  0.
321  3.20  0.  0.  0.
322  3.21  0.  0.  0.
323  3.22  0.  0.  0.
324  3.23  0.  0.  0.
325  3.24  0.  0.  0.
326  3.25  0.  0.  0.
327  3.26  0.  0.  0.
328  3.27  0.  0.  0.
329  3.28  0.  0.  0.
330  3.29  0.  0.  0.
331  3.30  0.  0.  0.
332  3.31  0.  0.  0.
333  3.32  0.  0.  0.
334  3.33  0.  0.  0.
335  3.34  0.  0.  0.
336  3.35  0.  0.  0.
337  3.36  0.  0.  0.
338  3.37  0.  0.  0.
339  3.38  0.  0.  0.
340  3.39  0.  0.  0.
341  3.40  0.  0.  0.
342  3.41  0.  0.  0.
343  3.42  0.  0.  0.
344  3.43  0.  0.  0.
345  3.44  0.  0.  0.
346  3.45  0.  0.  0.
347  3.46  0.  0.  0.
348  3.47  0.  0.  0.
349  3.48  0.  0.  0.
350  3.49  0.  0.  0.
351  3.50  0.  0.  0.
352  3.51  0.  0.  0.
353  3.52  0.  0.  0.
354  3.53  0.  0.  0.
355  3.54  0.  0.  0.
356  3.55  0.  0.  0.
357  3.56  0.  0.  0.
358  3.57  0.  0.  0.
359  3.58  0.  0.  0.
360  3.59  0.  0.  0.
361  3.60  0.  0.  0.
362  3.61  0.  0.  0.
363  3.62  0.  0.  0.
364  3.63  0.  0.  0.
365  3.64  0.  0.  0.
366  3.65  0.  0.  0.
367  3.66  0.  0.  0.
368  3.67  0.  0.  0.
369  3.68  0.  0.  0.
370  3.69  0.  0.  0.
371  3.70  0.  0.  0.
372  3.71  0.  0.  0.
373  3.72  0.  0.  0.
374  3.73  0.  0.  0.
375  3.74  0.  0.  0.
376  3.75  0.  0.  0.
377  3.76  0.  0.  0.
378  3.77  0.  0.  0.
379  3.78  0.  0.  0.
380  3.79  0.  0.  0.
381  3.80  0.  0.  0.
382  3.81  0.  0.  0.
383  3.82  0.  0.  0.
384  3.83  0.  0.  0.
385  3.84  0.  0.  0.
386  3.85  0.  0.  0.
387  3.86  0.  0.  0.
388  3.87  0.  0.  0.
389  3.88  0.  0.  0.
390  3.89  0.  0.  0.
391  3.90  0.  0.  0.
392  3.91  0.  0.  0.
393  3.92  0.  0.  0.
394  3.93  0.  0.  0.
395  3.94  0.  0.  0.
396  3.95  0.  0.  0.
397  3.96  0.  0.  0.
398  3.97  0.  0.  0.
399  3.98  0.  0.  0.
400  3.99  0.  0.  0.
401  4.00  0.  0.  0.
402  4.01  0.  0.  0.
403  4.02  0.  0.  0.
404  4.03  0.  0.  0.
405  4.04  0.  0.  0.
406  4.05  0.  0.  0.
407  4.06  0.  0.  0.
408  4.07  0.  0.  0.
409  4.08  0.  0.  0.
410  4.09  0.  0.  0.
411  4.10  0.  0.  0.
412  4.11  0.  0.  0.
413  4.12  0.  0.  0.
414  4.13  0.  0.  0.
415  4.14  0.  0.  0.
416  4.15  0.  0.  0.
417  4.16  0.  0.  0.
418  4.17  0.  0.  0.
419  4.18  0.  0.  0.
420  4.19  0.  0.  0.
421  4.20  0.  0.  0.
422  4.21  0.  0.  0.
423  4.22  0.  0.  0.
424  4.23  0.  0.  0.
425  4.24  0.  0.  0.
426  4.25  0.  0.  0.
427  4.26  0.  0.  0.
428  4.27  0.  0.  0.
429  4.28  0.  0.  0.
430  4.29  0.  0.  0.
431  4.30  0.  0.  0.
432  4.31  0.  0.  0.
433  4.32  0.  0.  0.
434  4.33  0.  0.  0.
435  4.34  0.  0.  0.
436  4.35  0.  0.  0.
437  4.36  0.  0.  0.
438  4.37  0.  0.  0.
439  4.38  0.  0.  0.
440  4.39  0.  0.  0.
441  4.40  0.  0.  0.
442  4.41  0.  0.  0.
443  4.42  0.  0.  0.
444  4.43  0.  0.  0.
445  4.44  0.  0.  0.
446  4.45  0.  0.  0.
447  4.46  0.  0.  0.
448  4.47  0.  0.  0.
449  4.48  0.  0.  0.
450  4.49  0.  0.  0.
451  4.50  0.  0.  0.
452  4.51  0.  0.  0.
453  4.52  0.  0.  0.
454  4.53  0.  0.  0.
455  4.54  0.  0.  0.
456  4.55  0.  0.  0.
457  4.56  0.  0.  0.
458  4.57  0.  0.  0.
459  4.58  0.  0.  0.
460  4.59  0.  0.  0.
461  4.60  0.  0.  0.
462  4.61  0.  0.  0.
463  4.62  0.  0.  0.
464  4.63  0.  0.  0.
465  4.64  0.  0.  0.
466  4.65  0.  0.  0.
467  4.66  0.  0.  0.
468  4.67  0.  0.  0.
469  4.68  0.  0.  0.
470  4.69  0.  0.  0.
471  4.70  0.  0.  0.
472  4.71  0.  0.  0.
473  4.72  0.  0.  0.
474  4.73  0.  0.  0.
475  4.74  0.  0.  0.
476  4.75  0.  0.  0.
477  4.76  0.  0.  0.
478  4.77  0.  0.  0.
479  4.78  0.  0.  0.
480  4.79  0.  0.  0.
481  4.80  0.  0.  0.
482  4.81  0.  0.  0.
483  4.82  0.  0.  0.
484  4.83  0.  0.  0.
485  4.84  0.  0.  0.
486  4.85  0.  0.  0.
487  4.86  0.  0.  0.
488  4.87  0.  0.  0.
489  4.88  0.  0.  0.
490  4.89  0.  0.  0.
491  4.90  0.  0.  0.
492  4.91  0.  0.  0.
493  4.92  0.  0.  0.
494  4.93  0.  0.  0.
495  4.94  0.  0.  0.
496  4.95  0.  0.  0.
497  4.96  0.  0.  0.
498  4.97  0.  0.  0.
499  4.98  0.  0.  0.
500  4.99  0.  0.  0.
501  5.00  0.  0.  0.
502  5.01  0.  0.  0.
503  5.02  0.  0.  0.
504  5.03  0.  0.  0.
505  5.04  0.  0.  0.
506  5.05  0.  0.  0.
507  5.06  0.  0.  0.
508  5.07  0.  0.  0.
509  5.08  0.  0.  0.
510  5.09  0.  0.  0.
511  5.10  0.  0.  0.
512  5.11  0.  0.  0.
513  5.12  0.  0.  0.
514  5.13  0.  0.  0.
515  5.14  0.  0.  0.
516  5.15  0.  0.  0.
517  5.16  0.  0.  0.
518  5.17  0.  0.  0.
519  5.18  0.  0.  0.
520  5.19  0.  0.  0.
521  5.20  0.  0.  0.
522  5.21  0.  0.  0.
523  5.22  0.  0.  0.
524  5.23  0.  0.  0.
525  5.24  0.  0.  0.
526  5.25  0.  0.  0.
527  5.26  0.  0.  0.
528  5.27  0.  0.  0.
529  5.28  0.  0.  0.
530  5.29  0.  0.  0.
531  5.30  0.  0.  0.
532  5.31  0.  0.  0.
533  5.32  0.  0.  0.
534  5.33  0.  0.  0.
535  5.34  0.  0.  0.
536  5.35  0.  0.  0.
537  5.36  0.  0.  0.
538  5.37  0.  0.  0.
539  5.38  0.  0.  0.
540  5.39  0.  0.  0.
541  5.40  0.  0.  0.
542  5.41  0.  0.  0.
543  5.42  0.  0.  0.
544  5.43  0.  0.  0.
545  5.44  0.  0.  0.
546  5.45  0.  0.  0.
547  5.46  0.  0.  0.
548  5.47  0.  0.  0.
549  5.48  0.  0.  0.
550  5.49  0.  0.  0.
551  5.50  0.  0.  0.
552  5.51  0.  0.  0.
553  5.52  0.  0.  0.
554  5.53  0.  0.  0.
555  5.54  0.  0.  0.
556  5.55  0.  0.  0.
557  5.56  0.  0.  0.
558  5.57  0.  0.  0.
559  5.58  0.  0.  0.
560  5.59  0.  0.  0.
561  5.60  0.  0.  0.
562  5.61  0.  0.  0.
563  5.62  0.  0.  0.
564  5.63  0.  0.  0.
565  5.64  0.  0.  0.
566  5.65  0.  0.  0.
567  5.66  0.  0.  0.
568  5.67  0.  0.  0.
569  5.68  0.  0.  0.
570  5.69  0.  0.  0.
571  5.70  0.  0.  0.
572  5.71  0.  0.  0.
573  5.72  0.  0.  0.
574  5.73  0.  0.  0.
575  5.74  0.  0.  0.
576  5.75  0.  0.  0.
577  5.76  0.  0.  0.
578  5.77  0.  0.  0.
579  5.78  0.  0.  0.
580  5.79  0.  0.  0.
581  5.80  0.  0.  0.
582  5.81  0.  0.  0.
583  5.82  0.  0.  0.
584  5.83  0.  0.  0.
585  5.84  0.  0.  0.
586  5.85  0.  0.  0.
587  5.86  0.  0.  0.
588  5.87  0.  0.  0.
589  5.88  0.  0.  0.
590  5.89  0.  0.  0.
591  5.90  0.  0.  0.
592  5.91  0.  0.  0.
593  5.92  0.  0.  0.
594  5.93  0.  0.  0.
595  5.94  0.  0.  0.
596  5.95  0.  0.  0.
597  5.96  0.  0.  0.
598  5.97  0.  0.  0.
599  5.98  0.  0.  0.
600  5.99  0.  0.  0.
1                         2.1033314838168E+01  2.7050286425759E+00
1  0.0000000000000E+00 -2.7086913850782E-08  4.6128396159230E-08
2  1.0000000000000E-02  3.2288129842751E-03  1.4648837638491E-04
3  2.0000000000000E-02  1.2903630636811E-02  5.7136068147643E-04
4  3.0000000000000E-02  2.8989203233848E-02  1.2316670666863E-03
5  4.0000000000000E-02  5.1425513521053E-02  2.0585556065832E-03
6  5.0000000000000E-02  8.0125938780132E-02  2.9612618233884E-03
7  6.0000000000000E-02  1.1497480276383E-01  3.8324832499376E-03
8  7.0000000000000E-02  1.5582443739564E-01  4.5549366518745E-03
9  8.0000000000000E-02  2.0249190121757E-01  5.0088494014453E-03
10  9.0000000000000E-02  2.5475552359125E-01  5.0800986300370E-03
11  1.0000000000000E-01  3.1235145982412E-01  4.6686834783346E-03
12  1.1000000000000E-01  3.7497045209673E-01  3.6971980023572E-03
13  1.2000000000000E-01  4.4225499390992E-01  2.1189657398942E-03
14  1.3000000000000E-01  5.1379709156855E-01 -7.4498101404722E-05
15  1.4000000000000E-01  5.8913680501500E-01 -2.8470144683516E-03
16  1.5000000000000E-01  6.6776173239104E-01 -6.1125485107139E-03
17  1.6000000000000E-01  7.4910757852784E-01 -9.7315504104729E-03
18  1.7000000000000E-01  8.3255991783570E-01 -1.3509034779637E-02
19  1.8000000000000E-01  9.1745722766618E-01 -1.7194549953106E-02
20  1.9000000000000E-01  1.0030952301893E+00 -2.0484128028087E-02
21  2.0000000000000E-01  1.0887325403347E+00 -2.3024241902093E-02
22  2.1000000000000E-01  1.1735975756498E+00 -2.4417728878616E-02
23  2.2000000000000E-01  1.2568966423468E+00 -2.4231573771416E-02
24  2.3000000000000E-01  1.3378230716742E+00 -2.2006380000223E-02
25  2.4000000000000E-01  1.4155672433632E+00 -1.7267297039485E-02
26  2.5000000000000E-01  1.4893272994970E+00 -9.5361187579475E-03
27  2.6000000000000E-01  1.5583203238674E+00  1.6557785068158E-03
28  2.7000000000000E-01  1.6217937396973E+00  1.6754025268509E-02
29  2.8000000000000E-01  1.6790366633257E+00  3.6167767687463E-02
30  2.9000000000000E-01  1.7293909436881E+00  6.0256500879218E-02
31  3.0000000000000E-01  1.7722616175438E+00  8.9317632134460E-02
32  3.1000000000000E-01  1.8071265185495E+00  1.2357516699763E-01
33  3.2000000000000E-01  1.8335447943401E+00  1.6316988607954E-01
34  3.3000000000000E-01  1.8511641093919E+00  2.0815134337842E-01
35  3.4000000000000E-01  1.8597263420141E+00  2.5847196873574E-01
36  3.5000000000000E-01  1.8590716205088E+00  3.1398349920594E-01
37  3.6000000000000E-01  1.8491405853365E+00  3.7443589824423E-01
38  3.7000000000000E-01  1.8299748098138E+00  4.3947884967092E-01
39  3.8000000000000E-01  1.8017153601192E+00  5.0866583752669E-01
40  3.9000000000000E-01  1.7645995247467E+00  5.8146074552452E-01
41  4.0000000000000E-01  1.7189557925377E+00  6.5724683324697E-01
42  4.1000000000000E-01  1.6651972055387E+00  7.3533787295803E-01
43  4.2000000000000E-01  1.6038132567100E+00  8.1499116325650E-01
44  4.3000000000000E-01  1.5353605415783E+00  8.9542207600733E-01
45  4.4000000000000E-01  1.4604524060393E+00  9.7581974304742E-01
46  4.5000000000000E-01  1.3797478585993E+00  1.0553634507896E+00
47  4.6000000000000E-01  1.2939400335371E+00  1.1332392854121E+00
48  4.7000000000000E-01  1.2037445011427E+00  1.2086565598060E+00
49  4.8000000000000E-01  1.1098877219872E+00  1.2808635563999E+00
50  4.9000000000000E-01  1.0130959340102E+00  1.3491621375020E+00
51  5.0000000000000E-01  9.1408474428225E-01  1.4129208065002E+00
52  5.1000000000000E-01  8.1354967208237E-01  1.4715858483418E+00
53  5.2000000000000E-01  7.1215785718840E-01  1.5246902348749E+00
54  5.3000000000000E-01  6.1054110799423E-01  1.5718600482217E+00
55  5.4000000000000E-01  5.0929041947982E-01  1.6128182513171E+00
56  5.5000000000000E-01  4.0895204255782E-01  1.6473857167620E+00
57  5.6000000000000E-01  3.1002513545633E-01  1.6754795106385E+00
58  5.7000000000000E-01  2.1296097620294E-01  1.6971085142165E+00
59  5.8000000000000E-01  1.1816366462527E-01  1.7123665507712E+00
60  5.9000000000000E-01  2.5992194237602E-02  1.7214232642947E+00
61  6.0000000000000E-01 -6.3236269469911E-02  1.7245130690949E+00
62  6.1000000000000E-01 -1.4924210601964E-01  1.7219225517271E+00
63  6.2000000000000E-01 -2.3177818513993E-01  1.7139767572583E+00
64  6.3000000000000E-01 -3.1062429631960E-01  1.7010248287756E+00
65  6.4000000000000E-01 -3.8558133327263E-01  1.6834254909687E+00
66  6.5000000000000E-01 -4.5646550889476E-01  1.6615328746872E+00
67  6.6000000000000E-01 -5.2310287174792E-01  1.6356831692582E+00
68  6.7000000000000E-01 -5.8532438108730E-01  1.6061825632091E+00
69  6.8000000000000E-01 -6.4296177437118E-01  1.5732968926122E+00
70  6.9000000000000E-01 -6.9584442980161E-01  1.5372433607558E+00
71  7.0000000000000E-01 -7.4379738775252E-01  1.4981846249704E+00
72  7.1000000000000E-01 -7.8664065023548E-01  1.4562254683267E+00
73  7.2000000000000E-01 -8.2418982832104E-01  1.4114121880598E+00
74  7.3000000000000E-01 -8.5625815535062E-01  1.3637347417562E+00
75  7.4000000000000E-01 -8.8265983060287E-01  1.3131315995052E+00
76  7.5000000000000E-01 -9.0321460566435E-01  1.2594971584465E+00
77  7.6000000000000E-01 -9.1775347590872E-01  1.2026914884735E+00
78  7.7000000000000E-01 -9.2612529396074E-01  1.1425520972128E+00
79  7.8000000000000E-01 -9.2820408242951E-01  1.0789073315122E+00
80  7.9000000000000E-01 -9.2389679095677E-01  1.0115909739347E+00
81  8.0000000000000E-01 -9.1315121891982E-01  9.4045754817912E-01
82  8.1000000000000E-01 -8.9596381084254E-01  8.6539781846235E-01
83  8.2000000000000E-01 -8.7238702726654E-01  7.8635395569927E-01
84  8.3000000000000E-01 -8.4253599972928E-01  7.0333384823931E-01
85  8.4000000000000E-01 -8.0659419443861E-01  6.1642405677305E-01
86  8.5000000000000E-01 -7.6481783470740E-01  5.2580095104680E-01
87  8.6000000000000E-01 -7.1753886634464E-01  4.3173961883785E-01
88  8.7000000000000E-01 -6.6516629178615E-01  3.3462020333370E-01
89  8.8000000000000E-01 -6.0818574627931E-01  2.3493140119759E-01
90  8.9000000000000E-01 -5.4715724114346E-01  1.3327093732717E-01
91  9.0000000000000E-01 -4.8271105303281E-01  3.0342920411465E-02
92  9.1000000000000E-01 -4.1554179210052E-01 -7.3047927616881E-02
93  9.2000000000000E-01 -3.4640073377752E-01 -1.7600508888889E-01
94  9.3000000000000E-01 -2.7608654628482E-01 -2.7755195451888E-01
95  9.4000000000000E-01 -2.0543458678387E-01 -3.7664618827491E-01
96  9.5000000000000E-01 -1.3530497111477E-01 -4.7219646402048E-01
97  9.6000000000000E-01 -6.6569643421931E-02 -5.6308125267827E-01
98  9.7000000000000E-01 -9.8680871351958E-05 -6.4816931496630E-01
99  9.8000000000000E-01  6.3253936358663E-02 -7.2634155892731E-01
100  9.9000000000000E-01  1.2266487977583E-01 -7.9651394834526E-01
101  1.0000000000000E+00  1.7735617805992E-01 -8.5766120103377E-01
102  1.0100000000000E+00  2.2660995209503E-01 -9.0884109565505E-01
103  1.0200000000000E+00  2.6978312756039E-01 -9.4921931240456E-01
104  1.0300000000000E+00  3.0632215892139E-01 -9.7809486663871E-01
105  1.0400000000000E+00  3.3577790035742E-01 -9.9492635428800E-01
106  1.0500000000000E+00  3.5782087576998E-01 -9.9935941222758E-01
107  1.0600000000000E+00  3.7225733071974E-01 -9.9125600442974E-01
108  1.0700000000000E+00  3.7904659188784E-01 -9.7072637245515E-01
109  1.0800000000000E+00  3.7832041310595E-01 -9.3816473453405E-01
110  1.0900000000000E+00  3.7040515670786E-01 -8.9429009171374E-01
111  1.1000000000000E+00  3.5584765140685E-01 -8.4019344836675E-01
112  1.1100000000000E+00  3.3544383541671E-01 -7.7738953510531E-01
113  1.1200000000000E+00  3.1019288742370E-01 -7.0773155835420E-01
114  1.1300000000000E+00  2.8116917520410E-01 -6.3317869251791E-01
115  1.1400000000000E+00  2.4947713316223E-01 -5.5571939318285E-01
116  1.1500000000000E+00  2.1622775162561E-01 -4.7733497410490E-01
117  1.1600000000000E+00  1.8251443255345E-01 -3.9996211513095E-01
118  1.1700000000000E+00  1.4938885705973E-01 -3.2545532866467E-01
119  1.1800000000000E+00  1.1783734092028E-01 -2.5555013402402E-01
120  1.1900000000000E+00  8.8752406406339E-02 -1.9181935595005E-01