Pa    ONCVPSP-4.0.1  r_core=   1.20608   1.25016   1.20608   1.40064
91.0000     31.0000      220309    zatom,zion,pspd
8      11   3     4   600     0    pspcod,pspxc,lmax,lloc,mmax,r2well
5.99000000  5.00000000  0.00000000    rchrg fchrg qchrg
3     2     2     2     0    nproj
1     1           extension_switch
0                         2.8049558982968E+01  3.9329638328222E+00 -9.5708075685786E-01
1  0.0000000000000E+00 -2.2893863649287E-07  6.0798086720659E-07  9.2373816651392E-09
2  1.0000000000000E-02  1.6648388600025E-01 -1.2421474893705E-01  1.7421001385656E-02
3  2.0000000000000E-02  3.3097935758590E-01 -2.4430461661451E-01  3.4874118460420E-02
4  3.0000000000000E-02  4.9155072127126E-01 -3.5628080290017E-01  5.2388636650131E-02
5  4.0000000000000E-02  6.4636594739229E-01 -4.5642194678997E-01  6.9988274974928E-02
6  5.0000000000000E-02  7.9374411961898E-01 -5.4139620458117E-01  8.7688635712359E-02
7  6.0000000000000E-02  9.3219779889548E-01 -6.0836981847056E-01  1.0549492672967E-01
8  7.0000000000000E-02  1.0604688888500E+00 -6.5509842172874E-01  1.2340003624416E-01
9  8.0000000000000E-02  1.1775568186552E+00 -6.7999793458210E-01  1.4138303053331E-01
10  9.0000000000000E-02  1.2827381298217E+00 -6.8219262346372E-01  1.5940813394368E-01
11  1.0000000000000E-01  1.3755768558558E+00 -6.6153869991973E-01  1.7742423768344E-01
12  1.1000000000000E-01  1.4559254073490E+00 -6.1862269572663E-01  1.9536496960962E-01
13  1.2000000000000E-01  1.5239160084004E+00 -5.5473473723480E-01  2.1314934186010E-01
14  1.3000000000000E-01  1.5799430614485E+00 -4.7181772323726E-01  2.3068297708327E-01
15  1.4000000000000E-01  1.6246371348582E+00 -3.7239425560204E-01  2.4785989756429E-01
16  1.5000000000000E-01  1.6588315597094E+00 -2.5947395064926E-01  2.6456484513331E-01
17  1.6000000000000E-01  1.6835228788092E+00 -1.3644444429572E-01  2.8067608377687E-01
18  1.7000000000000E-01  1.6998266029307E+00 -6.9499711942382E-03  2.9606862177126E-01
19  1.8000000000000E-01  1.7089298891597E+00  1.2523817250230E-01  3.1061777632198E-01
20  1.9000000000000E-01  1.7120428584153E+00  2.5635469655144E-01  3.2420299151643E-01
21  2.0000000000000E-01  1.7103503101054E+00  3.8277221388625E-01  3.3671181024280E-01
22  2.1000000000000E-01  1.7049655701410E+00  5.0112731956812E-01  3.4804389292504E-01
23  2.2000000000000E-01  1.6968881250065E+00  6.0843641961732E-01  3.5811497075415E-01
24  2.3000000000000E-01  1.6869665523470E+00  7.0219725055973E-01  3.6686061878759E-01
25  2.4000000000000E-01  1.6758680627368E+00  7.8047254602580E-01  3.7423973500302E-01
26  2.5000000000000E-01  1.6640557250099E+00  8.4195294658266E-01  3.8023761522140E-01
27  2.6000000000000E-01  1.6517741674729E+00  8.8599699026561E-01  3.8486852076776E-01
28  2.7000000000000E-01  1.6390442395420E+00  9.1264683754474E-01  3.8817764574596E-01
29  2.8000000000000E-01  1.6256667938768E+00  9.2261924662124E-01  3.9024240370715E-01
30  2.9000000000000E-01  1.6112354195402E+00  9.1727219231635E-01  3.9117296904818E-01
31  3.0000000000000E-01  1.5951576338642E+00  8.9854838324935E-01  3.9111202635657E-01
32  3.1000000000000E-01  1.5766837360661E+00  8.6889774696471E-01  3.9023370071670E-01
33  3.2000000000000E-01  1.5549422500812E+00  8.3118169235221E-01  3.8874166322723E-01
34  3.3000000000000E-01  1.5289806473384E+00  7.8856259704873E-01  3.8686642811153E-01
35  3.4000000000000E-01  1.4978098506771E+00  7.4438248212965E-01  3.8486188024115E-01
36  3.5000000000000E-01  1.4604508849585E+00  7.0203520935023E-01  3.8300109400974E-01
37  3.6000000000000E-01  1.4159819628676E+00  6.6483675469074E-01  3.8157152565158E-01
38  3.7000000000000E-01  1.3635842785637E+00  6.3589816867616E-01  3.8086968064873E-01
39  3.8000000000000E-01  1.3025848276038E+00  6.1800572743877E-01  3.8119537519467E-01
40  3.9000000000000E-01  1.2324946771464E+00  6.1351251308733E-01  3.8284572519553E-01
41  4.0000000000000E-01  1.1530412718983E+00  6.2424524767176E-01  3.8610900746955E-01
42  4.1000000000000E-01  1.0641935726552E+00  6.5142965716854E-01  3.9125854520740E-01
43  4.2000000000000E-01  9.6617907790467E-01  6.9563698047607E-01  3.9854677303066E-01
44  4.3000000000000E-01  8.5949206561068E-01  7.5675348739613E-01  4.0819963589543E-01
45  4.4000000000000E-01  7.4489270163040E-01  8.3397405607707E-01  4.2041147051857E-01
46  4.5000000000000E-01  6.2339698210704E-01  9.2582001362901E-01  4.3534050797418E-01
47  4.6000000000000E-01  4.9625779814422E-01  1.0301805938500E+00  4.5310512177356E-01
48  4.7000000000000E-01  3.6493772065650E-01  1.1443765434464E+00  4.7378092739859E-01
49  4.8000000000000E-01  2.3107439052755E-01  1.2652436418857E+00  4.9739881733852E-01
50  4.9000000000000E-01  9.6439653977390E-02  1.3892332169785E+00  5.2394399074051E-01
51  5.0000000000000E-01 -3.7106203551266E-02  1.5125261622093E+00  5.5335600950073E-01
52  5.1000000000000E-01 -1.6766360698141E-01  1.6311565124951E+00  5.8552988376528E-01
53  5.2000000000000E-01 -2.9334459622287E-01  1.7411403275141E+00  6.2031816022933E-01
54  5.3000000000000E-01 -4.1232380476521E-01  1.8386054758954E+00  6.5753395721867E-01
55  5.4000000000000E-01 -5.2288783781885E-01  1.9199179137306E+00  6.9695486223839E-01
56  5.5000000000000E-01 -6.2348144076615E-01  1.9818002057294E+00  7.3832758140038E-01
57  5.6000000000000E-01 -7.1274896959239E-01  2.0214383400189E+00  7.8137320678441E-01
58  5.7000000000000E-01 -7.8956984677710E-01  2.0365733258862E+00  8.2579294817001E-01
59  5.8000000000000E-01 -8.5308690221913E-01  2.0255746207421E+00  8.7127416042690E-01
60  5.9000000000000E-01 -9.0272675096652E-01  1.9874930871047E+00  9.1749648777960E-01
61  6.0000000000000E-01 -9.3821163842396E-01  1.9220919080573E+00  9.6413794162557E-01
62  6.1000000000000E-01 -9.5956247902904E-01  1.8298546635580E+00  1.0108807298818E+00
63  6.2000000000000E-01 -9.6709311534706E-01  1.7119705619497E+00  1.0574166630719E+00
64  6.3000000000000E-01 -9.6139612027364E-01  1.5702976024441E+00  1.1034519754627E+00
65  6.4000000000000E-01 -9.4332074500497E-01  1.4073051873789E+00  1.1487114182375E+00
66  6.5000000000000E-01 -9.1394386979442E-01  1.2259983815379E+00  1.1929415054801E+00
67  6.6000000000000E-01 -8.7453503448810E-01  1.0298266063538E+00  1.2359128219789E+00
68  6.7000000000000E-01 -8.2651680400828E-01  8.2258003944927E-01  1.2774213337206E+00
69  6.8000000000000E-01 -7.7142185459427E-01  6.0827734907617E-01  1.3172886764500E+00
70  6.9000000000000E-01 -7.1084824577242E-01  3.9104861761543E-01  1.3553614337377E+00
71  7.0000000000000E-01 -6.4641436876918E-01  1.7501739263712E-01  1.3915094524366E+00
72  7.1000000000000E-01 -5.7971503445056E-01 -3.5814252472712E-02  1.4256232790035E+00
73  7.2000000000000E-01 -5.1228008490264E-01 -2.3767395897019E-01  1.4576108336667E+00
74  7.3000000000000E-01 -4.4553678639463E-01 -4.2711725410452E-01  1.4873934696402E+00
75  7.4000000000000E-01 -3.8077709328611E-01 -6.0111271472298E-01  1.5149015903891E+00
76  7.5000000000000E-01 -3.1913066957515E-01 -7.5711171027432E-01  1.5400700183236E+00
77  7.6000000000000E-01 -2.6154432548441E-01 -8.9310091113579E-01  1.5628333223876E+00
78  7.7000000000000E-01 -2.0876827984553E-01 -1.0076363963980E+00  1.5831213191296E+00
79  7.8000000000000E-01 -1.6134940468336E-01 -1.0998588678197E+00  1.6008549615564E+00
80  7.9000000000000E-01 -1.1963135597331E-01 -1.1694901483156E+00  1.6159428221323E+00
81  8.0000000000000E-01 -8.3761253491722E-02 -1.2168117891599E+00  1.6282783607565E+00
82  8.1000000000000E-01 -5.3702351737125E-02 -1.2426272068990E+00  1.6377381456918E+00
83  8.2000000000000E-01 -2.9251950924278E-02 -1.2482092977298E+00  1.6441811657953E+00
84  8.3000000000000E-01 -1.0063638563577E-02 -1.2352359161826E+00  1.6474493367933E+00
85  8.4000000000000E-01  4.3271667729634E-03 -1.2057159423081E+00  1.6473692637691E+00
86  8.5000000000000E-01  1.4475473832055E-02 -1.1619088875207E+00  1.6437552777035E+00
87  8.6000000000000E-01  2.0997914838569E-02 -1.1062410986105E+00  1.6364137172000E+00
88  8.7000000000000E-01  2.4544001883390E-02 -1.0412216116738E+00  1.6251483789320E+00
89  8.8000000000000E-01  2.5768510211112E-02 -9.6936058687444E-01  1.6097670134432E+00
90  8.9000000000000E-01  2.5305960247840E-02 -8.9309302938452E-01  1.5900886983074E+00
91  9.0000000000000E-01  2.3748041319407E-02 -8.1471018378070E-01  1.5659518798783E+00
92  9.1000000000000E-01  2.1624663297246E-02 -7.3630059412409E-01  1.5372228394309E+00
93  9.2000000000000E-01  1.9389145047976E-02 -6.5970236801196E-01  1.5038043107699E+00
94  9.3000000000000E-01  1.7407858395774E-02 -5.8646769001999E-01  1.4656439555561E+00
95  9.4000000000000E-01  1.5954451431875E-02 -5.1784011892408E-01  1.4227423906402E+00
96  9.5000000000000E-01  1.5208583524099E-02 -4.5474469483675E-01  1.3751604593337E+00
97  9.6000000000000E-01  1.5258924010721E-02 -3.9779039702949E-01  1.3230254462142E+00
98  9.7000000000000E-01  1.6110004297119E-02 -3.4728404911166E-01  1.2665359529263E+00
99  9.8000000000000E-01  1.7692374996356E-02 -3.0325438160119E-01  1.2059651803146E+00
100  9.9000000000000E-01  1.9875410624411E-02 -2.6548464563138E-01  1.1416623996667E+00
101  1.0000000000000E+00  2.2482027660590E-02 -2.3355193531601E-01  1.0740524420855E+00
102  1.0100000000000E+00  2.5304539394005E-02 -2.0687122580879E-01  1.0036330890182E+00
103  1.0200000000000E+00  2.8120863127236E-02 -1.8474207086307E-01  9.3097030739964E-01
104  1.0300000000000E+00  3.0710320793668E-02 -1.6639592546930E-01  8.5669133835798E-01
105  1.0400000000000E+00  3.2868330011773E-02 -1.5104215961935E-01  7.8147571716410E-01
106  1.0500000000000E+00  3.4419364663414E-02 -1.3791099804170E-01  7.0604437231558E-01
107  1.0600000000000E+00  3.5227667175657E-02 -1.2629184563553E-01  6.3114702164757E-01
108  1.0700000000000E+00  3.5205311879385E-02 -1.1556572249247E-01  5.5754815097719E-01
109  1.0800000000000E+00  3.4317343296463E-02 -1.0523081891225E-01  4.8601192443098E-01
110  1.0900000000000E+00  3.2583837372963E-02 -9.4920470869449E-02  4.1728643346294E-01
111  1.1000000000000E+00  3.0078849311136E-02 -8.4413129469236E-02  3.5208774186605E-01
112  1.1100000000000E+00  2.6926312015953E-02 -7.3634136987765E-02  2.9108422573464E-01
113  1.1200000000000E+00  2.3293026120503E-02 -6.2649306690301E-02  2.3488173872970E-01
114  1.1300000000000E+00  1.9378885005852E-02 -5.1650315577381E-02  1.8401012866869E-01
115  1.1400000000000E+00  1.5404947815078E-02 -4.0932983929052E-02  1.3891188431949E-01
116  1.1500000000000E+00  1.1574142007851E-02 -3.0810305885791E-02  9.9919442051330E-02
117  1.1600000000000E+00  7.9564579742090E-03 -2.1347206562076E-02  6.7193663024245E-02
118  1.1700000000000E+00  4.8236289713135E-03 -1.3127091005088E-02  4.0917981377336E-02
119  1.1800000000000E+00  2.4098367543154E-03 -6.7006663066848E-03  2.1181900529683E-02
120  1.1900000000000E+00  8.3957127296620E-04 -2.4090556356156E-03  7.9624034176365E-03
121  1.2000000000000E+00  1.0574958678710E-04 -3.1832464029319E-04  1.1477613956053E-03
122  1.2100000000000E+00 -5.5597844230607E-06  1.7570110272409E-05 -6.8744907042728E-05
123  1.2200000000000E+00  4.4429608888467E-07 -1.3710989664738E-06  5.1432423913303E-06
124  1.23 -0.  0. -0.
125  1.24  0.  0.  0.
126  1.25  0.  0.  0.
127  1.26  0.  0.  0.
128  1.27  0.  0.  0.
129  1.28  0.  0.  0.
130  1.29  0.  0.  0.
131  1.30  0.  0.  0.
132  1.31  0.  0.  0.
133  1.32  0.  0.  0.
134  1.33  0.  0.  0.
135  1.34  0.  0.  0.
136  1.35  0.  0.  0.
137  1.36  0.  0.  0.
138  1.37  0.  0.  0.
139  1.38  0.  0.  0.
140  1.39  0.  0.  0.
141  1.40  0.  0.  0.
142  1.41  0.  0.  0.
143  1.42  0.  0.  0.
144  1.43  0.  0.  0.
145  1.44  0.  0.  0.
146  1.45  0.  0.  0.
147  1.46  0.  0.  0.
148  1.47  0.  0.  0.
149  1.48  0.  0.  0.
150  1.49  0.  0.  0.
151  1.50  0.  0.  0.
152  1.51  0.  0.  0.
153  1.52  0.  0.  0.
154  1.53  0.  0.  0.
155  1.54  0.  0.  0.
156  1.55  0.  0.  0.
157  1.56  0.  0.  0.
158  1.57  0.  0.  0.
159  1.58  0.  0.  0.
160  1.59  0.  0.  0.
161  1.60  0.  0.  0.
162  1.61  0.  0.  0.
163  1.62  0.  0.  0.
164  1.63  0.  0.  0.
165  1.64  0.  0.  0.
166  1.65  0.  0.  0.
167  1.66  0.  0.  0.
168  1.67  0.  0.  0.
169  1.68  0.  0.  0.
170  1.69  0.  0.  0.
171  1.70  0.  0.  0.
172  1.71  0.  0.  0.
173  1.72  0.  0.  0.
174  1.73  0.  0.  0.
175  1.74  0.  0.  0.
176  1.75  0.  0.  0.
177  1.76  0.  0.  0.
178  1.77  0.  0.  0.
179  1.78  0.  0.  0.
180  1.79  0.  0.  0.
181  1.80  0.  0.  0.
182  1.81  0.  0.  0.
183  1.82  0.  0.  0.
184  1.83  0.  0.  0.
185  1.84  0.  0.  0.
186  1.85  0.  0.  0.
187  1.86  0.  0.  0.
188  1.87  0.  0.  0.
189  1.88  0.  0.  0.
190  1.89  0.  0.  0.
191  1.90  0.  0.  0.
192  1.91  0.  0.  0.
193  1.92  0.  0.  0.
194  1.93  0.  0.  0.
195  1.94  0.  0.  0.
196  1.95  0.  0.  0.
197  1.96  0.  0.  0.
198  1.97  0.  0.  0.
199  1.98  0.  0.  0.
200  1.99  0.  0.  0.
201  2.00  0.  0.  0.
202  2.01  0.  0.  0.
203  2.02  0.  0.  0.
204  2.03  0.  0.  0.
205  2.04  0.  0.  0.
206  2.05  0.  0.  0.
207  2.06  0.  0.  0.
208  2.07  0.  0.  0.
209  2.08  0.  0.  0.
210  2.09  0.  0.  0.
211  2.10  0.  0.  0.
212  2.11  0.  0.  0.
213  2.12  0.  0.  0.
214  2.13  0.  0.  0.
215  2.14  0.  0.  0.
216  2.15  0.  0.  0.
217  2.16  0.  0.  0.
218  2.17  0.  0.  0.
219  2.18  0.  0.  0.
220  2.19  0.  0.  0.
221  2.20  0.  0.  0.
222  2.21  0.  0.  0.
223  2.22  0.  0.  0.
224  2.23  0.  0.  0.
225  2.24  0.  0.  0.
226  2.25  0.  0.  0.
227  2.26  0.  0.  0.
228  2.27  0.  0.  0.
229  2.28  0.  0.  0.
230  2.29  0.  0.  0.
231  2.30  0.  0.  0.
232  2.31  0.  0.  0.
233  2.32  0.  0.  0.
234  2.33  0.  0.  0.
235  2.34  0.  0.  0.
236  2.35  0.  0.  0.
237  2.36  0.  0.  0.
238  2.37  0.  0.  0.
239  2.38  0.  0.  0.
240  2.39  0.  0.  0.
241  2.40  0.  0.  0.
242  2.41  0.  0.  0.
243  2.42  0.  0.  0.
244  2.43  0.  0.  0.
245  2.44  0.  0.  0.
246  2.45  0.  0.  0.
247  2.46  0.  0.  0.
248  2.47  0.  0.  0.
249  2.48  0.  0.  0.
250  2.49  0.  0.  0.
251  2.50  0.  0.  0.
252  2.51  0.  0.  0.
253  2.52  0.  0.  0.
254  2.53  0.  0.  0.
255  2.54  0.  0.  0.
256  2.55  0.  0.  0.
257  2.56  0.  0.  0.
258  2.57  0.  0.  0.
259  2.58  0.  0.  0.
260  2.59  0.  0.  0.
261  2.60  0.  0.  0.
262  2.61  0.  0.  0.
263  2.62  0.  0.  0.
264  2.63  0.  0.  0.
265  2.64  0.  0.  0.
266  2.65  0.  0.  0.
267  2.66  0.  0.  0.
268  2.67  0.  0.  0.
269  2.68  0.  0.  0.
270  2.69  0.  0.  0.
271  2.70  0.  0.  0.
272  2.71  0.  0.  0.
273  2.72  0.  0.  0.
274  2.73  0.  0.  0.
275  2.74  0.  0.  0.
276  2.75  0.  0.  0.
277  2.76  0.  0.  0.
278  2.77  0.  0.  0.
279  2.78  0.  0.  0.
280  2.79  0.  0.  0.
281  2.80  0.  0.  0.
282  2.81  0.  0.  0.
283  2.82  0.  0.  0.
284  2.83  0.  0.  0.
285  2.84  0.  0.  0.
286  2.85  0.  0.  0.
287  2.86  0.  0.  0.
288  2.87  0.  0.  0.
289  2.88  0.  0.  0.
290  2.89  0.  0.  0.
291  2.90  0.  0.  0.
292  2.91  0.  0.  0.
293  2.92  0.  0.  0.
294  2.93  0.  0.  0.
295  2.94  0.  0.  0.
296  2.95  0.  0.  0.
297  2.96  0.  0.  0.
298  2.97  0.  0.  0.
299  2.98  0.  0.  0.
300  2.99  0.  0.  0.
301  3.00  0.  0.  0.
302  3.01  0.  0.  0.
303  3.02  0.  0.  0.
304  3.03  0.  0.  0.
305  3.04  0.  0.  0.
306  3.05  0.  0.  0.
307  3.06  0.  0.  0.
308  3.07  0.  0.  0.
309  3.08  0.  0.  0.
310  3.09  0.  0.  0.
311  3.10  0.  0.  0.
312  3.11  0.  0.  0.
313  3.12  0.  0.  0.
314  3.13  0.  0.  0.
315  3.14  0.  0.  0.
316  3.15  0.  0.  0.
317  3.16  0.  0.  0.
318  3.17  0.  0.  0.
319  3.18  0.  0.  0.
320  3.19  0.  0.  0.
321  3.20  0.  0.  0.
322  3.21  0.  0.  0.
323  3.22  0.  0.  0.
324  3.23  0.  0.  0.
325  3.24  0.  0.  0.
326  3.25  0.  0.  0.
327  3.26  0.  0.  0.
328  3.27  0.  0.  0.
329  3.28  0.  0.  0.
330  3.29  0.  0.  0.
331  3.30  0.  0.  0.
332  3.31  0.  0.  0.
333  3.32  0.  0.  0.
334  3.33  0.  0.  0.
335  3.34  0.  0.  0.
336  3.35  0.  0.  0.
337  3.36  0.  0.  0.
338  3.37  0.  0.  0.
339  3.38  0.  0.  0.
340  3.39  0.  0.  0.
341  3.40  0.  0.  0.
342  3.41  0.  0.  0.
343  3.42  0.  0.  0.
344  3.43  0.  0.  0.
345  3.44  0.  0.  0.
346  3.45  0.  0.  0.
347  3.46  0.  0.  0.
348  3.47  0.  0.  0.
349  3.48  0.  0.  0.
350  3.49  0.  0.  0.
351  3.50  0.  0.  0.
352  3.51  0.  0.  0.
353  3.52  0.  0.  0.
354  3.53  0.  0.  0.
355  3.54  0.  0.  0.
356  3.55  0.  0.  0.
357  3.56  0.  0.  0.
358  3.57  0.  0.  0.
359  3.58  0.  0.  0.
360  3.59  0.  0.  0.
361  3.60  0.  0.  0.
362  3.61  0.  0.  0.
363  3.62  0.  0.  0.
364  3.63  0.  0.  0.
365  3.64  0.  0.  0.
366  3.65  0.  0.  0.
367  3.66  0.  0.  0.
368  3.67  0.  0.  0.
369  3.68  0.  0.  0.
370  3.69  0.  0.  0.
371  3.70  0.  0.  0.
372  3.71  0.  0.  0.
373  3.72  0.  0.  0.
374  3.73  0.  0.  0.
375  3.74  0.  0.  0.
376  3.75  0.  0.  0.
377  3.76  0.  0.  0.
378  3.77  0.  0.  0.
379  3.78  0.  0.  0.
380  3.79  0.  0.  0.
381  3.80  0.  0.  0.
382  3.81  0.  0.  0.
383  3.82  0.  0.  0.
384  3.83  0.  0.  0.
385  3.84  0.  0.  0.
386  3.85  0.  0.  0.
387  3.86  0.  0.  0.
388  3.87  0.  0.  0.
389  3.88  0.  0.  0.
390  3.89  0.  0.  0.
391  3.90  0.  0.  0.
392  3.91  0.  0.  0.
393  3.92  0.  0.  0.
394  3.93  0.  0.  0.
395  3.94  0.  0.  0.
396  3.95  0.  0.  0.
397  3.96  0.  0.  0.
398  3.97  0.  0.  0.
399  3.98  0.  0.  0.
400  3.99  0.  0.  0.
401  4.00  0.  0.  0.
402  4.01  0.  0.  0.
403  4.02  0.  0.  0.
404  4.03  0.  0.  0.
405  4.04  0.  0.  0.
406  4.05  0.  0.  0.
407  4.06  0.  0.  0.
408  4.07  0.  0.  0.
409  4.08  0.  0.  0.
410  4.09  0.  0.  0.
411  4.10  0.  0.  0.
412  4.11  0.  0.  0.
413  4.12  0.  0.  0.
414  4.13  0.  0.  0.
415  4.14  0.  0.  0.
416  4.15  0.  0.  0.
417  4.16  0.  0.  0.
418  4.17  0.  0.  0.
419  4.18  0.  0.  0.
420  4.19  0.  0.  0.
421  4.20  0.  0.  0.
422  4.21  0.  0.  0.
423  4.22  0.  0.  0.
424  4.23  0.  0.  0.
425  4.24  0.  0.  0.
426  4.25  0.  0.  0.
427  4.26  0.  0.  0.
428  4.27  0.  0.  0.
429  4.28  0.  0.  0.
430  4.29  0.  0.  0.
431  4.30  0.  0.  0.
432  4.31  0.  0.  0.
433  4.32  0.  0.  0.
434  4.33  0.  0.  0.
435  4.34  0.  0.  0.
436  4.35  0.  0.  0.
437  4.36  0.  0.  0.
438  4.37  0.  0.  0.
439  4.38  0.  0.  0.
440  4.39  0.  0.  0.
441  4.40  0.  0.  0.
442  4.41  0.  0.  0.
443  4.42  0.  0.  0.
444  4.43  0.  0.  0.
445  4.44  0.  0.  0.
446  4.45  0.  0.  0.
447  4.46  0.  0.  0.
448  4.47  0.  0.  0.
449  4.48  0.  0.  0.
450  4.49  0.  0.  0.
451  4.50  0.  0.  0.
452  4.51  0.  0.  0.
453  4.52  0.  0.  0.
454  4.53  0.  0.  0.
455  4.54  0.  0.  0.
456  4.55  0.  0.  0.
457  4.56  0.  0.  0.
458  4.57  0.  0.  0.
459  4.58  0.  0.  0.
460  4.59  0.  0.  0.
461  4.60  0.  0.  0.
462  4.61  0.  0.  0.
463  4.62  0.  0.  0.
464  4.63  0.  0.  0.
465  4.64  0.  0.  0.
466  4.65  0.  0.  0.
467  4.66  0.  0.  0.
468  4.67  0.  0.  0.
469  4.68  0.  0.  0.
470  4.69  0.  0.  0.
471  4.70  0.  0.  0.
472  4.71  0.  0.  0.
473  4.72  0.  0.  0.
474  4.73  0.  0.  0.
475  4.74  0.  0.  0.
476  4.75  0.  0.  0.
477  4.76  0.  0.  0.
478  4.77  0.  0.  0.
479  4.78  0.  0.  0.
480  4.79  0.  0.  0.
481  4.80  0.  0.  0.
482  4.81  0.  0.  0.
483  4.82  0.  0.  0.
484  4.83  0.  0.  0.
485  4.84  0.  0.  0.
486  4.85  0.  0.  0.
487  4.86  0.  0.  0.
488  4.87  0.  0.  0.
489  4.88  0.  0.  0.
490  4.89  0.  0.  0.
491  4.90  0.  0.  0.
492  4.91  0.  0.  0.
493  4.92  0.  0.  0.
494  4.93  0.  0.  0.
495  4.94  0.  0.  0.
496  4.95  0.  0.  0.
497  4.96  0.  0.  0.
498  4.97  0.  0.  0.
499  4.98  0.  0.  0.
500  4.99  0.  0.  0.
501  5.00  0.  0.  0.
502  5.01  0.  0.  0.
503  5.02  0.  0.  0.
504  5.03  0.  0.  0.
505  5.04  0.  0.  0.
506  5.05  0.  0.  0.
507  5.06  0.  0.  0.
508  5.07  0.  0.  0.
509  5.08  0.  0.  0.
510  5.09  0.  0.  0.
511  5.10  0.  0.  0.
512  5.11  0.  0.  0.
513  5.12  0.  0.  0.
514  5.13  0.  0.  0.
515  5.14  0.  0.  0.
516  5.15  0.  0.  0.
517  5.16  0.  0.  0.
518  5.17  0.  0.  0.
519  5.18  0.  0.  0.
520  5.19  0.  0.  0.
521  5.20  0.  0.  0.
522  5.21  0.  0.  0.
523  5.22  0.  0.  0.
524  5.23  0.  0.  0.
525  5.24  0.  0.  0.
526  5.25  0.  0.  0.
527  5.26  0.  0.  0.
528  5.27  0.  0.  0.
529  5.28  0.  0.  0.
530  5.29  0.  0.  0.
531  5.30  0.  0.  0.
532  5.31  0.  0.  0.
533  5.32  0.  0.  0.
534  5.33  0.  0.  0.
535  5.34  0.  0.  0.
536  5.35  0.  0.  0.
537  5.36  0.  0.  0.
538  5.37  0.  0.  0.
539  5.38  0.  0.  0.
540  5.39  0.  0.  0.
541  5.40  0.  0.  0.
542  5.41  0.  0.  0.
543  5.42  0.  0.  0.
544  5.43  0.  0.  0.
545  5.44  0.  0.  0.
546  5.45  0.  0.  0.
547  5.46  0.  0.  0.
548  5.47  0.  0.  0.
549  5.48  0.  0.  0.
550  5.49  0.  0.  0.
551  5.50  0.  0.  0.
552  5.51  0.  0.  0.
553  5.52  0.  0.  0.
554  5.53  0.  0.  0.
555  5.54  0.  0.  0.
556  5.55  0.  0.  0.
557  5.56  0.  0.  0.
558  5.57  0.  0.  0.
559  5.58  0.  0.  0.
560  5.59  0.  0.  0.
561  5.60  0.  0.  0.
562  5.61  0.  0.  0.
563  5.62  0.  0.  0.
564  5.63  0.  0.  0.
565  5.64  0.  0.  0.
566  5.65  0.  0.  0.
567  5.66  0.  0.  0.
568  5.67  0.  0.  0.
569  5.68  0.  0.  0.
570  5.69  0.  0.  0.
571  5.70  0.  0.  0.
572  5.71  0.  0.  0.
573  5.72  0.  0.  0.
574  5.73  0.  0.  0.
575  5.74  0.  0.  0.
576  5.75  0.  0.  0.
577  5.76  0.  0.  0.
578  5.77  0.  0.  0.
579  5.78  0.  0.  0.
580  5.79  0.  0.  0.
581  5.80  0.  0.  0.
582  5.81  0.  0.  0.
583  5.82  0.  0.  0.
584  5.83  0.  0.  0.
585  5.84  0.  0.  0.
586  5.85  0.  0.  0.
587  5.86  0.  0.  0.
588  5.87  0.  0.  0.
589  5.88  0.  0.  0.
590  5.89  0.  0.  0.
591  5.90  0.  0.  0.
592  5.91  0.  0.  0.
593  5.92  0.  0.  0.
594  5.93  0.  0.  0.
595  5.94  0.  0.  0.
596  5.95  0.  0.  0.
597  5.96  0.  0.  0.
598  5.97  0.  0.  0.
599  5.98  0.  0.  0.
600  5.99  0.  0.  0.
1                         7.4035565124823E+00 -6.3347693486702E-01
1  0.0000000000000E+00 -1.4218168142843E-08 -3.9407830821920E-08
2  1.0000000000000E-02  3.0220931246165E-03 -1.5523377400196E-04
3  2.0000000000000E-02  1.2074575228235E-02 -6.0077590344521E-04
4  3.0000000000000E-02  2.7115889871733E-02 -1.2769082448949E-03
5  4.0000000000000E-02  4.8076237332759E-02 -2.0866055436257E-03
6  5.0000000000000E-02  7.4856799971940E-02 -2.8992011682201E-03
7  6.0000000000000E-02  1.0732872421307E-01 -3.5553387941529E-03
8  7.0000000000000E-02  1.4533192276061E-01 -3.8730369131893E-03
9  8.0000000000000E-02  1.8867377489604E-01 -3.6546536375882E-03
10  9.0000000000000E-02  2.3712781411978E-01 -2.6945069550559E-03
11  1.0000000000000E-01  2.9043250060715E-01 -7.8688146875030E-04
12  1.1000000000000E-01  3.4829018059890E-01  2.2658624405450E-03
13  1.2000000000000E-01  4.1036633573837E-01  6.6453666251473E-03
14  1.3000000000000E-01  4.7628922241185E-01  1.2509825685579E-02
15  1.4000000000000E-01  5.4564999438351E-01  1.9987281350017E-02
16  1.5000000000000E-01  6.1800339160750E-01  2.9169908804758E-02
17  1.6000000000000E-01  6.9286906433319E-01  4.0109511198273E-02
18  1.7000000000000E-01  7.6973358489433E-01  5.2814399083863E-02
19  1.8000000000000E-01  8.4805318039010E-01  6.7247785764944E-02
20  1.9000000000000E-01  9.2725719841273E-01  8.3327778830489E-02
21  2.0000000000000E-01  1.0067522957065E+00  1.0092899425264E-01
22  2.1000000000000E-01  1.0859273168599E+00  1.1988576402047E-01
23  2.2000000000000E-01  1.1641588075656E+00  1.3999685322271E-01
24  2.3000000000000E-01  1.2408170853594E+00  1.6103154959296E-01
25  2.4000000000000E-01  1.3152727707871E+00  1.8273693956445E-01
26  2.5000000000000E-01  1.3869036643080E+00  2.0484614150978E-01
27  2.6000000000000E-01  1.4551018395322E+00  2.2708723055864E-01
28  2.7000000000000E-01  1.5192808121266E+00  2.4919256147549E-01
29  2.8000000000000E-01  1.5788826363212E+00  2.7090817756057E-01
30  2.9000000000000E-01  1.6333847777118E+00  2.9200298514155E-01
31  3.0000000000000E-01  1.6823066121538E+00  3.1227737535646E-01
32  3.1000000000000E-01  1.7252154060200E+00  3.3157098766229E-01
33  3.2000000000000E-01  1.7617316428466E+00  3.4976933256541E-01
34  3.3000000000000E-01  1.7915335751983E+00  3.6680902384653E-01
35  3.4000000000000E-01  1.8143608980661E+00  3.8268141211121E-01
36  3.5000000000000E-01  1.8300174608032E+00  3.9743446060139E-01
37  3.6000000000000E-01  1.8383729579092E+00  4.1117275936254E-01
38  3.7000000000000E-01  1.8393635642205E+00  4.2405563336130E-01
39  3.8000000000000E-01  1.8329915065060E+00  4.3629336211440E-01
40  3.9000000000000E-01  1.8193235903196E+00  4.4814159083890E-01
41  4.0000000000000E-01  1.7984887274095E+00  4.5989407403648E-01
42  4.1000000000000E-01  1.7706745342212E+00  4.7187394977618E-01
43  4.2000000000000E-01  1.7361230952907E+00  4.8442379481533E-01
44  4.3000000000000E-01  1.6951260058689E+00  4.9789475532531E-01
45  4.4000000000000E-01  1.6480188253202E+00  5.1263508379837E-01
46  4.5000000000000E-01  1.5951750861454E+00  5.2897843840037E-01
47  4.6000000000000E-01  1.5370000124634E+00  5.4723231560118E-01
48  4.7000000000000E-01  1.4739241061646E+00  5.6766698970590E-01
49  4.8000000000000E-01  1.4063967585583E+00  5.9050532364217E-01
50  4.9000000000000E-01  1.3348800401925E+00  6.1591379413089E-01
51  5.0000000000000E-01  1.2598428117588E+00  6.4399504167119E-01
52  5.1000000000000E-01  1.1817552849327E+00  6.7478221247158E-01
53  5.2000000000000E-01  1.1010841440592E+00  7.0823530678399E-01
54  5.3000000000000E-01  1.0182883183537E+00  7.4423968759248E-01
55  5.4000000000000E-01  9.3381547043243E-01  7.8260683710117E-01
56  5.5000000000000E-01  8.4809924127425E-01  8.2307737800516E-01
57  5.6000000000000E-01  7.6155726498922E-01  8.6532630432634E-01
58  5.7000000000000E-01  6.7458993990721E-01  9.0897029495729E-01
59  5.8000000000000E-01  5.8757991638302E-01  9.5357691430378E-01
60  5.9000000000000E-01  5.0089223722046E-01  9.9867544082101E-01
61  6.0000000000000E-01  4.1487504456957E-01  1.0437690079379E+00
62  6.1000000000000E-01  3.2986074830157E-01  1.0883476947994E+00
63  6.2000000000000E-01  2.4616753586946E-01  1.1319021681001E+00
64  6.3000000000000E-01  1.6410109305021E-01  1.1739374523815E+00
65  6.4000000000000E-01  8.3956399129290E-02  1.2139863954961E+00
66  6.5000000000000E-01  6.0194592654206E-03  1.2516223990613E+00
67  6.6000000000000E-01 -6.9431158965455E-02  1.2864710007673E+00
68  6.7000000000000E-01 -1.4212310860355E-01  1.3182199260373E+00
69  6.8000000000000E-01 -2.1178947571095E-01  1.3466272700005E+00
70  6.9000000000000E-01 -2.7816851269951E-01  1.3715275258366E+00
71  7.0000000000000E-01 -3.4100396218086E-01  1.3928352406928E+00
72  7.1000000000000E-01 -4.0004601600235E-01  1.4105461536154E+00
73  7.2000000000000E-01 -4.5505292703296E-01  1.4247357490628E+00
74  7.3000000000000E-01 -5.0579326291958E-01  1.4355552420862E+00
75  7.4000000000000E-01 -5.5204876240846E-01  1.4432250946072E+00
76  7.5000000000000E-01 -5.9361772692338E-01  1.4480262436773E+00
77  7.6000000000000E-01 -6.3031885389455E-01  1.4502892995388E+00
78  7.7000000000000E-01 -6.6199539479126E-01  1.4503820411577E+00
79  7.8000000000000E-01 -6.8851950080504E-01  1.4486955973005E+00
80  7.9000000000000E-01 -7.0979660343205E-01  1.4456297500820E+00
81  8.0000000000000E-01 -7.2576966645916E-01  1.4415778334617E+00
82  8.1000000000000E-01 -7.3642314056005E-01  1.4369117200545E+00
83  8.2000000000000E-01 -7.4178645217594E-01  1.4319673949364E+00
84  8.3000000000000E-01 -7.4193686472522E-01  1.4270316044472E+00
85  8.4000000000000E-01 -7.3700156239892E-01  1.4223300414057E+00
86  8.5000000000000E-01 -7.2715882460339E-01  1.4180174862494E+00
87  8.6000000000000E-01 -7.1263818206533E-01  1.4141702674892E+00
88  8.7000000000000E-01 -6.9371947309840E-01  1.4107813360882E+00
89  8.8000000000000E-01 -6.7073074976377E-01  1.4077581689322E+00
90  8.9000000000000E-01 -6.4404501771938E-01  1.4049236288139E+00
91  9.0000000000000E-01 -6.1407582941333E-01  1.4020198149689E+00
92  9.1000000000000E-01 -5.8127178682271E-01  1.3987148420640E+00
93  9.2000000000000E-01 -5.4611004601256E-01  1.3946123896620E+00
94  9.3000000000000E-01 -5.0908895021669E-01  1.3892637716403E+00
95  9.4000000000000E-01 -4.7071994978135E-01  1.3821821888147E+00
96  9.5000000000000E-01 -4.3151899507563E-01  1.3728587509993E+00
97  9.6000000000000E-01 -3.9199761136775E-01  1.3607797895371E+00
98  9.7000000000000E-01 -3.5265388182980E-01  1.3454449302838E+00
99  9.8000000000000E-01 -3.1396357555079E-01  1.3263853620634E+00
100  9.9000000000000E-01 -2.7637166117592E-01  1.3031817182083E+00
101  1.0000000000000E+00 -2.4028444319816E-01  1.2754809899658E+00
102  1.0100000000000E+00 -2.0606254686437E-01  1.2430119107844E+00
103  1.0200000000000E+00 -1.7401495922195E-01  1.2055982896563E+00
104  1.0300000000000E+00 -1.4439430824455E-01  1.1631698293187E+00
105  1.0400000000000E+00 -1.1739352976421E-01  1.1157700400019E+00
106  1.0500000000000E+00 -9.3144033798407E-02  1.0635609498674E+00
107  1.0600000000000E+00 -7.1715438498576E-02  1.0068244176042E+00
108  1.0700000000000E+00 -5.3116892536605E-02  9.4595996796139E-01
109  1.0800000000000E+00 -3.7299956252731E-02  8.8147919488172E-01
110  1.0900000000000E+00 -2.4162959475323E-02  8.1399690648912E-01
111  1.1000000000000E+00 -1.3556701079078E-02  7.4421931772384E-01
112  1.1100000000000E+00 -5.2913028846252E-03  6.7292972788481E-01
113  1.1200000000000E+00  8.5601974900853E-04  6.0097224709552E-01
114  1.1300000000000E+00  5.1325557555882E-03  5.2923425630111E-01
115  1.1400000000000E+00  7.8013927140342E-03  4.5862839548021E-01
116  1.1500000000000E+00  9.1327738446900E-03  3.9007497309316E-01
117  1.1600000000000E+00  9.3959155220471E-03  3.2448577294729E-01
118  1.1700000000000E+00  8.8517126038809E-03  2.6275030881096E-01
119  1.1800000000000E+00  7.7467333886330E-03  2.0572554024699E-01
120  1.1900000000000E+00  6.3062767200505E-03  1.5422594395615E-01
121  1.2000000000000E+00  4.6969316311866E-03  1.0896315233827E-01
122  1.2100000000000E+00  3.1170154452657E-03  7.0699285787958E-02
123  1.2200000000000E+00  1.7608121466599E-03  4.0187328668078E-02
124  1.2300000000000E+00  7.6231528772513E-04  1.8023715430101E-02
125  1.2400000000000E+00  1.7962460513543E-04  4.5398551888778E-03