Pa    ONCVPSP-4.0.1  r_core=   1.25016   1.25016   1.25016   1.25016
91.0000     31.0000      230224    zatom,zion,pspd
8      11   3     4   600     0    pspcod,pspxc,lmax,lloc,mmax,r2well
5.99000000  5.00000000  0.00000000    rchrg fchrg qchrg
3     2     2     2     0    nproj
1     1           extension_switch
0                         2.1552564526656E+01  3.2588680840126E+00 -9.4282653570816E-01
1  0.0000000000000E+00 -3.2115720971504E-08  6.3737788463802E-08 -5.7953832133251E-07
2  1.0000000000000E-02  1.1518941502306E-01 -3.2400032855194E-02  1.7572863753421E-01
3  2.0000000000000E-02  2.2976894485461E-01 -6.4117404317171E-02  3.4637485398352E-01
4  3.0000000000000E-02  3.4313768950669E-01 -9.4485616763519E-02  5.0701405765530E-01
5  4.0000000000000E-02  4.5471245706169E-01 -1.2286998514274E-01  6.5303234186286E-01
6  5.0000000000000E-02  5.6393597061172E-01 -1.4868227319944E-01  7.8026955000942E-01
7  6.0000000000000E-02  6.7028432287902E-01 -1.7139385366907E-01  8.8514804249564E-01
8  7.0000000000000E-02  7.7327346720308E-01 -1.9054697876739E-01  9.6478310924043E-01
9  8.0000000000000E-02  8.7246456569598E-01 -2.0576381103793E-01  1.0170715511426E+00
10  9.0000000000000E-02  9.6746805344545E-01 -2.1675294016675E-01  1.0407556431668E+00
11  1.0000000000000E-01  1.0579463204108E+00 -2.2331319618371E-01  1.0354604691782E+00
12  1.1000000000000E-01  1.1436149586747E+00 -2.2533466067996E-01  1.0017034596377E+00
13  1.2000000000000E-01  1.2242425704380E+00 -2.2279687220422E-01  9.4087584126305E-01
14  1.3000000000000E-01  1.2996491799750E+00 -2.1576431665848E-01  8.5519659504557E-01
15  1.4000000000000E-01  1.3697033390848E+00 -2.0437938509255E-01  7.4764038754880E-01
16  1.5000000000000E-01  1.4343180588288E+00 -1.8885306668985E-01  6.2184176276408E-01
17  1.6000000000000E-01  1.4934457390581E+00 -1.6945372104118E-01  4.8197863195143E-01
18  1.7000000000000E-01  1.5470723001125E+00 -1.4649433841564E-01  3.3263875311106E-01
19  1.8000000000000E-01  1.5952107469698E+00 -1.2031874744673E-01  1.7867342929631E-01
20  1.9000000000000E-01  1.6378944141815E+00 -9.1287264707951E-02  2.5043058846470E-02
21  2.0000000000000E-01  1.6751701494860E+00 -5.9762298832710E-02 -1.2334057203096E-01
22  2.1000000000000E-01  1.7070916947346E+00 -2.6094422482620E-02 -2.6177026126499E-01
23  2.2000000000000E-01  1.7337135146183E+00  9.3905914787660E-03 -3.8589268982343E-01
24  2.3000000000000E-01  1.7550853069166E+00  4.6403307260661E-02 -4.9184632149934E-01
25  2.4000000000000E-01  1.7712474031376E+00  8.4700324487637E-02 -5.7638353889009E-01
26  2.5000000000000E-01  1.7822272362881E+00  1.2409178949283E-01 -6.3697315041520E-01
27  2.6000000000000E-01  1.7880370141812E+00  1.6444644786242E-01 -6.7188002517618E-01
28  2.7000000000000E-01  1.7886726934239E+00  2.0569405253632E-01 -6.8021933710971E-01
29  2.8000000000000E-01  1.7841143024734E+00  2.4782503446639E-01 -6.6198370427131E-01
30  2.9000000000000E-01  1.7743276134877E+00  2.9088743907817E-01 -6.1804236763180E-01
31  3.0000000000000E-01  1.7592671137583E+00  3.3498122831249E-01 -5.5011243925259E-01
32  3.1000000000000E-01  1.7388801799575E+00  3.8025014154420E-01 -4.6070313396291E-01
33  3.2000000000000E-01  1.7131123138858E+00  4.2687139598531E-01 -3.5303475358562E-01
34  3.3000000000000E-01  1.6819132583773E+00  4.7504358527941E-01 -2.3093499119362E-01
35  3.4000000000000E-01  1.6452437779056E+00  5.2497320117860E-01 -9.8715839416586E-02
36  3.5000000000000E-01  1.6030828613993E+00  5.7686025516196E-01  3.8965001270796E-02
37  3.6000000000000E-01  1.5554350857881E+00  6.3088351277152E-01  1.7725383050997E-01
38  3.7000000000000E-01  1.5023378685333E+00  6.8718587202131E-01  3.1125704014759E-01
39  3.8000000000000E-01  1.4438683362465E+00  7.4586041776972E-01  4.3619866045347E-01
40  3.9000000000000E-01  1.3801495445522E+00  8.0693766634752E-01  5.4757438919172E-01
41  4.0000000000000E-01  1.3113558013863E+00  8.7037447952604E-01  6.4129724871788E-01
42  4.1000000000000E-01  1.2377168714047E+00  9.3604507522813E-01  7.1383028647889E-01
43  4.2000000000000E-01  1.1595208723055E+00  1.0037344959188E+00  7.6230214939298E-01
44  4.3000000000000E-01  1.0771157135606E+00  1.0731348165767E+00  7.8460190901090E-01
45  4.4000000000000E-01  9.9090897300962E-01  1.1438442851812E+00  7.7945017439581E-01
46  4.5000000000000E-01  9.0136615551881E-01  1.2153694927470E+00  7.4644428192077E-01
47  4.6000000000000E-01  8.0900732882713E-01  1.2871305703340E+00  6.8607617136439E-01
48  4.7000000000000E-01  7.1440218311337E-01  1.3584693105291E+00  5.9972241935426E-01
49  4.8000000000000E-01  6.1816361100457E-01  1.4286600140221E+00  4.8960677665504E-01
50  4.9000000000000E-01  5.2093995204380E-01  1.4969227713818E+00  3.5873641692609E-01
51  5.0000000000000E-01  4.2340608846826E-01  1.5624388090486E+00  2.1081392388650E-01
52  5.1000000000000E-01  3.2625361609270E-01  1.6243674596575E+00  5.0127795226206E-02
53  5.2000000000000E-01  2.3018034392435E-01  1.6818642624371E+00 -1.1857509866268E-01
54  5.3000000000000E-01  1.3587939786964E-01  1.7340996614287E+00 -2.9023111568812E-01
55  5.4000000000000E-01  4.4028216821181E-02  1.7802777489163E+00 -4.5961109926560E-01
56  5.5000000000000E-01 -4.4722266873230E-02  1.8196544994240E+00 -6.2147661208594E-01
57  5.6000000000000E-01 -1.2975797615477E-01  1.8515549559486E+00 -7.7073634056272E-01
58  5.7000000000000E-01 -2.1051129549234E-01  1.8753888641596E+00 -9.0259789077295E-01
59  5.8000000000000E-01 -2.8646968614324E-01  1.8906643008898E+00 -1.0127103743149E+00
60  5.9000000000000E-01 -3.5718309294921E-01  1.8969989085861E+00 -1.0972935041312E+00
61  6.0000000000000E-01 -4.2226996282679E-01  1.8941284251770E+00 -1.1532493743814E+00
62  6.1000000000000E-01 -4.8142173811499E-01  1.8819122863348E+00 -1.1782536691052E+00
63  6.2000000000000E-01 -5.3440573482636E-01  1.8603361713098E+00 -1.1708237121361E+00
64  6.3000000000000E-01 -5.8106636500800E-01  1.8295114611141E+00 -1.1303615130080E+00
65  6.4000000000000E-01 -6.2132471218813E-01  1.7896716754602E+00 -1.0571707556274E+00
66  6.5000000000000E-01 -6.5517651758553E-01  1.7411660491615E+00 -9.5244749215373E-01
67  6.6000000000000E-01 -6.8268868076681E-01  1.6844504964390E+00 -8.1824511712062E-01
68  6.7000000000000E-01 -7.0399442023400E-01  1.6200762897941E+00 -6.5741498011142E-01
69  6.8000000000000E-01 -7.1928727565785E-01  1.5486768461758E+00 -4.7352472429151E-01
70  6.9000000000000E-01 -7.2881416299209E-01  1.4709530649332E+00 -2.7075708990234E-01
71  7.0000000000000E-01 -7.3286771561333E-01  1.3876576978549E+00 -5.3792476446391E-02
72  7.1000000000000E-01 -7.3177815830863E-01  1.2995792503979E+00  1.7232100179321E-01
73  7.2000000000000E-01 -7.2590496605401E-01  1.2075259145614E+00  4.0230591753752E-01
74  7.3000000000000E-01 -7.1562855607690E-01  1.1123100179434E+00  6.3079815984579E-01
75  7.4000000000000E-01 -7.0134224995708E-01  1.0147334411352E+00  8.5248951866978E-01
76  7.5000000000000E-01 -6.8344472307388E-01  9.1557440814674E-01  1.0622660464274E+00
77  7.6000000000000E-01 -6.6233313239281E-01  8.1557599392154E-01  1.2553382435094E+00
78  7.7000000000000E-01 -6.3839708147484E-01  7.1543662155520E-01  1.4273594608295E+00
79  7.8000000000000E-01 -6.1201354495241E-01  6.1580274230485E-01  1.5745293659330E+00
80  7.9000000000000E-01 -5.8354283494954E-01  5.1726380684000E-01  1.6936798626888E+00
81  8.0000000000000E-01 -5.5332565052248E-01  4.2034954956917E-01  1.7823414683420E+00
82  8.1000000000000E-01 -5.2168120968029E-01  3.2552952241885E-01  1.8387888139775E+00
83  8.2000000000000E-01 -4.8890642341317E-01  2.3321473321187E-01  1.8620646222121E+00
84  8.3000000000000E-01 -4.5527603382191E-01  1.4376116963669E-01  1.8519822059108E+00
85  8.4000000000000E-01 -4.2104360519078E-01  5.7474925266734E-02  1.8091072009796E+00
86  8.5000000000000E-01 -3.8644322878511E-01 -2.5381408669708E-02  1.7347198730683E+00
87  8.6000000000000E-01 -3.5169178017719E-01 -1.0458146137749E-01  1.6307599024583E+00
88  8.7000000000000E-01 -3.1699155265906E-01 -1.7992731075714E-01  1.4997560360731E+00
89  8.8000000000000E-01 -2.8253308217576E-01 -2.5124163167597E-01  1.3447433859929E+00
90  8.9000000000000E-01 -2.4849797832419E-01 -3.1836016839149E-01  1.1691714389170E+00
91  9.0000000000000E-01 -2.1506158215997E-01 -3.8112491491710E-01  9.7680601312770E-01
92  9.1000000000000E-01 -1.8239528443071E-01 -4.3937835317476E-01  7.7162845467667E-01
93  9.2000000000000E-01 -1.5066835677247E-01 -4.9295905278879E-01  5.5773530236172E-01
94  9.3000000000000E-01 -1.2004917252619E-01 -5.4169888029445E-01  3.3924147456711E-01
95  9.4000000000000E-01 -9.0705722158702E-02 -5.8542200162306E-01  1.2018974622093E-01
96  9.5000000000000E-01 -6.2805359696522E-02 -6.2394579246500E-01 -9.5531100410451E-02
97  9.6000000000000E-01 -3.6513749922510E-02 -6.5708369910009E-01 -3.0425754084378E-01
98  9.7000000000000E-01 -1.1993020167308E-02 -6.8465002008938E-01 -5.0261062949285E-01
99  9.8000000000000E-01  1.0600845804859E-02 -7.0646650933870E-01 -6.8754263077225E-01
100  9.9000000000000E-01  3.1121302094356E-02 -7.2237063567724E-01 -8.5637087874688E-01
101  1.0000000000000E+00  4.9435123566604E-02 -7.3222527518664E-01 -1.0067994861607E+00
102  1.0100000000000E+00  6.5426750986909E-02 -7.3592956155223E-01 -1.1369302521292E+00
103  1.0200000000000E+00  7.9002948811625E-02 -7.3343057770230E-01 -1.2452648617956E+00
104  1.0300000000000E+00  9.0097606626404E-02 -7.2473553934194E-01 -1.3307012244175E+00
105  1.0400000000000E+00  9.8676499575499E-02 -7.0992409759678E-01 -1.3925275517293E+00
106  1.0500000000000E+00  1.0474181089742E-01 -6.8916037299444E-01 -1.4304185339180E+00
107  1.0600000000000E+00  1.0833621023986E-01 -6.6270432502766E-01 -1.4444387284911E+00
108  1.0700000000000E+00  1.0954627387596E-01 -6.3092205851225E-01 -1.4350590383491E+00
109  1.0800000000000E+00  1.0850502605968E-01 -5.9429466720617E-01 -1.4031929286169E+00
110  1.0900000000000E+00  1.0539337387119E-01 -5.5342521674209E-01 -1.3502598574308E+00
111  1.1000000000000E+00  1.0044017744129E-01 -5.0904338107265E-01 -1.2782835167340E+00
112  1.1100000000000E+00  9.3920458825135E-02 -4.6200633592736E-01 -1.1900257466908E+00
113  1.1200000000000E+00  8.6142849197061E-02 -4.1326031935383E-01 -1.0888465046931E+00
114  1.1300000000000E+00  7.7428632162906E-02 -3.6376873623026E-01 -9.7823112917463E-01
115  1.1400000000000E+00  6.8102439892655E-02 -3.1448570148225E-01 -8.6163850308470E-01
116  1.1500000000000E+00  5.8485392774229E-02 -2.6633996778356E-01 -7.4244216431735E-01
117  1.1600000000000E+00  4.8887903369889E-02 -2.2021812540590E-01 -6.2387646927709E-01
118  1.1700000000000E+00  3.9602344688867E-02 -1.7694755204954E-01 -5.0898862335182E-01
119  1.1800000000000E+00  3.0895745398362E-02 -1.3727947854747E-01 -4.0059705163701E-01
120  1.1900000000000E+00  2.2999789451642E-02 -1.0186574068456E-01 -3.0126651477351E-01
121  1.2000000000000E+00  1.6066679908055E-02 -7.1153026812763E-02 -2.1340998683103E-01
122  1.2100000000000E+00  1.0260233254647E-02 -4.5600014297188E-02 -1.3892545243657E-01
123  1.2200000000000E+00  5.7148042984005E-03 -2.5583780212582E-02 -7.9307630424644E-02
124  1.2300000000000E+00  2.4994729223576E-03 -1.1315875757879E-02 -3.5758545852098E-02
125  1.2400000000000E+00  6.1097397413071E-04 -2.8088279952294E-03 -9.0639867551546E-03
126  1.2500000000000E+00  2.0193598338755E-06 -9.4088984435997E-06 -3.0619260570289E-05
127  1.2600000000000E+00  4.3529747098957E-06 -2.0309177478221E-05 -6.6757406829668E-05
128  1.2700000000000E+00 -7.6444819551603E-07  3.5345920526379E-06  1.1490275732293E-05
129  1.28 -0.  0. -0.
130  1.29  0.  0.  0.
131  1.30  0.  0.  0.
132  1.31  0.  0.  0.
133  1.32  0.  0.  0.
134  1.33  0.  0.  0.
135  1.34  0.  0.  0.
136  1.35  0.  0.  0.
137  1.36  0.  0.  0.
138  1.37  0.  0.  0.
139  1.38  0.  0.  0.
140  1.39  0.  0.  0.
141  1.40  0.  0.  0.
142  1.41  0.  0.  0.
143  1.42  0.  0.  0.
144  1.43  0.  0.  0.
145  1.44  0.  0.  0.
146  1.45  0.  0.  0.
147  1.46  0.  0.  0.
148  1.47  0.  0.  0.
149  1.48  0.  0.  0.
150  1.49  0.  0.  0.
151  1.50  0.  0.  0.
152  1.51  0.  0.  0.
153  1.52  0.  0.  0.
154  1.53  0.  0.  0.
155  1.54  0.  0.  0.
156  1.55  0.  0.  0.
157  1.56  0.  0.  0.
158  1.57  0.  0.  0.
159  1.58  0.  0.  0.
160  1.59  0.  0.  0.
161  1.60  0.  0.  0.
162  1.61  0.  0.  0.
163  1.62  0.  0.  0.
164  1.63  0.  0.  0.
165  1.64  0.  0.  0.
166  1.65  0.  0.  0.
167  1.66  0.  0.  0.
168  1.67  0.  0.  0.
169  1.68  0.  0.  0.
170  1.69  0.  0.  0.
171  1.70  0.  0.  0.
172  1.71  0.  0.  0.
173  1.72  0.  0.  0.
174  1.73  0.  0.  0.
175  1.74  0.  0.  0.
176  1.75  0.  0.  0.
177  1.76  0.  0.  0.
178  1.77  0.  0.  0.
179  1.78  0.  0.  0.
180  1.79  0.  0.  0.
181  1.80  0.  0.  0.
182  1.81  0.  0.  0.
183  1.82  0.  0.  0.
184  1.83  0.  0.  0.
185  1.84  0.  0.  0.
186  1.85  0.  0.  0.
187  1.86  0.  0.  0.
188  1.87  0.  0.  0.
189  1.88  0.  0.  0.
190  1.89  0.  0.  0.
191  1.90  0.  0.  0.
192  1.91  0.  0.  0.
193  1.92  0.  0.  0.
194  1.93  0.  0.  0.
195  1.94  0.  0.  0.
196  1.95  0.  0.  0.
197  1.96  0.  0.  0.
198  1.97  0.  0.  0.
199  1.98  0.  0.  0.
200  1.99  0.  0.  0.
201  2.00  0.  0.  0.
202  2.01  0.  0.  0.
203  2.02  0.  0.  0.
204  2.03  0.  0.  0.
205  2.04  0.  0.  0.
206  2.05  0.  0.  0.
207  2.06  0.  0.  0.
208  2.07  0.  0.  0.
209  2.08  0.  0.  0.
210  2.09  0.  0.  0.
211  2.10  0.  0.  0.
212  2.11  0.  0.  0.
213  2.12  0.  0.  0.
214  2.13  0.  0.  0.
215  2.14  0.  0.  0.
216  2.15  0.  0.  0.
217  2.16  0.  0.  0.
218  2.17  0.  0.  0.
219  2.18  0.  0.  0.
220  2.19  0.  0.  0.
221  2.20  0.  0.  0.
222  2.21  0.  0.  0.
223  2.22  0.  0.  0.
224  2.23  0.  0.  0.
225  2.24  0.  0.  0.
226  2.25  0.  0.  0.
227  2.26  0.  0.  0.
228  2.27  0.  0.  0.
229  2.28  0.  0.  0.
230  2.29  0.  0.  0.
231  2.30  0.  0.  0.
232  2.31  0.  0.  0.
233  2.32  0.  0.  0.
234  2.33  0.  0.  0.
235  2.34  0.  0.  0.
236  2.35  0.  0.  0.
237  2.36  0.  0.  0.
238  2.37  0.  0.  0.
239  2.38  0.  0.  0.
240  2.39  0.  0.  0.
241  2.40  0.  0.  0.
242  2.41  0.  0.  0.
243  2.42  0.  0.  0.
244  2.43  0.  0.  0.
245  2.44  0.  0.  0.
246  2.45  0.  0.  0.
247  2.46  0.  0.  0.
248  2.47  0.  0.  0.
249  2.48  0.  0.  0.
250  2.49  0.  0.  0.
251  2.50  0.  0.  0.
252  2.51  0.  0.  0.
253  2.52  0.  0.  0.
254  2.53  0.  0.  0.
255  2.54  0.  0.  0.
256  2.55  0.  0.  0.
257  2.56  0.  0.  0.
258  2.57  0.  0.  0.
259  2.58  0.  0.  0.
260  2.59  0.  0.  0.
261  2.60  0.  0.  0.
262  2.61  0.  0.  0.
263  2.62  0.  0.  0.
264  2.63  0.  0.  0.
265  2.64  0.  0.  0.
266  2.65  0.  0.  0.
267  2.66  0.  0.  0.
268  2.67  0.  0.  0.
269  2.68  0.  0.  0.
270  2.69  0.  0.  0.
271  2.70  0.  0.  0.
272  2.71  0.  0.  0.
273  2.72  0.  0.  0.
274  2.73  0.  0.  0.
275  2.74  0.  0.  0.
276  2.75  0.  0.  0.
277  2.76  0.  0.  0.
278  2.77  0.  0.  0.
279  2.78  0.  0.  0.
280  2.79  0.  0.  0.
281  2.80  0.  0.  0.
282  2.81  0.  0.  0.
283  2.82  0.  0.  0.
284  2.83  0.  0.  0.
285  2.84  0.  0.  0.
286  2.85  0.  0.  0.
287  2.86  0.  0.  0.
288  2.87  0.  0.  0.
289  2.88  0.  0.  0.
290  2.89  0.  0.  0.
291  2.90  0.  0.  0.
292  2.91  0.  0.  0.
293  2.92  0.  0.  0.
294  2.93  0.  0.  0.
295  2.94  0.  0.  0.
296  2.95  0.  0.  0.
297  2.96  0.  0.  0.
298  2.97  0.  0.  0.
299  2.98  0.  0.  0.
300  2.99  0.  0.  0.
301  3.00  0.  0.  0.
302  3.01  0.  0.  0.
303  3.02  0.  0.  0.
304  3.03  0.  0.  0.
305  3.04  0.  0.  0.
306  3.05  0.  0.  0.
307  3.06  0.  0.  0.
308  3.07  0.  0.  0.
309  3.08  0.  0.  0.
310  3.09  0.  0.  0.
311  3.10  0.  0.  0.
312  3.11  0.  0.  0.
313  3.12  0.  0.  0.
314  3.13  0.  0.  0.
315  3.14  0.  0.  0.
316  3.15  0.  0.  0.
317  3.16  0.  0.  0.
318  3.17  0.  0.  0.
319  3.18  0.  0.  0.
320  3.19  0.  0.  0.
321  3.20  0.  0.  0.
322  3.21  0.  0.  0.
323  3.22  0.  0.  0.
324  3.23  0.  0.  0.
325  3.24  0.  0.  0.
326  3.25  0.  0.  0.
327  3.26  0.  0.  0.
328  3.27  0.  0.  0.
329  3.28  0.  0.  0.
330  3.29  0.  0.  0.
331  3.30  0.  0.  0.
332  3.31  0.  0.  0.
333  3.32  0.  0.  0.
334  3.33  0.  0.  0.
335  3.34  0.  0.  0.
336  3.35  0.  0.  0.
337  3.36  0.  0.  0.
338  3.37  0.  0.  0.
339  3.38  0.  0.  0.
340  3.39  0.  0.  0.
341  3.40  0.  0.  0.
342  3.41  0.  0.  0.
343  3.42  0.  0.  0.
344  3.43  0.  0.  0.
345  3.44  0.  0.  0.
346  3.45  0.  0.  0.
347  3.46  0.  0.  0.
348  3.47  0.  0.  0.
349  3.48  0.  0.  0.
350  3.49  0.  0.  0.
351  3.50  0.  0.  0.
352  3.51  0.  0.  0.
353  3.52  0.  0.  0.
354  3.53  0.  0.  0.
355  3.54  0.  0.  0.
356  3.55  0.  0.  0.
357  3.56  0.  0.  0.
358  3.57  0.  0.  0.
359  3.58  0.  0.  0.
360  3.59  0.  0.  0.
361  3.60  0.  0.  0.
362  3.61  0.  0.  0.
363  3.62  0.  0.  0.
364  3.63  0.  0.  0.
365  3.64  0.  0.  0.
366  3.65  0.  0.  0.
367  3.66  0.  0.  0.
368  3.67  0.  0.  0.
369  3.68  0.  0.  0.
370  3.69  0.  0.  0.
371  3.70  0.  0.  0.
372  3.71  0.  0.  0.
373  3.72  0.  0.  0.
374  3.73  0.  0.  0.
375  3.74  0.  0.  0.
376  3.75  0.  0.  0.
377  3.76  0.  0.  0.
378  3.77  0.  0.  0.
379  3.78  0.  0.  0.
380  3.79  0.  0.  0.
381  3.80  0.  0.  0.
382  3.81  0.  0.  0.
383  3.82  0.  0.  0.
384  3.83  0.  0.  0.
385  3.84  0.  0.  0.
386  3.85  0.  0.  0.
387  3.86  0.  0.  0.
388  3.87  0.  0.  0.
389  3.88  0.  0.  0.
390  3.89  0.  0.  0.
391  3.90  0.  0.  0.
392  3.91  0.  0.  0.
393  3.92  0.  0.  0.
394  3.93  0.  0.  0.
395  3.94  0.  0.  0.
396  3.95  0.  0.  0.
397  3.96  0.  0.  0.
398  3.97  0.  0.  0.
399  3.98  0.  0.  0.
400  3.99  0.  0.  0.
401  4.00  0.  0.  0.
402  4.01  0.  0.  0.
403  4.02  0.  0.  0.
404  4.03  0.  0.  0.
405  4.04  0.  0.  0.
406  4.05  0.  0.  0.
407  4.06  0.  0.  0.
408  4.07  0.  0.  0.
409  4.08  0.  0.  0.
410  4.09  0.  0.  0.
411  4.10  0.  0.  0.
412  4.11  0.  0.  0.
413  4.12  0.  0.  0.
414  4.13  0.  0.  0.
415  4.14  0.  0.  0.
416  4.15  0.  0.  0.
417  4.16  0.  0.  0.
418  4.17  0.  0.  0.
419  4.18  0.  0.  0.
420  4.19  0.  0.  0.
421  4.20  0.  0.  0.
422  4.21  0.  0.  0.
423  4.22  0.  0.  0.
424  4.23  0.  0.  0.
425  4.24  0.  0.  0.
426  4.25  0.  0.  0.
427  4.26  0.  0.  0.
428  4.27  0.  0.  0.
429  4.28  0.  0.  0.
430  4.29  0.  0.  0.
431  4.30  0.  0.  0.
432  4.31  0.  0.  0.
433  4.32  0.  0.  0.
434  4.33  0.  0.  0.
435  4.34  0.  0.  0.
436  4.35  0.  0.  0.
437  4.36  0.  0.  0.
438  4.37  0.  0.  0.
439  4.38  0.  0.  0.
440  4.39  0.  0.  0.
441  4.40  0.  0.  0.
442  4.41  0.  0.  0.
443  4.42  0.  0.  0.
444  4.43  0.  0.  0.
445  4.44  0.  0.  0.
446  4.45  0.  0.  0.
447  4.46  0.  0.  0.
448  4.47  0.  0.  0.
449  4.48  0.  0.  0.
450  4.49  0.  0.  0.
451  4.50  0.  0.  0.
452  4.51  0.  0.  0.
453  4.52  0.  0.  0.
454  4.53  0.  0.  0.
455  4.54  0.  0.  0.
456  4.55  0.  0.  0.
457  4.56  0.  0.  0.
458  4.57  0.  0.  0.
459  4.58  0.  0.  0.
460  4.59  0.  0.  0.
461  4.60  0.  0.  0.
462  4.61  0.  0.  0.
463  4.62  0.  0.  0.
464  4.63  0.  0.  0.
465  4.64  0.  0.  0.
466  4.65  0.  0.  0.
467  4.66  0.  0.  0.
468  4.67  0.  0.  0.
469  4.68  0.  0.  0.
470  4.69  0.  0.  0.
471  4.70  0.  0.  0.
472  4.71  0.  0.  0.
473  4.72  0.  0.  0.
474  4.73  0.  0.  0.
475  4.74  0.  0.  0.
476  4.75  0.  0.  0.
477  4.76  0.  0.  0.
478  4.77  0.  0.  0.
479  4.78  0.  0.  0.
480  4.79  0.  0.  0.
481  4.80  0.  0.  0.
482  4.81  0.  0.  0.
483  4.82  0.  0.  0.
484  4.83  0.  0.  0.
485  4.84  0.  0.  0.
486  4.85  0.  0.  0.
487  4.86  0.  0.  0.
488  4.87  0.  0.  0.
489  4.88  0.  0.  0.
490  4.89  0.  0.  0.
491  4.90  0.  0.  0.
492  4.91  0.  0.  0.
493  4.92  0.  0.  0.
494  4.93  0.  0.  0.
495  4.94  0.  0.  0.
496  4.95  0.  0.  0.
497  4.96  0.  0.  0.
498  4.97  0.  0.  0.
499  4.98  0.  0.  0.
500  4.99  0.  0.  0.
501  5.00  0.  0.  0.
502  5.01  0.  0.  0.
503  5.02  0.  0.  0.
504  5.03  0.  0.  0.
505  5.04  0.  0.  0.
506  5.05  0.  0.  0.
507  5.06  0.  0.  0.
508  5.07  0.  0.  0.
509  5.08  0.  0.  0.
510  5.09  0.  0.  0.
511  5.10  0.  0.  0.
512  5.11  0.  0.  0.
513  5.12  0.  0.  0.
514  5.13  0.  0.  0.
515  5.14  0.  0.  0.
516  5.15  0.  0.  0.
517  5.16  0.  0.  0.
518  5.17  0.  0.  0.
519  5.18  0.  0.  0.
520  5.19  0.  0.  0.
521  5.20  0.  0.  0.
522  5.21  0.  0.  0.
523  5.22  0.  0.  0.
524  5.23  0.  0.  0.
525  5.24  0.  0.  0.
526  5.25  0.  0.  0.
527  5.26  0.  0.  0.
528  5.27  0.  0.  0.
529  5.28  0.  0.  0.
530  5.29  0.  0.  0.
531  5.30  0.  0.  0.
532  5.31  0.  0.  0.
533  5.32  0.  0.  0.
534  5.33  0.  0.  0.
535  5.34  0.  0.  0.
536  5.35  0.  0.  0.
537  5.36  0.  0.  0.
538  5.37  0.  0.  0.
539  5.38  0.  0.  0.
540  5.39  0.  0.  0.
541  5.40  0.  0.  0.
542  5.41  0.  0.  0.
543  5.42  0.  0.  0.
544  5.43  0.  0.  0.
545  5.44  0.  0.  0.
546  5.45  0.  0.  0.
547  5.46  0.  0.  0.
548  5.47  0.  0.  0.
549  5.48  0.  0.  0.
550  5.49  0.  0.  0.
551  5.50  0.  0.  0.
552  5.51  0.  0.  0.
553  5.52  0.  0.  0.
554  5.53  0.  0.  0.
555  5.54  0.  0.  0.
556  5.55  0.  0.  0.
557  5.56  0.  0.  0.
558  5.57  0.  0.  0.
559  5.58  0.  0.  0.
560  5.59  0.  0.  0.
561  5.60  0.  0.  0.
562  5.61  0.  0.  0.
563  5.62  0.  0.  0.
564  5.63  0.  0.  0.
565  5.64  0.  0.  0.
566  5.65  0.  0.  0.
567  5.66  0.  0.  0.
568  5.67  0.  0.  0.
569  5.68  0.  0.  0.
570  5.69  0.  0.  0.
571  5.70  0.  0.  0.
572  5.71  0.  0.  0.
573  5.72  0.  0.  0.
574  5.73  0.  0.  0.
575  5.74  0.  0.  0.
576  5.75  0.  0.  0.
577  5.76  0.  0.  0.
578  5.77  0.  0.  0.
579  5.78  0.  0.  0.
580  5.79  0.  0.  0.
581  5.80  0.  0.  0.
582  5.81  0.  0.  0.
583  5.82  0.  0.  0.
584  5.83  0.  0.  0.
585  5.84  0.  0.  0.
586  5.85  0.  0.  0.
587  5.86  0.  0.  0.
588  5.87  0.  0.  0.
589  5.88  0.  0.  0.
590  5.89  0.  0.  0.
591  5.90  0.  0.  0.
592  5.91  0.  0.  0.
593  5.92  0.  0.  0.
594  5.93  0.  0.  0.
595  5.94  0.  0.  0.
596  5.95  0.  0.  0.
597  5.96  0.  0.  0.
598  5.97  0.  0.  0.
599  5.98  0.  0.  0.
600  5.99  0.  0.  0.
1                         1.5122340355633E+01  2.1963827861560E+00
1  0.0000000000000E+00 -3.2403767058486E-08  6.6604417996510E-08
2  1.0000000000000E-02  2.8876460911603E-03  3.6444545760206E-04
3  2.0000000000000E-02  1.1545367253271E-02  1.4311374578153E-03
4  3.0000000000000E-02  2.5956996970660E-02  3.1213840791037E-03
5  4.0000000000000E-02  4.6093895632061E-02  5.3081248663975E-03
6  5.0000000000000E-02  7.1912483154659E-02  7.8219154121160E-03
7  6.0000000000000E-02  1.0335093353866E-01  1.0459001919185E-02
8  7.0000000000000E-02  1.4032517419784E-01  1.2991193931984E-02
9  8.0000000000000E-02  1.8272436531531E-01  1.5177176816754E-02
10  9.0000000000000E-02  2.3040606093667E-01  1.6774850817490E-02
11  1.0000000000000E-01  2.8319127310755E-01  1.7554242458820E-02
12  1.1000000000000E-01  3.4085967237905E-01  1.7310508131245E-02
13  1.2000000000000E-01  4.0314516197266E-01  1.5876539817904E-02
14  1.3000000000000E-01  4.6973205860359E-01  1.3134689534318E-02
15  1.4000000000000E-01  5.4025210045752E-01  9.0271520585379E-03
16  1.5000000000000E-01  6.1428248241767E-01  3.5645843044180E-03
17  1.6000000000000E-01  6.9134509091856E-01 -3.1674068961450E-03
18  1.7000000000000E-01  7.7090707657216E-01 -1.1004210397631E-02
19  1.8000000000000E-01  8.5238286300203E-01 -1.9700814105132E-02
20  1.9000000000000E-01  9.3513764634649E-01 -2.8933204478712E-02
21  2.0000000000000E-01  1.0184923930204E+00 -3.8302608704552E-02
22  2.1000000000000E-01  1.1017302950301E+00 -4.7342531271151E-02
23  2.2000000000000E-01  1.1841045939579E+00 -5.5528442015832E-02
24  2.3000000000000E-01  1.2648476382198E+00 -6.2289881229292E-02
25  2.4000000000000E-01  1.3431809948845E+00 -6.7024662137174E-02
26  2.5000000000000E-01  1.4183263986464E+00 -6.9114774868398E-02
27  2.6000000000000E-01  1.4895172877996E+00 -6.7943531464945E-02
28  2.7000000000000E-01  1.5560106513949E+00 -6.2913440843136E-02
29  2.8000000000000E-01  1.6170988941108E+00 -5.3464267720573E-02
30  2.9000000000000E-01  1.6721214164356E+00 -3.9090711736659E-02
31  3.0000000000000E-01  1.7204756079490E+00 -1.9359143147588E-02
32  3.1000000000000E-01  1.7616269609780E+00  6.0771501620565E-03
33  3.2000000000000E-01  1.7951180305064E+00  3.7464713352694E-02
34  3.3000000000000E-01  1.8205759935293E+00  7.4939128726511E-02
35  3.4000000000000E-01  1.8377185963250E+00  1.1851706016450E-01
36  3.5000000000000E-01  1.8463583203924E+00  1.6809144241044E-01
37  3.6000000000000E-01  1.8464046458536E+00  2.2343002614236E-01
38  3.7000000000000E-01  1.8378643435306E+00  2.8417738788317E-01
39  3.8000000000000E-01  1.8208397820895E+00  3.4986040673125E-01
40  3.9000000000000E-01  1.7955252929260E+00  4.1989710099968E-01
41  4.0000000000000E-01  1.7622016910863E+00  4.9360861061023E-01
42  4.1000000000000E-01  1.7212291037253E+00  5.7023400897124E-01
43  4.2000000000000E-01  1.6730383067091E+00  6.4894753444484E-01
44  4.3000000000000E-01  1.6181208133558E+00  7.2887774952809E-01
45  4.4000000000000E-01  1.5570179955654E+00  8.0912806836068E-01
46  4.5000000000000E-01  1.4903095454643E+00  8.8879804253882E-01
47  4.6000000000000E-01  1.4186016042202E+00  9.6700476336213E-01
48  4.7000000000000E-01  1.3425148931686E+00  1.0429037268983E+00
49  4.8000000000000E-01  1.2626731804495E+00  1.1157085173208E+00
50  4.9000000000000E-01  1.1796924039369E+00  1.1847086938975E+00
51  5.0000000000000E-01  1.0941707486349E+00  1.2492853171527E+00
52  5.1000000000000E-01  1.0066799445291E+00  1.3089236187850E+00
53  5.2000000000000E-01  9.1775801006386E-01  1.3632224059748E+00
54  5.3000000000000E-01  8.2790361818428E-01  1.4118998912269E+00
55  5.4000000000000E-01  7.3757220772851E-01  1.4547957508479E+00
56  5.5000000000000E-01  6.4717390457857E-01  1.4918693350864E+00
57  5.6000000000000E-01  5.5707325623719E-01  1.5231940771122E+00
58  5.7000000000000E-01  4.6759072235563E-01  1.5489482723927E+00
59  5.8000000000000E-01  3.7900580419717E-01  1.5694025206045E+00
60  5.9000000000000E-01  2.9156164005975E-01  1.5849042350097E+00
61  6.0000000000000E-01  2.0547084318493E-01  1.5958597254275E+00
62  6.1000000000000E-01  1.2092231538192E-01  1.6027144470661E+00
63  6.2000000000000E-01  3.8088735010693E-02  1.6059320755069E+00
64  6.3000000000000E-01 -4.2865606651511E-02  1.6059731155511E+00
65  6.4000000000000E-01 -1.2177696035600E-01  1.6032737765895E+00
66  6.5000000000000E-01 -1.9847460706923E-01  1.5982258484866E+00
67  6.6000000000000E-01 -2.7277401186193E-01  1.5911582892840E+00
68  6.7000000000000E-01 -3.4447095497131E-01  1.5823211897114E+00
69  6.8000000000000E-01 -4.1333691955052E-01  1.5718727107197E+00
70  6.9000000000000E-01 -4.7911597363631E-01  1.5598695009425E+00
71  7.0000000000000E-01 -5.4152333313409E-01  1.5462609937741E+00
72  7.1000000000000E-01 -6.0024573473640E-01  1.5308878618905E+00
73  7.2000000000000E-01 -6.5494368450261E-01  1.5134847742934E+00
74  7.3000000000000E-01 -7.0525558139893E-01  1.4936874615450E+00
75  7.4000000000000E-01 -7.5080364760382E-01  1.4710439532093E+00
76  7.5000000000000E-01 -7.9120153109294E-01  1.4450297122516E+00
77  7.6000000000000E-01 -8.2606338315967E-01  1.4150662588114E+00
78  7.7000000000000E-01 -8.5501415625620E-01  1.3805427547606E+00
79  7.8000000000000E-01 -8.7770081785133E-01  1.3408399148481E+00
80  7.9000000000000E-01 -8.9380413564560E-01  1.2953555236148E+00
81  8.0000000000000E-01 -9.0305065993041E-01  1.2435307726406E+00
82  8.1000000000000E-01 -9.0522451123588E-01  1.1848765923570E+00
83  8.2000000000000E-01 -9.0017857640954E-01  1.1189991381443E+00
84  8.3000000000000E-01 -8.8784472420264E-01  1.0456236023841E+00
85  8.4000000000000E-01 -8.6824267217825E-01  9.6461556233773E-01
86  8.5000000000000E-01 -8.4148716971726E-01  8.7599913705271E-01
87  8.6000000000000E-01 -8.0779320607921E-01  7.7997131297866E-01
88  8.7000000000000E-01 -7.6747900646548E-01  6.7691190480847E-01
89  8.8000000000000E-01 -7.2096664106099E-01  5.6738874170709E-01
90  8.9000000000000E-01 -6.6878014001050E-01  4.5215780537963E-01
91  9.0000000000000E-01 -6.1154107888044E-01  3.3215819067234E-01
92  9.1000000000000E-01 -5.4996167184493E-01  2.0850190652655E-01
93  9.2000000000000E-01 -4.8483548098591E-01  8.2458679823230E-02
94  9.3000000000000E-01 -4.1702591704499E-01 -4.4563938417677E-02
95  9.4000000000000E-01 -3.4745276709929E-01 -1.7104474115451E-01
96  9.5000000000000E-01 -2.7707703545525E-01 -2.9537677869428E-01
97  9.6000000000000E-01 -2.0688442325809E-01 -4.1589840532837E-01
98  9.7000000000000E-01 -1.3786779786141E-01 -5.3092679128799E-01
99  9.8000000000000E-01 -7.1009013157013E-02 -6.3879320664055E-01
100  9.9000000000000E-01 -7.2604354688644E-03 -7.3787939164548E-01
101  1.0000000000000E+00  5.2473494719015E-02 -8.2665437138645E-01
102  1.0100000000000E+00  1.0735437756141E-01 -9.0371115240615E-01
103  1.0200000000000E+00  1.5662741849639E-01 -9.6780285575433E-01
104  1.0300000000000E+00  1.9963829519095E-01 -1.0178779941056E+00
105  1.0400000000000E+00  2.3584927566832E-01 -1.0531147887384E+00
106  1.0500000000000E+00  2.6485464898750E-01 -1.0729546428211E+00
107  1.0600000000000E+00  2.8639565725768E-01 -1.0771351384252E+00
108  1.0700000000000E+00  3.0037525767998E-01 -1.0657232012017E+00
109  1.0800000000000E+00  3.0687319394525E-01 -1.0391493752402E+00
110  1.0900000000000E+00  3.0616202099182E-01 -9.9824447965918E-01
111  1.1000000000000E+00  2.9872475782354E-01 -9.4427993586142E-01
112  1.1100000000000E+00  2.8527356606991E-01 -8.7901003067992E-01
113  1.1200000000000E+00  2.6671087629261E-01 -8.0458048143129E-01
114  1.1300000000000E+00  2.4402695810908E-01 -7.2329393698895E-01
115  1.1400000000000E+00  2.1825933019773E-01 -6.3752377910042E-01
116  1.1500000000000E+00  1.9046793532119E-01 -5.4966547146599E-01
117  1.1600000000000E+00  1.6170943797112E-01 -4.6208613576004E-01
118  1.1700000000000E+00  1.3301134052604E-01 -3.7707373657729E-01
119  1.1800000000000E+00  1.0534649126299E-01 -2.9678701007039E-01
120  1.1900000000000E+00  7.9603868577381E-02 -2.2319911516075E-01