Pa    ONCVPSP-4.0.1  r_core=   1.25016   1.25016   1.45183   1.45183
91.0000     31.0000      220307    zatom,zion,pspd
8      11   3     4   600     0    pspcod,pspxc,lmax,lloc,mmax,r2well
5.99000000  5.00000000  0.00000000    rchrg fchrg qchrg
3     2     2     2     0    nproj
1     1           extension_switch
0                         3.8283867311261E+01  2.3049260106261E+00 -4.6642064491783E-01
1  0.0000000000000E+00 -9.5553063239606E-09  5.5125793374522E-08  5.8205054109806E-09
2  1.0000000000000E-02  1.3928287504990E-01 -8.0198935588416E-02  2.2931434581933E-02
3  2.0000000000000E-02  2.7784735185798E-01 -1.5929423517205E-01  4.5763220782275E-02
4  3.0000000000000E-02  4.1498054483464E-01 -2.3619946245906E-01  6.8394488098906E-02
5  4.0000000000000E-02  5.4998050791728E-01 -3.0986213754895E-01  9.0721985487881E-02
6  5.0000000000000E-02  6.8216149251618E-01 -3.7927962266189E-01  1.1263904882349E-01
7  6.0000000000000E-02  8.1085895853624E-01 -4.4351373870065E-01  1.3403475341214E-01
8  7.0000000000000E-02  9.3543426797266E-01 -5.0170375761636E-01  1.5479330628064E-01
9  8.0000000000000E-02  1.0552790001342E+00 -5.5307747067533E-01  1.7479372713881E-01
10  9.0000000000000E-02  1.1698188388090E+00 -5.9696009777880E-01  1.9390985982567E-01
11  1.0000000000000E-01  1.2785169942414E+00 -6.3278087561787E-01  2.1201074780855E-01
12  1.1000000000000E-01  1.3808771361627E+00 -6.6007724000607E-01  2.2896139805968E-01
13  1.2000000000000E-01  1.4764458278280E+00 -6.7849659740567E-01  2.4462394754854E-01
14  1.3000000000000E-01  1.5648144645332E+00 -6.8779575955070E-01  2.5885923584639E-01
15  1.4000000000000E-01  1.6456207329373E+00 -6.8783819028688E-01  2.7152877614195E-01
16  1.5000000000000E-01  1.7185496191984E+00 -6.7858928255619E-01  2.8249710553148E-01
17  1.6000000000000E-01  1.7833340040380E+00 -6.6010994332655E-01  2.9163448400292E-01
18  1.7000000000000E-01  1.8397548909815E+00 -6.3254881301969E-01  2.9881990031845E-01
19  1.8000000000000E-01  1.8876413199104E+00 -5.9613348181922E-01  3.0394433225949E-01
20  1.9000000000000E-01  1.9268700214694E+00 -5.5116108683971E-01  3.0691419867700E-01
21  2.0000000000000E-01  1.9573648687050E+00 -4.9798868071103E-01  3.0765493173051E-01
22  2.1000000000000E-01  1.9790961805425E+00 -4.3702375343194E-01  3.0611458983891E-01
23  2.2000000000000E-01  1.9920799274293E+00 -3.6871526572009E-01  3.0226742542442E-01
24  2.3000000000000E-01  1.9963768828778E+00 -2.9354551441653E-01  2.9611731671548E-01
25  2.4000000000000E-01  1.9920917560021E+00 -2.1202310022807E-01  2.8770096986495E-01
26  2.5000000000000E-01  1.9793723298404E+00 -1.2467720711456E-01  2.7709079659042E-01
27  2.6000000000000E-01  1.9584086187232E+00 -3.2053333301850E-02  2.6439737357372E-01
28  2.7000000000000E-01  1.9294320456852E+00  6.5289461102313E-02  2.4977139304945E-01
29  2.8000000000000E-01  1.8927146284639E+00  1.6677980268820E-01  2.3340501940601E-01
30  2.9000000000000E-01  1.8485681505373E+00  2.7183383977239E-01  2.1553257421378E-01
31  3.0000000000000E-01  1.7973432824765E+00  3.7985382820293E-01  1.9643048182741E-01
32  3.1000000000000E-01  1.7394286091611E+00  4.9022569994835E-01  1.7641641948152E-01
33  3.2000000000000E-01  1.6752495106170E+00  6.0231590495297E-01  1.5584762945511E-01
34  3.3000000000000E-01  1.6052668387982E+00  7.1546786352594E-01  1.3511836621604E-01
35  3.4000000000000E-01  1.5299753299103E+00  8.2899839951752E-01  1.1465646822133E-01
36  3.5000000000000E-01  1.4499016920907E+00  9.4219454213391E-01  9.4919061943205E-02
37  3.6000000000000E-01  1.3656023115725E+00  1.0543110853810E+00  7.6387424375745E-02
38  3.7000000000000E-01  1.2776605268851E+00  1.1645692783811E+00  5.9561049381961E-02
39  3.8000000000000E-01  1.1866834300811E+00  1.2721569873455E+00  4.4950982361716E-02
40  3.9000000000000E-01  1.0932981662260E+00  1.3762306216546E+00  3.3072506437023E-02
41  4.0000000000000E-01  9.9814771708934E-01  1.4759190537277E+00  2.4437281230828E-02
42  4.1000000000000E-01  9.0188617171847E-01  1.5703296871817E+00  1.9545051922547E-02
43  4.2000000000000E-01  8.0517350480764E-01  1.6585567427498E+00  1.8875061174984E-02
44  4.3000000000000E-01  7.0866990289382E-01  1.7396917395053E+00  2.2877309336374E-02
45  4.4000000000000E-01  6.1302969775247E-01  1.8128360534465E+00  3.1963818652513E-02
46  4.5000000000000E-01  5.1889498522274E-01  1.8771153399747E+00  4.6500064743510E-02
47  4.6000000000000E-01  4.2688902535527E-01  1.9316955148721E+00  6.6796743021903E-02
48  4.7000000000000E-01  3.3760953554836E-01  1.9757999036527E+00  9.3102038829002E-02
49  4.8000000000000E-01  2.5162200156282E-01  2.0087270950528E+00  1.2559456768876E-01
50  4.9000000000000E-01  1.6945314138957E-01  2.0298689740826E+00  1.6437714613493E-01
51  5.0000000000000E-01  9.1584663384941E-02  2.0387283662010E+00  2.0947154405722E-01
52  5.1000000000000E-01  1.8447462487994E-02  2.0349356989950E+00  2.6081435650895E-01
53  5.2000000000000E-01 -4.9583603576318E-02  2.0182640828321E+00  3.1825411658183E-01
54  5.3000000000000E-01 -1.1219422255892E-01  1.9886422282035E+00  3.8154975152389E-01
55  5.4000000000000E-01 -1.6913429564543E-01  1.9461646550455E+00  4.5037046207216E-01
56  5.5000000000000E-01 -2.2022065539145E-01  1.8910987076344E+00  5.2429708038519E-01
57  5.6000000000000E-01 -2.6533874290659E-01  1.8238879663261E+00  6.0282493544638E-01
58  5.7000000000000E-01 -3.0444317604840E-01  1.7451517424086E+00  6.8536822688299E-01
59  5.8000000000000E-01 -3.3755716578241E-01  1.6556804519053E+00  7.7126587936400E-01
60  5.9000000000000E-01 -3.6477076546371E-01  1.5564267849721E+00  8.5978882069261E-01
61  6.0000000000000E-01 -3.8623796681450E-01  1.4484927158140E+00  9.5014859800643E-01
62  6.1000000000000E-01 -4.0217268594240E-01  1.3331125296047E+00  1.0415072187531E+00
63  6.2000000000000E-01 -4.1284371197016E-01  1.2116321733746E+00  1.1329880769238E+00
64  6.3000000000000E-01 -4.1856871882029E-01  1.0854853628041E+00  1.2236878009805E+00
65  6.4000000000000E-01 -4.1970746651670E-01  9.5616699191460E-01  1.3126888385429E+00
66  6.5000000000000E-01 -4.1665434119876E-01  8.2520449371744E-01  1.3990725746922E+00
67  6.6000000000000E-01 -4.0983040211674E-01  6.9412788316796E-01  1.4819327661233E+00
68  6.7000000000000E-01 -3.9967511853409E-01  5.6443927606091E-01  1.5603890626766E+00
69  6.8000000000000E-01 -3.8663798917212E-01  4.3758271621919E-01  1.6336003812706E+00
70  6.9000000000000E-01 -3.7117024120294E-01  3.1491515656246E-01  1.7007778950997E+00
71  7.0000000000000E-01 -3.5371680461115E-01  1.9767942638696E-01  1.7611974032461E+00
72  7.1000000000000E-01 -3.3470875094263E-01  8.6979977196501E-02  1.8142108525487E+00
73  7.2000000000000E-01 -3.1455637316411E-01 -1.6237866611287E-02  1.8592567945757E+00
74  7.3000000000000E-01 -2.9364306586003E-01 -1.1120451646815E-01  1.8958695756531E+00
75  7.4000000000000E-01 -2.7232014274558E-01 -1.9733806480529E-01  1.9236870768308E+00
76  7.5000000000000E-01 -2.5090270208367E-01 -2.7425117558978E-01  1.9424568430589E+00
77  7.6000000000000E-01 -2.2966662079215E-01 -3.4175267641138E-01  1.9520404662940E+00
78  7.7000000000000E-01 -2.0884672565409E-01 -3.9984376670727E-01  1.9524161152775E+00
79  7.8000000000000E-01 -1.8863615602877E-01 -4.4870892156084E-01  1.9436791348412E+00
80  7.9000000000000E-01 -1.6918689777296E-01 -4.8870173692696E-01  1.9260406692706E+00
81  8.0000000000000E-01 -1.5061143372641E-01 -5.2032612507816E-01  1.8998242969729E+00
82  8.1000000000000E-01 -1.3298542307579E-01 -5.4421342361321E-01  1.8654606969571E+00
83  8.2000000000000E-01 -1.1635129115189E-01 -5.6109612271775E-01  1.8234804009389E+00
84  8.3000000000000E-01 -1.0072258361866E-01 -5.7177903913834E-01  1.7745047178101E+00
85  8.4000000000000E-01 -8.6088915390143E-02 -5.7710886752543E-01  1.7192349493714E+00
86  8.5000000000000E-01 -7.2421325659828E-02 -5.7794311700885E-01  1.6584400472924E+00
87  8.6000000000000E-01 -5.9677836726277E-02 -5.7511949027473E-01  1.5929428910004E+00
88  8.7000000000000E-01 -4.7809006299845E-02 -5.6942678187034E-01  1.5236053944317E+00
89  8.8000000000000E-01 -3.6763260999342E-02 -5.6157836047191E-01  1.4513126762292E+00
90  8.9000000000000E-01 -2.6491802989830E-02 -5.5218925555061E-01  1.3769565530292E+00
91  9.0000000000000E-01 -1.6952892249000E-02 -5.4175779199974E-01  1.3014186390346E+00
92  9.1000000000000E-01 -8.1153237660552E-03 -5.3065260700846E-01  1.2255533572698E+00
93  9.2000000000000E-01  3.9058033175612E-05 -5.1910574240966E-01  1.1501711889741E+00
94  9.3000000000000E-01  7.5139363185230E-03 -5.0721233365221E-01  1.0760225077963E+00
95  9.4000000000000E-01  1.4298284145589E-02 -4.9493721433934E-01  1.0037823651229E+00
96  9.5000000000000E-01  2.0367365210106E-02 -4.8212852367063E-01  9.3403661236042E-01
97  9.6000000000000E-01  2.5684980076505E-02 -4.6853814360482E-01  8.6726976566021E-01
98  9.7000000000000E-01  3.0206913094662E-02 -4.5384850301308E-01  8.0385503880401E-01
99  9.8000000000000E-01  3.3885477735959E-02 -4.3770496690855E-01  7.4404699108974E-01
100  9.9000000000000E-01  3.6674994614118E-02 -4.1975267827235E-01  6.8797725940588E-01
101  1.0000000000000E+00  3.8537966559692E-02 -3.9967633549081E-01  6.3565386751867E-01
102  1.0100000000000E+00  3.9451638083047E-02 -3.7724096603319E-01  5.8696463112311E-01
103  1.0200000000000E+00  3.9414541536078E-02 -3.5233129202327E-01  5.4168520453546E-01
104  1.0300000000000E+00  3.8452537873674E-02 -3.2498676818642E-01  4.9949234410988E-01
105  1.0400000000000E+00  3.6623754793621E-02 -2.9542880008881E-01  4.5998299442810E-01
106  1.0500000000000E+00  3.4021707440288E-02 -2.6407601114548E-01  4.2269983585339E-01
107  1.0600000000000E+00  3.0775754297323E-02 -2.3154270714297E-01  3.8716396595490E-01
108  1.0700000000000E+00  2.7047891496767E-02 -1.9861487704055E-01  3.5291542202794E-01
109  1.0800000000000E+00  2.3024719442800E-02 -1.6619715205098E-01  3.1956228703055E-01
110  1.0900000000000E+00  1.8903219830183E-02 -1.3522308269758E-01  2.8683917025214E-01
111  1.1000000000000E+00  1.4868835280919E-02 -1.0652039196858E-01  2.5467554582429E-01
112  1.1100000000000E+00  1.1064863070212E-02 -8.0626598387906E-02  2.2327074273306E-01
113  1.1200000000000E+00  7.5851137276946E-03 -5.7765723023689E-02  1.9302505659316E-01
114  1.1300000000000E+00  4.5052346103690E-03 -3.8073620259843E-02  1.6432209693220E-01
115  1.1400000000000E+00  1.8884932690386E-03 -2.1644346869248E-02  1.3748480244703E-01
116  1.1500000000000E+00 -2.1688896815086E-04 -8.5194127245183E-03  1.1277691860184E-01
117  1.1600000000000E+00 -1.7806079216332E-03  1.3244872351994E-03  9.0404459523496E-02
118  1.1700000000000E+00 -2.7932816316401E-03  7.9889068466684E-03  7.0517246692368E-02
119  1.1800000000000E+00 -3.2695965138418E-03  1.1668223287686E-02  5.3210288438742E-02
120  1.1900000000000E+00 -3.2592089759771E-03  1.2702138883810E-02  3.8512716625524E-02
121  1.2000000000000E+00 -2.9500041414848E-03  1.2078943419789E-02  2.6228675774125E-02
122  1.2100000000000E+00 -2.4137107109472E-03  1.0200714832298E-02  1.6346381062686E-02
123  1.2200000000000E+00 -1.7015112496825E-03  7.3421650711110E-03  8.8935194398683E-03
124  1.2300000000000E+00 -9.3210528098243E-04  4.0792947490867E-03  3.8021834141236E-03
125  1.2400000000000E+00 -2.8234435053567E-04  1.2477133699258E-03  9.0913623573649E-04
126  1.2500000000000E+00 -1.0876170288965E-06  4.8132884846832E-06  2.9604615023174E-06
127  1.2600000000000E+00 -2.3684619518452E-06  1.0529094755003E-05  6.3581341554871E-06
128  1.2700000000000E+00  3.7698870891421E-07 -1.6703117871785E-06 -1.1298278927768E-06
129  1.28 -0.  0. -0.
130  1.29  0.  0.  0.
131  1.30  0.  0.  0.
132  1.31  0.  0.  0.
133  1.32  0.  0.  0.
134  1.33  0.  0.  0.
135  1.34  0.  0.  0.
136  1.35  0.  0.  0.
137  1.36  0.  0.  0.
138  1.37  0.  0.  0.
139  1.38  0.  0.  0.
140  1.39  0.  0.  0.
141  1.40  0.  0.  0.
142  1.41  0.  0.  0.
143  1.42  0.  0.  0.
144  1.43  0.  0.  0.
145  1.44  0.  0.  0.
146  1.45  0.  0.  0.
147  1.46  0.  0.  0.
148  1.47  0.  0.  0.
149  1.48  0.  0.  0.
150  1.49  0.  0.  0.
151  1.50  0.  0.  0.
152  1.51  0.  0.  0.
153  1.52  0.  0.  0.
154  1.53  0.  0.  0.
155  1.54  0.  0.  0.
156  1.55  0.  0.  0.
157  1.56  0.  0.  0.
158  1.57  0.  0.  0.
159  1.58  0.  0.  0.
160  1.59  0.  0.  0.
161  1.60  0.  0.  0.
162  1.61  0.  0.  0.
163  1.62  0.  0.  0.
164  1.63  0.  0.  0.
165  1.64  0.  0.  0.
166  1.65  0.  0.  0.
167  1.66  0.  0.  0.
168  1.67  0.  0.  0.
169  1.68  0.  0.  0.
170  1.69  0.  0.  0.
171  1.70  0.  0.  0.
172  1.71  0.  0.  0.
173  1.72  0.  0.  0.
174  1.73  0.  0.  0.
175  1.74  0.  0.  0.
176  1.75  0.  0.  0.
177  1.76  0.  0.  0.
178  1.77  0.  0.  0.
179  1.78  0.  0.  0.
180  1.79  0.  0.  0.
181  1.80  0.  0.  0.
182  1.81  0.  0.  0.
183  1.82  0.  0.  0.
184  1.83  0.  0.  0.
185  1.84  0.  0.  0.
186  1.85  0.  0.  0.
187  1.86  0.  0.  0.
188  1.87  0.  0.  0.
189  1.88  0.  0.  0.
190  1.89  0.  0.  0.
191  1.90  0.  0.  0.
192  1.91  0.  0.  0.
193  1.92  0.  0.  0.
194  1.93  0.  0.  0.
195  1.94  0.  0.  0.
196  1.95  0.  0.  0.
197  1.96  0.  0.  0.
198  1.97  0.  0.  0.
199  1.98  0.  0.  0.
200  1.99  0.  0.  0.
201  2.00  0.  0.  0.
202  2.01  0.  0.  0.
203  2.02  0.  0.  0.
204  2.03  0.  0.  0.
205  2.04  0.  0.  0.
206  2.05  0.  0.  0.
207  2.06  0.  0.  0.
208  2.07  0.  0.  0.
209  2.08  0.  0.  0.
210  2.09  0.  0.  0.
211  2.10  0.  0.  0.
212  2.11  0.  0.  0.
213  2.12  0.  0.  0.
214  2.13  0.  0.  0.
215  2.14  0.  0.  0.
216  2.15  0.  0.  0.
217  2.16  0.  0.  0.
218  2.17  0.  0.  0.
219  2.18  0.  0.  0.
220  2.19  0.  0.  0.
221  2.20  0.  0.  0.
222  2.21  0.  0.  0.
223  2.22  0.  0.  0.
224  2.23  0.  0.  0.
225  2.24  0.  0.  0.
226  2.25  0.  0.  0.
227  2.26  0.  0.  0.
228  2.27  0.  0.  0.
229  2.28  0.  0.  0.
230  2.29  0.  0.  0.
231  2.30  0.  0.  0.
232  2.31  0.  0.  0.
233  2.32  0.  0.  0.
234  2.33  0.  0.  0.
235  2.34  0.  0.  0.
236  2.35  0.  0.  0.
237  2.36  0.  0.  0.
238  2.37  0.  0.  0.
239  2.38  0.  0.  0.
240  2.39  0.  0.  0.
241  2.40  0.  0.  0.
242  2.41  0.  0.  0.
243  2.42  0.  0.  0.
244  2.43  0.  0.  0.
245  2.44  0.  0.  0.
246  2.45  0.  0.  0.
247  2.46  0.  0.  0.
248  2.47  0.  0.  0.
249  2.48  0.  0.  0.
250  2.49  0.  0.  0.
251  2.50  0.  0.  0.
252  2.51  0.  0.  0.
253  2.52  0.  0.  0.
254  2.53  0.  0.  0.
255  2.54  0.  0.  0.
256  2.55  0.  0.  0.
257  2.56  0.  0.  0.
258  2.57  0.  0.  0.
259  2.58  0.  0.  0.
260  2.59  0.  0.  0.
261  2.60  0.  0.  0.
262  2.61  0.  0.  0.
263  2.62  0.  0.  0.
264  2.63  0.  0.  0.
265  2.64  0.  0.  0.
266  2.65  0.  0.  0.
267  2.66  0.  0.  0.
268  2.67  0.  0.  0.
269  2.68  0.  0.  0.
270  2.69  0.  0.  0.
271  2.70  0.  0.  0.
272  2.71  0.  0.  0.
273  2.72  0.  0.  0.
274  2.73  0.  0.  0.
275  2.74  0.  0.  0.
276  2.75  0.  0.  0.
277  2.76  0.  0.  0.
278  2.77  0.  0.  0.
279  2.78  0.  0.  0.
280  2.79  0.  0.  0.
281  2.80  0.  0.  0.
282  2.81  0.  0.  0.
283  2.82  0.  0.  0.
284  2.83  0.  0.  0.
285  2.84  0.  0.  0.
286  2.85  0.  0.  0.
287  2.86  0.  0.  0.
288  2.87  0.  0.  0.
289  2.88  0.  0.  0.
290  2.89  0.  0.  0.
291  2.90  0.  0.  0.
292  2.91  0.  0.  0.
293  2.92  0.  0.  0.
294  2.93  0.  0.  0.
295  2.94  0.  0.  0.
296  2.95  0.  0.  0.
297  2.96  0.  0.  0.
298  2.97  0.  0.  0.
299  2.98  0.  0.  0.
300  2.99  0.  0.  0.
301  3.00  0.  0.  0.
302  3.01  0.  0.  0.
303  3.02  0.  0.  0.
304  3.03  0.  0.  0.
305  3.04  0.  0.  0.
306  3.05  0.  0.  0.
307  3.06  0.  0.  0.
308  3.07  0.  0.  0.
309  3.08  0.  0.  0.
310  3.09  0.  0.  0.
311  3.10  0.  0.  0.
312  3.11  0.  0.  0.
313  3.12  0.  0.  0.
314  3.13  0.  0.  0.
315  3.14  0.  0.  0.
316  3.15  0.  0.  0.
317  3.16  0.  0.  0.
318  3.17  0.  0.  0.
319  3.18  0.  0.  0.
320  3.19  0.  0.  0.
321  3.20  0.  0.  0.
322  3.21  0.  0.  0.
323  3.22  0.  0.  0.
324  3.23  0.  0.  0.
325  3.24  0.  0.  0.
326  3.25  0.  0.  0.
327  3.26  0.  0.  0.
328  3.27  0.  0.  0.
329  3.28  0.  0.  0.
330  3.29  0.  0.  0.
331  3.30  0.  0.  0.
332  3.31  0.  0.  0.
333  3.32  0.  0.  0.
334  3.33  0.  0.  0.
335  3.34  0.  0.  0.
336  3.35  0.  0.  0.
337  3.36  0.  0.  0.
338  3.37  0.  0.  0.
339  3.38  0.  0.  0.
340  3.39  0.  0.  0.
341  3.40  0.  0.  0.
342  3.41  0.  0.  0.
343  3.42  0.  0.  0.
344  3.43  0.  0.  0.
345  3.44  0.  0.  0.
346  3.45  0.  0.  0.
347  3.46  0.  0.  0.
348  3.47  0.  0.  0.
349  3.48  0.  0.  0.
350  3.49  0.  0.  0.
351  3.50  0.  0.  0.
352  3.51  0.  0.  0.
353  3.52  0.  0.  0.
354  3.53  0.  0.  0.
355  3.54  0.  0.  0.
356  3.55  0.  0.  0.
357  3.56  0.  0.  0.
358  3.57  0.  0.  0.
359  3.58  0.  0.  0.
360  3.59  0.  0.  0.
361  3.60  0.  0.  0.
362  3.61  0.  0.  0.
363  3.62  0.  0.  0.
364  3.63  0.  0.  0.
365  3.64  0.  0.  0.
366  3.65  0.  0.  0.
367  3.66  0.  0.  0.
368  3.67  0.  0.  0.
369  3.68  0.  0.  0.
370  3.69  0.  0.  0.
371  3.70  0.  0.  0.
372  3.71  0.  0.  0.
373  3.72  0.  0.  0.
374  3.73  0.  0.  0.
375  3.74  0.  0.  0.
376  3.75  0.  0.  0.
377  3.76  0.  0.  0.
378  3.77  0.  0.  0.
379  3.78  0.  0.  0.
380  3.79  0.  0.  0.
381  3.80  0.  0.  0.
382  3.81  0.  0.  0.
383  3.82  0.  0.  0.
384  3.83  0.  0.  0.
385  3.84  0.  0.  0.
386  3.85  0.  0.  0.
387  3.86  0.  0.  0.
388  3.87  0.  0.  0.
389  3.88  0.  0.  0.
390  3.89  0.  0.  0.
391  3.90  0.  0.  0.
392  3.91  0.  0.  0.
393  3.92  0.  0.  0.
394  3.93  0.  0.  0.
395  3.94  0.  0.  0.
396  3.95  0.  0.  0.
397  3.96  0.  0.  0.
398  3.97  0.  0.  0.
399  3.98  0.  0.  0.
400  3.99  0.  0.  0.
401  4.00  0.  0.  0.
402  4.01  0.  0.  0.
403  4.02  0.  0.  0.
404  4.03  0.  0.  0.
405  4.04  0.  0.  0.
406  4.05  0.  0.  0.
407  4.06  0.  0.  0.
408  4.07  0.  0.  0.
409  4.08  0.  0.  0.
410  4.09  0.  0.  0.
411  4.10  0.  0.  0.
412  4.11  0.  0.  0.
413  4.12  0.  0.  0.
414  4.13  0.  0.  0.
415  4.14  0.  0.  0.
416  4.15  0.  0.  0.
417  4.16  0.  0.  0.
418  4.17  0.  0.  0.
419  4.18  0.  0.  0.
420  4.19  0.  0.  0.
421  4.20  0.  0.  0.
422  4.21  0.  0.  0.
423  4.22  0.  0.  0.
424  4.23  0.  0.  0.
425  4.24  0.  0.  0.
426  4.25  0.  0.  0.
427  4.26  0.  0.  0.
428  4.27  0.  0.  0.
429  4.28  0.  0.  0.
430  4.29  0.  0.  0.
431  4.30  0.  0.  0.
432  4.31  0.  0.  0.
433  4.32  0.  0.  0.
434  4.33  0.  0.  0.
435  4.34  0.  0.  0.
436  4.35  0.  0.  0.
437  4.36  0.  0.  0.
438  4.37  0.  0.  0.
439  4.38  0.  0.  0.
440  4.39  0.  0.  0.
441  4.40  0.  0.  0.
442  4.41  0.  0.  0.
443  4.42  0.  0.  0.
444  4.43  0.  0.  0.
445  4.44  0.  0.  0.
446  4.45  0.  0.  0.
447  4.46  0.  0.  0.
448  4.47  0.  0.  0.
449  4.48  0.  0.  0.
450  4.49  0.  0.  0.
451  4.50  0.  0.  0.
452  4.51  0.  0.  0.
453  4.52  0.  0.  0.
454  4.53  0.  0.  0.
455  4.54  0.  0.  0.
456  4.55  0.  0.  0.
457  4.56  0.  0.  0.
458  4.57  0.  0.  0.
459  4.58  0.  0.  0.
460  4.59  0.  0.  0.
461  4.60  0.  0.  0.
462  4.61  0.  0.  0.
463  4.62  0.  0.  0.
464  4.63  0.  0.  0.
465  4.64  0.  0.  0.
466  4.65  0.  0.  0.
467  4.66  0.  0.  0.
468  4.67  0.  0.  0.
469  4.68  0.  0.  0.
470  4.69  0.  0.  0.
471  4.70  0.  0.  0.
472  4.71  0.  0.  0.
473  4.72  0.  0.  0.
474  4.73  0.  0.  0.
475  4.74  0.  0.  0.
476  4.75  0.  0.  0.
477  4.76  0.  0.  0.
478  4.77  0.  0.  0.
479  4.78  0.  0.  0.
480  4.79  0.  0.  0.
481  4.80  0.  0.  0.
482  4.81  0.  0.  0.
483  4.82  0.  0.  0.
484  4.83  0.  0.  0.
485  4.84  0.  0.  0.
486  4.85  0.  0.  0.
487  4.86  0.  0.  0.
488  4.87  0.  0.  0.
489  4.88  0.  0.  0.
490  4.89  0.  0.  0.
491  4.90  0.  0.  0.
492  4.91  0.  0.  0.
493  4.92  0.  0.  0.
494  4.93  0.  0.  0.
495  4.94  0.  0.  0.
496  4.95  0.  0.  0.
497  4.96  0.  0.  0.
498  4.97  0.  0.  0.
499  4.98  0.  0.  0.
500  4.99  0.  0.  0.
501  5.00  0.  0.  0.
502  5.01  0.  0.  0.
503  5.02  0.  0.  0.
504  5.03  0.  0.  0.
505  5.04  0.  0.  0.
506  5.05  0.  0.  0.
507  5.06  0.  0.  0.
508  5.07  0.  0.  0.
509  5.08  0.  0.  0.
510  5.09  0.  0.  0.
511  5.10  0.  0.  0.
512  5.11  0.  0.  0.
513  5.12  0.  0.  0.
514  5.13  0.  0.  0.
515  5.14  0.  0.  0.
516  5.15  0.  0.  0.
517  5.16  0.  0.  0.
518  5.17  0.  0.  0.
519  5.18  0.  0.  0.
520  5.19  0.  0.  0.
521  5.20  0.  0.  0.
522  5.21  0.  0.  0.
523  5.22  0.  0.  0.
524  5.23  0.  0.  0.
525  5.24  0.  0.  0.
526  5.25  0.  0.  0.
527  5.26  0.  0.  0.
528  5.27  0.  0.  0.
529  5.28  0.  0.  0.
530  5.29  0.  0.  0.
531  5.30  0.  0.  0.
532  5.31  0.  0.  0.
533  5.32  0.  0.  0.
534  5.33  0.  0.  0.
535  5.34  0.  0.  0.
536  5.35  0.  0.  0.
537  5.36  0.  0.  0.
538  5.37  0.  0.  0.
539  5.38  0.  0.  0.
540  5.39  0.  0.  0.
541  5.40  0.  0.  0.
542  5.41  0.  0.  0.
543  5.42  0.  0.  0.
544  5.43  0.  0.  0.
545  5.44  0.  0.  0.
546  5.45  0.  0.  0.
547  5.46  0.  0.  0.
548  5.47  0.  0.  0.
549  5.48  0.  0.  0.
550  5.49  0.  0.  0.
551  5.50  0.  0.  0.
552  5.51  0.  0.  0.
553  5.52  0.  0.  0.
554  5.53  0.  0.  0.
555  5.54  0.  0.  0.
556  5.55  0.  0.  0.
557  5.56  0.  0.  0.
558  5.57  0.  0.  0.
559  5.58  0.  0.  0.
560  5.59  0.  0.  0.
561  5.60  0.  0.  0.
562  5.61  0.  0.  0.
563  5.62  0.  0.  0.
564  5.63  0.  0.  0.
565  5.64  0.  0.  0.
566  5.65  0.  0.  0.
567  5.66  0.  0.  0.
568  5.67  0.  0.  0.
569  5.68  0.  0.  0.
570  5.69  0.  0.  0.
571  5.70  0.  0.  0.
572  5.71  0.  0.  0.
573  5.72  0.  0.  0.
574  5.73  0.  0.  0.
575  5.74  0.  0.  0.
576  5.75  0.  0.  0.
577  5.76  0.  0.  0.
578  5.77  0.  0.  0.
579  5.78  0.  0.  0.
580  5.79  0.  0.  0.
581  5.80  0.  0.  0.
582  5.81  0.  0.  0.
583  5.82  0.  0.  0.
584  5.83  0.  0.  0.
585  5.84  0.  0.  0.
586  5.85  0.  0.  0.
587  5.86  0.  0.  0.
588  5.87  0.  0.  0.
589  5.88  0.  0.  0.
590  5.89  0.  0.  0.
591  5.90  0.  0.  0.
592  5.91  0.  0.  0.
593  5.92  0.  0.  0.
594  5.93  0.  0.  0.
595  5.94  0.  0.  0.
596  5.95  0.  0.  0.
597  5.96  0.  0.  0.
598  5.97  0.  0.  0.
599  5.98  0.  0.  0.
600  5.99  0.  0.  0.
1                         9.9553699258056E+00 -1.7704734468429E+00
1  0.0000000000000E+00  2.0706942827076E-09  5.6076032706187E-10
2  1.0000000000000E-02  3.0518626524703E-03 -4.3917090562293E-03
3  2.0000000000000E-02  1.2187163920450E-02 -1.7514143741391E-02
4  3.0000000000000E-02  2.7345182783452E-02 -3.9209630783605E-02
5  4.0000000000000E-02  4.8425179865482E-02 -6.9216730509901E-02
6  5.0000000000000E-02  7.5287086851588E-02 -1.0717226679255E-01
7  6.0000000000000E-02  1.0775246359090E-01 -1.5261418079266E-01
8  7.0000000000000E-02  1.4560571494689E-01 -2.0498521863881E-01
9  8.0000000000000E-02  1.8859555738492E-01 -2.6363746373946E-01
10  9.0000000000000E-02  2.3643672335726E-01 -3.2783772335678E-01
11  1.0000000000000E-01  2.8881188978196E-01 -3.9677377612744E-01
12  1.1000000000000E-01  3.4537381533259E-01 -4.6956148223624E-01
13  1.2000000000000E-01  4.0574766987818E-01 -5.4525275084154E-01
14  1.3000000000000E-01  4.6953353824623E-01 -6.2284435010920E-01
15  1.4000000000000E-01  5.3630907953211E-01 -7.0128753391336E-01
16  1.5000000000000E-01  6.0563232244714E-01 -7.7949844606881E-01
17  1.6000000000000E-01  6.7704457667961E-01 -8.5636924811978E-01
18  1.7000000000000E-01  7.5007343993020E-01 -9.3077990054410E-01
19  1.8000000000000E-01  8.2423588016156E-01 -1.0016105101367E+00
20  1.9000000000000E-01  8.9904137265559E-01 -1.0677541387635E+00
21  2.0000000000000E-01  9.7399507167978E-01 -1.1281299511287E+00
22  2.1000000000000E-01  1.0486009969052E+00 -1.1816965622130E+00
23  2.2000000000000E-01  1.1223652151686E+00 -1.2274654291682E+00
24  2.3000000000000E-01  1.1947989987048E+00 -1.2645141182606E+00
25  2.4000000000000E-01  1.2654219415715E+00 -1.2919992654776E+00
26  2.5000000000000E-01  1.3337650166188E+00 -1.3091690401733E+00
27  2.6000000000000E-01  1.3993735560035E+00 -1.3153749150888E+00
28  2.7000000000000E-01  1.4618101388951E+00 -1.3100825436515E+00
29  2.8000000000000E-01  1.5206573706437E+00 -1.2928815469684E+00
30  2.9000000000000E-01  1.5755205382817E+00 -1.2634940186135E+00
31  3.0000000000000E-01  1.6260301277889E+00 -1.2217815653179E+00
32  3.1000000000000E-01  1.6718441890767E+00 -1.1677507160411E+00
33  3.2000000000000E-01  1.7126505351345E+00 -1.1015565505467E+00
34  3.3000000000000E-01  1.7481687622391E+00 -1.0235044213512E+00
35  3.4000000000000E-01  1.7781520785742E+00 -9.3404966944424E-01
36  3.5000000000000E-01  1.8023889290484E+00 -8.3379526409334E-01
37  3.6000000000000E-01  1.8207044045678E+00 -7.2348732982587E-01
38  3.7000000000000E-01  1.8329614245233E+00 -6.0400855872665E-01
39  3.8000000000000E-01  1.8390616818328E+00 -4.7636954281893E-01
40  3.9000000000000E-01  1.8389463405467E+00 -3.4169809876077E-01
41  4.0000000000000E-01  1.8325964768236E+00 -2.0122669460147E-01
42  4.1000000000000E-01  1.8200332550188E+00 -5.6278125079662E-02
43  4.2000000000000E-01  1.8013178317473E+00  9.1750382916368E-02
44  4.3000000000000E-01  1.7765509820839E+00  2.4140442037964E-01
45  4.4000000000000E-01  1.7458724435800E+00  3.9119075782596E-01
46  4.5000000000000E-01  1.7094599755135E+00  5.3959654904677E-01
47  4.6000000000000E-01  1.6675281327445E+00  6.8510908642309E-01
48  4.7000000000000E-01  1.6203267557417E+00  8.2623580132874E-01
49  4.8000000000000E-01  1.5681391807411E+00  9.6152419280952E-01
50  4.9000000000000E-01  1.5112801766047E+00  1.0895813633021E+00
51  5.0000000000000E-01  1.4500936177199E+00  1.2090928418562E+00
52  5.1000000000000E-01  1.3849499052071E+00  1.3188403832142E+00
53  5.2000000000000E-01  1.3162431517257E+00  1.4177184451144E+00
54  5.3000000000000E-01  1.2443881482544E+00  1.5047490661117E+00
55  5.4000000000000E-01  1.1698171343171E+00  1.5790948916999E+00
56  5.5000000000000E-01  1.0929763961626E+00  1.6400701271091E+00
57  5.6000000000000E-01  1.0143227203446E+00  1.6871492302447E+00
58  5.7000000000000E-01  9.3431973289958E-01  1.7199731971375E+00
59  5.8000000000000E-01  8.5343415684740E-01  1.7383533342108E+00
60  5.9000000000000E-01  7.7213202295371E-01  1.7422724557890E+00
61  6.0000000000000E-01  6.9087487055540E-01  1.7318834906741E+00
62  6.1000000000000E-01  6.1011597668961E-01  1.7075055273899E+00
63  6.2000000000000E-01  5.3029665273940E-01  1.6696173728997E+00
64  6.3000000000000E-01  4.5184264826945E-01  1.6188487433483E+00
65  6.4000000000000E-01  3.7516070163875E-01  1.5559692467885E+00
66  6.5000000000000E-01  3.0063527631885E-01  1.4818753561267E+00
67  6.6000000000000E-01  2.2862552060292E-01  1.3975756049316E+00
68  6.7000000000000E-01  1.5946248655919E-01  1.3041742686680E+00
69  6.8000000000000E-01  9.3446641672523E-02  1.2028538188187E+00
70  6.9000000000000E-01  3.0845703651950E-02  1.0948564568404E+00
71  7.0000000000000E-01 -2.8107174606868E-02  9.8146504868376E-01
72  7.1000000000000E-01 -8.3214846881246E-02  8.6398378854266E-01
73  7.2000000000000E-01 -1.3431722366841E-01  7.4371892255827E-01
74  7.3000000000000E-01 -1.8129191652957E-01  6.2195985948769E-01
75  7.4000000000000E-01 -2.2405446787035E-01  4.9996098606192E-01
76  7.5000000000000E-01 -2.6255816253096E-01  3.7892449022059E-01
77  7.6000000000000E-01 -2.9679342291597E-01  2.5998447601883E-01
78  7.7000000000000E-01 -3.2678679478780E-01  1.4419263022551E-01
79  7.8000000000000E-01 -3.5259953619363E-01  3.2505672997864E-02
80  7.9000000000000E-01 -3.7432582721145E-01 -7.4225205923782E-02
81  8.0000000000000E-01 -3.9209062320824E-01 -1.7526275773472E-01
82  8.1000000000000E-01 -4.0604717903131E-01 -2.6998979989421E-01
83  8.2000000000000E-01 -4.1637427593987E-01 -3.5791296187840E-01
84  8.3000000000000E-01 -4.2327318707622E-01 -4.3866399567080E-01
85  8.4000000000000E-01 -4.2696442083527E-01 -5.1199863477932E-01
86  8.5000000000000E-01 -4.2768428459069E-01 -5.7779302549151E-01
87  8.6000000000000E-01 -4.2568131386520E-01 -6.3603779422752E-01
88  8.7000000000000E-01 -4.2121261419360E-01 -6.8682985510248E-01
89  8.8000000000000E-01 -4.1454016463998E-01 -7.3036210216218E-01
90  8.9000000000000E-01 -4.0592713322898E-01 -7.6691117132793E-01
91  9.0000000000000E-01 -3.9563425548277E-01 -7.9682349810858E-01
92  9.1000000000000E-01 -3.8391632788550E-01 -8.2049993897504E-01
93  9.2000000000000E-01 -3.7101886849839E-01 -8.3837926741043E-01
94  9.3000000000000E-01 -3.5717499721061E-01 -8.5092090062628E-01
95  9.4000000000000E-01 -3.4260258832897E-01 -8.5858726045111E-01
96  9.5000000000000E-01 -3.2750174848904E-01 -8.6182622271621E-01
97  9.6000000000000E-01 -3.1205267332124E-01 -8.6105416440917E-01
98  9.7000000000000E-01 -2.9641393704431E-01 -8.5664017785286E-01
99  9.8000000000000E-01 -2.8072127030092E-01 -8.4889208710360E-01
100  9.9000000000000E-01 -2.6508688321320E-01 -8.3804497463919E-01
101  1.0000000000000E+00 -2.4959939293698E-01 -8.2425300719169E-01
102  1.0100000000000E+00 -2.3432441804310E-01 -8.0758543925512E-01
103  1.0200000000000E+00 -2.1930590595729E-01 -7.8802777223105E-01
104  1.0300000000000E+00 -2.0456826455583E-01 -7.6548915748916E-01
105  1.0400000000000E+00 -1.9011937493052E-01 -7.3981725349437E-01
106  1.0500000000000E+00 -1.7595456938306E-01 -7.1082188135853E-01
107  1.0600000000000E+00 -1.6206166698983E-01 -6.7830897088335E-01
108  1.0700000000000E+00 -1.4842716862650E-01 -6.4212645041906E-01
109  1.0800000000000E+00 -1.3504372424137E-01 -6.0222390969111E-01
110  1.0900000000000E+00 -1.2191899962130E-01 -5.5872807559052E-01
111  1.1000000000000E+00 -1.0908603197827E-01 -5.1203587583816E-01
112  1.1100000000000E+00 -9.6614615907781E-02 -4.6292197680161E-01
113  1.1200000000000E+00 -8.4601072017460E-02 -4.1245320795342E-01
114  1.1300000000000E+00 -7.3136094328551E-02 -3.6169132664279E-01
115  1.1400000000000E+00 -6.2299290311759E-02 -3.1162550046938E-01
116  1.1500000000000E+00 -5.2160598272065E-02 -2.6316648145501E-01
117  1.1600000000000E+00 -4.2781644095027E-02 -2.1714111229178E-01
118  1.1700000000000E+00 -3.4217035173467E-02 -1.7428738264886E-01
119  1.1800000000000E+00 -2.6515555873495E-02 -1.3524980520072E-01
120  1.1900000000000E+00 -1.9720747231934E-02 -1.0056158877539E-01