Pa    ONCVPSP-4.0.1  r_core=   1.15662   1.15662   1.15662   1.10257
91.0000     31.0000      221107    zatom,zion,pspd
8      11   3     4   600     0    pspcod,pspxc,lmax,lloc,mmax,r2well
5.99000000  5.00000000  0.00000000    rchrg fchrg qchrg
3     2     2     2     0    nproj
1     1           extension_switch
0                         3.3309173478125E+01  3.5965817789824E+00 -2.1641018383549E-01
1  0.0000000000000E+00 -7.4392197846329E-08  2.3344265981384E-07  1.4669377206289E-06
2  1.0000000000000E-02  1.2935483809943E-01 -6.4326630367855E-02 -1.9607272512264E-01
3  2.0000000000000E-02  2.5790922594060E-01 -1.2724367485619E-01 -3.8490022252259E-01
4  3.0000000000000E-02  3.8487743863785E-01 -1.8738425663558E-01 -5.5951271713982E-01
5  4.0000000000000E-02  5.0950268226583E-01 -2.4346528608692E-01 -7.1348079224034E-01
6  5.0000000000000E-02  6.3107028047306E-01 -2.9432534177385E-01 -8.4115960579769E-01
7  6.0000000000000E-02  7.4891938330494E-01 -3.3895791456087E-01 -9.3790306919689E-01
8  7.0000000000000E-02  8.6245279796555E-01 -3.7653875887765E-01 -1.0002397924152E+00
9  8.0000000000000E-02  9.7114461564009E-01 -4.0644632857195E-01 -1.0260040667723E+00
10  9.0000000000000E-02  1.0745453957792E+00 -4.2827454878070E-01 -1.0144168812957E+00
11  1.0000000000000E-01  1.1722847659435E+00 -4.4183747894555E-01 -9.6611388547558E-01
12  1.1000000000000E-01  1.2640713975676E+00 -4.4716574348052E-01 -8.8311924598484E-01
13  1.2000000000000E-01  1.3496904217594E+00 -4.4449493294872E-01 -7.6876641974357E-01
14  1.3000000000000E-01  1.4289984503547E+00 -4.3424649697581E-01 -6.2756890070652E-01
15  1.4000000000000E-01  1.5019164618739E+00 -4.1700194789953E-01 -4.6504591488739E-01
16  1.5000000000000E-01  1.5684208959788E+00 -3.9347145948439E-01 -2.8750976369974E-01
17  1.6000000000000E-01  1.6285333701565E+00 -3.6445816737139E-01 -1.0182298356223E-01
18  1.7000000000000E-01  1.6823094858199E+00 -3.3081964838825E-01  8.4865356552848E-02
19  1.8000000000000E-01  1.7298272256513E+00 -2.9342816760088E-01  2.6539410243063E-01
20  1.9000000000000E-01  1.7711754584074E+00 -2.5313133049668E-01  4.3286468281618E-01
21  2.0000000000000E-01  1.8064430609135E+00 -2.1071476093747E-01  5.8090547188049E-01
22  2.1000000000000E-01  1.8357091398294E+00 -1.6686834404148E-01  7.0391572070886E-01
23  2.2000000000000E-01  1.8590347889769E+00 -1.2215743006006E-01  7.9727972231478E-01
24  2.3000000000000E-01  1.8764567534069E+00 -7.7000196155172E-02  8.5754302216355E-01
25  2.4000000000000E-01  1.8879832914667E+00 -3.1652115528342E-02  8.8254394706260E-01
26  2.5000000000000E-01  1.8935924340573E+00  1.3801802685760E-02  8.7149544303779E-01
27  2.6000000000000E-01  1.8932327396607E+00  5.9446652740119E-02  8.2501412128603E-01
28  2.7000000000000E-01  1.8868265385761E+00  1.0552912916682E-01  7.4509543676953E-01
29  2.8000000000000E-01  1.8742755542788E+00  1.5244119000903E-01  6.3503598856526E-01
30  2.9000000000000E-01  1.8554686881342E+00  2.0069651452361E-01  4.9930595514913E-01
31  3.0000000000000E-01  1.8302916599100E+00  2.5090067913423E-01  3.4337658360472E-01
32  3.1000000000000E-01  1.7986381144053E+00  3.0371623560523E-01  1.7350936616509E-01
33  3.2000000000000E-01  1.7604217373744E+00  3.5982408974167E-01 -3.4850052621281E-03
34  3.3000000000000E-01  1.7155888744890E+00  4.1988273883804E-01 -1.8050867137226E-01
35  3.4000000000000E-01  1.6641311174127E+00  4.8448702512307E-01 -3.5044960103188E-01
36  3.5000000000000E-01  1.6060973124122E+00  5.5412809651790E-01 -5.0645512421260E-01
37  3.6000000000000E-01  1.5416044597490E+00  6.2915623364873E-01 -6.4219557437410E-01
38  3.7000000000000E-01  1.4708470059826E+00  7.0974810430934E-01 -7.5210801014919E-01
39  3.8000000000000E-01  1.3941040850299E+00  7.9587984717287E-01 -8.3161076715069E-01
40  3.9000000000000E-01  1.3117443353583E+00  8.8730717160753E-01 -8.7728072390853E-01
41  4.0000000000000E-01  1.2242280073082E+00  9.8355339827901E-01 -8.8698660659185E-01
42  4.1000000000000E-01  1.1321061729308E+00  1.0839060660112E+00 -8.5997334879363E-01
43  4.2000000000000E-01  1.0360169570941E+00  1.1874224057697E+00 -7.9689439923572E-01
44  4.3000000000000E-01  9.3667881885129E-01  1.2929436452851E+00 -6.9979085877344E-01
45  4.4000000000000E-01  8.3488102190749E-01  1.3991177709010E+00 -5.7201835147484E-01
46  4.5000000000000E-01  7.3147153822734E-01  1.5044300498431E+00 -4.1812451469432E-01
47  4.6000000000000E-01  6.2734272530914E-01  1.6072403188698E+00 -2.4368185377101E-01
48  4.7000000000000E-01  5.2341520170094E-01  1.7058257857124E+00 -5.5082377182837E-02
49  4.8000000000000E-01  4.2062041369928E-01  1.7984278779252E+00  1.4069815583981E-01
50  4.9000000000000E-01  3.1988243624459E-01  1.8833015178675E+00  3.3635743419550E-01
51  5.0000000000000E-01  2.2209958090234E-01  1.9587651085028E+00  5.2453553838333E-01
52  5.1000000000000E-01  1.2812639240242E-01  2.0232494859697E+00  6.9808554107930E-01
53  5.2000000000000E-01  3.8756602231496E-02  2.0753441323949E+00  8.5033567944152E-01
54  5.3000000000000E-01 -4.5292426178022E-02  2.1138390444258E+00  9.7533340067972E-01
55  5.4000000000000E-01 -1.2339327963962E-01  2.1377608152220E+00  1.0680623362738E+00
56  5.5000000000000E-01 -1.9501969468820E-01  2.1464017035431E+00  1.1246243489812E+00
57  5.6000000000000E-01 -2.5975504973028E-01  2.1393407243780E+00  1.1423801754180E+00
58  5.7000000000000E-01 -3.1729792191542E-01  2.1164560908629E+00  1.1200437996540E+00
59  5.8000000000000E-01 -3.6746458478129E-01  2.0779286552598E+00  1.0577274752185E+00
60  5.9000000000000E-01 -4.1018843000926E-01  2.0242363249794E+00  9.5693619356798E-01
61  6.0000000000000E-01 -4.4551640300770E-01  1.9561397551005E+00  8.2051230231049E-01
62  6.1000000000000E-01 -4.7360264342154E-01  1.8746599289265E+00  6.5253283233140E-01
63  6.2000000000000E-01 -4.9469961417738E-01  1.7810485208376E+00  4.5816382779673E-01
64  6.3000000000000E-01 -5.0914708284134E-01  1.6767521802906E+00  2.4347752097854E-01
65  6.4000000000000E-01 -5.1735938394747E-01  1.5633720731515E+00  1.5239497131095E-02
66  6.5000000000000E-01 -5.1981143824959E-01  1.4426201594676E+00 -2.1932599420407E-01
67  6.6000000000000E-01 -5.1702403299508E-01  1.3162737704199E+00 -4.5278374132361E-01
68  6.7000000000000E-01 -5.0954887554234E-01  1.1861300690895E+00 -6.7773911130571E-01
69  6.8000000000000E-01 -4.9795392099373E-01  1.0539619399425E+00 -8.8708427752765E-01
70  6.9000000000000E-01 -4.8280944384176E-01  9.2147675315164E-01 -1.0742303541914E+00
71  7.0000000000000E-01 -4.6467527555035E-01  7.9027929702154E-01 -1.2333173606291E+00
72  7.1000000000000E-01 -4.4408956682354E-01  6.6183997196932E-01 -1.3593949368082E+00
73  7.2000000000000E-01 -4.2155935794328E-01  5.3746910168021E-01 -1.4485679816976E+00
74  7.3000000000000E-01 -3.9755315635661E-01  4.1829795162683E-01 -1.4981028336778E+00
75  7.4000000000000E-01 -3.7249563131318E-01  3.0526676344216E-01 -1.5064911961513E+00
76  7.5000000000000E-01 -3.4676444464945E-01  1.9911982763087E-01 -1.4734706659962E+00
77  7.6000000000000E-01 -3.2068914860013E-01  1.0040733865513E-01 -1.4000023804374E+00
78  7.7000000000000E-01 -2.9455199944608E-01  9.4935169390772E-03 -1.2882078932239E+00
79  7.8000000000000E-01 -2.6859046323227E-01 -7.3429747723783E-02 -1.1412688611399E+00
80  7.9000000000000E-01 -2.4300112957621E-01 -1.4832466850920E-01 -9.6329441112521E-01
81  8.0000000000000E-01 -2.1794470404560E-01 -2.1528583271248E-01 -7.5916211905683E-01
82  8.1000000000000E-01 -1.9355172034281E-01 -2.7451614978558E-01 -5.3433932664314E-01
83  8.2000000000000E-01 -1.6992860149709E-01 -3.2630169547721E-01 -2.9469202749085E-01
84  8.3000000000000E-01 -1.4716370456869E-01 -3.7098665798214E-01 -4.6288754584372E-02
85  8.4000000000000E-01 -1.2533300539061E-01 -4.0894952600959E-01  2.0479320070338E-01
86  8.5000000000000E-01 -1.0450511726809E-01 -4.4058154400788E-01  4.5265230062851E-01
87  8.6000000000000E-01 -8.4745388316760E-02 -4.6626830250909E-01  6.9173172528615E-01
88  8.7000000000000E-01 -6.6118883683402E-02 -4.8637513950292E-01  9.1696739965207E-01
89  8.8000000000000E-01 -4.8692128245369E-02 -5.0123681115078E-01  1.1239107704589E+00
90  8.9000000000000E-01 -3.2533559212213E-02 -5.1115165721165E-01  1.3088232325490E+00
91  9.0000000000000E-01 -1.7712712881610E-02 -5.1638024900115E-01  1.4687403981612E+00
92  9.1000000000000E-01 -4.2982421604690E-03 -5.1714827631154E-01  1.6015057206304E+00
93  9.2000000000000E-01  7.6450719666439E-03 -5.1365321481185E-01  1.7057742698237E+00
94  9.3000000000000E-01  1.8060094075087E-02 -5.0607412647886E-01  1.7809886568815E+00
95  9.4000000000000E-01  2.6901625714309E-02 -4.9458379069741E-01  1.8273301726115E+00
96  9.5000000000000E-01  3.4140914311392E-02 -4.7936224932881E-01  1.8456490963680E+00
97  9.6000000000000E-01  3.9770061143851E-02 -4.6061077984088E-01  1.8373788186912E+00
98  9.7000000000000E-01  4.3806007366413E-02 -4.3856528898662E-01  1.8044388798433E+00
99  9.8000000000000E-01  4.6293790005779E-02 -4.1350814576370E-01  1.7491322468708E+00
100  9.9000000000000E-01  4.7308787576163E-02 -3.8577754457156E-01  1.6740421344130E+00
101  1.0000000000000E+00  4.6957716126029E-02 -3.5577360362795E-01  1.5819334301345E+00
102  1.0100000000000E+00  4.5378189101046E-02 -3.2396055393538E-01  1.4756633355593E+00
103  1.0200000000000E+00  4.2736715826647E-02 -2.9086455276076E-01  1.3581052079734E+00
104  1.0300000000000E+00  3.9225080903019E-02 -2.5706685440656E-01  1.2320888244146E+00
105  1.0400000000000E+00  3.5055117040591E-02 -2.2319228002014E-01  1.1003594287428E+00
106  1.0500000000000E+00  3.0451953597604E-02 -1.8989313748180E-01  9.6555701286315E-01
107  1.0600000000000E+00  2.5645889217690E-02 -1.5782894265057E-01  8.3021636748724E-01
108  1.0700000000000E+00  2.0863096159339E-02 -1.2764247424439E-01  6.9678756549646E-01
109  1.0800000000000E+00  1.6315456198890E-02 -9.9932971900604E-02  5.6767540886887E-01
110  1.0900000000000E+00  1.2189496438676E-02 -7.5226334450583E-02  4.4529868431484E-01
111  1.1000000000000E+00  8.6316009499735E-03 -5.3934158183547E-02  3.3219170945893E-01
112  1.1100000000000E+00  5.6184680143426E-03 -3.5978646936326E-02  2.3203844815388E-01
113  1.1200000000000E+00  3.2096274627549E-03 -2.1524344094719E-02  1.4749659234559E-01
114  1.1300000000000E+00  1.5016717621594E-03 -1.0855043810029E-02  8.0279275023152E-02
115  1.1400000000000E+00  4.8723499543875E-04 -3.9680893480792E-03  3.2237867211941E-02
116  1.1500000000000E+00  5.8474629928713E-05 -5.8023260854708E-04  5.2869992840406E-03
117  1.1600000000000E+00 -2.1802517582805E-06  2.7405986319671E-05 -2.7482692334307E-04
118  1.1700000000000E+00  1.6411891116240E-07 -1.8639799117439E-06  1.8019131300210E-05
119  1.18 -0. -0. -0.
120  1.19  0.  0.  0.
121  1.20  0.  0.  0.
122  1.21  0.  0.  0.
123  1.22  0.  0.  0.
124  1.23  0.  0.  0.
125  1.24  0.  0.  0.
126  1.25  0.  0.  0.
127  1.26  0.  0.  0.
128  1.27  0.  0.  0.
129  1.28  0.  0.  0.
130  1.29  0.  0.  0.
131  1.30  0.  0.  0.
132  1.31  0.  0.  0.
133  1.32  0.  0.  0.
134  1.33  0.  0.  0.
135  1.34  0.  0.  0.
136  1.35  0.  0.  0.
137  1.36  0.  0.  0.
138  1.37  0.  0.  0.
139  1.38  0.  0.  0.
140  1.39  0.  0.  0.
141  1.40  0.  0.  0.
142  1.41  0.  0.  0.
143  1.42  0.  0.  0.
144  1.43  0.  0.  0.
145  1.44  0.  0.  0.
146  1.45  0.  0.  0.
147  1.46  0.  0.  0.
148  1.47  0.  0.  0.
149  1.48  0.  0.  0.
150  1.49  0.  0.  0.
151  1.50  0.  0.  0.
152  1.51  0.  0.  0.
153  1.52  0.  0.  0.
154  1.53  0.  0.  0.
155  1.54  0.  0.  0.
156  1.55  0.  0.  0.
157  1.56  0.  0.  0.
158  1.57  0.  0.  0.
159  1.58  0.  0.  0.
160  1.59  0.  0.  0.
161  1.60  0.  0.  0.
162  1.61  0.  0.  0.
163  1.62  0.  0.  0.
164  1.63  0.  0.  0.
165  1.64  0.  0.  0.
166  1.65  0.  0.  0.
167  1.66  0.  0.  0.
168  1.67  0.  0.  0.
169  1.68  0.  0.  0.
170  1.69  0.  0.  0.
171  1.70  0.  0.  0.
172  1.71  0.  0.  0.
173  1.72  0.  0.  0.
174  1.73  0.  0.  0.
175  1.74  0.  0.  0.
176  1.75  0.  0.  0.
177  1.76  0.  0.  0.
178  1.77  0.  0.  0.
179  1.78  0.  0.  0.
180  1.79  0.  0.  0.
181  1.80  0.  0.  0.
182  1.81  0.  0.  0.
183  1.82  0.  0.  0.
184  1.83  0.  0.  0.
185  1.84  0.  0.  0.
186  1.85  0.  0.  0.
187  1.86  0.  0.  0.
188  1.87  0.  0.  0.
189  1.88  0.  0.  0.
190  1.89  0.  0.  0.
191  1.90  0.  0.  0.
192  1.91  0.  0.  0.
193  1.92  0.  0.  0.
194  1.93  0.  0.  0.
195  1.94  0.  0.  0.
196  1.95  0.  0.  0.
197  1.96  0.  0.  0.
198  1.97  0.  0.  0.
199  1.98  0.  0.  0.
200  1.99  0.  0.  0.
201  2.00  0.  0.  0.
202  2.01  0.  0.  0.
203  2.02  0.  0.  0.
204  2.03  0.  0.  0.
205  2.04  0.  0.  0.
206  2.05  0.  0.  0.
207  2.06  0.  0.  0.
208  2.07  0.  0.  0.
209  2.08  0.  0.  0.
210  2.09  0.  0.  0.
211  2.10  0.  0.  0.
212  2.11  0.  0.  0.
213  2.12  0.  0.  0.
214  2.13  0.  0.  0.
215  2.14  0.  0.  0.
216  2.15  0.  0.  0.
217  2.16  0.  0.  0.
218  2.17  0.  0.  0.
219  2.18  0.  0.  0.
220  2.19  0.  0.  0.
221  2.20  0.  0.  0.
222  2.21  0.  0.  0.
223  2.22  0.  0.  0.
224  2.23  0.  0.  0.
225  2.24  0.  0.  0.
226  2.25  0.  0.  0.
227  2.26  0.  0.  0.
228  2.27  0.  0.  0.
229  2.28  0.  0.  0.
230  2.29  0.  0.  0.
231  2.30  0.  0.  0.
232  2.31  0.  0.  0.
233  2.32  0.  0.  0.
234  2.33  0.  0.  0.
235  2.34  0.  0.  0.
236  2.35  0.  0.  0.
237  2.36  0.  0.  0.
238  2.37  0.  0.  0.
239  2.38  0.  0.  0.
240  2.39  0.  0.  0.
241  2.40  0.  0.  0.
242  2.41  0.  0.  0.
243  2.42  0.  0.  0.
244  2.43  0.  0.  0.
245  2.44  0.  0.  0.
246  2.45  0.  0.  0.
247  2.46  0.  0.  0.
248  2.47  0.  0.  0.
249  2.48  0.  0.  0.
250  2.49  0.  0.  0.
251  2.50  0.  0.  0.
252  2.51  0.  0.  0.
253  2.52  0.  0.  0.
254  2.53  0.  0.  0.
255  2.54  0.  0.  0.
256  2.55  0.  0.  0.
257  2.56  0.  0.  0.
258  2.57  0.  0.  0.
259  2.58  0.  0.  0.
260  2.59  0.  0.  0.
261  2.60  0.  0.  0.
262  2.61  0.  0.  0.
263  2.62  0.  0.  0.
264  2.63  0.  0.  0.
265  2.64  0.  0.  0.
266  2.65  0.  0.  0.
267  2.66  0.  0.  0.
268  2.67  0.  0.  0.
269  2.68  0.  0.  0.
270  2.69  0.  0.  0.
271  2.70  0.  0.  0.
272  2.71  0.  0.  0.
273  2.72  0.  0.  0.
274  2.73  0.  0.  0.
275  2.74  0.  0.  0.
276  2.75  0.  0.  0.
277  2.76  0.  0.  0.
278  2.77  0.  0.  0.
279  2.78  0.  0.  0.
280  2.79  0.  0.  0.
281  2.80  0.  0.  0.
282  2.81  0.  0.  0.
283  2.82  0.  0.  0.
284  2.83  0.  0.  0.
285  2.84  0.  0.  0.
286  2.85  0.  0.  0.
287  2.86  0.  0.  0.
288  2.87  0.  0.  0.
289  2.88  0.  0.  0.
290  2.89  0.  0.  0.
291  2.90  0.  0.  0.
292  2.91  0.  0.  0.
293  2.92  0.  0.  0.
294  2.93  0.  0.  0.
295  2.94  0.  0.  0.
296  2.95  0.  0.  0.
297  2.96  0.  0.  0.
298  2.97  0.  0.  0.
299  2.98  0.  0.  0.
300  2.99  0.  0.  0.
301  3.00  0.  0.  0.
302  3.01  0.  0.  0.
303  3.02  0.  0.  0.
304  3.03  0.  0.  0.
305  3.04  0.  0.  0.
306  3.05  0.  0.  0.
307  3.06  0.  0.  0.
308  3.07  0.  0.  0.
309  3.08  0.  0.  0.
310  3.09  0.  0.  0.
311  3.10  0.  0.  0.
312  3.11  0.  0.  0.
313  3.12  0.  0.  0.
314  3.13  0.  0.  0.
315  3.14  0.  0.  0.
316  3.15  0.  0.  0.
317  3.16  0.  0.  0.
318  3.17  0.  0.  0.
319  3.18  0.  0.  0.
320  3.19  0.  0.  0.
321  3.20  0.  0.  0.
322  3.21  0.  0.  0.
323  3.22  0.  0.  0.
324  3.23  0.  0.  0.
325  3.24  0.  0.  0.
326  3.25  0.  0.  0.
327  3.26  0.  0.  0.
328  3.27  0.  0.  0.
329  3.28  0.  0.  0.
330  3.29  0.  0.  0.
331  3.30  0.  0.  0.
332  3.31  0.  0.  0.
333  3.32  0.  0.  0.
334  3.33  0.  0.  0.
335  3.34  0.  0.  0.
336  3.35  0.  0.  0.
337  3.36  0.  0.  0.
338  3.37  0.  0.  0.
339  3.38  0.  0.  0.
340  3.39  0.  0.  0.
341  3.40  0.  0.  0.
342  3.41  0.  0.  0.
343  3.42  0.  0.  0.
344  3.43  0.  0.  0.
345  3.44  0.  0.  0.
346  3.45  0.  0.  0.
347  3.46  0.  0.  0.
348  3.47  0.  0.  0.
349  3.48  0.  0.  0.
350  3.49  0.  0.  0.
351  3.50  0.  0.  0.
352  3.51  0.  0.  0.
353  3.52  0.  0.  0.
354  3.53  0.  0.  0.
355  3.54  0.  0.  0.
356  3.55  0.  0.  0.
357  3.56  0.  0.  0.
358  3.57  0.  0.  0.
359  3.58  0.  0.  0.
360  3.59  0.  0.  0.
361  3.60  0.  0.  0.
362  3.61  0.  0.  0.
363  3.62  0.  0.  0.
364  3.63  0.  0.  0.
365  3.64  0.  0.  0.
366  3.65  0.  0.  0.
367  3.66  0.  0.  0.
368  3.67  0.  0.  0.
369  3.68  0.  0.  0.
370  3.69  0.  0.  0.
371  3.70  0.  0.  0.
372  3.71  0.  0.  0.
373  3.72  0.  0.  0.
374  3.73  0.  0.  0.
375  3.74  0.  0.  0.
376  3.75  0.  0.  0.
377  3.76  0.  0.  0.
378  3.77  0.  0.  0.
379  3.78  0.  0.  0.
380  3.79  0.  0.  0.
381  3.80  0.  0.  0.
382  3.81  0.  0.  0.
383  3.82  0.  0.  0.
384  3.83  0.  0.  0.
385  3.84  0.  0.  0.
386  3.85  0.  0.  0.
387  3.86  0.  0.  0.
388  3.87  0.  0.  0.
389  3.88  0.  0.  0.
390  3.89  0.  0.  0.
391  3.90  0.  0.  0.
392  3.91  0.  0.  0.
393  3.92  0.  0.  0.
394  3.93  0.  0.  0.
395  3.94  0.  0.  0.
396  3.95  0.  0.  0.
397  3.96  0.  0.  0.
398  3.97  0.  0.  0.
399  3.98  0.  0.  0.
400  3.99  0.  0.  0.
401  4.00  0.  0.  0.
402  4.01  0.  0.  0.
403  4.02  0.  0.  0.
404  4.03  0.  0.  0.
405  4.04  0.  0.  0.
406  4.05  0.  0.  0.
407  4.06  0.  0.  0.
408  4.07  0.  0.  0.
409  4.08  0.  0.  0.
410  4.09  0.  0.  0.
411  4.10  0.  0.  0.
412  4.11  0.  0.  0.
413  4.12  0.  0.  0.
414  4.13  0.  0.  0.
415  4.14  0.  0.  0.
416  4.15  0.  0.  0.
417  4.16  0.  0.  0.
418  4.17  0.  0.  0.
419  4.18  0.  0.  0.
420  4.19  0.  0.  0.
421  4.20  0.  0.  0.
422  4.21  0.  0.  0.
423  4.22  0.  0.  0.
424  4.23  0.  0.  0.
425  4.24  0.  0.  0.
426  4.25  0.  0.  0.
427  4.26  0.  0.  0.
428  4.27  0.  0.  0.
429  4.28  0.  0.  0.
430  4.29  0.  0.  0.
431  4.30  0.  0.  0.
432  4.31  0.  0.  0.
433  4.32  0.  0.  0.
434  4.33  0.  0.  0.
435  4.34  0.  0.  0.
436  4.35  0.  0.  0.
437  4.36  0.  0.  0.
438  4.37  0.  0.  0.
439  4.38  0.  0.  0.
440  4.39  0.  0.  0.
441  4.40  0.  0.  0.
442  4.41  0.  0.  0.
443  4.42  0.  0.  0.
444  4.43  0.  0.  0.
445  4.44  0.  0.  0.
446  4.45  0.  0.  0.
447  4.46  0.  0.  0.
448  4.47  0.  0.  0.
449  4.48  0.  0.  0.
450  4.49  0.  0.  0.
451  4.50  0.  0.  0.
452  4.51  0.  0.  0.
453  4.52  0.  0.  0.
454  4.53  0.  0.  0.
455  4.54  0.  0.  0.
456  4.55  0.  0.  0.
457  4.56  0.  0.  0.
458  4.57  0.  0.  0.
459  4.58  0.  0.  0.
460  4.59  0.  0.  0.
461  4.60  0.  0.  0.
462  4.61  0.  0.  0.
463  4.62  0.  0.  0.
464  4.63  0.  0.  0.
465  4.64  0.  0.  0.
466  4.65  0.  0.  0.
467  4.66  0.  0.  0.
468  4.67  0.  0.  0.
469  4.68  0.  0.  0.
470  4.69  0.  0.  0.
471  4.70  0.  0.  0.
472  4.71  0.  0.  0.
473  4.72  0.  0.  0.
474  4.73  0.  0.  0.
475  4.74  0.  0.  0.
476  4.75  0.  0.  0.
477  4.76  0.  0.  0.
478  4.77  0.  0.  0.
479  4.78  0.  0.  0.
480  4.79  0.  0.  0.
481  4.80  0.  0.  0.
482  4.81  0.  0.  0.
483  4.82  0.  0.  0.
484  4.83  0.  0.  0.
485  4.84  0.  0.  0.
486  4.85  0.  0.  0.
487  4.86  0.  0.  0.
488  4.87  0.  0.  0.
489  4.88  0.  0.  0.
490  4.89  0.  0.  0.
491  4.90  0.  0.  0.
492  4.91  0.  0.  0.
493  4.92  0.  0.  0.
494  4.93  0.  0.  0.
495  4.94  0.  0.  0.
496  4.95  0.  0.  0.
497  4.96  0.  0.  0.
498  4.97  0.  0.  0.
499  4.98  0.  0.  0.
500  4.99  0.  0.  0.
501  5.00  0.  0.  0.
502  5.01  0.  0.  0.
503  5.02  0.  0.  0.
504  5.03  0.  0.  0.
505  5.04  0.  0.  0.
506  5.05  0.  0.  0.
507  5.06  0.  0.  0.
508  5.07  0.  0.  0.
509  5.08  0.  0.  0.
510  5.09  0.  0.  0.
511  5.10  0.  0.  0.
512  5.11  0.  0.  0.
513  5.12  0.  0.  0.
514  5.13  0.  0.  0.
515  5.14  0.  0.  0.
516  5.15  0.  0.  0.
517  5.16  0.  0.  0.
518  5.17  0.  0.  0.
519  5.18  0.  0.  0.
520  5.19  0.  0.  0.
521  5.20  0.  0.  0.
522  5.21  0.  0.  0.
523  5.22  0.  0.  0.
524  5.23  0.  0.  0.
525  5.24  0.  0.  0.
526  5.25  0.  0.  0.
527  5.26  0.  0.  0.
528  5.27  0.  0.  0.
529  5.28  0.  0.  0.
530  5.29  0.  0.  0.
531  5.30  0.  0.  0.
532  5.31  0.  0.  0.
533  5.32  0.  0.  0.
534  5.33  0.  0.  0.
535  5.34  0.  0.  0.
536  5.35  0.  0.  0.
537  5.36  0.  0.  0.
538  5.37  0.  0.  0.
539  5.38  0.  0.  0.
540  5.39  0.  0.  0.
541  5.40  0.  0.  0.
542  5.41  0.  0.  0.
543  5.42  0.  0.  0.
544  5.43  0.  0.  0.
545  5.44  0.  0.  0.
546  5.45  0.  0.  0.
547  5.46  0.  0.  0.
548  5.47  0.  0.  0.
549  5.48  0.  0.  0.
550  5.49  0.  0.  0.
551  5.50  0.  0.  0.
552  5.51  0.  0.  0.
553  5.52  0.  0.  0.
554  5.53  0.  0.  0.
555  5.54  0.  0.  0.
556  5.55  0.  0.  0.
557  5.56  0.  0.  0.
558  5.57  0.  0.  0.
559  5.58  0.  0.  0.
560  5.59  0.  0.  0.
561  5.60  0.  0.  0.
562  5.61  0.  0.  0.
563  5.62  0.  0.  0.
564  5.63  0.  0.  0.
565  5.64  0.  0.  0.
566  5.65  0.  0.  0.
567  5.66  0.  0.  0.
568  5.67  0.  0.  0.
569  5.68  0.  0.  0.
570  5.69  0.  0.  0.
571  5.70  0.  0.  0.
572  5.71  0.  0.  0.
573  5.72  0.  0.  0.
574  5.73  0.  0.  0.
575  5.74  0.  0.  0.
576  5.75  0.  0.  0.
577  5.76  0.  0.  0.
578  5.77  0.  0.  0.
579  5.78  0.  0.  0.
580  5.79  0.  0.  0.
581  5.80  0.  0.  0.
582  5.81  0.  0.  0.
583  5.82  0.  0.  0.
584  5.83  0.  0.  0.
585  5.84  0.  0.  0.
586  5.85  0.  0.  0.
587  5.86  0.  0.  0.
588  5.87  0.  0.  0.
589  5.88  0.  0.  0.
590  5.89  0.  0.  0.
591  5.90  0.  0.  0.
592  5.91  0.  0.  0.
593  5.92  0.  0.  0.
594  5.93  0.  0.  0.
595  5.94  0.  0.  0.
596  5.95  0.  0.  0.
597  5.96  0.  0.  0.
598  5.97  0.  0.  0.
599  5.98  0.  0.  0.
600  5.99  0.  0.  0.
1                         1.6691179212923E+01  2.2379536669892E+00
1  0.0000000000000E+00 -2.0244506626632E-08  5.7659484270500E-08
2  1.0000000000000E-02  3.5093280483776E-03 -1.2071659317957E-03
3  2.0000000000000E-02  1.4018926958326E-02 -4.8304657580674E-03
4  3.0000000000000E-02  3.1473435440575E-02 -1.0874444707769E-02
5  4.0000000000000E-02  5.5779914128721E-02 -1.9343849928217E-02
6  5.0000000000000E-02  8.6806890697938E-02 -3.0239531088745E-02
7  6.0000000000000E-02  1.2438312277121E-01 -4.3552981309302E-02
8  7.0000000000000E-02  1.6829617341811E-01 -5.9259785124155E-02
9  8.0000000000000E-02  2.1829091429548E-01 -7.7312297850369E-02
10  9.0000000000000E-02  2.7406808694721E-01 -9.7631925444089E-02
11  1.0000000000000E-01  3.3528306278750E-01 -1.2010140384178E-01
12  1.1000000000000E-01  4.0154494636265E-01 -1.4455749060285E-01
13  1.2000000000000E-01  4.7241616436569E-01 -1.7078447870399E-01
14  1.3000000000000E-01  5.4741267454871E-01 -1.9850892253013E-01
15  1.4000000000000E-01  6.2600491435739E-01 -2.2739593004764E-01
16  1.5000000000000E-01  7.0761958925028E-01 -2.5704732404010E-01
17  1.6000000000000E-01  7.9164237592405E-01 -2.8700191092537E-01
18  1.7000000000000E-01  8.7742158690343E-01 -3.1673802036159E-01
19  1.8000000000000E-01  9.6427281118548E-01 -3.4567839533313E-01
20  1.9000000000000E-01  1.0514845119978E+00 -3.7319742376633E-01
21  2.0000000000000E-01  1.1383245284646E+00 -3.9863061226569E-01
22  2.1000000000000E-01  1.2240473943398E+00 -4.2128611369575E-01
23  2.2000000000000E-01  1.3079023552256E+00 -4.4045803645057E-01
24  2.3000000000000E-01  1.3891419370466E+00 -4.5544118759655E-01
25  2.4000000000000E-01  1.4670308941128E+00 -4.6554683761549E-01
26  2.5000000000000E-01  1.5408553458373E+00 -4.7011904380669E-01
27  2.6000000000000E-01  1.6099318978683E+00 -4.6855103463620E-01
28  2.7000000000000E-01  1.6736165366420E+00 -4.6030113999117E-01
29  2.8000000000000E-01  1.7313130864946E+00 -4.4490775332024E-01
30  2.9000000000000E-01  1.7824810256099E+00 -4.2200283126046E-01
31  3.0000000000000E-01  1.8266424710626E+00 -3.9132347412162E-01
32  3.1000000000000E-01  1.8633881636444E+00 -3.5272118539852E-01
33  3.2000000000000E-01  1.8923823093995E+00 -3.0616847854108E-01
34  3.3000000000000E-01  1.9133661659744E+00 -2.5176258217517E-01
35  3.4000000000000E-01  1.9261602969792E+00 -1.8972608797136E-01
36  3.5000000000000E-01  1.9306654553383E+00 -1.2040448513025E-01
37  3.6000000000000E-01  1.9268620957955E+00 -4.4260628431466E-02
38  3.7000000000000E-01  1.9148085559388E+00  3.8133710751690E-02
39  3.8000000000000E-01  1.8946379829552E+00  1.2610896288970E-01
40  3.9000000000000E-01  1.8665541184548E+00  2.1891121034427E-01
41  4.0000000000000E-01  1.8308260848759E+00  3.1571755223719E-01
42  4.1000000000000E-01  1.7877823430544E+00  4.1565290273716E-01
43  4.2000000000000E-01  1.7378040105884E+00  5.1780769360078E-01
44  4.3000000000000E-01  1.6813177439109E+00  6.2125592282543E-01
45  4.4000000000000E-01  1.6187883930185E+00  7.2507298232738E-01
46  4.5000000000000E-01  1.5507116363846E+00  8.2835270917120E-01
47  4.6000000000000E-01  1.4776067947533E+00  9.3022313680527E-01
48  4.7000000000000E-01  1.4000100066223E+00  1.0298604740047E+00
49  4.8000000000000E-01  1.3184679258684E+00  1.1265009080471E+00
50  4.9000000000000E-01  1.2335320740117E+00  1.2194499126322E+00
51  5.0000000000000E-01  1.1457539471235E+00  1.3080888371848E+00
52  5.1000000000000E-01  1.0556809416119E+00  1.3918786589321E+00
53  5.2000000000000E-01  9.6385312546449E-01  1.4703608886447E+00
54  5.3000000000000E-01  8.7080084345695E-01  1.5431557310397E+00
55  5.4000000000000E-01  7.7704310785931E-01  1.6099577073858E+00
56  5.5000000000000E-01  6.8308669177188E-01  1.6705290466852E+00
57  5.6000000000000E-01  5.8942581178363E-01  1.7246912390573E+00
58  5.7000000000000E-01  4.9654226143374E-01  1.7723152171032E+00
59  5.8000000000000E-01  4.0490583803378E-01  1.8133106851089E+00
60  5.9000000000000E-01  3.1497489360999E-01  1.8476151496055E+00
61  6.0000000000000E-01  2.2719683661761E-01  1.8751832164522E+00
62  6.1000000000000E-01  1.4200841493486E-01  1.8959767084558E+00
63  6.2000000000000E-01  5.9835622421441E-02  1.9099561236725E+00
64  6.3000000000000E-01 -1.8906909324763E-02  1.9170738988983E+00
65  6.4000000000000E-01 -9.3817146122083E-02  1.9172698672421E+00
66  6.5000000000000E-01 -1.6450759315803E-01  1.9104692056956E+00
67  6.6000000000000E-01 -2.3060798664555E-01  1.8965830615687E+00
68  6.7000000000000E-01 -2.9176873776102E-01  1.8755119294793E+00
69  6.8000000000000E-01 -3.4766508935065E-01  1.8471517276352E+00
70  6.9000000000000E-01 -3.9800190372724E-01  1.8114023981351E+00
71  7.0000000000000E-01 -4.4251895936873E-01  1.7681787357580E+00
72  7.1000000000000E-01 -4.8099659718938E-01  1.7174230380065E+00
73  7.2000000000000E-01 -5.1326152490219E-01  1.6591190705775E+00
74  7.3000000000000E-01 -5.3919256230547E-01  1.5933067611247E+00
75  7.4000000000000E-01 -5.5872609236128E-01  1.5200969737506E+00
76  7.5000000000000E-01 -5.7186097369230E-01  1.4396856800179E+00
77  7.6000000000000E-01 -5.7866267029017E-01  1.3523668314522E+00
78  7.7000000000000E-01 -5.7926636415313E-01  1.2585432546590E+00
79  7.8000000000000E-01 -5.7387883623571E-01  1.1587349334324E+00
80  7.9000000000000E-01 -5.6277893011505E-01  1.0535841117234E+00
81  8.0000000000000E-01 -5.4631645040005E-01  9.4385674517399E-01
82  8.1000000000000E-01 -5.2490939304166E-01  8.3043994430337E-01
83  8.2000000000000E-01 -4.9903945592658E-01  7.1433518562648E-01
84  8.3000000000000E-01 -4.6924583377922E-01  5.9664721356923E-01
85  8.4000000000000E-01 -4.3611735956574E-01  4.7856871096128E-01
86  8.5000000000000E-01 -4.0028311325160E-01  3.6136097366701E-01
87  8.6000000000000E-01 -3.6240167579776E-01  2.4633097985305E-01
88  8.7000000000000E-01 -3.2314925957713E-01  1.3480539075277E-01
89  8.8000000000000E-01 -2.8320699391829E-01  2.8102152024041E-02
90  8.9000000000000E-01 -2.4324768435513E-01 -7.2499522259015E-02
91  9.0000000000000E-01 -2.0392239472527E-01 -1.6578991186576E-01
92  9.1000000000000E-01 -1.6584722115056E-01 -2.5065936642386E-01
93  9.2000000000000E-01 -1.2959063513013E-01 -3.2612773191034E-01
94  9.3000000000000E-01 -9.5661768852542E-02 -3.9137166602722E-01
95  9.4000000000000E-01 -6.4499999178965E-02 -4.4574891577765E-01
96  9.5000000000000E-01 -3.6466157787230E-02 -4.8881869828224E-01
97  9.6000000000000E-01 -1.1835654366864E-02 -5.2035742481123E-01
98  9.7000000000000E-01  9.2062514113233E-03 -5.4036913546987E-01
99  9.8000000000000E-01  2.6566853664636E-02 -5.4909016412975E-01
100  9.9000000000000E-01  4.0245971839883E-02 -5.4698772541378E-01
101  1.0000000000000E+00  5.0333454742771E-02 -5.3475230228933E-01
102  1.0100000000000E+00  5.7004257307585E-02 -5.1328390803830E-01
103  1.0200000000000E+00  6.0511206236826E-02 -4.8367249343571E-01
104  1.0300000000000E+00  6.1175644491222E-02 -4.4717296261291E-01
105  1.0400000000000E+00  5.9376213779286E-02 -4.0517544227232E-01
106  1.0500000000000E+00  5.5536096407380E-02 -3.5917161259515E-01
107  1.0600000000000E+00  5.0109091042452E-02 -3.1071804883529E-01
108  1.0700000000000E+00  4.3564939019745E-02 -2.6139763462641E-01
109  1.0800000000000E+00  3.6374369216902E-02 -2.1278023555365E-01
110  1.0900000000000E+00  2.8994155709026E-02 -1.6638344783210E-01
111  1.1000000000000E+00  2.1851067335158E-02 -1.2363117948385E-01
112  1.1100000000000E+00  1.5267046142718E-02 -8.5682122220153E-02
113  1.1200000000000E+00  9.5732944937755E-03 -5.3666247550244E-02
114  1.1300000000000E+00  5.0720107059838E-03 -2.8591519133213E-02
115  1.1400000000000E+00  1.9563038513770E-03 -1.1165625683107E-02
116  1.1500000000000E+00  3.0396638019907E-04 -1.7693049937418E-03
117  1.1600000000000E+00 -1.5107828780349E-05  8.9567094646023E-05
118  1.1700000000000E+00  1.0084123343629E-06 -5.9330010686342E-06
119  1.18 -0. -0.
120  1.19  0.  0.
121  1.20  0.  0.
122  1.21  0.  0.
123  1.22  0.  0.
124  1.23  0.  0.
125  1.24  0.  0.
126  1.25  0.  0.
127  1.26  0.  0.
128  1.27  0.  0.
129  1.28  0.  0.
130  1.29  0.  0.
131  1.30  0.  0.
132  1.31  0.  0.
133  1.32  0.  0.
134  1.33  0.  0.
135  1.34  0.  0.
136  1.35  0.  0.
137  1.36  0.  0.
138  1.37  0.  0.
139  1.38  0.  0.
140  1.39  0.  0.
141  1.40  0.  0.
142  1.41  0.  0.
143  1.42  0.  0.
144  1.43  0.  0.
145  1.44  0.  0.
146  1.45  0.  0.
147  1.46  0.  0.
148  1.47  0.  0.
149  1.48  0.  0.
150  1.49  0.  0.
151  1.50  0.  0.
152  1.51  0.  0.
153  1.52  0.  0.
154  1.53  0.  0.
155  1.54  0.  0.
156  1.55  0.  0.
157  1.56  0.  0.
158  1.57  0.  0.
159  1.58  0.  0.
160  1.59  0.  0.
161  1.60  0.  0.
162  1.61  0.  0.
163  1.62  0.  0.
164  1.63  0.  0.
165  1.64  0.  0.