Pa    ONCVPSP-4.0.1  r_core=   1.15662   1.15662   1.15662   1.30362
91.0000     31.0000      220822    zatom,zion,pspd
8      11   3     4   600     0    pspcod,pspxc,lmax,lloc,mmax,r2well
5.99000000  5.00000000  0.00000000    rchrg fchrg qchrg
3     2     2     2     0    nproj
1     1           extension_switch
0                         3.6984992845635E+01  3.5497839595227E+00 -4.1814208344206E-01
1  0.0000000000000E+00 -1.3205615223555E-07  4.7597529995169E-07  2.6206514227786E-07
2  1.0000000000000E-02  1.4683352323402E-01 -1.0191893388672E-01 -7.9573967956406E-03
3  2.0000000000000E-02  2.9247793154755E-01 -2.0111681642286E-01 -1.4760554665561E-02
4  3.0000000000000E-02  4.3577041570990E-01 -2.9496189156037E-01 -1.9304789818903E-02
5  4.0000000000000E-02  5.7559984119422E-01 -3.8099761750699E-01 -2.0582615968680E-02
6  5.0000000000000E-02  7.1093028035614E-01 -4.5702196451809E-01 -1.7727633334177E-02
7  6.0000000000000E-02  8.4082187921381E-01 -5.2115710465158E-01 -1.0052965284478E-02
8  7.0000000000000E-02  9.6444833413375E-01 -5.7190688087603E-01  2.9172506538109E-03
9  8.0000000000000E-02  1.0811103857825E+00 -6.0819991889731E-01  2.1424548636403E-02
10  9.0000000000000E-02  1.1902448927614E+00 -6.2941680416231E-01  4.5461919861790E-02
11  1.0000000000000E-01  1.2914292193051E+00 -6.3540036686978E-01  7.4769276739852E-02
12  1.1000000000000E-01  1.3843808535348E+00 -6.2644877521176E-01  1.0883880986788E-01
13  1.2000000000000E-01  1.4689523578458E+00 -6.0329180580612E-01  1.4693007837234E-01
14  1.3000000000000E-01  1.5451219337998E+00 -5.6705131418388E-01  1.8809430665511E-01
15  1.4000000000000E-01  1.6129800532550E+00 -5.1918754170382E-01  2.3120701280592E-01
16  1.5000000000000E-01  1.6727127587302E+00 -4.6143344433986E-01  2.7500777899976E-01
17  1.6000000000000E-01  1.7245823631941E+00 -3.9571969194146E-01  3.1814570390944E-01
18  1.7000000000000E-01  1.7689063775630E+00 -3.2409334560958E-01  3.5922886168730E-01
19  1.8000000000000E-01  1.8060355592981E+00 -2.4863346169275E-01  3.9687593945474E-01
20  1.9000000000000E-01  1.8363320050217E+00 -1.7136698408437E-01  4.2976814118216E-01
21  2.0000000000000E-01  1.8601482028264E+00 -9.4188267518555E-02  4.5669943343066E-01
22  2.1000000000000E-01  1.8778079161885E+00 -1.8785424099435E-02  4.7662326804569E-01
23  2.2000000000000E-01  1.8895896928103E+00  5.3423590806777E-02  4.8869404620763E-01
24  2.3000000000000E-01  1.8957136813750E+00  1.2134262815728E-01  4.9230178228391E-01
25  2.4000000000000E-01  1.8963323014396E+00  1.8423469569871E-01  4.8709867729283E-01
26  2.5000000000000E-01  1.8915251519204E+00  2.4174354564866E-01  4.7301661091426E-01
27  2.6000000000000E-01  1.8812983681569E+00  2.9389866486826E-01  4.5027489652435E-01
28  2.7000000000000E-01  1.8655884532915E+00  3.4110349505496E-01  4.1937800298230E-01
29  2.8000000000000E-01  1.8442704239666E+00  3.8410738005016E-01  3.8110331628371E-01
30  2.9000000000000E-01  1.8171699304889E+00  4.2396238789942E-01  3.3647937979157E-01
31  3.0000000000000E-01  1.7840788447840E+00  4.6196676121224E-01  2.8675539980973E-01
32  3.1000000000000E-01  1.7447736623131E+00  4.9959728678295E-01  2.3336312074169E-01
33  3.2000000000000E-01  1.6990359425392E+00  5.3843332310795E-01  1.7787244911396E-01
34  3.3000000000000E-01  1.6466739214015E+00  5.8007556469693E-01  1.2194242816131E-01
35  3.4000000000000E-01  1.5875443722773E+00  6.2606284141106E-01  6.7269326294733E-02
36  3.5000000000000E-01  1.5215737714571E+00  6.7779034070680E-01  1.5533697780968E-02
37  3.6000000000000E-01  1.4487778411299E+00  7.3643259700181E-01 -3.1651700891363E-02
38  3.7000000000000E-01  1.3692785967467E+00  8.0287441694205E-01 -7.2791300811526E-02
39  3.8000000000000E-01  1.2833181143742E+00  8.7765260896190E-01 -1.0655169213140E-01
40  3.9000000000000E-01  1.1912683538892E+00  9.6091097185868E-01 -1.3180063007566E-01
41  4.0000000000000E-01  1.0936365209639E+00  1.0523704863293E+00 -1.4763876216170E-01
42  4.1000000000000E-01  9.9106561904874E-01  1.1513160655256E+00 -1.5342304444186E-01
43  4.2000000000000E-01  8.8433002543205E-01  1.2566005787216E+00 -1.4878113197832E-01
44  4.3000000000000E-01  7.7432611582205E-01  1.3666661913057E+00 -1.3361637008911E-01
45  4.4000000000000E-01  6.6205815232126E-01  1.4795823908192E+00 -1.0810336497763E-01
46  4.5000000000000E-01  5.4861983272005E-01  1.5930994190410E+00 -7.2674461654024E-02
47  4.6000000000000E-01  4.3517206756610E-01  1.7047152296165E+00 -2.7997790246821E-02
48  4.7000000000000E-01  3.2291769890330E-01  1.8117535628866E+00  2.5052153720477E-02
49  4.8000000000000E-01  2.1307399515883E-01  1.9114502950034E+00  8.5430165183691E-02
50  4.9000000000000E-01  1.0684384571808E-01  2.0010448939377E+00  1.5196077720065E-01
51  5.0000000000000E-01  5.3866328107032E-03  2.0778736131158E+00  2.2338189938113E-01
52  5.1000000000000E-01 -9.0210224610823E-02  2.1394609817499E+00  2.9838995248568E-01
53  5.2000000000000E-01 -1.7895808089473E-01  2.1836062119287E+00  3.7568477717880E-01
54  5.3000000000000E-01 -2.5999131082778E-01  2.2084613333900E+00  4.5401263401237E-01
55  5.4000000000000E-01 -3.3258816883470E-01  2.2125981797000E+00  5.3220571508583E-01
56  5.5000000000000E-01 -3.9618755766561E-01  2.1950617715907E+00  6.0921675076957E-01
57  5.6000000000000E-01 -4.5040115234535E-01  2.1554081574783E+00  6.8414751037367E-01
58  5.7000000000000E-01 -4.9502049351001E-01  2.0937253571389E+00  7.5627025470369E-01
59  5.8000000000000E-01 -5.3001884598082E-01  2.0106366888612E+00  8.2504149044214E-01
60  5.9000000000000E-01 -5.5554780641691E-01  1.9072864180801E+00  8.9010768944092E-01
61  6.0000000000000E-01 -5.7192883081913E-01  1.7853083206337E+00  9.5130295775979E-01
62  6.1000000000000E-01 -5.7964003132027E-01  1.6467783808661E+00  1.0086389569541E+00
63  6.2000000000000E-01 -5.7929875524831E-01  1.4941534195284E+00  1.0622876812536E+00
64  6.3000000000000E-01 -5.7164060171876E-01  1.3301979468544E+00  1.1125579672735E+00
65  6.4000000000000E-01 -5.5749564672616E-01  1.1579019434772E+00  1.1598668473718E+00
66  6.5000000000000E-01 -5.3776273270276E-01  9.8039257107596E-01  1.2047070449927E+00
67  6.6000000000000E-01 -5.1338272990427E-01  8.0084299534503E-01  1.2476120435538E+00
68  6.7000000000000E-01 -4.8531169324861E-01  6.2238156042772E-01  1.2891202351204E+00
69  6.8000000000000E-01 -4.5449481928966E-01  4.4800448580529E-01  1.3297396691225E+00
70  6.9000000000000E-01 -4.2184205516750E-01  2.8049506818408E-01  1.3699148749834E+00
71  7.0000000000000E-01 -3.8820612731106E-01  1.2235207140804E-01  1.4099971284259E+00
72  7.1000000000000E-01 -3.5436364625722E-01 -2.4270409622341E-02  1.4502193743261E+00
73  7.2000000000000E-01 -3.2099981011191E-01 -1.5760980235667E-01  1.4906768162185E+00
74  7.3000000000000E-01 -2.8869707868190E-01 -2.7632735591840E-01  1.5313139426118E+00
75  7.4000000000000E-01 -2.5792802944237E-01 -3.7952518991086E-01  1.5719184930560E+00
76  7.5000000000000E-01 -2.2905244194084E-01 -4.6674798533315E-01  1.6121225833740E+00
77  7.6000000000000E-01 -2.0231849560410E-01 -5.3796978981551E-01  1.6514109209261E+00
78  7.7000000000000E-01 -1.7786781360258E-01 -5.9356695669512E-01  1.6891357585410E+00
79  7.8000000000000E-01 -1.5574394833814E-01 -6.3427873136922E-01  1.7245379707172E+00
80  7.9000000000000E-01 -1.3590378735361E-01 -6.6115742054880E-01  1.7567733978229E+00
81  8.0000000000000E-01 -1.1823126619258E-01 -6.7551041535766E-01  1.7849434020115E+00
82  8.1000000000000E-01 -1.0255271000128E-01 -6.7883657654582E-01  1.8081284195430E+00
83  8.2000000000000E-01 -8.8653090295316E-02 -6.7275962250097E-01  1.8254231834547E+00
84  8.3000000000000E-01 -7.6292477853101E-02 -6.5896118589121E-01  1.8359722313652E+00
85  8.4000000000000E-01 -6.5221996435015E-02 -6.3911612473972E-01  1.8390043068803E+00
86  8.5000000000000E-01 -5.5198633039810E-02 -6.1483249489235E-01  1.8338643088392E+00
87  8.6000000000000E-01 -4.5998335689248E-02 -5.8759832345199E-01  1.8200415378071E+00
88  8.7000000000000E-01 -3.7426925346785E-02 -5.5873698038470E-01  1.7971931294021E+00
89  8.8000000000000E-01 -2.9328459869554E-02 -5.2937254434625E-01  1.7651617433861E+00
90  8.9000000000000E-01 -2.1590809725318E-02 -5.0040611680706E-01  1.7239867889959E+00
91  9.0000000000000E-01 -1.4148332201418E-02 -4.7250357466175E-01  1.6739087030192E+00
92  9.1000000000000E-01 -6.9816576477173E-03 -4.4609478455977E-01  1.6153660495717E+00
93  9.2000000000000E-01 -1.1472287897244E-04 -4.2138385011023E-01  1.5489854713929E+00
94  9.3000000000000E-01  6.3907013081975E-03 -3.9836954204599E-01  1.4755647841779E+00
95  9.4000000000000E-01  1.2442643211068E-02 -3.7687468484338E-01  1.3960497613012E+00
96  9.5000000000000E-01  1.7928296565583E-02 -3.5658295147188E-01  1.3115054006634E+00
97  9.6000000000000E-01  2.2724628811131E-02 -3.3708125731696E-01  1.2230826941638E+00
98  9.7000000000000E-01  2.6709694402207E-02 -3.1790574710928E-01  1.1319821309919E+00
99  9.8000000000000E-01  2.9774088520963E-02 -2.9858923280528E-01  1.0394153577607E+00
100  9.9000000000000E-01  3.1831964502837E-02 -2.7870785922630E-01  9.4656659266639E-01
101  1.0000000000000E+00  3.2831038774185E-02 -2.5792473717794E-01  8.5455555020616E-01
102  1.0100000000000E+00  3.2761015770254E-02 -2.3602827599889E-01  7.6440378223583E-01
103  1.0200000000000E+00  3.1659876851722E-02 -2.1296295093717E-01  6.7700648638087E-01
104  1.0300000000000E+00  2.9617485588688E-02 -1.8885023447446E-01  5.9311198185718E-01
105  1.0400000000000E+00  2.6775960157022E-02 -1.6399738142460E-01  5.1331121399951E-01
106  1.0500000000000E+00  2.3326245029966E-02 -1.3889166120329E-01  4.3803983154873E-01
107  1.0600000000000E+00  1.9500271209836E-02 -1.1417745122816E-01  3.6759559550841E-01
108  1.0700000000000E+00  1.5558019915682E-02 -9.0613318672994E-02  3.0217413428330E-01
109  1.0800000000000E+00  1.1768754147743E-02 -6.9005998145491E-02  2.4192635602203E-01
110  1.0900000000000E+00  8.3849815210784E-03 -5.0115856203522E-02  1.8704131742705E-01
111  1.1000000000000E+00  5.6034688641146E-03 -3.4514943136499E-02  1.3785899332002E-01
112  1.1100000000000E+00  3.3498726526595E-03 -2.1873550550089E-02  9.5040080798236E-02
113  1.1200000000000E+00  1.6444038190871E-03 -1.2135849153092E-02  5.9423458192941E-02
114  1.1300000000000E+00  5.7047680370804E-04 -5.4776419087137E-03  3.1713534385168E-02
115  1.1400000000000E+00  7.7094484703314E-05 -1.6879319710207E-03  1.2450094592267E-02
116  1.1500000000000E+00 -1.5339354196369E-05 -1.8460765474758E-04  1.9904864678059E-03
117  1.1600000000000E+00  1.9134969564594E-06  5.9979557641343E-06 -1.0146842354036E-04
118  1.1700000000000E+00 -9.8027321063802E-08 -4.8083047177102E-07  6.7014718919074E-06
119  1.18  0. -0. -0.
120  1.19  0.  0.  0.
121  1.20  0.  0.  0.
122  1.21  0.  0.  0.
123  1.22  0.  0.  0.
124  1.23  0.  0.  0.
125  1.24  0.  0.  0.
126  1.25  0.  0.  0.
127  1.26  0.  0.  0.
128  1.27  0.  0.  0.
129  1.28  0.  0.  0.
130  1.29  0.  0.  0.
131  1.30  0.  0.  0.
132  1.31  0.  0.  0.
133  1.32  0.  0.  0.
134  1.33  0.  0.  0.
135  1.34  0.  0.  0.
136  1.35  0.  0.  0.
137  1.36  0.  0.  0.
138  1.37  0.  0.  0.
139  1.38  0.  0.  0.
140  1.39  0.  0.  0.
141  1.40  0.  0.  0.
142  1.41  0.  0.  0.
143  1.42  0.  0.  0.
144  1.43  0.  0.  0.
145  1.44  0.  0.  0.
146  1.45  0.  0.  0.
147  1.46  0.  0.  0.
148  1.47  0.  0.  0.
149  1.48  0.  0.  0.
150  1.49  0.  0.  0.
151  1.50  0.  0.  0.
152  1.51  0.  0.  0.
153  1.52  0.  0.  0.
154  1.53  0.  0.  0.
155  1.54  0.  0.  0.
156  1.55  0.  0.  0.
157  1.56  0.  0.  0.
158  1.57  0.  0.  0.
159  1.58  0.  0.  0.
160  1.59  0.  0.  0.
161  1.60  0.  0.  0.
162  1.61  0.  0.  0.
163  1.62  0.  0.  0.
164  1.63  0.  0.  0.
165  1.64  0.  0.  0.
166  1.65  0.  0.  0.
167  1.66  0.  0.  0.
168  1.67  0.  0.  0.
169  1.68  0.  0.  0.
170  1.69  0.  0.  0.
171  1.70  0.  0.  0.
172  1.71  0.  0.  0.
173  1.72  0.  0.  0.
174  1.73  0.  0.  0.
175  1.74  0.  0.  0.
176  1.75  0.  0.  0.
177  1.76  0.  0.  0.
178  1.77  0.  0.  0.
179  1.78  0.  0.  0.
180  1.79  0.  0.  0.
181  1.80  0.  0.  0.
182  1.81  0.  0.  0.
183  1.82  0.  0.  0.
184  1.83  0.  0.  0.
185  1.84  0.  0.  0.
186  1.85  0.  0.  0.
187  1.86  0.  0.  0.
188  1.87  0.  0.  0.
189  1.88  0.  0.  0.
190  1.89  0.  0.  0.
191  1.90  0.  0.  0.
192  1.91  0.  0.  0.
193  1.92  0.  0.  0.
194  1.93  0.  0.  0.
195  1.94  0.  0.  0.
196  1.95  0.  0.  0.
197  1.96  0.  0.  0.
198  1.97  0.  0.  0.
199  1.98  0.  0.  0.
200  1.99  0.  0.  0.
201  2.00  0.  0.  0.
202  2.01  0.  0.  0.
203  2.02  0.  0.  0.
204  2.03  0.  0.  0.
205  2.04  0.  0.  0.
206  2.05  0.  0.  0.
207  2.06  0.  0.  0.
208  2.07  0.  0.  0.
209  2.08  0.  0.  0.
210  2.09  0.  0.  0.
211  2.10  0.  0.  0.
212  2.11  0.  0.  0.
213  2.12  0.  0.  0.
214  2.13  0.  0.  0.
215  2.14  0.  0.  0.
216  2.15  0.  0.  0.
217  2.16  0.  0.  0.
218  2.17  0.  0.  0.
219  2.18  0.  0.  0.
220  2.19  0.  0.  0.
221  2.20  0.  0.  0.
222  2.21  0.  0.  0.
223  2.22  0.  0.  0.
224  2.23  0.  0.  0.
225  2.24  0.  0.  0.
226  2.25  0.  0.  0.
227  2.26  0.  0.  0.
228  2.27  0.  0.  0.
229  2.28  0.  0.  0.
230  2.29  0.  0.  0.
231  2.30  0.  0.  0.
232  2.31  0.  0.  0.
233  2.32  0.  0.  0.
234  2.33  0.  0.  0.
235  2.34  0.  0.  0.
236  2.35  0.  0.  0.
237  2.36  0.  0.  0.
238  2.37  0.  0.  0.
239  2.38  0.  0.  0.
240  2.39  0.  0.  0.
241  2.40  0.  0.  0.
242  2.41  0.  0.  0.
243  2.42  0.  0.  0.
244  2.43  0.  0.  0.
245  2.44  0.  0.  0.
246  2.45  0.  0.  0.
247  2.46  0.  0.  0.
248  2.47  0.  0.  0.
249  2.48  0.  0.  0.
250  2.49  0.  0.  0.
251  2.50  0.  0.  0.
252  2.51  0.  0.  0.
253  2.52  0.  0.  0.
254  2.53  0.  0.  0.
255  2.54  0.  0.  0.
256  2.55  0.  0.  0.
257  2.56  0.  0.  0.
258  2.57  0.  0.  0.
259  2.58  0.  0.  0.
260  2.59  0.  0.  0.
261  2.60  0.  0.  0.
262  2.61  0.  0.  0.
263  2.62  0.  0.  0.
264  2.63  0.  0.  0.
265  2.64  0.  0.  0.
266  2.65  0.  0.  0.
267  2.66  0.  0.  0.
268  2.67  0.  0.  0.
269  2.68  0.  0.  0.
270  2.69  0.  0.  0.
271  2.70  0.  0.  0.
272  2.71  0.  0.  0.
273  2.72  0.  0.  0.
274  2.73  0.  0.  0.
275  2.74  0.  0.  0.
276  2.75  0.  0.  0.
277  2.76  0.  0.  0.
278  2.77  0.  0.  0.
279  2.78  0.  0.  0.
280  2.79  0.  0.  0.
281  2.80  0.  0.  0.
282  2.81  0.  0.  0.
283  2.82  0.  0.  0.
284  2.83  0.  0.  0.
285  2.84  0.  0.  0.
286  2.85  0.  0.  0.
287  2.86  0.  0.  0.
288  2.87  0.  0.  0.
289  2.88  0.  0.  0.
290  2.89  0.  0.  0.
291  2.90  0.  0.  0.
292  2.91  0.  0.  0.
293  2.92  0.  0.  0.
294  2.93  0.  0.  0.
295  2.94  0.  0.  0.
296  2.95  0.  0.  0.
297  2.96  0.  0.  0.
298  2.97  0.  0.  0.
299  2.98  0.  0.  0.
300  2.99  0.  0.  0.
301  3.00  0.  0.  0.
302  3.01  0.  0.  0.
303  3.02  0.  0.  0.
304  3.03  0.  0.  0.
305  3.04  0.  0.  0.
306  3.05  0.  0.  0.
307  3.06  0.  0.  0.
308  3.07  0.  0.  0.
309  3.08  0.  0.  0.
310  3.09  0.  0.  0.
311  3.10  0.  0.  0.
312  3.11  0.  0.  0.
313  3.12  0.  0.  0.
314  3.13  0.  0.  0.
315  3.14  0.  0.  0.
316  3.15  0.  0.  0.
317  3.16  0.  0.  0.
318  3.17  0.  0.  0.
319  3.18  0.  0.  0.
320  3.19  0.  0.  0.
321  3.20  0.  0.  0.
322  3.21  0.  0.  0.
323  3.22  0.  0.  0.
324  3.23  0.  0.  0.
325  3.24  0.  0.  0.
326  3.25  0.  0.  0.
327  3.26  0.  0.  0.
328  3.27  0.  0.  0.
329  3.28  0.  0.  0.
330  3.29  0.  0.  0.
331  3.30  0.  0.  0.
332  3.31  0.  0.  0.
333  3.32  0.  0.  0.
334  3.33  0.  0.  0.
335  3.34  0.  0.  0.
336  3.35  0.  0.  0.
337  3.36  0.  0.  0.
338  3.37  0.  0.  0.
339  3.38  0.  0.  0.
340  3.39  0.  0.  0.
341  3.40  0.  0.  0.
342  3.41  0.  0.  0.
343  3.42  0.  0.  0.
344  3.43  0.  0.  0.
345  3.44  0.  0.  0.
346  3.45  0.  0.  0.
347  3.46  0.  0.  0.
348  3.47  0.  0.  0.
349  3.48  0.  0.  0.
350  3.49  0.  0.  0.
351  3.50  0.  0.  0.
352  3.51  0.  0.  0.
353  3.52  0.  0.  0.
354  3.53  0.  0.  0.
355  3.54  0.  0.  0.
356  3.55  0.  0.  0.
357  3.56  0.  0.  0.
358  3.57  0.  0.  0.
359  3.58  0.  0.  0.
360  3.59  0.  0.  0.
361  3.60  0.  0.  0.
362  3.61  0.  0.  0.
363  3.62  0.  0.  0.
364  3.63  0.  0.  0.
365  3.64  0.  0.  0.
366  3.65  0.  0.  0.
367  3.66  0.  0.  0.
368  3.67  0.  0.  0.
369  3.68  0.  0.  0.
370  3.69  0.  0.  0.
371  3.70  0.  0.  0.
372  3.71  0.  0.  0.
373  3.72  0.  0.  0.
374  3.73  0.  0.  0.
375  3.74  0.  0.  0.
376  3.75  0.  0.  0.
377  3.76  0.  0.  0.
378  3.77  0.  0.  0.
379  3.78  0.  0.  0.
380  3.79  0.  0.  0.
381  3.80  0.  0.  0.
382  3.81  0.  0.  0.
383  3.82  0.  0.  0.
384  3.83  0.  0.  0.
385  3.84  0.  0.  0.
386  3.85  0.  0.  0.
387  3.86  0.  0.  0.
388  3.87  0.  0.  0.
389  3.88  0.  0.  0.
390  3.89  0.  0.  0.
391  3.90  0.  0.  0.
392  3.91  0.  0.  0.
393  3.92  0.  0.  0.
394  3.93  0.  0.  0.
395  3.94  0.  0.  0.
396  3.95  0.  0.  0.
397  3.96  0.  0.  0.
398  3.97  0.  0.  0.
399  3.98  0.  0.  0.
400  3.99  0.  0.  0.
401  4.00  0.  0.  0.
402  4.01  0.  0.  0.
403  4.02  0.  0.  0.
404  4.03  0.  0.  0.
405  4.04  0.  0.  0.
406  4.05  0.  0.  0.
407  4.06  0.  0.  0.
408  4.07  0.  0.  0.
409  4.08  0.  0.  0.
410  4.09  0.  0.  0.
411  4.10  0.  0.  0.
412  4.11  0.  0.  0.
413  4.12  0.  0.  0.
414  4.13  0.  0.  0.
415  4.14  0.  0.  0.
416  4.15  0.  0.  0.
417  4.16  0.  0.  0.
418  4.17  0.  0.  0.
419  4.18  0.  0.  0.
420  4.19  0.  0.  0.
421  4.20  0.  0.  0.
422  4.21  0.  0.  0.
423  4.22  0.  0.  0.
424  4.23  0.  0.  0.
425  4.24  0.  0.  0.
426  4.25  0.  0.  0.
427  4.26  0.  0.  0.
428  4.27  0.  0.  0.
429  4.28  0.  0.  0.
430  4.29  0.  0.  0.
431  4.30  0.  0.  0.
432  4.31  0.  0.  0.
433  4.32  0.  0.  0.
434  4.33  0.  0.  0.
435  4.34  0.  0.  0.
436  4.35  0.  0.  0.
437  4.36  0.  0.  0.
438  4.37  0.  0.  0.
439  4.38  0.  0.  0.
440  4.39  0.  0.  0.
441  4.40  0.  0.  0.
442  4.41  0.  0.  0.
443  4.42  0.  0.  0.
444  4.43  0.  0.  0.
445  4.44  0.  0.  0.
446  4.45  0.  0.  0.
447  4.46  0.  0.  0.
448  4.47  0.  0.  0.
449  4.48  0.  0.  0.
450  4.49  0.  0.  0.
451  4.50  0.  0.  0.
452  4.51  0.  0.  0.
453  4.52  0.  0.  0.
454  4.53  0.  0.  0.
455  4.54  0.  0.  0.
456  4.55  0.  0.  0.
457  4.56  0.  0.  0.
458  4.57  0.  0.  0.
459  4.58  0.  0.  0.
460  4.59  0.  0.  0.
461  4.60  0.  0.  0.
462  4.61  0.  0.  0.
463  4.62  0.  0.  0.
464  4.63  0.  0.  0.
465  4.64  0.  0.  0.
466  4.65  0.  0.  0.
467  4.66  0.  0.  0.
468  4.67  0.  0.  0.
469  4.68  0.  0.  0.
470  4.69  0.  0.  0.
471  4.70  0.  0.  0.
472  4.71  0.  0.  0.
473  4.72  0.  0.  0.
474  4.73  0.  0.  0.
475  4.74  0.  0.  0.
476  4.75  0.  0.  0.
477  4.76  0.  0.  0.
478  4.77  0.  0.  0.
479  4.78  0.  0.  0.
480  4.79  0.  0.  0.
481  4.80  0.  0.  0.
482  4.81  0.  0.  0.
483  4.82  0.  0.  0.
484  4.83  0.  0.  0.
485  4.84  0.  0.  0.
486  4.85  0.  0.  0.
487  4.86  0.  0.  0.
488  4.87  0.  0.  0.
489  4.88  0.  0.  0.
490  4.89  0.  0.  0.
491  4.90  0.  0.  0.
492  4.91  0.  0.  0.
493  4.92  0.  0.  0.
494  4.93  0.  0.  0.
495  4.94  0.  0.  0.
496  4.95  0.  0.  0.
497  4.96  0.  0.  0.
498  4.97  0.  0.  0.
499  4.98  0.  0.  0.
500  4.99  0.  0.  0.
501  5.00  0.  0.  0.
502  5.01  0.  0.  0.
503  5.02  0.  0.  0.
504  5.03  0.  0.  0.
505  5.04  0.  0.  0.
506  5.05  0.  0.  0.
507  5.06  0.  0.  0.
508  5.07  0.  0.  0.
509  5.08  0.  0.  0.
510  5.09  0.  0.  0.
511  5.10  0.  0.  0.
512  5.11  0.  0.  0.
513  5.12  0.  0.  0.
514  5.13  0.  0.  0.
515  5.14  0.  0.  0.
516  5.15  0.  0.  0.
517  5.16  0.  0.  0.
518  5.17  0.  0.  0.
519  5.18  0.  0.  0.
520  5.19  0.  0.  0.
521  5.20  0.  0.  0.
522  5.21  0.  0.  0.
523  5.22  0.  0.  0.
524  5.23  0.  0.  0.
525  5.24  0.  0.  0.
526  5.25  0.  0.  0.
527  5.26  0.  0.  0.
528  5.27  0.  0.  0.
529  5.28  0.  0.  0.
530  5.29  0.  0.  0.
531  5.30  0.  0.  0.
532  5.31  0.  0.  0.
533  5.32  0.  0.  0.
534  5.33  0.  0.  0.
535  5.34  0.  0.  0.
536  5.35  0.  0.  0.
537  5.36  0.  0.  0.
538  5.37  0.  0.  0.
539  5.38  0.  0.  0.
540  5.39  0.  0.  0.
541  5.40  0.  0.  0.
542  5.41  0.  0.  0.
543  5.42  0.  0.  0.
544  5.43  0.  0.  0.
545  5.44  0.  0.  0.
546  5.45  0.  0.  0.
547  5.46  0.  0.  0.
548  5.47  0.  0.  0.
549  5.48  0.  0.  0.
550  5.49  0.  0.  0.
551  5.50  0.  0.  0.
552  5.51  0.  0.  0.
553  5.52  0.  0.  0.
554  5.53  0.  0.  0.
555  5.54  0.  0.  0.
556  5.55  0.  0.  0.
557  5.56  0.  0.  0.
558  5.57  0.  0.  0.
559  5.58  0.  0.  0.
560  5.59  0.  0.  0.
561  5.60  0.  0.  0.
562  5.61  0.  0.  0.
563  5.62  0.  0.  0.
564  5.63  0.  0.  0.
565  5.64  0.  0.  0.
566  5.65  0.  0.  0.
567  5.66  0.  0.  0.
568  5.67  0.  0.  0.
569  5.68  0.  0.  0.
570  5.69  0.  0.  0.
571  5.70  0.  0.  0.
572  5.71  0.  0.  0.
573  5.72  0.  0.  0.
574  5.73  0.  0.  0.
575  5.74  0.  0.  0.
576  5.75  0.  0.  0.
577  5.76  0.  0.  0.
578  5.77  0.  0.  0.
579  5.78  0.  0.  0.
580  5.79  0.  0.  0.
581  5.80  0.  0.  0.
582  5.81  0.  0.  0.
583  5.82  0.  0.  0.
584  5.83  0.  0.  0.
585  5.84  0.  0.  0.
586  5.85  0.  0.  0.
587  5.86  0.  0.  0.
588  5.87  0.  0.  0.
589  5.88  0.  0.  0.
590  5.89  0.  0.  0.
591  5.90  0.  0.  0.
592  5.91  0.  0.  0.
593  5.92  0.  0.  0.
594  5.93  0.  0.  0.
595  5.94  0.  0.  0.
596  5.95  0.  0.  0.
597  5.96  0.  0.  0.
598  5.97  0.  0.  0.
599  5.98  0.  0.  0.
600  5.99  0.  0.  0.
1                         1.1384453612115E+01 -7.7967026258250E-01
1  0.0000000000000E+00  6.5289607054098E-11 -1.2480566718986E-07
2  1.0000000000000E-02  3.2807138053711E-03  2.4587772121353E-03
3  2.0000000000000E-02  1.3100775620271E-02  9.8451856156958E-03
4  3.0000000000000E-02  2.9394066813654E-02  2.2187568776790E-02
5  4.0000000000000E-02  5.2050790491045E-02  3.9526966374920E-02
6  5.0000000000000E-02  8.0918073563717E-02  6.1908124576861E-02
7  6.0000000000000E-02  1.1580081118064E-01  8.9367517440678E-02
8  7.0000000000000E-02  1.5646275475672E-01  1.2191895717531E-01
9  8.0000000000000E-02  2.0262784476544E-01  1.5953749588689E-01
10  9.0000000000000E-02  2.5398178910767E-01  2.0214241812316E-01
11  1.0000000000000E-01  3.1017388717998E-01  2.4958018805766E-01
12  1.1000000000000E-01  3.7081909871777E-01  3.0160824472357E-01
13  1.2000000000000E-01  4.3550035506713E-01  3.5788053181694E-01
14  1.3000000000000E-01  5.0377110874574E-01  4.1793560512960E-01
15  1.4000000000000E-01  5.7515811500443E-01  4.8118808192151E-01
16  1.5000000000000E-01  6.4916443662799E-01  5.4692408513764E-01
17  1.6000000000000E-01  7.2527266046280E-01  6.1430119521419E-01
18  1.7000000000000E-01  8.0294831118743E-01  6.8235325833123E-01
19  1.8000000000000E-01  8.8164344472072E-01  7.5000021833579E-01
20  1.9000000000000E-01  9.6080040046714E-01  8.1606294689243E-01
21  2.0000000000000E-01  1.0398556884174E+00  8.7928284992873E-01
22  2.1000000000000E-01  1.1182439840405E+00  9.3834583556609E-01
23  2.2000000000000E-01  1.1954022010109E+00  9.9191004685308E-01
24  2.3000000000000E-01  1.2707736091998E+00  1.0386365988236E+00
25  2.4000000000000E-01  1.3438119631022E+00  1.0772224201681E+00
26  2.5000000000000E-01  1.4139856040503E+00  1.1064341907877E+00
27  2.6000000000000E-01  1.4807814982364E+00  1.1251422922972E+00
28  2.7000000000000E-01  1.5437091717982E+00  1.1323536525223E+00
29  2.8000000000000E-01  1.6023045040341E+00  1.1272423691812E+00
30  2.9000000000000E-01  1.6561333402456E+00  1.1091770427907E+00
31  3.0000000000000E-01  1.7047948867557E+00  1.0777438333997E+00
32  3.1000000000000E-01  1.7479248523181E+00  1.0327643775754E+00
33  3.2000000000000E-01  1.7851983023828E+00  9.7430785727281E-01
34  3.3000000000000E-01  1.8163321954934E+00  9.0269669563449E-01
35  3.4000000000000E-01  1.8410875743903E+00  8.1850556012020E-01
36  3.5000000000000E-01  1.8592713881361E+00  7.2255357347893E-01
37  3.6000000000000E-01  1.8707379256733E+00  6.1588986012271E-01
38  3.7000000000000E-01  1.8753898456064E+00  4.9977278126326E-01
39  3.8000000000000E-01  1.8731787915651E+00  3.7564342847941E-01
40  3.9000000000000E-01  1.8641055871845E+00  2.4509414418677E-01
41  4.0000000000000E-01  1.8482200094286E+00  1.0983301131181E-01
42  4.1000000000000E-01  1.8256201436091E+00 -2.8354603308948E-02
43  4.2000000000000E-01  1.7964513279312E+00 -1.6764626224450E-01
44  4.3000000000000E-01  1.7609046996674E+00 -3.0622317433020E-01
45  4.4000000000000E-01  1.7192153590446E+00 -4.4231014250222E-01
46  4.5000000000000E-01  1.6716601705991E+00 -5.7421349601166E-01
47  4.6000000000000E-01  1.6185552250532E+00 -7.0035583127647E-01
48  4.7000000000000E-01  1.5602529876824E+00 -8.1930649918492E-01
49  4.8000000000000E-01  1.4971391616565E+00 -9.2980692912444E-01
50  4.9000000000000E-01  1.4296292969499E+00 -1.0307900660837E+00
51  5.0000000000000E-01  1.3581651771402E+00 -1.1213934102501E+00
52  5.1000000000000E-01  1.2832110177621E+00 -1.2009653808900E+00
53  5.2000000000000E-01  1.2052495108885E+00 -1.2690649694371E+00
54  5.3000000000000E-01  1.1247777513004E+00 -1.3254548915905E+00
55  5.4000000000000E-01  1.0423030800187E+00 -1.3700886856324E+00
56  5.5000000000000E-01  9.5833888113383E-01 -1.4030924250900E+00
57  5.6000000000000E-01  8.7340036782815E-01 -1.4247419097583E+00
58  5.7000000000000E-01  7.8800039325822E-01 -1.4354363623094E+00
59  5.8000000000000E-01  7.0264532158149E-01 -1.4356697817159E+00
60  5.9000000000000E-01  6.1783099388944E-01 -1.4260011844035E+00
61  6.0000000000000E-01  5.3403882315402E-01 -1.4070249959572E+00
62  6.1000000000000E-01  4.5173205150629E-01 -1.3793428386466E+00
63  6.2000000000000E-01  3.7135220223605E-01 -1.3435378932052E+00
64  6.3000000000000E-01  2.9331575780928E-01 -1.3001528993010E+00
65  6.4000000000000E-01  2.1801109392039E-01 -1.2496727019155E+00
66  6.5000000000000E-01  1.4579569809649E-01 -1.1925120560811E+00
67  6.6000000000000E-01  7.6993699612772E-02 -1.1290091773269E+00
68  6.7000000000000E-01  1.1893735424100E-02 -1.0594252782586E+00
69  6.8000000000000E-01 -4.9252825570899E-02 -9.8395007239467E-01
70  6.9000000000000E-01 -1.0623328037521E-01 -9.0271296484011E-01
71  7.0000000000000E-01 -1.5887459544557E-01 -8.1579939591589E-01
72  7.1000000000000E-01 -2.0704400312070E-01 -7.2327156870738E-01
73  7.2000000000000E-01 -2.5064918208970E-01 -6.2519258429368E-01
74  7.3000000000000E-01 -2.8963801747587E-01 -5.2165283793502E-01
75  7.4000000000000E-01 -3.2399794091464E-01 -4.1279740315722E-01
76  7.5000000000000E-01 -3.5375485615972E-01 -2.9885305440075E-01
77  7.6000000000000E-01 -3.7897166120075E-01 -1.8015355669549E-01
78  7.7000000000000E-01 -3.9974638354162E-01 -5.7161884720657E-02
79  7.8000000000000E-01 -4.1620995107828E-01  6.9511876538434E-02
80  7.9000000000000E-01 -4.2852362681982E-01  1.9909805381571E-01
81  8.0000000000000E-01 -4.3687614139420E-01  3.3066124184807E-01
82  8.1000000000000E-01 -4.4148056273922E-01  4.6310117000838E-01
83  8.2000000000000E-01 -4.4257094746179E-01  5.9516098539864E-01
84  8.3000000000000E-01 -4.4039882291238E-01  7.2544306378669E-01
85  8.4000000000000E-01 -4.3522955292962E-01  8.5243215128563E-01
86  8.5000000000000E-01 -4.2733864332873E-01  9.7452532921709E-01
87  8.6000000000000E-01 -4.1700804541604E-01  1.0900679943706E+00
88  8.7000000000000E-01 -4.0452251700529E-01  1.1973947690446E+00
89  8.8000000000000E-01 -3.9016610050305E-01  1.2948740115464E+00
90  8.9000000000000E-01 -3.7421877655855E-01  1.3809543990899E+00
91  9.0000000000000E-01 -3.5695334950150E-01  1.4542119108435E+00
92  9.1000000000000E-01 -3.3863261731289E-01  1.5133954572378E+00
93  9.2000000000000E-01 -3.1950687421065E-01  1.5574693886522E+00
94  9.3000000000000E-01 -2.9981178814013E-01  1.5856511762462E+00
95  9.4000000000000E-01 -2.7976668862034E-01  1.5974426917446E+00
96  9.5000000000000E-01 -2.5957329262641E-01  1.5926537208969E+00
97  9.6000000000000E-01 -2.3941488762595E-01  1.5714166242093E+00
98  9.7000000000000E-01 -2.1945598169540E-01  1.5341914034398E+00
99  9.8000000000000E-01 -1.9984242100917E-01  1.4817608360358E+00
100  9.9000000000000E-01 -1.8070196511314E-01  1.4152157935136E+00
101  1.0000000000000E+00 -1.6214530047903E-01  1.3359313532935E+00
102  1.0100000000000E+00 -1.4426746309769E-01  1.2455348353125E+00
103  1.0200000000000E+00 -1.2714963152744E-01  1.1458674321640E+00
104  1.0300000000000E+00 -1.1086124305586E-01  1.0389416430271E+00
105  1.0400000000000E+00 -9.5462377672187E-02  9.2689725345466E-01
106  1.0500000000000E+00 -8.1006347542470E-02  8.1195911351383E-01
107  1.0600000000000E+00 -6.7542423766109E-02  6.9640044558819E-01
108  1.0700000000000E+00 -5.5118627506053E-02  5.8251584836124E-01
109  1.0800000000000E+00 -4.3784503345145E-02  4.7260864931267E-01
110  1.0900000000000E+00 -3.3593841164973E-02  3.6899671820689E-01
111  1.1000000000000E+00 -2.4607699760987E-02  2.7403418728352E-01
112  1.1100000000000E+00 -1.6912458852522E-02  1.8987536338554E-01
113  1.1200000000000E+00 -1.0580412612760E-02  1.1892296101278E-01
114  1.1300000000000E+00 -5.6694525116596E-03  6.3367943207970E-02
115  1.1400000000000E+00 -2.2421579547375E-03  2.4755138214927E-02
116  1.1500000000000E+00 -3.6223036368488E-04  3.9248077591355E-03
117  1.1600000000000E+00  1.8659043584706E-05 -1.9878243327908E-04
118  1.1700000000000E+00 -1.2271805137046E-06  1.3164840869893E-05
119  1.18 -0.  0.
120  1.19  0.  0.
121  1.20  0.  0.
122  1.21  0.  0.
123  1.22  0.  0.
124  1.23  0.  0.
125  1.24  0.  0.
126  1.25  0.  0.
127  1.26  0.  0.
128  1.27  0.  0.
129  1.28  0.  0.
130  1.29  0.  0.
131  1.30  0.  0.
132  1.31  0.  0.
133  1.32  0.  0.
134  1.33  0.  0.
135  1.34  0.  0.
136  1.35  0.  0.
137  1.36  0.  0.
138  1.37  0.  0.
139  1.38  0.  0.
140  1.39  0.  0.
141  1.40  0.  0.
142  1.41  0.  0.
143  1.42  0.  0.
144  1.43  0.  0.
145  1.44  0.  0.
146  1.45  0.  0.
147  1.46  0.  0.
148  1.47  0.  0.
149  1.48  0.  0.
150  1.49  0.  0.
151  1.50  0.  0.
152  1.51  0.  0.
153  1.52  0.  0.
154  1.53  0.  0.
155  1.54  0.  0.
156  1.55  0.  0.
157  1.56  0.  0.
158  1.57  0.  0.
159  1.58  0.  0.
160  1.59  0.  0.
161  1.60  0.  0.
162  1.61  0.  0.
163  1.62  0.  0.
164  1.63  0.  0.
165  1.64  0.  0.