Pa    ONCVPSP-4.0.1  r_core=   1.25016   1.25016   1.45183   1.45183
     91.0000     31.0000      220121    zatom,zion,pspd
     8      11   3     4   600     0    pspcod,pspxc,lmax,lloc,mmax,r2well
  5.99000000  5.00000000  0.00000000    rchrg fchrg qchrg
     3     2     2     2     0    nproj
     1     1           extension_switch
   0                         3.8283886842415E+01  2.3049285896823E+00 -4.6642065253627E-01
     1  0.0000000000000E+00 -9.5549472778345E-09  5.5123685394065E-08  5.8204893127467E-09
     2  1.0000000000000E-02  1.3928289438500E-01 -8.0198925112277E-02  2.2931426318202E-02
     3  2.0000000000000E-02  2.7784739028949E-01 -1.5929421426507E-01  4.5763204351734E-02
     4  3.0000000000000E-02  4.1498060188790E-01 -2.3619943120696E-01  6.8394463693711E-02
     5  4.0000000000000E-02  5.4998058288688E-01 -3.0986209606782E-01  9.0721953392134E-02
     6  5.0000000000000E-02  6.8216158447390E-01 -3.7927957108449E-01  1.1263900940839E-01
     7  6.0000000000000E-02  8.1085906634127E-01 -4.4351367715874E-01  1.3403470712979E-01
     8  7.0000000000000E-02  9.3543439028421E-01 -5.0170368622075E-01  1.5479325365661E-01
     9  8.0000000000000E-02  1.0552791354262E+00 -5.5307738949464E-01  1.7479366876375E-01
    10  9.0000000000000E-02  1.1698189853867E+00 -5.9696000681828E-01  1.9390979634616E-01
    11  1.0000000000000E-01  1.2785171502595E+00 -6.3278077479885E-01  2.1201067991752E-01
    12  1.1000000000000E-01  1.3808772996454E+00 -6.6007712914845E-01  2.2896132648654E-01
    13  1.2000000000000E-01  1.4764459966894E+00 -6.7849647621443E-01  2.4462387304937E-01
    14  1.3000000000000E-01  1.5648146365995E+00 -6.8779562760674E-01  2.5885915919453E-01
    15  1.4000000000000E-01  1.6456209059689E+00 -6.8783804704426E-01  2.7152869811895E-01
    16  1.5000000000000E-01  1.7185497909132E+00 -6.7858912734549E-01  2.8249702691891E-01
    17  1.6000000000000E-01  1.7833341721338E+00 -6.6010977536685E-01  2.9163440557500E-01
    18  1.7000000000000E-01  1.8397550531593E+00 -6.3254863143678E-01  2.9881982283568E-01
    19  1.8000000000000E-01  1.8876414738966E+00 -5.9613328567080E-01  3.0394425646347E-01
    20  1.9000000000000E-01  1.9268701650381E+00 -5.5116087514983E-01  3.0691412528622E-01
    21  2.0000000000000E-01  1.9573649996993E+00 -4.9798845250827E-01  3.0765486143729E-01
    22  2.1000000000000E-01  1.9790962968945E+00 -4.3702350779463E-01  3.0611452330739E-01
    23  2.2000000000000E-01  1.9920800271800E+00 -3.6871500182452E-01  3.0226736328939E-01
    24  2.3000000000000E-01  1.9963769641950E+00 -2.9354523158892E-01  2.9611725958205E-01
    25  2.4000000000000E-01  1.9920918171972E+00 -2.1202279799600E-01  2.8770091830874E-01
    26  2.5000000000000E-01  1.9793723693845E+00 -1.2467688525810E-01  2.7709075115806E-01
    27  2.6000000000000E-01  1.9584086352607E+00 -3.2052991901855E-02  2.6439733478368E-01
    28  2.7000000000000E-01  1.9294320380469E+00  6.5289821620523E-02  2.4977136139260E-01
    29  2.8000000000000E-01  1.8927145956780E+00  1.6678018151860E-01  2.3340499534601E-01
    30  2.9000000000000E-01  1.8485680918391E+00  2.7183423569921E-01  2.1553255818692E-01
    31  3.0000000000000E-01  1.7973431973159E+00  3.7985423958274E-01  1.9643047424181E-01
    32  3.1000000000000E-01  1.7394284972095E+00  4.9022612470169E-01  1.7641642071557E-01
    33  3.2000000000000E-01  1.6752493717715E+00  6.0231634056892E-01  1.5584763985484E-01
    34  3.3000000000000E-01  1.6052666731846E+00  7.1546830707868E-01  1.3511838609171E-01
    35  3.4000000000000E-01  1.5299751378842E+00  8.2899884769563E-01  1.1465649784297E-01
    36  3.5000000000000E-01  1.4499014742367E+00  9.4219499128182E-01  9.4919101535273E-02
    37  3.6000000000000E-01  1.3656020687019E+00  1.0543115315535E+00  7.6387474110942E-02
    38  3.7000000000000E-01  1.2776602600311E+00  1.1645697174054E+00  5.9561109374478E-02
    39  3.8000000000000E-01  1.1866831404930E+00  1.2721574148950E+00  4.4951052660044E-02
    40  3.9000000000000E-01  1.0932978553602E+00  1.3762310333306E+00  3.3072587016573E-02
    41  4.0000000000000E-01  9.9814738659926E-01  1.4759194451443E+00  2.4437371986649E-02
    42  4.1000000000000E-01  9.0188582344271E-01  1.5703300540538E+00  1.9545152662529E-02
    43  4.2000000000000E-01  8.0517314075526E-01  1.6585570809833E+00  1.8875171613817E-02
    44  4.3000000000000E-01  7.0866952522812E-01  1.7396920452852E+00  2.2877429090388E-02
    45  4.4000000000000E-01  6.1302930877306E-01  1.8128363233185E+00  3.1963947236218E-02
    46  4.5000000000000E-01  5.1889458734556E-01  1.8771155709214E+00  4.6500201567591E-02
    47  4.6000000000000E-01  4.2688862109084E-01  1.9316957043803E+00  6.6796887393121E-02
    48  4.7000000000000E-01  3.3760912747889E-01  1.9758000497674E+00  9.3102189952396E-02
    49  4.8000000000000E-01  2.5162159231729E-01  2.0087271964215E+00  1.2559472467198E-01
    50  4.9000000000000E-01  1.6945273361842E-01  2.0298690299818E+00  1.6437730799494E-01
    51  5.0000000000000E-01  9.1584259733255E-02  2.0387283765504E+00  2.0947170972943E-01
    52  5.1000000000000E-01  1.8447065568611E-02  2.0349356643540E+00  2.6081452485865E-01
    53  5.2000000000000E-01 -4.9583991210275E-02  2.0182640043819E+00  3.1825428641768E-01
    54  5.3000000000000E-01 -1.1219459844132E-01  1.9886421077145E+00  3.8154992161336E-01
    55  5.4000000000000E-01 -1.6913465742380E-01  1.9461644948293E+00  4.5037063115878E-01
    56  5.5000000000000E-01 -2.2022100085300E-01  1.8910985104853E+00  5.2429724720688E-01
    57  5.6000000000000E-01 -2.6533907000241E-01  1.8238877354488E+00  6.0282509875474E-01
    58  5.7000000000000E-01 -3.0444348291676E-01  1.7451514813416E+00  6.8536838546300E-01
    59  5.8000000000000E-01 -3.3755745076910E-01  1.6556801644342E+00  7.7126603205365E-01
    60  5.9000000000000E-01 -3.6477102714054E-01  1.5564264750427E+00  8.5978896640191E-01
    61  6.0000000000000E-01 -3.8623820399460E-01  1.4484923874429E+00  9.5014873573544E-01
    62  6.1000000000000E-01 -4.0217289769246E-01  1.3331121867925E+00  1.0415073476082E+00
    63  6.2000000000000E-01 -4.1284389761946E-01  1.2116318200252E+00  1.1329881961321E+00
    64  6.3000000000000E-01 -4.1856887796577E-01  1.0854850026490E+00  1.2236879099016E+00
    65  6.4000000000000E-01 -4.1970759902440E-01  9.5616662844868E-01  1.3126889366782E+00
    66  6.5000000000000E-01 -4.1665444720145E-01  8.2520413014505E-01  1.3990726616908E+00
    67  6.6000000000000E-01 -4.0983048200759E-01  6.9412752236192E-01  1.4819328417845E+00
    68  6.7000000000000E-01 -3.9967517295667E-01  5.6443892053601E-01  1.5603891269496E+00
    69  6.8000000000000E-01 -3.8663801900662E-01  4.3758236811912E-01  1.6336004342503E+00
    70  6.9000000000000E-01 -3.7117024754921E-01  3.1491481766229E-01  1.7007779370194E+00
    71  7.0000000000000E-01 -3.5371678876836E-01  1.9767909810787E-01  1.7611974344672E+00
    72  7.1000000000000E-01 -3.3470871438628E-01  8.6979660633701E-02  1.8142108735475E+00
    73  7.2000000000000E-01 -3.1455631752076E-01 -1.6238170649444E-02  1.8592568059277E+00
    74  7.3000000000000E-01 -2.9364299288027E-01 -1.1120480741159E-01  1.8958695780158E+00
    75  7.4000000000000E-01 -2.7232005427551E-01 -1.9733834226745E-01  1.9236870709244E+00
    76  7.5000000000000E-01 -2.5090260003587E-01 -2.7425143930807E-01  1.9424568296469E+00
    77  7.6000000000000E-01 -2.2966650711624E-01 -3.4175292618668E-01  1.9520404461628E+00
    78  7.7000000000000E-01 -2.0884660230791E-01 -3.9984400234429E-01  1.9524160892169E+00
    79  7.8000000000000E-01 -1.8863602495049E-01 -4.4870914281261E-01  1.9436791036256E+00
    80  7.9000000000000E-01 -1.6918676085470E-01 -4.8870194344641E-01  1.9260406336417E+00
    81  8.0000000000000E-01 -1.5061129278989E-01 -5.2032631637908E-01  1.8998242576248E+00
    82  8.1000000000000E-01 -1.3298527985054E-01 -5.4421359904213E-01  1.8654606545237E+00
    83  8.2000000000000E-01 -1.1635114725646E-01 -5.6109628143850E-01  1.8234803559837E+00
    84  8.3000000000000E-01 -1.0072244054487E-01 -5.7177918013159E-01  1.7745046708203E+00
    85  8.4000000000000E-01 -8.6088774490817E-02 -5.7710898960308E-01  1.7192349007547E+00
    86  8.5000000000000E-01 -7.2421188140314E-02 -5.7794321884213E-01  1.6584399973769E+00
    87  8.6000000000000E-01 -5.9677703639418E-02 -5.7511957043745E-01  1.5929428400386E+00
    88  8.7000000000000E-01 -4.7808878544565E-02 -5.6942683889509E-01  1.5236053426074E+00
    89  8.8000000000000E-01 -3.6763139322761E-02 -5.6157839291654E-01  1.4513126236672E+00
    90  8.9000000000000E-01 -2.6491687992340E-02 -5.5218926207457E-01  1.3769564998073E+00
    91  9.0000000000000E-01 -1.6952784392518E-02 -5.4175777144393E-01  1.3014185851980E+00
    92  9.1000000000000E-01 -8.1152233841148E-03 -5.3065255848005E-01  1.2255533028463E+00
    93  9.2000000000000E-01  3.9150723114408E-05 -5.1910566536333E-01  1.1501711339898E+00
    94  9.3000000000000E-01  7.5140212016795E-03 -5.0721222796655E-01  1.0760224522914E+00
    95  9.4000000000000E-01  1.4298361195746E-02 -4.9493708038294E-01  1.0037823091669E+00
    96  9.5000000000000E-01  2.0367434475738E-02 -4.8212836235539E-01  9.3403655606397E-01
    97  9.6000000000000E-01  2.5685041667446E-02 -4.6853795642045E-01  8.6726970918609E-01
    98  9.7000000000000E-01  3.0206967170287E-02 -4.5384829204121E-01  8.0385498237362E-01
    99  9.8000000000000E-01  3.3885524495329E-02 -4.3770473481258E-01  7.4404693498596E-01
   100  9.9000000000000E-01  3.6675034288399E-02 -4.1975242825977E-01  6.8797720397151E-01
   101  1.0000000000000E+00  3.8537999407878E-02 -3.9967607125020E-01  6.3565381314974E-01
   102  1.0100000000000E+00  3.9451664390352E-02 -3.7724069164140E-01  5.8696457825749E-01
   103  1.0200000000000E+00  3.9414561615656E-02 -3.5233101182745E-01  5.4168515363667E-01
   104  1.0300000000000E+00  3.8452552071125E-02 -3.2498648666287E-01  4.9949229564640E-01
   105  1.0400000000000E+00  3.6623763493861E-02 -2.9542852168436E-01  4.5998294884962E-01
   106  1.0500000000000E+00  3.4021711075570E-02 -2.6407574010803E-01  4.2269979356481E-01
   107  1.0600000000000E+00  3.0775753355063E-02 -2.3154244735189E-01  3.8716392729043E-01
   108  1.0700000000000E+00  2.7047886525247E-02 -1.9861463185089E-01  3.5291538722761E-01
   109  1.0800000000000E+00  2.3024711051884E-02 -1.6619692416751E-01  3.1956225622246E-01
   110  1.0900000000000E+00  1.8903208683818E-02 -1.3522287410110E-01  2.8683914344483E-01
   111  1.1000000000000E+00  1.4868822076718E-02 -1.0652020391806E-01  2.5467552291410E-01
   112  1.1100000000000E+00  1.1064848501695E-02 -8.0626431528505E-02  2.2327072353265E-01
   113  1.1200000000000E+00  7.5850984459581E-03 -5.7765577519195E-02  1.9302504086208E-01
   114  1.1300000000000E+00  4.5052192099987E-03 -3.8073495814548E-02  1.6432208438593E-01
   115  1.1400000000000E+00  1.8884782803933E-03 -2.1644242734461E-02  1.3748479276181E-01
   116  1.1500000000000E+00 -2.1690308547612E-04 -8.5193277233616E-03  1.1277691141991E-01
   117  1.1600000000000E+00 -1.7806207857402E-03  1.3245546725310E-03  9.0404454463136E-02
   118  1.1700000000000E+00 -2.7932929434990E-03  7.9889586229110E-03  7.0517243356763E-02
   119  1.1800000000000E+00 -3.2696060631873E-03  1.1668261567132E-02  5.3210286429221E-02
   120  1.1900000000000E+00 -3.2592166498949E-03  1.2702165977466E-02  3.8512715559856E-02
   121  1.2000000000000E+00 -2.9500099835993E-03  1.2078961389376E-02  2.6228675368373E-02
   122  1.2100000000000E+00 -2.4137148525294E-03  1.0200725764730E-02  1.6346381060633E-02
   123  1.2200000000000E+00 -1.7015138885226E-03  7.3421711065631E-03  8.8935196056007E-03
   124  1.2300000000000E+00 -9.3210670102768E-04  4.0792978542107E-03  3.8021835686474E-03
   125  1.2400000000000E+00 -2.8234492878900E-04  1.2477150894719E-03  9.0913629211653E-04
   126  1.2500000000000E+00 -1.0878748384373E-06  4.8146675233185E-06  2.9604662594499E-06
   127  1.2600000000000E+00 -2.3684399776539E-06  1.0528965022509E-05  6.3581341166546E-06
   128  1.2700000000000E+00  3.7698413842445E-07 -1.6702853858954E-06 -1.1298278686176E-06
   129  1.28 -0.  0. -0.
   130  1.29  0.  0.  0.
   131  1.30  0.  0.  0.
   132  1.31  0.  0.  0.
   133  1.32  0.  0.  0.
   134  1.33  0.  0.  0.
   135  1.34  0.  0.  0.
   136  1.35  0.  0.  0.
   137  1.36  0.  0.  0.
   138  1.37  0.  0.  0.
   139  1.38  0.  0.  0.
   140  1.39  0.  0.  0.
   141  1.40  0.  0.  0.
   142  1.41  0.  0.  0.
   143  1.42  0.  0.  0.
   144  1.43  0.  0.  0.
   145  1.44  0.  0.  0.
   146  1.45  0.  0.  0.
   147  1.46  0.  0.  0.
   148  1.47  0.  0.  0.
   149  1.48  0.  0.  0.
   150  1.49  0.  0.  0.
   151  1.50  0.  0.  0.
   152  1.51  0.  0.  0.
   153  1.52  0.  0.  0.
   154  1.53  0.  0.  0.
   155  1.54  0.  0.  0.
   156  1.55  0.  0.  0.
   157  1.56  0.  0.  0.
   158  1.57  0.  0.  0.
   159  1.58  0.  0.  0.
   160  1.59  0.  0.  0.
   161  1.60  0.  0.  0.
   162  1.61  0.  0.  0.
   163  1.62  0.  0.  0.
   164  1.63  0.  0.  0.
   165  1.64  0.  0.  0.
   166  1.65  0.  0.  0.
   167  1.66  0.  0.  0.
   168  1.67  0.  0.  0.
   169  1.68  0.  0.  0.
   170  1.69  0.  0.  0.
   171  1.70  0.  0.  0.
   172  1.71  0.  0.  0.
   173  1.72  0.  0.  0.
   174  1.73  0.  0.  0.
   175  1.74  0.  0.  0.
   176  1.75  0.  0.  0.
   177  1.76  0.  0.  0.
   178  1.77  0.  0.  0.
   179  1.78  0.  0.  0.
   180  1.79  0.  0.  0.
   181  1.80  0.  0.  0.
   182  1.81  0.  0.  0.
   183  1.82  0.  0.  0.
   184  1.83  0.  0.  0.
   185  1.84  0.  0.  0.
   186  1.85  0.  0.  0.
   187  1.86  0.  0.  0.
   188  1.87  0.  0.  0.
   189  1.88  0.  0.  0.
   190  1.89  0.  0.  0.
   191  1.90  0.  0.  0.
   192  1.91  0.  0.  0.
   193  1.92  0.  0.  0.
   194  1.93  0.  0.  0.
   195  1.94  0.  0.  0.
   196  1.95  0.  0.  0.
   197  1.96  0.  0.  0.
   198  1.97  0.  0.  0.
   199  1.98  0.  0.  0.
   200  1.99  0.  0.  0.
   201  2.00  0.  0.  0.
   202  2.01  0.  0.  0.
   203  2.02  0.  0.  0.
   204  2.03  0.  0.  0.
   205  2.04  0.  0.  0.
   206  2.05  0.  0.  0.
   207  2.06  0.  0.  0.
   208  2.07  0.  0.  0.
   209  2.08  0.  0.  0.
   210  2.09  0.  0.  0.
   211  2.10  0.  0.  0.
   212  2.11  0.  0.  0.
   213  2.12  0.  0.  0.
   214  2.13  0.  0.  0.
   215  2.14  0.  0.  0.
   216  2.15  0.  0.  0.
   217  2.16  0.  0.  0.
   218  2.17  0.  0.  0.
   219  2.18  0.  0.  0.
   220  2.19  0.  0.  0.
   221  2.20  0.  0.  0.
   222  2.21  0.  0.  0.
   223  2.22  0.  0.  0.
   224  2.23  0.  0.  0.
   225  2.24  0.  0.  0.
   226  2.25  0.  0.  0.
   227  2.26  0.  0.  0.
   228  2.27  0.  0.  0.
   229  2.28  0.  0.  0.
   230  2.29  0.  0.  0.
   231  2.30  0.  0.  0.
   232  2.31  0.  0.  0.
   233  2.32  0.  0.  0.
   234  2.33  0.  0.  0.
   235  2.34  0.  0.  0.
   236  2.35  0.  0.  0.
   237  2.36  0.  0.  0.
   238  2.37  0.  0.  0.
   239  2.38  0.  0.  0.
   240  2.39  0.  0.  0.
   241  2.40  0.  0.  0.
   242  2.41  0.  0.  0.
   243  2.42  0.  0.  0.
   244  2.43  0.  0.  0.
   245  2.44  0.  0.  0.
   246  2.45  0.  0.  0.
   247  2.46  0.  0.  0.
   248  2.47  0.  0.  0.
   249  2.48  0.  0.  0.
   250  2.49  0.  0.  0.
   251  2.50  0.  0.  0.
   252  2.51  0.  0.  0.
   253  2.52  0.  0.  0.
   254  2.53  0.  0.  0.
   255  2.54  0.  0.  0.
   256  2.55  0.  0.  0.
   257  2.56  0.  0.  0.
   258  2.57  0.  0.  0.
   259  2.58  0.  0.  0.
   260  2.59  0.  0.  0.
   261  2.60  0.  0.  0.
   262  2.61  0.  0.  0.
   263  2.62  0.  0.  0.
   264  2.63  0.  0.  0.
   265  2.64  0.  0.  0.
   266  2.65  0.  0.  0.
   267  2.66  0.  0.  0.
   268  2.67  0.  0.  0.
   269  2.68  0.  0.  0.
   270  2.69  0.  0.  0.
   271  2.70  0.  0.  0.
   272  2.71  0.  0.  0.
   273  2.72  0.  0.  0.
   274  2.73  0.  0.  0.
   275  2.74  0.  0.  0.
   276  2.75  0.  0.  0.
   277  2.76  0.  0.  0.
   278  2.77  0.  0.  0.
   279  2.78  0.  0.  0.
   280  2.79  0.  0.  0.
   281  2.80  0.  0.  0.
   282  2.81  0.  0.  0.
   283  2.82  0.  0.  0.
   284  2.83  0.  0.  0.
   285  2.84  0.  0.  0.
   286  2.85  0.  0.  0.
   287  2.86  0.  0.  0.
   288  2.87  0.  0.  0.
   289  2.88  0.  0.  0.
   290  2.89  0.  0.  0.
   291  2.90  0.  0.  0.
   292  2.91  0.  0.  0.
   293  2.92  0.  0.  0.
   294  2.93  0.  0.  0.
   295  2.94  0.  0.  0.
   296  2.95  0.  0.  0.
   297  2.96  0.  0.  0.
   298  2.97  0.  0.  0.
   299  2.98  0.  0.  0.
   300  2.99  0.  0.  0.
   301  3.00  0.  0.  0.
   302  3.01  0.  0.  0.
   303  3.02  0.  0.  0.
   304  3.03  0.  0.  0.
   305  3.04  0.  0.  0.
   306  3.05  0.  0.  0.
   307  3.06  0.  0.  0.
   308  3.07  0.  0.  0.
   309  3.08  0.  0.  0.
   310  3.09  0.  0.  0.
   311  3.10  0.  0.  0.
   312  3.11  0.  0.  0.
   313  3.12  0.  0.  0.
   314  3.13  0.  0.  0.
   315  3.14  0.  0.  0.
   316  3.15  0.  0.  0.
   317  3.16  0.  0.  0.
   318  3.17  0.  0.  0.
   319  3.18  0.  0.  0.
   320  3.19  0.  0.  0.
   321  3.20  0.  0.  0.
   322  3.21  0.  0.  0.
   323  3.22  0.  0.  0.
   324  3.23  0.  0.  0.
   325  3.24  0.  0.  0.
   326  3.25  0.  0.  0.
   327  3.26  0.  0.  0.
   328  3.27  0.  0.  0.
   329  3.28  0.  0.  0.
   330  3.29  0.  0.  0.
   331  3.30  0.  0.  0.
   332  3.31  0.  0.  0.
   333  3.32  0.  0.  0.
   334  3.33  0.  0.  0.
   335  3.34  0.  0.  0.
   336  3.35  0.  0.  0.
   337  3.36  0.  0.  0.
   338  3.37  0.  0.  0.
   339  3.38  0.  0.  0.
   340  3.39  0.  0.  0.
   341  3.40  0.  0.  0.
   342  3.41  0.  0.  0.
   343  3.42  0.  0.  0.
   344  3.43  0.  0.  0.
   345  3.44  0.  0.  0.
   346  3.45  0.  0.  0.
   347  3.46  0.  0.  0.
   348  3.47  0.  0.  0.
   349  3.48  0.  0.  0.
   350  3.49  0.  0.  0.
   351  3.50  0.  0.  0.
   352  3.51  0.  0.  0.
   353  3.52  0.  0.  0.
   354  3.53  0.  0.  0.
   355  3.54  0.  0.  0.
   356  3.55  0.  0.  0.
   357  3.56  0.  0.  0.
   358  3.57  0.  0.  0.
   359  3.58  0.  0.  0.
   360  3.59  0.  0.  0.
   361  3.60  0.  0.  0.
   362  3.61  0.  0.  0.
   363  3.62  0.  0.  0.
   364  3.63  0.  0.  0.
   365  3.64  0.  0.  0.
   366  3.65  0.  0.  0.
   367  3.66  0.  0.  0.
   368  3.67  0.  0.  0.
   369  3.68  0.  0.  0.
   370  3.69  0.  0.  0.
   371  3.70  0.  0.  0.
   372  3.71  0.  0.  0.
   373  3.72  0.  0.  0.
   374  3.73  0.  0.  0.
   375  3.74  0.  0.  0.
   376  3.75  0.  0.  0.
   377  3.76  0.  0.  0.
   378  3.77  0.  0.  0.
   379  3.78  0.  0.  0.
   380  3.79  0.  0.  0.
   381  3.80  0.  0.  0.
   382  3.81  0.  0.  0.
   383  3.82  0.  0.  0.
   384  3.83  0.  0.  0.
   385  3.84  0.  0.  0.
   386  3.85  0.  0.  0.
   387  3.86  0.  0.  0.
   388  3.87  0.  0.  0.
   389  3.88  0.  0.  0.
   390  3.89  0.  0.  0.
   391  3.90  0.  0.  0.
   392  3.91  0.  0.  0.
   393  3.92  0.  0.  0.
   394  3.93  0.  0.  0.
   395  3.94  0.  0.  0.
   396  3.95  0.  0.  0.
   397  3.96  0.  0.  0.
   398  3.97  0.  0.  0.
   399  3.98  0.  0.  0.
   400  3.99  0.  0.  0.
   401  4.00  0.  0.  0.
   402  4.01  0.  0.  0.
   403  4.02  0.  0.  0.
   404  4.03  0.  0.  0.
   405  4.04  0.  0.  0.
   406  4.05  0.  0.  0.
   407  4.06  0.  0.  0.
   408  4.07  0.  0.  0.
   409  4.08  0.  0.  0.
   410  4.09  0.  0.  0.
   411  4.10  0.  0.  0.
   412  4.11  0.  0.  0.
   413  4.12  0.  0.  0.
   414  4.13  0.  0.  0.
   415  4.14  0.  0.  0.
   416  4.15  0.  0.  0.
   417  4.16  0.  0.  0.
   418  4.17  0.  0.  0.
   419  4.18  0.  0.  0.
   420  4.19  0.  0.  0.
   421  4.20  0.  0.  0.
   422  4.21  0.  0.  0.
   423  4.22  0.  0.  0.
   424  4.23  0.  0.  0.
   425  4.24  0.  0.  0.
   426  4.25  0.  0.  0.
   427  4.26  0.  0.  0.
   428  4.27  0.  0.  0.
   429  4.28  0.  0.  0.
   430  4.29  0.  0.  0.
   431  4.30  0.  0.  0.
   432  4.31  0.  0.  0.
   433  4.32  0.  0.  0.
   434  4.33  0.  0.  0.
   435  4.34  0.  0.  0.
   436  4.35  0.  0.  0.
   437  4.36  0.  0.  0.
   438  4.37  0.  0.  0.
   439  4.38  0.  0.  0.
   440  4.39  0.  0.  0.
   441  4.40  0.  0.  0.
   442  4.41  0.  0.  0.
   443  4.42  0.  0.  0.
   444  4.43  0.  0.  0.
   445  4.44  0.  0.  0.
   446  4.45  0.  0.  0.
   447  4.46  0.  0.  0.
   448  4.47  0.  0.  0.
   449  4.48  0.  0.  0.
   450  4.49  0.  0.  0.
   451  4.50  0.  0.  0.
   452  4.51  0.  0.  0.
   453  4.52  0.  0.  0.
   454  4.53  0.  0.  0.
   455  4.54  0.  0.  0.
   456  4.55  0.  0.  0.
   457  4.56  0.  0.  0.
   458  4.57  0.  0.  0.
   459  4.58  0.  0.  0.
   460  4.59  0.  0.  0.
   461  4.60  0.  0.  0.
   462  4.61  0.  0.  0.
   463  4.62  0.  0.  0.
   464  4.63  0.  0.  0.
   465  4.64  0.  0.  0.
   466  4.65  0.  0.  0.
   467  4.66  0.  0.  0.
   468  4.67  0.  0.  0.
   469  4.68  0.  0.  0.
   470  4.69  0.  0.  0.
   471  4.70  0.  0.  0.
   472  4.71  0.  0.  0.
   473  4.72  0.  0.  0.
   474  4.73  0.  0.  0.
   475  4.74  0.  0.  0.
   476  4.75  0.  0.  0.
   477  4.76  0.  0.  0.
   478  4.77  0.  0.  0.
   479  4.78  0.  0.  0.
   480  4.79  0.  0.  0.
   481  4.80  0.  0.  0.
   482  4.81  0.  0.  0.
   483  4.82  0.  0.  0.
   484  4.83  0.  0.  0.
   485  4.84  0.  0.  0.
   486  4.85  0.  0.  0.
   487  4.86  0.  0.  0.
   488  4.87  0.  0.  0.
   489  4.88  0.  0.  0.
   490  4.89  0.  0.  0.
   491  4.90  0.  0.  0.
   492  4.91  0.  0.  0.
   493  4.92  0.  0.  0.
   494  4.93  0.  0.  0.
   495  4.94  0.  0.  0.
   496  4.95  0.  0.  0.
   497  4.96  0.  0.  0.
   498  4.97  0.  0.  0.
   499  4.98  0.  0.  0.
   500  4.99  0.  0.  0.
   501  5.00  0.  0.  0.
   502  5.01  0.  0.  0.
   503  5.02  0.  0.  0.
   504  5.03  0.  0.  0.
   505  5.04  0.  0.  0.
   506  5.05  0.  0.  0.
   507  5.06  0.  0.  0.
   508  5.07  0.  0.  0.
   509  5.08  0.  0.  0.
   510  5.09  0.  0.  0.
   511  5.10  0.  0.  0.
   512  5.11  0.  0.  0.
   513  5.12  0.  0.  0.
   514  5.13  0.  0.  0.
   515  5.14  0.  0.  0.
   516  5.15  0.  0.  0.
   517  5.16  0.  0.  0.
   518  5.17  0.  0.  0.
   519  5.18  0.  0.  0.
   520  5.19  0.  0.  0.
   521  5.20  0.  0.  0.
   522  5.21  0.  0.  0.
   523  5.22  0.  0.  0.
   524  5.23  0.  0.  0.
   525  5.24  0.  0.  0.
   526  5.25  0.  0.  0.
   527  5.26  0.  0.  0.
   528  5.27  0.  0.  0.
   529  5.28  0.  0.  0.
   530  5.29  0.  0.  0.
   531  5.30  0.  0.  0.
   532  5.31  0.  0.  0.
   533  5.32  0.  0.  0.
   534  5.33  0.  0.  0.
   535  5.34  0.  0.  0.
   536  5.35  0.  0.  0.
   537  5.36  0.  0.  0.
   538  5.37  0.  0.  0.
   539  5.38  0.  0.  0.
   540  5.39  0.  0.  0.
   541  5.40  0.  0.  0.
   542  5.41  0.  0.  0.
   543  5.42  0.  0.  0.
   544  5.43  0.  0.  0.
   545  5.44  0.  0.  0.
   546  5.45  0.  0.  0.
   547  5.46  0.  0.  0.
   548  5.47  0.  0.  0.
   549  5.48  0.  0.  0.
   550  5.49  0.  0.  0.
   551  5.50  0.  0.  0.
   552  5.51  0.  0.  0.
   553  5.52  0.  0.  0.
   554  5.53  0.  0.  0.
   555  5.54  0.  0.  0.
   556  5.55  0.  0.  0.
   557  5.56  0.  0.  0.
   558  5.57  0.  0.  0.
   559  5.58  0.  0.  0.
   560  5.59  0.  0.  0.
   561  5.60  0.  0.  0.
   562  5.61  0.  0.  0.
   563  5.62  0.  0.  0.
   564  5.63  0.  0.  0.
   565  5.64  0.  0.  0.
   566  5.65  0.  0.  0.
   567  5.66  0.  0.  0.
   568  5.67  0.  0.  0.
   569  5.68  0.  0.  0.
   570  5.69  0.  0.  0.
   571  5.70  0.  0.  0.
   572  5.71  0.  0.  0.
   573  5.72  0.  0.  0.
   574  5.73  0.  0.  0.
   575  5.74  0.  0.  0.
   576  5.75  0.  0.  0.
   577  5.76  0.  0.  0.
   578  5.77  0.  0.  0.
   579  5.78  0.  0.  0.
   580  5.79  0.  0.  0.
   581  5.80  0.  0.  0.
   582  5.81  0.  0.  0.
   583  5.82  0.  0.  0.
   584  5.83  0.  0.  0.
   585  5.84  0.  0.  0.
   586  5.85  0.  0.  0.
   587  5.86  0.  0.  0.
   588  5.87  0.  0.  0.
   589  5.88  0.  0.  0.
   590  5.89  0.  0.  0.
   591  5.90  0.  0.  0.
   592  5.91  0.  0.  0.
   593  5.92  0.  0.  0.
   594  5.93  0.  0.  0.
   595  5.94  0.  0.  0.
   596  5.95  0.  0.  0.
   597  5.96  0.  0.  0.
   598  5.97  0.  0.  0.
   599  5.98  0.  0.  0.
   600  5.99  0.  0.  0.
   1                         9.9553699189527E+00 -1.7704734596825E+00
     1  0.0000000000000E+00  2.0708664782987E-09  5.6213272925376E-10
     2  1.0000000000000E-02  3.0518626483864E-03 -4.3917090625093E-03
     3  2.0000000000000E-02  1.2187163904163E-02 -1.7514143766428E-02
     4  3.0000000000000E-02  2.7345182747001E-02 -3.9209630839583E-02
     5  4.0000000000000E-02  4.8425179801158E-02 -6.9216730608574E-02
     6  5.0000000000000E-02  7.5287086752040E-02 -1.0717226694501E-01
     7  6.0000000000000E-02  1.0775246344922E-01 -1.5261418100926E-01
     8  7.0000000000000E-02  1.4560571475673E-01 -2.0498521892894E-01
     9  8.0000000000000E-02  1.8859555714052E-01 -2.6363746411145E-01
    10  9.0000000000000E-02  2.3643672305361E-01 -3.2783772381779E-01
    11  1.0000000000000E-01  2.8881188941482E-01 -3.9677377668336E-01
    12  1.1000000000000E-01  3.4537381489856E-01 -4.6956148289166E-01
    13  1.2000000000000E-01  4.0574766937477E-01 -5.4525275159963E-01
    14  1.3000000000000E-01  4.6953353767190E-01 -6.2284435097173E-01
    15  1.4000000000000E-01  5.3630907888631E-01 -7.0128753488068E-01
    16  1.5000000000000E-01  6.0563232173034E-01 -7.7949844713990E-01
    17  1.6000000000000E-01  6.7704457589332E-01 -8.5636924929224E-01
    18  1.7000000000000E-01  7.5007343907696E-01 -9.3077990181424E-01
    19  1.8000000000000E-01  8.2423587924497E-01 -1.0016105114996E+00
    20  1.9000000000000E-01  8.9904137168025E-01 -1.0677541402131E+00
    21  2.0000000000000E-01  9.7399507065127E-01 -1.1281299526580E+00
    22  2.1000000000000E-01  1.0486009958301E+00 -1.1816965638140E+00
    23  2.2000000000000E-01  1.1223652140542E+00 -1.2274654308322E+00
    24  2.3000000000000E-01  1.1947989975594E+00 -1.2645141199781E+00
    25  2.4000000000000E-01  1.2654219404042E+00 -1.2919992672386E+00
    26  2.5000000000000E-01  1.3337650154392E+00 -1.3091690419677E+00
    27  2.6000000000000E-01  1.3993735548217E+00 -1.3153749169060E+00
    28  2.7000000000000E-01  1.4618101377218E+00 -1.3100825454807E+00
    29  2.8000000000000E-01  1.5206573694899E+00 -1.2928815487991E+00
    30  2.9000000000000E-01  1.5755205371587E+00 -1.2634940204351E+00
    31  3.0000000000000E-01  1.6260301267078E+00 -1.2217815671202E+00
    32  3.1000000000000E-01  1.6718441880489E+00 -1.1677507178142E+00
    33  3.2000000000000E-01  1.7126505341710E+00 -1.1015565522813E+00
    34  3.3000000000000E-01  1.7481687613508E+00 -1.0235044230382E+00
    35  3.4000000000000E-01  1.7781520777713E+00 -9.3404967107541E-01
    36  3.5000000000000E-01  1.8023889283407E+00 -8.3379526566106E-01
    37  3.6000000000000E-01  1.8207044039644E+00 -7.2348733132323E-01
    38  3.7000000000000E-01  1.8329614240325E+00 -6.0400856014751E-01
    39  3.8000000000000E-01  1.8390616814619E+00 -4.7636954415791E-01
    40  3.9000000000000E-01  1.8389463403021E+00 -3.4169810001336E-01
    41  4.0000000000000E-01  1.8325964767103E+00 -2.0122669576396E-01
    42  4.1000000000000E-01  1.8200332550410E+00 -5.6278126149187E-02
    43  4.2000000000000E-01  1.8013178319078E+00  9.1750381941845E-02
    44  4.3000000000000E-01  1.7765509823840E+00  2.4140441950134E-01
    45  4.4000000000000E-01  1.7458724440201E+00  3.9119075704431E-01
    46  4.5000000000000E-01  1.7094599760922E+00  5.3959654836137E-01
    47  4.6000000000000E-01  1.6675281334593E+00  6.8510908583282E-01
    48  4.7000000000000E-01  1.6203267565887E+00  8.2623580083178E-01
    49  4.8000000000000E-01  1.5681391817154E+00  9.6152419240325E-01
    50  4.9000000000000E-01  1.5112801776997E+00  1.0895813629834E+00
    51  5.0000000000000E-01  1.4500936189281E+00  1.2090928416213E+00
    52  5.1000000000000E-01  1.3849499065200E+00  1.3188403830588E+00
    53  5.2000000000000E-01  1.3162431531335E+00  1.4177184450338E+00
    54  5.3000000000000E-01  1.2443881497468E+00  1.5047490661007E+00
    55  5.4000000000000E-01  1.1698171358829E+00  1.5790948917529E+00
    56  5.5000000000000E-01  1.0929763977900E+00  1.6400701272205E+00
    57  5.6000000000000E-01  1.0143227220212E+00  1.6871492304086E+00
    58  5.7000000000000E-01  9.3431973461288E-01  1.7199731973478E+00
    59  5.8000000000000E-01  8.5343415858459E-01  1.7383533344616E+00
    60  5.9000000000000E-01  7.7213202470198E-01  1.7422724560745E+00
    61  6.0000000000000E-01  6.9087487230209E-01  1.7318834909888E+00
    62  6.1000000000000E-01  6.1011597842231E-01  1.7075055277285E+00
    63  6.2000000000000E-01  5.3029665444612E-01  1.6696173732574E+00
    64  6.3000000000000E-01  4.5184264993876E-01  1.6188487437209E+00
    65  6.4000000000000E-01  3.7516070325988E-01  1.5559692471723E+00
    66  6.5000000000000E-01  3.0063527788182E-01  1.4818753565190E+00
    67  6.6000000000000E-01  2.2862552209866E-01  1.3975756053303E+00
    68  6.7000000000000E-01  1.5946248797958E-01  1.3041742690719E+00
    69  6.8000000000000E-01  9.3446643010504E-02  1.2028538192277E+00
    70  6.9000000000000E-01  3.0845704901560E-02  1.0948564572554E+00
    71  7.0000000000000E-01 -2.8107173450460E-02  9.8146504910673E-01
    72  7.1000000000000E-01 -8.3214845821699E-02  8.6398378897659E-01
    73  7.2000000000000E-01 -1.3431722270823E-01  7.4371892300714E-01
    74  7.3000000000000E-01 -1.8129191567012E-01  6.2195985995654E-01
    75  7.4000000000000E-01 -2.2405446711188E-01  4.9996098655675E-01
    76  7.5000000000000E-01 -2.6255816187264E-01  3.7892449074831E-01
    77  7.6000000000000E-01 -2.9679342235599E-01  2.5998447658703E-01
    78  7.7000000000000E-01 -3.2678679432340E-01  1.4419263084251E-01
    79  7.8000000000000E-01 -3.5259953582122E-01  3.2505673672416E-02
    80  7.9000000000000E-01 -3.7432582692670E-01 -7.4225205182568E-02
    81  8.0000000000000E-01 -3.9209062300617E-01 -1.7526275691755E-01
    82  8.1000000000000E-01 -4.0604717890644E-01 -2.6998979899195E-01
    83  8.2000000000000E-01 -4.1637427588631E-01 -3.5791296088209E-01
    84  8.3000000000000E-01 -4.2327318708780E-01 -4.3866399457202E-01
    85  8.4000000000000E-01 -4.2696442090563E-01 -5.1199863357033E-01
    86  8.5000000000000E-01 -4.2768428471342E-01 -5.7779302416547E-01