Pa    ONCVPSP-4.0.1  r_core=   1.10257   1.10257   1.10257   1.10257
91.0000     31.0000      220325    zatom,zion,pspd
8      11   3     4   600     0    pspcod,pspxc,lmax,lloc,mmax,r2well
5.99000000  5.00000000  0.00000000    rchrg fchrg qchrg
3     2     2     1     0    nproj
1     1           extension_switch
0                         2.9435032493742E+01 -1.0239997161333E+01  2.7592228755750E+00
1  0.0000000000000E+00  2.7462662166577E-07  2.6161849133732E-06 -5.7417546583949E-07
2  1.0000000000000E-02  7.5710072525895E-02 -2.6703703211454E-01  3.2309214049988E-02
3  2.0000000000000E-02  1.5223136067366E-01 -5.2409633774045E-01  6.2390703931531E-02
4  3.0000000000000E-02  2.3033001499835E-01 -7.6161388267204E-01  8.8114514043671E-02
5  4.0000000000000E-02  3.1068392202627E-01 -9.7083565205518E-01  1.0754227680712E-01
6  5.0000000000000E-02  3.9384316120363E-01 -1.1441799754356E+00  1.1901329320082E-01
7  6.0000000000000E-02  4.8019575809641E-01 -1.2755506392936E+00  1.2121939673169E-01
8  7.0000000000000E-02  5.6994015769088E-01 -1.3605876410551E+00  1.1326557552768E-01
9  8.0000000000000E-02  6.6306556701739E-01 -1.3968450547554E+00  9.4713901419496E-02
10  9.0000000000000E-02  7.5934099483636E-01 -1.3838885368240E+00  6.5608987601540E-02
11  1.0000000000000E-01  8.5831346098628E-01 -1.3233083727035E+00  2.6483940454498E-02
12  1.1000000000000E-01  9.5931547377920E-01 -1.2186475098932E+00 -2.1653443788280E-02
13  1.2000000000000E-01  1.0614814959013E+00 -1.0752475918654E+00 -7.7353692468070E-02
14  1.3000000000000E-01  1.1637727531400E+00 -9.0001945049019E-01 -1.3877656347301E-01
15  1.4000000000000E-01  1.2650094009320E+00 -7.0114768760968E-01 -2.0375781185598E-01
16  1.5000000000000E-01  1.3639087651108E+00 -4.8774174603404E-01 -2.6988914799277E-01
17  1.6000000000000E-01  1.4591281275469E+00 -2.6944812013286E-01 -3.3460819372691E-01
18  1.7000000000000E-01  1.5493103446489E+00 -5.6039991760826E-02 -3.9529484742586E-01
19  1.8000000000000E-01  1.6331304743563E+00  1.4299847034353E-01 -4.4937021912885E-01
20  1.9000000000000E-01  1.7093415498151E+00  3.1887568051459E-01 -4.9439420290741E-01
21  2.0000000000000E-01  1.7768176768150E+00  4.6386711244128E-01 -5.2815781872769E-01
22  2.1000000000000E-01  1.8345927455286E+00  5.7164493501732E-01 -5.4876667753550E-01
23  2.2000000000000E-01  1.8818932303211E+00  6.3754893847224E-01 -5.5471229165698E-01
24  2.3000000000000E-01  1.9181637966872E+00  6.5878734126504E-01 -5.4492845257760E-01
25  2.4000000000000E-01  1.9430847314437E+00  6.3455900695582E-01 -5.1883050905466E-01
26  2.5000000000000E-01  1.9565805487818E+00  5.6609189430122E-01 -4.7633607512415E-01
27  2.6000000000000E-01  1.9588194866190E+00  4.5659607455653E-01 -4.1786645122428E-01
28  2.7000000000000E-01  1.9502039798595E+00  3.1113322956058E-01 -3.4432882141161E-01
29  2.8000000000000E-01  1.9313525641995E+00  1.3640804191752E-01 -2.5708006353313E-01
30  2.9000000000000E-01  1.9030740108006E+00 -5.9509842846598E-02 -1.5787374557601E-01
31  3.0000000000000E-01  1.8663348041513E+00 -2.6752170046966E-01 -4.8792550208504E-02
32  3.1000000000000E-01  1.8222213398988E+00 -4.7787946382505E-01  6.7831056435466E-02
33  3.2000000000000E-01  1.7718984255102E+00 -6.8059349297681E-01  1.8950263959250E-01
34  3.3000000000000E-01  1.7165658059458E+00 -8.6585140551057E-01  3.1365850234043E-01
35  3.4000000000000E-01  1.6574145035438E+00 -1.0244305511786E+00  4.3775952067774E-01
36  3.5000000000000E-01  1.5955847535261E+00 -1.1480870048052E+00  5.5938232834235E-01
37  3.6000000000000E-01  1.5321272345884E+00 -1.2299049597594E+00  6.7630421178939E-01
38  3.7000000000000E-01  1.4679691416971E+00 -1.2645920869974E+00  7.8657836364727E-01
39  3.8000000000000E-01  1.4038864322208E+00 -1.2487087090814E+00  8.8859656683711E-01
40  3.9000000000000E-01  1.3404833062454E+00 -1.1808214263525E+00  9.8113692308095E-01
41  4.0000000000000E-01  1.2781796690276E+00 -1.0615750041836E+00  1.0633948756617E+00
42  4.1000000000000E-01  1.2172069814311E+00 -8.9367975020658E-01  1.1349964800649E+00
43  4.2000000000000E-01  1.1576125474621E+00 -6.8181513277504E-01  1.1959936179021E+00
44  4.3000000000000E-01  1.0992719318347E+00 -4.3245386671698E-01  1.2468415981682E+00
45  4.4000000000000E-01  1.0419088599087E+00 -1.5361397235611E-01  1.2883603142222E+00
46  4.5000000000000E-01  9.8512164169368E-01  1.4545073973566E-01  1.3216807948397E+00
47  4.6000000000000E-01  9.2841489387277E-01  4.5460881632063E-01  1.3481795756982E+00
48  4.7000000000000E-01  8.7123512006082E-01  7.6324307051308E-01  1.3694037997427E+00
49  4.8000000000000E-01  8.1300855848154E-01  1.0606600916657E+00  1.3869903116770E+00
50  4.9000000000000E-01  7.5317962390582E-01  1.3365005960424E+00  1.4025822293730E+00
51  5.0000000000000E-01  6.9124826003133E-01  1.5811339695338E+00  1.4177465453313E+00
52  5.1000000000000E-01  6.2680457940788E-01  1.7860211657731E+00  1.4338962327228E+00
53  5.2000000000000E-01  5.5955929733735E-01  1.9440315953256E+00  1.4522201076530E+00
54  5.3000000000000E-01  4.8936865781337E-01  2.0497017054034E+00  1.4736233427688E+00
55  5.4000000000000E-01  4.1625279476839E-01  2.0994255106333E+00  1.4986810534704E+00
56  5.5000000000000E-01  3.4040675969354E-01  2.0915702788865E+00  1.5276068078788E+00
57  5.6000000000000E-01  2.6220376435997E-01  2.0265137712893E+00  1.5602372703616E+00
58  5.7000000000000E-01  1.8219052099538E-01  1.9066027417598E+00  1.5960335035977E+00
59  5.8000000000000E-01  1.0107489739389E-01  1.7360356747004E+00  1.6340987552366E+00
60  5.9000000000000E-01  1.9706426670844E-02  1.5206758386257E+00  1.6732118717920E+00
61  6.0000000000000E-01 -6.0949492961775E-02  1.2678035265129E+00  1.7118748431538E+00
62  6.1000000000000E-01 -1.3984261630126E-01  9.8581872352282E-01  1.7483724124081E+00
63  6.2000000000000E-01 -2.1587278780744E-01  6.8390729243289E-01  1.7808412105920E+00
64  6.3000000000000E-01 -2.8792734797290E-01  3.7168502395593E-01  1.8073455133400E+00
65  6.4000000000000E-01 -3.5491947446693E-01  5.8834517515014E-02  1.8259564798047E+00
66  6.5000000000000E-01 -4.1582590317475E-01 -2.4525017848018E-01  1.8348316318493E+00
67  6.6000000000000E-01 -4.6972252037540E-01 -5.3179691649613E-01  1.8322913655802E+00
68  6.7000000000000E-01 -5.1581642646151E-01 -7.9295381897668E-01  1.8168894541320E+00
69  6.8000000000000E-01 -5.5347323809797E-01 -1.0220415087186E+00  1.7874747910221E+00
70  6.9000000000000E-01 -5.8223861139285E-01 -1.2137502985332E+00  1.7432420228918E+00
71  7.0000000000000E-01 -6.0185322338791E-01 -1.3642760288981E+00  1.6837692102821E+00
72  7.1000000000000E-01 -6.1226073126596E-01 -1.4713910458231E+00  1.6090412128564E+00
73  7.2000000000000E-01 -6.1360852548746E-01 -1.5344496988027E+00  1.5194580964104E+00
74  7.3000000000000E-01 -6.0624139150457E-01 -1.5543305798428E+00  1.4158284768376E+00
75  7.4000000000000E-01 -5.9068848193670E-01 -1.5333203940271E+00  1.2993483246850E+00
76  7.5000000000000E-01 -5.6764426494787E-01 -1.4749467341629E+00  1.1715663274897E+00
77  7.6000000000000E-01 -5.3794434423685E-01 -1.3837690272766E+00  1.0343374224217E+00
78  7.7000000000000E-01 -5.0253723240581E-01 -1.2651384488824E+00  8.8976654841108E-01
79  7.8000000000000E-01 -4.6245329545761E-01 -1.1249386047193E+00  7.4014500821007E-01
80  7.9000000000000E-01 -4.1877216709387E-01 -9.6931922692547E-01  5.8788206442011E-01
81  8.0000000000000E-01 -3.7258995509731E-01 -8.0443501593601E-01  4.3543451176868E-01
82  8.1000000000000E-01 -3.2498752860723E-01 -6.3620109954287E-01  2.8523696804516E-01
83  8.2000000000000E-01 -2.7700108713669E-01 -4.7007541913801E-01  1.3963551004479E-01
84  8.3000000000000E-01 -2.2959607447155E-01 -3.1087675341968E-01  8.2705497398051E-04
85  8.4000000000000E-01 -1.8364531969265E-01 -1.6264513206067E-01 -1.2919343774549E-01
86  8.5000000000000E-01 -1.3991207145104E-01 -2.8549168666976E-02 -2.4867628107976E-01
87  8.6000000000000E-01 -9.9038349231470E-02  8.9157546305268E-02 -3.5614971044770E-01
88  8.7000000000000E-01 -6.1538776045574E-02  1.8913130443344E-01 -4.5044122391277E-01
89  8.8000000000000E-01 -2.7799790121002E-02  2.7088711991610E-01 -5.3068753857485E-01
90  8.9000000000000E-01  1.9161325411826E-03  3.3470657639777E-01 -5.9633367937674E-01
91  9.0000000000000E-01  2.7461869648699E-02  3.8151180007625E-01 -6.4712230979427E-01
92  9.1000000000000E-01  4.8793524607876E-02  4.1271451754882E-01 -6.8307499686003E-01
93  9.2000000000000E-01  6.5955867286497E-02  4.3005070098931E-01 -7.0446766523044E-01
94  9.3000000000000E-01  7.9066631288970E-02  4.3541253885678E-01 -7.1180302948831E-01
95  9.4000000000000E-01  8.8301132242568E-02  4.3069040735824E-01 -7.0578329739807E-01
96  9.5000000000000E-01  9.3878827393516E-02  4.1763819012557E-01 -6.8728691006238E-01
97  9.6000000000000E-01  9.6053575523681E-02  3.9777575784645E-01 -6.5735353241232E-01
98  9.7000000000000E-01  9.5109483690390E-02  3.7234275372706E-01 -6.1718193753175E-01
99  9.8000000000000E-01  9.1364351071574E-02  3.4231813014427E-01 -5.6814585232842E-01
100  9.9000000000000E-01  8.5182849308476E-02  3.0852025674030E-01 -5.1183326456728E-01
101  1.0000000000000E+00  7.7001652862082E-02  2.7180261439422E-01 -4.5011492452348E-01
102  1.0100000000000E+00  6.7365359698820E-02  2.3334191496626E-01 -3.8523702285529E-01
103  1.0200000000000E+00  5.6892178050004E-02  1.9457889091720E-01 -3.1968238395007E-01
104  1.0300000000000E+00  4.6168736876241E-02  1.5677049952699E-01 -2.5581345398086E-01
105  1.0400000000000E+00  3.5724083372836E-02  1.2095299283404E-01 -1.9577496948054E-01
106  1.0500000000000E+00  2.6023955412510E-02  8.8062403512665E-02 -1.4145272430581E-01
107  1.0600000000000E+00  1.7481309374772E-02  5.9734581282854E-02 -9.4379500087604E-02
108  1.0700000000000E+00  1.0414222699269E-02  3.6437150258003E-02 -5.5880969434554E-02
109  1.0800000000000E+00  5.0583039522275E-03  1.8354288413210E-02 -2.6987342025231E-02
110  1.0900000000000E+00  1.5764830674134E-03  6.0012380357370E-03 -8.3652222000878E-03
111  1.1000000000000E+00  8.7147409604065E-05  3.5273725836208E-04 -4.5961938925697E-04
112  1.1100000000000E+00  2.9903419139203E-06  1.2047122633835E-05 -1.5793187500350E-05
113  1.1200000000000E+00 -1.0219915332505E-06 -4.0227136716047E-06  5.4102001821570E-06
114  1.13  0.  0.  0.
115  1.14  0.  0.  0.
116  1.15  0.  0.  0.
117  1.16  0.  0.  0.
118  1.17  0.  0.  0.
119  1.18  0.  0.  0.
120  1.19  0.  0.  0.
121  1.20  0.  0.  0.
122  1.21  0.  0.  0.
123  1.22  0.  0.  0.
124  1.23  0.  0.  0.
125  1.24  0.  0.  0.
126  1.25  0.  0.  0.
127  1.26  0.  0.  0.
128  1.27  0.  0.  0.
129  1.28  0.  0.  0.
130  1.29  0.  0.  0.
131  1.30  0.  0.  0.
132  1.31  0.  0.  0.
133  1.32  0.  0.  0.
134  1.33  0.  0.  0.
135  1.34  0.  0.  0.
136  1.35  0.  0.  0.
137  1.36  0.  0.  0.
138  1.37  0.  0.  0.
139  1.38  0.  0.  0.
140  1.39  0.  0.  0.
141  1.40  0.  0.  0.
142  1.41  0.  0.  0.
143  1.42  0.  0.  0.
144  1.43  0.  0.  0.
145  1.44  0.  0.  0.
146  1.45  0.  0.  0.
147  1.46  0.  0.  0.
148  1.47  0.  0.  0.
149  1.48  0.  0.  0.
150  1.49  0.  0.  0.
151  1.50  0.  0.  0.
152  1.51  0.  0.  0.
153  1.52  0.  0.  0.
154  1.53  0.  0.  0.
155  1.54  0.  0.  0.
156  1.55  0.  0.  0.
157  1.56  0.  0.  0.
158  1.57  0.  0.  0.
159  1.58  0.  0.  0.
160  1.59  0.  0.  0.
161  1.60  0.  0.  0.
162  1.61  0.  0.  0.
163  1.62  0.  0.  0.
164  1.63  0.  0.  0.
165  1.64  0.  0.  0.
166  1.65  0.  0.  0.
167  1.66  0.  0.  0.
168  1.67  0.  0.  0.
169  1.68  0.  0.  0.
170  1.69  0.  0.  0.
171  1.70  0.  0.  0.
172  1.71  0.  0.  0.
173  1.72  0.  0.  0.
174  1.73  0.  0.  0.
175  1.74  0.  0.  0.
176  1.75  0.  0.  0.
177  1.76  0.  0.  0.
178  1.77  0.  0.  0.
179  1.78  0.  0.  0.
180  1.79  0.  0.  0.
181  1.80  0.  0.  0.
182  1.81  0.  0.  0.
183  1.82  0.  0.  0.
184  1.83  0.  0.  0.
185  1.84  0.  0.  0.
186  1.85  0.  0.  0.
187  1.86  0.  0.  0.
188  1.87  0.  0.  0.
189  1.88  0.  0.  0.
190  1.89  0.  0.  0.
191  1.90  0.  0.  0.
192  1.91  0.  0.  0.
193  1.92  0.  0.  0.
194  1.93  0.  0.  0.
195  1.94  0.  0.  0.
196  1.95  0.  0.  0.
197  1.96  0.  0.  0.
198  1.97  0.  0.  0.
199  1.98  0.  0.  0.
200  1.99  0.  0.  0.
201  2.00  0.  0.  0.
202  2.01  0.  0.  0.
203  2.02  0.  0.  0.
204  2.03  0.  0.  0.
205  2.04  0.  0.  0.
206  2.05  0.  0.  0.
207  2.06  0.  0.  0.
208  2.07  0.  0.  0.
209  2.08  0.  0.  0.
210  2.09  0.  0.  0.
211  2.10  0.  0.  0.
212  2.11  0.  0.  0.
213  2.12  0.  0.  0.
214  2.13  0.  0.  0.
215  2.14  0.  0.  0.
216  2.15  0.  0.  0.
217  2.16  0.  0.  0.
218  2.17  0.  0.  0.
219  2.18  0.  0.  0.
220  2.19  0.  0.  0.
221  2.20  0.  0.  0.
222  2.21  0.  0.  0.
223  2.22  0.  0.  0.
224  2.23  0.  0.  0.
225  2.24  0.  0.  0.
226  2.25  0.  0.  0.
227  2.26  0.  0.  0.
228  2.27  0.  0.  0.
229  2.28  0.  0.  0.
230  2.29  0.  0.  0.
231  2.30  0.  0.  0.
232  2.31  0.  0.  0.
233  2.32  0.  0.  0.
234  2.33  0.  0.  0.
235  2.34  0.  0.  0.
236  2.35  0.  0.  0.
237  2.36  0.  0.  0.
238  2.37  0.  0.  0.
239  2.38  0.  0.  0.
240  2.39  0.  0.  0.
241  2.40  0.  0.  0.
242  2.41  0.  0.  0.
243  2.42  0.  0.  0.
244  2.43  0.  0.  0.
245  2.44  0.  0.  0.
246  2.45  0.  0.  0.
247  2.46  0.  0.  0.
248  2.47  0.  0.  0.
249  2.48  0.  0.  0.
250  2.49  0.  0.  0.
251  2.50  0.  0.  0.
252  2.51  0.  0.  0.
253  2.52  0.  0.  0.
254  2.53  0.  0.  0.
255  2.54  0.  0.  0.
256  2.55  0.  0.  0.
257  2.56  0.  0.  0.
258  2.57  0.  0.  0.
259  2.58  0.  0.  0.
260  2.59  0.  0.  0.
261  2.60  0.  0.  0.
262  2.61  0.  0.  0.
263  2.62  0.  0.  0.
264  2.63  0.  0.  0.
265  2.64  0.  0.  0.
266  2.65  0.  0.  0.
267  2.66  0.  0.  0.
268  2.67  0.  0.  0.
269  2.68  0.  0.  0.
270  2.69  0.  0.  0.
271  2.70  0.  0.  0.
272  2.71  0.  0.  0.
273  2.72  0.  0.  0.
274  2.73  0.  0.  0.
275  2.74  0.  0.  0.
276  2.75  0.  0.  0.
277  2.76  0.  0.  0.
278  2.77  0.  0.  0.
279  2.78  0.  0.  0.
280  2.79  0.  0.  0.
281  2.80  0.  0.  0.
282  2.81  0.  0.  0.
283  2.82  0.  0.  0.
284  2.83  0.  0.  0.
285  2.84  0.  0.  0.
286  2.85  0.  0.  0.
287  2.86  0.  0.  0.
288  2.87  0.  0.  0.
289  2.88  0.  0.  0.
290  2.89  0.  0.  0.
291  2.90  0.  0.  0.
292  2.91  0.  0.  0.
293  2.92  0.  0.  0.
294  2.93  0.  0.  0.
295  2.94  0.  0.  0.
296  2.95  0.  0.  0.
297  2.96  0.  0.  0.
298  2.97  0.  0.  0.
299  2.98  0.  0.  0.
300  2.99  0.  0.  0.
301  3.00  0.  0.  0.
302  3.01  0.  0.  0.
303  3.02  0.  0.  0.
304  3.03  0.  0.  0.
305  3.04  0.  0.  0.
306  3.05  0.  0.  0.
307  3.06  0.  0.  0.
308  3.07  0.  0.  0.
309  3.08  0.  0.  0.
310  3.09  0.  0.  0.
311  3.10  0.  0.  0.
312  3.11  0.  0.  0.
313  3.12  0.  0.  0.
314  3.13  0.  0.  0.
315  3.14  0.  0.  0.
316  3.15  0.  0.  0.
317  3.16  0.  0.  0.
318  3.17  0.  0.  0.
319  3.18  0.  0.  0.
320  3.19  0.  0.  0.
321  3.20  0.  0.  0.
322  3.21  0.  0.  0.
323  3.22  0.  0.  0.
324  3.23  0.  0.  0.
325  3.24  0.  0.  0.
326  3.25  0.  0.  0.
327  3.26  0.  0.  0.
328  3.27  0.  0.  0.
329  3.28  0.  0.  0.
330  3.29  0.  0.  0.
331  3.30  0.  0.  0.
332  3.31  0.  0.  0.
333  3.32  0.  0.  0.
334  3.33  0.  0.  0.
335  3.34  0.  0.  0.
336  3.35  0.  0.  0.
337  3.36  0.  0.  0.
338  3.37  0.  0.  0.
339  3.38  0.  0.  0.
340  3.39  0.  0.  0.
341  3.40  0.  0.  0.
342  3.41  0.  0.  0.
343  3.42  0.  0.  0.
344  3.43  0.  0.  0.
345  3.44  0.  0.  0.
346  3.45  0.  0.  0.
347  3.46  0.  0.  0.
348  3.47  0.  0.  0.
349  3.48  0.  0.  0.
350  3.49  0.  0.  0.
351  3.50  0.  0.  0.
352  3.51  0.  0.  0.
353  3.52  0.  0.  0.
354  3.53  0.  0.  0.
355  3.54  0.  0.  0.
356  3.55  0.  0.  0.
357  3.56  0.  0.  0.
358  3.57  0.  0.  0.
359  3.58  0.  0.  0.
360  3.59  0.  0.  0.
361  3.60  0.  0.  0.
362  3.61  0.  0.  0.
363  3.62  0.  0.  0.
364  3.63  0.  0.  0.
365  3.64  0.  0.  0.
366  3.65  0.  0.  0.
367  3.66  0.  0.  0.
368  3.67  0.  0.  0.
369  3.68  0.  0.  0.
370  3.69  0.  0.  0.
371  3.70  0.  0.  0.
372  3.71  0.  0.  0.
373  3.72  0.  0.  0.
374  3.73  0.  0.  0.
375  3.74  0.  0.  0.
376  3.75  0.  0.  0.
377  3.76  0.  0.  0.
378  3.77  0.  0.  0.
379  3.78  0.  0.  0.
380  3.79  0.  0.  0.
381  3.80  0.  0.  0.
382  3.81  0.  0.  0.
383  3.82  0.  0.  0.
384  3.83  0.  0.  0.
385  3.84  0.  0.  0.
386  3.85  0.  0.  0.
387  3.86  0.  0.  0.
388  3.87  0.  0.  0.
389  3.88  0.  0.  0.
390  3.89  0.  0.  0.
391  3.90  0.  0.  0.
392  3.91  0.  0.  0.
393  3.92  0.  0.  0.
394  3.93  0.  0.  0.
395  3.94  0.  0.  0.
396  3.95  0.  0.  0.
397  3.96  0.  0.  0.
398  3.97  0.  0.  0.
399  3.98  0.  0.  0.
400  3.99  0.  0.  0.
401  4.00  0.  0.  0.
402  4.01  0.  0.  0.
403  4.02  0.  0.  0.
404  4.03  0.  0.  0.
405  4.04  0.  0.  0.
406  4.05  0.  0.  0.
407  4.06  0.  0.  0.
408  4.07  0.  0.  0.
409  4.08  0.  0.  0.
410  4.09  0.  0.  0.
411  4.10  0.  0.  0.
412  4.11  0.  0.  0.
413  4.12  0.  0.  0.
414  4.13  0.  0.  0.
415  4.14  0.  0.  0.
416  4.15  0.  0.  0.
417  4.16  0.  0.  0.
418  4.17  0.  0.  0.
419  4.18  0.  0.  0.
420  4.19  0.  0.  0.
421  4.20  0.  0.  0.
422  4.21  0.  0.  0.
423  4.22  0.  0.  0.
424  4.23  0.  0.  0.
425  4.24  0.  0.  0.
426  4.25  0.  0.  0.
427  4.26  0.  0.  0.
428  4.27  0.  0.  0.
429  4.28  0.  0.  0.
430  4.29  0.  0.  0.
431  4.30  0.  0.  0.
432  4.31  0.  0.  0.
433  4.32  0.  0.  0.
434  4.33  0.  0.  0.
435  4.34  0.  0.  0.
436  4.35  0.  0.  0.
437  4.36  0.  0.  0.
438  4.37  0.  0.  0.
439  4.38  0.  0.  0.
440  4.39  0.  0.  0.
441  4.40  0.  0.  0.
442  4.41  0.  0.  0.
443  4.42  0.  0.  0.
444  4.43  0.  0.  0.
445  4.44  0.  0.  0.
446  4.45  0.  0.  0.
447  4.46  0.  0.  0.
448  4.47  0.  0.  0.
449  4.48  0.  0.  0.
450  4.49  0.  0.  0.
451  4.50  0.  0.  0.
452  4.51  0.  0.  0.
453  4.52  0.  0.  0.
454  4.53  0.  0.  0.
455  4.54  0.  0.  0.
456  4.55  0.  0.  0.
457  4.56  0.  0.  0.
458  4.57  0.  0.  0.
459  4.58  0.  0.  0.
460  4.59  0.  0.  0.
461  4.60  0.  0.  0.
462  4.61  0.  0.  0.
463  4.62  0.  0.  0.
464  4.63  0.  0.  0.
465  4.64  0.  0.  0.
466  4.65  0.  0.  0.
467  4.66  0.  0.  0.
468  4.67  0.  0.  0.
469  4.68  0.  0.  0.
470  4.69  0.  0.  0.
471  4.70  0.  0.  0.
472  4.71  0.  0.  0.
473  4.72  0.  0.  0.
474  4.73  0.  0.  0.
475  4.74  0.  0.  0.
476  4.75  0.  0.  0.
477  4.76  0.  0.  0.
478  4.77  0.  0.  0.
479  4.78  0.  0.  0.
480  4.79  0.  0.  0.
481  4.80  0.  0.  0.
482  4.81  0.  0.  0.
483  4.82  0.  0.  0.
484  4.83  0.  0.  0.
485  4.84  0.  0.  0.
486  4.85  0.  0.  0.
487  4.86  0.  0.  0.
488  4.87  0.  0.  0.
489  4.88  0.  0.  0.
490  4.89  0.  0.  0.
491  4.90  0.  0.  0.
492  4.91  0.  0.  0.
493  4.92  0.  0.  0.
494  4.93  0.  0.  0.
495  4.94  0.  0.  0.
496  4.95  0.  0.  0.
497  4.96  0.  0.  0.
498  4.97  0.  0.  0.
499  4.98  0.  0.  0.
500  4.99  0.  0.  0.
501  5.00  0.  0.  0.
502  5.01  0.  0.  0.
503  5.02  0.  0.  0.
504  5.03  0.  0.  0.
505  5.04  0.  0.  0.
506  5.05  0.  0.  0.
507  5.06  0.  0.  0.
508  5.07  0.  0.  0.
509  5.08  0.  0.  0.
510  5.09  0.  0.  0.
511  5.10  0.  0.  0.
512  5.11  0.  0.  0.
513  5.12  0.  0.  0.
514  5.13  0.  0.  0.
515  5.14  0.  0.  0.
516  5.15  0.  0.  0.
517  5.16  0.  0.  0.
518  5.17  0.  0.  0.
519  5.18  0.  0.  0.
520  5.19  0.  0.  0.
521  5.20  0.  0.  0.
522  5.21  0.  0.  0.
523  5.22  0.  0.  0.
524  5.23  0.  0.  0.
525  5.24  0.  0.  0.
526  5.25  0.  0.  0.
527  5.26  0.  0.  0.
528  5.27  0.  0.  0.
529  5.28  0.  0.  0.
530  5.29  0.  0.  0.
531  5.30  0.  0.  0.
532  5.31  0.  0.  0.
533  5.32  0.  0.  0.
534  5.33  0.  0.  0.
535  5.34  0.  0.  0.
536  5.35  0.  0.  0.
537  5.36  0.  0.  0.
538  5.37  0.  0.  0.
539  5.38  0.  0.  0.
540  5.39  0.  0.  0.
541  5.40  0.  0.  0.
542  5.41  0.  0.  0.
543  5.42  0.  0.  0.
544  5.43  0.  0.  0.
545  5.44  0.  0.  0.
546  5.45  0.  0.  0.
547  5.46  0.  0.  0.
548  5.47  0.  0.  0.
549  5.48  0.  0.  0.
550  5.49  0.  0.  0.
551  5.50  0.  0.  0.
552  5.51  0.  0.  0.
553  5.52  0.  0.  0.
554  5.53  0.  0.  0.
555  5.54  0.  0.  0.
556  5.55  0.  0.  0.
557  5.56  0.  0.  0.
558  5.57  0.  0.  0.
559  5.58  0.  0.  0.
560  5.59  0.  0.  0.
561  5.60  0.  0.  0.
562  5.61  0.  0.  0.
563  5.62  0.  0.  0.
564  5.63  0.  0.  0.
565  5.64  0.  0.  0.
566  5.65  0.  0.  0.
567  5.66  0.  0.  0.
568  5.67  0.  0.  0.
569  5.68  0.  0.  0.
570  5.69  0.  0.  0.
571  5.70  0.  0.  0.
572  5.71  0.  0.  0.
573  5.72  0.  0.  0.
574  5.73  0.  0.  0.
575  5.74  0.  0.  0.
576  5.75  0.  0.  0.
577  5.76  0.  0.  0.
578  5.77  0.  0.  0.
579  5.78  0.  0.  0.
580  5.79  0.  0.  0.
581  5.80  0.  0.  0.
582  5.81  0.  0.  0.
583  5.82  0.  0.  0.
584  5.83  0.  0.  0.
585  5.84  0.  0.  0.
586  5.85  0.  0.  0.
587  5.86  0.  0.  0.
588  5.87  0.  0.  0.
589  5.88  0.  0.  0.
590  5.89  0.  0.  0.
591  5.90  0.  0.  0.
592  5.91  0.  0.  0.
593  5.92  0.  0.  0.
594  5.93  0.  0.  0.
595  5.94  0.  0.  0.
596  5.95  0.  0.  0.
597  5.96  0.  0.  0.
598  5.97  0.  0.  0.
599  5.98  0.  0.  0.
600  5.99  0.  0.  0.
1                         1.8698908069768E+01  2.2292630122007E+00
1  0.0000000000000E+00 -3.2604149158288E-08  1.0407676764856E-07
2  1.0000000000000E-02  3.3844942773734E-03 -1.2091040777388E-03
3  2.0000000000000E-02  1.3524396131324E-02 -4.8497777943624E-03
4  3.0000000000000E-02  3.0378551921505E-02 -1.0960533587888E-02
5  4.0000000000000E-02  5.3877027388942E-02 -1.9600395869750E-02
6  5.0000000000000E-02  8.3919173898736E-02 -3.0841422949574E-02
7  6.0000000000000E-02  1.2037108456171E-01 -4.4758758819467E-02
8  7.0000000000000E-02  1.6306259518348E-01 -6.1418709035379E-02
9  8.0000000000000E-02  2.1178401759373E-01 -8.0865439009859E-02
10  9.0000000000000E-02  2.6628281741287E-01 -1.0310697135108E-01
11  1.0000000000000E-01  3.2626046360964E-01 -1.2810120794816E-01
12  1.1000000000000E-01  3.9136968255506E-01 -1.5574272001079E-01
13  1.2000000000000E-01  4.6121234435177E-01 -1.8585103421507E-01
14  1.3000000000000E-01  5.3533819410000E-01 -2.1816109582488E-01
15  1.4000000000000E-01  6.1324461595469E-01 -2.5231651182414E-01
16  1.5000000000000E-01  6.9437758423535E-01 -2.8786607166386E-01
17  1.6000000000000E-01  7.7813391474154E-01 -3.2426391432152E-01
18  1.7000000000000E-01  8.6386488238888E-01 -3.6087356312235E-01
19  1.8000000000000E-01  9.5088122015667E-01 -3.9697589012375E-01
20  1.9000000000000E-01  1.0384594611587E+00 -4.3178090633563E-01
21  2.0000000000000E-01  1.1258495325447E+00 -4.6444310947447E-01
22  2.1000000000000E-01  1.2122834590646E+00 -4.9407996420413E-01
23  2.2000000000000E-01  1.2969849875723E+00 -5.1979294753984E-01
24  2.3000000000000E-01  1.3791799034340E+00 -5.4069047040942E-01
25  2.4000000000000E-01  1.4581067774603E+00 -5.5591189063710E-01
26  2.5000000000000E-01  1.5330278589876E+00 -5.6465176720391E-01
27  2.6000000000000E-01  1.6032398181468E+00 -5.6618347372150E-01
28  2.7000000000000E-01  1.6680840388039E+00 -5.5988129247943E-01
29  2.8000000000000E-01  1.7269561733393E+00 -5.4524014960709E-01
30  2.9000000000000E-01  1.7793146910931E+00 -5.2189222578851E-01
31  3.0000000000000E-01  1.8246881832427E+00 -4.8961978309376E-01
32  3.1000000000000E-01  1.8626812269826E+00 -4.4836368299618E-01
33  3.2000000000000E-01  1.8929786596264E+00 -3.9822722845869E-01
34  3.3000000000000E-01  1.9153481668338E+00 -3.3947513798274E-01
35  3.4000000000000E-01  1.9296411464779E+00 -2.7252764480975E-01
36  3.5000000000000E-01  1.9357918684747E+00 -1.9794990260287E-01
37  3.6000000000000E-01  1.9338150088286E+00 -1.1643706223898E-01
38  3.7000000000000E-01  1.9238016908994E+00 -2.8795555206697E-02
39  3.8000000000000E-01  1.9059142162312E+00  6.4078729670424E-02
40  3.9000000000000E-01  1.8803797091807E+00  1.6122456439876E-01
41  4.0000000000000E-01  1.8474829323173E+00  2.6164088970010E-01
42  4.1000000000000E-01  1.8075585517475E+00  3.6431275006891E-01
43  4.2000000000000E-01  1.7609831422192E+00  4.6823667495601E-01
44  4.3000000000000E-01  1.7081672205817E+00  5.7244454673848E-01
45  4.4000000000000E-01  1.6495475829556E+00  6.7602505770971E-01
46  4.5000000000000E-01  1.5855801963098E+00  7.7814195776186E-01
47  4.6000000000000E-01  1.5167338600697E+00  8.7804842811867E-01
48  4.7000000000000E-01  1.4434848093448E+00  9.7509707929652E-01
49  4.8000000000000E-01  1.3663123802407E+00  1.0687452570048E+00
50  4.9000000000000E-01  1.2856958016819E+00  1.1585555404576E+00
51  5.0000000000000E-01  1.2021121196572E+00  1.2441915253020E+00
52  5.1000000000000E-01  1.1160352013626E+00  1.3254091893798E+00
53  5.2000000000000E-01  1.0279357109638E+00  1.4020443350515E+00
54  5.3000000000000E-01  9.3828189813565E-01  1.4739967783424E+00
55  5.4000000000000E-01  8.4754099749827E-01  1.5412121048736E+00
56  5.5000000000000E-01  7.5618100358898E-01  1.6036619285810E+00
57  5.6000000000000E-01  6.6467256373436E-01  1.6613236660624E+00
58  5.7000000000000E-01  5.7349072130780E-01  1.7141608730447E+00
59  5.8000000000000E-01  4.8311624503327E-01  1.7621051777281E+00
60  5.9000000000000E-01  3.9403629632568E-01  1.8050407883126E+00
61  6.0000000000000E-01  3.0674421566191E-01  1.8427924504757E+00
62  6.1000000000000E-01  2.2173824960463E-01  1.8751175884736E+00
63  6.2000000000000E-01  1.3951909076803E-01  1.9017031862308E+00
64  6.3000000000000E-01  6.0586161657285E-02  1.9221677591982E+00
65  6.4000000000000E-01 -1.4567362530369E-02  1.9360685421952E+00
66  6.5000000000000E-01 -8.5460730147780E-02  1.9429137822102E+00
67  6.6000000000000E-01 -1.5163285967781E-01  1.9421797881672E+00
68  6.7000000000000E-01 -2.1265046444701E-01  1.9333321621618E+00
69  6.8000000000000E-01 -2.6811680592211E-01  1.9158504285909E+00
70  6.9000000000000E-01 -3.1768077759967E-01  1.8892550983189E+00
71  7.0000000000000E-01 -3.6104598439284E-01  1.8531360628328E+00
72  7.1000000000000E-01 -3.9797945864846E-01  1.8071811151443E+00
73  7.2000000000000E-01 -4.2831964496098E-01  1.7512033451503E+00
74  7.3000000000000E-01 -4.5198329265334E-01  1.6851661604202E+00
75  7.4000000000000E-01 -4.6897091738147E-01  1.6092047399442E+00
76  7.5000000000000E-01 -4.7937053131452E-01  1.5236428369626E+00
77  7.6000000000000E-01 -4.8335939359561E-01  1.4290040040796E+00
78  7.7000000000000E-01 -4.8120359750554E-01  1.3260165137702E+00
79  7.8000000000000E-01 -4.7325538553290E-01  1.2156114824195E+00
80  7.9000000000000E-01 -4.5994816551069E-01  1.0989139668398E+00
81  8.0000000000000E-01 -4.4178928679786E-01  9.7722707801754E-01
82  8.1000000000000E-01 -4.1935072159127E-01  8.5200943596146E-01
83  8.2000000000000E-01 -3.9325787909987E-01  7.2484655965746E-01
84  8.3000000000000E-01 -3.6417685576530E-01  5.9741703497501E-01
85  8.4000000000000E-01 -3.3280048935483E-01  4.7145451896323E-01
86  8.5000000000000E-01 -2.9983363524390E-01  3.4870681020668E-01
87  8.6000000000000E-01 -2.6597811659696E-01  2.3089333193135E-01
88  8.7000000000000E-01 -2.3191781400751E-01  1.1966242912336E-01
89  8.8000000000000E-01 -1.9830435262412E-01  1.6549866730029E-02
90  8.9000000000000E-01 -1.6574381468863E-01 -7.7060171109792E-02
91  9.0000000000000E-01 -1.3478485227055E-01 -1.5997044278552E-01
92  9.1000000000000E-01 -1.0590849904564E-01 -2.3120147011533E-01
93  9.2000000000000E-01 -7.9519882190344E-02 -2.9001722445188E-01
94  9.3000000000000E-01 -5.5941917491996E-02 -3.3594545830307E-01
95  9.4000000000000E-01 -3.5410934837173E-02 -3.6879289658288E-01
96  9.5000000000000E-01 -1.8074030117958E-02 -3.8865598613126E-01
97  9.6000000000000E-01 -3.9877765098284E-03 -3.9592842711318E-01
98  9.7000000000000E-01  6.8822434838331E-03 -3.9130726412589E-01
99  9.8000000000000E-01  1.4661800080482E-02 -3.7579988612209E-01
100  9.9000000000000E-01  1.9569164490525E-02 -3.5073486066089E-01
101  1.0000000000000E+00  2.1918079848295E-02 -3.1777996670318E-01
102  1.0100000000000E+00  2.2122237833484E-02 -2.7896479595655E-01
103  1.0200000000000E+00  2.0666784981498E-02 -2.3656045723798E-01
104  1.0300000000000E+00  1.8047463250912E-02 -1.9282928788978E-01
105  1.0400000000000E+00  1.4742672603950E-02 -1.4992474314131E-01
106  1.0500000000000E+00  1.1189004554684E-02 -1.0981455728152E-01
107  1.0600000000000E+00  7.7014235107053E-03 -7.4062872682283E-02
108  1.0700000000000E+00  4.6173609000699E-03 -4.4181500192332E-02
109  1.0800000000000E+00  2.2184393876792E-03 -2.1429075850153E-02
110  1.0900000000000E+00  6.7186077064338E-04 -6.6496272059074E-03
111  1.1000000000000E+00  3.5294359416447E-05 -3.6442599565658E-04
112  1.1100000000000E+00  1.2181844046666E-06 -1.2542814227954E-05
113  1.1200000000000E+00 -4.2435256863705E-07  4.2995626234259E-06
114  1.13  0.  0.
115  1.14  0.  0.
116  1.15  0.  0.
117  1.16  0.  0.
118  1.17  0.  0.
119  1.18  0.  0.
120  1.19  0.  0.
121  1.20  0.  0.
122  1.21  0.  0.
123  1.22  0.  0.
124  1.23  0.  0.
125  1.24  0.  0.
126  1.25  0.  0.
127  1.26  0.  0.
128  1.27  0.  0.
129  1.28  0.  0.
130  1.29  0.  0.
131  1.30  0.  0.
132  1.31  0.  0.
133  1.32  0.  0.
134  1.33  0.  0.
135  1.34  0.  0.
136  1.35  0.  0.
137  1.36  0.  0.
138  1.37  0.  0.
139  1.38  0.  0.
140  1.39  0.  0.
141  1.40  0.  0.
142  1.41  0.  0.
143  1.42  0.  0.
144  1.43  0.  0.
145  1.44  0.  0.
146  1.45  0.  0.
147  1.46  0.  0.
148  1.47  0.  0.
149  1.48  0.  0.
150  1.49  0.  0.
151  1.50  0.  0.
152  1.51  0.  0.
153  1.52  0.  0.
154  1.53  0.  0.
155  1.54  0.  0.
156  1.55  0.  0.
157  1.56  0.  0.
158  1.57  0.  0.
159  1.58  0.  0.
160  1.59  0.  0.
161  1.60  0.  0.
162  1.61  0.  0.
163  1.62  0.  0.
164  1.63  0.  0.
165  1.64  0.  0.
166  1.65  0.  0.
167  1.66  0.  0.
168  1.67  0.  0.
169  1.68  0.  0.
170  1.69  0.  0.
171  1.70  0.  0.
172  1.71  0.  0.
173  1.72  0.  0.
174  1.73  0.  0.
175  1.74  0.  0.
176  1.75  0.  0.
177  1.76  0.  0.
178  1.77  0.  0.
179  1.78  0.  0.
180  1.79  0.  0.
181  1.80  0.  0.
182  1.81  0.  0.
183  1.82  0.  0.
184  1.83  0.  0.
185  1.84  0.  0.
186  1.85  0.  0.
187  1.86  0.  0.
188  1.87  0.  0.
189  1.88  0.  0.
190  1.89  0.  0.
191  1.90  0.  0.
192  1.91  0.  0.
193  1.92  0.  0.
194  1.93  0.  0.
195  1.94  0.  0.
196  1.95  0.  0.
197  1.96  0.  0.