Pa    ONCVPSP-4.0.1  r_core=   1.25016   1.25016   1.45183   1.45183
91.0000     31.0000      230114    zatom,zion,pspd
8      11   3     4   600     0    pspcod,pspxc,lmax,lloc,mmax,r2well
5.99000000  5.00000000  0.00000000    rchrg fchrg qchrg
3     2     2     2     0    nproj
1     1           extension_switch
0                         2.1596642053222E+01  3.2737527382015E+00 -9.5223332203463E-01
1  0.0000000000000E+00 -3.5974609513545E-08  7.1933784318023E-08 -6.0254591449649E-07
2  1.0000000000000E-02  1.1612804858853E-01 -3.4176062180041E-02  1.7903578092339E-01
3  2.0000000000000E-02  2.3161702106990E-01 -6.7608363529237E-02  3.5284999235596E-01
4  3.0000000000000E-02  3.4583777893310E-01 -9.9571336553498E-02  5.1638395394302E-01
5  4.0000000000000E-02  4.5818076491466E-01 -1.2937521814227E-01  6.6489961059526E-01
6  5.0000000000000E-02  5.6806506855628E-01 -1.5638251563112E-01  7.9412712591799E-01
7  6.0000000000000E-02  6.7494664878397E-01 -1.8002280371948E-01  9.0039766470593E-01
8  7.0000000000000E-02  7.7832547671313E-01 -1.9980538425993E-01  9.8075716569871E-01
9  8.0000000000000E-02  8.7775139785815E-01 -2.1532941286912E-01  1.0330575083380E+00
10  9.0000000000000E-02  9.7282855558242E-01 -2.2629118158287E-01  1.0560221938475E+00
11  1.0000000000000E-01  1.0632182655353E+00 -2.3248834252100E-01  1.0492844688873E+00
12  1.1000000000000E-01  1.1486402823842E+00 -2.3382096052021E-01  1.0133966937225E+00
13  1.2000000000000E-01  1.2288724536322E+00 -2.3028938946454E-01  9.4981066860485E-01
14  1.3000000000000E-01  1.3037488089176E+00 -2.2198907399316E-01  8.6082955300410E-01
15  1.4000000000000E-01  1.3731561851238E+00 -2.0910248178194E-01  7.4953291322844E-01
16  1.5000000000000E-01  1.4370295361328E+00 -1.9188846817616E-01  6.1967728626303E-01
17  1.6000000000000E-01  1.4953461194937E+00 -1.7066946132307E-01  4.7557542427334E-01
18  1.7000000000000E-01  1.5481187891871E+00 -1.4581692917617E-01  3.2195806048291E-01
19  1.8000000000000E-01  1.5953886527770E+00 -1.1773564732098E-01  1.6382259155810E-01
20  1.9000000000000E-01  1.6372173715744E+00 -8.6847326523824E-02  6.2734865470138E-03
21  2.0000000000000E-01  1.6736793932676E+00 -5.3574179845383E-02 -1.4564050538862E-01
22  2.1000000000000E-01  1.7048544074319E+00 -1.8323010338537E-02 -2.8708717512741E-01
23  2.2000000000000E-01  1.7308203053497E+00  1.8529618318784E-02 -4.1360459160179E-01
24  2.3000000000000E-01  1.7516469069275E+00  5.6650603833767E-02 -5.2124287334532E-01
25  2.4000000000000E-01  1.7673906897954E+00  9.5761451481904E-02 -6.0668949023529E-01
26  2.5000000000000E-01  1.7780907198275E+00  1.3564694811292E-01 -6.6737411625052E-01
27  2.6000000000000E-01  1.7837659395017E+00  1.7616105351647E-01 -7.0154970476895E-01
28  2.7000000000000E-01  1.7844139221709E+00  2.1722979545633E-01 -7.0834721444649E-01
29  2.8000000000000E-01  1.7800111480414E+00  2.5885105908490E-01 -6.8780225196560E-01
30  2.9000000000000E-01  1.7705148032121E+00  3.0109126995419E-01 -6.4085279119481E-01
31  3.0000000000000E-01  1.7558660483580E+00  3.4407907877037E-01 -5.6930804807016E-01
32  3.1000000000000E-01  1.7359946503872E+00  3.8799626168858E-01 -4.7578950744142E-01
33  3.2000000000000E-01  1.7108248204802E+00  4.3306614870697E-01 -3.6364598294876E-01
34  3.3000000000000E-01  1.6802820570323E+00  4.7953998120710E-01 -2.3684541546246E-01
35  3.4000000000000E-01  1.6443007537123E+00  5.2768167485164E-01 -9.9846853397849E-02
36  3.5000000000000E-01  1.6028323024408E+00  5.7775152328347E-01  4.2543314215844E-02
37  3.6000000000000E-01  1.5558533996565E+00  6.2998941929498E-01  1.8532630370466E-01
38  3.7000000000000E-01  1.5033742525340E+00  6.8459819188587E-01  3.2347214223615E-01
39  3.8000000000000E-01  1.4454463802935E+00  7.4172765908599E-01  4.5208201916014E-01
40  3.9000000000000E-01  1.3821697144962E+00  8.0145997746718E-01  5.6654663856743E-01
41  4.0000000000000E-01  1.3136987210045E+00  8.6379683047280E-01  6.6269556144607E-01
42  4.1000000000000E-01  1.2402472945181E+00  9.2864894030912E-01  7.3693281828753E-01
43  4.2000000000000E-01  1.1620922133727E+00  9.9582831405362E-01  7.8635451529650E-01
44  4.3000000000000E-01  1.0795749864044E+00  1.0650435463119E+00  8.0884473497780E-01
45  4.4000000000000E-01  9.9310197369569E-01  1.1358984011484E+00  8.0314672601503E-01
46  4.5000000000000E-01  9.0314271727697E-01  1.2078937884840E+00  7.6890716540342E-01
47  4.6000000000000E-01  8.1022647455983E-01  1.2804331383244E+00  7.0669213219761E-01
48  4.7000000000000E-01  7.1493700454050E-01  1.3528310638420E+00  6.1797432924313E-01
49  4.8000000000000E-01  6.1790571272790E-01  1.4243250952920E+00  5.0509199788193E-01
50  4.9000000000000E-01  5.1980331345362E-01  1.4940901647118E+00  3.7118086157316E-01
51  5.0000000000000E-01  4.2133021595631E-01  1.5612554297827E+00  2.2008127904087E-01
52  5.1000000000000E-01  3.2320588180636E-01  1.6249229472616E+00  5.6223558910750E-02
53  5.2000000000000E-01  2.2615743448354E-01  1.6841876446424E+00 -1.1550493866314E-01
54  5.3000000000000E-01  1.3090782613809E-01  1.7381579952851E+00 -2.8990673341712E-01
55  5.4000000000000E-01  3.8163880965507E-02  1.7859767786086E+00 -4.6163059128626E-01
56  5.5000000000000E-01 -5.1395461252358E-02  1.8268413038573E+00 -6.2533245827673E-01
57  5.6000000000000E-01 -1.3713038414765E-01  1.8600224934792E+00 -7.7583598211918E-01
58  5.7000000000000E-01 -2.1845061541269E-01  1.8848822596523E+00 -9.0828768878182E-01
59  5.8000000000000E-01 -2.9482475413657E-01  1.9008886636175E+00 -1.0183020843835E+00
60  5.9000000000000E-01 -3.6578826444609E-01  1.9076284202389E+00 -1.1020923053172E+00
61  6.0000000000000E-01 -4.3094993705355E-01  1.9048163970572E+00 -1.1565824277823E+00
62  6.1000000000000E-01 -4.8999666826886E-01  1.8923018549818E+00 -1.1794981553974E+00
63  6.2000000000000E-01 -5.4269645830088E-01  1.8700712832788E+00 -1.1694333092827E+00
64  6.3000000000000E-01 -5.8889958546167E-01  1.8382477909671E+00 -1.1258903250265E+00
65  6.4000000000000E-01 -6.2853796833322E-01  1.7970871263702E+00 -1.0492937891635E+00
66  6.5000000000000E-01 -6.6162278218450E-01  1.7469705025777E+00 -9.4097689668903E-01
67  6.6000000000000E-01 -6.8824044712126E-01  1.6883945053565E+00 -8.0314155283602E-01
68  6.7000000000000E-01 -7.0854715191479E-01  1.6219584482314E+00 -6.3879364946665E-01
69  6.8000000000000E-01 -7.2276211767911E-01  1.5483496141029E+00 -4.5165579317775E-01
70  6.9000000000000E-01 -7.3115983826247E-01  1.4683268814177E+00 -2.4606042493989E-01
71  7.0000000000000E-01 -7.3406155838997E-01  1.3827032736952E+00 -2.6826829430800E-02
72  7.1000000000000E-01 -7.3182626554513E-01  1.2923279929213E+00  2.0087403056700E-01
73  7.2000000000000E-01 -7.2484147695083E-01  1.1980684994355E+00  4.3166261559889E-01
74  7.3000000000000E-01 -7.1351409878909E-01  1.1007931836218E+00  6.6009744521385E-01
75  7.4000000000000E-01 -6.9826162130726E-01  1.0013551388638E+00  8.8082084792151E-01
76  7.5000000000000E-01 -6.7950389134659E-01  9.0057749234642E-01  1.0886995292212E+00
77  7.6000000000000E-01 -6.5765567404347E-01  7.9924068253030E-01  1.2789559205979E+00
78  7.7000000000000E-01 -6.3312017919901E-01  6.9807199209994E-01  1.4472866556962E+00
79  7.8000000000000E-01 -6.0628368651044E-01  5.9773755595945E-01  1.5899650121872E+00
80  7.9000000000000E-01 -5.7751135908219E-01  4.9883696874495E-01  1.7039247406250E+00
81  8.0000000000000E-01 -5.4714428806135E-01  4.0190051885274E-01  1.7868233535374E+00
82  8.1000000000000E-01 -5.1549776457668E-01  3.0738897967763E-01  1.8370836460118E+00
83  8.2000000000000E-01 -4.8286073008748E-01  2.1569579707225E-01  1.8539129387638E+00
84  8.3000000000000E-01 -4.4949631435276E-01  1.2715142818463E-01  1.8373002516920E+00
85  8.4000000000000E-01 -4.1564333295758E-01  4.2029513695017E-02  1.7879923062746E+00
86  8.5000000000000E-01 -3.8151858492284E-01 -3.9445494509921E-02  1.7074498963632E+00
87  8.6000000000000E-01 -3.4731976638117E-01 -1.1708967310438E-01  1.5977867385684E+00
88  8.7000000000000E-01 -3.1322879935235E-01 -1.9075038593834E-01  1.4616933978331E+00
89  8.8000000000000E-01 -2.7941536573176E-01 -2.6029692434991E-01  1.3023492665300E+00
90  8.9000000000000E-01 -2.4604043584399E-01 -3.2561148633197E-01  1.1233258456493E+00
91  9.0000000000000E-01 -2.1325958813862E-01 -3.8658092946132E-01  9.2848472733428E-01
92  9.1000000000000E-01 -1.8122593135813E-01 -4.4308969486786E-01  7.2187370602708E-01
93  9.2000000000000E-01 -1.5009246206791E-01 -4.9501424822199E-01  5.0762435142103E-01
94  9.3000000000000E-01 -1.2001371785832E-01 -5.4221932092383E-01  2.8985416448289E-01
95  9.4000000000000E-01 -9.1146618683111E-02 -5.8455616291375E-01  7.2576115346500E-02
96  9.5000000000000E-01 -6.3650424431864E-02 -6.2186294057082E-01 -1.4038206108088E-01
97  9.6000000000000E-01 -3.7685774611378E-02 -6.5396733194185E-01 -3.4544694718494E-01
98  9.7000000000000E-01 -1.3412814596856E-02 -6.8069128994821E-01 -5.3935562375119E-01
99  9.8000000000000E-01  9.0115490042306E-03 -7.0185786506820E-01 -7.1919831759697E-01
100  9.9000000000000E-01  2.9437184930748E-02 -7.1729990480227E-01 -8.8244757527729E-01
101  1.0000000000000E+00  4.7724953172950E-02 -7.2687038021687E-01 -1.0269747464271E+00
102  1.0100000000000E+00  6.3751457471139E-02 -7.3045403175201E-01 -1.1510553038399E+00
103  1.0200000000000E+00  7.7414165703586E-02 -7.2797997847013E-01 -1.2533652792300E+00
104  1.0300000000000E+00  8.8636707892767E-02 -7.1943489752869E-01 -1.3329718469592E+00
105  1.0400000000000E+00  9.7374144436674E-02 -7.0487635387613E-01 -1.3893218358047E+00
106  1.0500000000000E+00  1.0361798412078E-01 -6.8444584312462E-01 -1.4222326892036E+00
107  1.0600000000000E+00  1.0740072181944E-01 -6.5838110177799E-01 -1.4318911300560E+00
108  1.0700000000000E+00  1.0879965859248E-01 -6.2702723630888E-01 -1.4188655185450E+00
109  1.0800000000000E+00  1.0793976079717E-01 -5.9084622310978E-01 -1.3841386305898E+00
110  1.0900000000000E+00  1.0499530905820E-01 -5.5042433483890E-01 -1.3291683714398E+00
111  1.1000000000000E+00  1.0019005922192E-01 -5.0647696446196E-01 -1.2559840267578E+00
112  1.1100000000000E+00  9.3795404724863E-02 -4.5984942339532E-01 -1.1673189616062E+00
113  1.1200000000000E+00  8.6117829463958E-02 -4.1147867743829E-01 -1.0664736355057E+00
114  1.1300000000000E+00  7.7478097331023E-02 -3.6232207718790E-01 -9.5685049034701E-01
115  1.1400000000000E+00  6.8201852618286E-02 -3.1333083361895E-01 -8.4180673918859E-01
116  1.1500000000000E+00  5.8612542117391E-02 -2.6543357628756E-01 -7.2459970530692E-01
117  1.1600000000000E+00  4.9023942948492E-02 -2.1951906158685E-01 -6.0833767378983E-01
118  1.1700000000000E+00  3.9732511718170E-02 -1.7641854119128E-01 -4.9593691165289E-01
119  1.1800000000000E+00  3.1009732805812E-02 -1.3688818691191E-01 -3.9008514286676E-01
120  1.1900000000000E+00  2.3091703221489E-02 -1.0158507047682E-01 -2.9322156674357E-01
121  1.2000000000000E+00  1.6133771982502E-02 -7.0959103815816E-02 -2.0764261437410E-01
122  1.2100000000000E+00  1.0303349557695E-02 -4.5473406514386E-02 -1.3514725487872E-01
123  1.2200000000000E+00  5.7380248321696E-03 -2.5509233493857E-02 -7.7149459400466E-02
124  1.2300000000000E+00  2.5088202723272E-03 -1.1280294754146E-02 -3.4790545760101E-02
125  1.2400000000000E+00  6.1293659117110E-04 -2.7990772042221E-03 -8.8213863203746E-03
126  1.2500000000000E+00  2.0213329928614E-06 -9.3681650974521E-06 -2.9921864828931E-05
127  1.2600000000000E+00  4.3649856988482E-06 -2.0232861345819E-05 -6.4979426642706E-05
128  1.2700000000000E+00 -7.6681589152754E-07  3.5219986007480E-06  1.1181827066092E-05
129  1.28 -0.  0. -0.
130  1.29  0.  0.  0.
131  1.30  0.  0.  0.
132  1.31  0.  0.  0.
133  1.32  0.  0.  0.
134  1.33  0.  0.  0.
135  1.34  0.  0.  0.
136  1.35  0.  0.  0.
137  1.36  0.  0.  0.
138  1.37  0.  0.  0.
139  1.38  0.  0.  0.
140  1.39  0.  0.  0.
141  1.40  0.  0.  0.
142  1.41  0.  0.  0.
143  1.42  0.  0.  0.
144  1.43  0.  0.  0.
145  1.44  0.  0.  0.
146  1.45  0.  0.  0.
147  1.46  0.  0.  0.
148  1.47  0.  0.  0.
149  1.48  0.  0.  0.
150  1.49  0.  0.  0.
151  1.50  0.  0.  0.
152  1.51  0.  0.  0.
153  1.52  0.  0.  0.
154  1.53  0.  0.  0.
155  1.54  0.  0.  0.
156  1.55  0.  0.  0.
157  1.56  0.  0.  0.
158  1.57  0.  0.  0.
159  1.58  0.  0.  0.
160  1.59  0.  0.  0.
161  1.60  0.  0.  0.
162  1.61  0.  0.  0.
163  1.62  0.  0.  0.
164  1.63  0.  0.  0.
165  1.64  0.  0.  0.
166  1.65  0.  0.  0.
167  1.66  0.  0.  0.
168  1.67  0.  0.  0.
169  1.68  0.  0.  0.
170  1.69  0.  0.  0.
171  1.70  0.  0.  0.
172  1.71  0.  0.  0.
173  1.72  0.  0.  0.
174  1.73  0.  0.  0.
175  1.74  0.  0.  0.
176  1.75  0.  0.  0.
177  1.76  0.  0.  0.
178  1.77  0.  0.  0.
179  1.78  0.  0.  0.
180  1.79  0.  0.  0.
181  1.80  0.  0.  0.
182  1.81  0.  0.  0.
183  1.82  0.  0.  0.
184  1.83  0.  0.  0.
185  1.84  0.  0.  0.
186  1.85  0.  0.  0.
187  1.86  0.  0.  0.
188  1.87  0.  0.  0.
189  1.88  0.  0.  0.
190  1.89  0.  0.  0.
191  1.90  0.  0.  0.
192  1.91  0.  0.  0.
193  1.92  0.  0.  0.
194  1.93  0.  0.  0.
195  1.94  0.  0.  0.
196  1.95  0.  0.  0.
197  1.96  0.  0.  0.
198  1.97  0.  0.  0.
199  1.98  0.  0.  0.
200  1.99  0.  0.  0.
201  2.00  0.  0.  0.
202  2.01  0.  0.  0.
203  2.02  0.  0.  0.
204  2.03  0.  0.  0.
205  2.04  0.  0.  0.
206  2.05  0.  0.  0.
207  2.06  0.  0.  0.
208  2.07  0.  0.  0.
209  2.08  0.  0.  0.
210  2.09  0.  0.  0.
211  2.10  0.  0.  0.
212  2.11  0.  0.  0.
213  2.12  0.  0.  0.
214  2.13  0.  0.  0.
215  2.14  0.  0.  0.
216  2.15  0.  0.  0.
217  2.16  0.  0.  0.
218  2.17  0.  0.  0.
219  2.18  0.  0.  0.
220  2.19  0.  0.  0.
221  2.20  0.  0.  0.
222  2.21  0.  0.  0.
223  2.22  0.  0.  0.
224  2.23  0.  0.  0.
225  2.24  0.  0.  0.
226  2.25  0.  0.  0.
227  2.26  0.  0.  0.
228  2.27  0.  0.  0.
229  2.28  0.  0.  0.
230  2.29  0.  0.  0.
231  2.30  0.  0.  0.
232  2.31  0.  0.  0.
233  2.32  0.  0.  0.
234  2.33  0.  0.  0.
235  2.34  0.  0.  0.
236  2.35  0.  0.  0.
237  2.36  0.  0.  0.
238  2.37  0.  0.  0.
239  2.38  0.  0.  0.
240  2.39  0.  0.  0.
241  2.40  0.  0.  0.
242  2.41  0.  0.  0.
243  2.42  0.  0.  0.
244  2.43  0.  0.  0.
245  2.44  0.  0.  0.
246  2.45  0.  0.  0.
247  2.46  0.  0.  0.
248  2.47  0.  0.  0.
249  2.48  0.  0.  0.
250  2.49  0.  0.  0.
251  2.50  0.  0.  0.
252  2.51  0.  0.  0.
253  2.52  0.  0.  0.
254  2.53  0.  0.  0.
255  2.54  0.  0.  0.
256  2.55  0.  0.  0.
257  2.56  0.  0.  0.
258  2.57  0.  0.  0.
259  2.58  0.  0.  0.
260  2.59  0.  0.  0.
261  2.60  0.  0.  0.
262  2.61  0.  0.  0.
263  2.62  0.  0.  0.
264  2.63  0.  0.  0.
265  2.64  0.  0.  0.
266  2.65  0.  0.  0.
267  2.66  0.  0.  0.
268  2.67  0.  0.  0.
269  2.68  0.  0.  0.
270  2.69  0.  0.  0.
271  2.70  0.  0.  0.
272  2.71  0.  0.  0.
273  2.72  0.  0.  0.
274  2.73  0.  0.  0.
275  2.74  0.  0.  0.
276  2.75  0.  0.  0.
277  2.76  0.  0.  0.
278  2.77  0.  0.  0.
279  2.78  0.  0.  0.
280  2.79  0.  0.  0.
281  2.80  0.  0.  0.
282  2.81  0.  0.  0.
283  2.82  0.  0.  0.
284  2.83  0.  0.  0.
285  2.84  0.  0.  0.
286  2.85  0.  0.  0.
287  2.86  0.  0.  0.
288  2.87  0.  0.  0.
289  2.88  0.  0.  0.
290  2.89  0.  0.  0.
291  2.90  0.  0.  0.
292  2.91  0.  0.  0.
293  2.92  0.  0.  0.
294  2.93  0.  0.  0.
295  2.94  0.  0.  0.
296  2.95  0.  0.  0.
297  2.96  0.  0.  0.
298  2.97  0.  0.  0.
299  2.98  0.  0.  0.
300  2.99  0.  0.  0.
301  3.00  0.  0.  0.
302  3.01  0.  0.  0.
303  3.02  0.  0.  0.
304  3.03  0.  0.  0.
305  3.04  0.  0.  0.
306  3.05  0.  0.  0.
307  3.06  0.  0.  0.
308  3.07  0.  0.  0.
309  3.08  0.  0.  0.
310  3.09  0.  0.  0.
311  3.10  0.  0.  0.
312  3.11  0.  0.  0.
313  3.12  0.  0.  0.
314  3.13  0.  0.  0.
315  3.14  0.  0.  0.
316  3.15  0.  0.  0.
317  3.16  0.  0.  0.
318  3.17  0.  0.  0.
319  3.18  0.  0.  0.
320  3.19  0.  0.  0.
321  3.20  0.  0.  0.
322  3.21  0.  0.  0.
323  3.22  0.  0.  0.
324  3.23  0.  0.  0.
325  3.24  0.  0.  0.
326  3.25  0.  0.  0.
327  3.26  0.  0.  0.
328  3.27  0.  0.  0.
329  3.28  0.  0.  0.
330  3.29  0.  0.  0.
331  3.30  0.  0.  0.
332  3.31  0.  0.  0.
333  3.32  0.  0.  0.
334  3.33  0.  0.  0.
335  3.34  0.  0.  0.
336  3.35  0.  0.  0.
337  3.36  0.  0.  0.
338  3.37  0.  0.  0.
339  3.38  0.  0.  0.
340  3.39  0.  0.  0.
341  3.40  0.  0.  0.
342  3.41  0.  0.  0.
343  3.42  0.  0.  0.
344  3.43  0.  0.  0.
345  3.44  0.  0.  0.
346  3.45  0.  0.  0.
347  3.46  0.  0.  0.
348  3.47  0.  0.  0.
349  3.48  0.  0.  0.
350  3.49  0.  0.  0.
351  3.50  0.  0.  0.
352  3.51  0.  0.  0.
353  3.52  0.  0.  0.
354  3.53  0.  0.  0.
355  3.54  0.  0.  0.
356  3.55  0.  0.  0.
357  3.56  0.  0.  0.
358  3.57  0.  0.  0.
359  3.58  0.  0.  0.
360  3.59  0.  0.  0.
361  3.60  0.  0.  0.
362  3.61  0.  0.  0.
363  3.62  0.  0.  0.
364  3.63  0.  0.  0.
365  3.64  0.  0.  0.
366  3.65  0.  0.  0.
367  3.66  0.  0.  0.
368  3.67  0.  0.  0.
369  3.68  0.  0.  0.
370  3.69  0.  0.  0.
371  3.70  0.  0.  0.
372  3.71  0.  0.  0.
373  3.72  0.  0.  0.
374  3.73  0.  0.  0.
375  3.74  0.  0.  0.
376  3.75  0.  0.  0.
377  3.76  0.  0.  0.
378  3.77  0.  0.  0.
379  3.78  0.  0.  0.
380  3.79  0.  0.  0.
381  3.80  0.  0.  0.
382  3.81  0.  0.  0.
383  3.82  0.  0.  0.
384  3.83  0.  0.  0.
385  3.84  0.  0.  0.
386  3.85  0.  0.  0.
387  3.86  0.  0.  0.
388  3.87  0.  0.  0.
389  3.88  0.  0.  0.
390  3.89  0.  0.  0.
391  3.90  0.  0.  0.
392  3.91  0.  0.  0.
393  3.92  0.  0.  0.
394  3.93  0.  0.  0.
395  3.94  0.  0.  0.
396  3.95  0.  0.  0.
397  3.96  0.  0.  0.
398  3.97  0.  0.  0.
399  3.98  0.  0.  0.
400  3.99  0.  0.  0.
401  4.00  0.  0.  0.
402  4.01  0.  0.  0.
403  4.02  0.  0.  0.
404  4.03  0.  0.  0.
405  4.04  0.  0.  0.
406  4.05  0.  0.  0.
407  4.06  0.  0.  0.
408  4.07  0.  0.  0.
409  4.08  0.  0.  0.
410  4.09  0.  0.  0.
411  4.10  0.  0.  0.
412  4.11  0.  0.  0.
413  4.12  0.  0.  0.
414  4.13  0.  0.  0.
415  4.14  0.  0.  0.
416  4.15  0.  0.  0.
417  4.16  0.  0.  0.
418  4.17  0.  0.  0.
419  4.18  0.  0.  0.
420  4.19  0.  0.  0.
421  4.20  0.  0.  0.
422  4.21  0.  0.  0.
423  4.22  0.  0.  0.
424  4.23  0.  0.  0.
425  4.24  0.  0.  0.
426  4.25  0.  0.  0.
427  4.26  0.  0.  0.
428  4.27  0.  0.  0.
429  4.28  0.  0.  0.
430  4.29  0.  0.  0.
431  4.30  0.  0.  0.
432  4.31  0.  0.  0.
433  4.32  0.  0.  0.
434  4.33  0.  0.  0.
435  4.34  0.  0.  0.
436  4.35  0.  0.  0.
437  4.36  0.  0.  0.
438  4.37  0.  0.  0.
439  4.38  0.  0.  0.
440  4.39  0.  0.  0.
441  4.40  0.  0.  0.
442  4.41  0.  0.  0.
443  4.42  0.  0.  0.
444  4.43  0.  0.  0.
445  4.44  0.  0.  0.
446  4.45  0.  0.  0.
447  4.46  0.  0.  0.
448  4.47  0.  0.  0.
449  4.48  0.  0.  0.
450  4.49  0.  0.  0.
451  4.50  0.  0.  0.
452  4.51  0.  0.  0.
453  4.52  0.  0.  0.
454  4.53  0.  0.  0.
455  4.54  0.  0.  0.
456  4.55  0.  0.  0.
457  4.56  0.  0.  0.
458  4.57  0.  0.  0.
459  4.58  0.  0.  0.
460  4.59  0.  0.  0.
461  4.60  0.  0.  0.
462  4.61  0.  0.  0.
463  4.62  0.  0.  0.
464  4.63  0.  0.  0.
465  4.64  0.  0.  0.
466  4.65  0.  0.  0.
467  4.66  0.  0.  0.
468  4.67  0.  0.  0.
469  4.68  0.  0.  0.
470  4.69  0.  0.  0.
471  4.70  0.  0.  0.
472  4.71  0.  0.  0.
473  4.72  0.  0.  0.
474  4.73  0.  0.  0.
475  4.74  0.  0.  0.
476  4.75  0.  0.  0.
477  4.76  0.  0.  0.
478  4.77  0.  0.  0.
479  4.78  0.  0.  0.
480  4.79  0.  0.  0.
481  4.80  0.  0.  0.
482  4.81  0.  0.  0.
483  4.82  0.  0.  0.
484  4.83  0.  0.  0.
485  4.84  0.  0.  0.
486  4.85  0.  0.  0.
487  4.86  0.  0.  0.
488  4.87  0.  0.  0.
489  4.88  0.  0.  0.
490  4.89  0.  0.  0.
491  4.90  0.  0.  0.
492  4.91  0.  0.  0.
493  4.92  0.  0.  0.
494  4.93  0.  0.  0.
495  4.94  0.  0.  0.
496  4.95  0.  0.  0.
497  4.96  0.  0.  0.
498  4.97  0.  0.  0.
499  4.98  0.  0.  0.
500  4.99  0.  0.  0.
501  5.00  0.  0.  0.
502  5.01  0.  0.  0.
503  5.02  0.  0.  0.
504  5.03  0.  0.  0.
505  5.04  0.  0.  0.
506  5.05  0.  0.  0.
507  5.06  0.  0.  0.
508  5.07  0.  0.  0.
509  5.08  0.  0.  0.
510  5.09  0.  0.  0.
511  5.10  0.  0.  0.
512  5.11  0.  0.  0.
513  5.12  0.  0.  0.
514  5.13  0.  0.  0.
515  5.14  0.  0.  0.
516  5.15  0.  0.  0.
517  5.16  0.  0.  0.
518  5.17  0.  0.  0.
519  5.18  0.  0.  0.
520  5.19  0.  0.  0.
521  5.20  0.  0.  0.
522  5.21  0.  0.  0.
523  5.22  0.  0.  0.
524  5.23  0.  0.  0.
525  5.24  0.  0.  0.
526  5.25  0.  0.  0.
527  5.26  0.  0.  0.
528  5.27  0.  0.  0.
529  5.28  0.  0.  0.
530  5.29  0.  0.  0.
531  5.30  0.  0.  0.
532  5.31  0.  0.  0.
533  5.32  0.  0.  0.
534  5.33  0.  0.  0.
535  5.34  0.  0.  0.
536  5.35  0.  0.  0.
537  5.36  0.  0.  0.
538  5.37  0.  0.  0.
539  5.38  0.  0.  0.
540  5.39  0.  0.  0.
541  5.40  0.  0.  0.
542  5.41  0.  0.  0.
543  5.42  0.  0.  0.
544  5.43  0.  0.  0.
545  5.44  0.  0.  0.
546  5.45  0.  0.  0.
547  5.46  0.  0.  0.
548  5.47  0.  0.  0.
549  5.48  0.  0.  0.
550  5.49  0.  0.  0.
551  5.50  0.  0.  0.
552  5.51  0.  0.  0.
553  5.52  0.  0.  0.
554  5.53  0.  0.  0.
555  5.54  0.  0.  0.
556  5.55  0.  0.  0.
557  5.56  0.  0.  0.
558  5.57  0.  0.  0.
559  5.58  0.  0.  0.
560  5.59  0.  0.  0.
561  5.60  0.  0.  0.
562  5.61  0.  0.  0.
563  5.62  0.  0.  0.
564  5.63  0.  0.  0.
565  5.64  0.  0.  0.
566  5.65  0.  0.  0.
567  5.66  0.  0.  0.
568  5.67  0.  0.  0.
569  5.68  0.  0.  0.
570  5.69  0.  0.  0.
571  5.70  0.  0.  0.
572  5.71  0.  0.  0.
573  5.72  0.  0.  0.
574  5.73  0.  0.  0.
575  5.74  0.  0.  0.
576  5.75  0.  0.  0.
577  5.76  0.  0.  0.
578  5.77  0.  0.  0.
579  5.78  0.  0.  0.
580  5.79  0.  0.  0.
581  5.80  0.  0.  0.
582  5.81  0.  0.  0.
583  5.82  0.  0.  0.
584  5.83  0.  0.  0.
585  5.84  0.  0.  0.
586  5.85  0.  0.  0.
587  5.86  0.  0.  0.
588  5.87  0.  0.  0.
589  5.88  0.  0.  0.
590  5.89  0.  0.  0.
591  5.90  0.  0.  0.
592  5.91  0.  0.  0.
593  5.92  0.  0.  0.
594  5.93  0.  0.  0.
595  5.94  0.  0.  0.
596  5.95  0.  0.  0.
597  5.96  0.  0.  0.
598  5.97  0.  0.  0.
599  5.98  0.  0.  0.
600  5.99  0.  0.  0.
1                         1.5413041533767E+01  2.2289863271643E+00
1  0.0000000000000E+00 -3.2839852948108E-08  6.6269427622528E-08
2  1.0000000000000E-02  2.8853069925789E-03  3.8840265146906E-04
3  2.0000000000000E-02  1.1536184530326E-02  1.5269306293912E-03
4  3.0000000000000E-02  2.5936978942393E-02  3.3367799521154E-03
5  4.0000000000000E-02  4.6059878418515E-02  5.6906861315822E-03
6  5.0000000000000E-02  7.1862406231201E-02  8.4188836454689E-03
7  6.0000000000000E-02  1.0328406211130E-01  1.1317146900502E-02
8  7.0000000000000E-02  1.4024225652820E-01  1.4156622360605E-02
9  8.0000000000000E-02  1.8262771546585E-01  1.6695095244125E-02
10  9.0000000000000E-02  2.3029956010827E-01  1.8689279709860E-02
11  1.0000000000000E-01  2.8308028571376E-01  1.9907680594984E-02
12  1.1000000000000E-01  3.4075087614647E-01  2.0143548948564E-02
13  1.2000000000000E-01  4.0304629457103E-01  1.9227443759245E-02
14  1.3000000000000E-01  4.6965158648458E-01  1.7038918831857E-02
15  1.4000000000000E-01  5.4019881861212E-01  1.3516876630050E-02
16  1.5000000000000E-01  6.1426505654537E-01  8.6681694517875E-03
17  1.6000000000000E-01  6.9137155594120E-01  2.5740814149264E-03
18  1.7000000000000E-01  7.7098430743695E-01 -4.6056092009217E-03
19  1.8000000000000E-01  8.5251603522853E-01 -1.2631210713057E-02
20  1.9000000000000E-01  9.3532970472512E-01 -2.1184479826573E-02
21  2.0000000000000E-01  1.0187435472255E+00 -2.9872811031264E-02
22  2.1000000000000E-01  1.1020375606487E+00 -3.8236205896595E-02
23  2.2000000000000E-01  1.1844613965529E+00 -4.5756880385865E-02
24  2.3000000000000E-01  1.2652434965687E+00 -5.1871277313371E-02
25  2.4000000000000E-01  1.3436012974897E+00 -5.5984166242362E-02
26  2.5000000000000E-01  1.4187522850708E+00 -5.7484437302018E-02
27  2.6000000000000E-01  1.4899256434062E+00 -5.5762131169888E-02
28  2.7000000000000E-01  1.5563742207542E+00 -5.0226197067013E-02
29  2.8000000000000E-01  1.6173865147867E+00 -4.0322435874607E-02
30  2.9000000000000E-01  1.6722983711794E+00 -2.5551067759108E-02
31  3.0000000000000E-01  1.7205040896373E+00 -5.4833638111004E-03
32  3.1000000000000E-01  1.7614666410435E+00  2.0223200567447E-02
33  3.2000000000000E-01  1.7947267182467E+00  5.1811776765257E-02
34  3.3000000000000E-01  1.8199103706500E+00  8.9415411846271E-02
35  3.4000000000000E-01  1.8367350084812E+00  1.3304914008925E-01
36  3.5000000000000E-01  1.8450136054264E+00  1.8260520011590E-01
37  3.6000000000000E-01  1.8446569769648E+00  2.3785158750333E-01
38  3.7000000000000E-01  1.8356740648036E+00  2.9843405145784E-01
39  3.8000000000000E-01  1.8181702136956E+00  3.6388153765015E-01
40  3.9000000000000E-01  1.7923434839056E+00  4.3361497101979E-01
41  4.0000000000000E-01  1.7584790989123E+00  5.0695916570189E-01
42  4.1000000000000E-01  1.7169421818093E+00  5.8315754766858E-01
43  4.2000000000000E-01  1.6681689835856E+00  6.6138928256086E-01
44  4.3000000000000E-01  1.6126568503974E+00  7.4078831964789E-01
45  4.4000000000000E-01  1.5509532136449E+00  8.2046379570027E-01
46  4.5000000000000E-01  1.4836439148845E+00  8.9952119219977E-01
47  4.6000000000000E-01  1.4113411963563E+00  9.7708360762165E-01
48  4.7000000000000E-01  1.3346716964779E+00  1.0523124948413E+00
49  4.8000000000000E-01  1.2542647876709E+00  1.1244272227331E+00
50  4.9000000000000E-01  1.1707415812842E+00  1.1927228507858E+00
51  5.0000000000000E-01  1.0847049014591E+00  1.2565855554264E+00
52  5.1000000000000E-01  9.9673049715820E-01  1.3155052154327E+00
53  5.2000000000000E-01  9.0735972021114E-01  1.3690847493956E+00
54  5.3000000000000E-01  8.1709384835955E-01  1.4170458981621E+00
55  5.4000000000000E-01  7.2639017740848E-01  1.4592312565406E+00
56  5.5000000000000E-01  6.3565994744553E-01  1.4956024778299E+00
57  5.6000000000000E-01  5.4526810654784E-01  1.5262346982109E+00
58  5.7000000000000E-01  4.5553485345399E-01  1.5513073517518E+00
59  5.8000000000000E-01  3.6673884036055E-01  1.5710916667024E+00
60  5.9000000000000E-01  2.7912186031526E-01  1.5859352459322E+00
61  6.0000000000000E-01  1.9289479253133E-01  1.5962442350150E+00
62  6.1000000000000E-01  1.0824453509536E-01  1.6024636671216E+00
63  6.2000000000000E-01  2.5341619521167E-02  1.6050566415298E+00
64  6.3000000000000E-01 -5.5651823319306E-02  1.6044830397042E+00
65  6.4000000000000E-01 -1.3457409023284E-01  1.6011785076957E+00
66  6.5000000000000E-01 -2.1125627228910E-01  1.5955344349090E+00
67  6.6000000000000E-01 -2.8551529791175E-01  1.5878796366976E+00
68  6.7000000000000E-01 -3.5714796813940E-01  1.5784644021522E+00
69  6.8000000000000E-01 -4.2592626731243E-01  1.5674475000177E+00
70  6.9000000000000E-01 -4.9159418987721E-01  1.5548866468225E+00
71  7.0000000000000E-01 -5.5386627257224E-01  1.5407328346424E+00
72  7.1000000000000E-01 -6.1242796259149E-01  1.5248287946978E+00
73  7.2000000000000E-01 -6.6693788827919E-01  1.5069117409450E+00
74  7.3000000000000E-01 -7.1703203159043E-01  1.4866203991570E+00
75  7.4000000000000E-01 -7.6232973315924E-01  1.4635061861144E+00
76  7.5000000000000E-01 -8.0244139364648E-01  1.4370482650314E+00
77  7.6000000000000E-01 -8.3697767135671E-01  1.4066720717568E+00
78  7.7000000000000E-01 -8.6555991809684E-01  1.3717707859843E+00
79  7.8000000000000E-01 -8.8783154492149E-01  1.3317291167290E+00
80  7.9000000000000E-01 -9.0346996854614E-01  1.2859486852525E+00
81  8.0000000000000E-01 -9.1219875929306E-01  1.2338742244254E+00
82  8.1000000000000E-01 -9.1379959359410E-01  1.1750197735077E+00
83  8.2000000000000E-01 -9.0812360904016E-01  1.1089940329818E+00
84  8.3000000000000E-01 -8.9510176804248E-01  1.0355240560645E+00
85  8.4000000000000E-01 -8.7475385721424E-01  9.5447649160548E-01
86  8.5000000000000E-01 -8.4719578300405E-01  8.6587565614911E-01
87  8.6000000000000E-01 -8.1264486889344E-01  7.6991779900639E-01
88  8.7000000000000E-01 -7.7142291417423E-01  6.6698103045996E-01
89  8.8000000000000E-01 -7.2395683715080E-01  5.5763050618801E-01
90  8.9000000000000E-01 -6.7077679444495E-01  4.4261859646822E-01
91  9.0000000000000E-01 -6.1251174054430E-01  3.2287991204135E-01
92  9.1000000000000E-01 -5.4988246526703E-01  1.9952120461722E-01
93  9.2000000000000E-01 -4.8369221874487E-01  7.3806303613691E-02
94  9.3000000000000E-01 -4.1481510114128E-01 -5.2863613535828E-02
95  9.4000000000000E-01 -3.4418245497286E-01 -1.7897399755145E-01
96  9.5000000000000E-01 -2.7276754904389E-01 -3.0292462556025E-01
97  9.6000000000000E-01 -2.0156888229572E-01 -4.2306041545904E-01
98  9.7000000000000E-01 -1.3159246123494E-01 -5.3770469584119E-01
99  9.8000000000000E-01 -6.3833414272866E-02 -6.4519424693684E-01
100  9.9000000000000E-01  7.4270110841736E-04 -7.4391543739425E-01
101  1.0000000000000E+00  6.1218567960032E-02 -8.3234082656611E-01
102  1.0100000000000E+00  1.1674347002238E-01 -9.0906568349204E-01
103  1.0200000000000E+00  1.6655111911744E-01 -9.7284399216560E-01
104  1.0300000000000E+00  2.0997680794446E-01 -1.0226236677636E+00
105  1.0400000000000E+00  2.4647384562125E-01 -1.0575808986517E+00
106  1.0500000000000E+00  2.7562934895388E-01 -1.0771537518367E+00
107  1.0600000000000E+00  2.9717959338830E-01 -1.0810754329603E+00
108  1.0700000000000E+00  3.1102527145021E-01 -1.0694078711925E+00
109  1.0800000000000E+00  3.1724716144344E-01 -1.0425766010621E+00
110  1.0900000000000E+00  3.1612287875898E-01 -1.0014082459999E+00
111  1.1000000000000E+00  3.0814541310690E-01 -9.4717192551010E-01
112  1.1100000000000E+00  2.9404283078743E-01 -8.8162284109832E-01
113  1.1200000000000E+00  2.7473844604030E-01 -8.0691050241197E-01
114  1.1300000000000E+00  2.5124515267322E-01 -7.2534180063583E-01
115  1.1400000000000E+00  2.2462379629278E-01 -6.3929426038035E-01
116  1.1500000000000E+00  1.9595788853878E-01 -5.5116735625474E-01
117  1.1600000000000E+00  1.6632741700592E-01 -4.6333203817054E-01
118  1.1700000000000E+00  1.3678246626409E-01 -3.7807986295333E-01
119  1.1800000000000E+00  1.0831723512727E-01 -2.9757287006862E-01
120  1.1900000000000E+00  8.1840294535755E-02 -2.2378722920975E-01