Pa    ONCVPSP-4.0.1  r_core=   1.20608   1.25016   1.20608   1.40064
91.0000     31.0000      230114    zatom,zion,pspd
8      11   3     4   600     0    pspcod,pspxc,lmax,lloc,mmax,r2well
5.99000000  5.00000000  0.00000000    rchrg fchrg qchrg
3     2     2     2     0    nproj
1     1           extension_switch
0                         2.5499608595026E+01  2.9455604518111E+00 -1.3750829310511E+00
1  0.0000000000000E+00  1.2707634500231E-08 -7.7591600769478E-08 -6.9203082331271E-07
2  1.0000000000000E-02  1.0699094307142E-01 -1.0776030191973E-02  1.7851180166232E-01
3  2.0000000000000E-02  2.1370275802678E-01 -2.1845962518391E-02  3.5227129235396E-01
4  3.0000000000000E-02  3.1985417656879E-01 -3.3485950372164E-02  5.1668167137214E-01
5  4.0000000000000E-02  4.2515975700280E-01 -4.5937279148752E-02  6.6745176368945E-01
6  5.0000000000000E-02  5.2932806150726E-01 -5.9390484822370E-02  8.0073553490355E-01
7  6.0000000000000E-02  6.3206014063393E-01 -7.3971277133299E-02  9.1325617201830E-01
8  7.0000000000000E-02  7.3304841188146E-01 -8.9728773567428E-02  1.0024104378027E+00
9  8.0000000000000E-02  8.3197600647881E-01 -1.0662647271753E-01  1.0663496985050E+00
10  9.0000000000000E-02  9.2851664339956E-01 -1.2453630363969E-01  1.1040348430069E+00
11  1.0000000000000E-01  1.0223350725822E+00 -1.4323598454710E-01  1.1152632273702E+00
12  1.1000000000000E-01  1.1130881108913E+00 -1.6240981308689E-01  1.1006667599882E+00
13  1.2000000000000E-01  1.2004262750990E+00 -1.8165289525307E-01  1.0616812547574E+00
14  1.3000000000000E-01  1.2839959967015E+00 -2.0047870456554E-01  1.0004881872547E+00
15  1.4000000000000E-01  1.3634423843210E+00 -2.1832975135922E-01  9.1993095645448E-01
16  1.5000000000000E-01  1.4384124813694E+00 -2.3459103762253E-01  8.2340864801822E-01
17  1.6000000000000E-01  1.5085589501432E+00 -2.4860587929018E-01  7.1475108321998E-01
18  1.7000000000000E-01  1.5735440990699E+00 -2.5969359835059E-01  5.9807959240019E-01
19  1.8000000000000E-01  1.6330441578972E+00 -2.6716852421768E-01  4.7765845040260E-01
20  1.9000000000000E-01  1.6867536965641E+00 -2.7035969961879E-01  3.5774223618272E-01
21  2.0000000000000E-01  1.7343900775823E+00 -2.6863066220884E-01  2.4242451819814E-01
22  2.1000000000000E-01  1.7756978291698E+00 -2.6139866999950E-01  1.3549321636299E-01
23  2.2000000000000E-01  1.8104528271670E+00 -2.4815275654408E-01  4.0297751988563E-02
24  2.3000000000000E-01  1.8384661778996E+00 -2.2847003998854E-01 -4.0367322327810E-02
25  2.4000000000000E-01  1.8595877014701E+00 -2.0202976725255E-01 -1.0435810580817E-01
26  2.5000000000000E-01  1.8737089252254E+00 -1.6862464875819E-01 -1.5025316823775E-01
27  2.6000000000000E-01  1.8807655100112E+00 -1.2816912773581E-01 -1.7739887587071E-01
28  2.7000000000000E-01  1.8807390468739E+00 -8.0704328174772E-02 -1.8592663415020E-01
29  2.8000000000000E-01  1.8736581786159E+00 -2.6399533546411E-02 -1.7674145123879E-01
30  2.9000000000000E-01  1.8595990185163E+00  3.4449839164037E-02 -1.5148224182247E-01
31  3.0000000000000E-01  1.8386848570335E+00  1.0142769261290E-01 -1.1245529152682E-01
32  3.1000000000000E-01  1.8110851658227E+00  1.7400594223582E-01 -6.2543253108068E-02
33  3.2000000000000E-01  1.7770139263554E+00  2.5155615938707E-01 -5.0929130045585E-03
34  3.3000000000000E-01  1.7367273272778E+00  3.3336378209669E-01  5.6214279918229E-02
35  3.4000000000000E-01  1.6905208898672E+00  4.1864443208056E-01  1.1750431897906E-01
36  3.5000000000000E-01  1.6387260941061E+00  5.0656181366929E-01  1.7486032284381E-01
37  3.6000000000000E-01  1.5817065886059E+00  5.9624662539638E-01  2.2447447020707E-01
38  3.7000000000000E-01  1.5198540755844E+00  6.8681588949575E-01  2.6279677435257E-01
39  3.8000000000000E-01  1.4535839671415E+00  7.7739209924086E-01  2.8667539194255E-01
40  3.9000000000000E-01  1.3833309110763E+00  8.6712159892814E-01  2.9348345301273E-01
41  4.0000000000000E-01  1.3095442834535E+00  9.5519164571874E-01  2.8122786810300E-01
42  4.1000000000000E-01  1.2326837411600E+00  1.0408456551544E+00  2.4863619686678E-01
43  4.2000000000000E-01  1.1532149209849E+00  1.1233962010184E+00  1.9521842820176E-01
44  4.3000000000000E-01  1.0716053626014E+00  1.2022354228123E+00  1.2130139766447E-01
45  4.4000000000000E-01  9.8832072158367E-01  1.2768425875080E+00  2.8034522664985E-02
46  4.5000000000000E-01  9.0382132568704E-01  1.3467886530987E+00 -8.2633464059682E-02
47  4.6000000000000E-01  8.1855911353051E-01  1.4117377862672E+00 -2.0800609229859E-01
48  4.7000000000000E-01  7.3297498005637E-01  1.4714458915478E+00 -3.4471736893489E-01
49  4.8000000000000E-01  6.4749653822486E-01  1.5257563110526E+00 -4.8883403062280E-01
50  4.9000000000000E-01  5.6253629185498E-01  1.5745929486493E+00 -6.3597840467730E-01
51  5.0000000000000E-01  4.7849020084134E-01  1.6179511572045E+00 -7.8146773852600E-01
52  5.1000000000000E-01  3.9573660762438E-01  1.6558867992796E+00 -9.2046529447085E-01
53  5.2000000000000E-01  3.1463548317376E-01  1.6885039481214E+00 -1.0481381083266E+00
54  5.3000000000000E-01  2.3552794220081E-01  1.7159417351000E+00 -1.1598160909688E+00
55  5.4000000000000E-01  1.5873597110972E-01  1.7383608707161E+00 -1.2511471178677E+00
56  5.5000000000000E-01  8.4562308500551E-02  1.7559303683829E+00 -1.3182429034919E+00
57  5.6000000000000E-01  1.3290416936942E-02  1.7688149834969E+00 -1.3578107886482E+00
58  5.7000000000000E-01 -5.4815513824646E-02  1.7771638456413E+00 -1.3672670666296E+00
59  5.8000000000000E-01 -1.1951058798038E-01  1.7811007105060E+00 -1.3448281198446E+00
60  5.9000000000000E-01 -1.8056929877559E-01  1.7807161922535E+00 -1.2895764085800E+00
61  6.0000000000000E-01 -2.3778573884585E-01  1.7760622590662E+00 -1.2014992197094E+00
62  6.1000000000000E-01 -2.9097395712972E-01  1.7671491873678E+00 -1.0814990141569E+00
63  6.2000000000000E-01 -3.3996848242829E-01  1.7539450768832E+00 -9.3137517444984E-01
64  6.3000000000000E-01 -3.8462502158710E-01  1.7363779326457E+00 -7.5377791354872E-01
65  6.4000000000000E-01 -4.2482132779750E-01  1.7143402246933E+00 -5.5213602955035E-01
66  6.5000000000000E-01 -4.6045822213217E-01  1.6876957448631E+00 -3.3056104569829E-01
67  6.6000000000000E-01 -4.9146073961438E-01  1.6562884959743E+00 -9.3731032064298E-02
68  6.7000000000000E-01 -5.1777936032028E-01  1.6199532746549E+00  1.5324196120242E-01
69  6.8000000000000E-01 -5.3939127663590E-01  1.5785275476133E+00  4.0495643972128E-01
70  6.9000000000000E-01 -5.5630164019293E-01  1.5318641742814E+00  6.5587322047939E-01
71  7.0000000000000E-01 -5.6854472648166E-01  1.4798444979477E+00  9.0046949650193E-01
72  7.1000000000000E-01 -5.7618495190388E-01  1.4223913136273E+00  1.1333903103745E+00
73  7.2000000000000E-01 -5.7931767722018E-01  1.3594812242600E+00  1.3495927154191E+00
74  7.3000000000000E-01 -5.7806973301831E-01  1.2911559170547E+00  1.5444782415911E+00
75  7.4000000000000E-01 -5.7259960694746E-01  1.2175319279751E+00  1.7140097657711E+00
76  7.5000000000000E-01 -5.6309723891202E-01  1.1388085130171E+00  1.8548094930224E+00
77  7.6000000000000E-01 -5.4978337899838E-01  1.0552733081028E+00  1.9642354623727E+00
78  7.7000000000000E-01 -5.3290847335556E-01  9.6730553274828E-01  2.0404347703787E+00
79  7.8000000000000E-01 -5.1275105523004E-01  8.7537657346059E-01  2.0823725283624E+00
80  7.9000000000000E-01 -4.8961563149265E-01  7.8004786820607E-01  2.0898364042886E+00
81  8.0000000000000E-01 -4.6383006886805E-01  6.8196610025020E-01  2.0634174170824E+00
82  8.1000000000000E-01 -4.3574249825210E-01  5.8185579523072E-01  2.0044684207513E+00
83  8.2000000000000E-01 -4.0571776952727E-01  4.8050949658467E-01  1.9150424109363E+00
84  8.3000000000000E-01 -3.7413350272514E-01  3.7877576876119E-01  1.7978133841358E+00
85  8.4000000000000E-01 -3.4137579381741E-01  2.7754534264163E-01  1.6559829604493E+00
86  8.5000000000000E-01 -3.0783464446137E-01  1.7773577128370E-01  1.4931763298606E+00
87  8.6000000000000E-01 -2.7389919434324E-01  8.0275004968584E-02  1.3133312906532E+00
88  8.7000000000000E-01 -2.3995284207450E-01 -1.3915678486298E-02  1.1205842129463E+00
89  8.8000000000000E-01 -2.0636834568439E-01 -1.0393893961893E-01  9.1915668251773E-01
90  8.9000000000000E-01 -1.7350299647092E-01 -1.8893839275647E-01  7.1324636738405E-01
91  9.0000000000000E-01 -1.4169396024782E-01 -2.6811494015071E-01  5.0692531436512E-01
92  9.1000000000000E-01 -1.1125387785672E-01 -3.4074202280171E-01  3.0404844173593E-01
93  9.2000000000000E-01 -8.2466812271847E-02 -4.0617942642349E-01  1.0817446735989E-01
94  9.3000000000000E-01 -5.5584622849081E-02 -4.6388533138858E-01 -7.7499077532409E-02
95  9.4000000000000E-01 -3.0823838459736E-02 -5.1342635379612E-01 -2.5018572581058E-01
96  9.5000000000000E-01 -8.3630906553422E-03 -5.5448538885094E-01 -4.0754445942806E-01
97  9.6000000000000E-01  1.1658844069464E-02 -5.8686713521433E-01 -5.4769884469837E-01
98  9.7000000000000E-01  2.9144357085643E-02 -6.1050124759657E-01 -6.6924175056842E-01
99  9.8000000000000E-01  4.4037653717017E-02 -6.2544313234304E-01 -7.7122701424142E-01
100  9.9000000000000E-01  5.6324725292464E-02 -6.3187246505832E-01 -8.5314987361227E-01
101  1.0000000000000E+00  6.6032654404229E-02 -6.3008956853570E-01 -9.1491834970745E-01
102  1.0100000000000E+00  7.3228274889524E-02 -6.2050984182173E-01 -9.5681802415997E-01
103  1.0200000000000E+00  7.8016221709809E-02 -6.0365647589085E-01 -9.7947281105801E-01
104  1.0300000000000E+00  8.0536418654967E-02 -5.8015172727399E-01 -9.8380436792286E-01
105  1.0400000000000E+00  8.0961063350294E-02 -5.5070704747550E-01 -9.7099273041375E-01
106  1.0500000000000E+00  7.9491179175972E-02 -5.1611238303460E-01 -9.4244059794049E-01
107  1.0600000000000E+00  7.6352812250594E-02 -4.7722496881526E-01 -8.9974345328797E-01
108  1.0700000000000E+00  7.1792958409620E-02 -4.3495793604129E-01 -8.4466738465906E-01
109  1.0800000000000E+00  6.6075310070708E-02 -3.9026904758461E-01 -7.7913610994612E-01
110  1.0900000000000E+00  5.9475916491745E-02 -3.4414985932380E-01 -7.0522830941286E-01
111  1.1000000000000E+00  5.2278838687400E-02 -2.9761552679416E-01 -6.2518570376556E-01
112  1.1100000000000E+00  4.4771732404442E-02 -2.5169481605736E-01 -5.4142916451456E-01
113  1.1200000000000E+00  3.7235678823522E-02 -2.0739561436257E-01 -4.5647270729265E-01
114  1.1300000000000E+00  2.9930443550238E-02 -1.6565044906362E-01 -3.7274116307672E-01
115  1.1400000000000E+00  2.3088145544201E-02 -1.2729738267689E-01 -2.9252790244924E-01
116  1.1500000000000E+00  1.6904757378708E-02 -9.3064507099534E-02 -2.1811584998160E-01
117  1.1600000000000E+00  1.1519222819083E-02 -6.3537382234545E-02 -1.5226592925044E-01
118  1.1700000000000E+00  7.0747488667770E-03 -3.9239913691664E-02 -9.6478727764727E-02
119  1.1800000000000E+00  3.6761153237641E-03 -2.0577723839754E-02 -5.2074036218929E-02
120  1.1900000000000E+00  1.3800870909067E-03 -7.8258951411010E-03 -2.0446526257103E-02
121  1.2000000000000E+00  1.9760265896532E-04 -1.1396507915653E-03 -3.0837346540230E-03
122  1.2100000000000E+00 -1.1752999934101E-05  6.8734489617897E-05  1.9088187379922E-04
123  1.2200000000000E+00  8.8268510269520E-07 -5.1291592732669E-06 -1.4083664622646E-05
124  1.23 -0.  0. -0.
125  1.24  0.  0.  0.
126  1.25  0.  0.  0.
127  1.26  0.  0.  0.
128  1.27  0.  0.  0.
129  1.28  0.  0.  0.
130  1.29  0.  0.  0.
131  1.30  0.  0.  0.
132  1.31  0.  0.  0.
133  1.32  0.  0.  0.
134  1.33  0.  0.  0.
135  1.34  0.  0.  0.
136  1.35  0.  0.  0.
137  1.36  0.  0.  0.
138  1.37  0.  0.  0.
139  1.38  0.  0.  0.
140  1.39  0.  0.  0.
141  1.40  0.  0.  0.
142  1.41  0.  0.  0.
143  1.42  0.  0.  0.
144  1.43  0.  0.  0.
145  1.44  0.  0.  0.
146  1.45  0.  0.  0.
147  1.46  0.  0.  0.
148  1.47  0.  0.  0.
149  1.48  0.  0.  0.
150  1.49  0.  0.  0.
151  1.50  0.  0.  0.
152  1.51  0.  0.  0.
153  1.52  0.  0.  0.
154  1.53  0.  0.  0.
155  1.54  0.  0.  0.
156  1.55  0.  0.  0.
157  1.56  0.  0.  0.
158  1.57  0.  0.  0.
159  1.58  0.  0.  0.
160  1.59  0.  0.  0.
161  1.60  0.  0.  0.
162  1.61  0.  0.  0.
163  1.62  0.  0.  0.
164  1.63  0.  0.  0.
165  1.64  0.  0.  0.
166  1.65  0.  0.  0.
167  1.66  0.  0.  0.
168  1.67  0.  0.  0.
169  1.68  0.  0.  0.
170  1.69  0.  0.  0.
171  1.70  0.  0.  0.
172  1.71  0.  0.  0.
173  1.72  0.  0.  0.
174  1.73  0.  0.  0.
175  1.74  0.  0.  0.
176  1.75  0.  0.  0.
177  1.76  0.  0.  0.
178  1.77  0.  0.  0.
179  1.78  0.  0.  0.
180  1.79  0.  0.  0.
181  1.80  0.  0.  0.
182  1.81  0.  0.  0.
183  1.82  0.  0.  0.
184  1.83  0.  0.  0.
185  1.84  0.  0.  0.
186  1.85  0.  0.  0.
187  1.86  0.  0.  0.
188  1.87  0.  0.  0.
189  1.88  0.  0.  0.
190  1.89  0.  0.  0.
191  1.90  0.  0.  0.
192  1.91  0.  0.  0.
193  1.92  0.  0.  0.
194  1.93  0.  0.  0.
195  1.94  0.  0.  0.
196  1.95  0.  0.  0.
197  1.96  0.  0.  0.
198  1.97  0.  0.  0.
199  1.98  0.  0.  0.
200  1.99  0.  0.  0.
201  2.00  0.  0.  0.
202  2.01  0.  0.  0.
203  2.02  0.  0.  0.
204  2.03  0.  0.  0.
205  2.04  0.  0.  0.
206  2.05  0.  0.  0.
207  2.06  0.  0.  0.
208  2.07  0.  0.  0.
209  2.08  0.  0.  0.
210  2.09  0.  0.  0.
211  2.10  0.  0.  0.
212  2.11  0.  0.  0.
213  2.12  0.  0.  0.
214  2.13  0.  0.  0.
215  2.14  0.  0.  0.
216  2.15  0.  0.  0.
217  2.16  0.  0.  0.
218  2.17  0.  0.  0.
219  2.18  0.  0.  0.
220  2.19  0.  0.  0.
221  2.20  0.  0.  0.
222  2.21  0.  0.  0.
223  2.22  0.  0.  0.
224  2.23  0.  0.  0.
225  2.24  0.  0.  0.
226  2.25  0.  0.  0.
227  2.26  0.  0.  0.
228  2.27  0.  0.  0.
229  2.28  0.  0.  0.
230  2.29  0.  0.  0.
231  2.30  0.  0.  0.
232  2.31  0.  0.  0.
233  2.32  0.  0.  0.
234  2.33  0.  0.  0.
235  2.34  0.  0.  0.
236  2.35  0.  0.  0.
237  2.36  0.  0.  0.
238  2.37  0.  0.  0.
239  2.38  0.  0.  0.
240  2.39  0.  0.  0.
241  2.40  0.  0.  0.
242  2.41  0.  0.  0.
243  2.42  0.  0.  0.
244  2.43  0.  0.  0.
245  2.44  0.  0.  0.
246  2.45  0.  0.  0.
247  2.46  0.  0.  0.
248  2.47  0.  0.  0.
249  2.48  0.  0.  0.
250  2.49  0.  0.  0.
251  2.50  0.  0.  0.
252  2.51  0.  0.  0.
253  2.52  0.  0.  0.
254  2.53  0.  0.  0.
255  2.54  0.  0.  0.
256  2.55  0.  0.  0.
257  2.56  0.  0.  0.
258  2.57  0.  0.  0.
259  2.58  0.  0.  0.
260  2.59  0.  0.  0.
261  2.60  0.  0.  0.
262  2.61  0.  0.  0.
263  2.62  0.  0.  0.
264  2.63  0.  0.  0.
265  2.64  0.  0.  0.
266  2.65  0.  0.  0.
267  2.66  0.  0.  0.
268  2.67  0.  0.  0.
269  2.68  0.  0.  0.
270  2.69  0.  0.  0.
271  2.70  0.  0.  0.
272  2.71  0.  0.  0.
273  2.72  0.  0.  0.
274  2.73  0.  0.  0.
275  2.74  0.  0.  0.
276  2.75  0.  0.  0.
277  2.76  0.  0.  0.
278  2.77  0.  0.  0.
279  2.78  0.  0.  0.
280  2.79  0.  0.  0.
281  2.80  0.  0.  0.
282  2.81  0.  0.  0.
283  2.82  0.  0.  0.
284  2.83  0.  0.  0.
285  2.84  0.  0.  0.
286  2.85  0.  0.  0.
287  2.86  0.  0.  0.
288  2.87  0.  0.  0.
289  2.88  0.  0.  0.
290  2.89  0.  0.  0.
291  2.90  0.  0.  0.
292  2.91  0.  0.  0.
293  2.92  0.  0.  0.
294  2.93  0.  0.  0.
295  2.94  0.  0.  0.
296  2.95  0.  0.  0.
297  2.96  0.  0.  0.
298  2.97  0.  0.  0.
299  2.98  0.  0.  0.
300  2.99  0.  0.  0.
301  3.00  0.  0.  0.
302  3.01  0.  0.  0.
303  3.02  0.  0.  0.
304  3.03  0.  0.  0.
305  3.04  0.  0.  0.
306  3.05  0.  0.  0.
307  3.06  0.  0.  0.
308  3.07  0.  0.  0.
309  3.08  0.  0.  0.
310  3.09  0.  0.  0.
311  3.10  0.  0.  0.
312  3.11  0.  0.  0.
313  3.12  0.  0.  0.
314  3.13  0.  0.  0.
315  3.14  0.  0.  0.
316  3.15  0.  0.  0.
317  3.16  0.  0.  0.
318  3.17  0.  0.  0.
319  3.18  0.  0.  0.
320  3.19  0.  0.  0.
321  3.20  0.  0.  0.
322  3.21  0.  0.  0.
323  3.22  0.  0.  0.
324  3.23  0.  0.  0.
325  3.24  0.  0.  0.
326  3.25  0.  0.  0.
327  3.26  0.  0.  0.
328  3.27  0.  0.  0.
329  3.28  0.  0.  0.
330  3.29  0.  0.  0.
331  3.30  0.  0.  0.
332  3.31  0.  0.  0.
333  3.32  0.  0.  0.
334  3.33  0.  0.  0.
335  3.34  0.  0.  0.
336  3.35  0.  0.  0.
337  3.36  0.  0.  0.
338  3.37  0.  0.  0.
339  3.38  0.  0.  0.
340  3.39  0.  0.  0.
341  3.40  0.  0.  0.
342  3.41  0.  0.  0.
343  3.42  0.  0.  0.
344  3.43  0.  0.  0.
345  3.44  0.  0.  0.
346  3.45  0.  0.  0.
347  3.46  0.  0.  0.
348  3.47  0.  0.  0.
349  3.48  0.  0.  0.
350  3.49  0.  0.  0.
351  3.50  0.  0.  0.
352  3.51  0.  0.  0.
353  3.52  0.  0.  0.
354  3.53  0.  0.  0.
355  3.54  0.  0.  0.
356  3.55  0.  0.  0.
357  3.56  0.  0.  0.
358  3.57  0.  0.  0.
359  3.58  0.  0.  0.
360  3.59  0.  0.  0.
361  3.60  0.  0.  0.
362  3.61  0.  0.  0.
363  3.62  0.  0.  0.
364  3.63  0.  0.  0.
365  3.64  0.  0.  0.
366  3.65  0.  0.  0.
367  3.66  0.  0.  0.
368  3.67  0.  0.  0.
369  3.68  0.  0.  0.
370  3.69  0.  0.  0.
371  3.70  0.  0.  0.
372  3.71  0.  0.  0.
373  3.72  0.  0.  0.
374  3.73  0.  0.  0.
375  3.74  0.  0.  0.
376  3.75  0.  0.  0.
377  3.76  0.  0.  0.
378  3.77  0.  0.  0.
379  3.78  0.  0.  0.
380  3.79  0.  0.  0.
381  3.80  0.  0.  0.
382  3.81  0.  0.  0.
383  3.82  0.  0.  0.
384  3.83  0.  0.  0.
385  3.84  0.  0.  0.
386  3.85  0.  0.  0.
387  3.86  0.  0.  0.
388  3.87  0.  0.  0.
389  3.88  0.  0.  0.
390  3.89  0.  0.  0.
391  3.90  0.  0.  0.
392  3.91  0.  0.  0.
393  3.92  0.  0.  0.
394  3.93  0.  0.  0.
395  3.94  0.  0.  0.
396  3.95  0.  0.  0.
397  3.96  0.  0.  0.
398  3.97  0.  0.  0.
399  3.98  0.  0.  0.
400  3.99  0.  0.  0.
401  4.00  0.  0.  0.
402  4.01  0.  0.  0.
403  4.02  0.  0.  0.
404  4.03  0.  0.  0.
405  4.04  0.  0.  0.
406  4.05  0.  0.  0.
407  4.06  0.  0.  0.
408  4.07  0.  0.  0.
409  4.08  0.  0.  0.
410  4.09  0.  0.  0.
411  4.10  0.  0.  0.
412  4.11  0.  0.  0.
413  4.12  0.  0.  0.
414  4.13  0.  0.  0.
415  4.14  0.  0.  0.
416  4.15  0.  0.  0.
417  4.16  0.  0.  0.
418  4.17  0.  0.  0.
419  4.18  0.  0.  0.
420  4.19  0.  0.  0.
421  4.20  0.  0.  0.
422  4.21  0.  0.  0.
423  4.22  0.  0.  0.
424  4.23  0.  0.  0.
425  4.24  0.  0.  0.
426  4.25  0.  0.  0.
427  4.26  0.  0.  0.
428  4.27  0.  0.  0.
429  4.28  0.  0.  0.
430  4.29  0.  0.  0.
431  4.30  0.  0.  0.
432  4.31  0.  0.  0.
433  4.32  0.  0.  0.
434  4.33  0.  0.  0.
435  4.34  0.  0.  0.
436  4.35  0.  0.  0.
437  4.36  0.  0.  0.
438  4.37  0.  0.  0.
439  4.38  0.  0.  0.
440  4.39  0.  0.  0.
441  4.40  0.  0.  0.
442  4.41  0.  0.  0.
443  4.42  0.  0.  0.
444  4.43  0.  0.  0.
445  4.44  0.  0.  0.
446  4.45  0.  0.  0.
447  4.46  0.  0.  0.
448  4.47  0.  0.  0.
449  4.48  0.  0.  0.
450  4.49  0.  0.  0.
451  4.50  0.  0.  0.
452  4.51  0.  0.  0.
453  4.52  0.  0.  0.
454  4.53  0.  0.  0.
455  4.54  0.  0.  0.
456  4.55  0.  0.  0.
457  4.56  0.  0.  0.
458  4.57  0.  0.  0.
459  4.58  0.  0.  0.
460  4.59  0.  0.  0.
461  4.60  0.  0.  0.
462  4.61  0.  0.  0.
463  4.62  0.  0.  0.
464  4.63  0.  0.  0.
465  4.64  0.  0.  0.
466  4.65  0.  0.  0.
467  4.66  0.  0.  0.
468  4.67  0.  0.  0.
469  4.68  0.  0.  0.
470  4.69  0.  0.  0.
471  4.70  0.  0.  0.
472  4.71  0.  0.  0.
473  4.72  0.  0.  0.
474  4.73  0.  0.  0.
475  4.74  0.  0.  0.
476  4.75  0.  0.  0.
477  4.76  0.  0.  0.
478  4.77  0.  0.  0.
479  4.78  0.  0.  0.
480  4.79  0.  0.  0.
481  4.80  0.  0.  0.
482  4.81  0.  0.  0.
483  4.82  0.  0.  0.
484  4.83  0.  0.  0.
485  4.84  0.  0.  0.
486  4.85  0.  0.  0.
487  4.86  0.  0.  0.
488  4.87  0.  0.  0.
489  4.88  0.  0.  0.
490  4.89  0.  0.  0.
491  4.90  0.  0.  0.
492  4.91  0.  0.  0.
493  4.92  0.  0.  0.
494  4.93  0.  0.  0.
495  4.94  0.  0.  0.
496  4.95  0.  0.  0.
497  4.96  0.  0.  0.
498  4.97  0.  0.  0.
499  4.98  0.  0.  0.
500  4.99  0.  0.  0.
501  5.00  0.  0.  0.
502  5.01  0.  0.  0.
503  5.02  0.  0.  0.
504  5.03  0.  0.  0.
505  5.04  0.  0.  0.
506  5.05  0.  0.  0.
507  5.06  0.  0.  0.
508  5.07  0.  0.  0.
509  5.08  0.  0.  0.
510  5.09  0.  0.  0.
511  5.10  0.  0.  0.
512  5.11  0.  0.  0.
513  5.12  0.  0.  0.
514  5.13  0.  0.  0.
515  5.14  0.  0.  0.
516  5.15  0.  0.  0.
517  5.16  0.  0.  0.
518  5.17  0.  0.  0.
519  5.18  0.  0.  0.
520  5.19  0.  0.  0.
521  5.20  0.  0.  0.
522  5.21  0.  0.  0.
523  5.22  0.  0.  0.
524  5.23  0.  0.  0.
525  5.24  0.  0.  0.
526  5.25  0.  0.  0.
527  5.26  0.  0.  0.
528  5.27  0.  0.  0.
529  5.28  0.  0.  0.
530  5.29  0.  0.  0.
531  5.30  0.  0.  0.
532  5.31  0.  0.  0.
533  5.32  0.  0.  0.
534  5.33  0.  0.  0.
535  5.34  0.  0.  0.
536  5.35  0.  0.  0.
537  5.36  0.  0.  0.
538  5.37  0.  0.  0.
539  5.38  0.  0.  0.
540  5.39  0.  0.  0.
541  5.40  0.  0.  0.
542  5.41  0.  0.  0.
543  5.42  0.  0.  0.
544  5.43  0.  0.  0.
545  5.44  0.  0.  0.
546  5.45  0.  0.  0.
547  5.46  0.  0.  0.
548  5.47  0.  0.  0.
549  5.48  0.  0.  0.
550  5.49  0.  0.  0.
551  5.50  0.  0.  0.
552  5.51  0.  0.  0.
553  5.52  0.  0.  0.
554  5.53  0.  0.  0.
555  5.54  0.  0.  0.
556  5.55  0.  0.  0.
557  5.56  0.  0.  0.
558  5.57  0.  0.  0.
559  5.58  0.  0.  0.
560  5.59  0.  0.  0.
561  5.60  0.  0.  0.
562  5.61  0.  0.  0.
563  5.62  0.  0.  0.
564  5.63  0.  0.  0.
565  5.64  0.  0.  0.
566  5.65  0.  0.  0.
567  5.66  0.  0.  0.
568  5.67  0.  0.  0.
569  5.68  0.  0.  0.
570  5.69  0.  0.  0.
571  5.70  0.  0.  0.
572  5.71  0.  0.  0.
573  5.72  0.  0.  0.
574  5.73  0.  0.  0.
575  5.74  0.  0.  0.
576  5.75  0.  0.  0.
577  5.76  0.  0.  0.
578  5.77  0.  0.  0.
579  5.78  0.  0.  0.
580  5.79  0.  0.  0.
581  5.80  0.  0.  0.
582  5.81  0.  0.  0.
583  5.82  0.  0.  0.
584  5.83  0.  0.  0.
585  5.84  0.  0.  0.
586  5.85  0.  0.  0.
587  5.86  0.  0.  0.
588  5.87  0.  0.  0.
589  5.88  0.  0.  0.
590  5.89  0.  0.  0.
591  5.90  0.  0.  0.
592  5.91  0.  0.  0.
593  5.92  0.  0.  0.
594  5.93  0.  0.  0.
595  5.94  0.  0.  0.
596  5.95  0.  0.  0.
597  5.96  0.  0.  0.
598  5.97  0.  0.  0.
599  5.98  0.  0.  0.
600  5.99  0.  0.  0.
1                         1.4070792113761E+01  2.0996325618504E+00
1  0.0000000000000E+00 -3.4424088302121E-09  1.1227752103049E-08
2  1.0000000000000E-02  3.3578431732075E-03 -1.2955069906966E-03
3  2.0000000000000E-02  1.3409888017878E-02 -5.1702902964012E-03
4  3.0000000000000E-02  3.0091738433420E-02 -1.1589034656080E-02
5  4.0000000000000E-02  5.3296263222555E-02 -2.0492548170951E-02
6  5.0000000000000E-02  8.2873898385024E-02 -3.1797289431576E-02
7  6.0000000000000E-02  1.1863308761734E-01 -4.5394758153233E-02
8  7.0000000000000E-02  1.6034087741491E-01 -6.1150799703407E-02
9  8.0000000000000E-02  2.0772368661529E-01 -7.8904885133008E-02
10  9.0000000000000E-02  2.6046827278647E-01 -9.8469437311318E-02
11  1.0000000000000E-01  3.1822291941708E-01 -1.1962928016508E-01
12  1.1000000000000E-01  3.8059886830213E-01 -1.4214129156477E-01
13  1.2000000000000E-01  4.4717202077263E-01 -1.6573434090903E-01
14  1.3000000000000E-01  5.1748492946066E-01 -1.9010958984912E-01
15  1.4000000000000E-01  5.9104909913609E-01 -2.1494122888800E-01
16  1.5000000000000E-01  6.6734761084798E-01 -2.3987771390099E-01
17  1.6000000000000E-01  7.4583807824452E-01 -2.6454355517285E-01
18  1.7000000000000E-01  8.2595593865566E-01 -2.8854169763622E-01
19  1.8000000000000E-01  9.0711807446532E-01 -3.1145651501812E-01
20  1.9000000000000E-01  9.8872675266156E-01 -3.3285742301729E-01
21  2.0000000000000E-01  1.0701738624479E+00 -3.5230309796317E-01
22  2.1000000000000E-01  1.1508454226550E+00 -3.6934626821256E-01
23  2.2000000000000E-01  1.2301263226509E+00 -3.8353902640911E-01
24  2.3000000000000E-01  1.3074052527498E+00 -3.9443859226225E-01
25  2.4000000000000E-01  1.3820797730057E+00 -4.0161343828380E-01
26  2.5000000000000E-01  1.4535614629791E+00 -4.0464967551089E-01
27  2.6000000000000E-01  1.5212810897782E+00 -4.0315758315953E-01
28  2.7000000000000E-01  1.5846937276072E+00 -3.9677815584527E-01
29  2.8000000000000E-01  1.6432837593338E+00 -3.8518953485508E-01
30  2.9000000000000E-01  1.6965696893527E+00 -3.6811318624484E-01
31  3.0000000000000E-01  1.7441086973367E+00 -3.4531968846076E-01
32  3.1000000000000E-01  1.7855008643769E+00 -3.1663399582555E-01
33  3.2000000000000E-01  1.8203930065035E+00 -2.8194005156538E-01
34  3.3000000000000E-01  1.8484820555980E+00 -2.4118463494844E-01
35  3.4000000000000E-01  1.8695179341589E+00 -1.9438034131620E-01
36  3.5000000000000E-01  1.8833058781290E+00 -1.4160761097195E-01
37  3.6000000000000E-01  1.8897081708538E+00 -8.3015742610234E-02
38  3.7000000000000E-01  1.8886452610110E+00 -1.8822848710143E-02
39  3.8000000000000E-01  1.8800962477955E+00  5.0685266508867E-02
40  3.9000000000000E-01  1.8640987275009E+00  1.2515730198786E-01
41  4.0000000000000E-01  1.8407480066436E+00  2.0417969887992E-01
42  4.1000000000000E-01  1.8101956976489E+00  2.8728087144904E-01
43  4.2000000000000E-01  1.7726477235896E+00  3.7393635510877E-01
44  4.3000000000000E-01  1.7283617682763E+00  4.6357477631395E-01
45  4.4000000000000E-01  1.6776442168972E+00  5.5558453085020E-01
46  4.5000000000000E-01  1.6208466401815E+00  6.4932104182493E-01
47  4.6000000000000E-01  1.5583618815243E+00  7.4411445678391E-01
48  4.7000000000000E-01  1.4906198115204E+00  8.3927763519459E-01
49  4.8000000000000E-01  1.4180828177999E+00  9.3411427327971E-01
50  4.9000000000000E-01  1.3412410998846E+00  1.0279270129614E+00
51  5.0000000000000E-01  1.2606078389771E+00  1.1200253854790E+00
52  5.1000000000000E-01  1.1767143111928E+00  1.2097334479404E+00
53  5.2000000000000E-01  1.0901050098278E+00  1.2963969824065E+00
54  5.3000000000000E-01  1.0013328379540E+00  1.3793901417367E+00
55  5.4000000000000E-01  9.1095442711100E-01  1.4581214438660E+00
56  5.5000000000000E-01  8.1952563132167E-01  1.5320390359125E+00
57  5.6000000000000E-01  7.2759723833131E-01  1.6006351708886E+00
58  5.7000000000000E-01  6.3571093209913E-01  1.6634498621610E+00
59  5.8000000000000E-01  5.4439553242814E-01  1.7200737034565E+00
60  5.9000000000000E-01  4.5416352946470E-01  1.7701498644527E+00
61  6.0000000000000E-01  3.6550792289876E-01  1.8133752931200E+00
62  6.1000000000000E-01  2.7889936829685E-01  1.8495011753428E+00
63  6.2000000000000E-01  1.9478362633020E-01  1.8783327193528E+00
64  6.3000000000000E-01  1.1357930491760E-01  1.8997283466245E+00
65  6.4000000000000E-01  3.5675879649730E-02  1.9135983817007E+00
66  6.5000000000000E-01 -3.8568025581679E-02  1.9199033406178E+00
67  6.6000000000000E-01 -1.0882611798410E-01  1.9186519209838E+00
68  6.7000000000000E-01 -1.7480569637318E-01  1.9098987962832E+00
69  6.8000000000000E-01 -2.3624871342488E-01  1.8937423126836E+00
70  6.9000000000000E-01 -2.9293265864073E-01  1.8703221787167E+00
71  7.0000000000000E-01 -3.4467127822980E-01  1.8398172270072E+00
72  7.1000000000000E-01 -3.9131514440202E-01  1.8024433131707E+00
73  7.2000000000000E-01 -4.3275208211251E-01  1.7584514006255E+00
74  7.3000000000000E-01 -4.6890745632383E-01  1.7081258619904E+00
75  7.4000000000000E-01 -4.9974431760919E-01  1.6517830086455E+00
76  7.5000000000000E-01 -5.2526339867093E-01  1.5897698406458E+00
77  7.6000000000000E-01 -5.4550294935908E-01  1.5224629902395E+00
78  7.7000000000000E-01 -5.6053839330776E-01  1.4502678144818E+00
79  7.8000000000000E-01 -5.7048178560852E-01  1.3736175765546E+00
80  7.9000000000000E-01 -5.7548104823101E-01  1.2929726420438E+00
81  8.0000000000000E-01 -5.7571895837211E-01  1.2088196061483E+00
82  8.1000000000000E-01 -5.7141186471199E-01  1.1216702610579E+00
83  8.2000000000000E-01 -5.6280810778142E-01  1.0320603098868E+00
84  8.3000000000000E-01 -5.5018612334807E-01  9.4054773479082E-01
85  8.4000000000000E-01 -5.3385221190400E-01  8.4771073229998E-01
86  8.5000000000000E-01 -5.1413796292011E-01  7.5414513838730E-01
87  8.6000000000000E-01 -4.9139732940904E-01  6.6046127914634E-01
88  8.7000000000000E-01 -4.6600335633230E-01  5.6728019979673E-01
89  8.8000000000000E-01 -4.3834457528312E-01  4.7522924458842E-01
90  8.9000000000000E-01 -4.0882108740847E-01  3.8493698241344E-01
91  9.0000000000000E-01 -3.7784036640659E-01  2.9702749685260E-01
92  9.1000000000000E-01 -3.4581282332577E-01  2.1211408419216E-01
93  9.2000000000000E-01 -3.1314718445861E-01  1.3079242780647E-01
94  9.3000000000000E-01 -2.8024574253003E-01  5.3633341350445E-02
95  9.4000000000000E-01 -2.4749954928216E-01 -1.8824804415903E-02
96  9.5000000000000E-01 -2.1528362414725E-01 -8.6083836468292E-02
97  9.6000000000000E-01 -1.8395225868320E-01 -1.4769356470494E-01
98  9.7000000000000E-01 -1.5383449957846E-01 -2.0325943348566E-01
99  9.8000000000000E-01 -1.2522989411508E-01 -2.5244986736467E-01
100  9.9000000000000E-01 -9.8404580871273E-02 -2.9500313563562E-01
101  1.0000000000000E+00 -7.3587805068494E-02 -3.3073356231737E-01
102  1.0100000000000E+00 -5.0968932312430E-02 -3.5953691557653E-01
103  1.0200000000000E+00 -3.0695026613245E-02 -3.8139482324655E-01
104  1.0300000000000E+00 -1.2869048607215E-02 -3.9637807888440E-01
105  1.0400000000000E+00  2.4512819440692E-03 -4.0464872529676E-01
106  1.0500000000000E+00  1.5253928761008E-02 -4.0646082910607E-01
107  1.0600000000000E+00  2.5572270945322E-02 -4.0215989012936E-01
108  1.0700000000000E+00  3.3484124067986E-02 -3.9218086216784E-01
109  1.0800000000000E+00  3.9110066609160E-02 -3.7704479644895E-01
110  1.0900000000000E+00  4.2611104771118E-02 -3.5735415589142E-01
111  1.1000000000000E+00  4.4185713182644E-02 -3.3378684755382E-01
112  1.1100000000000E+00  4.4066178577805E-02 -3.0708865992972E-01
113  1.1200000000000E+00  4.2509362715867E-02 -2.7804885577590E-01
114  1.1300000000000E+00  3.9782770131084E-02 -2.4746243468936E-01
115  1.1400000000000E+00  3.6157032373968E-02 -2.1611356171149E-01
116  1.1500000000000E+00  3.1899923542688E-02 -1.8476391568869E-01
117  1.1600000000000E+00  2.7270401726649E-02 -1.5414101827354E-01
118  1.1700000000000E+00  2.2512792852186E-02 -1.2492677818433E-01
119  1.1800000000000E+00  1.7851193185847E-02 -9.7746400966240E-02
120  1.1900000000000E+00  1.3481541412929E-02 -7.3152316572255E-02
121  1.2000000000000E+00  9.5310563138779E-03 -5.1537499012730E-02
122  1.2100000000000E+00  6.1435679193680E-03 -3.3316683287986E-02
123  1.2200000000000E+00  3.4456571770838E-03 -1.8858619212704E-02
124  1.2300000000000E+00  1.5140142687499E-03 -8.4180137199132E-03
125  1.2400000000000E+00  3.7093695334819E-04 -2.1093185954511E-03