Pa    ONCVPSP-4.0.1  r_core=   1.25016   1.25016   1.45183   1.45183
91.0000     31.0000      230223    zatom,zion,pspd
8      11   3     4   600     0    pspcod,pspxc,lmax,lloc,mmax,r2well
5.99000000  5.00000000  0.00000000    rchrg fchrg qchrg
3     3     2     2     0    nproj
1     1           extension_switch
0                         2.1623847313518E+01  3.2834150045001E+00 -8.5491097486937E-01
1  0.0000000000000E+00 -3.5214200000411E-08  7.3103602837854E-08 -5.8292993498910E-07
2  1.0000000000000E-02  1.1624699089229E-01 -3.4896647217934E-02  1.7537715712197E-01
3  2.0000000000000E-02  2.3185630611223E-01 -6.9030665284949E-02  3.4565400368042E-01
4  3.0000000000000E-02  3.4620008484628E-01 -1.0165810289875E-01  5.0588883214596E-01
5  4.0000000000000E-02  4.5866980740545E-01 -1.3207176969095E-01  6.5145214030595E-01
6  5.0000000000000E-02  5.6868525389116E-01 -1.5961814969141E-01  7.7817038999693E-01
7  6.0000000000000E-02  6.7570263510854E-01 -1.8371260946133E-01  8.8245539041438E-01
8  7.0000000000000E-02  7.7922166306627E-01 -2.0385242226325E-01  9.6141522821546E-01
9  8.0000000000000E-02  8.7879136361669E-01 -2.1962720274036E-01  1.0129432495604E+00
10  9.0000000000000E-02  9.7401447555053E-01 -2.3072643325960E-01  1.0357822926133E+00
11  1.0000000000000E-01  1.0645503273755E+00 -2.3694386043470E-01  1.0295621509654E+00
12  1.1000000000000E-01  1.1501161335078E+00 -2.3817864512413E-01  9.9480909426496E-01
13  1.2000000000000E-01  1.2304867040020E+00 -2.3443325788495E-01  9.3292715533089E-01
14  1.3000000000000E-01  1.3054926144874E+00 -2.2580822080871E-01  8.4615178530333E-01
15  1.4000000000000E-01  1.3750169338963E+00 -2.1249390221002E-01  7.3747735172753E-01
16  1.5000000000000E-01  1.4389906551668E+00 -1.9475966923196E-01  6.1056078128803E-01
17  1.6000000000000E-01  1.4973870167597E+00 -1.7294079174869E-01  4.6960440302411E-01
18  1.7000000000000E-01  1.5502149391233E+00 -1.4742356600093E-01  3.1922170540295E-01
19  1.8000000000000E-01  1.5975118289217E+00 -1.1862918564643E-01  1.6429026077266E-01
20  1.9000000000000E-01  1.6393360239544E+00 -8.6996929325109E-02  9.7964763144181E-03
21  2.0000000000000E-01  1.6757591625214E+00 -5.2967255998701E-02 -1.3932291119980E-01
22  2.1000000000000E-01  1.7068587621587E+00 -1.6965401445185E-02 -2.7833757700553E-01
23  2.2000000000000E-01  1.7327112841181E+00  2.0613948743644E-02 -4.0287362285372E-01
24  2.3000000000000E-01  1.7533859419465E+00  5.9420371933378E-02 -5.0905211458843E-01
25  2.4000000000000E-01  1.7689394856281E+00  9.9159325239611E-02 -5.9361175700683E-01
26  2.5000000000000E-01  1.7794121578592E+00  1.3960125709201E-01 -6.5401182323377E-01
27  2.6000000000000E-01  1.7848249772807E+00  1.8058789092345E-01 -6.8851208187710E-01
28  2.7000000000000E-01  1.7851784562961E+00  2.2203545615732E-01 -6.9622719442776E-01
29  2.8000000000000E-01  1.7804528100069E+00  2.6393474742626E-01 -6.7715386460358E-01
30  2.9000000000000E-01  1.7706096595342E+00  3.0634800309688E-01 -6.3216988487226E-01
31  3.0000000000000E-01  1.7555951793409E+00  3.4940270498690E-01 -5.6300511581851E-01
32  3.1000000000000E-01  1.7353445859363E+00  3.9328250889277E-01 -4.7218532300928E-01
33  3.2000000000000E-01  1.7097878163129E+00  4.3821561653738E-01 -3.6295065528020E-01
34  3.3000000000000E-01  1.6788562002836E+00  4.8446099036397E-01 -2.3915135061769E-01
35  3.4000000000000E-01  1.6424898930913E+00  5.3229289012564E-01 -1.0512397547678E-01
36  3.5000000000000E-01  1.6006458045361E+00  5.8198427179086E-01  3.4447882356552E-02
37  3.6000000000000E-01  1.5533057394743E+00  6.3378963275619E-01  1.7468405794235E-01
38  3.7000000000000E-01  1.5004844526366E+00  6.8792791120480E-01  3.1066463207556E-01
39  3.8000000000000E-01  1.4422373187471E+00  7.4456605079413E-01  4.3758817708626E-01
40  3.9000000000000E-01  1.3786673270066E+00  8.0380382452513E-01  5.5092642979600E-01
41  4.0000000000000E-01  1.3099311269059E+00  8.6566047415452E-01  6.4657051454665E-01
42  4.1000000000000E-01  1.2362438795130E+00  9.3006366507218E-01  7.2096411245617E-01
43  4.2000000000000E-01  1.1578827039473E+00  9.9684118302822E-01  7.7121939187597E-01
44  4.3000000000000E-01  1.0751885515744E+00  1.0657157109017E+00  7.9521206575829E-01
45  4.4000000000000E-01  9.8856638911522E-01  1.1363029237937E+00  7.9165260639154E-01
46  4.5000000000000E-01  8.9848362476586E-01  1.2081130324571E+00  7.6013140516695E-01
47  4.6000000000000E-01  8.0546676682457E-01  1.2805557920758E+00  7.0113649025752E-01
48  4.7000000000000E-01  7.1009636037508E-01  1.3529488794920E+00  6.1604328164097E-01
49  4.8000000000000E-01  6.1300030243395E-01  1.4245294309888E+00  5.0707674294165E-01
50  4.9000000000000E-01  5.1484568780113E-01  1.4944684284189E+00  3.7724715482156E-01
51  5.0000000000000E-01  4.1632938494173E-01  1.5618875273532E+00  2.3026155744335E-01
52  5.1000000000000E-01  3.1816758201132E-01  1.6258778401751E+00  7.0413663671656E-02
53  5.2000000000000E-01  2.2108457626507E-01  1.6855201223972E+00 -9.7544293730384E-02
54  5.3000000000000E-01  1.2580110447801E-01  1.7399057640853E+00 -2.6854376934860E-01
55  5.4000000000000E-01  3.3022526853487E-02  1.7881579616821E+00 -4.3735173723699E-01
56  5.5000000000000E-01 -5.6572818256332E-02  1.8294524395939E+00 -5.9872744325230E-01
57  5.6000000000000E-01 -1.4234477677936E-01  1.8630371057718E+00 -7.4757924872434E-01
58  5.7000000000000E-01 -2.2370176166490E-01  1.8882500606286E+00 -8.7911676616884E-01
59  5.8000000000000E-01 -3.0011008366542E-01  1.9045354327031E+00 -9.8899366903494E-01
60  5.9000000000000E-01 -3.7110199094847E-01  1.9114565856101E+00 -1.0734368834533E+00
61  6.0000000000000E-01 -4.3628221873102E-01  1.9087063264817E+00 -1.1293583288299E+00
62  6.1000000000000E-01 -4.9533289647534E-01  1.8961138433281E+00 -1.1544459499676E+00
63  6.2000000000000E-01 -5.4801671088286E-01  1.8736482041364E+00 -1.1472314564300E+00
64  6.3000000000000E-01 -5.9417827623840E-01  1.8414183604249E+00 -1.1071329324087E+00
65  6.4000000000000E-01 -6.3374371778393E-01  1.7996697086062E+00 -1.0344712774042E+00
66  6.5000000000000E-01 -6.6671852691498E-01  1.7487773700684E+00 -9.3046025825953E-01
67  6.6000000000000E-01 -6.9318379732518E-01  1.6892364517290E+00 -7.9717076965308E-01
68  6.7000000000000E-01 -7.1329099711352E-01  1.6216496395216E+00 -6.3747068661854E-01
69  6.8000000000000E-01 -7.2725547183164E-01  1.5467125548521E+00 -4.5494242396308E-01
70  6.9000000000000E-01 -7.3534890621608E-01  1.4651973659641E+00 -2.5378097056253E-01
71  7.0000000000000E-01 -7.3789099692593E-01  1.3779351904293E+00 -3.8675721414858E-02
72  7.1000000000000E-01 -7.3524060428787E-01  1.2857978503253E+00  1.8532012956276E-01
73  7.2000000000000E-01 -7.2778665745923E-01  1.1896795474449E+00  4.1292856013514E-01
74  7.3000000000000E-01 -7.1593908450665E-01  1.0904790121719E+00  6.3878980035475E-01
75  7.4000000000000E-01 -7.0012002694451E-01  9.8908264722872E-01  8.5760523095769E-01
76  7.5000000000000E-01 -6.8075557788072E-01  8.8634913777679E-01  1.0642759060044E+00
77  7.6000000000000E-01 -6.5826825496598E-01  7.8309593435310E-01  1.2540327364987E+00
78  7.7000000000000E-01 -6.3307038497421E-01  6.8008793740812E-01  1.4225547235310E+00
79  7.8000000000000E-01 -6.0555853741249E-01  5.7802862473611E-01  1.5660720887601E+00
80  7.9000000000000E-01 -5.7610910157194E-01  4.7755376913664E-01  1.6814516994796E+00
81  8.0000000000000E-01 -5.4507505649951E-01  3.7922779668052E-01  1.7662628050017E+00
82  8.1000000000000E-01 -5.1278393813443E-01  2.8354273947567E-01  1.8188217687653E+00
83  8.2000000000000E-01 -4.7953696394599E-01  1.9091964429615E-01  1.8382151731395E+00
84  8.3000000000000E-01 -4.4560923436834E-01  1.0171221307084E-01  1.8243013679613E+00
85  8.4000000000000E-01 -4.1125089356369E-01  1.6212375953457E-02  1.7776912062742E+00
86  8.5000000000000E-01 -3.7668910077770E-01 -6.5342564994332E-02  1.6997093396819E+00
87  8.6000000000000E-01 -3.4213063877331E-01 -1.4276163158941E-01  1.5923380112166E+00
88  8.7000000000000E-01 -3.0776496827629E-01 -2.1589114698856E-01  1.4581457681657E+00
89  8.8000000000000E-01 -2.7376752748968E-01 -2.8460545235499E-01  1.3002039064309E+00
90  8.9000000000000E-01 -2.4030307369940E-01 -3.4879781861254E-01  1.1219937405624E+00
91  9.0000000000000E-01 -2.0752886967131E-01 -4.0837199099803E-01  9.2730796209855E-01
92  9.1000000000000E-01 -1.7559753053098E-01 -4.6323477046022E-01  7.2014939933156E-01
93  9.2000000000000E-01 -1.4465936646711E-01 -5.1328998837139E-01  5.0463042383218E-01
94  9.3000000000000E-01 -1.1486408203456E-01 -5.5843417154826E-01  2.8487606611370E-01
95  9.4000000000000E-01 -8.6361723009529E-02 -5.9855412560580E-01  6.4933610832462E-02
96  9.5000000000000E-01 -5.9302795492332E-02 -6.3352658884267E-01 -1.5130895032465E-01
97  9.6000000000000E-01 -3.3837518012997E-02 -6.6322002897172E-01 -3.6019371152308E-01
98  9.7000000000000E-01 -1.0114204515644E-02 -6.8749857385283E-01 -5.5835155364724E-01
99  9.8000000000000E-01  1.1723186956470E-02 -7.0622798767908E-01 -7.4274803788903E-01
100  9.9000000000000E-01  3.1538269388923E-02 -7.1928352824019E-01 -9.1071645007172E-01
101  1.0000000000000E+00  4.9206101857628E-02 -7.2655945109333E-01 -1.0599786647649E+00
102  1.0100000000000E+00  6.4617590296047E-02 -7.2797986438436E-01 -1.1886552354954E+00
103  1.0200000000000E+00  7.7684252989731E-02 -7.2351058485510E-01 -1.2952668702549E+00
104  1.0300000000000E+00  8.8343166898398E-02 -7.1317160172809E-01 -1.3787302137023E+00
105  1.0400000000000E+00  9.6561891841198E-02 -6.9704972068659E-01 -1.4383516221642E+00
106  1.0500000000000E+00  1.0234315400185E-01 -6.7531093420669E-01 -1.4738233828091E+00
107  1.0600000000000E+00  1.0572905745340E-01 -6.4821204557968E-01 -1.4852275968435E+00
108  1.0700000000000E+00  1.0680458154222E-01 -6.1611105997979E-01 -1.4730537191060E+00
109  1.0800000000000E+00  1.0570011170723E-01 -5.7947584402155E-01 -1.4382365325488E+00
110  1.0900000000000E+00  1.0259274079819E-01 -5.3889054490408E-01 -1.3822221771475E+00
111  1.1000000000000E+00  9.7706045807662E-02 -4.9505916817207E-01 -1.3070699719018E+00
112  1.1100000000000E+00  9.1307824186182E-02 -4.4880487396212E-01 -1.2155908436792E+00
113  1.1200000000000E+00  8.3697798754284E-02 -4.0103289320496E-01 -1.1112044133928E+00
114  1.1300000000000E+00  7.5187935456934E-02 -3.5266382158994E-01 -9.9745440399217E-01
115  1.1400000000000E+00  6.6093547988878E-02 -3.0460888971526E-01 -8.7785352423658E-01
116  1.1500000000000E+00  5.6726575583969E-02 -2.5775458128263E-01 -7.5582367074465E-01
117  1.1600000000000E+00  4.7388505992770E-02 -2.1294646491560E-01 -6.3464120786202E-01
118  1.1700000000000E+00  3.8363145243908E-02 -1.7097271483682E-01 -5.1738816858556E-01
119  1.1800000000000E+00  2.9909397344042E-02 -1.3254768467120E-01 -4.0690992406551E-01
120  1.1900000000000E+00  2.2251195842990E-02 -9.8288791750985E-02 -3.0578995571696E-01
121  1.2000000000000E+00  1.5531509458025E-02 -6.8606828815183E-02 -2.1645485778996E-01
122  1.2100000000000E+00  9.9082019107067E-03 -4.3934146851378E-02 -1.4080345272907E-01
123  1.2200000000000E+00  5.5115089192483E-03 -2.4627894977338E-02 -8.0320030322609E-02
124  1.2300000000000E+00  2.4066451904642E-03 -1.0882614952306E-02 -3.6188030082262E-02
125  1.2400000000000E+00  5.8712163433451E-04 -2.6984195084454E-03 -9.1661679937117E-03
126  1.2500000000000E+00  1.9308355423958E-06 -9.0201906577269E-06 -3.1141029490451E-05
127  1.2600000000000E+00  4.1760619024365E-06 -1.9494024736862E-05 -6.7449070228043E-05
128  1.2700000000000E+00 -7.3422829343108E-07  3.3946999673031E-06  1.1613109426992E-05
129  1.28 -0.  0. -0.
130  1.29  0.  0.  0.
131  1.30  0.  0.  0.
132  1.31  0.  0.  0.
133  1.32  0.  0.  0.
134  1.33  0.  0.  0.
135  1.34  0.  0.  0.
136  1.35  0.  0.  0.
137  1.36  0.  0.  0.
138  1.37  0.  0.  0.
139  1.38  0.  0.  0.
140  1.39  0.  0.  0.
141  1.40  0.  0.  0.
142  1.41  0.  0.  0.
143  1.42  0.  0.  0.
144  1.43  0.  0.  0.
145  1.44  0.  0.  0.
146  1.45  0.  0.  0.
147  1.46  0.  0.  0.
148  1.47  0.  0.  0.
149  1.48  0.  0.  0.
150  1.49  0.  0.  0.
151  1.50  0.  0.  0.
152  1.51  0.  0.  0.
153  1.52  0.  0.  0.
154  1.53  0.  0.  0.
155  1.54  0.  0.  0.
156  1.55  0.  0.  0.
157  1.56  0.  0.  0.
158  1.57  0.  0.  0.
159  1.58  0.  0.  0.
160  1.59  0.  0.  0.
161  1.60  0.  0.  0.
162  1.61  0.  0.  0.
163  1.62  0.  0.  0.
164  1.63  0.  0.  0.
165  1.64  0.  0.  0.
166  1.65  0.  0.  0.
167  1.66  0.  0.  0.
168  1.67  0.  0.  0.
169  1.68  0.  0.  0.
170  1.69  0.  0.  0.
171  1.70  0.  0.  0.
172  1.71  0.  0.  0.
173  1.72  0.  0.  0.
174  1.73  0.  0.  0.
175  1.74  0.  0.  0.
176  1.75  0.  0.  0.
177  1.76  0.  0.  0.
178  1.77  0.  0.  0.
179  1.78  0.  0.  0.
180  1.79  0.  0.  0.
181  1.80  0.  0.  0.
182  1.81  0.  0.  0.
183  1.82  0.  0.  0.
184  1.83  0.  0.  0.
185  1.84  0.  0.  0.
186  1.85  0.  0.  0.
187  1.86  0.  0.  0.
188  1.87  0.  0.  0.
189  1.88  0.  0.  0.
190  1.89  0.  0.  0.
191  1.90  0.  0.  0.
192  1.91  0.  0.  0.
193  1.92  0.  0.  0.
194  1.93  0.  0.  0.
195  1.94  0.  0.  0.
196  1.95  0.  0.  0.
197  1.96  0.  0.  0.
198  1.97  0.  0.  0.
199  1.98  0.  0.  0.
200  1.99  0.  0.  0.
201  2.00  0.  0.  0.
202  2.01  0.  0.  0.
203  2.02  0.  0.  0.
204  2.03  0.  0.  0.
205  2.04  0.  0.  0.
206  2.05  0.  0.  0.
207  2.06  0.  0.  0.
208  2.07  0.  0.  0.
209  2.08  0.  0.  0.
210  2.09  0.  0.  0.
211  2.10  0.  0.  0.
212  2.11  0.  0.  0.
213  2.12  0.  0.  0.
214  2.13  0.  0.  0.
215  2.14  0.  0.  0.
216  2.15  0.  0.  0.
217  2.16  0.  0.  0.
218  2.17  0.  0.  0.
219  2.18  0.  0.  0.
220  2.19  0.  0.  0.
221  2.20  0.  0.  0.
222  2.21  0.  0.  0.
223  2.22  0.  0.  0.
224  2.23  0.  0.  0.
225  2.24  0.  0.  0.
226  2.25  0.  0.  0.
227  2.26  0.  0.  0.
228  2.27  0.  0.  0.
229  2.28  0.  0.  0.
230  2.29  0.  0.  0.
231  2.30  0.  0.  0.
232  2.31  0.  0.  0.
233  2.32  0.  0.  0.
234  2.33  0.  0.  0.
235  2.34  0.  0.  0.
236  2.35  0.  0.  0.
237  2.36  0.  0.  0.
238  2.37  0.  0.  0.
239  2.38  0.  0.  0.
240  2.39  0.  0.  0.
241  2.40  0.  0.  0.
242  2.41  0.  0.  0.
243  2.42  0.  0.  0.
244  2.43  0.  0.  0.
245  2.44  0.  0.  0.
246  2.45  0.  0.  0.
247  2.46  0.  0.  0.
248  2.47  0.  0.  0.
249  2.48  0.  0.  0.
250  2.49  0.  0.  0.
251  2.50  0.  0.  0.
252  2.51  0.  0.  0.
253  2.52  0.  0.  0.
254  2.53  0.  0.  0.
255  2.54  0.  0.  0.
256  2.55  0.  0.  0.
257  2.56  0.  0.  0.
258  2.57  0.  0.  0.
259  2.58  0.  0.  0.
260  2.59  0.  0.  0.
261  2.60  0.  0.  0.
262  2.61  0.  0.  0.
263  2.62  0.  0.  0.
264  2.63  0.  0.  0.
265  2.64  0.  0.  0.
266  2.65  0.  0.  0.
267  2.66  0.  0.  0.
268  2.67  0.  0.  0.
269  2.68  0.  0.  0.
270  2.69  0.  0.  0.
271  2.70  0.  0.  0.
272  2.71  0.  0.  0.
273  2.72  0.  0.  0.
274  2.73  0.  0.  0.
275  2.74  0.  0.  0.
276  2.75  0.  0.  0.
277  2.76  0.  0.  0.
278  2.77  0.  0.  0.
279  2.78  0.  0.  0.
280  2.79  0.  0.  0.
281  2.80  0.  0.  0.
282  2.81  0.  0.  0.
283  2.82  0.  0.  0.
284  2.83  0.  0.  0.
285  2.84  0.  0.  0.
286  2.85  0.  0.  0.
287  2.86  0.  0.  0.
288  2.87  0.  0.  0.
289  2.88  0.  0.  0.
290  2.89  0.  0.  0.
291  2.90  0.  0.  0.
292  2.91  0.  0.  0.
293  2.92  0.  0.  0.
294  2.93  0.  0.  0.
295  2.94  0.  0.  0.
296  2.95  0.  0.  0.
297  2.96  0.  0.  0.
298  2.97  0.  0.  0.
299  2.98  0.  0.  0.
300  2.99  0.  0.  0.
301  3.00  0.  0.  0.
302  3.01  0.  0.  0.
303  3.02  0.  0.  0.
304  3.03  0.  0.  0.
305  3.04  0.  0.  0.
306  3.05  0.  0.  0.
307  3.06  0.  0.  0.
308  3.07  0.  0.  0.
309  3.08  0.  0.  0.
310  3.09  0.  0.  0.
311  3.10  0.  0.  0.
312  3.11  0.  0.  0.
313  3.12  0.  0.  0.
314  3.13  0.  0.  0.
315  3.14  0.  0.  0.
316  3.15  0.  0.  0.
317  3.16  0.  0.  0.
318  3.17  0.  0.  0.
319  3.18  0.  0.  0.
320  3.19  0.  0.  0.
321  3.20  0.  0.  0.
322  3.21  0.  0.  0.
323  3.22  0.  0.  0.
324  3.23  0.  0.  0.
325  3.24  0.  0.  0.
326  3.25  0.  0.  0.
327  3.26  0.  0.  0.
328  3.27  0.  0.  0.
329  3.28  0.  0.  0.
330  3.29  0.  0.  0.
331  3.30  0.  0.  0.
332  3.31  0.  0.  0.
333  3.32  0.  0.  0.
334  3.33  0.  0.  0.
335  3.34  0.  0.  0.
336  3.35  0.  0.  0.
337  3.36  0.  0.  0.
338  3.37  0.  0.  0.
339  3.38  0.  0.  0.
340  3.39  0.  0.  0.
341  3.40  0.  0.  0.
342  3.41  0.  0.  0.
343  3.42  0.  0.  0.
344  3.43  0.  0.  0.
345  3.44  0.  0.  0.
346  3.45  0.  0.  0.
347  3.46  0.  0.  0.
348  3.47  0.  0.  0.
349  3.48  0.  0.  0.
350  3.49  0.  0.  0.
351  3.50  0.  0.  0.
352  3.51  0.  0.  0.
353  3.52  0.  0.  0.
354  3.53  0.  0.  0.
355  3.54  0.  0.  0.
356  3.55  0.  0.  0.
357  3.56  0.  0.  0.
358  3.57  0.  0.  0.
359  3.58  0.  0.  0.
360  3.59  0.  0.  0.
361  3.60  0.  0.  0.
362  3.61  0.  0.  0.
363  3.62  0.  0.  0.
364  3.63  0.  0.  0.
365  3.64  0.  0.  0.
366  3.65  0.  0.  0.
367  3.66  0.  0.  0.
368  3.67  0.  0.  0.
369  3.68  0.  0.  0.
370  3.69  0.  0.  0.
371  3.70  0.  0.  0.
372  3.71  0.  0.  0.
373  3.72  0.  0.  0.
374  3.73  0.  0.  0.
375  3.74  0.  0.  0.
376  3.75  0.  0.  0.
377  3.76  0.  0.  0.
378  3.77  0.  0.  0.
379  3.78  0.  0.  0.
380  3.79  0.  0.  0.
381  3.80  0.  0.  0.
382  3.81  0.  0.  0.
383  3.82  0.  0.  0.
384  3.83  0.  0.  0.
385  3.84  0.  0.  0.
386  3.85  0.  0.  0.
387  3.86  0.  0.  0.
388  3.87  0.  0.  0.
389  3.88  0.  0.  0.
390  3.89  0.  0.  0.
391  3.90  0.  0.  0.
392  3.91  0.  0.  0.
393  3.92  0.  0.  0.
394  3.93  0.  0.  0.
395  3.94  0.  0.  0.
396  3.95  0.  0.  0.
397  3.96  0.  0.  0.
398  3.97  0.  0.  0.
399  3.98  0.  0.  0.
400  3.99  0.  0.  0.
401  4.00  0.  0.  0.
402  4.01  0.  0.  0.
403  4.02  0.  0.  0.
404  4.03  0.  0.  0.
405  4.04  0.  0.  0.
406  4.05  0.  0.  0.
407  4.06  0.  0.  0.
408  4.07  0.  0.  0.
409  4.08  0.  0.  0.
410  4.09  0.  0.  0.
411  4.10  0.  0.  0.
412  4.11  0.  0.  0.
413  4.12  0.  0.  0.
414  4.13  0.  0.  0.
415  4.14  0.  0.  0.
416  4.15  0.  0.  0.
417  4.16  0.  0.  0.
418  4.17  0.  0.  0.
419  4.18  0.  0.  0.
420  4.19  0.  0.  0.
421  4.20  0.  0.  0.
422  4.21  0.  0.  0.
423  4.22  0.  0.  0.
424  4.23  0.  0.  0.
425  4.24  0.  0.  0.
426  4.25  0.  0.  0.
427  4.26  0.  0.  0.
428  4.27  0.  0.  0.
429  4.28  0.  0.  0.
430  4.29  0.  0.  0.
431  4.30  0.  0.  0.
432  4.31  0.  0.  0.
433  4.32  0.  0.  0.
434  4.33  0.  0.  0.
435  4.34  0.  0.  0.
436  4.35  0.  0.  0.
437  4.36  0.  0.  0.
438  4.37  0.  0.  0.
439  4.38  0.  0.  0.
440  4.39  0.  0.  0.
441  4.40  0.  0.  0.
442  4.41  0.  0.  0.
443  4.42  0.  0.  0.
444  4.43  0.  0.  0.
445  4.44  0.  0.  0.
446  4.45  0.  0.  0.
447  4.46  0.  0.  0.
448  4.47  0.  0.  0.
449  4.48  0.  0.  0.
450  4.49  0.  0.  0.
451  4.50  0.  0.  0.
452  4.51  0.  0.  0.
453  4.52  0.  0.  0.
454  4.53  0.  0.  0.
455  4.54  0.  0.  0.
456  4.55  0.  0.  0.
457  4.56  0.  0.  0.
458  4.57  0.  0.  0.
459  4.58  0.  0.  0.
460  4.59  0.  0.  0.
461  4.60  0.  0.  0.
462  4.61  0.  0.  0.
463  4.62  0.  0.  0.
464  4.63  0.  0.  0.
465  4.64  0.  0.  0.
466  4.65  0.  0.  0.
467  4.66  0.  0.  0.
468  4.67  0.  0.  0.
469  4.68  0.  0.  0.
470  4.69  0.  0.  0.
471  4.70  0.  0.  0.
472  4.71  0.  0.  0.
473  4.72  0.  0.  0.
474  4.73  0.  0.  0.
475  4.74  0.  0.  0.
476  4.75  0.  0.  0.
477  4.76  0.  0.  0.
478  4.77  0.  0.  0.
479  4.78  0.  0.  0.
480  4.79  0.  0.  0.
481  4.80  0.  0.  0.
482  4.81  0.  0.  0.
483  4.82  0.  0.  0.
484  4.83  0.  0.  0.
485  4.84  0.  0.  0.
486  4.85  0.  0.  0.
487  4.86  0.  0.  0.
488  4.87  0.  0.  0.
489  4.88  0.  0.  0.
490  4.89  0.  0.  0.
491  4.90  0.  0.  0.
492  4.91  0.  0.  0.
493  4.92  0.  0.  0.
494  4.93  0.  0.  0.
495  4.94  0.  0.  0.
496  4.95  0.  0.  0.
497  4.96  0.  0.  0.
498  4.97  0.  0.  0.
499  4.98  0.  0.  0.
500  4.99  0.  0.  0.
501  5.00  0.  0.  0.
502  5.01  0.  0.  0.
503  5.02  0.  0.  0.
504  5.03  0.  0.  0.
505  5.04  0.  0.  0.
506  5.05  0.  0.  0.
507  5.06  0.  0.  0.
508  5.07  0.  0.  0.
509  5.08  0.  0.  0.
510  5.09  0.  0.  0.
511  5.10  0.  0.  0.
512  5.11  0.  0.  0.
513  5.12  0.  0.  0.
514  5.13  0.  0.  0.
515  5.14  0.  0.  0.
516  5.15  0.  0.  0.
517  5.16  0.  0.  0.
518  5.17  0.  0.  0.
519  5.18  0.  0.  0.
520  5.19  0.  0.  0.
521  5.20  0.  0.  0.
522  5.21  0.  0.  0.
523  5.22  0.  0.  0.
524  5.23  0.  0.  0.
525  5.24  0.  0.  0.
526  5.25  0.  0.  0.
527  5.26  0.  0.  0.
528  5.27  0.  0.  0.
529  5.28  0.  0.  0.
530  5.29  0.  0.  0.
531  5.30  0.  0.  0.
532  5.31  0.  0.  0.
533  5.32  0.  0.  0.
534  5.33  0.  0.  0.
535  5.34  0.  0.  0.
536  5.35  0.  0.  0.
537  5.36  0.  0.  0.
538  5.37  0.  0.  0.
539  5.38  0.  0.  0.
540  5.39  0.  0.  0.
541  5.40  0.  0.  0.
542  5.41  0.  0.  0.
543  5.42  0.  0.  0.
544  5.43  0.  0.  0.
545  5.44  0.  0.  0.
546  5.45  0.  0.  0.
547  5.46  0.  0.  0.
548  5.47  0.  0.  0.
549  5.48  0.  0.  0.
550  5.49  0.  0.  0.
551  5.50  0.  0.  0.
552  5.51  0.  0.  0.
553  5.52  0.  0.  0.
554  5.53  0.  0.  0.
555  5.54  0.  0.  0.
556  5.55  0.  0.  0.
557  5.56  0.  0.  0.
558  5.57  0.  0.  0.
559  5.58  0.  0.  0.
560  5.59  0.  0.  0.
561  5.60  0.  0.  0.
562  5.61  0.  0.  0.
563  5.62  0.  0.  0.
564  5.63  0.  0.  0.
565  5.64  0.  0.  0.
566  5.65  0.  0.  0.
567  5.66  0.  0.  0.
568  5.67  0.  0.  0.
569  5.68  0.  0.  0.
570  5.69  0.  0.  0.
571  5.70  0.  0.  0.
572  5.71  0.  0.  0.
573  5.72  0.  0.  0.
574  5.73  0.  0.  0.
575  5.74  0.  0.  0.
576  5.75  0.  0.  0.
577  5.76  0.  0.  0.
578  5.77  0.  0.  0.
579  5.78  0.  0.  0.
580  5.79  0.  0.  0.
581  5.80  0.  0.  0.
582  5.81  0.  0.  0.
583  5.82  0.  0.  0.
584  5.83  0.  0.  0.
585  5.84  0.  0.  0.
586  5.85  0.  0.  0.
587  5.86  0.  0.  0.
588  5.87  0.  0.  0.
589  5.88  0.  0.  0.
590  5.89  0.  0.  0.
591  5.90  0.  0.  0.
592  5.91  0.  0.  0.
593  5.92  0.  0.  0.
594  5.93  0.  0.  0.
595  5.94  0.  0.  0.
596  5.95  0.  0.  0.
597  5.96  0.  0.  0.
598  5.97  0.  0.  0.
599  5.98  0.  0.  0.
600  5.99  0.  0.  0.
1                         1.4216646615869E+01 -4.0296556420539E+00  2.1802466434415E+00
1  0.0000000000000E+00  1.7706498867121E-07  1.3659481498118E-06 -1.7553865114261E-07
2  1.0000000000000E-02  5.1368067527065E-03  1.4397845774395E-02 -2.2823001806161E-03
3  2.0000000000000E-02  2.0445115389251E-02  5.6961269708528E-02 -9.0435529397965E-03
4  3.0000000000000E-02  4.5621906856404E-02  1.2582490680882E-01 -2.0030002311911E-02
5  4.0000000000000E-02  8.0173076431620E-02  2.1796210406890E-01 -3.4829220266696E-02
6  5.0000000000000E-02  1.2342938929518E-01  3.2930502326263E-01 -5.2885418506513E-02
7  6.0000000000000E-02  1.7456796573633E-01  4.5490625475357E-01 -7.3520030739232E-02
8  7.0000000000000E-02  2.3263848322041E-01  5.8913571116390E-01 -9.5956752227331E-02
9  8.0000000000000E-02  2.9659310547890E-01  7.2590520379795E-01 -1.1935004787514E-01
10  9.0000000000000E-02  3.6531901012719E-01  8.5891202788565E-01 -1.4281600405612E-01
11  1.0000000000000E-01  4.3767229145361E-01  9.8189213617859E-01 -1.6546430825508E-01
12  1.1000000000000E-01  5.1251196764886E-01  1.0888730928940E+00 -1.8643009807402E-01
13  1.2000000000000E-01  5.8873282370866E-01  1.1744169866103E+00 -2.0490442896239E-01
14  1.3000000000000E-01  6.6529587247797E-01  1.2338438424403E+00 -2.2016216791241E-01
15  1.4000000000000E-01  7.4125531483452E-01  1.2634267974468E+00 -2.3158622604336E-01
16  1.5000000000000E-01  8.1578102201126E-01  1.2605513618555E+00 -2.3868719230629E-01
17  1.6000000000000E-01  8.8817574301710E-01  1.2238324425204E+00 -2.4111761754783E-01
18  1.7000000000000E-01  9.5788645103248E-01  1.1531844033691E+00 -2.3868041543248E-01
19  1.8000000000000E-01  1.0245094763159E+00  1.0498412199751E+00 -2.3133108556897E-01
20  1.9000000000000E-01  1.0877893204449E+00  9.1632568461555E-01 -2.1917371506423E-01
21  2.0000000000000E-01  1.1476112979715E+00  7.5636856231442E-01 -2.0245096757976E-01
22  2.1000000000000E-01  1.2039883969570E+00  5.7478051372099E-01 -1.8152851362339E-01
23  2.2000000000000E-01  1.2570429797546E+00  3.7728141445305E-01 -1.5687458240943E-01
24  2.3000000000000E-01  1.3069841507719E+00  1.7029334368278E-01 -1.2903551498658E-01
25  2.4000000000000E-01  1.3540817906826E+00 -3.9295075503154E-02 -9.8608362354951E-02
26  2.5000000000000E-01  1.3986383898160E+00 -2.4438417911119E-01 -6.6211694249230E-02
27  2.6000000000000E-01  1.4409599019135E+00 -4.3792901213301E-01 -3.2455859097639E-02
28  2.7000000000000E-01  1.4813268795227E+00 -6.1320529873934E-01  2.0860398066552E-03
29  2.8000000000000E-01  1.5199671423123E+00 -7.6406555481787E-01  3.6905213837772E-02
30  2.9000000000000E-01  1.5570311697850E+00 -8.8517559511345E-01  7.1581143725647E-02
31  3.0000000000000E-01  1.5925713024575E+00 -9.7222238746556E-01  1.0580138404390E-01
32  3.1000000000000E-01  1.6265256846596E+00 -1.0220852512380E+00  1.3937635011344E-01
33  3.2000000000000E-01  1.6587076934685E+00 -1.0329637472621E+00  1.7224842408443E-01
34  3.3000000000000E-01  1.6888013792633E+00 -1.0044572120261E+00  2.0449494917043E-01
35  3.4000000000000E-01  1.7163632024650E+00 -9.3759268923753E-01  2.3632493200772E-01
36  3.5000000000000E-01  1.7408300976434E+00 -8.3479993953520E-01  2.6806953281747E-01
37  3.6000000000000E-01  1.7615336402512E+00 -6.9983419134359E-01  3.0016668096490E-01
38  3.7000000000000E-01  1.7777198428626E+00 -5.3764925776400E-01  3.3314039917113E-01
39  3.8000000000000E-01  1.7885738767543E+00 -3.5422551174926E-01  3.6757564300001E-01
40  3.9000000000000E-01  1.7932488101384E+00 -1.5635891383803E-01  4.0408965412905E-01
41  4.0000000000000E-01  1.7908972844896E+00  4.8581241140041E-02  4.4330097835338E-01
42  4.1000000000000E-01  1.7807049220204E+00  2.5291700566844E-01  4.8579740585338E-01
43  4.2000000000000E-01  1.7619241756672E+00  4.4893918137527E-01  5.3210414738904E-01
44  4.3000000000000E-01  1.7339073013317E+00  6.2918724117588E-01  5.8265356319639E-01
45  4.4000000000000E-01  1.6961371520209E+00  7.8672146226927E-01  6.3775771102049E-01
46  4.5000000000000E-01  1.6482545643436E+00  9.1537723752311E-01  6.9758487766077E-01
47  4.6000000000000E-01  1.5900812269457E+00  1.0099921858153E+00  7.6214110847302E-01
48  4.7000000000000E-01  1.5216370833946E+00  1.0665976861739E+00  8.3125755728735E-01
49  4.8000000000000E-01  1.4431515224953E+00  1.0825677778790E+00  9.0458425272168E-01
50  4.9000000000000E-01  1.3550678392833E+00  1.0567199489558E+00  9.8159062490889E-01
51  5.0000000000000E-01  1.2580407010576E+00  9.8936411860270E-01  1.0615728693114E+00
52  5.1000000000000E-01  1.1529266149849E+00  8.8229803729063E-01  1.1436679523575E+00
53  5.2000000000000E-01  1.0407676568005E+00  7.3874930870333E-01  1.2268737981309E+00
54  5.3000000000000E-01  9.2276897363799E-01  5.6326620527491E-01  1.3100749471168E+00
55  5.4000000000000E-01  8.0027080812714E-01  3.6156132940789E-01  1.3920727572315E+00
56  5.5000000000000E-01  6.7471599641449E-01  1.4031389459329E-01  1.4716190331652E+00
57  5.6000000000000E-01  5.4761406165099E-01 -9.3062100008276E-02  1.5474518301095E+00
58  5.7000000000000E-01  4.2050315014784E-01 -3.3067530731831E-01  1.6183320881162E+00
59  5.8000000000000E-01  2.9491113494637E-01 -5.6443069123472E-01  1.6830797175114E+00
60  5.9000000000000E-01  1.7231723801318E-01 -7.8630947449492E-01  1.7406077756285E+00
61  6.0000000000000E-01  5.4115496720304E-02 -9.8864527687471E-01  1.7899534500157E+00
62  6.1000000000000E-01 -5.8418676155537E-02 -1.1643865571444E+00  1.8303046903312E+00
63  6.2000000000000E-01 -1.6415771381338E-01 -1.3073360521411E+00  1.8610215053151E+00
64  6.3000000000000E-01 -2.6214593986138E-01 -1.4123588294218E+00  1.8816511555132E+00
65  6.4000000000000E-01 -3.5161768012479E-01 -1.4755517983454E+00  1.8919367181195E+00
66  6.5000000000000E-01 -4.3200891649509E-01 -1.4943690087386E+00  1.8918187673762E+00
67  6.6000000000000E-01 -5.0296220625750E-01 -1.4676987476091E+00  1.8814301914691E+00
68  6.7000000000000E-01 -5.6432484754283E-01 -1.3958902564978E+00  1.8610844433387E+00
69  6.8000000000000E-01 -6.1614052693668E-01 -1.2807297645777E+00  1.8312577868995E+00
70  6.9000000000000E-01 -6.5863492865385E-01 -1.1253673929794E+00  1.7925663408318E+00
71  7.0000000000000E-01 -6.9219600644413E-01 -9.3419826314064E-01  1.7457389294141E+00
72  7.1000000000000E-01 -7.1734981081089E-01 -7.1270276889995E-01  1.6915869151083E+00
73  7.2000000000000E-01 -7.3473291778310E-01 -4.6725238818666E-01  1.6309723038963E+00
74  7.3000000000000E-01 -7.4506261552243E-01 -2.0488856373196E-01  1.5647754767794E+00
75  7.4000000000000E-01 -7.4910606744764E-01  6.6916967269286E-02  1.4938639067203E+00
76  7.5000000000000E-01 -7.4764968323869E-01  3.4051149565751E-01  1.4190631693278E+00
77  7.6000000000000E-01 -7.4146989204291E-01  6.0831124336470E-01  1.3411314498137E+00
78  7.7000000000000E-01 -7.3130642744946E-01  8.6304295009722E-01  1.2607385925352E+00
79  7.8000000000000E-01 -7.1783910530579E-01  1.0979687560065E+00  1.1784505392735E+00
80  7.9000000000000E-01 -7.0166890894250E-01  1.3070868109298E+00  1.0947197665797E+00
81  8.0000000000000E-01 -6.8330399911839E-01  1.4853011302826E+00  1.0098820709085E+00
82  8.1000000000000E-01 -6.6315104642874E-01  1.6285555308831E+00  9.2415977372573E-01
83  8.2000000000000E-01 -6.4151205137362E-01  1.7339279609010E+00  8.3767113890998E-01
84  8.3000000000000E-01 -6.1858658149484E-01  1.7996831253255E+00  7.5044552322902E-01
85  8.4000000000000E-01 -5.9447912576636E-01  1.8252829370974E+00  6.6244352881002E-01
86  8.5000000000000E-01 -5.6921105318743E-01  1.8113559291910E+00  5.7358120483148E-01
87  8.6000000000000E-01 -5.4273647394560E-01  1.7596282813932E+00  4.8375716337403E-01
88  8.7000000000000E-01 -5.1496114512561E-01  1.6728204889367E+00  3.9288133901385E-01
89  8.8000000000000E-01 -4.8576344485403E-01  1.5545148769881E+00  3.0090403887375E-01
90  8.9000000000000E-01 -4.5501636342169E-01  1.4090001026320E+00  2.0784390276491E-01
91  9.0000000000000E-01 -4.2260942990443E-01  1.2410994521206E+00  1.1381342266862E-01