Pa    ONCVPSP-4.0.1  r_core=   1.15662   1.15662   1.15662   1.15662
91.0000     31.0000      230223    zatom,zion,pspd
8      11   3     4   600     0    pspcod,pspxc,lmax,lloc,mmax,r2well
5.99000000  5.00000000  0.00000000    rchrg fchrg qchrg
3     3     2     2     0    nproj
1     1           extension_switch
0                         3.1867810147970E+01  4.2346649778326E+00 -3.1953209399685E-01
1  0.0000000000000E+00 -2.4775639584362E-07  7.2274170614950E-07  7.3047485094069E-07
2  1.0000000000000E-02  1.5169986226842E-01 -1.1544727824981E-01 -7.5160212478872E-02
3  2.0000000000000E-02  3.0173514624030E-01 -2.2709014559824E-01 -1.4665201057201E-01
4  3.0000000000000E-02  4.4848872688799E-01 -3.3126013178094E-01 -2.1094967894278E-01
5  4.0000000000000E-02  5.9043661627239E-01 -4.2455547014396E-01 -2.6480753101101E-01
6  5.0000000000000E-02  7.2619017687906E-01 -5.0396170477491E-01 -3.0538670103054E-01
7  6.0000000000000E-02  8.5453329761505E-01 -5.6695755488795E-01 -3.3036662481331E-01
8  7.0000000000000E-02  9.7445316035156E-01 -6.1160201752210E-01 -3.3803700864751E-01
9  8.0000000000000E-02  1.0851634726540E+00 -6.3659941235460E-01 -3.2736681643187E-01
10  9.0000000000000E-02  1.1861193335066E+00 -6.4133992205604E-01 -2.9804766532075E-01
11  1.0000000000000E-01  1.2770232221298E+00 -6.2591412534244E-01 -2.5050997798560E-01
12  1.1000000000000E-01  1.3578219428615E+00 -5.9110102128523E-01 -1.8591125902318E-01
13  1.2000000000000E-01  1.4286947082447E+00 -5.3833006388079E-01 -1.0609690586826E-01
14  1.3000000000000E-01  1.4900328843763E+00 -4.6961872596927E-01 -1.3534991708786E-02
15  1.4000000000000E-01  1.5424122439687E+00 -3.8748805272844E-01  8.8772569122377E-02
16  1.5000000000000E-01  1.5865588609860E+00 -2.9485951083535E-01  1.9739918041314E-01
17  1.6000000000000E-01  1.6233100249392E+00 -1.9493715732881E-01  3.0861899634210E-01
18  1.7000000000000E-01  1.6535717434828E+00 -9.1079714533206E-02  4.1854396824460E-01
19  1.8000000000000E-01  1.6782745314422E+00  1.3332477582180E-02  5.2326741507577E-01
20  1.9000000000000E-01  1.6983292477887E+00  1.1503046735985E-01  6.1900878508199E-01
21  2.0000000000000E-01  1.7145847368944E+00  2.1098449814876E-01  7.0225423397092E-01
22  2.1000000000000E-01  1.7277889568416E+00  2.9852166406088E-01  7.6988780348704E-01
23  2.2000000000000E-01  1.7385551384852E+00  3.7542886021798E-01  8.1930833755444E-01
24  2.3000000000000E-01  1.7473343197641E+00  4.4003704580891E-01  8.4852780755083E-01
25  2.4000000000000E-01  1.7543953481777E+00  4.9128356472767E-01  8.5624741352023E-01
26  2.5000000000000E-01  1.7598131501535E+00  5.2875012040363E-01  8.4190865789055E-01
27  2.6000000000000E-01  1.7634657406724E+00  5.5267494566066E-01  8.0571752119759E-01
28  2.7000000000000E-01  1.7650401026389E+00  5.6393870845505E-01  7.4864087022940E-01
29  2.8000000000000E-01  1.7640467164542E+00  5.6402471142652E-01  6.7237526022463E-01
30  2.9000000000000E-01  1.7598421796443E+00  5.5495493796864E-01  5.7928931551865E-01
31  3.0000000000000E-01  1.7516590374555E+00  5.3920443151256E-01  4.7234184898175E-01
32  3.1000000000000E-01  1.7386416604529E+00  5.1959733181922E-01  3.5497877322246E-01
33  3.2000000000000E-01  1.7198867654148E+00  4.9918859999191E-01  2.3101263255610E-01
34  3.3000000000000E-01  1.6944869905016E+00  4.8113601540034E-01  1.0448921538040E-01
35  3.4000000000000E-01  1.6615758119853E+00  4.6856740160348E-01 -2.0453831376583E-02
36  3.5000000000000E-01  1.6203720325092E+00  4.6444822046874E-01 -1.3973118742937E-01
37  3.6000000000000E-01  1.5702220820965E+00  4.7145465727153E-01 -2.4945156409650E-01
38  3.7000000000000E-01  1.5106384524356E+00  4.9185710563633E-01 -3.4605176509537E-01
39  3.8000000000000E-01  1.4413327291827E+00  5.2741855845573E-01 -4.2641824731619E-01
40  3.9000000000000E-01  1.3622418904589E+00  5.7931183542001E-01 -4.8799181360883E-01
41  4.0000000000000E-01  1.2735467943752E+00  6.4805885227205E-01 -5.2885171806525E-01
42  4.1000000000000E-01  1.1756820743347E+00  7.3349428990433E-01 -5.4777624807299E-01
43  4.2000000000000E-01  1.0693369864469E+00  8.3475508613765E-01 -5.4427773631700E-01
44  4.3000000000000E-01  9.5544709595484E-01  9.5029618605197E-01 -5.1861091580034E-01
45  4.4000000000000E-01  8.3517703577754E-01  1.0779319865238E+00 -4.7175452524268E-01
46  4.5000000000000E-01  7.0989490667432E-01  1.2149019360361E+00 -4.0536706314797E-01
47  4.6000000000000E-01  5.8113920213015E-01  1.3579578395575E+00 -3.2171853903090E-01
48  4.7000000000000E-01  4.5057941977912E-01  1.5034696054227E+00 -2.2360094413606E-01
49  4.8000000000000E-01  3.1997175437186E-01  1.6475454877263E+00 -1.1422092899538E-01
50  4.9000000000000E-01  1.9111144614313E-01  1.7861623496065E+00  2.9211967451084E-03
51  5.0000000000000E-01  6.5783476306312E-02  1.9153011195312E+00  1.2416155834218E-01
52  5.1000000000000E-01 -5.4286645898248E-02  2.0310824468972E+00  2.4580702747599E-01
53  5.2000000000000E-01 -1.6748027426049E-01  2.1298975900772E+00  3.6426876806559E-01
54  5.3000000000000E-01 -2.7232954425024E-01  2.2085297869918E+00  4.7619011421734E-01
55  5.4000000000000E-01 -3.6755631068937E-01  2.2642617553832E+00  5.7856414225865E-01
56  5.5000000000000E-01 -4.5210479387711E-01  2.2949655301925E+00  6.6883673414819E-01
57  5.6000000000000E-01 -5.2516686941707E-01  2.2991715454294E+00  7.4499151780249E-01
58  5.7000000000000E-01 -5.8619922056678E-01  2.2761146789696E+00  8.0561378703844E-01
59  5.8000000000000E-01 -6.3493188178010E-01  2.2257558679541E+00  8.4993132119965E-01
60  5.9000000000000E-01 -6.7136802581210E-01  2.1487788341919E+00  8.7783090983074E-01
61  6.0000000000000E-01 -6.9577517146055E-01  2.0465623961731E+00  8.8985030649503E-01
62  6.1000000000000E-01 -7.0866830196221E-01  1.9211297500802E+00  8.8714625259415E-01
63  6.2000000000000E-01 -7.1078567309782E-01  1.7750769413340E+00  8.7144009196409E-01
64  6.3000000000000E-01 -7.0305834413570E-01  1.6114834885388E+00  8.4494330709764E-01
65  6.4000000000000E-01 -6.8657467434294E-01  1.4338087353904E+00  8.1026601819780E-01
66  6.5000000000000E-01 -6.6254118532464E-01  1.2457779707894E+00  7.7031207135506E-01
67  6.6000000000000E-01 -6.3224128951423E-01  1.0512626569668E+00  7.2816478158895E-01
68  6.7000000000000E-01 -5.9699342474397E-01  8.5415923066228E-01  6.8696767590585E-01
69  6.8000000000000E-01 -5.5811011349041E-01  6.5827089130357E-01  6.4980469298084E-01
70  6.9000000000000E-01 -5.1685938510834E-01  4.6719656784500E-01  6.1958423821829E-01
71  7.0000000000000E-01 -4.7442986452342E-01  2.8423087451153E-01  5.9893127111339E-01
72  7.1000000000000E-01 -4.3190064799858E-01  1.1227834349944E-01  5.9009122758770E-01
73  7.2000000000000E-01 -3.9021686411507E-01 -4.6215416536192E-02  5.9484907054181E-01
74  7.3000000000000E-01 -3.5017156594951E-01 -1.8931371534889E-01  6.1446613953080E-01
75  7.4000000000000E-01 -3.1239432948000E-01 -3.1561879400933E-01  6.4963676121426E-01
76  7.5000000000000E-01 -2.7734665509598E-01 -4.2428153038710E-01  7.0046581513451E-01
77  7.6000000000000E-01 -2.4532399529047E-01 -5.1499131249040E-01  7.6646765490039E-01
78  7.7000000000000E-01 -2.1646397336607E-01 -5.8794731417910E-01  8.4658599385847E-01
79  7.8000000000000E-01 -1.9076012563004E-01 -6.4381309533574E-01  9.3923360690893E-01
80  7.9000000000000E-01 -1.6808030205911E-01 -6.8365703816048E-01  1.0423500040812E+00
81  8.0000000000000E-01 -1.4818870514325E-01 -7.0888160103484E-01  1.1534746216941E+00
82  8.1000000000000E-01 -1.3077043893286E-01 -7.2114470520796E-01  1.2698325740375E+00
83  8.2000000000000E-01 -1.1545738347039E-01 -7.2227675721724E-01  1.3884296285958E+00
84  8.3000000000000E-01 -1.0185420475784E-01 -7.1419684779884E-01  1.5061528215437E+00
85  8.4000000000000E-01 -8.9563355942792E-02 -6.9883155878726E-01  1.6198730228141E+00
86  8.5000000000000E-01 -7.8208018094585E-02 -6.7803956204778E-01  1.7265457911562E+00
87  8.6000000000000E-01 -6.7452063431876E-02 -6.5354482340071E-01  1.8233070236108E+00
88  8.7000000000000E-01 -5.7016293126093E-02 -6.2688074921023E-01  1.9075601902546E+00
89  8.8000000000000E-01 -4.6690397494156E-02 -5.9934705715777E-01  1.9770523391685E+00
90  8.9000000000000E-01 -3.6340299235614E-02 -5.7198054180790E-01  2.0299365402433E+00
91  9.0000000000000E-01 -2.5910760620013E-02 -5.4554026751360E-01  2.0648189890185E+00
92  9.1000000000000E-01 -1.5423353419278E-02 -5.2050708384288E-01  2.0807895912078E+00
93  9.2000000000000E-01 -4.9700965735036E-03 -4.9709674879893E-01  2.0774354724006E+00
94  9.3000000000000E-01  5.2967474127630E-03 -4.7528538716652E-01  2.0548374837777E+00
95  9.4000000000000E-01  1.5178067725873E-02 -4.5484552633432E-01  2.0135503833743E+00
96  9.5000000000000E-01  2.4443716971766E-02 -4.3539055668118E-01  1.9545679457089E+00
97  9.6000000000000E-01  3.2849875509751E-02 -4.1642516964732E-01  1.8792747759878E+00
98  9.7000000000000E-01  4.0157054507281E-02 -3.9739913987990E-01  1.7893870680395E+00
99  9.8000000000000E-01  4.6147812194285E-02 -3.7776173840137E-01  1.6868849411229E+00
100  9.9000000000000E-01  5.0643282150980E-02 -3.5701408570947E-01  1.5739393180011E+00
101  1.0000000000000E+00  5.3517668439845E-02 -3.3475686559098E-01  1.4528365674985E+00
102  1.0100000000000E+00  5.4709943768797E-02 -3.1073100543388E-01  1.3259043359308E+00
103  1.0200000000000E+00  5.4232085753312E-02 -2.8484916541404E-01  1.1954421438297E+00
104  1.0300000000000E+00  5.2173293899769E-02 -2.5721614274841E-01  1.0636604412798E+00
105  1.0400000000000E+00  4.8699735893095E-02 -2.2813655989757E-01  9.3263191326729E-01
106  1.0500000000000E+00  4.4049465774456E-02 -1.9810843830164E-01  8.0425892417342E-01
107  1.0600000000000E+00  3.8522228129822E-02 -1.6780143255566E-01  6.8026110766443E-01
108  1.0700000000000E+00  3.2463900802998E-02 -1.3801858405847E-01  5.6218726414796E-01
109  1.0800000000000E+00  2.6245374905220E-02 -1.0964055139416E-01  4.5145593258992E-01
110  1.0900000000000E+00  2.0235176351721E-02 -8.3549967137544E-02  3.4942940217306E-01
111  1.1000000000000E+00  1.4761738557928E-02 -6.0524896812196E-02  2.5752630842752E-01
112  1.1100000000000E+00  9.9336189967690E-03 -4.0760744351866E-02  1.7739440072155E-01
113  1.1200000000000E+00  5.9260035469864E-03 -2.4611708960862E-02  1.1074698990307E-01
114  1.1300000000000E+00  2.9409186205719E-03 -1.2525247668113E-02  5.8972995499181E-02
115  1.1400000000000E+00  1.0400369651805E-03 -4.6204456841014E-03  2.3083545288462E-02
116  1.1500000000000E+00  1.4358468229004E-04 -6.8196953483434E-04  3.6769154945726E-03
117  1.1600000000000E+00 -6.3792914367981E-06  3.2484063709790E-05 -1.8693181851424E-04
118  1.1700000000000E+00  4.4533238261705E-07 -2.2028449476904E-06  1.2358815412392E-05
119  1.18 -0. -0. -0.
120  1.19  0.  0.  0.
121  1.20  0.  0.  0.
122  1.21  0.  0.  0.
123  1.22  0.  0.  0.
124  1.23  0.  0.  0.
125  1.24  0.  0.  0.
126  1.25  0.  0.  0.
127  1.26  0.  0.  0.
128  1.27  0.  0.  0.
129  1.28  0.  0.  0.
130  1.29  0.  0.  0.
131  1.30  0.  0.  0.
132  1.31  0.  0.  0.
133  1.32  0.  0.  0.
134  1.33  0.  0.  0.
135  1.34  0.  0.  0.
136  1.35  0.  0.  0.
137  1.36  0.  0.  0.
138  1.37  0.  0.  0.
139  1.38  0.  0.  0.
140  1.39  0.  0.  0.
141  1.40  0.  0.  0.
142  1.41  0.  0.  0.
143  1.42  0.  0.  0.
144  1.43  0.  0.  0.
145  1.44  0.  0.  0.
146  1.45  0.  0.  0.
147  1.46  0.  0.  0.
148  1.47  0.  0.  0.
149  1.48  0.  0.  0.
150  1.49  0.  0.  0.
151  1.50  0.  0.  0.
152  1.51  0.  0.  0.
153  1.52  0.  0.  0.
154  1.53  0.  0.  0.
155  1.54  0.  0.  0.
156  1.55  0.  0.  0.
157  1.56  0.  0.  0.
158  1.57  0.  0.  0.
159  1.58  0.  0.  0.
160  1.59  0.  0.  0.
161  1.60  0.  0.  0.
162  1.61  0.  0.  0.
163  1.62  0.  0.  0.
164  1.63  0.  0.  0.
165  1.64  0.  0.  0.
166  1.65  0.  0.  0.
167  1.66  0.  0.  0.
168  1.67  0.  0.  0.
169  1.68  0.  0.  0.
170  1.69  0.  0.  0.
171  1.70  0.  0.  0.
172  1.71  0.  0.  0.
173  1.72  0.  0.  0.
174  1.73  0.  0.  0.
175  1.74  0.  0.  0.
176  1.75  0.  0.  0.
177  1.76  0.  0.  0.
178  1.77  0.  0.  0.
179  1.78  0.  0.  0.
180  1.79  0.  0.  0.
181  1.80  0.  0.  0.
182  1.81  0.  0.  0.
183  1.82  0.  0.  0.
184  1.83  0.  0.  0.
185  1.84  0.  0.  0.
186  1.85  0.  0.  0.
187  1.86  0.  0.  0.
188  1.87  0.  0.  0.
189  1.88  0.  0.  0.
190  1.89  0.  0.  0.
191  1.90  0.  0.  0.
192  1.91  0.  0.  0.
193  1.92  0.  0.  0.
194  1.93  0.  0.  0.
195  1.94  0.  0.  0.
196  1.95  0.  0.  0.
197  1.96  0.  0.  0.
198  1.97  0.  0.  0.
199  1.98  0.  0.  0.
200  1.99  0.  0.  0.
201  2.00  0.  0.  0.
202  2.01  0.  0.  0.
203  2.02  0.  0.  0.
204  2.03  0.  0.  0.
205  2.04  0.  0.  0.
206  2.05  0.  0.  0.
207  2.06  0.  0.  0.
208  2.07  0.  0.  0.
209  2.08  0.  0.  0.
210  2.09  0.  0.  0.
211  2.10  0.  0.  0.
212  2.11  0.  0.  0.
213  2.12  0.  0.  0.
214  2.13  0.  0.  0.
215  2.14  0.  0.  0.
216  2.15  0.  0.  0.
217  2.16  0.  0.  0.
218  2.17  0.  0.  0.
219  2.18  0.  0.  0.
220  2.19  0.  0.  0.
221  2.20  0.  0.  0.
222  2.21  0.  0.  0.
223  2.22  0.  0.  0.
224  2.23  0.  0.  0.
225  2.24  0.  0.  0.
226  2.25  0.  0.  0.
227  2.26  0.  0.  0.
228  2.27  0.  0.  0.
229  2.28  0.  0.  0.
230  2.29  0.  0.  0.
231  2.30  0.  0.  0.
232  2.31  0.  0.  0.
233  2.32  0.  0.  0.
234  2.33  0.  0.  0.
235  2.34  0.  0.  0.
236  2.35  0.  0.  0.
237  2.36  0.  0.  0.
238  2.37  0.  0.  0.
239  2.38  0.  0.  0.
240  2.39  0.  0.  0.
241  2.40  0.  0.  0.
242  2.41  0.  0.  0.
243  2.42  0.  0.  0.
244  2.43  0.  0.  0.
245  2.44  0.  0.  0.
246  2.45  0.  0.  0.
247  2.46  0.  0.  0.
248  2.47  0.  0.  0.
249  2.48  0.  0.  0.
250  2.49  0.  0.  0.
251  2.50  0.  0.  0.
252  2.51  0.  0.  0.
253  2.52  0.  0.  0.
254  2.53  0.  0.  0.
255  2.54  0.  0.  0.
256  2.55  0.  0.  0.
257  2.56  0.  0.  0.
258  2.57  0.  0.  0.
259  2.58  0.  0.  0.
260  2.59  0.  0.  0.
261  2.60  0.  0.  0.
262  2.61  0.  0.  0.
263  2.62  0.  0.  0.
264  2.63  0.  0.  0.
265  2.64  0.  0.  0.
266  2.65  0.  0.  0.
267  2.66  0.  0.  0.
268  2.67  0.  0.  0.
269  2.68  0.  0.  0.
270  2.69  0.  0.  0.
271  2.70  0.  0.  0.
272  2.71  0.  0.  0.
273  2.72  0.  0.  0.
274  2.73  0.  0.  0.
275  2.74  0.  0.  0.
276  2.75  0.  0.  0.
277  2.76  0.  0.  0.
278  2.77  0.  0.  0.
279  2.78  0.  0.  0.
280  2.79  0.  0.  0.
281  2.80  0.  0.  0.
282  2.81  0.  0.  0.
283  2.82  0.  0.  0.
284  2.83  0.  0.  0.
285  2.84  0.  0.  0.
286  2.85  0.  0.  0.
287  2.86  0.  0.  0.
288  2.87  0.  0.  0.
289  2.88  0.  0.  0.
290  2.89  0.  0.  0.
291  2.90  0.  0.  0.
292  2.91  0.  0.  0.
293  2.92  0.  0.  0.
294  2.93  0.  0.  0.
295  2.94  0.  0.  0.
296  2.95  0.  0.  0.
297  2.96  0.  0.  0.
298  2.97  0.  0.  0.
299  2.98  0.  0.  0.
300  2.99  0.  0.  0.
301  3.00  0.  0.  0.
302  3.01  0.  0.  0.
303  3.02  0.  0.  0.
304  3.03  0.  0.  0.
305  3.04  0.  0.  0.
306  3.05  0.  0.  0.
307  3.06  0.  0.  0.
308  3.07  0.  0.  0.
309  3.08  0.  0.  0.
310  3.09  0.  0.  0.
311  3.10  0.  0.  0.
312  3.11  0.  0.  0.
313  3.12  0.  0.  0.
314  3.13  0.  0.  0.
315  3.14  0.  0.  0.
316  3.15  0.  0.  0.
317  3.16  0.  0.  0.
318  3.17  0.  0.  0.
319  3.18  0.  0.  0.
320  3.19  0.  0.  0.
321  3.20  0.  0.  0.
322  3.21  0.  0.  0.
323  3.22  0.  0.  0.
324  3.23  0.  0.  0.
325  3.24  0.  0.  0.
326  3.25  0.  0.  0.
327  3.26  0.  0.  0.
328  3.27  0.  0.  0.
329  3.28  0.  0.  0.
330  3.29  0.  0.  0.
331  3.30  0.  0.  0.
332  3.31  0.  0.  0.
333  3.32  0.  0.  0.
334  3.33  0.  0.  0.
335  3.34  0.  0.  0.
336  3.35  0.  0.  0.
337  3.36  0.  0.  0.
338  3.37  0.  0.  0.
339  3.38  0.  0.  0.
340  3.39  0.  0.  0.
341  3.40  0.  0.  0.
342  3.41  0.  0.  0.
343  3.42  0.  0.  0.
344  3.43  0.  0.  0.
345  3.44  0.  0.  0.
346  3.45  0.  0.  0.
347  3.46  0.  0.  0.
348  3.47  0.  0.  0.
349  3.48  0.  0.  0.
350  3.49  0.  0.  0.
351  3.50  0.  0.  0.
352  3.51  0.  0.  0.
353  3.52  0.  0.  0.
354  3.53  0.  0.  0.
355  3.54  0.  0.  0.
356  3.55  0.  0.  0.
357  3.56  0.  0.  0.
358  3.57  0.  0.  0.
359  3.58  0.  0.  0.
360  3.59  0.  0.  0.
361  3.60  0.  0.  0.
362  3.61  0.  0.  0.
363  3.62  0.  0.  0.
364  3.63  0.  0.  0.
365  3.64  0.  0.  0.
366  3.65  0.  0.  0.
367  3.66  0.  0.  0.
368  3.67  0.  0.  0.
369  3.68  0.  0.  0.
370  3.69  0.  0.  0.
371  3.70  0.  0.  0.
372  3.71  0.  0.  0.
373  3.72  0.  0.  0.
374  3.73  0.  0.  0.
375  3.74  0.  0.  0.
376  3.75  0.  0.  0.
377  3.76  0.  0.  0.
378  3.77  0.  0.  0.
379  3.78  0.  0.  0.
380  3.79  0.  0.  0.
381  3.80  0.  0.  0.
382  3.81  0.  0.  0.
383  3.82  0.  0.  0.
384  3.83  0.  0.  0.
385  3.84  0.  0.  0.
386  3.85  0.  0.  0.
387  3.86  0.  0.  0.
388  3.87  0.  0.  0.
389  3.88  0.  0.  0.
390  3.89  0.  0.  0.
391  3.90  0.  0.  0.
392  3.91  0.  0.  0.
393  3.92  0.  0.  0.
394  3.93  0.  0.  0.
395  3.94  0.  0.  0.
396  3.95  0.  0.  0.
397  3.96  0.  0.  0.
398  3.97  0.  0.  0.
399  3.98  0.  0.  0.
400  3.99  0.  0.  0.
401  4.00  0.  0.  0.
402  4.01  0.  0.  0.
403  4.02  0.  0.  0.
404  4.03  0.  0.  0.
405  4.04  0.  0.  0.
406  4.05  0.  0.  0.
407  4.06  0.  0.  0.
408  4.07  0.  0.  0.
409  4.08  0.  0.  0.
410  4.09  0.  0.  0.
411  4.10  0.  0.  0.
412  4.11  0.  0.  0.
413  4.12  0.  0.  0.
414  4.13  0.  0.  0.
415  4.14  0.  0.  0.
416  4.15  0.  0.  0.
417  4.16  0.  0.  0.
418  4.17  0.  0.  0.
419  4.18  0.  0.  0.
420  4.19  0.  0.  0.
421  4.20  0.  0.  0.
422  4.21  0.  0.  0.
423  4.22  0.  0.  0.
424  4.23  0.  0.  0.
425  4.24  0.  0.  0.
426  4.25  0.  0.  0.
427  4.26  0.  0.  0.
428  4.27  0.  0.  0.
429  4.28  0.  0.  0.
430  4.29  0.  0.  0.
431  4.30  0.  0.  0.
432  4.31  0.  0.  0.
433  4.32  0.  0.  0.
434  4.33  0.  0.  0.
435  4.34  0.  0.  0.
436  4.35  0.  0.  0.
437  4.36  0.  0.  0.
438  4.37  0.  0.  0.
439  4.38  0.  0.  0.
440  4.39  0.  0.  0.
441  4.40  0.  0.  0.
442  4.41  0.  0.  0.
443  4.42  0.  0.  0.
444  4.43  0.  0.  0.
445  4.44  0.  0.  0.
446  4.45  0.  0.  0.
447  4.46  0.  0.  0.
448  4.47  0.  0.  0.
449  4.48  0.  0.  0.
450  4.49  0.  0.  0.
451  4.50  0.  0.  0.
452  4.51  0.  0.  0.
453  4.52  0.  0.  0.
454  4.53  0.  0.  0.
455  4.54  0.  0.  0.
456  4.55  0.  0.  0.
457  4.56  0.  0.  0.
458  4.57  0.  0.  0.
459  4.58  0.  0.  0.
460  4.59  0.  0.  0.
461  4.60  0.  0.  0.
462  4.61  0.  0.  0.
463  4.62  0.  0.  0.
464  4.63  0.  0.  0.
465  4.64  0.  0.  0.
466  4.65  0.  0.  0.
467  4.66  0.  0.  0.
468  4.67  0.  0.  0.
469  4.68  0.  0.  0.
470  4.69  0.  0.  0.
471  4.70  0.  0.  0.
472  4.71  0.  0.  0.
473  4.72  0.  0.  0.
474  4.73  0.  0.  0.
475  4.74  0.  0.  0.
476  4.75  0.  0.  0.
477  4.76  0.  0.  0.
478  4.77  0.  0.  0.
479  4.78  0.  0.  0.
480  4.79  0.  0.  0.
481  4.80  0.  0.  0.
482  4.81  0.  0.  0.
483  4.82  0.  0.  0.
484  4.83  0.  0.  0.
485  4.84  0.  0.  0.
486  4.85  0.  0.  0.
487  4.86  0.  0.  0.
488  4.87  0.  0.  0.
489  4.88  0.  0.  0.
490  4.89  0.  0.  0.
491  4.90  0.  0.  0.
492  4.91  0.  0.  0.
493  4.92  0.  0.  0.
494  4.93  0.  0.  0.
495  4.94  0.  0.  0.
496  4.95  0.  0.  0.
497  4.96  0.  0.  0.
498  4.97  0.  0.  0.
499  4.98  0.  0.  0.
500  4.99  0.  0.  0.
501  5.00  0.  0.  0.
502  5.01  0.  0.  0.
503  5.02  0.  0.  0.
504  5.03  0.  0.  0.
505  5.04  0.  0.  0.
506  5.05  0.  0.  0.
507  5.06  0.  0.  0.
508  5.07  0.  0.  0.
509  5.08  0.  0.  0.
510  5.09  0.  0.  0.
511  5.10  0.  0.  0.
512  5.11  0.  0.  0.
513  5.12  0.  0.  0.
514  5.13  0.  0.  0.
515  5.14  0.  0.  0.
516  5.15  0.  0.  0.
517  5.16  0.  0.  0.
518  5.17  0.  0.  0.
519  5.18  0.  0.  0.
520  5.19  0.  0.  0.
521  5.20  0.  0.  0.
522  5.21  0.  0.  0.
523  5.22  0.  0.  0.
524  5.23  0.  0.  0.
525  5.24  0.  0.  0.
526  5.25  0.  0.  0.
527  5.26  0.  0.  0.
528  5.27  0.  0.  0.
529  5.28  0.  0.  0.
530  5.29  0.  0.  0.
531  5.30  0.  0.  0.
532  5.31  0.  0.  0.
533  5.32  0.  0.  0.
534  5.33  0.  0.  0.
535  5.34  0.  0.  0.
536  5.35  0.  0.  0.
537  5.36  0.  0.  0.
538  5.37  0.  0.  0.
539  5.38  0.  0.  0.
540  5.39  0.  0.  0.
541  5.40  0.  0.  0.
542  5.41  0.  0.  0.
543  5.42  0.  0.  0.
544  5.43  0.  0.  0.
545  5.44  0.  0.  0.
546  5.45  0.  0.  0.
547  5.46  0.  0.  0.
548  5.47  0.  0.  0.
549  5.48  0.  0.  0.
550  5.49  0.  0.  0.
551  5.50  0.  0.  0.
552  5.51  0.  0.  0.
553  5.52  0.  0.  0.
554  5.53  0.  0.  0.
555  5.54  0.  0.  0.
556  5.55  0.  0.  0.
557  5.56  0.  0.  0.
558  5.57  0.  0.  0.
559  5.58  0.  0.  0.
560  5.59  0.  0.  0.
561  5.60  0.  0.  0.
562  5.61  0.  0.  0.
563  5.62  0.  0.  0.
564  5.63  0.  0.  0.
565  5.64  0.  0.  0.
566  5.65  0.  0.  0.
567  5.66  0.  0.  0.
568  5.67  0.  0.  0.
569  5.68  0.  0.  0.
570  5.69  0.  0.  0.
571  5.70  0.  0.  0.
572  5.71  0.  0.  0.
573  5.72  0.  0.  0.
574  5.73  0.  0.  0.
575  5.74  0.  0.  0.
576  5.75  0.  0.  0.
577  5.76  0.  0.  0.
578  5.77  0.  0.  0.
579  5.78  0.  0.  0.
580  5.79  0.  0.  0.
581  5.80  0.  0.  0.
582  5.81  0.  0.  0.
583  5.82  0.  0.  0.
584  5.83  0.  0.  0.
585  5.84  0.  0.  0.
586  5.85  0.  0.  0.
587  5.86  0.  0.  0.
588  5.87  0.  0.  0.
589  5.88  0.  0.  0.
590  5.89  0.  0.  0.
591  5.90  0.  0.  0.
592  5.91  0.  0.  0.
593  5.92  0.  0.  0.
594  5.93  0.  0.  0.
595  5.94  0.  0.  0.
596  5.95  0.  0.  0.
597  5.96  0.  0.  0.
598  5.97  0.  0.  0.
599  5.98  0.  0.  0.
600  5.99  0.  0.  0.
1                         2.5273182301465E+01  5.1583397061823E+00 -3.8885721281890E-01
1  0.0000000000000E+00  1.0485892645296E-06 -1.6039870115447E-06 -2.0257790078748E-06
2  1.0000000000000E-02  1.1287255338714E-02 -1.1050501157768E-02 -1.1660116582396E-02
3  2.0000000000000E-02  4.4745410573527E-02 -4.3627205837568E-02 -4.5946841342744E-02
4  3.0000000000000E-02  9.9181230662313E-02 -9.6032405463957E-02 -1.0081282667387E-01
5  4.0000000000000E-02  1.7266384988725E-01 -1.6552432374728E-01 -1.7295604961805E-01
6  5.0000000000000E-02  2.6260880303122E-01 -2.4844450447364E-01 -2.5797984370837E-01
7  6.0000000000000E-02  3.6589028224355E-01 -3.4038791327127E-01 -3.5060658346484E-01
8  7.0000000000000E-02  4.7897652768780E-01 -4.3640796346216E-01 -4.4493522288794E-01
9  8.0000000000000E-02  5.9808221147500E-01 -5.3124707212084E-01 -5.3473086351348E-01
10  9.0000000000000E-02  7.1933090493165E-01 -6.1958217568894E-01 -6.1373303417599E-01
11  1.0000000000000E-01  8.3892026402789E-01 -6.9627393868599E-01 -6.7596847121190E-01
12  1.1000000000000E-01  9.5328244764662E-01 -7.5660820618202E-01 -7.1605393522043E-01
13  1.2000000000000E-01  1.0592325039687E+00 -7.9651858948909E-01 -7.2947500082135E-01
14  1.3000000000000E-01  1.1540980117928E+00 -8.1277992009437E-01 -7.1282779203294E-01
15  1.4000000000000E-01  1.2358241212808E+00 -8.0316362130171E-01 -6.6401226237253E-01
16  1.5000000000000E-01  1.3030492636861E+00 -7.6654777119239E-01 -5.8236776352475E-01
17  1.6000000000000E-01  1.3551481411813E+00 -7.0297668653803E-01 -4.6874421412175E-01
18  1.7000000000000E-01  1.3922401051549E+00 -6.1366715224460E-01 -3.2550505648810E-01
19  1.8000000000000E-01  1.4151626163831E+00 -5.0096085087671E-01 -1.5646124582184E-01
20  1.9000000000000E-01  1.4254110812923E+00 -3.6822500164332E-01  3.3261383325531E-02
21  2.0000000000000E-01  1.4250479023173E+00 -2.1970558649164E-01  2.3741602291750E-01
22  2.1000000000000E-01  1.4165849968018E+00 -6.0339714973162E-02  4.4888194335828E-01
23  2.2000000000000E-01  1.4028452633548E+00  1.0446443969643E-01  6.5995414335460E-01
24  2.3000000000000E-01  1.3868094510352E+00  2.6907019935383E-01  8.6266309081632E-01
25  2.4000000000000E-01  1.3714555703638E+00  4.2786644671381E-01  1.0491106405810E+00
26  2.5000000000000E-01  1.3595983443146E+00  5.7552165359762E-01  1.2118074228044E+00
27  2.6000000000000E-01  1.3537362152043E+00  7.0722629260868E-01  1.3439968558211E+00
28  2.7000000000000E-01  1.3559130983013E+00  8.1891254437961E-01  1.4399514566431E+00
29  2.8000000000000E-01  1.3676014191337E+00  9.0744120763985E-01  1.4952282791080E+00
30  2.9000000000000E-01  1.3896120179543E+00  9.7074717437058E-01  1.5068720536298E+00
31  3.0000000000000E-01  1.4220352943407E+00  1.0079366821320E+00  1.4735568569305E+00
32  3.1000000000000E-01  1.4642165519432E+00  1.0193317171971E+00  1.3956598055808E+00
33  3.2000000000000E-01  1.5147669517087E+00  1.0064593180488E+00  1.2752632257733E+00
34  3.3000000000000E-01  1.5716098616663E+00  9.7198601189782E-01  1.1160848724676E+00
35  3.4000000000000E-01  1.6320607759634E+00  9.1960009492981E-01  9.2333891553712E-01
36  3.5000000000000E-01  1.6929374385850E+00  8.5384682785326E-01  7.0353343933659E-01
37  3.6000000000000E-01  1.7506954179341E+00  7.7992375501782E-01  4.6421298084531E-01
38  3.7000000000000E-01  1.8015832004335E+00  7.0344517098039E-01  2.1365703697511E-01
39  3.8000000000000E-01  1.8418099582587E+00  6.3018617043896E-01 -3.9452602823558E-02
40  3.9000000000000E-01  1.8677185400004E+00  5.6581766168341E-01 -2.8638148206789E-01
41  4.0000000000000E-01  1.8759559613446E+00  5.1564415705768E-01 -5.1869410885505E-01
42  4.1000000000000E-01  1.8636337484714E+00  4.8435605646951E-01 -7.2859256325599E-01
43  4.2000000000000E-01  1.8284709067443E+00  4.7580751585881E-01 -9.0922763169729E-01
44  4.3000000000000E-01  1.7689130326861E+00  4.9282986982838E-01 -1.0549692341963E+00
45  4.4000000000000E-01  1.6842221247293E+00  5.3708900701796E-01 -1.1616247032479E+00
46  4.5000000000000E-01  1.5745329310003E+00  6.0899314932243E-01 -1.2265957637330E+00
47  4.6000000000000E-01  1.4408731425332E+00  7.0765524982115E-01 -1.2489677488201E+00
48  4.7000000000000E-01  1.2851463313836E+00  8.3091180051153E-01 -1.2295275473914E+00
49  4.8000000000000E-01  1.1100781732418E+00  9.7539733925090E-01 -1.1707098820631E+00
50  4.9000000000000E-01  9.1912810925993E-01  1.1366714787900E+00 -1.0764746253464E+00
51  5.0000000000000E-01  7.1637011908638E-01  1.3093929607143E+00 -9.5212083716709E-01
52  5.1000000000000E-01  5.0634762824828E-01  1.4875331679848E+00 -8.0404591846736E-01
53  5.2000000000000E-01  2.9390869744931E-01  1.6646198043932E+00 -6.3946060396905E-01
54  5.3000000000000E-01  8.4028488934826E-02  1.8340001445717E+00 -4.6607236108501E-01
55  5.4000000000000E-01 -1.1837346159064E-01  1.9891124318006E+00 -2.9175104226284E-01
56  5.5000000000000E-01 -3.0861344283866E-01  2.1237536882732E+00 -1.2419130133581E-01
57  5.6000000000000E-01 -4.8241365943096E-01  2.2323324157162E+00  2.9413694764143E-02
58  5.7000000000000E-01 -6.3605512564307E-01  2.3100953911908E+00  1.6267334572746E-01
59  5.8000000000000E-01 -7.6650706749317E-01  2.3533189679768E+00  2.7026280066491E-01
60  5.9000000000000E-01 -8.7152761150802E-01  2.3594569173495E+00  3.4813732784183E-01
61  6.0000000000000E-01 -9.4973183520606E-01  2.3272388174849E+00  3.9368919123949E-01
62  6.1000000000000E-01 -1.0006247151808E+00  2.2567152189388E+00  4.0584094988939E-01
63  6.2000000000000E-01 -1.0245980660956E+00  2.1492481892950E+00  3.8507193276962E-01
64  6.3000000000000E-01 -1.0228921463629E+00  2.0074482535910E+00  3.3337759067408E-01
65  6.4000000000000E-01 -9.9752414148519E-01  1.8350610916718E+00  2.5416435385937E-01
66  6.5000000000000E-01 -9.5118715447712E-01  1.6368095224663E+00  1.5208539985433E-01
67  6.6000000000000E-01 -8.8712457077125E-01  1.4181982008633E+00  3.2825237012462E-02
68  6.7000000000000E-01 -8.0898566777187E-01  1.1852899913777E+00 -9.7156872539331E-02
69  6.8000000000000E-01 -7.2066906338883E-01  9.4446409748200E-01 -2.3091298196138E-01
70  6.9000000000000E-01 -6.2616101332725E-01  7.0216666972137E-01 -3.6130924805861E-01
71  7.0000000000000E-01 -5.2937565826422E-01  4.6466476545284E-01 -4.8133214488594E-01
72  7.1000000000000E-01 -4.3400408915641E-01  2.3781418730185E-01 -5.8438488501875E-01
73  7.2000000000000E-01 -3.4337855676666E-01  2.6850908376839E-02 -6.6456149271296E-01
74  7.3000000000000E-01 -2.6035732956247E-01 -1.6378545574813E-01 -7.1688718101398E-01
75  7.4000000000000E-01 -1.8723464437508E-01 -3.3058928186952E-01 -7.3751537555862E-01
76  7.5000000000000E-01 -1.2567894973227E-01 -4.7108273301696E-01 -7.2387381627529E-01
77  7.6000000000000E-01 -7.6701273417229E-02 -5.8386285476769E-01 -6.7475455303620E-01
78  7.7000000000000E-01 -4.0654119606345E-02 -6.6860130071817E-01 -5.9034521908036E-01
79  7.8000000000000E-01 -1.7259885036884E-02 -7.2599818527031E-01 -4.7220159640792E-01
80  7.9000000000000E-01 -5.6664444920514E-03 -7.5769362004355E-01 -3.2316405990686E-01
81  8.0000000000000E-01 -4.5263556721101E-03 -7.6614233988231E-01 -1.4722288559240E-01
82  8.1000000000000E-01 -1.2095126664459E-02 -7.5445838211177E-01  5.0660472204537E-02
83  8.2000000000000E-01 -2.6343220466968E-02 -7.2623797952316E-01  2.6476728046560E-01
84  8.3000000000000E-01 -4.5075972697884E-02 -6.8536961343321E-01  4.8886044152172E-01
85  8.4000000000000E-01 -6.6055389815172E-02 -6.3584051806599E-01  7.1643744173969E-01
86  8.5000000000000E-01 -8.7117880590581E-02 -5.8154882325856E-01  9.4098605404673E-01
87  8.6000000000000E-01 -1.0628234368919E-01 -5.2612998261833E-01  1.1562317296439E+00
88  8.7000000000000E-01 -1.2184366577158E-01 -4.7280519312789E-01  1.3563663244295E+00
89  8.8000000000000E-01 -1.3244754200530E-01 -4.2425822300733E-01  1.5362489642182E+00
90  8.9000000000000E-01 -1.3714356822024E-01 -3.8254549664288E-01  1.6915713944727E+00
91  9.0000000000000E-01 -1.3541471712446E-01 -3.4904252014860E-01  1.8189820036530E+00
92  9.1000000000000E-01 -1.2718254065731E-01 -3.2442785845737E-01  1.9161647614479E+00
93  9.2000000000000E-01 -1.1278867512999E-01 -3.0870398809259E-01  1.9818714744266E+00
94  9.3000000000000E-01 -9.2954404397682E-02 -3.0125254147866E-01  2.0159079304946E+00
95  9.4000000000000E-01 -6.8721102153080E-02 -3.0091981524856E-01  2.0190765824011E+00
96  9.5000000000000E-01 -4.1375277121027E-02 -3.0612701347092E-01  1.9930803197210E+00
97  9.6000000000000E-01 -1.2362643311181E-02 -3.1499860013219E-01  1.9403935213980E+00
98  9.7000000000000E-01  1.6803898429533E-02 -3.2550138982347E-01  1.8641079068794E+00
99  9.8000000000000E-01  4.4637269060019E-02 -3.3558663888510E-01  1.7677616715784E+00