Pa    ONCVPSP-4.0.1  r_core=   1.25016   1.25016   1.45183   1.45183
91.0000     31.0000      230223    zatom,zion,pspd
8      11   3     4   600     0    pspcod,pspxc,lmax,lloc,mmax,r2well
5.99000000  5.00000000  0.00000000    rchrg fchrg qchrg
3     3     2     2     0    nproj
1     1           extension_switch
0                         2.1552483650853E+01  3.2588239299695E+00 -9.4124675700660E-01
1  0.0000000000000E+00 -3.2074486844280E-08  6.3693302965184E-08 -5.7900566674540E-07
2  1.0000000000000E-02  1.1518436829322E-01 -3.2398904042048E-02  1.7563041037117E-01
3  2.0000000000000E-02  2.2975908499286E-01 -6.4115295537132E-02  3.4618163160714E-01
4  3.0000000000000E-02  3.4312347480686E-01 -9.4482818249464E-02  5.0673218992374E-01
5  4.0000000000000E-02  4.5469455302910E-01 -1.2286691390689E-01  6.5267107253950E-01
6  5.0000000000000E-02  5.6391522452447E-01 -1.4867945189028E-01  7.7984069081106E-01
7  6.0000000000000E-02  6.7026173130943E-01 -1.7139188378009E-01  8.8466555685489E-01
8  7.0000000000000E-02  7.7325013766791E-01 -1.9054650932683E-01  9.6426262068002E-01
9  8.0000000000000E-02  8.7244167381697E-01 -2.0576550410553E-01  1.0165297938622E+00
10  9.0000000000000E-02  9.6744679716640E-01 -2.1675743460862E-01  1.0402098745227E+00
11  1.0000000000000E-01  1.0579278729270E+00 -2.2332107128343E-01  1.0349278651094E+00
12  1.1000000000000E-01  1.1436004217818E+00 -2.2534640116948E-01  1.0012005147179E+00
13  1.2000000000000E-01  1.2242329299989E+00 -2.2281283626020E-01  9.4041779490583E-01
14  1.3000000000000E-01  1.2996452651336E+00 -2.1578470831015E-01  8.5479690446975E-01
15  1.4000000000000E-01  1.3697057867285E+00 -2.0440423232825E-01  7.4731026644511E-01
16  1.5000000000000E-01  1.4343272846203E+00 -1.8888220633838E-01  6.2158980226394E-01
17  1.6000000000000E-01  1.4934619161304E+00 -1.6948679124662E-01  4.8181051755076E-01
18  1.7000000000000E-01  1.5470953462511E+00 -1.4653077923167E-01  3.3255708775971E-01
19  1.8000000000000E-01  1.5952403208105E+00 -1.2035780975903E-01  1.7867766904776E-01
20  1.9000000000000E-01  1.6379299206318E+00 -9.1328027362037E-02  2.5129563402448E-02
21  2.0000000000000E-01  1.6752107542551E+00 -5.9803693514248E-02 -1.2317837569968E-01
22  2.1000000000000E-01  1.7071363475290E+00 -2.6135265578255E-02 -2.6154160814355E-01
23  2.2000000000000E-01  1.7337609802534E+00  9.3515611048661E-03 -3.8560910874379E-01
24  2.3000000000000E-01  1.7551342033104E+00  4.6367385896985E-02 -4.9152118308594E-01
25  2.4000000000000E-01  1.7712962449001E+00  8.4668798143863E-02 -5.7603153603561E-01
26  2.5000000000000E-01  1.7822744824182E+00  1.2406588709285E-01 -6.3660973027436E-01
27  2.6000000000000E-01  1.7880811182284E+00  1.6442729483910E-01 -6.7152079349833E-01
28  2.7000000000000E-01  1.7887121543747E+00  2.0568262663028E-01 -6.7987945682225E-01
29  2.8000000000000E-01  1.7841477145878E+00  2.4782212548541E-01 -6.6167731052077E-01
30  2.9000000000000E-01  1.7743537133400E+00  2.9089361426113E-01 -6.1778202099033E-01
31  3.0000000000000E-01  1.7592848228216E+00  3.3499680476313E-01 -5.4990863750349E-01
32  3.1000000000000E-01  1.7388886412233E+00  3.8027516696037E-01 -4.6056390083204E-01
33  3.2000000000000E-01  1.7131109212096E+00  4.2690563862041E-01 -3.5296532007042E-01
34  3.3000000000000E-01  1.6819016774913E+00  4.7508653373923E-01 -2.3093758182646E-01
35  3.4000000000000E-01  1.6452219583279E+00  5.2502407429601E-01 -9.8789572028055E-02
36  3.5000000000000E-01  1.6030510387853E+00  5.7691802181252E-01  3.8824097841901E-02
37  3.6000000000000E-01  1.5553937746034E+00  6.3094692111228E-01  1.7705268061636E-01
38  3.7000000000000E-01  1.5022878452694E+00  6.8725348726494E-01  3.1100527164116E-01
39  3.8000000000000E-01  1.4438106137328E+00  7.4593066726354E-01  4.3590824951753E-01
40  3.9000000000000E-01  1.3800853382349E+00  8.0700889042149E-01  5.4725921206228E-01
41  4.0000000000000E-01  1.3112864887314E+00  8.7044498632261E-01  6.4097255617965E-01
42  4.1000000000000E-01  1.2376439458287E+00  9.3611319753526E-01  7.1351212000258E-01
43  4.2000000000000E-01  1.1594458932374E+00  1.0037986479091E+00  7.6200672008219E-01
44  4.3000000000000E-01  1.0770402543790E+00  1.0731935483120E+00  7.8434496208940E-01
45  4.4000000000000E-01  9.9083456868230E-01  1.1438963327790E+00  7.7924636270928E-01
46  4.5000000000000E-01  9.0129425178652E-01  1.2154138222217E+00  7.4630657181153E-01
47  4.6000000000000E-01  8.0893923472647E-01  1.2871664133218E+00  6.8601530332086E-01
48  4.7000000000000E-01  7.1433902851893E-01  1.3584961903685E+00  5.9974644404797E-01
49  4.8000000000000E-01  6.1810631069808E-01  1.4286777609950E+00  4.8972068441829E-01
50  4.9000000000000E-01  5.2088917759002E-01  1.4969315262999E+00  3.5894187548860E-01
51  5.0000000000000E-01  4.2336224890254E-01  1.5624390147893E+00  2.1110913537594E-01
52  5.1000000000000E-01  3.2621684811388E-01  1.6243598407023E+00  5.0507479194747E-02
53  5.2000000000000E-01  2.3015051194871E-01  1.6818497929156E+00 -1.1811959396297E-01
54  5.3000000000000E-01  1.3585610395004E-01  1.7340795226181E+00 -2.8971157620841E-01
55  5.4000000000000E-01  4.4010820082088E-02  1.7802532775653E+00 -4.5904208929152E-01
56  5.5000000000000E-01 -4.4734621976298E-02  1.8196271286486E+00 -6.2087501104219E-01
57  5.6000000000000E-01 -1.2976632376157E-01  1.8515261507696E+00 -7.7012078796614E-01
58  5.7000000000000E-01 -2.1051680574395E-01  1.8753600540039E+00 -9.0198815831175E-01
59  5.8000000000000E-01 -2.8647361760010E-01  1.8906368115522E+00 -1.0121266868798E+00
60  5.9000000000000E-01 -3.5718674173729E-01  1.8969738962298E+00 -1.0967558337011E+00
61  6.0000000000000E-01 -4.2227461035144E-01  1.8941068149437E+00 -1.1527767319044E+00
62  6.1000000000000E-01 -4.8142859923900E-01  1.8818947180329E+00 -1.1778634198409E+00
63  6.2000000000000E-01 -5.3441590839812E-01  1.8603229544503E+00 -1.1705309393451E+00
64  6.3000000000000E-01 -5.8108078854686E-01  1.8295025412800E+00 -1.1301784533721E+00
65  6.4000000000000E-01 -6.2134412239011E-01  1.7896666136329E+00 -1.0571063274371E+00
66  6.5000000000000E-01 -6.5520141810777E-01  1.7411640151955E+00 -9.5250693415778E-01
67  6.6000000000000E-01 -6.8271931849183E-01  1.6844502773930E+00 -8.1842975213374E-01
68  6.7000000000000E-01 -7.0403077091281E-01  1.6200763133053E+00 -6.5772211311874E-01
69  6.8000000000000E-01 -7.1932903949619E-01  1.5486752185276E+00 -4.7394768006467E-01
70  6.9000000000000E-01 -7.2886077038792E-01  1.4709476229271E+00 -2.7128539018595E-01
71  7.0000000000000E-01 -7.3291834288905E-01  1.3876460730809E+00 -5.4412151791306E-02
72  7.1000000000000E-01 -7.3183175292184E-01  1.2995589440203E+00  1.7162697532204E-01
73  7.2000000000000E-01 -7.2596028042898E-01  1.2074943803171E+00  4.0155707107364E-01
74  7.3000000000000E-01 -7.1568418888693E-01  1.1122647507022E+00  6.3001589219111E-01
75  7.4000000000000E-01 -7.0139669341858E-01  1.0146720681139E+00  8.5169638626209E-01
76  7.5000000000000E-01 -6.8349641459401E-01  9.1549477970501E-01  1.0614850071907E+00
77  7.6000000000000E-01 -6.6238050875388E-01  8.1547627081382E-01  1.2545918807545E+00
78  7.7000000000000E-01 -6.3843863364461E-01  7.1531535556391E-01  1.4266692142247E+00
79  7.8000000000000E-01 -6.1204787158435E-01  6.1565894734135E-01  1.5739147964535E+00
80  7.9000000000000E-01 -5.8356869268135E-01  5.1709701786527E-01  1.6931579773802E+00
81  8.0000000000000E-01 -5.5334199929345E-01  4.2015986704671E-01  1.7819261287268E+00
82  8.1000000000000E-01 -5.2168725146381E-01  3.2531764045811E-01  1.8384902490774E+00
83  8.2000000000000E-01 -4.8890163299404E-01  2.3298195007534E-01  1.8618890635356E+00
84  8.3000000000000E-01 -4.5526018052957E-01  1.4350937985039E-01  1.8519316575200E+00
85  8.4000000000000E-01 -4.2101676481988E-01  5.7206593173270E-02  1.8091793530232E+00
86  8.5000000000000E-01 -3.8640578528127E-01 -2.5663293465948E-02  1.7349081621553E+00
87  8.6000000000000E-01 -3.5164441702632E-01 -1.0487344562298E-01  1.6310537170988E+00
88  8.7000000000000E-01 -3.1693523427976E-01 -1.8022555460025E-01  1.5001410603371E+00
89  8.8000000000000E-01 -2.8246902596317E-01 -2.5154199901934E-01  1.3452020697062E+00
90  8.9000000000000E-01 -2.4842761831720E-01 -3.1865832796120E-01  1.1696835783122E+00
91  9.0000000000000E-01 -2.1498652559094E-01 -3.8141644910156E-01  9.7734942203356E-01
92  9.1000000000000E-01 -1.8231726265708E-01 -4.3965887142336E-01  7.7217970323194E-01
93  9.2000000000000E-01 -1.5058917227466E-01 -4.9322430620370E-01  5.5827049795041E-01
94  9.3000000000000E-01 -1.1997064378027E-01 -5.4194487400498E-01  3.3973705829904E-01
95  9.4000000000000E-01 -9.0629628250568E-02 -5.8564510160046E-01  1.2062327785071E-01
96  9.5000000000000E-01 -6.2733386536899E-02 -6.2414282361204E-01 -9.5180195711476E-02
97  9.6000000000000E-01 -3.6447439849317E-02 -6.5725203172487E-01 -3.0400728900694E-01
98  9.7000000000000E-01 -1.1933726588221E-02 -6.8478764223478E-01 -5.0247591021371E-01
99  9.8000000000000E-01  1.0651997264759E-02 -7.0657208286756E-01 -6.8753468612858E-01
100  9.9000000000000E-01  3.1163444708864E-02 -7.2244353449016E-01 -8.5649694393653E-01
101  1.0000000000000E+00  4.9467671926066E-02 -7.3226560444715E-01 -1.0070625544331E+00
102  1.0100000000000E+00  6.5449414045726E-02 -7.3593815728767E-01 -1.1373289816329E+00
103  1.0200000000000E+00  7.9015733193483E-02 -7.3340898660780E-01 -1.2457936276623E+00
104  1.0300000000000E+00  9.0100810108366E-02 -7.2468597900912E-01 -1.3313503151690E+00
105  1.0400000000000E+00  9.8670694944535E-02 -7.0984939768858E-01 -1.3932835052379E+00
106  1.0500000000000E+00  1.0472782060913E-01 -6.8906389806066E-01 -1.4312646049030E+00
107  1.0600000000000E+00  1.0831507249507E-01 -6.6258987967429E-01 -1.4453554770959E+00
108  1.0700000000000E+00  1.0951920085311E-01 -6.3079377547402E-01 -1.4360250279058E+00
109  1.0800000000000E+00  1.0847335508749E-01 -5.9415687849944E-01 -1.4041855204500E+00
110  1.0900000000000E+00  1.0535851228573E-01 -5.5328230746941E-01 -1.3512560916317E+00
111  1.1000000000000E+00  1.0040354175949E-01 -5.0889962468632E-01 -1.2792610699111E+00
112  1.1100000000000E+00  9.3883408895226E-02 -4.6186570972819E-01 -1.1909639566481E+00
113  1.1200000000000E+00  8.6106627746088E-02 -4.1312633938738E-01 -1.0897272603462E+00
114  1.1300000000000E+00  7.7394322532746E-02 -3.6364436037206E-01 -9.7903940247570E-01
115  1.1400000000000E+00  6.8070934068816E-02 -3.1437326419473E-01 -8.6236271025034E-01
116  1.1500000000000E+00  5.8457368526463E-02 -2.6624113873940E-01 -7.4307441071676E-01
117  1.1600000000000E+00  4.8863810777785E-02 -2.2013389091223E-01 -6.2441264498455E-01
118  1.1700000000000E+00  3.9582403366464E-02 -1.7687822332740E-01 -5.0942838061861E-01
119  1.1800000000000E+00  3.0879951816227E-02 -1.3722472376536E-01 -4.0094363994102E-01
120  1.1900000000000E+00  2.2987933662634E-02 -1.0182463841729E-01 -3.0152649405125E-01
121  1.2000000000000E+00  1.6058364466473E-02 -7.1124114812602E-02 -2.1359287472915E-01
122  1.2100000000000E+00  1.0254918195196E-02 -4.5581422284141E-02 -1.3904312373484E-01
123  1.2200000000000E+00  5.7118516432848E-03 -2.5573352800207E-02 -7.9373688462207E-02
124  1.2300000000000E+00  2.4981899798635E-03 -1.1311283101655E-02 -3.5787675052995E-02
125  1.2400000000000E+00  6.1066370476637E-04 -2.8076971108940E-03 -9.0711668020108E-03
126  1.2500000000000E+00  2.0182188640931E-06 -9.4047902908338E-06 -3.0641203868707E-05
127  1.2600000000000E+00  4.3508022337269E-06 -2.0301107266598E-05 -6.6809140739592E-05
128  1.2700000000000E+00 -7.6406433776197E-07  3.5331811608531E-06  1.1499324460276E-05
129  1.28 -0.  0. -0.
130  1.29  0.  0.  0.
131  1.30  0.  0.  0.
132  1.31  0.  0.  0.
133  1.32  0.  0.  0.
134  1.33  0.  0.  0.
135  1.34  0.  0.  0.
136  1.35  0.  0.  0.
137  1.36  0.  0.  0.
138  1.37  0.  0.  0.
139  1.38  0.  0.  0.
140  1.39  0.  0.  0.
141  1.40  0.  0.  0.
142  1.41  0.  0.  0.
143  1.42  0.  0.  0.
144  1.43  0.  0.  0.
145  1.44  0.  0.  0.
146  1.45  0.  0.  0.
147  1.46  0.  0.  0.
148  1.47  0.  0.  0.
149  1.48  0.  0.  0.
150  1.49  0.  0.  0.
151  1.50  0.  0.  0.
152  1.51  0.  0.  0.
153  1.52  0.  0.  0.
154  1.53  0.  0.  0.
155  1.54  0.  0.  0.
156  1.55  0.  0.  0.
157  1.56  0.  0.  0.
158  1.57  0.  0.  0.
159  1.58  0.  0.  0.
160  1.59  0.  0.  0.
161  1.60  0.  0.  0.
162  1.61  0.  0.  0.
163  1.62  0.  0.  0.
164  1.63  0.  0.  0.
165  1.64  0.  0.  0.
166  1.65  0.  0.  0.
167  1.66  0.  0.  0.
168  1.67  0.  0.  0.
169  1.68  0.  0.  0.
170  1.69  0.  0.  0.
171  1.70  0.  0.  0.
172  1.71  0.  0.  0.
173  1.72  0.  0.  0.
174  1.73  0.  0.  0.
175  1.74  0.  0.  0.
176  1.75  0.  0.  0.
177  1.76  0.  0.  0.
178  1.77  0.  0.  0.
179  1.78  0.  0.  0.
180  1.79  0.  0.  0.
181  1.80  0.  0.  0.
182  1.81  0.  0.  0.
183  1.82  0.  0.  0.
184  1.83  0.  0.  0.
185  1.84  0.  0.  0.
186  1.85  0.  0.  0.
187  1.86  0.  0.  0.
188  1.87  0.  0.  0.
189  1.88  0.  0.  0.
190  1.89  0.  0.  0.
191  1.90  0.  0.  0.
192  1.91  0.  0.  0.
193  1.92  0.  0.  0.
194  1.93  0.  0.  0.
195  1.94  0.  0.  0.
196  1.95  0.  0.  0.
197  1.96  0.  0.  0.
198  1.97  0.  0.  0.
199  1.98  0.  0.  0.
200  1.99  0.  0.  0.
201  2.00  0.  0.  0.
202  2.01  0.  0.  0.
203  2.02  0.  0.  0.
204  2.03  0.  0.  0.
205  2.04  0.  0.  0.
206  2.05  0.  0.  0.
207  2.06  0.  0.  0.
208  2.07  0.  0.  0.
209  2.08  0.  0.  0.
210  2.09  0.  0.  0.
211  2.10  0.  0.  0.
212  2.11  0.  0.  0.
213  2.12  0.  0.  0.
214  2.13  0.  0.  0.
215  2.14  0.  0.  0.
216  2.15  0.  0.  0.
217  2.16  0.  0.  0.
218  2.17  0.  0.  0.
219  2.18  0.  0.  0.
220  2.19  0.  0.  0.
221  2.20  0.  0.  0.
222  2.21  0.  0.  0.
223  2.22  0.  0.  0.
224  2.23  0.  0.  0.
225  2.24  0.  0.  0.
226  2.25  0.  0.  0.
227  2.26  0.  0.  0.
228  2.27  0.  0.  0.
229  2.28  0.  0.  0.
230  2.29  0.  0.  0.
231  2.30  0.  0.  0.
232  2.31  0.  0.  0.
233  2.32  0.  0.  0.
234  2.33  0.  0.  0.
235  2.34  0.  0.  0.
236  2.35  0.  0.  0.
237  2.36  0.  0.  0.
238  2.37  0.  0.  0.
239  2.38  0.  0.  0.
240  2.39  0.  0.  0.
241  2.40  0.  0.  0.
242  2.41  0.  0.  0.
243  2.42  0.  0.  0.
244  2.43  0.  0.  0.
245  2.44  0.  0.  0.
246  2.45  0.  0.  0.
247  2.46  0.  0.  0.
248  2.47  0.  0.  0.
249  2.48  0.  0.  0.
250  2.49  0.  0.  0.
251  2.50  0.  0.  0.
252  2.51  0.  0.  0.
253  2.52  0.  0.  0.
254  2.53  0.  0.  0.
255  2.54  0.  0.  0.
256  2.55  0.  0.  0.
257  2.56  0.  0.  0.
258  2.57  0.  0.  0.
259  2.58  0.  0.  0.
260  2.59  0.  0.  0.
261  2.60  0.  0.  0.
262  2.61  0.  0.  0.
263  2.62  0.  0.  0.
264  2.63  0.  0.  0.
265  2.64  0.  0.  0.
266  2.65  0.  0.  0.
267  2.66  0.  0.  0.
268  2.67  0.  0.  0.
269  2.68  0.  0.  0.
270  2.69  0.  0.  0.
271  2.70  0.  0.  0.
272  2.71  0.  0.  0.
273  2.72  0.  0.  0.
274  2.73  0.  0.  0.
275  2.74  0.  0.  0.
276  2.75  0.  0.  0.
277  2.76  0.  0.  0.
278  2.77  0.  0.  0.
279  2.78  0.  0.  0.
280  2.79  0.  0.  0.
281  2.80  0.  0.  0.
282  2.81  0.  0.  0.
283  2.82  0.  0.  0.
284  2.83  0.  0.  0.
285  2.84  0.  0.  0.
286  2.85  0.  0.  0.
287  2.86  0.  0.  0.
288  2.87  0.  0.  0.
289  2.88  0.  0.  0.
290  2.89  0.  0.  0.
291  2.90  0.  0.  0.
292  2.91  0.  0.  0.
293  2.92  0.  0.  0.
294  2.93  0.  0.  0.
295  2.94  0.  0.  0.
296  2.95  0.  0.  0.
297  2.96  0.  0.  0.
298  2.97  0.  0.  0.
299  2.98  0.  0.  0.
300  2.99  0.  0.  0.
301  3.00  0.  0.  0.
302  3.01  0.  0.  0.
303  3.02  0.  0.  0.
304  3.03  0.  0.  0.
305  3.04  0.  0.  0.
306  3.05  0.  0.  0.
307  3.06  0.  0.  0.
308  3.07  0.  0.  0.
309  3.08  0.  0.  0.
310  3.09  0.  0.  0.
311  3.10  0.  0.  0.
312  3.11  0.  0.  0.
313  3.12  0.  0.  0.
314  3.13  0.  0.  0.
315  3.14  0.  0.  0.
316  3.15  0.  0.  0.
317  3.16  0.  0.  0.
318  3.17  0.  0.  0.
319  3.18  0.  0.  0.
320  3.19  0.  0.  0.
321  3.20  0.  0.  0.
322  3.21  0.  0.  0.
323  3.22  0.  0.  0.
324  3.23  0.  0.  0.
325  3.24  0.  0.  0.
326  3.25  0.  0.  0.
327  3.26  0.  0.  0.
328  3.27  0.  0.  0.
329  3.28  0.  0.  0.
330  3.29  0.  0.  0.
331  3.30  0.  0.  0.
332  3.31  0.  0.  0.
333  3.32  0.  0.  0.
334  3.33  0.  0.  0.
335  3.34  0.  0.  0.
336  3.35  0.  0.  0.
337  3.36  0.  0.  0.
338  3.37  0.  0.  0.
339  3.38  0.  0.  0.
340  3.39  0.  0.  0.
341  3.40  0.  0.  0.
342  3.41  0.  0.  0.
343  3.42  0.  0.  0.
344  3.43  0.  0.  0.
345  3.44  0.  0.  0.
346  3.45  0.  0.  0.
347  3.46  0.  0.  0.
348  3.47  0.  0.  0.
349  3.48  0.  0.  0.
350  3.49  0.  0.  0.
351  3.50  0.  0.  0.
352  3.51  0.  0.  0.
353  3.52  0.  0.  0.
354  3.53  0.  0.  0.
355  3.54  0.  0.  0.
356  3.55  0.  0.  0.
357  3.56  0.  0.  0.
358  3.57  0.  0.  0.
359  3.58  0.  0.  0.
360  3.59  0.  0.  0.
361  3.60  0.  0.  0.
362  3.61  0.  0.  0.
363  3.62  0.  0.  0.
364  3.63  0.  0.  0.
365  3.64  0.  0.  0.
366  3.65  0.  0.  0.
367  3.66  0.  0.  0.
368  3.67  0.  0.  0.
369  3.68  0.  0.  0.
370  3.69  0.  0.  0.
371  3.70  0.  0.  0.
372  3.71  0.  0.  0.
373  3.72  0.  0.  0.
374  3.73  0.  0.  0.
375  3.74  0.  0.  0.
376  3.75  0.  0.  0.
377  3.76  0.  0.  0.
378  3.77  0.  0.  0.
379  3.78  0.  0.  0.
380  3.79  0.  0.  0.
381  3.80  0.  0.  0.
382  3.81  0.  0.  0.
383  3.82  0.  0.  0.
384  3.83  0.  0.  0.
385  3.84  0.  0.  0.
386  3.85  0.  0.  0.
387  3.86  0.  0.  0.
388  3.87  0.  0.  0.
389  3.88  0.  0.  0.
390  3.89  0.  0.  0.
391  3.90  0.  0.  0.
392  3.91  0.  0.  0.
393  3.92  0.  0.  0.
394  3.93  0.  0.  0.
395  3.94  0.  0.  0.
396  3.95  0.  0.  0.
397  3.96  0.  0.  0.
398  3.97  0.  0.  0.
399  3.98  0.  0.  0.
400  3.99  0.  0.  0.
401  4.00  0.  0.  0.
402  4.01  0.  0.  0.
403  4.02  0.  0.  0.
404  4.03  0.  0.  0.
405  4.04  0.  0.  0.
406  4.05  0.  0.  0.
407  4.06  0.  0.  0.
408  4.07  0.  0.  0.
409  4.08  0.  0.  0.
410  4.09  0.  0.  0.
411  4.10  0.  0.  0.
412  4.11  0.  0.  0.
413  4.12  0.  0.  0.
414  4.13  0.  0.  0.
415  4.14  0.  0.  0.
416  4.15  0.  0.  0.
417  4.16  0.  0.  0.
418  4.17  0.  0.  0.
419  4.18  0.  0.  0.
420  4.19  0.  0.  0.
421  4.20  0.  0.  0.
422  4.21  0.  0.  0.
423  4.22  0.  0.  0.
424  4.23  0.  0.  0.
425  4.24  0.  0.  0.
426  4.25  0.  0.  0.
427  4.26  0.  0.  0.
428  4.27  0.  0.  0.
429  4.28  0.  0.  0.
430  4.29  0.  0.  0.
431  4.30  0.  0.  0.
432  4.31  0.  0.  0.
433  4.32  0.  0.  0.
434  4.33  0.  0.  0.
435  4.34  0.  0.  0.
436  4.35  0.  0.  0.
437  4.36  0.  0.  0.
438  4.37  0.  0.  0.
439  4.38  0.  0.  0.
440  4.39  0.  0.  0.
441  4.40  0.  0.  0.
442  4.41  0.  0.  0.
443  4.42  0.  0.  0.
444  4.43  0.  0.  0.
445  4.44  0.  0.  0.
446  4.45  0.  0.  0.
447  4.46  0.  0.  0.
448  4.47  0.  0.  0.
449  4.48  0.  0.  0.
450  4.49  0.  0.  0.
451  4.50  0.  0.  0.
452  4.51  0.  0.  0.
453  4.52  0.  0.  0.
454  4.53  0.  0.  0.
455  4.54  0.  0.  0.
456  4.55  0.  0.  0.
457  4.56  0.  0.  0.
458  4.57  0.  0.  0.
459  4.58  0.  0.  0.
460  4.59  0.  0.  0.
461  4.60  0.  0.  0.
462  4.61  0.  0.  0.
463  4.62  0.  0.  0.
464  4.63  0.  0.  0.
465  4.64  0.  0.  0.
466  4.65  0.  0.  0.
467  4.66  0.  0.  0.
468  4.67  0.  0.  0.
469  4.68  0.  0.  0.
470  4.69  0.  0.  0.
471  4.70  0.  0.  0.
472  4.71  0.  0.  0.
473  4.72  0.  0.  0.
474  4.73  0.  0.  0.
475  4.74  0.  0.  0.
476  4.75  0.  0.  0.
477  4.76  0.  0.  0.
478  4.77  0.  0.  0.
479  4.78  0.  0.  0.
480  4.79  0.  0.  0.
481  4.80  0.  0.  0.
482  4.81  0.  0.  0.
483  4.82  0.  0.  0.
484  4.83  0.  0.  0.
485  4.84  0.  0.  0.
486  4.85  0.  0.  0.
487  4.86  0.  0.  0.
488  4.87  0.  0.  0.
489  4.88  0.  0.  0.
490  4.89  0.  0.  0.
491  4.90  0.  0.  0.
492  4.91  0.  0.  0.
493  4.92  0.  0.  0.
494  4.93  0.  0.  0.
495  4.94  0.  0.  0.
496  4.95  0.  0.  0.
497  4.96  0.  0.  0.
498  4.97  0.  0.  0.
499  4.98  0.  0.  0.
500  4.99  0.  0.  0.
501  5.00  0.  0.  0.
502  5.01  0.  0.  0.
503  5.02  0.  0.  0.
504  5.03  0.  0.  0.
505  5.04  0.  0.  0.
506  5.05  0.  0.  0.
507  5.06  0.  0.  0.
508  5.07  0.  0.  0.
509  5.08  0.  0.  0.
510  5.09  0.  0.  0.
511  5.10  0.  0.  0.
512  5.11  0.  0.  0.
513  5.12  0.  0.  0.
514  5.13  0.  0.  0.
515  5.14  0.  0.  0.
516  5.15  0.  0.  0.
517  5.16  0.  0.  0.
518  5.17  0.  0.  0.
519  5.18  0.  0.  0.
520  5.19  0.  0.  0.
521  5.20  0.  0.  0.
522  5.21  0.  0.  0.
523  5.22  0.  0.  0.
524  5.23  0.  0.  0.
525  5.24  0.  0.  0.
526  5.25  0.  0.  0.
527  5.26  0.  0.  0.
528  5.27  0.  0.  0.
529  5.28  0.  0.  0.
530  5.29  0.  0.  0.
531  5.30  0.  0.  0.
532  5.31  0.  0.  0.
533  5.32  0.  0.  0.
534  5.33  0.  0.  0.
535  5.34  0.  0.  0.
536  5.35  0.  0.  0.
537  5.36  0.  0.  0.
538  5.37  0.  0.  0.
539  5.38  0.  0.  0.
540  5.39  0.  0.  0.
541  5.40  0.  0.  0.
542  5.41  0.  0.  0.
543  5.42  0.  0.  0.
544  5.43  0.  0.  0.
545  5.44  0.  0.  0.
546  5.45  0.  0.  0.
547  5.46  0.  0.  0.
548  5.47  0.  0.  0.
549  5.48  0.  0.  0.
550  5.49  0.  0.  0.
551  5.50  0.  0.  0.
552  5.51  0.  0.  0.
553  5.52  0.  0.  0.
554  5.53  0.  0.  0.
555  5.54  0.  0.  0.
556  5.55  0.  0.  0.
557  5.56  0.  0.  0.
558  5.57  0.  0.  0.
559  5.58  0.  0.  0.
560  5.59  0.  0.  0.
561  5.60  0.  0.  0.
562  5.61  0.  0.  0.
563  5.62  0.  0.  0.
564  5.63  0.  0.  0.
565  5.64  0.  0.  0.
566  5.65  0.  0.  0.
567  5.66  0.  0.  0.
568  5.67  0.  0.  0.
569  5.68  0.  0.  0.
570  5.69  0.  0.  0.
571  5.70  0.  0.  0.
572  5.71  0.  0.  0.
573  5.72  0.  0.  0.
574  5.73  0.  0.  0.
575  5.74  0.  0.  0.
576  5.75  0.  0.  0.
577  5.76  0.  0.  0.
578  5.77  0.  0.  0.
579  5.78  0.  0.  0.
580  5.79  0.  0.  0.
581  5.80  0.  0.  0.
582  5.81  0.  0.  0.
583  5.82  0.  0.  0.
584  5.83  0.  0.  0.
585  5.84  0.  0.  0.
586  5.85  0.  0.  0.
587  5.86  0.  0.  0.
588  5.87  0.  0.  0.
589  5.88  0.  0.  0.
590  5.89  0.  0.  0.
591  5.90  0.  0.  0.
592  5.91  0.  0.  0.
593  5.92  0.  0.  0.
594  5.93  0.  0.  0.
595  5.94  0.  0.  0.
596  5.95  0.  0.  0.
597  5.96  0.  0.  0.
598  5.97  0.  0.  0.
599  5.98  0.  0.  0.
600  5.99  0.  0.  0.
1                         1.4084980123305E+01 -4.9647434180020E+00  2.1328064723574E+00
1  0.0000000000000E+00  1.5461427038677E-07  1.3896379015277E-06 -1.3505287929649E-07
2  1.0000000000000E-02  4.8855506441335E-03  1.4665794664302E-02 -1.8729300043364E-03
3  2.0000000000000E-02  1.9450679526179E-02  5.8022809625456E-02 -7.4247375963651E-03
4  3.0000000000000E-02  4.3423720657209E-02  1.2817533041343E-01 -1.6456921418425E-02
5  4.0000000000000E-02  7.6361464709943E-02  2.2204749594098E-01 -2.8646701332682E-02
6  5.0000000000000E-02  1.1766312967527E-01  3.3550540361539E-01 -4.3558764101471E-02
7  6.0000000000000E-02  1.6658917436188E-01  4.6352141036519E-01 -6.0661046384363E-02
8  7.0000000000000E-02  2.2228424425498E-01  6.0037428806541E-01 -7.9343926326057E-02
9  8.0000000000000E-02  2.8380338463558E-01  7.3987750220672E-01 -9.8942059956362E-02
10  9.0000000000000E-02  3.5014053492916E-01  8.7562678758778E-01 -1.1875799452276E-01
11  1.0000000000000E-01  4.2025823571189E-01  1.0012574362264E+00 -1.3808662196033E-01
12  1.1000000000000E-01  4.9311743887687E-01  1.1107013198004E+00 -1.5623950479433E-01
13  1.2000000000000E-01  5.6770631375108E-01  1.1984336571087E+00 -1.7256811515018E-01
14  1.3000000000000E-01  6.4306698737143E-01  1.2596999072161E+00 -1.8648507490899E-01
15  1.4000000000000E-01  7.1831924391039E-01  1.2907139075839E+00 -1.9748256951334E-01
16  1.5000000000000E-01  7.9268033300251E-01  1.2888194560387E+00 -2.0514722610293E-01
17  1.6000000000000E-01  8.6548019459388E-01  1.2526089154180E+00 -2.0917089378260E-01
18  1.7000000000000E-01  9.3617159274429E-01  1.1819940481723E+00 -2.0935693394237E-01
19  1.8000000000000E-01  1.0043348553240E+00  1.0782261036651E+00 -2.0562181476293E-01
20  1.9000000000000E-01  1.0696771327459E+00  9.4386411470630E-01 -1.9799199877639E-01
21  2.0000000000000E-01  1.1320263082744E+00  7.8269233871826E-01 -1.8659630766936E-01
22  2.1000000000000E-01  1.1913199064176E+00  5.9958972773829E-01 -1.7165413641907E-01
23  2.2000000000000E-01  1.2475895460193E+00  4.0035615605945E-01 -1.5346006162501E-01
24  2.3000000000000E-01  1.3009416629913E+00  1.9150180437578E-01 -1.3236553940483E-01
25  2.4000000000000E-01  1.3515353771152E+00 -1.9992469044911E-02 -1.0875851021027E-01
26  2.5000000000000E-01  1.3995584920168E+00 -2.2693480134422E-01 -8.3041816268366E-02
27  2.6000000000000E-01  1.4452026926835E+00 -4.2219227241677E-01 -5.5611388298573E-02
28  2.7000000000000E-01  1.4886390376776E+00 -5.9896092440139E-01 -2.6835169438548E-02
29  2.8000000000000E-01  1.5299948320955E+00 -7.5102560458042E-01  2.9662847164712E-03
30  2.9000000000000E-01  1.5693329126388E+00 -8.7299972503847E-01  3.3536659395734E-02
31  3.0000000000000E-01  1.6066342799489E+00 -9.6053575111077E-01  6.4697421730371E-02
32  3.1000000000000E-01  1.6417848792680E+00 -1.0104982995799E+00  9.6357421705780E-02
33  3.2000000000000E-01  1.6745671637257E+00 -1.0210931070462E+00  1.2851808974935E-01
34  3.3000000000000E-01  1.7046568815904E+00 -9.9194676732411E-01  1.6127395283191E-01
35  3.4000000000000E-01  1.7316253172214E+00 -9.2413397257846E-01  1.9480838899771E-01
36  3.5000000000000E-01  1.7549469935222E+00 -8.2015095705433E-01  2.2938474309073E-01
37  3.6000000000000E-01  1.7740126201759E+00 -6.8383586051836E-01  2.6533312576062E-01
38  3.7000000000000E-01  1.7881468556984E+00 -5.2023872456025E-01  3.0303340533847E-01
39  3.8000000000000E-01  1.7966302509606E+00 -3.3544573306270E-01  3.4289507002737E-01
40  3.9000000000000E-01  1.7987245653236E+00 -1.3636403639192E-01  3.8533477895787E-01
41  4.0000000000000E-01  1.7937005009836E+00  6.9525008487957E-02  4.3075252896719E-01
42  4.1000000000000E-01  1.7808667924470E+00  2.7443514952377E-01  4.7950743472536E-01
43  4.2000000000000E-01  1.7595995207017E+00  4.7055720814086E-01  5.3189414981609E-01
44  4.3000000000000E-01  1.7293704984761E+00  6.5034331924903E-01  5.8812094400162E-01
45  4.4000000000000E-01  1.6897735950836E+00  8.0678295584159E-01  6.4829039731240E-01
46  4.5000000000000E-01  1.6405479360716E+00  9.3366054393741E-01  7.1238357669743E-01
47  4.6000000000000E-01  1.5815970217616E+00  1.0257851489264E+00  7.8024842932564E-01
48  4.7000000000000E-01  1.5130029556883E+00  1.0791837467868E+00  8.5159296336310E-01
49  4.8000000000000E-01  1.4350351532389E+00  1.0912509438208E+00  9.2598359864068E-01
50  4.9000000000000E-01  1.3481531055396E+00  1.0608496251259E+00  1.0028488636364E+00
51  5.0000000000000E-01  1.2530029958424E+00  9.8835883343621E-01  1.0814883999873E+00
52  5.1000000000000E-01  1.1504081966408E+00  8.7566713688276E-01  1.1610870201306E+00
53  5.2000000000000E-01  1.0413539064263E+00  7.2611176228121E-01  1.2407333565590E+00
54  5.3000000000000E-01  9.2696640631849E-01  5.4436577308677E-01  1.3194424511885E+00
55  5.4000000000000E-01  8.0848762003012E-01  3.3627748231802E-01  1.3961814684818E+00
56  5.5000000000000E-01  6.8724583776277E-01  1.0866803834332E-01  1.4698975832531E+00
57  5.6000000000000E-01  5.6462360867069E-01 -1.3090536025463E-01  1.5395469992688E+00
58  5.7000000000000E-01  4.4202391180553E-01 -3.7441193218070E-01  1.6041240020503E+00
59  5.8000000000000E-01  3.2083577782723E-01 -6.1362587385157E-01  1.6626889412147E+00
60  5.9000000000000E-01  2.0240055080946E-01 -8.4041088645195E-01  1.7143940749029E+00
61  6.0000000000000E-01  8.7979950568274E-02 -1.0470003888912E+00  1.7585062901601E+00
62  6.1000000000000E-01 -2.1272977674310E-02 -1.2262633674603E+00  1.7944258354775E+00
63  6.2000000000000E-01 -1.2433905480028E-01 -1.3719464191315E+00  1.8217003603058E+00
64  6.3000000000000E-01 -2.2035348132182E-01 -1.4788835003956E+00  1.8400337448584E+00
65  6.4000000000000E-01 -3.0862103694751E-01 -1.5431661581949E+00  1.8492894143091E+00
66  6.5000000000000E-01 -3.8862553684424E-01 -1.5622685430350E+00  1.8494880559191E+00
67  6.6000000000000E-01 -4.6003333700254E-01 -1.5351232262325E+00  1.8407998864452E+00
68  6.7000000000000E-01 -5.2269090906280E-01 -1.4621456956785E+00  1.8235318408517E+00
69  6.8000000000000E-01 -5.7661672997828E-01 -1.3452073153282E+00  1.7981102625153E+00
70  6.9000000000000E-01 -6.2198794496302E-01 -1.1875584288289E+00  1.7650598609152E+00
71  7.0000000000000E-01 -6.5912245484323E-01 -9.9370509484858E-01  1.7249798573312E+00
72  7.1000000000000E-01 -6.8845724356789E-01 -7.6924459222670E-01  1.6785183556438E+00
73  7.2000000000000E-01 -7.1052389181821E-01 -5.2066626564677E-01  1.6263460488307E+00
74  7.3000000000000E-01 -7.2592231337043E-01 -2.5512544463116E-01  1.5691303988087E+00
75  7.4000000000000E-01 -7.3529379876682E-01  1.9800980575438E-02  1.5075114064603E+00
76  7.5000000000000E-01 -7.3929445433873E-01  2.9636823174851E-01  1.4420800205770E+00
77  7.6000000000000E-01 -7.3857008395910E-01  5.6691731291372E-01  1.3733601215984E+00
78  7.7000000000000E-01 -7.3373347813248E-01  8.2411962500176E-01  1.3017948628799E+00
79  7.8000000000000E-01 -7.2534495395510E-01  1.0612040109865E+00  1.2277379649624E+00
80  7.9000000000000E-01 -7.1389683542524E-01  1.2721585708149E+00  1.1514503445643E+00
81  8.0000000000000E-01 -6.9980238324286E-01  1.4519007137225E+00  1.0731022285858E+00
82  8.1000000000000E-01 -6.8338948428883E-01  1.5964102697125E+00  9.9278066386180E-01
83  8.2000000000000E-01 -6.6489920187501E-01  1.7028220043469E+00  9.1050209571338E-01
84  8.3000000000000E-01 -6.4448907736279E-01  1.7694755084691E+00  8.2622946245575E-01
85  8.4000000000000E-01 -6.2224087063490E-01  1.7959221006422E+00  7.3989304839955E-01
86  8.5000000000000E-01 -5.9817223955552E-01  1.7828900182402E+00  6.5141416316002E-01
87  8.6000000000000E-01 -5.7225169461298E-01  1.7322107188945E+00  5.6073057765003E-01
88  8.7000000000000E-01 -5.4441603100862E-01  1.6467105078668E+00  4.6782255281518E-01
89  8.8000000000000E-01 -5.1458934180654E-01  1.5300728966026E+00  3.7273824999735E-01
90  8.9000000000000E-01 -4.8270265613147E-01  1.3866780400761E+00  2.7561731381341E-01
91  9.0000000000000E-01 -4.4871322784604E-01  1.2214262631596E+00  1.7671146954078E-01