Cn    ONCVPSP-4.0.1  r_core=   1.15172   1.15172   1.15172   1.15172
112.0000     52.0000      231012    zatom,zion,pspd
8 -116133   3     4   600     0    pspcod,pspxc,lmax,lloc,mmax,r2well
5.99000000  2.50000000  0.00000000    rchrg fchrg qchrg
3     2     2     2     0    nproj
1     1           extension_switch
0                         1.6254263061704E+01 -7.0810947456144E+00  1.6226152833657E+00
1  0.0000000000000E+00  1.6213940856602E-08  3.0471454248726E-09  6.7055657415604E-08
2  1.0000000000000E-02  1.7989412449087E-01  6.7909149364704E-02  3.0184265318377E-02
3  2.0000000000000E-02  3.5818938694626E-01  1.3570201734521E-01  5.9729856433235E-02
4  3.0000000000000E-02  5.3330022088974E-01  2.0326199805057E-01  8.8000323089216E-02
5  4.0000000000000E-02  7.0366762712179E-01  2.7047185880141E-01  1.1436397492803E-01
6  5.0000000000000E-02  8.6777239307822E-01  3.3721348145753E-01  1.3819702255999E-01
7  6.0000000000000E-02  1.0241482222123E+00  4.0336766708994E-01  1.5888757998989E-01
8  7.0000000000000E-02  1.1713947227650E+00  4.6881402133804E-01  1.7584073142726E-01
9  8.0000000000000E-02  1.3081901890755E+00  5.3343093474581E-01  1.8848479845526E-01
10  9.0000000000000E-02  1.4333040900872E+00  5.9709566878744E-01  1.9627886573622E-01
11  1.0000000000000E-01  1.5456091600018E+00  6.5968455431145E-01  1.9872153852576E-01
12  1.1000000000000E-01  1.6440929662845E+00  7.2107330490405E-01  1.9536081725799E-01
13  1.2000000000000E-01  1.7278688116567E+00  7.8113744335968E-01  1.8580488753629E-01
14  1.3000000000000E-01  1.7961858105516E+00  8.3975283521212E-01  1.6973354223457E-01
15  1.4000000000000E-01  1.8484379679092E+00  8.9679631928440E-01  1.4690988011237E-01
16  1.5000000000000E-01  1.8841720802060E+00  9.5214642160858E-01  1.1719186606707E-01
17  1.6000000000000E-01  1.9030942761391E+00  1.0056841359826E+00  8.0543295067271E-02
18  1.7000000000000E-01  1.9050750180994E+00  1.0572937519818E+00  3.7043677455649E-02
19  1.8000000000000E-01  1.8901523959185E+00  1.1068637095165E+00 -1.3103440570891E-02
20  1.9000000000000E-01  1.8585335615381E+00  1.1542874580786E+00 -6.9564190005683E-02
21  2.0000000000000E-01  1.8105941771243E+00  1.1994642986821E+00 -1.3187055546126E-01
22  2.1000000000000E-01  1.7468757793476E+00  1.2423001871626E+00 -1.9941938558266E-01
23  2.2000000000000E-01  1.6680809984019E+00  1.2827084789276E+00 -2.7147453020635E-01
24  2.3000000000000E-01  1.5750666109310E+00  1.3206105973721E+00 -3.4717230326856E-01
25  2.4000000000000E-01  1.4688344502092E+00  1.3559366109048E+00 -4.2553036419325E-01
26  2.5000000000000E-01  1.3505202433595E+00  1.3886257067364E+00 -5.0545999569950E-01
27  2.6000000000000E-01  1.2213804926194E+00  1.4186265531536E+00 -5.8578163709558E-01
28  2.7000000000000E-01  1.0827775641192E+00  1.4458975457592E+00 -6.6524341387810E-01
29  2.8000000000000E-01  9.3616319176891E-01  1.4704069369786E+00 -7.4254229159927E-01
30  2.9000000000000E-01  7.8306064410559E-01  1.4921328518350E+00 -8.1634737913551E-01
31  3.0000000000000E-01  6.2504583692007E-01  1.5110631964504E+00 -8.8532481800724E-01
32  3.1000000000000E-01  4.6372770287984E-01  1.5271954687886E+00 -9.4816362405608E-01
33  3.2000000000000E-01  3.0072815013888E-01  1.5405364837157E+00 -1.0036017987063E+00
34  3.3000000000000E-01  1.3766195426860E-01  1.5511020264072E+00 -1.0504520015330E+00
35  3.4000000000000E-01 -2.3883068756010E-02  1.5589164494222E+00 -1.0876260752976E+00
36  3.5000000000000E-01 -1.8236526652708E-01  1.5640122293525E+00 -1.1141577393992E+00
37  3.6000000000000E-01 -3.3630740391209E-01  1.5664294988335E+00 -1.1292228171667E+00
38  3.7000000000000E-01 -4.8431366262799E-01  1.5662155689015E+00 -1.1321564349662E+00
39  3.8000000000000E-01 -6.2508511398480E-01  1.5634244552518E+00 -1.1224667240960E+00
40  3.9000000000000E-01 -7.5743343007665E-01  1.5581164199800E+00 -1.0998446664668E+00
41  4.0000000000000E-01 -8.8029264220179E-01  1.5503575379778E+00 -1.0641698479275E+00
42  4.1000000000000E-01 -9.9272880286866E-01  1.5402192944338E+00 -1.0155120141062E+00
43  4.2000000000000E-01 -1.0939474577994E+00  1.5277782169933E+00 -9.5412845769458E-01
44  4.3000000000000E-01 -1.1832988852164E+00  1.5131155432055E+00 -8.8045739802082E-01
45  4.4000000000000E-01 -1.2602811097235E+00  1.4963169210760E+00 -7.9510763836572E-01
46  4.5000000000000E-01 -1.3245407456750E+00  1.4774721379844E+00 -6.9884489894117E-01
47  4.6000000000000E-01 -1.3758717685779E+00  1.4566748710457E+00 -5.9257531941137E-01
48  4.7000000000000E-01 -1.4142123515151E+00  1.4340224502953E+00 -4.7732670063071E-01
49  4.8000000000000E-01 -1.4396399357440E+00  1.4096156249431E+00 -3.5422810808525E-01
50  4.9000000000000E-01 -1.4523647297411E+00  1.3835583224263E+00 -2.2448848750967E-01
51  5.0000000000000E-01 -1.4527218485489E+00  1.3559573901161E+00 -8.9374945523454E-02
52  5.1000000000000E-01 -1.4411623151743E+00  1.3269223102926E+00  4.9808674804393E-02
53  5.2000000000000E-01 -1.4182431481557E+00  1.2965648803548E+00  1.9174234040905E-01
54  5.3000000000000E-01 -1.3846167547129E+00  1.2649988521114E+00  3.3510898201191E-01
55  5.4000000000000E-01 -1.3410198378747E+00  1.2323395263056E+00  4.7861182708179E-01
56  5.5000000000000E-01 -1.2882620096197E+00  1.1987033011451E+00  6.2098958444411E-01
57  5.6000000000000E-01 -1.2272142815447E+00  1.1642071764052E+00  7.6102926301402E-01
58  5.7000000000000E-01 -1.1587975811895E+00  1.1289682175047E+00  8.9757652145545E-01
59  5.8000000000000E-01 -1.0839714172760E+00  1.0931029866654E+00  1.0295435590065E+00
60  5.9000000000000E-01 -1.0037227921175E+00  1.0567269507304E+00  1.1559146651361E+00
61  6.0000000000000E-01 -9.1905543564072E-01  1.0199538772813E+00  1.2757496423164E+00
62  6.1000000000000E-01 -8.3097941398515E-01  9.8289523226329E-01  1.3881853977635E+00
63  6.2000000000000E-01 -7.4050114750650E-01  9.4565959330025E-01  1.4924360630260E+00
64  6.3000000000000E-01 -6.4861385893847E-01  9.0835209320097E-01  1.5877920421981E+00
65  6.4000000000000E-01 -5.5628846294906E-01  8.7107390779167E-01  1.6736184087617E+00
66  6.5000000000000E-01 -4.6446490353859E-01  8.3392180116670E-01  1.7493530671831E+00
67  6.6000000000000E-01 -3.7404394555089E-01  7.9698773976523E-01  1.8145050691096E+00
68  6.7000000000000E-01 -2.8587943059784E-01  7.6035858443004E-01  1.8686534271244E+00
69  6.8000000000000E-01 -2.0077101525267E-01  7.2411586688892E-01  1.9114467043470E+00
70  6.9000000000000E-01 -1.1945741954227E-01  6.8833565404629E-01  1.9426035794090E+00
71  7.0000000000000E-01 -4.2610225480677E-02  6.5308850023063E-01  1.9619144978684E+00
72  7.1000000000000E-01  2.9171722571862E-02  6.1843948427187E-01  1.9692444278454E+00
73  7.2000000000000E-01  9.5367252813424E-02  5.8444832514617E-01  1.9645366446322E+00
74  7.3000000000000E-01  1.5553706427568E-01  5.5116956708399E-01  1.9478173813429E+00
75  7.4000000000000E-01  2.0932711086286E-01  5.1865282263803E-01  1.9192011050576E+00
76  7.5000000000000E-01  2.5647109205532E-01  4.8694306037813E-01  1.8788961145877E+00
77  7.6000000000000E-01  2.9679197462204E-01  4.5608092271873E-01  1.8272101103080E+00
78  7.7000000000000E-01  3.3020247848569E-01  4.2610305895440E-01  1.7645553608413E+00
79  7.8000000000000E-01  3.5670447411732E-01  3.9704245890558E-01  1.6914530868916E+00
80  7.9000000000000E-01  3.7638725821221E-01  3.6892877363822E-01  1.6085366990597E+00
81  8.0000000000000E-01  3.8942469823449E-01  3.4178861145501E-01  1.5165535625013E+00
82  8.1000000000000E-01  3.9607126365160E-01  3.1564579965067E-01  1.4163650138675E+00
83  8.2000000000000E-01  3.9665699087703E-01  2.9052160522662E-01  1.3089444208189E+00
84  8.3000000000000E-01  3.9158145833934E-01  2.6643491067907E-01  1.1953731460082E+00
85  8.4000000000000E-01  3.8130687564439E-01  2.4340234388154E-01  1.0768343491616E+00
86  8.5000000000000E-01  3.6635041422449E-01  2.2143836372418E-01  9.5460462524721E-01
87  8.6000000000000E-01  3.4727592374648E-01  2.0055530527480E-01  8.3004352555020E-01
88  8.7000000000000E-01  3.2468518637539E-01  1.8076338950430E-01  7.0458103321577E-01
89  8.8000000000000E-01  2.9920885726192E-01  1.6207070278687E-01  5.7970305679587E-01
90  8.9000000000000E-01  2.7149722192032E-01  1.4448315016270E-01  4.5693495602662E-01
91  9.0000000000000E-01  2.4221086722482E-01  1.2800438347309E-01  3.3782301535135E-01
92  9.1000000000000E-01  2.1201131054839E-01  1.1263570070563E-01  2.2391362517372E-01
93  9.2000000000000E-01  1.8155155932999E-01  9.8375906007712E-02  1.1672971186313E-01
94  9.3000000000000E-01  1.5146647967420E-01  8.5221110666769E-02  1.7743669658028E-02
95  9.4000000000000E-01  1.2236273638954E-01  7.3164443777987E-02 -7.1654313550134E-02
96  9.5000000000000E-01  9.4807927477078E-02  6.2195627232381E-02 -1.5019408210048E-01
97  9.6000000000000E-01  6.9318373156939E-02  5.2300353004821E-02 -2.1677155146225E-01
98  9.7000000000000E-01  4.6344833205444E-02  4.3459381501618E-02 -2.7050561587777E-01
99  9.8000000000000E-01  2.6255216919868E-02  3.5647257953222E-02 -3.1080925328189E-01
100  9.9000000000000E-01  9.3131165679313E-03  2.8830519434475E-02 -3.3747891322797E-01
101  1.0000000000000E+00 -4.3491951417477E-03  2.2965244108600E-02 -3.5080679559597E-01
102  1.0100000000000E+00 -1.4764313678386E-02  1.7993821792011E-02 -3.5171856061300E-01
103  1.0200000000000E+00 -2.2126839073240E-02  1.3844879415940E-02 -3.4173262238345E-01
104  1.0300000000000E+00 -2.6718095904300E-02  1.0440184602427E-02 -3.2259261910960E-01
105  1.0400000000000E+00 -2.8874104004346E-02  7.6981638471172E-03 -2.9613064961702E-01
106  1.0500000000000E+00 -2.8971672857405E-02  5.5358038793311E-03 -2.6422247249010E-01
107  1.0600000000000E+00 -2.7413885254273E-02  3.8705472292918E-03 -2.2874153190254E-01
108  1.0700000000000E+00 -2.4615371634817E-02  2.6221429686944E-03 -1.9151290093916E-01
109  1.0800000000000E+00 -2.0987778835694E-02  1.7144055384778E-03 -1.5426834086185E-01
110  1.0900000000000E+00 -1.6926229806470E-02  1.0768741998760E-03 -1.1860462317501E-01
111  1.1000000000000E+00 -1.2775163510716E-02  6.4463660909715E-04 -8.5893332984474E-02
112  1.1100000000000E+00 -8.7921931068050E-03  3.5925489563453E-04 -5.7182655133118E-02
113  1.1200000000000E+00 -5.2969490899348E-03  1.8035367020705E-04 -3.3554784963493E-02
114  1.1300000000000E+00 -2.5538709500671E-03  7.5446370465447E-05 -1.5848127417219E-02
115  1.1400000000000E+00 -7.5251287558547E-04  2.0358049057740E-05 -4.5970949810896E-03
116  1.1500000000000E+00 -2.7687465968337E-05  7.3411792496896E-07 -1.6691531823749E-04
117  1.1600000000000E+00 -2.6681924843409E-06  6.8603547680973E-08 -1.6113756738076E-05
118  1.1700000000000E+00  6.0671694222502E-07 -1.5935213822538E-08  3.6857170832832E-06
119  1.18  0.  0.  0.
120  1.19  0.  0.  0.
121  1.20  0.  0.  0.
122  1.21  0.  0.  0.
123  1.22  0.  0.  0.
124  1.23  0.  0.  0.
125  1.24  0.  0.  0.
126  1.25  0.  0.  0.
127  1.26  0.  0.  0.
128  1.27  0.  0.  0.
129  1.28  0.  0.  0.
130  1.29  0.  0.  0.
131  1.30  0.  0.  0.
132  1.31  0.  0.  0.
133  1.32  0.  0.  0.
134  1.33  0.  0.  0.
135  1.34  0.  0.  0.
136  1.35  0.  0.  0.
137  1.36  0.  0.  0.
138  1.37  0.  0.  0.
139  1.38  0.  0.  0.
140  1.39  0.  0.  0.
141  1.40  0.  0.  0.
142  1.41  0.  0.  0.
143  1.42  0.  0.  0.
144  1.43  0.  0.  0.
145  1.44  0.  0.  0.
146  1.45  0.  0.  0.
147  1.46  0.  0.  0.
148  1.47  0.  0.  0.
149  1.48  0.  0.  0.
150  1.49  0.  0.  0.
151  1.50  0.  0.  0.
152  1.51  0.  0.  0.
153  1.52  0.  0.  0.
154  1.53  0.  0.  0.
155  1.54  0.  0.  0.
156  1.55  0.  0.  0.
157  1.56  0.  0.  0.
158  1.57  0.  0.  0.
159  1.58  0.  0.  0.
160  1.59  0.  0.  0.
161  1.60  0.  0.  0.
162  1.61  0.  0.  0.
163  1.62  0.  0.  0.
164  1.63  0.  0.  0.
165  1.64  0.  0.  0.
166  1.65  0.  0.  0.
167  1.66  0.  0.  0.
168  1.67  0.  0.  0.
169  1.68  0.  0.  0.
170  1.69  0.  0.  0.
171  1.70  0.  0.  0.
172  1.71  0.  0.  0.
173  1.72  0.  0.  0.
174  1.73  0.  0.  0.
175  1.74  0.  0.  0.
176  1.75  0.  0.  0.
177  1.76  0.  0.  0.
178  1.77  0.  0.  0.
179  1.78  0.  0.  0.
180  1.79  0.  0.  0.
181  1.80  0.  0.  0.
182  1.81  0.  0.  0.
183  1.82  0.  0.  0.
184  1.83  0.  0.  0.
185  1.84  0.  0.  0.
186  1.85  0.  0.  0.
187  1.86  0.  0.  0.
188  1.87  0.  0.  0.
189  1.88  0.  0.  0.
190  1.89  0.  0.  0.
191  1.90  0.  0.  0.
192  1.91  0.  0.  0.
193  1.92  0.  0.  0.
194  1.93  0.  0.  0.
195  1.94  0.  0.  0.
196  1.95  0.  0.  0.
197  1.96  0.  0.  0.
198  1.97  0.  0.  0.
199  1.98  0.  0.  0.
200  1.99  0.  0.  0.
201  2.00  0.  0.  0.
202  2.01  0.  0.  0.
203  2.02  0.  0.  0.
204  2.03  0.  0.  0.
205  2.04  0.  0.  0.
206  2.05  0.  0.  0.
207  2.06  0.  0.  0.
208  2.07  0.  0.  0.
209  2.08  0.  0.  0.
210  2.09  0.  0.  0.
211  2.10  0.  0.  0.
212  2.11  0.  0.  0.
213  2.12  0.  0.  0.
214  2.13  0.  0.  0.
215  2.14  0.  0.  0.
216  2.15  0.  0.  0.
217  2.16  0.  0.  0.
218  2.17  0.  0.  0.
219  2.18  0.  0.  0.
220  2.19  0.  0.  0.
221  2.20  0.  0.  0.
222  2.21  0.  0.  0.
223  2.22  0.  0.  0.
224  2.23  0.  0.  0.
225  2.24  0.  0.  0.
226  2.25  0.  0.  0.
227  2.26  0.  0.  0.
228  2.27  0.  0.  0.
229  2.28  0.  0.  0.
230  2.29  0.  0.  0.
231  2.30  0.  0.  0.
232  2.31  0.  0.  0.
233  2.32  0.  0.  0.
234  2.33  0.  0.  0.
235  2.34  0.  0.  0.
236  2.35  0.  0.  0.
237  2.36  0.  0.  0.
238  2.37  0.  0.  0.
239  2.38  0.  0.  0.
240  2.39  0.  0.  0.
241  2.40  0.  0.  0.
242  2.41  0.  0.  0.
243  2.42  0.  0.  0.
244  2.43  0.  0.  0.
245  2.44  0.  0.  0.
246  2.45  0.  0.  0.
247  2.46  0.  0.  0.
248  2.47  0.  0.  0.
249  2.48  0.  0.  0.
250  2.49  0.  0.  0.
251  2.50  0.  0.  0.
252  2.51  0.  0.  0.
253  2.52  0.  0.  0.
254  2.53  0.  0.  0.
255  2.54  0.  0.  0.
256  2.55  0.  0.  0.
257  2.56  0.  0.  0.
258  2.57  0.  0.  0.
259  2.58  0.  0.  0.
260  2.59  0.  0.  0.
261  2.60  0.  0.  0.
262  2.61  0.  0.  0.
263  2.62  0.  0.  0.
264  2.63  0.  0.  0.
265  2.64  0.  0.  0.
266  2.65  0.  0.  0.
267  2.66  0.  0.  0.
268  2.67  0.  0.  0.
269  2.68  0.  0.  0.
270  2.69  0.  0.  0.
271  2.70  0.  0.  0.
272  2.71  0.  0.  0.
273  2.72  0.  0.  0.
274  2.73  0.  0.  0.
275  2.74  0.  0.  0.
276  2.75  0.  0.  0.
277  2.76  0.  0.  0.
278  2.77  0.  0.  0.
279  2.78  0.  0.  0.
280  2.79  0.  0.  0.
281  2.80  0.  0.  0.
282  2.81  0.  0.  0.
283  2.82  0.  0.  0.
284  2.83  0.  0.  0.
285  2.84  0.  0.  0.
286  2.85  0.  0.  0.
287  2.86  0.  0.  0.
288  2.87  0.  0.  0.
289  2.88  0.  0.  0.
290  2.89  0.  0.  0.
291  2.90  0.  0.  0.
292  2.91  0.  0.  0.
293  2.92  0.  0.  0.
294  2.93  0.  0.  0.
295  2.94  0.  0.  0.
296  2.95  0.  0.  0.
297  2.96  0.  0.  0.
298  2.97  0.  0.  0.
299  2.98  0.  0.  0.
300  2.99  0.  0.  0.
301  3.00  0.  0.  0.
302  3.01  0.  0.  0.
303  3.02  0.  0.  0.
304  3.03  0.  0.  0.
305  3.04  0.  0.  0.
306  3.05  0.  0.  0.
307  3.06  0.  0.  0.
308  3.07  0.  0.  0.
309  3.08  0.  0.  0.
310  3.09  0.  0.  0.
311  3.10  0.  0.  0.
312  3.11  0.  0.  0.
313  3.12  0.  0.  0.
314  3.13  0.  0.  0.
315  3.14  0.  0.  0.
316  3.15  0.  0.  0.
317  3.16  0.  0.  0.
318  3.17  0.  0.  0.
319  3.18  0.  0.  0.
320  3.19  0.  0.  0.
321  3.20  0.  0.  0.
322  3.21  0.  0.  0.
323  3.22  0.  0.  0.
324  3.23  0.  0.  0.
325  3.24  0.  0.  0.
326  3.25  0.  0.  0.
327  3.26  0.  0.  0.
328  3.27  0.  0.  0.
329  3.28  0.  0.  0.
330  3.29  0.  0.  0.
331  3.30  0.  0.  0.
332  3.31  0.  0.  0.
333  3.32  0.  0.  0.
334  3.33  0.  0.  0.
335  3.34  0.  0.  0.
336  3.35  0.  0.  0.
337  3.36  0.  0.  0.
338  3.37  0.  0.  0.
339  3.38  0.  0.  0.
340  3.39  0.  0.  0.
341  3.40  0.  0.  0.
342  3.41  0.  0.  0.
343  3.42  0.  0.  0.
344  3.43  0.  0.  0.
345  3.44  0.  0.  0.
346  3.45  0.  0.  0.
347  3.46  0.  0.  0.
348  3.47  0.  0.  0.
349  3.48  0.  0.  0.
350  3.49  0.  0.  0.
351  3.50  0.  0.  0.
352  3.51  0.  0.  0.
353  3.52  0.  0.  0.
354  3.53  0.  0.  0.
355  3.54  0.  0.  0.
356  3.55  0.  0.  0.
357  3.56  0.  0.  0.
358  3.57  0.  0.  0.
359  3.58  0.  0.  0.
360  3.59  0.  0.  0.
361  3.60  0.  0.  0.
362  3.61  0.  0.  0.
363  3.62  0.  0.  0.
364  3.63  0.  0.  0.
365  3.64  0.  0.  0.
366  3.65  0.  0.  0.
367  3.66  0.  0.  0.
368  3.67  0.  0.  0.
369  3.68  0.  0.  0.
370  3.69  0.  0.  0.
371  3.70  0.  0.  0.
372  3.71  0.  0.  0.
373  3.72  0.  0.  0.
374  3.73  0.  0.  0.
375  3.74  0.  0.  0.
376  3.75  0.  0.  0.
377  3.76  0.  0.  0.
378  3.77  0.  0.  0.
379  3.78  0.  0.  0.
380  3.79  0.  0.  0.
381  3.80  0.  0.  0.
382  3.81  0.  0.  0.
383  3.82  0.  0.  0.
384  3.83  0.  0.  0.
385  3.84  0.  0.  0.
386  3.85  0.  0.  0.
387  3.86  0.  0.  0.
388  3.87  0.  0.  0.
389  3.88  0.  0.  0.
390  3.89  0.  0.  0.
391  3.90  0.  0.  0.
392  3.91  0.  0.  0.
393  3.92  0.  0.  0.
394  3.93  0.  0.  0.
395  3.94  0.  0.  0.
396  3.95  0.  0.  0.
397  3.96  0.  0.  0.
398  3.97  0.  0.  0.
399  3.98  0.  0.  0.
400  3.99  0.  0.  0.
401  4.00  0.  0.  0.
402  4.01  0.  0.  0.
403  4.02  0.  0.  0.
404  4.03  0.  0.  0.
405  4.04  0.  0.  0.
406  4.05  0.  0.  0.
407  4.06  0.  0.  0.
408  4.07  0.  0.  0.
409  4.08  0.  0.  0.
410  4.09  0.  0.  0.
411  4.10  0.  0.  0.
412  4.11  0.  0.  0.
413  4.12  0.  0.  0.
414  4.13  0.  0.  0.
415  4.14  0.  0.  0.
416  4.15  0.  0.  0.
417  4.16  0.  0.  0.
418  4.17  0.  0.  0.
419  4.18  0.  0.  0.
420  4.19  0.  0.  0.
421  4.20  0.  0.  0.
422  4.21  0.  0.  0.
423  4.22  0.  0.  0.
424  4.23  0.  0.  0.
425  4.24  0.  0.  0.
426  4.25  0.  0.  0.
427  4.26  0.  0.  0.
428  4.27  0.  0.  0.
429  4.28  0.  0.  0.
430  4.29  0.  0.  0.
431  4.30  0.  0.  0.
432  4.31  0.  0.  0.
433  4.32  0.  0.  0.
434  4.33  0.  0.  0.
435  4.34  0.  0.  0.
436  4.35  0.  0.  0.
437  4.36  0.  0.  0.
438  4.37  0.  0.  0.
439  4.38  0.  0.  0.
440  4.39  0.  0.  0.
441  4.40  0.  0.  0.
442  4.41  0.  0.  0.
443  4.42  0.  0.  0.
444  4.43  0.  0.  0.
445  4.44  0.  0.  0.
446  4.45  0.  0.  0.
447  4.46  0.  0.  0.
448  4.47  0.  0.  0.
449  4.48  0.  0.  0.
450  4.49  0.  0.  0.
451  4.50  0.  0.  0.
452  4.51  0.  0.  0.
453  4.52  0.  0.  0.
454  4.53  0.  0.  0.
455  4.54  0.  0.  0.
456  4.55  0.  0.  0.
457  4.56  0.  0.  0.
458  4.57  0.  0.  0.
459  4.58  0.  0.  0.
460  4.59  0.  0.  0.
461  4.60  0.  0.  0.
462  4.61  0.  0.  0.
463  4.62  0.  0.  0.
464  4.63  0.  0.  0.
465  4.64  0.  0.  0.
466  4.65  0.  0.  0.
467  4.66  0.  0.  0.
468  4.67  0.  0.  0.
469  4.68  0.  0.  0.
470  4.69  0.  0.  0.
471  4.70  0.  0.  0.
472  4.71  0.  0.  0.
473  4.72  0.  0.  0.
474  4.73  0.  0.  0.
475  4.74  0.  0.  0.
476  4.75  0.  0.  0.
477  4.76  0.  0.  0.
478  4.77  0.  0.  0.
479  4.78  0.  0.  0.
480  4.79  0.  0.  0.
481  4.80  0.  0.  0.
482  4.81  0.  0.  0.
483  4.82  0.  0.  0.
484  4.83  0.  0.  0.
485  4.84  0.  0.  0.
486  4.85  0.  0.  0.
487  4.86  0.  0.  0.
488  4.87  0.  0.  0.
489  4.88  0.  0.  0.
490  4.89  0.  0.  0.
491  4.90  0.  0.  0.
492  4.91  0.  0.  0.
493  4.92  0.  0.  0.
494  4.93  0.  0.  0.
495  4.94  0.  0.  0.
496  4.95  0.  0.  0.
497  4.96  0.  0.  0.
498  4.97  0.  0.  0.
499  4.98  0.  0.  0.
500  4.99  0.  0.  0.
501  5.00  0.  0.  0.
502  5.01  0.  0.  0.
503  5.02  0.  0.  0.
504  5.03  0.  0.  0.
505  5.04  0.  0.  0.
506  5.05  0.  0.  0.
507  5.06  0.  0.  0.
508  5.07  0.  0.  0.
509  5.08  0.  0.  0.
510  5.09  0.  0.  0.
511  5.10  0.  0.  0.
512  5.11  0.  0.  0.
513  5.12  0.  0.  0.
514  5.13  0.  0.  0.
515  5.14  0.  0.  0.
516  5.15  0.  0.  0.
517  5.16  0.  0.  0.
518  5.17  0.  0.  0.
519  5.18  0.  0.  0.
520  5.19  0.  0.  0.
521  5.20  0.  0.  0.
522  5.21  0.  0.  0.
523  5.22  0.  0.  0.
524  5.23  0.  0.  0.
525  5.24  0.  0.  0.
526  5.25  0.  0.  0.
527  5.26  0.  0.  0.
528  5.27  0.  0.  0.
529  5.28  0.  0.  0.
530  5.29  0.  0.  0.
531  5.30  0.  0.  0.
532  5.31  0.  0.  0.
533  5.32  0.  0.  0.
534  5.33  0.  0.  0.
535  5.34  0.  0.  0.
536  5.35  0.  0.  0.
537  5.36  0.  0.  0.
538  5.37  0.  0.  0.
539  5.38  0.  0.  0.
540  5.39  0.  0.  0.
541  5.40  0.  0.  0.
542  5.41  0.  0.  0.
543  5.42  0.  0.  0.
544  5.43  0.  0.  0.
545  5.44  0.  0.  0.
546  5.45  0.  0.  0.
547  5.46  0.  0.  0.
548  5.47  0.  0.  0.
549  5.48  0.  0.  0.
550  5.49  0.  0.  0.
551  5.50  0.  0.  0.
552  5.51  0.  0.  0.
553  5.52  0.  0.  0.
554  5.53  0.  0.  0.
555  5.54  0.  0.  0.
556  5.55  0.  0.  0.
557  5.56  0.  0.  0.
558  5.57  0.  0.  0.
559  5.58  0.  0.  0.
560  5.59  0.  0.  0.
561  5.60  0.  0.  0.
562  5.61  0.  0.  0.
563  5.62  0.  0.  0.
564  5.63  0.  0.  0.
565  5.64  0.  0.  0.
566  5.65  0.  0.  0.
567  5.66  0.  0.  0.
568  5.67  0.  0.  0.
569  5.68  0.  0.  0.
570  5.69  0.  0.  0.
571  5.70  0.  0.  0.
572  5.71  0.  0.  0.
573  5.72  0.  0.  0.
574  5.73  0.  0.  0.
575  5.74  0.  0.  0.
576  5.75  0.  0.  0.
577  5.76  0.  0.  0.
578  5.77  0.  0.  0.
579  5.78  0.  0.  0.
580  5.79  0.  0.  0.
581  5.80  0.  0.  0.
582  5.81  0.  0.  0.
583  5.82  0.  0.  0.
584  5.83  0.  0.  0.
585  5.84  0.  0.  0.
586  5.85  0.  0.  0.
587  5.86  0.  0.  0.
588  5.87  0.  0.  0.
589  5.88  0.  0.  0.
590  5.89  0.  0.  0.
591  5.90  0.  0.  0.
592  5.91  0.  0.  0.
593  5.92  0.  0.  0.
594  5.93  0.  0.  0.
595  5.94  0.  0.  0.
596  5.95  0.  0.  0.
597  5.96  0.  0.  0.
598  5.97  0.  0.  0.
599  5.98  0.  0.  0.
600  5.99  0.  0.  0.
1                        -5.6238983394901E+00  5.3460139618957E+00
1  0.0000000000000E+00 -5.1252521254819E-09  3.6557269100790E-08
2  1.0000000000000E-02  1.5531892450347E-03  7.0911391007449E-03
3  2.0000000000000E-02  6.2122519596682E-03  2.8261295992130E-02
4  3.0000000000000E-02  1.3975547606176E-02  6.3202135516927E-02
5  4.0000000000000E-02  2.4839926746913E-02  1.1140456548329E-01
6  5.0000000000000E-02  3.8800118832226E-02  1.7216586475419E-01
7  6.0000000000000E-02  5.5847896081715E-02  2.4459952055891E-01
8  7.0000000000000E-02  7.5971033923776E-02  3.2764763537534E-01
9  8.0000000000000E-02  9.9152093583596E-02  4.2009572717432E-01
10  9.0000000000000E-02  1.2536705701347E-01  5.2058971271070E-01
11  1.0000000000000E-01  1.5458384834692E-01  6.2765483237203E-01
12  1.1000000000000E-01  1.8676077934729E-01  7.3971624730237E-01
13  1.2000000000000E-01  2.2184495884437E-01  8.5512101550760E-01
14  1.3000000000000E-01  2.5977070785486E-01  9.7216113377603E-01
15  1.4000000000000E-01  3.0045802292869E-01  1.0890973168165E+00
16  1.5000000000000E-01  3.4381113023186E-01  1.2041831742678E+00
17  1.6000000000000E-01  3.8971717196567E-01  1.3156894403531E+00
18  1.7000000000000E-01  4.3804506494669E-01  1.4219279100504E+00
19  1.8000000000000E-01  4.8864456856324E-01  1.5212747397825E+00
20  1.9000000000000E-01  5.4134559593033E-01  1.6121927797621E+00
21  2.0000000000000E-01  5.9595779795107E-01  1.6932526191697E+00
22  2.1000000000000E-01  6.5227044523445E-01  1.7631520441325E+00
23  2.2000000000000E-01  7.1005262751007E-01  1.8207336317537E+00
24  2.3000000000000E-01  7.6905378441939E-01  1.8650002309261E+00
25  2.4000000000000E-01  8.2900457546231E-01  1.8951281119616E+00
26  2.5000000000000E-01  8.8961809055347E-01  1.9104776017380E+00
27  2.6000000000000E-01  9.5059139621676E-01  1.9106010586271E+00
28  2.7000000000000E-01  1.0116074060425E+00  1.8952480813455E+00
29  2.8000000000000E-01  1.0723370577720E+00  1.8643678874989E+00
30  2.9000000000000E-01  1.1324417733812E+00  1.8181088403154E+00
31  3.0000000000000E-01  1.1915761729192E+00  1.7568151452408E+00
32  3.1000000000000E-01  1.2493910077342E+00  1.6810207810199E+00
33  3.2000000000000E-01  1.3055362741763E+00  1.5914407719218E+00
34  3.3000000000000E-01  1.3596644650030E+00  1.4889599482210E+00
35  3.4000000000000E-01  1.4114339125903E+00  1.3746193802401E+00
36  3.5000000000000E-01  1.4605121757380E+00  1.2496007065668E+00
37  3.6000000000000E-01  1.5065794203956E+00  1.1152086088828E+00
38  3.7000000000000E-01  1.5493317440445E+00  9.7285171362853E-01
39  3.8000000000000E-01  1.5884843937745E+00  8.2402222399702E-01
40  3.9000000000000E-01  1.6237748292745E+00  6.7027460408409E-01
41  4.0000000000000E-01  1.6549655839967E+00  5.1320365008068E-01
42  4.1000000000000E-01  1.6818468806149E+00  3.5442229093474E-01
43  4.2000000000000E-01  1.7042389605214E+00  1.9553946277306E-01
44  4.3000000000000E-01  1.7219940914293E+00  3.8138397505871E-02
45  4.4000000000000E-01  1.7349982220827E+00 -1.1624434351814E-01
46  4.5000000000000E-01  1.7431722585343E+00 -2.6613877503210E-01
47  4.6000000000000E-01  1.7464729423332E+00 -4.1016003715576E-01
48  4.7000000000000E-01  1.7448933171516E+00 -5.4702531841844E-01
49  4.8000000000000E-01  1.7384627767740E+00 -6.7556891225845E-01
50  4.9000000000000E-01  1.7272466938389E+00 -7.9475520055367E-01
51  5.0000000000000E-01  1.7113456351632E+00 -9.0368939490195E-01
52  5.1000000000000E-01  1.6908941757636E+00 -1.0016259062287E+00
53  5.2000000000000E-01  1.6660593297158E+00 -1.0879742551284E+00
54  5.3000000000000E-01  1.6370386216518E+00 -1.1623024783791E+00
55  5.4000000000000E-01  1.6040578278977E+00 -1.2243380305178E+00
56  5.5000000000000E-01  1.5673684209009E+00 -1.2739662224222E+00
57  5.6000000000000E-01  1.5272447546308E+00 -1.3112262807224E+00
58  5.7000000000000E-01  1.4839810319767E+00 -1.3363051517964E+00
59  5.8000000000000E-01  1.4378880977854E+00 -1.3495292113379E+00
60  5.9000000000000E-01  1.3892901030259E+00 -1.3513540743641E+00
61  6.0000000000000E-01  1.3385210866372E+00 -1.3423527304313E+00
62  6.1000000000000E-01  1.2859215218952E+00 -1.3232022542117E+00
63  6.2000000000000E-01  1.2318348736429E+00 -1.2946693620304E+00
64  6.3000000000000E-01  1.1766042114871E+00 -1.2575951001102E+00
65  6.4000000000000E-01  1.1205689221241E+00 -1.2128789598971E+00
66  6.5000000000000E-01  1.0640615613515E+00 -1.1614627198174E+00
67  6.6000000000000E-01  1.0074048831441E+00 -1.1043143111280E+00
68  6.7000000000000E-01  9.5090907945944E-01 -1.0424119982730E+00
69  6.8000000000000E-01  8.9486926030928E-01 -9.7672915154586E-01
70  6.9000000000000E-01  8.3956319914452E-01 -9.0821987218864E-01
71  7.0000000000000E-01  7.8524936386566E-01 -8.3780570772811E-01
72  7.1000000000000E-01  7.3216524887154E-01 -7.6636366883510E-01
73  7.2000000000000E-01  6.8052601859392E-01 -6.9471572883260E-01
74  7.3000000000000E-01  6.3052346802539E-01 -6.2361995377328E-01
75  7.4000000000000E-01  5.8232530092159E-01 -5.5376337538786E-01
76  7.5000000000000E-01  5.3607472172832E-01 -4.8575668182390E-01
77  7.6000000000000E-01  4.9189033292585E-01 -4.2013076261293E-01
78  7.7000000000000E-01  4.4986632546328E-01 -3.5733510536494E-01
79  7.8000000000000E-01  4.1007294633283E-01 -2.9773800290869E-01
80  7.9000000000000E-01  3.7255722415520E-01 -2.4162849155334E-01
81  8.0000000000000E-01  3.3734393094677E-01 -1.8921990435456E-01
82  8.1000000000000E-01  3.0443675604444E-01 -1.4065488817643E-01
83  8.2000000000000E-01  2.7381966648374E-01 -9.6011700322965E-02
84  8.3000000000000E-01  2.4545842696570E-01 -5.5311569849856E-02
85  8.4000000000000E-01  2.1930225189426E-01 -1.8526880559698E-02
86  8.5000000000000E-01  1.9528556180237E-01  1.4410092769981E-02
87  8.6000000000000E-01  1.7332981677981E-01  4.3598186163834E-02
88  8.7000000000000E-01  1.5334540023235E-01  6.9158397669903E-02
89  8.8000000000000E-01  1.3523352739635E-01  9.1225317241915E-02
90  8.9000000000000E-01  1.1888815445364E-01  1.0993928009422E-01
91  9.0000000000000E-01  1.0419786578559E-01  1.2543960206181E-01
92  9.1000000000000E-01  9.1047718815085E-02  1.3785926770584E-01
93  9.2000000000000E-01  7.9321027952275E-02  1.4732145301334E-01
94  9.3000000000000E-01  6.8901071327936E-02  1.5393827498257E-01
95  9.4000000000000E-01  5.9672706210074E-02  1.5781217062225E-01
96  9.5000000000000E-01  5.1523881203407E-02  1.5904031838096E-01
97  9.6000000000000E-01  4.4347035479324E-02  1.5772252621103E-01
98  9.7000000000000E-01  3.8040377332876E-02  1.5397302277871E-01
99  9.8000000000000E-01  3.2509036278429E-02  1.4793660215038E-01
100  9.9000000000000E-01  2.7666084728199E-02  1.3980959019469E-01
101  1.0000000000000E+00  2.3433423782045E-02  1.2986603442413E-01
102  1.0100000000000E+00  1.9742499548773E-02  1.1848871906304E-01
103  1.0200000000000E+00  1.6532916042375E-02  1.0614845434682E-01
104  1.0300000000000E+00  1.3748672819005E-02  9.3299836425668E-02
105  1.0400000000000E+00  1.1337836096216E-02  8.0351492022369E-02
106  1.0500000000000E+00  9.2531913652726E-03  6.7664538917463E-02
107  1.0600000000000E+00  7.4527717298856E-03  5.5551698513052E-02
108  1.0700000000000E+00  5.9002712625347E-03  4.4276915323748E-02
109  1.0800000000000E+00  4.5653479240625E-03  3.4055365482071E-02
110  1.0900000000000E+00  3.4238827776260E-03  2.5053978895227E-02
111  1.1000000000000E+00  2.4548279953956E-03  1.7383080134846E-02
112  1.1100000000000E+00  1.6369056540770E-03  1.1095611856125E-02
113  1.1200000000000E+00  9.7245892369075E-04  6.2457923136590E-03
114  1.1300000000000E+00  4.6976083060193E-04  2.8302772870744E-03
115  1.1400000000000E+00  1.4071191952906E-04  7.8759736540443E-04
116  1.1500000000000E+00  5.3542878852054E-06  2.7320575451922E-05
117  1.1600000000000E+00  5.1058048478807E-07  2.6491716240914E-06
118  1.1700000000000E+00 -1.1477991569427E-07 -6.1795275112931E-07
119  1.18  0.  0.
120  1.19  0.  0.
121  1.20  0.  0.
122  1.21  0.  0.
123  1.22  0.  0.
124  1.23  0.  0.
125  1.24  0.  0.
126  1.25  0.  0.
127  1.26  0.  0.
128  1.27  0.  0.
129  1.28  0.  0.
130  1.29  0.  0.
131  1.30  0.  0.
132  1.31  0.  0.
133  1.32  0.  0.
134  1.33  0.  0.
135  1.34  0.  0.
136  1.35  0.  0.
137  1.36  0.  0.
138  1.37  0.  0.
139  1.38  0.  0.
140  1.39  0.  0.
141  1.40  0.  0.
142  1.41  0.  0.
143  1.42  0.  0.
144  1.43  0.  0.
145  1.44  0.  0.
146  1.45  0.  0.
147  1.46  0.  0.
148  1.47  0.  0.
149  1.48  0.  0.
150  1.49  0.  0.
151  1.50  0.  0.
152  1.51  0.  0.
153  1.52  0.  0.
154  1.53  0.  0.
155  1.54  0.  0.
156  1.55  0.  0.
157  1.56  0.  0.
158  1.57  0.  0.
159  1.58  0.  0.
160  1.59  0.  0.
161  1.60  0.  0.
162  1.61  0.  0.
163  1.62  0.  0.
164  1.63  0.  0.
165  1.64  0.  0.