Cn    ONCVPSP-4.0.1  r_core=   1.15172   1.15172   1.15172   1.15172
112.0000     52.0000      231012    zatom,zion,pspd
8 -116133   3     4   600     0    pspcod,pspxc,lmax,lloc,mmax,r2well
5.99000000  2.50000000  0.00000000    rchrg fchrg qchrg
3     3     3     2    nproj
3     1           extension_switch
4     4     4    nprojso
0                         1.6459256591871E+01 -6.8243888774409E+00  1.6511622968399E+00
1  0.0000000000000E+00  1.5743856218720E-08  3.1363114327831E-09  6.4839471375366E-08
2  1.0000000000000E-02  1.7965310609394E-01  6.7049853497867E-02  3.0868394966353E-02
3  2.0000000000000E-02  3.5771969567755E-01  1.3398662694840E-01  6.1085012126640E-02
4  3.0000000000000E-02  5.3262639651307E-01  2.0069690434287E-01  9.0000632182154E-02
5  4.0000000000000E-02  7.0282610053462E-01  2.6706662042812E-01  1.1697145100160E-01
6  5.0000000000000E-02  8.6681103045962E-01  3.3298079191432E-01  1.4136251432826E-01
7  6.0000000000000E-02  1.0231257153637E+00  3.9832331328809E-01  1.6255197475188E-01
8  7.0000000000000E-02  1.1703798248303E+00  4.6297683488069E-01  1.7993636371540E-01
9  8.0000000000000E-02  1.3072607955419E+00  5.2682273770471E-01  1.9293700648729E-01
10  9.0000000000000E-02  1.4325461662230E+00  5.8974121588601E-01  2.0100763281627E-01
11  1.0000000000000E-01  1.5451155177065E+00  6.5161147342229E-01  2.0364315391462E-01
12  1.1000000000000E-01  1.6439618957186E+00  7.1231203765330E-01  2.0038949136510E-01
13  1.2000000000000E-01  1.7282025759438E+00  7.7172118739728E-01  1.9085425957780E-01
14  1.3000000000000E-01  1.7970890152333E+00  8.2971748936217E-01  1.7471802460958E-01
15  1.4000000000000E-01  1.8500158205813E+00  8.8618043234504E-01  1.5174579241502E-01
16  1.5000000000000E-01  1.8865285597376E+00  9.4099114504285E-01  1.2179832249264E-01
17  1.6000000000000E-01  1.9063302349219E+00  9.9403318015058E-01  8.4842821509844E-02
18  1.7000000000000E-01  1.9092862447092E+00  1.0451933449353E+00  4.0962548268820E-02
19  1.8000000000000E-01  1.8954276692210E+00  1.0943625567361E+00 -9.6351419796813E-03
20  1.9000000000000E-01  1.8649527304373E+00  1.1414367009092E+00 -6.6612768501080E-02
21  2.0000000000000E-01  1.8182263026627E+00  1.1863174686440E+00 -1.2949912787337E-01
22  2.1000000000000E-01  1.7557773775486E+00  1.2289131528091E+00 -1.9768848729534E-01
23  2.2000000000000E-01  1.6782944229625E+00  1.2691393815151E+00 -2.7044285120059E-01
24  2.3000000000000E-01  1.5866186145025E+00  1.3069197713238E+00 -3.4689749265018E-01
25  2.4000000000000E-01  1.4817349614809E+00  1.3421864849050E+00 -4.2606983752423E-01
26  2.5000000000000E-01  1.3647613944415E+00  1.3748806813083E+00 -5.0687167782280E-01
27  2.6000000000000E-01  1.2369359273202E+00  1.4049528507432E+00 -5.8812457472332E-01
28  2.7000000000000E-01  1.0996020526910E+00  1.4323630296954E+00 -6.6857819699492E-01
29  2.8000000000000E-01  9.5419257164353E-01  1.4570808961794E+00 -7.4693123055349E-01
30  2.9000000000000E-01  8.0221209922156E-01  1.4790857487888E+00 -8.2185439486706E-01
31  3.0000000000000E-01  6.4521852062948E-01  1.4983663767931E+00 -8.9201501576704E-01
32  3.1000000000000E-01  4.8480370133988E-01  1.5149208317080E+00 -9.5610253567739E-01
33  3.2000000000000E-01  3.2257377478600E-01  1.5287561134135E+00 -1.0128542943818E+00
34  3.3000000000000E-01  1.6012934370543E-01  1.5398877859087E+00 -1.0610808884332E+00
35  3.4000000000000E-01 -9.5406509130346E-04  1.5483395391135E+00 -1.0996904165384E+00
36  3.5000000000000E-01 -1.5914495792273E-01  1.5541427137065E+00 -1.1277109420849E+00
37  3.6000000000000E-01 -3.1297392274343E-01  1.5573358058328E+00 -1.1443105518249E+00
38  3.7000000000000E-01 -4.6105047057700E-01  1.5579639676353E+00 -1.1488144599929E+00
39  3.8000000000000E-01 -6.0207840141330E-01  1.5560785180338E+00 -1.1407186973139E+00
40  3.9000000000000E-01 -7.3486946266685E-01  1.5517364760712E+00 -1.1197000311060E+00
41  4.0000000000000E-01 -8.5835511027296E-01  1.5450001265812E+00 -1.0856218819810E+00
42  4.1000000000000E-01 -9.7159622849418E-01  1.5359366250364E+00 -1.0385361299124E+00
43  4.2000000000000E-01 -1.0737907129832E+00  1.5246176453570E+00 -9.7868083277582E-01
44  4.3000000000000E-01 -1.1642788709992E+00  1.5111190713374E+00 -9.0647400880708E-01
45  4.4000000000000E-01 -1.2425466412899E+00  1.4955207293509E+00 -8.2250375578024E-01
46  4.5000000000000E-01 -1.3082266824798E+00  1.4779061572402E+00 -7.2751508938099E-01
47  4.6000000000000E-01 -1.3610974214213E+00  1.4583624019528E+00 -6.2239397700923E-01
48  4.7000000000000E-01 -1.4010801906095E+00  1.4369798366141E+00 -5.0814911753350E-01
49  4.8000000000000E-01 -1.4282346154051E+00  1.4138519864675E+00 -3.8589206959481E-01
50  4.9000000000000E-01 -1.4427524367014E+00  1.3890753524757E+00 -2.5681635912359E-01
51  5.0000000000000E-01 -1.4449499723210E+00  1.3627492214195E+00 -1.2217620000930E-01
52  5.1000000000000E-01 -1.4352594306839E+00  1.3349754520333E+00  1.6734559369574E-02
53  5.2000000000000E-01 -1.4142192932939E+00  1.3058582280404E+00  1.5860269545967E-01
54  5.3000000000000E-01 -1.3824639787703E+00  1.2755037708284E+00  3.0211457167115E-01
55  5.4000000000000E-01 -1.3407129912269E+00  1.2440200068407E+00  4.4597338324778E-01
56  5.5000000000000E-01 -1.2897597407018E+00  1.2115161874260E+00  5.8891436140454E-01
57  5.6000000000000E-01 -1.2304602041880E+00  1.1781024617541E+00  7.2971771906959E-01
58  5.7000000000000E-01 -1.1637215738580E+00  1.1438894063198E+00  8.6721923065165E-01
59  5.8000000000000E-01 -1.0904910156249E+00  1.1089875173709E+00  1.0003184475880E+00
60  5.9000000000000E-01 -1.0117446375499E+00  1.0735066751530E+00  1.1279846550647E+00
61  6.0000000000000E-01 -9.2847674503602E-01  1.0375555910429E+00  1.2492607686061E+00
62  6.1000000000000E-01 -8.4168943936601E-01  1.0012412503091E+00  1.3632654481128E+00
63  6.2000000000000E-01 -7.5238259888158E-01  9.6466836431118E-01  1.4691937679967E+00
64  6.3000000000000E-01 -6.6154426868588E-01  9.2793884635712E-01  1.5663168228332E+00
65  6.4000000000000E-01 -5.7014147562385E-01  8.9115132515619E-01  1.6539806669306E+00
66  6.5000000000000E-01 -4.7911148063832E-01  8.5440070882725E-01  1.7316049829766E+00
67  6.6000000000000E-01 -3.8935348029352E-01  8.1777781080000E-01  1.7986818501497E+00
68  6.7000000000000E-01 -3.0172077290653E-01  7.8136904674452E-01  1.8547749375091E+00
69  6.8000000000000E-01 -2.1701341168344E-01  7.4525620898977E-01  1.8995193868261E+00
70  6.9000000000000E-01 -1.3597137664453E-01  7.0951632187576E-01  1.9326225738590E+00
71  7.0000000000000E-01 -5.9268307903778E-02  6.7422157827578E-01  1.9538658526364E+00
72  7.1000000000000E-01  1.2494146114314E-02  6.3943935428846E-01  1.9631072983084E+00
73  7.2000000000000E-01  7.8791301878835E-02  6.0523229600181E-01  1.9602853754537E+00
74  7.3000000000000E-01  1.3917966380873E-01  5.7165846943611E-01  1.9454233752770E+00
75  7.4000000000000E-01  1.9330032089098E-01  5.3877156242991E-01  1.9186343914787E+00
76  7.5000000000000E-01  2.4088143995860E-01  5.0662112547246E-01  1.8801265447417E+00
77  7.6000000000000E-01  2.8173978289909E-01  4.7525283740576E-01  1.8302081230099E+00
78  7.7000000000000E-01  3.1578118440630E-01  4.4470878158448E-01  1.7692922812635E+00
79  7.8000000000000E-01  3.4299994145973E-01  4.1502771851398E-01  1.6979009414277E+00
80  7.9000000000000E-01  3.6347708520871E-01  3.8624534216394E-01  1.6166675501759E+00
81  8.0000000000000E-01  3.7737752967975E-01  3.5839450900782E-01  1.5263383881949E+00
82  8.1000000000000E-01  3.8494611866145E-01  3.3150543125172E-01  1.4277721760536E+00
83  8.2000000000000E-01  3.8650262084784E-01  3.0560582852922E-01  1.3219377849802E+00
84  8.3000000000000E-01  3.8243575211244E-01  2.8072103535106E-01  1.2099099302013E+00
85  8.4000000000000E-01  3.7319633063601E-01  2.5687406457415E-01  1.0928627935521E+00
86  8.5000000000000E-01  3.5928969330729E-01  2.3408562982837E-01  9.7206158353062E-01
87  8.6000000000000E-01  3.4126751798702E-01  2.1237413192883E-01  8.4885208685434E-01
88  8.7000000000000E-01  3.1971920343650E-01  1.9175561550930E-01  7.2464828756411E-01
89  8.8000000000000E-01  2.9526295452114E-01  1.7224370214247E-01  6.0091811932306E-01
90  8.9000000000000E-01  2.6853670235319E-01  1.5384950477386E-01  4.7916736547535E-01
91  9.0000000000000E-01  2.4018895512705E-01  1.3658152511538E-01  3.6092162173013E-01
92  9.1000000000000E-01  2.1086962354574E-01  1.2044553047049E-01  2.4770608077175E-01
93  9.2000000000000E-01  1.8122079321243E-01  1.0544439907809E-01  1.4102268019399E-01
94  9.3000000000000E-01  1.5186732378255E-01  9.1577913282639E-02  4.2323869529664E-02
95  9.4000000000000E-01  1.2340703998555E-01  7.8842467524217E-02 -4.7018105509650E-02
96  9.5000000000000E-01  9.6400142153438E-02  6.7230643193478E-02 -1.2574793622423E-01
97  9.6000000000000E-01  7.1357303292148E-02  5.6730584757120E-02 -1.9277204596306E-01
98  9.7000000000000E-01  4.8725736114358E-02  4.7325091223847E-02 -2.4721407860792E-01
99  9.8000000000000E-01  2.8872307035308E-02  3.8990314001380E-02 -2.8848437665067E-01
100  9.9000000000000E-01  1.2062544050019E-02  3.1693926413176E-02 -3.1636749284255E-01
101  1.0000000000000E+00 -1.5658032030853E-03  2.5392607726997E-02 -3.3113229892718E-01
102  1.0100000000000E+00 -1.2035657832142E-02  2.0028711250589E-02 -3.3366724877300E-01
103  1.0200000000000E+00 -1.9528252286272E-02  1.5530109968252E-02 -3.2544187132884E-01
104  1.0300000000000E+00 -2.4310304180554E-02  1.1817180565548E-02 -3.0814885414348E-01
105  1.0400000000000E+00 -2.6702940614726E-02  8.8064361859219E-03 -2.8357049190848E-01
106  1.0500000000000E+00 -2.7068166269007E-02  6.4125339350626E-03 -2.5353473148431E-01
107  1.0600000000000E+00 -2.5794722347524E-02  4.5502782402652E-03 -2.1987006005190E-01
108  1.0700000000000E+00 -2.3283729363164E-02  3.1365784322369E-03 -1.8436030764759E-01
109  1.0800000000000E+00 -1.9934509056143E-02  2.0923107198036E-03 -1.4870054001161E-01
110  1.0900000000000E+00 -1.6131359755962E-02  1.3440758057428E-03 -1.1445613185773E-01
111  1.1000000000000E+00 -1.2210439317683E-02  8.2405102203875E-04 -8.2975158684952E-02
112  1.1100000000000E+00 -8.4246017304181E-03  4.7098631749565E-04 -5.5292771474926E-02
113  1.1200000000000E+00 -5.0868522179356E-03  2.4226247762151E-04 -3.2474751968783E-02
114  1.1300000000000E+00 -2.4576361935311E-03  1.0332964340512E-04 -1.5350966387218E-02
115  1.1400000000000E+00 -7.2558334750703E-04  2.8150841165856E-05 -4.4565096378882E-03
116  1.1500000000000E+00 -2.6788687486039E-05  1.0046085156455E-06 -1.6205926783432E-04
117  1.1600000000000E+00 -2.5744382958320E-06  9.5503286490727E-08 -1.5623832450336E-05
118  1.1700000000000E+00  5.8481592547908E-07 -2.2182117124675E-08  3.5721471979460E-06
119  1.18  0.  0.  0.
120  1.19  0.  0.  0.
121  1.20  0.  0.  0.
122  1.21  0.  0.  0.
123  1.22  0.  0.  0.
124  1.23  0.  0.  0.
125  1.24  0.  0.  0.
126  1.25  0.  0.  0.
127  1.26  0.  0.  0.
128  1.27  0.  0.  0.
129  1.28  0.  0.  0.
130  1.29  0.  0.  0.
131  1.30  0.  0.  0.
132  1.31  0.  0.  0.
133  1.32  0.  0.  0.
134  1.33  0.  0.  0.
135  1.34  0.  0.  0.
136  1.35  0.  0.  0.
137  1.36  0.  0.  0.
138  1.37  0.  0.  0.
139  1.38  0.  0.  0.
140  1.39  0.  0.  0.
141  1.40  0.  0.  0.
142  1.41  0.  0.  0.
143  1.42  0.  0.  0.
144  1.43  0.  0.  0.
145  1.44  0.  0.  0.
146  1.45  0.  0.  0.
147  1.46  0.  0.  0.
148  1.47  0.  0.  0.
149  1.48  0.  0.  0.
150  1.49  0.  0.  0.
151  1.50  0.  0.  0.
152  1.51  0.  0.  0.
153  1.52  0.  0.  0.
154  1.53  0.  0.  0.
155  1.54  0.  0.  0.
156  1.55  0.  0.  0.
157  1.56  0.  0.  0.
158  1.57  0.  0.  0.
159  1.58  0.  0.  0.
160  1.59  0.  0.  0.
161  1.60  0.  0.  0.
162  1.61  0.  0.  0.
163  1.62  0.  0.  0.
164  1.63  0.  0.  0.
165  1.64  0.  0.  0.
166  1.65  0.  0.  0.
167  1.66  0.  0.  0.
168  1.67  0.  0.  0.
169  1.68  0.  0.  0.
170  1.69  0.  0.  0.
171  1.70  0.  0.  0.
172  1.71  0.  0.  0.
173  1.72  0.  0.  0.
174  1.73  0.  0.  0.
175  1.74  0.  0.  0.
176  1.75  0.  0.  0.
177  1.76  0.  0.  0.
178  1.77  0.  0.  0.
179  1.78  0.  0.  0.
180  1.79  0.  0.  0.
181  1.80  0.  0.  0.
182  1.81  0.  0.  0.
183  1.82  0.  0.  0.
184  1.83  0.  0.  0.
185  1.84  0.  0.  0.
186  1.85  0.  0.  0.
187  1.86  0.  0.  0.
188  1.87  0.  0.  0.
189  1.88  0.  0.  0.
190  1.89  0.  0.  0.
191  1.90  0.  0.  0.
192  1.91  0.  0.  0.
193  1.92  0.  0.  0.
194  1.93  0.  0.  0.
195  1.94  0.  0.  0.
196  1.95  0.  0.  0.
197  1.96  0.  0.  0.
198  1.97  0.  0.  0.
199  1.98  0.  0.  0.
200  1.99  0.  0.  0.
201  2.00  0.  0.  0.
202  2.01  0.  0.  0.
203  2.02  0.  0.  0.
204  2.03  0.  0.  0.
205  2.04  0.  0.  0.
206  2.05  0.  0.  0.
207  2.06  0.  0.  0.
208  2.07  0.  0.  0.
209  2.08  0.  0.  0.
210  2.09  0.  0.  0.
211  2.10  0.  0.  0.
212  2.11  0.  0.  0.
213  2.12  0.  0.  0.
214  2.13  0.  0.  0.
215  2.14  0.  0.  0.
216  2.15  0.  0.  0.
217  2.16  0.  0.  0.
218  2.17  0.  0.  0.
219  2.18  0.  0.  0.
220  2.19  0.  0.  0.
221  2.20  0.  0.  0.
222  2.21  0.  0.  0.
223  2.22  0.  0.  0.
224  2.23  0.  0.  0.
225  2.24  0.  0.  0.
226  2.25  0.  0.  0.
227  2.26  0.  0.  0.
228  2.27  0.  0.  0.
229  2.28  0.  0.  0.
230  2.29  0.  0.  0.
231  2.30  0.  0.  0.
232  2.31  0.  0.  0.
233  2.32  0.  0.  0.
234  2.33  0.  0.  0.
235  2.34  0.  0.  0.
236  2.35  0.  0.  0.
237  2.36  0.  0.  0.
238  2.37  0.  0.  0.
239  2.38  0.  0.  0.
240  2.39  0.  0.  0.
241  2.40  0.  0.  0.
242  2.41  0.  0.  0.
243  2.42  0.  0.  0.
244  2.43  0.  0.  0.
245  2.44  0.  0.  0.
246  2.45  0.  0.  0.
247  2.46  0.  0.  0.
248  2.47  0.  0.  0.
249  2.48  0.  0.  0.
250  2.49  0.  0.  0.
251  2.50  0.  0.  0.
252  2.51  0.  0.  0.
253  2.52  0.  0.  0.
254  2.53  0.  0.  0.
255  2.54  0.  0.  0.
256  2.55  0.  0.  0.
257  2.56  0.  0.  0.
258  2.57  0.  0.  0.
259  2.58  0.  0.  0.
260  2.59  0.  0.  0.
261  2.60  0.  0.  0.
262  2.61  0.  0.  0.
263  2.62  0.  0.  0.
264  2.63  0.  0.  0.
265  2.64  0.  0.  0.
266  2.65  0.  0.  0.
267  2.66  0.  0.  0.
268  2.67  0.  0.  0.
269  2.68  0.  0.  0.
270  2.69  0.  0.  0.
271  2.70  0.  0.  0.
272  2.71  0.  0.  0.
273  2.72  0.  0.  0.
274  2.73  0.  0.  0.
275  2.74  0.  0.  0.
276  2.75  0.  0.  0.
277  2.76  0.  0.  0.
278  2.77  0.  0.  0.
279  2.78  0.  0.  0.
280  2.79  0.  0.  0.
281  2.80  0.  0.  0.
282  2.81  0.  0.  0.
283  2.82  0.  0.  0.
284  2.83  0.  0.  0.
285  2.84  0.  0.  0.
286  2.85  0.  0.  0.
287  2.86  0.  0.  0.
288  2.87  0.  0.  0.
289  2.88  0.  0.  0.
290  2.89  0.  0.  0.
291  2.90  0.  0.  0.
292  2.91  0.  0.  0.
293  2.92  0.  0.  0.
294  2.93  0.  0.  0.
295  2.94  0.  0.  0.
296  2.95  0.  0.  0.
297  2.96  0.  0.  0.
298  2.97  0.  0.  0.
299  2.98  0.  0.  0.
300  2.99  0.  0.  0.
301  3.00  0.  0.  0.
302  3.01  0.  0.  0.
303  3.02  0.  0.  0.
304  3.03  0.  0.  0.
305  3.04  0.  0.  0.
306  3.05  0.  0.  0.
307  3.06  0.  0.  0.
308  3.07  0.  0.  0.
309  3.08  0.  0.  0.
310  3.09  0.  0.  0.
311  3.10  0.  0.  0.
312  3.11  0.  0.  0.
313  3.12  0.  0.  0.
314  3.13  0.  0.  0.
315  3.14  0.  0.  0.
316  3.15  0.  0.  0.
317  3.16  0.  0.  0.
318  3.17  0.  0.  0.
319  3.18  0.  0.  0.
320  3.19  0.  0.  0.
321  3.20  0.  0.  0.
322  3.21  0.  0.  0.
323  3.22  0.  0.  0.
324  3.23  0.  0.  0.
325  3.24  0.  0.  0.
326  3.25  0.  0.  0.
327  3.26  0.  0.  0.
328  3.27  0.  0.  0.
329  3.28  0.  0.  0.
330  3.29  0.  0.  0.
331  3.30  0.  0.  0.
332  3.31  0.  0.  0.
333  3.32  0.  0.  0.
334  3.33  0.  0.  0.
335  3.34  0.  0.  0.
336  3.35  0.  0.  0.
337  3.36  0.  0.  0.
338  3.37  0.  0.  0.
339  3.38  0.  0.  0.
340  3.39  0.  0.  0.
341  3.40  0.  0.  0.
342  3.41  0.  0.  0.
343  3.42  0.  0.  0.
344  3.43  0.  0.  0.
345  3.44  0.  0.  0.
346  3.45  0.  0.  0.
347  3.46  0.  0.  0.
348  3.47  0.  0.  0.
349  3.48  0.  0.  0.
350  3.49  0.  0.  0.
351  3.50  0.  0.  0.
352  3.51  0.  0.  0.
353  3.52  0.  0.  0.
354  3.53  0.  0.  0.
355  3.54  0.  0.  0.
356  3.55  0.  0.  0.
357  3.56  0.  0.  0.
358  3.57  0.  0.  0.
359  3.58  0.  0.  0.
360  3.59  0.  0.  0.
361  3.60  0.  0.  0.
362  3.61  0.  0.  0.
363  3.62  0.  0.  0.
364  3.63  0.  0.  0.
365  3.64  0.  0.  0.
366  3.65  0.  0.  0.
367  3.66  0.  0.  0.
368  3.67  0.  0.  0.
369  3.68  0.  0.  0.
370  3.69  0.  0.  0.
371  3.70  0.  0.  0.
372  3.71  0.  0.  0.
373  3.72  0.  0.  0.
374  3.73  0.  0.  0.
375  3.74  0.  0.  0.
376  3.75  0.  0.  0.
377  3.76  0.  0.  0.
378  3.77  0.  0.  0.
379  3.78  0.  0.  0.
380  3.79  0.  0.  0.
381  3.80  0.  0.  0.
382  3.81  0.  0.  0.
383  3.82  0.  0.  0.
384  3.83  0.  0.  0.
385  3.84  0.  0.  0.
386  3.85  0.  0.  0.
387  3.86  0.  0.  0.
388  3.87  0.  0.  0.
389  3.88  0.  0.  0.
390  3.89  0.  0.  0.
391  3.90  0.  0.  0.
392  3.91  0.  0.  0.
393  3.92  0.  0.  0.
394  3.93  0.  0.  0.
395  3.94  0.  0.  0.
396  3.95  0.  0.  0.
397  3.96  0.  0.  0.
398  3.97  0.  0.  0.
399  3.98  0.  0.  0.
400  3.99  0.  0.  0.
401  4.00  0.  0.  0.
402  4.01  0.  0.  0.
403  4.02  0.  0.  0.
404  4.03  0.  0.  0.
405  4.04  0.  0.  0.
406  4.05  0.  0.  0.
407  4.06  0.  0.  0.
408  4.07  0.  0.  0.
409  4.08  0.  0.  0.
410  4.09  0.  0.  0.
411  4.10  0.  0.  0.
412  4.11  0.  0.  0.
413  4.12  0.  0.  0.
414  4.13  0.  0.  0.
415  4.14  0.  0.  0.
416  4.15  0.  0.  0.
417  4.16  0.  0.  0.
418  4.17  0.  0.  0.
419  4.18  0.  0.  0.
420  4.19  0.  0.  0.
421  4.20  0.  0.  0.
422  4.21  0.  0.  0.
423  4.22  0.  0.  0.
424  4.23  0.  0.  0.
425  4.24  0.  0.  0.
426  4.25  0.  0.  0.
427  4.26  0.  0.  0.
428  4.27  0.  0.  0.
429  4.28  0.  0.  0.
430  4.29  0.  0.  0.
431  4.30  0.  0.  0.
432  4.31  0.  0.  0.
433  4.32  0.  0.  0.
434  4.33  0.  0.  0.
435  4.34  0.  0.  0.
436  4.35  0.  0.  0.
437  4.36  0.  0.  0.
438  4.37  0.  0.  0.
439  4.38  0.  0.  0.
440  4.39  0.  0.  0.
441  4.40  0.  0.  0.
442  4.41  0.  0.  0.
443  4.42  0.  0.  0.
444  4.43  0.  0.  0.
445  4.44  0.  0.  0.
446  4.45  0.  0.  0.
447  4.46  0.  0.  0.
448  4.47  0.  0.  0.
449  4.48  0.  0.  0.
450  4.49  0.  0.  0.
451  4.50  0.  0.  0.
452  4.51  0.  0.  0.
453  4.52  0.  0.  0.
454  4.53  0.  0.  0.
455  4.54  0.  0.  0.
456  4.55  0.  0.  0.
457  4.56  0.  0.  0.
458  4.57  0.  0.  0.
459  4.58  0.  0.  0.
460  4.59  0.  0.  0.
461  4.60  0.  0.  0.
462  4.61  0.  0.  0.
463  4.62  0.  0.  0.
464  4.63  0.  0.  0.
465  4.64  0.  0.  0.
466  4.65  0.  0.  0.
467  4.66  0.  0.  0.
468  4.67  0.  0.  0.
469  4.68  0.  0.  0.
470  4.69  0.  0.  0.
471  4.70  0.  0.  0.
472  4.71  0.  0.  0.
473  4.72  0.  0.  0.
474  4.73  0.  0.  0.
475  4.74  0.  0.  0.
476  4.75  0.  0.  0.
477  4.76  0.  0.  0.
478  4.77  0.  0.  0.
479  4.78  0.  0.  0.
480  4.79  0.  0.  0.
481  4.80  0.  0.  0.
482  4.81  0.  0.  0.
483  4.82  0.  0.  0.
484  4.83  0.  0.  0.
485  4.84  0.  0.  0.
486  4.85  0.  0.  0.
487  4.86  0.  0.  0.
488  4.87  0.  0.  0.
489  4.88  0.  0.  0.
490  4.89  0.  0.  0.
491  4.90  0.  0.  0.
492  4.91  0.  0.  0.
493  4.92  0.  0.  0.
494  4.93  0.  0.  0.
495  4.94  0.  0.  0.
496  4.95  0.  0.  0.
497  4.96  0.  0.  0.
498  4.97  0.  0.  0.
499  4.98  0.  0.  0.
500  4.99  0.  0.  0.
501  5.00  0.  0.  0.
502  5.01  0.  0.  0.
503  5.02  0.  0.  0.
504  5.03  0.  0.  0.
505  5.04  0.  0.  0.
506  5.05  0.  0.  0.
507  5.06  0.  0.  0.
508  5.07  0.  0.  0.
509  5.08  0.  0.  0.
510  5.09  0.  0.  0.
511  5.10  0.  0.  0.
512  5.11  0.  0.  0.
513  5.12  0.  0.  0.
514  5.13  0.  0.  0.
515  5.14  0.  0.  0.
516  5.15  0.  0.  0.
517  5.16  0.  0.  0.
518  5.17  0.  0.  0.
519  5.18  0.  0.  0.
520  5.19  0.  0.  0.
521  5.20  0.  0.  0.
522  5.21  0.  0.  0.
523  5.22  0.  0.  0.
524  5.23  0.  0.  0.
525  5.24  0.  0.  0.
526  5.25  0.  0.  0.
527  5.26  0.  0.  0.
528  5.27  0.  0.  0.
529  5.28  0.  0.  0.
530  5.29  0.  0.  0.
531  5.30  0.  0.  0.
532  5.31  0.  0.  0.
533  5.32  0.  0.  0.
534  5.33  0.  0.  0.
535  5.34  0.  0.  0.
536  5.35  0.  0.  0.
537  5.36  0.  0.  0.
538  5.37  0.  0.  0.
539  5.38  0.  0.  0.
540  5.39  0.  0.  0.
541  5.40  0.  0.  0.
542  5.41  0.  0.  0.
543  5.42  0.  0.  0.
544  5.43  0.  0.  0.
545  5.44  0.  0.  0.
546  5.45  0.  0.  0.
547  5.46  0.  0.  0.
548  5.47  0.  0.  0.
549  5.48  0.  0.  0.
550  5.49  0.  0.  0.
551  5.50  0.  0.  0.
552  5.51  0.  0.  0.
553  5.52  0.  0.  0.
554  5.53  0.  0.  0.
555  5.54  0.  0.  0.
556  5.55  0.  0.  0.
557  5.56  0.  0.  0.
558  5.57  0.  0.  0.
559  5.58  0.  0.  0.
560  5.59  0.  0.  0.
561  5.60  0.  0.  0.
562  5.61  0.  0.  0.
563  5.62  0.  0.  0.
564  5.63  0.  0.  0.
565  5.64  0.  0.  0.
566  5.65  0.  0.  0.
567  5.66  0.  0.  0.
568  5.67  0.  0.  0.
569  5.68  0.  0.  0.
570  5.69  0.  0.  0.
571  5.70  0.  0.  0.
572  5.71  0.  0.  0.
573  5.72  0.  0.  0.
574  5.73  0.  0.  0.
575  5.74  0.  0.  0.
576  5.75  0.  0.  0.
577  5.76  0.  0.  0.
578  5.77  0.  0.  0.
579  5.78  0.  0.  0.
580  5.79  0.  0.  0.
581  5.80  0.  0.  0.
582  5.81  0.  0.  0.
583  5.82  0.  0.  0.
584  5.83  0.  0.  0.
585  5.84  0.  0.  0.
586  5.85  0.  0.  0.
587  5.86  0.  0.  0.
588  5.87  0.  0.  0.
589  5.88  0.  0.  0.
590  5.89  0.  0.  0.
591  5.90  0.  0.  0.
592  5.91  0.  0.  0.
593  5.92  0.  0.  0.
594  5.93  0.  0.  0.
595  5.94  0.  0.  0.
596  5.95  0.  0.  0.
597  5.96  0.  0.  0.
598  5.97  0.  0.  0.
599  5.98  0.  0.  0.
600  5.99  0.  0.  0.
1                        -6.3763256972147E+00  3.6595629600397E+00 -2.1762826809482E-01
1  0.0000000000000E+00 -5.3399294153156E-09  3.3549050537651E-08  9.8359836886441E-08
2  1.0000000000000E-02  1.5867340407559E-03  6.8552532596827E-03  6.1726068492607E-03
3  2.0000000000000E-02  6.3465485625075E-03  2.7322522948610E-02  2.4547028000892E-02
4  3.0000000000000E-02  1.4278148150418E-02  6.1107692806031E-02  5.4695989009046E-02
5  4.0000000000000E-02  2.5378934889264E-02  1.0772506369640E-01  9.5917053243815E-02
6  5.0000000000000E-02  3.9644361004146E-02  1.6650403024128E-01  1.4724694997265E-01
7  6.0000000000000E-02  5.7067044288592E-02  2.3659829836129E-01  2.0748123171328E-01
8  7.0000000000000E-02  7.7635667537985E-02  3.1699751605362E-01  2.7519886864605E-01
9  8.0000000000000E-02  1.0133368854615E-01  4.0654115618165E-01  3.4879128951404E-01
10  9.0000000000000E-02  1.2813789203971E-01  5.0393445865673E-01  4.2649528996550E-01
11  1.0000000000000E-01  1.5801681912258E-01  6.0776621057736E-01  5.0642915247828E-01
12  1.1000000000000E-01  1.9092911329748E-01  7.1652811705871E-01  5.8663125838532E-01
13  1.2000000000000E-01  2.2682182485107E-01  8.2863549299971E-01  6.6510042335425E-01
14  1.3000000000000E-01  2.6562871727830E-01  9.4244898722452E-01  7.3983715393199E-01
15  1.4000000000000E-01  3.0726862043842E-01  1.0562970355808E+00  8.0888500509487E-01
16  1.5000000000000E-01  3.5164387525525E-01  1.1684987289149E+00  8.7037121747022E-01
17  1.6000000000000E-01  3.9863891399072E-01  1.2773867755556E+00  9.2254582800401E-01
18  1.7000000000000E-01  4.4811901844215E-01  1.3813302361494E+00  9.6381847899610E-01
19  1.8000000000000E-01  4.9992929586738E-01  1.4787567114689E+00  9.9279219694062E-01
20  1.9000000000000E-01  5.5389390907033E-01  1.5681736711703E+00  1.0082934735151E+00
21  2.0000000000000E-01  6.0981559294180E-01  1.6481886233436E+00  1.0093980550896E+00
22  2.1000000000000E-01  6.6747548491996E-01  1.7175278409589E+00  9.9545193274762E-01
23  2.2000000000000E-01  7.2663329139860E-01  1.7750533817865E+00  9.6608712026636E-01
24  2.3000000000000E-01  7.8702780616823E-01  1.8197781627862E+00  9.2123191084374E-01
25  2.4000000000000E-01  8.4837779063336E-01  1.8508788780274E+00  8.6111541248559E-01
26  2.5000000000000E-01  9.1038321892660E-01  1.8677065805362E+00  7.8626627466716E-01
27  2.6000000000000E-01  9.7272688425836E-01  1.8697947826236E+00  6.9750563289350E-01
28  2.7000000000000E-01  1.0350763560271E+00  1.8568649657768E+00  5.9593441081659E-01
29  2.8000000000000E-01  1.0970862704953E+00  1.8288294295318E+00  4.8291522937377E-01
30  2.9000000000000E-01  1.1584009313397E+00  1.7857914483479E+00  3.6004927681809E-01
31  3.0000000000000E-01  1.2186571902293E+00  1.7280427457608E+00  2.2914859046579E-01
32  3.1000000000000E-01  1.2774875718956E+00  1.6560583353827E+00  9.2204288598929E-02
33  3.2000000000000E-01  1.3345236030335E+00  1.5704888180107E+00 -4.8648632452185E-02
34  3.3000000000000E-01  1.3893992999249E+00  1.4721502625622E+00 -1.9116925692168E-01
35  3.4000000000000E-01  1.4417547659769E+00  1.3620118351471E+00 -3.3305073436379E-01
36  3.5000000000000E-01  1.4912398475011E+00  1.2411813747018E+00 -4.7196152516274E-01
37  3.6000000000000E-01  1.5375177940854E+00  1.1108891446704E+00 -6.0558712076433E-01
38  3.7000000000000E-01  1.5802688688545E+00  9.7247001768240E-01 -7.3167144745365E-01
39  3.8000000000000E-01  1.6191938538259E+00  8.2734437356256E-01 -8.4805717284206E-01
40  3.9000000000000E-01  1.6540173964311E+00  6.7699800988591E-01 -9.5272415972687E-01
41  4.0000000000000E-01  1.6844911450872E+00  5.2296137831359E-01 -1.0438253520254E+00
42  4.1000000000000E-01  1.7103966244434E+00  3.6678846883488E-01 -1.1197194311487E+00
43  4.2000000000000E-01  1.7315478045386E+00  2.1003566761504E-01 -1.1789996472991E+00
44  4.3000000000000E-01  1.7477933225308E+00  5.4240912312654E-02 -1.2205183073359E+00
45  4.4000000000000E-01  1.7590183208240E+00 -9.9096538514292E-02 -1.2434064874374E+00
46  4.5000000000000E-01  1.7651458712197E+00 -2.4853541784457E-01 -1.2470886330050E+00
47  4.6000000000000E-01  1.7661379610697E+00 -3.9271055806212E-01 -1.2312918081835E+00
48  4.7000000000000E-01  1.7619960241759E+00 -5.3034953031849E-01 -1.1960494609953E+00
49  4.8000000000000E-01  1.7527610062644E+00 -6.6028757834841E-01 -1.1416996753319E+00
50  4.9000000000000E-01  1.7385129621134E+00 -7.8148064054861E-01 -1.0688779858479E+00
51  5.0000000000000E-01  1.7193701887184E+00 -8.9301628838163E-01 -9.7850493411154E-01
52  5.1000000000000E-01  1.6954879060964E+00 -9.9412244620228E-01 -8.7176864221231E-01
53  5.2000000000000E-01  1.6670565043368E+00 -1.0841737967462E+00 -7.5010277156840E-01
54  5.3000000000000E-01  1.6342993821724E+00 -1.1626958170519E+00 -6.1516031819747E-01
55  5.4000000000000E-01  1.5974704085573E+00 -1.2293664307575E+00 -4.6878376970247E-01
56  5.5000000000000E-01  1.5568510443852E+00 -1.2840153037644E+00 -3.1297221236546E-01
57  5.6000000000000E-01  1.5127471664650E+00 -1.3266208504231E+00 -1.4984602796138E-01
58  5.7000000000000E-01  1.4654856401139E+00 -1.3573050559353E+00  1.8390141623909E-02
59  5.8000000000000E-01  1.4154106901458E+00 -1.3763262568629E+00  1.8948545872069E-01
60  5.9000000000000E-01  1.3628801225954E+00 -1.3840700548278E+00  3.6118126832390E-01
61  6.0000000000000E-01  1.3082614511618E+00 -1.3810385680700E+00  5.3124907787848E-01
62  6.1000000000000E-01  1.2519279830872E+00 -1.3678382509785E+00  6.9752744101378E-01
63  6.2000000000000E-01  1.1942549189863E+00 -1.3451665325728E+00  8.5795707609217E-01
64  6.3000000000000E-01  1.1356155200388E+00 -1.3137975408415E+00  1.0106135907961E+00
65  6.4000000000000E-01  1.0763773939818E+00 -1.2745671905864E+00  1.1537372354827E+00
66  6.5000000000000E-01  1.0168989485354E+00 -1.2283579178310E+00  1.2857591695285E+00
67  6.6000000000000E-01  9.5752605734252E-01 -1.1760833438888E+00  1.4053237950510E+00
68  6.7000000000000E-01  8.9858897926687E-01 -1.1186731469154E+00  1.5113067897836E+00
69  6.8000000000000E-01  8.4039956706937E-01 -1.0570584083598E+00  1.6028285539513E+00
70  6.9000000000000E-01  7.8324879617330E-01 -9.9215768644000E-01  1.6792628731523E+00
71  7.0000000000000E-01  7.2740463853334E-01 -9.2486404896097E-01  1.7402406888802E+00
72  7.1000000000000E-01  6.7311030066033E-01 -8.5603327388819E-01  1.7856489588152E+00
73  7.2000000000000E-01  6.2058283873125E-01 -7.8647339858759E-01  1.8156246788392E+00
74  7.3000000000000E-01  5.7001215754828E-01 -7.1693576809239E-01  1.8305442264274E+00
75  7.4000000000000E-01  5.2156039400980E-01 -6.4810769973991E-01  1.8310082693000E+00
76  7.5000000000000E-01  4.7536167982576E-01 -5.8060684664473E-01  1.8178225628095E+00
77  7.6000000000000E-01  4.3152227254641E-01 -5.1497730635063E-01  1.7919750334690E+00
78  7.7000000000000E-01  3.9012103866450E-01 -4.5168748423345E-01  1.7546096134741E+00
79  7.8000000000000E-01  3.5121026767309E-01 -3.9112968438371E-01  1.7069973514389E+00
80  7.9000000000000E-01  3.1481679157706E-01 -3.3362136432044E-01  1.6505053774348E+00
81  8.0000000000000E-01  2.8094338051657E-01 -2.7940795445641E-01  1.5865643456248E+00
82  8.1000000000000E-01  2.4957038189873E-01 -2.2866710916888E-01  1.5166350153612E+00
83  8.2000000000000E-01  2.2065756777084E-01 -1.8151422397434E-01  1.4421746617997E+00
84  8.3000000000000E-01  1.9414615310865E-01 -1.3800902292433E-01  1.3646040303237E+00
85  8.4000000000000E-01  1.6996094622668E-01 -9.8162992112319E-02  1.2852755659833E+00
86  8.5000000000000E-01  1.4801259162108E-01 -6.1947409200025E-02  1.2054436605124E+00
87  8.6000000000000E-01  1.2819986519165E-01 -2.9301695139863E-02  1.1262376661932E+00
88  8.7000000000000E-01  1.1041198191110E-01 -1.4179270850877E-04  1.0486384289044E+00
89  8.8000000000000E-01  9.4530876556943E-02  2.5631743086061E-02  9.7345909319803E-01
90  8.9000000000000E-01  8.0433419028927E-02  4.8126275436300E-02  9.0133093132903E-01
91  9.0000000000000E-01  6.7993526970155E-02  6.7450586014159E-02  8.3269494694981E-01
92  9.1000000000000E-01  5.7084139814505E-02  8.3709709270169E-02  7.6780000381698E-01
93  9.2000000000000E-01  4.7579019919685E-02  9.7001479354264E-02  7.0670823141974E-01
94  9.3000000000000E-01  3.9354348033369E-02  1.0741518236988E-01  6.4930846395982E-01
95  9.4000000000000E-01  3.2290081903273E-02  1.1503272090428E-01  5.9533847753222E-01
96  9.5000000000000E-01  2.6271048307382E-02  1.1993271256802E-01  5.4441680351515E-01
97  9.6000000000000E-01  2.1187740080366E-02  1.2219796005545E-01  4.9608491480802E-01
98  9.7000000000000E-01  1.6936790786582E-02  1.2192674740459E-01  4.4986060625557E-01
99  9.8000000000000E-01  1.3421100487962E-02  1.1924843606623E-01  4.0530342186200E-01