Sg    ONCVPSP-4.0.1  r_core=   1.10583   1.10583   1.10583   1.20244
106.0000     46.0000      220327    zatom,zion,pspd
8      11   3     4   600     0    pspcod,pspxc,lmax,lloc,mmax,r2well
5.99000000  5.00000000  0.00000000    rchrg fchrg qchrg
3     2     2     2     0    nproj
1     1           extension_switch
0                         1.7429303106335E+01 -6.9845960024856E+00  1.4237551686842E+00
1  0.0000000000000E+00 -1.7928816431478E-08  1.5288270649449E-11 -4.5708219875706E-08
2  1.0000000000000E-02  1.8178587608810E-01  5.7290027613529E-02  5.1641074913196E-02
3  2.0000000000000E-02  3.6190874138285E-01  1.1450935192856E-01  1.0204155653863E-01
4  3.0000000000000E-02  5.3872479592993E-01  1.7158722168885E-01  1.4998574714473E-01
5  4.0000000000000E-02  7.1062837895068E-01  2.2845279080034E-01  1.9430719346240E-01
6  5.0000000000000E-02  8.7607033677116E-01  2.8503507359782E-01  2.3391195412859E-01
7  6.0000000000000E-02  1.0335755615879E+00  3.4126290331175E-01  2.6780027436800E-01
8  7.0000000000000E-02  1.1817594459257E+00  3.9706489477063E-01  2.9508619147569E-01
9  8.0000000000000E-02  1.3193430155703E+00  4.5236941235917E-01  3.1501464037203E-01
10  9.0000000000000E-02  1.4451665258077E+00  5.0710454424617E-01  3.2697568436027E-01
11  1.0000000000000E-01  1.5582013316947E+00  5.6119808390575E-01  3.3051556132986E-01
12  1.1000000000000E-01  1.6575598725001E+00  6.1457751998690E-01  3.2534430889509E-01
13  1.2000000000000E-01  1.7425036429584E+00  6.6717003564375E-01  3.1133981199278E-01
14  1.3000000000000E-01  1.8124490590801E+00  7.1890251852495E-01  2.8854820170158E-01
15  1.4000000000000E-01  1.8669711633710E+00  7.6970158273479E-01  2.5718062267716E-01
16  1.5000000000000E-01  1.9058051527572E+00  8.1949360421718E-01  2.1760647659911E-01
17  1.6000000000000E-01  1.9288457515506E+00  8.6820477116862E-01  1.7034333818010E-01
18  1.7000000000000E-01  1.9361444905946E+00  9.1576115124834E-01  1.1604382624640E-01
19  1.8000000000000E-01  1.9279049914485E+00  9.6208877750593E-01  5.5479792705377E-02
20  1.9000000000000E-01  1.9044763901933E+00  1.0071137550745E+00 -1.0475735584946E-02
21  2.0000000000000E-01  1.8663450682726E+00  1.0507623907597E+00 -8.0868365356405E-02
22  2.1000000000000E-01  1.8141248868410E+00  1.0929613476707E+00 -1.5468335030444E-01
23  2.2000000000000E-01  1.7485461455531E+00  1.1336378269717E+00 -2.3086722963469E-01
24  2.3000000000000E-01  1.6704435058426E+00  1.1727197786562E+00 -3.0834949453577E-01
25  2.4000000000000E-01  1.5807431319070E+00  1.2101361429534E+00 -3.8606368550244E-01
26  2.5000000000000E-01  1.4804493093465E+00  1.2458171235462E+00 -4.6296734211065E-01
27  2.6000000000000E-01  1.3706308014200E+00  1.2796944932129E+00 -5.3806026421124E-01
28  2.7000000000000E-01  1.2524071960893E+00  1.3117019317976E+00 -6.1040059908718E-01
29  2.8000000000000E-01  1.1269354835359E+00  1.3417753955725E+00 -6.7911834180301E-01
30  2.9000000000000E-01  9.9539708402259E-01  1.3698535160977E+00 -7.4342592394968E-01
31  3.0000000000000E-01  8.5898552038764E-01  1.3958780256326E+00 -8.0262566682698E-01
32  3.1000000000000E-01  7.1889489891237E-01  1.4197942050315E+00 -8.5611398574319E-01
33  3.2000000000000E-01  5.7630932776804E-01  1.4415513489164E+00 -9.0338234899421E-01
34  3.3000000000000E-01  4.3239336488861E-01  1.4611032417889E+00 -9.4401511421872E-01
35  3.4000000000000E-01  2.8828354822266E-01  1.4784086376789E+00 -9.7768448193323E-01
36  3.5000000000000E-01  1.4508102226886E-01  1.4934317349795E+00 -1.0041429167308E+00
37  3.6000000000000E-01  3.8452370186246E-03  1.5061426373277E+00 -1.0232134864785E+00
38  3.7000000000000E-01 -1.3441133967772E-01  1.5165177908196E+00 -1.0347786547029E+00
39  3.8000000000000E-01 -2.6872758639892E-01  1.5245403875268E+00 -1.0387681273885E+00
40  3.9000000000000E-01 -3.9819728503921E-01  1.5302007252588E+00 -1.0351463993855E+00
41  4.0000000000000E-01 -5.2197200584121E-01  1.5334965138082E+00 -1.0239006649679E+00
42  4.1000000000000E-01 -6.3926346864944E-01  1.5344331185534E+00 -1.0050297500936E+00
43  4.2000000000000E-01 -7.4934553336490E-01  1.5330237332649E+00 -9.7853468985285E-01
44  4.3000000000000E-01 -8.5155596961287E-01  1.5292894752766E+00 -9.4441151369567E-01
45  4.4000000000000E-01 -9.4529814486601E-01  1.5232593977985E+00 -9.0264671469040E-01
46  4.5000000000000E-01 -1.0300427520809E+00  1.5149704160433E+00 -8.5321576965569E-01
47  4.6000000000000E-01 -1.1053296730242E+00  1.5044671459501E+00 -7.9608494799090E-01
48  4.7000000000000E-01 -1.1707700428973E+00  1.4918016565592E+00 -7.3121650275613E-01
49  4.8000000000000E-01 -1.2260485469008E+00  1.4770331394452E+00 -6.5857718318667E-01
50  4.9000000000000E-01 -1.2709259415189E+00  1.4602275009699E+00 -5.7814984916440E-01
51  5.0000000000000E-01 -1.3052417542395E+00  1.4414568853797E+00 -4.8994781142451E-01
52  5.1000000000000E-01 -1.3289170769333E+00  1.4207991388664E+00 -3.9403137285994E-01
53  5.2000000000000E-01 -1.3419573320308E+00  1.3983372265335E+00 -2.9052591255917E-01
54  5.3000000000000E-01 -1.3444548587416E+00  1.3741586156941E+00 -1.7964074122224E-01
55  5.4000000000000E-01 -1.3365911405281E+00  1.3483546399877E+00 -6.1687869829474E-02
56  5.5000000000000E-01 -1.3186384763583E+00  1.3210198593917E+00  6.2900222441354E-02
57  5.6000000000000E-01 -1.2909608881500E+00  1.2922514312677E+00  1.9355475639121E-01
58  5.7000000000000E-01 -1.2540140561883E+00  1.2621485071007E+00  3.2955767678994E-01
59  5.8000000000000E-01 -1.2083440836886E+00  1.2308116685604E+00  4.7003239825527E-01
60  5.9000000000000E-01 -1.1545849112317E+00  1.1983424149457E+00  6.1393904784161E-01
61  6.0000000000000E-01 -1.0934542312237E+00  1.1648427120184E+00  7.6007485221230E-01
62  6.1000000000000E-01 -1.0257477911157E+00  1.1304146097376E+00  9.0708015804699E-01
63  6.2000000000000E-01 -9.5233202072598E-01  1.0951599335694E+00  1.0534503876743E+00
64  6.3000000000000E-01 -8.7413497212552E-01  1.0591800509511E+00  1.1975540239395E+00
65  6.4000000000000E-01 -7.9213561831637E-01  1.0225757112641E+00  1.3376564962305E+00
66  6.5000000000000E-01 -7.0735161723706E-01  9.8544695442712E-01  1.4719496114536E+00
67  6.6000000000000E-01 -6.2082570814175E-01  9.4789308010786E-01  1.5985859481837E+00
68  6.7000000000000E-01 -5.3361096570135E-01  9.1001266668035E-01  1.7157174180616E+00
69  6.8000000000000E-01 -4.4675519082501E-01  8.7190362657374E-01  1.8215370045154E+00
70  6.9000000000000E-01 -3.6128476386297E-01  8.3366328266951E-01  1.9143225232966E+00
71  7.0000000000000E-01 -2.7818832336834E-01  7.9538844901904E-01  1.9924811195999E+00
72  7.1000000000000E-01 -1.9840066011006E-01  7.5717549845033E-01  2.0545931289599E+00
73  7.2000000000000E-01 -1.2278723004973E-01  7.1912039966992E-01  2.0994538885386E+00
74  7.3000000000000E-01 -5.2129690496086E-02  6.8131870727232E-01  2.1261120949462E+00
75  7.4000000000000E-01  1.2887149892789E-02  6.4386548964235E-01  2.1339033656234E+00
76  7.5000000000000E-01  7.1686604135585E-02  6.0685518204011E-01  2.1224777722482E+00
77  7.6000000000000E-01  1.2380928080100E-01  5.7038135512817E-01  2.0918202737680E+00
78  7.7000000000000E-01  1.6891988969345E-01  5.3453639273409E-01  2.0422631785581E+00
79  7.8000000000000E-01  2.0681147394675E-01  4.9941107661326E-01  1.9744900031016E+00
80  7.9000000000000E-01  2.3740693500260E-01  4.6509408023205E-01  1.8895303598944E+00
81  8.0000000000000E-01  2.6075779444061E-01  4.3167137795649E-01  1.7887457900641E+00
82  8.1000000000000E-01  2.7704021674548E-01  3.9922558031987E-01  1.6738067453835E+00
83  8.2000000000000E-01  2.8654839665416E-01  3.6783521005978E-01  1.5466612082448E+00
84  8.3000000000000E-01  2.8968549043101E-01  3.3757393716640E-01  1.4094957047908E+00
85  8.4000000000000E-01  2.8695233901710E-01  3.0850979408645E-01  1.2646897040690E+00
86  8.5000000000000E-01  2.7893428941819E-01  2.8070439431132E-01  1.1147645938537E+00
87  8.6000000000000E-01  2.6628646615673E-01  2.5421217870159E-01  9.6232857192265E-01
88  8.7000000000000E-01  2.4971787477450E-01  2.2907971395031E-01  8.1001888200418E-01
89  8.8000000000000E-01  2.2997473243850E-01  2.0534506649087E-01  6.6044285030294E-01
90  8.9000000000000E-01  2.0782341550444E-01  1.8303727287954E-01  5.1611913780336E-01
91  9.0000000000000E-01  1.8403338997203E-01  1.6217592424185E-01  3.7942051436588E-01
92  9.1000000000000E-01  1.5936044840946E-01  1.4277087782743E-01  2.5251928464680E-01
93  9.2000000000000E-01  1.3453051717479E-01  1.2482210317700E-01  1.3733625749020E-01
94  9.3000000000000E-01  1.1022422240325E-01  1.0831966402070E-01  3.5493856754853E-02
95  9.4000000000000E-01  8.7062314733786E-02  9.3243829991898E-02 -5.1726367916303E-02
96  9.5000000000000E-01  6.5591954181271E-02  7.9565304780010E-02 -1.2342194545216E-01
97  9.6000000000000E-01  4.6273751532308E-02  6.7245549716660E-02 -1.7910391204629E-01
98  9.7000000000000E-01  2.9469355029091E-02  5.6237174256284E-02 -2.1872837367856E-01
99  9.8000000000000E-01  1.5429265115841E-02  4.6484357657580E-02 -2.4272650281713E-01
100  9.9000000000000E-01  4.2804583704651E-03  3.7923259589804E-02 -2.5203464324964E-01
101  1.0000000000000E+00 -3.9866570033843E-03  3.0482373452164E-02 -2.4812636047880E-01
102  1.0100000000000E+00 -9.5324031305651E-03  2.4082777320710E-02 -2.3304800928043E-01
103  1.0200000000000E+00 -1.2659017410415E-02  1.8639570133323E-02 -2.0933516977984E-01
104  1.0300000000000E+00 -1.3744586821263E-02  1.4066605796381E-02 -1.7965344424465E-01
105  1.0400000000000E+00 -1.3206480477602E-02  1.0279942303979E-02 -1.4661786322099E-01
106  1.0500000000000E+00 -1.1484645671619E-02  7.2001669150898E-03 -1.1272097337885E-01
107  1.0600000000000E+00 -9.0403892833366E-03  4.7427377166913E-03 -8.0313914883836E-02
108  1.0700000000000E+00 -6.3021043087087E-03  2.8393485135295E-03 -5.1433297360612E-02
109  1.0800000000000E+00 -3.6641578610109E-03  1.4488889042381E-03 -2.7770432949054E-02
110  1.0900000000000E+00 -1.5162247687906E-03  5.3608253924350E-04 -1.0756019917701E-02
111  1.1000000000000E+00 -2.2693698387707E-04  7.2933141999611E-05 -1.5155864642056E-03
112  1.1100000000000E+00  1.1463724215847E-05 -3.4423555198445E-06  7.3411002948840E-05
113  1.1200000000000E+00  3.3571757235729E-07 -1.0816899175475E-07  2.2492480798279E-06
114  1.13 -0. -0. -0.
115  1.14  0.  0.  0.
116  1.15  0.  0.  0.
117  1.16  0.  0.  0.
118  1.17  0.  0.  0.
119  1.18  0.  0.  0.
120  1.19  0.  0.  0.
121  1.20  0.  0.  0.
122  1.21  0.  0.  0.
123  1.22  0.  0.  0.
124  1.23  0.  0.  0.
125  1.24  0.  0.  0.
126  1.25  0.  0.  0.
127  1.26  0.  0.  0.
128  1.27  0.  0.  0.
129  1.28  0.  0.  0.
130  1.29  0.  0.  0.
131  1.30  0.  0.  0.
132  1.31  0.  0.  0.
133  1.32  0.  0.  0.
134  1.33  0.  0.  0.
135  1.34  0.  0.  0.
136  1.35  0.  0.  0.
137  1.36  0.  0.  0.
138  1.37  0.  0.  0.
139  1.38  0.  0.  0.
140  1.39  0.  0.  0.
141  1.40  0.  0.  0.
142  1.41  0.  0.  0.
143  1.42  0.  0.  0.
144  1.43  0.  0.  0.
145  1.44  0.  0.  0.
146  1.45  0.  0.  0.
147  1.46  0.  0.  0.
148  1.47  0.  0.  0.
149  1.48  0.  0.  0.
150  1.49  0.  0.  0.
151  1.50  0.  0.  0.
152  1.51  0.  0.  0.
153  1.52  0.  0.  0.
154  1.53  0.  0.  0.
155  1.54  0.  0.  0.
156  1.55  0.  0.  0.
157  1.56  0.  0.  0.
158  1.57  0.  0.  0.
159  1.58  0.  0.  0.
160  1.59  0.  0.  0.
161  1.60  0.  0.  0.
162  1.61  0.  0.  0.
163  1.62  0.  0.  0.
164  1.63  0.  0.  0.
165  1.64  0.  0.  0.
166  1.65  0.  0.  0.
167  1.66  0.  0.  0.
168  1.67  0.  0.  0.
169  1.68  0.  0.  0.
170  1.69  0.  0.  0.
171  1.70  0.  0.  0.
172  1.71  0.  0.  0.
173  1.72  0.  0.  0.
174  1.73  0.  0.  0.
175  1.74  0.  0.  0.
176  1.75  0.  0.  0.
177  1.76  0.  0.  0.
178  1.77  0.  0.  0.
179  1.78  0.  0.  0.
180  1.79  0.  0.  0.
181  1.80  0.  0.  0.
182  1.81  0.  0.  0.
183  1.82  0.  0.  0.
184  1.83  0.  0.  0.
185  1.84  0.  0.  0.
186  1.85  0.  0.  0.
187  1.86  0.  0.  0.
188  1.87  0.  0.  0.
189  1.88  0.  0.  0.
190  1.89  0.  0.  0.
191  1.90  0.  0.  0.
192  1.91  0.  0.  0.
193  1.92  0.  0.  0.
194  1.93  0.  0.  0.
195  1.94  0.  0.  0.
196  1.95  0.  0.  0.
197  1.96  0.  0.  0.
198  1.97  0.  0.  0.
199  1.98  0.  0.  0.
200  1.99  0.  0.  0.
201  2.00  0.  0.  0.
202  2.01  0.  0.  0.
203  2.02  0.  0.  0.
204  2.03  0.  0.  0.
205  2.04  0.  0.  0.
206  2.05  0.  0.  0.
207  2.06  0.  0.  0.
208  2.07  0.  0.  0.
209  2.08  0.  0.  0.
210  2.09  0.  0.  0.
211  2.10  0.  0.  0.
212  2.11  0.  0.  0.
213  2.12  0.  0.  0.
214  2.13  0.  0.  0.
215  2.14  0.  0.  0.
216  2.15  0.  0.  0.
217  2.16  0.  0.  0.
218  2.17  0.  0.  0.
219  2.18  0.  0.  0.
220  2.19  0.  0.  0.
221  2.20  0.  0.  0.
222  2.21  0.  0.  0.
223  2.22  0.  0.  0.
224  2.23  0.  0.  0.
225  2.24  0.  0.  0.
226  2.25  0.  0.  0.
227  2.26  0.  0.  0.
228  2.27  0.  0.  0.
229  2.28  0.  0.  0.
230  2.29  0.  0.  0.
231  2.30  0.  0.  0.
232  2.31  0.  0.  0.
233  2.32  0.  0.  0.
234  2.33  0.  0.  0.
235  2.34  0.  0.  0.
236  2.35  0.  0.  0.
237  2.36  0.  0.  0.
238  2.37  0.  0.  0.
239  2.38  0.  0.  0.
240  2.39  0.  0.  0.
241  2.40  0.  0.  0.
242  2.41  0.  0.  0.
243  2.42  0.  0.  0.
244  2.43  0.  0.  0.
245  2.44  0.  0.  0.
246  2.45  0.  0.  0.
247  2.46  0.  0.  0.
248  2.47  0.  0.  0.
249  2.48  0.  0.  0.
250  2.49  0.  0.  0.
251  2.50  0.  0.  0.
252  2.51  0.  0.  0.
253  2.52  0.  0.  0.
254  2.53  0.  0.  0.
255  2.54  0.  0.  0.
256  2.55  0.  0.  0.
257  2.56  0.  0.  0.
258  2.57  0.  0.  0.
259  2.58  0.  0.  0.
260  2.59  0.  0.  0.
261  2.60  0.  0.  0.
262  2.61  0.  0.  0.
263  2.62  0.  0.  0.
264  2.63  0.  0.  0.
265  2.64  0.  0.  0.
266  2.65  0.  0.  0.
267  2.66  0.  0.  0.
268  2.67  0.  0.  0.
269  2.68  0.  0.  0.
270  2.69  0.  0.  0.
271  2.70  0.  0.  0.
272  2.71  0.  0.  0.
273  2.72  0.  0.  0.
274  2.73  0.  0.  0.
275  2.74  0.  0.  0.
276  2.75  0.  0.  0.
277  2.76  0.  0.  0.
278  2.77  0.  0.  0.
279  2.78  0.  0.  0.
280  2.79  0.  0.  0.
281  2.80  0.  0.  0.
282  2.81  0.  0.  0.
283  2.82  0.  0.  0.
284  2.83  0.  0.  0.
285  2.84  0.  0.  0.
286  2.85  0.  0.  0.
287  2.86  0.  0.  0.
288  2.87  0.  0.  0.
289  2.88  0.  0.  0.
290  2.89  0.  0.  0.
291  2.90  0.  0.  0.
292  2.91  0.  0.  0.
293  2.92  0.  0.  0.
294  2.93  0.  0.  0.
295  2.94  0.  0.  0.
296  2.95  0.  0.  0.
297  2.96  0.  0.  0.
298  2.97  0.  0.  0.
299  2.98  0.  0.  0.
300  2.99  0.  0.  0.
301  3.00  0.  0.  0.
302  3.01  0.  0.  0.
303  3.02  0.  0.  0.
304  3.03  0.  0.  0.
305  3.04  0.  0.  0.
306  3.05  0.  0.  0.
307  3.06  0.  0.  0.
308  3.07  0.  0.  0.
309  3.08  0.  0.  0.
310  3.09  0.  0.  0.
311  3.10  0.  0.  0.
312  3.11  0.  0.  0.
313  3.12  0.  0.  0.
314  3.13  0.  0.  0.
315  3.14  0.  0.  0.
316  3.15  0.  0.  0.
317  3.16  0.  0.  0.
318  3.17  0.  0.  0.
319  3.18  0.  0.  0.
320  3.19  0.  0.  0.
321  3.20  0.  0.  0.
322  3.21  0.  0.  0.
323  3.22  0.  0.  0.
324  3.23  0.  0.  0.
325  3.24  0.  0.  0.
326  3.25  0.  0.  0.
327  3.26  0.  0.  0.
328  3.27  0.  0.  0.
329  3.28  0.  0.  0.
330  3.29  0.  0.  0.
331  3.30  0.  0.  0.
332  3.31  0.  0.  0.
333  3.32  0.  0.  0.
334  3.33  0.  0.  0.
335  3.34  0.  0.  0.
336  3.35  0.  0.  0.
337  3.36  0.  0.  0.
338  3.37  0.  0.  0.
339  3.38  0.  0.  0.
340  3.39  0.  0.  0.
341  3.40  0.  0.  0.
342  3.41  0.  0.  0.
343  3.42  0.  0.  0.
344  3.43  0.  0.  0.
345  3.44  0.  0.  0.
346  3.45  0.  0.  0.
347  3.46  0.  0.  0.
348  3.47  0.  0.  0.
349  3.48  0.  0.  0.
350  3.49  0.  0.  0.
351  3.50  0.  0.  0.
352  3.51  0.  0.  0.
353  3.52  0.  0.  0.
354  3.53  0.  0.  0.
355  3.54  0.  0.  0.
356  3.55  0.  0.  0.
357  3.56  0.  0.  0.
358  3.57  0.  0.  0.
359  3.58  0.  0.  0.
360  3.59  0.  0.  0.
361  3.60  0.  0.  0.
362  3.61  0.  0.  0.
363  3.62  0.  0.  0.
364  3.63  0.  0.  0.
365  3.64  0.  0.  0.
366  3.65  0.  0.  0.
367  3.66  0.  0.  0.
368  3.67  0.  0.  0.
369  3.68  0.  0.  0.
370  3.69  0.  0.  0.
371  3.70  0.  0.  0.
372  3.71  0.  0.  0.
373  3.72  0.  0.  0.
374  3.73  0.  0.  0.
375  3.74  0.  0.  0.
376  3.75  0.  0.  0.
377  3.76  0.  0.  0.
378  3.77  0.  0.  0.
379  3.78  0.  0.  0.
380  3.79  0.  0.  0.
381  3.80  0.  0.  0.
382  3.81  0.  0.  0.
383  3.82  0.  0.  0.
384  3.83  0.  0.  0.
385  3.84  0.  0.  0.
386  3.85  0.  0.  0.
387  3.86  0.  0.  0.
388  3.87  0.  0.  0.
389  3.88  0.  0.  0.
390  3.89  0.  0.  0.
391  3.90  0.  0.  0.
392  3.91  0.  0.  0.
393  3.92  0.  0.  0.
394  3.93  0.  0.  0.
395  3.94  0.  0.  0.
396  3.95  0.  0.  0.
397  3.96  0.  0.  0.
398  3.97  0.  0.  0.
399  3.98  0.  0.  0.
400  3.99  0.  0.  0.
401  4.00  0.  0.  0.
402  4.01  0.  0.  0.
403  4.02  0.  0.  0.
404  4.03  0.  0.  0.
405  4.04  0.  0.  0.
406  4.05  0.  0.  0.
407  4.06  0.  0.  0.
408  4.07  0.  0.  0.
409  4.08  0.  0.  0.
410  4.09  0.  0.  0.
411  4.10  0.  0.  0.
412  4.11  0.  0.  0.
413  4.12  0.  0.  0.
414  4.13  0.  0.  0.
415  4.14  0.  0.  0.
416  4.15  0.  0.  0.
417  4.16  0.  0.  0.
418  4.17  0.  0.  0.
419  4.18  0.  0.  0.
420  4.19  0.  0.  0.
421  4.20  0.  0.  0.
422  4.21  0.  0.  0.
423  4.22  0.  0.  0.
424  4.23  0.  0.  0.
425  4.24  0.  0.  0.
426  4.25  0.  0.  0.
427  4.26  0.  0.  0.
428  4.27  0.  0.  0.
429  4.28  0.  0.  0.
430  4.29  0.  0.  0.
431  4.30  0.  0.  0.
432  4.31  0.  0.  0.
433  4.32  0.  0.  0.
434  4.33  0.  0.  0.
435  4.34  0.  0.  0.
436  4.35  0.  0.  0.
437  4.36  0.  0.  0.
438  4.37  0.  0.  0.
439  4.38  0.  0.  0.
440  4.39  0.  0.  0.
441  4.40  0.  0.  0.
442  4.41  0.  0.  0.
443  4.42  0.  0.  0.
444  4.43  0.  0.  0.
445  4.44  0.  0.  0.
446  4.45  0.  0.  0.
447  4.46  0.  0.  0.
448  4.47  0.  0.  0.
449  4.48  0.  0.  0.
450  4.49  0.  0.  0.
451  4.50  0.  0.  0.
452  4.51  0.  0.  0.
453  4.52  0.  0.  0.
454  4.53  0.  0.  0.
455  4.54  0.  0.  0.
456  4.55  0.  0.  0.
457  4.56  0.  0.  0.
458  4.57  0.  0.  0.
459  4.58  0.  0.  0.
460  4.59  0.  0.  0.
461  4.60  0.  0.  0.
462  4.61  0.  0.  0.
463  4.62  0.  0.  0.
464  4.63  0.  0.  0.
465  4.64  0.  0.  0.
466  4.65  0.  0.  0.
467  4.66  0.  0.  0.
468  4.67  0.  0.  0.
469  4.68  0.  0.  0.
470  4.69  0.  0.  0.
471  4.70  0.  0.  0.
472  4.71  0.  0.  0.
473  4.72  0.  0.  0.
474  4.73  0.  0.  0.
475  4.74  0.  0.  0.
476  4.75  0.  0.  0.
477  4.76  0.  0.  0.
478  4.77  0.  0.  0.
479  4.78  0.  0.  0.
480  4.79  0.  0.  0.
481  4.80  0.  0.  0.
482  4.81  0.  0.  0.
483  4.82  0.  0.  0.
484  4.83  0.  0.  0.
485  4.84  0.  0.  0.
486  4.85  0.  0.  0.
487  4.86  0.  0.  0.
488  4.87  0.  0.  0.
489  4.88  0.  0.  0.
490  4.89  0.  0.  0.
491  4.90  0.  0.  0.
492  4.91  0.  0.  0.
493  4.92  0.  0.  0.
494  4.93  0.  0.  0.
495  4.94  0.  0.  0.
496  4.95  0.  0.  0.
497  4.96  0.  0.  0.
498  4.97  0.  0.  0.
499  4.98  0.  0.  0.
500  4.99  0.  0.  0.
501  5.00  0.  0.  0.
502  5.01  0.  0.  0.
503  5.02  0.  0.  0.
504  5.03  0.  0.  0.
505  5.04  0.  0.  0.
506  5.05  0.  0.  0.
507  5.06  0.  0.  0.
508  5.07  0.  0.  0.
509  5.08  0.  0.  0.
510  5.09  0.  0.  0.
511  5.10  0.  0.  0.
512  5.11  0.  0.  0.
513  5.12  0.  0.  0.
514  5.13  0.  0.  0.
515  5.14  0.  0.  0.
516  5.15  0.  0.  0.
517  5.16  0.  0.  0.
518  5.17  0.  0.  0.
519  5.18  0.  0.  0.
520  5.19  0.  0.  0.
521  5.20  0.  0.  0.
522  5.21  0.  0.  0.
523  5.22  0.  0.  0.
524  5.23  0.  0.  0.
525  5.24  0.  0.  0.
526  5.25  0.  0.  0.
527  5.26  0.  0.  0.
528  5.27  0.  0.  0.
529  5.28  0.  0.  0.
530  5.29  0.  0.  0.
531  5.30  0.  0.  0.
532  5.31  0.  0.  0.
533  5.32  0.  0.  0.
534  5.33  0.  0.  0.
535  5.34  0.  0.  0.
536  5.35  0.  0.  0.
537  5.36  0.  0.  0.
538  5.37  0.  0.  0.
539  5.38  0.  0.  0.
540  5.39  0.  0.  0.
541  5.40  0.  0.  0.
542  5.41  0.  0.  0.
543  5.42  0.  0.  0.
544  5.43  0.  0.  0.
545  5.44  0.  0.  0.
546  5.45  0.  0.  0.
547  5.46  0.  0.  0.
548  5.47  0.  0.  0.
549  5.48  0.  0.  0.
550  5.49  0.  0.  0.
551  5.50  0.  0.  0.
552  5.51  0.  0.  0.
553  5.52  0.  0.  0.
554  5.53  0.  0.  0.
555  5.54  0.  0.  0.
556  5.55  0.  0.  0.
557  5.56  0.  0.  0.
558  5.57  0.  0.  0.
559  5.58  0.  0.  0.
560  5.59  0.  0.  0.
561  5.60  0.  0.  0.
562  5.61  0.  0.  0.
563  5.62  0.  0.  0.
564  5.63  0.  0.  0.
565  5.64  0.  0.  0.
566  5.65  0.  0.  0.
567  5.66  0.  0.  0.
568  5.67  0.  0.  0.
569  5.68  0.  0.  0.
570  5.69  0.  0.  0.
571  5.70  0.  0.  0.
572  5.71  0.  0.  0.
573  5.72  0.  0.  0.
574  5.73  0.  0.  0.
575  5.74  0.  0.  0.
576  5.75  0.  0.  0.
577  5.76  0.  0.  0.
578  5.77  0.  0.  0.
579  5.78  0.  0.  0.
580  5.79  0.  0.  0.
581  5.80  0.  0.  0.
582  5.81  0.  0.  0.
583  5.82  0.  0.  0.
584  5.83  0.  0.  0.
585  5.84  0.  0.  0.
586  5.85  0.  0.  0.
587  5.86  0.  0.  0.
588  5.87  0.  0.  0.
589  5.88  0.  0.  0.
590  5.89  0.  0.  0.
591  5.90  0.  0.  0.
592  5.91  0.  0.  0.
593  5.92  0.  0.  0.
594  5.93  0.  0.  0.
595  5.94  0.  0.  0.
596  5.95  0.  0.  0.
597  5.96  0.  0.  0.
598  5.97  0.  0.  0.
599  5.98  0.  0.  0.
600  5.99  0.  0.  0.
1                        -5.6854763640286E+00  3.1559547253542E+00
1  0.0000000000000E+00  7.3704999881130E-09  3.4433199791462E-08
2  1.0000000000000E-02  2.3253365092047E-03 -3.9507913063808E-03
3  2.0000000000000E-02  9.2842974366825E-03 -1.5772873398552E-02
4  3.0000000000000E-02  2.0825953529501E-02 -3.5375103380467E-02
5  4.0000000000000E-02  3.6866139616081E-02 -6.2604712376058E-02
6  5.0000000000000E-02  5.7288512962705E-02 -9.7246103788727E-02
7  6.0000000000000E-02  8.1946001507349E-02 -1.3901935477598E-01
8  7.0000000000000E-02  1.1066260981688E-01 -1.8757859396820E-01
9  8.0000000000000E-02  1.4323554324321E-01 -2.4251046289367E-01
10  9.0000000000000E-02  1.7943760464883E-01 -3.0333289267448E-01
11  1.0000000000000E-01  2.1901981341070E-01 -3.6949444001048E-01
12  1.1000000000000E-01  2.6171419331706E-01 -4.4037442646895E-01
13  1.2000000000000E-01  3.0723667450859E-01 -5.1528411239943E-01
14  1.3000000000000E-01  3.5529005478697E-01 -5.9346911171858E-01
15  1.4000000000000E-01  4.0556696736230E-01 -6.7411321723711E-01
16  1.5000000000000E-01  4.5775280532293E-01 -7.5634375953052E-01
17  1.6000000000000E-01  5.1152855761859E-01 -8.3923856744998E-01
18  1.7000000000000E-01  5.6657351694184E-01 -9.2183453747735E-01
19  1.8000000000000E-01  6.2256782632535E-01 -1.0031377547859E+00
20  1.9000000000000E-01  6.7919483827430E-01 -1.0821350437951E+00
21  2.0000000000000E-01  7.3614326753874E-01 -1.1578067629895E+00
22  2.1000000000000E-01  7.9310912591513E-01 -1.2291406005399E+00
23  2.2000000000000E-01  8.4979743447306E-01 -1.2951460763832E+00
24  2.3000000000000E-01  9.0592371507875E-01 -1.3548694151691E+00
25  2.4000000000000E-01  9.6121526880723E-01 -1.4074084247715E+00
26  2.5000000000000E-01  1.0154122536179E+00 -1.4519269983346E+00
27  2.6000000000000E-01  1.0682685773760E+00 -1.4876688550004E+00
28  2.7000000000000E-01  1.1195526248516E+00 -1.5139701458948E+00
29  2.8000000000000E-01  1.1690478386857E+00 -1.5302705774129E+00
30  2.9000000000000E-01  1.2165531745020E+00 -1.5361227425208E+00
31  3.0000000000000E-01  1.2618834494444E+00 -1.5311994013403E+00
32  3.1000000000000E-01  1.3048696015424E+00 -1.5152985128417E+00
33  3.2000000000000E-01  1.3453588746322E+00 -1.4883458877813E+00
34  3.3000000000000E-01  1.3832149402685E+00 -1.4503954064758E+00
35  3.4000000000000E-01  1.4183179643861E+00 -1.4016268207869E+00
36  3.5000000000000E-01  1.4505646226321E+00 -1.3423412348614E+00
37  3.6000000000000E-01  1.4798680645409E+00 -1.2729544308162E+00
38  3.7000000000000E-01  1.5061578232718E+00 -1.1939882708631E+00
39  3.8000000000000E-01  1.5293796647077E+00 -1.1060604638071E+00
40  3.9000000000000E-01  1.5494953674775E+00 -1.0098730291896E+00
41  4.0000000000000E-01  1.5664824240811E+00 -9.0619982484537E-01
42  4.1000000000000E-01  1.5803336528480E+00 -7.9587352201664E-01
43  4.2000000000000E-01  1.5910567110097E+00 -6.7977241575478E-01
44  4.3000000000000E-01  1.5986735007139E+00 -5.5880744702065E-01
45  4.4000000000000E-01  1.6032194622997E+00 -4.3390978719278E-01
46  4.5000000000000E-01  1.6047427524900E+00 -3.0601929669037E-01
47  4.6000000000000E-01  1.6033033092031E+00 -1.7607411875500E-01
48  4.7000000000000E-01  1.5989718092391E+00 -4.5001609226369E-02
49  4.8000000000000E-01  1.5918285299598E+00  8.6289264089887E-02
50  4.9000000000000E-01  1.5819621309983E+00  2.1691399031481E-01
51  5.0000000000000E-01  1.5694683767674E+00  3.4601706316008E-01
52  5.1000000000000E-01  1.5544488248205E+00  4.7277508866755E-01
53  5.2000000000000E-01  1.5370095087236E+00  5.9639860023504E-01
54  5.3000000000000E-01  1.5172596467886E+00  7.1613278631890E-01
55  5.4000000000000E-01  1.4953104096142E+00  8.3125738410427E-01
56  5.5000000000000E-01  1.4712737797331E+00  9.4108602790881E-01
57  5.6000000000000E-01  1.4452615356621E+00  1.0449653624744E+00
58  5.7000000000000E-01  1.4173843902624E+00  1.1422742375138E+00
59  5.8000000000000E-01  1.3877513095436E+00  1.2324232904390E+00
60  5.9000000000000E-01  1.3564690329678E+00  1.3148551992771E+00
61  6.0000000000000E-01  1.3236418100503E+00  1.3890458482013E+00
62  6.1000000000000E-01  1.2893713608190E+00  1.4545065953168E+00
63  6.2000000000000E-01  1.2537570597012E+00  1.5107877683771E+00
64  6.3000000000000E-01  1.2168963339595E+00  1.5574834415103E+00
65  6.4000000000000E-01  1.1788852591913E+00  1.5942374677708E+00
66  6.5000000000000E-01  1.1398193259957E+00  1.6207506616613E+00
67  6.6000000000000E-01  1.0997943440249E+00  1.6367889461719E+00
68  6.7000000000000E-01  1.0589074426247E+00  1.6421922038325E+00
69  6.8000000000000E-01  1.0172581214483E+00  1.6368835042190E+00
70  6.9000000000000E-01  9.7494930008928E-01  1.6208783244511E+00
71  7.0000000000000E-01  9.3208831316346E-01  1.5942933373176E+00
72  7.1000000000000E-01  8.8878779656783E-01  1.5573543160701E+00
73  7.2000000000000E-01  8.4516641197177E-01  1.5104026974108E+00
74  7.3000000000000E-01  8.0134936000438E-01  1.4539003557882E+00
75  7.4000000000000E-01  7.5746863805228E-01  1.3884321731487E+00
76  7.5000000000000E-01  7.1366300596732E-01  1.3147060382860E+00
77  7.6000000000000E-01  6.7007763210514E-01  1.2335499776420E+00
78  7.7000000000000E-01  6.2686340270634E-01  1.1459062028262E+00
79  7.8000000000000E-01  5.8417588935372E-01  1.0528219565173E+00
80  7.9000000000000E-01  5.4217398169608E-01  9.5543714446465E-01
81  8.0000000000000E-01  5.0101820537887E-01  8.5496885316028E-01
82  8.1000000000000E-01  4.6086875769546E-01  7.5269296620925E-01
83  8.2000000000000E-01  4.2188330538343E-01  6.4992320304939E-01
84  8.3000000000000E-01  3.8421459976086E-01  5.4798800699412E-01
85  8.4000000000000E-01  3.4800797357138E-01  4.4820580124998E-01
86  8.5000000000000E-01  3.1339879107174E-01  3.5185920755825E-01
87  8.6000000000000E-01  2.8050992769881E-01  2.6016887887102E-01
88  8.7000000000000E-01  2.4944935781574E-01  1.7426763207222E-01
89  8.8000000000000E-01  2.2030792837436E-01  9.5175577037588E-02
90  8.9000000000000E-01  1.9315739275202E-01  2.3776923029800E-02
91  9.0000000000000E-01  1.6804877254723E-01 -3.9200897774762E-02
92  9.1000000000000E-01  1.4501110587872E-01 -9.3205216234302E-02
93  9.2000000000000E-01  1.2405062896420E-01 -1.3787273818690E-01
94  9.3000000000000E-01  1.0515042380231E-01 -1.7304040967097E-01
95  9.4000000000000E-01  8.8270549077358E-02 -1.9875229073876E-01
96  9.5000000000000E-01  7.3348654468458E-02 -2.1526233417888E-01
97  9.6000000000000E-01  6.0301060953779E-02 -2.2303311441270E-01
98  9.7000000000000E-01  4.9024272068970E-02 -2.2273070339826E-01
99  9.8000000000000E-01  3.9396864054130E-02 -2.1521603883348E-01
100  9.9000000000000E-01  3.1281686886001E-02 -2.0153327214016E-01
101  1.0000000000000E+00  2.4528297472478E-02 -1.8289565477058E-01
102  1.0100000000000E+00  1.8975545378397E-02 -1.6066944978077E-01
103  1.0200000000000E+00  1.4456713019029E-02 -1.3631601369506E-01
104  1.0300000000000E+00  1.0810443536652E-02 -1.1124889026980E-01
105  1.0400000000000E+00  7.8882974039042E-03 -8.6760769202462E-02
106  1.0500000000000E+00  5.5598115234374E-03 -6.3990093016297E-02
107  1.0600000000000E+00  3.7259436686086E-03 -4.3776550599521E-02
108  1.0700000000000E+00  2.3051048443034E-03 -2.6836951457078E-02
109  1.0800000000000E+00  1.2330416461782E-03 -1.3823989803157E-02
110  1.0900000000000E+00  4.8415928169868E-04 -5.0870705398548E-03
111  1.1000000000000E+00  7.0581165919519E-05 -6.7760440233727E-04
112  1.1100000000000E+00 -3.5144856736039E-06  3.1363282566183E-05
113  1.1200000000000E+00 -1.0429474706081E-07  1.0079988601341E-06
114  1.13  0.  0.
115  1.14  0.  0.
116  1.15  0.  0.
117  1.16  0.  0.
118  1.17  0.  0.
119  1.18  0.  0.
120  1.19  0.  0.
121  1.20  0.  0.
122  1.21  0.  0.
123  1.22  0.  0.
124  1.23  0.  0.
125  1.24  0.  0.
126  1.25  0.  0.
127  1.26  0.  0.
128  1.27  0.  0.
129  1.28  0.  0.
130  1.29  0.  0.
131  1.30  0.  0.
132  1.31  0.  0.
133  1.32  0.  0.
134  1.33  0.  0.
135  1.34  0.  0.
136  1.35  0.  0.
137  1.36  0.  0.
138  1.37  0.  0.
139  1.38  0.  0.
140  1.39  0.  0.
141  1.40  0.  0.
142  1.41  0.  0.
143  1.42  0.  0.
144  1.43  0.  0.
145  1.44  0.  0.
146  1.45  0.  0.
147  1.46  0.  0.
148  1.47  0.  0.
149  1.48  0.  0.
150  1.49  0.  0.
151  1.50  0.  0.
152  1.51  0.  0.
153  1.52  0.  0.
154  1.53  0.  0.
155  1.54  0.  0.
156  1.55  0.  0.
157  1.56  0.  0.
158  1.57  0.  0.
159  1.58  0.  0.
160  1.59  0.  0.
161  1.60  0.  0.
162  1.61  0.  0.
163  1.62  0.  0.
164  1.63  0.  0.
165  1.64  0.  0.
166  1.65  0.  0.
167  1.66  0.  0.
168  1.67  0.  0.
169  1.68  0.  0.
170  1.69  0.  0.
171  1.70  0.  0.
172  1.71  0.  0.
173  1.72  0.  0.
174  1.73  0.  0.
175  1.74  0.  0.
176  1.75  0.  0.
177  1.76  0.  0.
178  1.77  0.  0.
179  1.78  0.  0.
180  1.79  0.  0.
181  1.80  0.  0.
182  1.81  0.  0.
183  1.82  0.  0.
184  1.83  0.  0.
185  1.84  0.  0.
186  1.85  0.  0.
187  1.86  0.  0.
188  1.87  0.  0.
189  1.88  0.  0.
190  1.89  0.  0.
191  1.90  0.  0.
192  1.91  0.  0.
193  1.92  0.  0.
194  1.93  0.  0.
195  1.94  0.  0.
196  1.95  0.  0.
197  1.96  0.  0.