Sg    ONCVPSP-4.0.1  r_core=   1.15312   1.15312   1.15312   1.20244
106.0000     46.0000      220328    zatom,zion,pspd
8      11   3     4   600     0    pspcod,pspxc,lmax,lloc,mmax,r2well
5.99000000  3.80000000  0.00000000    rchrg fchrg qchrg
3     2     2     2     0    nproj
1     1           extension_switch
0                         1.5290274121914E+01 -6.9985547303446E+00  1.4843841059911E+00
1  0.0000000000000E+00 -1.9592694133763E-09  3.6476505149707E-10  1.0400141470246E-08
2  1.0000000000000E-02  1.6973312485582E-01  6.2530318882954E-02  4.2685933302484E-02
3  2.0000000000000E-02  3.3802487506829E-01  1.2495287957160E-01  8.4528846810527E-02
4  3.0000000000000E-02  5.0344782075801E-01  1.8716008817006E-01  1.2469671912253E-01
5  4.0000000000000E-02  6.6460228460358E-01  2.4904468172553E-01  1.6237944752747E-01
6  5.0000000000000E-02  8.2012987599745E-01  3.1049989946501E-01  1.9679960881737E-01
7  6.0000000000000E-02  9.6872661557679E-01  3.7141966067330E-01  2.2722297292263E-01
8  7.0000000000000E-02  1.1091555153554E+00  4.3169875097514E-01  2.5296867292683E-01
9  8.0000000000000E-02  1.2402584816421E+00  4.9123301841975E-01  2.7341892461784E-01
10  9.0000000000000E-02  1.3609674108968E+00  5.4991958033590E-01  2.8802817766940E-01
11  1.0000000000000E-01  1.4703143529385E+00  6.0765704144635E-01  2.9633156995438E-01
12  1.1000000000000E-01  1.5674406217786E+00  6.6434572321899E-01  2.9795254755588E-01
13  1.2000000000000E-01  1.6516047420816E+00  7.1988790390765E-01  2.9260950696336E-01
14  1.3000000000000E-01  1.7221891291068E+00  7.7418806821655E-01  2.8012131383038E-01
15  1.4000000000000E-01  1.7787054121234E+00  8.2715316502789E-01  2.6041155550103E-01
16  1.5000000000000E-01  1.8207983258256E+00  8.7869287117913E-01  2.3351139304222E-01
17  1.6000000000000E-01  1.8482481111978E+00  9.2871985888145E-01  1.9956089324428E-01
18  1.7000000000000E-01  1.8609713864801E+00  9.7715006404679E-01  1.5880874215490E-01
19  1.8000000000000E-01  1.8590204701356E+00  1.0239029525484E+00  1.1161026904633E-01
20  1.9000000000000E-01  1.8425811606750E+00  1.0689017812872E+00  5.8423742785357E-02
21  2.0000000000000E-01  1.8119690023915E+00  1.1120738508776E+00 -1.9505945439772E-04
22  2.1000000000000E-01  1.7676240909480E+00  1.1533507468003E+00 -6.3599969474769E-02
23  2.2000000000000E-01  1.7101044976878E+00  1.1926685659996E+00 -1.3106314560865E-01
24  2.3000000000000E-01  1.6400784158144E+00  1.2299681261128E+00 -2.0178526007432E-01
25  2.4000000000000E-01  1.5583151544687E+00  1.2651951548141E+00 -2.7490698198182E-01
26  2.5000000000000E-01  1.4656751274806E+00  1.2983004571076E+00 -3.4952154110420E-01
27  2.6000000000000E-01  1.3630990014744E+00  1.3292400588168E+00 -4.2468812154895E-01
28  2.7000000000000E-01  1.2515961824108E+00  1.3579753249647E+00 -4.9944580496976E-01
29  2.8000000000000E-01  1.1322328299877E+00  1.3844730522058E+00 -5.7282776147843E-01
30  2.9000000000000E-01  1.0061195951536E+00  1.4087055349485E+00 -6.4387537421740E-01
31  3.0000000000000E-01  8.7439927700082E-01  1.4306506052731E+00 -7.1165198154794E-01
32  3.1000000000000E-01  7.3823459136604E-01  1.4502916471906E+00 -7.7525592952850E-01
33  3.2000000000000E-01  5.9879623459373E-01  1.4676175861939E+00 -8.3383264689158E-01
34  3.3000000000000E-01  4.5725141233160E-01  1.4826228554093E+00 -8.8658548470013E-01
35  3.4000000000000E-01  3.1475298530329E-01  1.4953073399540E+00 -9.3278510246722E-01
36  3.5000000000000E-01  1.7242936230535E-01  1.5056763013445E+00 -9.7177723047248E-01
37  3.6000000000000E-01  3.1375245902330E-02  1.5137402839624E+00 -1.0029886926631E+00
38  3.7000000000000E-01 -1.0735669071678E-01  1.5195150056911E+00 -1.0259316338693E+00
39  3.8000000000000E-01 -2.4276314557476E-01  1.5230212348617E+00 -1.0402059568406E+00
40  3.9000000000000E-01 -3.7389652691576E-01  1.5242846556217E+00 -1.0455000363652E+00
41  4.0000000000000E-01 -4.9987029578352E-01  1.5233357237473E+00 -1.0415898369642E+00
42  4.1000000000000E-01 -6.1986334475649E-01  1.5202095147850E+00 -1.0283366148594E+00
43  4.2000000000000E-01 -7.3312346894621E-01  1.5149455662298E+00 -1.0056834317379E+00
44  4.3000000000000E-01 -8.3897000534902E-01  1.5075877152375E+00 -9.7365074518786E-01
45  4.4000000000000E-01 -9.3679573235997E-01  1.4981839331422E+00 -9.3233136675593E-01
46  4.5000000000000E-01 -1.0260681321447E+00  1.4867861578085E+00 -8.8188509204440E-01
47  4.6000000000000E-01 -1.1063301242422E+00  1.4734501246115E+00 -8.2253330726811E-01
48  4.7000000000000E-01 -1.1772003790650E+00  1.4582351966037E+00 -7.5455386289772E-01
49  4.8000000000000E-01 -1.2383733149233E+00  1.4412041942160E+00 -6.7827647771135E-01
50  4.9000000000000E-01 -1.2896188720922E+00  1.4224232246438E+00 -5.9407889658074E-01
51  5.0000000000000E-01 -1.3307821427489E+00  1.4019615109017E+00 -5.0238397405494E-01
52  5.1000000000000E-01 -1.3617829170131E+00  1.3798912203909E+00 -4.0365779518677E-01
53  5.2000000000000E-01 -1.3826151836843E+00  1.3562872927120E+00 -2.9840887747376E-01
54  5.3000000000000E-01 -1.3933466005869E+00  1.3312272663722E+00 -1.8718842600012E-01
55  5.4000000000000E-01 -1.3941179248147E+00  1.3047911039761E+00 -7.0591540915066E-02
56  5.5000000000000E-01 -1.3851423687851E+00  1.2770610154567E+00  5.0740794567752E-02
57  5.6000000000000E-01 -1.3667048250508E+00  1.2481212788769E+00  1.7611918319456E-01
58  5.7000000000000E-01 -1.3391608824364E+00  1.2180580583309E+00  3.0480303467262E-01
59  5.8000000000000E-01 -1.3029355393408E+00  1.1869592184696E+00  4.3599787981909E-01
60  5.9000000000000E-01 -1.2585215079208E+00  1.1549141351774E+00  5.6885315154076E-01
61  6.0000000000000E-01 -1.2064769961330E+00  1.1220135019300E+00  7.0246082311305E-01
62  6.1000000000000E-01 -1.1474228538261E+00  1.0883491313560E+00  8.3585529381147E-01
63  6.2000000000000E-01 -1.0820389745930E+00  1.0540137515169E+00  9.6801489353787E-01
64  6.3000000000000E-01 -1.0110598569855E+00  1.0191007964034E+00  1.0978653415755E+00
65  6.4000000000000E-01 -9.3526924679072E-01  9.8370419012677E-01  1.2242854406342E+00
66  6.5000000000000E-01 -8.5549380590991E-01  9.4791812426093E-01  1.3461152172883E+00
67  6.6000000000000E-01 -7.7259578226653E-01  9.1183682777383E-01  1.4621666358362E+00
68  6.7000000000000E-01 -6.8746468815453E-01  8.7555432897943E-01  1.5712369172410E+00
69  6.8000000000000E-01 -6.0100803037729E-01  8.3916420894957E-01  1.6721243914219E+00
70  6.9000000000000E-01 -5.1414117310821E-01  8.0275934585932E-01  1.7636467034711E+00
71  7.0000000000000E-01 -4.2777645220094E-01  7.6643164980642E-01  1.8446610863977E+00
72  7.1000000000000E-01 -3.4281169620259E-01  7.3027178775236E-01  1.9140863089125E+00
73  7.2000000000000E-01 -2.6011834308580E-01  6.9436889838739E-01  1.9709258107509E+00
74  7.3000000000000E-01 -1.8052937128534E-01  6.5881029692884E-01  2.0142914540524E+00
75  7.4000000000000E-01 -1.0482728768639E-01  6.2368117012489E-01  2.0434272510250E+00
76  7.5000000000000E-01 -3.3732432632591E-02  5.8906426205516E-01  2.0577323786489E+00
77  7.6000000000000E-01  3.2108128107966E-02  5.5503955169292E-01  2.0567827629865E+00
78  7.7000000000000E-01  9.2130852791378E-02  5.2168392361586E-01  2.0403505104721E+00
79  7.8000000000000E-01  1.4586484974686E-01  4.8907083371366E-01  2.0084204821703E+00
80  7.9000000000000E-01  1.9293963051791E-01  4.5726997223021E-01  1.9612033493008E+00
81  8.0000000000000E-01  2.3309126402612E-01  4.2634692697809E-01  1.8991445332452E+00
82  8.1000000000000E-01  2.6616673656005E-01  3.9636285005658E-01  1.8229285187193E+00
83  8.2000000000000E-01  2.9212635966790E-01  3.6737413186872E-01  1.7334781318608E+00
84  8.3000000000000E-01  3.1104411038933E-01  3.3943208664580E-01  1.6319484918539E+00
85  8.4000000000000E-01  3.2310583411939E-01  3.1258265402384E-01  1.5197154708957E+00
86  8.5000000000000E-01  3.2860528798146E-01  2.8686612145257E-01  1.3983586277903E+00
87  8.6000000000000E-01  3.2793804998567E-01  2.6231687232858E-01  1.2696387098214E+00
88  8.7000000000000E-01  3.2159336449909E-01  2.3896316470932E-01  1.1354699402960E+00
89  8.8000000000000E-01  3.1014403569981E-01  2.1682694526445E-01  9.9788741977223E-01
90  8.9000000000000E-01  2.9423451588426E-01  1.9592370274130E-01  8.5901006234604E-01
91  9.0000000000000E-01  2.7456736306839E-01  1.7626236465156E-01  7.2099955980690E-01
92  9.1000000000000E-01  2.5188826085008E-01  1.5784524012363E-01  5.8601591207673E-01
93  9.2000000000000E-01  2.2696980187964E-01  1.4066801091124E-01  4.5617007911126E-01
94  9.3000000000000E-01  2.0059423379064E-01  1.2471977141480E-01  3.3347429544659E-01
95  9.4000000000000E-01  1.7353535276205E-01  1.0998311727328E-01  2.1979054307188E-01
96  9.5000000000000E-01  1.4653970514157E-01  9.6434280646407E-02  1.1677760180386E-01
97  9.6000000000000E-01  1.2030722235543E-01  8.4043308759992E-02  2.5836990678146E-02
98  9.7000000000000E-01  9.5471369661141E-02  7.2774280668596E-02 -5.1942017974642E-02
99  9.8000000000000E-01  7.2578836626003E-02  6.2585555541467E-02 -1.1583828384889E-01
100  9.9000000000000E-01  5.2068737064344E-02  5.3430044130274E-02 -1.6555573178085E-01
101  1.0000000000000E+00  3.4251250721423E-02  4.5255493854838E-02 -2.0128153325819E-01
102  1.0100000000000E+00  1.9285666159232E-02  3.8004777680252E-02 -2.2374549606578E-01
103  1.0200000000000E+00  7.1792231149764E-03  3.1616483922090E-02 -2.3418262226467E-01
104  1.0300000000000E+00 -2.1625908521199E-03  2.6026496400071E-02 -2.3407489355715E-01
105  1.0400000000000E+00 -8.9094328025316E-03  2.1169638457015E-02 -2.2503024454963E-01
106  1.0500000000000E+00 -1.3295047405107E-02  1.6981087482190E-02 -2.0874197689779E-01
107  1.0600000000000E+00 -1.5605309864685E-02  1.3397684954338E-02 -1.8694716649283E-01
108  1.0700000000000E+00 -1.6165708398991E-02  1.0359132751298E-02 -1.6138485232434E-01
109  1.0800000000000E+00 -1.5328655588996E-02  7.8090653725809E-03 -1.3375500880256E-01
110  1.0900000000000E+00 -1.3461015715141E-02  5.6960075169614E-03 -1.0567936585342E-01
111  1.1000000000000E+00 -1.0931504999749E-02  3.9718330959971E-03 -7.8665628669308E-02
112  1.1100000000000E+00 -8.0885401989291E-03  2.5847973381953E-03 -5.4057914835775E-02
113  1.1200000000000E+00 -5.2677302387191E-03  1.5101291711778E-03 -3.3018882681826E-02
114  1.1300000000000E+00 -2.7935556046388E-03  7.3087970116528E-04 -1.6545319333988E-02
115  1.1400000000000E+00 -9.6638814090740E-04  2.3431667502314E-04 -5.4391804853303E-03
116  1.1500000000000E+00 -7.1920857287091E-05  1.6352802530112E-05 -3.8558515293146E-04
117  1.1600000000000E+00  1.8236445176399E-07 -3.9905085310336E-08  9.5254738898839E-07
118  1.1700000000000E+00  7.2406560205499E-07 -1.6795013433309E-07  3.9522071571158E-06
119  1.18 -0. -0. -0.
120  1.19  0.  0.  0.
121  1.20  0.  0.  0.
122  1.21  0.  0.  0.
123  1.22  0.  0.  0.
124  1.23  0.  0.  0.
125  1.24  0.  0.  0.
126  1.25  0.  0.  0.
127  1.26  0.  0.  0.
128  1.27  0.  0.  0.
129  1.28  0.  0.  0.
130  1.29  0.  0.  0.
131  1.30  0.  0.  0.
132  1.31  0.  0.  0.
133  1.32  0.  0.  0.
134  1.33  0.  0.  0.
135  1.34  0.  0.  0.
136  1.35  0.  0.  0.
137  1.36  0.  0.  0.
138  1.37  0.  0.  0.
139  1.38  0.  0.  0.
140  1.39  0.  0.  0.
141  1.40  0.  0.  0.
142  1.41  0.  0.  0.
143  1.42  0.  0.  0.
144  1.43  0.  0.  0.
145  1.44  0.  0.  0.
146  1.45  0.  0.  0.
147  1.46  0.  0.  0.
148  1.47  0.  0.  0.
149  1.48  0.  0.  0.
150  1.49  0.  0.  0.
151  1.50  0.  0.  0.
152  1.51  0.  0.  0.
153  1.52  0.  0.  0.
154  1.53  0.  0.  0.
155  1.54  0.  0.  0.
156  1.55  0.  0.  0.
157  1.56  0.  0.  0.
158  1.57  0.  0.  0.
159  1.58  0.  0.  0.
160  1.59  0.  0.  0.
161  1.60  0.  0.  0.
162  1.61  0.  0.  0.
163  1.62  0.  0.  0.
164  1.63  0.  0.  0.
165  1.64  0.  0.  0.
166  1.65  0.  0.  0.
167  1.66  0.  0.  0.
168  1.67  0.  0.  0.
169  1.68  0.  0.  0.
170  1.69  0.  0.  0.
171  1.70  0.  0.  0.
172  1.71  0.  0.  0.
173  1.72  0.  0.  0.
174  1.73  0.  0.  0.
175  1.74  0.  0.  0.
176  1.75  0.  0.  0.
177  1.76  0.  0.  0.
178  1.77  0.  0.  0.
179  1.78  0.  0.  0.
180  1.79  0.  0.  0.
181  1.80  0.  0.  0.
182  1.81  0.  0.  0.
183  1.82  0.  0.  0.
184  1.83  0.  0.  0.
185  1.84  0.  0.  0.
186  1.85  0.  0.  0.
187  1.86  0.  0.  0.
188  1.87  0.  0.  0.
189  1.88  0.  0.  0.
190  1.89  0.  0.  0.
191  1.90  0.  0.  0.
192  1.91  0.  0.  0.
193  1.92  0.  0.  0.
194  1.93  0.  0.  0.
195  1.94  0.  0.  0.
196  1.95  0.  0.  0.
197  1.96  0.  0.  0.
198  1.97  0.  0.  0.
199  1.98  0.  0.  0.
200  1.99  0.  0.  0.
201  2.00  0.  0.  0.
202  2.01  0.  0.  0.
203  2.02  0.  0.  0.
204  2.03  0.  0.  0.
205  2.04  0.  0.  0.
206  2.05  0.  0.  0.
207  2.06  0.  0.  0.
208  2.07  0.  0.  0.
209  2.08  0.  0.  0.
210  2.09  0.  0.  0.
211  2.10  0.  0.  0.
212  2.11  0.  0.  0.
213  2.12  0.  0.  0.
214  2.13  0.  0.  0.
215  2.14  0.  0.  0.
216  2.15  0.  0.  0.
217  2.16  0.  0.  0.
218  2.17  0.  0.  0.
219  2.18  0.  0.  0.
220  2.19  0.  0.  0.
221  2.20  0.  0.  0.
222  2.21  0.  0.  0.
223  2.22  0.  0.  0.
224  2.23  0.  0.  0.
225  2.24  0.  0.  0.
226  2.25  0.  0.  0.
227  2.26  0.  0.  0.
228  2.27  0.  0.  0.
229  2.28  0.  0.  0.
230  2.29  0.  0.  0.
231  2.30  0.  0.  0.
232  2.31  0.  0.  0.
233  2.32  0.  0.  0.
234  2.33  0.  0.  0.
235  2.34  0.  0.  0.
236  2.35  0.  0.  0.
237  2.36  0.  0.  0.
238  2.37  0.  0.  0.
239  2.38  0.  0.  0.
240  2.39  0.  0.  0.
241  2.40  0.  0.  0.
242  2.41  0.  0.  0.
243  2.42  0.  0.  0.
244  2.43  0.  0.  0.
245  2.44  0.  0.  0.
246  2.45  0.  0.  0.
247  2.46  0.  0.  0.
248  2.47  0.  0.  0.
249  2.48  0.  0.  0.
250  2.49  0.  0.  0.
251  2.50  0.  0.  0.
252  2.51  0.  0.  0.
253  2.52  0.  0.  0.
254  2.53  0.  0.  0.
255  2.54  0.  0.  0.
256  2.55  0.  0.  0.
257  2.56  0.  0.  0.
258  2.57  0.  0.  0.
259  2.58  0.  0.  0.
260  2.59  0.  0.  0.
261  2.60  0.  0.  0.
262  2.61  0.  0.  0.
263  2.62  0.  0.  0.
264  2.63  0.  0.  0.
265  2.64  0.  0.  0.
266  2.65  0.  0.  0.
267  2.66  0.  0.  0.
268  2.67  0.  0.  0.
269  2.68  0.  0.  0.
270  2.69  0.  0.  0.
271  2.70  0.  0.  0.
272  2.71  0.  0.  0.
273  2.72  0.  0.  0.
274  2.73  0.  0.  0.
275  2.74  0.  0.  0.
276  2.75  0.  0.  0.
277  2.76  0.  0.  0.
278  2.77  0.  0.  0.
279  2.78  0.  0.  0.
280  2.79  0.  0.  0.
281  2.80  0.  0.  0.
282  2.81  0.  0.  0.
283  2.82  0.  0.  0.
284  2.83  0.  0.  0.
285  2.84  0.  0.  0.
286  2.85  0.  0.  0.
287  2.86  0.  0.  0.
288  2.87  0.  0.  0.
289  2.88  0.  0.  0.
290  2.89  0.  0.  0.
291  2.90  0.  0.  0.
292  2.91  0.  0.  0.
293  2.92  0.  0.  0.
294  2.93  0.  0.  0.
295  2.94  0.  0.  0.
296  2.95  0.  0.  0.
297  2.96  0.  0.  0.
298  2.97  0.  0.  0.
299  2.98  0.  0.  0.
300  2.99  0.  0.  0.
301  3.00  0.  0.  0.
302  3.01  0.  0.  0.
303  3.02  0.  0.  0.
304  3.03  0.  0.  0.
305  3.04  0.  0.  0.
306  3.05  0.  0.  0.
307  3.06  0.  0.  0.
308  3.07  0.  0.  0.
309  3.08  0.  0.  0.
310  3.09  0.  0.  0.
311  3.10  0.  0.  0.
312  3.11  0.  0.  0.
313  3.12  0.  0.  0.
314  3.13  0.  0.  0.
315  3.14  0.  0.  0.
316  3.15  0.  0.  0.
317  3.16  0.  0.  0.
318  3.17  0.  0.  0.
319  3.18  0.  0.  0.
320  3.19  0.  0.  0.
321  3.20  0.  0.  0.
322  3.21  0.  0.  0.
323  3.22  0.  0.  0.
324  3.23  0.  0.  0.
325  3.24  0.  0.  0.
326  3.25  0.  0.  0.
327  3.26  0.  0.  0.
328  3.27  0.  0.  0.
329  3.28  0.  0.  0.
330  3.29  0.  0.  0.
331  3.30  0.  0.  0.
332  3.31  0.  0.  0.
333  3.32  0.  0.  0.
334  3.33  0.  0.  0.
335  3.34  0.  0.  0.
336  3.35  0.  0.  0.
337  3.36  0.  0.  0.
338  3.37  0.  0.  0.
339  3.38  0.  0.  0.
340  3.39  0.  0.  0.
341  3.40  0.  0.  0.
342  3.41  0.  0.  0.
343  3.42  0.  0.  0.
344  3.43  0.  0.  0.
345  3.44  0.  0.  0.
346  3.45  0.  0.  0.
347  3.46  0.  0.  0.
348  3.47  0.  0.  0.
349  3.48  0.  0.  0.
350  3.49  0.  0.  0.
351  3.50  0.  0.  0.
352  3.51  0.  0.  0.
353  3.52  0.  0.  0.
354  3.53  0.  0.  0.
355  3.54  0.  0.  0.
356  3.55  0.  0.  0.
357  3.56  0.  0.  0.
358  3.57  0.  0.  0.
359  3.58  0.  0.  0.
360  3.59  0.  0.  0.
361  3.60  0.  0.  0.
362  3.61  0.  0.  0.
363  3.62  0.  0.  0.
364  3.63  0.  0.  0.
365  3.64  0.  0.  0.
366  3.65  0.  0.  0.
367  3.66  0.  0.  0.
368  3.67  0.  0.  0.
369  3.68  0.  0.  0.
370  3.69  0.  0.  0.
371  3.70  0.  0.  0.
372  3.71  0.  0.  0.
373  3.72  0.  0.  0.
374  3.73  0.  0.  0.
375  3.74  0.  0.  0.
376  3.75  0.  0.  0.
377  3.76  0.  0.  0.
378  3.77  0.  0.  0.
379  3.78  0.  0.  0.
380  3.79  0.  0.  0.
381  3.80  0.  0.  0.
382  3.81  0.  0.  0.
383  3.82  0.  0.  0.
384  3.83  0.  0.  0.
385  3.84  0.  0.  0.
386  3.85  0.  0.  0.
387  3.86  0.  0.  0.
388  3.87  0.  0.  0.
389  3.88  0.  0.  0.
390  3.89  0.  0.  0.
391  3.90  0.  0.  0.
392  3.91  0.  0.  0.
393  3.92  0.  0.  0.
394  3.93  0.  0.  0.
395  3.94  0.  0.  0.
396  3.95  0.  0.  0.
397  3.96  0.  0.  0.
398  3.97  0.  0.  0.
399  3.98  0.  0.  0.
400  3.99  0.  0.  0.
401  4.00  0.  0.  0.
402  4.01  0.  0.  0.
403  4.02  0.  0.  0.
404  4.03  0.  0.  0.
405  4.04  0.  0.  0.
406  4.05  0.  0.  0.
407  4.06  0.  0.  0.
408  4.07  0.  0.  0.
409  4.08  0.  0.  0.
410  4.09  0.  0.  0.
411  4.10  0.  0.  0.
412  4.11  0.  0.  0.
413  4.12  0.  0.  0.
414  4.13  0.  0.  0.
415  4.14  0.  0.  0.
416  4.15  0.  0.  0.
417  4.16  0.  0.  0.
418  4.17  0.  0.  0.
419  4.18  0.  0.  0.
420  4.19  0.  0.  0.
421  4.20  0.  0.  0.
422  4.21  0.  0.  0.
423  4.22  0.  0.  0.
424  4.23  0.  0.  0.
425  4.24  0.  0.  0.
426  4.25  0.  0.  0.
427  4.26  0.  0.  0.
428  4.27  0.  0.  0.
429  4.28  0.  0.  0.
430  4.29  0.  0.  0.
431  4.30  0.  0.  0.
432  4.31  0.  0.  0.
433  4.32  0.  0.  0.
434  4.33  0.  0.  0.
435  4.34  0.  0.  0.
436  4.35  0.  0.  0.
437  4.36  0.  0.  0.
438  4.37  0.  0.  0.
439  4.38  0.  0.  0.
440  4.39  0.  0.  0.
441  4.40  0.  0.  0.
442  4.41  0.  0.  0.
443  4.42  0.  0.  0.
444  4.43  0.  0.  0.
445  4.44  0.  0.  0.
446  4.45  0.  0.  0.
447  4.46  0.  0.  0.
448  4.47  0.  0.  0.
449  4.48  0.  0.  0.
450  4.49  0.  0.  0.
451  4.50  0.  0.  0.
452  4.51  0.  0.  0.
453  4.52  0.  0.  0.
454  4.53  0.  0.  0.
455  4.54  0.  0.  0.
456  4.55  0.  0.  0.
457  4.56  0.  0.  0.
458  4.57  0.  0.  0.
459  4.58  0.  0.  0.
460  4.59  0.  0.  0.
461  4.60  0.  0.  0.
462  4.61  0.  0.  0.
463  4.62  0.  0.  0.
464  4.63  0.  0.  0.
465  4.64  0.  0.  0.
466  4.65  0.  0.  0.
467  4.66  0.  0.  0.
468  4.67  0.  0.  0.
469  4.68  0.  0.  0.
470  4.69  0.  0.  0.
471  4.70  0.  0.  0.
472  4.71  0.  0.  0.
473  4.72  0.  0.  0.
474  4.73  0.  0.  0.
475  4.74  0.  0.  0.
476  4.75  0.  0.  0.
477  4.76  0.  0.  0.
478  4.77  0.  0.  0.
479  4.78  0.  0.  0.
480  4.79  0.  0.  0.
481  4.80  0.  0.  0.
482  4.81  0.  0.  0.
483  4.82  0.  0.  0.
484  4.83  0.  0.  0.
485  4.84  0.  0.  0.
486  4.85  0.  0.  0.
487  4.86  0.  0.  0.
488  4.87  0.  0.  0.
489  4.88  0.  0.  0.
490  4.89  0.  0.  0.
491  4.90  0.  0.  0.
492  4.91  0.  0.  0.
493  4.92  0.  0.  0.
494  4.93  0.  0.  0.
495  4.94  0.  0.  0.
496  4.95  0.  0.  0.
497  4.96  0.  0.  0.
498  4.97  0.  0.  0.
499  4.98  0.  0.  0.
500  4.99  0.  0.  0.
501  5.00  0.  0.  0.
502  5.01  0.  0.  0.
503  5.02  0.  0.  0.
504  5.03  0.  0.  0.
505  5.04  0.  0.  0.
506  5.05  0.  0.  0.
507  5.06  0.  0.  0.
508  5.07  0.  0.  0.
509  5.08  0.  0.  0.
510  5.09  0.  0.  0.
511  5.10  0.  0.  0.
512  5.11  0.  0.  0.
513  5.12  0.  0.  0.
514  5.13  0.  0.  0.
515  5.14  0.  0.  0.
516  5.15  0.  0.  0.
517  5.16  0.  0.  0.
518  5.17  0.  0.  0.
519  5.18  0.  0.  0.
520  5.19  0.  0.  0.
521  5.20  0.  0.  0.
522  5.21  0.  0.  0.
523  5.22  0.  0.  0.
524  5.23  0.  0.  0.
525  5.24  0.  0.  0.
526  5.25  0.  0.  0.
527  5.26  0.  0.  0.
528  5.27  0.  0.  0.
529  5.28  0.  0.  0.
530  5.29  0.  0.  0.
531  5.30  0.  0.  0.
532  5.31  0.  0.  0.
533  5.32  0.  0.  0.
534  5.33  0.  0.  0.
535  5.34  0.  0.  0.
536  5.35  0.  0.  0.
537  5.36  0.  0.  0.
538  5.37  0.  0.  0.
539  5.38  0.  0.  0.
540  5.39  0.  0.  0.
541  5.40  0.  0.  0.
542  5.41  0.  0.  0.
543  5.42  0.  0.  0.
544  5.43  0.  0.  0.
545  5.44  0.  0.  0.
546  5.45  0.  0.  0.
547  5.46  0.  0.  0.
548  5.47  0.  0.  0.
549  5.48  0.  0.  0.
550  5.49  0.  0.  0.
551  5.50  0.  0.  0.
552  5.51  0.  0.  0.
553  5.52  0.  0.  0.
554  5.53  0.  0.  0.
555  5.54  0.  0.  0.
556  5.55  0.  0.  0.
557  5.56  0.  0.  0.
558  5.57  0.  0.  0.
559  5.58  0.  0.  0.
560  5.59  0.  0.  0.
561  5.60  0.  0.  0.
562  5.61  0.  0.  0.
563  5.62  0.  0.  0.
564  5.63  0.  0.  0.
565  5.64  0.  0.  0.
566  5.65  0.  0.  0.
567  5.66  0.  0.  0.
568  5.67  0.  0.  0.
569  5.68  0.  0.  0.
570  5.69  0.  0.  0.
571  5.70  0.  0.  0.
572  5.71  0.  0.  0.
573  5.72  0.  0.  0.
574  5.73  0.  0.  0.
575  5.74  0.  0.  0.
576  5.75  0.  0.  0.
577  5.76  0.  0.  0.
578  5.77  0.  0.  0.
579  5.78  0.  0.  0.
580  5.79  0.  0.  0.
581  5.80  0.  0.  0.
582  5.81  0.  0.  0.
583  5.82  0.  0.  0.
584  5.83  0.  0.  0.
585  5.84  0.  0.  0.
586  5.85  0.  0.  0.
587  5.86  0.  0.  0.
588  5.87  0.  0.  0.
589  5.88  0.  0.  0.
590  5.89  0.  0.  0.
591  5.90  0.  0.  0.
592  5.91  0.  0.  0.
593  5.92  0.  0.  0.
594  5.93  0.  0.  0.
595  5.94  0.  0.  0.
596  5.95  0.  0.  0.
597  5.96  0.  0.  0.
598  5.97  0.  0.  0.
599  5.98  0.  0.  0.
600  5.99  0.  0.  0.
1                        -5.7647571739313E+00  2.6045116337674E+00
1  0.0000000000000E+00  6.3933447147502E-09  1.5273215553391E-08
2  1.0000000000000E-02  2.5790868013998E-03 -3.2283405016888E-03
3  2.0000000000000E-02  1.0296166282146E-02 -1.2889719815439E-02
4  3.0000000000000E-02  2.3090928405733E-02 -2.8913121434158E-02
5  4.0000000000000E-02  4.0863628351948E-02 -5.1179896105785E-02
6  5.0000000000000E-02  6.3476230912512E-02 -7.9523368528712E-02
7  6.0000000000000E-02  9.0753986027069E-02 -1.1372836359063E-01
8  7.0000000000000E-02  1.2248740956192E-01 -1.5353072501120E-01
9  8.0000000000000E-02  1.5843463704056E-01 -1.9861691452223E-01
10  9.0000000000000E-02  1.9832411235643E-01 -2.4862379113538E-01
11  1.0000000000000E-01  2.4185756865090E-01 -3.0313867707181E-01
12  1.1000000000000E-01  2.8871325461627E-01 -3.6169981919584E-01
13  1.2000000000000E-01  3.3854935655267E-01 -4.2379735212899E-01
14  1.3000000000000E-01  3.9100756460921E-01 -4.8887486163853E-01
15  1.4000000000000E-01  4.4571673078768E-01 -5.5633163460567E-01
16  1.5000000000000E-01  5.0229656646613E-01 -6.2552566527887E-01
17  1.6000000000000E-01  5.6036132837131E-01 -6.9577746717162E-01
18  1.7000000000000E-01  6.1952344402707E-01 -7.6637471658652E-01
19  1.8000000000000E-01  6.7939703064637E-01 -8.3657772817273E-01
20  1.9000000000000E-01  7.3960126511202E-01 -9.0562573607534E-01
21  2.0000000000000E-01  7.9976356698812E-01 -9.7274392709097E-01
22  2.1000000000000E-01  8.5952256129165E-01 -1.0371511457975E+00
23  2.2000000000000E-01  9.1853079289598E-01 -1.0980681668491E+00
24  2.3000000000000E-01  9.7645716979961E-01 -1.1547264074376E+00
25  2.4000000000000E-01  1.0329891179393E+00 -1.2063769341353E+00
26  2.5000000000000E-01  1.0878344356299E+00 -1.2522996036585E+00
27  2.6000000000000E-01  1.1407228409537E+00 -1.2918121670687E+00
28  2.7000000000000E-01  1.1914072103998E+00 -1.3242791619440E+00
29  2.8000000000000E-01  1.2396645116705E+00 -1.3491204173100E+00
30  2.9000000000000E-01  1.2852964377684E+00 -1.3658190016155E+00
31  3.0000000000000E-01  1.3281297531856E+00 -1.3739284546108E+00
32  3.1000000000000E-01  1.3680163662112E+00 -1.3730791592615E+00
33  3.2000000000000E-01  1.4048331440364E+00 -1.3629837292915E+00
34  3.3000000000000E-01  1.4384814894634E+00 -1.3434413109245E+00
35  3.4000000000000E-01  1.4688866996385E+00 -1.3143407230835E+00
36  3.5000000000000E-01  1.4959971283622E+00 -1.2756623878423E+00
37  3.6000000000000E-01  1.5197831742118E+00 -1.2274790313587E+00
38  3.7000000000000E-01  1.5402361170155E+00 -1.1699551638941E+00
39  3.8000000000000E-01  1.5573668251765E+00 -1.1033453748984E+00
40  3.9000000000000E-01  1.5712043560369E+00 -1.0279915046150E+00
41  4.0000000000000E-01  1.5817944709517E+00 -9.4431877641722E-01
42  4.1000000000000E-01  1.5891980860582E+00 -8.5283099343538E-01
43  4.2000000000000E-01  1.5934896789473E+00 -7.5410491838340E-01
44  4.3000000000000E-01  1.5947556705990E+00 -6.4878396646021E-01
45  4.4000000000000E-01  1.5930928010738E+00 -5.3757134751850E-01
46  4.5000000000000E-01  1.5886065165935E+00 -4.2122279531557E-01
47  4.6000000000000E-01  1.5814093847894E+00 -3.0053901869323E-01
48  4.7000000000000E-01  1.5716195540763E+00 -1.7635800226806E-01
49  4.8000000000000E-01  1.5593592722953E+00 -4.9547273097955E-02
50  4.9000000000000E-01  1.5447534789621E+00  7.9003764583385E-02
51  5.0000000000000E-01  1.5279284846247E+00  2.0839134139193E-01
52  5.1000000000000E-01  1.5090107499533E+00  3.3770461507103E-01
53  5.2000000000000E-01  1.4881257762199E+00  4.6603269605449E-01
54  5.3000000000000E-01  1.4653971177462E+00  5.9247137887815E-01
55  5.4000000000000E-01  1.4409455256622E+00  7.1612957063337E-01
56  5.5000000000000E-01  1.4148882309144E+00  8.3613542454663E-01
57  5.6000000000000E-01  1.3873383728419E+00  9.5164220114969E-01
58  5.7000000000000E-01  1.3584045778121E+00  1.0618338907133E+00
59  5.8000000000000E-01  1.3281906903477E+00  1.1659306381215E+00
60  5.9000000000000E-01  1.2967956569033E+00  1.2631940147887E+00
61  6.0000000000000E-01  1.2643135599696E+00  1.3529321813581E+00
62  6.1000000000000E-01  1.2308337975401E+00  1.4345049797531E+00
63  6.2000000000000E-01  1.1964414001951E+00  1.5073289838327E+00
64  6.3000000000000E-01  1.1612174752160E+00  1.5708825247890E+00
65  6.4000000000000E-01  1.1252397642895E+00  1.6247106910229E+00
66  6.5000000000000E-01  1.0885832985815E+00  1.6684302832360E+00
67  6.6000000000000E-01  1.0513211323341E+00  1.7017346846778E+00
68  6.7000000000000E-01  1.0135251337580E+00  1.7243985848174E+00
69  6.8000000000000E-01  9.7526680993184E-01  1.7362824731531E+00
70  6.9000000000000E-01  9.3661814078674E-01  1.7373367994565E+00
71  7.0000000000000E-01  8.9765239610991E-01  1.7276056785055E+00
72  7.1000000000000E-01  8.5844490892842E-01  1.7072300022612E+00
73  7.2000000000000E-01  8.1907377868953E-01  1.6764498114027E+00
74  7.3000000000000E-01  7.7962047838028E-01  1.6356057719210E+00
75  7.4000000000000E-01  7.4017034115197E-01  1.5851396017173E+00
76  7.5000000000000E-01  7.0081290414027E-01  1.5255932972920E+00
77  7.6000000000000E-01  6.6164208997927E-01  1.4576070218774E+00
78  7.7000000000000E-01  6.2275620995876E-01  1.3819155337551E+00
79  7.8000000000000E-01  5.8425777680196E-01  1.2993430567775E+00
80  7.9000000000000E-01  5.4625311955988E-01  1.2107965238031E+00
81  8.0000000000000E-01  5.0885179801888E-01  1.1172571571447E+00
82  8.1000000000000E-01  4.7216581917255E-01  1.0197703873021E+00
83  8.2000000000000E-01  4.3630866357513E-01  9.1943415108725E-01
84  8.3000000000000E-01  4.0139413461586E-01  8.1738565148267E-01
85  8.4000000000000E-01  3.6753504877103E-01  7.1478670282349E-01
86  8.5000000000000E-01  3.3484178953953E-01  6.1280782469544E-01
87  8.6000000000000E-01  3.0342075188817E-01  5.1261128483807E-01
88  8.7000000000000E-01  2.7337270747607E-01  4.1533332389345E-01
89  8.8000000000000E-01  2.4479112355694E-01  3.2206582170572E-01
90  8.9000000000000E-01  2.1776047016012E-01  2.3383768486623E-01
91  9.0000000000000E-01  1.9235455083749E-01  1.5159624731124E-01
92  9.1000000000000E-01  1.6863489187403E-01  7.6188979262200E-02
93  9.2000000000000E-01  1.4664922337047E-01  8.3457941781719E-03
94  9.3000000000000E-01  1.2643008302607E-01 -5.1337771496910E-02
95  9.4000000000000E-01  1.0799356982675E-01 -1.0241625499904E-01
96  9.5000000000000E-01  9.1338270260747E-02 -1.4460862212534E-01
97  9.6000000000000E-01  7.6444374262948E-02 -1.7781110249816E-01
98  9.7000000000000E-01  6.3272991978121E-02 -2.0210837439263E-01
99  9.8000000000000E-01  5.1765675816797E-02 -2.1778302053474E-01
100  9.9000000000000E-01  4.1844145197118E-02 -2.2532323465156E-01
101  1.0000000000000E+00  3.3410207842704E-02 -2.2542875934342E-01
102  1.0100000000000E+00  2.6345876126507E-02 -2.1901490771431E-01
103  1.0200000000000E+00  2.0516346192178E-02 -2.0717242085070E-01
104  1.0300000000000E+00  1.5779347948771E-02 -1.9103741492927E-01
105  1.0400000000000E+00  1.1991049681279E-02 -1.7173247377263E-01
106  1.0500000000000E+00  9.0096694082191E-03 -1.5034606541974E-01
107  1.0600000000000E+00  6.6989157854930E-03 -1.2791263623363E-01
108  1.0700000000000E+00  4.9312242624693E-03 -1.0539356253941E-01
109  1.0800000000000E+00  3.5907514311038E-03 -8.3659210185626E-02
110  1.0900000000000E+00  2.5760697818774E-03 -6.3472632566759E-02
111  1.1000000000000E+00  1.8038284400199E-03 -4.5453132861165E-02
112  1.1100000000000E+00  1.2133600224444E-03 -3.0000433591609E-02
113  1.1200000000000E+00  7.5331233753702E-04 -1.7556548051481E-02
114  1.1300000000000E+00  3.9627992080114E-04 -8.4038565648843E-03
115  1.1400000000000E+00  1.4031889288670E-04 -2.6299250328401E-03
116  1.1500000000000E+00  1.0967560745480E-05 -1.7636847377760E-04
117  1.1600000000000E+00 -2.8409527822075E-08  4.2114710054923E-07
118  1.1700000000000E+00 -1.0782271299880E-07  1.8449596423343E-06
119  1.18  0.  0.
120  1.19  0.  0.
121  1.20  0.  0.
122  1.21  0.  0.
123  1.22  0.  0.
124  1.23  0.  0.
125  1.24  0.  0.
126  1.25  0.  0.
127  1.26  0.  0.
128  1.27  0.  0.
129  1.28  0.  0.
130  1.29  0.  0.
131  1.30  0.  0.
132  1.31  0.  0.
133  1.32  0.  0.
134  1.33  0.  0.
135  1.34  0.  0.
136  1.35  0.  0.
137  1.36  0.  0.
138  1.37  0.  0.
139  1.38  0.  0.
140  1.39  0.  0.
141  1.40  0.  0.
142  1.41  0.  0.
143  1.42  0.  0.
144  1.43  0.  0.
145  1.44  0.  0.
146  1.45  0.  0.
147  1.46  0.  0.
148  1.47  0.  0.
149  1.48  0.  0.
150  1.49  0.  0.
151  1.50  0.  0.
152  1.51  0.  0.
153  1.52  0.  0.
154  1.53  0.  0.
155  1.54  0.  0.
156  1.55  0.  0.
157  1.56  0.  0.
158  1.57  0.  0.
159  1.58  0.  0.
160  1.59  0.  0.
161  1.60  0.  0.
162  1.61  0.  0.
163  1.62  0.  0.
164  1.63  0.  0.
165  1.64  0.  0.