Sg    ONCVPSP-4.0.1  r_core=   1.20244   1.20244   1.20244   1.20244
106.0000     46.0000      220316    zatom,zion,pspd
8      11   3     4   600     0    pspcod,pspxc,lmax,lloc,mmax,r2well
5.99000000  5.00000000  0.00000000    rchrg fchrg qchrg
3     2     2     2     0    nproj
1     1           extension_switch
0                         1.2669250941387E+01 -1.0847650805333E+01 -9.8028600547876E-02
1  0.0000000000000E+00 -1.5342192183354E-08  1.0028126662398E-09  1.0992909249552E-08
2  1.0000000000000E-02  1.9282225767631E-01  5.7110965624768E-02 -5.5409215242233E-02
3  2.0000000000000E-02  3.8380467263547E-01  1.1419958748475E-01 -1.0989309723787E-01
4  3.0000000000000E-02  5.7112824517300E-01  1.7124254929654E-01 -1.6254403386938E-01
5  4.0000000000000E-02  7.5301538811836E-01  2.2821460636452E-01 -2.1248956264368E-01
6  5.0000000000000E-02  9.2774995335881E-01  2.8508766267535E-01 -2.5890921643801E-01
7  6.0000000000000E-02  1.0936964537706E+00  3.4182989682403E-01 -3.0105050151266E-01
8  7.0000000000000E-02  1.2493182306777E+00  3.9840495184721E-01 -3.3824373074097E-01
9  8.0000000000000E-02  1.3931943323006E+00  4.5477120303671E-01 -3.6991544600031E-01
10  9.0000000000000E-02  1.5240348873929E+00  5.1088111658584E-01 -3.9560017803214E-01
11  1.0000000000000E-01  1.6406947801049E+00  5.6668071050429E-01 -4.1495031014229E-01
12  1.1000000000000E-01  1.7421854567310E+00  6.2210912764872E-01 -4.2774383420329E-01
13  1.2000000000000E-01  1.8276847220039E+00  6.7709832898255E-01 -4.3388981380291E-01
14  1.3000000000000E-01  1.8965444115922E+00  7.3157291332882E-01 -4.3343140025936E-01
15  1.4000000000000E-01  1.9482958579787E+00  7.8545006794674E-01 -4.2654628266957E-01
16  1.5000000000000E-01  1.9826530984772E+00  8.3863965227573E-01 -4.1354449309851E-01
17  1.6000000000000E-01  1.9995138063010E+00  8.9104441518453E-01 -3.9486353222038E-01
18  1.7000000000000E-01  1.9989579578158E+00  9.4256034406897E-01 -3.7106082874677E-01
19  1.8000000000000E-01  1.9812442809011E+00  9.9307714219129E-01 -3.4280359718912E-01
20  1.9000000000000E-01  1.9468045602072E+00  1.0424788287777E+00 -3.1085621205982E-01
21  2.0000000000000E-01  1.8962359045486E+00  1.0906444546166E+00 -2.7606527149411E-01
22  2.1000000000000E-01  1.8302911092644E+00  1.1374489242542E+00 -2.3934257823144E-01
23  2.2000000000000E-01  1.7498672716689E+00  1.1827639143895E+00 -2.0164631960265E-01
24  2.3000000000000E-01  1.6559928403288E+00  1.2264588767485E+00 -1.6396077912361E-01
25  2.4000000000000E-01  1.5498132984918E+00  1.2684021125830E+00 -1.2727495895989E-01
26  2.5000000000000E-01  1.4325756982608E+00  1.3084619050078E+00 -9.2560533345976E-02
27  2.6000000000000E-01  1.3056122748302E+00  1.3465076946679E+00 -6.0749586489805E-02
28  2.7000000000000E-01  1.1703233791043E+00  1.3824112837264E+00 -3.2712613128440E-02
29  2.8000000000000E-01  1.0281599721884E+00  1.4160480528769E+00 -9.2372744920517E-03
30  2.9000000000000E-01  8.8060592655689E-01  1.4472981760215E+00  8.9915941353372E-03
31  3.0000000000000E-01  7.2916037617597E-01  1.4760478174017E+00  2.1410236524369E-02
32  3.1000000000000E-01  5.7532035159953E-01  1.5021902963235E+00  2.7592022444116E-02
33  3.2000000000000E-01  4.2056392622224E-01  1.5256272051680E+00  2.7260855040446E-02
34  3.3000000000000E-01  2.6633408669778E-01  1.5462694671053E+00  2.0301551023933E-02
35  3.4000000000000E-01  1.1402352429142E-01  1.5640383208290E+00  6.7668635408387E-03
36  3.5000000000000E-01 -3.5039475024308E-02  1.5788662206701E+00 -1.3119114153133E-02
37  3.6000000000000E-01 -1.7960388522326E-01  1.5906976416216E+00 -3.8961348480151E-02
38  3.7000000000000E-01 -3.1850740634256E-01  1.5994897800901E+00 -7.0198167738090E-02
39  3.8000000000000E-01 -4.5068643347175E-01  1.6052131425588E+00 -1.0610947466778E-01
40  3.9000000000000E-01 -5.7518444572282E-01  1.6078520157843E+00 -1.4582878293062E-01
41  4.0000000000000E-01 -6.9115875851926E-01  1.6074048136340E+00 -1.8835889563408E-01
42  4.1000000000000E-01 -7.9788560882560E-01  1.6038842971796E+00 -2.3259095022152E-01
43  4.2000000000000E-01 -8.9476356880997E-01  1.5973176661752E+00 -2.7732646441965E-01
44  4.3000000000000E-01 -9.8131530844752E-01  1.5877465215482E+00 -3.2130193508071E-01
45  4.4000000000000E-01 -1.0571877513149E+00  1.5752266999976E+00 -3.6321546813094E-01
46  4.5000000000000E-01 -1.1221506899168E+00  1.5598279832128E+00 -4.0175485571330E-01
47  4.6000000000000E-01 -1.1760939469894E+00  1.5416336855757E+00 -4.3562646797230E-01
48  4.7000000000000E-01 -1.2190231870615E+00  1.5207401254846E+00 -4.6358429345054E-01
49  4.8000000000000E-01 -1.2510544978857E+00  1.4972559866205E+00 -4.8445844499865E-01
50  4.9000000000000E-01 -1.2724078740179E+00  1.4713015765543E+00 -4.9718244827066E-01
51  5.0000000000000E-01 -1.2833997447039E+00  1.4430079910690E+00 -5.0081864763915E-01
52  5.1000000000000E-01 -1.2844346952839E+00  1.4125161934178E+00 -4.9458109955343E-01
53  5.2000000000000E-01 -1.2759965355522E+00  1.3799760184733E+00 -4.7785537536197E-01
54  5.3000000000000E-01 -1.2586388699842E+00  1.3455451123225E+00 -4.5021476327207E-01
55  5.4000000000000E-01 -1.2329753235775E+00  1.3093878183388E+00 -4.1143244084631E-01
56  5.5000000000000E-01 -1.1996695734194E+00  1.2716740211016E+00 -3.6148928325195E-01
57  5.6000000000000E-01 -1.1594253302016E+00  1.2325779597520E+00 -3.0057707598423E-01
58  5.7000000000000E-01 -1.1129764059931E+00  1.1922770224552E+00 -2.2909701135064E-01
59  5.8000000000000E-01 -1.0610769949267E+00  1.1509505336036E+00 -1.4765346275327E-01
60  5.9000000000000E-01 -1.0044922823535E+00  1.1087785452327E+00 -5.7043146702832E-02
61  6.0000000000000E-01 -9.4398948576032E-01  1.0659406438471E+00  4.1760103473589E-02
62  6.1000000000000E-01 -8.8032941765170E-01  1.0226147834665E+00  1.4762461915947E-01
63  6.2000000000000E-01 -8.1425864695934E-01  9.7897615521482E-01  2.5928379880839E-01
64  6.3000000000000E-01 -7.4650232165806E-01  9.3519610318680E-01  3.7536210585490E-01
65  6.4000000000000E-01 -6.7775770140945E-01  8.9144109565813E-01  4.9440355886197E-01
66  6.5000000000000E-01 -6.0868843547255E-01  8.4787175995059E-01  6.1490204739769E-01
67  6.6000000000000E-01 -5.3991960804098E-01  8.0464198844415E-01  7.3533276041069E-01
68  6.7000000000000E-01 -4.7203356077737E-01  7.6189812234698E-01  8.5418398476021E-01
69  6.8000000000000E-01 -4.0556649077929E-01  7.1977821890311E-01  9.6998852071877E-01
70  6.9000000000000E-01 -3.4100581164967E-01  6.7841140674796E-01  1.0813539688776E+00
71  7.0000000000000E-01 -2.7878825584844E-01  6.3791733312248E-01  1.1869911686186E+00
72  7.1000000000000E-01 -2.1929868812714E-01  5.9840570563976E-01  1.2857401113621E+00
73  7.2000000000000E-01 -1.6286959262116E-01  5.5997593027363E-01  1.3765927109405E+00
74  7.3000000000000E-01 -1.0978119008968E-01  5.2271684621780E-01  1.4587118870086E+00
75  7.4000000000000E-01 -6.0262136826958E-02  4.8670655725749E-01  1.5314465034282E+00
76  7.5000000000000E-01 -1.4490752871651E-02  4.5201235831368E-01  1.5943417998182E+00
77  7.6000000000000E-01  2.7403275748170E-02  4.1869075487269E-01  1.6471450584649E+00
78  7.7000000000000E-01  6.5336777950113E-02  3.8678757211131E-01  1.6898063580384E+00
79  7.8000000000000E-01  9.9270620024210E-02  3.5633814967888E-01  1.7224743774213E+00
80  7.9000000000000E-01  1.2920692817924E-01  3.2736761731088E-01  1.7454873249394E+00
81  8.0000000000000E-01  1.5518606944871E-01  2.9989124573195E-01  1.7593591779409E+00
82  8.1000000000000E-01  1.7728344817263E-01  2.7391486666684E-01  1.7647615228165E+00
83  8.2000000000000E-01  1.9560617366695E-01  2.4943535522061E-01  1.7625013842460E+00
84  8.3000000000000E-01  2.1028965255771E-01  2.2644116742075E-01  1.7534955230255E+00
85  8.4000000000000E-01  2.2149415661743E-01  2.0491292533629E-01  1.7387417630462E+00
86  8.5000000000000E-01  2.2940141382113E-01  1.8482404190585E-01  1.7192879789232E+00
87  8.6000000000000E-01  2.3421126674043E-01  1.6614137741877E-01  1.6961994358957E+00
88  8.7000000000000E-01  2.3613843831072E-01  1.4882591950137E-01  1.6705252228464E+00
89  8.8000000000000E-01  2.3540944042337E-01  1.3283347846252E-01  1.6432645578371E+00
90  8.9000000000000E-01  2.3225965569167E-01  1.1811538994664E-01  1.6153337740074E+00
91  9.0000000000000E-01  2.2693061708981E-01  1.0461921702447E-01  1.5875348129424E+00
92  9.1000000000000E-01  2.1966750394900E-01  9.2289444117110E-02  1.5605260637751E+00
93  9.2000000000000E-01  2.1071686599699E-01  8.1068155490996E-02  1.5347963906625E+00
94  9.3000000000000E-01  2.0032457974080E-01  7.0895691474168E-02  1.5106431902862E+00
95  9.4000000000000E-01  1.8873403352743E-01  6.1711276018094E-02  1.4881553161130E+00
96  9.5000000000000E-01  1.7618452909980E-01  5.3453609757229E-02  1.4672016987746E+00
97  9.6000000000000E-01  1.6290987844564E-01  4.6061423289740E-02  1.4474264833849E+00
98  9.7000000000000E-01  1.4913716528346E-01  3.9473986008372E-02  1.4282514961523E+00
99  9.8000000000000E-01  1.3508563074454E-01  3.3631566439706E-02  1.4088868451573E+00
100  9.9000000000000E-01  1.2096563280922E-01  2.8475840692976E-02  1.3883504544677E+00
101  1.0000000000000E+00  1.0697761899456E-01  2.3950246265586E-02  1.3654973272135E+00
102  1.0100000000000E+00  9.3311041828026E-02  2.0000279092110E-02  1.3390593320221E+00
103  1.0200000000000E+00  8.0143136974257E-02  1.6573732346639E-02  1.3076963081380E+00
104  1.0300000000000E+00  6.7637474714365E-02  1.3620876105897E-02  1.2700592871403E+00
105  1.0400000000000E+00  5.5942187017912E-02  1.1094577544341E-02  1.2248666326987E+00
106  1.0500000000000E+00  4.5187764917209E-02  8.9503618551628E-03  1.1709939032525E+00
107  1.0600000000000E+00  3.5484314517332E-02  7.1464145648041E-03  1.1075782447509E+00
108  1.0700000000000E+00  2.6918154943013E-02  5.6435263296098E-03  1.0341381202466E+00
109  1.0800000000000E+00  1.9547638043910E-02  4.4049816651387E-03  9.5070917889103E-01
110  1.0900000000000E+00  1.3398067107739E-02  3.3963933217326E-03  8.5799708701501E-01
111  1.1000000000000E+00  8.4556055313126E-03  2.5854848916159E-03  7.5754761836096E-01
112  1.1100000000000E+00  4.6600231816195E-03  1.9418222713973E-03  6.5193599531589E-01
113  1.1200000000000E+00  1.9038600248983E-03  1.4368498650018E-03  5.4469711253050E-01
114  1.1300000000000E+00  5.4165363574916E-05  1.0449086342707E-03  4.3948915264188E-01
115  1.1400000000000E+00 -1.0342014295607E-03  7.4382557271307E-04  3.3969583245881E-01
116  1.1500000000000E+00 -1.5029285979305E-03  5.1181028972621E-04  2.4829315179662E-01
117  1.1600000000000E+00 -1.4876922275757E-03  3.2984003042671E-04  1.6782016280708E-01
118  1.1700000000000E+00 -1.1589231844975E-03  1.9137606463977E-04  1.0077560965641E-01
119  1.1800000000000E+00 -6.9017115248792E-04  9.1821628064119E-05  4.9367690078469E-02
120  1.1900000000000E+00 -2.5166750720317E-04  2.8486419727833E-05  1.5423952636040E-02
121  1.2000000000000E+00 -1.5993865275569E-05  1.5977136879139E-06  8.5555116904981E-04
122  1.2100000000000E+00 -2.8748879344733E-07  2.8488564506884E-08  1.5491229215209E-05
123  1.2200000000000E+00  2.3807371795728E-07 -2.4909823705808E-08 -1.3565378546565E-05
124  1.23 -0. -0.  0.
125  1.24  0.  0.  0.
126  1.25  0.  0.  0.
127  1.26  0.  0.  0.
128  1.27  0.  0.  0.
129  1.28  0.  0.  0.
130  1.29  0.  0.  0.
131  1.30  0.  0.  0.
132  1.31  0.  0.  0.
133  1.32  0.  0.  0.
134  1.33  0.  0.  0.
135  1.34  0.  0.  0.
136  1.35  0.  0.  0.
137  1.36  0.  0.  0.
138  1.37  0.  0.  0.
139  1.38  0.  0.  0.
140  1.39  0.  0.  0.
141  1.40  0.  0.  0.
142  1.41  0.  0.  0.
143  1.42  0.  0.  0.
144  1.43  0.  0.  0.
145  1.44  0.  0.  0.
146  1.45  0.  0.  0.
147  1.46  0.  0.  0.
148  1.47  0.  0.  0.
149  1.48  0.  0.  0.
150  1.49  0.  0.  0.
151  1.50  0.  0.  0.
152  1.51  0.  0.  0.
153  1.52  0.  0.  0.
154  1.53  0.  0.  0.
155  1.54  0.  0.  0.
156  1.55  0.  0.  0.
157  1.56  0.  0.  0.
158  1.57  0.  0.  0.
159  1.58  0.  0.  0.
160  1.59  0.  0.  0.
161  1.60  0.  0.  0.
162  1.61  0.  0.  0.
163  1.62  0.  0.  0.
164  1.63  0.  0.  0.
165  1.64  0.  0.  0.
166  1.65  0.  0.  0.
167  1.66  0.  0.  0.
168  1.67  0.  0.  0.
169  1.68  0.  0.  0.
170  1.69  0.  0.  0.
171  1.70  0.  0.  0.
172  1.71  0.  0.  0.
173  1.72  0.  0.  0.
174  1.73  0.  0.  0.
175  1.74  0.  0.  0.
176  1.75  0.  0.  0.
177  1.76  0.  0.  0.
178  1.77  0.  0.  0.
179  1.78  0.  0.  0.
180  1.79  0.  0.  0.
181  1.80  0.  0.  0.
182  1.81  0.  0.  0.
183  1.82  0.  0.  0.
184  1.83  0.  0.  0.
185  1.84  0.  0.  0.
186  1.85  0.  0.  0.
187  1.86  0.  0.  0.
188  1.87  0.  0.  0.
189  1.88  0.  0.  0.
190  1.89  0.  0.  0.
191  1.90  0.  0.  0.
192  1.91  0.  0.  0.
193  1.92  0.  0.  0.
194  1.93  0.  0.  0.
195  1.94  0.  0.  0.
196  1.95  0.  0.  0.
197  1.96  0.  0.  0.
198  1.97  0.  0.  0.
199  1.98  0.  0.  0.
200  1.99  0.  0.  0.
201  2.00  0.  0.  0.
202  2.01  0.  0.  0.
203  2.02  0.  0.  0.
204  2.03  0.  0.  0.
205  2.04  0.  0.  0.
206  2.05  0.  0.  0.
207  2.06  0.  0.  0.
208  2.07  0.  0.  0.
209  2.08  0.  0.  0.
210  2.09  0.  0.  0.
211  2.10  0.  0.  0.
212  2.11  0.  0.  0.
213  2.12  0.  0.  0.
214  2.13  0.  0.  0.
215  2.14  0.  0.  0.
216  2.15  0.  0.  0.
217  2.16  0.  0.  0.
218  2.17  0.  0.  0.
219  2.18  0.  0.  0.
220  2.19  0.  0.  0.
221  2.20  0.  0.  0.
222  2.21  0.  0.  0.
223  2.22  0.  0.  0.
224  2.23  0.  0.  0.
225  2.24  0.  0.  0.
226  2.25  0.  0.  0.
227  2.26  0.  0.  0.
228  2.27  0.  0.  0.
229  2.28  0.  0.  0.
230  2.29  0.  0.  0.
231  2.30  0.  0.  0.
232  2.31  0.  0.  0.
233  2.32  0.  0.  0.
234  2.33  0.  0.  0.
235  2.34  0.  0.  0.
236  2.35  0.  0.  0.
237  2.36  0.  0.  0.
238  2.37  0.  0.  0.
239  2.38  0.  0.  0.
240  2.39  0.  0.  0.
241  2.40  0.  0.  0.
242  2.41  0.  0.  0.
243  2.42  0.  0.  0.
244  2.43  0.  0.  0.
245  2.44  0.  0.  0.
246  2.45  0.  0.  0.
247  2.46  0.  0.  0.
248  2.47  0.  0.  0.
249  2.48  0.  0.  0.
250  2.49  0.  0.  0.
251  2.50  0.  0.  0.
252  2.51  0.  0.  0.
253  2.52  0.  0.  0.
254  2.53  0.  0.  0.
255  2.54  0.  0.  0.
256  2.55  0.  0.  0.
257  2.56  0.  0.  0.
258  2.57  0.  0.  0.
259  2.58  0.  0.  0.
260  2.59  0.  0.  0.
261  2.60  0.  0.  0.
262  2.61  0.  0.  0.
263  2.62  0.  0.  0.
264  2.63  0.  0.  0.
265  2.64  0.  0.  0.
266  2.65  0.  0.  0.
267  2.66  0.  0.  0.
268  2.67  0.  0.  0.
269  2.68  0.  0.  0.
270  2.69  0.  0.  0.
271  2.70  0.  0.  0.
272  2.71  0.  0.  0.
273  2.72  0.  0.  0.
274  2.73  0.  0.  0.
275  2.74  0.  0.  0.
276  2.75  0.  0.  0.
277  2.76  0.  0.  0.
278  2.77  0.  0.  0.
279  2.78  0.  0.  0.
280  2.79  0.  0.  0.
281  2.80  0.  0.  0.
282  2.81  0.  0.  0.
283  2.82  0.  0.  0.
284  2.83  0.  0.  0.
285  2.84  0.  0.  0.
286  2.85  0.  0.  0.
287  2.86  0.  0.  0.
288  2.87  0.  0.  0.
289  2.88  0.  0.  0.
290  2.89  0.  0.  0.
291  2.90  0.  0.  0.
292  2.91  0.  0.  0.
293  2.92  0.  0.  0.
294  2.93  0.  0.  0.
295  2.94  0.  0.  0.
296  2.95  0.  0.  0.
297  2.96  0.  0.  0.
298  2.97  0.  0.  0.
299  2.98  0.  0.  0.
300  2.99  0.  0.  0.
301  3.00  0.  0.  0.
302  3.01  0.  0.  0.
303  3.02  0.  0.  0.
304  3.03  0.  0.  0.
305  3.04  0.  0.  0.
306  3.05  0.  0.  0.
307  3.06  0.  0.  0.
308  3.07  0.  0.  0.
309  3.08  0.  0.  0.
310  3.09  0.  0.  0.
311  3.10  0.  0.  0.
312  3.11  0.  0.  0.
313  3.12  0.  0.  0.
314  3.13  0.  0.  0.
315  3.14  0.  0.  0.
316  3.15  0.  0.  0.
317  3.16  0.  0.  0.
318  3.17  0.  0.  0.
319  3.18  0.  0.  0.
320  3.19  0.  0.  0.
321  3.20  0.  0.  0.
322  3.21  0.  0.  0.
323  3.22  0.  0.  0.
324  3.23  0.  0.  0.
325  3.24  0.  0.  0.
326  3.25  0.  0.  0.
327  3.26  0.  0.  0.
328  3.27  0.  0.  0.
329  3.28  0.  0.  0.
330  3.29  0.  0.  0.
331  3.30  0.  0.  0.
332  3.31  0.  0.  0.
333  3.32  0.  0.  0.
334  3.33  0.  0.  0.
335  3.34  0.  0.  0.
336  3.35  0.  0.  0.
337  3.36  0.  0.  0.
338  3.37  0.  0.  0.
339  3.38  0.  0.  0.
340  3.39  0.  0.  0.
341  3.40  0.  0.  0.
342  3.41  0.  0.  0.
343  3.42  0.  0.  0.
344  3.43  0.  0.  0.
345  3.44  0.  0.  0.
346  3.45  0.  0.  0.
347  3.46  0.  0.  0.
348  3.47  0.  0.  0.
349  3.48  0.  0.  0.
350  3.49  0.  0.  0.
351  3.50  0.  0.  0.
352  3.51  0.  0.  0.
353  3.52  0.  0.  0.
354  3.53  0.  0.  0.
355  3.54  0.  0.  0.
356  3.55  0.  0.  0.
357  3.56  0.  0.  0.
358  3.57  0.  0.  0.
359  3.58  0.  0.  0.
360  3.59  0.  0.  0.
361  3.60  0.  0.  0.
362  3.61  0.  0.  0.
363  3.62  0.  0.  0.
364  3.63  0.  0.  0.
365  3.64  0.  0.  0.
366  3.65  0.  0.  0.
367  3.66  0.  0.  0.
368  3.67  0.  0.  0.
369  3.68  0.  0.  0.
370  3.69  0.  0.  0.
371  3.70  0.  0.  0.
372  3.71  0.  0.  0.
373  3.72  0.  0.  0.
374  3.73  0.  0.  0.
375  3.74  0.  0.  0.
376  3.75  0.  0.  0.
377  3.76  0.  0.  0.
378  3.77  0.  0.  0.
379  3.78  0.  0.  0.
380  3.79  0.  0.  0.
381  3.80  0.  0.  0.
382  3.81  0.  0.  0.
383  3.82  0.  0.  0.
384  3.83  0.  0.  0.
385  3.84  0.  0.  0.
386  3.85  0.  0.  0.
387  3.86  0.  0.  0.
388  3.87  0.  0.  0.
389  3.88  0.  0.  0.
390  3.89  0.  0.  0.
391  3.90  0.  0.  0.
392  3.91  0.  0.  0.
393  3.92  0.  0.  0.
394  3.93  0.  0.  0.
395  3.94  0.  0.  0.
396  3.95  0.  0.  0.
397  3.96  0.  0.  0.
398  3.97  0.  0.  0.
399  3.98  0.  0.  0.
400  3.99  0.  0.  0.
401  4.00  0.  0.  0.
402  4.01  0.  0.  0.
403  4.02  0.  0.  0.
404  4.03  0.  0.  0.
405  4.04  0.  0.  0.
406  4.05  0.  0.  0.
407  4.06  0.  0.  0.
408  4.07  0.  0.  0.
409  4.08  0.  0.  0.
410  4.09  0.  0.  0.
411  4.10  0.  0.  0.
412  4.11  0.  0.  0.
413  4.12  0.  0.  0.
414  4.13  0.  0.  0.
415  4.14  0.  0.  0.
416  4.15  0.  0.  0.
417  4.16  0.  0.  0.
418  4.17  0.  0.  0.
419  4.18  0.  0.  0.
420  4.19  0.  0.  0.
421  4.20  0.  0.  0.
422  4.21  0.  0.  0.
423  4.22  0.  0.  0.
424  4.23  0.  0.  0.
425  4.24  0.  0.  0.
426  4.25  0.  0.  0.
427  4.26  0.  0.  0.
428  4.27  0.  0.  0.
429  4.28  0.  0.  0.
430  4.29  0.  0.  0.
431  4.30  0.  0.  0.
432  4.31  0.  0.  0.
433  4.32  0.  0.  0.
434  4.33  0.  0.  0.
435  4.34  0.  0.  0.
436  4.35  0.  0.  0.
437  4.36  0.  0.  0.
438  4.37  0.  0.  0.
439  4.38  0.  0.  0.
440  4.39  0.  0.  0.
441  4.40  0.  0.  0.
442  4.41  0.  0.  0.
443  4.42  0.  0.  0.
444  4.43  0.  0.  0.
445  4.44  0.  0.  0.
446  4.45  0.  0.  0.
447  4.46  0.  0.  0.
448  4.47  0.  0.  0.
449  4.48  0.  0.  0.
450  4.49  0.  0.  0.
451  4.50  0.  0.  0.
452  4.51  0.  0.  0.
453  4.52  0.  0.  0.
454  4.53  0.  0.  0.
455  4.54  0.  0.  0.
456  4.55  0.  0.  0.
457  4.56  0.  0.  0.
458  4.57  0.  0.  0.
459  4.58  0.  0.  0.
460  4.59  0.  0.  0.
461  4.60  0.  0.  0.
462  4.61  0.  0.  0.
463  4.62  0.  0.  0.
464  4.63  0.  0.  0.
465  4.64  0.  0.  0.
466  4.65  0.  0.  0.
467  4.66  0.  0.  0.
468  4.67  0.  0.  0.
469  4.68  0.  0.  0.
470  4.69  0.  0.  0.
471  4.70  0.  0.  0.
472  4.71  0.  0.  0.
473  4.72  0.  0.  0.
474  4.73  0.  0.  0.
475  4.74  0.  0.  0.
476  4.75  0.  0.  0.
477  4.76  0.  0.  0.
478  4.77  0.  0.  0.
479  4.78  0.  0.  0.
480  4.79  0.  0.  0.
481  4.80  0.  0.  0.
482  4.81  0.  0.  0.
483  4.82  0.  0.  0.
484  4.83  0.  0.  0.
485  4.84  0.  0.  0.
486  4.85  0.  0.  0.
487  4.86  0.  0.  0.
488  4.87  0.  0.  0.
489  4.88  0.  0.  0.
490  4.89  0.  0.  0.
491  4.90  0.  0.  0.
492  4.91  0.  0.  0.
493  4.92  0.  0.  0.
494  4.93  0.  0.  0.
495  4.94  0.  0.  0.
496  4.95  0.  0.  0.
497  4.96  0.  0.  0.
498  4.97  0.  0.  0.
499  4.98  0.  0.  0.
500  4.99  0.  0.  0.
501  5.00  0.  0.  0.
502  5.01  0.  0.  0.
503  5.02  0.  0.  0.
504  5.03  0.  0.  0.
505  5.04  0.  0.  0.
506  5.05  0.  0.  0.
507  5.06  0.  0.  0.
508  5.07  0.  0.  0.
509  5.08  0.  0.  0.
510  5.09  0.  0.  0.
511  5.10  0.  0.  0.
512  5.11  0.  0.  0.
513  5.12  0.  0.  0.
514  5.13  0.  0.  0.
515  5.14  0.  0.  0.
516  5.15  0.  0.  0.
517  5.16  0.  0.  0.
518  5.17  0.  0.  0.
519  5.18  0.  0.  0.
520  5.19  0.  0.  0.
521  5.20  0.  0.  0.
522  5.21  0.  0.  0.
523  5.22  0.  0.  0.
524  5.23  0.  0.  0.
525  5.24  0.  0.  0.
526  5.25  0.  0.  0.
527  5.26  0.  0.  0.
528  5.27  0.  0.  0.
529  5.28  0.  0.  0.
530  5.29  0.  0.  0.
531  5.30  0.  0.  0.
532  5.31  0.  0.  0.
533  5.32  0.  0.  0.
534  5.33  0.  0.  0.
535  5.34  0.  0.  0.
536  5.35  0.  0.  0.
537  5.36  0.  0.  0.
538  5.37  0.  0.  0.
539  5.38  0.  0.  0.
540  5.39  0.  0.  0.
541  5.40  0.  0.  0.
542  5.41  0.  0.  0.
543  5.42  0.  0.  0.
544  5.43  0.  0.  0.
545  5.44  0.  0.  0.
546  5.45  0.  0.  0.
547  5.46  0.  0.  0.
548  5.47  0.  0.  0.
549  5.48  0.  0.  0.
550  5.49  0.  0.  0.
551  5.50  0.  0.  0.
552  5.51  0.  0.  0.
553  5.52  0.  0.  0.
554  5.53  0.  0.  0.
555  5.54  0.  0.  0.
556  5.55  0.  0.  0.
557  5.56  0.  0.  0.
558  5.57  0.  0.  0.
559  5.58  0.  0.  0.
560  5.59  0.  0.  0.
561  5.60  0.  0.  0.
562  5.61  0.  0.  0.
563  5.62  0.  0.  0.
564  5.63  0.  0.  0.
565  5.64  0.  0.  0.
566  5.65  0.  0.  0.
567  5.66  0.  0.  0.
568  5.67  0.  0.  0.
569  5.68  0.  0.  0.
570  5.69  0.  0.  0.
571  5.70  0.  0.  0.
572  5.71  0.  0.  0.
573  5.72  0.  0.  0.
574  5.73  0.  0.  0.
575  5.74  0.  0.  0.
576  5.75  0.  0.  0.
577  5.76  0.  0.  0.
578  5.77  0.  0.  0.
579  5.78  0.  0.  0.
580  5.79  0.  0.  0.
581  5.80  0.  0.  0.
582  5.81  0.  0.  0.
583  5.82  0.  0.  0.
584  5.83  0.  0.  0.
585  5.84  0.  0.  0.
586  5.85  0.  0.  0.
587  5.86  0.  0.  0.
588  5.87  0.  0.  0.
589  5.88  0.  0.  0.
590  5.89  0.  0.  0.
591  5.90  0.  0.  0.
592  5.91  0.  0.  0.
593  5.92  0.  0.  0.
594  5.93  0.  0.  0.
595  5.94  0.  0.  0.
596  5.95  0.  0.  0.
597  5.96  0.  0.  0.
598  5.97  0.  0.  0.
599  5.98  0.  0.  0.
600  5.99  0.  0.  0.
1                        -9.5090051126475E+00 -4.4556095373038E-01
1  0.0000000000000E+00  2.5887160193250E-09  4.1511156012586E-08
2  1.0000000000000E-02  2.6255139189532E-03  6.1506093210979E-03
3  2.0000000000000E-02  1.0484389977601E-02  2.4500044380870E-02
4  3.0000000000000E-02  2.3523774972244E-02  5.4742685800297E-02
5  4.0000000000000E-02  4.1656058439712E-02  9.6374342280307E-02
6  5.0000000000000E-02  6.4759584994847E-02  1.4869993040569E-01
7  6.0000000000000E-02  9.2679641709354E-02  2.1084406420217E-01
8  7.0000000000000E-02  1.2522971077859E-01  2.8176439511481E-01
9  8.0000000000000E-02  1.6219297513405E-01  3.6026750156482E-01
10  9.0000000000000E-02  2.0332406221551E-01  4.4502708866914E-01
11  1.0000000000000E-01  2.4835100884556E-01  5.3460422365027E-01
12  1.1000000000000E-01  2.9697742807658E-01  6.2746930145277E-01
13  1.2000000000000E-01  3.4888485702935E-01  7.2202540859324E-01
14  1.3000000000000E-01  4.0373526313275E-01  8.1663273172038E-01
15  1.4000000000000E-01  4.6117368482256E-01  9.0963364110087E-01
16  1.5000000000000E-01  5.2083098167830E-01  9.9937806854683E-01
17  1.6000000000000E-01  5.8232666817800E-01  1.0842487943637E+00
18  1.7000000000000E-01  6.4527180474055E-01  1.1626862588318E+00
19  1.8000000000000E-01  7.0927191950364E-01  1.2332125205699E+00
20  1.9000000000000E-01  7.7392993435286E-01  1.2944539967994E+00
21  2.0000000000000E-01  8.3884906906778E-01  1.3451626388819E+00
22  2.1000000000000E-01  9.0363569807657E-01  1.3842352202901E+00
23  2.2000000000000E-01  9.6790213519877E-01  1.4107304430721E+00
24  2.3000000000000E-01  1.0312693228930E+00  1.4238836024449E+00
25  2.4000000000000E-01  1.0933694038921E+00  1.4231185869251E+00
26  2.5000000000000E-01  1.1538481546869E+00  1.4080570327844E+00
27  2.6000000000000E-01  1.2123672620812E+00  1.3785244959725E+00
28  2.7000000000000E-01  1.2686064259695E+00  1.3345535512821E+00
29  2.8000000000000E-01  1.3222652735534E+00  1.2763837766962E+00
30  2.9000000000000E-01  1.3730650723833E+00  1.2044586297794E+00
31  3.0000000000000E-01  1.4207502318711E+00  1.1194192718534E+00
32  3.1000000000000E-01  1.4650895852268E+00  1.0220954437281E+00
33  3.2000000000000E-01  1.5058774461087E+00  9.1349354313831E-01
34  3.3000000000000E-01  1.5429344366090E+00  7.9478209799205E-01
35  3.4000000000000E-01  1.5761080855023E+00  6.6727487031286E-01
36  3.5000000000000E-01  1.6052731979340E+00  5.3241186267687E-01
37  3.6000000000000E-01  1.6303319998966E+00  3.9173853135855E-01
38  3.7000000000000E-01  1.6512140629127E+00  2.4688353776116E-01
39  3.8000000000000E-01  1.6678760162895E+00  9.9535391541987E-02
40  3.9000000000000E-01  1.6803010561200E+00 -4.8581645224890E-02
41  4.0000000000000E-01  1.6884982618528E+00 -1.9573201374665E-01
42  4.1000000000000E-01  1.6925017327372E+00 -3.4019329154896E-01
43  4.2000000000000E-01  1.6923695577475E+00 -4.8028022329815E-01
44  4.3000000000000E-01  1.6881826337020E+00 -6.1436797914913E-01
45  4.4000000000000E-01  1.6800433472071E+00 -7.4091428580090E-01
46  4.5000000000000E-01  1.6680741367761E+00 -8.5848009675036E-01
47  4.6000000000000E-01  1.6524159519870E+00 -9.6574849501071E-01
48  4.7000000000000E-01  1.6332266268729E+00 -1.0615415533228E+00
49  4.8000000000000E-01  1.6106791848626E+00 -1.1448349130524E+00
50  4.9000000000000E-01  1.5849600925386E+00 -1.2147698828846E+00
51  5.0000000000000E-01  1.5562674792464E+00 -1.2706629013716E+00
52  5.1000000000000E-01  1.5248093391917E+00 -1.3120122526006E+00
53  5.2000000000000E-01  1.4908017321074E+00 -1.3385019709069E+00
54  5.3000000000000E-01  1.4544669978833E+00 -1.3500029178411E+00
55  5.4000000000000E-01  1.4160319997263E+00 -1.3465710616728E+00
56  5.5000000000000E-01  1.3757264094899E+00 -1.3284430357496E+00
57  5.6000000000000E-01  1.3337810477857E+00 -1.2960290962256E+00
58  5.7000000000000E-01  1.2904262903808E+00 -1.2499036412794E+00
59  5.8000000000000E-01  1.2458905512186E+00 -1.1907934922325E+00
60  5.9000000000000E-01  1.2003988511854E+00 -1.1195641713234E+00
61  6.0000000000000E-01  1.1541714804973E+00 -1.0372044407262E+00
62  6.1000000000000E-01  1.1074227613245E+00 -9.4480939223238E-01
63  6.2000000000000E-01  1.0603599160087E+00 -8.4356239647141E-01
64  6.3000000000000E-01  1.0131820449806E+00 -7.3471623432679E-01
65  6.4000000000000E-01  9.6607921726946E-01 -6.1957374114206E-01
66  6.5000000000000E-01  9.1923167531044E-01 -4.9946829631606E-01
67  6.6000000000000E-01  8.7280915462837E-01 -3.7574448699864E-01
68  6.7000000000000E-01  8.2697031790119E-01 -2.4973926494344E-01
69  6.8000000000000E-01  7.8186230190182E-01 -1.2276390039265E-01
70  6.9000000000000E-01  7.3762037488517E-01  3.9129835144620E-03
71  7.0000000000000E-01  6.9436770113440E-01  1.2908103747971E-01
72  7.1000000000000E-01  6.5221520861134E-01  2.5160224505102E-01
73  7.2000000000000E-01  6.1126155497351E-01  3.7042321817774E-01
74  7.3000000000000E-01  5.7159318662526E-01  4.8458556985629E-01
75  7.4000000000000E-01  5.3328448496466E-01  5.9323424307814E-01
76  7.5000000000000E-01  4.9639799356965E-01  6.9562371567385E-01
77  7.6000000000000E-01  4.6098471973545E-01  7.9112204200873E-01
78  7.7000000000000E-01  4.2708450352779E-01  8.7921273408629E-01
79  7.8000000000000E-01  3.9472644734986E-01  9.5949452572480E-01
80  7.9000000000000E-01  3.6392939893090E-01  1.0316791033720E+00
81  8.0000000000000E-01  3.3470248062712E-01  1.0955869251256E+00
82  8.1000000000000E-01  3.0704565797510E-01  1.1511412849910E+00
83  8.2000000000000E-01  2.8095034054938E-01  1.1983608117366E+00
84  8.3000000000000E-01  2.5640000834376E-01  1.2373506203777E+00
85  8.4000000000000E-01  2.3337085711307E-01  1.2682923588660E+00
86  8.5000000000000E-01  2.1183245637433E-01  1.2914334126157E+00
87  8.6000000000000E-01  1.9174841406549E-01  1.3070755447490E+00
88  8.7000000000000E-01  1.7307704219156E-01  1.3155632602035E+00
89  8.8000000000000E-01  1.5577201814553E-01  1.3172721869859E+00
90  8.9000000000000E-01  1.3978303676886E-01  1.3125977678658E+00
91  9.0000000000000E-01  1.2505644860888E-01  1.3019445507443E+00
92  9.1000000000000E-01  1.1153588023197E-01  1.2857163559721E+00
93  9.2000000000000E-01  9.9162832858055E-02  1.2643075842712E+00
94  9.3000000000000E-01  8.7877255987879E-02  1.2380959099578E+00
95  9.4000000000000E-01  7.7618093097330E-02  1.2074365812765E+00
96  9.5000000000000E-01  6.8323796867252E-02  1.1726585232963E+00
97  9.6000000000000E-01  5.9932811800842E-02  1.1340624095065E+00
98  9.7000000000000E-01  5.2384022450307E-02  1.0919208365593E+00
99  9.8000000000000E-01  4.5617165827815E-02  1.0464807031195E+00
100  9.9000000000000E-01  3.9573206910919E-02  9.9796785913518E-01
101  1.0000000000000E+00  3.4194676467872E-02  9.4659405668020E-01
102  1.0100000000000E+00  2.9425970722762E-02  8.9256619844000E-01
103  1.0200000000000E+00  2.5213612652898E-02  8.3609784556743E-01
104  1.0300000000000E+00  2.1506474961282E-02  7.7742291362239E-01
105  1.0400000000000E+00  1.8255964994730E-02  7.1681145417788E-01
106  1.0500000000000E+00  1.5416172083618E-02  6.5458739092835E-01
107  1.0600000000000E+00  1.2943977961889E-02  5.9114805332426E-01
108  1.0700000000000E+00  1.0799131086671E-02  5.2698532816226E-01
109  1.0800000000000E+00  8.9442858153976E-03  4.6270823064754E-01
110  1.0900000000000E+00  7.3450074964083E-03  3.9906669002971E-01
111  1.1000000000000E+00  5.9697449359023E-03  3.3697618591192E-01
112  1.1100000000000E+00  4.7897707443307E-03  2.7754336895191E-01
113  1.1200000000000E+00  3.7792706408291E-03  2.2201278439146E-01
114  1.1300000000000E+00  2.9159877305982E-03  1.7150272091122E-01
115  1.1400000000000E+00  2.1817292181119E-03  1.2689295401434E-01
116  1.1500000000000E+00  1.5616981616407E-03  8.8670682240701E-02
117  1.1600000000000E+00  1.0447886497793E-03  5.7063670683065E-02
118  1.1700000000000E+00  6.2715245566419E-04  3.2486241898409E-02
119  1.1800000000000E+00  3.0989535983060E-04  1.5016062665173E-02
120  1.1900000000000E+00  9.8456807193670E-05  4.4044110775225E-03
121  1.2000000000000E+00  5.6108172970026E-06  2.2712364340501E-04
122  1.2100000000000E+00  1.0084689213139E-07  4.1241548380424E-06
123  1.2200000000000E+00 -8.7446325745158E-08 -3.7257734159487E-06
124  1.23 -0. -0.
125  1.24  0.  0.
126  1.25  0.  0.
127  1.26  0.  0.
128  1.27  0.  0.
129  1.28  0.  0.
130  1.29  0.  0.
131  1.30  0.  0.
132  1.31  0.  0.
133  1.32  0.  0.