Sg    ONCVPSP-4.0.1  r_core=   1.20244   1.20244   1.20244   1.20244
106.0000     46.0000      220316    zatom,zion,pspd
8      11   3     4   600     0    pspcod,pspxc,lmax,lloc,mmax,r2well
5.99000000  5.00000000  0.00000000    rchrg fchrg qchrg
3     2     2     2     0    nproj
1     1           extension_switch
0                        -1.0932206327553E+01  9.1060643287614E+00 -2.0161671252757E-01
1  0.0000000000000E+00  3.4031899520670E-10 -7.7035642309653E-09 -6.6087521344294E-08
2  1.0000000000000E-02  6.7205476029636E-02  1.6819971981917E-01 -9.0890606799177E-02
3  2.0000000000000E-02  1.3429723115389E-01  3.3493853121137E-01 -1.8046623937734E-01
4  3.0000000000000E-02  2.0116153140130E-01  4.9877010235848E-01 -2.6742433357945E-01
5  4.0000000000000E-02  2.6768462151775E-01  6.5827708937163E-01 -3.5048731625563E-01
6  5.0000000000000E-02  3.3375272636078E-01  8.1208521900832E-01 -4.2841550895810E-01
7  6.0000000000000E-02  3.9925206649032E-01  9.5887688339974E-01 -5.0002046931427E-01
8  7.0000000000000E-02  4.6406889228212E-01  1.0974040932462E+00 -5.6417883204148E-01
9  8.0000000000000E-02  5.2808954054920E-01  1.2265006436426E+00 -6.1984664548142E-01
10  9.0000000000000E-02  5.9120051724162E-01  1.3450933561806E+00 -6.6607412392328E-01
11  1.0000000000000E-01  6.5328860930977E-01  1.4522122721427E+00 -7.0202065502762E-01
12  1.1000000000000E-01  7.1424102827044E-01  1.5469996843406E+00 -7.2696981993327E-01
13  1.2000000000000E-01  7.7394558741585E-01  1.6287179093102E+00 -7.4034410584648E-01
14  1.3000000000000E-01  8.3229091396281E-01  1.6967557170074E+00 -7.4171892176156E-01
15  1.4000000000000E-01  8.8916669676329E-01  1.7506333516709E+00 -7.3083547184677E-01
16  1.5000000000000E-01  9.4446396949899E-01  1.7900060949243E+00 -7.0761200183375E-01
17  1.6000000000000E-01  9.9807542857280E-01  1.8146663402775E+00 -6.7215291472721E-01
18  1.7000000000000E-01  1.0498957842014E+00  1.8245441667082E+00 -6.2475525563198E-01
19  1.8000000000000E-01  1.0998221425163E+00  1.8197064177263E+00 -5.6591209290384E-01
20  1.9000000000000E-01  1.1477544158109E+00  1.8003543109742E+00 -4.9631237446067E-01
21  2.0000000000000E-01  1.1935957574318E+00  1.7668196217462E+00 -4.1683691315270E-01
22  2.1000000000000E-01  1.2372530172297E+00  1.7195595015395E+00 -3.2855025171238E-01
23  2.2000000000000E-01  1.2786372129516E+00  1.6591500096178E+00 -2.3268827300645E-01
24  2.3000000000000E-01  1.3176640124952E+00  1.5862784513201E+00 -1.3064155123689E-01
25  2.4000000000000E-01  1.3542542215600E+00  1.5017346312277E+00 -2.3934579669868E-02
26  2.5000000000000E-01  1.3883342709305E+00  1.4064011420873E+00  8.5798844886029E-02
27  2.6000000000000E-01  1.4198366974110E+00  1.3012428213723E+00  1.9684365700717E-01
28  2.7000000000000E-01  1.4487006123162E+00  1.1872955163604E+00  3.0743441642182E-01
29  2.8000000000000E-01  1.4748721514020E+00  1.0656543054796E+00  4.1578837606571E-01
30  2.9000000000000E-01  1.4983049001957E+00  9.3746132830556E-01  5.2013993411700E-01
31  3.0000000000000E-01  1.5189602888626E+00  8.0389337891934E-01  6.1877559713804E-01
32  3.1000000000000E-01  1.5368079510115E+00  6.6614941732527E-01  7.1006852623920E-01
33  3.2000000000000E-01  1.5518260412053E+00  5.2543815130368E-01  7.9251171353833E-01
34  3.3000000000000E-01  1.5640015063828E+00  3.8296583649322E-01  8.6474884421231E-01
35  3.4000000000000E-01  1.5733303069177E+00  2.3992443577048E-01  9.2560194096058E-01
36  3.5000000000000E-01  1.5798175836293E+00  9.7480270267318E-02  9.7409496231345E-01
37  3.6000000000000E-01  1.5834777677001E+00 -4.3236716171709E-02  1.0094726321491E+00
38  3.7000000000000E-01  1.5843346311432E+00 -1.8114296941715E-01  1.0312139120257E+00
39  3.8000000000000E-01  1.5824212761849E+00 -3.1521051815677E-01  1.0390396863043E+00
40  3.9000000000000E-01  1.5777800626654E+00 -4.4447526598412E-01  1.0329144072968E+00
41  4.0000000000000E-01  1.5704624733084E+00 -5.6804431607531E-01  1.0130416377587E+00
42  4.1000000000000E-01  1.5605289174526E+00 -6.8510227780594E-01  9.7985362423290E-01
43  4.2000000000000E-01  1.5480484745548E+00 -7.9491652056681E-01  9.3399522997150E-01
44  4.3000000000000E-01  1.5330985794713E+00 -8.9684135579581E-01  8.7630274320328E-01
45  4.4000000000000E-01  1.5157646521672E+00 -9.9032114356801E-01  8.0777824834383E-01
46  4.5000000000000E-01  1.4961396751026E+00 -1.0748923347041E+00  7.2956039776306E-01
47  4.6000000000000E-01  1.4743237220801E+00 -1.1501844730273E+00  6.4289254403565E-01
48  4.7000000000000E-01  1.4504234428054E+00 -1.2159201949068E+00  5.4908928224966E-01
49  4.8000000000000E-01  1.4245515078093E+00 -1.2719142743981E+00  4.4950250510467E-01
50  4.9000000000000E-01  1.3968260186954E+00 -1.3180717719859E+00  3.4548808771308E-01
51  5.0000000000000E-01  1.3673698889208E+00 -1.3543853530694E+00  2.3837429312005E-01
52  5.1000000000000E-01  1.3363102004743E+00 -1.3809318488356E+00  1.2943292400492E-01
53  5.2000000000000E-01  1.3037775419043E+00 -1.3978681370562E+00  1.9854142708586E-02
54  5.3000000000000E-01  1.2699053331553E+00 -1.4054264236276E+00 -8.9274255998838E-02
55  5.4000000000000E-01  1.2348291426139E+00 -1.4039090074427E+00 -1.9698250244075E-01
56  5.5000000000000E-01  1.1986860016421E+00 -1.3936826115272E+00 -3.0242901419104E-01
57  5.6000000000000E-01  1.1616137216960E+00 -1.3751723624370E+00 -4.0490484551453E-01
58  5.7000000000000E-01  1.1237502188989E+00 -1.3488554978443E+00 -5.0383242447348E-01
59  5.8000000000000E-01  1.0852328506696E+00 -1.3152548792245E+00 -5.9875879721195E-01
60  5.9000000000000E-01  1.0461977687048E+00 -1.2749323827688E+00 -6.8934381123530E-01
61  6.0000000000000E-01  1.0067792922889E+00 -1.2284822372787E+00 -7.7534386697203E-01
62  6.1000000000000E-01  9.6710930556414E-01 -1.1765243730399E+00 -8.5659204190208E-01
63  6.2000000000000E-01  9.2731668204547E-01 -1.1196978406885E+00 -9.3297553724532E-01
64  6.3000000000000E-01  8.8752673931447E-01 -1.0586543540378E+00 -1.0044115077702E+00
65  6.4000000000000E-01  8.4786072648251E-01 -9.9405200587114E-01 -1.0708224061189E+00
66  6.5000000000000E-01  8.0843534667871E-01 -9.2654920092433E-01 -1.1321120010081E+00
67  6.6000000000000E-01  7.6936231649839E-01 -8.5679884578458E-01 -1.1881432121800E+00
68  6.7000000000000E-01  7.3074796404385E-01 -7.8544283126526E-01 -1.2387188441045E+00
69  6.8000000000000E-01  6.9269286690446E-01 -7.1310683900567E-01 -1.2835661969708E+00
70  6.9000000000000E-01  6.5529153115619E-01 -6.4039550059413E-01 -1.3223263908015E+00
71  7.0000000000000E-01  6.1863211221231E-01 -5.6788793438548E-01 -1.3545490615144E+00
72  7.1000000000000E-01  5.8279617812459E-01 -4.9613368232988E-01 -1.3796928827195E+00
73  7.2000000000000E-01  5.4785851571551E-01 -4.2564906647340E-01 -1.3971321413754E+00
74  7.3000000000000E-01  5.1388697971460E-01 -3.5691398224390E-01 -1.4061693574270E+00
75  7.4000000000000E-01  4.8094238487138E-01 -2.9036914310117E-01 -1.4060536960906E+00
76  7.5000000000000E-01  4.4907844082060E-01 -2.2641378850693E-01 -1.3960046855736E+00
77  7.6000000000000E-01  4.1834172927950E-01 -1.6540386436236E-01 -1.3752405317704E+00
78  7.7000000000000E-01  3.8877172295709E-01 -1.0765068198017E-01 -1.3430101233238E+00
79  7.8000000000000E-01  3.6040084535091E-01 -5.3420058233909E-02 -1.2986276531586E+00
80  7.9000000000000E-01  3.3325457039407E-01 -2.9319357088693E-03 -1.2415086527687E+00
81  8.0000000000000E-01  3.0735156069433E-01  4.3639522559841E-02 -1.1712061484346E+00
82  8.1000000000000E-01  2.8270384287693E-01  8.6165373830630E-02 -1.0874456077700E+00
83  8.2000000000000E-01  2.5931701830506E-01  1.2456088698518E-01 -9.9015735238564E-01
84  8.3000000000000E-01  2.3719050720813E-01  1.5878410490159E-01 -8.7950516796225E-01
85  8.4000000000000E-01  2.1631782400172E-01  1.8883400389780E-01 -7.5590994465468E-01
86  8.5000000000000E-01  1.9668688133779E-01  2.1474828193395E-01 -6.2006732462596E-01
87  8.6000000000000E-01  1.7828032018563E-01  2.3660081286292E-01 -4.7295851398248E-01
88  8.7000000000000E-01  1.6107586301753E-01  2.5449880938464E-01 -3.1585362618608E-01
89  8.8000000000000E-01  1.4504668696569E-01  2.6857974230333E-01 -1.5030715454537E-01
90  8.9000000000000E-01  1.3016181363469E-01  2.7900806800997E-01  2.1854587002931E-02
91  9.0000000000000E-01  1.1638651210357E-01  2.8597181961911E-01  1.9855397327406E-01
92  9.1000000000000E-01  1.0368271153985E-01  2.8967911968799E-01  3.7749021340365E-01
93  9.2000000000000E-01  9.2009419781120E-02  2.9035467376427E-01  5.5617460663876E-01
94  9.3000000000000E-01  8.1323144222073E-02  2.8823630399574E-01  7.3197220087218E-01
95  9.4000000000000E-01  7.1578311382288E-02  2.8357158057231E-01  9.0214900440034E-01
96  9.5000000000000E-01  6.2727681623614E-02  2.7661460577847E-01  1.0639238066949E+00
97  9.6000000000000E-01  5.4722755638674E-02  2.6762300087660E-01  1.2145236226167E+00
98  9.7000000000000E-01  4.7514169542952E-02  2.5685513993045E-01  1.3512417907243E+00
99  9.8000000000000E-01  4.1052075670621E-02  2.4456766707831E-01  1.4714978321103E+00
100  9.9000000000000E-01  3.5286506495144E-02  2.3101332479069E-01  1.5728983112832E+00
101  1.0000000000000E+00  3.0167719464407E-02  2.1643911047151E-01  1.6532981322607E+00
102  1.0100000000000E+00  2.5646520949954E-02  2.0108476758985E-01  1.7108619464495E+00
103  1.0200000000000E+00  2.1674567952413E-02  1.8518160562771E-01  1.7441256368776E+00
104  1.0300000000000E+00  1.8204646670458E-02  1.6895163079645E-01  1.7520581666114E+00
105  1.0400000000000E+00  1.5190927518244E-02  1.5260695702866E-01  1.7341244271630E+00
106  1.0500000000000E+00  1.2589196654930E-02  1.3634945453290E-01  1.6903500833612E+00
107  1.0600000000000E+00  1.0357064556654E-02  1.2037058158431E-01  1.6213897708176E+00
108  1.0700000000000E+00  8.4541526059829E-03  1.0485133452364E-01  1.5286003484171E+00
109  1.0800000000000E+00  6.8422590831655E-03  8.9962241521915E-02  1.4141212269284E+00
110  1.0900000000000E+00  5.4855062925001E-03  7.5863318327779E-02  1.2809641035781E+00
111  1.1000000000000E+00  4.3504711175074E-03  6.2703889659415E-02  1.1331141401711E+00
112  1.1100000000000E+00  3.4063006786831E-03  5.0622205686796E-02  9.7564654098457E-01
113  1.1200000000000E+00  2.6249510946006E-03  3.9740326883714E-02  8.1457696993495E-01
114  1.1300000000000E+00  1.9817518144103E-03  3.0148608339444E-02  6.5593391760799E-01
115  1.1400000000000E+00  1.4557467788822E-03  2.1901373661876E-02  5.0528614616979E-01
116  1.1500000000000E+00  1.0262306533600E-03  1.5027659015107E-02  3.6756027776044E-01
117  1.1600000000000E+00  6.7514671468735E-04  9.5324040088160E-03  2.4695435227824E-01
118  1.1700000000000E+00  3.9815677003751E-04  5.3695189338688E-03  1.4724651685798E-01
119  1.1800000000000E+00  1.9321385064919E-04  2.4654224378406E-03  7.1542734006159E-02
120  1.1900000000000E+00  6.0300918802410E-05  7.2128198658689E-04  2.2145848758138E-02
121  1.2000000000000E+00  3.3771341460739E-06  3.7231477753174E-05  1.2151934449647E-03
122  1.2100000000000E+00  6.0627398418883E-08  6.7661488950182E-07  2.2013131680295E-05
123  1.2200000000000E+00 -5.2971156473544E-08 -6.1117995719159E-07 -1.9362926928434E-05
124  1.23 -0.  0.  0.
125  1.24  0.  0.  0.
126  1.25  0.  0.  0.
127  1.26  0.  0.  0.
128  1.27  0.  0.  0.
129  1.28  0.  0.  0.
130  1.29  0.  0.  0.
131  1.30  0.  0.  0.
132  1.31  0.  0.  0.
133  1.32  0.  0.  0.
134  1.33  0.  0.  0.
135  1.34  0.  0.  0.
136  1.35  0.  0.  0.
137  1.36  0.  0.  0.
138  1.37  0.  0.  0.
139  1.38  0.  0.  0.
140  1.39  0.  0.  0.
141  1.40  0.  0.  0.
142  1.41  0.  0.  0.
143  1.42  0.  0.  0.
144  1.43  0.  0.  0.
145  1.44  0.  0.  0.
146  1.45  0.  0.  0.
147  1.46  0.  0.  0.
148  1.47  0.  0.  0.
149  1.48  0.  0.  0.
150  1.49  0.  0.  0.
151  1.50  0.  0.  0.
152  1.51  0.  0.  0.
153  1.52  0.  0.  0.
154  1.53  0.  0.  0.
155  1.54  0.  0.  0.
156  1.55  0.  0.  0.
157  1.56  0.  0.  0.
158  1.57  0.  0.  0.
159  1.58  0.  0.  0.
160  1.59  0.  0.  0.
161  1.60  0.  0.  0.
162  1.61  0.  0.  0.
163  1.62  0.  0.  0.
164  1.63  0.  0.  0.
165  1.64  0.  0.  0.
166  1.65  0.  0.  0.
167  1.66  0.  0.  0.
168  1.67  0.  0.  0.
169  1.68  0.  0.  0.
170  1.69  0.  0.  0.
171  1.70  0.  0.  0.
172  1.71  0.  0.  0.
173  1.72  0.  0.  0.
174  1.73  0.  0.  0.
175  1.74  0.  0.  0.
176  1.75  0.  0.  0.
177  1.76  0.  0.  0.
178  1.77  0.  0.  0.
179  1.78  0.  0.  0.
180  1.79  0.  0.  0.
181  1.80  0.  0.  0.
182  1.81  0.  0.  0.
183  1.82  0.  0.  0.
184  1.83  0.  0.  0.
185  1.84  0.  0.  0.
186  1.85  0.  0.  0.
187  1.86  0.  0.  0.
188  1.87  0.  0.  0.
189  1.88  0.  0.  0.
190  1.89  0.  0.  0.
191  1.90  0.  0.  0.
192  1.91  0.  0.  0.
193  1.92  0.  0.  0.
194  1.93  0.  0.  0.
195  1.94  0.  0.  0.
196  1.95  0.  0.  0.
197  1.96  0.  0.  0.
198  1.97  0.  0.  0.
199  1.98  0.  0.  0.
200  1.99  0.  0.  0.
201  2.00  0.  0.  0.
202  2.01  0.  0.  0.
203  2.02  0.  0.  0.
204  2.03  0.  0.  0.
205  2.04  0.  0.  0.
206  2.05  0.  0.  0.
207  2.06  0.  0.  0.
208  2.07  0.  0.  0.
209  2.08  0.  0.  0.
210  2.09  0.  0.  0.
211  2.10  0.  0.  0.
212  2.11  0.  0.  0.
213  2.12  0.  0.  0.
214  2.13  0.  0.  0.
215  2.14  0.  0.  0.
216  2.15  0.  0.  0.
217  2.16  0.  0.  0.
218  2.17  0.  0.  0.
219  2.18  0.  0.  0.
220  2.19  0.  0.  0.
221  2.20  0.  0.  0.
222  2.21  0.  0.  0.
223  2.22  0.  0.  0.
224  2.23  0.  0.  0.
225  2.24  0.  0.  0.
226  2.25  0.  0.  0.
227  2.26  0.  0.  0.
228  2.27  0.  0.  0.
229  2.28  0.  0.  0.
230  2.29  0.  0.  0.
231  2.30  0.  0.  0.
232  2.31  0.  0.  0.
233  2.32  0.  0.  0.
234  2.33  0.  0.  0.
235  2.34  0.  0.  0.
236  2.35  0.  0.  0.
237  2.36  0.  0.  0.
238  2.37  0.  0.  0.
239  2.38  0.  0.  0.
240  2.39  0.  0.  0.
241  2.40  0.  0.  0.
242  2.41  0.  0.  0.
243  2.42  0.  0.  0.
244  2.43  0.  0.  0.
245  2.44  0.  0.  0.
246  2.45  0.  0.  0.
247  2.46  0.  0.  0.
248  2.47  0.  0.  0.
249  2.48  0.  0.  0.
250  2.49  0.  0.  0.
251  2.50  0.  0.  0.
252  2.51  0.  0.  0.
253  2.52  0.  0.  0.
254  2.53  0.  0.  0.
255  2.54  0.  0.  0.
256  2.55  0.  0.  0.
257  2.56  0.  0.  0.
258  2.57  0.  0.  0.
259  2.58  0.  0.  0.
260  2.59  0.  0.  0.
261  2.60  0.  0.  0.
262  2.61  0.  0.  0.
263  2.62  0.  0.  0.
264  2.63  0.  0.  0.
265  2.64  0.  0.  0.
266  2.65  0.  0.  0.
267  2.66  0.  0.  0.
268  2.67  0.  0.  0.
269  2.68  0.  0.  0.
270  2.69  0.  0.  0.
271  2.70  0.  0.  0.
272  2.71  0.  0.  0.
273  2.72  0.  0.  0.
274  2.73  0.  0.  0.
275  2.74  0.  0.  0.
276  2.75  0.  0.  0.
277  2.76  0.  0.  0.
278  2.77  0.  0.  0.
279  2.78  0.  0.  0.
280  2.79  0.  0.  0.
281  2.80  0.  0.  0.
282  2.81  0.  0.  0.
283  2.82  0.  0.  0.
284  2.83  0.  0.  0.
285  2.84  0.  0.  0.
286  2.85  0.  0.  0.
287  2.86  0.  0.  0.
288  2.87  0.  0.  0.
289  2.88  0.  0.  0.
290  2.89  0.  0.  0.
291  2.90  0.  0.  0.
292  2.91  0.  0.  0.
293  2.92  0.  0.  0.
294  2.93  0.  0.  0.
295  2.94  0.  0.  0.
296  2.95  0.  0.  0.
297  2.96  0.  0.  0.
298  2.97  0.  0.  0.
299  2.98  0.  0.  0.
300  2.99  0.  0.  0.
301  3.00  0.  0.  0.
302  3.01  0.  0.  0.
303  3.02  0.  0.  0.
304  3.03  0.  0.  0.
305  3.04  0.  0.  0.
306  3.05  0.  0.  0.
307  3.06  0.  0.  0.
308  3.07  0.  0.  0.
309  3.08  0.  0.  0.
310  3.09  0.  0.  0.
311  3.10  0.  0.  0.
312  3.11  0.  0.  0.
313  3.12  0.  0.  0.
314  3.13  0.  0.  0.
315  3.14  0.  0.  0.
316  3.15  0.  0.  0.
317  3.16  0.  0.  0.
318  3.17  0.  0.  0.
319  3.18  0.  0.  0.
320  3.19  0.  0.  0.
321  3.20  0.  0.  0.
322  3.21  0.  0.  0.
323  3.22  0.  0.  0.
324  3.23  0.  0.  0.
325  3.24  0.  0.  0.
326  3.25  0.  0.  0.
327  3.26  0.  0.  0.
328  3.27  0.  0.  0.
329  3.28  0.  0.  0.
330  3.29  0.  0.  0.
331  3.30  0.  0.  0.
332  3.31  0.  0.  0.
333  3.32  0.  0.  0.
334  3.33  0.  0.  0.
335  3.34  0.  0.  0.
336  3.35  0.  0.  0.
337  3.36  0.  0.  0.
338  3.37  0.  0.  0.
339  3.38  0.  0.  0.
340  3.39  0.  0.  0.
341  3.40  0.  0.  0.
342  3.41  0.  0.  0.
343  3.42  0.  0.  0.
344  3.43  0.  0.  0.
345  3.44  0.  0.  0.
346  3.45  0.  0.  0.
347  3.46  0.  0.  0.
348  3.47  0.  0.  0.
349  3.48  0.  0.  0.
350  3.49  0.  0.  0.
351  3.50  0.  0.  0.
352  3.51  0.  0.  0.
353  3.52  0.  0.  0.
354  3.53  0.  0.  0.
355  3.54  0.  0.  0.
356  3.55  0.  0.  0.
357  3.56  0.  0.  0.
358  3.57  0.  0.  0.
359  3.58  0.  0.  0.
360  3.59  0.  0.  0.
361  3.60  0.  0.  0.
362  3.61  0.  0.  0.
363  3.62  0.  0.  0.
364  3.63  0.  0.  0.
365  3.64  0.  0.  0.
366  3.65  0.  0.  0.
367  3.66  0.  0.  0.
368  3.67  0.  0.  0.
369  3.68  0.  0.  0.
370  3.69  0.  0.  0.
371  3.70  0.  0.  0.
372  3.71  0.  0.  0.
373  3.72  0.  0.  0.
374  3.73  0.  0.  0.
375  3.74  0.  0.  0.
376  3.75  0.  0.  0.
377  3.76  0.  0.  0.
378  3.77  0.  0.  0.
379  3.78  0.  0.  0.
380  3.79  0.  0.  0.
381  3.80  0.  0.  0.
382  3.81  0.  0.  0.
383  3.82  0.  0.  0.
384  3.83  0.  0.  0.
385  3.84  0.  0.  0.
386  3.85  0.  0.  0.
387  3.86  0.  0.  0.
388  3.87  0.  0.  0.
389  3.88  0.  0.  0.
390  3.89  0.  0.  0.
391  3.90  0.  0.  0.
392  3.91  0.  0.  0.
393  3.92  0.  0.  0.
394  3.93  0.  0.  0.
395  3.94  0.  0.  0.
396  3.95  0.  0.  0.
397  3.96  0.  0.  0.
398  3.97  0.  0.  0.
399  3.98  0.  0.  0.
400  3.99  0.  0.  0.
401  4.00  0.  0.  0.
402  4.01  0.  0.  0.
403  4.02  0.  0.  0.
404  4.03  0.  0.  0.
405  4.04  0.  0.  0.
406  4.05  0.  0.  0.
407  4.06  0.  0.  0.
408  4.07  0.  0.  0.
409  4.08  0.  0.  0.
410  4.09  0.  0.  0.
411  4.10  0.  0.  0.
412  4.11  0.  0.  0.
413  4.12  0.  0.  0.
414  4.13  0.  0.  0.
415  4.14  0.  0.  0.
416  4.15  0.  0.  0.
417  4.16  0.  0.  0.
418  4.17  0.  0.  0.
419  4.18  0.  0.  0.
420  4.19  0.  0.  0.
421  4.20  0.  0.  0.
422  4.21  0.  0.  0.
423  4.22  0.  0.  0.
424  4.23  0.  0.  0.
425  4.24  0.  0.  0.
426  4.25  0.  0.  0.
427  4.26  0.  0.  0.
428  4.27  0.  0.  0.
429  4.28  0.  0.  0.
430  4.29  0.  0.  0.
431  4.30  0.  0.  0.
432  4.31  0.  0.  0.
433  4.32  0.  0.  0.
434  4.33  0.  0.  0.
435  4.34  0.  0.  0.
436  4.35  0.  0.  0.
437  4.36  0.  0.  0.
438  4.37  0.  0.  0.
439  4.38  0.  0.  0.
440  4.39  0.  0.  0.
441  4.40  0.  0.  0.
442  4.41  0.  0.  0.
443  4.42  0.  0.  0.
444  4.43  0.  0.  0.
445  4.44  0.  0.  0.
446  4.45  0.  0.  0.
447  4.46  0.  0.  0.
448  4.47  0.  0.  0.
449  4.48  0.  0.  0.
450  4.49  0.  0.  0.
451  4.50  0.  0.  0.
452  4.51  0.  0.  0.
453  4.52  0.  0.  0.
454  4.53  0.  0.  0.
455  4.54  0.  0.  0.
456  4.55  0.  0.  0.
457  4.56  0.  0.  0.
458  4.57  0.  0.  0.
459  4.58  0.  0.  0.
460  4.59  0.  0.  0.
461  4.60  0.  0.  0.
462  4.61  0.  0.  0.
463  4.62  0.  0.  0.
464  4.63  0.  0.  0.
465  4.64  0.  0.  0.
466  4.65  0.  0.  0.
467  4.66  0.  0.  0.
468  4.67  0.  0.  0.
469  4.68  0.  0.  0.
470  4.69  0.  0.  0.
471  4.70  0.  0.  0.
472  4.71  0.  0.  0.
473  4.72  0.  0.  0.
474  4.73  0.  0.  0.
475  4.74  0.  0.  0.
476  4.75  0.  0.  0.
477  4.76  0.  0.  0.
478  4.77  0.  0.  0.
479  4.78  0.  0.  0.
480  4.79  0.  0.  0.
481  4.80  0.  0.  0.
482  4.81  0.  0.  0.
483  4.82  0.  0.  0.
484  4.83  0.  0.  0.
485  4.84  0.  0.  0.
486  4.85  0.  0.  0.
487  4.86  0.  0.  0.
488  4.87  0.  0.  0.
489  4.88  0.  0.  0.
490  4.89  0.  0.  0.
491  4.90  0.  0.  0.
492  4.91  0.  0.  0.
493  4.92  0.  0.  0.
494  4.93  0.  0.  0.
495  4.94  0.  0.  0.
496  4.95  0.  0.  0.
497  4.96  0.  0.  0.
498  4.97  0.  0.  0.
499  4.98  0.  0.  0.
500  4.99  0.  0.  0.
501  5.00  0.  0.  0.
502  5.01  0.  0.  0.
503  5.02  0.  0.  0.
504  5.03  0.  0.  0.
505  5.04  0.  0.  0.
506  5.05  0.  0.  0.
507  5.06  0.  0.  0.
508  5.07  0.  0.  0.
509  5.08  0.  0.  0.
510  5.09  0.  0.  0.
511  5.10  0.  0.  0.
512  5.11  0.  0.  0.
513  5.12  0.  0.  0.
514  5.13  0.  0.  0.
515  5.14  0.  0.  0.
516  5.15  0.  0.  0.
517  5.16  0.  0.  0.
518  5.17  0.  0.  0.
519  5.18  0.  0.  0.
520  5.19  0.  0.  0.
521  5.20  0.  0.  0.
522  5.21  0.  0.  0.
523  5.22  0.  0.  0.
524  5.23  0.  0.  0.
525  5.24  0.  0.  0.
526  5.25  0.  0.  0.
527  5.26  0.  0.  0.
528  5.27  0.  0.  0.
529  5.28  0.  0.  0.
530  5.29  0.  0.  0.
531  5.30  0.  0.  0.
532  5.31  0.  0.  0.
533  5.32  0.  0.  0.
534  5.33  0.  0.  0.
535  5.34  0.  0.  0.
536  5.35  0.  0.  0.
537  5.36  0.  0.  0.
538  5.37  0.  0.  0.
539  5.38  0.  0.  0.
540  5.39  0.  0.  0.
541  5.40  0.  0.  0.
542  5.41  0.  0.  0.
543  5.42  0.  0.  0.
544  5.43  0.  0.  0.
545  5.44  0.  0.  0.
546  5.45  0.  0.  0.
547  5.46  0.  0.  0.
548  5.47  0.  0.  0.
549  5.48  0.  0.  0.
550  5.49  0.  0.  0.
551  5.50  0.  0.  0.
552  5.51  0.  0.  0.
553  5.52  0.  0.  0.
554  5.53  0.  0.  0.
555  5.54  0.  0.  0.
556  5.55  0.  0.  0.
557  5.56  0.  0.  0.
558  5.57  0.  0.  0.
559  5.58  0.  0.  0.
560  5.59  0.  0.  0.
561  5.60  0.  0.  0.
562  5.61  0.  0.  0.
563  5.62  0.  0.  0.
564  5.63  0.  0.  0.
565  5.64  0.  0.  0.
566  5.65  0.  0.  0.
567  5.66  0.  0.  0.
568  5.67  0.  0.  0.
569  5.68  0.  0.  0.
570  5.69  0.  0.  0.
571  5.70  0.  0.  0.
572  5.71  0.  0.  0.
573  5.72  0.  0.  0.
574  5.73  0.  0.  0.
575  5.74  0.  0.  0.
576  5.75  0.  0.  0.
577  5.76  0.  0.  0.
578  5.77  0.  0.  0.
579  5.78  0.  0.  0.
580  5.79  0.  0.  0.
581  5.80  0.  0.  0.
582  5.81  0.  0.  0.
583  5.82  0.  0.  0.
584  5.83  0.  0.  0.
585  5.84  0.  0.  0.
586  5.85  0.  0.  0.
587  5.86  0.  0.  0.
588  5.87  0.  0.  0.
589  5.88  0.  0.  0.
590  5.89  0.  0.  0.
591  5.90  0.  0.  0.
592  5.91  0.  0.  0.
593  5.92  0.  0.  0.
594  5.93  0.  0.  0.
595  5.94  0.  0.  0.
596  5.95  0.  0.  0.
597  5.96  0.  0.  0.
598  5.97  0.  0.  0.
599  5.98  0.  0.  0.
600  5.99  0.  0.  0.
1                        -9.5350922842780E+00 -1.4229793006931E-01
1  0.0000000000000E+00  3.1388177057501E-09 -3.4511508956170E-08
2  1.0000000000000E-02  2.6856675603353E-03  1.1210273505451E-03
3  2.0000000000000E-02  1.0723987599798E-02  4.4824089453720E-03
4  3.0000000000000E-02  2.4059073389609E-02  1.0078541145971E-02
5  4.0000000000000E-02  4.2598315941005E-02  1.7898434757245E-02
6  5.0000000000000E-02  6.6213181207300E-02  2.7923324893632E-02
7  6.0000000000000E-02  9.4740313980724E-02  4.0123490571277E-02
8  7.0000000000000E-02  1.2798293650040E-01  5.4454442122243E-02
9  8.0000000000000E-02  1.6571252664899E-01  7.0852669038252E-02
10  9.0000000000000E-02  2.0767075768373E-01  8.9231167900717E-02
11  1.0000000000000E-01  2.5357167876090E-01  1.0947498856702E-01
12  1.1000000000000E-01  3.0310411310606E-01  1.3143704597681E-01
13  1.2000000000000E-01  3.5593424858403E-01  1.5493444439292E-01
14  1.3000000000000E-01  4.1170839365813E-01  1.7974555052080E-01
15  1.4000000000000E-01  4.7005587031506E-01  2.0560803203531E-01
16  1.5000000000000E-01  5.3059201448341E-01  2.3221804923128E-01
17  1.6000000000000E-01  5.9292125379725E-01  2.5923075075323E-01
18  1.7000000000000E-01  6.5664023225257E-01  2.8626218091519E-01
19  1.8000000000000E-01  7.2134095136871E-01  3.1289265750161E-01
20  1.9000000000000E-01  7.8661389789015E-01  3.3867162684155E-01
21  2.0000000000000E-01  8.5205112883019E-01  3.6312394922337E-01
22  2.1000000000000E-01  9.1724928574823E-01  3.8575751426847E-01
23  2.2000000000000E-01  9.8181251154188E-01  4.0607203463648E-01
24  2.3000000000000E-01  1.0453552446976E+00  4.2356881923553E-01
25  2.4000000000000E-01  1.1075048678469E+00  4.3776128569057E-01
26  2.5000000000000E-01  1.1679041895897E+00  4.4818593770742E-01
27  2.6000000000000E-01  1.2262137408327E+00  4.5441350745066E-01
28  2.7000000000000E-01  1.2821138693187E+00  4.5605994712469E-01
29  2.8000000000000E-01  1.3353066185548E+00  4.5279694827942E-01
30  2.9000000000000E-01  1.3855173799439E+00  4.4436167227211E-01
31  3.0000000000000E-01  1.4324963095576E+00  4.3056539076342E-01
32  3.1000000000000E-01  1.4760195036190E+00  4.1130076069640E-01
33  3.2000000000000E-01  1.5158899293651E+00  3.8654749315162E-01
34  3.3000000000000E-01  1.5519381104924E+00  3.5637621870208E-01
35  3.4000000000000E-01  1.5840225688436E+00  3.2095040204587E-01
36  3.5000000000000E-01  1.6120300263229E+00  2.8052621415695E-01
37  3.6000000000000E-01  1.6358753732319E+00  2.3545032916947E-01
38  3.7000000000000E-01  1.6555014112644E+00  1.8615567377533E-01
39  3.8000000000000E-01  1.6708783812743E+00  1.3315521707961E-01
40  3.9000000000000E-01  1.6820032876290E+00  7.7033946649723E-02
41  4.0000000000000E-01  1.6888990324658E+00  1.8439229998619E-02
42  4.1000000000000E-01  1.6916133744739E+00 -4.1930191803501E-02
43  4.2000000000000E-01  1.6902177279308E+00 -1.0333629186686E-01
44  4.3000000000000E-01  1.6848058186215E+00 -1.6501460916698E-01
45  4.4000000000000E-01  1.6754922139671E+00 -2.2618752586955E-01
46  4.5000000000000E-01  1.6624107451852E+00 -2.8607762175850E-01
47  4.6000000000000E-01  1.6457128396043E+00 -3.4392075801703E-01
48  4.7000000000000E-01  1.6255657813683E+00 -3.9897855440132E-01
49  4.8000000000000E-01  1.6021509186895E+00 -4.5054994624787E-01
50  4.9000000000000E-01  1.5756618355681E+00 -4.9798154003721E-01
51  5.0000000000000E-01  1.5463025054842E+00 -5.4067652732918E-01
52  5.1000000000000E-01  1.5142854440059E+00 -5.7810196543209E-01
53  5.2000000000000E-01  1.4798298765531E+00 -6.0979428756152E-01
54  5.3000000000000E-01  1.4431599367234E+00 -6.3536296367832E-01
55  5.4000000000000E-01  1.4045029096352E+00 -6.5449229373012E-01
56  5.5000000000000E-01  1.3640875336900E+00 -6.6694137564604E-01
57  5.6000000000000E-01  1.3221423730085E+00 -6.7254234912041E-01
58  5.7000000000000E-01  1.2788942715771E+00 -6.7119707102074E-01
59  5.8000000000000E-01  1.2345668988557E+00 -6.6287242732003E-01
60  5.9000000000000E-01  1.1893793952633E+00 -6.4759452814145E-01
61  6.0000000000000E-01  1.1435451245970E+00 -6.2544206540552E-01
62  6.1000000000000E-01  1.0972705390466E+00 -5.9653913555652E-01
63  6.2000000000000E-01  1.0507541610832E+00 -5.6104784213482E-01
64  6.3000000000000E-01  1.0041856851118E+00 -5.1916099409812E-01
65  6.4000000000000E-01  9.5774520042619E-01 -4.7109520571883E-01
66  6.5000000000000E-01  9.1160253567724E-01 -4.1708468288891E-01
67  6.6000000000000E-01  8.6591672380316E-01 -3.5737594942396E-01
68  6.7000000000000E-01  8.2083558516053E-01 -2.9222372648146E-01
69  6.8000000000000E-01  7.7649542547011E-01 -2.2188812983190E-01
70  6.9000000000000E-01  7.3302084415135E-01 -1.4663329503665E-01
71  7.0000000000000E-01  6.9052464767945E-01 -6.6727481430400E-02
72  7.1000000000000E-01  6.4910786176737E-01  1.7555355850829E-02
73  7.2000000000000E-01  6.0885983546016E-01  1.0593259861144E-01
74  7.3000000000000E-01  5.6985842963651E-01  1.9810873627855E-01
75  7.4000000000000E-01  5.3217028194770E-01  2.9377006426483E-01
76  7.5000000000000E-01  4.9585113989012E-01  3.9257855057702E-01
77  7.6000000000000E-01  4.6094625350368E-01  4.9416515452668E-01
78  7.7000000000000E-01  4.2749081911596E-01  5.9812291560327E-01
79  7.8000000000000E-01  3.9551046560462E-01  7.0400015443784E-01
80  7.9000000000000E-01  3.6502177482561E-01  8.1129414039050E-01
81  8.0000000000000E-01  3.3603282814256E-01  9.1944558109970E-01
82  8.1000000000000E-01  3.0854377138472E-01  1.0278342781850E+00
83  8.2000000000000E-01  2.8254739104593E-01  1.1357762704578E+00
84  8.3000000000000E-01  2.5802969510095E-01  1.2425227521365E+00
85  8.4000000000000E-01  2.3497049244528E-01  1.3472610097205E+00
86  8.5000000000000E-01  2.1334396564326E-01  1.4491175687866E+00
87  8.6000000000000E-01  1.9311923238122E-01  1.5471636827241E+00
88  8.7000000000000E-01  1.7426089175065E-01  1.6404232313345E+00
89  8.8000000000000E-01  1.5672955221335E-01  1.7278830304579E+00
90  8.9000000000000E-01  1.4048233881054E-01  1.8085054866603E+00
91  9.0000000000000E-01  1.2547337785423E-01  1.8812434658815E+00
92  9.1000000000000E-01  1.1165425796728E-01  1.9450571841411E+00
93  9.2000000000000E-01  9.8974466905360E-02  1.9989328741131E+00
94  9.3000000000000E-01  8.7381804087947E-02  2.0419029356722E+00
95  9.4000000000000E-01  7.6822769177146E-02  2.0730672430927E+00
96  9.5000000000000E-01  6.7242927365981E-02  2.0916152579205E+00
97  9.6000000000000E-01  5.8587252267564E-02  2.0968485856272E+00
98  9.7000000000000E-01  5.0800447431773E-02  2.0882036166358E+00
99  9.8000000000000E-01  4.3827247558328E-02  2.0652739082981E+00
100  9.9000000000000E-01  3.7612700428448E-02  2.0278319935809E+00
101  1.0000000000000E+00  3.2102430448742E-02  1.9758503437672E+00
102  1.0100000000000E+00  2.7242884499795E-02  1.9095212651293E+00
103  1.0200000000000E+00  2.2981560519547E-02  1.8292755716321E+00
104  1.0300000000000E+00  1.9267218941833E-02  1.7357999451369E+00
105  1.0400000000000E+00  1.6050076767668E-02  1.6300529690257E+00
106  1.0500000000000E+00  1.3281983686812E-02  1.5132798980402E+00
107  1.0600000000000E+00  1.0916579306648E-02  1.3870263036028E+00
108  1.0700000000000E+00  8.9094301992540E-03  1.2531508073490E+00
109  1.0800000000000E+00  7.2181451620855E-03  1.1138371831983E+00
110  1.0900000000000E+00  5.8024667797900E-03  9.7160618304008E-01
111  1.1000000000000E+00  4.6243377851332E-03  8.2932722127692E-01
112  1.1100000000000E+00  3.6479384678903E-03  6.9023100324776E-01
113  1.1200000000000E+00  2.8400413413498E-03  5.5777916996732E-01
114  1.1300000000000E+00  2.1713643638406E-03  4.3515260987790E-01
115  1.1400000000000E+00  1.6174573488260E-03  3.2501687257856E-01
116  1.1500000000000E+00  1.1584936169108E-03  2.2921422008819E-01
117  1.1600000000000E+00  7.7939893739200E-04  1.4897978019868E-01
118  1.1700000000000E+00  4.7256366638843E-04  8.5729207303213E-02
119  1.1800000000000E+00  2.3673388404523E-04  4.0093064225955E-02
120  1.1900000000000E+00  7.6465001824232E-05  1.1911750003784E-02
121  1.2000000000000E+00  4.4448504495031E-06  6.2370117237536E-04
122  1.2100000000000E+00  7.9702800306040E-08  1.1315973130196E-05
123  1.2200000000000E+00 -6.8575255160573E-08 -1.0155338402547E-05
124  1.23 -0. -0.
125  1.24  0.  0.
126  1.25  0.  0.
127  1.26  0.  0.
128  1.27  0.  0.
129  1.28  0.  0.
130  1.29  0.  0.
131  1.30  0.  0.
132  1.31  0.  0.
133  1.32  0.  0.