Sg    ONCVPSP-4.0.1  r_core=   1.10583   1.10583   1.10583   1.20244
106.0000     46.0000      220206    zatom,zion,pspd
8      11   3     4   600     0    pspcod,pspxc,lmax,lloc,mmax,r2well
5.99000000  5.00000000  0.00000000    rchrg fchrg qchrg
3     2     2     2     0    nproj
1     1           extension_switch
0                         1.3047925886593E+01 -1.0831332300718E+01 -1.7557385171826E-01
1  0.0000000000000E+00 -1.6835719929276E-08  1.0163675456809E-10  2.5040673090615E-07
2  1.0000000000000E-02  1.8444114209719E-01  6.0865324254154E-02 -9.0095799088944E-02
3  2.0000000000000E-02  3.6714740346162E-01  1.2166209394529E-01 -1.7776620430805E-01
4  3.0000000000000E-02  5.4640392707375E-01  1.8232143913485E-01 -2.6066056338347E-01
5  4.0000000000000E-02  7.2053562018545E-01  2.4277386447687E-01 -3.3657540508193E-01
6  5.0000000000000E-02  8.8792633286867E-01  3.0294894985188E-01 -4.0352234107339E-01
7  6.0000000000000E-02  1.0470372042665E+00  3.6277506694309E-01 -4.5978932655971E-01
8  7.0000000000000E-02  1.1964239190168E+00  4.2217911696064E-01 -5.0399336955198E-01
9  8.0000000000000E-02  1.3347526331551E+00  4.8108629461736E-01 -5.3512302908605E-01
10  9.0000000000000E-02  1.4608143495503E+00  5.3941988332301E-01 -5.5256934354541E-01
11  1.0000000000000E-01  1.5735375473694E+00  5.9710108638471E-01 -5.5614417382761E-01
12  1.1000000000000E-01  1.6719988979160E+00  6.5404889877495E-01 -5.4608532328033E-01
13  1.2000000000000E-01  1.7554319300869E+00  7.1018002374685E-01 -5.2304819701855E-01
14  1.3000000000000E-01  1.8232335422165E+00  7.6540883823426E-01 -4.8808417636964E-01
15  1.4000000000000E-01  1.8749682927017E+00  8.1964741056487E-01 -4.4260629812750E-01
16  1.5000000000000E-01  1.9103704389477E+00  8.7280557353410E-01 -3.8834323096144E-01
17  1.6000000000000E-01  1.9293437321618E+00  9.2479105533207E-01 -3.2728292062393E-01
18  1.7000000000000E-01  1.9319590136201E+00  9.7550967018485E-01 -2.6160761963915E-01
19  1.8000000000000E-01  1.9184496954502E+00  1.0248655698642E+00 -1.9362231467872E-01
20  1.9000000000000E-01  1.8892052448777E+00  1.0727615564411E+00 -1.2567880550797E-01
21  2.0000000000000E-01  1.8447628244410E+00  1.1190994558142E+00 -6.0097864189276E-02
22  2.1000000000000E-01  1.7857972710399E+00  1.1637805506376E+00  9.0799519962952E-04
23  2.2000000000000E-01  1.7131096230753E+00  1.2067060703281E+00  5.5308583183379E-02
24  2.3000000000000E-01  1.6276144266091E+00  1.2477777348441E+00  1.0132444362660E-01
25  2.4000000000000E-01  1.5303260678145E+00  1.2868983479328E+00  1.3748725188085E-01
26  2.5000000000000E-01  1.4223443894894E+00  1.3239724345476E+00  1.6269007178790E-01
27  2.6000000000000E-01  1.3048398537195E+00  1.3589069161636E+00  1.7622563919550E-01
28  2.7000000000000E-01  1.1790385107349E+00  1.3916118167955E+00  1.7781120660439E-01
29  2.8000000000000E-01  1.0462070256226E+00  1.4220009916643E+00  1.6759890937841E-01
30  2.9000000000000E-01  9.0763800006193E-01  1.4499928696982E+00  1.4617108632155E-01
31  3.0000000000000E-01  7.6463580606680E-01  1.4755112003999E+00  1.1452049196383E-01
32  3.1000000000000E-01  6.1850312347585E-01  1.4984857951087E+00  7.4015858484940E-02
33  3.2000000000000E-01  4.7052834344681E-01  1.5188532523253E+00  2.6353784514388E-02
34  3.3000000000000E-01  3.2197396745287E-01  1.5365576565943E+00 -2.6501571954174E-02
35  3.4000000000000E-01  1.7406609636243E-01  1.5515512404457E+00 -8.2389056692744E-02
36  3.5000000000000E-01  2.7985068309631E-02  1.5637949991055E+00 -1.3902899090557E-01
37  3.6000000000000E-01 -1.1514273151181E-01  1.5732592480980E+00 -1.9410686747654E-01
38  3.7000000000000E-01 -2.5425190001381E-01  1.5799241144761E+00 -2.4535933702581E-01
39  3.8000000000000E-01 -3.8834392645747E-01  1.5837799532330E+00 -2.9065939576429E-01
40  3.9000000000000E-01 -5.1649205323365E-01  1.5848276814472E+00 -3.2809764029546E-01
41  4.0000000000000E-01 -6.3784517909629E-01  1.5830790238921E+00 -3.5605651948738E-01
42  4.1000000000000E-01 -7.5163091354579E-01  1.5785566651628E+00 -3.7327469178292E-01
43  4.2000000000000E-01 -8.5715790159181E-01  1.5712943048267E+00 -3.7889888523702E-01
44  4.3000000000000E-01 -9.5381754208456E-01  1.5613366136452E+00 -3.7252105041719E-01
45  4.4000000000000E-01 -1.0410852201436E+00  1.5487390905209E+00 -3.5419908217660E-01
46  4.5000000000000E-01 -1.1185211651613E+00  1.5335678214485E+00 -3.2445995051705E-01
47  4.6000000000000E-01 -1.1857710309271E+00  1.5158991433595E+00 -2.8428470507739E-01
48  4.7000000000000E-01 -1.2425662743762E+00  1.4958192173030E+00 -2.3507548111300E-01
49  4.8000000000000E-01 -1.2887243853284E+00  1.4734235168661E+00 -1.7860531382374E-01
50  4.9000000000000E-01 -1.3241489925559E+00  1.4488162390626E+00 -1.1695223773173E-01
51  5.0000000000000E-01 -1.3488298429665E+00  1.4221096460793E+00 -5.2419783149543E-02
52  5.1000000000000E-01 -1.3628426220806E+00  1.3934233472320E+00  1.2553442350268E-02
53  5.2000000000000E-01 -1.3663485568083E+00  1.3628835312241E+00  7.5491906790316E-02
54  5.3000000000000E-01 -1.3595937172799E+00  1.3306221593011E+00  1.3398547195664E-01
55  5.4000000000000E-01 -1.3429079145302E+00  1.2967761301394E+00  1.8579204208337E-01
56  5.5000000000000E-01 -1.3167030764082E+00  1.2614864272978E+00  2.2893657912696E-01
57  5.6000000000000E-01 -1.2814709762062E+00  1.2248972597939E+00  2.6180253764837E-01
58  5.7000000000000E-01 -1.2377801879131E+00  1.1871552058578E+00  2.8321193950474E-01
59  5.8000000000000E-01 -1.1862721491514E+00  1.1484083691839E+00  2.9249062458322E-01
60  5.9000000000000E-01 -1.1276562278600E+00  1.1088055560665E+00  2.8951567155106E-01
61  6.0000000000000E-01 -1.0627037113891E+00  1.0684954807115E+00  2.7474256927463E-01
62  6.1000000000000E-01 -9.9224066628661E-01  1.0276260047905E+00  2.4921041703122E-01
63  6.2000000000000E-01 -9.1713965273379E-01  9.8634341599440E-01  2.1452421691671E-01
64  6.3000000000000E-01 -8.3831031807958E-01  9.4479174900180E-01  1.7281416783226E-01
65  6.4000000000000E-01 -7.5668893770674E-01  9.0311215093485E-01  1.2667274676925E-01
66  6.5000000000000E-01 -6.7322701680076E-01  8.6144229210097E-01  7.9071237308292E-02
67  6.6000000000000E-01 -5.8887911159668E-01  8.1991582163790E-01  3.3258203815620E-02
68  6.7000000000000E-01 -5.0459007139289E-01  7.7866186664783E-01 -7.3568204195295E-03
69  6.8000000000000E-01 -4.2128194108793E-01  7.3780457255495E-01 -3.9330493598939E-02
70  6.9000000000000E-01 -3.3984079635779E-01  6.9746268178106E-01 -5.9319196827294E-02
71  7.0000000000000E-01 -2.6110380815178E-01  6.5774914742968E-01 -6.4214072953023E-02
72  7.1000000000000E-01 -1.8584684850659E-01  6.1877077851261E-01 -5.1272496840166E-02
73  7.2000000000000E-01 -1.1477295463612E-01  5.8062791335002E-01 -1.8240875796356E-02
74  7.3000000000000E-01 -4.8501962103566E-02  5.4341411811853E-01  3.6536152465852E-02
75  7.4000000000000E-01  1.2438399697349E-02  5.0721590809663E-01  1.1402469492919E-01
76  7.5000000000000E-01  6.7619685408313E-02  4.7211248993679E-01  2.1443277451153E-01
77  7.6000000000000E-01  1.1671796016801E-01  4.3817552424393E-01  3.3716700295326E-01
78  7.7000000000000E-01  1.5951689917232E-01  4.0546890881787E-01  4.8081719563473E-01
79  7.8000000000000E-01  1.9590864228039E-01  3.7404858407314E-01  6.4317038449515E-01
80  7.9000000000000E-01  2.2589234938945E-01  3.4396236332803E-01  8.2125461650841E-01
81  8.0000000000000E-01  2.4957047022858E-01  3.1524979179850E-01  1.0114118104759E+00
82  8.1000000000000E-01  2.6714281188087E-01  2.8794203918245E-01  1.2093978257228E+00
83  8.2000000000000E-01  2.7889855615877E-01  2.6206183161810E-01  1.4105068156485E+00
84  8.3000000000000E-01  2.8520644430106E-01  2.3762342949223E-01  1.6097159397648E+00
85  8.4000000000000E-01  2.8650340574845E-01  2.1463265801152E-01  1.8018456308632E+00
86  8.5000000000000E-01  2.8328195856590E-01  1.9308699759215E-01  1.9817298967397E+00
87  8.6000000000000E-01  2.7607674924225E-01  1.7297574093711E-01  2.1443906109631E+00
88  8.7000000000000E-01  2.6545062729086E-01  1.5428022313862E-01  2.2852094405594E+00
89  8.8000000000000E-01  2.5198066391454E-01  1.3697413025482E-01  2.4000909886278E+00
90  8.9000000000000E-01  2.3624452309571E-01  1.2102389057370E-01  2.4856109067285E+00
91  9.0000000000000E-01  2.1880757749068E-01  1.0638915120921E-01  2.5391431561822E+00
92  9.1000000000000E-01  2.0021113068456E-01  9.3023340809796E-02  2.5589612605359E+00
93  9.2000000000000E-01  1.8096206251790E-01  8.0874317042365E-02  2.5443092754427E+00
94  9.3000000000000E-01  1.6152415671293E-01  6.9885095202090E-02  2.4954392802118E+00
95  9.4000000000000E-01  1.4231130180667E-01  5.9994651858488E-02  2.4136134324222E+00
96  9.5000000000000E-01  1.2368267979478E-01  5.1138794955468E-02  2.3010699815612E+00
97  9.6000000000000E-01  1.0593997465971E-01  4.3251089319312E-02  2.1609540619471E+00
98  9.7000000000000E-01  8.9326548058561E-02  3.6263824176864E-02  1.9972155289456E+00
99  9.8000000000000E-01  7.4028445087844E-02  3.0109007131533E-02  1.8144775119652E+00
100  9.9000000000000E-01  6.0177012385012E-02  2.4719367167630E-02  1.6178806806319E+00
101  1.0000000000000E+00  4.7852837009144E-02  2.0029347729625E-02  1.4129094056985E+00
102  1.0100000000000E+00  3.7090650391176E-02  1.5976069817458E-02  1.2052069979761E+00
103  1.0200000000000E+00  2.7884789765943E-02  1.2500244408259E-02  1.0003879854157E+00
104  1.0300000000000E+00  2.0194773853944E-02  9.5470143502373E-03  8.0385589274170E-01
105  1.0400000000000E+00  1.3950491502906E-02  7.0666907119003E-03  6.2063551183133E-01
106  1.0500000000000E+00  9.0565766965388E-03  5.0154099992033E-03  4.5522786634429E-01
107  1.0600000000000E+00  5.3845385669761E-03  3.3485353916227E-03  3.1159121406905E-01
108  1.0700000000000E+00  2.8063647331062E-03  2.0324646086024E-03  1.9282041244195E-01
109  1.0800000000000E+00  1.1830968301881E-03  1.0514106120468E-03  1.0115806103720E-01
110  1.0900000000000E+00  3.3189485487893E-04  3.9418822636825E-04  3.8274008912856E-02
111  1.1000000000000E+00  2.8843099534651E-05  5.4297597291475E-05  5.2965826555805E-03
112  1.1100000000000E+00 -7.4921073855357E-07 -2.5870186849782E-06 -2.5350111622103E-04
113  1.1200000000000E+00 -4.4204465546373E-08 -8.0498046768177E-08 -7.8667907547488E-06
114  1.13 -0. -0.  0.
115  1.14  0.  0.  0.
116  1.15  0.  0.  0.
117  1.16  0.  0.  0.
118  1.17  0.  0.  0.
119  1.18  0.  0.  0.
120  1.19  0.  0.  0.
121  1.20  0.  0.  0.
122  1.21  0.  0.  0.
123  1.22  0.  0.  0.
124  1.23  0.  0.  0.
125  1.24  0.  0.  0.
126  1.25  0.  0.  0.
127  1.26  0.  0.  0.
128  1.27  0.  0.  0.
129  1.28  0.  0.  0.
130  1.29  0.  0.  0.
131  1.30  0.  0.  0.
132  1.31  0.  0.  0.
133  1.32  0.  0.  0.
134  1.33  0.  0.  0.
135  1.34  0.  0.  0.
136  1.35  0.  0.  0.
137  1.36  0.  0.  0.
138  1.37  0.  0.  0.
139  1.38  0.  0.  0.
140  1.39  0.  0.  0.
141  1.40  0.  0.  0.
142  1.41  0.  0.  0.
143  1.42  0.  0.  0.
144  1.43  0.  0.  0.
145  1.44  0.  0.  0.
146  1.45  0.  0.  0.
147  1.46  0.  0.  0.
148  1.47  0.  0.  0.
149  1.48  0.  0.  0.
150  1.49  0.  0.  0.
151  1.50  0.  0.  0.
152  1.51  0.  0.  0.
153  1.52  0.  0.  0.
154  1.53  0.  0.  0.
155  1.54  0.  0.  0.
156  1.55  0.  0.  0.
157  1.56  0.  0.  0.
158  1.57  0.  0.  0.
159  1.58  0.  0.  0.
160  1.59  0.  0.  0.
161  1.60  0.  0.  0.
162  1.61  0.  0.  0.
163  1.62  0.  0.  0.
164  1.63  0.  0.  0.
165  1.64  0.  0.  0.
166  1.65  0.  0.  0.
167  1.66  0.  0.  0.
168  1.67  0.  0.  0.
169  1.68  0.  0.  0.
170  1.69  0.  0.  0.
171  1.70  0.  0.  0.
172  1.71  0.  0.  0.
173  1.72  0.  0.  0.
174  1.73  0.  0.  0.
175  1.74  0.  0.  0.
176  1.75  0.  0.  0.
177  1.76  0.  0.  0.
178  1.77  0.  0.  0.
179  1.78  0.  0.  0.
180  1.79  0.  0.  0.
181  1.80  0.  0.  0.
182  1.81  0.  0.  0.
183  1.82  0.  0.  0.
184  1.83  0.  0.  0.
185  1.84  0.  0.  0.
186  1.85  0.  0.  0.
187  1.86  0.  0.  0.
188  1.87  0.  0.  0.
189  1.88  0.  0.  0.
190  1.89  0.  0.  0.
191  1.90  0.  0.  0.
192  1.91  0.  0.  0.
193  1.92  0.  0.  0.
194  1.93  0.  0.  0.
195  1.94  0.  0.  0.
196  1.95  0.  0.  0.
197  1.96  0.  0.  0.
198  1.97  0.  0.  0.
199  1.98  0.  0.  0.
200  1.99  0.  0.  0.
201  2.00  0.  0.  0.
202  2.01  0.  0.  0.
203  2.02  0.  0.  0.
204  2.03  0.  0.  0.
205  2.04  0.  0.  0.
206  2.05  0.  0.  0.
207  2.06  0.  0.  0.
208  2.07  0.  0.  0.
209  2.08  0.  0.  0.
210  2.09  0.  0.  0.
211  2.10  0.  0.  0.
212  2.11  0.  0.  0.
213  2.12  0.  0.  0.
214  2.13  0.  0.  0.
215  2.14  0.  0.  0.
216  2.15  0.  0.  0.
217  2.16  0.  0.  0.
218  2.17  0.  0.  0.
219  2.18  0.  0.  0.
220  2.19  0.  0.  0.
221  2.20  0.  0.  0.
222  2.21  0.  0.  0.
223  2.22  0.  0.  0.
224  2.23  0.  0.  0.
225  2.24  0.  0.  0.
226  2.25  0.  0.  0.
227  2.26  0.  0.  0.
228  2.27  0.  0.  0.
229  2.28  0.  0.  0.
230  2.29  0.  0.  0.
231  2.30  0.  0.  0.
232  2.31  0.  0.  0.
233  2.32  0.  0.  0.
234  2.33  0.  0.  0.
235  2.34  0.  0.  0.
236  2.35  0.  0.  0.
237  2.36  0.  0.  0.
238  2.37  0.  0.  0.
239  2.38  0.  0.  0.
240  2.39  0.  0.  0.
241  2.40  0.  0.  0.
242  2.41  0.  0.  0.
243  2.42  0.  0.  0.
244  2.43  0.  0.  0.
245  2.44  0.  0.  0.
246  2.45  0.  0.  0.
247  2.46  0.  0.  0.
248  2.47  0.  0.  0.
249  2.48  0.  0.  0.
250  2.49  0.  0.  0.
251  2.50  0.  0.  0.
252  2.51  0.  0.  0.
253  2.52  0.  0.  0.
254  2.53  0.  0.  0.
255  2.54  0.  0.  0.
256  2.55  0.  0.  0.
257  2.56  0.  0.  0.
258  2.57  0.  0.  0.
259  2.58  0.  0.  0.
260  2.59  0.  0.  0.
261  2.60  0.  0.  0.
262  2.61  0.  0.  0.
263  2.62  0.  0.  0.
264  2.63  0.  0.  0.
265  2.64  0.  0.  0.
266  2.65  0.  0.  0.
267  2.66  0.  0.  0.
268  2.67  0.  0.  0.
269  2.68  0.  0.  0.
270  2.69  0.  0.  0.
271  2.70  0.  0.  0.
272  2.71  0.  0.  0.
273  2.72  0.  0.  0.
274  2.73  0.  0.  0.
275  2.74  0.  0.  0.
276  2.75  0.  0.  0.
277  2.76  0.  0.  0.
278  2.77  0.  0.  0.
279  2.78  0.  0.  0.
280  2.79  0.  0.  0.
281  2.80  0.  0.  0.
282  2.81  0.  0.  0.
283  2.82  0.  0.  0.
284  2.83  0.  0.  0.
285  2.84  0.  0.  0.
286  2.85  0.  0.  0.
287  2.86  0.  0.  0.
288  2.87  0.  0.  0.
289  2.88  0.  0.  0.
290  2.89  0.  0.  0.
291  2.90  0.  0.  0.
292  2.91  0.  0.  0.
293  2.92  0.  0.  0.
294  2.93  0.  0.  0.
295  2.94  0.  0.  0.
296  2.95  0.  0.  0.
297  2.96  0.  0.  0.
298  2.97  0.  0.  0.
299  2.98  0.  0.  0.
300  2.99  0.  0.  0.
301  3.00  0.  0.  0.
302  3.01  0.  0.  0.
303  3.02  0.  0.  0.
304  3.03  0.  0.  0.
305  3.04  0.  0.  0.
306  3.05  0.  0.  0.
307  3.06  0.  0.  0.
308  3.07  0.  0.  0.
309  3.08  0.  0.  0.
310  3.09  0.  0.  0.
311  3.10  0.  0.  0.
312  3.11  0.  0.  0.
313  3.12  0.  0.  0.
314  3.13  0.  0.  0.
315  3.14  0.  0.  0.
316  3.15  0.  0.  0.
317  3.16  0.  0.  0.
318  3.17  0.  0.  0.
319  3.18  0.  0.  0.
320  3.19  0.  0.  0.
321  3.20  0.  0.  0.
322  3.21  0.  0.  0.
323  3.22  0.  0.  0.
324  3.23  0.  0.  0.
325  3.24  0.  0.  0.
326  3.25  0.  0.  0.
327  3.26  0.  0.  0.
328  3.27  0.  0.  0.
329  3.28  0.  0.  0.
330  3.29  0.  0.  0.
331  3.30  0.  0.  0.
332  3.31  0.  0.  0.
333  3.32  0.  0.  0.
334  3.33  0.  0.  0.
335  3.34  0.  0.  0.
336  3.35  0.  0.  0.
337  3.36  0.  0.  0.
338  3.37  0.  0.  0.
339  3.38  0.  0.  0.
340  3.39  0.  0.  0.
341  3.40  0.  0.  0.
342  3.41  0.  0.  0.
343  3.42  0.  0.  0.
344  3.43  0.  0.  0.
345  3.44  0.  0.  0.
346  3.45  0.  0.  0.
347  3.46  0.  0.  0.
348  3.47  0.  0.  0.
349  3.48  0.  0.  0.
350  3.49  0.  0.  0.
351  3.50  0.  0.  0.
352  3.51  0.  0.  0.
353  3.52  0.  0.  0.
354  3.53  0.  0.  0.
355  3.54  0.  0.  0.
356  3.55  0.  0.  0.
357  3.56  0.  0.  0.
358  3.57  0.  0.  0.
359  3.58  0.  0.  0.
360  3.59  0.  0.  0.
361  3.60  0.  0.  0.
362  3.61  0.  0.  0.
363  3.62  0.  0.  0.
364  3.63  0.  0.  0.
365  3.64  0.  0.  0.
366  3.65  0.  0.  0.
367  3.66  0.  0.  0.
368  3.67  0.  0.  0.
369  3.68  0.  0.  0.
370  3.69  0.  0.  0.
371  3.70  0.  0.  0.
372  3.71  0.  0.  0.
373  3.72  0.  0.  0.
374  3.73  0.  0.  0.
375  3.74  0.  0.  0.
376  3.75  0.  0.  0.
377  3.76  0.  0.  0.
378  3.77  0.  0.  0.
379  3.78  0.  0.  0.
380  3.79  0.  0.  0.
381  3.80  0.  0.  0.
382  3.81  0.  0.  0.
383  3.82  0.  0.  0.
384  3.83  0.  0.  0.
385  3.84  0.  0.  0.
386  3.85  0.  0.  0.
387  3.86  0.  0.  0.
388  3.87  0.  0.  0.
389  3.88  0.  0.  0.
390  3.89  0.  0.  0.
391  3.90  0.  0.  0.
392  3.91  0.  0.  0.
393  3.92  0.  0.  0.
394  3.93  0.  0.  0.
395  3.94  0.  0.  0.
396  3.95  0.  0.  0.
397  3.96  0.  0.  0.
398  3.97  0.  0.  0.
399  3.98  0.  0.  0.
400  3.99  0.  0.  0.
401  4.00  0.  0.  0.
402  4.01  0.  0.  0.
403  4.02  0.  0.  0.
404  4.03  0.  0.  0.
405  4.04  0.  0.  0.
406  4.05  0.  0.  0.
407  4.06  0.  0.  0.
408  4.07  0.  0.  0.
409  4.08  0.  0.  0.
410  4.09  0.  0.  0.
411  4.10  0.  0.  0.
412  4.11  0.  0.  0.
413  4.12  0.  0.  0.
414  4.13  0.  0.  0.
415  4.14  0.  0.  0.
416  4.15  0.  0.  0.
417  4.16  0.  0.  0.
418  4.17  0.  0.  0.
419  4.18  0.  0.  0.
420  4.19  0.  0.  0.
421  4.20  0.  0.  0.
422  4.21  0.  0.  0.
423  4.22  0.  0.  0.
424  4.23  0.  0.  0.
425  4.24  0.  0.  0.
426  4.25  0.  0.  0.
427  4.26  0.  0.  0.
428  4.27  0.  0.  0.
429  4.28  0.  0.  0.
430  4.29  0.  0.  0.
431  4.30  0.  0.  0.
432  4.31  0.  0.  0.
433  4.32  0.  0.  0.
434  4.33  0.  0.  0.
435  4.34  0.  0.  0.
436  4.35  0.  0.  0.
437  4.36  0.  0.  0.
438  4.37  0.  0.  0.
439  4.38  0.  0.  0.
440  4.39  0.  0.  0.
441  4.40  0.  0.  0.
442  4.41  0.  0.  0.
443  4.42  0.  0.  0.
444  4.43  0.  0.  0.
445  4.44  0.  0.  0.
446  4.45  0.  0.  0.
447  4.46  0.  0.  0.
448  4.47  0.  0.  0.
449  4.48  0.  0.  0.
450  4.49  0.  0.  0.
451  4.50  0.  0.  0.
452  4.51  0.  0.  0.
453  4.52  0.  0.  0.
454  4.53  0.  0.  0.
455  4.54  0.  0.  0.
456  4.55  0.  0.  0.
457  4.56  0.  0.  0.
458  4.57  0.  0.  0.
459  4.58  0.  0.  0.
460  4.59  0.  0.  0.
461  4.60  0.  0.  0.
462  4.61  0.  0.  0.
463  4.62  0.  0.  0.
464  4.63  0.  0.  0.
465  4.64  0.  0.  0.
466  4.65  0.  0.  0.
467  4.66  0.  0.  0.
468  4.67  0.  0.  0.
469  4.68  0.  0.  0.
470  4.69  0.  0.  0.
471  4.70  0.  0.  0.
472  4.71  0.  0.  0.
473  4.72  0.  0.  0.
474  4.73  0.  0.  0.
475  4.74  0.  0.  0.
476  4.75  0.  0.  0.
477  4.76  0.  0.  0.
478  4.77  0.  0.  0.
479  4.78  0.  0.  0.
480  4.79  0.  0.  0.
481  4.80  0.  0.  0.
482  4.81  0.  0.  0.
483  4.82  0.  0.  0.
484  4.83  0.  0.  0.
485  4.84  0.  0.  0.
486  4.85  0.  0.  0.
487  4.86  0.  0.  0.
488  4.87  0.  0.  0.
489  4.88  0.  0.  0.
490  4.89  0.  0.  0.
491  4.90  0.  0.  0.
492  4.91  0.  0.  0.
493  4.92  0.  0.  0.
494  4.93  0.  0.  0.
495  4.94  0.  0.  0.
496  4.95  0.  0.  0.
497  4.96  0.  0.  0.
498  4.97  0.  0.  0.
499  4.98  0.  0.  0.
500  4.99  0.  0.  0.
501  5.00  0.  0.  0.
502  5.01  0.  0.  0.
503  5.02  0.  0.  0.
504  5.03  0.  0.  0.
505  5.04  0.  0.  0.
506  5.05  0.  0.  0.
507  5.06  0.  0.  0.
508  5.07  0.  0.  0.
509  5.08  0.  0.  0.
510  5.09  0.  0.  0.
511  5.10  0.  0.  0.
512  5.11  0.  0.  0.
513  5.12  0.  0.  0.
514  5.13  0.  0.  0.
515  5.14  0.  0.  0.
516  5.15  0.  0.  0.
517  5.16  0.  0.  0.
518  5.17  0.  0.  0.
519  5.18  0.  0.  0.
520  5.19  0.  0.  0.
521  5.20  0.  0.  0.
522  5.21  0.  0.  0.
523  5.22  0.  0.  0.
524  5.23  0.  0.  0.
525  5.24  0.  0.  0.
526  5.25  0.  0.  0.
527  5.26  0.  0.  0.
528  5.27  0.  0.  0.
529  5.28  0.  0.  0.
530  5.29  0.  0.  0.
531  5.30  0.  0.  0.
532  5.31  0.  0.  0.
533  5.32  0.  0.  0.
534  5.33  0.  0.  0.
535  5.34  0.  0.  0.
536  5.35  0.  0.  0.
537  5.36  0.  0.  0.
538  5.37  0.  0.  0.
539  5.38  0.  0.  0.
540  5.39  0.  0.  0.
541  5.40  0.  0.  0.
542  5.41  0.  0.  0.
543  5.42  0.  0.  0.
544  5.43  0.  0.  0.
545  5.44  0.  0.  0.
546  5.45  0.  0.  0.
547  5.46  0.  0.  0.
548  5.47  0.  0.  0.
549  5.48  0.  0.  0.
550  5.49  0.  0.  0.
551  5.50  0.  0.  0.
552  5.51  0.  0.  0.
553  5.52  0.  0.  0.
554  5.53  0.  0.  0.
555  5.54  0.  0.  0.
556  5.55  0.  0.  0.
557  5.56  0.  0.  0.
558  5.57  0.  0.  0.
559  5.58  0.  0.  0.
560  5.59  0.  0.  0.
561  5.60  0.  0.  0.
562  5.61  0.  0.  0.
563  5.62  0.  0.  0.
564  5.63  0.  0.  0.
565  5.64  0.  0.  0.
566  5.65  0.  0.  0.
567  5.66  0.  0.  0.
568  5.67  0.  0.  0.
569  5.68  0.  0.  0.
570  5.69  0.  0.  0.
571  5.70  0.  0.  0.
572  5.71  0.  0.  0.
573  5.72  0.  0.  0.
574  5.73  0.  0.  0.
575  5.74  0.  0.  0.
576  5.75  0.  0.  0.
577  5.76  0.  0.  0.
578  5.77  0.  0.  0.
579  5.78  0.  0.  0.
580  5.79  0.  0.  0.
581  5.80  0.  0.  0.
582  5.81  0.  0.  0.
583  5.82  0.  0.  0.
584  5.83  0.  0.  0.
585  5.84  0.  0.  0.
586  5.85  0.  0.  0.
587  5.86  0.  0.  0.
588  5.87  0.  0.  0.
589  5.88  0.  0.  0.
590  5.89  0.  0.  0.
591  5.90  0.  0.  0.
592  5.91  0.  0.  0.
593  5.92  0.  0.  0.
594  5.93  0.  0.  0.
595  5.94  0.  0.  0.
596  5.95  0.  0.  0.
597  5.96  0.  0.  0.
598  5.97  0.  0.  0.
599  5.98  0.  0.  0.
600  5.99  0.  0.  0.
1                        -9.3608511569972E+00 -3.0945032013963E-01
1  0.0000000000000E+00  9.3730536110392E-09 -7.0696424275818E-07
2  1.0000000000000E-02  2.5723242478733E-03 -7.4193890902363E-03
3  2.0000000000000E-02  1.0270129592823E-02 -2.9381588919490E-02
4  3.0000000000000E-02  2.3036165440743E-02 -6.5010986363093E-02
5  4.0000000000000E-02  4.0775846305287E-02 -1.1288866862681E-01
6  5.0000000000000E-02  6.3358477543735E-02 -1.7111128348400E-01
7  6.0000000000000E-02  9.0618927198008E-02 -2.3736991569782E-01
8  7.0000000000000E-02  1.2235970170101E-01 -3.0904563231928E-01
9  8.0000000000000E-02  1.5835337383537E-01 -3.8331764258789E-01
10  9.0000000000000E-02  1.9834530382797E-01 -4.5727948361031E-01
11  1.0000000000000E-01  2.4205658908345E-01 -5.2805830366838E-01
12  1.1000000000000E-01  2.8918717497105E-01 -5.9293218545625E-01
13  1.2000000000000E-01  3.3941905835797E-01 -6.4944053743323E-01
14  1.3000000000000E-01  3.9241951720774E-01 -6.9548287933786E-01
15  1.4000000000000E-01  4.4784430342178E-01 -7.2940184528188E-01
16  1.5000000000000E-01  5.0534074199224E-01 -7.5004690380467E-01
17  1.6000000000000E-01  5.6455068717342E-01 -7.5681612028979E-01
18  1.7000000000000E-01  6.2511329541548E-01 -7.4967422829952E-01
19  1.8000000000000E-01  6.8666758483714E-01 -7.2914629280727E-01
20  1.9000000000000E-01  7.4885476160264E-01 -6.9628729687414E-01
21  2.0000000000000E-01  8.1132030425863E-01 -6.5262901945273E-01
22  2.1000000000000E-01  8.7371580742450E-01 -6.0010655156397E-01
23  2.2000000000000E-01  9.3570059578301E-01 -5.4096767922185E-01
24  2.3000000000000E-01  9.9694312769401E-01 -4.7766910637831E-01
25  2.4000000000000E-01  1.0571222146162E+00 -4.1276406767471E-01
26  2.5000000000000E-01  1.1159280876023E+00 -3.4878626379495E-01
27  2.6000000000000E-01  1.1730633452449E+00 -2.8813522468083E-01
28  2.7000000000000E-01  1.2282438185001E+00 -2.3296815959362E-01
29  2.8000000000000E-01  1.2811993867895E+00 -1.8510308898776E-01
30  2.9000000000000E-01  1.3316747767763E+00 -1.4593758159524E-01
31  3.0000000000000E-01  1.3794303703944E+00 -1.1638675998895E-01
32  3.1000000000000E-01  1.4242430423410E+00 -9.6843416226606E-02
33  3.2000000000000E-01  1.4659070396445E+00 -8.7162129931128E-02
34  3.3000000000000E-01  1.5042349074823E+00 -8.6668243852322E-02
35  3.4000000000000E-01  1.5390584565464E+00 -9.4191470015864E-02
36  3.5000000000000E-01  1.5702297584046E+00 -1.0812281857823E-01
37  3.6000000000000E-01  1.5976221469065E+00 -1.2649250730201E-01
38  3.7000000000000E-01  1.6211311961630E+00 -1.4706556633013E-01
39  3.8000000000000E-01  1.6406756393907E+00 -1.6745104136614E-01
40  3.9000000000000E-01  1.6561981882733E+00 -1.8522005396505E-01
41  4.0000000000000E-01  1.6676662097367E+00 -1.9802752921240E-01
42  4.1000000000000E-01  1.6750722163440E+00 -2.0373216949971E-01
43  4.2000000000000E-01  1.6784341279950E+00 -2.0050925043314E-01
44  4.3000000000000E-01  1.6777952662622E+00 -1.8695104378056E-01
45  4.4000000000000E-01  1.6732240484293E+00 -1.6215012582471E-01
46  4.5000000000000E-01  1.6648133559305E+00 -1.2576149124807E-01
47  4.6000000000000E-01  1.6526795611559E+00 -7.8040237632376E-02
48  4.7000000000000E-01  1.6369612071343E+00 -1.9852580906895E-02
49  4.8000000000000E-01  1.6178173460394E+00  4.7340931846063E-02
50  4.9000000000000E-01  1.5954255543119E+00  1.2152997338977E-01
51  5.0000000000000E-01  1.5699796539856E+00  2.0022552123902E-01
52  5.1000000000000E-01  1.5416871810406E+00  2.8055508593149E-01
53  5.2000000000000E-01  1.5107666518136E+00  3.5937861034746E-01
54  5.3000000000000E-01  1.4774446872131E+00  4.3342061065801E-01
55  5.4000000000000E-01  1.4419530613225E+00  4.9941333844164E-01
56  5.5000000000000E-01  1.4045257455944E+00  5.5424515368705E-01
57  5.6000000000000E-01  1.3653960219891E+00  5.9510793730939E-01
58  5.7000000000000E-01  1.3247937379363E+00  6.1963725808006E-01
59  5.8000000000000E-01  1.2829427728484E+00  6.2603915142698E-01
60  5.9000000000000E-01  1.2400587801314E+00  6.1319776511997E-01
61  6.0000000000000E-01  1.1963472603880E+00  5.8075876786009E-01
62  6.1000000000000E-01  1.1520020110375E+00  5.2918427973638E-01
63  6.2000000000000E-01  1.1072039852514E+00  4.5977613765340E-01
64  6.3000000000000E-01  1.0621205793400E+00  3.7466551531314E-01
65  6.4000000000000E-01  1.0169053530332E+00  2.7676823055636E-01
66  6.5000000000000E-01  9.7169817201778E-01  1.6970644226546E-01
67  6.6000000000000E-01  9.2662574719164E-01  5.7698810913509E-02
68  6.7000000000000E-01  8.8180253095968E-01 -5.4577483380572E-02
69  6.8000000000000E-01  8.3733191806885E-01 -1.6214825741012E-01
70  6.9000000000000E-01  7.9330768749354E-01 -2.5992171005340E-01
71  7.0000000000000E-01  7.4981561318566E-01 -3.4287915295285E-01
72  7.1000000000000E-01  7.0693516547595E-01 -4.0626994528888E-01
73  7.2000000000000E-01  6.6474122183641E-01 -4.4580314091614E-01
74  7.3000000000000E-01  6.2330570575812E-01 -4.5782829292540E-01
75  7.4000000000000E-01  5.8269907572008E-01 -4.3949809277981E-01
76  7.5000000000000E-01  5.4299159255453E-01 -3.8890604540206E-01
77  7.6000000000000E-01  5.0425430276234E-01 -3.0519318321168E-01
78  7.7000000000000E-01  4.6655968719265E-01 -1.8861887531523E-01
79  7.8000000000000E-01  4.2998193855860E-01 -4.0592056749186E-02
80  7.9000000000000E-01  3.9459684700996E-01  1.3633935827082E-01
81  8.0000000000000E-01  3.6048128983819E-01  3.3854155846869E-01
82  8.1000000000000E-01  3.2771233871373E-01  5.6138947616090E-01
83  8.2000000000000E-01  2.9636601497938E-01  7.9940043549002E-01
84  8.3000000000000E-01  2.6651573977214E-01  1.0464027078603E+00
85  8.4000000000000E-01  2.3823054046480E-01  1.2957334507237E+00
86  8.5000000000000E-01  2.1157308749767E-01  1.5404592658486E+00
87  8.6000000000000E-01  1.8659764557205E-01  1.7736116080455E+00
88  8.7000000000000E-01  1.6334802995279E-01  1.9884285483471E+00
89  8.8000000000000E-01  1.4185566194309E-01  2.1785939800753E+00
90  8.9000000000000E-01  1.2213781724122E-01  2.3384652739328E+00
91  9.0000000000000E-01  1.0419615679524E-01  2.4632806485810E+00
92  9.1000000000000E-01  8.8015622008529E-02  2.5493381223602E+00
93  9.2000000000000E-01  7.3563764930214E-02  2.5941388330008E+00
94  9.3000000000000E-01  6.0790569741408E-02  2.5964887257797E+00
95  9.4000000000000E-01  4.9628804897912E-02  2.5565540751836E+00
96  9.5000000000000E-01  3.9994926298885E-02  2.4758679692117E+00
97  9.6000000000000E-01  3.1790531502496E-02  2.3572866881522E+00
98  9.7000000000000E-01  2.4904344036007E-02  2.2048967854225E+00
99  9.8000000000000E-01  1.9214686040882E-02  2.0238755554972E+00
100  9.9000000000000E-01  1.4592377635363E-02  1.8203093822161E+00
101  1.0000000000000E+00  1.0903983243080E-02  1.6009761292232E+00
102  1.0100000000000E+00  8.0153094290652E-03  1.3730991986811E+00
103  1.0200000000000E+00  5.7950461541080E-03  1.1440820848937E+00
104  1.0300000000000E+00  4.1184338248265E-03  9.2123320308170E-01
105  1.0400000000000E+00  2.8708424490526E-03  7.1149020689340E-01
106  1.0500000000000E+00  1.9511214978942E-03  5.2115714204795E-01
107  1.0600000000000E+00  1.2780036570042E-03  3.5518562460101E-01
108  1.0700000000000E+00  7.8545220280305E-04  2.1779852704591E-01
109  1.0800000000000E+00  4.2416447272841E-04  1.1265267437271E-01
110  1.0900000000000E+00  1.7044191492973E-04  4.1792099853880E-02
111  1.1000000000000E+00  2.5673811745660E-05  5.6365400342349E-03
112  1.1100000000000E+00 -1.3093618890408E-06 -2.6380858139412E-04
113  1.1200000000000E+00 -3.7830603706738E-08 -8.3783468951121E-06
114  1.13  0. -0.
115  1.14  0.  0.
116  1.15  0.  0.
117  1.16  0.  0.
118  1.17  0.  0.
119  1.18  0.  0.
120  1.19  0.  0.
121  1.20  0.  0.
122  1.21  0.  0.
123  1.22  0.  0.
124  1.23  0.  0.
125  1.24  0.  0.
126  1.25  0.  0.
127  1.26  0.  0.
128  1.27  0.  0.
129  1.28  0.  0.
130  1.29  0.  0.
131  1.30  0.  0.
132  1.31  0.  0.
133  1.32  0.  0.
134  1.33  0.  0.
135  1.34  0.  0.
136  1.35  0.  0.
137  1.36  0.  0.
138  1.37  0.  0.
139  1.38  0.  0.
140  1.39  0.  0.
141  1.40  0.  0.
142  1.41  0.  0.
143  1.42  0.  0.
144  1.43  0.  0.
145  1.44  0.  0.
146  1.45  0.  0.
147  1.46  0.  0.
148  1.47  0.  0.
149  1.48  0.  0.
150  1.49  0.  0.
151  1.50  0.  0.
152  1.51  0.  0.
153  1.52  0.  0.
154  1.53  0.  0.
155  1.54  0.  0.
156  1.55  0.  0.
157  1.56  0.  0.
158  1.57  0.  0.
159  1.58  0.  0.
160  1.59  0.  0.
161  1.60  0.  0.
162  1.61  0.  0.
163  1.62  0.  0.
164  1.63  0.  0.
165  1.64  0.  0.
166  1.65  0.  0.
167  1.66  0.  0.
168  1.67  0.  0.
169  1.68  0.  0.
170  1.69  0.  0.
171  1.70  0.  0.
172  1.71  0.  0.
173  1.72  0.  0.
174  1.73  0.  0.
175  1.74  0.  0.
176  1.75  0.  0.
177  1.76  0.  0.
178  1.77  0.  0.
179  1.78  0.  0.
180  1.79  0.  0.
181  1.80  0.  0.
182  1.81  0.  0.
183  1.82  0.  0.
184  1.83  0.  0.
185  1.84  0.  0.
186  1.85  0.  0.
187  1.86  0.  0.
188  1.87  0.  0.
189  1.88  0.  0.
190  1.89  0.  0.
191  1.90  0.  0.
192  1.91  0.  0.
193  1.92  0.  0.
194  1.93  0.  0.
195  1.94  0.  0.
196  1.95  0.  0.
197  1.96  0.  0.