Sg    ONCVPSP-4.0.1  r_core=   1.30748   1.30748   1.30748   1.30748
106.0000     46.0000      220316    zatom,zion,pspd
8      11   3     4   600     0    pspcod,pspxc,lmax,lloc,mmax,r2well
5.99000000  5.00000000  0.00000000    rchrg fchrg qchrg
3     2     2     2     0    nproj
1     1           extension_switch
0                         1.3897567068546E+01 -1.0998022664827E+01  1.1553197974430E+00
1  0.0000000000000E+00 -4.8729034141104E-09  1.0051326437832E-10  1.6117182033426E-09
2  1.0000000000000E-02  1.6250545621002E-01  7.0688937989342E-02  1.5286875766496E-02
3  2.0000000000000E-02  3.2359319567055E-01  1.4123324485090E-01  3.0091940972969E-02
4  3.0000000000000E-02  4.8185900188565E-01  2.1148860457314E-01  4.3939718117236E-02
5  4.0000000000000E-02  6.3592552288954E-01  2.8131133204570E-01  5.6367346228964E-02
6  5.0000000000000E-02  7.8445536478939E-01  3.5055869015606E-01  6.6930764659409E-02
7  6.0000000000000E-02  9.2616378225584E-01  4.1908920878938E-01  7.5210746099261E-02
8  7.0000000000000E-02  1.0598308373014E+00  4.8676300624705E-01  8.0818726372337E-02
9  8.0000000000000E-02  1.1843129025588E+00  5.5344211349862E-01  8.3402376941193E-02
10  9.0000000000000E-02  1.2985533913560E+00  6.1899080155831E-01  8.2650864371835E-02
11  1.0000000000000E-01  1.4015926041602E+00  6.8327591213210E-01  7.8299739431521E-02
12  1.1000000000000E-01  1.4925765894256E+00  7.4616719151580E-01  7.0135397253433E-02
13  1.2000000000000E-01  1.5707649264775E+00  8.0753762754151E-01  5.7999049315546E-02
14  1.3000000000000E-01  1.6355373487773E+00  8.6726378917102E-01  4.1790148074174E-02
15  1.4000000000000E-01  1.6863991376621E+00  9.2522616812342E-01  2.1469206177616E-02
16  1.5000000000000E-01  1.7229852293758E+00  9.8130952170285E-01 -2.9400455490332E-03
17  1.6000000000000E-01  1.7450629918006E+00  1.0354032157658E+00 -3.1349213546849E-02
18  1.7000000000000E-01  1.7525336416504E+00  1.0874015665375E+00 -6.3604557521476E-02
19  1.8000000000000E-01  1.7454322878567E+00  1.1372041797605E+00 -9.9487107514723E-02
20  1.9000000000000E-01  1.7239266023103E+00  1.1847162854362E+00 -1.3871361439928E-01
21  2.0000000000000E-01  1.6883141348367E+00  1.2298490662121E+00 -1.8093835645810E-01
22  2.1000000000000E-01  1.6390183050802E+00  1.2725199772697E+00 -2.2575581359005E-01
23  2.2000000000000E-01  1.5765831196495E+00  1.3126530553983E+00 -2.7270420828922E-01
24  2.3000000000000E-01  1.5016666781937E+00  1.3501792147866E+00 -3.2126989908429E-01
25  2.4000000000000E-01  1.4150335468159E+00  1.3850365269458E+00 -3.7089259785199E-01
26  2.5000000000000E-01  1.3175460911412E+00  1.4171704820922E+00 -4.2097136764836E-01
27  2.6000000000000E-01  1.2101548742110E+00  1.4465342292674E+00 -4.7087134276683E-01
28  2.7000000000000E-01  1.0938882359420E+00  1.4730887924660E+00 -5.1993109800622E-01
29  2.8000000000000E-01  9.6984118094906E-01  1.4968032600752E+00 -5.6747058000325E-01
30  2.9000000000000E-01  8.3916370990172E-01  1.5176549450107E+00 -6.1279950033275E-01
31  3.0000000000000E-01  7.0304873607044E-01  1.5356295130591E+00 -6.5522607830018E-01
32  3.1000000000000E-01  5.6271973320204E-01  1.5507210771080E+00 -6.9406601129485E-01
33  3.2000000000000E-01  4.1941826321763E-01  1.5629322551638E+00 -7.2865154257458E-01
34  3.3000000000000E-01  2.7439153238818E-01  1.5722741903160E+00 -7.5834049070205E-01
35  3.4000000000000E-01  1.2888012258540E-01  1.5787665311099E+00 -7.8252510177187E-01
36  3.5000000000000E-01 -1.5893960062831E-02  1.5824373711277E+00 -8.0064058524255E-01
37  3.6000000000000E-01 -1.5873878319636E-01  1.5833231469494E+00 -8.1217319670589E-01
38  3.7000000000000E-01 -2.9850340546817E-01  1.5814684940615E+00 -8.1666773632464E-01
39  3.8000000000000E-01 -4.3408809590847E-01  1.5769260607032E+00 -8.1373433989832E-01
40  3.9000000000000E-01 -5.6445375036991E-01  1.5697562800675E+00 -8.0305445045176E-01
41  4.0000000000000E-01 -6.8863041356212E-01  1.5600271017186E+00 -7.8438587167558E-01
42  4.1000000000000E-01 -8.0572482996229E-01  1.5478136835212E+00 -7.5756682022676E-01
43  4.2000000000000E-01 -9.1492696260427E-01  1.5331980458055E+00 -7.2251891146919E-01
44  4.3000000000000E-01 -1.0155154351057E+00  1.5162686899065E+00 -6.7924903232039E-01
45  4.4000000000000E-01 -1.1068618689688E+00  1.4971201835994E+00 -6.2785007503246E-01
46  4.5000000000000E-01 -1.1884341048626E+00  1.4758527163108E+00 -5.6850052650090E-01
47  4.6000000000000E-01 -1.2597983129401E+00  1.4525716273010E+00 -5.0146292857677E-01
48  4.7000000000000E-01 -1.3206200129502E+00  1.4273869102847E+00 -4.2708124535338E-01
49  4.8000000000000E-01 -1.3706640396752E+00  1.4004126981842E+00 -3.4577719301829E-01
50  4.9000000000000E-01 -1.4097935027907E+00  1.3717667318745E+00 -2.5804560612998E-01
51  5.0000000000000E-01 -1.4379678023609E+00  1.3415698168974E+00 -1.6444893065386E-01
52  5.1000000000000E-01 -1.4552397716444E+00  1.3099452721772E+00 -6.5610948380900E-02
53  5.2000000000000E-01 -1.4617520275403E+00  1.2770183747681E+00  3.7790150884871E-02
54  5.3000000000000E-01 -1.4577326157126E+00  1.2429158046054E+00  1.4502922402552E-01
55  5.4000000000000E-01 -1.4434900421474E+00  1.2077650931195E+00  2.5534202488762E-01
56  5.5000000000000E-01 -1.4194077855800E+00  1.1716940794025E+00  3.6793331599690E-01
57  5.6000000000000E-01 -1.3859383859129E+00  1.1348303774091E+00  4.8198510788456E-01
58  5.7000000000000E-01 -1.3435972025120E+00  1.0973008574147E+00  5.9666489563586E-01
59  5.8000000000000E-01 -1.2929559332223E+00  1.0592311446647E+00  7.1113376868982E-01
60  5.9000000000000E-01 -1.2346359802628E+00  1.0207451378288E+00  8.2455427911047E-01
61  6.0000000000000E-01 -1.1693017430294E+00  9.8196454953662E-01  9.3609796523651E-01
62  6.1000000000000E-01 -1.0976539104964E+00  9.4300847091269E-01  1.0449524414443E+00
63  6.2000000000000E-01 -1.0204228175972E+00  9.0399296167534E-01  1.1503279803261E+00
64  6.3000000000000E-01 -9.3836192097794E-01  8.6503066700370E-01  1.2514635304366E+00
65  6.4000000000000E-01 -8.5224144011429E-01  8.2623046203355E-01  1.3476321304165E+00
66  6.5000000000000E-01 -7.6284220025732E-01  7.8769712451287E-01  1.4381456982481E+00
67  6.6000000000000E-01 -6.7094970430672E-01  7.4953103584351E-01  1.5223591921347E+00
68  6.7000000000000E-01 -5.7734845175974E-01  7.1182791045994E-01  1.5996741565071E+00
69  6.8000000000000E-01 -4.8281651460439E-01  6.7467855325420E-01  1.6695416824690E+00
70  6.9000000000000E-01 -3.8812037263208E-01  6.3816864455320E-01  1.7314648261503E+00
71  7.0000000000000E-01 -2.9401000432918E-01  6.0237855199038E-01  1.7850005405348E+00
72  7.1000000000000E-01 -2.0121422442257E-01  5.6738316849230E-01  1.8297611860214E+00
73  7.2000000000000E-01 -1.1043625541094E-01  5.3325177551976E-01  1.8654156919873E+00
74  7.3000000000000E-01 -2.2349518088609E-02  5.0004793066363E-01  1.8916904457349E+00
75  7.4000000000000E-01  6.2406374813773E-02  4.6782937869350E-01  1.9083699862901E+00
76  7.5000000000000E-01  1.4322943719954E-01  4.3664798519058E-01  1.9152975785364E+00
77  7.6000000000000E-01  2.1955895379200E-01  4.0654969196073E-01  1.9123757381384E+00
78  7.7000000000000E-01  2.9087896013798E-01  3.7757449351331E-01  1.8995667697507E+00
79  7.8000000000000E-01  3.5672156427575E-01  3.4975643400227E-01  1.8768933703070E+00
80  7.9000000000000E-01  4.1667011056744E-01  3.2312362415116E-01  1.8444393359992E+00
81  8.0000000000000E-01  4.7036218004216E-01  2.9769827781723E-01  1.8023503962113E+00
82  8.1000000000000E-01  5.1749241483461E-01  2.7349676798597E-01  1.7508351805291E+00
83  8.2000000000000E-01  5.5781514715341E-01  2.5052970212014E-01  1.6901663064422E+00
84  8.3000000000000E-01  5.9114680588608E-01  2.2880201691113E-01  1.6206815558960E+00
85  8.4000000000000E-01  6.1736806666681E-01  2.0831309259046E-01  1.5427850889437E+00
86  8.5000000000000E-01  6.3642570419367E-01  1.8905688705222E-01  1.4569486228041E+00
87  8.6000000000000E-01  6.4833409898577E-01  1.7102209010832E-01  1.3637124851473E+00
88  8.7000000000000E-01  6.5317634477351E-01  1.5419229824785E-01  1.2636864318025E+00
89  8.8000000000000E-01  6.5110489746228E-01  1.3854621029680E-01  1.1575501017198E+00
90  8.9000000000000E-01  6.4234170220578E-01  1.2405784437615E-01  1.0460529662639E+00
91  9.0000000000000E-01  6.2717773164185E-01  1.1069677653608E-01  9.3001361606223E-01
92  9.1000000000000E-01  6.0597186581516E-01  9.8428401404514E-02  8.1031821690278E-01
93  9.2000000000000E-01  5.7914904273453E-01  8.7214215132309E-02  6.8791795674416E-01
94  9.3000000000000E-01  5.4719760784602E-01  7.7012120851564E-02  5.6382529884061E-01
95  9.4000000000000E-01  5.1066579087210E-01  6.7776756790515E-02  4.3910885133274E-01
96  9.5000000000000E-01  4.7015723936071E-01  5.9459847117059E-02  3.1488666134090E-01
97  9.6000000000000E-01  4.2632553977550E-01  5.2010575517562E-02  1.9231774152140E-01
98  9.7000000000000E-01  3.7986765887817E-01  4.5375981465899E-02  7.2591639017185E-02
99  9.8000000000000E-01  3.3151624033354E-01  3.9501379105872E-02 -4.3084139476272E-02
100  9.9000000000000E-01  2.8203069373159E-01  3.4330798664405E-02 -1.5349902745858E-01
101  1.0000000000000E+00  2.3218701537472E-01  2.9807450339012E-02 -2.5745679753864E-01
102  1.0100000000000E+00  1.8276628206182E-01  2.5874210665485E-02 -3.5379562635016E-01
103  1.0200000000000E+00  1.3454176053738E-01  2.2474131474653E-02 -4.4141098420938E-01
104  1.0300000000000E+00  8.8264576134907E-02  1.9550971692386E-02 -5.1928149988632E-01
105  1.0400000000000E+00  4.4647884308610E-02  1.7049752426171E-02 -5.8649794253966E-01
106  1.0500000000000E+00  4.3494881431611E-03  1.4917336014058E-02 -6.4229545484314E-01
107  1.0600000000000E+00 -3.2047156491348E-02  1.3103029984983E-02 -6.8608916389335E-01
108  1.0700000000000E+00 -6.4053608702626E-02  1.1559217190225E-02 -7.1751328975800E-01
109  1.0800000000000E+00 -9.1298846832536E-02  1.0242013708502E-02 -7.3646386569557E-01
110  1.0900000000000E+00 -1.1355348034583E-01  9.1119565751831E-03 -7.4314518906368E-01
111  1.1000000000000E+00 -1.3075577830239E-01  8.1347223841905E-03 -7.3811994845204E-01
112  1.1100000000000E+00 -1.4303975189272E-01  7.2818828653844E-03 -7.2236354323474E-01
113  1.1200000000000E+00 -1.5072883880488E-01  6.5309360185451E-03 -6.9723029339088E-01
114  1.1300000000000E+00 -1.5422768046324E-01  5.8631818964308E-03 -6.6416827974956E-01
115  1.1400000000000E+00 -1.5396826406241E-01  5.2626801483208E-03 -6.2458642837620E-01
116  1.1500000000000E+00 -1.5040322923699E-01  4.7161488955775E-03 -5.7984563882245E-01
117  1.1600000000000E+00 -1.4399944327628E-01  4.2128338913575E-03 -5.3125146556328E-01
118  1.1700000000000E+00 -1.3523168839246E-01  3.7443492602262E-03 -4.8004773817654E-01
119  1.1800000000000E+00 -1.2457642632087E-01  3.3044937021249E-03 -4.2741081956814E-01
120  1.1900000000000E+00 -1.1250571925707E-01  2.8890483920481E-03 -3.7444449486400E-01
121  1.2000000000000E+00 -9.9481384465833E-02  2.4955626910144E-03 -3.2217548245910E-01
122  1.2100000000000E+00 -8.5949458798427E-02  2.1231336233308E-03 -2.7154956198310E-01
123  1.2200000000000E+00 -7.2335068959095E-02  1.7721868332685E-03 -2.2342834396935E-01
124  1.2300000000000E+00 -5.9037570794544E-02  1.4442449770392E-03 -1.7858643136576E-01
125  1.2400000000000E+00 -4.6426985048564E-02  1.1417769657191E-03 -1.3771014653501E-01
126  1.2500000000000E+00 -3.4806732039007E-02  8.6498420542199E-04 -1.0135477034112E-01
127  1.2600000000000E+00 -2.4427026467866E-02  6.1373179679488E-04 -6.9960658044104E-02
128  1.2700000000000E+00 -1.5587490457964E-02  3.9621047052370E-04 -4.3984617436810E-02
129  1.2800000000000E+00 -8.5452652341913E-03  2.1990462285276E-04 -2.3793687143879E-02
130  1.2900000000000E+00 -3.5131139292599E-03  9.1611948682799E-05 -9.6658260511104E-03
131  1.3000000000000E+00 -6.5326387195372E-04  1.7282683998059E-05 -1.7782089977785E-03
132  1.3100000000000E+00  3.4534845310855E-05 -9.2084147134700E-07  9.3274847291153E-05
133  1.3200000000000E+00 -9.6754446008273E-06  2.5742548584267E-07 -2.6192395307879E-05
134  1.33  0. -0.  0.
135  1.34  0.  0.  0.
136  1.35  0.  0.  0.
137  1.36  0.  0.  0.
138  1.37  0.  0.  0.
139  1.38  0.  0.  0.
140  1.39  0.  0.  0.
141  1.40  0.  0.  0.
142  1.41  0.  0.  0.
143  1.42  0.  0.  0.
144  1.43  0.  0.  0.
145  1.44  0.  0.  0.
146  1.45  0.  0.  0.
147  1.46  0.  0.  0.
148  1.47  0.  0.  0.
149  1.48  0.  0.  0.
150  1.49  0.  0.  0.
151  1.50  0.  0.  0.
152  1.51  0.  0.  0.
153  1.52  0.  0.  0.
154  1.53  0.  0.  0.
155  1.54  0.  0.  0.
156  1.55  0.  0.  0.
157  1.56  0.  0.  0.
158  1.57  0.  0.  0.
159  1.58  0.  0.  0.
160  1.59  0.  0.  0.
161  1.60  0.  0.  0.
162  1.61  0.  0.  0.
163  1.62  0.  0.  0.
164  1.63  0.  0.  0.
165  1.64  0.  0.  0.
166  1.65  0.  0.  0.
167  1.66  0.  0.  0.
168  1.67  0.  0.  0.
169  1.68  0.  0.  0.
170  1.69  0.  0.  0.
171  1.70  0.  0.  0.
172  1.71  0.  0.  0.
173  1.72  0.  0.  0.
174  1.73  0.  0.  0.
175  1.74  0.  0.  0.
176  1.75  0.  0.  0.
177  1.76  0.  0.  0.
178  1.77  0.  0.  0.
179  1.78  0.  0.  0.
180  1.79  0.  0.  0.
181  1.80  0.  0.  0.
182  1.81  0.  0.  0.
183  1.82  0.  0.  0.
184  1.83  0.  0.  0.
185  1.84  0.  0.  0.
186  1.85  0.  0.  0.
187  1.86  0.  0.  0.
188  1.87  0.  0.  0.
189  1.88  0.  0.  0.
190  1.89  0.  0.  0.
191  1.90  0.  0.  0.
192  1.91  0.  0.  0.
193  1.92  0.  0.  0.
194  1.93  0.  0.  0.
195  1.94  0.  0.  0.
196  1.95  0.  0.  0.
197  1.96  0.  0.  0.
198  1.97  0.  0.  0.
199  1.98  0.  0.  0.
200  1.99  0.  0.  0.
201  2.00  0.  0.  0.
202  2.01  0.  0.  0.
203  2.02  0.  0.  0.
204  2.03  0.  0.  0.
205  2.04  0.  0.  0.
206  2.05  0.  0.  0.
207  2.06  0.  0.  0.
208  2.07  0.  0.  0.
209  2.08  0.  0.  0.
210  2.09  0.  0.  0.
211  2.10  0.  0.  0.
212  2.11  0.  0.  0.
213  2.12  0.  0.  0.
214  2.13  0.  0.  0.
215  2.14  0.  0.  0.
216  2.15  0.  0.  0.
217  2.16  0.  0.  0.
218  2.17  0.  0.  0.
219  2.18  0.  0.  0.
220  2.19  0.  0.  0.
221  2.20  0.  0.  0.
222  2.21  0.  0.  0.
223  2.22  0.  0.  0.
224  2.23  0.  0.  0.
225  2.24  0.  0.  0.
226  2.25  0.  0.  0.
227  2.26  0.  0.  0.
228  2.27  0.  0.  0.
229  2.28  0.  0.  0.
230  2.29  0.  0.  0.
231  2.30  0.  0.  0.
232  2.31  0.  0.  0.
233  2.32  0.  0.  0.
234  2.33  0.  0.  0.
235  2.34  0.  0.  0.
236  2.35  0.  0.  0.
237  2.36  0.  0.  0.
238  2.37  0.  0.  0.
239  2.38  0.  0.  0.
240  2.39  0.  0.  0.
241  2.40  0.  0.  0.
242  2.41  0.  0.  0.
243  2.42  0.  0.  0.
244  2.43  0.  0.  0.
245  2.44  0.  0.  0.
246  2.45  0.  0.  0.
247  2.46  0.  0.  0.
248  2.47  0.  0.  0.
249  2.48  0.  0.  0.
250  2.49  0.  0.  0.
251  2.50  0.  0.  0.
252  2.51  0.  0.  0.
253  2.52  0.  0.  0.
254  2.53  0.  0.  0.
255  2.54  0.  0.  0.
256  2.55  0.  0.  0.
257  2.56  0.  0.  0.
258  2.57  0.  0.  0.
259  2.58  0.  0.  0.
260  2.59  0.  0.  0.
261  2.60  0.  0.  0.
262  2.61  0.  0.  0.
263  2.62  0.  0.  0.
264  2.63  0.  0.  0.
265  2.64  0.  0.  0.
266  2.65  0.  0.  0.
267  2.66  0.  0.  0.
268  2.67  0.  0.  0.
269  2.68  0.  0.  0.
270  2.69  0.  0.  0.
271  2.70  0.  0.  0.
272  2.71  0.  0.  0.
273  2.72  0.  0.  0.
274  2.73  0.  0.  0.
275  2.74  0.  0.  0.
276  2.75  0.  0.  0.
277  2.76  0.  0.  0.
278  2.77  0.  0.  0.
279  2.78  0.  0.  0.
280  2.79  0.  0.  0.
281  2.80  0.  0.  0.
282  2.81  0.  0.  0.
283  2.82  0.  0.  0.
284  2.83  0.  0.  0.
285  2.84  0.  0.  0.
286  2.85  0.  0.  0.
287  2.86  0.  0.  0.
288  2.87  0.  0.  0.
289  2.88  0.  0.  0.
290  2.89  0.  0.  0.
291  2.90  0.  0.  0.
292  2.91  0.  0.  0.
293  2.92  0.  0.  0.
294  2.93  0.  0.  0.
295  2.94  0.  0.  0.
296  2.95  0.  0.  0.
297  2.96  0.  0.  0.
298  2.97  0.  0.  0.
299  2.98  0.  0.  0.
300  2.99  0.  0.  0.
301  3.00  0.  0.  0.
302  3.01  0.  0.  0.
303  3.02  0.  0.  0.
304  3.03  0.  0.  0.
305  3.04  0.  0.  0.
306  3.05  0.  0.  0.
307  3.06  0.  0.  0.
308  3.07  0.  0.  0.
309  3.08  0.  0.  0.
310  3.09  0.  0.  0.
311  3.10  0.  0.  0.
312  3.11  0.  0.  0.
313  3.12  0.  0.  0.
314  3.13  0.  0.  0.
315  3.14  0.  0.  0.
316  3.15  0.  0.  0.
317  3.16  0.  0.  0.
318  3.17  0.  0.  0.
319  3.18  0.  0.  0.
320  3.19  0.  0.  0.
321  3.20  0.  0.  0.
322  3.21  0.  0.  0.
323  3.22  0.  0.  0.
324  3.23  0.  0.  0.
325  3.24  0.  0.  0.
326  3.25  0.  0.  0.
327  3.26  0.  0.  0.
328  3.27  0.  0.  0.
329  3.28  0.  0.  0.
330  3.29  0.  0.  0.
331  3.30  0.  0.  0.
332  3.31  0.  0.  0.
333  3.32  0.  0.  0.
334  3.33  0.  0.  0.
335  3.34  0.  0.  0.
336  3.35  0.  0.  0.
337  3.36  0.  0.  0.
338  3.37  0.  0.  0.
339  3.38  0.  0.  0.
340  3.39  0.  0.  0.
341  3.40  0.  0.  0.
342  3.41  0.  0.  0.
343  3.42  0.  0.  0.
344  3.43  0.  0.  0.
345  3.44  0.  0.  0.
346  3.45  0.  0.  0.
347  3.46  0.  0.  0.
348  3.47  0.  0.  0.
349  3.48  0.  0.  0.
350  3.49  0.  0.  0.
351  3.50  0.  0.  0.
352  3.51  0.  0.  0.
353  3.52  0.  0.  0.
354  3.53  0.  0.  0.
355  3.54  0.  0.  0.
356  3.55  0.  0.  0.
357  3.56  0.  0.  0.
358  3.57  0.  0.  0.
359  3.58  0.  0.  0.
360  3.59  0.  0.  0.
361  3.60  0.  0.  0.
362  3.61  0.  0.  0.
363  3.62  0.  0.  0.
364  3.63  0.  0.  0.
365  3.64  0.  0.  0.
366  3.65  0.  0.  0.
367  3.66  0.  0.  0.
368  3.67  0.  0.  0.
369  3.68  0.  0.  0.
370  3.69  0.  0.  0.
371  3.70  0.  0.  0.
372  3.71  0.  0.  0.
373  3.72  0.  0.  0.
374  3.73  0.  0.  0.
375  3.74  0.  0.  0.
376  3.75  0.  0.  0.
377  3.76  0.  0.  0.
378  3.77  0.  0.  0.
379  3.78  0.  0.  0.
380  3.79  0.  0.  0.
381  3.80  0.  0.  0.
382  3.81  0.  0.  0.
383  3.82  0.  0.  0.
384  3.83  0.  0.  0.
385  3.84  0.  0.  0.
386  3.85  0.  0.  0.
387  3.86  0.  0.  0.
388  3.87  0.  0.  0.
389  3.88  0.  0.  0.
390  3.89  0.  0.  0.
391  3.90  0.  0.  0.
392  3.91  0.  0.  0.
393  3.92  0.  0.  0.
394  3.93  0.  0.  0.
395  3.94  0.  0.  0.
396  3.95  0.  0.  0.
397  3.96  0.  0.  0.
398  3.97  0.  0.  0.
399  3.98  0.  0.  0.
400  3.99  0.  0.  0.
401  4.00  0.  0.  0.
402  4.01  0.  0.  0.
403  4.02  0.  0.  0.
404  4.03  0.  0.  0.
405  4.04  0.  0.  0.
406  4.05  0.  0.  0.
407  4.06  0.  0.  0.
408  4.07  0.  0.  0.
409  4.08  0.  0.  0.
410  4.09  0.  0.  0.
411  4.10  0.  0.  0.
412  4.11  0.  0.  0.
413  4.12  0.  0.  0.
414  4.13  0.  0.  0.
415  4.14  0.  0.  0.
416  4.15  0.  0.  0.
417  4.16  0.  0.  0.
418  4.17  0.  0.  0.
419  4.18  0.  0.  0.
420  4.19  0.  0.  0.
421  4.20  0.  0.  0.
422  4.21  0.  0.  0.
423  4.22  0.  0.  0.
424  4.23  0.  0.  0.
425  4.24  0.  0.  0.
426  4.25  0.  0.  0.
427  4.26  0.  0.  0.
428  4.27  0.  0.  0.
429  4.28  0.  0.  0.
430  4.29  0.  0.  0.
431  4.30  0.  0.  0.
432  4.31  0.  0.  0.
433  4.32  0.  0.  0.
434  4.33  0.  0.  0.
435  4.34  0.  0.  0.
436  4.35  0.  0.  0.
437  4.36  0.  0.  0.
438  4.37  0.  0.  0.
439  4.38  0.  0.  0.
440  4.39  0.  0.  0.
441  4.40  0.  0.  0.
442  4.41  0.  0.  0.
443  4.42  0.  0.  0.
444  4.43  0.  0.  0.
445  4.44  0.  0.  0.
446  4.45  0.  0.  0.
447  4.46  0.  0.  0.
448  4.47  0.  0.  0.
449  4.48  0.  0.  0.
450  4.49  0.  0.  0.
451  4.50  0.  0.  0.
452  4.51  0.  0.  0.
453  4.52  0.  0.  0.
454  4.53  0.  0.  0.
455  4.54  0.  0.  0.
456  4.55  0.  0.  0.
457  4.56  0.  0.  0.
458  4.57  0.  0.  0.
459  4.58  0.  0.  0.
460  4.59  0.  0.  0.
461  4.60  0.  0.  0.
462  4.61  0.  0.  0.
463  4.62  0.  0.  0.
464  4.63  0.  0.  0.
465  4.64  0.  0.  0.
466  4.65  0.  0.  0.
467  4.66  0.  0.  0.
468  4.67  0.  0.  0.
469  4.68  0.  0.  0.
470  4.69  0.  0.  0.
471  4.70  0.  0.  0.
472  4.71  0.  0.  0.
473  4.72  0.  0.  0.
474  4.73  0.  0.  0.
475  4.74  0.  0.  0.
476  4.75  0.  0.  0.
477  4.76  0.  0.  0.
478  4.77  0.  0.  0.
479  4.78  0.  0.  0.
480  4.79  0.  0.  0.
481  4.80  0.  0.  0.
482  4.81  0.  0.  0.
483  4.82  0.  0.  0.
484  4.83  0.  0.  0.
485  4.84  0.  0.  0.
486  4.85  0.  0.  0.
487  4.86  0.  0.  0.
488  4.87  0.  0.  0.
489  4.88  0.  0.  0.
490  4.89  0.  0.  0.
491  4.90  0.  0.  0.
492  4.91  0.  0.  0.
493  4.92  0.  0.  0.
494  4.93  0.  0.  0.
495  4.94  0.  0.  0.
496  4.95  0.  0.  0.
497  4.96  0.  0.  0.
498  4.97  0.  0.  0.
499  4.98  0.  0.  0.
500  4.99  0.  0.  0.
501  5.00  0.  0.  0.
502  5.01  0.  0.  0.
503  5.02  0.  0.  0.
504  5.03  0.  0.  0.
505  5.04  0.  0.  0.
506  5.05  0.  0.  0.
507  5.06  0.  0.  0.
508  5.07  0.  0.  0.
509  5.08  0.  0.  0.
510  5.09  0.  0.  0.
511  5.10  0.  0.  0.
512  5.11  0.  0.  0.
513  5.12  0.  0.  0.
514  5.13  0.  0.  0.
515  5.14  0.  0.  0.
516  5.15  0.  0.  0.
517  5.16  0.  0.  0.
518  5.17  0.  0.  0.
519  5.18  0.  0.  0.
520  5.19  0.  0.  0.
521  5.20  0.  0.  0.
522  5.21  0.  0.  0.
523  5.22  0.  0.  0.
524  5.23  0.  0.  0.
525  5.24  0.  0.  0.
526  5.25  0.  0.  0.
527  5.26  0.  0.  0.
528  5.27  0.  0.  0.
529  5.28  0.  0.  0.
530  5.29  0.  0.  0.
531  5.30  0.  0.  0.
532  5.31  0.  0.  0.
533  5.32  0.  0.  0.
534  5.33  0.  0.  0.
535  5.34  0.  0.  0.
536  5.35  0.  0.  0.
537  5.36  0.  0.  0.
538  5.37  0.  0.  0.
539  5.38  0.  0.  0.
540  5.39  0.  0.  0.
541  5.40  0.  0.  0.
542  5.41  0.  0.  0.
543  5.42  0.  0.  0.
544  5.43  0.  0.  0.
545  5.44  0.  0.  0.
546  5.45  0.  0.  0.
547  5.46  0.  0.  0.
548  5.47  0.  0.  0.
549  5.48  0.  0.  0.
550  5.49  0.  0.  0.
551  5.50  0.  0.  0.
552  5.51  0.  0.  0.
553  5.52  0.  0.  0.
554  5.53  0.  0.  0.
555  5.54  0.  0.  0.
556  5.55  0.  0.  0.
557  5.56  0.  0.  0.
558  5.57  0.  0.  0.
559  5.58  0.  0.  0.
560  5.59  0.  0.  0.
561  5.60  0.  0.  0.
562  5.61  0.  0.  0.
563  5.62  0.  0.  0.
564  5.63  0.  0.  0.
565  5.64  0.  0.  0.
566  5.65  0.  0.  0.
567  5.66  0.  0.  0.
568  5.67  0.  0.  0.
569  5.68  0.  0.  0.
570  5.69  0.  0.  0.
571  5.70  0.  0.  0.
572  5.71  0.  0.  0.
573  5.72  0.  0.  0.
574  5.73  0.  0.  0.
575  5.74  0.  0.  0.
576  5.75  0.  0.  0.
577  5.76  0.  0.  0.
578  5.77  0.  0.  0.
579  5.78  0.  0.  0.
580  5.79  0.  0.  0.
581  5.80  0.  0.  0.
582  5.81  0.  0.  0.
583  5.82  0.  0.  0.
584  5.83  0.  0.  0.
585  5.84  0.  0.  0.
586  5.85  0.  0.  0.
587  5.86  0.  0.  0.
588  5.87  0.  0.  0.
589  5.88  0.  0.  0.
590  5.89  0.  0.  0.
591  5.90  0.  0.  0.
592  5.91  0.  0.  0.
593  5.92  0.  0.  0.
594  5.93  0.  0.  0.
595  5.94  0.  0.  0.
596  5.95  0.  0.  0.
597  5.96  0.  0.  0.
598  5.97  0.  0.  0.
599  5.98  0.  0.  0.
600  5.99  0.  0.  0.
1                        -9.5599041605805E+00 -3.2648930223804E-01
1  0.0000000000000E+00  3.4366307022360E-09  4.1682106322050E-08
2  1.0000000000000E-02  2.7540479409732E-03  6.6605432424264E-03
3  2.0000000000000E-02  1.0996490278032E-02  2.6537978466178E-02
4  3.0000000000000E-02  2.4668397280104E-02  5.9321270862596E-02
5  4.0000000000000E-02  4.3672133235863E-02  1.0449716754620E-01
6  5.0000000000000E-02  6.7872220538512E-02  1.6135782206724E-01
7  6.0000000000000E-02  9.7096536142233E-02  2.2901130375582E-01
8  7.0000000000000E-02  1.3113782733575E-01  3.0639483014217E-01
9  8.0000000000000E-02  1.6975553034187E-01  3.9229051901507E-01
10  9.0000000000000E-02  2.1267787202894E-01  4.8534341829228E-01
11  1.0000000000000E-01  2.5960423205224E-01  5.8408153739718E-01
12  1.1000000000000E-01  3.1020774006724E-01  6.8693757381137E-01
13  1.2000000000000E-01  3.6413808030505E-01  7.9227200338100E-01
14  1.3000000000000E-01  4.2102447380172E-01  8.9839718317622E-01
15  1.4000000000000E-01  4.8047880695002E-01  1.0036021015452E+00
16  1.5000000000000E-01  5.4209887381167E-01  1.1061774016639E+00
17  1.6000000000000E-01  6.0547169880240E-01  1.2044403024677E+00
18  1.7000000000000E-01  6.7017690594683E-01  1.2967590443724E+00
19  1.8000000000000E-01  7.3579010089506E-01  1.3815764965469E+00
20  1.9000000000000E-01  8.0188623229257E-01  1.4574325775132E+00
21  2.0000000000000E-01  8.6804289988818E-01  1.5229851612278E+00
22  2.1000000000000E-01  9.3384357793411E-01  1.5770291661789E+00
23  2.2000000000000E-01  9.9888072395714E-01  1.6185135549702E+00
24  2.3000000000000E-01  1.0627587448324E+00  1.6465560058214E+00
25  2.4000000000000E-01  1.1250967942427E+00  1.6604550548326E+00
26  2.5000000000000E-01  1.1855313780208E+00  1.6596995480780E+00
27  2.6000000000000E-01  1.2437187465139E+00  1.6439752849585E+00
28  2.7000000000000E-01  1.2993370559377E+00  1.6131687780265E+00
29  2.8000000000000E-01  1.3520882836626E+00  1.5673680990030E+00
30  2.9000000000000E-01  1.4016998854499E+00  1.5068608251809E+00
31  3.0000000000000E-01  1.4479261857968E+00  1.4321291441696E+00
32  3.1000000000000E-01  1.4905494957010E+00  1.3438422172490E+00
33  3.2000000000000E-01  1.5293809552881E+00  1.2428459418402E+00
34  3.3000000000000E-01  1.5642611018118E+00  1.1301502911144E+00
35  3.4000000000000E-01  1.5950601664986E+00  1.0069144430059E+00
36  3.5000000000000E-01  1.6216781065344E+00  8.7442994135344E-01
37  3.6000000000000E-01  1.6440443811429E+00  7.3410215813972E-01
38  3.7000000000000E-01  1.6621174831589E+00  5.8743034746668E-01
39  3.8000000000000E-01  1.6758842397250E+00  4.3598659873147E-01
40  3.9000000000000E-01  1.6853588977224E+00  2.8139400825180E-01
41  4.0000000000000E-01  1.6905820112584E+00  1.2530439523736E-01
42  4.1000000000000E-01  1.6916191499747E+00 -3.0624110504916E-02
43  4.2000000000000E-01  1.6885594480939E+00 -1.8474928533151E-01
44  4.3000000000000E-01  1.6815140149861E+00 -3.3546651770580E-01
45  4.4000000000000E-01  1.6706142286175E+00 -4.8122970124686E-01
46  4.5000000000000E-01  1.6560099335355E+00 -6.2057103039161E-01
47  4.6000000000000E-01  1.6378675650674E+00 -7.5211943576727E-01
48  4.7000000000000E-01  1.6163682211686E+00 -8.7461742152738E-01
49  4.8000000000000E-01  1.5917057028672E+00 -9.8693609513433E-01
50  4.9000000000000E-01  1.5640845435408E+00 -1.0880882108561E+00
51  5.0000000000000E-01  1.5337180463366E+00 -1.1772390810115E+00
52  5.1000000000000E-01  1.5008263479430E+00 -1.2537152431802E+00
53  5.2000000000000E-01  1.4656345256568E+00 -1.3170108065892E+00
54  5.3000000000000E-01  1.4283707632940E+00 -1.3667914361156E+00
55  5.4000000000000E-01  1.3892645899861E+00 -1.4028959672293E+00
56  5.5000000000000E-01  1.3485452043236E+00 -1.4253356791748E+00
57  5.6000000000000E-01  1.3064398946651E+00 -1.4342912862550E+00
58  5.7000000000000E-01  1.2631725647677E+00 -1.4301077377272E+00
59  5.8000000000000E-01  1.2189623722195E+00 -1.4132869451330E+00
60  5.9000000000000E-01  1.1740224855020E+00 -1.3844785814831E+00
61  6.0000000000000E-01  1.1285589638997E+00 -1.3444691192702E+00
62  6.1000000000000E-01  1.0827697629137E+00 -1.2941692935607E+00
63  6.2000000000000E-01  1.0368438663629E+00 -1.2346001922129E+00
64  6.3000000000000E-01  9.9096054496302E-01 -1.1668781874848E+00
65  6.4000000000000E-01  9.4528873988948E-01 -1.0921989318842E+00
66  6.5000000000000E-01  8.9998656865458E-01 -1.0118206460915E+00
67  6.6000000000000E-01  8.5520094957471E-01 -9.2704692826193E-01
68  6.7000000000000E-01  8.1106734017027E-01 -8.3920931212246E-01
69  6.8000000000000E-01  7.6770958403530E-01 -7.4964979624740E-01
70  6.9000000000000E-01  7.2523986003317E-01 -6.5970355897658E-01
71  7.0000000000000E-01  6.8375872711709E-01 -5.7068206294689E-01
72  7.1000000000000E-01  6.4335525763730E-01 -4.8385674047616E-01
73  7.2000000000000E-01  6.0410725167275E-01 -4.0044343644833E-01
74  7.3000000000000E-01  5.6608152470840E-01 -3.2158776928079E-01
75  7.4000000000000E-01  5.2933426086150E-01 -2.4835155341741E-01
76  7.5000000000000E-01  4.9391142383172E-01 -1.8170040897643E-01
77  7.6000000000000E-01  4.5984921780208E-01 -1.2249266609177E-01
78  7.7000000000000E-01  4.2717459063961E-01 -7.1469653486166E-02
79  7.8000000000000E-01  3.9590577192695E-01 -2.9247443263388E-02
80  7.9000000000000E-01  3.6605283858887E-01  3.6898928812077E-03
81  8.0000000000000E-01  3.3761830115087E-01  2.6995476575504E-02
82  8.1000000000000E-01  3.1059770397251E-01  4.0463239814607E-02
83  8.2000000000000E-01  2.8498023312707E-01  4.4029954128437E-02
84  8.3000000000000E-01  2.6074932594430E-01  3.7775671247174E-02
85  8.4000000000000E-01  2.3788327658821E-01  2.1922584325154E-02
86  8.5000000000000E-01  2.1635583240117E-01 -3.1676732588015E-03
87  8.6000000000000E-01  1.9613677610510E-01 -3.6998268257048E-02
88  8.7000000000000E-01  1.7719248930651E-01 -7.8942919188880E-02
89  8.8000000000000E-01  1.5948649310244E-01 -1.2825312829749E-01
90  8.9000000000000E-01  1.4297996192743E-01 -1.8406686115491E-01
91  9.0000000000000E-01  1.2763220711715E-01 -2.4541864070532E-01
92  9.1000000000000E-01  1.1340112699206E-01 -3.1125102295390E-01
93  9.2000000000000E-01  1.0024362058593E-01 -3.8042742263571E-01
94  9.3000000000000E-01  8.8115962460165E-02 -4.5174625877970E-01
95  9.4000000000000E-01  7.6974136357344E-02 -5.2395639183810E-01
96  9.5000000000000E-01  6.6774125758649E-02 -5.9577382573881E-01
97  9.6000000000000E-01  5.7472159721492E-02 -6.6589964955018E-01
98  9.7000000000000E-01  4.9024912687887E-02 -7.3303919421378E-01
99  9.8000000000000E-01  4.1389657272680E-02 -7.9592237976351E-01
100  9.9000000000000E-01  3.4524369365193E-02 -8.5332522742714E-01
101  1.0000000000000E+00  2.8387785208962E-02 -9.0409250885999E-01
102  1.0100000000000E+00  2.2939410462858E-02 -9.4716150135961E-01
103  1.0200000000000E+00  1.8139481592898E-02 -9.8158681320158E-01
104  1.0300000000000E+00  1.3948880296380E-02 -1.0065662371997E+00
105  1.0400000000000E+00  1.0329002017687E-02 -1.0214675832522E+00
106  1.0500000000000E+00  7.2415799764603E-03 -1.0258564320461E+00
107  1.0600000000000E+00  4.6484664898697E-03 -1.0195247424249E+00
108  1.0700000000000E+00  2.5113737301523E-03 -1.0025202342682E+00
109  1.0800000000000E+00  7.9157641101385E-04 -9.7517645734387E-01
110  1.0900000000000E+00 -5.5042085159067E-04 -9.3814345514057E-01
111  1.1000000000000E+00 -1.5552468892153E-03 -8.9241874081293E-01
112  1.1100000000000E+00 -2.2650583407292E-03 -8.3937890213259E-01
113  1.1200000000000E+00 -2.7231197590257E-03 -7.8071500630617E-01
114  1.1300000000000E+00 -2.9710686027078E-03 -7.1811249056036E-01
115  1.1400000000000E+00 -3.0475587291434E-03 -6.5311156340466E-01