Sg    ONCVPSP-4.0.1  r_core=   1.10583   1.10583   1.10583   1.20244
106.0000     46.0000      220316    zatom,zion,pspd
8      11   3     4   600     0    pspcod,pspxc,lmax,lloc,mmax,r2well
5.99000000  5.00000000  0.00000000    rchrg fchrg qchrg
3     2     2     2     0    nproj
1     1           extension_switch
0                         1.3047925886593E+01 -1.0831332300718E+01 -1.7557385171826E-01
1  0.0000000000000E+00 -1.6835719929276E-08  1.0163675456809E-10  2.5040673090615E-07
2  1.0000000000000E-02  1.8444114209719E-01  6.0865324254154E-02 -9.0095799088944E-02
3  2.0000000000000E-02  3.6714740346162E-01  1.2166209394529E-01 -1.7776620430805E-01
4  3.0000000000000E-02  5.4640392707375E-01  1.8232143913485E-01 -2.6066056338347E-01
5  4.0000000000000E-02  7.2053562018545E-01  2.4277386447687E-01 -3.3657540508193E-01
6  5.0000000000000E-02  8.8792633286867E-01  3.0294894985188E-01 -4.0352234107339E-01
7  6.0000000000000E-02  1.0470372042665E+00  3.6277506694309E-01 -4.5978932655971E-01
8  7.0000000000000E-02  1.1964239190168E+00  4.2217911696064E-01 -5.0399336955198E-01
9  8.0000000000000E-02  1.3347526331551E+00  4.8108629461736E-01 -5.3512302908605E-01
10  9.0000000000000E-02  1.4608143495503E+00  5.3941988332301E-01 -5.5256934354541E-01
11  1.0000000000000E-01  1.5735375473694E+00  5.9710108638471E-01 -5.5614417382761E-01
12  1.1000000000000E-01  1.6719988979160E+00  6.5404889877495E-01 -5.4608532328033E-01
13  1.2000000000000E-01  1.7554319300869E+00  7.1018002374685E-01 -5.2304819701855E-01
14  1.3000000000000E-01  1.8232335422165E+00  7.6540883823426E-01 -4.8808417636964E-01
15  1.4000000000000E-01  1.8749682927017E+00  8.1964741056487E-01 -4.4260629812750E-01
16  1.5000000000000E-01  1.9103704389477E+00  8.7280557353410E-01 -3.8834323096144E-01
17  1.6000000000000E-01  1.9293437321618E+00  9.2479105533207E-01 -3.2728292062393E-01
18  1.7000000000000E-01  1.9319590136201E+00  9.7550967018485E-01 -2.6160761963915E-01
19  1.8000000000000E-01  1.9184496954502E+00  1.0248655698642E+00 -1.9362231467872E-01
20  1.9000000000000E-01  1.8892052448777E+00  1.0727615564411E+00 -1.2567880550797E-01
21  2.0000000000000E-01  1.8447628244410E+00  1.1190994558142E+00 -6.0097864189276E-02
22  2.1000000000000E-01  1.7857972710399E+00  1.1637805506376E+00  9.0799519962952E-04
23  2.2000000000000E-01  1.7131096230753E+00  1.2067060703281E+00  5.5308583183379E-02
24  2.3000000000000E-01  1.6276144266091E+00  1.2477777348441E+00  1.0132444362660E-01
25  2.4000000000000E-01  1.5303260678145E+00  1.2868983479328E+00  1.3748725188085E-01
26  2.5000000000000E-01  1.4223443894894E+00  1.3239724345476E+00  1.6269007178790E-01
27  2.6000000000000E-01  1.3048398537195E+00  1.3589069161636E+00  1.7622563919550E-01
28  2.7000000000000E-01  1.1790385107349E+00  1.3916118167955E+00  1.7781120660439E-01
29  2.8000000000000E-01  1.0462070256226E+00  1.4220009916643E+00  1.6759890937841E-01
30  2.9000000000000E-01  9.0763800006193E-01  1.4499928696982E+00  1.4617108632155E-01
31  3.0000000000000E-01  7.6463580606680E-01  1.4755112003999E+00  1.1452049196383E-01
32  3.1000000000000E-01  6.1850312347585E-01  1.4984857951087E+00  7.4015858484940E-02
33  3.2000000000000E-01  4.7052834344681E-01  1.5188532523253E+00  2.6353784514388E-02
34  3.3000000000000E-01  3.2197396745287E-01  1.5365576565943E+00 -2.6501571954174E-02
35  3.4000000000000E-01  1.7406609636243E-01  1.5515512404457E+00 -8.2389056692744E-02
36  3.5000000000000E-01  2.7985068309631E-02  1.5637949991055E+00 -1.3902899090557E-01
37  3.6000000000000E-01 -1.1514273151181E-01  1.5732592480980E+00 -1.9410686747654E-01
38  3.7000000000000E-01 -2.5425190001381E-01  1.5799241144761E+00 -2.4535933702581E-01
39  3.8000000000000E-01 -3.8834392645747E-01  1.5837799532330E+00 -2.9065939576429E-01
40  3.9000000000000E-01 -5.1649205323365E-01  1.5848276814472E+00 -3.2809764029546E-01
41  4.0000000000000E-01 -6.3784517909629E-01  1.5830790238921E+00 -3.5605651948738E-01
42  4.1000000000000E-01 -7.5163091354579E-01  1.5785566651628E+00 -3.7327469178292E-01
43  4.2000000000000E-01 -8.5715790159181E-01  1.5712943048267E+00 -3.7889888523702E-01
44  4.3000000000000E-01 -9.5381754208456E-01  1.5613366136452E+00 -3.7252105041719E-01
45  4.4000000000000E-01 -1.0410852201436E+00  1.5487390905209E+00 -3.5419908217660E-01
46  4.5000000000000E-01 -1.1185211651613E+00  1.5335678214485E+00 -3.2445995051705E-01
47  4.6000000000000E-01 -1.1857710309271E+00  1.5158991433595E+00 -2.8428470507739E-01
48  4.7000000000000E-01 -1.2425662743762E+00  1.4958192173030E+00 -2.3507548111300E-01
49  4.8000000000000E-01 -1.2887243853284E+00  1.4734235168661E+00 -1.7860531382374E-01
50  4.9000000000000E-01 -1.3241489925559E+00  1.4488162390626E+00 -1.1695223773173E-01
51  5.0000000000000E-01 -1.3488298429665E+00  1.4221096460793E+00 -5.2419783149543E-02
52  5.1000000000000E-01 -1.3628426220806E+00  1.3934233472320E+00  1.2553442350268E-02
53  5.2000000000000E-01 -1.3663485568083E+00  1.3628835312241E+00  7.5491906790316E-02
54  5.3000000000000E-01 -1.3595937172799E+00  1.3306221593011E+00  1.3398547195664E-01
55  5.4000000000000E-01 -1.3429079145302E+00  1.2967761301394E+00  1.8579204208337E-01
56  5.5000000000000E-01 -1.3167030764082E+00  1.2614864272978E+00  2.2893657912696E-01
57  5.6000000000000E-01 -1.2814709762062E+00  1.2248972597939E+00  2.6180253764837E-01
58  5.7000000000000E-01 -1.2377801879131E+00  1.1871552058578E+00  2.8321193950474E-01
59  5.8000000000000E-01 -1.1862721491514E+00  1.1484083691839E+00  2.9249062458322E-01
60  5.9000000000000E-01 -1.1276562278600E+00  1.1088055560665E+00  2.8951567155106E-01
61  6.0000000000000E-01 -1.0627037113891E+00  1.0684954807115E+00  2.7474256927463E-01
62  6.1000000000000E-01 -9.9224066628661E-01  1.0276260047905E+00  2.4921041703122E-01
63  6.2000000000000E-01 -9.1713965273379E-01  9.8634341599440E-01  2.1452421691671E-01
64  6.3000000000000E-01 -8.3831031807958E-01  9.4479174900180E-01  1.7281416783226E-01
65  6.4000000000000E-01 -7.5668893770674E-01  9.0311215093485E-01  1.2667274676925E-01
66  6.5000000000000E-01 -6.7322701680076E-01  8.6144229210097E-01  7.9071237308292E-02
67  6.6000000000000E-01 -5.8887911159668E-01  8.1991582163790E-01  3.3258203815620E-02
68  6.7000000000000E-01 -5.0459007139289E-01  7.7866186664783E-01 -7.3568204195295E-03
69  6.8000000000000E-01 -4.2128194108793E-01  7.3780457255495E-01 -3.9330493598939E-02
70  6.9000000000000E-01 -3.3984079635779E-01  6.9746268178106E-01 -5.9319196827294E-02
71  7.0000000000000E-01 -2.6110380815178E-01  6.5774914742968E-01 -6.4214072953023E-02
72  7.1000000000000E-01 -1.8584684850659E-01  6.1877077851261E-01 -5.1272496840166E-02
73  7.2000000000000E-01 -1.1477295463612E-01  5.8062791335002E-01 -1.8240875796356E-02
74  7.3000000000000E-01 -4.8501962103566E-02  5.4341411811853E-01  3.6536152465852E-02
75  7.4000000000000E-01  1.2438399697349E-02  5.0721590809663E-01  1.1402469492919E-01
76  7.5000000000000E-01  6.7619685408313E-02  4.7211248993679E-01  2.1443277451153E-01
77  7.6000000000000E-01  1.1671796016801E-01  4.3817552424393E-01  3.3716700295326E-01
78  7.7000000000000E-01  1.5951689917232E-01  4.0546890881787E-01  4.8081719563473E-01
79  7.8000000000000E-01  1.9590864228039E-01  3.7404858407314E-01  6.4317038449515E-01
80  7.9000000000000E-01  2.2589234938945E-01  3.4396236332803E-01  8.2125461650841E-01
81  8.0000000000000E-01  2.4957047022858E-01  3.1524979179850E-01  1.0114118104759E+00
82  8.1000000000000E-01  2.6714281188087E-01  2.8794203918245E-01  1.2093978257228E+00
83  8.2000000000000E-01  2.7889855615877E-01  2.6206183161810E-01  1.4105068156485E+00
84  8.3000000000000E-01  2.8520644430106E-01  2.3762342949223E-01  1.6097159397648E+00
85  8.4000000000000E-01  2.8650340574845E-01  2.1463265801152E-01  1.8018456308632E+00
86  8.5000000000000E-01  2.8328195856590E-01  1.9308699759215E-01  1.9817298967397E+00
87  8.6000000000000E-01  2.7607674924225E-01  1.7297574093711E-01  2.1443906109631E+00
88  8.7000000000000E-01  2.6545062729086E-01  1.5428022313862E-01  2.2852094405594E+00
89  8.8000000000000E-01  2.5198066391454E-01  1.3697413025482E-01  2.4000909886278E+00
90  8.9000000000000E-01  2.3624452309571E-01  1.2102389057370E-01  2.4856109067285E+00
91  9.0000000000000E-01  2.1880757749068E-01  1.0638915120921E-01  2.5391431561822E+00
92  9.1000000000000E-01  2.0021113068456E-01  9.3023340809796E-02  2.5589612605359E+00
93  9.2000000000000E-01  1.8096206251790E-01  8.0874317042365E-02  2.5443092754427E+00
94  9.3000000000000E-01  1.6152415671293E-01  6.9885095202090E-02  2.4954392802118E+00
95  9.4000000000000E-01  1.4231130180667E-01  5.9994651858488E-02  2.4136134324222E+00
96  9.5000000000000E-01  1.2368267979478E-01  5.1138794955468E-02  2.3010699815612E+00
97  9.6000000000000E-01  1.0593997465971E-01  4.3251089319312E-02  2.1609540619471E+00
98  9.7000000000000E-01  8.9326548058561E-02  3.6263824176864E-02  1.9972155289456E+00
99  9.8000000000000E-01  7.4028445087844E-02  3.0109007131533E-02  1.8144775119652E+00
100  9.9000000000000E-01  6.0177012385012E-02  2.4719367167630E-02  1.6178806806319E+00
101  1.0000000000000E+00  4.7852837009144E-02  2.0029347729625E-02  1.4129094056985E+00
102  1.0100000000000E+00  3.7090650391176E-02  1.5976069817458E-02  1.2052069979761E+00
103  1.0200000000000E+00  2.7884789765943E-02  1.2500244408259E-02  1.0003879854157E+00
104  1.0300000000000E+00  2.0194773853944E-02  9.5470143502373E-03  8.0385589274170E-01
105  1.0400000000000E+00  1.3950491502906E-02  7.0666907119003E-03  6.2063551183133E-01
106  1.0500000000000E+00  9.0565766965388E-03  5.0154099992033E-03  4.5522786634429E-01
107  1.0600000000000E+00  5.3845385669761E-03  3.3485353916227E-03  3.1159121406905E-01
108  1.0700000000000E+00  2.8063647331062E-03  2.0324646086024E-03  1.9282041244195E-01
109  1.0800000000000E+00  1.1830968301881E-03  1.0514106120468E-03  1.0115806103720E-01
110  1.0900000000000E+00  3.3189485487893E-04  3.9418822636825E-04  3.8274008912856E-02
111  1.1000000000000E+00  2.8843099534651E-05  5.4297597291475E-05  5.2965826555805E-03
112  1.1100000000000E+00 -7.4921073855357E-07 -2.5870186849782E-06 -2.5350111622103E-04
113  1.1200000000000E+00 -4.4204465546373E-08 -8.0498046768177E-08 -7.8667907547488E-06
114  1.13 -0. -0.  0.
115  1.14  0.  0.  0.
116  1.15  0.  0.  0.
117  1.16  0.  0.  0.
118  1.17  0.  0.  0.
119  1.18  0.  0.  0.
120  1.19  0.  0.  0.
121  1.20  0.  0.  0.
122  1.21  0.  0.  0.
123  1.22  0.  0.  0.
124  1.23  0.  0.  0.
125  1.24  0.  0.  0.
126  1.25  0.  0.  0.
127  1.26  0.  0.  0.
128  1.27  0.  0.  0.
129  1.28  0.  0.  0.
130  1.29  0.  0.  0.
131  1.30  0.  0.  0.
132  1.31  0.  0.  0.
133  1.32  0.  0.  0.
134  1.33  0.  0.  0.
135  1.34  0.  0.  0.
136  1.35  0.  0.  0.
137  1.36  0.  0.  0.
138  1.37  0.  0.  0.
139  1.38  0.  0.  0.
140  1.39  0.  0.  0.
141  1.40  0.  0.  0.
142  1.41  0.  0.  0.
143  1.42  0.  0.  0.
144  1.43  0.  0.  0.
145  1.44  0.  0.  0.
146  1.45  0.  0.  0.
147  1.46  0.  0.  0.
148  1.47  0.  0.  0.
149  1.48  0.  0.  0.
150  1.49  0.  0.  0.
151  1.50  0.  0.  0.
152  1.51  0.  0.  0.
153  1.52  0.  0.  0.
154  1.53  0.  0.  0.
155  1.54  0.  0.  0.
156  1.55  0.  0.  0.
157  1.56  0.  0.  0.
158  1.57  0.  0.  0.
159  1.58  0.  0.  0.
160  1.59  0.  0.  0.
161  1.60  0.  0.  0.
162  1.61  0.  0.  0.
163  1.62  0.  0.  0.
164  1.63  0.  0.  0.
165  1.64  0.  0.  0.
166  1.65  0.  0.  0.
167  1.66  0.  0.  0.
168  1.67  0.  0.  0.
169  1.68  0.  0.  0.
170  1.69  0.  0.  0.
171  1.70  0.  0.  0.
172  1.71  0.  0.  0.
173  1.72  0.  0.  0.
174  1.73  0.  0.  0.
175  1.74  0.  0.  0.
176  1.75  0.  0.  0.
177  1.76  0.  0.  0.
178  1.77  0.  0.  0.
179  1.78  0.  0.  0.
180  1.79  0.  0.  0.
181  1.80  0.  0.  0.
182  1.81  0.  0.  0.
183  1.82  0.  0.  0.
184  1.83  0.  0.  0.
185  1.84  0.  0.  0.
186  1.85  0.  0.  0.
187  1.86  0.  0.  0.
188  1.87  0.  0.  0.
189  1.88  0.  0.  0.
190  1.89  0.  0.  0.
191  1.90  0.  0.  0.
192  1.91  0.  0.  0.
193  1.92  0.  0.  0.
194  1.93  0.  0.  0.
195  1.94  0.  0.  0.
196  1.95  0.  0.  0.
197  1.96  0.  0.  0.
198  1.97  0.  0.  0.
199  1.98  0.  0.  0.
200  1.99  0.  0.  0.
201  2.00  0.  0.  0.
202  2.01  0.  0.  0.
203  2.02  0.  0.  0.
204  2.03  0.  0.  0.
205  2.04  0.  0.  0.
206  2.05  0.  0.  0.
207  2.06  0.  0.  0.
208  2.07  0.  0.  0.
209  2.08  0.  0.  0.
210  2.09  0.  0.  0.
211  2.10  0.  0.  0.
212  2.11  0.  0.  0.
213  2.12  0.  0.  0.
214  2.13  0.  0.  0.
215  2.14  0.  0.  0.
216  2.15  0.  0.  0.
217  2.16  0.  0.  0.
218  2.17  0.  0.  0.
219  2.18  0.  0.  0.
220  2.19  0.  0.  0.
221  2.20  0.  0.  0.
222  2.21  0.  0.  0.
223  2.22  0.  0.  0.
224  2.23  0.  0.  0.
225  2.24  0.  0.  0.
226  2.25  0.  0.  0.
227  2.26  0.  0.  0.
228  2.27  0.  0.  0.
229  2.28  0.  0.  0.
230  2.29  0.  0.  0.
231  2.30  0.  0.  0.
232  2.31  0.  0.  0.
233  2.32  0.  0.  0.
234  2.33  0.  0.  0.
235  2.34  0.  0.  0.
236  2.35  0.  0.  0.
237  2.36  0.  0.  0.
238  2.37  0.  0.  0.
239  2.38  0.  0.  0.
240  2.39  0.  0.  0.
241  2.40  0.  0.  0.
242  2.41  0.  0.  0.
243  2.42  0.  0.  0.
244  2.43  0.  0.  0.
245  2.44  0.  0.  0.
246  2.45  0.  0.  0.
247  2.46  0.  0.  0.
248  2.47  0.  0.  0.
249  2.48  0.  0.  0.
250  2.49  0.  0.  0.
251  2.50  0.  0.  0.
252  2.51  0.  0.  0.
253  2.52  0.  0.  0.
254  2.53  0.  0.  0.
255  2.54  0.  0.  0.
256  2.55  0.  0.  0.
257  2.56  0.  0.  0.
258  2.57  0.  0.  0.
259  2.58  0.  0.  0.
260  2.59  0.  0.  0.
261  2.60  0.  0.  0.
262  2.61  0.  0.  0.
263  2.62  0.  0.  0.
264  2.63  0.  0.  0.
265  2.64  0.  0.  0.
266  2.65  0.  0.  0.
267  2.66  0.  0.  0.
268  2.67  0.  0.  0.
269  2.68  0.  0.  0.
270  2.69  0.  0.  0.
271  2.70  0.  0.  0.
272  2.71  0.  0.  0.
273  2.72  0.  0.  0.
274  2.73  0.  0.  0.
275  2.74  0.  0.  0.
276  2.75  0.  0.  0.
277  2.76  0.  0.  0.
278  2.77  0.  0.  0.
279  2.78  0.  0.  0.
280  2.79  0.  0.  0.
281  2.80  0.  0.  0.
282  2.81  0.  0.  0.
283  2.82  0.  0.  0.
284  2.83  0.  0.  0.
285  2.84  0.  0.  0.
286  2.85  0.  0.  0.
287  2.86  0.  0.  0.
288  2.87  0.  0.  0.
289  2.88  0.  0.  0.
290  2.89  0.  0.  0.
291  2.90  0.  0.  0.
292  2.91  0.  0.  0.
293  2.92  0.  0.  0.
294  2.93  0.  0.  0.
295  2.94  0.  0.  0.
296  2.95  0.  0.  0.
297  2.96  0.  0.  0.
298  2.97  0.  0.  0.
299  2.98  0.  0.  0.
300  2.99  0.  0.  0.
301  3.00  0.  0.  0.
302  3.01  0.  0.  0.
303  3.02  0.  0.  0.
304  3.03  0.  0.  0.
305  3.04  0.  0.  0.
306  3.05  0.  0.  0.
307  3.06  0.  0.  0.
308  3.07  0.  0.  0.
309  3.08  0.  0.  0.
310  3.09  0.  0.  0.
311  3.10  0.  0.  0.
312  3.11  0.  0.  0.
313  3.12  0.  0.  0.
314  3.13  0.  0.  0.
315  3.14  0.  0.  0.
316  3.15  0.  0.  0.
317  3.16  0.  0.  0.
318  3.17  0.  0.  0.
319  3.18  0.  0.  0.
320  3.19  0.  0.  0.
321  3.20  0.  0.  0.
322  3.21  0.  0.  0.
323  3.22  0.  0.  0.
324  3.23  0.  0.  0.
325  3.24  0.  0.  0.
326  3.25  0.  0.  0.
327  3.26  0.  0.  0.
328  3.27  0.  0.  0.
329  3.28  0.  0.  0.
330  3.29  0.  0.  0.
331  3.30  0.  0.  0.
332  3.31  0.  0.  0.
333  3.32  0.  0.  0.
334  3.33  0.  0.  0.
335  3.34  0.  0.  0.
336  3.35  0.  0.  0.
337  3.36  0.  0.  0.
338  3.37  0.  0.  0.
339  3.38  0.  0.  0.
340  3.39  0.  0.  0.
341  3.40  0.  0.  0.
342  3.41  0.  0.  0.
343  3.42  0.  0.  0.
344  3.43  0.  0.  0.
345  3.44  0.  0.  0.
346  3.45  0.  0.  0.
347  3.46  0.  0.  0.
348  3.47  0.  0.  0.
349  3.48  0.  0.  0.
350  3.49  0.  0.  0.
351  3.50  0.  0.  0.
352  3.51  0.  0.  0.
353  3.52  0.  0.  0.
354  3.53  0.  0.  0.
355  3.54  0.  0.  0.
356  3.55  0.  0.  0.
357  3.56  0.  0.  0.
358  3.57  0.  0.  0.
359  3.58  0.  0.  0.
360  3.59  0.  0.  0.
361  3.60  0.  0.  0.
362  3.61  0.  0.  0.
363  3.62  0.  0.  0.
364  3.63  0.  0.  0.
365  3.64  0.  0.  0.
366  3.65  0.  0.  0.
367  3.66  0.  0.  0.
368  3.67  0.  0.  0.
369  3.68  0.  0.  0.
370  3.69  0.  0.  0.
371  3.70  0.  0.  0.
372  3.71  0.  0.  0.
373  3.72  0.  0.  0.
374  3.73  0.  0.  0.
375  3.74  0.  0.  0.
376  3.75  0.  0.  0.
377  3.76  0.  0.  0.
378  3.77  0.  0.  0.
379  3.78  0.  0.  0.
380  3.79  0.  0.  0.
381  3.80  0.  0.  0.
382  3.81  0.  0.  0.
383  3.82  0.  0.  0.
384  3.83  0.  0.  0.
385  3.84  0.  0.  0.
386  3.85  0.  0.  0.
387  3.86  0.  0.  0.
388  3.87  0.  0.  0.
389  3.88  0.  0.  0.
390  3.89  0.  0.  0.
391  3.90  0.  0.  0.
392  3.91  0.  0.  0.
393  3.92  0.  0.  0.
394  3.93  0.  0.  0.
395  3.94  0.  0.  0.
396  3.95  0.  0.  0.
397  3.96  0.  0.  0.
398  3.97  0.  0.  0.
399  3.98  0.  0.  0.
400  3.99  0.  0.  0.
401  4.00  0.  0.  0.
402  4.01  0.  0.  0.
403  4.02  0.  0.  0.
404  4.03  0.  0.  0.
405  4.04  0.  0.  0.
406  4.05  0.  0.  0.
407  4.06  0.  0.  0.
408  4.07  0.  0.  0.
409  4.08  0.  0.  0.
410  4.09  0.  0.  0.
411  4.10  0.  0.  0.
412  4.11  0.  0.  0.
413  4.12  0.  0.  0.
414  4.13  0.  0.  0.
415  4.14  0.  0.  0.
416  4.15  0.  0.  0.
417  4.16  0.  0.  0.
418  4.17  0.  0.  0.
419  4.18  0.  0.  0.
420  4.19  0.  0.  0.
421  4.20  0.  0.  0.
422  4.21  0.  0.  0.
423  4.22  0.  0.  0.
424  4.23  0.  0.  0.
425  4.24  0.  0.  0.
426  4.25  0.  0.  0.
427  4.26  0.  0.  0.
428  4.27  0.  0.  0.
429  4.28  0.  0.  0.
430  4.29  0.  0.  0.
431  4.30  0.  0.  0.
432  4.31  0.  0.  0.
433  4.32  0.  0.  0.
434  4.33  0.  0.  0.
435  4.34  0.  0.  0.
436  4.35  0.  0.  0.
437  4.36  0.  0.  0.
438  4.37  0.  0.  0.
439  4.38  0.  0.  0.
440  4.39  0.  0.  0.
441  4.40  0.  0.  0.
442  4.41  0.  0.  0.
443  4.42  0.  0.  0.
444  4.43  0.  0.  0.
445  4.44  0.  0.  0.
446  4.45  0.  0.  0.
447  4.46  0.  0.  0.
448  4.47  0.  0.  0.
449  4.48  0.  0.  0.
450  4.49  0.  0.  0.
451  4.50  0.  0.  0.
452  4.51  0.  0.  0.
453  4.52  0.  0.  0.
454  4.53  0.  0.  0.
455  4.54  0.  0.  0.
456  4.55  0.  0.  0.
457  4.56  0.  0.  0.
458  4.57  0.  0.  0.
459  4.58  0.  0.  0.
460  4.59  0.  0.  0.
461  4.60  0.  0.  0.
462  4.61  0.  0.  0.
463  4.62  0.  0.  0.
464  4.63  0.  0.  0.
465  4.64  0.  0.  0.
466  4.65  0.  0.  0.
467  4.66  0.  0.  0.
468  4.67  0.  0.  0.
469  4.68  0.  0.  0.
470  4.69  0.  0.  0.
471  4.70  0.  0.  0.
472  4.71  0.  0.  0.
473  4.72  0.  0.  0.
474  4.73  0.  0.  0.
475  4.74  0.  0.  0.
476  4.75  0.  0.  0.
477  4.76  0.  0.  0.
478  4.77  0.  0.  0.
479  4.78  0.  0.  0.
480  4.79  0.  0.  0.
481  4.80  0.  0.  0.
482  4.81  0.  0.  0.
483  4.82  0.  0.  0.
484  4.83  0.  0.  0.
485  4.84  0.  0.  0.
486  4.85  0.  0.  0.
487  4.86  0.  0.  0.
488  4.87  0.  0.  0.
489  4.88  0.  0.  0.
490  4.89  0.  0.  0.
491  4.90  0.  0.  0.
492  4.91  0.  0.  0.
493  4.92  0.  0.  0.
494  4.93  0.  0.  0.
495  4.94  0.  0.  0.
496  4.95  0.  0.  0.
497  4.96  0.  0.  0.
498  4.97  0.  0.  0.
499  4.98  0.  0.  0.
500  4.99  0.  0.  0.
501  5.00  0.  0.  0.
502  5.01  0.  0.  0.
503  5.02  0.  0.  0.
504  5.03  0.  0.  0.
505  5.04  0.  0.  0.
506  5.05  0.  0.  0.
507  5.06  0.  0.  0.
508  5.07  0.  0.  0.
509  5.08  0.  0.  0.
510  5.09  0.  0.  0.
511  5.10  0.  0.  0.
512  5.11  0.  0.  0.
513  5.12  0.  0.  0.
514  5.13  0.  0.  0.
515  5.14  0.  0.  0.
516  5.15  0.  0.  0.
517  5.16  0.  0.  0.
518  5.17  0.  0.  0.
519  5.18  0.  0.  0.
520  5.19  0.  0.  0.
521  5.20  0.  0.  0.
522  5.21  0.  0.  0.
523  5.22  0.  0.  0.
524  5.23  0.  0.  0.
525  5.24  0.  0.  0.
526  5.25  0.  0.  0.
527  5.26  0.  0.  0.
528  5.27  0.  0.  0.
529  5.28  0.  0.  0.
530  5.29  0.  0.  0.
531  5.30  0.  0.  0.
532  5.31  0.  0.  0.
533  5.32  0.  0.  0.
534  5.33  0.  0.  0.
535  5.34  0.  0.  0.
536  5.35  0.  0.  0.
537  5.36  0.  0.  0.
538  5.37  0.  0.  0.
539  5.38  0.  0.  0.
540  5.39  0.  0.  0.
541  5.40  0.  0.  0.
542  5.41  0.  0.  0.
543  5.42  0.  0.  0.
544  5.43  0.  0.  0.
545  5.44  0.  0.  0.
546  5.45  0.  0.  0.
547  5.46  0.  0.  0.
548  5.47  0.  0.  0.
549  5.48  0.  0.  0.
550  5.49  0.  0.  0.
551  5.50  0.  0.  0.
552  5.51  0.  0.  0.
553  5.52  0.  0.  0.
554  5.53  0.  0.  0.
555  5.54  0.  0.  0.
556  5.55  0.  0.  0.
557  5.56  0.  0.  0.
558  5.57  0.  0.  0.
559  5.58  0.  0.  0.
560  5.59  0.  0.  0.
561  5.60  0.  0.  0.
562  5.61  0.  0.  0.
563  5.62  0.  0.  0.
564  5.63  0.  0.  0.
565  5.64  0.  0.  0.
566  5.65  0.  0.  0.
567  5.66  0.  0.  0.
568  5.67  0.  0.  0.
569  5.68  0.  0.  0.
570  5.69  0.  0.  0.
571  5.70  0.  0.  0.
572  5.71  0.  0.  0.
573  5.72  0.  0.  0.
574  5.73  0.  0.  0.
575  5.74  0.  0.  0.
576  5.75  0.  0.  0.
577  5.76  0.  0.  0.
578  5.77  0.  0.  0.
579  5.78  0.  0.  0.
580  5.79  0.  0.  0.
581  5.80  0.  0.  0.
582  5.81  0.  0.  0.
583  5.82  0.  0.  0.
584  5.83  0.  0.  0.
585  5.84  0.  0.  0.
586  5.85  0.  0.  0.
587  5.86  0.  0.  0.
588  5.87  0.  0.  0.
589  5.88  0.  0.  0.
590  5.89  0.  0.  0.
591  5.90  0.  0.  0.
592  5.91  0.  0.  0.
593  5.92  0.  0.  0.
594  5.93  0.  0.  0.
595  5.94  0.  0.  0.
596  5.95  0.  0.  0.
597  5.96  0.  0.  0.
598  5.97  0.  0.  0.
599  5.98  0.  0.  0.
600  5.99  0.  0.  0.
1                        -9.3664497108828E+00 -4.6334896625307E-01
1  0.0000000000000E+00  4.2541632716553E-09 -2.0892299568143E-07
2  1.0000000000000E-02  2.4964518975054E-03  2.3992336256855E-03
3  2.0000000000000E-02  9.9691425152053E-03  9.6186626511279E-03
4  3.0000000000000E-02  2.2368235639791E-02  2.1720467741099E-02
5  4.0000000000000E-02  3.9611198199089E-02  3.8798430276838E-02
6  5.0000000000000E-02  6.1583581630937E-02  6.0963703886947E-02
7  6.0000000000000E-02  8.8140096980155E-02  8.8325970964053E-02
8  7.0000000000000E-02  1.1910596557597E-01  1.2097100132813E-01
9  8.0000000000000E-02  1.5427852288809E-01  1.5893583912037E-01
10  9.0000000000000E-02  1.9342904955440E-01  2.0218299660123E-01
11  1.0000000000000E-01  2.3630480070916E-01  2.5057512248025E-01
12  1.1000000000000E-01  2.8263120268161E-01  3.0385163320981E-01
13  1.2000000000000E-01  3.3211418491529E-01  3.6160874678581E-01
14  1.3000000000000E-01  3.8444261458171E-01  4.2328424154326E-01
15  1.4000000000000E-01  4.3929080179977E-01  4.8814808173383E-01
16  1.5000000000000E-01  4.9632104456931E-01  5.5529981467467E-01
17  1.6000000000000E-01  5.5518618439942E-01  6.2367336082151E-01
18  1.7000000000000E-01  6.1553214605463E-01  6.9204950021278E-01
19  1.8000000000000E-01  6.7700043773172E-01  7.5907601991250E-01
20  1.9000000000000E-01  7.3923059118039E-01  8.2329514194241E-01
21  2.0000000000000E-01  8.0186252465069E-01  8.8317751472694E-01
22  2.1000000000000E-01  8.6453881494540E-01  9.3716173804160E-01
23  2.2000000000000E-01  9.2690686813919E-01  9.8369811575021E-01
24  2.3000000000000E-01  9.8862098157195E-01  1.0212951046722E+00
25  2.4000000000000E-01  1.0493442924214E+00  1.0485667621718E+00
26  2.5000000000000E-01  1.1087506104200E+00  1.0642793974798E+00
27  2.6000000000000E-01  1.1665261340377E+00  1.0673956075148E+00
28  2.7000000000000E-01  1.2223710506712E+00  1.0571139291733E+00
29  2.8000000000000E-01  1.2760010220411E+00  1.0329024656715E+00
30  2.9000000000000E-01  1.3271485561326E+00  9.9452504035141E-01
31  3.0000000000000E-01  1.3755642666535E+00  9.4205869024568E-01
32  3.1000000000000E-01  1.4210180202025E+00  8.7590162374220E-01
33  3.2000000000000E-01  1.4632999702248E+00  7.9677111970051E-01
34  3.3000000000000E-01  1.5022214754923E+00  7.0569122531660E-01
35  3.4000000000000E-01  1.5376158993933E+00  6.0397050162137E-01
36  3.5000000000000E-01  1.5693392848779E+00  4.9317045280164E-01
37  3.6000000000000E-01  1.5972708986044E+00  3.7506564264497E-01
38  3.7000000000000E-01  1.6213136367847E+00  2.5159683309049E-01
39  3.8000000000000E-01  1.6413942845393E+00  1.2481876219641E-01
40  3.9000000000000E-01  1.6574636203327E+00 -3.1556002349966E-03
41  4.0000000000000E-01  1.6694963573439E+00 -1.3021233123434E-01
42  4.1000000000000E-01  1.6774909144667E+00 -2.5429330726089E-01
43  4.2000000000000E-01  1.6814690110576E+00 -3.7345038015696E-01
44  4.3000000000000E-01  1.6814750815397E+00 -4.8589501730411E-01
45  4.4000000000000E-01  1.6775755084892E+00 -5.9004161738084E-01
46  4.5000000000000E-01  1.6698576758102E+00 -6.8454295656657E-01
47  4.6000000000000E-01  1.6584288469519E+00 -7.6831652716535E-01
48  4.7000000000000E-01  1.6434148767254E+00 -8.4056088956776E-01
49  4.8000000000000E-01  1.6249587690048E+00 -9.0076155512858E-01
50  4.9000000000000E-01  1.6032190963021E+00 -9.4868633614811E-01
51  5.0000000000000E-01  1.5783683007476E+00 -9.8437052288510E-01
52  5.1000000000000E-01  1.5505908992266E+00 -1.0080926592136E+00
53  5.2000000000000E-01  1.5200816181852E+00 -1.0203420712635E+00
54  5.3000000000000E-01  1.4870434857884E+00 -1.0217796412832E+00
55  5.4000000000000E-01  1.4516859105854E+00 -1.0131935977701E+00
56  5.5000000000000E-01  1.4142227765139E+00 -9.9545230063092E-01
57  5.6000000000000E-01  1.3748705839075E+00 -9.6945612748688E-01
58  5.7000000000000E-01  1.3338466651240E+00 -9.3609060810821E-01
59  5.8000000000000E-01  1.2913675014890E+00 -8.9618290565672E-01
60  5.9000000000000E-01  1.2476471654939E+00 -8.5046360681899E-01
61  6.0000000000000E-01  1.2028959086684E+00 -7.9953556250239E-01
62  6.1000000000000E-01  1.1573189113707E+00 -7.4385122446452E-01
63  6.2000000000000E-01  1.1111152060287E+00 -6.8369956217458E-01
64  6.3000000000000E-01  1.0644767802922E+00 -6.1920323224658E-01
65  6.4000000000000E-01  1.0175878612794E+00 -5.5032622611334E-01
66  6.5000000000000E-01  9.7062437681524E-01 -4.7689175803796E-01
67  6.6000000000000E-01  9.2375358445342E-01 -3.9860969389125E-01
68  6.7000000000000E-01  8.7713385434004E-01 -3.1511238036175E-01
69  6.8000000000000E-01  8.3091458778782E-01 -2.2599733296621E-01
70  6.9000000000000E-01  7.8523624995810E-01 -1.3087489660374E-01
71  7.0000000000000E-01  7.4023049242408E-01 -2.9418719773514E-02
72  7.1000000000000E-01  6.9602033972824E-01  7.8583304384109E-02
73  7.2000000000000E-01  6.5272041342266E-01  1.9318007082103E-01
74  7.3000000000000E-01  6.1043716753091E-01  3.1421270329497E-01
75  7.4000000000000E-01  5.6926911089056E-01  4.4127672870099E-01
76  7.5000000000000E-01  5.2930699438182E-01  5.7369310187471E-01
77  7.6000000000000E-01  4.9063394453387E-01  7.1048989479105E-01
78  7.7000000000000E-01  4.5332552930271E-01  8.5039607692655E-01
79  7.8000000000000E-01  4.1744974677359E-01  9.9184835567165E-01
80  7.9000000000000E-01  3.8306693296943E-01  1.1330115336774E+00
81  8.0000000000000E-01  3.5022959063235E-01  1.2718122930808E+00
82  8.1000000000000E-01  3.1898214656329E-01  1.4059857556185E+00
83  8.2000000000000E-01  2.8936065061951E-01  1.5331336147496E+00
84  8.3000000000000E-01  2.6139243455148E-01  1.6507921133003E+00
85  8.4000000000000E-01  2.3509575328709E-01  1.7565076693910E+00
86  8.5000000000000E-01  2.1047943484109E-01  1.8479175545736E+00
87  8.6000000000000E-01  1.8754256756743E-01  1.9228327189405E+00
88  8.7000000000000E-01  1.6627425484266E-01  1.9793196531304E+00
89  8.8000000000000E-01  1.4665346737259E-01  2.0157780876245E+00
90  8.9000000000000E-01  1.2864902210050E-01  2.0310113622381E+00
91  9.0000000000000E-01  1.1221971416174E-01  2.0242864554730E+00
92  9.1000000000000E-01  9.7314624524591E-02  1.9953809418268E+00
93  9.2000000000000E-01  8.3873620980724E-02  1.9446145379483E+00
94  9.3000000000000E-01  7.1828064146166E-02  1.8728633937909E+00
95  9.4000000000000E-01  6.1101723296310E-02  1.7815558665422E+00
96  9.5000000000000E-01  5.1611899412364E-02  1.6726491633890E+00
97  9.6000000000000E-01  4.3270745021348E-02  1.5485869311269E+00
98  9.7000000000000E-01  3.5986762541071E-02  1.4122385816834E+00
99  9.8000000000000E-01  2.9666455187745E-02  1.2668218462124E+00
100  9.9000000000000E-01  2.4216097353255E-02  1.1158107203185E+00
101  1.0000000000000E+00  1.9543584991602E-02  9.6283157319622E-01
102  1.0100000000000E+00  1.5560321221788E-02  8.1155072046480E-01
103  1.0200000000000E+00  1.2183088286748E-02  6.6555718248759E-01
104  1.0300000000000E+00  9.3358540377772E-03  5.2824470379994E-01
105  1.0400000000000E+00  6.9514664297017E-03  4.0269635891621E-01
106  1.0500000000000E+00  4.9731725713072E-03  2.9157837340391E-01
107  1.0600000000000E+00  3.3581843917399E-03  1.9665102065360E-01
108  1.0700000000000E+00  2.0734705367828E-03  1.1938020725401E-01
109  1.0800000000000E+00  1.0967658065128E-03  6.1153848676791E-02
110  1.0900000000000E+00  4.2233607205911E-04  2.2476442879124E-02
111  1.1000000000000E+00  5.9969317354034E-05  3.0041274843840E-03
112  1.1100000000000E+00 -2.9261914991012E-06 -1.3963423938105E-04
113  1.1200000000000E+00 -8.8781632628929E-08 -4.4677259695304E-06
114  1.13  0. -0.
115  1.14  0.  0.
116  1.15  0.  0.
117  1.16  0.  0.
118  1.17  0.  0.
119  1.18  0.  0.
120  1.19  0.  0.
121  1.20  0.  0.
122  1.21  0.  0.
123  1.22  0.  0.
124  1.23  0.  0.
125  1.24  0.  0.
126  1.25  0.  0.
127  1.26  0.  0.
128  1.27  0.  0.
129  1.28  0.  0.
130  1.29  0.  0.
131  1.30  0.  0.
132  1.31  0.  0.
133  1.32  0.  0.
134  1.33  0.  0.
135  1.34  0.  0.
136  1.35  0.  0.
137  1.36  0.  0.
138  1.37  0.  0.
139  1.38  0.  0.
140  1.39  0.  0.
141  1.40  0.  0.
142  1.41  0.  0.
143  1.42  0.  0.
144  1.43  0.  0.
145  1.44  0.  0.
146  1.45  0.  0.
147  1.46  0.  0.
148  1.47  0.  0.
149  1.48  0.  0.
150  1.49  0.  0.
151  1.50  0.  0.
152  1.51  0.  0.
153  1.52  0.  0.
154  1.53  0.  0.
155  1.54  0.  0.
156  1.55  0.  0.
157  1.56  0.  0.
158  1.57  0.  0.
159  1.58  0.  0.
160  1.59  0.  0.
161  1.60  0.  0.
162  1.61  0.  0.
163  1.62  0.  0.
164  1.63  0.  0.
165  1.64  0.  0.
166  1.65  0.  0.
167  1.66  0.  0.
168  1.67  0.  0.
169  1.68  0.  0.
170  1.69  0.  0.
171  1.70  0.  0.
172  1.71  0.  0.
173  1.72  0.  0.
174  1.73  0.  0.
175  1.74  0.  0.
176  1.75  0.  0.
177  1.76  0.  0.
178  1.77  0.  0.
179  1.78  0.  0.
180  1.79  0.  0.
181  1.80  0.  0.
182  1.81  0.  0.
183  1.82  0.  0.
184  1.83  0.  0.
185  1.84  0.  0.
186  1.85  0.  0.
187  1.86  0.  0.
188  1.87  0.  0.
189  1.88  0.  0.
190  1.89  0.  0.
191  1.90  0.  0.
192  1.91  0.  0.
193  1.92  0.  0.
194  1.93  0.  0.
195  1.94  0.  0.
196  1.95  0.  0.
197  1.96  0.  0.