Sg    ONCVPSP-4.0.1  r_core=   1.10583   1.30748   1.20244   1.20244
    106.0000     46.0000      211119    zatom,zion,pspd
     8      11   3     4   600     0    pspcod,pspxc,lmax,lloc,mmax,r2well
  5.99000000  5.00000000  0.00000000    rchrg fchrg qchrg
     3     2     2     2     0    nproj
     1     1           extension_switch
   0                         2.0232341944838E+01 -1.0821564998240E+01 -3.6465728984980E-01
     1  0.0000000000000E+00 -2.4347688976079E-08  7.3494360597337E-10  4.6301959877315E-08
     2  1.0000000000000E-02  2.1353278413218E-01  5.2265119255371E-02 -5.5442877308829E-02
     3  2.0000000000000E-02  4.2484722628101E-01  1.0453673431046E-01 -1.0984144423050E-01
     4  3.0000000000000E-02  6.3175271604194E-01  1.5682027580637E-01 -1.6217625350250E-01
     5  4.0000000000000E-02  8.3211370527862E-01  2.0911905865233E-01 -2.1147700634413E-01
     6  5.0000000000000E-02  1.0238762433577E+00  2.6143326043038E-01 -2.5684569426617E-01
     7  6.0000000000000E-02  1.2050933349162E+00  3.1375894278884E-01 -2.9747805536438E-01
     8  7.0000000000000E-02  1.3739487567419E+00  3.6608712927193E-01 -3.3268283843621E-01
     9  8.0000000000000E-02  1.5287789946917E+00  4.1840295229776E-01 -3.6189841456215E-01
    10  9.0000000000000E-02  1.6680929913071E+00  4.7068488110411E-01 -3.8470633240545E-01
    11  1.0000000000000E-01  1.7905894294303E+00  5.2290404144615E-01 -4.0084147953332E-01
    12  1.1000000000000E-01  1.8951713161533E+00  5.7502363667082E-01 -4.1019858647229E-01
    13  1.2000000000000E-01  1.9809576742042E+00  6.2699847852705E-01 -4.1283489170166E-01
    14  1.3000000000000E-01  2.0472921937139E+00  6.7877463472047E-01 -4.0896887287226E-01
    15  1.4000000000000E-01  2.0937487454372E+00  7.3028919880409E-01 -3.9897504052769E-01
    16  1.5000000000000E-01  2.1201337061391E+00  7.8147018653286E-01 -3.8337488362338E-01
    17  1.6000000000000E-01  2.1264850971333E+00  8.3223656131897E-01 -3.6282414914862E-01
    18  1.7000000000000E-01  2.1130685870186E+00  8.8249838992209E-01 -3.3809672899014E-01
    19  1.8000000000000E-01  2.0803704586071E+00  9.3215712801234E-01 -3.1006551357541E-01
    20  1.9000000000000E-01  2.0290876870103E+00  9.8110603376576E-01 -2.7968065152185E-01
    21  2.0000000000000E-01  1.9601153199812E+00  1.0292307062062E+00 -2.4794572522983E-01
    22  2.1000000000000E-01  1.8745313921121E+00  1.0764097436047E+00 -2.1589241196110E-01
    23  2.2000000000000E-01  1.7735796405928E+00  1.1225155158959E+00 -1.8455424644196E-01
    24  2.3000000000000E-01  1.6586503212921E+00  1.1674150437805E+00 -1.5494013272569E-01
    25  2.4000000000000E-01  1.5312594493579E+00  1.2109709759605E+00 -1.2800826853277E-01
    26  2.5000000000000E-01  1.3930268078815E+00  1.2530426548067E+00 -1.0464114357903E-01
    27  2.6000000000000E-01  1.2456530811144E+00  1.2934872596907E+00 -8.5622253956663E-02
    28  2.7000000000000E-01  1.0908964750555E+00  1.3321610162422E+00 -7.1615137436237E-02
    29  2.8000000000000E-01  9.3054918790360E-01  1.3689204589092E+00 -6.3145280119129E-02
    30  2.9000000000000E-01  7.6641408597855E-01  1.4036237334319E+00 -6.0585374265465E-02
    31  3.0000000000000E-01  6.0028192750983E-01  1.4361319251832E+00 -6.4144321975172E-02
    32  3.1000000000000E-01  4.3390945754419E-01  1.4663103988006E+00 -7.3860281870204E-02
    33  3.2000000000000E-01  2.6899867266501E-01  1.4940301341468E+00 -8.9597948630155E-02
    34  3.3000000000000E-01  1.0717752487506E-01  1.5191690433945E+00 -1.1105014122206E-01
    35  3.4000000000000E-01 -5.0017699383346E-02  1.5416132539561E+00 -1.3774365829422E-01
    36  3.5000000000000E-01 -2.0115812568800E-01  1.5612583420769E+00 -1.6904924203549E-01
    37  3.6000000000000E-01 -3.4493600311210E-01  1.5780105021934E+00 -2.0419537852224E-01
    38  3.7000000000000E-01 -4.8017626057640E-01  1.5917876376355E+00 -2.4228555680747E-01
    39  3.8000000000000E-01 -6.0584582874313E-01  1.6025203589286E+00 -2.8231851421769E-01
    40  3.9000000000000E-01 -7.2106068848384E-01  1.6101528768357E+00 -3.2321091469721E-01
    41  4.0000000000000E-01 -8.2509064601601E-01  1.6146437783605E+00 -3.6382184331262E-01
    42  4.1000000000000E-01 -9.1736187175915E-01  1.6159666752210E+00 -4.0297845542178E-01
    43  4.2000000000000E-01 -9.9745727409768E-01  1.6141107157702E+00 -4.3950209509433E-01
    44  4.3000000000000E-01 -1.0651148099512E+00  1.6090809529900E+00 -4.7223419502202E-01
    45  4.4000000000000E-01 -1.1202238608626E+00  1.6008985629796E+00 -5.0006128948307E-01
    46  4.5000000000000E-01 -1.1628198258746E+00  1.5896009102863E+00 -5.2193851226105E-01
    47  4.6000000000000E-01 -1.1930771005679E+00  1.5752414584504E+00 -5.3691101133270E-01
    48  4.7000000000000E-01 -1.2113006252127E+00  1.5578895262150E+00 -5.4413278945521E-01
    49  4.8000000000000E-01 -1.2179161941139E+00  1.5376298919619E+00 -5.4288257169225E-01
    50  4.9000000000000E-01 -1.2134597230930E+00  1.5145622510193E+00 -5.3257640400882E-01
    51  5.0000000000000E-01 -1.1985656729731E+00  1.4888005325132E+00 -5.1277679754435E-01
    52  5.1000000000000E-01 -1.1739548243037E+00  1.4604720843548E+00 -4.8319834688313E-01
    53  5.2000000000000E-01 -1.1404215928751E+00  1.4297167367286E+00 -4.4370986336610E-01
    54  5.3000000000000E-01 -1.0988210673437E+00  1.3966857560325E+00 -3.9433317197368E-01
    55  5.4000000000000E-01 -1.0500559400931E+00  1.3615407025839E+00 -3.3523881855103E-01
    56  5.5000000000000E-01 -9.9506349083602E-01  1.3244522065142E+00 -2.6673901949156E-01
    57  5.6000000000000E-01 -9.3480276997693E-01  1.2855986771095E+00 -1.8927825530049E-01
    58  5.7000000000000E-01 -8.7024211588173E-01  1.2451649613890E+00 -1.0342196026194E-01
    59  5.8000000000000E-01 -8.0234712738903E-01  1.2033409679507E+00 -9.8437910123840E-03
    60  5.9000000000000E-01 -7.3206920049058E-01  1.1603202720436E+00  9.0688033682334E-02
    61  6.0000000000000E-01 -6.6033472637505E-01  1.1162987174658E+00  1.9732484120708E-01
    62  6.1000000000000E-01 -5.8803503713320E-01  1.0714730302504E+00  3.0915161238211E-01
    63  6.2000000000000E-01 -5.1601717542958E-01  1.0260394582098E+00  4.2520068870012E-01
    64  6.3000000000000E-01 -4.4507555532502E-01  9.8019244931148E-01  5.4446474617605E-01
    65  6.4000000000000E-01 -3.7594457306249E-01  9.3412338057052E-01  6.6590878055594E-01
    66  6.5000000000000E-01 -3.0929221881254E-01  8.8801934773657E-01  7.8848093522140E-01
    67  6.6000000000000E-01 -2.4571473285177E-01  8.4206202455393E-01  9.1112209388934E-01
    68  6.7000000000000E-01 -1.8573234212431E-01  7.9642659884371E-01  1.0327742506427E+00
    69  6.8000000000000E-01 -1.2978610529311E-01  7.5128079114193E-01  1.1523877553413E+00
    70  6.9000000000000E-01 -7.8235885916943E-02  7.0678396017465E-01  1.2689276087039E+00
    71  7.0000000000000E-01 -3.1359464005768E-02  6.6308629810445E-01  1.3813790442709E+00
    72  7.1000000000000E-01  1.0647214316426E-02  6.2032811727838E-01  1.4887526806445E+00
    73  7.2000000000000E-01  4.7668661134963E-02  5.7863922917610E-01  1.5900895541077E+00
    74  7.3000000000000E-01  7.9667370338615E-02  5.3813841541988E-01  1.6844663471501E+00
    75  7.4000000000000E-01  1.0668028029074E-01  4.9893299007587E-01  1.7710011117014E+00
    76  7.5000000000000E-01  1.2881423109304E-01  4.6111845205185E-01  1.8488597472312E+00
    77  7.6000000000000E-01  1.4624048859046E-01  4.2477822616992E-01  1.9172634345903E+00
    78  7.7000000000000E-01  1.5918842445018E-01  3.8998349144584E-01  1.9754971489320E+00
    79  7.8000000000000E-01  1.6793845890799E-01  3.5679309521058E-01  2.0229192825829E+00
    80  7.9000000000000E-01  1.7281438954542E-01  3.2525355192896E-01  2.0589723056052E+00
    81  8.0000000000000E-01  1.7417524510782E-01  2.9539912586057E-01  2.0831942829385E+00
    82  8.1000000000000E-01  1.7240681721848E-01  2.6725199702287E-01  2.0952309579488E+00
    83  8.2000000000000E-01  1.6791303419161E-01  2.4082251020359E-01  2.0948480087490E+00
    84  8.3000000000000E-01  1.6110734931971E-01  2.1610950697908E-01  2.0819429916737E+00
    85  8.4000000000000E-01  1.5240432037250E-01  1.9310074077691E-01  2.0565564114800E+00
    86  8.5000000000000E-01  1.4221155704317E-01  1.7177337493055E-01  2.0188813054806E+00
    87  8.6000000000000E-01  1.3092220826938E-01  1.5209456337287E-01  1.9692707034263E+00
    88  8.7000000000000E-01  1.1890815143010E-01  1.3402211307256E-01  1.9082423302406E+00
    89  8.8000000000000E-01  1.0651403023681E-01  1.1750522651627E-01  1.8364799571493E+00
    90  8.9000000000000E-01  9.4052267723909E-02  1.0248532146927E-01  1.7548308796627E+00
    91  9.0000000000000E-01  8.1799155329923E-02  8.8896923915807E-02  1.6642991081021E+00
    92  9.1000000000000E-01  6.9992089063642E-02  7.6668628504946E-02  1.5660339963901E+00
    93  9.2000000000000E-01  5.8827989781383E-02  6.5724119039794E-02  1.4613142046329E+00
    94  9.3000000000000E-01  4.8462907452339E-02  5.5983239592632E-02  1.3515270862871E+00
    95  9.4000000000000E-01  3.9012769913933E-02  4.7363104760315E-02  1.2381438057458E+00
    96  9.5000000000000E-01  3.0555196096888E-02  3.9779235458612E-02  1.1226907203742E+00
    97  9.6000000000000E-01  2.3132253231052E-02  3.3146704563890E-02  1.0067177946987E+00
    98  9.7000000000000E-01  1.6753998350808E-02  2.7381274721895E-02  8.9176504561171E-01
    99  9.8000000000000E-01  1.1402607791957E-02  2.2400508836644E-02  7.7932823751652E-01
   100  9.9000000000000E-01  7.0368655309221E-03  1.8124832205162E-02  6.7082524697871E-01
   101  1.0000000000000E+00  3.5967533368501E-03  1.4478524050124E-02  5.6756468956849E-01
   102  1.0100000000000E+00  1.0078638097546E-03  1.1390615388175E-02  4.7071853992491E-01
   103  1.0200000000000E+00 -8.1465763149080E-04  8.7956698142220E-03  3.8130057314063E-01
   104  1.0300000000000E+00 -1.9629411980943E-03  6.6344249857331E-03  3.0015249572211E-01
   105  1.0400000000000E+00 -2.5343292112421E-03  4.8542555465414E-03  2.2793983592121E-01
   106  1.0500000000000E+00 -2.6306633228052E-03  3.4094847029491E-03  1.6515911897341E-01
   107  1.0600000000000E+00 -2.3710095922105E-03  2.2537103237004E-03  1.1222323070848E-01
   108  1.0700000000000E+00 -1.8602855613958E-03  1.3529877659461E-03  6.9321974632961E-02
   109  1.0800000000000E+00 -1.2049111594185E-03  6.9147952912447E-04  3.6509766466047E-02
   110  1.0900000000000E+00 -5.5221346776598E-04  2.5577580986890E-04  1.3949259731038E-02
   111  1.1000000000000E+00 -9.1250454009099E-05  3.4707347400169E-05  1.9608889377122E-03
   112  1.1100000000000E+00  4.9231900392572E-06 -1.6321930325224E-06 -9.5160255905783E-05
   113  1.1200000000000E+00  1.3432339384509E-07 -5.1446877766477E-08 -2.9108291968354E-06
   114  1.13 -0. -0.  0.
   115  1.14  0.  0.  0.
   116  1.15  0.  0.  0.
   117  1.16  0.  0.  0.
   118  1.17  0.  0.  0.
   119  1.18  0.  0.  0.
   120  1.19  0.  0.  0.
   121  1.20  0.  0.  0.
   122  1.21  0.  0.  0.
   123  1.22  0.  0.  0.
   124  1.23  0.  0.  0.
   125  1.24  0.  0.  0.
   126  1.25  0.  0.  0.
   127  1.26  0.  0.  0.
   128  1.27  0.  0.  0.
   129  1.28  0.  0.  0.
   130  1.29  0.  0.  0.
   131  1.30  0.  0.  0.
   132  1.31  0.  0.  0.
   133  1.32  0.  0.  0.
   134  1.33  0.  0.  0.
   135  1.34  0.  0.  0.
   136  1.35  0.  0.  0.
   137  1.36  0.  0.  0.
   138  1.37  0.  0.  0.
   139  1.38  0.  0.  0.
   140  1.39  0.  0.  0.
   141  1.40  0.  0.  0.
   142  1.41  0.  0.  0.
   143  1.42  0.  0.  0.
   144  1.43  0.  0.  0.
   145  1.44  0.  0.  0.
   146  1.45  0.  0.  0.
   147  1.46  0.  0.  0.
   148  1.47  0.  0.  0.
   149  1.48  0.  0.  0.
   150  1.49  0.  0.  0.
   151  1.50  0.  0.  0.
   152  1.51  0.  0.  0.
   153  1.52  0.  0.  0.
   154  1.53  0.  0.  0.
   155  1.54  0.  0.  0.
   156  1.55  0.  0.  0.
   157  1.56  0.  0.  0.
   158  1.57  0.  0.  0.
   159  1.58  0.  0.  0.
   160  1.59  0.  0.  0.
   161  1.60  0.  0.  0.
   162  1.61  0.  0.  0.
   163  1.62  0.  0.  0.
   164  1.63  0.  0.  0.
   165  1.64  0.  0.  0.
   166  1.65  0.  0.  0.
   167  1.66  0.  0.  0.
   168  1.67  0.  0.  0.
   169  1.68  0.  0.  0.
   170  1.69  0.  0.  0.
   171  1.70  0.  0.  0.
   172  1.71  0.  0.  0.
   173  1.72  0.  0.  0.
   174  1.73  0.  0.  0.
   175  1.74  0.  0.  0.
   176  1.75  0.  0.  0.
   177  1.76  0.  0.  0.
   178  1.77  0.  0.  0.
   179  1.78  0.  0.  0.
   180  1.79  0.  0.  0.
   181  1.80  0.  0.  0.
   182  1.81  0.  0.  0.
   183  1.82  0.  0.  0.
   184  1.83  0.  0.  0.
   185  1.84  0.  0.  0.
   186  1.85  0.  0.  0.
   187  1.86  0.  0.  0.
   188  1.87  0.  0.  0.
   189  1.88  0.  0.  0.
   190  1.89  0.  0.  0.
   191  1.90  0.  0.  0.
   192  1.91  0.  0.  0.
   193  1.92  0.  0.  0.
   194  1.93  0.  0.  0.
   195  1.94  0.  0.  0.
   196  1.95  0.  0.  0.
   197  1.96  0.  0.  0.
   198  1.97  0.  0.  0.
   199  1.98  0.  0.  0.
   200  1.99  0.  0.  0.
   201  2.00  0.  0.  0.
   202  2.01  0.  0.  0.
   203  2.02  0.  0.  0.
   204  2.03  0.  0.  0.
   205  2.04  0.  0.  0.
   206  2.05  0.  0.  0.
   207  2.06  0.  0.  0.
   208  2.07  0.  0.  0.
   209  2.08  0.  0.  0.
   210  2.09  0.  0.  0.
   211  2.10  0.  0.  0.
   212  2.11  0.  0.  0.
   213  2.12  0.  0.  0.
   214  2.13  0.  0.  0.
   215  2.14  0.  0.  0.
   216  2.15  0.  0.  0.
   217  2.16  0.  0.  0.
   218  2.17  0.  0.  0.
   219  2.18  0.  0.  0.
   220  2.19  0.  0.  0.
   221  2.20  0.  0.  0.
   222  2.21  0.  0.  0.
   223  2.22  0.  0.  0.
   224  2.23  0.  0.  0.
   225  2.24  0.  0.  0.
   226  2.25  0.  0.  0.
   227  2.26  0.  0.  0.
   228  2.27  0.  0.  0.
   229  2.28  0.  0.  0.
   230  2.29  0.  0.  0.
   231  2.30  0.  0.  0.
   232  2.31  0.  0.  0.
   233  2.32  0.  0.  0.
   234  2.33  0.  0.  0.
   235  2.34  0.  0.  0.
   236  2.35  0.  0.  0.
   237  2.36  0.  0.  0.
   238  2.37  0.  0.  0.
   239  2.38  0.  0.  0.
   240  2.39  0.  0.  0.
   241  2.40  0.  0.  0.
   242  2.41  0.  0.  0.
   243  2.42  0.  0.  0.
   244  2.43  0.  0.  0.
   245  2.44  0.  0.  0.
   246  2.45  0.  0.  0.
   247  2.46  0.  0.  0.
   248  2.47  0.  0.  0.
   249  2.48  0.  0.  0.
   250  2.49  0.  0.  0.
   251  2.50  0.  0.  0.
   252  2.51  0.  0.  0.
   253  2.52  0.  0.  0.
   254  2.53  0.  0.  0.
   255  2.54  0.  0.  0.
   256  2.55  0.  0.  0.
   257  2.56  0.  0.  0.
   258  2.57  0.  0.  0.
   259  2.58  0.  0.  0.
   260  2.59  0.  0.  0.
   261  2.60  0.  0.  0.
   262  2.61  0.  0.  0.
   263  2.62  0.  0.  0.
   264  2.63  0.  0.  0.
   265  2.64  0.  0.  0.
   266  2.65  0.  0.  0.
   267  2.66  0.  0.  0.
   268  2.67  0.  0.  0.
   269  2.68  0.  0.  0.
   270  2.69  0.  0.  0.
   271  2.70  0.  0.  0.
   272  2.71  0.  0.  0.
   273  2.72  0.  0.  0.
   274  2.73  0.  0.  0.
   275  2.74  0.  0.  0.
   276  2.75  0.  0.  0.
   277  2.76  0.  0.  0.
   278  2.77  0.  0.  0.
   279  2.78  0.  0.  0.
   280  2.79  0.  0.  0.
   281  2.80  0.  0.  0.
   282  2.81  0.  0.  0.
   283  2.82  0.  0.  0.
   284  2.83  0.  0.  0.
   285  2.84  0.  0.  0.
   286  2.85  0.  0.  0.
   287  2.86  0.  0.  0.
   288  2.87  0.  0.  0.
   289  2.88  0.  0.  0.
   290  2.89  0.  0.  0.
   291  2.90  0.  0.  0.
   292  2.91  0.  0.  0.
   293  2.92  0.  0.  0.
   294  2.93  0.  0.  0.
   295  2.94  0.  0.  0.
   296  2.95  0.  0.  0.
   297  2.96  0.  0.  0.
   298  2.97  0.  0.  0.
   299  2.98  0.  0.  0.
   300  2.99  0.  0.  0.
   301  3.00  0.  0.  0.
   302  3.01  0.  0.  0.
   303  3.02  0.  0.  0.
   304  3.03  0.  0.  0.
   305  3.04  0.  0.  0.
   306  3.05  0.  0.  0.
   307  3.06  0.  0.  0.
   308  3.07  0.  0.  0.
   309  3.08  0.  0.  0.
   310  3.09  0.  0.  0.
   311  3.10  0.  0.  0.
   312  3.11  0.  0.  0.
   313  3.12  0.  0.  0.
   314  3.13  0.  0.  0.
   315  3.14  0.  0.  0.
   316  3.15  0.  0.  0.
   317  3.16  0.  0.  0.
   318  3.17  0.  0.  0.
   319  3.18  0.  0.  0.
   320  3.19  0.  0.  0.
   321  3.20  0.  0.  0.
   322  3.21  0.  0.  0.
   323  3.22  0.  0.  0.
   324  3.23  0.  0.  0.
   325  3.24  0.  0.  0.
   326  3.25  0.  0.  0.
   327  3.26  0.  0.  0.
   328  3.27  0.  0.  0.
   329  3.28  0.  0.  0.
   330  3.29  0.  0.  0.
   331  3.30  0.  0.  0.
   332  3.31  0.  0.  0.
   333  3.32  0.  0.  0.
   334  3.33  0.  0.  0.
   335  3.34  0.  0.  0.
   336  3.35  0.  0.  0.
   337  3.36  0.  0.  0.
   338  3.37  0.  0.  0.
   339  3.38  0.  0.  0.
   340  3.39  0.  0.  0.
   341  3.40  0.  0.  0.
   342  3.41  0.  0.  0.
   343  3.42  0.  0.  0.
   344  3.43  0.  0.  0.
   345  3.44  0.  0.  0.
   346  3.45  0.  0.  0.
   347  3.46  0.  0.  0.
   348  3.47  0.  0.  0.
   349  3.48  0.  0.  0.
   350  3.49  0.  0.  0.
   351  3.50  0.  0.  0.
   352  3.51  0.  0.  0.
   353  3.52  0.  0.  0.
   354  3.53  0.  0.  0.
   355  3.54  0.  0.  0.
   356  3.55  0.  0.  0.
   357  3.56  0.  0.  0.
   358  3.57  0.  0.  0.
   359  3.58  0.  0.  0.
   360  3.59  0.  0.  0.
   361  3.60  0.  0.  0.
   362  3.61  0.  0.  0.
   363  3.62  0.  0.  0.
   364  3.63  0.  0.  0.
   365  3.64  0.  0.  0.
   366  3.65  0.  0.  0.
   367  3.66  0.  0.  0.
   368  3.67  0.  0.  0.
   369  3.68  0.  0.  0.
   370  3.69  0.  0.  0.
   371  3.70  0.  0.  0.
   372  3.71  0.  0.  0.
   373  3.72  0.  0.  0.
   374  3.73  0.  0.  0.
   375  3.74  0.  0.  0.
   376  3.75  0.  0.  0.
   377  3.76  0.  0.  0.
   378  3.77  0.  0.  0.
   379  3.78  0.  0.  0.
   380  3.79  0.  0.  0.
   381  3.80  0.  0.  0.
   382  3.81  0.  0.  0.
   383  3.82  0.  0.  0.
   384  3.83  0.  0.  0.
   385  3.84  0.  0.  0.
   386  3.85  0.  0.  0.
   387  3.86  0.  0.  0.
   388  3.87  0.  0.  0.
   389  3.88  0.  0.  0.
   390  3.89  0.  0.  0.
   391  3.90  0.  0.  0.
   392  3.91  0.  0.  0.
   393  3.92  0.  0.  0.
   394  3.93  0.  0.  0.
   395  3.94  0.  0.  0.
   396  3.95  0.  0.  0.
   397  3.96  0.  0.  0.
   398  3.97  0.  0.  0.
   399  3.98  0.  0.  0.
   400  3.99  0.  0.  0.
   401  4.00  0.  0.  0.
   402  4.01  0.  0.  0.
   403  4.02  0.  0.  0.
   404  4.03  0.  0.  0.
   405  4.04  0.  0.  0.
   406  4.05  0.  0.  0.
   407  4.06  0.  0.  0.
   408  4.07  0.  0.  0.
   409  4.08  0.  0.  0.
   410  4.09  0.  0.  0.
   411  4.10  0.  0.  0.
   412  4.11  0.  0.  0.
   413  4.12  0.  0.  0.
   414  4.13  0.  0.  0.
   415  4.14  0.  0.  0.
   416  4.15  0.  0.  0.
   417  4.16  0.  0.  0.
   418  4.17  0.  0.  0.
   419  4.18  0.  0.  0.
   420  4.19  0.  0.  0.
   421  4.20  0.  0.  0.
   422  4.21  0.  0.  0.
   423  4.22  0.  0.  0.
   424  4.23  0.  0.  0.
   425  4.24  0.  0.  0.
   426  4.25  0.  0.  0.
   427  4.26  0.  0.  0.
   428  4.27  0.  0.  0.
   429  4.28  0.  0.  0.
   430  4.29  0.  0.  0.
   431  4.30  0.  0.  0.
   432  4.31  0.  0.  0.
   433  4.32  0.  0.  0.
   434  4.33  0.  0.  0.
   435  4.34  0.  0.  0.
   436  4.35  0.  0.  0.
   437  4.36  0.  0.  0.
   438  4.37  0.  0.  0.
   439  4.38  0.  0.  0.
   440  4.39  0.  0.  0.
   441  4.40  0.  0.  0.
   442  4.41  0.  0.  0.
   443  4.42  0.  0.  0.
   444  4.43  0.  0.  0.
   445  4.44  0.  0.  0.
   446  4.45  0.  0.  0.
   447  4.46  0.  0.  0.
   448  4.47  0.  0.  0.
   449  4.48  0.  0.  0.
   450  4.49  0.  0.  0.
   451  4.50  0.  0.  0.
   452  4.51  0.  0.  0.
   453  4.52  0.  0.  0.
   454  4.53  0.  0.  0.
   455  4.54  0.  0.  0.
   456  4.55  0.  0.  0.
   457  4.56  0.  0.  0.
   458  4.57  0.  0.  0.
   459  4.58  0.  0.  0.
   460  4.59  0.  0.  0.
   461  4.60  0.  0.  0.
   462  4.61  0.  0.  0.
   463  4.62  0.  0.  0.
   464  4.63  0.  0.  0.
   465  4.64  0.  0.  0.
   466  4.65  0.  0.  0.
   467  4.66  0.  0.  0.
   468  4.67  0.  0.  0.
   469  4.68  0.  0.  0.
   470  4.69  0.  0.  0.
   471  4.70  0.  0.  0.
   472  4.71  0.  0.  0.
   473  4.72  0.  0.  0.
   474  4.73  0.  0.  0.
   475  4.74  0.  0.  0.
   476  4.75  0.  0.  0.
   477  4.76  0.  0.  0.
   478  4.77  0.  0.  0.
   479  4.78  0.  0.  0.
   480  4.79  0.  0.  0.
   481  4.80  0.  0.  0.
   482  4.81  0.  0.  0.
   483  4.82  0.  0.  0.
   484  4.83  0.  0.  0.
   485  4.84  0.  0.  0.
   486  4.85  0.  0.  0.
   487  4.86  0.  0.  0.
   488  4.87  0.  0.  0.
   489  4.88  0.  0.  0.
   490  4.89  0.  0.  0.
   491  4.90  0.  0.  0.
   492  4.91  0.  0.  0.
   493  4.92  0.  0.  0.
   494  4.93  0.  0.  0.
   495  4.94  0.  0.  0.
   496  4.95  0.  0.  0.
   497  4.96  0.  0.  0.
   498  4.97  0.  0.  0.
   499  4.98  0.  0.  0.
   500  4.99  0.  0.  0.
   501  5.00  0.  0.  0.
   502  5.01  0.  0.  0.
   503  5.02  0.  0.  0.
   504  5.03  0.  0.  0.
   505  5.04  0.  0.  0.
   506  5.05  0.  0.  0.
   507  5.06  0.  0.  0.
   508  5.07  0.  0.  0.
   509  5.08  0.  0.  0.
   510  5.09  0.  0.  0.
   511  5.10  0.  0.  0.
   512  5.11  0.  0.  0.
   513  5.12  0.  0.  0.
   514  5.13  0.  0.  0.
   515  5.14  0.  0.  0.
   516  5.15  0.  0.  0.
   517  5.16  0.  0.  0.
   518  5.17  0.  0.  0.
   519  5.18  0.  0.  0.
   520  5.19  0.  0.  0.
   521  5.20  0.  0.  0.
   522  5.21  0.  0.  0.
   523  5.22  0.  0.  0.
   524  5.23  0.  0.  0.
   525  5.24  0.  0.  0.
   526  5.25  0.  0.  0.
   527  5.26  0.  0.  0.
   528  5.27  0.  0.  0.
   529  5.28  0.  0.  0.
   530  5.29  0.  0.  0.
   531  5.30  0.  0.  0.
   532  5.31  0.  0.  0.
   533  5.32  0.  0.  0.
   534  5.33  0.  0.  0.
   535  5.34  0.  0.  0.
   536  5.35  0.  0.  0.
   537  5.36  0.  0.  0.
   538  5.37  0.  0.  0.
   539  5.38  0.  0.  0.
   540  5.39  0.  0.  0.
   541  5.40  0.  0.  0.
   542  5.41  0.  0.  0.
   543  5.42  0.  0.  0.
   544  5.43  0.  0.  0.
   545  5.44  0.  0.  0.
   546  5.45  0.  0.  0.
   547  5.46  0.  0.  0.
   548  5.47  0.  0.  0.
   549  5.48  0.  0.  0.
   550  5.49  0.  0.  0.
   551  5.50  0.  0.  0.
   552  5.51  0.  0.  0.
   553  5.52  0.  0.  0.
   554  5.53  0.  0.  0.
   555  5.54  0.  0.  0.
   556  5.55  0.  0.  0.
   557  5.56  0.  0.  0.
   558  5.57  0.  0.  0.
   559  5.58  0.  0.  0.
   560  5.59  0.  0.  0.
   561  5.60  0.  0.  0.
   562  5.61  0.  0.  0.
   563  5.62  0.  0.  0.
   564  5.63  0.  0.  0.
   565  5.64  0.  0.  0.
   566  5.65  0.  0.  0.
   567  5.66  0.  0.  0.
   568  5.67  0.  0.  0.
   569  5.68  0.  0.  0.
   570  5.69  0.  0.  0.
   571  5.70  0.  0.  0.
   572  5.71  0.  0.  0.
   573  5.72  0.  0.  0.
   574  5.73  0.  0.  0.
   575  5.74  0.  0.  0.
   576  5.75  0.  0.  0.
   577  5.76  0.  0.  0.
   578  5.77  0.  0.  0.
   579  5.78  0.  0.  0.
   580  5.79  0.  0.  0.
   581  5.80  0.  0.  0.
   582  5.81  0.  0.  0.
   583  5.82  0.  0.  0.
   584  5.83  0.  0.  0.
   585  5.84  0.  0.  0.
   586  5.85  0.  0.  0.
   587  5.86  0.  0.  0.
   588  5.87  0.  0.  0.
   589  5.88  0.  0.  0.
   590  5.89  0.  0.  0.
   591  5.90  0.  0.  0.
   592  5.91  0.  0.  0.
   593  5.92  0.  0.  0.
   594  5.93  0.  0.  0.
   595  5.94  0.  0.  0.
   596  5.95  0.  0.  0.
   597  5.96  0.  0.  0.
   598  5.97  0.  0.  0.
   599  5.98  0.  0.  0.
   600  5.99  0.  0.  0.
   1                        -9.4270865590929E+00 -2.0867111402015E-01
     1  0.0000000000000E+00  2.5181945695341E-09  1.9978923515573E-08
     2  1.0000000000000E-02  2.5759408175957E-03  4.6825308421682E-03
     3  2.0000000000000E-02  1.0286621675047E-02  1.8666317143779E-02
     4  3.0000000000000E-02  2.3080757047354E-02  4.1760772567994E-02
     5  4.0000000000000E-02  4.0873333874838E-02  7.3651016514265E-02
     6  5.0000000000000E-02  6.3546300944398E-02  1.1390198012997E-01
     7  6.0000000000000E-02  9.0949524398600E-02  1.6196407740299E-01
     8  7.0000000000000E-02  1.2290199988426E-01  2.1718036525193E-01
     9  8.0000000000000E-02  1.5919330933405E-01  2.7879509655193E-01
    10  9.0000000000000E-02  1.9958530799738E-01  3.4596355134021E-01
    11  1.0000000000000E-01  2.4381402512823E-01  4.1776301429760E-01
    12  1.1000000000000E-01  2.9159175972264E-01  4.9320475123192E-01
    13  1.2000000000000E-01  3.4260935089992E-01  5.7124682391088E-01
    14  1.3000000000000E-01  3.9653860095937E-01  6.5080757139336E-01
    15  1.4000000000000E-01  4.5303482783475E-01  7.3077957715193E-01
    16  1.5000000000000E-01  5.1173952262553E-01  8.1004393489329E-01
    17  1.6000000000000E-01  5.7228308711682E-01  8.8748462216676E-01
    18  1.7000000000000E-01  6.3428762571525E-01  9.6200278966815E-01
    19  1.8000000000000E-01  6.9736976602827E-01  1.0325307756235E+00
    20  1.9000000000000E-01  7.6114348239882E-01  1.0980456587655E+00
    21  2.0000000000000E-01  8.2522289707099E-01  1.1575821701509E+00
    22  2.1000000000000E-01  8.8922503429694E-01  1.2102447933190E+00
    23  2.2000000000000E-01  9.5277250358993E-01  1.2552188939474E+00
    24  2.3000000000000E-01  1.0154960894672E+00  1.2917807340528E+00
    25  2.4000000000000E-01  1.0770372263928E+00  1.3193062417315E+00
    26  2.5000000000000E-01  1.1370503392031E+00  1.3372784251958E+00
    27  2.6000000000000E-01  1.1952050310549E+00  1.3452933392035E+00
    28  2.7000000000000E-01  1.2511881028505E+00  1.3430645325979E+00
    29  2.8000000000000E-01  1.3047053901447E+00  1.3304259272843E+00
    30  2.9000000000000E-01  1.3554834056893E+00  1.3073331012391E+00
    31  3.0000000000000E-01  1.4032707780043E+00  1.2738629707459E+00
    32  3.1000000000000E-01  1.4478394786385E+00  1.2302118896343E+00
    33  3.2000000000000E-01  1.4889858330815E+00  1.1766922055182E+00
    34  3.3000000000000E-01  1.5265313125750E+00  1.1137273345502E+00
    35  3.4000000000000E-01  1.5603231063196E+00  1.0418454366906E+00
    36  3.5000000000000E-01  1.5902344757593E+00  9.6167179261885E-01
    37  3.6000000000000E-01  1.6161648947226E+00  8.7392000089522E-01
    38  3.7000000000000E-01  1.6380399811833E+00  7.7938212954181E-01
    39  3.8000000000000E-01  1.6558112282583E+00  6.7891796960875E-01
    40  3.9000000000000E-01  1.6694555437575E+00  5.7344354933533E-01
    41  4.0000000000000E-01  1.6789746091416E+00  4.6391907602824E-01
    42  4.1000000000000E-01  1.6843940700934E+00  3.5133647865833E-01
    43  4.2000000000000E-01  1.6857625720797E+00  2.3670672733426E-01
    44  4.3000000000000E-01  1.6831506552476E+00  1.2104710624094E-01
    45  4.4000000000000E-01  1.6766495237711E+00  5.3686143389265E-03
    46  4.5000000000000E-01  1.6663697053332E+00 -1.0933633680310E-01
    47  4.6000000000000E-01  1.6524396167971E+00 -2.2210576611630E-01
    48  4.7000000000000E-01  1.6350040522973E+00 -3.3201935495299E-01
    49  4.8000000000000E-01  1.6142226099698E+00 -4.3820892763580E-01
    50  4.9000000000000E-01  1.5902680733516E+00 -5.3986805429638E-01
    51  5.0000000000000E-01  1.5633247631242E+00 -6.3626066513249E-01
    52  5.1000000000000E-01  1.5335868743714E+00 -7.2672858200333E-01
    53  5.2000000000000E-01  1.5012568138751E+00 -8.1069789106743E-01
    54  5.3000000000000E-01  1.4665435512115E+00 -8.8768409861263E-01
    55  5.4000000000000E-01  1.4296609965384E+00 -9.5729603098808E-01
    56  5.5000000000000E-01  1.3908264170140E+00 -1.0192384582835E+00
    57  5.6000000000000E-01  1.3502589027626E+00 -1.0733134397761E+00
    58  5.7000000000000E-01  1.3081778922321E+00 -1.1194204068671E+00
    59  5.8000000000000E-01  1.2648017656814E+00 -1.1575550159612E+00
    60  5.9000000000000E-01  1.2203465144162E+00 -1.1878068192418E+00
    61  6.0000000000000E-01  1.1750244922663E+00 -1.2103558153321E+00
    62  6.1000000000000E-01  1.1290432546908E+00 -1.2254679542212E+00
    63  6.2000000000000E-01  1.0826044898143E+00 -1.2334896814236E+00
    64  6.3000000000000E-01  1.0359030446523E+00 -1.2348416150442E+00
    65  6.4000000000000E-01  9.8912604878828E-01 -1.2300114561729E+00
    66  6.5000000000000E-01  9.4245213682280E-01 -1.2195462378495E+00
    67  6.6000000000000E-01  8.9605077003630E-01 -1.2040440207503E+00
    68  6.7000000000000E-01  8.5008165689481E-01 -1.1841451448620E+00
    69  6.8000000000000E-01  8.0469427128371E-01 -1.1605231458448E+00
    70  6.9000000000000E-01  7.6002746668165E-01 -1.1338754427308E+00
    71  7.0000000000000E-01  7.1620918388335E-01 -1.1049139002536E+00
    72  7.1000000000000E-01  6.7335624934491E-01 -1.0743553646946E+00
    73  7.2000000000000E-01  6.3157426075558E-01 -1.0429122669132E+00
    74  7.3000000000000E-01  5.9095755603161E-01 -1.0112833804611E+00
    75  7.4000000000000E-01  5.5158926157662E-01 -9.8014481663364E-01
    76  7.5000000000000E-01  5.1354141535369E-01 -9.5014133225116E-01
    77  7.6000000000000E-01  4.7687516006098E-01 -9.2187802012476E-01
    78  7.7000000000000E-01  4.4164100149091E-01 -8.9591244679709E-01
    79  7.8000000000000E-01  4.0787912697579E-01 -8.7274729744159E-01
    80  7.9000000000000E-01  3.7561977867678E-01 -8.5282358393739E-01
    81  8.0000000000000E-01  3.4488367635170E-01 -8.3651446923521E-01
    82  8.1000000000000E-01  3.1568248413863E-01 -8.2411975928644E-01
    83  8.2000000000000E-01  2.8801931581079E-01 -8.1586111305770E-01
    84  8.3000000000000E-01  2.6188927289392E-01 -8.1187802149743E-01
    85  8.4000000000000E-01  2.3728000998611E-01 -8.1222460769724E-01
    86  8.5000000000000E-01  2.1417232158385E-01 -8.1686730280300E-01
    87  8.6000000000000E-01  1.9254074469473E-01 -8.2568345532088E-01
    88  8.7000000000000E-01  1.7235417150977E-01 -8.3846093515026E-01
    89  8.8000000000000E-01  1.5357646641761E-01 -8.5489879772628E-01
    90  8.9000000000000E-01  1.3616708167199E-01 -8.7460907780954E-01
    91  9.0000000000000E-01  1.2008166607561E-01 -8.9711978644635E-01
    92  9.1000000000000E-01  1.0527266112195E-01 -9.2187918813013E-01
    93  9.2000000000000E-01  9.1689879145329E-02 -9.4826143793412E-01
    94  9.3000000000000E-01  7.9281058171953E-02 -9.7557366004409E-01
    95  9.4000000000000E-01  6.7992388345659E-02 -1.0030645494186E+00
    96  9.5000000000000E-01  5.7769005023864E-02 -1.0299345769664E+00
    97  9.6000000000000E-01  4.8555443905719E-02 -1.0553478754308E+00
    98  9.7000000000000E-01  4.0296053867418E-02 -1.0784458778948E+00
    99  9.8000000000000E-01  3.2935363540685E-02 -1.0983627733335E+00
   100  9.9000000000000E-01  2.6418398080347E-02 -1.1142428338206E+00