Sg    ONCVPSP-4.0.1  r_core=   1.10583   1.10583   1.10583   1.10583
106.0000     46.0000      220326    zatom,zion,pspd
8      11   3     4   600     0    pspcod,pspxc,lmax,lloc,mmax,r2well
5.99000000  5.00000000  0.00000000    rchrg fchrg qchrg
3     2     2     2     0    nproj
1     1           extension_switch
0                         2.0121651563113E+01 -7.0162898313861E+00  1.1420117113882E+00
1  0.0000000000000E+00 -2.2842198132977E-08  1.9392565331344E-10 -4.3953170658639E-08
2  1.0000000000000E-02  1.9894668035937E-01  5.0655725430201E-02  6.7656716452323E-02
3  2.0000000000000E-02  3.9596646775558E-01  1.0129797876541E-01  1.3377646694440E-01
4  3.0000000000000E-02  5.8915581460754E-01  1.5191270720587E-01  1.9685116417556E-01
5  4.0000000000000E-02  7.7665751685936E-01  2.0248470270107E-01  2.5542990780430E-01
6  5.0000000000000E-02  9.5668302360910E-01  2.5299703966779E-01  3.0814616346402E-01
7  6.0000000000000E-02  1.1275337287719E+00  3.0343053097183E-01  3.5374327626514E-01
8  7.0000000000000E-02  1.2876209328107E+00  3.5376320802092E-01  3.9109781614783E-01
9  8.0000000000000E-02  1.4354841854095E+00  4.0396983062205E-01  4.1924029640294E-01
10  9.0000000000000E-02  1.5698077477678E+00  4.5402143202853E-01  4.3737286026491E-01
11  1.0000000000000E-01  1.6894349454742E+00  5.0388490434658E-01  4.4488359278830E-01
12  1.1000000000000E-01  1.7933802190913E+00  5.5352262919686E-01  4.4135718514125E-01
13  1.2000000000000E-01  1.8808387190141E+00  6.0289215823836E-01  4.2658175470489E-01
14  1.3000000000000E-01  1.9511933331156E+00  6.5194594786528E-01  4.0055170548071E-01
15  1.4000000000000E-01  2.0040190793944E+00  7.0063115208566E-01  3.6346659765649E-01
16  1.5000000000000E-01  2.0390848404643E+00  7.4888947728096E-01  3.1572608097740E-01
17  1.6000000000000E-01  2.0563524614173E+00  7.9665710222824E-01  2.5792103192438E-01
18  1.7000000000000E-01  2.0559732764755E+00  8.4386466643236E-01  1.9082111763309E-01
19  1.8000000000000E-01  2.0382821720655E+00  8.9043732945732E-01  1.1535908797467E-01
20  1.9000000000000E-01  2.0037893336437E+00  9.3629490355168E-01  3.2612169265785E-02
21  2.0000000000000E-01  1.9531698599790E+00  9.8135206141932E-01 -5.6219003275695E-02
22  2.1000000000000E-01  1.8872514609145E+00  1.0255186204808E+00 -1.4983342375538E-01
23  2.2000000000000E-01  1.8070004822241E+00  1.0686999043871E+00 -2.4685419229821E-01
24  2.3000000000000E-01  1.7135065234965E+00  1.1107971818748E+00 -3.4585386955748E-01
25  2.4000000000000E-01  1.6079659315751E+00  1.1517081822814E+00 -4.4538013416517E-01
26  2.5000000000000E-01  1.4916644626548E+00  1.1913276861596E+00 -5.4398116896096E-01
27  2.6000000000000E-01  1.3659594105133E+00  1.2295481884482E+00 -6.4023021774594E-01
28  2.7000000000000E-01  1.2322614965361E+00  1.2662606305667E+00 -7.3274878523151E-01
29  2.8000000000000E-01  1.0920168093149E+00  1.3013551966242E+00 -8.2022799816793E-01
30  2.9000000000000E-01  9.4668906795958E-01  1.3347221676766E+00 -9.0144770422684E-01
31  3.0000000000000E-01  7.9774246432058E-01  1.3662528266624E+00 -9.7529295551276E-01
32  3.1000000000000E-01  6.4662531564881E-01  1.3958404053220E+00 -1.0407676036124E+00
33  3.2000000000000E-01  4.9475473154018E-01  1.4233810631007E+00 -1.0970048204804E+00
34  3.3000000000000E-01  3.4350246813805E-01  1.4487748867849E+00 -1.1432744515473E+00
35  3.4000000000000E-01  1.9418210939051E-01  1.4719268984825E+00 -1.1789872013132E+00
36  3.5000000000000E-01  4.8037680632379E-02  1.4927480585650E+00 -1.2036957443206E+00
37  3.6000000000000E-01 -9.3766235143478E-02  1.5111562494021E+00 -1.2170929427251E+00
38  3.7000000000000E-01 -2.3015284227746E-01  1.5270772251737E+00 -1.2190074327076E+00
39  3.8000000000000E-01 -3.6013993544664E-01  1.5404455127872E+00 -1.2093969129023E+00
40  3.9000000000000E-01 -4.8284518784699E-01  1.5512052489922E+00 -1.1883395263599E+00
41  4.0000000000000E-01 -5.9748997898904E-01  1.5593109391974E+00 -1.1560237712084E+00
42  4.1000000000000E-01 -7.0340184001740E-01  1.5647281242718E+00 -1.1127374025329E+00
43  4.2000000000000E-01 -8.0001561364424E-01  1.5674339427577E+00 -1.0588557980118E+00
44  4.3000000000000E-01 -8.8687344032399E-01  1.5674175774329E+00 -9.9483025209910E-01
45  4.4000000000000E-01 -9.6362369202308E-01  1.5646805770070E+00 -9.2117663827891E-01
46  4.5000000000000E-01 -1.0300189798471E+00  1.5592370458903E+00 -8.3846483701284E-01
47  4.6000000000000E-01 -1.0859133620600E+00  1.5511136973887E+00 -7.4730927001454E-01
48  4.7000000000000E-01 -1.1312588749995E+00  1.5403497682880E+00 -6.4836081154627E-01
49  4.8000000000000E-01 -1.1661015015515E+00  1.5269967955352E+00 -5.4230026722578E-01
50  4.9000000000000E-01 -1.1905766808124E+00  1.5111182585168E+00 -4.2983352348074E-01
51  5.0000000000000E-01 -1.2049044490713E+00  1.4927890932010E+00 -3.1168837973845E-01
52  5.1000000000000E-01 -1.2093842870772E+00  1.4720950870574E+00 -1.8861298436476E-01
53  5.2000000000000E-01 -1.2043897325729E+00  1.4491321661152E+00 -6.1375707973951E-02
54  5.3000000000000E-01 -1.1903628011224E+00  1.4240055876881E+00  6.9233792316290E-02
55  5.4000000000000E-01 -1.1678082431572E+00  1.3968290541010E+00  2.0240263341224E-01
56  5.5000000000000E-01 -1.1372876516948E+00  1.3677237641465E+00  3.3729226278093E-01
57  5.6000000000000E-01 -1.0994134239921E+00  1.3368174199149E+00  4.7303592137854E-01
58  5.7000000000000E-01 -1.0548425720563E+00  1.3042432070592E+00  6.0873644422964E-01
59  5.8000000000000E-01 -1.0042703718385E+00  1.2701387664447E+00  7.4346483129547E-01
60  5.9000000000000E-01 -9.4842383932522E-01  1.2346451745047E+00  8.7626000269286E-01
61  6.0000000000000E-01 -8.8805502368999E-01  1.1979059484898E+00  1.0061301141636E+00
62  6.1000000000000E-01 -8.2393411305813E-01  1.1600660912079E+00  1.1320557521120E+00
63  6.2000000000000E-01 -7.5684235698372E-01  1.1212711878521E+00  1.2529952544999E+00
64  6.3000000000000E-01 -6.8756482099769E-01  1.0816665651890E+00  1.3678923170865E+00
65  6.4000000000000E-01 -6.1688300195909E-01  1.0413965208104E+00  1.4756859472567E+00
66  6.5000000000000E-01 -5.4556734772021E-01  1.0006036274374E+00  1.5753227238011E+00
67  6.6000000000000E-01 -4.7436973999737E-01  9.5942811451843E-01  1.6657712147004E+00
68  6.7000000000000E-01 -4.0401601447244E-01  9.1800732667521E-01  1.7460383005687E+00
69  6.8000000000000E-01 -3.3519860616700E-01  8.7647525605026E-01  1.8151870533441E+00
70  6.9000000000000E-01 -2.6856942019612E-01  8.3496214337158E-01  1.8723557322554E+00
71  7.0000000000000E-01 -2.0473303734898E-01  7.9359414068456E-01  1.9167773859060E+00
72  7.1000000000000E-01 -1.4424036989857E-01  7.5249302726675E-01  1.9477994937928E+00
73  7.2000000000000E-01 -8.7582885091226E-02  7.1177596930014E-01  1.9649030453128E+00
74  7.3000000000000E-01 -3.5187511560066E-02  6.7155531345734E-01  1.9677204410834E+00
75  7.4000000000000E-01  1.2587662702184E-02  6.3193840467267E-01  1.9560516110025E+00
76  7.5000000000000E-01  5.5456803128695E-02  5.9302741899864E-01  1.9298777757272E+00
77  7.6000000000000E-01  9.3208769452785E-02  5.5491920354972E-01  1.8893723318983E+00
78  7.7000000000000E-01  1.2570852057587E-01  5.1770511704179E-01  1.8349084142076E+00
79  7.8000000000000E-01  1.5289744076867E-01  4.8147086625469E-01  1.7670627760663E+00
80  7.9000000000000E-01  1.7479256795035E-01  4.4629633576686E-01  1.6866157310535E+00
81  8.0000000000000E-01  1.9148472913145E-01  4.1225541040713E-01  1.5945470046881E+00
82  8.1000000000000E-01  2.0313561222920E-01  3.7941579190188E-01  1.4920274549821E+00
83  8.2000000000000E-01  2.0997382615139E-01  3.4783881302033E-01  1.3804067249942E+00
84  8.3000000000000E-01  2.1229002106215E-01  3.1757925399519E-01  1.2611969854024E+00
85  8.4000000000000E-01  2.1043115689227E-01  2.8868516698218E-01  1.1360530042998E+00
86  8.5000000000000E-01  2.0479401933214E-01  2.6119771469786E-01  1.0067488397363E+00
87  8.6000000000000E-01  1.9581808778724E-01  2.3515102903710E-01  8.7515148338039E-01
88  8.7000000000000E-01  1.8397785831865E-01  2.1057209434078E-01  7.4319178734763E-01
89  8.8000000000000E-01  1.6977471590637E-01  1.8748065801352E-01  6.1283297808375E-01
90  8.9000000000000E-01  1.5372843420735E-01  1.6588916836534E-01  4.8603699981918E-01
91  9.0000000000000E-01  1.3636835737288E-01  1.4580273589272E-01  3.6472883546816E-01
92  9.1000000000000E-01  1.1822428780250E-01  1.2721910978335E-01  2.5075882635394E-01
93  9.2000000000000E-01  9.9817066599106E-02  1.1012865632151E-01  1.4586285657150E-01
94  9.3000000000000E-01  8.1648790930258E-02  9.4514320219807E-02  5.1620087395639E-02
95  9.4000000000000E-01  6.4192565722456E-02  8.0351543871545E-02 -3.0592272674932E-02
96  9.5000000000000E-01  4.7881637597615E-02  6.7608113295583E-02 -9.9647889325707E-02
97  9.6000000000000E-01  3.3097708374825E-02  5.6243893344713E-02 -1.5472486044613E-01
98  9.7000000000000E-01  2.0158175571486E-02  4.6210408788165E-02 -1.9536507148437E-01
99  9.8000000000000E-01  9.3020000207494E-03  3.7450222389335E-02 -2.2154071349651E-01
100  9.9000000000000E-01  6.7385624634194E-04  2.9896056115410E-02 -2.3372952525947E-01
101  1.0000000000000E+00 -5.6937814686717E-03  2.3469601779165E-02 -2.3300024829267E-01
102  1.0100000000000E+00 -9.9008798549647E-03  1.8079978177212E-02 -2.2110914363816E-01
103  1.0200000000000E+00 -1.2176198050426E-02  1.3624987923192E-02 -2.0043205627711E-01
104  1.0300000000000E+00 -1.2812751600168E-02  9.9998690591480E-03 -1.7350684613063E-01
105  1.0400000000000E+00 -1.2135697873579E-02  7.1023894723150E-03 -1.4282708626376E-01
106  1.0500000000000E+00 -1.0491689761905E-02  4.8352907924943E-03 -1.1078773470405E-01
107  1.0600000000000E+00 -8.2540537192540E-03  3.0957790068679E-03 -7.9702985513349E-02
108  1.0700000000000E+00 -5.7721069894583E-03  1.7995978952827E-03 -5.1595293201278E-02
109  1.0800000000000E+00 -3.3751969777018E-03  8.9125627934685E-04 -2.8189595409200E-02
110  1.0900000000000E+00 -1.4072508930637E-03  3.2008380819002E-04 -1.1060029599159E-02
111  1.1000000000000E+00 -2.1251828950383E-04  4.2307327759694E-05 -1.5802914566001E-03
112  1.1100000000000E+00  1.0807682030571E-05 -1.9499672679627E-06  7.7377561996070E-05
113  1.1200000000000E+00  3.1427520888713E-07 -6.2749342289782E-08  2.3440421526293E-06
114  1.13 -0. -0. -0.
115  1.14  0.  0.  0.
116  1.15  0.  0.  0.
117  1.16  0.  0.  0.
118  1.17  0.  0.  0.
119  1.18  0.  0.  0.
120  1.19  0.  0.  0.
121  1.20  0.  0.  0.
122  1.21  0.  0.  0.
123  1.22  0.  0.  0.
124  1.23  0.  0.  0.
125  1.24  0.  0.  0.
126  1.25  0.  0.  0.
127  1.26  0.  0.  0.
128  1.27  0.  0.  0.
129  1.28  0.  0.  0.
130  1.29  0.  0.  0.
131  1.30  0.  0.  0.
132  1.31  0.  0.  0.
133  1.32  0.  0.  0.
134  1.33  0.  0.  0.
135  1.34  0.  0.  0.
136  1.35  0.  0.  0.
137  1.36  0.  0.  0.
138  1.37  0.  0.  0.
139  1.38  0.  0.  0.
140  1.39  0.  0.  0.
141  1.40  0.  0.  0.
142  1.41  0.  0.  0.
143  1.42  0.  0.  0.
144  1.43  0.  0.  0.
145  1.44  0.  0.  0.
146  1.45  0.  0.  0.
147  1.46  0.  0.  0.
148  1.47  0.  0.  0.
149  1.48  0.  0.  0.
150  1.49  0.  0.  0.
151  1.50  0.  0.  0.
152  1.51  0.  0.  0.
153  1.52  0.  0.  0.
154  1.53  0.  0.  0.
155  1.54  0.  0.  0.
156  1.55  0.  0.  0.
157  1.56  0.  0.  0.
158  1.57  0.  0.  0.
159  1.58  0.  0.  0.
160  1.59  0.  0.  0.
161  1.60  0.  0.  0.
162  1.61  0.  0.  0.
163  1.62  0.  0.  0.
164  1.63  0.  0.  0.
165  1.64  0.  0.  0.
166  1.65  0.  0.  0.
167  1.66  0.  0.  0.
168  1.67  0.  0.  0.
169  1.68  0.  0.  0.
170  1.69  0.  0.  0.
171  1.70  0.  0.  0.
172  1.71  0.  0.  0.
173  1.72  0.  0.  0.
174  1.73  0.  0.  0.
175  1.74  0.  0.  0.
176  1.75  0.  0.  0.
177  1.76  0.  0.  0.
178  1.77  0.  0.  0.
179  1.78  0.  0.  0.
180  1.79  0.  0.  0.
181  1.80  0.  0.  0.
182  1.81  0.  0.  0.
183  1.82  0.  0.  0.
184  1.83  0.  0.  0.
185  1.84  0.  0.  0.
186  1.85  0.  0.  0.
187  1.86  0.  0.  0.
188  1.87  0.  0.  0.
189  1.88  0.  0.  0.
190  1.89  0.  0.  0.
191  1.90  0.  0.  0.
192  1.91  0.  0.  0.
193  1.92  0.  0.  0.
194  1.93  0.  0.  0.
195  1.94  0.  0.  0.
196  1.95  0.  0.  0.
197  1.96  0.  0.  0.
198  1.97  0.  0.  0.
199  1.98  0.  0.  0.
200  1.99  0.  0.  0.
201  2.00  0.  0.  0.
202  2.01  0.  0.  0.
203  2.02  0.  0.  0.
204  2.03  0.  0.  0.
205  2.04  0.  0.  0.
206  2.05  0.  0.  0.
207  2.06  0.  0.  0.
208  2.07  0.  0.  0.
209  2.08  0.  0.  0.
210  2.09  0.  0.  0.
211  2.10  0.  0.  0.
212  2.11  0.  0.  0.
213  2.12  0.  0.  0.
214  2.13  0.  0.  0.
215  2.14  0.  0.  0.
216  2.15  0.  0.  0.
217  2.16  0.  0.  0.
218  2.17  0.  0.  0.
219  2.18  0.  0.  0.
220  2.19  0.  0.  0.
221  2.20  0.  0.  0.
222  2.21  0.  0.  0.
223  2.22  0.  0.  0.
224  2.23  0.  0.  0.
225  2.24  0.  0.  0.
226  2.25  0.  0.  0.
227  2.26  0.  0.  0.
228  2.27  0.  0.  0.
229  2.28  0.  0.  0.
230  2.29  0.  0.  0.
231  2.30  0.  0.  0.
232  2.31  0.  0.  0.
233  2.32  0.  0.  0.
234  2.33  0.  0.  0.
235  2.34  0.  0.  0.
236  2.35  0.  0.  0.
237  2.36  0.  0.  0.
238  2.37  0.  0.  0.
239  2.38  0.  0.  0.
240  2.39  0.  0.  0.
241  2.40  0.  0.  0.
242  2.41  0.  0.  0.
243  2.42  0.  0.  0.
244  2.43  0.  0.  0.
245  2.44  0.  0.  0.
246  2.45  0.  0.  0.
247  2.46  0.  0.  0.
248  2.47  0.  0.  0.
249  2.48  0.  0.  0.
250  2.49  0.  0.  0.
251  2.50  0.  0.  0.
252  2.51  0.  0.  0.
253  2.52  0.  0.  0.
254  2.53  0.  0.  0.
255  2.54  0.  0.  0.
256  2.55  0.  0.  0.
257  2.56  0.  0.  0.
258  2.57  0.  0.  0.
259  2.58  0.  0.  0.
260  2.59  0.  0.  0.
261  2.60  0.  0.  0.
262  2.61  0.  0.  0.
263  2.62  0.  0.  0.
264  2.63  0.  0.  0.
265  2.64  0.  0.  0.
266  2.65  0.  0.  0.
267  2.66  0.  0.  0.
268  2.67  0.  0.  0.
269  2.68  0.  0.  0.
270  2.69  0.  0.  0.
271  2.70  0.  0.  0.
272  2.71  0.  0.  0.
273  2.72  0.  0.  0.
274  2.73  0.  0.  0.
275  2.74  0.  0.  0.
276  2.75  0.  0.  0.
277  2.76  0.  0.  0.
278  2.77  0.  0.  0.
279  2.78  0.  0.  0.
280  2.79  0.  0.  0.
281  2.80  0.  0.  0.
282  2.81  0.  0.  0.
283  2.82  0.  0.  0.
284  2.83  0.  0.  0.
285  2.84  0.  0.  0.
286  2.85  0.  0.  0.
287  2.86  0.  0.  0.
288  2.87  0.  0.  0.
289  2.88  0.  0.  0.
290  2.89  0.  0.  0.
291  2.90  0.  0.  0.
292  2.91  0.  0.  0.
293  2.92  0.  0.  0.
294  2.93  0.  0.  0.
295  2.94  0.  0.  0.
296  2.95  0.  0.  0.
297  2.96  0.  0.  0.
298  2.97  0.  0.  0.
299  2.98  0.  0.  0.
300  2.99  0.  0.  0.
301  3.00  0.  0.  0.
302  3.01  0.  0.  0.
303  3.02  0.  0.  0.
304  3.03  0.  0.  0.
305  3.04  0.  0.  0.
306  3.05  0.  0.  0.
307  3.06  0.  0.  0.
308  3.07  0.  0.  0.
309  3.08  0.  0.  0.
310  3.09  0.  0.  0.
311  3.10  0.  0.  0.
312  3.11  0.  0.  0.
313  3.12  0.  0.  0.
314  3.13  0.  0.  0.
315  3.14  0.  0.  0.
316  3.15  0.  0.  0.
317  3.16  0.  0.  0.
318  3.17  0.  0.  0.
319  3.18  0.  0.  0.
320  3.19  0.  0.  0.
321  3.20  0.  0.  0.
322  3.21  0.  0.  0.
323  3.22  0.  0.  0.
324  3.23  0.  0.  0.
325  3.24  0.  0.  0.
326  3.25  0.  0.  0.
327  3.26  0.  0.  0.
328  3.27  0.  0.  0.
329  3.28  0.  0.  0.
330  3.29  0.  0.  0.
331  3.30  0.  0.  0.
332  3.31  0.  0.  0.
333  3.32  0.  0.  0.
334  3.33  0.  0.  0.
335  3.34  0.  0.  0.
336  3.35  0.  0.  0.
337  3.36  0.  0.  0.
338  3.37  0.  0.  0.
339  3.38  0.  0.  0.
340  3.39  0.  0.  0.
341  3.40  0.  0.  0.
342  3.41  0.  0.  0.
343  3.42  0.  0.  0.
344  3.43  0.  0.  0.
345  3.44  0.  0.  0.
346  3.45  0.  0.  0.
347  3.46  0.  0.  0.
348  3.47  0.  0.  0.
349  3.48  0.  0.  0.
350  3.49  0.  0.  0.
351  3.50  0.  0.  0.
352  3.51  0.  0.  0.
353  3.52  0.  0.  0.
354  3.53  0.  0.  0.
355  3.54  0.  0.  0.
356  3.55  0.  0.  0.
357  3.56  0.  0.  0.
358  3.57  0.  0.  0.
359  3.58  0.  0.  0.
360  3.59  0.  0.  0.
361  3.60  0.  0.  0.
362  3.61  0.  0.  0.
363  3.62  0.  0.  0.
364  3.63  0.  0.  0.
365  3.64  0.  0.  0.
366  3.65  0.  0.  0.
367  3.66  0.  0.  0.
368  3.67  0.  0.  0.
369  3.68  0.  0.  0.
370  3.69  0.  0.  0.
371  3.70  0.  0.  0.
372  3.71  0.  0.  0.
373  3.72  0.  0.  0.
374  3.73  0.  0.  0.
375  3.74  0.  0.  0.
376  3.75  0.  0.  0.
377  3.76  0.  0.  0.
378  3.77  0.  0.  0.
379  3.78  0.  0.  0.
380  3.79  0.  0.  0.
381  3.80  0.  0.  0.
382  3.81  0.  0.  0.
383  3.82  0.  0.  0.
384  3.83  0.  0.  0.
385  3.84  0.  0.  0.
386  3.85  0.  0.  0.
387  3.86  0.  0.  0.
388  3.87  0.  0.  0.
389  3.88  0.  0.  0.
390  3.89  0.  0.  0.
391  3.90  0.  0.  0.
392  3.91  0.  0.  0.
393  3.92  0.  0.  0.
394  3.93  0.  0.  0.
395  3.94  0.  0.  0.
396  3.95  0.  0.  0.
397  3.96  0.  0.  0.
398  3.97  0.  0.  0.
399  3.98  0.  0.  0.
400  3.99  0.  0.  0.
401  4.00  0.  0.  0.
402  4.01  0.  0.  0.
403  4.02  0.  0.  0.
404  4.03  0.  0.  0.
405  4.04  0.  0.  0.
406  4.05  0.  0.  0.
407  4.06  0.  0.  0.
408  4.07  0.  0.  0.
409  4.08  0.  0.  0.
410  4.09  0.  0.  0.
411  4.10  0.  0.  0.
412  4.11  0.  0.  0.
413  4.12  0.  0.  0.
414  4.13  0.  0.  0.
415  4.14  0.  0.  0.
416  4.15  0.  0.  0.
417  4.16  0.  0.  0.
418  4.17  0.  0.  0.
419  4.18  0.  0.  0.
420  4.19  0.  0.  0.
421  4.20  0.  0.  0.
422  4.21  0.  0.  0.
423  4.22  0.  0.  0.
424  4.23  0.  0.  0.
425  4.24  0.  0.  0.
426  4.25  0.  0.  0.
427  4.26  0.  0.  0.
428  4.27  0.  0.  0.
429  4.28  0.  0.  0.
430  4.29  0.  0.  0.
431  4.30  0.  0.  0.
432  4.31  0.  0.  0.
433  4.32  0.  0.  0.
434  4.33  0.  0.  0.
435  4.34  0.  0.  0.
436  4.35  0.  0.  0.
437  4.36  0.  0.  0.
438  4.37  0.  0.  0.
439  4.38  0.  0.  0.
440  4.39  0.  0.  0.
441  4.40  0.  0.  0.
442  4.41  0.  0.  0.
443  4.42  0.  0.  0.
444  4.43  0.  0.  0.
445  4.44  0.  0.  0.
446  4.45  0.  0.  0.
447  4.46  0.  0.  0.
448  4.47  0.  0.  0.
449  4.48  0.  0.  0.
450  4.49  0.  0.  0.
451  4.50  0.  0.  0.
452  4.51  0.  0.  0.
453  4.52  0.  0.  0.
454  4.53  0.  0.  0.
455  4.54  0.  0.  0.
456  4.55  0.  0.  0.
457  4.56  0.  0.  0.
458  4.57  0.  0.  0.
459  4.58  0.  0.  0.
460  4.59  0.  0.  0.
461  4.60  0.  0.  0.
462  4.61  0.  0.  0.
463  4.62  0.  0.  0.
464  4.63  0.  0.  0.
465  4.64  0.  0.  0.
466  4.65  0.  0.  0.
467  4.66  0.  0.  0.
468  4.67  0.  0.  0.
469  4.68  0.  0.  0.
470  4.69  0.  0.  0.
471  4.70  0.  0.  0.
472  4.71  0.  0.  0.
473  4.72  0.  0.  0.
474  4.73  0.  0.  0.
475  4.74  0.  0.  0.
476  4.75  0.  0.  0.
477  4.76  0.  0.  0.
478  4.77  0.  0.  0.
479  4.78  0.  0.  0.
480  4.79  0.  0.  0.
481  4.80  0.  0.  0.
482  4.81  0.  0.  0.
483  4.82  0.  0.  0.
484  4.83  0.  0.  0.
485  4.84  0.  0.  0.
486  4.85  0.  0.  0.
487  4.86  0.  0.  0.
488  4.87  0.  0.  0.
489  4.88  0.  0.  0.
490  4.89  0.  0.  0.
491  4.90  0.  0.  0.
492  4.91  0.  0.  0.
493  4.92  0.  0.  0.
494  4.93  0.  0.  0.
495  4.94  0.  0.  0.
496  4.95  0.  0.  0.
497  4.96  0.  0.  0.
498  4.97  0.  0.  0.
499  4.98  0.  0.  0.
500  4.99  0.  0.  0.
501  5.00  0.  0.  0.
502  5.01  0.  0.  0.
503  5.02  0.  0.  0.
504  5.03  0.  0.  0.
505  5.04  0.  0.  0.
506  5.05  0.  0.  0.
507  5.06  0.  0.  0.
508  5.07  0.  0.  0.
509  5.08  0.  0.  0.
510  5.09  0.  0.  0.
511  5.10  0.  0.  0.
512  5.11  0.  0.  0.
513  5.12  0.  0.  0.
514  5.13  0.  0.  0.
515  5.14  0.  0.  0.
516  5.15  0.  0.  0.
517  5.16  0.  0.  0.
518  5.17  0.  0.  0.
519  5.18  0.  0.  0.
520  5.19  0.  0.  0.
521  5.20  0.  0.  0.
522  5.21  0.  0.  0.
523  5.22  0.  0.  0.
524  5.23  0.  0.  0.
525  5.24  0.  0.  0.
526  5.25  0.  0.  0.
527  5.26  0.  0.  0.
528  5.27  0.  0.  0.
529  5.28  0.  0.  0.
530  5.29  0.  0.  0.
531  5.30  0.  0.  0.
532  5.31  0.  0.  0.
533  5.32  0.  0.  0.
534  5.33  0.  0.  0.
535  5.34  0.  0.  0.
536  5.35  0.  0.  0.
537  5.36  0.  0.  0.
538  5.37  0.  0.  0.
539  5.38  0.  0.  0.
540  5.39  0.  0.  0.
541  5.40  0.  0.  0.
542  5.41  0.  0.  0.
543  5.42  0.  0.  0.
544  5.43  0.  0.  0.
545  5.44  0.  0.  0.
546  5.45  0.  0.  0.
547  5.46  0.  0.  0.
548  5.47  0.  0.  0.
549  5.48  0.  0.  0.
550  5.49  0.  0.  0.
551  5.50  0.  0.  0.
552  5.51  0.  0.  0.
553  5.52  0.  0.  0.
554  5.53  0.  0.  0.
555  5.54  0.  0.  0.
556  5.55  0.  0.  0.
557  5.56  0.  0.  0.
558  5.57  0.  0.  0.
559  5.58  0.  0.  0.
560  5.59  0.  0.  0.
561  5.60  0.  0.  0.
562  5.61  0.  0.  0.
563  5.62  0.  0.  0.
564  5.63  0.  0.  0.
565  5.64  0.  0.  0.
566  5.65  0.  0.  0.
567  5.66  0.  0.  0.
568  5.67  0.  0.  0.
569  5.68  0.  0.  0.
570  5.69  0.  0.  0.
571  5.70  0.  0.  0.
572  5.71  0.  0.  0.
573  5.72  0.  0.  0.
574  5.73  0.  0.  0.
575  5.74  0.  0.  0.
576  5.75  0.  0.  0.
577  5.76  0.  0.  0.
578  5.77  0.  0.  0.
579  5.78  0.  0.  0.
580  5.79  0.  0.  0.
581  5.80  0.  0.  0.
582  5.81  0.  0.  0.
583  5.82  0.  0.  0.
584  5.83  0.  0.  0.
585  5.84  0.  0.  0.
586  5.85  0.  0.  0.
587  5.86  0.  0.  0.
588  5.87  0.  0.  0.
589  5.88  0.  0.  0.
590  5.89  0.  0.  0.
591  5.90  0.  0.  0.
592  5.91  0.  0.  0.
593  5.92  0.  0.  0.
594  5.93  0.  0.  0.
595  5.94  0.  0.  0.
596  5.95  0.  0.  0.
597  5.96  0.  0.  0.
598  5.97  0.  0.  0.
599  5.98  0.  0.  0.
600  5.99  0.  0.  0.
1                        -5.6552567047545E+00  3.9038330819389E+00
1  0.0000000000000E+00  2.0812569168083E-09  8.9825619720152E-09
2  1.0000000000000E-02  2.0115214210920E-03  5.5247373591436E-03
3  2.0000000000000E-02  8.0351821222484E-03  2.2030883420391E-02
4  3.0000000000000E-02  1.8038355993287E-02  4.9314944320372E-02
5  4.0000000000000E-02  3.1966946726218E-02  8.7040108398469E-02
6  5.0000000000000E-02  4.9745803849311E-02  1.3473975432508E-01
7  6.0000000000000E-02  7.1279295774256E-02  1.9182234345021E-01
8  7.0000000000000E-02  9.6452030818520E-02  2.5757767518098E-01
9  8.0000000000000E-02  1.2512971508379E-01  3.3118447521424E-01
10  9.0000000000000E-02  1.5716013433711E-01  4.1171927553899E-01
11  1.0000000000000E-01  1.9237424570058E-01  4.9816653213831E-01
12  1.1000000000000E-01  2.3058736403842E-01  5.8942991125869E-01
13  1.2000000000000E-01  2.7160042745076E-01  6.8434465813348E-01
14  1.3000000000000E-01  3.1520132623584E-01  7.8169094345524E-01
15  1.4000000000000E-01  3.6116628004613E-01  8.8020806314665E-01
16  1.5000000000000E-01  4.0926124870067E-01  9.7860934667216E-01
17  1.6000000000000E-01  4.5924336317314E-01  1.0755976089616E+00
18  1.7000000000000E-01  5.1086236459083E-01  1.1698809617662E+00
19  1.8000000000000E-01  5.6386204057908E-01  1.2601887827651E+00
20  1.9000000000000E-01  6.1798164989316E-01  1.3452876258320E+00
21  2.0000000000000E-01  6.7295732791386E-01  1.4239968443685E+00
22  2.1000000000000E-01  7.2852346716701E-01  1.4952036922704E+00
23  2.2000000000000E-01  7.8441406848829E-01  1.5578776645561E+00
24  2.3000000000000E-01  8.4036405972837E-01  1.6110838424711E+00
25  2.4000000000000E-01  8.9611057992794E-01  1.6539950163369E+00
26  2.5000000000000E-01  9.5139422764790E-01  1.6859023736928E+00
27  2.6000000000000E-01  1.0059602725936E+00  1.7062245603479E+00
28  2.7000000000000E-01  1.0595598298165E+00  1.7145149475625E+00
29  2.8000000000000E-01  1.1119509956220E+00  1.7104669692546E+00
30  2.9000000000000E-01  1.1628999438811E+00  1.6939174282152E+00
31  3.0000000000000E-01  1.2121819807823E+00  1.6648477089736E+00
32  3.1000000000000E-01  1.2595825552136E+00  1.6233828761896E+00
33  3.2000000000000E-01  1.3048982210030E+00  1.5697886801340E+00
34  3.3000000000000E-01  1.3479375462369E+00  1.5044665337584E+00
35  3.4000000000000E-01  1.3885219638947E+00  1.4279465677907E+00
36  3.5000000000000E-01  1.4264865571559E+00  1.3408789099936E+00
37  3.6000000000000E-01  1.4616807720331E+00  1.2440233709748E+00
38  3.7000000000000E-01  1.4939690495154E+00  1.1382377506492E+00
39  3.8000000000000E-01  1.5232313692323E+00  1.0244650056399E+00
40  3.9000000000000E-01  1.5493636968102E+00  9.0371953776937E-01
41  4.0000000000000E-01  1.5722783276127E+00  7.7707287672553E-01
42  4.1000000000000E-01  1.5919041204548E+00  6.4563903562083E-01
43  4.2000000000000E-01  1.6081866161342E+00  5.1055981634424E-01
44  4.3000000000000E-01  1.6210880372205E+00  3.7299033245827E-01
45  4.4000000000000E-01  1.6305871674373E+00  2.3408500126077E-01
46  4.5000000000000E-01  1.6366791110952E+00  9.4984234107107E-02
47  4.6000000000000E-01  1.6393749353334E+00 -4.3197974028357E-02
48  4.7000000000000E-01  1.6387012002967E+00 -1.7938538749157E-01
49  4.8000000000000E-01  1.6346993847429E+00 -3.1254967331367E-01
50  4.9000000000000E-01  1.6274252168345E+00 -4.4171925132403E-01
51  5.0000000000000E-01  1.6169479219295E+00 -5.6598679663170E-01
52  5.1000000000000E-01  1.6033494009562E+00 -6.8451537895686E-01
53  5.2000000000000E-01  1.5867233543532E+00 -7.9654326041570E-01
54  5.3000000000000E-01  1.5671743675070E+00 -9.0138740751651E-01
55  5.4000000000000E-01  1.5448169740711E+00 -9.9844580320618E-01
56  5.5000000000000E-01  1.5197747134623E+00 -1.0871986698709E+00
57  5.6000000000000E-01  1.4921791981850E+00 -1.1672087334962E+00
58  5.7000000000000E-01  1.4621692054424E+00 -1.2381206722042E+00
59  5.8000000000000E-01  1.4298898057694E+00 -1.2996598988347E+00
60  5.9000000000000E-01  1.3954915392291E+00 -1.3516308270859E+00
61  6.0000000000000E-01  1.3591296471153E+00 -1.3939147642190E+00
62  6.1000000000000E-01  1.3209633641847E+00 -1.4264675609170E+00
63  6.2000000000000E-01  1.2811552733201E+00 -1.4493171312865E+00
64  6.3000000000000E-01  1.2398707213087E+00 -1.4625609340883E+00
65  6.4000000000000E-01  1.1972772912400E+00 -1.4663634811565E+00
66  6.5000000000000E-01  1.1535443240143E+00 -1.4609539118016E+00
67  6.6000000000000E-01  1.1088424787384E+00 -1.4466236440637E+00
68  6.7000000000000E-01  1.0633433194889E+00 -1.4237240862887E+00
69  6.8000000000000E-01  1.0172189141589E+00 -1.3926643669177E+00
70  6.9000000000000E-01  9.7064142996883E-01 -1.3539090178144E+00
71  7.0000000000000E-01  9.2378270978341E-01 -1.3079755279868E+00
72  7.1000000000000E-01  8.7681381369325E-01 -1.2554316710954E+00
73  7.2000000000000E-01  8.2990451140407E-01 -1.1968925023979E+00
74  7.3000000000000E-01  7.8322271282461E-01 -1.1330169192054E+00
75  7.4000000000000E-01  7.3693382681597E-01 -1.0645036837385E+00
76  7.5000000000000E-01  6.9120004128803E-01 -9.9208681838655E-01
77  7.6000000000000E-01  6.4617952160334E-01 -9.1653030044213E-01
78  7.7000000000000E-01  6.0202552844750E-01 -8.3862200577919E-01
79  7.8000000000000E-01  5.5888546079655E-01 -7.5916687779635E-01
80  7.9000000000000E-01  5.1689983418580E-01 -6.7897932815846E-01
81  8.0000000000000E-01  4.7620120897867E-01 -5.9887490816389E-01
82  8.1000000000000E-01  4.3691308755827E-01 -5.1966132253179E-01
83  8.2000000000000E-01  3.9914880312954E-01 -4.4212888955554E-01
84  8.3000000000000E-01  3.6301042594439E-01 -3.6704058139530E-01
85  8.4000000000000E-01  3.2858771508002E-01 -2.9512180432214E-01
86  8.5000000000000E-01  2.9595714526712E-01 -2.2705009961685E-01
87  8.6000000000000E-01  2.6518103856477E-01 -1.6344496037519E-01
88  8.7000000000000E-01  2.3630682983163E-01 -1.0485796670450E-01
89  8.8000000000000E-01  2.0936649290747E-01 -5.1763441006601E-02
90  8.9000000000000E-01  1.8437615119664E-01 -4.5498158340161E-03
91  9.0000000000000E-01  1.6133589198182E-01  3.6488110887716E-02
92  9.1000000000000E-01  1.4022979838399E-01  7.1155884370829E-02
93  9.2000000000000E-01  1.2102620655849E-01  9.9364949767526E-02
94  9.3000000000000E-01  1.0367818865167E-01  1.2113698187403E-01
95  9.4000000000000E-01  8.8124254450654E-02  1.3660695771692E-01
96  9.5000000000000E-01  7.4289256777879E-02  1.4602499114733E-01
97  9.6000000000000E-01  6.2085477777211E-02  1.4975699971802E-01
98  9.7000000000000E-01  5.1413865576696E-02  1.4828432539429E-01
99  9.8000000000000E-01  4.2165383674300E-02  1.4220248004655E-01
100  9.9000000000000E-01  3.4222428905616E-02  1.3221923451111E-01
101  1.0000000000000E+00  2.7460271474894E-02  1.1915225954642E-01
102  1.0100000000000E+00  2.1748476181504E-02  1.0392639503192E-01
103  1.0200000000000E+00  1.6954538703689E-02  8.7533291993406E-02
104  1.0300000000000E+00  1.2952791018105E-02  7.0913092241119E-02
105  1.0400000000000E+00  9.6302826252029E-03  5.4900759554666E-02
106  1.0500000000000E+00  6.8903980185270E-03  4.0208632671124E-02
107  1.0600000000000E+00  4.6643530906998E-03  2.7305433706892E-02
108  1.0700000000000E+00  2.8970557839620E-03  1.6589911134020E-02
109  1.0800000000000E+00  1.5463833150885E-03  8.4546209803170E-03
110  1.0900000000000E+00  6.0256860563672E-04  3.0717538973351E-03
111  1.1000000000000E+00  8.6777871521716E-05  4.0293866184350E-04
112  1.1100000000000E+00 -4.2797108112710E-06 -1.8409143581677E-05
113  1.1200000000000E+00 -1.2835124543696E-07 -5.9995804141376E-07
114  1.13  0. -0.
115  1.14  0.  0.
116  1.15  0.  0.
117  1.16  0.  0.
118  1.17  0.  0.
119  1.18  0.  0.
120  1.19  0.  0.
121  1.20  0.  0.
122  1.21  0.  0.
123  1.22  0.  0.
124  1.23  0.  0.
125  1.24  0.  0.
126  1.25  0.  0.
127  1.26  0.  0.
128  1.27  0.  0.
129  1.28  0.  0.
130  1.29  0.  0.
131  1.30  0.  0.
132  1.31  0.  0.
133  1.32  0.  0.
134  1.33  0.  0.
135  1.34  0.  0.
136  1.35  0.  0.
137  1.36  0.  0.
138  1.37  0.  0.
139  1.38  0.  0.
140  1.39  0.  0.
141  1.40  0.  0.
142  1.41  0.  0.
143  1.42  0.  0.
144  1.43  0.  0.
145  1.44  0.  0.
146  1.45  0.  0.
147  1.46  0.  0.
148  1.47  0.  0.
149  1.48  0.  0.
150  1.49  0.  0.
151  1.50  0.  0.
152  1.51  0.  0.
153  1.52  0.  0.
154  1.53  0.  0.
155  1.54  0.  0.
156  1.55  0.  0.
157  1.56  0.  0.
158  1.57  0.  0.
159  1.58  0.  0.
160  1.59  0.  0.
161  1.60  0.  0.
162  1.61  0.  0.
163  1.62  0.  0.
164  1.63  0.  0.
165  1.64  0.  0.
166  1.65  0.  0.
167  1.66  0.  0.
168  1.67  0.  0.
169  1.68  0.  0.
170  1.69  0.  0.
171  1.70  0.  0.
172  1.71  0.  0.
173  1.72  0.  0.
174  1.73  0.  0.
175  1.74  0.  0.
176  1.75  0.  0.
177  1.76  0.  0.
178  1.77  0.  0.
179  1.78  0.  0.
180  1.79  0.  0.
181  1.80  0.  0.
182  1.81  0.  0.
183  1.82  0.  0.
184  1.83  0.  0.
185  1.84  0.  0.
186  1.85  0.  0.
187  1.86  0.  0.
188  1.87  0.  0.
189  1.88  0.  0.
190  1.89  0.  0.
191  1.90  0.  0.
192  1.91  0.  0.
193  1.92  0.  0.
194  1.93  0.  0.
195  1.94  0.  0.
196  1.95  0.  0.
197  1.96  0.  0.