Fm    ONCVPSP-4.0.1  r_core=   1.15134   1.15134   1.20057   1.35316
100.0000     40.0000      231012    zatom,zion,pspd
8 -116133   3     4   600     0    pspcod,pspxc,lmax,lloc,mmax,r2well
5.99000000  5.00000000  0.00000000    rchrg fchrg qchrg
3     4     3     2    nproj
3     1           extension_switch
4     3     3    nprojso
0                         2.1438281896440E+01  2.8165036397009E+00 -1.7526337944761E+00
1  0.0000000000000E+00 -1.3100417373124E-07 -3.9222589198751E-07 -1.9452547683763E-08
2  1.0000000000000E-02  1.6417317922277E-01  7.4448217562611E-02  3.6804329567507E-02
3  2.0000000000000E-02  3.2680726416286E-01  1.4638427110875E-01  7.3454066801453E-02
4  3.0000000000000E-02  4.8639381876338E-01  2.1337677517927E-01  1.0979839194571E-01
5  4.0000000000000E-02  6.4148474232958E-01  2.7315300467593E-01  1.4569389535971E-01
6  5.0000000000000E-02  7.9072002058594E-01  3.2367109118072E-01  1.8100795038136E-01
7  6.0000000000000E-02  9.3285267649221E-01  3.6318395702761E-01  2.1562170246453E-01
8  7.0000000000000E-02  1.0667701495254E+00  3.9029271827139E-01  2.4943257087395E-01
9  8.0000000000000E-02  1.1915114631383E+00  4.0398767992396E-01  2.8235617867321E-01
10  9.0000000000000E-02  1.3062796942755E+00  4.0367550857011E-01  3.1432764951549E-01
11  1.0000000000000E-01  1.4104494303194E+00  3.8919168131330E-01  3.4530223490906E-01
12  1.1000000000000E-01  1.5035690811528E+00  3.6079785656344E-01  3.7525526214828E-01
13  1.2000000000000E-01  1.5853581002635E+00  3.1916437087122E-01  4.0418141988912E-01
14  1.3000000000000E-01  1.6556993519432E+00  2.6533861580097E-01  4.3209342430956E-01
15  1.4000000000000E-01  1.7146270347274E+00  2.0070056904696E-01  4.5902013286466E-01
16  1.5000000000000E-01  1.7623107277901E+00  1.2690722510108E-01  4.8500419384132E-01
17  1.6000000000000E-01  1.7990362611525E+00  4.5828075125689E-02  5.1009933737084E-01
18  1.7000000000000E-01  1.8251842172975E+00 -4.0525891831313E-02  5.3436742655762E-01
19  1.8000000000000E-01  1.8412069471462E+00 -1.3007696549986E-01  5.5787539540364E-01
20  1.9000000000000E-01  1.8476050246088E+00 -2.2075644176922E-01  5.8069220292701E-01
21  2.0000000000000E-01  1.8449040696307E+00 -3.1057845403972E-01  6.0288593018906E-01
22  2.1000000000000E-01  1.8336328397506E+00 -3.9770914948033E-01  6.2452113897892E-01
23  2.2000000000000E-01  1.8143034259601E+00 -4.8052864251681E-01  6.4565659799742E-01
24  2.3000000000000E-01  1.7873942926988E+00 -5.5768346546852E-01  6.6634346508069E-01
25  2.4000000000000E-01  1.7533367779572E+00 -6.2812760893124E-01  6.8662399303543E-01
26  2.5000000000000E-01  1.7125055225443E+00 -6.9115068796293E-01  7.0653080290368E-01
27  2.6000000000000E-01  1.6652131333623E+00 -7.4639226739715E-01  7.2608674293438E-01
28  2.7000000000000E-01  1.6117092103927E+00 -7.9384191174315E-01  7.4530532528342E-01
29  2.8000000000000E-01  1.5521836878291E+00 -8.3382507190029E-01  7.6419170659859E-01
30  2.9000000000000E-01  1.4867742633161E+00 -8.6697546160156E-01  7.8274415426009E-01
31  3.0000000000000E-01  1.4155775223763E+00 -8.9419509067407E-01  8.0095591816907E-01
32  3.1000000000000E-01  1.3386632142286E+00 -9.1660359049909E-01  8.1881740953423E-01
33  3.2000000000000E-01  1.2560910061075E+00 -9.3547887191474E-01  8.3631857388177E-01
34  3.3000000000000E-01  1.1679289408028E+00 -9.5219148211791E-01  8.5345133611915E-01
35  3.4000000000000E-01  1.0742727503306E+00 -9.6813526283320E-01  8.7021199132544E-01
36  3.5000000000000E-01  9.7526514012171E-01 -9.8465704850679E-01  8.8660341621405E-01
37  3.6000000000000E-01  8.7111415426427E-01 -1.0029881757769E+00  9.0263698287996E-01
38  3.7000000000000E-01  7.6210976325660E-01 -1.0241805030874E+00  9.1833406824556E-01
39  3.8000000000000E-01  6.4863788012455E-01 -1.0490494652000E+00  9.3372706907868E-01
40  3.9000000000000E-01  5.3119110611096E-01 -1.0781264184770E+00  9.4885985290329E-01
41  4.0000000000000E-01  4.1037562972166E-01 -1.1116221796476E+00  9.6378759871767E-01
42  4.1000000000000E-01  2.8691384796543E-01 -1.1494032370202E+00  9.7857600720185E-01
43  4.2000000000000E-01  1.6164244056272E-01 -1.1909816349720E+00  9.9329988697013E-01
44  4.3000000000000E-01  3.5505800510123E-02 -1.2355190182745E+00  1.0080411502878E+00
45  4.4000000000000E-01 -9.0455098923035E-02 -1.2818447918608E+00  1.0228862774059E+00
46  4.5000000000000E-01 -2.1511814663207E-01 -1.3284878239935E+00  1.0379233321974E+00
47  4.6000000000000E-01 -3.3729942657338E-01 -1.3737206161848E+00  1.0532386321213E+00
48  4.7000000000000E-01 -4.5577587270859E-01 -1.4156144003781E+00  1.0689131918337E+00
49  4.8000000000000E-01 -5.6931054912329E-01 -1.4521032198409E+00  1.0850190713301E+00
50  4.9000000000000E-01 -6.7667975569085E-01 -1.4810547196213E+00  1.1016157658369E+00
51  5.0000000000000E-01 -7.7670108632898E-01 -1.5003451270768E+00  1.1187467755056E+00
52  5.1000000000000E-01 -8.6826152558130E-01 -1.5079357513667E+00  1.1364364882432E+00
53  5.2000000000000E-01 -9.5034466129639E-01 -1.5019482778119E+00  1.1546874989314E+00
54  5.3000000000000E-01 -1.0220561166385E+00 -1.4807361797738E+00  1.1734784732449E+00
55  5.4000000000000E-01 -1.0826463623507E+00 -1.4429497145775E+00  1.1927626448878E+00
56  5.5000000000000E-01 -1.1315301576967E+00 -1.3875922047449E+00  1.2124670121330E+00
57  5.6000000000000E-01 -1.1683019823256E+00 -1.3140656218274E+00  1.2324922740014E+00
58  5.7000000000000E-01 -1.1927469569714E+00 -1.2222038749135E+00  1.2527135193160E+00
59  5.8000000000000E-01 -1.2048469031859E+00 -1.1122926444831E+00  1.2729816543240E+00
60  5.9000000000000E-01 -1.2047813554119E+00 -9.8507507793341E-01  1.2931255277243E+00
61  6.0000000000000E-01 -1.1929235065184E+00 -8.4174315787334E-01  1.3129546868756E+00
62  6.1000000000000E-01 -1.1698312342279E+00 -6.8391504981379E-01  1.3322626767081E+00
63  6.2000000000000E-01 -1.1362335146128E+00 -5.1359921403535E-01  1.3508307743198E+00
64  6.3000000000000E-01 -1.0930126743546E+00 -3.3314651001458E-01  1.3684320381546E+00
65  6.4000000000000E-01 -1.0411830606792E+00 -1.4519191524274E-01  1.3848355415705E+00
66  6.5000000000000E-01 -9.8186681251405E-01  4.7412189869622E-02  1.3998106568596E+00
67  6.6000000000000E-01 -9.1626749511858E-01  2.4166896385808E-01  1.4131312574730E+00
68  6.7000000000000E-01 -8.4564241092233E-01  4.3451389245467E-01  1.4245797132077E+00
69  6.8000000000000E-01 -7.7127442039033E-01  6.2289295640071E-01  1.4339505650776E+00
70  6.9000000000000E-01 -6.9444409839877E-01  8.0383971357664E-01  1.4410537829401E+00
71  7.0000000000000E-01 -6.1640301492742E-01  9.7454891771689E-01  1.4457175289371E+00
72  7.1000000000000E-01 -5.3834886601616E-01  1.1324444641299E+00  1.4477903725142E+00
73  7.2000000000000E-01 -4.6140309496325E-01  1.2752396935164E+00  1.4471429271923E+00
74  7.3000000000000E-01 -3.8659153856941E-01  1.4009883874449E+00  1.4436689042727E+00
75  7.4000000000000E-01 -3.1482851335624E-01  1.5081251406425E+00  1.4372856031545E+00
76  7.5000000000000E-01 -2.4690462706015E-01  1.5954941817701E+00  1.4279338808361E+00
77  7.6000000000000E-01 -1.8347846649818E-01  1.6623661206741E+00  1.4155776634457E+00
78  7.7000000000000E-01 -1.2507217929099E-01  1.7084425108766E+00  1.4002030794091E+00
79  7.8000000000000E-01 -7.2070838890748E-02  1.7338485162276E+00  1.3818173063754E+00
80  7.9000000000000E-01 -2.4725364494240E-02  1.7391143460073E+00  1.3604472317443E+00
81  8.0000000000000E-01  1.6841336267699E-02  1.7251464606540E+00  1.3361380292446E+00
82  8.1000000000000E-01  5.2625420166567E-02  1.6931898398135E+00  1.3089517514121E+00
83  8.2000000000000E-01  8.2730841260500E-02  1.6447828369899E+00  1.2789660301470E+00
84  8.3000000000000E-01  1.0735629300346E-01  1.5817063146141E+00  1.2462729651724E+00
85  8.4000000000000E-01  1.2678091119637E-01  1.5059288563976E+00  1.2109782637600E+00
86  8.5000000000000E-01  1.4134928989443E-01  1.4195498896729E+00  1.1732006753143E+00
87  8.6000000000000E-01  1.5145634209250E-01  1.3247425208972E+00  1.1330717422527E+00
88  8.7000000000000E-01  1.5753249788288E-01  1.2236977969266E+00  1.0907358651387E+00
89  8.8000000000000E-01  1.6002967745660E-01  1.1185719595233E+00  1.0463506563381E+00
90  8.9000000000000E-01  1.5940840798552E-01  1.0114380690937E+00  1.0000875337162E+00
91  9.0000000000000E-01  1.5612637565108E-01  9.0424314553231E-01  9.5213248518973E-01
92  9.1000000000000E-01  1.5062862066902E-01  7.9877171982965E-01  9.0268691730582E-01
93  9.2000000000000E-01  1.4333949792982E-01  6.9661642080943E-01  8.5196848735713E-01
94  9.3000000000000E-01  1.3465644253027E-01  5.9915594793283E-01  8.0021180957047E-01
95  9.4000000000000E-01  1.2494550144357E-01  5.0754051406444E-01  7.4766892216123E-01
96  9.5000000000000E-01  1.1453852284289E-01  4.2268459094691E-01  6.9460940381954E-01
97  9.6000000000000E-01  1.0373183560875E-01  3.4526656318145E-01  6.4132003554016E-01
98  9.7000000000000E-01  9.2786205139822E-02  2.7573470051877E-01  5.8810391642523E-01
99  9.8000000000000E-01  8.1927818865456E-02  2.1431869813929E-01  5.3527895974089E-01
100  9.9000000000000E-01  7.1350036276906E-02  1.6104591352313E-01  4.8317571742763E-01
101  1.0000000000000E+00  6.1215633583875E-02  1.1576134768845E-01  4.3213450658383E-01
102  1.0100000000000E+00  5.1659281338854E-02  7.8150377403193E-02  3.8250183911784E-01
103  1.0200000000000E+00  4.2790013100716E-02  4.7763241204653E-02  3.3462618467876E-01
104  1.0300000000000E+00  3.4693472476789E-02  2.4040312070616E-02  2.8885312587694E-01
105  1.0400000000000E+00  2.7433762342968E-02  6.3372483675299E-03  2.4551999244680E-01
106  1.0500000000000E+00  2.1054761252916E-02 -6.0508032630346E-03  2.0495008622336E-01
107  1.0600000000000E+00  1.5580815359018E-02 -1.3866680372082E-02  1.6744663042949E-01
108  1.0700000000000E+00  1.1016756982326E-02 -1.7870970322611E-02  1.3328659383296E-01
109  1.0800000000000E+00  7.3471879935529E-03 -1.8824705710790E-02  1.0271450760905E-01
110  1.0900000000000E+00  4.5355066735884E-03 -1.7474251141792E-02  7.5936815871344E-02
111  1.1000000000000E+00  2.4995306214457E-03 -1.4597852145397E-02  5.3096437609167E-02
112  1.1100000000000E+00  1.1051004278651E-03 -1.1012347528548E-02  3.4260108936762E-02
113  1.1200000000000E+00  2.9394752540790E-04 -7.2320883540392E-03  1.9533719906347E-02
114  1.1300000000000E+00 -4.2422470224669E-05 -3.7777068332181E-03  8.9561726995444E-03
115  1.1400000000000E+00 -6.7505224460271E-05 -1.1824307585290E-03  2.4823222362805E-03
116  1.1500000000000E+00 -3.7554595805394E-06 -3.6872992618253E-05  6.8397254693285E-05
117  1.1600000000000E+00 -5.4502907023919E-07 -5.7659068616276E-06  1.0872271340489E-05
118  1.1700000000000E+00  7.3703509751892E-08  9.5831574755322E-07 -1.9023851208984E-06
119  1.18  0.  0.  0.
120  1.19  0.  0.  0.
121  1.20  0.  0.  0.
122  1.21  0.  0.  0.
123  1.22  0.  0.  0.
124  1.23  0.  0.  0.
125  1.24  0.  0.  0.
126  1.25  0.  0.  0.
127  1.26  0.  0.  0.
128  1.27  0.  0.  0.
129  1.28  0.  0.  0.
130  1.29  0.  0.  0.
131  1.30  0.  0.  0.
132  1.31  0.  0.  0.
133  1.32  0.  0.  0.
134  1.33  0.  0.  0.
135  1.34  0.  0.  0.
136  1.35  0.  0.  0.
137  1.36  0.  0.  0.
138  1.37  0.  0.  0.
139  1.38  0.  0.  0.
140  1.39  0.  0.  0.
141  1.40  0.  0.  0.
142  1.41  0.  0.  0.
143  1.42  0.  0.  0.
144  1.43  0.  0.  0.
145  1.44  0.  0.  0.
146  1.45  0.  0.  0.
147  1.46  0.  0.  0.
148  1.47  0.  0.  0.
149  1.48  0.  0.  0.
150  1.49  0.  0.  0.
151  1.50  0.  0.  0.
152  1.51  0.  0.  0.
153  1.52  0.  0.  0.
154  1.53  0.  0.  0.
155  1.54  0.  0.  0.
156  1.55  0.  0.  0.
157  1.56  0.  0.  0.
158  1.57  0.  0.  0.
159  1.58  0.  0.  0.
160  1.59  0.  0.  0.
161  1.60  0.  0.  0.
162  1.61  0.  0.  0.
163  1.62  0.  0.  0.
164  1.63  0.  0.  0.
165  1.64  0.  0.  0.
166  1.65  0.  0.  0.
167  1.66  0.  0.  0.
168  1.67  0.  0.  0.
169  1.68  0.  0.  0.
170  1.69  0.  0.  0.
171  1.70  0.  0.  0.
172  1.71  0.  0.  0.
173  1.72  0.  0.  0.
174  1.73  0.  0.  0.
175  1.74  0.  0.  0.
176  1.75  0.  0.  0.
177  1.76  0.  0.  0.
178  1.77  0.  0.  0.
179  1.78  0.  0.  0.
180  1.79  0.  0.  0.
181  1.80  0.  0.  0.
182  1.81  0.  0.  0.
183  1.82  0.  0.  0.
184  1.83  0.  0.  0.
185  1.84  0.  0.  0.
186  1.85  0.  0.  0.
187  1.86  0.  0.  0.
188  1.87  0.  0.  0.
189  1.88  0.  0.  0.
190  1.89  0.  0.  0.
191  1.90  0.  0.  0.
192  1.91  0.  0.  0.
193  1.92  0.  0.  0.
194  1.93  0.  0.  0.
195  1.94  0.  0.  0.
196  1.95  0.  0.  0.
197  1.96  0.  0.  0.
198  1.97  0.  0.  0.
199  1.98  0.  0.  0.
200  1.99  0.  0.  0.
201  2.00  0.  0.  0.
202  2.01  0.  0.  0.
203  2.02  0.  0.  0.
204  2.03  0.  0.  0.
205  2.04  0.  0.  0.
206  2.05  0.  0.  0.
207  2.06  0.  0.  0.
208  2.07  0.  0.  0.
209  2.08  0.  0.  0.
210  2.09  0.  0.  0.
211  2.10  0.  0.  0.
212  2.11  0.  0.  0.
213  2.12  0.  0.  0.
214  2.13  0.  0.  0.
215  2.14  0.  0.  0.
216  2.15  0.  0.  0.
217  2.16  0.  0.  0.
218  2.17  0.  0.  0.
219  2.18  0.  0.  0.
220  2.19  0.  0.  0.
221  2.20  0.  0.  0.
222  2.21  0.  0.  0.
223  2.22  0.  0.  0.
224  2.23  0.  0.  0.
225  2.24  0.  0.  0.
226  2.25  0.  0.  0.
227  2.26  0.  0.  0.
228  2.27  0.  0.  0.
229  2.28  0.  0.  0.
230  2.29  0.  0.  0.
231  2.30  0.  0.  0.
232  2.31  0.  0.  0.
233  2.32  0.  0.  0.
234  2.33  0.  0.  0.
235  2.34  0.  0.  0.
236  2.35  0.  0.  0.
237  2.36  0.  0.  0.
238  2.37  0.  0.  0.
239  2.38  0.  0.  0.
240  2.39  0.  0.  0.
241  2.40  0.  0.  0.
242  2.41  0.  0.  0.
243  2.42  0.  0.  0.
244  2.43  0.  0.  0.
245  2.44  0.  0.  0.
246  2.45  0.  0.  0.
247  2.46  0.  0.  0.
248  2.47  0.  0.  0.
249  2.48  0.  0.  0.
250  2.49  0.  0.  0.
251  2.50  0.  0.  0.
252  2.51  0.  0.  0.
253  2.52  0.  0.  0.
254  2.53  0.  0.  0.
255  2.54  0.  0.  0.
256  2.55  0.  0.  0.
257  2.56  0.  0.  0.
258  2.57  0.  0.  0.
259  2.58  0.  0.  0.
260  2.59  0.  0.  0.
261  2.60  0.  0.  0.
262  2.61  0.  0.  0.
263  2.62  0.  0.  0.
264  2.63  0.  0.  0.
265  2.64  0.  0.  0.
266  2.65  0.  0.  0.
267  2.66  0.  0.  0.
268  2.67  0.  0.  0.
269  2.68  0.  0.  0.
270  2.69  0.  0.  0.
271  2.70  0.  0.  0.
272  2.71  0.  0.  0.
273  2.72  0.  0.  0.
274  2.73  0.  0.  0.
275  2.74  0.  0.  0.
276  2.75  0.  0.  0.
277  2.76  0.  0.  0.
278  2.77  0.  0.  0.
279  2.78  0.  0.  0.
280  2.79  0.  0.  0.
281  2.80  0.  0.  0.
282  2.81  0.  0.  0.
283  2.82  0.  0.  0.
284  2.83  0.  0.  0.
285  2.84  0.  0.  0.
286  2.85  0.  0.  0.
287  2.86  0.  0.  0.
288  2.87  0.  0.  0.
289  2.88  0.  0.  0.
290  2.89  0.  0.  0.
291  2.90  0.  0.  0.
292  2.91  0.  0.  0.
293  2.92  0.  0.  0.
294  2.93  0.  0.  0.
295  2.94  0.  0.  0.
296  2.95  0.  0.  0.
297  2.96  0.  0.  0.
298  2.97  0.  0.  0.
299  2.98  0.  0.  0.
300  2.99  0.  0.  0.
301  3.00  0.  0.  0.
302  3.01  0.  0.  0.
303  3.02  0.  0.  0.
304  3.03  0.  0.  0.
305  3.04  0.  0.  0.
306  3.05  0.  0.  0.
307  3.06  0.  0.  0.
308  3.07  0.  0.  0.
309  3.08  0.  0.  0.
310  3.09  0.  0.  0.
311  3.10  0.  0.  0.
312  3.11  0.  0.  0.
313  3.12  0.  0.  0.
314  3.13  0.  0.  0.
315  3.14  0.  0.  0.
316  3.15  0.  0.  0.
317  3.16  0.  0.  0.
318  3.17  0.  0.  0.
319  3.18  0.  0.  0.
320  3.19  0.  0.  0.
321  3.20  0.  0.  0.
322  3.21  0.  0.  0.
323  3.22  0.  0.  0.
324  3.23  0.  0.  0.
325  3.24  0.  0.  0.
326  3.25  0.  0.  0.
327  3.26  0.  0.  0.
328  3.27  0.  0.  0.
329  3.28  0.  0.  0.
330  3.29  0.  0.  0.
331  3.30  0.  0.  0.
332  3.31  0.  0.  0.
333  3.32  0.  0.  0.
334  3.33  0.  0.  0.
335  3.34  0.  0.  0.
336  3.35  0.  0.  0.
337  3.36  0.  0.  0.
338  3.37  0.  0.  0.
339  3.38  0.  0.  0.
340  3.39  0.  0.  0.
341  3.40  0.  0.  0.
342  3.41  0.  0.  0.
343  3.42  0.  0.  0.
344  3.43  0.  0.  0.
345  3.44  0.  0.  0.
346  3.45  0.  0.  0.
347  3.46  0.  0.  0.
348  3.47  0.  0.  0.
349  3.48  0.  0.  0.
350  3.49  0.  0.  0.
351  3.50  0.  0.  0.
352  3.51  0.  0.  0.
353  3.52  0.  0.  0.
354  3.53  0.  0.  0.
355  3.54  0.  0.  0.
356  3.55  0.  0.  0.
357  3.56  0.  0.  0.
358  3.57  0.  0.  0.
359  3.58  0.  0.  0.
360  3.59  0.  0.  0.
361  3.60  0.  0.  0.
362  3.61  0.  0.  0.
363  3.62  0.  0.  0.
364  3.63  0.  0.  0.
365  3.64  0.  0.  0.
366  3.65  0.  0.  0.
367  3.66  0.  0.  0.
368  3.67  0.  0.  0.
369  3.68  0.  0.  0.
370  3.69  0.  0.  0.
371  3.70  0.  0.  0.
372  3.71  0.  0.  0.
373  3.72  0.  0.  0.
374  3.73  0.  0.  0.
375  3.74  0.  0.  0.
376  3.75  0.  0.  0.
377  3.76  0.  0.  0.
378  3.77  0.  0.  0.
379  3.78  0.  0.  0.
380  3.79  0.  0.  0.
381  3.80  0.  0.  0.
382  3.81  0.  0.  0.
383  3.82  0.  0.  0.
384  3.83  0.  0.  0.
385  3.84  0.  0.  0.
386  3.85  0.  0.  0.
387  3.86  0.  0.  0.
388  3.87  0.  0.  0.
389  3.88  0.  0.  0.
390  3.89  0.  0.  0.
391  3.90  0.  0.  0.
392  3.91  0.  0.  0.
393  3.92  0.  0.  0.
394  3.93  0.  0.  0.
395  3.94  0.  0.  0.
396  3.95  0.  0.  0.
397  3.96  0.  0.  0.
398  3.97  0.  0.  0.
399  3.98  0.  0.  0.
400  3.99  0.  0.  0.
401  4.00  0.  0.  0.
402  4.01  0.  0.  0.
403  4.02  0.  0.  0.
404  4.03  0.  0.  0.
405  4.04  0.  0.  0.
406  4.05  0.  0.  0.
407  4.06  0.  0.  0.
408  4.07  0.  0.  0.
409  4.08  0.  0.  0.
410  4.09  0.  0.  0.
411  4.10  0.  0.  0.
412  4.11  0.  0.  0.
413  4.12  0.  0.  0.
414  4.13  0.  0.  0.
415  4.14  0.  0.  0.
416  4.15  0.  0.  0.
417  4.16  0.  0.  0.
418  4.17  0.  0.  0.
419  4.18  0.  0.  0.
420  4.19  0.  0.  0.
421  4.20  0.  0.  0.
422  4.21  0.  0.  0.
423  4.22  0.  0.  0.
424  4.23  0.  0.  0.
425  4.24  0.  0.  0.
426  4.25  0.  0.  0.
427  4.26  0.  0.  0.
428  4.27  0.  0.  0.
429  4.28  0.  0.  0.
430  4.29  0.  0.  0.
431  4.30  0.  0.  0.
432  4.31  0.  0.  0.
433  4.32  0.  0.  0.
434  4.33  0.  0.  0.
435  4.34  0.  0.  0.
436  4.35  0.  0.  0.
437  4.36  0.  0.  0.
438  4.37  0.  0.  0.
439  4.38  0.  0.  0.
440  4.39  0.  0.  0.
441  4.40  0.  0.  0.
442  4.41  0.  0.  0.
443  4.42  0.  0.  0.
444  4.43  0.  0.  0.
445  4.44  0.  0.  0.
446  4.45  0.  0.  0.
447  4.46  0.  0.  0.
448  4.47  0.  0.  0.
449  4.48  0.  0.  0.
450  4.49  0.  0.  0.
451  4.50  0.  0.  0.
452  4.51  0.  0.  0.
453  4.52  0.  0.  0.
454  4.53  0.  0.  0.
455  4.54  0.  0.  0.
456  4.55  0.  0.  0.
457  4.56  0.  0.  0.
458  4.57  0.  0.  0.
459  4.58  0.  0.  0.
460  4.59  0.  0.  0.
461  4.60  0.  0.  0.
462  4.61  0.  0.  0.
463  4.62  0.  0.  0.
464  4.63  0.  0.  0.
465  4.64  0.  0.  0.
466  4.65  0.  0.  0.
467  4.66  0.  0.  0.
468  4.67  0.  0.  0.
469  4.68  0.  0.  0.
470  4.69  0.  0.  0.
471  4.70  0.  0.  0.
472  4.71  0.  0.  0.
473  4.72  0.  0.  0.
474  4.73  0.  0.  0.
475  4.74  0.  0.  0.
476  4.75  0.  0.  0.
477  4.76  0.  0.  0.
478  4.77  0.  0.  0.
479  4.78  0.  0.  0.
480  4.79  0.  0.  0.
481  4.80  0.  0.  0.
482  4.81  0.  0.  0.
483  4.82  0.  0.  0.
484  4.83  0.  0.  0.
485  4.84  0.  0.  0.
486  4.85  0.  0.  0.
487  4.86  0.  0.  0.
488  4.87  0.  0.  0.
489  4.88  0.  0.  0.
490  4.89  0.  0.  0.
491  4.90  0.  0.  0.
492  4.91  0.  0.  0.
493  4.92  0.  0.  0.
494  4.93  0.  0.  0.
495  4.94  0.  0.  0.
496  4.95  0.  0.  0.
497  4.96  0.  0.  0.
498  4.97  0.  0.  0.
499  4.98  0.  0.  0.
500  4.99  0.  0.  0.
501  5.00  0.  0.  0.
502  5.01  0.  0.  0.
503  5.02  0.  0.  0.
504  5.03  0.  0.  0.
505  5.04  0.  0.  0.
506  5.05  0.  0.  0.
507  5.06  0.  0.  0.
508  5.07  0.  0.  0.
509  5.08  0.  0.  0.
510  5.09  0.  0.  0.
511  5.10  0.  0.  0.
512  5.11  0.  0.  0.
513  5.12  0.  0.  0.
514  5.13  0.  0.  0.
515  5.14  0.  0.  0.
516  5.15  0.  0.  0.
517  5.16  0.  0.  0.
518  5.17  0.  0.  0.
519  5.18  0.  0.  0.
520  5.19  0.  0.  0.
521  5.20  0.  0.  0.
522  5.21  0.  0.  0.
523  5.22  0.  0.  0.
524  5.23  0.  0.  0.
525  5.24  0.  0.  0.
526  5.25  0.  0.  0.
527  5.26  0.  0.  0.
528  5.27  0.  0.  0.
529  5.28  0.  0.  0.
530  5.29  0.  0.  0.
531  5.30  0.  0.  0.
532  5.31  0.  0.  0.
533  5.32  0.  0.  0.
534  5.33  0.  0.  0.
535  5.34  0.  0.  0.
536  5.35  0.  0.  0.
537  5.36  0.  0.  0.
538  5.37  0.  0.  0.
539  5.38  0.  0.  0.
540  5.39  0.  0.  0.
541  5.40  0.  0.  0.
542  5.41  0.  0.  0.
543  5.42  0.  0.  0.
544  5.43  0.  0.  0.
545  5.44  0.  0.  0.
546  5.45  0.  0.  0.
547  5.46  0.  0.  0.
548  5.47  0.  0.  0.
549  5.48  0.  0.  0.
550  5.49  0.  0.  0.
551  5.50  0.  0.  0.
552  5.51  0.  0.  0.
553  5.52  0.  0.  0.
554  5.53  0.  0.  0.
555  5.54  0.  0.  0.
556  5.55  0.  0.  0.
557  5.56  0.  0.  0.
558  5.57  0.  0.  0.
559  5.58  0.  0.  0.
560  5.59  0.  0.  0.
561  5.60  0.  0.  0.
562  5.61  0.  0.  0.
563  5.62  0.  0.  0.
564  5.63  0.  0.  0.
565  5.64  0.  0.  0.
566  5.65  0.  0.  0.
567  5.66  0.  0.  0.
568  5.67  0.  0.  0.
569  5.68  0.  0.  0.
570  5.69  0.  0.  0.
571  5.70  0.  0.  0.
572  5.71  0.  0.  0.
573  5.72  0.  0.  0.
574  5.73  0.  0.  0.
575  5.74  0.  0.  0.
576  5.75  0.  0.  0.
577  5.76  0.  0.  0.
578  5.77  0.  0.  0.
579  5.78  0.  0.  0.
580  5.79  0.  0.  0.
581  5.80  0.  0.  0.
582  5.81  0.  0.  0.
583  5.82  0.  0.  0.
584  5.83  0.  0.  0.
585  5.84  0.  0.  0.
586  5.85  0.  0.  0.
587  5.86  0.  0.  0.
588  5.87  0.  0.  0.
589  5.88  0.  0.  0.
590  5.89  0.  0.  0.
591  5.90  0.  0.  0.
592  5.91  0.  0.  0.
593  5.92  0.  0.  0.
594  5.93  0.  0.  0.
595  5.94  0.  0.  0.
596  5.95  0.  0.  0.
597  5.96  0.  0.  0.
598  5.97  0.  0.  0.
599  5.98  0.  0.  0.
600  5.99  0.  0.  0.
1                         5.8959302674439E+00 -1.8896306918249E+00  1.1260564432501E-01 -7.2844018924841E-03
1  0.0000000000000E+00 -3.7108118772222E-08 -1.4047006044460E-08 -2.1157805230043E-08 -3.1851145976258E-07
2  1.0000000000000E-02  4.0210554425481E-03  5.1437179228753E-04  3.9347761191658E-03 -6.9361462842980E-03
3  2.0000000000000E-02  1.6060784387802E-02  2.0644137569873E-03  1.5685220029593E-02 -2.7545256078254E-02
4  3.0000000000000E-02  3.6048484772349E-02  4.6706363286170E-03  3.5089905967693E-02 -6.1235655508423E-02
5  4.0000000000000E-02  6.3865047639111E-02  8.3663356738789E-03  6.1880568795799E-02 -1.0704204459780E-01
6  5.0000000000000E-02  9.9341144057267E-02  1.3196296035448E-02  9.5683336798258E-02 -1.6365596589963E-01
7  6.0000000000000E-02  1.4225487300548E-01  1.9215040043209E-02  1.3602058573216E-01 -2.2946695731906E-01
8  7.0000000000000E-02  1.9232904678251E-01  2.6484690969847E-02  1.8231353299477E-01 -3.0261295221778E-01
9  8.0000000000000E-02  2.4922832761746E-01  3.5072524954726E-02  2.3388571192743E-01 -3.8103817138509E-01
10  9.0000000000000E-02  3.1255645697415E-01  4.5048302313764E-02  2.8996747860301E-01 -4.6255649727398E-01
11  1.0000000000000E-01  3.8185383628249E-01  5.6481474772569E-02  3.4970170578400E-01 -5.4491814028475E-01
12  1.1000000000000E-01  4.5659572359815E-01  6.9438369512052E-02  4.1215081038759E-01 -6.2587730639292E-01
13  1.2000000000000E-01  5.3619130455717E-01  8.3979451145029E-02  4.7630524151271E-01 -7.0325855862975E-01
14  1.3000000000000E-01  6.1998387798833E-01  1.0015675913928E-01  5.4109352612880E-01 -7.7501963229452E-01
15  1.4000000000000E-01  7.0725236718026E-01  1.1801161090275E-01  6.0539392964587E-01 -8.3930861266197E-01
16  1.5000000000000E-01  7.9721432803475E-01  1.3757265002685E-01  6.6804773999181E-01 -8.9451360863805E-01
17  1.6000000000000E-01  8.8903057655725E-01  1.5885430545207E-01  7.2787412816400E-01 -9.3930334780537E-01
18  1.7000000000000E-01  9.8181150209732E-01  1.8185571109996E-01  7.8368647750838E-01 -9.7265746653762E-01
19  1.8000000000000E-01  1.0746250715228E+00  2.0656011742827E-01  8.3431001052247E-01 -9.9388566021216E-01
20  1.9000000000000E-01  1.1665064653910E+00  2.3293480710525E-01  8.7860047829921E-01 -1.0026352782297E+00
21  2.0000000000000E-01  1.2564692226145E+00  2.6093150730817E-01  9.1546361645969E-01 -9.9888738071283E-01
22  2.1000000000000E-01  1.3435177076146E+00  2.9048727179090E-01  9.4387501521054E-01 -9.8294170205811E-01
23  2.2000000000000E-01  1.4266606559672E+00  3.2152578759069E-01  9.6290000255740E-01 -9.5539137474270E-01
24  2.3000000000000E-01  1.5049255034187E+00  3.5395904476898E-01  9.7171310106650E-01 -9.1708863945159E-01
25  2.4000000000000E-01  1.5773731609746E+00  3.8768929355772E-01  9.6961659195271E-01 -8.6910309052634E-01
26  2.5000000000000E-01  1.6431128673597E+00  4.2261120227027E-01  9.5605770736721E-01 -8.1267426663409E-01
27  2.6000000000000E-01  1.7013167309253E+00  4.5861412178297E-01  9.3064397378387E-01 -7.4916058543739E-01
28  2.7000000000000E-01  1.7512335670385E+00  4.9558435861856E-01  8.9315624705113E-01 -6.7998673065616E-01
29  2.8000000000000E-01  1.7922016446272E+00  5.3340735883877E-01  8.4355901313701E-01 -6.0659162600999E-01
30  2.9000000000000E-01  1.8236599768908E+00  5.7196970910499E-01  7.8200757742600E-01 -5.3037907205913E-01
31  3.0000000000000E-01  1.8451578257021E+00  6.1116086926068E-01  7.0885182862749E-01 -4.5267298113003E-01
32  3.1000000000000E-01  1.8563621359205E+00  6.5087456234728E-01  6.2463633937269E-01 -3.7467892770713E-01
33  3.2000000000000E-01  1.8570626732424E+00  6.9100976266353E-01  5.3009665234842E-01 -2.9745344530612E-01
34  3.3000000000000E-01  1.8471747054244E+00  7.3147123976774E-01  4.2615169583114E-01 -2.2188215703258E-01
35  3.4000000000000E-01  1.8267391394976E+00  7.7216963554804E-01  3.1389237286813E-01 -1.4866743920400E-01
36  3.5000000000000E-01  1.7959201044126E+00  8.1302107190753E-01  1.9456647096233E-01 -7.8325900831490E-02
37  3.6000000000000E-01  1.7550000467159E+00  8.5394630743421E-01  6.9560140645385E-02 -1.1195532909289E-02
38  3.7000000000000E-01  1.7043724835623E+00  8.9486948182871E-01 -5.9623711578311E-02  5.2548042506910E-02
39  3.8000000000000E-01  1.6445326298426E+00  9.3571650602850E-01 -1.9138968104134E-01  1.1286719544120E-01
40  3.9000000000000E-01  1.5760661817915E+00  9.7641317311571E-01 -3.2407626000065E-01  1.6983111894509E-01
41  4.0000000000000E-01  1.4996365957093E+00  1.0168830795107E+00 -4.5598379148676E-01  2.2357951349630E-01
42  4.1000000000000E-01  1.4159712452582E+00  1.0570454570173E+00 -5.8540335429124E-01  2.7428301386598E-01
43  4.2000000000000E-01  1.3258468724595E+00  1.0968130234950E+00 -7.1064592014659E-01  3.2210241341305E-01
44  4.3000000000000E-01  1.2300747647704E+00  1.1360899629312E+00 -8.3007111190288E-01  3.6714882147747E-01
45  4.4000000000000E-01  1.1294860927168E+00  1.1747701442681E+00 -9.4211489897895E-01  4.0944688045596E-01
46  4.5000000000000E-01  1.0249178293276E+00  1.2127356824636E+00 -1.0453155935456E+00  4.4890306915851E-01
47  4.6000000000000E-01  9.1719964443765E-01  1.2498559350768E+00 -1.1383375570993E+00  4.8528093064884E-01
48  4.7000000000000E-01  8.0714212475064E-01  1.2859870134563E+00 -1.2199920909655E+00  5.1818479199590E-01
49  4.8000000000000E-01  6.9552661585636E-01  1.3209718698453E+00 -1.2892550638608E+00  5.4705319955214E-01
50  4.9000000000000E-01  5.8309691714375E-01  1.3546410010047E+00 -1.3452809224344E+00  5.7116288900548E-01
51  5.0000000000000E-01  4.7055298711725E-01  1.3868137860231E+00 -1.3874128337038E+00  5.8964365954717E-01
52  5.1000000000000E-01  3.5854673772195E-01  1.4173004516668E+00 -1.4151888181473E+00  6.0150404325651E-01
53  5.2000000000000E-01  2.4767991485456E-01  1.4459046338194E+00 -1.4283438452915E+00  6.0566717282896E-01
54  5.3000000000000E-01  1.3850398135549E-01  1.4724264792017E+00 -1.4268079762129E+00  6.0101577251336E-01
55  5.4000000000000E-01  3.1521841523968E-02  1.4966662085991E+00 -1.4107007457054E+00  5.8644474802068E-01
56  5.5000000000000E-01 -7.2808824446560E-02  1.5184280421427E+00 -1.3803220773763E+00  5.6091945001789E-01
57  5.6000000000000E-01 -1.7407090899077E-01  1.5375243696427E+00 -1.3361401142805E+00  5.2353734994022E-01
58  5.7000000000000E-01 -2.7188225099741E-01  1.5537800352850E+00 -1.2787764229649E+00  4.7359061146906E-01
59  5.8000000000000E-01 -3.6588941293219E-01  1.5670365967843E+00 -1.2089890875385E+00  4.1062687858240E-01
60  5.9000000000000E-01 -4.5576125956690E-01  1.5771564147868E+00 -1.1276542507493E+00  3.3450554072230E-01
61  6.0000000000000E-01 -5.4118274066659E-01  1.5840264292066E+00 -1.0357466798815E+00  2.4544678282059E-01
62  6.1000000000000E-01 -6.2184926742767E-01  1.5875614853553E+00 -9.3431993607132E-01  1.4407088407131E-01
63  6.2000000000000E-01 -6.9746204360370E-01  1.5877070840670E+00 -8.2448670665268E-01  3.1425491747724E-02
64  6.3000000000000E-01 -7.6772466804097E-01  1.5844414462328E+00 -7.0739982233341E-01 -9.1001041838126E-02
65  6.4000000000000E-01 -8.3234126731516E-01  1.5777768027528E+00 -5.8423442602218E-01 -2.2128172077886E-01
66  6.5000000000000E-01 -8.9101634741479E-01  1.5677598452244E+00 -4.5617169025195E-01 -3.5706930254270E-01
67  6.6000000000000E-01 -9.4345647454282E-01  1.5544712998998E+00 -3.2438439819837E-01 -4.9563138679729E-01
68  6.7000000000000E-01 -9.8937381008646E-01  1.5380246166414E+00 -1.9002461252528E-01 -6.3390193553104E-01
69  6.8000000000000E-01 -1.0284914369030E+00  1.5185637947403E+00 -5.4213560279415E-02 -7.6854833311738E-01
70  6.9000000000000E-01 -1.0605503267327E+00  1.4962603974748E+00  8.1966235429101E-02 -8.9605247361325E-01
71  7.0000000000000E-01 -1.0853177152426E+00  1.4713098360803E+00  2.1747664139920E-01 -1.0128037741290E+00
72  7.1000000000000E-01 -1.1025965753313E+00  1.4439270303001E+00  3.5132757154467E-01 -1.1152014806528E+00
73  7.2000000000000E-01 -1.1122358140350E+00  1.4143415759045E+00  4.8257884859061E-01 -1.1997631775898E+00
74  7.3000000000000E-01 -1.1141407665015E+00  1.3827925685874E+00  6.1034057062341E-01 -1.2632360537733E+00
75  7.4000000000000E-01 -1.1082835243922E+00  1.3495232477282E+00  7.3377233482531E-01 -1.3027072318402E+00
76  7.5000000000000E-01 -1.0947126175480E+00  1.3147756320391E+00  8.5208170555484E-01 -1.3157093470265E+00
77  7.6000000000000E-01 -1.0735615679758E+00  1.2787853217147E+00  9.6452233032021E-01 -1.3003175737033E+00
78  7.7000000000000E-01 -1.0450558546561E+00  1.2417766381586E+00  1.0703921045505E+00 -1.2552344467290E+00
79  7.8000000000000E-01 -1.0095178661080E+00  1.2039582627270E+00  1.1690317645750E+00 -1.1798591084825E+00