Fm    ONCVPSP-4.0.1  r_core=   1.15134   1.15134   1.20057   1.35316
100.0000     40.0000      231012    zatom,zion,pspd
8 -116133   3     4   600     0    pspcod,pspxc,lmax,lloc,mmax,r2well
5.99000000  5.00000000  0.00000000    rchrg fchrg qchrg
3     2     2     2     0    nproj
1     1           extension_switch
0                         2.1275387848624E+01  2.7883022472480E+00 -1.8092021537718E+00
1  0.0000000000000E+00 -1.2933454662800E-07 -3.8791269618699E-07 -2.0282624135781E-08
2  1.0000000000000E-02  1.6421610978441E-01  7.3984152045786E-02  3.7367017246766E-02
3  2.0000000000000E-02  3.2689394245773E-01  1.4547034346108E-01  7.4574646425696E-02
4  3.0000000000000E-02  4.8652568114031E-01  2.1204079219520E-01  1.1146745865783E-01
5  4.0000000000000E-02  6.4166345876243E-01  2.7143520383397E-01  1.4789780165983E-01
6  5.0000000000000E-02  7.9094694197067E-01  3.2162244842784E-01  1.8372933921544E-01
7  6.0000000000000E-02  9.3312814425933E-01  3.6086405199514E-01  2.1884018758736E-01
8  7.0000000000000E-02  1.0670927047734E+00  3.8776725410293E-01  2.5312553972599E-01
9  8.0000000000000E-02  1.1918769985643E+00  4.0132577084100E-01  2.8649968841407E-01
10  9.0000000000000E-02  1.3066805963020E+00  4.0094685921873E-01  3.1889738324676E-01
11  1.0000000000000E-01  1.4108737607935E+00  3.8646378732651E-01  3.5027448261882E-01
12  1.1000000000000E-01  1.5039998477257E+00  3.5813335538315E-01  3.8060788960753E-01
13  1.2000000000000E-01  1.5857726620383E+00  3.1661866569601E-01  4.0989478867573E-01
14  1.3000000000000E-01  1.6560690022898E+00  2.6295788380807E-01  4.3815122733550E-01
15  1.4000000000000E-01  1.7149167965075E+00  1.9852024827372E-01  4.6541011220616E-01
16  1.5000000000000E-01  1.7624793878608E+00  1.2495105327321E-01  4.9171871124460E-01
17  1.6000000000000E-01  1.7990366612920E+00  4.4107729196160E-02  5.1713577241861E-01
18  1.7000000000000E-01  1.8249638080120E+00 -4.2010533556911E-02  5.4172838298805E-01
19  1.8000000000000E-01  1.8407085996338E+00 -1.3133694485977E-01  5.6556870229781E-01
20  1.9000000000000E-01  1.8467680849425E+00 -2.2181226012346E-01  5.8873070422458E-01
21  2.0000000000000E-01  1.8436656284623E+00 -3.1145809057089E-01  6.1128706303570E-01
22  2.1000000000000E-01  1.8319291809971E+00 -3.9844564378828E-01  6.3330630852455E-01
23  2.2000000000000E-01  1.8120716094325E+00 -4.8115734766398E-01  6.5485036321844E-01
24  2.3000000000000E-01  1.7845738188616E+00 -5.5823909393554E-01  6.7597255676242E-01
25  2.4000000000000E-01  1.7498712782513E+00 -6.2864120501176E-01  6.9671619100486E-01
26  2.5000000000000E-01  1.7083444162055E+00 -6.9164666542747E-01  7.1711370474736E-01
27  2.6000000000000E-01  1.6603131915373E+00 -7.4688565051131E-01  7.3718646059634E-01
28  2.7000000000000E-01  1.6060359706323E+00 -7.9433591090668E-01  7.5694514896858E-01
29  2.8000000000000E-01  1.5457126666473E+00 -8.3430911252417E-01  7.7639077719992E-01
30  2.9000000000000E-01  1.4794919212774E+00 -8.6742376685818E-01  7.9551618601135E-01
31  3.0000000000000E-01  1.4074819448446E+00 -8.9456589616466E-01  8.1430801237331E-01
32  3.1000000000000E-01  1.3297644811413E+00 -9.1683904263199E-01  8.3274899804460E-01
33  3.2000000000000E-01  1.2464112355150E+00 -9.3550563296561E-01  8.5082052757532E-01
34  3.3000000000000E-01  1.1575020029682E+00 -9.5192203479416E-01  8.6850526900413E-01
35  3.4000000000000E-01  1.0631436614386E+00 -9.6746987695968E-01  8.8578978529767E-01
36  3.5000000000000E-01  9.6348915657623E-01 -9.8348634352139E-01  9.0266698499950E-01
37  3.6000000000000E-01  8.5875559968913E-01 -1.0011961863110E+00  9.1913828657121E-01
38  3.7000000000000E-01  7.4924063017135E-01 -1.0216481321974E+00  9.3521538228298E-01
39  3.8000000000000E-01  6.3533625645069E-01 -1.0456581918177E+00  9.5092150378390E-01
40  3.9000000000000E-01  5.1753948282415E-01 -1.0737621131784E+00  9.6629211199074E-01
41  4.0000000000000E-01  3.9645914984465E-01 -1.1061788765128E+00  9.8137495783826E-01
42  4.1000000000000E-01  2.7281855853135E-01 -1.1427867094791E+00  9.9622948675184E-01
43  4.2000000000000E-01  1.4745360810732E-01 -1.1831126301788E+00  1.0109255873529E+00
44  4.3000000000000E-01  2.1306347116510E-02 -1.2263360174946E+00  1.0255417127475E+00
45  4.4000000000000E-01 -1.0458598785193E-01 -1.2713061830862E+00  1.0401624296327E+00
46  4.5000000000000E-01 -2.2910619961719E-01 -1.3165733967814E+00  1.0548754752688E+00
47  4.6000000000000E-01 -3.5107621471458E-01 -1.3604323165474E+00  1.0697684240856E+00
48  4.7000000000000E-01 -4.6927946712348E-01 -1.4009763142853E+00  1.0849250834187E+00
49  4.8000000000000E-01 -5.8248589637686E-01 -1.4361607862233E+00  1.1004217508654E+00
50  4.9000000000000E-01 -6.8947877261071E-01 -1.4638732062958E+00  1.1163234734801E+00
51  5.0000000000000E-01 -7.8908248761852E-01 -1.4820074343525E+00  1.1326804511648E+00
52  5.1000000000000E-01 -8.8019040897679E-01 -1.4885396368603E+00  1.1495247230655E+00
53  5.2000000000000E-01 -9.6179188517254E-01 -1.4816031209261E+00  1.1668672667004E+00
54  5.3000000000000E-01 -1.0329975135124E+00 -1.4595594242635E+00  1.1846956252993E+00
55  5.4000000000000E-01 -1.0930618382934E+00 -1.4210631417166E+00  1.2029721599999E+00
56  5.5000000000000E-01 -1.1414027319460E+00 -1.3651181971496E+00  1.2216330009169E+00
57  5.6000000000000E-01 -1.1776168232157E+00 -1.2911235785940E+00  1.2405877455856E+00
58  5.7000000000000E-01 -1.2014904695666E+00 -1.1989069322893E+00  1.2597199259450E+00
59  5.8000000000000E-01 -1.2130059207523E+00 -1.0887448430235E+00  1.2788882369782E+00
60  5.9000000000000E-01 -1.2123424812219E+00 -9.6136909750475E-01  1.2979284925165E+00
61  6.0000000000000E-01 -1.1998726446959E+00 -8.1795871673748E-01  1.3166562476620E+00
62  6.1000000000000E-01 -1.1761533387387E+00 -6.6011803440941E-01  1.3348700038426E+00
63  6.2000000000000E-01 -1.1419125745118E+00 -4.8984157320059E-01  1.3523548926201E+00
64  6.3000000000000E-01 -1.0980319414899E+00 -3.0946691268277E-01  1.3688867188125E+00
65  6.4000000000000E-01 -1.0455255137526E+00 -1.2161713558400E-01  1.3842362328587E+00
66  6.5000000000000E-01 -9.8551583925261E-01  7.0865229752713E-02  1.3981734970385E+00
67  6.6000000000000E-01 -9.1920776286813E-01  2.6499059474155E-01  1.4104722103104E+00
68  6.7000000000000E-01 -8.4786088574284E-01  4.5769867043847E-01  1.4209138620819E+00
69  6.8000000000000E-01 -7.7276148619398E-01  6.4593635683282E-01  1.4292915958613E+00
70  6.9000000000000E-01 -6.9519472121513E-01  8.2673471163685E-01  1.4354136789435E+00
71  7.0000000000000E-01 -6.1641789332540E-01  9.9728262902969E-01  1.4391064933393E+00
72  7.1000000000000E-01 -5.3763550726828E-01  1.1549950193470E+00  1.4402169851870E+00
73  7.2000000000000E-01 -4.5997675780427E-01  1.2975735136197E+00  1.4386145338973E+00
74  7.3000000000000E-01 -3.8447598736188E-01  1.4230580117599E+00  1.4341922271895E+00
75  7.4000000000000E-01 -3.1205653499460E-01  1.5298677377419E+00  1.4268675528801E+00
76  7.5000000000000E-01 -2.4351827077421E-01  1.6168308454215E+00  1.4165825416867E+00
77  7.6000000000000E-01 -1.7952897750777E-01  1.6832020198625E+00  1.4033034163832E+00
78  7.7000000000000E-01 -1.2061960957252E-01  1.7286679260603E+00  1.3870198204774E+00
79  7.8000000000000E-01 -6.7183331636196E-02  1.7533407549026E+00  1.3677437134003E+00
80  7.9000000000000E-01 -1.9478122609149E-02  1.7577404910217E+00  1.3455080284335E+00
81  8.0000000000000E-01  2.2367373651698E-02  1.7427668662166E+00  1.3203651938673E+00
82  8.1000000000000E-01  5.8345156289409E-02  1.7096622544849E+00  1.2923856170453E+00
83  8.2000000000000E-01  8.8556806954618E-02  1.6599670016922E+00  1.2616562250943E+00
84  8.3000000000000E-01  1.1320058024786E-01  1.5954688582867E+00  1.2282791455735E+00
85  8.4000000000000E-01  1.3255718915909E-01  1.5181482935478E+00  1.1923705955485E+00
86  8.5000000000000E-01  1.4697483266683E-01  1.4301215136329E+00  1.1540600294098E+00
87  8.6000000000000E-01  1.5685399521646E-01  1.3335829846980E+00  1.1134895750125E+00
88  8.7000000000000E-01  1.6263251164507E-01  1.2307491805688E+00  1.0708137654079E+00
89  8.8000000000000E-01  1.6477133877502E-01  1.1238051379231E+00  1.0261995506443E+00
90  8.9000000000000E-01  1.6374140941869E-01  1.0148552186261E+00  9.7982655195653E-01
91  9.0000000000000E-01  1.6001186937228E-01  9.0587925801189E-01  9.3188750020129E-01
92  9.1000000000000E-01  1.5403991680683E-01  7.9869502980499E-01  8.8258878266517E-01
93  9.2000000000000E-01  1.4626238002479E-01  6.9492769374597E-01  8.3215100825243E-01
94  9.3000000000000E-01  1.3708908745644E-01  5.9598662156353E-01  7.8080949129471E-01
95  9.4000000000000E-01  1.2689800639761E-01  5.0304973108183E-01  7.2881454935915E-01
96  9.5000000000000E-01  1.1603205728288E-01  4.1705520640902E-01  6.7643151078895E-01
97  9.6000000000000E-01  1.0479745069531E-01  3.3870025262509E-01  6.2394033338456E-01
98  9.7000000000000E-01  9.3463346677784E-02  2.6844633301441E-01  5.7163474647368E-01
99  9.8000000000000E-01  8.2262601397831E-02  2.0653017074237E-01  5.1982084423933E-01
100  9.9000000000000E-01  7.1393345346654E-02  1.5297966836361E-01  4.6881507797532E-01
101  1.0000000000000E+00  6.1021129848210E-02  1.0763380917225E-01  4.1894161811301E-01
102  1.0100000000000E+00  5.1281383903713E-02  7.0165553900946E-02  3.7052908243681E-01
103  1.0200000000000E+00  4.2281939966528E-02  4.0106732764156E-02  3.2390665382441E-01
104  1.0300000000000E+00  3.4105413313157E-02  1.6873953106660E-02  2.7939963792362E-01
105  1.0400000000000E+00  2.6811253037106E-02 -2.0540764064487E-04  2.3732453722508E-01
106  1.0500000000000E+00  2.0437321025801E-02 -1.1867980531376E-02  1.9798374189342E-01
107  1.0600000000000E+00  1.5000896066501E-02 -1.8890720403138E-02  1.6165995835768E-01
108  1.0700000000000E+00  1.0499040970639E-02 -2.2069419573773E-02  1.2861051309406E-01
109  1.0800000000000E+00  6.9082569521089E-03 -2.2200102691232E-02  9.9061637097620E-02
110  1.0900000000000E+00  4.1838812283011E-03 -2.0062631365340E-02  7.3203250171633E-02
111  1.1000000000000E+00  2.2364797754029E-03 -1.6465055293697E-02  5.1164400709048E-02
112  1.1100000000000E+00  9.2603341621051E-04 -1.2248611862013E-02  3.3001192861550E-02
113  1.1200000000000E+00  1.8759572525131E-04 -7.9516077191558E-03  1.8809498335193E-02
114  1.1300000000000E+00 -9.2625133611480E-05 -4.1127695623345E-03  8.6214138890188E-03
115  1.1400000000000E+00 -8.1664592207984E-05 -1.2762800354885E-03  2.3888589376078E-03
116  1.1500000000000E+00 -4.1304811037977E-06 -3.9463901261883E-05  6.5805196424065E-05
117  1.1600000000000E+00 -6.0936283895956E-07 -6.1808747117718E-06  1.0460102054516E-05
118  1.1700000000000E+00  8.4938156399302E-08  1.0306914641223E-06 -1.8304929030427E-06
119  1.18  0.  0.  0.
120  1.19  0.  0.  0.
121  1.20  0.  0.  0.
122  1.21  0.  0.  0.
123  1.22  0.  0.  0.
124  1.23  0.  0.  0.
125  1.24  0.  0.  0.
126  1.25  0.  0.  0.
127  1.26  0.  0.  0.
128  1.27  0.  0.  0.
129  1.28  0.  0.  0.
130  1.29  0.  0.  0.
131  1.30  0.  0.  0.
132  1.31  0.  0.  0.
133  1.32  0.  0.  0.
134  1.33  0.  0.  0.
135  1.34  0.  0.  0.
136  1.35  0.  0.  0.
137  1.36  0.  0.  0.
138  1.37  0.  0.  0.
139  1.38  0.  0.  0.
140  1.39  0.  0.  0.
141  1.40  0.  0.  0.
142  1.41  0.  0.  0.
143  1.42  0.  0.  0.
144  1.43  0.  0.  0.
145  1.44  0.  0.  0.
146  1.45  0.  0.  0.
147  1.46  0.  0.  0.
148  1.47  0.  0.  0.
149  1.48  0.  0.  0.
150  1.49  0.  0.  0.
151  1.50  0.  0.  0.
152  1.51  0.  0.  0.
153  1.52  0.  0.  0.
154  1.53  0.  0.  0.
155  1.54  0.  0.  0.
156  1.55  0.  0.  0.
157  1.56  0.  0.  0.
158  1.57  0.  0.  0.
159  1.58  0.  0.  0.
160  1.59  0.  0.  0.
161  1.60  0.  0.  0.
162  1.61  0.  0.  0.
163  1.62  0.  0.  0.
164  1.63  0.  0.  0.
165  1.64  0.  0.  0.
166  1.65  0.  0.  0.
167  1.66  0.  0.  0.
168  1.67  0.  0.  0.
169  1.68  0.  0.  0.
170  1.69  0.  0.  0.
171  1.70  0.  0.  0.
172  1.71  0.  0.  0.
173  1.72  0.  0.  0.
174  1.73  0.  0.  0.
175  1.74  0.  0.  0.
176  1.75  0.  0.  0.
177  1.76  0.  0.  0.
178  1.77  0.  0.  0.
179  1.78  0.  0.  0.
180  1.79  0.  0.  0.
181  1.80  0.  0.  0.
182  1.81  0.  0.  0.
183  1.82  0.  0.  0.
184  1.83  0.  0.  0.
185  1.84  0.  0.  0.
186  1.85  0.  0.  0.
187  1.86  0.  0.  0.
188  1.87  0.  0.  0.
189  1.88  0.  0.  0.
190  1.89  0.  0.  0.
191  1.90  0.  0.  0.
192  1.91  0.  0.  0.
193  1.92  0.  0.  0.
194  1.93  0.  0.  0.
195  1.94  0.  0.  0.
196  1.95  0.  0.  0.
197  1.96  0.  0.  0.
198  1.97  0.  0.  0.
199  1.98  0.  0.  0.
200  1.99  0.  0.  0.
201  2.00  0.  0.  0.
202  2.01  0.  0.  0.
203  2.02  0.  0.  0.
204  2.03  0.  0.  0.
205  2.04  0.  0.  0.
206  2.05  0.  0.  0.
207  2.06  0.  0.  0.
208  2.07  0.  0.  0.
209  2.08  0.  0.  0.
210  2.09  0.  0.  0.
211  2.10  0.  0.  0.
212  2.11  0.  0.  0.
213  2.12  0.  0.  0.
214  2.13  0.  0.  0.
215  2.14  0.  0.  0.
216  2.15  0.  0.  0.
217  2.16  0.  0.  0.
218  2.17  0.  0.  0.
219  2.18  0.  0.  0.
220  2.19  0.  0.  0.
221  2.20  0.  0.  0.
222  2.21  0.  0.  0.
223  2.22  0.  0.  0.
224  2.23  0.  0.  0.
225  2.24  0.  0.  0.
226  2.25  0.  0.  0.
227  2.26  0.  0.  0.
228  2.27  0.  0.  0.
229  2.28  0.  0.  0.
230  2.29  0.  0.  0.
231  2.30  0.  0.  0.
232  2.31  0.  0.  0.
233  2.32  0.  0.  0.
234  2.33  0.  0.  0.
235  2.34  0.  0.  0.
236  2.35  0.  0.  0.
237  2.36  0.  0.  0.
238  2.37  0.  0.  0.
239  2.38  0.  0.  0.
240  2.39  0.  0.  0.
241  2.40  0.  0.  0.
242  2.41  0.  0.  0.
243  2.42  0.  0.  0.
244  2.43  0.  0.  0.
245  2.44  0.  0.  0.
246  2.45  0.  0.  0.
247  2.46  0.  0.  0.
248  2.47  0.  0.  0.
249  2.48  0.  0.  0.
250  2.49  0.  0.  0.
251  2.50  0.  0.  0.
252  2.51  0.  0.  0.
253  2.52  0.  0.  0.
254  2.53  0.  0.  0.
255  2.54  0.  0.  0.
256  2.55  0.  0.  0.
257  2.56  0.  0.  0.
258  2.57  0.  0.  0.
259  2.58  0.  0.  0.
260  2.59  0.  0.  0.
261  2.60  0.  0.  0.
262  2.61  0.  0.  0.
263  2.62  0.  0.  0.
264  2.63  0.  0.  0.
265  2.64  0.  0.  0.
266  2.65  0.  0.  0.
267  2.66  0.  0.  0.
268  2.67  0.  0.  0.
269  2.68  0.  0.  0.
270  2.69  0.  0.  0.
271  2.70  0.  0.  0.
272  2.71  0.  0.  0.
273  2.72  0.  0.  0.
274  2.73  0.  0.  0.
275  2.74  0.  0.  0.
276  2.75  0.  0.  0.
277  2.76  0.  0.  0.
278  2.77  0.  0.  0.
279  2.78  0.  0.  0.
280  2.79  0.  0.  0.
281  2.80  0.  0.  0.
282  2.81  0.  0.  0.
283  2.82  0.  0.  0.
284  2.83  0.  0.  0.
285  2.84  0.  0.  0.
286  2.85  0.  0.  0.
287  2.86  0.  0.  0.
288  2.87  0.  0.  0.
289  2.88  0.  0.  0.
290  2.89  0.  0.  0.
291  2.90  0.  0.  0.
292  2.91  0.  0.  0.
293  2.92  0.  0.  0.
294  2.93  0.  0.  0.
295  2.94  0.  0.  0.
296  2.95  0.  0.  0.
297  2.96  0.  0.  0.
298  2.97  0.  0.  0.
299  2.98  0.  0.  0.
300  2.99  0.  0.  0.
301  3.00  0.  0.  0.
302  3.01  0.  0.  0.
303  3.02  0.  0.  0.
304  3.03  0.  0.  0.
305  3.04  0.  0.  0.
306  3.05  0.  0.  0.
307  3.06  0.  0.  0.
308  3.07  0.  0.  0.
309  3.08  0.  0.  0.
310  3.09  0.  0.  0.
311  3.10  0.  0.  0.
312  3.11  0.  0.  0.
313  3.12  0.  0.  0.
314  3.13  0.  0.  0.
315  3.14  0.  0.  0.
316  3.15  0.  0.  0.
317  3.16  0.  0.  0.
318  3.17  0.  0.  0.
319  3.18  0.  0.  0.
320  3.19  0.  0.  0.
321  3.20  0.  0.  0.
322  3.21  0.  0.  0.
323  3.22  0.  0.  0.
324  3.23  0.  0.  0.
325  3.24  0.  0.  0.
326  3.25  0.  0.  0.
327  3.26  0.  0.  0.
328  3.27  0.  0.  0.
329  3.28  0.  0.  0.
330  3.29  0.  0.  0.
331  3.30  0.  0.  0.
332  3.31  0.  0.  0.
333  3.32  0.  0.  0.
334  3.33  0.  0.  0.
335  3.34  0.  0.  0.
336  3.35  0.  0.  0.
337  3.36  0.  0.  0.
338  3.37  0.  0.  0.
339  3.38  0.  0.  0.
340  3.39  0.  0.  0.
341  3.40  0.  0.  0.
342  3.41  0.  0.  0.
343  3.42  0.  0.  0.
344  3.43  0.  0.  0.
345  3.44  0.  0.  0.
346  3.45  0.  0.  0.
347  3.46  0.  0.  0.
348  3.47  0.  0.  0.
349  3.48  0.  0.  0.
350  3.49  0.  0.  0.
351  3.50  0.  0.  0.
352  3.51  0.  0.  0.
353  3.52  0.  0.  0.
354  3.53  0.  0.  0.
355  3.54  0.  0.  0.
356  3.55  0.  0.  0.
357  3.56  0.  0.  0.
358  3.57  0.  0.  0.
359  3.58  0.  0.  0.
360  3.59  0.  0.  0.
361  3.60  0.  0.  0.
362  3.61  0.  0.  0.
363  3.62  0.  0.  0.
364  3.63  0.  0.  0.
365  3.64  0.  0.  0.
366  3.65  0.  0.  0.
367  3.66  0.  0.  0.
368  3.67  0.  0.  0.
369  3.68  0.  0.  0.
370  3.69  0.  0.  0.
371  3.70  0.  0.  0.
372  3.71  0.  0.  0.
373  3.72  0.  0.  0.
374  3.73  0.  0.  0.
375  3.74  0.  0.  0.
376  3.75  0.  0.  0.
377  3.76  0.  0.  0.
378  3.77  0.  0.  0.
379  3.78  0.  0.  0.
380  3.79  0.  0.  0.
381  3.80  0.  0.  0.
382  3.81  0.  0.  0.
383  3.82  0.  0.  0.
384  3.83  0.  0.  0.
385  3.84  0.  0.  0.
386  3.85  0.  0.  0.
387  3.86  0.  0.  0.
388  3.87  0.  0.  0.
389  3.88  0.  0.  0.
390  3.89  0.  0.  0.
391  3.90  0.  0.  0.
392  3.91  0.  0.  0.
393  3.92  0.  0.  0.
394  3.93  0.  0.  0.
395  3.94  0.  0.  0.
396  3.95  0.  0.  0.
397  3.96  0.  0.  0.
398  3.97  0.  0.  0.
399  3.98  0.  0.  0.
400  3.99  0.  0.  0.
401  4.00  0.  0.  0.
402  4.01  0.  0.  0.
403  4.02  0.  0.  0.
404  4.03  0.  0.  0.
405  4.04  0.  0.  0.
406  4.05  0.  0.  0.
407  4.06  0.  0.  0.
408  4.07  0.  0.  0.
409  4.08  0.  0.  0.
410  4.09  0.  0.  0.
411  4.10  0.  0.  0.
412  4.11  0.  0.  0.
413  4.12  0.  0.  0.
414  4.13  0.  0.  0.
415  4.14  0.  0.  0.
416  4.15  0.  0.  0.
417  4.16  0.  0.  0.
418  4.17  0.  0.  0.
419  4.18  0.  0.  0.
420  4.19  0.  0.  0.
421  4.20  0.  0.  0.
422  4.21  0.  0.  0.
423  4.22  0.  0.  0.
424  4.23  0.  0.  0.
425  4.24  0.  0.  0.
426  4.25  0.  0.  0.
427  4.26  0.  0.  0.
428  4.27  0.  0.  0.
429  4.28  0.  0.  0.
430  4.29  0.  0.  0.
431  4.30  0.  0.  0.
432  4.31  0.  0.  0.
433  4.32  0.  0.  0.
434  4.33  0.  0.  0.
435  4.34  0.  0.  0.
436  4.35  0.  0.  0.
437  4.36  0.  0.  0.
438  4.37  0.  0.  0.
439  4.38  0.  0.  0.
440  4.39  0.  0.  0.
441  4.40  0.  0.  0.
442  4.41  0.  0.  0.
443  4.42  0.  0.  0.
444  4.43  0.  0.  0.
445  4.44  0.  0.  0.
446  4.45  0.  0.  0.
447  4.46  0.  0.  0.
448  4.47  0.  0.  0.
449  4.48  0.  0.  0.
450  4.49  0.  0.  0.
451  4.50  0.  0.  0.
452  4.51  0.  0.  0.
453  4.52  0.  0.  0.
454  4.53  0.  0.  0.
455  4.54  0.  0.  0.
456  4.55  0.  0.  0.
457  4.56  0.  0.  0.
458  4.57  0.  0.  0.
459  4.58  0.  0.  0.
460  4.59  0.  0.  0.
461  4.60  0.  0.  0.
462  4.61  0.  0.  0.
463  4.62  0.  0.  0.
464  4.63  0.  0.  0.
465  4.64  0.  0.  0.
466  4.65  0.  0.  0.
467  4.66  0.  0.  0.
468  4.67  0.  0.  0.
469  4.68  0.  0.  0.
470  4.69  0.  0.  0.
471  4.70  0.  0.  0.
472  4.71  0.  0.  0.
473  4.72  0.  0.  0.
474  4.73  0.  0.  0.
475  4.74  0.  0.  0.
476  4.75  0.  0.  0.
477  4.76  0.  0.  0.
478  4.77  0.  0.  0.
479  4.78  0.  0.  0.
480  4.79  0.  0.  0.
481  4.80  0.  0.  0.
482  4.81  0.  0.  0.
483  4.82  0.  0.  0.
484  4.83  0.  0.  0.
485  4.84  0.  0.  0.
486  4.85  0.  0.  0.
487  4.86  0.  0.  0.
488  4.87  0.  0.  0.
489  4.88  0.  0.  0.
490  4.89  0.  0.  0.
491  4.90  0.  0.  0.
492  4.91  0.  0.  0.
493  4.92  0.  0.  0.
494  4.93  0.  0.  0.
495  4.94  0.  0.  0.
496  4.95  0.  0.  0.
497  4.96  0.  0.  0.
498  4.97  0.  0.  0.
499  4.98  0.  0.  0.
500  4.99  0.  0.  0.
501  5.00  0.  0.  0.
502  5.01  0.  0.  0.
503  5.02  0.  0.  0.
504  5.03  0.  0.  0.
505  5.04  0.  0.  0.
506  5.05  0.  0.  0.
507  5.06  0.  0.  0.
508  5.07  0.  0.  0.
509  5.08  0.  0.  0.
510  5.09  0.  0.  0.
511  5.10  0.  0.  0.
512  5.11  0.  0.  0.
513  5.12  0.  0.  0.
514  5.13  0.  0.  0.
515  5.14  0.  0.  0.
516  5.15  0.  0.  0.
517  5.16  0.  0.  0.
518  5.17  0.  0.  0.
519  5.18  0.  0.  0.
520  5.19  0.  0.  0.
521  5.20  0.  0.  0.
522  5.21  0.  0.  0.
523  5.22  0.  0.  0.
524  5.23  0.  0.  0.
525  5.24  0.  0.  0.
526  5.25  0.  0.  0.
527  5.26  0.  0.  0.
528  5.27  0.  0.  0.
529  5.28  0.  0.  0.
530  5.29  0.  0.  0.
531  5.30  0.  0.  0.
532  5.31  0.  0.  0.
533  5.32  0.  0.  0.
534  5.33  0.  0.  0.
535  5.34  0.  0.  0.
536  5.35  0.  0.  0.
537  5.36  0.  0.  0.
538  5.37  0.  0.  0.
539  5.38  0.  0.  0.
540  5.39  0.  0.  0.
541  5.40  0.  0.  0.
542  5.41  0.  0.  0.
543  5.42  0.  0.  0.
544  5.43  0.  0.  0.
545  5.44  0.  0.  0.
546  5.45  0.  0.  0.
547  5.46  0.  0.  0.
548  5.47  0.  0.  0.
549  5.48  0.  0.  0.
550  5.49  0.  0.  0.
551  5.50  0.  0.  0.
552  5.51  0.  0.  0.
553  5.52  0.  0.  0.
554  5.53  0.  0.  0.
555  5.54  0.  0.  0.
556  5.55  0.  0.  0.
557  5.56  0.  0.  0.
558  5.57  0.  0.  0.
559  5.58  0.  0.  0.
560  5.59  0.  0.  0.
561  5.60  0.  0.  0.
562  5.61  0.  0.  0.
563  5.62  0.  0.  0.
564  5.63  0.  0.  0.
565  5.64  0.  0.  0.
566  5.65  0.  0.  0.
567  5.66  0.  0.  0.
568  5.67  0.  0.  0.
569  5.68  0.  0.  0.
570  5.69  0.  0.  0.
571  5.70  0.  0.  0.
572  5.71  0.  0.  0.
573  5.72  0.  0.  0.
574  5.73  0.  0.  0.
575  5.74  0.  0.  0.
576  5.75  0.  0.  0.
577  5.76  0.  0.  0.
578  5.77  0.  0.  0.
579  5.78  0.  0.  0.
580  5.79  0.  0.  0.
581  5.80  0.  0.  0.
582  5.81  0.  0.  0.
583  5.82  0.  0.  0.
584  5.83  0.  0.  0.
585  5.84  0.  0.  0.
586  5.85  0.  0.  0.
587  5.86  0.  0.  0.
588  5.87  0.  0.  0.
589  5.88  0.  0.  0.
590  5.89  0.  0.  0.
591  5.90  0.  0.  0.
592  5.91  0.  0.  0.
593  5.92  0.  0.  0.
594  5.93  0.  0.  0.
595  5.94  0.  0.  0.
596  5.95  0.  0.  0.
597  5.96  0.  0.  0.
598  5.97  0.  0.  0.
599  5.98  0.  0.  0.
600  5.99  0.  0.  0.
1                         6.2843492642569E+00 -1.7377863823914E+00
1  0.0000000000000E+00 -3.7048229650782E-08 -1.8948097625648E-08
2  1.0000000000000E-02  3.8959707125256E-03  3.3799593614010E-04
3  2.0000000000000E-02  1.5562542878515E-02  1.3624981328181E-03
4  3.0000000000000E-02  3.4935287072872E-02  3.1046803494069E-03
5  4.0000000000000E-02  6.1905483235637E-02  5.6152807703459E-03
6  5.0000000000000E-02  9.6318208710265E-02  8.9628208315936E-03
7  6.0000000000000E-02  1.3796984650323E-01  1.3231201701809E-02
8  7.0000000000000E-02  1.8660518930812E-01  1.8516764474992E-02
9  8.0000000000000E-02  2.4191435188570E-01  2.4924919079419E-02
10  9.0000000000000E-02  3.0352973231199E-01  3.2566461919660E-02
11  1.0000000000000E-01  3.7102328012059E-01  4.1553712781335E-02
12  1.1000000000000E-01  4.4390433559716E-01  5.1996607148885E-02
13  1.2000000000000E-01  5.2161829900067E-01  6.3998880605516E-02
14  1.3000000000000E-01  6.0354637131292E-01  7.7654477385225E-02
15  1.4000000000000E-01  6.8900657974314E-01  9.3044305605379E-02
16  1.5000000000000E-01  7.7725626257300E-01  1.1023344758946E-01
17  1.6000000000000E-01  8.6749614036709E-01  1.2926891553100E-01
18  1.7000000000000E-01  9.5887604581012E-01  1.5017802124448E-01
19  1.8000000000000E-01  1.0505023244817E+00  1.7296740471835E-01
20  1.9000000000000E-01  1.1414468559910E+00  1.9762274055052E-01
21  2.0000000000000E-01  1.2307575814588E+00  2.2410911509037E-01
22  2.1000000000000E-01  1.3174703618045E+00  2.5237204124670E-01
23  2.2000000000000E-01  1.4006219340801E+00  2.8233905344769E-01
24  2.3000000000000E-01  1.4792636824845E+00  3.1392180310828E-01
25  2.4000000000000E-01  1.5524758987474E+00  3.4701855603936E-01
26  2.5000000000000E-01  1.6193821750750E+00  3.8151697826849E-01
27  2.6000000000000E-01  1.6791635531986E+00  4.1729708633297E-01
28  2.7000000000000E-01  1.7310720462396E+00  4.5423423268044E-01
29  2.8000000000000E-01  1.7744431566189E+00  4.9220199660713E-01
30  2.9000000000000E-01  1.8087070331102E+00  5.3107485621717E-01
31  3.0000000000000E-01  1.8333979428879E+00  5.7073052703183E-01
32  3.1000000000000E-01  1.8481617790885E+00  6.1105186774975E-01
33  3.2000000000000E-01  1.8527613795580E+00  6.5192827270716E-01
34  3.3000000000000E-01  1.8470794962740E+00  6.9325649308972E-01
35  3.4000000000000E-01  1.8311193252204E+00  7.3494085404402E-01
36  3.5000000000000E-01  1.8050025808083E+00  7.7689286155400E-01
37  3.6000000000000E-01  1.7689651746528E+00  8.1903022023840E-01
38  3.7000000000000E-01  1.7233506329004E+00  8.6127531000746E-01
39  3.8000000000000E-01  1.6686014566736E+00  9.0355319471248E-01
40  3.9000000000000E-01  1.6052486939526E+00  9.4578925850124E-01
41  4.0000000000000E-01  1.5339000459860E+00  9.8790658461163E-01
42  4.1000000000000E-01  1.4552268750460E+00  1.0298232059762E+00
43  4.2000000000000E-01  1.3699505113330E+00  1.0714493666112E+00
44  4.3000000000000E-01  1.2788282738612E+00  1.1126849368467E+00
45  4.4000000000000E-01  1.1826396225095E+00  1.1534171237538E+00
46  4.5000000000000E-01  1.0821728459005E+00  1.1935186105851E+00
47  4.6000000000000E-01  9.7821266276156E-01  1.2328462458450E+00
48  4.7000000000000E-01  8.7152907382614E-01  1.2712403841456E+00
49  4.8000000000000E-01  7.6286774859497E-01  1.3085249578837E+00
50  4.9000000000000E-01  6.5294216829253E-01  1.3445083318040E+00
51  5.0000000000000E-01  5.4242767543582E-01  1.3789849626484E+00
52  5.1000000000000E-01  4.3195750421380E-01  1.4117378544333E+00
53  5.2000000000000E-01  3.2212078721661E-01  1.4425417676221E+00
54  5.3000000000000E-01  2.1346245593920E-01  1.4711671088141E+00
55  5.4000000000000E-01  1.0648487791228E-01  1.4973843977756E+00
56  5.5000000000000E-01  1.6510051792452E-03  1.5209691818941E+00
57  5.6000000000000E-01 -1.0061125017298E-01  1.5417072455363E+00
58  5.7000000000000E-01 -1.9990374524162E-01  1.5593999443006E+00
59  5.8000000000000E-01 -2.9585230618000E-01  1.5738694825697E+00
60  5.9000000000000E-01 -3.8810078375922E-01  1.5849639476696E+00
61  6.0000000000000E-01 -4.7630535300045E-01  1.5925619156878E+00
62  6.1000000000000E-01 -5.6012943245505E-01  1.5965764526929E+00
63  6.2000000000000E-01 -6.3923957006928E-01  1.5969583505827E+00
64  6.3000000000000E-01 -7.1330259901471E-01  1.5936984586476E+00
65  6.4000000000000E-01 -7.8198430990145E-01  1.5868289995206E+00
66  6.5000000000000E-01 -8.4494981747390E-01  1.5764237906003E+00
67  6.6000000000000E-01 -9.0186572274253E-01  1.5625973281976E+00
68  6.7000000000000E-01 -9.5240408844081E-01  1.5455027303246E+00
69  6.8000000000000E-01 -9.9624815990173E-01  1.5253285738496E+00
70  6.9000000000000E-01 -1.0330996782858E+00  1.5022947012503E+00
71  7.0000000000000E-01 -1.0626875519408E+00  1.4766471099576E+00
72  7.1000000000000E-01 -1.0847775778554E+00  1.4486520718777E+00
73  7.2000000000000E-01 -1.0991828417489E+00  1.4185896607833E+00
74  7.3000000000000E-01 -1.1057743750901E+00  1.3867468896901E+00
75  7.4000000000000E-01 -1.1044916125365E+00  1.3534106780702E+00
76  7.5000000000000E-01 -1.0953521757090E+00  1.3188608790429E+00
77  7.6000000000000E-01 -1.0784605099871E+00  1.2833635989851E+00
78  7.7000000000000E-01 -1.0540149205964E+00  1.2471650361005E+00
79  7.8000000000000E-01 -1.0223125924172E+00  1.2104860504275E+00
80  7.9000000000000E-01 -9.8375223371549E-01  1.1735176559154E+00
81  8.0000000000000E-01 -9.3883405575443E-01  1.1364175961942E+00
82  8.1000000000000E-01 -8.8815688569290E-01  1.0993081304350E+00
83  8.2000000000000E-01 -8.3241230649146E-01  1.0622751153914E+00
84  8.3000000000000E-01 -7.7237582140200E-01  1.0253684256969E+00
85  8.4000000000000E-01 -7.0889514834853E-01  9.8860370827913E-01
86  8.5000000000000E-01 -6.4287585722393E-01  9.5196541996423E-01
87  8.6000000000000E-01 -5.7526466684987E-01  9.1541105163613E-01
88  8.7000000000000E-01 -5.0703081415752E-01  8.7887639934894E-01
89  8.8000000000000E-01 -4.3914599233515E-01  8.4228170412326E-01
90  8.9000000000000E-01 -3.7256342389020E-01  8.0553844923994E-01
91  9.0000000000000E-01 -3.0819668590207E-01  7.6855657792248E-01
92  9.1000000000000E-01 -2.4689893589916E-01  7.3125187638956E-01
93  9.2000000000000E-01 -1.8944319617388E-01  6.9355325810168E-01
94  9.3000000000000E-01 -1.3650434109052E-01  6.5540968505557E-01
95  9.4000000000000E-01 -8.8643395991765E-02  6.1679647130662E-01
96  9.5000000000000E-01 -4.6294698427611E-02  5.7772073229995E-01
97  9.6000000000000E-01 -9.7563941630239E-03  5.3822577051719E-01
98  9.7000000000000E-01  2.0815355894223E-02  4.9839422252861E-01
99  9.8000000000000E-01  4.5408193103823E-02  4.5834983364323E-01
100  9.9000000000000E-01  6.4151260992964E-02  4.1825777258103E-01
101  1.0000000000000E+00  7.7308776144190E-02  3.7832344836421E-01
102  1.0100000000000E+00  8.5269591942118E-02  3.3878984318843E-01
103  1.0200000000000E+00  8.8533009060438E-02  2.9993342664146E-01
104  1.0300000000000E+00  8.7691212510808E-02  2.6205876640400E-01
105  1.0400000000000E+00  8.3408830559877E-02  2.2549199672661E-01
106  1.0500000000000E+00  7.6400211913299E-02  1.9057334693550E-01
107  1.0600000000000E+00  6.7405100429771E-02  1.5764896641682E-01
108  1.0700000000000E+00  5.7163448297569E-02  1.2706230873677E-01
109  1.0800000000000E+00  4.6390090780858E-02  9.9145338571731E-02
110  1.0900000000000E+00  3.5750546743446E-02  7.4209981629929E-02
111  1.1000000000000E+00  2.5813193177947E-02  5.2531815109105E-02
112  1.1100000000000E+00  1.7019991914968E-02  3.4336576693253E-02
113  1.1200000000000E+00  9.8163355578469E-03  1.9844910943531E-02
114  1.1300000000000E+00  4.5074043064960E-03  9.2294811443760E-03
115  1.1400000000000E+00  1.2384720694432E-03  2.5964333705453E-03
116  1.1500000000000E+00  3.3427128279675E-05  7.2756598039861E-05
117  1.1600000000000E+00  5.3437581750189E-06  1.1537813548931E-05
118  1.1700000000000E+00 -9.4176883071065E-07 -2.0045271602015E-06
119  1.18  0.  0.
120  1.19  0.  0.
121  1.20  0.  0.
122  1.21  0.  0.
123  1.22  0.  0.
124  1.23  0.  0.
125  1.24  0.  0.
126  1.25  0.  0.
127  1.26  0.  0.
128  1.27  0.  0.
129  1.28  0.  0.
130  1.29  0.  0.
131  1.30  0.  0.
132  1.31  0.  0.
133  1.32  0.  0.
134  1.33  0.  0.
135  1.34  0.  0.
136  1.35  0.  0.
137  1.36  0.  0.
138  1.37  0.  0.
139  1.38  0.  0.
140  1.39  0.  0.
141  1.40  0.  0.
142  1.41  0.  0.
143  1.42  0.  0.
144  1.43  0.  0.
145  1.44  0.  0.
146  1.45  0.  0.
147  1.46  0.  0.
148  1.47  0.  0.
149  1.48  0.  0.
150  1.49  0.  0.
151  1.50  0.  0.
152  1.51  0.  0.
153  1.52  0.  0.
154  1.53  0.  0.
155  1.54  0.  0.
156  1.55  0.  0.
157  1.56  0.  0.
158  1.57  0.  0.
159  1.58  0.  0.
160  1.59  0.  0.
161  1.60  0.  0.
162  1.61  0.  0.
163  1.62  0.  0.
164  1.63  0.  0.
165  1.64  0.  0.