Fm    ONCVPSP-4.0.1  r_core=   1.15134   1.15134   1.20057   1.35316
100.0000     40.0000      231012    zatom,zion,pspd
8   -1012   3     4   600     0    pspcod,pspxc,lmax,lloc,mmax,r2well
5.99000000  5.00000000  0.00000000    rchrg fchrg qchrg
3     4     3     2    nproj
3     1           extension_switch
4     3     3    nprojso
0                         2.1429190606261E+01  2.8096523275546E+00 -1.7521447852287E+00
1  0.0000000000000E+00 -1.3092797579439E-07 -3.9219511788202E-07 -1.9545439322588E-08
2  1.0000000000000E-02  1.6418377931741E-01  7.4472381398739E-02  3.6923685077409E-02
3  2.0000000000000E-02  3.2682810373402E-01  1.4643241872650E-01  7.3692161253595E-02
4  3.0000000000000E-02  4.8642416966976E-01  2.1344854466527E-01  1.1015401092770E-01
5  4.0000000000000E-02  6.4152349560509E-01  2.7324784888412E-01  1.4616526335338E-01
6  5.0000000000000E-02  7.9076566773792E-01  3.2378827325067E-01  1.8159278412946E-01
7  6.0000000000000E-02  9.3290328684279E-01  3.6332254546847E-01  2.1631727894528E-01
8  7.0000000000000E-02  1.0668233454266E+00  3.9045158247347E-01  2.5023580730495E-01
9  8.0000000000000E-02  1.1915643952032E+00  4.0416548711822E-01  2.8326372150022E-01
10  9.0000000000000E-02  1.3063290189884E+00  4.0387072337688E-01  3.1533596898564E-01
11  1.0000000000000E-01  1.4104912925101E+00  3.8940256909782E-01  3.4640772159460E-01
12  1.1000000000000E-01  1.5035991038306E+00  3.6102249184366E-01  3.7645432168481E-01
13  1.2000000000000E-01  1.5853713842108E+00  3.1940065199428E-01  4.0547056222578E-01
14  1.3000000000000E-01  1.6556904872576E+00  2.6558428701931E-01  4.3346934393594E-01
15  1.4000000000000E-01  1.7145901261891E+00  2.0095325097767E-01  4.6047977677593E-01
16  1.5000000000000E-01  1.7622394355189E+00  1.2716445434386E-01  4.8654481441818E-01
17  1.6000000000000E-01  1.7989238575254E+00  4.6087353548262E-02  5.1171852786988E-01
18  1.7000000000000E-01  1.8250236605345E+00 -4.0267037953581E-02  5.3606313751408E-01
19  1.8000000000000E-01  1.8409909713631E+00 -1.2982091667239E-01  5.5964593091865E-01
20  1.9000000000000E-01  1.8473262454933E+00 -2.2050540738690E-01  5.8253619652455E-01
21  2.0000000000000E-01  1.8445551042576E+00 -3.1033438644186E-01  6.0480230065749E-01
22  2.1000000000000E-01  1.8332064384284E+00 -3.9747365142627E-01  6.2650902733303E-01
23  2.2000000000000E-01  1.8137926134172E+00 -4.8030287000165E-01  6.4771528738505E-01
24  2.3000000000000E-01  1.7867925154059E+00 -5.5746802821894E-01  6.6847228608812E-01
25  2.4000000000000E-01  1.7526380539511E+00 -6.2792247130707E-01  6.8882221739675E-01
26  2.5000000000000E-01  1.7117045898004E+00 -6.9095507330966E-01  7.0879752907198E-01
27  2.6000000000000E-01  1.6643055925584E+00 -7.4620456914383E-01  7.2842077731056E-01
28  2.7000000000000E-01  1.6106916578431E+00 -7.9365961468714E-01  7.4770506311071E-01
29  2.8000000000000E-01  1.5510538344387E+00 -8.3364468716484E-01  7.6665501660936E-01
30  2.9000000000000E-01  1.4855310356226E+00 -8.6679247866936E-01  7.8526827110382E-01
31  3.0000000000000E-01  1.4142211421024E+00 -8.9400394969185E-01  8.0353734645793E-01
32  3.1000000000000E-01  1.3371952532570E+00 -9.1639767770813E-01  8.2145184302204E-01
33  3.2000000000000E-01  1.2545144143995E+00 -9.3525054058868E-01  8.3900083285417E-01
34  3.3000000000000E-01  1.1662480454920E+00 -9.5193210079756E-01  8.5617532553163E-01
35  3.4000000000000E-01  1.0724932250164E+00 -9.6783529194113E-01  8.7297068160042E-01
36  3.5000000000000E-01  9.7339394423386E-01 -9.8430614563291E-01  8.8938884791833E-01
37  3.6000000000000E-01  8.6915944324964E-01 -1.0025753290583E+00  9.0544029577374E-01
38  3.7000000000000E-01  7.6008077121288E-01 -1.0236941912032E+00  9.2114555444674E-01
39  3.8000000000000E-01  6.4654477735254E-01 -1.0484778415885E+00  9.3653624934725E-01
40  3.9000000000000E-01  5.2904483484270E-01 -1.0774575164852E+00  9.5165557434389E-01
41  4.0000000000000E-01  4.0818772197819E-01 -1.1108441344970E+00  9.6655815154677E-01
42  4.1000000000000E-01  2.8469623008201E-01 -1.1485045197231E+00  9.8130925765166E-01
43  4.2000000000000E-01  1.5940722936692E-01 -1.1899512927164E+00  9.9598342292136E-01
44  4.3000000000000E-01  3.3265096432658E-02 -1.2343469153280E+00  1.0106624358541E+00
45  4.4000000000000E-01 -9.2689416395936E-02 -1.2805218447510E+00  1.0254328124452E+00
46  4.5000000000000E-01 -2.1733461579939E-01 -1.3270062246294E+00  1.0403828126068E+00
47  4.6000000000000E-01 -3.3948718750391E-01 -1.3720740366901E+00  1.0555991067857E+00
48  4.7000000000000E-01 -4.5792483360416E-01 -1.4137981737304E+00  1.0711632122433E+00
49  4.8000000000000E-01 -5.7141153083399E-01 -1.4501144909353E+00  1.0871478301501E+00
50  4.9000000000000E-01 -6.7872461083444E-01 -1.4788925621007E+00  1.1036132211005E+00
51  5.0000000000000E-01 -7.7868279025902E-01 -1.4980106221600E+00  1.1206037575847E+00
52  5.1000000000000E-01 -8.7017423733223E-01 -1.5054320259524E+00  1.1381447873271E+00
53  5.2000000000000E-01 -9.5218375357476E-01 -1.4992805002838E+00  1.1562399313791E+00
54  5.3000000000000E-01 -1.0238181748974E+00 -1.4779115131604E+00  1.1748689258599E+00
55  5.4000000000000E-01 -1.0843291539451E+00 -1.4399772279757E+00  1.1939860968682E+00
56  5.5000000000000E-01 -1.1331325730370E+00 -1.3844827451557E+00  1.2135195351511E+00
57  5.6000000000000E-01 -1.1698239507931E+00 -1.3108316497333E+00  1.2333710115443E+00
58  5.7000000000000E-01 -1.1941893411045E+00 -1.2188592680020E+00  1.2534166470486E+00
59  5.8000000000000E-01 -1.2062113752606E+00 -1.1088524748549E+00  1.2735083237970E+00
60  5.9000000000000E-01 -1.2060702610087E+00 -9.8155536888316E-01  1.2934757962286E+00
61  6.0000000000000E-01 -1.1941397199703E+00 -8.3816062687854E-01  1.3131294366180E+00
62  6.1000000000000E-01 -1.1709780109714E+00 -6.8028684468181E-01  1.3322635267463E+00
63  6.2000000000000E-01 -1.1373143454170E+00 -5.0994264923567E-01  1.3506599888380E+00
64  6.3000000000000E-01 -1.0940311461813E+00 -3.2947881005638E-01  1.3680924346771E+00
65  6.4000000000000E-01 -1.0421427285431E+00 -1.4152997155814E-01  1.3843304026037E+00
66  6.5000000000000E-01 -9.8277108617898E-01  5.1052042699182E-02  1.3991436482245E+00
67  6.6000000000000E-01 -9.1711954381045E-01  2.4527114750586E-01  1.4123063562494E+00
68  6.7000000000000E-01 -8.4644508847890E-01  4.3806375583304E-01  1.4236011477701E+00
69  6.8000000000000E-01 -7.7203021244236E-01  6.2637691527218E-01  1.4328227691772E+00
70  6.9000000000000E-01 -6.9515509230834E-01  8.0724535701112E-01  1.4397813651900E+00
71  7.0000000000000E-01 -6.1707089233554E-01  9.7786508082237E-01  1.4443052584171E+00
72  7.1000000000000E-01 -5.3897491700432E-01  1.1356612676730E+00  1.4462431805434E+00
73  7.2000000000000E-01 -4.6198825204261E-01  1.2783485521773E+00  1.4454659246440E+00
74  7.3000000000000E-01 -3.8713642800622E-01  1.4039819894749E+00  1.4418674131538E+00
75  7.4000000000000E-01 -3.1533352074739E-01  1.5109974025679E+00  1.4353652005590E+00
76  7.5000000000000E-01 -2.4736997360826E-01  1.5982401824908E+00  1.4259004528322E+00
77  7.6000000000000E-01 -1.8390429211698E-01  1.6649820198054E+00  1.4134374659850E+00
78  7.7000000000000E-01 -1.2545862850763E-01  1.7109254564653E+00  1.3979628029746E+00
79  7.8000000000000E-01 -7.2418145506057E-02  1.7361965470336E+00  1.3794841408201E+00
80  7.9000000000000E-01 -2.5033931110666E-02  1.7413262933817E+00  1.3580289276292E+00
81  8.0000000000000E-01  1.6570867443719E-02  1.7272218546691E+00  1.3336429519679E+00
82  8.1000000000000E-01  5.2392108413270E-02  1.6951288237415E+00  1.3063889245283E+00
83  8.2000000000000E-01  8.2533402940526E-02  1.6465860934969E+00  1.2763451645117E+00
84  8.3000000000000E-01  1.0719307366081E-01  1.5833750061859E+00  1.2436044709012E+00
85  8.4000000000000E-01  1.2664987543286E-01  1.5074645815643E+00  1.2082732424524E+00
86  8.5000000000000E-01  1.4124802956580E-01  1.4209546556074E+00  1.1704708905540E+00
87  8.6000000000000E-01  1.5138210261068E-01  1.3260187319595E+00  1.1303295670316E+00
88  8.7000000000000E-01  1.5748222167236E-01  1.2248482577633E+00  1.0879942055507E+00
89  8.8000000000000E-01  1.6000006291787E-01  1.1195998904420E+00  1.0436228516253E+00
90  8.9000000000000E-01  1.5939598168976E-01  1.0123471306598E+00  9.9738723350308E-01
91  9.0000000000000E-01  1.5612757495112E-01  9.0503746870994E-01  9.4947350548541E-01
92  9.1000000000000E-01  1.5063988347694E-01  7.9945593752779E-01  9.0008307757234E-01
93  9.2000000000000E-01  1.4335735609905E-01  6.9719569643570E-01  8.4943343160370E-01
94  9.3000000000000E-01  1.3467761509523E-01  5.9963599649271E-01  7.9775881502427E-01
95  9.4000000000000E-01  1.2496698392019E-01  5.0792761149039E-01  7.4531069956395E-01
96  9.5000000000000E-01  1.1455766887779E-01  4.2298556769193E-01  6.9235789378884E-01
97  9.6000000000000E-01  1.0374642748107E-01  3.4548877865817E-01  6.3918620570526E-01
98  9.7000000000000E-01  9.2794509956462E-02  2.7588599568319E-01  5.8609756418509E-01
99  9.8000000000000E-01  8.1928627742802E-02  2.1440732440340E-01  5.3340852549855E-01
100  9.9000000000000E-01  7.1342684348817E-02  1.6108043718590E-01  4.8144811302162E-01
101  1.0000000000000E+00  6.1199999306766E-02  1.1575053018960E-01  4.3055496337245E-01
102  1.0100000000000E+00  5.1635764258779E-02  7.8103032885436E-02  3.8107377977956E-01
103  1.0200000000000E+00  4.2759489988084E-02  4.7688074094346E-02  3.3335112228397E-01
104  1.0300000000000E+00  3.4657232501490E-02  2.3945738615950E-02  2.8773059317605E-01
105  1.0400000000000E+00  2.7393422739344E-02  6.2312072841295E-03  2.4454750362556E-01
106  1.0500000000000E+00  2.1012165691773E-02 -6.1610447291127E-03  2.0412313261714E-01
107  1.0600000000000E+00  1.5537917986640E-02 -1.3974717567177E-02  1.6675871088657E-01
108  1.0700000000000E+00  1.0975495789790E-02 -1.7971441105368E-02  1.3272927959543E-01
109  1.0800000000000E+00  7.3093519103147E-03 -1.8913449694693E-02  1.0227754086048E-01
110  1.0900000000000E+00  4.5026007919185E-03 -1.7548439531852E-02  7.5608239513673E-02
111  1.1000000000000E+00  2.4727000296732E-03 -1.4655939738047E-02  5.2862803283313E-02
112  1.1100000000000E+00  1.0851529550126E-03 -1.1053759080321E-02  3.4106748021356E-02
113  1.1200000000000E+00  2.8099722166934E-04 -7.2578208054907E-03  1.9444724530604E-02
114  1.1300000000000E+00 -4.9109736501820E-05 -3.7903921114760E-03  8.9146207488347E-03
115  1.1400000000000E+00 -6.9571477331146E-05 -1.1861616356652E-03  2.4705883471482E-03
116  1.1500000000000E+00 -3.8215488652422E-06 -3.6988511627132E-05  6.8066142310768E-05
117  1.1600000000000E+00 -5.5470953148901E-07 -5.7823163239116E-06  1.0820041021248E-05
118  1.1700000000000E+00  7.5315372783580E-08  9.6110512366867E-07 -1.8933283457180E-06
119  1.18  0.  0.  0.
120  1.19  0.  0.  0.
121  1.20  0.  0.  0.
122  1.21  0.  0.  0.
123  1.22  0.  0.  0.
124  1.23  0.  0.  0.
125  1.24  0.  0.  0.
126  1.25  0.  0.  0.
127  1.26  0.  0.  0.
128  1.27  0.  0.  0.
129  1.28  0.  0.  0.
130  1.29  0.  0.  0.
131  1.30  0.  0.  0.
132  1.31  0.  0.  0.
133  1.32  0.  0.  0.
134  1.33  0.  0.  0.
135  1.34  0.  0.  0.
136  1.35  0.  0.  0.
137  1.36  0.  0.  0.
138  1.37  0.  0.  0.
139  1.38  0.  0.  0.
140  1.39  0.  0.  0.
141  1.40  0.  0.  0.
142  1.41  0.  0.  0.
143  1.42  0.  0.  0.
144  1.43  0.  0.  0.
145  1.44  0.  0.  0.
146  1.45  0.  0.  0.
147  1.46  0.  0.  0.
148  1.47  0.  0.  0.
149  1.48  0.  0.  0.
150  1.49  0.  0.  0.
151  1.50  0.  0.  0.
152  1.51  0.  0.  0.
153  1.52  0.  0.  0.
154  1.53  0.  0.  0.
155  1.54  0.  0.  0.
156  1.55  0.  0.  0.
157  1.56  0.  0.  0.
158  1.57  0.  0.  0.
159  1.58  0.  0.  0.
160  1.59  0.  0.  0.
161  1.60  0.  0.  0.
162  1.61  0.  0.  0.
163  1.62  0.  0.  0.
164  1.63  0.  0.  0.
165  1.64  0.  0.  0.
166  1.65  0.  0.  0.
167  1.66  0.  0.  0.
168  1.67  0.  0.  0.
169  1.68  0.  0.  0.
170  1.69  0.  0.  0.
171  1.70  0.  0.  0.
172  1.71  0.  0.  0.
173  1.72  0.  0.  0.
174  1.73  0.  0.  0.
175  1.74  0.  0.  0.
176  1.75  0.  0.  0.
177  1.76  0.  0.  0.
178  1.77  0.  0.  0.
179  1.78  0.  0.  0.
180  1.79  0.  0.  0.
181  1.80  0.  0.  0.
182  1.81  0.  0.  0.
183  1.82  0.  0.  0.
184  1.83  0.  0.  0.
185  1.84  0.  0.  0.
186  1.85  0.  0.  0.
187  1.86  0.  0.  0.
188  1.87  0.  0.  0.
189  1.88  0.  0.  0.
190  1.89  0.  0.  0.
191  1.90  0.  0.  0.
192  1.91  0.  0.  0.
193  1.92  0.  0.  0.
194  1.93  0.  0.  0.
195  1.94  0.  0.  0.
196  1.95  0.  0.  0.
197  1.96  0.  0.  0.
198  1.97  0.  0.  0.
199  1.98  0.  0.  0.
200  1.99  0.  0.  0.
201  2.00  0.  0.  0.
202  2.01  0.  0.  0.
203  2.02  0.  0.  0.
204  2.03  0.  0.  0.
205  2.04  0.  0.  0.
206  2.05  0.  0.  0.
207  2.06  0.  0.  0.
208  2.07  0.  0.  0.
209  2.08  0.  0.  0.
210  2.09  0.  0.  0.
211  2.10  0.  0.  0.
212  2.11  0.  0.  0.
213  2.12  0.  0.  0.
214  2.13  0.  0.  0.
215  2.14  0.  0.  0.
216  2.15  0.  0.  0.
217  2.16  0.  0.  0.
218  2.17  0.  0.  0.
219  2.18  0.  0.  0.
220  2.19  0.  0.  0.
221  2.20  0.  0.  0.
222  2.21  0.  0.  0.
223  2.22  0.  0.  0.
224  2.23  0.  0.  0.
225  2.24  0.  0.  0.
226  2.25  0.  0.  0.
227  2.26  0.  0.  0.
228  2.27  0.  0.  0.
229  2.28  0.  0.  0.
230  2.29  0.  0.  0.
231  2.30  0.  0.  0.
232  2.31  0.  0.  0.
233  2.32  0.  0.  0.
234  2.33  0.  0.  0.
235  2.34  0.  0.  0.
236  2.35  0.  0.  0.
237  2.36  0.  0.  0.
238  2.37  0.  0.  0.
239  2.38  0.  0.  0.
240  2.39  0.  0.  0.
241  2.40  0.  0.  0.
242  2.41  0.  0.  0.
243  2.42  0.  0.  0.
244  2.43  0.  0.  0.
245  2.44  0.  0.  0.
246  2.45  0.  0.  0.
247  2.46  0.  0.  0.
248  2.47  0.  0.  0.
249  2.48  0.  0.  0.
250  2.49  0.  0.  0.
251  2.50  0.  0.  0.
252  2.51  0.  0.  0.
253  2.52  0.  0.  0.
254  2.53  0.  0.  0.
255  2.54  0.  0.  0.
256  2.55  0.  0.  0.
257  2.56  0.  0.  0.
258  2.57  0.  0.  0.
259  2.58  0.  0.  0.
260  2.59  0.  0.  0.
261  2.60  0.  0.  0.
262  2.61  0.  0.  0.
263  2.62  0.  0.  0.
264  2.63  0.  0.  0.
265  2.64  0.  0.  0.
266  2.65  0.  0.  0.
267  2.66  0.  0.  0.
268  2.67  0.  0.  0.
269  2.68  0.  0.  0.
270  2.69  0.  0.  0.
271  2.70  0.  0.  0.
272  2.71  0.  0.  0.
273  2.72  0.  0.  0.
274  2.73  0.  0.  0.
275  2.74  0.  0.  0.
276  2.75  0.  0.  0.
277  2.76  0.  0.  0.
278  2.77  0.  0.  0.
279  2.78  0.  0.  0.
280  2.79  0.  0.  0.
281  2.80  0.  0.  0.
282  2.81  0.  0.  0.
283  2.82  0.  0.  0.
284  2.83  0.  0.  0.
285  2.84  0.  0.  0.
286  2.85  0.  0.  0.
287  2.86  0.  0.  0.
288  2.87  0.  0.  0.
289  2.88  0.  0.  0.
290  2.89  0.  0.  0.
291  2.90  0.  0.  0.
292  2.91  0.  0.  0.
293  2.92  0.  0.  0.
294  2.93  0.  0.  0.
295  2.94  0.  0.  0.
296  2.95  0.  0.  0.
297  2.96  0.  0.  0.
298  2.97  0.  0.  0.
299  2.98  0.  0.  0.
300  2.99  0.  0.  0.
301  3.00  0.  0.  0.
302  3.01  0.  0.  0.
303  3.02  0.  0.  0.
304  3.03  0.  0.  0.
305  3.04  0.  0.  0.
306  3.05  0.  0.  0.
307  3.06  0.  0.  0.
308  3.07  0.  0.  0.
309  3.08  0.  0.  0.
310  3.09  0.  0.  0.
311  3.10  0.  0.  0.
312  3.11  0.  0.  0.
313  3.12  0.  0.  0.
314  3.13  0.  0.  0.
315  3.14  0.  0.  0.
316  3.15  0.  0.  0.
317  3.16  0.  0.  0.
318  3.17  0.  0.  0.
319  3.18  0.  0.  0.
320  3.19  0.  0.  0.
321  3.20  0.  0.  0.
322  3.21  0.  0.  0.
323  3.22  0.  0.  0.
324  3.23  0.  0.  0.
325  3.24  0.  0.  0.
326  3.25  0.  0.  0.
327  3.26  0.  0.  0.
328  3.27  0.  0.  0.
329  3.28  0.  0.  0.
330  3.29  0.  0.  0.
331  3.30  0.  0.  0.
332  3.31  0.  0.  0.
333  3.32  0.  0.  0.
334  3.33  0.  0.  0.
335  3.34  0.  0.  0.
336  3.35  0.  0.  0.
337  3.36  0.  0.  0.
338  3.37  0.  0.  0.
339  3.38  0.  0.  0.
340  3.39  0.  0.  0.
341  3.40  0.  0.  0.
342  3.41  0.  0.  0.
343  3.42  0.  0.  0.
344  3.43  0.  0.  0.
345  3.44  0.  0.  0.
346  3.45  0.  0.  0.
347  3.46  0.  0.  0.
348  3.47  0.  0.  0.
349  3.48  0.  0.  0.
350  3.49  0.  0.  0.
351  3.50  0.  0.  0.
352  3.51  0.  0.  0.
353  3.52  0.  0.  0.
354  3.53  0.  0.  0.
355  3.54  0.  0.  0.
356  3.55  0.  0.  0.
357  3.56  0.  0.  0.
358  3.57  0.  0.  0.
359  3.58  0.  0.  0.
360  3.59  0.  0.  0.
361  3.60  0.  0.  0.
362  3.61  0.  0.  0.
363  3.62  0.  0.  0.
364  3.63  0.  0.  0.
365  3.64  0.  0.  0.
366  3.65  0.  0.  0.
367  3.66  0.  0.  0.
368  3.67  0.  0.  0.
369  3.68  0.  0.  0.
370  3.69  0.  0.  0.
371  3.70  0.  0.  0.
372  3.71  0.  0.  0.
373  3.72  0.  0.  0.
374  3.73  0.  0.  0.
375  3.74  0.  0.  0.
376  3.75  0.  0.  0.
377  3.76  0.  0.  0.
378  3.77  0.  0.  0.
379  3.78  0.  0.  0.
380  3.79  0.  0.  0.
381  3.80  0.  0.  0.
382  3.81  0.  0.  0.
383  3.82  0.  0.  0.
384  3.83  0.  0.  0.
385  3.84  0.  0.  0.
386  3.85  0.  0.  0.
387  3.86  0.  0.  0.
388  3.87  0.  0.  0.
389  3.88  0.  0.  0.
390  3.89  0.  0.  0.
391  3.90  0.  0.  0.
392  3.91  0.  0.  0.
393  3.92  0.  0.  0.
394  3.93  0.  0.  0.
395  3.94  0.  0.  0.
396  3.95  0.  0.  0.
397  3.96  0.  0.  0.
398  3.97  0.  0.  0.
399  3.98  0.  0.  0.
400  3.99  0.  0.  0.
401  4.00  0.  0.  0.
402  4.01  0.  0.  0.
403  4.02  0.  0.  0.
404  4.03  0.  0.  0.
405  4.04  0.  0.  0.
406  4.05  0.  0.  0.
407  4.06  0.  0.  0.
408  4.07  0.  0.  0.
409  4.08  0.  0.  0.
410  4.09  0.  0.  0.
411  4.10  0.  0.  0.
412  4.11  0.  0.  0.
413  4.12  0.  0.  0.
414  4.13  0.  0.  0.
415  4.14  0.  0.  0.
416  4.15  0.  0.  0.
417  4.16  0.  0.  0.
418  4.17  0.  0.  0.
419  4.18  0.  0.  0.
420  4.19  0.  0.  0.
421  4.20  0.  0.  0.
422  4.21  0.  0.  0.
423  4.22  0.  0.  0.
424  4.23  0.  0.  0.
425  4.24  0.  0.  0.
426  4.25  0.  0.  0.
427  4.26  0.  0.  0.
428  4.27  0.  0.  0.
429  4.28  0.  0.  0.
430  4.29  0.  0.  0.
431  4.30  0.  0.  0.
432  4.31  0.  0.  0.
433  4.32  0.  0.  0.
434  4.33  0.  0.  0.
435  4.34  0.  0.  0.
436  4.35  0.  0.  0.
437  4.36  0.  0.  0.
438  4.37  0.  0.  0.
439  4.38  0.  0.  0.
440  4.39  0.  0.  0.
441  4.40  0.  0.  0.
442  4.41  0.  0.  0.
443  4.42  0.  0.  0.
444  4.43  0.  0.  0.
445  4.44  0.  0.  0.
446  4.45  0.  0.  0.
447  4.46  0.  0.  0.
448  4.47  0.  0.  0.
449  4.48  0.  0.  0.
450  4.49  0.  0.  0.
451  4.50  0.  0.  0.
452  4.51  0.  0.  0.
453  4.52  0.  0.  0.
454  4.53  0.  0.  0.
455  4.54  0.  0.  0.
456  4.55  0.  0.  0.
457  4.56  0.  0.  0.
458  4.57  0.  0.  0.
459  4.58  0.  0.  0.
460  4.59  0.  0.  0.
461  4.60  0.  0.  0.
462  4.61  0.  0.  0.
463  4.62  0.  0.  0.
464  4.63  0.  0.  0.
465  4.64  0.  0.  0.
466  4.65  0.  0.  0.
467  4.66  0.  0.  0.
468  4.67  0.  0.  0.
469  4.68  0.  0.  0.
470  4.69  0.  0.  0.
471  4.70  0.  0.  0.
472  4.71  0.  0.  0.
473  4.72  0.  0.  0.
474  4.73  0.  0.  0.
475  4.74  0.  0.  0.
476  4.75  0.  0.  0.
477  4.76  0.  0.  0.
478  4.77  0.  0.  0.
479  4.78  0.  0.  0.
480  4.79  0.  0.  0.
481  4.80  0.  0.  0.
482  4.81  0.  0.  0.
483  4.82  0.  0.  0.
484  4.83  0.  0.  0.
485  4.84  0.  0.  0.
486  4.85  0.  0.  0.
487  4.86  0.  0.  0.
488  4.87  0.  0.  0.
489  4.88  0.  0.  0.
490  4.89  0.  0.  0.
491  4.90  0.  0.  0.
492  4.91  0.  0.  0.
493  4.92  0.  0.  0.
494  4.93  0.  0.  0.
495  4.94  0.  0.  0.
496  4.95  0.  0.  0.
497  4.96  0.  0.  0.
498  4.97  0.  0.  0.
499  4.98  0.  0.  0.
500  4.99  0.  0.  0.
501  5.00  0.  0.  0.
502  5.01  0.  0.  0.
503  5.02  0.  0.  0.
504  5.03  0.  0.  0.
505  5.04  0.  0.  0.
506  5.05  0.  0.  0.
507  5.06  0.  0.  0.
508  5.07  0.  0.  0.
509  5.08  0.  0.  0.
510  5.09  0.  0.  0.
511  5.10  0.  0.  0.
512  5.11  0.  0.  0.
513  5.12  0.  0.  0.
514  5.13  0.  0.  0.
515  5.14  0.  0.  0.
516  5.15  0.  0.  0.
517  5.16  0.  0.  0.
518  5.17  0.  0.  0.
519  5.18  0.  0.  0.
520  5.19  0.  0.  0.
521  5.20  0.  0.  0.
522  5.21  0.  0.  0.
523  5.22  0.  0.  0.
524  5.23  0.  0.  0.
525  5.24  0.  0.  0.
526  5.25  0.  0.  0.
527  5.26  0.  0.  0.
528  5.27  0.  0.  0.
529  5.28  0.  0.  0.
530  5.29  0.  0.  0.
531  5.30  0.  0.  0.
532  5.31  0.  0.  0.
533  5.32  0.  0.  0.
534  5.33  0.  0.  0.
535  5.34  0.  0.  0.
536  5.35  0.  0.  0.
537  5.36  0.  0.  0.
538  5.37  0.  0.  0.
539  5.38  0.  0.  0.
540  5.39  0.  0.  0.
541  5.40  0.  0.  0.
542  5.41  0.  0.  0.
543  5.42  0.  0.  0.
544  5.43  0.  0.  0.
545  5.44  0.  0.  0.
546  5.45  0.  0.  0.
547  5.46  0.  0.  0.
548  5.47  0.  0.  0.
549  5.48  0.  0.  0.
550  5.49  0.  0.  0.
551  5.50  0.  0.  0.
552  5.51  0.  0.  0.
553  5.52  0.  0.  0.
554  5.53  0.  0.  0.
555  5.54  0.  0.  0.
556  5.55  0.  0.  0.
557  5.56  0.  0.  0.
558  5.57  0.  0.  0.
559  5.58  0.  0.  0.
560  5.59  0.  0.  0.
561  5.60  0.  0.  0.
562  5.61  0.  0.  0.
563  5.62  0.  0.  0.
564  5.63  0.  0.  0.
565  5.64  0.  0.  0.
566  5.65  0.  0.  0.
567  5.66  0.  0.  0.
568  5.67  0.  0.  0.
569  5.68  0.  0.  0.
570  5.69  0.  0.  0.
571  5.70  0.  0.  0.
572  5.71  0.  0.  0.
573  5.72  0.  0.  0.
574  5.73  0.  0.  0.
575  5.74  0.  0.  0.
576  5.75  0.  0.  0.
577  5.76  0.  0.  0.
578  5.77  0.  0.  0.
579  5.78  0.  0.  0.
580  5.79  0.  0.  0.
581  5.80  0.  0.  0.
582  5.81  0.  0.  0.
583  5.82  0.  0.  0.
584  5.83  0.  0.  0.
585  5.84  0.  0.  0.
586  5.85  0.  0.  0.
587  5.86  0.  0.  0.
588  5.87  0.  0.  0.
589  5.88  0.  0.  0.
590  5.89  0.  0.  0.
591  5.90  0.  0.  0.
592  5.91  0.  0.  0.
593  5.92  0.  0.  0.
594  5.93  0.  0.  0.
595  5.94  0.  0.  0.
596  5.95  0.  0.  0.
597  5.96  0.  0.  0.
598  5.97  0.  0.  0.
599  5.98  0.  0.  0.
600  5.99  0.  0.  0.
1                         5.8794849337581E+00 -1.8877476685390E+00  1.1210479695248E-01 -7.3442771345013E-03
1  0.0000000000000E+00 -3.7184656048739E-08 -1.3903052070718E-08 -2.0953982382554E-08 -3.1845969639122E-07
2  1.0000000000000E-02  4.0207398866245E-03  5.1834514091962E-04  3.9394158994382E-03 -6.9299530949402E-03
3  2.0000000000000E-02  1.6059534799637E-02  2.0802417229713E-03  1.5703653869791E-02 -2.7520593510483E-02
4  3.0000000000000E-02  3.6045719421506E-02  4.7060063599704E-03  3.5130916362134E-02 -6.1180576259237E-02
5  4.0000000000000E-02  6.3860242225413E-02  8.4286202967857E-03  6.1952331977539E-02 -1.0694514392050E-01
6  5.0000000000000E-02  9.9333846870623E-02  1.3292443563872E-02  9.5793207834335E-02 -1.6350658695039E-01
7  6.0000000000000E-02  1.4224471273214E-01  1.9351481121577E-02  1.3617491003938E-01 -2.2925538497794E-01
8  7.0000000000000E-02  1.9231573149036E-01  2.6667264303240E-02  1.8251749018706E-01 -3.0233059230228E-01
9  8.0000000000000E-02  2.4921163389112E-01  3.5306424769135E-02  2.3414319676376E-01 -3.8067771234600E-01
10  9.0000000000000E-02  3.1253620866657E-01  4.5338049166053E-02  2.9028102249374E-01 -4.6211205166763E-01
11  1.0000000000000E-01  3.8182987288291E-01  5.6830910333127E-02  3.5007244088935E-01 -5.4438536357151E-01
12  1.1000000000000E-01  4.5656785876330E-01  6.9850674913146E-02  4.1257847685056E-01 -6.2525349090877E-01
13  1.2000000000000E-01  5.3615927589027E-01  8.4457187466940E-02  4.7678823686973E-01 -7.0254270092057E-01
14  1.3000000000000E-01  6.1994728965565E-01  1.0070192763620E-01  5.4162899448903E-01 -7.7421247239312E-01
15  1.4000000000000E-01  7.0721062740482E-01  1.1862572969176E-01  6.0597788687600E-01 -8.3841264431530E-01
16  1.5000000000000E-01  7.9716658388224E-01  1.3825684321304E-01  6.6867522994141E-01 -8.9353305995997E-01
17  1.6000000000000E-01  8.8897564871198E-01  1.5960940007346E-01  7.2853940395837E-01 -9.3824413232708E-01
18  1.7000000000000E-01  9.8174782250320E-01  1.8268233687334E-01  7.8438320115889E-01 -9.7152710514481E-01
19  1.8000000000000E-01  1.0745506268263E+00  2.0745880408084E-01  8.3503146359070E-01 -9.9269317498991E-01
20  1.9000000000000E-01  1.1664187490646E+00  2.3390607409793E-01  8.7933977611368E-01 -1.0013910597631E+00
21  2.0000000000000E-01  1.2563651984616E+00  2.6197594099700E-01  9.1621391843688E-01 -9.9760303090708E-01
22  2.1000000000000E-01  1.3433937870608E+00  2.9160558552764E-01  9.4462972416719E-01 -9.8162985502957E-01
23  2.2000000000000E-01  1.4265126911466E+00  3.2271886091720E-01  9.6365294650951E-01 -9.5406549877724E-01
24  2.3000000000000E-01  1.5047487975677E+00  3.5522793868976E-01  9.7245869186385E-01 -9.1576282341795E-01
25  2.4000000000000E-01  1.5771624970833E+00  3.8903523985096E-01  9.7034995616483E-01 -8.6779181845509E-01
26  2.5000000000000E-01  1.6428625554068E+00  4.2403556588317E-01  9.5677478607346E-01 -8.1139218441736E-01
27  2.6000000000000E-01  1.7010206733744E+00  4.6011833651144E-01  9.3134158927768E-01 -7.4792226376244E-01
28  2.7000000000000E-01  1.7508853416143E+00  4.9716983744846E-01  8.9383213589221E-01 -6.7880642835179E-01
29  2.8000000000000E-01  1.7917946027533E+00  5.3507538148065E-01  8.4421182641636E-01 -6.0548305795346E-01
30  2.9000000000000E-01  1.8231873555754E+00  5.7372129033919E-01  7.8263685049031E-01 -5.2935518566730E-01
31  3.0000000000000E-01  1.8446128701289E+00  6.1299661268049E-01  7.0945792378205E-01 -4.5174574524006E-01
32  3.1000000000000E-01  1.8557382295649E+00  6.5279450490357E-01  6.2522036619486E-01 -3.7385913735469E-01
33  3.2000000000000E-01  1.8563534719936E+00  6.9301321603865E-01  5.3066037114573E-01 -2.9675054553198E-01
34  3.3000000000000E-01  1.8463742719817E+00  7.3355663501097E-01  4.2669741043132E-01 -2.2130408841371E-01
35  3.4000000000000E-01  1.8258420742190E+00  7.7433437756778E-01  3.1442281930208E-01 -1.4822050732275E-01
36  3.5000000000000E-01  1.7949216688415E+00  8.1526141032455E-01  1.9508470867463E-01 -7.8014671384436E-02
37  3.6000000000000E-01  1.7538962761880E+00  8.5625722995343E-01  7.0069452632222E-02 -1.1022753628623E-02
38  3.7000000000000E-01  1.7031602856014E+00  8.9724463569048E-01 -5.9119903839565E-02  5.2581492468361E-02
39  3.8000000000000E-01  1.6432098654763E+00  9.3814815227184E-01 -1.9088788283062E-01  1.1276232851724E-01
40  3.9000000000000E-01  1.5746317274426E+00  9.7889217735092E-01 -3.2357294479931E-01  1.6959083488253E-01
41  4.0000000000000E-01  1.4980903839271E+00  1.0193989416927E+00 -4.5547541596096E-01  2.2320856855836E-01
42  4.1000000000000E-01  1.4143142832249E+00  1.0595863813747E+00 -5.8488634560709E-01  2.7378796464166E-01
43  4.2000000000000E-01  1.3240812379144E+00  1.0993660283530E+00 -7.1011663597650E-01  3.2149153668023E-01
44  4.3000000000000E-01  1.2282035797139E+00  1.1386410287189E+00 -8.2952577508950E-01  3.6643201181935E-01
45  4.4000000000000E-01  1.1275134759634E+00  1.1773043965771E+00 -9.4154951040331E-01  4.0863552752337E-01
46  4.5000000000000E-01  1.0228488296402E+00  1.2152376056832E+00 -1.0447258282282E+00  4.4800991660685E-01
47  4.6000000000000E-01  9.1504015657689E-01  1.2523096109182E+00 -1.1377186498806E+00  4.8431991886662E-01
48  4.7000000000000E-01  8.0489879128732E-01  1.2883763776458E+00 -1.2193387191987E+00  5.1717088678346E-01
49  4.8000000000000E-01  6.9320671800161E-01  1.3232809794613E+00 -1.2885612353524E+00  5.4600220893121E-01
50  4.9000000000000E-01  5.8070825814108E-01  1.3568543043819E+00 -1.3445398773351E+00  5.7009127033196E-01
51  5.0000000000000E-01  4.6810377189685E-01  1.3889163868867E+00 -1.3866169691518E+00  5.8856831909757E-01
52  5.1000000000000E-01  3.5604545253832E-01  1.4192783591952E+00 -1.4143296441741E+00  6.0044213044861E-01
53  5.2000000000000E-01  2.4513521051280E-01  1.4477449906792E+00 -1.4274119798104E+00  6.0463587125162E-01
54  5.3000000000000E-01  1.3592456338341E-01  1.4741177602458E+00 -1.4257931858297E+00  6.0003208996348E-01
55  5.4000000000000E-01  2.8916370277021E-02  1.4981983838423E+00 -1.4095920376485E+00  5.8552530780174E-01
56  5.5000000000000E-01 -7.5431821238675E-02  1.5197926988126E+00 -1.3791078460686E+00  5.6008028582227E-01
57  5.6000000000000E-01 -1.7670310929436E-01  1.5387147894954E+00 -1.3348083440381E+00  5.2279370673287E-01
58  5.7000000000000E-01 -2.7451559585548E-01  1.5547912249389E+00 -1.2773149460615E+00  4.7295675489319E-01
59  5.8000000000000E-01 -3.6851614752699E-01  1.5678652704922E+00 -1.2073858945009E+00  4.1011591550497E-01
60  5.9000000000000E-01 -4.5837395803052E-01  1.5778009307911E+00 -1.1258978473447E+00  3.3412925362901E-01
61  6.0000000000000E-01 -5.4377431538989E-01  1.5844866825274E+00 -1.0338264828966E+00  2.4521548082480E-01
62  6.1000000000000E-01 -6.2441296426535E-01  1.5878387614908E+00 -9.3222669777441E-01  1.4399327330843E-01
63  6.2000000000000E-01 -6.9999142495835E-01  1.5878038795713E+00 -8.2221295585974E-01  3.1508567872262E-02
64  6.3000000000000E-01 -7.7021358630794E-01  1.5843612634229E+00 -7.0494030835149E-01 -9.0752076477128E-02
65  6.4000000000000E-01 -8.3478383156401E-01  1.5775239268301E+00 -5.8158655050380E-01 -2.2086351294440E-01
66  6.5000000000000E-01 -8.9340688645441E-01  1.5673391128284E+00 -4.5333591122523E-01 -3.5648037489640E-01
67  6.6000000000000E-01 -9.4578949965551E-01  1.5538878685179E+00 -3.2136459029217E-01 -4.9487213412142E-01
68  6.7000000000000E-01 -9.9164398071387E-01  1.5372837443449E+00 -1.8682836772175E-01 -6.3297458940831E-01
69  6.8000000000000E-01 -1.0306935324228E+00  1.5176706394057E+00 -5.0852414416893E-02 -7.6745689476035E-01
70  6.9000000000000E-01 -1.0626792271829E+00  1.4952198439744E+00  8.5476663721579E-02 -8.9480261530831E-01
71  7.0000000000000E-01 -1.0873683934403E+00  1.4701263589136E+00  2.2111661064690E-01 -1.0114027105971E+00
72  7.1000000000000E-01 -1.1045641023082E+00  1.4426045978119E+00  3.5507328505804E-01 -1.1136578125262E+00
73  7.2000000000000E-01 -1.1141153790925E+00  1.4128836006465E+00  4.8640263564623E-01 -1.1980867101102E+00
74  7.3000000000000E-01 -1.1159277124945E+00  1.3812019065755E+00  6.1421118376779E-01 -1.2614375947144E+00
75  7.4000000000000E-01 -1.1099733981144E+00  1.3478022473959E+00  7.3765536232895E-01 -1.3007983734914E+00
76  7.5000000000000E-01 -1.0963012343312E+00  1.3129262316592E+00  8.5594009435797E-01 -1.3137022378134E+00
77  7.6000000000000E-01 -1.0750450888712E+00  1.2768091920238E+00  9.6831701110527E-01 -1.2982246856253E+00
78  7.7000000000000E-01 -1.0464308738583E+00  1.2396753649647E+00  1.0740827069742E+00 -1.2530683452179E+00
79  7.8000000000000E-01 -1.0107815056462E+00  1.2017335624663E+00  1.1725774073202E+00 -1.1776322314991E+00