Fm    ONCVPSP-4.0.1  r_core=   1.15134   1.15134   1.20057   1.35316
100.0000     40.0000      231012    zatom,zion,pspd
8   -1012   3     4   600     0    pspcod,pspxc,lmax,lloc,mmax,r2well
5.99000000  5.00000000  0.00000000    rchrg fchrg qchrg
3     2     2     2     0    nproj
1     1           extension_switch
0                         2.1264460876597E+01  2.7803974935018E+00 -1.8090469788354E+00
1  0.0000000000000E+00 -1.2924305181627E-07 -3.8786368083965E-07 -2.0403311373762E-08
2  1.0000000000000E-02  1.6422916871616E-01  7.4022217423520E-02  3.7505033410233E-02
3  2.0000000000000E-02  3.2691966176834E-01  1.4554625698473E-01  7.4849892860045E-02
4  3.0000000000000E-02  4.8656325505196E-01  2.1215411500689E-01  1.1187838802748E-01
5  4.0000000000000E-02  6.4171165754342E-01  2.7158526703907E-01  1.4844215316762E-01
6  5.0000000000000E-02  7.9100408835483E-01  3.2180834141119E-01  1.8440420831348E-01
7  6.0000000000000E-02  9.3319208475989E-01  3.6108460854700E-01  2.1964211479499E-01
8  7.0000000000000E-02  1.0671607781072E+00  3.8802103773994E-01  2.5405061520739E-01
9  8.0000000000000E-02  1.1919460037802E+00  4.0161106096102E-01  2.8754366836333E-01
10  9.0000000000000E-02  1.3067467634769E+00  4.0126163992075E-01  3.2005581366591E-01
11  1.0000000000000E-01  1.4109327273082E+00  3.8680574085122E-01  3.5154282577167E-01
12  1.1000000000000E-01  1.5040466431519E+00  3.5849986217439E-01  3.8198164829963E-01
13  1.2000000000000E-01  1.5858017045523E+00  3.1700681304450E-01  4.1136962355367E-01
14  1.3000000000000E-01  1.6560741092815E+00  2.6336448491073E-01  4.3972306261621E-01
15  1.4000000000000E-01  1.7148912116766E+00  1.9894187332237E-01  4.6707522563074E-01
16  1.5000000000000E-01  1.7624158266017E+00  1.2538407387792E-01  4.9347380458915E-01
17  1.6000000000000E-01  1.7989273755743E+00  4.4548377053890E-02  5.1897801956679E-01
18  1.7000000000000E-01  1.8248006712891E+00 -4.1566093310948E-02  5.4365545335395E-01
19  1.8000000000000E-01  1.8404832115763E+00 -1.3089252572080E-01  5.6757875825553E-01
20  1.9000000000000E-01  1.8464718950234E+00 -2.2137155240167E-01  5.9082237212181E-01
21  2.0000000000000E-01  1.8432900766471E+00 -3.1102454701519E-01  6.1345937831140E-01
22  2.1000000000000E-01  1.8314658530374E+00 -3.9802235461589E-01  6.3555863638123E-01
23  2.2000000000000E-01  1.8115124035597E+00 -4.8074690759557E-01  6.5718229718642E-01
24  2.3000000000000E-01  1.7839111200527E+00 -5.5784346443669E-01  6.7838379830471E-01
25  2.4000000000000E-01  1.7490981357195E+00 -6.2826157548027E-01  6.9920641401912E-01
26  2.5000000000000E-01  1.7074547193749E+00 -6.9128331752362E-01  7.1968240940176E-01
27  2.6000000000000E-01  1.6593018395146E+00 -7.4653783017134E-01  7.3983282136713E-01
28  2.7000000000000E-01  1.6048990301002E+00 -7.9400171279343E-01  7.5966786201615E-01
29  2.8000000000000E-01  1.5444475131857E+00 -8.3398538173106E-01  7.7918791231552E-01
30  2.9000000000000E-01  1.4780973593752E+00 -8.6710602257419E-01  7.9838504828671E-01
31  3.0000000000000E-01  1.4059583022844E+00 -8.9424828173101E-01  8.1724501849204E-01
32  3.1000000000000E-01  1.3281136740263E+00 -9.1651430595709E-01  8.3574957167629E-01
33  3.2000000000000E-01  1.2446368009330E+00 -9.3516514063374E-01  8.5387901778481E-01
34  3.3000000000000E-01  1.1556090971443E+00 -9.5155582239981E-01  8.7161489488923E-01
35  3.4000000000000E-01  1.0611390221771E+00 -9.6706673725598E-01  8.8894260926202E-01
36  3.5000000000000E-01  9.6138102981697E-01 -9.8303395290292E-01  9.0585391618005E-01
37  3.6000000000000E-01  8.5655363105994E-01 -1.0006812689931E+00  9.2234911500341E-01
38  3.7000000000000E-01  7.4695572347604E-01 -1.0210566602435E+00  9.3843884343060E-01
39  3.8000000000000E-01  6.3298040205677E-01 -1.0449756179433E+00  9.5414537211785E-01
40  3.9000000000000E-01  5.1512555986588E-01 -1.0729736320695E+00  9.6950332140305E-01
41  4.0000000000000E-01  3.9400070700465E-01 -1.1052697092799E+00  9.8455974585282E-01
42  4.1000000000000E-01  2.7032957887500E-01 -1.1417424048766E+00  9.9937355877046E-01
43  4.2000000000000E-01  1.4494826399279E-01 -1.1819193753900E+00  1.0140142965758E+00
44  4.3000000000000E-01  1.8798751567171E-02 -1.2249809506498E+00  1.0285602509520E+00
45  4.4000000000000E-01 -1.0708202676224E-01 -1.2697776992904E+00  1.0430960236958E+00
46  4.5000000000000E-01 -2.3157741485849E-01 -1.3148614392815E+00  1.0577095841867E+00
47  4.6000000000000E-01 -3.5351010062213E-01 -1.3585286448066E+00  1.0724889312824E+00
48  4.7000000000000E-01 -4.7166447815023E-01 -1.3988747411369E+00  1.0875184793404E+00
49  4.8000000000000E-01 -5.8481161912739E-01 -1.4338573769567E+00  1.1028753012182E+00
50  4.9000000000000E-01 -6.9173606682413E-01 -1.4613664334660E+00  1.1186253689827E+00
51  5.0000000000000E-01 -7.9126359272608E-01 -1.4792982832668E+00  1.1348199353207E+00
52  5.1000000000000E-01 -8.8228901392964E-01 -1.4856316580583E+00  1.1514921952031E+00
53  5.2000000000000E-01 -9.6380316037847E-01 -1.4785024274782E+00  1.1686543583519E+00
54  5.3000000000000E-01 -1.0349181048991E+00 -1.4562746333224E+00  1.1862952488625E+00
55  5.4000000000000E-01 -1.0948898246879E+00 -1.4176052614092E+00  1.2043785295261E+00
56  5.5000000000000E-01 -1.1431375480880E+00 -1.3615004615347E+00  1.2228416257553E+00
57  5.6000000000000E-01 -1.1792591517609E+00 -1.2873612349750E+00  1.2415953984681E+00
58  5.7000000000000E-01 -1.2030421063577E+00 -1.1950169866024E+00  1.2605245878844E+00
59  5.8000000000000E-01 -1.2144696183995E+00 -1.0847457702720E+00  1.2794890220472E+00
60  5.9000000000000E-01 -1.2137217766233E+00 -9.5728052522611E-01  1.2983255561606E+00
61  6.0000000000000E-01 -1.2011716765124E+00 -8.1380109024003E-01  1.3168506826506E+00
62  6.1000000000000E-01 -1.1773766610192E+00 -6.5591227296649E-01  1.3348637282679E+00
63  6.2000000000000E-01 -1.1430649726204E+00 -4.8560872653005E-01  1.3521505345047E+00
64  6.3000000000000E-01 -1.0991182562395E+00 -3.0522782685843E-01  1.3684875018770E+00
65  6.4000000000000E-01 -1.0465504791940E+00 -1.1739213703633E-01  1.3836458678338E+00
66  6.5000000000000E-01 -9.8648393893710E-01  7.5056624272881E-02  1.3973960825865E+00
67  6.6000000000000E-01 -9.2012310860633E-01  2.6912993540331E-01  1.4095121471632E+00
68  6.7000000000000E-01 -8.4872712196739E-01  4.6176879320661E-01  1.4197757834174E+00
69  6.8000000000000E-01 -7.7358172202245E-01  6.4992155984092E-01  1.4279803162535E+00
70  6.9000000000000E-01 -6.9597149124730E-01  8.3062088646866E-01  1.4339341634510E+00
71  7.0000000000000E-01 -6.1715314713191E-01  1.0010573459212E+00  1.4374638474752E+00
72  7.1000000000000E-01 -5.3833062647713E-01  1.1586475669168E+00  1.4384164656599E+00
73  7.2000000000000E-01 -4.6063259870416E-01  1.3010948952649E+00  1.4366615791644E+00
74  7.3000000000000E-01 -3.8509294605372E-01  1.4264409022569E+00  1.4320925060424E+00
75  7.4000000000000E-01 -3.1263463136392E-01  1.5331064048189E+00  1.4246270285212E+00
76  7.5000000000000E-01 -2.4405724695529E-01  1.6199210420779E+00  1.4142075480754E+00
77  7.6000000000000E-01 -1.8002840608209E-01  1.6861408539579E+00  1.4008007430567E+00
78  7.7000000000000E-01 -1.2107900650458E-01  1.7314537141693E+00  1.3843968016035E+00
79  7.8000000000000E-01 -6.7602268902193E-02  1.7559728676110E+00  1.3650083165139E+00
80  7.9000000000000E-01 -1.9856335618061E-02  1.7602191967214E+00  1.3426689381544E+00
81  8.0000000000000E-01  2.2029888419667E-02  1.7450931800640E+00  1.3174318859011E+00
82  8.1000000000000E-01  5.8048057509131E-02  1.7118377985259E+00  1.2893684179358E+00
83  8.2000000000000E-01  8.8299341992016E-02  1.6619938812729E+00  1.2585663535145E+00
84  8.3000000000000E-01  1.1298153869335E-01  1.5973495587941E+00  1.2251287314128E+00
85  8.4000000000000E-01  1.3237487820017E-01  1.5198856003072E+00  1.1891726736539E+00
86  8.5000000000000E-01  1.4682707523918E-01  1.4317184564880E+00  1.1508285055578E+00
87  8.6000000000000E-01  1.5673815094689E-01  1.3350428074603E+00  1.1102391625019E+00
88  8.7000000000000E-01  1.6254551968537E-01  1.2320753342039E+00  1.0675598915444E+00
89  8.8000000000000E-01  1.6470978075536E-01  1.1250012951038E+00  1.0229582333166E+00
90  8.9000000000000E-01  1.6370158995189E-01  1.0159253061606E+00  9.7661424744285E-01
91  9.0000000000000E-01  1.5998991084573E-01  9.0682750271002E-01  9.2872092427464E-01
92  9.1000000000000E-01  1.5403186462721E-01  7.9952601260072E-01  8.7948470795084E-01
93  9.2000000000000E-01  1.4626431405192E-01  6.9564640638900E-01  8.2912604160739E-01
94  9.3000000000000E-01  1.3709723508973E-01  5.9659851994217E-01  7.7787983570074E-01
95  9.4000000000000E-01  1.2690885266703E-01  5.0356077925291E-01  7.2599575542602E-01
96  9.5000000000000E-01  1.1604244735210E-01  4.1747190569711E-01  6.7373822343214E-01
97  9.6000000000000E-01  1.0480468040081E-01  3.3902965069703E-01  6.2138603955959E-01
98  9.7000000000000E-01  9.3465237098866E-02  2.6869600862491E-01  5.6923153000427E-01
99  9.8000000000000E-01  8.2257553966074E-02  2.0670819085988E-01  5.1757915376525E-01
100  9.9000000000000E-01  7.1380374642980E-02  1.5309451558935E-01  4.6674351386579E-01
101  1.0000000000000E+00  6.0999871983588E-02  1.0769427872984E-01  4.1704674384809E-01
102  1.0100000000000E+00  5.1252079213900E-02  7.0180620956849E-02  3.6881526546131E-01
103  1.0200000000000E+00  4.2245389651594E-02  4.0085392406994E-02  3.2237594024022E-01
104  1.0300000000000E+00  3.4062910593516E-02  1.6825036917580E-02  2.7805166462475E-01
105  1.0400000000000E+00  2.6764490359024E-02 -2.7343288635306E-04  2.3615648421691E-01
106  1.0500000000000E+00  2.0388275808051E-02 -1.1947224919331E-02  1.9699032659830E-01
107  1.0600000000000E+00  1.4951698414069E-02 -1.8974085082252E-02  1.6083347271941E-01
108  1.0700000000000E+00  1.0451827673615E-02 -2.2150803100434E-02  1.2794090328241E-01
109  1.0800000000000E+00  6.8650170086102E-03 -2.2274588006436E-02  9.8536624723664E-02
110  1.0900000000000E+00  4.1462982560253E-03 -2.0126642519050E-02  7.2808492034557E-02
111  1.1000000000000E+00  2.2058404729781E-03 -1.6516309804996E-02  5.0883741537153E-02
112  1.1100000000000E+00  9.0325179176802E-04 -1.2285762589790E-02  3.2816993899421E-02
113  1.1200000000000E+00  1.7280312780573E-04 -7.9749572896948E-03  1.8702629432994E-02
114  1.1300000000000E+00 -1.0026413540420E-04 -4.1243582788847E-03  8.5715292792793E-03
115  1.1400000000000E+00 -8.4024465424619E-05 -1.2796969761882E-03  2.3747763097789E-03
116  1.1500000000000E+00 -4.2056099469185E-06 -3.9571024943860E-05  6.5408261319213E-05
117  1.1600000000000E+00 -6.2044579809611E-07 -6.1957538309737E-06  1.0397408501170E-05
118  1.1700000000000E+00  8.6784640107821E-08  1.0332175033686E-06 -1.8196195093085E-06
119  1.18  0.  0.  0.
120  1.19  0.  0.  0.
121  1.20  0.  0.  0.
122  1.21  0.  0.  0.
123  1.22  0.  0.  0.
124  1.23  0.  0.  0.
125  1.24  0.  0.  0.
126  1.25  0.  0.  0.
127  1.26  0.  0.  0.
128  1.27  0.  0.  0.
129  1.28  0.  0.  0.
130  1.29  0.  0.  0.
131  1.30  0.  0.  0.
132  1.31  0.  0.  0.
133  1.32  0.  0.  0.
134  1.33  0.  0.  0.
135  1.34  0.  0.  0.
136  1.35  0.  0.  0.
137  1.36  0.  0.  0.
138  1.37  0.  0.  0.
139  1.38  0.  0.  0.
140  1.39  0.  0.  0.
141  1.40  0.  0.  0.
142  1.41  0.  0.  0.
143  1.42  0.  0.  0.
144  1.43  0.  0.  0.
145  1.44  0.  0.  0.
146  1.45  0.  0.  0.
147  1.46  0.  0.  0.
148  1.47  0.  0.  0.
149  1.48  0.  0.  0.
150  1.49  0.  0.  0.
151  1.50  0.  0.  0.
152  1.51  0.  0.  0.
153  1.52  0.  0.  0.
154  1.53  0.  0.  0.
155  1.54  0.  0.  0.
156  1.55  0.  0.  0.
157  1.56  0.  0.  0.
158  1.57  0.  0.  0.
159  1.58  0.  0.  0.
160  1.59  0.  0.  0.
161  1.60  0.  0.  0.
162  1.61  0.  0.  0.
163  1.62  0.  0.  0.
164  1.63  0.  0.  0.
165  1.64  0.  0.  0.
166  1.65  0.  0.  0.
167  1.66  0.  0.  0.
168  1.67  0.  0.  0.
169  1.68  0.  0.  0.
170  1.69  0.  0.  0.
171  1.70  0.  0.  0.
172  1.71  0.  0.  0.
173  1.72  0.  0.  0.
174  1.73  0.  0.  0.
175  1.74  0.  0.  0.
176  1.75  0.  0.  0.
177  1.76  0.  0.  0.
178  1.77  0.  0.  0.
179  1.78  0.  0.  0.
180  1.79  0.  0.  0.
181  1.80  0.  0.  0.
182  1.81  0.  0.  0.
183  1.82  0.  0.  0.
184  1.83  0.  0.  0.
185  1.84  0.  0.  0.
186  1.85  0.  0.  0.
187  1.86  0.  0.  0.
188  1.87  0.  0.  0.
189  1.88  0.  0.  0.
190  1.89  0.  0.  0.
191  1.90  0.  0.  0.
192  1.91  0.  0.  0.
193  1.92  0.  0.  0.
194  1.93  0.  0.  0.
195  1.94  0.  0.  0.
196  1.95  0.  0.  0.
197  1.96  0.  0.  0.
198  1.97  0.  0.  0.
199  1.98  0.  0.  0.
200  1.99  0.  0.  0.
201  2.00  0.  0.  0.
202  2.01  0.  0.  0.
203  2.02  0.  0.  0.
204  2.03  0.  0.  0.
205  2.04  0.  0.  0.
206  2.05  0.  0.  0.
207  2.06  0.  0.  0.
208  2.07  0.  0.  0.
209  2.08  0.  0.  0.
210  2.09  0.  0.  0.
211  2.10  0.  0.  0.
212  2.11  0.  0.  0.
213  2.12  0.  0.  0.
214  2.13  0.  0.  0.
215  2.14  0.  0.  0.
216  2.15  0.  0.  0.
217  2.16  0.  0.  0.
218  2.17  0.  0.  0.
219  2.18  0.  0.  0.
220  2.19  0.  0.  0.
221  2.20  0.  0.  0.
222  2.21  0.  0.  0.
223  2.22  0.  0.  0.
224  2.23  0.  0.  0.
225  2.24  0.  0.  0.
226  2.25  0.  0.  0.
227  2.26  0.  0.  0.
228  2.27  0.  0.  0.
229  2.28  0.  0.  0.
230  2.29  0.  0.  0.
231  2.30  0.  0.  0.
232  2.31  0.  0.  0.
233  2.32  0.  0.  0.
234  2.33  0.  0.  0.
235  2.34  0.  0.  0.
236  2.35  0.  0.  0.
237  2.36  0.  0.  0.
238  2.37  0.  0.  0.
239  2.38  0.  0.  0.
240  2.39  0.  0.  0.
241  2.40  0.  0.  0.
242  2.41  0.  0.  0.
243  2.42  0.  0.  0.
244  2.43  0.  0.  0.
245  2.44  0.  0.  0.
246  2.45  0.  0.  0.
247  2.46  0.  0.  0.
248  2.47  0.  0.  0.
249  2.48  0.  0.  0.
250  2.49  0.  0.  0.
251  2.50  0.  0.  0.
252  2.51  0.  0.  0.
253  2.52  0.  0.  0.
254  2.53  0.  0.  0.
255  2.54  0.  0.  0.
256  2.55  0.  0.  0.
257  2.56  0.  0.  0.
258  2.57  0.  0.  0.
259  2.58  0.  0.  0.
260  2.59  0.  0.  0.
261  2.60  0.  0.  0.
262  2.61  0.  0.  0.
263  2.62  0.  0.  0.
264  2.63  0.  0.  0.
265  2.64  0.  0.  0.
266  2.65  0.  0.  0.
267  2.66  0.  0.  0.
268  2.67  0.  0.  0.
269  2.68  0.  0.  0.
270  2.69  0.  0.  0.
271  2.70  0.  0.  0.
272  2.71  0.  0.  0.
273  2.72  0.  0.  0.
274  2.73  0.  0.  0.
275  2.74  0.  0.  0.
276  2.75  0.  0.  0.
277  2.76  0.  0.  0.
278  2.77  0.  0.  0.
279  2.78  0.  0.  0.
280  2.79  0.  0.  0.
281  2.80  0.  0.  0.
282  2.81  0.  0.  0.
283  2.82  0.  0.  0.
284  2.83  0.  0.  0.
285  2.84  0.  0.  0.
286  2.85  0.  0.  0.
287  2.86  0.  0.  0.
288  2.87  0.  0.  0.
289  2.88  0.  0.  0.
290  2.89  0.  0.  0.
291  2.90  0.  0.  0.
292  2.91  0.  0.  0.
293  2.92  0.  0.  0.
294  2.93  0.  0.  0.
295  2.94  0.  0.  0.
296  2.95  0.  0.  0.
297  2.96  0.  0.  0.
298  2.97  0.  0.  0.
299  2.98  0.  0.  0.
300  2.99  0.  0.  0.
301  3.00  0.  0.  0.
302  3.01  0.  0.  0.
303  3.02  0.  0.  0.
304  3.03  0.  0.  0.
305  3.04  0.  0.  0.
306  3.05  0.  0.  0.
307  3.06  0.  0.  0.
308  3.07  0.  0.  0.
309  3.08  0.  0.  0.
310  3.09  0.  0.  0.
311  3.10  0.  0.  0.
312  3.11  0.  0.  0.
313  3.12  0.  0.  0.
314  3.13  0.  0.  0.
315  3.14  0.  0.  0.
316  3.15  0.  0.  0.
317  3.16  0.  0.  0.
318  3.17  0.  0.  0.
319  3.18  0.  0.  0.
320  3.19  0.  0.  0.
321  3.20  0.  0.  0.
322  3.21  0.  0.  0.
323  3.22  0.  0.  0.
324  3.23  0.  0.  0.
325  3.24  0.  0.  0.
326  3.25  0.  0.  0.
327  3.26  0.  0.  0.
328  3.27  0.  0.  0.
329  3.28  0.  0.  0.
330  3.29  0.  0.  0.
331  3.30  0.  0.  0.
332  3.31  0.  0.  0.
333  3.32  0.  0.  0.
334  3.33  0.  0.  0.
335  3.34  0.  0.  0.
336  3.35  0.  0.  0.
337  3.36  0.  0.  0.
338  3.37  0.  0.  0.
339  3.38  0.  0.  0.
340  3.39  0.  0.  0.
341  3.40  0.  0.  0.
342  3.41  0.  0.  0.
343  3.42  0.  0.  0.
344  3.43  0.  0.  0.
345  3.44  0.  0.  0.
346  3.45  0.  0.  0.
347  3.46  0.  0.  0.
348  3.47  0.  0.  0.
349  3.48  0.  0.  0.
350  3.49  0.  0.  0.
351  3.50  0.  0.  0.
352  3.51  0.  0.  0.
353  3.52  0.  0.  0.
354  3.53  0.  0.  0.
355  3.54  0.  0.  0.
356  3.55  0.  0.  0.
357  3.56  0.  0.  0.
358  3.57  0.  0.  0.
359  3.58  0.  0.  0.
360  3.59  0.  0.  0.
361  3.60  0.  0.  0.
362  3.61  0.  0.  0.
363  3.62  0.  0.  0.
364  3.63  0.  0.  0.
365  3.64  0.  0.  0.
366  3.65  0.  0.  0.
367  3.66  0.  0.  0.
368  3.67  0.  0.  0.
369  3.68  0.  0.  0.
370  3.69  0.  0.  0.
371  3.70  0.  0.  0.
372  3.71  0.  0.  0.
373  3.72  0.  0.  0.
374  3.73  0.  0.  0.
375  3.74  0.  0.  0.
376  3.75  0.  0.  0.
377  3.76  0.  0.  0.
378  3.77  0.  0.  0.
379  3.78  0.  0.  0.
380  3.79  0.  0.  0.
381  3.80  0.  0.  0.
382  3.81  0.  0.  0.
383  3.82  0.  0.  0.
384  3.83  0.  0.  0.
385  3.84  0.  0.  0.
386  3.85  0.  0.  0.
387  3.86  0.  0.  0.
388  3.87  0.  0.  0.
389  3.88  0.  0.  0.
390  3.89  0.  0.  0.
391  3.90  0.  0.  0.
392  3.91  0.  0.  0.
393  3.92  0.  0.  0.
394  3.93  0.  0.  0.
395  3.94  0.  0.  0.
396  3.95  0.  0.  0.
397  3.96  0.  0.  0.
398  3.97  0.  0.  0.
399  3.98  0.  0.  0.
400  3.99  0.  0.  0.
401  4.00  0.  0.  0.
402  4.01  0.  0.  0.
403  4.02  0.  0.  0.
404  4.03  0.  0.  0.
405  4.04  0.  0.  0.
406  4.05  0.  0.  0.
407  4.06  0.  0.  0.
408  4.07  0.  0.  0.
409  4.08  0.  0.  0.
410  4.09  0.  0.  0.
411  4.10  0.  0.  0.
412  4.11  0.  0.  0.
413  4.12  0.  0.  0.
414  4.13  0.  0.  0.
415  4.14  0.  0.  0.
416  4.15  0.  0.  0.
417  4.16  0.  0.  0.
418  4.17  0.  0.  0.
419  4.18  0.  0.  0.
420  4.19  0.  0.  0.
421  4.20  0.  0.  0.
422  4.21  0.  0.  0.
423  4.22  0.  0.  0.
424  4.23  0.  0.  0.
425  4.24  0.  0.  0.
426  4.25  0.  0.  0.
427  4.26  0.  0.  0.
428  4.27  0.  0.  0.
429  4.28  0.  0.  0.
430  4.29  0.  0.  0.
431  4.30  0.  0.  0.
432  4.31  0.  0.  0.
433  4.32  0.  0.  0.
434  4.33  0.  0.  0.
435  4.34  0.  0.  0.
436  4.35  0.  0.  0.
437  4.36  0.  0.  0.
438  4.37  0.  0.  0.
439  4.38  0.  0.  0.
440  4.39  0.  0.  0.
441  4.40  0.  0.  0.
442  4.41  0.  0.  0.
443  4.42  0.  0.  0.
444  4.43  0.  0.  0.
445  4.44  0.  0.  0.
446  4.45  0.  0.  0.
447  4.46  0.  0.  0.
448  4.47  0.  0.  0.
449  4.48  0.  0.  0.
450  4.49  0.  0.  0.
451  4.50  0.  0.  0.
452  4.51  0.  0.  0.
453  4.52  0.  0.  0.
454  4.53  0.  0.  0.
455  4.54  0.  0.  0.
456  4.55  0.  0.  0.
457  4.56  0.  0.  0.
458  4.57  0.  0.  0.
459  4.58  0.  0.  0.
460  4.59  0.  0.  0.
461  4.60  0.  0.  0.
462  4.61  0.  0.  0.
463  4.62  0.  0.  0.
464  4.63  0.  0.  0.
465  4.64  0.  0.  0.
466  4.65  0.  0.  0.
467  4.66  0.  0.  0.
468  4.67  0.  0.  0.
469  4.68  0.  0.  0.
470  4.69  0.  0.  0.
471  4.70  0.  0.  0.
472  4.71  0.  0.  0.
473  4.72  0.  0.  0.
474  4.73  0.  0.  0.
475  4.74  0.  0.  0.
476  4.75  0.  0.  0.
477  4.76  0.  0.  0.
478  4.77  0.  0.  0.
479  4.78  0.  0.  0.
480  4.79  0.  0.  0.
481  4.80  0.  0.  0.
482  4.81  0.  0.  0.
483  4.82  0.  0.  0.
484  4.83  0.  0.  0.
485  4.84  0.  0.  0.
486  4.85  0.  0.  0.
487  4.86  0.  0.  0.
488  4.87  0.  0.  0.
489  4.88  0.  0.  0.
490  4.89  0.  0.  0.
491  4.90  0.  0.  0.
492  4.91  0.  0.  0.
493  4.92  0.  0.  0.
494  4.93  0.  0.  0.
495  4.94  0.  0.  0.
496  4.95  0.  0.  0.
497  4.96  0.  0.  0.
498  4.97  0.  0.  0.
499  4.98  0.  0.  0.
500  4.99  0.  0.  0.
501  5.00  0.  0.  0.
502  5.01  0.  0.  0.
503  5.02  0.  0.  0.
504  5.03  0.  0.  0.
505  5.04  0.  0.  0.
506  5.05  0.  0.  0.
507  5.06  0.  0.  0.
508  5.07  0.  0.  0.
509  5.08  0.  0.  0.
510  5.09  0.  0.  0.
511  5.10  0.  0.  0.
512  5.11  0.  0.  0.
513  5.12  0.  0.  0.
514  5.13  0.  0.  0.
515  5.14  0.  0.  0.
516  5.15  0.  0.  0.
517  5.16  0.  0.  0.
518  5.17  0.  0.  0.
519  5.18  0.  0.  0.
520  5.19  0.  0.  0.
521  5.20  0.  0.  0.
522  5.21  0.  0.  0.
523  5.22  0.  0.  0.
524  5.23  0.  0.  0.
525  5.24  0.  0.  0.
526  5.25  0.  0.  0.
527  5.26  0.  0.  0.
528  5.27  0.  0.  0.
529  5.28  0.  0.  0.
530  5.29  0.  0.  0.
531  5.30  0.  0.  0.
532  5.31  0.  0.  0.
533  5.32  0.  0.  0.
534  5.33  0.  0.  0.
535  5.34  0.  0.  0.
536  5.35  0.  0.  0.
537  5.36  0.  0.  0.
538  5.37  0.  0.  0.
539  5.38  0.  0.  0.
540  5.39  0.  0.  0.
541  5.40  0.  0.  0.
542  5.41  0.  0.  0.
543  5.42  0.  0.  0.
544  5.43  0.  0.  0.
545  5.44  0.  0.  0.
546  5.45  0.  0.  0.
547  5.46  0.  0.  0.
548  5.47  0.  0.  0.
549  5.48  0.  0.  0.
550  5.49  0.  0.  0.
551  5.50  0.  0.  0.
552  5.51  0.  0.  0.
553  5.52  0.  0.  0.
554  5.53  0.  0.  0.
555  5.54  0.  0.  0.
556  5.55  0.  0.  0.
557  5.56  0.  0.  0.
558  5.57  0.  0.  0.
559  5.58  0.  0.  0.
560  5.59  0.  0.  0.
561  5.60  0.  0.  0.
562  5.61  0.  0.  0.
563  5.62  0.  0.  0.
564  5.63  0.  0.  0.
565  5.64  0.  0.  0.
566  5.65  0.  0.  0.
567  5.66  0.  0.  0.
568  5.67  0.  0.  0.
569  5.68  0.  0.  0.
570  5.69  0.  0.  0.
571  5.70  0.  0.  0.
572  5.71  0.  0.  0.
573  5.72  0.  0.  0.
574  5.73  0.  0.  0.
575  5.74  0.  0.  0.
576  5.75  0.  0.  0.
577  5.76  0.  0.  0.
578  5.77  0.  0.  0.
579  5.78  0.  0.  0.
580  5.79  0.  0.  0.
581  5.80  0.  0.  0.
582  5.81  0.  0.  0.
583  5.82  0.  0.  0.
584  5.83  0.  0.  0.
585  5.84  0.  0.  0.
586  5.85  0.  0.  0.
587  5.86  0.  0.  0.
588  5.87  0.  0.  0.
589  5.88  0.  0.  0.
590  5.89  0.  0.  0.
591  5.90  0.  0.  0.
592  5.91  0.  0.  0.
593  5.92  0.  0.  0.
594  5.93  0.  0.  0.
595  5.94  0.  0.  0.
596  5.95  0.  0.  0.
597  5.96  0.  0.  0.
598  5.97  0.  0.  0.
599  5.98  0.  0.  0.
600  5.99  0.  0.  0.
1                         6.2679674022325E+00 -1.7342182170829E+00
1  0.0000000000000E+00 -3.7144326614502E-08 -1.8810410590264E-08
2  1.0000000000000E-02  3.8956620323420E-03  3.4208779000168E-04
3  2.0000000000000E-02  1.5561326563288E-02  1.3788012855799E-03
4  3.0000000000000E-02  3.4932617896877E-02  3.1411238253789E-03
5  4.0000000000000E-02  6.1900900634286E-02  5.6794840179519E-03
6  5.0000000000000E-02  9.6311360624761E-02  9.0619859133320E-03
7  6.0000000000000E-02  1.3796050378000E-01  1.3372020695798E-02
8  7.0000000000000E-02  1.8659324874826E-01  1.8705345315280E-02
9  8.0000000000000E-02  2.4189982658867E-01  2.5166732285261E-02
10  9.0000000000000E-02  3.0351272858030E-01  3.2866309780489E-02
11  1.0000000000000E-01  3.7100396086088E-01  4.1915721609763E-02
12  1.1000000000000E-01  4.4388287084088E-01  5.2424242227597E-02
13  1.2000000000000E-01  5.2159480484386E-01  6.4494982475831E-02
14  1.3000000000000E-01  6.0352083921140E-01  7.8221317194986E-02
15  1.4000000000000E-01  6.8897879866846E-01  9.3683656391273E-02
16  1.5000000000000E-01  7.7722573701073E-01  1.1094666764860E-01
17  1.6000000000000E-01  8.6746200750138E-01  1.3005703947010E-01
18  1.7000000000000E-01  9.5883699546915E-01  1.5104185390725E-01
19  1.8000000000000E-01  1.0504565255064E+00  1.7390761300153E-01
20  1.9000000000000E-01  1.1413918926279E+00  1.9863993813633E-01
21  2.0000000000000E-01  1.2306904031660E+00  2.2520393535192E-01
22  2.1000000000000E-01  1.3173872495050E+00  2.5354519401617E-01
23  2.2000000000000E-01  1.4005184854098E+00  2.8359136196166E-01
24  2.3000000000000E-01  1.4791348179781E+00  3.1525421823874E-01
25  2.4000000000000E-01  1.5523158902100E+00  3.4843214585380E-01
26  2.5000000000000E-01  1.6191846966243E+00  3.8301289200284E-01
27  2.6000000000000E-01  1.6789217546567E+00  4.1887649296836E-01
28  2.7000000000000E-01  1.7307786477443E+00  4.5589823544484E-01
29  2.8000000000000E-01  1.7740905625337E+00  4.9395152583196E-01
30  2.9000000000000E-01  1.8082874625759E+00  5.3291054402170E-01
31  3.0000000000000E-01  1.8329035737053E+00  5.7265256824191E-01
32  3.1000000000000E-01  1.8475849010738E+00  6.1305987224263E-01
33  3.2000000000000E-01  1.8520945530973E+00  6.5402111497550E-01
34  3.3000000000000E-01  1.8463157115340E+00  6.9543216520823E-01
35  3.4000000000000E-01  1.8302521573607E+00  7.3719632837970E-01
36  3.5000000000000E-01  1.8040263365973E+00  7.7922396947454E-01
37  3.6000000000000E-01  1.7678750261058E+00  8.2143155273948E-01
38  3.7000000000000E-01  1.7221427339378E+00  8.6374014560534E-01
39  3.8000000000000E-01  1.6672730393154E+00  9.0607345914945E-01
40  3.9000000000000E-01  1.6037981412170E+00  9.4835551981301E-01
41  4.0000000000000E-01  1.5323269394090E+00  9.9050808594104E-01
42  4.1000000000000E-01  1.4535320155701E+00  1.0324479372271E+00
43  4.2000000000000E-01  1.3681359131837E+00  1.0740841746663E+00
44  4.3000000000000E-01  1.2768971319228E+00  1.1153156726730E+00
45  4.4000000000000E-01  1.1805962545775E+00  1.1560288233432E+00
46  4.5000000000000E-01  1.0800226120087E+00  1.1960957053760E+00
47  4.6000000000000E-01  9.7596186451790E-01  1.2353727970980E+00
48  4.7000000000000E-01  8.6918483731991E-01  1.2737003347446E+00
49  4.8000000000000E-01  7.6043789493318E-01  1.3109023942537E+00
50  4.9000000000000E-01  6.5043507616711E-01  1.3467877481003E+00
51  5.0000000000000E-01  5.3985214030400E-01  1.3811515191201E+00
52  5.1000000000000E-01  4.2932259868270E-01  1.4137776218968E+00
53  5.2000000000000E-01  3.1943572706073E-01  1.4444419503176E+00
54  5.3000000000000E-01  2.1073647585196E-01  1.4729162385431E+00
55  5.4000000000000E-01  1.0372712061180E-01  1.4989724931174E+00
56  5.5000000000000E-01 -1.1295731269902E-03  1.5223878674476E+00
57  5.6000000000000E-01 -1.0340595568686E-01  1.5429498274878E+00
58  5.7000000000000E-01 -2.0270420236994E-01  1.5604614401377E+00
59  5.8000000000000E-01 -2.9865049262343E-01  1.5747466043847E+00
60  5.9000000000000E-01 -3.9088904517461E-01  1.5856550401729E+00
61  6.0000000000000E-01 -4.7907639838451E-01  1.5930668517114E+00
62  6.1000000000000E-01 -5.6287631221714E-01  1.5968964905500E+00
63  6.2000000000000E-01 -6.4195563950009E-01  1.5970959590970E+00
64  6.3000000000000E-01 -7.1598147048574E-01  1.5936571169163E+00
65  6.4000000000000E-01 -7.8461979762299E-01  1.5866129794814E+00
66  6.5000000000000E-01 -8.4753587897498E-01  1.5760379311850E+00
67  6.6000000000000E-01 -9.0439640140091E-01  1.5620468102482E+00
68  6.7000000000000E-01 -9.5487346137515E-01  1.5447928614902E+00
69  6.8000000000000E-01 -9.9865029534056E-01  1.5244645923767E+00
70  6.9000000000000E-01 -1.0354286061532E+00  1.5012816069172E+00
71  7.0000000000000E-01 -1.0649372508589E+00  1.4754895294142E+00
72  7.1000000000000E-01 -1.0869419810760E+00  1.4473541643559E+00
73  7.2000000000000E-01 -1.1012558637183E+00  1.4171550685927E+00
74  7.3000000000000E-01 -1.1077499594443E+00  1.3851787361480E+00
75  7.4000000000000E-01 -1.1063638013613E+00  1.3517116136173E+00
76  7.5000000000000E-01 -1.0971151989080E+00  1.3170331743113E+00
77  7.6000000000000E-01 -1.0801088926230E+00  1.2814092816078E+00
78  7.7000000000000E-01 -1.0555436051452E+00  1.2450860661429E+00
79  7.8000000000000E-01 -1.0237170720332E+00  1.2082845275628E+00
80  7.9000000000000E-01 -9.8502869188998E-01  1.1711960499242E+00
81  8.0000000000000E-01 -9.3997950718423E-01  1.1339789911104E+00
82  8.1000000000000E-01 -8.8916931278976E-01  1.0967564717359E+00
83  8.2000000000000E-01 -8.3329078577677E-01  1.0596154490870E+00
84  8.3000000000000E-01 -7.7312063405654E-01  1.0226071180405E+00
85  8.4000000000000E-01 -7.0950786943198E-01  9.8574863511209E-01
86  8.5000000000000E-01 -6.4335941854100E-01  9.4902611542539E-01
87  8.6000000000000E-01 -5.7562338911047E-01  9.1239880709372E-01
88  8.7000000000000E-01 -5.0727040494102E-01  8.7580430491744E-01
89  8.8000000000000E-01 -4.3927350739898E-01  8.3916462696728E-01
90  8.9000000000000E-01 -3.7258719053130E-01  8.0239294497962E-01
91  9.0000000000000E-01 -3.0812618834908E-01  7.6540073377151E-01
92  9.1000000000000E-01 -2.4674466404478E-01  7.2810508709859E-01
93  9.2000000000000E-01 -1.8921646030507E-01  6.9043593826067E-01
94  9.3000000000000E-01 -1.3621705659535E-01  6.5234292374001E-01
95  9.4000000000000E-01 -8.8307843269364E-02  6.1380163734696E-01
96  9.5000000000000E-01 -4.5923264356807E-02  5.7481904052371E-01
97  9.6000000000000E-01 -9.3613024551282E-03  5.3543782108234E-01
98  9.7000000000000E-01  2.1222317360858E-02  4.9573952686276E-01
99  9.8000000000000E-01  4.5815939326935E-02  4.5584634147026E-01
100  9.9000000000000E-01  6.4549662338685E-02  4.1592141501002E-01
101  1.0000000000000E+00  7.7688887344178E-02  3.7616771200766E-01
102  1.0100000000000E+00  8.5623848917002E-02  3.3682538975792E-01
103  1.0200000000000E+00  8.8855385438392E-02  2.9816777144587E-01
104  1.0300000000000E+00  8.7977328530276E-02  2.6049602767322E-01
105  1.0400000000000E+00  8.3656008120102E-02  2.2413272574573E-01
106  1.0500000000000E+00  7.6607470839037E-02  1.8941444665733E-01
107  1.0600000000000E+00  6.7573092512466E-02  1.5668370359727E-01
108  1.0700000000000E+00  5.7294327322545E-02  1.2628042179121E-01
109  1.0800000000000E+00  4.6487318287591E-02  9.8533240662548E-02
110  1.0900000000000E+00  3.5818636897031E-02  7.3751053060840E-02
111  1.1000000000000E+00  2.5857309741649E-02  5.2206910433549E-02
112  1.1100000000000E+00  1.7045481853607E-02  3.4124659702148E-02
113  1.1200000000000E+00  9.8287326293227E-03  1.9722964562004E-02
114  1.1300000000000E+00  4.5118953801989E-03  9.1731345865190E-03
115  1.1400000000000E+00  1.2393263269931E-03  2.5807174299546E-03
116  1.1500000000000E+00  3.3438633540793E-05  7.2320985352512E-05
117  1.1600000000000E+00  5.3455626779639E-06  1.1468650132942E-05
118  1.1700000000000E+00 -9.4223630720568E-07 -1.9924565088443E-06
119  1.18  0.  0.
120  1.19  0.  0.
121  1.20  0.  0.
122  1.21  0.  0.
123  1.22  0.  0.
124  1.23  0.  0.
125  1.24  0.  0.
126  1.25  0.  0.
127  1.26  0.  0.
128  1.27  0.  0.
129  1.28  0.  0.
130  1.29  0.  0.
131  1.30  0.  0.
132  1.31  0.  0.
133  1.32  0.  0.
134  1.33  0.  0.
135  1.34  0.  0.
136  1.35  0.  0.
137  1.36  0.  0.
138  1.37  0.  0.
139  1.38  0.  0.
140  1.39  0.  0.
141  1.40  0.  0.
142  1.41  0.  0.
143  1.42  0.  0.
144  1.43  0.  0.
145  1.44  0.  0.
146  1.45  0.  0.
147  1.46  0.  0.
148  1.47  0.  0.
149  1.48  0.  0.
150  1.49  0.  0.
151  1.50  0.  0.
152  1.51  0.  0.
153  1.52  0.  0.
154  1.53  0.  0.
155  1.54  0.  0.
156  1.55  0.  0.
157  1.56  0.  0.
158  1.57  0.  0.
159  1.58  0.  0.
160  1.59  0.  0.
161  1.60  0.  0.
162  1.61  0.  0.
163  1.62  0.  0.
164  1.63  0.  0.
165  1.64  0.  0.