Lv    ONCVPSP-4.0.1  r_core=   1.40419   1.37099   1.32266   1.50870
116.0000     24.0000      231012    zatom,zion,pspd
8 -116133   3     4   600     0    pspcod,pspxc,lmax,lloc,mmax,r2well
5.99000000  5.00000000  0.00000000    rchrg fchrg qchrg
2     3     3     2    nproj
3     1           extension_switch
4     3     2    nprojso
0                         2.0112917140685E+01  2.6756761753534E+00
1  0.0000000000000E+00  1.3736659587593E-09 -4.1021060367963E-09
2  1.0000000000000E-02  5.7433250917180E-02 -2.4558369069506E-03
3  2.0000000000000E-02  1.1487112766714E-01 -5.0814813644633E-03
4  3.0000000000000E-02  1.7231682443772E-01 -8.0429752165308E-03
5  4.0000000000000E-02  2.2977069508132E-01 -1.1498891865921E-02
6  5.0000000000000E-02  2.8722888997556E-01 -1.5596758411278E-02
7  6.0000000000000E-02  3.4468206032104E-01 -2.0469662430460E-02
8  7.0000000000000E-02  4.0211415071236E-01 -2.6233100043293E-02
9  8.0000000000000E-02  4.5950129944417E-01 -3.2982117784831E-02
10  9.0000000000000E-02  5.1681086434038E-01 -4.0788795829325E-02
11  1.0000000000000E-01  5.7400058994765E-01 -4.9700114313397E-02
12  1.1000000000000E-01  6.3101792974651E-01 -5.9736238015876E-02
13  1.2000000000000E-01  6.8779953464144E-01 -7.0889247576339E-02
14  1.3000000000000E-01  7.4427091643349E-01 -8.3122337898538E-02
15  1.4000000000000E-01  8.0034629229870E-01 -9.6369496522411E-02
16  1.5000000000000E-01  8.5592861353550E-01 -1.1053566669735E-01
17  1.6000000000000E-01  9.1090977905143E-01 -1.2549739179282E-01
18  1.7000000000000E-01  9.6517103127776E-01 -1.4110392968300E-01
19  1.8000000000000E-01  1.0185835294771E+00 -1.5717881798181E-01
20  1.9000000000000E-01  1.0710090927875E+00 -1.7352186362045E-01
21  2.0000000000000E-01  1.1223011028677E+00 -1.8991152338236E-01
22  2.1000000000000E-01  1.1723055537164E+00 -2.0610763576101E-01
23  2.2000000000000E-01  1.2208622341649E+00 -2.2185445899548E-01
24  2.3000000000000E-01  1.2678060267206E+00 -2.3688396546118E-01
25  2.4000000000000E-01  1.3129683049045E+00 -2.5091933883267E-01
26  2.5000000000000E-01  1.3561784099842E+00 -2.6367861765240E-01
27  2.6000000000000E-01  1.3972651870970E+00 -2.7487842718235E-01
28  2.7000000000000E-01  1.4360585601685E+00 -2.8423774070824E-01
29  2.8000000000000E-01  1.4723911247957E+00 -2.9148161181657E-01
30  2.9000000000000E-01  1.5060997383494E+00 -2.9634482055776E-01
31  3.0000000000000E-01  1.5370270869823E+00 -2.9857537881099E-01
32  3.1000000000000E-01  1.5650232099632E+00 -2.9793784352360E-01
33  3.2000000000000E-01  1.5899469628028E+00 -2.9421639073894E-01
34  3.3000000000000E-01  1.6116674019489E+00 -2.8721760836014E-01
35  3.4000000000000E-01  1.6300650753898E+00 -2.7677297132060E-01
36  3.5000000000000E-01  1.6450332052776E+00 -2.6274096912384E-01
37  3.6000000000000E-01  1.6564787506312E+00 -2.4500886244755E-01
38  3.7000000000000E-01  1.6643233402622E+00 -2.2349405253944E-01
39  3.8000000000000E-01  1.6685040682436E+00 -1.9814505432147E-01
40  3.9000000000000E-01  1.6689741464655E+00 -1.6894207131635E-01
41  4.0000000000000E-01  1.6657034110560E+00 -1.3589717756851E-01
42  4.1000000000000E-01  1.6586786816363E+00 -9.9054118506713E-02
43  4.2000000000000E-01  1.6479039744955E+00 -5.8487749048960E-02
44  4.3000000000000E-01  1.6334005727613E+00 -1.4303133053608E-02
45  4.4000000000000E-01  1.6152069584859E+00  3.3365666642443E-02
46  4.5000000000000E-01  1.5933786132114E+00  8.4357073988903E-02
47  4.6000000000000E-01  1.5679876950148E+00  1.3848372416546E-01
48  4.7000000000000E-01  1.5391226012266E+00  1.9553438698045E-01
49  4.8000000000000E-01  1.5068874269550E+00  2.5527604786682E-01
50  4.9000000000000E-01  1.4714013302180E+00  3.1745610446838E-01
51  5.0000000000000E-01  1.4327978148874E+00  3.8180463714459E-01
52  5.1000000000000E-01  1.3912239427796E+00  4.4803671302167E-01
53  5.2000000000000E-01  1.3468394860978E+00  5.1585468543259E-01
54  5.3000000000000E-01  1.2998160310569E+00  5.8495045365576E-01
55  5.4000000000000E-01  1.2503360429204E+00  6.5500765169097E-01
56  5.5000000000000E-01  1.1985919018822E+00  7.2570373929701E-01
57  5.6000000000000E-01  1.1447849182552E+00  7.9671197353792E-01
58  5.7000000000000E-01  1.0891243343310E+00  8.6770324450491E-01
59  5.8000000000000E-01  1.0318263190762E+00  9.3834776455658E-01
60  5.9000000000000E-01  9.7311296058061E-01  1.0083166061962E+00
61  6.0000000000000E-01  9.1321125990405E-01  1.0772830894247E+00
62  6.1000000000000E-01  8.5235212873346E-01  1.1449240249200E+00
63  6.2000000000000E-01  7.9076939208832E-01  1.2109208245366E+00
64  6.3000000000000E-01  7.2869879625059E-01  1.2749604952649E+00
65  6.4000000000000E-01  6.6637702117385E-01  1.3367365367874E+00
66  6.5000000000000E-01  6.0404069587871E-01  1.3959497660187E+00
67  6.6000000000000E-01  5.4192541479619E-01  1.4523090944061E+00
68  6.7000000000000E-01  4.8026475269632E-01  1.5055322852296E+00
69  6.8000000000000E-01  4.1928927575259E-01  1.5553467186114E+00
70  6.9000000000000E-01  3.5922554645105E-01  1.6014901914032E+00
71  7.0000000000000E-01  3.0029512045728E-01  1.6437117775564E+00
72  7.1000000000000E-01  2.4271353419870E-01  1.6817727720212E+00
73  7.2000000000000E-01  1.8668928278966E-01  1.7154477377170E+00
74  7.3000000000000E-01  1.3242278900281E-01  1.7445256707435E+00
75  7.4000000000000E-01  8.0105365243013E-02  1.7688112938605E+00
76  7.5000000000000E-01  2.9918171878585E-02  1.7881264824809E+00
77  7.6000000000000E-01 -1.7968823212941E-02  1.8023118211363E+00
78  7.7000000000000E-01 -6.3397877462248E-02  1.8112282817514E+00
79  7.8000000000000E-01 -1.0622449078718E-01  1.8147590082775E+00
80  7.9000000000000E-01 -1.4631839758647E-01  1.8128111854636E+00
81  8.0000000000000E-01 -1.8356452254179E-01  1.8053179629857E+00
82  8.1000000000000E-01 -2.1786388789670E-01  1.7922403999847E+00
83  8.2000000000000E-01 -2.4913445874085E-01  1.7735693894799E+00
84  8.3000000000000E-01 -2.7731191191686E-01  1.7493275172901E+00
85  8.4000000000000E-01 -3.0235031352870E-01  1.7195708061786E+00
86  8.5000000000000E-01 -3.2422268969983E-01  1.6843902930797E+00
87  8.6000000000000E-01 -3.4292147523754E-01  1.6439133855823E+00
88  8.7000000000000E-01 -3.5845882522913E-01  1.5983049434442E+00
89  8.8000000000000E-01 -3.7086677534082E-01  1.5477680318443E+00
90  8.9000000000000E-01 -3.8019723771671E-01  1.4925442953918E+00
91  9.0000000000000E-01 -3.8652182087998E-01  1.4329139056061E+00
92  9.1000000000000E-01 -3.8993146390773E-01  1.3691950396191E+00
93  9.2000000000000E-01 -3.9053587736314E-01  1.3017428541798E+00
94  9.3000000000000E-01 -3.8846278599125E-01  1.2309479265536E+00
95  9.4000000000000E-01 -3.8385697097782E-01  1.1572341424820E+00
96  9.5000000000000E-01 -3.7687911258586E-01  1.0810560208425E+00
97  9.6000000000000E-01 -3.6770443716559E-01  1.0028954748386E+00
98  9.7000000000000E-01 -3.5652117581973E-01  9.2325802025697E-01
99  9.8000000000000E-01 -3.4352884533110E-01  8.4266845231442E-01
100  9.9000000000000E-01 -3.2893636525290E-01  7.6166602366536E-01
101  1.0000000000000E+00 -3.1296002825365E-01  6.8079916698198E-01
102  1.0100000000000E+00 -2.9582134382621E-01  6.0061981592880E-01
103  1.0200000000000E+00 -2.7774477824568E-01  5.2167738807618E-01
104  1.0300000000000E+00 -2.5895541612439E-01  4.4451250209917E-01
105  1.0400000000000E+00 -2.3967657100438E-01  3.6965050927345E-01
106  1.0500000000000E+00 -2.2012737409400E-01  2.9759492561391E-01
107  1.0600000000000E+00 -2.0052037144345E-01  2.2882085581673E-01
108  1.0700000000000E+00 -1.8105916053195E-01  1.6376850333693E-01
109  1.0800000000000E+00 -1.6193609737112E-01  1.0283686233378E-01
110  1.0900000000000E+00 -1.4333010480571E-01  4.6377686788666E-02
111  1.1000000000000E+00 -1.2540461169764E-01 -5.3101702093796E-03
112  1.1100000000000E+00 -1.0830565113151E-01 -5.1985958172532E-02
113  1.1200000000000E+00 -9.2160143681791E-02 -9.3471689073004E-02
114  1.1300000000000E+00 -7.7074389180579E-02 -1.2965618020728E-01
115  1.1400000000000E+00 -6.3132786933800E-02 -1.6049841607730E-01
116  1.1500000000000E+00 -5.0396807827422E-02 -1.8603014451983E-01
117  1.1600000000000E+00 -3.8904274547318E-02 -2.0635746677704E-01
118  1.1700000000000E+00 -2.8670964529667E-02 -2.2165239065513E-01
119  1.1800000000000E+00 -1.9694324878845E-02 -2.3213595055618E-01
120  1.1900000000000E+00 -1.1954865577001E-02 -2.3807289891996E-01
121  1.2000000000000E+00 -5.4171193792095E-03 -2.3976876407987E-01
122  1.2100000000000E+00 -3.0820058146476E-05 -2.3756622153023E-01
123  1.2200000000000E+00  4.2677192747410E-03 -2.3184083777888E-01
124  1.2300000000000E+00  7.5540446043557E-03 -2.2299623507180E-01
125  1.2400000000000E+00  9.9138374583095E-03 -2.1145874144231E-01
126  1.2500000000000E+00  1.1441053601387E-02 -1.9767160050181E-01
127  1.2600000000000E+00  1.2235950941008E-02 -1.8208882473151E-01
128  1.2700000000000E+00  1.2403035912475E-02 -1.6516878401529E-01
129  1.2800000000000E+00  1.2048959443172E-02 -1.4736762759948E-01
130  1.2900000000000E+00  1.1280394875908E-02 -1.2913264228627E-01
131  1.3000000000000E+00  1.0201930983872E-02 -1.1089565256766E-01
132  1.3100000000000E+00  8.9140176463832E-03 -9.3066583378226E-02
133  1.3200000000000E+00  7.5109510332705E-03 -7.6027140855258E-02
134  1.3300000000000E+00  6.0791438917711E-03 -6.0125408023562E-02
135  1.3400000000000E+00  4.6917670418381E-03 -4.5658509260176E-02
136  1.3500000000000E+00  3.4042736842441E-03 -3.2857383939108E-02
137  1.3600000000000E+00  2.2765093591521E-03 -2.1960225268235E-02
138  1.3700000000000E+00  1.3537938007507E-03 -1.3151751766032E-02
139  1.3800000000000E+00  6.6493684682262E-04 -6.5568586682151E-03
140  1.3900000000000E+00  2.2084631015100E-04 -2.2288715113250E-03
141  1.4000000000000E+00  2.1802566223157E-05 -2.2770837901935E-04
142  1.4100000000000E+00 -2.3069882019713E-06  2.4615216211329E-05
143  1.4200000000000E+00  3.7572720845312E-07 -3.9395271375937E-06
144  1.43  0.  0.
145  1.44  0.  0.
146  1.45  0.  0.
147  1.46  0.  0.
148  1.47  0.  0.
149  1.48  0.  0.
150  1.49  0.  0.
151  1.50  0.  0.
152  1.51  0.  0.
153  1.52  0.  0.
154  1.53  0.  0.
155  1.54  0.  0.
156  1.55  0.  0.
157  1.56  0.  0.
158  1.57  0.  0.
159  1.58  0.  0.
160  1.59  0.  0.
161  1.60  0.  0.
162  1.61  0.  0.
163  1.62  0.  0.
164  1.63  0.  0.
165  1.64  0.  0.
166  1.65  0.  0.
167  1.66  0.  0.
168  1.67  0.  0.
169  1.68  0.  0.
170  1.69  0.  0.
171  1.70  0.  0.
172  1.71  0.  0.
173  1.72  0.  0.
174  1.73  0.  0.
175  1.74  0.  0.
176  1.75  0.  0.
177  1.76  0.  0.
178  1.77  0.  0.
179  1.78  0.  0.
180  1.79  0.  0.
181  1.80  0.  0.
182  1.81  0.  0.
183  1.82  0.  0.
184  1.83  0.  0.
185  1.84  0.  0.
186  1.85  0.  0.
187  1.86  0.  0.
188  1.87  0.  0.
189  1.88  0.  0.
190  1.89  0.  0.
191  1.90  0.  0.
192  1.91  0.  0.
193  1.92  0.  0.
194  1.93  0.  0.
195  1.94  0.  0.
196  1.95  0.  0.
197  1.96  0.  0.
198  1.97  0.  0.
199  1.98  0.  0.
200  1.99  0.  0.
201  2.00  0.  0.
202  2.01  0.  0.
203  2.02  0.  0.
204  2.03  0.  0.
205  2.04  0.  0.
206  2.05  0.  0.
207  2.06  0.  0.
208  2.07  0.  0.
209  2.08  0.  0.
210  2.09  0.  0.
211  2.10  0.  0.
212  2.11  0.  0.
213  2.12  0.  0.
214  2.13  0.  0.
215  2.14  0.  0.
216  2.15  0.  0.
217  2.16  0.  0.
218  2.17  0.  0.
219  2.18  0.  0.
220  2.19  0.  0.
221  2.20  0.  0.
222  2.21  0.  0.
223  2.22  0.  0.
224  2.23  0.  0.
225  2.24  0.  0.
226  2.25  0.  0.
227  2.26  0.  0.
228  2.27  0.  0.
229  2.28  0.  0.
230  2.29  0.  0.
231  2.30  0.  0.
232  2.31  0.  0.
233  2.32  0.  0.
234  2.33  0.  0.
235  2.34  0.  0.
236  2.35  0.  0.
237  2.36  0.  0.
238  2.37  0.  0.
239  2.38  0.  0.
240  2.39  0.  0.
241  2.40  0.  0.
242  2.41  0.  0.
243  2.42  0.  0.
244  2.43  0.  0.
245  2.44  0.  0.
246  2.45  0.  0.
247  2.46  0.  0.
248  2.47  0.  0.
249  2.48  0.  0.
250  2.49  0.  0.
251  2.50  0.  0.
252  2.51  0.  0.
253  2.52  0.  0.
254  2.53  0.  0.
255  2.54  0.  0.
256  2.55  0.  0.
257  2.56  0.  0.
258  2.57  0.  0.
259  2.58  0.  0.
260  2.59  0.  0.
261  2.60  0.  0.
262  2.61  0.  0.
263  2.62  0.  0.
264  2.63  0.  0.
265  2.64  0.  0.
266  2.65  0.  0.
267  2.66  0.  0.
268  2.67  0.  0.
269  2.68  0.  0.
270  2.69  0.  0.
271  2.70  0.  0.
272  2.71  0.  0.
273  2.72  0.  0.
274  2.73  0.  0.
275  2.74  0.  0.
276  2.75  0.  0.
277  2.76  0.  0.
278  2.77  0.  0.
279  2.78  0.  0.
280  2.79  0.  0.
281  2.80  0.  0.
282  2.81  0.  0.
283  2.82  0.  0.
284  2.83  0.  0.
285  2.84  0.  0.
286  2.85  0.  0.
287  2.86  0.  0.
288  2.87  0.  0.
289  2.88  0.  0.
290  2.89  0.  0.
291  2.90  0.  0.
292  2.91  0.  0.
293  2.92  0.  0.
294  2.93  0.  0.
295  2.94  0.  0.
296  2.95  0.  0.
297  2.96  0.  0.
298  2.97  0.  0.
299  2.98  0.  0.
300  2.99  0.  0.
301  3.00  0.  0.
302  3.01  0.  0.
303  3.02  0.  0.
304  3.03  0.  0.
305  3.04  0.  0.
306  3.05  0.  0.
307  3.06  0.  0.
308  3.07  0.  0.
309  3.08  0.  0.
310  3.09  0.  0.
311  3.10  0.  0.
312  3.11  0.  0.
313  3.12  0.  0.
314  3.13  0.  0.
315  3.14  0.  0.
316  3.15  0.  0.
317  3.16  0.  0.
318  3.17  0.  0.
319  3.18  0.  0.
320  3.19  0.  0.
321  3.20  0.  0.
322  3.21  0.  0.
323  3.22  0.  0.
324  3.23  0.  0.
325  3.24  0.  0.
326  3.25  0.  0.
327  3.26  0.  0.
328  3.27  0.  0.
329  3.28  0.  0.
330  3.29  0.  0.
331  3.30  0.  0.
332  3.31  0.  0.
333  3.32  0.  0.
334  3.33  0.  0.
335  3.34  0.  0.
336  3.35  0.  0.
337  3.36  0.  0.
338  3.37  0.  0.
339  3.38  0.  0.
340  3.39  0.  0.
341  3.40  0.  0.
342  3.41  0.  0.
343  3.42  0.  0.
344  3.43  0.  0.
345  3.44  0.  0.
346  3.45  0.  0.
347  3.46  0.  0.
348  3.47  0.  0.
349  3.48  0.  0.
350  3.49  0.  0.
351  3.50  0.  0.
352  3.51  0.  0.
353  3.52  0.  0.
354  3.53  0.  0.
355  3.54  0.  0.
356  3.55  0.  0.
357  3.56  0.  0.
358  3.57  0.  0.
359  3.58  0.  0.
360  3.59  0.  0.
361  3.60  0.  0.
362  3.61  0.  0.
363  3.62  0.  0.
364  3.63  0.  0.
365  3.64  0.  0.
366  3.65  0.  0.
367  3.66  0.  0.
368  3.67  0.  0.
369  3.68  0.  0.
370  3.69  0.  0.
371  3.70  0.  0.
372  3.71  0.  0.
373  3.72  0.  0.
374  3.73  0.  0.
375  3.74  0.  0.
376  3.75  0.  0.
377  3.76  0.  0.
378  3.77  0.  0.
379  3.78  0.  0.
380  3.79  0.  0.
381  3.80  0.  0.
382  3.81  0.  0.
383  3.82  0.  0.
384  3.83  0.  0.
385  3.84  0.  0.
386  3.85  0.  0.
387  3.86  0.  0.
388  3.87  0.  0.
389  3.88  0.  0.
390  3.89  0.  0.
391  3.90  0.  0.
392  3.91  0.  0.
393  3.92  0.  0.
394  3.93  0.  0.
395  3.94  0.  0.
396  3.95  0.  0.
397  3.96  0.  0.
398  3.97  0.  0.
399  3.98  0.  0.
400  3.99  0.  0.
401  4.00  0.  0.
402  4.01  0.  0.
403  4.02  0.  0.
404  4.03  0.  0.
405  4.04  0.  0.
406  4.05  0.  0.
407  4.06  0.  0.
408  4.07  0.  0.
409  4.08  0.  0.
410  4.09  0.  0.
411  4.10  0.  0.
412  4.11  0.  0.
413  4.12  0.  0.
414  4.13  0.  0.
415  4.14  0.  0.
416  4.15  0.  0.
417  4.16  0.  0.
418  4.17  0.  0.
419  4.18  0.  0.
420  4.19  0.  0.
421  4.20  0.  0.
422  4.21  0.  0.
423  4.22  0.  0.
424  4.23  0.  0.
425  4.24  0.  0.
426  4.25  0.  0.
427  4.26  0.  0.
428  4.27  0.  0.
429  4.28  0.  0.
430  4.29  0.  0.
431  4.30  0.  0.
432  4.31  0.  0.
433  4.32  0.  0.
434  4.33  0.  0.
435  4.34  0.  0.
436  4.35  0.  0.
437  4.36  0.  0.
438  4.37  0.  0.
439  4.38  0.  0.
440  4.39  0.  0.
441  4.40  0.  0.
442  4.41  0.  0.
443  4.42  0.  0.
444  4.43  0.  0.
445  4.44  0.  0.
446  4.45  0.  0.
447  4.46  0.  0.
448  4.47  0.  0.
449  4.48  0.  0.
450  4.49  0.  0.
451  4.50  0.  0.
452  4.51  0.  0.
453  4.52  0.  0.
454  4.53  0.  0.
455  4.54  0.  0.
456  4.55  0.  0.
457  4.56  0.  0.
458  4.57  0.  0.
459  4.58  0.  0.
460  4.59  0.  0.
461  4.60  0.  0.
462  4.61  0.  0.
463  4.62  0.  0.
464  4.63  0.  0.
465  4.64  0.  0.
466  4.65  0.  0.
467  4.66  0.  0.
468  4.67  0.  0.
469  4.68  0.  0.
470  4.69  0.  0.
471  4.70  0.  0.
472  4.71  0.  0.
473  4.72  0.  0.
474  4.73  0.  0.
475  4.74  0.  0.
476  4.75  0.  0.
477  4.76  0.  0.
478  4.77  0.  0.
479  4.78  0.  0.
480  4.79  0.  0.
481  4.80  0.  0.
482  4.81  0.  0.
483  4.82  0.  0.
484  4.83  0.  0.
485  4.84  0.  0.
486  4.85  0.  0.
487  4.86  0.  0.
488  4.87  0.  0.
489  4.88  0.  0.
490  4.89  0.  0.
491  4.90  0.  0.
492  4.91  0.  0.
493  4.92  0.  0.
494  4.93  0.  0.
495  4.94  0.  0.
496  4.95  0.  0.
497  4.96  0.  0.
498  4.97  0.  0.
499  4.98  0.  0.
500  4.99  0.  0.
501  5.00  0.  0.
502  5.01  0.  0.
503  5.02  0.  0.
504  5.03  0.  0.
505  5.04  0.  0.
506  5.05  0.  0.
507  5.06  0.  0.
508  5.07  0.  0.
509  5.08  0.  0.
510  5.09  0.  0.
511  5.10  0.  0.
512  5.11  0.  0.
513  5.12  0.  0.
514  5.13  0.  0.
515  5.14  0.  0.
516  5.15  0.  0.
517  5.16  0.  0.
518  5.17  0.  0.
519  5.18  0.  0.
520  5.19  0.  0.
521  5.20  0.  0.
522  5.21  0.  0.
523  5.22  0.  0.
524  5.23  0.  0.
525  5.24  0.  0.
526  5.25  0.  0.
527  5.26  0.  0.
528  5.27  0.  0.
529  5.28  0.  0.
530  5.29  0.  0.
531  5.30  0.  0.
532  5.31  0.  0.
533  5.32  0.  0.
534  5.33  0.  0.
535  5.34  0.  0.
536  5.35  0.  0.
537  5.36  0.  0.
538  5.37  0.  0.
539  5.38  0.  0.
540  5.39  0.  0.
541  5.40  0.  0.
542  5.41  0.  0.
543  5.42  0.  0.
544  5.43  0.  0.
545  5.44  0.  0.
546  5.45  0.  0.
547  5.46  0.  0.
548  5.47  0.  0.
549  5.48  0.  0.
550  5.49  0.  0.
551  5.50  0.  0.
552  5.51  0.  0.
553  5.52  0.  0.
554  5.53  0.  0.
555  5.54  0.  0.
556  5.55  0.  0.
557  5.56  0.  0.
558  5.57  0.  0.
559  5.58  0.  0.
560  5.59  0.  0.
561  5.60  0.  0.
562  5.61  0.  0.
563  5.62  0.  0.
564  5.63  0.  0.
565  5.64  0.  0.
566  5.65  0.  0.
567  5.66  0.  0.
568  5.67  0.  0.
569  5.68  0.  0.
570  5.69  0.  0.
571  5.70  0.  0.
572  5.71  0.  0.
573  5.72  0.  0.
574  5.73  0.  0.
575  5.74  0.  0.
576  5.75  0.  0.
577  5.76  0.  0.
578  5.77  0.  0.
579  5.78  0.  0.
580  5.79  0.  0.
581  5.80  0.  0.
582  5.81  0.  0.
583  5.82  0.  0.
584  5.83  0.  0.
585  5.84  0.  0.
586  5.85  0.  0.
587  5.86  0.  0.
588  5.87  0.  0.
589  5.88  0.  0.
590  5.89  0.  0.
591  5.90  0.  0.
592  5.91  0.  0.
593  5.92  0.  0.
594  5.93  0.  0.
595  5.94  0.  0.
596  5.95  0.  0.
597  5.96  0.  0.
598  5.97  0.  0.
599  5.98  0.  0.
600  5.99  0.  0.
1                         1.5519364459642E+01  2.4954433541490E+00  1.1557795511553E-01
1  0.0000000000000E+00 -3.3492340706376E-09  1.1956365307542E-08 -3.3149763933871E-08
2  1.0000000000000E-02  1.3255605742823E-03 -9.0296990971798E-04  2.1847705405501E-03
3  2.0000000000000E-02  5.3010478373801E-03 -3.6134791542151E-03  8.7390224971825E-03
4  3.0000000000000E-02  1.1922804283170E-02 -8.1360863893820E-03  1.9661975316209E-02
5  4.0000000000000E-02  2.1184489051425E-02 -1.4477597308861E-02  3.4950343939646E-02
6  5.0000000000000E-02  3.3076717606626E-02 -2.2645902826253E-02  5.4595435734036E-02
7  6.0000000000000E-02  4.7586571512377E-02 -3.2648404359786E-02  7.8579230385891E-02
8  7.0000000000000E-02  6.4696992101824E-02 -4.4490076357046E-02  1.0686958218477E-01
9  8.0000000000000E-02  8.4386075193664E-02 -5.8171228153705E-02  1.3941471726481E-01
10  9.0000000000000E-02  1.0662628692744E-01 -7.3685037523891E-02  1.7613722674236E-01
11  1.0000000000000E-01  1.3138362321778E-01 -9.1014936565130E-02  2.1692777946033E-01
12  1.1000000000000E-01  1.5861673719483E-01 -1.1013193663305E-01  2.6163879455745E-01
13  1.2000000000000E-01  1.8827606026003E-01 -1.3099198272244E-01  3.1007832381111E-01
14  1.3000000000000E-01  2.2030294301121E-01 -1.5353342886630E-01  3.6200439631559E-01
15  1.4000000000000E-01  2.5462884226205E-01 -1.7767472474279E-01  4.1712007339720E-01
16  1.5000000000000E-01  2.9117457969847E-01 -2.0331239975740E-01  4.7506944976186E-01
17  1.6000000000000E-01  3.2984969639478E-01 -2.3031942448920E-01  5.3543481794044E-01
18  1.7000000000000E-01  3.7055192548709E-01 -2.5854402070238E-01  5.9773518754297E-01
19  1.8000000000000E-01  4.1316680281852E-01 -2.8780898034077E-01  6.6142631923534E-01
20  1.9000000000000E-01  4.5756743239061E-01 -3.1791154130987E-01  7.2590239645401E-01
21  2.0000000000000E-01  5.0361442005277E-01 -3.4862385372835E-01  7.9049941656382E-01
22  2.1000000000000E-01  5.5115598512034E-01 -3.7969405505994E-01  8.5450033845849E-01
23  2.2000000000000E-01  6.0002825562609E-01 -4.1084795651432E-01  9.1714197661845E-01
24  2.3000000000000E-01  6.5005574877930E-01 -4.4179132675145E-01  9.7762358357024E-01
25  2.4000000000000E-01  7.0105203403392E-01 -4.7221274267235E-01  1.0351170147753E+00
26  2.5000000000000E-01  7.5282057205953E-01 -5.0178696136719E-01  1.0887783234659E+00
27  2.6000000000000E-01  8.0515571896739E-01 -5.3017875254612E-01  1.1377605890869E+00
28  2.7000000000000E-01  8.5784388147063E-01 -5.5704711740712E-01  1.1812277429777E+00
29  2.8000000000000E-01  9.1066480534425E-01 -5.8204980827566E-01  1.2183691198639E+00
30  2.9000000000000E-01  9.6339297668198E-01 -6.0484805381720E-01  1.2484144346221E+00
31  3.0000000000000E-01  1.0157991130959E+00 -6.2511138746130E-01  1.2706488615108E+00
32  3.1000000000000E-01  1.0676517202303E+00 -6.4252247211014E-01  1.2844278783388E+00
33  3.2000000000000E-01  1.1187186878097E+00 -6.5678181239498E-01  1.2891915314123E+00
34  3.3000000000000E-01  1.1687688989380E+00 -6.6761224677993E-01  1.2844777788878E+00
35  3.4000000000000E-01  1.2175738265250E+00 -6.7476311570805E-01  1.2699345805154E+00
36  3.5000000000000E-01  1.2649090915347E+00 -6.7801400867779E-01  1.2453304205837E+00
37  3.6000000000000E-01  1.3105559591917E+00 -6.7717800249093E-01  1.2105629778868E+00
38  3.7000000000000E-01  1.3543027513256E+00 -6.7210431471503E-01  1.1656656912193E+00
39  3.8000000000000E-01  1.3959461555999E+00 -6.6268031037355E-01  1.1108120105416E+00
40  3.9000000000000E-01  1.4352924154097E+00 -6.4883281567172E-01  1.0463171716570E+00
41  4.0000000000000E-01  1.4721583876401E+00 -6.3052870978889E-01  9.7263738492791E-01
42  4.1000000000000E-01  1.5063724591708E+00 -6.0777478397249E-01  8.9036638501421E-01
43  4.2000000000000E-01  1.5377753168767E+00 -5.8061687588018E-01  8.0022934751631E-01
44  4.3000000000000E-01  1.5662205698139E+00 -5.4913830583264E-01  7.0307423832864E-01
45  4.4000000000000E-01  1.5915752261603E+00 -5.1345765985206E-01  5.9986072099064E-01
46  4.5000000000000E-01  1.6137200312156E+00 -4.7372598156627E-01  4.9164680488244E-01
47  4.6000000000000E-01  1.6325496762181E+00 -4.3012345076806E-01  3.7957347129556E-01
48  4.7000000000000E-01  1.6479728908285E+00 -3.8285564018009E-01  2.6484756381870E-01
49  4.8000000000000E-01  1.6599124347514E+00 -3.3214945337628E-01  1.4872327281929E-01
50  4.9000000000000E-01  1.6683050060453E+00 -2.7824885549865E-01  3.2482579909715E-02
51  5.0000000000000E-01  1.6731010851368E+00 -2.2141051409623E-01 -8.2584943837333E-02
52  5.1000000000000E-01  1.6742647343620E+00 -1.6189946989258E-01 -1.9520257332194E-01
53  5.2000000000000E-01  1.6717733729696E+00 -9.9984956432951E-02 -3.0412667668426E-01
54  5.3000000000000E-01  1.6656175469346E+00 -3.5936483336671E-02 -4.0816635335952E-01
55  5.4000000000000E-01  1.6558007116460E+00  2.9979709660341E-02 -5.0620205272502E-01
56  5.5000000000000E-01  1.6423390435900E+00  9.7503731394506E-02 -5.9720278392931E-01
57  5.6000000000000E-01  1.6252612945925E+00  1.6638456785064E-01 -6.8024155780324E-01
58  5.7000000000000E-01  1.6046086990845E+00  2.3638199401593E-01 -7.5450874093910E-01
59  5.8000000000000E-01  1.5804349412992E+00  3.0726782083545E-01 -8.1932304919237E-01
60  5.9000000000000E-01  1.5528061854044E+00  3.7882644924826E-01 -8.7413996190790E-01
61  6.0000000000000E-01  1.5218011674297E+00  4.5085472462879E-01 -9.1855739780434E-01
62  6.1000000000000E-01  1.4875113435954E+00  5.2316110691591E-01 -9.5231855721614E-01
63  6.2000000000000E-01  1.4500410854214E+00  5.9556419367398E-01 -9.7531190170684E-01
64  6.3000000000000E-01  1.4095079079228E+00  6.6789065467346E-01 -9.8756830928660E-01
65  6.4000000000000E-01  1.3660427134233E+00  7.3997265668410E-01 -9.8925550987172E-01
66  6.5000000000000E-01  1.3197900301630E+00  8.1164487543988E-01 -9.8066996953623E-01
67  6.6000000000000E-01  1.2709082220746E+00  8.8274120759955E-01 -9.6222645185946E-01
68  6.7000000000000E-01  1.2195696439496E+00  9.5309130847854E-01 -9.3444553872841E-01
69  6.8000000000000E-01  1.1659607148185E+00  1.0225170909246E+00 -8.9793943987333E-01
70  6.9000000000000E-01  1.1102818817972E+00  1.0908293265915E+00 -8.5339645896179E-01
71  7.0000000000000E-01  1.0527474469556E+00  1.1578244927669E+00 -8.0156451320870E-01
72  7.1000000000000E-01  9.9358523098689E-01  1.2232820056661E+00 -7.4323412237331E-01
73  7.2000000000000E-01  9.3303604958334E-01  1.2869619746690E+00 -6.7922129118337E-01
74  7.3000000000000E-01  8.7135298146011E-01  1.3486036014033E+00 -6.1035070638549E-01
75  7.4000000000000E-01  8.0880041083960E-01  1.4079243330568E+00 -5.3743965581398E-01
76  7.5000000000000E-01  7.4565283186608E-01  1.4646198611116E+00 -4.6128305242228E-01
77  7.6000000000000E-01  6.8219340775162E-01  1.5183650352467E+00 -3.8263991174558E-01
78  7.7000000000000E-01  6.1871228334739E-01  1.5688157379423E+00 -3.0222158766279E-01
79  7.8000000000000E-01  5.5550465614897E-01  1.6156117389386E+00 -2.2068201972204E-01
80  7.9000000000000E-01  4.9286861732516E-01  1.6583805208016E+00 -1.3861018707803E-01
81  8.0000000000000E-01  4.3110278103830E-01  1.6967420381678E+00 -5.6524900798506E-02
82  8.1000000000000E-01  3.7050372692548E-01  1.7303143445276E+00  2.5128000351344E-02
83  8.2000000000000E-01  3.1136328695248E-01  1.7587199924448E+00  1.0597605373855E-01
84  8.3000000000000E-01  2.5396571375787E-01  1.7815930866873E+00  1.8571824728236E-01
85  8.4000000000000E-01  1.9858477289956E-01  1.7985868456088E+00  2.6412090114250E-01
86  8.5000000000000E-01  1.4548080593770E-01  1.8093815049984E+00  3.4101155503804E-01
87  8.6000000000000E-01  9.4897814889403E-02  1.8136923811472E+00  4.1627111550739E-01
88  8.7000000000000E-01  4.7060621144606E-02  1.8112778966514E+00  4.8982456603781E-01
89  8.8000000000000E-01  2.1721533348283E-03  1.8019473639328E+00  5.6163058289301E-01
90  8.9000000000000E-01 -3.9589081178253E-02  1.7855683179871E+00  6.3167042947579E-01
91  9.0000000000000E-01 -7.8071287627289E-02  1.7620731916757E+00  6.9993652128998E-01
92  9.1000000000000E-01 -1.1315138679824E-01  1.7314651340724E+00  7.6642106138502E-01
93  9.2000000000000E-01 -1.4473668210568E-01  1.6938227849010E+00  8.3110514229837E-01
94  9.3000000000000E-01 -1.7276614814561E-01  1.6493038357719E+00  8.9394869495575E-01
95  9.4000000000000E-01 -1.9721130410309E-01  1.5981472314205E+00  9.5488163811694E-01
96  9.5000000000000E-01 -2.1807664242786E-01  1.5406738909950E+00  1.0137965444054E+00
97  9.6000000000000E-01 -2.3539959110368E-01  1.4772858600599E+00  1.0705430917211E+00
98  9.7000000000000E-01 -2.4924999645577E-01  1.4084638376676E+00  1.1249245131430E+00
99  9.8000000000000E-01 -2.5972912257542E-01  1.3347630588253E+00  1.1766961957531E+00
100  9.9000000000000E-01 -2.6696817288105E-01  1.2568075500649E+00  1.2255665108865E+00
101  1.0000000000000E+00 -2.7112634885968E-01  1.1752828136989E+00  1.2711998869650E+00
102  1.0100000000000E+00 -2.7238847041517E-01  1.0909270337614E+00  1.3132220632836E+00
103  1.0200000000000E+00 -2.7096219126464E-01  1.0045209326504E+00  1.3512273908877E+00
104  1.0300000000000E+00 -2.6707485124048E-01  9.1687644113310E-01  1.3847879770851E+00
105  1.0400000000000E+00 -2.6097001496655E-01  8.2882437479191E-01  1.4134644051213E+00
106  1.0500000000000E+00 -2.5290375299202E-01  7.4120133635774E-01  1.4368177019139E+00
107  1.0600000000000E+00 -2.4314072689525E-01  6.5483608491734E-01  1.4544221763435E+00
108  1.0700000000000E+00 -2.3195014398580E-01  5.7053562914305E-01  1.4658787097488E+00
109  1.0800000000000E+00 -2.1960164990330E-01  4.8907131192989E-01  1.4708280503259E+00
110  1.0900000000000E+00 -2.0636122856470E-01  4.1116515782721E-01  1.4689636450037E+00
111  1.1000000000000E+00 -1.9248717849458E-01  3.3747675219804E-01  1.4600435366643E+00
112  1.1100000000000E+00 -1.7822623258910E-01  2.6859091214816E-01  1.4439008616056E+00
113  1.1200000000000E+00 -1.6380988482944E-01  2.0500639399732E-01  1.4204525018922E+00
114  1.1300000000000E+00 -1.4945098246791E-01  1.4712586081755E-01  1.3897054791951E+00
115  1.1400000000000E+00 -1.3534063545154E-01  9.5247304819376E-02  1.3517607177054E+00
116  1.1500000000000E+00 -1.2164549374747E-01  4.9557119193243E-02  1.3068139011280E+00
117  1.1600000000000E+00 -1.0850546771037E-01  1.0125144517942E-02  1.2551534353249E+00
118  1.1700000000000E+00 -9.6033798744023E-02 -2.3089150284829E-02  1.1971679593602E+00
119  1.1800000000000E+00 -8.4319577088970E-02 -5.0220439231939E-02  1.1333637076024E+00
120  1.1900000000000E+00 -7.3428645073250E-02 -7.1491267039680E-02  1.0643645287947E+00
121  1.2000000000000E+00 -6.3404382339439E-02 -8.7206970898467E-02  9.9090499122463E-01
122  1.2100000000000E+00 -5.4268929958314E-02 -9.7748857115217E-02  9.1382059181048E-01
123  1.2200000000000E+00 -4.6024819613818E-02 -1.0356577967649E-01  8.3403522715592E-01
124  1.2300000000000E+00 -3.8656969668283E-02 -1.0516428212700E-01  7.5254618851187E-01
125  1.2400000000000E+00 -3.2135000805135E-02 -1.0309750280171E-01  6.7040700318973E-01
126  1.2500000000000E+00 -2.6415816843116E-02 -9.7953072709387E-02  5.8870850470785E-01
127  1.2600000000000E+00 -2.1446390331009E-02 -9.0340260051649E-02  5.0855856299729E-01
128  1.2700000000000E+00 -1.7166687851950E-02 -8.0876634558694E-02  4.3106094465323E-01
129  1.2800000000000E+00 -1.3512661140812E-02 -7.0174551499668E-02  3.5729380019851E-01
130  1.2900000000000E+00 -1.0419285990755E-02 -5.8827621676013E-02  2.8828827858804E-01
131  1.3000000000000E+00 -7.8233484825419E-03 -4.7398019926941E-02  2.2500779856365E-01
132  1.3100000000000E+00 -5.6731010849587E-03 -3.6387481456856E-02  1.6832896096862E-01
133  1.3200000000000E+00 -3.9283477881877E-03 -2.6232255830449E-02  1.1903205055577E-01
134  1.3300000000000E+00 -2.5388312878446E-03 -1.7350838465664E-02  7.7781130699727E-02
135  1.3400000000000E+00 -1.4667293889679E-03 -1.0084579942675E-02  4.5086062276794E-02