Lv    ONCVPSP-4.0.1  r_core=   1.40419   1.35469   1.30693   1.50870
116.0000     24.0000      231012    zatom,zion,pspd
8 -116133   3     4   600     0    pspcod,pspxc,lmax,lloc,mmax,r2well
5.99000000  5.00000000  0.00000000    rchrg fchrg qchrg
2     2     2     1     0    nproj
1     1           extension_switch
0                         2.0087290228020E+01  2.7122145511678E+00
1  0.0000000000000E+00  1.3716842661715E-09 -4.0620308019990E-09
2  1.0000000000000E-02  5.8469022582473E-02 -3.3499879153939E-03
3  2.0000000000000E-02  1.1693633073543E-01 -6.8593223186170E-03
4  3.0000000000000E-02  1.7539881505732E-01 -1.0683679367133E-02
5  4.0000000000000E-02  2.3385059896004E-01 -1.4971456604976E-02
6  5.0000000000000E-02  2.9228171161205E-01 -1.9860287712527E-02
7  6.0000000000000E-02  3.5067682772967E-01 -2.5473739169936E-02
8  7.0000000000000E-02  4.0901409485839E-01 -3.1918244604112E-02
9  8.0000000000000E-02  4.6726406741389E-01 -3.9280328527177E-02
10  9.0000000000000E-02  5.2538876508124E-01 -4.7624166232499E-02
11  1.0000000000000E-01  5.8334087122698E-01 -5.6989520880060E-02
12  1.1000000000000E-01  6.4106308479497E-01 -6.7390092377039E-02
13  1.2000000000000E-01  6.9848763676971E-01 -7.8812305655872E-02
14  1.3000000000000E-01  7.5553597973860E-01 -9.1214558493964E-02
15  1.4000000000000E-01  8.1211865641088E-01 -1.0452694123933E-01
16  1.5000000000000E-01  8.6813535019902E-01 -1.1865143284184E-01
17  1.6000000000000E-01  9.2347511818364E-01 -1.3346256958232E-01
18  1.7000000000000E-01  9.7801680401199E-01 -1.4880857498304E-01
19  1.8000000000000E-01  1.0316296255675E+00 -1.6451293171406E-01
20  1.9000000000000E-01  1.0841739296384E+00 -1.8037636901628E-01
21  2.0000000000000E-01  1.1355021033505E+00 -1.9617923237353E-01
22  2.1000000000000E-01  1.1854596298502E+00 -2.1168419600291E-01
23  2.2000000000000E-01  1.2338862736671E+00 -2.2663927330353E-01
24  2.3000000000000E-01  1.2806173793864E+00 -2.4078107580506E-01
25  2.4000000000000E-01  1.3254852657375E+00 -2.5383826746736E-01
26  2.5000000000000E-01  1.3683206959929E+00 -2.6553515846635E-01
27  2.6000000000000E-01  1.4089544046786E+00 -2.7559538090173E-01
28  2.7000000000000E-01  1.4472186600368E+00 -2.8374558820682E-01
29  2.8000000000000E-01  1.4829488414607E+00 -2.8971912043339E-01
30  2.9000000000000E-01  1.5159850112397E+00 -2.9325957901287E-01
31  3.0000000000000E-01  1.5461734603986E+00 -2.9412425702320E-01
32  3.1000000000000E-01  1.5733682091814E+00 -2.9208737436592E-01
33  3.2000000000000E-01  1.5974324437925E+00 -2.8694307150799E-01
34  3.3000000000000E-01  1.6182398723458E+00 -2.7850812047760E-01
35  3.4000000000000E-01  1.6356759845568E+00 -2.6662431751923E-01
36  3.5000000000000E-01  1.6496392015049E+00 -2.5116052809078E-01
37  3.6000000000000E-01  1.6600419037609E+00 -2.3201436159570E-01
38  3.7000000000000E-01  1.6668113282783E+00 -2.0911346024813E-01
39  3.8000000000000E-01  1.6698903266373E+00 -1.8241639362363E-01
40  3.9000000000000E-01  1.6692379794703E+00 -1.5191315760701E-01
41  4.0000000000000E-01  1.6648300641418E+00 -1.1762528346313E-01
42  4.1000000000000E-01  1.6566593749569E+00 -7.9605569485400E-02
43  4.2000000000000E-01  1.6447358972906E+00 -3.7937453980056E-02
44  4.3000000000000E-01  1.6290868390288E+00  7.2659459031582E-03
45  4.4000000000000E-01  1.6097565245495E+00  5.5863099898837E-02
46  4.5000000000000E-01  1.5868061581154E+00  1.0768560100176E-01
47  4.6000000000000E-01  1.5603134649787E+00  1.6253993511607E-01
48  4.7000000000000E-01  1.5303722196784E+00  2.2020944405719E-01
49  4.8000000000000E-01  1.4970916719377E+00  2.8045644040018E-01
50  4.9000000000000E-01  1.4605958812205E+00  3.4302443206627E-01
51  5.0000000000000E-01  1.4210229713874E+00  4.0764041492010E-01
52  5.1000000000000E-01  1.3785243169990E+00  4.7401719299058E-01
53  5.2000000000000E-01  1.3332636726588E+00  5.4185568818282E-01
54  5.3000000000000E-01  1.2854162563881E+00  6.1084720445025E-01
55  5.4000000000000E-01  1.2351677973909E+00  6.8067561525716E-01
56  5.5000000000000E-01  1.1827135577413E+00  7.5101944767706E-01
57  5.6000000000000E-01  1.1282573365227E+00  8.2155384151884E-01
58  5.7000000000000E-01  1.0720104638164E+00  8.9195236731683E-01
59  5.8000000000000E-01  1.0141907907087E+00  9.6188869271524E-01
60  5.9000000000000E-01  9.5502168019697E-01  1.0310380925713E+00
61  6.0000000000000E-01  8.9473100258347E-01  1.0990788038370E+00
62  6.1000000000000E-01  8.3355013767174E-01  1.1656932318038E+00
63  6.2000000000000E-01  7.7171298488400E-01  1.2305690194532E+00
64  6.3000000000000E-01  7.0945498132697E-01  1.2933999963097E+00
65  6.4000000000000E-01  6.4701212688809E-01  1.3538870272051E+00
66  6.5000000000000E-01  5.8462001467618E-01  1.4117387846217E+00
67  6.6000000000000E-01  5.2251286455580E-01  1.4666724706859E+00
68  6.7000000000000E-01  4.6092255718608E-01  1.5184145163554E+00
69  6.8000000000000E-01  4.0007766587612E-01  1.5667012858294E+00
70  6.9000000000000E-01  3.4020248371975E-01  1.6112798136830E+00
71  7.0000000000000E-01  2.8151604387209E-01  1.6519086006781E+00
72  7.1000000000000E-01  2.2423113147419E-01  1.6883584916598E+00
73  7.2000000000000E-01  1.6855328660443E-01  1.7204136554623E+00
74  7.3000000000000E-01  1.1467979871734E-01  1.7478726823900E+00
75  7.4000000000000E-01  6.2798694292574E-02  1.7705498097167E+00
76  7.5000000000000E-01  1.3087720826682E-02  1.7882762798807E+00
77  7.6000000000000E-01 -3.4286668182791E-02  1.8009018297831E+00
78  7.7000000000000E-01 -7.9170321029966E-02  1.8082963029917E+00
79  7.8000000000000E-01 -1.2142238054179E-01  1.8103513698796E+00
80  7.9000000000000E-01 -1.6091625237514E-01  1.8069823339673E+00
81  8.0000000000000E-01 -1.9754053799748E-01  1.7981299961898E+00
82  8.1000000000000E-01 -2.3119992013347E-01  1.7837625426435E+00
83  8.2000000000000E-01 -2.6181598729922E-01  1.7638774157866E+00
84  8.3000000000000E-01 -2.8932798311538E-01  1.7385031242289E+00
85  8.4000000000000E-01 -3.1369346543258E-01  1.7077009423202E+00
86  8.5000000000000E-01 -3.3488885995495E-01  1.6715664478756E+00
87  8.6000000000000E-01 -3.5290989303943E-01  1.6302308446728E+00
88  8.7000000000000E-01 -3.6777188870401E-01  1.5838620159270E+00
89  8.8000000000000E-01 -3.7950991561120E-01  1.5326652558495E+00
90  8.9000000000000E-01 -3.8817877091030E-01  1.4768836286698E+00
91  9.0000000000000E-01 -3.9385278931922E-01  1.4167979081454E+00
92  9.1000000000000E-01 -3.9662546769150E-01  1.3527260555742E+00
93  9.2000000000000E-01 -3.9660889752395E-01  1.2850222005899E+00
94  9.3000000000000E-01 -3.9393300038282E-01  1.2140750964724E+00
95  9.4000000000000E-01 -3.8874456402175E-01  1.1403060302106E+00
96  9.5000000000000E-01 -3.8120607998358E-01  1.0641661769549E+00
97  9.6000000000000E-01 -3.7149438666532E-01  9.8613339861787E-01
98  9.7000000000000E-01 -3.5979912511800E-01  9.0670849700399E-01
99  9.8000000000000E-01 -3.4632101818645E-01  8.2641094276806E-01
100  9.9000000000000E-01 -3.3126998689566E-01  7.4577411246435E-01
101  1.0000000000000E+00 -3.1486312119061E-01  6.6534007672199E-01
102  1.0100000000000E+00 -2.9732252516210E-01  5.8565399291624E-01
103  1.0200000000000E+00 -2.7887305967433E-01  5.0725816536212E-01
104  1.0300000000000E+00 -2.5974000777999E-01  4.3068584479615E-01
105  1.0400000000000E+00 -2.4014669040596E-01  3.5645484652175E-01
106  1.0500000000000E+00 -2.2031206146299E-01  2.8506107287978E-01
107  1.0600000000000E+00 -2.0044831272206E-01  2.1697203048138E-01
108  1.0700000000000E+00 -1.8075851947771E-01  1.5262043578126E-01
109  1.0800000000000E+00 -1.6143435814775E-01  9.2398003950107E-02
110  1.0900000000000E+00 -1.4265392652976E-01  3.6649515567277E-02
111  1.1000000000000E+00 -1.2457969643213E-01 -1.4332746653199E-02
112  1.1100000000000E+00 -1.0735662683908E-01 -6.0314103035052E-02
113  1.1200000000000E+00 -9.1110463658997E-02 -1.0112204191298E-01
114  1.1300000000000E+00 -7.5946249489437E-02 -1.3665016997466E-01
115  1.1400000000000E+00 -6.1947063328950E-02 -1.6686148460812E-01
116  1.1500000000000E+00 -4.9173013567902E-02 -1.9179088481125E-01
117  1.1600000000000E+00 -3.7660539991521E-02 -2.1154668553499E-01
118  1.1700000000000E+00 -2.7424017867372E-02 -2.2630232105047E-01
119  1.1800000000000E+00 -1.8459451080309E-02 -2.3627981573579E-01
120  1.1900000000000E+00 -1.0745866611331E-02 -2.4174455127628E-01
121  1.2000000000000E+00 -4.2462829417416E-03 -2.4300233318421E-01
122  1.2100000000000E+00  1.0911024069336E-03 -2.4039577541246E-01
123  1.2200000000000E+00  5.3315245445849E-03 -2.3430006173919E-01
124  1.2300000000000E+00  8.5520790696442E-03 -2.2511813217529E-01
125  1.2400000000000E+00  1.0839987511457E-02 -2.1327535862366E-01
126  1.2500000000000E+00  1.2290724752425E-02 -1.9921378392358E-01
127  1.2600000000000E+00  1.3006035558621E-02 -1.8338600768264E-01
128  1.2700000000000E+00  1.3091869660115E-02 -1.6624881021829E-01
129  1.2800000000000E+00  1.2656266654344E-02 -1.4825661231348E-01
130  1.2900000000000E+00  1.1807223288687E-02 -1.2985487307204E-01
131  1.3000000000000E+00  1.0650576412952E-02 -1.1147353096172E-01
132  1.3100000000000E+00  9.2879393200090E-03 -9.3520608068089E-02
133  1.3200000000000E+00  7.8146791054634E-03 -7.6375934815601E-02
134  1.3300000000000E+00  6.3181772650909E-03 -6.0385777476531E-02
135  1.3400000000000E+00  4.8725358972373E-03 -4.5845822652616E-02
136  1.3500000000000E+00  3.5341713871461E-03 -3.2986273665376E-02
137  1.3600000000000E+00  2.3634506274540E-03 -2.2043475004356E-02
138  1.3700000000000E+00  1.4060901859273E-03 -1.3200492068553E-02
139  1.3800000000000E+00  6.9120348433590E-04 -6.5809065251719E-03
140  1.3900000000000E+00  2.2987060625752E-04 -2.2370653622890E-03
141  1.4000000000000E+00  2.2742109532268E-05 -2.2856107623735E-04
142  1.4100000000000E+00 -2.4075604661399E-06  2.4707187135164E-05
143  1.4200000000000E+00  3.9177687853773E-07 -3.9541351399675E-06
144  1.43 -0.  0.
145  1.44  0.  0.
146  1.45  0.  0.
147  1.46  0.  0.
148  1.47  0.  0.
149  1.48  0.  0.
150  1.49  0.  0.
151  1.50  0.  0.
152  1.51  0.  0.
153  1.52  0.  0.
154  1.53  0.  0.
155  1.54  0.  0.
156  1.55  0.  0.
157  1.56  0.  0.
158  1.57  0.  0.
159  1.58  0.  0.
160  1.59  0.  0.
161  1.60  0.  0.
162  1.61  0.  0.
163  1.62  0.  0.
164  1.63  0.  0.
165  1.64  0.  0.
166  1.65  0.  0.
167  1.66  0.  0.
168  1.67  0.  0.
169  1.68  0.  0.
170  1.69  0.  0.
171  1.70  0.  0.
172  1.71  0.  0.
173  1.72  0.  0.
174  1.73  0.  0.
175  1.74  0.  0.
176  1.75  0.  0.
177  1.76  0.  0.
178  1.77  0.  0.
179  1.78  0.  0.
180  1.79  0.  0.
181  1.80  0.  0.
182  1.81  0.  0.
183  1.82  0.  0.
184  1.83  0.  0.
185  1.84  0.  0.
186  1.85  0.  0.
187  1.86  0.  0.
188  1.87  0.  0.
189  1.88  0.  0.
190  1.89  0.  0.
191  1.90  0.  0.
192  1.91  0.  0.
193  1.92  0.  0.
194  1.93  0.  0.
195  1.94  0.  0.
196  1.95  0.  0.
197  1.96  0.  0.
198  1.97  0.  0.
199  1.98  0.  0.
200  1.99  0.  0.
201  2.00  0.  0.
202  2.01  0.  0.
203  2.02  0.  0.
204  2.03  0.  0.
205  2.04  0.  0.
206  2.05  0.  0.
207  2.06  0.  0.
208  2.07  0.  0.
209  2.08  0.  0.
210  2.09  0.  0.
211  2.10  0.  0.
212  2.11  0.  0.
213  2.12  0.  0.
214  2.13  0.  0.
215  2.14  0.  0.
216  2.15  0.  0.
217  2.16  0.  0.
218  2.17  0.  0.
219  2.18  0.  0.
220  2.19  0.  0.
221  2.20  0.  0.
222  2.21  0.  0.
223  2.22  0.  0.
224  2.23  0.  0.
225  2.24  0.  0.
226  2.25  0.  0.
227  2.26  0.  0.
228  2.27  0.  0.
229  2.28  0.  0.
230  2.29  0.  0.
231  2.30  0.  0.
232  2.31  0.  0.
233  2.32  0.  0.
234  2.33  0.  0.
235  2.34  0.  0.
236  2.35  0.  0.
237  2.36  0.  0.
238  2.37  0.  0.
239  2.38  0.  0.
240  2.39  0.  0.
241  2.40  0.  0.
242  2.41  0.  0.
243  2.42  0.  0.
244  2.43  0.  0.
245  2.44  0.  0.
246  2.45  0.  0.
247  2.46  0.  0.
248  2.47  0.  0.
249  2.48  0.  0.
250  2.49  0.  0.
251  2.50  0.  0.
252  2.51  0.  0.
253  2.52  0.  0.
254  2.53  0.  0.
255  2.54  0.  0.
256  2.55  0.  0.
257  2.56  0.  0.
258  2.57  0.  0.
259  2.58  0.  0.
260  2.59  0.  0.
261  2.60  0.  0.
262  2.61  0.  0.
263  2.62  0.  0.
264  2.63  0.  0.
265  2.64  0.  0.
266  2.65  0.  0.
267  2.66  0.  0.
268  2.67  0.  0.
269  2.68  0.  0.
270  2.69  0.  0.
271  2.70  0.  0.
272  2.71  0.  0.
273  2.72  0.  0.
274  2.73  0.  0.
275  2.74  0.  0.
276  2.75  0.  0.
277  2.76  0.  0.
278  2.77  0.  0.
279  2.78  0.  0.
280  2.79  0.  0.
281  2.80  0.  0.
282  2.81  0.  0.
283  2.82  0.  0.
284  2.83  0.  0.
285  2.84  0.  0.
286  2.85  0.  0.
287  2.86  0.  0.
288  2.87  0.  0.
289  2.88  0.  0.
290  2.89  0.  0.
291  2.90  0.  0.
292  2.91  0.  0.
293  2.92  0.  0.
294  2.93  0.  0.
295  2.94  0.  0.
296  2.95  0.  0.
297  2.96  0.  0.
298  2.97  0.  0.
299  2.98  0.  0.
300  2.99  0.  0.
301  3.00  0.  0.
302  3.01  0.  0.
303  3.02  0.  0.
304  3.03  0.  0.
305  3.04  0.  0.
306  3.05  0.  0.
307  3.06  0.  0.
308  3.07  0.  0.
309  3.08  0.  0.
310  3.09  0.  0.
311  3.10  0.  0.
312  3.11  0.  0.
313  3.12  0.  0.
314  3.13  0.  0.
315  3.14  0.  0.
316  3.15  0.  0.
317  3.16  0.  0.
318  3.17  0.  0.
319  3.18  0.  0.
320  3.19  0.  0.
321  3.20  0.  0.
322  3.21  0.  0.
323  3.22  0.  0.
324  3.23  0.  0.
325  3.24  0.  0.
326  3.25  0.  0.
327  3.26  0.  0.
328  3.27  0.  0.
329  3.28  0.  0.
330  3.29  0.  0.
331  3.30  0.  0.
332  3.31  0.  0.
333  3.32  0.  0.
334  3.33  0.  0.
335  3.34  0.  0.
336  3.35  0.  0.
337  3.36  0.  0.
338  3.37  0.  0.
339  3.38  0.  0.
340  3.39  0.  0.
341  3.40  0.  0.
342  3.41  0.  0.
343  3.42  0.  0.
344  3.43  0.  0.
345  3.44  0.  0.
346  3.45  0.  0.
347  3.46  0.  0.
348  3.47  0.  0.
349  3.48  0.  0.
350  3.49  0.  0.
351  3.50  0.  0.
352  3.51  0.  0.
353  3.52  0.  0.
354  3.53  0.  0.
355  3.54  0.  0.
356  3.55  0.  0.
357  3.56  0.  0.
358  3.57  0.  0.
359  3.58  0.  0.
360  3.59  0.  0.
361  3.60  0.  0.
362  3.61  0.  0.
363  3.62  0.  0.
364  3.63  0.  0.
365  3.64  0.  0.
366  3.65  0.  0.
367  3.66  0.  0.
368  3.67  0.  0.
369  3.68  0.  0.
370  3.69  0.  0.
371  3.70  0.  0.
372  3.71  0.  0.
373  3.72  0.  0.
374  3.73  0.  0.
375  3.74  0.  0.
376  3.75  0.  0.
377  3.76  0.  0.
378  3.77  0.  0.
379  3.78  0.  0.
380  3.79  0.  0.
381  3.80  0.  0.
382  3.81  0.  0.
383  3.82  0.  0.
384  3.83  0.  0.
385  3.84  0.  0.
386  3.85  0.  0.
387  3.86  0.  0.
388  3.87  0.  0.
389  3.88  0.  0.
390  3.89  0.  0.
391  3.90  0.  0.
392  3.91  0.  0.
393  3.92  0.  0.
394  3.93  0.  0.
395  3.94  0.  0.
396  3.95  0.  0.
397  3.96  0.  0.
398  3.97  0.  0.
399  3.98  0.  0.
400  3.99  0.  0.
401  4.00  0.  0.
402  4.01  0.  0.
403  4.02  0.  0.
404  4.03  0.  0.
405  4.04  0.  0.
406  4.05  0.  0.
407  4.06  0.  0.
408  4.07  0.  0.
409  4.08  0.  0.
410  4.09  0.  0.
411  4.10  0.  0.
412  4.11  0.  0.
413  4.12  0.  0.
414  4.13  0.  0.
415  4.14  0.  0.
416  4.15  0.  0.
417  4.16  0.  0.
418  4.17  0.  0.
419  4.18  0.  0.
420  4.19  0.  0.
421  4.20  0.  0.
422  4.21  0.  0.
423  4.22  0.  0.
424  4.23  0.  0.
425  4.24  0.  0.
426  4.25  0.  0.
427  4.26  0.  0.
428  4.27  0.  0.
429  4.28  0.  0.
430  4.29  0.  0.
431  4.30  0.  0.
432  4.31  0.  0.
433  4.32  0.  0.
434  4.33  0.  0.
435  4.34  0.  0.
436  4.35  0.  0.
437  4.36  0.  0.
438  4.37  0.  0.
439  4.38  0.  0.
440  4.39  0.  0.
441  4.40  0.  0.
442  4.41  0.  0.
443  4.42  0.  0.
444  4.43  0.  0.
445  4.44  0.  0.
446  4.45  0.  0.
447  4.46  0.  0.
448  4.47  0.  0.
449  4.48  0.  0.
450  4.49  0.  0.
451  4.50  0.  0.
452  4.51  0.  0.
453  4.52  0.  0.
454  4.53  0.  0.
455  4.54  0.  0.
456  4.55  0.  0.
457  4.56  0.  0.
458  4.57  0.  0.
459  4.58  0.  0.
460  4.59  0.  0.
461  4.60  0.  0.
462  4.61  0.  0.
463  4.62  0.  0.
464  4.63  0.  0.
465  4.64  0.  0.
466  4.65  0.  0.
467  4.66  0.  0.
468  4.67  0.  0.
469  4.68  0.  0.
470  4.69  0.  0.
471  4.70  0.  0.
472  4.71  0.  0.
473  4.72  0.  0.
474  4.73  0.  0.
475  4.74  0.  0.
476  4.75  0.  0.
477  4.76  0.  0.
478  4.77  0.  0.
479  4.78  0.  0.
480  4.79  0.  0.
481  4.80  0.  0.
482  4.81  0.  0.
483  4.82  0.  0.
484  4.83  0.  0.
485  4.84  0.  0.
486  4.85  0.  0.
487  4.86  0.  0.
488  4.87  0.  0.
489  4.88  0.  0.
490  4.89  0.  0.
491  4.90  0.  0.
492  4.91  0.  0.
493  4.92  0.  0.
494  4.93  0.  0.
495  4.94  0.  0.
496  4.95  0.  0.
497  4.96  0.  0.
498  4.97  0.  0.
499  4.98  0.  0.
500  4.99  0.  0.
501  5.00  0.  0.
502  5.01  0.  0.
503  5.02  0.  0.
504  5.03  0.  0.
505  5.04  0.  0.
506  5.05  0.  0.
507  5.06  0.  0.
508  5.07  0.  0.
509  5.08  0.  0.
510  5.09  0.  0.
511  5.10  0.  0.
512  5.11  0.  0.
513  5.12  0.  0.
514  5.13  0.  0.
515  5.14  0.  0.
516  5.15  0.  0.
517  5.16  0.  0.
518  5.17  0.  0.
519  5.18  0.  0.
520  5.19  0.  0.
521  5.20  0.  0.
522  5.21  0.  0.
523  5.22  0.  0.
524  5.23  0.  0.
525  5.24  0.  0.
526  5.25  0.  0.
527  5.26  0.  0.
528  5.27  0.  0.
529  5.28  0.  0.
530  5.29  0.  0.
531  5.30  0.  0.
532  5.31  0.  0.
533  5.32  0.  0.
534  5.33  0.  0.
535  5.34  0.  0.
536  5.35  0.  0.
537  5.36  0.  0.
538  5.37  0.  0.
539  5.38  0.  0.
540  5.39  0.  0.
541  5.40  0.  0.
542  5.41  0.  0.
543  5.42  0.  0.
544  5.43  0.  0.
545  5.44  0.  0.
546  5.45  0.  0.
547  5.46  0.  0.
548  5.47  0.  0.
549  5.48  0.  0.
550  5.49  0.  0.
551  5.50  0.  0.
552  5.51  0.  0.
553  5.52  0.  0.
554  5.53  0.  0.
555  5.54  0.  0.
556  5.55  0.  0.
557  5.56  0.  0.
558  5.57  0.  0.
559  5.58  0.  0.
560  5.59  0.  0.
561  5.60  0.  0.
562  5.61  0.  0.
563  5.62  0.  0.
564  5.63  0.  0.
565  5.64  0.  0.
566  5.65  0.  0.
567  5.66  0.  0.
568  5.67  0.  0.
569  5.68  0.  0.
570  5.69  0.  0.
571  5.70  0.  0.
572  5.71  0.  0.
573  5.72  0.  0.
574  5.73  0.  0.
575  5.74  0.  0.
576  5.75  0.  0.
577  5.76  0.  0.
578  5.77  0.  0.
579  5.78  0.  0.
580  5.79  0.  0.
581  5.80  0.  0.
582  5.81  0.  0.
583  5.82  0.  0.
584  5.83  0.  0.
585  5.84  0.  0.
586  5.85  0.  0.
587  5.86  0.  0.
588  5.87  0.  0.
589  5.88  0.  0.
590  5.89  0.  0.
591  5.90  0.  0.
592  5.91  0.  0.
593  5.92  0.  0.
594  5.93  0.  0.
595  5.94  0.  0.
596  5.95  0.  0.
597  5.96  0.  0.
598  5.97  0.  0.
599  5.98  0.  0.
600  5.99  0.  0.
1                         1.7289659703405E+01  2.1146194267439E+00
1  0.0000000000000E+00 -3.5826723671084E-09  9.8053381386576E-09
2  1.0000000000000E-02  1.2875840010965E-03 -6.0719971846331E-04
3  2.0000000000000E-02  5.1498425232504E-03 -2.4321501872609E-03
4  3.0000000000000E-02  1.1585211048292E-02 -5.4846912734493E-03
5  4.0000000000000E-02  2.0590804003951E-02 -9.7805153542113E-03
6  5.0000000000000E-02  3.2162005372607E-02 -1.5340127666660E-02
7  6.0000000000000E-02  4.6291910695312E-02 -2.2187433113243E-02
8  7.0000000000000E-02  6.2970635180304E-02 -3.0347990482413E-02
9  8.0000000000000E-02  8.2184506207897E-02 -3.9846984849548E-02
10  9.0000000000000E-02  1.0391516166230E-01 -5.0706977372966E-02
11  1.0000000000000E-01  1.2813857813960E-01 -6.2945498566905E-02
12  1.1000000000000E-01  1.5482405511691E-01 -7.6572556230532E-02
13  1.2000000000000E-01  1.8393318257113E-01 -9.1588132399339E-02
14  1.3000000000000E-01  2.1541882027445E-01 -1.0797974487187E-01
15  1.4000000000000E-01  2.4922411705003E-01 -1.2572014801249E-01
16  1.5000000000000E-01  2.8528159764518E-01 -1.4476524465613E-01
17  1.6000000000000E-01  3.2351234358835E-01 -1.6505227611183E-01
18  1.7000000000000E-01  3.6382529247259E-01 -1.8649835060088E-01
19  1.8000000000000E-01  4.0611667760138E-01 -2.0899936214238E-01
20  1.9000000000000E-01  4.5026962690606E-01 -2.3242934212910E-01
21  2.0000000000000E-01  4.9615393657364E-01 -2.5664027487622E-01
22  2.1000000000000E-01  5.4362603099682E-01 -2.8146239656165E-01
23  2.2000000000000E-01  5.9252911657107E-01 -3.0670498452444E-01
24  2.3000000000000E-01  6.4269353261804E-01 -3.3215763117941E-01
25  2.4000000000000E-01  6.9393729841835E-01 -3.5759198418155E-01
26  2.5000000000000E-01  7.4606685109513E-01 -3.8276392227614E-01
27  2.6000000000000E-01  7.9887796501076E-01 -4.0741612483021E-01
28  2.7000000000000E-01  8.5215683952204E-01 -4.3128098267362E-01
29  2.8000000000000E-01  9.0568133847986E-01 -4.5408378887156E-01
30  2.9000000000000E-01  9.5922236184140E-01 -4.7554614065642E-01
31  3.0000000000000E-01  1.0125453272608E+00 -4.9538947817941E-01
32  3.1000000000000E-01  1.0654117375954E+00 -5.1333868216267E-01
33  3.2000000000000E-01  1.1175808089557E+00 -5.2912565105236E-01
34  3.3000000000000E-01  1.1688111332610E+00 -5.4249277894625E-01
35  3.4000000000000E-01  1.2188623492576E+00 -5.5319625838941E-01
36  3.5000000000000E-01  1.2674967965923E+00 -5.6100913703642E-01
37  3.6000000000000E-01  1.3144811287979E+00 -5.6572406404228E-01
38  3.7000000000000E-01  1.3595878628911E+00 -5.6715567068965E-01
39  3.8000000000000E-01  1.4025968456432E+00 -5.6514253995579E-01
40  3.9000000000000E-01  1.4432966194025E+00 -5.5954873118983E-01
41  4.0000000000000E-01  1.4814856735183E+00 -5.5026483849523E-01
42  4.1000000000000E-01  1.5169735708657E+00 -5.3720857444359E-01
43  4.2000000000000E-01  1.5495819425751E+00 -5.2032488401556E-01
44  4.3000000000000E-01  1.5791453477365E+00 -4.9958560679031E-01
45  4.4000000000000E-01  1.6055119984617E+00 -4.7498871800309E-01
46  4.5000000000000E-01  1.6285443541304E+00 -4.4655719078756E-01
47  4.6000000000000E-01  1.6481195918330E+00 -4.1433753236045E-01
48  4.7000000000000E-01  1.6641299628372E+00 -3.7839805576811E-01
49  4.8000000000000E-01  1.6764830472714E+00 -3.3882695581308E-01
50  4.9000000000000E-01  1.6851019210644E+00 -2.9573026267978E-01
51  5.0000000000000E-01  1.6899252504404E+00 -2.4922974940382E-01
52  5.1000000000000E-01  1.6909073299060E+00 -1.9946086956366E-01
53  5.2000000000000E-01  1.6880180796629E+00 -1.4657079936975E-01
54  5.3000000000000E-01  1.6812430177254E+00 -9.0716653707038E-02
55  5.4000000000000E-01  1.6705832207385E+00 -3.2063938746570E-02
56  5.5000000000000E-01  1.6560552856233E+00  2.9214705354696E-02
57  5.6000000000000E-01  1.6376913017641E+00  9.2940429168252E-02
58  5.7000000000000E-01  1.6155388405874E+00  1.5892873627710E-01
59  5.8000000000000E-01  1.5896609661485E+00  2.2698966721617E-01
60  5.9000000000000E-01  1.5601362668415E+00  2.9692760397839E-01
61  6.0000000000000E-01  1.5270589047049E+00  3.6854070926874E-01
62  6.1000000000000E-01  1.4905386751257E+00  4.4162002995937E-01
63  6.2000000000000E-01  1.4507010661789E+00  5.1594830899732E-01
64  6.3000000000000E-01  1.4076873035095E+00  5.9129856387358E-01
65  6.4000000000000E-01  1.3616543636862E+00  6.6743250222492E-01
66  6.5000000000000E-01  1.3127749364619E+00  7.4409885577977E-01
67  6.6000000000000E-01  1.2612373144545E+00  8.2103172229100E-01
68  6.7000000000000E-01  1.2072451875289E+00  8.9794901099046E-01
69  6.8000000000000E-01  1.1510173186653E+00  9.7455109017791E-01
70  6.9000000000000E-01  1.0927870784262E+00  1.0505197356313E+00
71  7.0000000000000E-01  1.0328018162852E+00  1.1255174754734E+00
72  7.1000000000000E-01  9.7132204909408E-01  1.1991874209302E+00
73  7.2000000000000E-01  9.0862044980107E-01  1.2711536631207E+00
74  7.3000000000000E-01  8.4498062316523E-01  1.3410223037891E+00
75  7.4000000000000E-01  7.8069565956414E-01  1.4083831729572E+00
76  7.5000000000000E-01  7.1606646298139E-01  1.4728122691672E+00
77  7.6000000000000E-01  6.5139985476723E-01  1.5338749387105E+00
78  7.7000000000000E-01  5.8700646066260E-01  1.5911297894539E+00
79  7.8000000000000E-01  5.2319839471345E-01  1.6441333131272E+00
80  7.9000000000000E-01  4.6028675991810E-01  1.6924451677807E+00
81  8.0000000000000E-01  3.9857899157542E-01  1.7356340501741E+00
82  8.1000000000000E-01  3.3837607516320E-01  1.7732840667274E+00
83  8.2000000000000E-01  2.7996967600049E-01  1.8050014919643E+00
84  8.3000000000000E-01  2.2363922276909E-01  1.8304217857015E+00
85  8.4000000000000E-01  1.6964899102986E-01  1.8492167251410E+00
86  8.5000000000000E-01  1.1824523602918E-01  1.8611014960029E+00
87  8.6000000000000E-01  6.9653426226216E-02  1.8658415783322E+00
88  8.7000000000000E-01  2.4075629985712E-02  1.8632592579708E+00
89  8.8000000000000E-01 -1.8311892299623E-02  1.8532395941652E+00
90  8.9000000000000E-01 -5.7360839809001E-02  1.8357356775314E+00
91  9.0000000000000E-01 -9.2952718430950E-02  1.8107730206653E+00
92  9.1000000000000E-01 -1.2500033914189E-01  1.7784529359996E+00
93  9.2000000000000E-01 -1.5344892838850E-01  1.7389547718755E+00
94  9.3000000000000E-01 -1.7827681737918E-01  1.6925368979283E+00
95  9.4000000000000E-01 -1.9949568429847E-01  1.6395363543651E+00
96  9.5000000000000E-01 -2.1715033138801E-01  1.5803671060454E+00
97  9.6000000000000E-01 -2.3131798741533E-01  1.5155168708570E+00
98  9.7000000000000E-01 -2.4210713508706E-01  1.4455425220578E+00
99  9.8000000000000E-01 -2.4965587224865E-01  1.3710640952984E+00
100  9.9000000000000E-01 -2.5412982502473E-01  1.2927574621894E+00
101  1.0000000000000E+00 -2.5571964017025E-01  1.2113457627525E+00
102  1.0100000000000E+00 -2.5463809259574E-01  1.1275897181088E+00
103  1.0200000000000E+00 -2.5111685208339E-01  1.0422769715739E+00
104  1.0300000000000E+00 -2.4540296041088E-01  9.5621063019125E-01
105  1.0400000000000E+00 -2.3775507626112E-01  8.7019719902494E-01
106  1.0500000000000E+00 -2.2843955025495E-01  7.8503411666564E-01
107  1.0600000000000E+00 -2.1772639604735E-01  7.0149711187721E-01
108  1.0700000000000E+00 -2.0588522558586E-01  6.2032760779939E-01
109  1.0800000000000E+00 -1.9318121725141E-01  5.4222040133186E-01
110  1.0900000000000E+00 -1.7987118466945E-01  4.6781184119636E-01
111  1.1000000000000E+00 -1.6619981147364E-01  3.9766871864647E-01
112  1.1100000000000E+00 -1.5239611329669E-01  3.3227807013488E-01
113  1.1200000000000E+00 -1.3867018279884E-01  2.7203807160899E-01
114  1.1300000000000E+00 -1.2521026678044E-01  2.1725018005284E-01
115  1.1400000000000E+00 -1.1218021605338E-01  1.6811264752683E-01
116  1.1500000000000E+00 -9.9717346826283E-02  1.2471554055144E-01
117  1.1600000000000E+00 -8.7930778487032E-02  8.7037568059637E-02
118  1.1700000000000E+00 -7.6902292190426E-02  5.4955923901160E-02
119  1.1800000000000E+00 -6.6689787061147E-02  2.8267982557006E-02
120  1.1900000000000E+00 -5.7328926338885E-02  6.7002202435661E-03
121  1.2000000000000E+00 -4.8834587860564E-02 -1.0085109654621E-02
122  1.2100000000000E+00 -4.1202709780311E-02 -2.2481979155193E-02
123  1.2200000000000E+00 -3.4412483981715E-02 -3.0931445186866E-02
124  1.2300000000000E+00 -2.8428846850236E-02 -3.5911543649248E-02
125  1.2400000000000E+00 -2.3205209371743E-02 -3.7926424499525E-02
126  1.2500000000000E+00 -1.8686363169637E-02 -3.7494952469225E-02
127  1.2600000000000E+00 -1.4811495042538E-02 -3.5139011903535E-02
128  1.2700000000000E+00 -1.1517250725352E-02 -3.1371736379165E-02
129  1.2800000000000E+00 -8.7407014423812E-03 -2.6686096096847E-02
130  1.2900000000000E+00 -6.4239043517771E-03 -2.1539711273467E-02
131  1.3000000000000E+00 -4.5298289069597E-03 -1.6310825469623E-02
132  1.3100000000000E+00 -3.0107546931641E-03 -1.1374397460606E-02
133  1.3200000000000E+00 -1.8227263065622E-03 -7.0643410064113E-03
134  1.3300000000000E+00 -9.3660638891496E-04 -3.6434009745737E-03
135  1.3400000000000E+00 -3.3876589799710E-04 -1.2950420680071E-03
136  1.3500000000000E+00 -4.0098928879163E-05 -1.4741371833996E-04
137  1.3600000000000E+00  3.8619369216652E-06  1.3863857036421E-05
138  1.3700000000000E+00 -5.1649769217434E-07 -1.8919200581502E-06
139  1.38 -0. -0.
140  1.39  0.  0.
141  1.40  0.  0.
142  1.41  0.  0.
143  1.42  0.  0.
144  1.43  0.  0.
145  1.44  0.  0.
146  1.45  0.  0.
147  1.46  0.  0.
148  1.47  0.  0.
149  1.48  0.  0.
150  1.49  0.  0.
151  1.50  0.  0.
152  1.51  0.  0.
153  1.52  0.  0.
154  1.53  0.  0.
155  1.54  0.  0.
156  1.55  0.  0.
157  1.56  0.  0.
158  1.57  0.  0.
159  1.58  0.  0.
160  1.59  0.  0.
161  1.60  0.  0.
162  1.61  0.  0.
163  1.62  0.  0.
164  1.63  0.  0.
165  1.64  0.  0.
166  1.65  0.  0.
167  1.66  0.  0.
168  1.67  0.  0.
169  1.68  0.  0.
170  1.69  0.  0.
171  1.70  0.  0.
172  1.71  0.  0.
173  1.72  0.  0.
174  1.73  0.  0.
175  1.74  0.  0.
176  1.75  0.  0.
177  1.76  0.  0.
178  1.77  0.  0.
179  1.78  0.  0.
180  1.79  0.  0.
181  1.80  0.  0.
182  1.81  0.  0.
183  1.82  0.  0.
184  1.83  0.  0.
185  1.84  0.  0.
186  1.85  0.  0.
187  1.86  0.  0.
188  1.87  0.  0.
189  1.88  0.  0.
190  1.89  0.  0.
191  1.90  0.  0.
192  1.91  0.  0.
193  1.92  0.  0.
194  1.93  0.  0.
195  1.94  0.  0.
196  1.95  0.  0.
197  1.96  0.  0.
198  1.97  0.  0.
199  1.98  0.  0.
200  1.99  0.  0.
201  2.00  0.  0.
202  2.01  0.  0.
203  2.02  0.  0.
204  2.03  0.  0.
205  2.04  0.  0.
206  2.05  0.  0.
207  2.06  0.  0.
208  2.07  0.  0.
209  2.08  0.  0.
210  2.09  0.  0.
211  2.10  0.  0.
212  2.11  0.  0.
213  2.12  0.  0.
214  2.13  0.  0.
215  2.14  0.  0.
216  2.15  0.  0.
217  2.16  0.  0.
218  2.17  0.  0.
219  2.18  0.  0.
220  2.19  0.  0.
221  2.20  0.  0.
222  2.21  0.  0.
223  2.22  0.  0.
224  2.23  0.  0.
225  2.24  0.  0.
226  2.25  0.  0.
227  2.26  0.  0.
228  2.27  0.  0.
229  2.28  0.  0.
230  2.29  0.  0.
231  2.30  0.  0.
232  2.31  0.  0.
233  2.32  0.  0.
234  2.33  0.  0.
235  2.34  0.  0.
236  2.35  0.  0.
237  2.36  0.  0.
238  2.37  0.  0.
239  2.38  0.  0.
240  2.39  0.  0.
241  2.40  0.  0.
242  2.41  0.  0.
243  2.42  0.  0.
244  2.43  0.  0.
245  2.44  0.  0.
246  2.45  0.  0.
247  2.46  0.  0.
248  2.47  0.  0.
249  2.48  0.  0.
250  2.49  0.  0.
251  2.50  0.  0.
252  2.51  0.  0.
253  2.52  0.  0.
254  2.53  0.  0.
255  2.54  0.  0.
256  2.55  0.  0.
257  2.56  0.  0.
258  2.57  0.  0.
259  2.58  0.  0.
260  2.59  0.  0.
261  2.60  0.  0.
262  2.61  0.  0.
263  2.62  0.  0.
264  2.63  0.  0.
265  2.64  0.  0.
266  2.65  0.  0.
267  2.66  0.  0.
268  2.67  0.  0.
269  2.68  0.  0.
270  2.69  0.  0.
271  2.70  0.  0.
272  2.71  0.  0.
273  2.72  0.  0.
274  2.73  0.  0.
275  2.74  0.  0.
276  2.75  0.  0.
277  2.76  0.  0.
278  2.77  0.  0.
279  2.78  0.  0.
280  2.79  0.  0.
281  2.80  0.  0.
282  2.81  0.  0.
283  2.82  0.  0.
284  2.83  0.  0.
285  2.84  0.  0.
286  2.85  0.  0.
287  2.86  0.  0.
288  2.87  0.  0.