Ac    ONCVPSP-4.0.1  r_core=   1.30140   1.30140   1.20403   1.30140
89.0000     29.0000      220327    zatom,zion,pspd
8      11   3     4   600     0    pspcod,pspxc,lmax,lloc,mmax,r2well
5.99000000  5.00000000  0.00000000    rchrg fchrg qchrg
3     2     2     1     0    nproj
1     1           extension_switch
0                         4.2037066297451E+01  5.8510949517993E+00  7.1916287754346E-01
1  0.0000000000000E+00 -1.7073816693802E-08  4.1300394992838E-08 -8.7453305763763E-08
2  1.0000000000000E-02  1.2499089763933E-01 -4.0661815671965E-02  6.4098420097221E-02
3  2.0000000000000E-02  2.4938641332428E-01 -8.0663333385137E-02  1.2714407663472E-01
4  3.0000000000000E-02  3.7259684128462E-01 -1.1935604920530E-01  1.8810972063281E-01
5  4.0000000000000E-02  4.9404368986437E-01 -1.5611470763233E-01  2.4601838060951E-01
6  5.0000000000000E-02  6.1316494759692E-01 -1.9034808801134E-01  2.9996664588238E-01
7  6.0000000000000E-02  7.2941995297501E-01 -2.2150881665679E-01  3.4914578896798E-01
8  7.0000000000000E-02  8.4229375680290E-01 -2.4910193063052E-01  3.9286011393649E-01
9  8.0000000000000E-02  9.5130088309214E-01 -2.7269196041520E-01  4.3054200503214E-01
10  9.0000000000000E-02  1.0559884146959E+00 -2.9190834773784E-01  4.6176325386473E-01
11  1.0000000000000E-01  1.1559383525805E+00 -3.0644906989717E-01  4.8624236069306E-01
12  1.1000000000000E-01  1.2507692220374E+00 -3.1608240131666E-01  5.0384763204313E-01
13  1.2000000000000E-01  1.3401369244074E+00 -3.2064680470550E-01  5.1459602908642E-01
14  1.3000000000000E-01  1.4237348581580E+00 -3.2004900610929E-01  5.1864785462804E-01
15  1.4000000000000E-01  1.5012933575462E+00 -3.1426036820420E-01  5.1629749696610E-01
16  1.5000000000000E-01  1.5725785197765E+00 -3.0331173241108E-01  5.0796057209915E-01
17  1.6000000000000E-01  1.6373905117174E+00 -2.8728695088120E-01  4.9415791783177E-01
18  1.7000000000000E-01  1.6955614641634E+00 -2.6631537240389E-01  4.7549699063295E-01
19  1.8000000000000E-01  1.7469530747064E+00 -2.4056358033201E-01  4.5265129551410E-01
20  1.9000000000000E-01  1.7914540490239E+00 -2.1022670451539E-01  4.2633853812492E-01
21  2.0000000000000E-01  1.8289775144485E+00 -1.7551964209299E-01  3.9729822476293E-01
22  2.1000000000000E-01  1.8594585388748E+00 -1.3666852332667E-01  3.6626944886710E-01
23  2.2000000000000E-01  1.8828518823457E+00 -9.3902748321503E-02  3.3396959133092E-01
24  2.3000000000000E-01  1.8991300981807E+00 -4.7447898719331E-02  3.0107462693466E-01
25  2.4000000000000E-01  1.9082820855695E+00  2.4802040844249E-03  2.6820167144255E-01
26  2.5000000000000E-01  1.9103121766046E+00  5.5680064970517E-02  2.3589432525358E-01
27  2.6000000000000E-01  1.9052398183590E+00  1.1196752692440E-01  2.0461127240171E-01
28  2.7000000000000E-01  1.8930998855685E+00  1.7117710780824E-01  1.7471848132955E-01
29  2.8000000000000E-01  1.8739436325521E+00  2.3316160378204E-01  1.4648522976424E-01
30  2.9000000000000E-01  1.8478402651179E+00  2.9778996652859E-01  1.2008404426385E-01
31  3.0000000000000E-01  1.8148790852920E+00  3.6494352760582E-01  9.5594509845999E-02
32  3.1000000000000E-01  1.7751721347389E+00  4.3451070791467E-01  7.3010770968005E-02
33  3.2000000000000E-01  1.7288572376750E+00  5.0638041119868E-01  5.2252416467832E-02
34  3.3000000000000E-01  1.6761013217957E+00  5.8043435560722E-01  3.3178322088349E-02
35  3.4000000000000E-01  1.6171038770964E+00  6.5653864465906E-01  1.5602918975429E-02
36  3.5000000000000E-01  1.5521003981651E+00  7.3453491676227E-01 -6.8573146534319E-04
37  3.6000000000000E-01  1.4813656461733E+00  8.1423143930633E-01 -1.5906743634765E-02
38  3.7000000000000E-01  1.4052165628295E+00  8.9539452817307E-01 -3.0266826991486E-02
39  3.8000000000000E-01  1.3240146702512E+00  9.7774067559360E-01 -4.3941071365491E-02
40  3.9000000000000E-01  1.2381677981640E+00  1.0609297582992E+00 -5.7054846559143E-02
41  4.0000000000000E-01  1.1481309929452E+00  1.1445596739959E+00 -6.9667534483407E-02
42  4.1000000000000E-01  1.0544064815306E+00  1.2281627178605E+00 -8.1758757493579E-02
43  4.2000000000000E-01  9.5754258660600E-01  1.3112039630177E+00 -9.3217689063410E-02
44  4.3000000000000E-01  8.5813151722962E-01  1.3930818510670E+00 -1.0383593463041E-01
45  4.4000000000000E-01  7.5680599023875E-01  1.4731311324831E+00 -1.1330435457929E-01
46  4.5000000000000E-01  6.5423467162416E-01  1.5506282240317E+00 -1.2121407140165E-01
47  4.6000000000000E-01  5.5111646246562E-01  1.6247989734974E+00 -1.2706176327183E-01
48  4.7000000000000E-01  4.4817368994808E-01  1.6948287433965E+00 -1.3025920106990E-01
49  4.8000000000000E-01  3.4614429928513E-01  1.7598746474728E+00 -1.3014684002517E-01
50  4.9000000000000E-01  2.4577317595532E-01  1.8190796991356E+00 -1.2601113537497E-01
51  5.0000000000000E-01  1.4780275842371E-01  1.8715885620439E+00 -1.1710511841567E-01
52  5.1000000000000E-01  5.2963128430720E-02  1.9165645321260E+00 -1.0267164963506E-01
53  5.2000000000000E-01 -3.8038211887214E-02  1.9532073294353E+00 -8.1968663123169E-02
54  5.3000000000000E-01 -1.2452665015330E-01  1.9807712392709E+00 -5.4295634903854E-02
55  5.4000000000000E-01 -2.0587062480093E-01  1.9985831162882E+00 -1.9020449939525E-02
56  5.5000000000000E-01 -2.8149139675043E-01  2.0060597539718E+00  2.4394189401829E-02
57  5.6000000000000E-01 -3.5087219437256E-01  2.0027241253831E+00  7.6365675455892E-02
58  5.7000000000000E-01 -4.1356650420020E-01  1.9882200196930E+00  1.3716856710489E-01
59  5.8000000000000E-01 -4.6920529630902E-01  1.9623246322535E+00  2.0691461051394E-01
60  5.9000000000000E-01 -5.1750299603366E-01  1.9249587130609E+00  2.8553642203909E-01
61  6.0000000000000E-01 -5.5826204211146E-01  1.8761939381225E+00  3.7277544707271E-01
62  6.1000000000000E-01 -5.9137590468074E-01  1.8162572387717E+00  4.6817468840202E-01
63  6.2000000000000E-01 -6.1683047385344E-01  1.7455319033072E+00  5.7107656052493E-01
64  6.3000000000000E-01 -6.3470376978423E-01  1.6645553511570E+00  6.8062607646414E-01
65  6.4000000000000E-01 -6.4516396707805E-01  1.5740135694521E+00  7.9577941574132E-01
66  6.5000000000000E-01 -6.4846576879657E-01  1.4747322927540E+00  9.1531776126955E-01
67  6.6000000000000E-01 -6.4494520698009E-01  1.3676650959189E+00  1.0378661341253E+00
68  6.7000000000000E-01 -6.3501298625498E-01  1.2538786549559E+00  1.1619168035731E+00
69  6.8000000000000E-01 -6.1914652355701E-01  1.1345355086052E+00  1.2858567102306E+00
70  6.9000000000000E-01 -5.9788086919092E-01  1.0108747218454E+00  1.4079982173333E+00
71  7.0000000000000E-01 -5.7179872138210E-01  8.8419090944244E-01  1.5266124027720E+00
72  7.1000000000000E-01 -5.4151976737868E-01  7.5581212127090E-01  1.6399640261659E+00
73  7.2000000000000E-01 -5.0768959840530E-01  6.2707712007391E-01  1.7463472533155E+00
74  7.3000000000000E-01 -4.7096845295071E-01  4.9931259570379E-01  1.8441211966413E+00
75  7.4000000000000E-01 -4.3202004281102E-01  3.7381085732026E-01  1.9317443354126E+00
76  7.5000000000000E-01 -3.9150070905713E-01  2.5180852663647E-01  2.0078069135172E+00
77  7.6000000000000E-01 -3.5004914091110E-01  1.3446672170212E-01  2.0710604741425E+00
78  7.7000000000000E-01 -3.0827686992264E-01  2.2853173079499E-02  2.1204437778517E+00
79  7.8000000000000E-01 -2.6675972549853E-01 -8.2073345896722E-02  2.1551044604088E+00
80  7.9000000000000E-01 -2.2603040667467E-01 -1.7947596370473E-01  2.1744159154704E+00
81  8.0000000000000E-01 -1.8657229003328E-01 -2.6864979782011E-01  2.1779890307758E+00
82  8.1000000000000E-01 -1.4881455603677E-01 -3.4902903662848E-01  2.1656785598047E+00
83  8.2000000000000E-01 -1.1312867700012E-01 -4.2019095537331E-01  2.1375840689288E+00
84  8.3000000000000E-01 -7.9826270734577E-02 -4.8185689255433E-01  2.0940455575487E+00
85  8.4000000000000E-01 -4.9158285852087E-02 -5.3389029735744E-01  2.0356340002323E+00
86  8.5000000000000E-01 -2.1315449042831E-02 -5.7629203718821E-01  1.9631372004160E+00
87  8.6000000000000E-01  3.5701275008971E-03 -6.0919322458382E-01  1.8775414699328E+00
88  8.7000000000000E-01  2.5422307939263E-02 -6.3284588246362E-01  1.7800097534031E+00
89  8.8000000000000E-01  4.4217415502624E-02 -6.4761181385407E-01  1.6718568976859E+00
90  8.9000000000000E-01  5.9980003709813E-02 -6.5395007542226E-01  1.5545228214669E+00
91  9.0000000000000E-01  7.2778093179298E-02 -6.5240347230328E-01  1.4295443667335E+00
92  9.1000000000000E-01  8.2718053731487E-02 -6.4358449428881E-01  1.2985266114639E+00
93  9.2000000000000E-01  8.9939307211510E-02 -6.2816110044113E-01  1.1631143913875E+00
94  9.3000000000000E-01  9.4609015521275E-02 -6.0684273111198E-01  1.0249647192127E+00
95  9.4000000000000E-01  9.6916901174431E-02 -5.8036688421101E-01  8.8572070427541E-01
96  9.5000000000000E-01  9.7070324914086E-02 -5.4948653786231E-01  7.4698746702719E-01
97  9.6000000000000E-01  9.5289717383596E-02 -5.1495863621124E-01  6.1031041480026E-01
98  9.7000000000000E-01  9.1804430507569E-02 -4.7753378137667E-01  4.7715610223448E-01
99  9.8000000000000E-01  8.6849040219152E-02 -4.3794719489880E-01  3.4889574642438E-01
100  9.9000000000000E-01  8.0660096672645E-02 -3.9691092928007E-01  2.2679130851638E-01
101  1.0000000000000E+00  7.3473282320037E-02 -3.5510722712457E-01  1.1198389541450E-01
102  1.0100000000000E+00  6.5520903462711E-02 -3.1318284481336E-01  5.4840828655414E-03
103  1.0200000000000E+00  5.7029608311517E-02 -2.7174408233175E-01 -9.1836380365848E-02
104  1.0300000000000E+00  4.8218195321613E-02 -2.3135219333834E-01 -1.7925215345823E-01
105  1.0400000000000E+00  3.9295350578537E-02 -1.9251879202471E-01 -2.5619194205043E-01
106  1.0500000000000E+00  3.0457133199472E-02 -1.5570082779855E-01 -3.2224704939159E-01
107  1.0600000000000E+00  2.1884013687667E-02 -1.2129466670323E-01 -3.7718175178303E-01
108  1.0700000000000E+00  1.3737262423256E-02 -8.9628800852332E-02 -4.2094643849300E-01
109  1.0800000000000E+00  6.1544842309500E-03 -6.0954704536854E-02 -4.5369445589660E-01
110  1.0900000000000E+00 -7.5590552746046E-04 -3.5435353500009E-02 -4.7580360464033E-01
111  1.1000000000000E+00 -6.9214005564463E-03 -1.3131091558034E-02 -4.8790280947104E-01
112  1.1100000000000E+00 -1.2311995130451E-02  6.0137721010463E-03 -4.9089459734679E-01
113  1.1200000000000E+00 -1.6925598359149E-02  2.2130528467486E-02 -4.8583344076293E-01
114  1.1300000000000E+00 -2.0764413989060E-02  3.5363491704607E-02 -4.7375333088930E-01
115  1.1400000000000E+00 -2.3831386414974E-02  4.5858795988156E-02 -4.5563813156898E-01
116  1.1500000000000E+00 -2.6130051188196E-02  5.3761803586412E-02 -4.3241450994125E-01
117  1.1600000000000E+00 -2.7665208230510E-02  5.9216545547491E-02 -4.0494936618927E-01
118  1.1700000000000E+00 -2.8444395764699E-02  6.2367144735762E-02 -3.7405157091104E-01
119  1.1800000000000E+00 -2.8480137235146E-02  6.3361163945532E-02 -3.4047786348350E-01
120  1.1900000000000E+00 -2.7792898417467E-02  6.2354739062798E-02 -3.0494259331004E-01
121  1.2000000000000E+00 -2.6414663574893E-02  5.9519291137426E-02 -2.6813085636264E-01
122  1.2100000000000E+00 -2.4392999682512E-02  5.5049516271860E-02 -2.3071437645159E-01
123  1.2200000000000E+00 -2.1795620374954E-02  4.9172667921180E-02 -1.9337005062044E-01
124  1.2300000000000E+00 -1.8714279309988E-02  4.2156589224320E-02 -1.5679689889385E-01
125  1.2400000000000E+00 -1.5294660124153E-02  3.4373649036433E-02 -1.2182033269783E-01
126  1.2500000000000E+00 -1.1874567045101E-02  2.6597985384296E-02 -8.9859662859102E-02
127  1.2600000000000E+00 -8.5680047707959E-03  1.9112994767795E-02 -6.1542507579197E-02
128  1.2700000000000E+00 -5.4900153978688E-03  1.2192114051517E-02 -3.7457984965406E-02
129  1.2800000000000E+00 -2.8402712754267E-03  6.2787706946479E-03 -1.8442348314852E-02
130  1.2900000000000E+00 -8.8915525678865E-04  1.9568380520779E-03 -5.5115334390273E-03
131  1.3000000000000E+00 -3.2035689725694E-05  7.0177363949754E-05 -1.8938125815281E-04
132  1.3100000000000E+00 -2.6673843390057E-06  5.8489107225289E-06 -1.5919423640069E-05
133  1.3200000000000E+00  1.0864569064394E-06 -2.3869478984921E-06  6.6178118773696E-06
134  1.33 -0.  0. -0.
135  1.34  0.  0.  0.
136  1.35  0.  0.  0.
137  1.36  0.  0.  0.
138  1.37  0.  0.  0.
139  1.38  0.  0.  0.
140  1.39  0.  0.  0.
141  1.40  0.  0.  0.
142  1.41  0.  0.  0.
143  1.42  0.  0.  0.
144  1.43  0.  0.  0.
145  1.44  0.  0.  0.
146  1.45  0.  0.  0.
147  1.46  0.  0.  0.
148  1.47  0.  0.  0.
149  1.48  0.  0.  0.
150  1.49  0.  0.  0.
151  1.50  0.  0.  0.
152  1.51  0.  0.  0.
153  1.52  0.  0.  0.
154  1.53  0.  0.  0.
155  1.54  0.  0.  0.
156  1.55  0.  0.  0.
157  1.56  0.  0.  0.
158  1.57  0.  0.  0.
159  1.58  0.  0.  0.
160  1.59  0.  0.  0.
161  1.60  0.  0.  0.
162  1.61  0.  0.  0.
163  1.62  0.  0.  0.
164  1.63  0.  0.  0.
165  1.64  0.  0.  0.
166  1.65  0.  0.  0.
167  1.66  0.  0.  0.
168  1.67  0.  0.  0.
169  1.68  0.  0.  0.
170  1.69  0.  0.  0.
171  1.70  0.  0.  0.
172  1.71  0.  0.  0.
173  1.72  0.  0.  0.
174  1.73  0.  0.  0.
175  1.74  0.  0.  0.
176  1.75  0.  0.  0.
177  1.76  0.  0.  0.
178  1.77  0.  0.  0.
179  1.78  0.  0.  0.
180  1.79  0.  0.  0.
181  1.80  0.  0.  0.
182  1.81  0.  0.  0.
183  1.82  0.  0.  0.
184  1.83  0.  0.  0.
185  1.84  0.  0.  0.
186  1.85  0.  0.  0.
187  1.86  0.  0.  0.
188  1.87  0.  0.  0.
189  1.88  0.  0.  0.
190  1.89  0.  0.  0.
191  1.90  0.  0.  0.
192  1.91  0.  0.  0.
193  1.92  0.  0.  0.
194  1.93  0.  0.  0.
195  1.94  0.  0.  0.
196  1.95  0.  0.  0.
197  1.96  0.  0.  0.
198  1.97  0.  0.  0.
199  1.98  0.  0.  0.
200  1.99  0.  0.  0.
201  2.00  0.  0.  0.
202  2.01  0.  0.  0.
203  2.02  0.  0.  0.
204  2.03  0.  0.  0.
205  2.04  0.  0.  0.
206  2.05  0.  0.  0.
207  2.06  0.  0.  0.
208  2.07  0.  0.  0.
209  2.08  0.  0.  0.
210  2.09  0.  0.  0.
211  2.10  0.  0.  0.
212  2.11  0.  0.  0.
213  2.12  0.  0.  0.
214  2.13  0.  0.  0.
215  2.14  0.  0.  0.
216  2.15  0.  0.  0.
217  2.16  0.  0.  0.
218  2.17  0.  0.  0.
219  2.18  0.  0.  0.
220  2.19  0.  0.  0.
221  2.20  0.  0.  0.
222  2.21  0.  0.  0.
223  2.22  0.  0.  0.
224  2.23  0.  0.  0.
225  2.24  0.  0.  0.
226  2.25  0.  0.  0.
227  2.26  0.  0.  0.
228  2.27  0.  0.  0.
229  2.28  0.  0.  0.
230  2.29  0.  0.  0.
231  2.30  0.  0.  0.
232  2.31  0.  0.  0.
233  2.32  0.  0.  0.
234  2.33  0.  0.  0.
235  2.34  0.  0.  0.
236  2.35  0.  0.  0.
237  2.36  0.  0.  0.
238  2.37  0.  0.  0.
239  2.38  0.  0.  0.
240  2.39  0.  0.  0.
241  2.40  0.  0.  0.
242  2.41  0.  0.  0.
243  2.42  0.  0.  0.
244  2.43  0.  0.  0.
245  2.44  0.  0.  0.
246  2.45  0.  0.  0.
247  2.46  0.  0.  0.
248  2.47  0.  0.  0.
249  2.48  0.  0.  0.
250  2.49  0.  0.  0.
251  2.50  0.  0.  0.
252  2.51  0.  0.  0.
253  2.52  0.  0.  0.
254  2.53  0.  0.  0.
255  2.54  0.  0.  0.
256  2.55  0.  0.  0.
257  2.56  0.  0.  0.
258  2.57  0.  0.  0.
259  2.58  0.  0.  0.
260  2.59  0.  0.  0.
261  2.60  0.  0.  0.
262  2.61  0.  0.  0.
263  2.62  0.  0.  0.
264  2.63  0.  0.  0.
265  2.64  0.  0.  0.
266  2.65  0.  0.  0.
267  2.66  0.  0.  0.
268  2.67  0.  0.  0.
269  2.68  0.  0.  0.
270  2.69  0.  0.  0.
271  2.70  0.  0.  0.
272  2.71  0.  0.  0.
273  2.72  0.  0.  0.
274  2.73  0.  0.  0.
275  2.74  0.  0.  0.
276  2.75  0.  0.  0.
277  2.76  0.  0.  0.
278  2.77  0.  0.  0.
279  2.78  0.  0.  0.
280  2.79  0.  0.  0.
281  2.80  0.  0.  0.
282  2.81  0.  0.  0.
283  2.82  0.  0.  0.
284  2.83  0.  0.  0.
285  2.84  0.  0.  0.
286  2.85  0.  0.  0.
287  2.86  0.  0.  0.
288  2.87  0.  0.  0.
289  2.88  0.  0.  0.
290  2.89  0.  0.  0.
291  2.90  0.  0.  0.
292  2.91  0.  0.  0.
293  2.92  0.  0.  0.
294  2.93  0.  0.  0.
295  2.94  0.  0.  0.
296  2.95  0.  0.  0.
297  2.96  0.  0.  0.
298  2.97  0.  0.  0.
299  2.98  0.  0.  0.
300  2.99  0.  0.  0.
301  3.00  0.  0.  0.
302  3.01  0.  0.  0.
303  3.02  0.  0.  0.
304  3.03  0.  0.  0.
305  3.04  0.  0.  0.
306  3.05  0.  0.  0.
307  3.06  0.  0.  0.
308  3.07  0.  0.  0.
309  3.08  0.  0.  0.
310  3.09  0.  0.  0.
311  3.10  0.  0.  0.
312  3.11  0.  0.  0.
313  3.12  0.  0.  0.
314  3.13  0.  0.  0.
315  3.14  0.  0.  0.
316  3.15  0.  0.  0.
317  3.16  0.  0.  0.
318  3.17  0.  0.  0.
319  3.18  0.  0.  0.
320  3.19  0.  0.  0.
321  3.20  0.  0.  0.
322  3.21  0.  0.  0.
323  3.22  0.  0.  0.
324  3.23  0.  0.  0.
325  3.24  0.  0.  0.
326  3.25  0.  0.  0.
327  3.26  0.  0.  0.
328  3.27  0.  0.  0.
329  3.28  0.  0.  0.
330  3.29  0.  0.  0.
331  3.30  0.  0.  0.
332  3.31  0.  0.  0.
333  3.32  0.  0.  0.
334  3.33  0.  0.  0.
335  3.34  0.  0.  0.
336  3.35  0.  0.  0.
337  3.36  0.  0.  0.
338  3.37  0.  0.  0.
339  3.38  0.  0.  0.
340  3.39  0.  0.  0.
341  3.40  0.  0.  0.
342  3.41  0.  0.  0.
343  3.42  0.  0.  0.
344  3.43  0.  0.  0.
345  3.44  0.  0.  0.
346  3.45  0.  0.  0.
347  3.46  0.  0.  0.
348  3.47  0.  0.  0.
349  3.48  0.  0.  0.
350  3.49  0.  0.  0.
351  3.50  0.  0.  0.
352  3.51  0.  0.  0.
353  3.52  0.  0.  0.
354  3.53  0.  0.  0.
355  3.54  0.  0.  0.
356  3.55  0.  0.  0.
357  3.56  0.  0.  0.
358  3.57  0.  0.  0.
359  3.58  0.  0.  0.
360  3.59  0.  0.  0.
361  3.60  0.  0.  0.
362  3.61  0.  0.  0.
363  3.62  0.  0.  0.
364  3.63  0.  0.  0.
365  3.64  0.  0.  0.
366  3.65  0.  0.  0.
367  3.66  0.  0.  0.
368  3.67  0.  0.  0.
369  3.68  0.  0.  0.
370  3.69  0.  0.  0.
371  3.70  0.  0.  0.
372  3.71  0.  0.  0.
373  3.72  0.  0.  0.
374  3.73  0.  0.  0.
375  3.74  0.  0.  0.
376  3.75  0.  0.  0.
377  3.76  0.  0.  0.
378  3.77  0.  0.  0.
379  3.78  0.  0.  0.
380  3.79  0.  0.  0.
381  3.80  0.  0.  0.
382  3.81  0.  0.  0.
383  3.82  0.  0.  0.
384  3.83  0.  0.  0.
385  3.84  0.  0.  0.
386  3.85  0.  0.  0.
387  3.86  0.  0.  0.
388  3.87  0.  0.  0.
389  3.88  0.  0.  0.
390  3.89  0.  0.  0.
391  3.90  0.  0.  0.
392  3.91  0.  0.  0.
393  3.92  0.  0.  0.
394  3.93  0.  0.  0.
395  3.94  0.  0.  0.
396  3.95  0.  0.  0.
397  3.96  0.  0.  0.
398  3.97  0.  0.  0.
399  3.98  0.  0.  0.
400  3.99  0.  0.  0.
401  4.00  0.  0.  0.
402  4.01  0.  0.  0.
403  4.02  0.  0.  0.
404  4.03  0.  0.  0.
405  4.04  0.  0.  0.
406  4.05  0.  0.  0.
407  4.06  0.  0.  0.
408  4.07  0.  0.  0.
409  4.08  0.  0.  0.
410  4.09  0.  0.  0.
411  4.10  0.  0.  0.
412  4.11  0.  0.  0.
413  4.12  0.  0.  0.
414  4.13  0.  0.  0.
415  4.14  0.  0.  0.
416  4.15  0.  0.  0.
417  4.16  0.  0.  0.
418  4.17  0.  0.  0.
419  4.18  0.  0.  0.
420  4.19  0.  0.  0.
421  4.20  0.  0.  0.
422  4.21  0.  0.  0.
423  4.22  0.  0.  0.
424  4.23  0.  0.  0.
425  4.24  0.  0.  0.
426  4.25  0.  0.  0.
427  4.26  0.  0.  0.
428  4.27  0.  0.  0.
429  4.28  0.  0.  0.
430  4.29  0.  0.  0.
431  4.30  0.  0.  0.
432  4.31  0.  0.  0.
433  4.32  0.  0.  0.
434  4.33  0.  0.  0.
435  4.34  0.  0.  0.
436  4.35  0.  0.  0.
437  4.36  0.  0.  0.
438  4.37  0.  0.  0.
439  4.38  0.  0.  0.
440  4.39  0.  0.  0.
441  4.40  0.  0.  0.
442  4.41  0.  0.  0.
443  4.42  0.  0.  0.
444  4.43  0.  0.  0.
445  4.44  0.  0.  0.
446  4.45  0.  0.  0.
447  4.46  0.  0.  0.
448  4.47  0.  0.  0.
449  4.48  0.  0.  0.
450  4.49  0.  0.  0.
451  4.50  0.  0.  0.
452  4.51  0.  0.  0.
453  4.52  0.  0.  0.
454  4.53  0.  0.  0.
455  4.54  0.  0.  0.
456  4.55  0.  0.  0.
457  4.56  0.  0.  0.
458  4.57  0.  0.  0.
459  4.58  0.  0.  0.
460  4.59  0.  0.  0.
461  4.60  0.  0.  0.
462  4.61  0.  0.  0.
463  4.62  0.  0.  0.
464  4.63  0.  0.  0.
465  4.64  0.  0.  0.
466  4.65  0.  0.  0.
467  4.66  0.  0.  0.
468  4.67  0.  0.  0.
469  4.68  0.  0.  0.
470  4.69  0.  0.  0.
471  4.70  0.  0.  0.
472  4.71  0.  0.  0.
473  4.72  0.  0.  0.
474  4.73  0.  0.  0.
475  4.74  0.  0.  0.
476  4.75  0.  0.  0.
477  4.76  0.  0.  0.
478  4.77  0.  0.  0.
479  4.78  0.  0.  0.
480  4.79  0.  0.  0.
481  4.80  0.  0.  0.
482  4.81  0.  0.  0.
483  4.82  0.  0.  0.
484  4.83  0.  0.  0.
485  4.84  0.  0.  0.
486  4.85  0.  0.  0.
487  4.86  0.  0.  0.
488  4.87  0.  0.  0.
489  4.88  0.  0.  0.
490  4.89  0.  0.  0.
491  4.90  0.  0.  0.
492  4.91  0.  0.  0.
493  4.92  0.  0.  0.
494  4.93  0.  0.  0.
495  4.94  0.  0.  0.
496  4.95  0.  0.  0.
497  4.96  0.  0.  0.
498  4.97  0.  0.  0.
499  4.98  0.  0.  0.
500  4.99  0.  0.  0.
501  5.00  0.  0.  0.
502  5.01  0.  0.  0.
503  5.02  0.  0.  0.
504  5.03  0.  0.  0.
505  5.04  0.  0.  0.
506  5.05  0.  0.  0.
507  5.06  0.  0.  0.
508  5.07  0.  0.  0.
509  5.08  0.  0.  0.
510  5.09  0.  0.  0.
511  5.10  0.  0.  0.
512  5.11  0.  0.  0.
513  5.12  0.  0.  0.
514  5.13  0.  0.  0.
515  5.14  0.  0.  0.
516  5.15  0.  0.  0.
517  5.16  0.  0.  0.
518  5.17  0.  0.  0.
519  5.18  0.  0.  0.
520  5.19  0.  0.  0.
521  5.20  0.  0.  0.
522  5.21  0.  0.  0.
523  5.22  0.  0.  0.
524  5.23  0.  0.  0.
525  5.24  0.  0.  0.
526  5.25  0.  0.  0.
527  5.26  0.  0.  0.
528  5.27  0.  0.  0.
529  5.28  0.  0.  0.
530  5.29  0.  0.  0.
531  5.30  0.  0.  0.
532  5.31  0.  0.  0.
533  5.32  0.  0.  0.
534  5.33  0.  0.  0.
535  5.34  0.  0.  0.
536  5.35  0.  0.  0.
537  5.36  0.  0.  0.
538  5.37  0.  0.  0.
539  5.38  0.  0.  0.
540  5.39  0.  0.  0.
541  5.40  0.  0.  0.
542  5.41  0.  0.  0.
543  5.42  0.  0.  0.
544  5.43  0.  0.  0.
545  5.44  0.  0.  0.
546  5.45  0.  0.  0.
547  5.46  0.  0.  0.
548  5.47  0.  0.  0.
549  5.48  0.  0.  0.
550  5.49  0.  0.  0.
551  5.50  0.  0.  0.
552  5.51  0.  0.  0.
553  5.52  0.  0.  0.
554  5.53  0.  0.  0.
555  5.54  0.  0.  0.
556  5.55  0.  0.  0.
557  5.56  0.  0.  0.
558  5.57  0.  0.  0.
559  5.58  0.  0.  0.
560  5.59  0.  0.  0.
561  5.60  0.  0.  0.
562  5.61  0.  0.  0.
563  5.62  0.  0.  0.
564  5.63  0.  0.  0.
565  5.64  0.  0.  0.
566  5.65  0.  0.  0.
567  5.66  0.  0.  0.
568  5.67  0.  0.  0.
569  5.68  0.  0.  0.
570  5.69  0.  0.  0.
571  5.70  0.  0.  0.
572  5.71  0.  0.  0.
573  5.72  0.  0.  0.
574  5.73  0.  0.  0.
575  5.74  0.  0.  0.
576  5.75  0.  0.  0.
577  5.76  0.  0.  0.
578  5.77  0.  0.  0.
579  5.78  0.  0.  0.
580  5.79  0.  0.  0.
581  5.80  0.  0.  0.
582  5.81  0.  0.  0.
583  5.82  0.  0.  0.
584  5.83  0.  0.  0.
585  5.84  0.  0.  0.
586  5.85  0.  0.  0.
587  5.86  0.  0.  0.
588  5.87  0.  0.  0.
589  5.88  0.  0.  0.
590  5.89  0.  0.  0.
591  5.90  0.  0.  0.
592  5.91  0.  0.  0.
593  5.92  0.  0.  0.
594  5.93  0.  0.  0.
595  5.94  0.  0.  0.
596  5.95  0.  0.  0.
597  5.96  0.  0.  0.
598  5.97  0.  0.  0.
599  5.98  0.  0.  0.
600  5.99  0.  0.  0.
1                         1.4607868359406E+01  2.1896851018721E+00
1  0.0000000000000E+00 -2.5456048380335E-10  2.3218160727367E-09
2  1.0000000000000E-02  3.2219231694329E-03 -1.5388852499822E-03
3  2.0000000000000E-02  1.2866646284817E-02 -6.1388676793402E-03
4  3.0000000000000E-02  2.8871134944202E-02 -1.3749995803716E-02
5  4.0000000000000E-02  5.1130681433660E-02 -2.4289247156767E-02
6  5.0000000000000E-02  7.9499430413688E-02 -3.7640879349133E-02
7  6.0000000000000E-02  1.1379111727397E-01 -5.3656933373457E-02
8  7.0000000000000E-02  1.5378002129495E-01 -7.2157900350330E-02
9  8.0000000000000E-02  1.9920213600900E-01 -9.2933565231790E-02
10  9.0000000000000E-02  2.4975655915683E-01 -1.1574404267933E-01
11  1.0000000000000E-01  3.0510710434411E-01 -1.4032102131117E-01
12  1.1000000000000E-01  3.6488413589094E-01 -1.6636923269029E-01
13  1.2000000000000E-01  4.2868662740895E-01 -1.9356816074578E-01
14  1.3000000000000E-01  4.9608444332988E-01 -2.2157400575482E-01
15  1.4000000000000E-01  5.6662084094526E-01 -2.5002191456016E-01
16  1.5000000000000E-01  6.3981518851323E-01 -2.7852848538138E-01
17  1.6000000000000E-01  7.1516589266949E-01 -3.0669455145069E-01
18  1.7000000000000E-01  7.9215352578049E-01 -3.3410824284297E-01
19  1.8000000000000E-01  8.7024414104492E-01 -3.6034832037750E-01
20  1.9000000000000E-01  9.4889276013854E-01 -3.8498776947037E-01
21  2.0000000000000E-01  1.0275470150717E+00 -4.0759763545508E-01
22  2.1000000000000E-01  1.1056509227588E+00 -4.2775107532364E-01
23  2.2000000000000E-01  1.1826487676584E+00 -4.4502759424252E-01
24  2.3000000000000E-01  1.2579890648125E+00 -4.5901742874431E-01
25  2.4000000000000E-01  1.3311285727686E+00 -4.6932603236862E-01
26  2.5000000000000E-01  1.4015363232921E+00 -4.7557861390138E-01
27  2.6000000000000E-01  1.4686976325427E+00 -4.7742467341310E-01
28  2.7000000000000E-01  1.5321180565654E+00 -4.7454247718245E-01
29  2.8000000000000E-01  1.5913272526011E+00 -4.6664340945606E-01
30  2.9000000000000E-01  1.6458827069115E+00 -4.5347613696170E-01
31  3.0000000000000E-01  1.6953732895747E+00 -4.3483052126008E-01
32  3.1000000000000E-01  1.7394225970832E+00 -4.1054121446265E-01
33  3.2000000000000E-01  1.7776920445853E+00 -3.8049087560299E-01
34  3.3000000000000E-01  1.8098836712565E+00 -3.4461294803951E-01
35  3.4000000000000E-01  1.8357426245666E+00 -3.0289394266792E-01
36  3.5000000000000E-01  1.8550592921054E+00 -2.5537517738169E-01
37  3.6000000000000E-01  1.8676710530998E+00 -2.0215393005378E-01
38  3.7000000000000E-01  1.8734636257629E+00 -1.4338397021143E-01
39  3.8000000000000E-01  1.8723719910932E+00 -7.9275443395262E-02
40  3.9000000000000E-01  1.8643808786230E+00 -1.0094091771304E-02
41  4.0000000000000E-01  1.8495248048166E+00  6.3840195287815E-02
42  4.1000000000000E-01  1.8278876602576E+00  1.4215549642086E-01
43  4.2000000000000E-01  1.7996018473367E+00  2.2443062439371E-01
44  4.3000000000000E-01  1.7648469757726E+00  3.1019851760994E-01
45  4.4000000000000E-01  1.7238481288542E+00  3.9895022120116E-01
46  4.5000000000000E-01  1.6768737186974E+00  4.9013941207946E-01
47  4.6000000000000E-01  1.6242329539532E+00  5.8318741324786E-01
48  4.7000000000000E-01  1.5662729482123E+00  6.7748863449091E-01
49  4.8000000000000E-01  1.5033755017203E+00  7.7241636948066E-01
50  4.9000000000000E-01  1.4359535928912E+00  8.6732887348271E-01
51  5.0000000000000E-01  1.3644476194055E+00  9.6157564135847E-01
52  5.1000000000000E-01  1.2893214313601E+00  1.0545038025240E+00
53  5.2000000000000E-01  1.2110582009582E+00  1.1454645480026E+00
54  5.3000000000000E-01  1.1301561745603E+00  1.2338195047218E+00
55  5.4000000000000E-01  1.0471243535559E+00  1.3189469737477E+00
56  5.5000000000000E-01  9.6247815046350E-01  1.4002479521711E+00
57  5.6000000000000E-01  8.7673506593398E-01  1.4771518627847E+00
58  5.7000000000000E-01  7.9041043096361E-01  1.5491219214074E+00
59  5.8000000000000E-01  7.0401325664755E-01  1.6156600785830E+00
60  5.9000000000000E-01  6.1804223128923E-01  1.6763114802359E+00
61  6.0000000000000E-01  5.3298190168263E-01  1.7306684005306E+00
62  6.1000000000000E-01  4.4929907197844E-01  1.7783736094463E+00
63  6.2000000000000E-01  3.6743944980963E-01  1.8191231472348E+00
64  6.3000000000000E-01  2.8782456536788E-01  1.8526684877652E+00
65  6.4000000000000E-01  2.1084898497437E-01  1.8788180825496E+00
66  6.5000000000000E-01  1.3687783645898E-01  1.8974382867928E+00
67  6.6000000000000E-01  6.6244659431967E-02  1.9084536779047E+00
68  6.7000000000000E-01 -7.5041062262353E-04  1.9118467853836E+00
69  6.8000000000000E-01 -6.3842119511515E-02  1.9076572586603E+00
70  6.9000000000000E-01 -1.2280123163732E-01  1.8959805062456E+00
71  7.0000000000000E-01 -1.7743532986847E-01  1.8769658452474E+00
72  7.1000000000000E-01 -2.2758928363790E-01  1.8508142049301E+00
73  7.2000000000000E-01 -2.7314539383879E-01  1.8177754314450E+00
74  7.3000000000000E-01 -3.1402322563428E-01  1.7781452431337E+00
75  7.4000000000000E-01 -3.5017914248068E-01  1.7322618869360E+00
76  7.5000000000000E-01 -3.8160555648140E-01  1.6805025464441E+00
77  7.6000000000000E-01 -4.0832991165128E-01  1.6232795511318E+00
78  7.7000000000000E-01 -4.3041341779955E-01  1.5610364343354E+00
79  7.8000000000000E-01 -4.4794955355945E-01  1.4942438848071E+00
80  7.9000000000000E-01 -4.6106235763957E-01  1.4233956332299E+00
81  8.0000000000000E-01 -4.6990452768308E-01  1.3490043111378E+00
82  8.1000000000000E-01 -4.7465534623800E-01  1.2715973153727E+00
83  8.2000000000000E-01 -4.7551845330796E-01  1.1917127067101E+00
84  8.3000000000000E-01 -4.7271948480903E-01  1.1098951667342E+00
85  8.4000000000000E-01 -4.6650359604600E-01  1.0266920326140E+00
86  8.5000000000000E-01 -4.5713288907518E-01  9.4264942524766E-01
87  8.6000000000000E-01 -4.4488376257295E-01  8.5830848243244E-01
88  8.7000000000000E-01 -4.3004420260335E-01  7.7420170538303E-01
89  8.8000000000000E-01 -4.1291103249285E-01  6.9084942414113E-01
90  8.9000000000000E-01 -3.9378713988391E-01  6.0875638524647E-01
91  9.0000000000000E-01 -3.7297869895523E-01  5.2840846350653E-01
92  9.1000000000000E-01 -3.5079240575680E-01  4.5026949880625E-01
93  9.2000000000000E-01 -3.2753274460034E-01  3.7477825861971E-01
94  9.3000000000000E-01 -3.0349930344788E-01  3.0234552717240E-01
95  9.4000000000000E-01 -2.7898415622743E-01  2.3335132298629E-01
96  9.5000000000000E-01 -2.5426932994240E-01  1.6814224772948E-01
97  9.6000000000000E-01 -2.2962437429641E-01  1.0702897078345E-01
98  9.7000000000000E-01 -2.0530405128969E-01  5.0283855616180E-02
99  9.8000000000000E-01 -1.8154616182164E-01 -1.8612642142383E-03
100  9.9000000000000E-01 -1.5856952571982E-01 -4.9217149930695E-02
101  1.0000000000000E+00 -1.3657213077811E-01 -9.1639052306305E-02
102  1.0100000000000E+00 -1.1572946529737E-01 -1.2902842417898E-01
103  1.0200000000000E+00 -9.6193047261690E-02 -1.6133443779320E-01
104  1.0300000000000E+00 -7.8089161639552E-02 -1.8855529378448E-01
105  1.0400000000000E+00 -6.1517815365520E-02 -2.1073930892552E-01
106  1.0500000000000E+00 -4.6551917343053E-02 -2.2798577067654E-01
107  1.0600000000000E+00 -3.3236688328855E-02 -2.4044554814474E-01
108  1.0700000000000E+00 -2.1589302832165E-02 -2.4832145126939E-01
109  1.0800000000000E+00 -1.1598762238205E-02 -2.5186833286856E-01
110  1.0900000000000E+00 -3.2259938558932E-03 -2.5139293616540E-01
111  1.1000000000000E+00  3.5958188112222E-03 -2.4725344945424E-01
112  1.1100000000000E+00  8.9603035492410E-03 -2.3985751895142E-01
113  1.1200000000000E+00  1.2981196478086E-02 -2.2964196129068E-01
114  1.1300000000000E+00  1.5783780999168E-02 -2.1704792437657E-01
115  1.1400000000000E+00  1.7501690332386E-02 -2.0251468238882E-01