Ac    ONCVPSP-4.0.1  r_core=   1.30140   1.30140   1.40664
     89.0000     29.0000      211216    zatom,zion,pspd
     8      11   2     4   600     0    pspcod,pspxc,lmax,lloc,mmax,r2well
  5.99000000  5.00000000  0.00000000    rchrg fchrg qchrg
     3     2     2     0     0    nproj
     1     1           extension_switch
   0                         2.0508318100301E+01  3.1370462839766E+00 -5.7270780600883E-01
     1  0.0000000000000E+00 -1.0066509492646E-07  2.6434915179063E-07  3.4549463068245E-08
     2  1.0000000000000E-02  1.4281810279863E-01 -9.8467927045242E-02  8.3668290662459E-03
     3  2.0000000000000E-02  2.8423439166280E-01 -1.9409933615858E-01  1.7068306357529E-02
     4  3.0000000000000E-02  4.2287834530230E-01 -2.8413764696173E-01  2.6427714112355E-02
     5  4.0000000000000E-02  5.5744112592738E-01 -3.6598378240367E-01  3.6745933869763E-02
     6  5.0000000000000E-02  6.8670419372344E-01 -4.3726906235831E-01  4.8291065035328E-02
     7  6.0000000000000E-02  8.0956532391332E-01 -4.9592126526126E-01  6.1289000451393E-02
     8  7.0000000000000E-02  9.2506128367992E-01 -5.4022190358694E-01  7.5915235911305E-02
     9  8.0000000000000E-02  1.0323865268866E+00 -5.6885302331714E-01  9.2288156007926E-02
    10  9.0000000000000E-02  1.1309073845011E+00 -5.8093215267206E-01  1.1046399735013E-01
    11  1.0000000000000E-01  1.2201713642556E+00 -5.7603438174516E-01  1.3043364316253E-01
    12  1.1000000000000E-01  1.2999113202385E+00 -5.5420094153107E-01  1.5212135190607E-01
    13  1.2000000000000E-01  1.3700444073473E+00 -5.1593405647255E-01  1.7538546824347E-01
    14  1.3000000000000E-01  1.4306658921477E+00 -4.6217825682579E-01  2.0002110892929E-01
    15  1.4000000000000E-01  1.4820380459237E+00 -3.9428874339917E-01  2.2576476057519E-01
    16  1.5000000000000E-01  1.5245744928970E+00 -3.1398778529507E-01  2.5230067226871E-01
    17  1.6000000000000E-01  1.5588205222533E+00 -2.2331048946325E-01  2.7926887520755E-01
    18  1.7000000000000E-01  1.5854299926484E+00 -1.2454159835239E-01  3.0627461526084E-01
    19  1.8000000000000E-01  1.6051395586182E+00 -2.0145239156066E-02  3.3289894397039E-01
    20  1.9000000000000E-01  1.6187410267484E+00  8.7310242951314E-02  3.5871018008172E-01
    21  2.0000000000000E-01  1.6270527032025E+00  1.9523009087642E-01  3.8327592818034E-01
    22  2.1000000000000E-01  1.6308906216360E+00  3.0107122883430E-01  4.0617532411499E-01
    23  2.2000000000000E-01  1.6310405408409E+00  4.0241828630637E-01  4.2701116909406E-01
    24  2.3000000000000E-01  1.6282315746739E+00  4.9705526317407E-01  4.4542161586802E-01
    25  2.4000000000000E-01  1.6231122637683E+00  5.8303068244423E-01  4.6109108122652E-01
    26  2.5000000000000E-01  1.6162298208583E+00  6.5871427785494E-01  4.7376007885543E-01
    27  2.6000000000000E-01  1.6080131816440E+00  7.2284352327180E-01  4.8323369487786E-01
    28  2.7000000000000E-01  1.5987603740699E+00  7.7455862122151E-01  4.8938846437249E-01
    29  2.8000000000000E-01  1.5886305843347E+00  8.1342491969581E-01  4.9217744983820E-01
    30  2.9000000000000E-01  1.5776411520115E+00  8.3944210877825E-01  4.9163337078652E-01
    31  3.0000000000000E-01  1.5656695738209E+00  8.5303995006141E-01  4.8786968606926E-01
    32  3.1000000000000E-01  1.5524604405234E+00  8.5506070003932E-01  4.8107958575010E-01
    33  3.2000000000000E-01  1.5376370788423E+00  8.4672879128186E-01  4.7153290578820E-01
    34  3.3000000000000E-01  1.5207175249388E+00  8.2960872002240E-01  4.5957103497070E-01
    35  3.4000000000000E-01  1.5011343221868E+00  8.0555244416733E-01  4.4559993786359E-01
    36  3.5000000000000E-01  1.4782575178971E+00  7.7663791094152E-01  4.3008146855959E-01
    37  3.6000000000000E-01  1.4514201348274E+00  7.4510059891550E-01  4.1352319628240E-01
    38  3.7000000000000E-01  1.4199453167593E+00  7.1326016706580E-01  3.9646700419476E-01
    39  3.8000000000000E-01  1.3831742954560E+00  6.8344444761352E-01  3.7947675594717E-01
    40  3.9000000000000E-01  1.3404943004623E+00  6.5791309542943E-01  3.6312534968846E-01
    41  4.0000000000000E-01  1.2913655342371E+00  6.3878321265758E-01  3.4798149575350E-01
    42  4.1000000000000E-01  1.2353463629195E+00  6.2795920289464E-01  3.3459656160107E-01
    43  4.2000000000000E-01  1.1721159267310E+00  6.2706897692052E-01  3.2349182560221E-01
    44  4.3000000000000E-01  1.1014934519005E+00  6.3740843584167E-01  3.1514647004073E-01
    45  4.4000000000000E-01  1.0234536456333E+00  6.5989590374358E-01  3.0998662350207E-01
    46  4.5000000000000E-01  9.3813767392556E-01  6.9503787847079E-01  3.0837573425749E-01
    47  4.6000000000000E-01  8.4585935528186E-01  7.4290712537683E-01  3.1060652009700E-01
    48  4.7000000000000E-01  7.4710634751234E-01  8.0313376542669E-01  3.1689469732433E-01
    49  4.8000000000000E-01  6.4253625531796E-01  8.7490961738281E-01  3.2737464348904E-01
    50  4.9000000000000E-01  5.3296773870053E-01  9.5700565596762E-01  3.4209709621894E-01
    51  5.0000000000000E-01  4.1936685168847E-01  1.0478020560183E+00  3.6102893567379E-01
    52  5.1000000000000E-01  3.0282898289571E-01  1.1453299186434E+00  3.8405504217363E-01
    53  5.2000000000000E-01  1.8455689971638E-01  1.2473234305666E+00  4.1098216500074E-01
    54  5.3000000000000E-01  6.5835512575954E-02  1.3512809025547E+00  4.4154468475206E-01
    55  5.4000000000000E-01 -5.1995928816383E-02  1.4545328761538E+00  4.7541210139339E-01
    56  5.5000000000000E-01 -1.6757342165885E-01  1.5543152874465E+00  5.1219803470290E-01
    57  5.6000000000000E-01 -2.7953874355946E-01  1.6478455379384E+00  5.5147048432059E-01
    58  5.7000000000000E-01 -3.8657007404492E-01  1.7323992498069E+00  5.9276306420234E-01
    59  5.8000000000000E-01 -4.8741184656934E-01  1.8053854773434E+00  6.3558690177732E-01
    60  5.9000000000000E-01 -5.8090300104605E-01  1.8644182081526E+00  6.7944287616539E-01
    61  6.0000000000000E-01 -6.6600285914708E-01  1.9073821141050E+00  7.2383386283367E-01
    62  6.1000000000000E-01 -7.4181391972506E-01  1.9324906987628E+00  7.6827665421105E-01
    63  6.2000000000000E-01 -8.0760096721007E-01  1.9383352287515E+00  8.1231323694099E-01
    64  6.3000000000000E-01 -8.6280599860193E-01  1.9239231234584E+00  8.5552112629270E-01
    65  6.4000000000000E-01 -9.0705860108156E-01  1.8887048012366E+00  8.9752248618399E-01
    66  6.5000000000000E-01 -9.4018154827672E-01  1.8325883306687E+00  9.3799179849562E-01
    67  6.6000000000000E-01 -9.6219152454746E-01  1.7559416013389E+00  9.7666188687691E-01
    68  6.7000000000000E-01 -9.7329502888845E-01  1.6595820985607E+00  1.0133281468883E+00
    69  6.8000000000000E-01 -9.7387964876928E-01  1.5447547291281E+00  1.0478508847927E+00
    70  6.9000000000000E-01 -9.6450102523050E-01  1.4130984893930E+00  1.0801557202030E+00
    71  7.0000000000000E-01 -9.4586594983527E-01  1.2666030823383E+00  1.1102320616411E+00
    72  7.1000000000000E-01 -9.1881213815004E-01  1.1075568675594E+00  1.1381297174078E+00
    73  7.2000000000000E-01 -8.8428531024535E-01  9.3848775907289E-01  1.1639537555285E+00
    74  7.3000000000000E-01 -8.4331427390568E-01  7.6209886421451E-01  1.1878577745450E+00
    75  7.4000000000000E-01 -7.9698474909342E-01  5.8120077781839E-01  1.2100357902795E+00
    76  7.5000000000000E-01 -7.4641269176719E-01  3.9864250655592E-01  1.2307129812305E+00
    77  7.6000000000000E-01 -6.9271787119312E-01  2.1724299786180E-01  1.2501355660065E+00
    78  7.7000000000000E-01 -6.3699842795911E-01  3.9725187357987E-02  1.2685601093375E+00
    79  7.8000000000000E-01 -5.8030709127948E-01 -1.3134563893415E-01  1.2862425681590E+00
    80  7.9000000000000E-01 -5.2362966581409E-01 -2.9361754128746E-01  1.3034273956689E+00
    81  8.0000000000000E-01 -4.6786631267640E-01 -4.4500027158347E-01  1.3203370189887E+00
    82  8.1000000000000E-01 -4.1381604964260E-01 -5.8370511131017E-01  1.3371619952304E+00
    83  8.2000000000000E-01 -3.6216478526671E-01 -7.0827533019674E-01  1.3540521317065E+00
    84  8.3000000000000E-01 -3.1347708441058E-01 -8.1760669729495E-01  1.3711088292944E+00
    85  8.4000000000000E-01 -2.6819174252178E-01 -9.1095779009067E-01  1.3883788743199E+00
    86  8.5000000000000E-01 -2.2662112676250E-01 -9.8795016077663E-01  1.4058498646972E+00
    87  8.6000000000000E-01 -1.8895412763222E-01 -1.0485587221758E+00  1.4234474115460E+00
    88  8.7000000000000E-01 -1.5526245861404E-01 -1.0930929995923E+00  1.4410342092933E+00
    89  8.8000000000000E-01 -1.2550994684198E-01 -1.1221701505125E+00  1.4584110166554E+00
    90  8.9000000000000E-01 -9.9564377611038E-02 -1.1366808741451E+00  1.4753195392306E+00
    91  9.0000000000000E-01 -7.7211391967805E-02 -1.1377495111648E+00  1.4914471530590E+00
    92  9.1000000000000E-01 -5.8169891260611E-02 -1.1266897661245E+00  1.5064333587771E+00
    93  9.2000000000000E-01 -4.2108376377798E-02 -1.1049575678606E+00  1.5198778091770E+00
    94  9.3000000000000E-01 -2.8661642775964E-02 -1.0741026155908E+00  1.5313497102830E+00
    95  9.4000000000000E-01 -1.7447264953484E-02 -1.0357201407160E+00  1.5403983585582E+00
    96  9.5000000000000E-01 -8.0813347560663E-03 -9.9140434872059E-01  1.5465645454951E+00
    97  9.6000000000000E-01 -1.9296526142060E-04 -9.4270489557696E-01  1.5493925364126E+00
    98  9.7000000000000E-01  6.5628661426580E-03 -8.9108760374045E-01  1.5484423133876E+00
    99  9.8000000000000E-01  1.2494488005126E-02 -8.3790044026997E-01  1.5433017633229E+00
   100  9.9000000000000E-01  1.7864987925168E-02 -7.8434557093488E-01  1.5335984914292E+00
   101  1.0000000000000E+00  2.2886129049120E-02 -7.3145807699579E-01  1.5190109479299E+00
   102  1.0100000000000E+00  2.7714818583441E-02 -6.8009168368190E-01  1.4992785714585E+00
   103  1.0200000000000E+00  3.2452125424382E-02 -6.3091160937257E-01  1.4742106761129E+00
   104  1.0300000000000E+00  3.7144755889972E-02 -5.8439440997702E-01  1.4436938399596E+00
   105  1.0400000000000E+00  4.1788814520867E-02 -5.4083447089273E-01  1.4076975904390E+00
   106  1.0500000000000E+00  4.6335603676946E-02 -5.0035659625238E-01  1.3662782257916E+00
   107  1.0600000000000E+00  5.0699153061950E-02 -4.6293396692482E-01  1.3195806605337E+00
   108  1.0700000000000E+00  5.4765119914398E-02 -4.2841058913070E-01  1.2678382363745E+00
   109  1.0800000000000E+00  5.8400663521808E-02 -3.9652723785354E-01  1.2113704966253E+00
   110  1.0900000000000E+00  6.1464874131492E-02 -3.6694981420794E-01  1.1505789814554E+00
   111  1.1000000000000E+00  6.3819326225140E-02 -3.3929898405741E-01  1.0859411620909E+00
   112  1.1100000000000E+00  6.5338328527366E-02 -3.1317994439590E-01  1.0180026934145E+00
   113  1.1200000000000E+00  6.5918456793802E-02 -2.8821117160158E-01  9.4736822561736E-01
   114  1.1300000000000E+00  6.5486978283440E-02 -2.6405103692922E-01  8.7469107542780E-01
   115  1.1400000000000E+00  6.4008806754510E-02 -2.4042122441984E-01  8.0066211573718E-01
   116  1.1500000000000E+00  6.1491660729810E-02 -2.1712594760313E-01  7.2599829785086E-01
   117  1.1600000000000E+00  5.7989133016323E-02 -1.9406602736073E-01  6.5143127320510E-01
   118  1.1700000000000E+00  5.3601412352553E-02 -1.7124695543961E-01  5.7769663002741E-01
   119  1.1800000000000E+00  4.8473425616867E-02 -1.4878011886802E-01  5.0552430527955E-01
   120  1.1900000000000E+00  4.2790187622488E-02 -1.2687639119614E-01  4.3563077252202E-01
   121  1.2000000000000E+00  3.6769152080889E-02 -1.0583129938917E-01  3.6871364214191E-01
   122  1.2100000000000E+00  3.0649348588291E-02 -8.6000942325198E-02  3.0544934150361E-01
   123  1.2200000000000E+00  2.4677011600369E-02 -6.7767644142389E-02  2.4649453388906E-01
   124  1.2300000000000E+00  1.9087820236244E-02 -5.1495214796047E-02  1.9249230371047E-01
   125  1.2400000000000E+00  1.4074012340044E-02 -3.7447241142956E-02  1.4407511101745E-01
   126  1.2500000000000E+00  9.7025319588030E-03 -2.5592539430063E-02  1.0183275290297E-01
   127  1.2600000000000E+00  6.0919959550494E-03 -1.6019758766418E-02  6.6386817504946E-02
   128  1.2700000000000E+00  3.3307727462151E-03 -8.7858464499387E-03  3.8236674555091E-02
   129  1.2800000000000E+00  1.4399318673036E-03 -3.8379342312008E-03  1.7720776318054E-02
   130  1.2900000000000E+00  3.6859929584990E-04 -1.0017929279859E-03  4.9654045631817E-03
   131  1.3000000000000E+00  1.0301380700298E-05 -2.9011048250821E-05  1.5824852972726E-04
   132  1.3100000000000E+00  9.0912533547327E-07 -2.5344339252384E-06  1.3523041751097E-05
   133  1.3200000000000E+00 -4.1294875518804E-07  1.1347103712672E-06 -5.8066642668459E-06
   134  1.33 -0.  0. -0.
   135  1.34  0.  0.  0.
   136  1.35  0.  0.  0.
   137  1.36  0.  0.  0.
   138  1.37  0.  0.  0.
   139  1.38  0.  0.  0.
   140  1.39  0.  0.  0.
   141  1.40  0.  0.  0.
   142  1.41  0.  0.  0.
   143  1.42  0.  0.  0.
   144  1.43  0.  0.  0.
   145  1.44  0.  0.  0.
   146  1.45  0.  0.  0.
   147  1.46  0.  0.  0.
   148  1.47  0.  0.  0.
   149  1.48  0.  0.  0.
   150  1.49  0.  0.  0.
   151  1.50  0.  0.  0.
   152  1.51  0.  0.  0.
   153  1.52  0.  0.  0.
   154  1.53  0.  0.  0.
   155  1.54  0.  0.  0.
   156  1.55  0.  0.  0.
   157  1.56  0.  0.  0.
   158  1.57  0.  0.  0.
   159  1.58  0.  0.  0.
   160  1.59  0.  0.  0.
   161  1.60  0.  0.  0.
   162  1.61  0.  0.  0.
   163  1.62  0.  0.  0.
   164  1.63  0.  0.  0.
   165  1.64  0.  0.  0.
   166  1.65  0.  0.  0.
   167  1.66  0.  0.  0.
   168  1.67  0.  0.  0.
   169  1.68  0.  0.  0.
   170  1.69  0.  0.  0.
   171  1.70  0.  0.  0.
   172  1.71  0.  0.  0.
   173  1.72  0.  0.  0.
   174  1.73  0.  0.  0.
   175  1.74  0.  0.  0.
   176  1.75  0.  0.  0.
   177  1.76  0.  0.  0.
   178  1.77  0.  0.  0.
   179  1.78  0.  0.  0.
   180  1.79  0.  0.  0.
   181  1.80  0.  0.  0.
   182  1.81  0.  0.  0.
   183  1.82  0.  0.  0.
   184  1.83  0.  0.  0.
   185  1.84  0.  0.  0.
   186  1.85  0.  0.  0.
   187  1.86  0.  0.  0.
   188  1.87  0.  0.  0.
   189  1.88  0.  0.  0.
   190  1.89  0.  0.  0.
   191  1.90  0.  0.  0.
   192  1.91  0.  0.  0.
   193  1.92  0.  0.  0.
   194  1.93  0.  0.  0.
   195  1.94  0.  0.  0.
   196  1.95  0.  0.  0.
   197  1.96  0.  0.  0.
   198  1.97  0.  0.  0.
   199  1.98  0.  0.  0.
   200  1.99  0.  0.  0.
   201  2.00  0.  0.  0.
   202  2.01  0.  0.  0.
   203  2.02  0.  0.  0.
   204  2.03  0.  0.  0.
   205  2.04  0.  0.  0.
   206  2.05  0.  0.  0.
   207  2.06  0.  0.  0.
   208  2.07  0.  0.  0.
   209  2.08  0.  0.  0.
   210  2.09  0.  0.  0.
   211  2.10  0.  0.  0.
   212  2.11  0.  0.  0.
   213  2.12  0.  0.  0.
   214  2.13  0.  0.  0.
   215  2.14  0.  0.  0.
   216  2.15  0.  0.  0.
   217  2.16  0.  0.  0.
   218  2.17  0.  0.  0.
   219  2.18  0.  0.  0.
   220  2.19  0.  0.  0.
   221  2.20  0.  0.  0.
   222  2.21  0.  0.  0.
   223  2.22  0.  0.  0.
   224  2.23  0.  0.  0.
   225  2.24  0.  0.  0.
   226  2.25  0.  0.  0.
   227  2.26  0.  0.  0.
   228  2.27  0.  0.  0.
   229  2.28  0.  0.  0.
   230  2.29  0.  0.  0.
   231  2.30  0.  0.  0.
   232  2.31  0.  0.  0.
   233  2.32  0.  0.  0.
   234  2.33  0.  0.  0.
   235  2.34  0.  0.  0.
   236  2.35  0.  0.  0.
   237  2.36  0.  0.  0.
   238  2.37  0.  0.  0.
   239  2.38  0.  0.  0.
   240  2.39  0.  0.  0.
   241  2.40  0.  0.  0.
   242  2.41  0.  0.  0.
   243  2.42  0.  0.  0.
   244  2.43  0.  0.  0.
   245  2.44  0.  0.  0.
   246  2.45  0.  0.  0.
   247  2.46  0.  0.  0.
   248  2.47  0.  0.  0.
   249  2.48  0.  0.  0.
   250  2.49  0.  0.  0.
   251  2.50  0.  0.  0.
   252  2.51  0.  0.  0.
   253  2.52  0.  0.  0.
   254  2.53  0.  0.  0.
   255  2.54  0.  0.  0.
   256  2.55  0.  0.  0.
   257  2.56  0.  0.  0.
   258  2.57  0.  0.  0.
   259  2.58  0.  0.  0.
   260  2.59  0.  0.  0.
   261  2.60  0.  0.  0.
   262  2.61  0.  0.  0.
   263  2.62  0.  0.  0.
   264  2.63  0.  0.  0.
   265  2.64  0.  0.  0.
   266  2.65  0.  0.  0.
   267  2.66  0.  0.  0.
   268  2.67  0.  0.  0.
   269  2.68  0.  0.  0.
   270  2.69  0.  0.  0.
   271  2.70  0.  0.  0.
   272  2.71  0.  0.  0.
   273  2.72  0.  0.  0.
   274  2.73  0.  0.  0.
   275  2.74  0.  0.  0.
   276  2.75  0.  0.  0.
   277  2.76  0.  0.  0.
   278  2.77  0.  0.  0.
   279  2.78  0.  0.  0.
   280  2.79  0.  0.  0.
   281  2.80  0.  0.  0.
   282  2.81  0.  0.  0.
   283  2.82  0.  0.  0.
   284  2.83  0.  0.  0.
   285  2.84  0.  0.  0.
   286  2.85  0.  0.  0.
   287  2.86  0.  0.  0.
   288  2.87  0.  0.  0.
   289  2.88  0.  0.  0.
   290  2.89  0.  0.  0.
   291  2.90  0.  0.  0.
   292  2.91  0.  0.  0.
   293  2.92  0.  0.  0.
   294  2.93  0.  0.  0.
   295  2.94  0.  0.  0.
   296  2.95  0.  0.  0.
   297  2.96  0.  0.  0.
   298  2.97  0.  0.  0.
   299  2.98  0.  0.  0.
   300  2.99  0.  0.  0.
   301  3.00  0.  0.  0.
   302  3.01  0.  0.  0.
   303  3.02  0.  0.  0.
   304  3.03  0.  0.  0.
   305  3.04  0.  0.  0.
   306  3.05  0.  0.  0.
   307  3.06  0.  0.  0.
   308  3.07  0.  0.  0.
   309  3.08  0.  0.  0.
   310  3.09  0.  0.  0.
   311  3.10  0.  0.  0.
   312  3.11  0.  0.  0.
   313  3.12  0.  0.  0.
   314  3.13  0.  0.  0.
   315  3.14  0.  0.  0.
   316  3.15  0.  0.  0.
   317  3.16  0.  0.  0.
   318  3.17  0.  0.  0.
   319  3.18  0.  0.  0.
   320  3.19  0.  0.  0.
   321  3.20  0.  0.  0.
   322  3.21  0.  0.  0.
   323  3.22  0.  0.  0.
   324  3.23  0.  0.  0.
   325  3.24  0.  0.  0.
   326  3.25  0.  0.  0.
   327  3.26  0.  0.  0.
   328  3.27  0.  0.  0.
   329  3.28  0.  0.  0.
   330  3.29  0.  0.  0.
   331  3.30  0.  0.  0.
   332  3.31  0.  0.  0.
   333  3.32  0.  0.  0.
   334  3.33  0.  0.  0.
   335  3.34  0.  0.  0.
   336  3.35  0.  0.  0.
   337  3.36  0.  0.  0.
   338  3.37  0.  0.  0.
   339  3.38  0.  0.  0.
   340  3.39  0.  0.  0.
   341  3.40  0.  0.  0.
   342  3.41  0.  0.  0.
   343  3.42  0.  0.  0.
   344  3.43  0.  0.  0.
   345  3.44  0.  0.  0.
   346  3.45  0.  0.  0.
   347  3.46  0.  0.  0.
   348  3.47  0.  0.  0.
   349  3.48  0.  0.  0.
   350  3.49  0.  0.  0.
   351  3.50  0.  0.  0.
   352  3.51  0.  0.  0.
   353  3.52  0.  0.  0.
   354  3.53  0.  0.  0.
   355  3.54  0.  0.  0.
   356  3.55  0.  0.  0.
   357  3.56  0.  0.  0.
   358  3.57  0.  0.  0.
   359  3.58  0.  0.  0.
   360  3.59  0.  0.  0.
   361  3.60  0.  0.  0.
   362  3.61  0.  0.  0.
   363  3.62  0.  0.  0.
   364  3.63  0.  0.  0.
   365  3.64  0.  0.  0.
   366  3.65  0.  0.  0.
   367  3.66  0.  0.  0.
   368  3.67  0.  0.  0.
   369  3.68  0.  0.  0.
   370  3.69  0.  0.  0.
   371  3.70  0.  0.  0.
   372  3.71  0.  0.  0.
   373  3.72  0.  0.  0.
   374  3.73  0.  0.  0.
   375  3.74  0.  0.  0.
   376  3.75  0.  0.  0.
   377  3.76  0.  0.  0.
   378  3.77  0.  0.  0.
   379  3.78  0.  0.  0.
   380  3.79  0.  0.  0.
   381  3.80  0.  0.  0.
   382  3.81  0.  0.  0.
   383  3.82  0.  0.  0.
   384  3.83  0.  0.  0.
   385  3.84  0.  0.  0.
   386  3.85  0.  0.  0.
   387  3.86  0.  0.  0.
   388  3.87  0.  0.  0.
   389  3.88  0.  0.  0.
   390  3.89  0.  0.  0.
   391  3.90  0.  0.  0.
   392  3.91  0.  0.  0.
   393  3.92  0.  0.  0.
   394  3.93  0.  0.  0.
   395  3.94  0.  0.  0.
   396  3.95  0.  0.  0.
   397  3.96  0.  0.  0.
   398  3.97  0.  0.  0.
   399  3.98  0.  0.  0.
   400  3.99  0.  0.  0.
   401  4.00  0.  0.  0.
   402  4.01  0.  0.  0.
   403  4.02  0.  0.  0.
   404  4.03  0.  0.  0.
   405  4.04  0.  0.  0.
   406  4.05  0.  0.  0.
   407  4.06  0.  0.  0.
   408  4.07  0.  0.  0.
   409  4.08  0.  0.  0.
   410  4.09  0.  0.  0.
   411  4.10  0.  0.  0.
   412  4.11  0.  0.  0.
   413  4.12  0.  0.  0.
   414  4.13  0.  0.  0.
   415  4.14  0.  0.  0.
   416  4.15  0.  0.  0.
   417  4.16  0.  0.  0.
   418  4.17  0.  0.  0.
   419  4.18  0.  0.  0.
   420  4.19  0.  0.  0.
   421  4.20  0.  0.  0.
   422  4.21  0.  0.  0.
   423  4.22  0.  0.  0.
   424  4.23  0.  0.  0.
   425  4.24  0.  0.  0.
   426  4.25  0.  0.  0.
   427  4.26  0.  0.  0.
   428  4.27  0.  0.  0.
   429  4.28  0.  0.  0.
   430  4.29  0.  0.  0.
   431  4.30  0.  0.  0.
   432  4.31  0.  0.  0.
   433  4.32  0.  0.  0.
   434  4.33  0.  0.  0.
   435  4.34  0.  0.  0.
   436  4.35  0.  0.  0.
   437  4.36  0.  0.  0.
   438  4.37  0.  0.  0.
   439  4.38  0.  0.  0.
   440  4.39  0.  0.  0.
   441  4.40  0.  0.  0.
   442  4.41  0.  0.  0.
   443  4.42  0.  0.  0.
   444  4.43  0.  0.  0.
   445  4.44  0.  0.  0.
   446  4.45  0.  0.  0.
   447  4.46  0.  0.  0.
   448  4.47  0.  0.  0.
   449  4.48  0.  0.  0.
   450  4.49  0.  0.  0.
   451  4.50  0.  0.  0.
   452  4.51  0.  0.  0.
   453  4.52  0.  0.  0.
   454  4.53  0.  0.  0.
   455  4.54  0.  0.  0.
   456  4.55  0.  0.  0.
   457  4.56  0.  0.  0.
   458  4.57  0.  0.  0.
   459  4.58  0.  0.  0.
   460  4.59  0.  0.  0.
   461  4.60  0.  0.  0.
   462  4.61  0.  0.  0.
   463  4.62  0.  0.  0.
   464  4.63  0.  0.  0.
   465  4.64  0.  0.  0.
   466  4.65  0.  0.  0.
   467  4.66  0.  0.  0.
   468  4.67  0.  0.  0.
   469  4.68  0.  0.  0.
   470  4.69  0.  0.  0.
   471  4.70  0.  0.  0.
   472  4.71  0.  0.  0.
   473  4.72  0.  0.  0.
   474  4.73  0.  0.  0.
   475  4.74  0.  0.  0.
   476  4.75  0.  0.  0.
   477  4.76  0.  0.  0.
   478  4.77  0.  0.  0.
   479  4.78  0.  0.  0.
   480  4.79  0.  0.  0.
   481  4.80  0.  0.  0.
   482  4.81  0.  0.  0.
   483  4.82  0.  0.  0.
   484  4.83  0.  0.  0.
   485  4.84  0.  0.  0.
   486  4.85  0.  0.  0.
   487  4.86  0.  0.  0.
   488  4.87  0.  0.  0.
   489  4.88  0.  0.  0.
   490  4.89  0.  0.  0.
   491  4.90  0.  0.  0.
   492  4.91  0.  0.  0.
   493  4.92  0.  0.  0.
   494  4.93  0.  0.  0.
   495  4.94  0.  0.  0.
   496  4.95  0.  0.  0.
   497  4.96  0.  0.  0.
   498  4.97  0.  0.  0.
   499  4.98  0.  0.  0.
   500  4.99  0.  0.  0.
   501  5.00  0.  0.  0.
   502  5.01  0.  0.  0.
   503  5.02  0.  0.  0.
   504  5.03  0.  0.  0.
   505  5.04  0.  0.  0.
   506  5.05  0.  0.  0.
   507  5.06  0.  0.  0.
   508  5.07  0.  0.  0.
   509  5.08  0.  0.  0.
   510  5.09  0.  0.  0.
   511  5.10  0.  0.  0.
   512  5.11  0.  0.  0.
   513  5.12  0.  0.  0.
   514  5.13  0.  0.  0.
   515  5.14  0.  0.  0.
   516  5.15  0.  0.  0.
   517  5.16  0.  0.  0.
   518  5.17  0.  0.  0.
   519  5.18  0.  0.  0.
   520  5.19  0.  0.  0.
   521  5.20  0.  0.  0.
   522  5.21  0.  0.  0.
   523  5.22  0.  0.  0.
   524  5.23  0.  0.  0.
   525  5.24  0.  0.  0.
   526  5.25  0.  0.  0.
   527  5.26  0.  0.  0.
   528  5.27  0.  0.  0.
   529  5.28  0.  0.  0.
   530  5.29  0.  0.  0.
   531  5.30  0.  0.  0.
   532  5.31  0.  0.  0.
   533  5.32  0.  0.  0.
   534  5.33  0.  0.  0.
   535  5.34  0.  0.  0.
   536  5.35  0.  0.  0.
   537  5.36  0.  0.  0.
   538  5.37  0.  0.  0.
   539  5.38  0.  0.  0.
   540  5.39  0.  0.  0.
   541  5.40  0.  0.  0.
   542  5.41  0.  0.  0.
   543  5.42  0.  0.  0.
   544  5.43  0.  0.  0.
   545  5.44  0.  0.  0.
   546  5.45  0.  0.  0.
   547  5.46  0.  0.  0.
   548  5.47  0.  0.  0.
   549  5.48  0.  0.  0.
   550  5.49  0.  0.  0.
   551  5.50  0.  0.  0.
   552  5.51  0.  0.  0.
   553  5.52  0.  0.  0.
   554  5.53  0.  0.  0.
   555  5.54  0.  0.  0.
   556  5.55  0.  0.  0.
   557  5.56  0.  0.  0.
   558  5.57  0.  0.  0.
   559  5.58  0.  0.  0.
   560  5.59  0.  0.  0.
   561  5.60  0.  0.  0.
   562  5.61  0.  0.  0.
   563  5.62  0.  0.  0.
   564  5.63  0.  0.  0.
   565  5.64  0.  0.  0.
   566  5.65  0.  0.  0.
   567  5.66  0.  0.  0.
   568  5.67  0.  0.  0.
   569  5.68  0.  0.  0.
   570  5.69  0.  0.  0.
   571  5.70  0.  0.  0.
   572  5.71  0.  0.  0.
   573  5.72  0.  0.  0.
   574  5.73  0.  0.  0.
   575  5.74  0.  0.  0.
   576  5.75  0.  0.  0.
   577  5.76  0.  0.  0.
   578  5.77  0.  0.  0.
   579  5.78  0.  0.  0.
   580  5.79  0.  0.  0.
   581  5.80  0.  0.  0.
   582  5.81  0.  0.  0.
   583  5.82  0.  0.  0.
   584  5.83  0.  0.  0.
   585  5.84  0.  0.  0.
   586  5.85  0.  0.  0.
   587  5.86  0.  0.  0.
   588  5.87  0.  0.  0.
   589  5.88  0.  0.  0.
   590  5.89  0.  0.  0.
   591  5.90  0.  0.  0.
   592  5.91  0.  0.  0.
   593  5.92  0.  0.  0.
   594  5.93  0.  0.  0.
   595  5.94  0.  0.  0.
   596  5.95  0.  0.  0.
   597  5.96  0.  0.  0.
   598  5.97  0.  0.  0.
   599  5.98  0.  0.  0.
   600  5.99  0.  0.  0.
   1                         6.2498280475723E+00 -5.1717984434931E-01
     1  0.0000000000000E+00 -1.6504388217209E-08 -4.4206387671969E-08
     2  1.0000000000000E-02  2.4903014152513E-03 -5.3201341494993E-04
     3  2.0000000000000E-02  9.9549796779930E-03 -2.1004557548143E-03
     4  3.0000000000000E-02  2.2375093060568E-02 -4.6234438066799E-03
     5  4.0000000000000E-02  3.9718203656145E-02 -7.9675116138805E-03
     6  5.0000000000000E-02  6.1937112648592E-02 -1.1952019163939E-02
     7  6.0000000000000E-02  8.8968164085194E-02 -1.6355126901085E-02
     8  7.0000000000000E-02  1.2072918872090E-01 -2.0921145708996E-02
     9  8.0000000000000E-02  1.5711717600718E-01 -2.5369027803040E-02
    10  9.0000000000000E-02  1.9800577600631E-01 -2.9401726981206E-02
    11  1.0000000000000E-01  2.4324274347460E-01 -3.2716128064400E-02
    12  1.1000000000000E-01  2.9264744322389E-01 -3.5013226013648E-02
    13  1.2000000000000E-01  3.4600853889441E-01 -3.6008225771978E-02
    14  1.3000000000000E-01  4.0308198632292E-01 -3.5440234673448E-02
    15  1.4000000000000E-01  4.6358944775662E-01 -3.3081230314440E-02
    16  1.5000000000000E-01  5.2721723435334E-01 -2.8744007807153E-02
    17  1.6000000000000E-01  5.9361587194717E-01 -2.2288840743823E-02
    18  1.7000000000000E-01  6.6240036928282E-01 -1.3628629117394E-02
    19  1.8000000000000E-01  7.3315124927022E-01 -2.7323537333618E-03
    20  1.9000000000000E-01  8.0541638281124E-01  1.0373291059087E-02
    21  2.0000000000000E-01  8.7871364200702E-01  2.5604157748766E-02
    22  2.1000000000000E-01  9.5253436572833E-01  4.2820811106453E-02
    23  2.2000000000000E-01  1.0263476063226E+00  6.1832550215551E-02
    24  2.3000000000000E-01  1.0996051023587E+00  8.2403179090025E-02
    25  2.4000000000000E-01  1.1717468994922E+00  1.0425836108971E-01
    26  2.5000000000000E-01  1.2422075204584E+00  1.2709434005364E-01
    27  2.6000000000000E-01  1.3104225665252E+00  1.5058776493145E-01
    28  2.7000000000000E-01  1.3758356170413E+00  1.7440631618067E-01
    29  2.8000000000000E-01  1.4379052815060E+00  1.9821980257832E-01
    30  2.9000000000000E-01  1.4961122502767E+00  2.2171137737921E-01
    31  3.0000000000000E-01  1.5499661859126E+00  2.4458851366367E-01
    32  3.1000000000000E-01  1.5990122974102E+00  2.6659338066434E-01
    33  3.2000000000000E-01  1.6428374442774E+00  2.8751227593010E-01
    34  3.3000000000000E-01  1.6810756264329E+00  3.0718379212269E-01
    35  3.4000000000000E-01  1.7134127291137E+00  3.2550543146779E-01
    36  3.5000000000000E-01  1.7395904089949E+00  3.4243842449912E-01
    37  3.6000000000000E-01  1.7594090281285E+00  3.5801056154592E-01
    38  3.7000000000000E-01  1.7727295655545E+00  3.7231690396791E-01
    39  3.8000000000000E-01  1.7794744618850E+00  3.8551830575480E-01
    40  3.9000000000000E-01  1.7796273791084E+00  3.9783774292678E-01
    41  4.0000000000000E-01  1.7732318855523E+00  4.0955451621742E-01
    42  4.1000000000000E-01  1.7603891035856E+00  4.2099645974767E-01
    43  4.2000000000000E-01  1.7412543844405E+00  4.3253035275694E-01
    44  4.3000000000000E-01  1.7160330997214E+00  4.4455079094931E-01
    45  4.4000000000000E-01  1.6849756619838E+00  4.5746782675880E-01
    46  4.5000000000000E-01  1.6483719065501E+00  4.7169373212816E-01
    47  4.6000000000000E-01  1.6065449828718E+00  4.8762927175197E-01
    48  4.7000000000000E-01  1.5598449157519E+00  5.0564989794641E-01
    49  4.8000000000000E-01  1.5086420042326E+00  5.2609228948489E-01
    50  4.9000000000000E-01  1.4533202286692E+00  5.4924165533254E-01
    51  5.0000000000000E-01  1.3942708343433E+00  5.7532021004501E-01
    52  5.1000000000000E-01  1.3318862529392E+00  6.0447720086799E-01
    53  5.2000000000000E-01  1.2665545114907E+00  6.3678082786408E-01
    54  5.3000000000000E-01  1.1986542623120E+00  6.7221234865003E-01
    55  5.4000000000000E-01  1.1285505473981E+00  7.1066259984451E-01
    56  5.5000000000000E-01  1.0565913873857E+00  7.5193109971320E-01
    57  5.6000000000000E-01  9.8310525907596E-01  7.9572782263046E-01
    58  5.7000000000000E-01  9.0839949749160E-01  8.4167765795384E-01
    59  5.8000000000000E-01  8.3275962930603E-01  8.8932748598731E-01
    60  5.9000000000000E-01  7.5644961509664E-01  9.3815572424364E-01
    61  6.0000000000000E-01  6.7971294913613E-01  9.8758412058753E-01
    62  6.1000000000000E-01  6.0277453820913E-01  1.0369914983855E+00
    63  6.2000000000000E-01  5.2584325607132E-01  1.0857290947305E+00
    64  6.3000000000000E-01  4.4911504843128E-01  1.1331370781884E+00
    65  6.4000000000000E-01  3.7277644542400E-01  1.1785617891272E+00
    66  6.5000000000000E-01  2.9700832504513E-01  1.2213732150284E+00
    67  6.6000000000000E-01  2.2198976238471E-01  1.2609821963812E+00
    68  6.7000000000000E-01  1.4790179605630E-01  1.2968568565716E+00
    69  6.8000000000000E-01  7.4930945124550E-02  1.3285377619179E+00
    70  6.9000000000000E-01  3.2723170958529E-03  1.3556513455660E+00
    71  7.0000000000000E-01 -6.6867840009216E-02  1.3779211707696E+00
    72  7.1000000000000E-01 -1.3527027115166E-01  1.3951766641708E+00
    73  7.2000000000000E-01 -2.0170164125775E-01  1.4073590166410E+00
    74  7.3000000000000E-01 -2.6591433808731E-01  1.4145240262916E+00
    75  7.4000000000000E-01 -3.2764720480844E-01  1.4168417432910E+00
    76  7.5000000000000E-01 -3.8662722531317E-01  1.4145928667615E+00
    77  7.6000000000000E-01 -4.4257215322348E-01  1.4081619377146E+00
    78  7.7000000000000E-01 -4.9519404313188E-01  1.3980274659725E+00
    79  7.8000000000000E-01 -5.4420361088631E-01  1.3847492205912E+00
    80  7.9000000000000E-01 -5.8931531965651E-01  1.3689529996923E+00
    81  8.0000000000000E-01 -6.3025306106101E-01  1.3513132742177E+00