Ac    ONCVPSP-4.0.1  r_core=   1.30140   1.30140   1.40664   1.55722
89.0000     29.0000      220205    zatom,zion,pspd
8      11   3     4   600     0    pspcod,pspxc,lmax,lloc,mmax,r2well
5.99000000  5.00000000  0.00000000    rchrg fchrg qchrg
3     2     2     1     0    nproj
1     1           extension_switch
0                         2.0508318384799E+01  3.1370463439829E+00 -5.7270780589805E-01
1  0.0000000000000E+00 -1.0066488020932E-07  2.6434856137403E-07  3.4549447164300E-08
2  1.0000000000000E-02  1.4281810303201E-01 -9.8467924634643E-02  8.3668288310445E-03
3  2.0000000000000E-02  2.8423439212797E-01 -1.9409933139905E-01  1.7068305890574E-02
4  3.0000000000000E-02  4.2287834599600E-01 -2.8413763997465E-01  2.6427713420469E-02
5  4.0000000000000E-02  5.5744112684454E-01 -3.6598377336621E-01  3.6745932963013E-02
6  5.0000000000000E-02  6.8670419485698E-01 -4.3726905149776E-01  4.8291063926825E-02
7  6.0000000000000E-02  8.0956532525388E-01 -4.9592125284769E-01  6.1288999157038E-02
8  7.0000000000000E-02  9.2506128521557E-01 -5.4022188992463E-01  7.5915234449469E-02
9  8.0000000000000E-02  1.0323865286025E+00 -5.6885300873475E-01  9.2288154399105E-02
10  9.0000000000000E-02  1.1309073863795E+00 -5.8093213751224E-01  1.1046399561653E-01
11  1.0000000000000E-01  1.2201713662750E+00 -5.7603436635352E-01  1.3043364132769E-01
12  1.1000000000000E-01  1.2999113223738E+00 -5.5420092624524E-01  1.5212134999437E-01
13  1.2000000000000E-01  1.3700444095700E+00 -5.1593404161150E-01  1.7538546627968E-01
14  1.3000000000000E-01  1.4306658944251E+00 -4.6217824267988E-01  2.0002110693818E-01
15  1.4000000000000E-01  1.4820380482197E+00 -3.9428873022090E-01  2.2576475858104E-01
16  1.5000000000000E-01  1.5245744951717E+00 -3.1398777329141E-01  2.5230067029490E-01
17  1.6000000000000E-01  1.5588205244638E+00 -2.2331047878934E-01  2.7926887327621E-01
18  1.7000000000000E-01  1.5854299947490E+00 -1.2454158910711E-01  3.0627461339248E-01
19  1.8000000000000E-01  1.6051395605608E+00 -2.0145231379281E-02  3.3289894218361E-01
20  1.9000000000000E-01  1.6187410284837E+00  8.7310249279271E-02  3.5871017839295E-01
21  2.0000000000000E-01  1.6270527046803E+00  1.9523009583351E-01  3.8327592660371E-01
22  2.1000000000000E-01  1.6308906228064E+00  3.0107123255347E-01  4.0617532266214E-01
23  2.2000000000000E-01  1.6310405416553E+00  4.0241828897045E-01  4.2701116777416E-01
24  2.3000000000000E-01  1.6282315750857E+00  4.9705526500878E-01  4.4542161468771E-01
25  2.4000000000000E-01  1.6231122637341E+00  5.8303068371010E-01  4.6109108019003E-01
26  2.5000000000000E-01  1.6162298203388E+00  6.5871427883781E-01  4.7376007796470E-01
27  2.6000000000000E-01  1.6080131806050E+00  7.2284352427227E-01  4.8323369413274E-01
28  2.7000000000000E-01  1.5987603724830E+00  7.7455862254429E-01  4.8938846377097E-01
29  2.8000000000000E-01  1.5886305821780E+00  8.1342492163869E-01  4.9217744937670E-01
30  2.9000000000000E-01  1.5776411492703E+00  8.3944211162092E-01  4.9163337046019E-01
31  3.0000000000000E-01  1.5656695704877E+00  8.5303995405558E-01  4.8786968587242E-01
32  3.1000000000000E-01  1.5524604365985E+00  8.5506070539886E-01  4.8107958567645E-01
33  3.2000000000000E-01  1.5376370743334E+00  8.4672879817487E-01  4.7153290583133E-01
34  3.3000000000000E-01  1.5207175198611E+00  8.2960872856442E-01  4.5957103512436E-01
35  3.4000000000000E-01  1.5011343165620E+00  8.0555245441627E-01  4.4559993812211E-01
36  3.5000000000000E-01  1.4782575117535E+00  7.7663792289450E-01  4.3008146891813E-01
37  3.6000000000000E-01  1.4514201281982E+00  7.4510061250774E-01  4.1352319673728E-01
38  3.7000000000000E-01  1.4199453096822E+00  7.1326018217156E-01  3.9646700474367E-01
39  3.8000000000000E-01  1.3831742879717E+00  6.8344446404904E-01  3.7947675658941E-01
40  3.9000000000000E-01  1.3404942926136E+00  6.5791311295751E-01  3.6312535042497E-01
41  4.0000000000000E-01  1.2913655260672E+00  6.3878323099458E-01  3.4798149658703E-01
42  4.1000000000000E-01  1.2353463544709E+00  6.2795922171866E-01  3.3459656253613E-01
43  4.2000000000000E-01  1.1721159180442E+00  6.2706899588066E-01  3.2349182664495E-01
44  4.3000000000000E-01  1.1014934430129E+00  6.3740845456884E-01  3.1514647119889E-01
45  4.4000000000000E-01  1.0234536365782E+00  6.5989592186159E-01  3.0998662478468E-01
46  4.5000000000000E-01  9.3813766473078E-01  6.9503789560798E-01  3.0837573567469E-01
47  4.6000000000000E-01  8.4585934596972E-01  7.4290714117719E-01  3.1060652165960E-01
48  4.7000000000000E-01  7.4710633809880E-01  8.0313377956130E-01  3.1689469904356E-01
49  4.8000000000000E-01  6.4253624581256E-01  8.7490962955997E-01  3.2737464537603E-01
50  4.9000000000000E-01  5.3296772910658E-01  9.5700566594168E-01  3.4209709828433E-01
51  5.0000000000000E-01  4.1936684200339E-01  1.0478020635975E+00  3.6102893792725E-01
52  5.1000000000000E-01  3.0282897311174E-01  1.1453299236959E+00  3.8405504462340E-01
53  5.2000000000000E-01  1.8455688982152E-01  1.2473234330243E+00  4.1098216765315E-01
54  5.3000000000000E-01  6.5835502555214E-02  1.3512809024158E+00  4.4154468761112E-01
55  5.4000000000000E-01 -5.1995938979558E-02  1.4545328734822E+00  4.7541210446033E-01
56  5.5000000000000E-01 -1.6757343198099E-01  1.5543152823703E+00  5.1219803797588E-01
57  5.6000000000000E-01 -2.7953875405532E-01  1.6478455306454E+00  5.5147048779432E-01
58  5.7000000000000E-01 -3.8657008472566E-01  1.7323992405385E+00  5.9276306786790E-01
59  5.8000000000000E-01 -4.8741185744074E-01  1.8053854663873E+00  6.3558690562195E-01
60  5.9000000000000E-01 -5.8090301210682E-01  1.8644181958332E+00  6.7944288017244E-01
61  6.0000000000000E-01 -6.6600287038723E-01  1.9073821007736E+00  7.2383386698263E-01
62  6.1000000000000E-01 -7.4181393112433E-01  1.9324906847857E+00  7.6827665847757E-01
63  6.2000000000000E-01 -8.0760097873699E-01  1.9383352144995E+00  8.1231324129719E-01
64  6.3000000000000E-01 -8.6280601021270E-01  1.9239231092940E+00  8.5552113070735E-01
65  6.4000000000000E-01 -9.0705861271977E-01  1.8887047875036E+00  8.9752249062295E-01
66  6.5000000000000E-01 -9.4018155987304E-01  1.8325883176808E+00  9.3799180292228E-01
67  6.6000000000000E-01 -9.6219153602011E-01  1.7559415893707E+00  9.7666189125276E-01
68  6.7000000000000E-01 -9.7329504014370E-01  1.6595820878390E+00  1.0133281511734E+00
69  6.8000000000000E-01 -9.7387965970287E-01  1.5447547198251E+00  1.0478508889466E+00
70  6.9000000000000E-01 -9.6450103572907E-01  1.4130984816220E+00  1.0801557241852E+00
71  7.0000000000000E-01 -9.4586595977833E-01  1.2666030761500E+00  1.1102320654116E+00
72  7.1000000000000E-01 -9.1881214741249E-01  1.1075568629420E+00  1.1381297209284E+00
73  7.2000000000000E-01 -8.8428531869997E-01  9.3848775595285E-01  1.1639537587629E+00
74  7.3000000000000E-01 -8.4331428142602E-01  7.6209886245987E-01  1.1878577774599E+00
75  7.4000000000000E-01 -7.9698475555697E-01  5.8120077724440E-01  1.2100357928452E+00
76  7.5000000000000E-01 -7.4641269705848E-01  3.9864250693199E-01  1.2307129834213E+00
77  7.6000000000000E-01 -6.9271787520684E-01  2.1724299892000E-01  1.2501355678015E+00
78  7.7000000000000E-01 -6.3699843060321E-01  3.9725188803019E-02  1.2685601107207E+00
79  7.8000000000000E-01 -5.8030709247799E-01 -1.3134563741435E-01  1.2862425691200E+00
80  7.9000000000000E-01 -5.2362966550977E-01 -2.9361754001031E-01  1.3034273962030E+00
81  8.0000000000000E-01 -4.6786631083299E-01 -4.4500027086024E-01  1.3203370190971E+00
82  8.1000000000000E-01 -4.1381604624661E-01 -5.8370511143476E-01  1.3371619949202E+00
83  8.2000000000000E-01 -3.6216478032875E-01 -7.0827533143509E-01  1.3540521309904E+00
84  8.3000000000000E-01 -3.1347707796621E-01 -8.1760669987500E-01  1.3711088281909E+00
85  8.4000000000000E-01 -2.6819173463162E-01 -9.1095779419417E-01  1.3883788728528E+00
86  8.5000000000000E-01 -2.2662111751182E-01 -9.8795016653204E-01  1.4058498628950E+00
87  8.6000000000000E-01 -1.8895411713000E-01 -1.0485587296531E+00  1.4234474094417E+00
88  8.7000000000000E-01 -1.5526244699126E-01 -1.0930930087998E+00  1.4410342069234E+00
89  8.8000000000000E-01 -1.2550993424943E-01 -1.1221701613958E+00  1.4584110140597E+00
90  8.9000000000000E-01 -9.9564364216645E-02 -1.1366808865878E+00  1.4753195364509E+00
91  9.0000000000000E-01 -7.7211377953387E-02 -1.1377495249915E+00  1.4914471501389E+00
92  9.1000000000000E-01 -5.8169876818348E-02 -1.1266897811060E+00  1.5064333557609E+00
93  9.2000000000000E-01 -4.2108361706280E-02 -1.1049575837205E+00  1.5198778061087E+00
94  9.3000000000000E-01 -2.8661628076217E-02 -1.0741026320138E+00  1.5313497072060E+00
95  9.4000000000000E-01 -1.7447250424720E-02 -1.0357201573575E+00  1.5403983555139E+00
96  9.5000000000000E-01 -8.0813205915469E-03 -9.9140436521759E-01  1.5465645425228E+00
97  9.6000000000000E-01 -1.9295164439551E-04 -9.4270491155919E-01  1.5493925335484E+00
98  9.7000000000000E-01  6.5628790426808E-03 -8.9108761884171E-01  1.5484423106641E+00
99  9.8000000000000E-01  1.2494500035956E-02 -8.3790045413990E-01  1.5433017607684E+00
100  9.9000000000000E-01  1.7864998954871E-02 -7.8434558324957E-01  1.5335984890677E+00
101  1.0000000000000E+00  2.2886138968619E-02 -7.3145808746806E-01  1.5190109457804E+00
102  1.0100000000000E+00  2.7714827308444E-02 -6.8009169207017E-01  1.4992785695352E+00
103  1.0200000000000E+00  3.2452132896743E-02 -6.3091161548838E-01  1.4742106744250E+00
104  1.0300000000000E+00  3.7144762078288E-02 -5.8439441369061E-01  1.4436938385113E+00
105  1.0400000000000E+00  4.1788819420462E-02 -5.4083447213691E-01  1.4076975892295E+00
106  1.0500000000000E+00  4.6335607309262E-02 -5.0035659502459E-01  1.3662782248160E+00
107  1.0600000000000E+00  5.0699155473050E-02 -4.6293396328648E-01  1.3195806597825E+00
108  1.0700000000000E+00  5.4765121173144E-02 -4.2841058320527E-01  1.2678382358348E+00
109  1.0800000000000E+00  5.8400663717301E-02 -3.9652722982212E-01  1.2113704962807E+00
110  1.0900000000000E+00  6.1464873370104E-02 -3.6694980430318E-01  1.1505789812873E+00
111  1.1000000000000E+00  6.3819324627073E-02 -3.3929897255552E-01  1.0859411620783E+00
112  1.1100000000000E+00  6.5338326223189E-02 -3.1317993160802E-01  1.0180026935352E+00
113  1.1200000000000E+00  6.5918453920472E-02 -2.8821115786318E-01  9.4736822584829E-01
114  1.1300000000000E+00  6.5486974980492E-02 -2.6405102258930E-01  8.7469107574581E-01
115  1.1400000000000E+00  6.4008803160267E-02 -2.4042120982978E-01  8.0066211611951E-01
116  1.1500000000000E+00  6.1491656977690E-02 -2.1712593310528E-01  7.2599829827575E-01
117  1.1600000000000E+00  5.7989129231526E-02 -1.9406601327772E-01  6.5143127365220E-01
118  1.1700000000000E+00  5.3601408648923E-02 -1.7124694206397E-01  5.7769663047826E-01
119  1.1800000000000E+00  4.8473422094452E-02 -1.4878010645351E-01  5.0552430571785E-01
120  1.1900000000000E+00  4.2790184365345E-02 -1.2687637994996E-01  4.3563077293396E-01
121  1.2000000000000E+00  3.6769149155622E-02 -1.0583128946630E-01  3.6871364251629E-01
122  1.2100000000000E+00  3.0649346043062E-02 -8.6000933824538E-02  3.0544934183196E-01
123  1.2200000000000E+00  2.4677009464340E-02 -6.7767637104815E-02  2.4649453416571E-01
124  1.2300000000000E+00  1.9087818519792E-02 -5.1495209205367E-02  1.9249230393259E-01
125  1.2400000000000E+00  1.4074011035116E-02 -3.7447236929126E-02  1.4407511118500E-01
126  1.2500000000000E+00  9.7025310390890E-03 -2.5592536476302E-02  1.0183275301908E-01
127  1.2600000000000E+00  6.0919953788348E-03 -1.6019756913969E-02  6.6386817574639E-02
128  1.2700000000000E+00  3.3307724586093E-03 -8.7858455043126E-03  3.8236674586017E-02
129  1.2800000000000E+00  1.4399318034228E-03 -3.8379339733238E-03  1.7720776319032E-02
130  1.2900000000000E+00  3.6859937888538E-04 -1.0017931119369E-03  4.9654045459573E-03
131  1.3000000000000E+00  1.0301552262950E-05 -2.9011480317420E-05  1.5824850286261E-04
132  1.3100000000000E+00  9.0911757214285E-07 -2.5344142724646E-06  1.3523042933699E-05
133  1.3200000000000E+00 -4.1294503916804E-07  1.1347009666767E-06 -5.8066648356957E-06
134  1.33 -0.  0. -0.
135  1.34  0.  0.  0.
136  1.35  0.  0.  0.
137  1.36  0.  0.  0.
138  1.37  0.  0.  0.
139  1.38  0.  0.  0.
140  1.39  0.  0.  0.
141  1.40  0.  0.  0.
142  1.41  0.  0.  0.
143  1.42  0.  0.  0.
144  1.43  0.  0.  0.
145  1.44  0.  0.  0.
146  1.45  0.  0.  0.
147  1.46  0.  0.  0.
148  1.47  0.  0.  0.
149  1.48  0.  0.  0.
150  1.49  0.  0.  0.
151  1.50  0.  0.  0.
152  1.51  0.  0.  0.
153  1.52  0.  0.  0.
154  1.53  0.  0.  0.
155  1.54  0.  0.  0.
156  1.55  0.  0.  0.
157  1.56  0.  0.  0.
158  1.57  0.  0.  0.
159  1.58  0.  0.  0.
160  1.59  0.  0.  0.
161  1.60  0.  0.  0.
162  1.61  0.  0.  0.
163  1.62  0.  0.  0.
164  1.63  0.  0.  0.
165  1.64  0.  0.  0.
166  1.65  0.  0.  0.
167  1.66  0.  0.  0.
168  1.67  0.  0.  0.
169  1.68  0.  0.  0.
170  1.69  0.  0.  0.
171  1.70  0.  0.  0.
172  1.71  0.  0.  0.
173  1.72  0.  0.  0.
174  1.73  0.  0.  0.
175  1.74  0.  0.  0.
176  1.75  0.  0.  0.
177  1.76  0.  0.  0.
178  1.77  0.  0.  0.
179  1.78  0.  0.  0.
180  1.79  0.  0.  0.
181  1.80  0.  0.  0.
182  1.81  0.  0.  0.
183  1.82  0.  0.  0.
184  1.83  0.  0.  0.
185  1.84  0.  0.  0.
186  1.85  0.  0.  0.
187  1.86  0.  0.  0.
188  1.87  0.  0.  0.
189  1.88  0.  0.  0.
190  1.89  0.  0.  0.
191  1.90  0.  0.  0.
192  1.91  0.  0.  0.
193  1.92  0.  0.  0.
194  1.93  0.  0.  0.
195  1.94  0.  0.  0.
196  1.95  0.  0.  0.
197  1.96  0.  0.  0.
198  1.97  0.  0.  0.
199  1.98  0.  0.  0.
200  1.99  0.  0.  0.
201  2.00  0.  0.  0.
202  2.01  0.  0.  0.
203  2.02  0.  0.  0.
204  2.03  0.  0.  0.
205  2.04  0.  0.  0.
206  2.05  0.  0.  0.
207  2.06  0.  0.  0.
208  2.07  0.  0.  0.
209  2.08  0.  0.  0.
210  2.09  0.  0.  0.
211  2.10  0.  0.  0.
212  2.11  0.  0.  0.
213  2.12  0.  0.  0.
214  2.13  0.  0.  0.
215  2.14  0.  0.  0.
216  2.15  0.  0.  0.
217  2.16  0.  0.  0.
218  2.17  0.  0.  0.
219  2.18  0.  0.  0.
220  2.19  0.  0.  0.
221  2.20  0.  0.  0.
222  2.21  0.  0.  0.
223  2.22  0.  0.  0.
224  2.23  0.  0.  0.
225  2.24  0.  0.  0.
226  2.25  0.  0.  0.
227  2.26  0.  0.  0.
228  2.27  0.  0.  0.
229  2.28  0.  0.  0.
230  2.29  0.  0.  0.
231  2.30  0.  0.  0.
232  2.31  0.  0.  0.
233  2.32  0.  0.  0.
234  2.33  0.  0.  0.
235  2.34  0.  0.  0.
236  2.35  0.  0.  0.
237  2.36  0.  0.  0.
238  2.37  0.  0.  0.
239  2.38  0.  0.  0.
240  2.39  0.  0.  0.
241  2.40  0.  0.  0.
242  2.41  0.  0.  0.
243  2.42  0.  0.  0.
244  2.43  0.  0.  0.
245  2.44  0.  0.  0.
246  2.45  0.  0.  0.
247  2.46  0.  0.  0.
248  2.47  0.  0.  0.
249  2.48  0.  0.  0.
250  2.49  0.  0.  0.
251  2.50  0.  0.  0.
252  2.51  0.  0.  0.
253  2.52  0.  0.  0.
254  2.53  0.  0.  0.
255  2.54  0.  0.  0.
256  2.55  0.  0.  0.
257  2.56  0.  0.  0.
258  2.57  0.  0.  0.
259  2.58  0.  0.  0.
260  2.59  0.  0.  0.
261  2.60  0.  0.  0.
262  2.61  0.  0.  0.
263  2.62  0.  0.  0.
264  2.63  0.  0.  0.
265  2.64  0.  0.  0.
266  2.65  0.  0.  0.
267  2.66  0.  0.  0.
268  2.67  0.  0.  0.
269  2.68  0.  0.  0.
270  2.69  0.  0.  0.
271  2.70  0.  0.  0.
272  2.71  0.  0.  0.
273  2.72  0.  0.  0.
274  2.73  0.  0.  0.
275  2.74  0.  0.  0.
276  2.75  0.  0.  0.
277  2.76  0.  0.  0.
278  2.77  0.  0.  0.
279  2.78  0.  0.  0.
280  2.79  0.  0.  0.
281  2.80  0.  0.  0.
282  2.81  0.  0.  0.
283  2.82  0.  0.  0.
284  2.83  0.  0.  0.
285  2.84  0.  0.  0.
286  2.85  0.  0.  0.
287  2.86  0.  0.  0.
288  2.87  0.  0.  0.
289  2.88  0.  0.  0.
290  2.89  0.  0.  0.
291  2.90  0.  0.  0.
292  2.91  0.  0.  0.
293  2.92  0.  0.  0.
294  2.93  0.  0.  0.
295  2.94  0.  0.  0.
296  2.95  0.  0.  0.
297  2.96  0.  0.  0.
298  2.97  0.  0.  0.
299  2.98  0.  0.  0.
300  2.99  0.  0.  0.
301  3.00  0.  0.  0.
302  3.01  0.  0.  0.
303  3.02  0.  0.  0.
304  3.03  0.  0.  0.
305  3.04  0.  0.  0.
306  3.05  0.  0.  0.
307  3.06  0.  0.  0.
308  3.07  0.  0.  0.
309  3.08  0.  0.  0.
310  3.09  0.  0.  0.
311  3.10  0.  0.  0.
312  3.11  0.  0.  0.
313  3.12  0.  0.  0.
314  3.13  0.  0.  0.
315  3.14  0.  0.  0.
316  3.15  0.  0.  0.
317  3.16  0.  0.  0.
318  3.17  0.  0.  0.
319  3.18  0.  0.  0.
320  3.19  0.  0.  0.
321  3.20  0.  0.  0.
322  3.21  0.  0.  0.
323  3.22  0.  0.  0.
324  3.23  0.  0.  0.
325  3.24  0.  0.  0.
326  3.25  0.  0.  0.
327  3.26  0.  0.  0.
328  3.27  0.  0.  0.
329  3.28  0.  0.  0.
330  3.29  0.  0.  0.
331  3.30  0.  0.  0.
332  3.31  0.  0.  0.
333  3.32  0.  0.  0.
334  3.33  0.  0.  0.
335  3.34  0.  0.  0.
336  3.35  0.  0.  0.
337  3.36  0.  0.  0.
338  3.37  0.  0.  0.
339  3.38  0.  0.  0.
340  3.39  0.  0.  0.
341  3.40  0.  0.  0.
342  3.41  0.  0.  0.
343  3.42  0.  0.  0.
344  3.43  0.  0.  0.
345  3.44  0.  0.  0.
346  3.45  0.  0.  0.
347  3.46  0.  0.  0.
348  3.47  0.  0.  0.
349  3.48  0.  0.  0.
350  3.49  0.  0.  0.
351  3.50  0.  0.  0.
352  3.51  0.  0.  0.
353  3.52  0.  0.  0.
354  3.53  0.  0.  0.
355  3.54  0.  0.  0.
356  3.55  0.  0.  0.
357  3.56  0.  0.  0.
358  3.57  0.  0.  0.
359  3.58  0.  0.  0.
360  3.59  0.  0.  0.
361  3.60  0.  0.  0.
362  3.61  0.  0.  0.
363  3.62  0.  0.  0.
364  3.63  0.  0.  0.
365  3.64  0.  0.  0.
366  3.65  0.  0.  0.
367  3.66  0.  0.  0.
368  3.67  0.  0.  0.
369  3.68  0.  0.  0.
370  3.69  0.  0.  0.
371  3.70  0.  0.  0.
372  3.71  0.  0.  0.
373  3.72  0.  0.  0.
374  3.73  0.  0.  0.
375  3.74  0.  0.  0.
376  3.75  0.  0.  0.
377  3.76  0.  0.  0.
378  3.77  0.  0.  0.
379  3.78  0.  0.  0.
380  3.79  0.  0.  0.
381  3.80  0.  0.  0.
382  3.81  0.  0.  0.
383  3.82  0.  0.  0.
384  3.83  0.  0.  0.
385  3.84  0.  0.  0.
386  3.85  0.  0.  0.
387  3.86  0.  0.  0.
388  3.87  0.  0.  0.
389  3.88  0.  0.  0.
390  3.89  0.  0.  0.
391  3.90  0.  0.  0.
392  3.91  0.  0.  0.
393  3.92  0.  0.  0.
394  3.93  0.  0.  0.
395  3.94  0.  0.  0.
396  3.95  0.  0.  0.
397  3.96  0.  0.  0.
398  3.97  0.  0.  0.
399  3.98  0.  0.  0.
400  3.99  0.  0.  0.
401  4.00  0.  0.  0.
402  4.01  0.  0.  0.
403  4.02  0.  0.  0.
404  4.03  0.  0.  0.
405  4.04  0.  0.  0.
406  4.05  0.  0.  0.
407  4.06  0.  0.  0.
408  4.07  0.  0.  0.
409  4.08  0.  0.  0.
410  4.09  0.  0.  0.
411  4.10  0.  0.  0.
412  4.11  0.  0.  0.
413  4.12  0.  0.  0.
414  4.13  0.  0.  0.
415  4.14  0.  0.  0.
416  4.15  0.  0.  0.
417  4.16  0.  0.  0.
418  4.17  0.  0.  0.
419  4.18  0.  0.  0.
420  4.19  0.  0.  0.
421  4.20  0.  0.  0.
422  4.21  0.  0.  0.
423  4.22  0.  0.  0.
424  4.23  0.  0.  0.
425  4.24  0.  0.  0.
426  4.25  0.  0.  0.
427  4.26  0.  0.  0.
428  4.27  0.  0.  0.
429  4.28  0.  0.  0.
430  4.29  0.  0.  0.
431  4.30  0.  0.  0.
432  4.31  0.  0.  0.
433  4.32  0.  0.  0.
434  4.33  0.  0.  0.
435  4.34  0.  0.  0.
436  4.35  0.  0.  0.
437  4.36  0.  0.  0.
438  4.37  0.  0.  0.
439  4.38  0.  0.  0.
440  4.39  0.  0.  0.
441  4.40  0.  0.  0.
442  4.41  0.  0.  0.
443  4.42  0.  0.  0.
444  4.43  0.  0.  0.
445  4.44  0.  0.  0.
446  4.45  0.  0.  0.
447  4.46  0.  0.  0.
448  4.47  0.  0.  0.
449  4.48  0.  0.  0.
450  4.49  0.  0.  0.
451  4.50  0.  0.  0.
452  4.51  0.  0.  0.
453  4.52  0.  0.  0.
454  4.53  0.  0.  0.
455  4.54  0.  0.  0.
456  4.55  0.  0.  0.
457  4.56  0.  0.  0.
458  4.57  0.  0.  0.
459  4.58  0.  0.  0.
460  4.59  0.  0.  0.
461  4.60  0.  0.  0.
462  4.61  0.  0.  0.
463  4.62  0.  0.  0.
464  4.63  0.  0.  0.
465  4.64  0.  0.  0.
466  4.65  0.  0.  0.
467  4.66  0.  0.  0.
468  4.67  0.  0.  0.
469  4.68  0.  0.  0.
470  4.69  0.  0.  0.
471  4.70  0.  0.  0.
472  4.71  0.  0.  0.
473  4.72  0.  0.  0.
474  4.73  0.  0.  0.
475  4.74  0.  0.  0.
476  4.75  0.  0.  0.
477  4.76  0.  0.  0.
478  4.77  0.  0.  0.
479  4.78  0.  0.  0.
480  4.79  0.  0.  0.
481  4.80  0.  0.  0.
482  4.81  0.  0.  0.
483  4.82  0.  0.  0.
484  4.83  0.  0.  0.
485  4.84  0.  0.  0.
486  4.85  0.  0.  0.
487  4.86  0.  0.  0.
488  4.87  0.  0.  0.
489  4.88  0.  0.  0.
490  4.89  0.  0.  0.
491  4.90  0.  0.  0.
492  4.91  0.  0.  0.
493  4.92  0.  0.  0.
494  4.93  0.  0.  0.
495  4.94  0.  0.  0.
496  4.95  0.  0.  0.
497  4.96  0.  0.  0.
498  4.97  0.  0.  0.
499  4.98  0.  0.  0.
500  4.99  0.  0.  0.
501  5.00  0.  0.  0.
502  5.01  0.  0.  0.
503  5.02  0.  0.  0.
504  5.03  0.  0.  0.
505  5.04  0.  0.  0.
506  5.05  0.  0.  0.
507  5.06  0.  0.  0.
508  5.07  0.  0.  0.
509  5.08  0.  0.  0.
510  5.09  0.  0.  0.
511  5.10  0.  0.  0.
512  5.11  0.  0.  0.
513  5.12  0.  0.  0.
514  5.13  0.  0.  0.
515  5.14  0.  0.  0.
516  5.15  0.  0.  0.
517  5.16  0.  0.  0.
518  5.17  0.  0.  0.
519  5.18  0.  0.  0.
520  5.19  0.  0.  0.
521  5.20  0.  0.  0.
522  5.21  0.  0.  0.
523  5.22  0.  0.  0.
524  5.23  0.  0.  0.
525  5.24  0.  0.  0.
526  5.25  0.  0.  0.
527  5.26  0.  0.  0.
528  5.27  0.  0.  0.
529  5.28  0.  0.  0.
530  5.29  0.  0.  0.
531  5.30  0.  0.  0.
532  5.31  0.  0.  0.
533  5.32  0.  0.  0.
534  5.33  0.  0.  0.
535  5.34  0.  0.  0.
536  5.35  0.  0.  0.
537  5.36  0.  0.  0.
538  5.37  0.  0.  0.
539  5.38  0.  0.  0.
540  5.39  0.  0.  0.
541  5.40  0.  0.  0.
542  5.41  0.  0.  0.
543  5.42  0.  0.  0.
544  5.43  0.  0.  0.
545  5.44  0.  0.  0.
546  5.45  0.  0.  0.
547  5.46  0.  0.  0.
548  5.47  0.  0.  0.
549  5.48  0.  0.  0.
550  5.49  0.  0.  0.
551  5.50  0.  0.  0.
552  5.51  0.  0.  0.
553  5.52  0.  0.  0.
554  5.53  0.  0.  0.
555  5.54  0.  0.  0.
556  5.55  0.  0.  0.
557  5.56  0.  0.  0.
558  5.57  0.  0.  0.
559  5.58  0.  0.  0.
560  5.59  0.  0.  0.
561  5.60  0.  0.  0.
562  5.61  0.  0.  0.
563  5.62  0.  0.  0.
564  5.63  0.  0.  0.
565  5.64  0.  0.  0.
566  5.65  0.  0.  0.
567  5.66  0.  0.  0.
568  5.67  0.  0.  0.
569  5.68  0.  0.  0.
570  5.69  0.  0.  0.
571  5.70  0.  0.  0.
572  5.71  0.  0.  0.
573  5.72  0.  0.  0.
574  5.73  0.  0.  0.
575  5.74  0.  0.  0.
576  5.75  0.  0.  0.
577  5.76  0.  0.  0.
578  5.77  0.  0.  0.
579  5.78  0.  0.  0.
580  5.79  0.  0.  0.
581  5.80  0.  0.  0.
582  5.81  0.  0.  0.
583  5.82  0.  0.  0.
584  5.83  0.  0.  0.
585  5.84  0.  0.  0.
586  5.85  0.  0.  0.
587  5.86  0.  0.  0.
588  5.87  0.  0.  0.
589  5.88  0.  0.  0.
590  5.89  0.  0.  0.
591  5.90  0.  0.  0.
592  5.91  0.  0.  0.
593  5.92  0.  0.  0.
594  5.93  0.  0.  0.
595  5.94  0.  0.  0.
596  5.95  0.  0.  0.
597  5.96  0.  0.  0.
598  5.97  0.  0.  0.
599  5.98  0.  0.  0.
600  5.99  0.  0.  0.
1                         6.2498280487949E+00 -5.1717984434471E-01
1  0.0000000000000E+00 -1.6504525107708E-08 -4.4207125116796E-08
2  1.0000000000000E-02  2.4903014155522E-03 -5.3201341396462E-04
3  2.0000000000000E-02  9.9549796791936E-03 -2.1004557508717E-03
4  3.0000000000000E-02  2.2375093063242E-02 -4.6234437978875E-03
5  4.0000000000000E-02  3.9718203660841E-02 -7.9675115984036E-03
6  5.0000000000000E-02  6.1937112655812E-02 -1.1952019140098E-02
7  6.0000000000000E-02  8.8968164095390E-02 -1.6355126867335E-02
8  7.0000000000000E-02  1.2072918873446E-01 -2.0921145663981E-02
9  8.0000000000000E-02  1.5711717602442E-01 -2.5369027745601E-02
10  9.0000000000000E-02  1.9800577602747E-01 -2.9401726910411E-02
11  1.0000000000000E-01  2.4324274349984E-01 -3.2716127979527E-02
12  1.1000000000000E-01  2.9264744325330E-01 -3.5013225914226E-02
13  1.2000000000000E-01  3.4600853892799E-01 -3.6008225657774E-02
14  1.3000000000000E-01  4.0308198636058E-01 -3.5440234544452E-02
15  1.4000000000000E-01  4.6358944779821E-01 -3.3081230170867E-02
16  1.5000000000000E-01  5.2721723439863E-01 -2.8744007649432E-02
17  1.6000000000000E-01  5.9361587199586E-01 -2.2288840572564E-02
18  1.7000000000000E-01  6.6240036933455E-01 -1.3628628933378E-02
19  1.8000000000000E-01  7.3315124932460E-01 -2.7323535375240E-03
20  1.9000000000000E-01  8.0541638286782E-01  1.0373291265714E-02
21  2.0000000000000E-01  8.7871364206535E-01  2.5604157965058E-02
22  2.1000000000000E-01  9.5253436578790E-01  4.2820811331204E-02
23  2.2000000000000E-01  1.0263476063829E+00  6.1832550447535E-02
24  2.3000000000000E-01  1.0996051024193E+00  8.2403179328011E-02
25  2.4000000000000E-01  1.1717468995525E+00  1.0425836133248E-01
26  2.5000000000000E-01  1.2422075205180E+00  1.2709434029999E-01
27  2.6000000000000E-01  1.3104225665837E+00  1.5058776518026E-01
28  2.7000000000000E-01  1.3758356170982E+00  1.7440631643085E-01
29  2.8000000000000E-01  1.4379052815608E+00  1.9821980282885E-01
30  2.9000000000000E-01  1.4961122503292E+00  2.2171137762916E-01
31  3.0000000000000E-01  1.5499661859624E+00  2.4458851391216E-01
32  3.1000000000000E-01  1.5990122974571E+00  2.6659338091055E-01
33  3.2000000000000E-01  1.6428374443211E+00  2.8751227617329E-01
34  3.3000000000000E-01  1.6810756264730E+00  3.0718379236212E-01
35  3.4000000000000E-01  1.7134127291502E+00  3.2550543170276E-01
36  3.5000000000000E-01  1.7395904090274E+00  3.4243842472893E-01
37  3.6000000000000E-01  1.7594090281568E+00  3.5801056176986E-01
38  3.7000000000000E-01  1.7727295655784E+00  3.7231690418519E-01
39  3.8000000000000E-01  1.7794744619043E+00  3.8551830596460E-01
40  3.9000000000000E-01  1.7796273791228E+00  3.9783774312819E-01
41  4.0000000000000E-01  1.7732318855616E+00  4.0955451640942E-01
42  4.1000000000000E-01  1.7603891035894E+00  4.2099645992915E-01
43  4.2000000000000E-01  1.7412543844385E+00  4.3253035292662E-01
44  4.3000000000000E-01  1.7160330997132E+00  4.4455079110584E-01
45  4.4000000000000E-01  1.6849756619690E+00  4.5746782690064E-01
46  4.5000000000000E-01  1.6483719065282E+00  4.7169373225367E-01
47  4.6000000000000E-01  1.6065449828424E+00  4.8762927185940E-01
48  4.7000000000000E-01  1.5598449157145E+00  5.0564989803393E-01
49  4.8000000000000E-01  1.5086420041866E+00  5.2609228955058E-01
50  4.9000000000000E-01  1.4533202286141E+00  5.4924165537444E-01
51  5.0000000000000E-01  1.3942708342786E+00  5.7532021006118E-01
52  5.1000000000000E-01  1.3318862528642E+00  6.0447720085651E-01
53  5.2000000000000E-01  1.2665545114049E+00  6.3678082782313E-01
54  5.3000000000000E-01  1.1986542622150E+00  6.7221234857791E-01
55  5.4000000000000E-01  1.1285505472895E+00  7.1066259973968E-01
56  5.5000000000000E-01  1.0565913872651E+00  7.5193109957441E-01
57  5.6000000000000E-01  9.8310525894311E-01  7.9572782245669E-01
58  5.7000000000000E-01  9.0839949734632E-01  8.4167765774441E-01
59  5.8000000000000E-01  8.3275962914828E-01  8.8932748574192E-01
60  5.9000000000000E-01  7.5644961492650E-01  9.3815572396240E-01
61  6.0000000000000E-01  6.7971294895382E-01  9.8758412027098E-01
62  6.1000000000000E-01  6.0277453801504E-01  1.0369914980347E+00
63  6.2000000000000E-01  5.2584325586597E-01  1.0857290943469E+00
64  6.3000000000000E-01  4.4911504821537E-01  1.1331370777741E+00
65  6.4000000000000E-01  3.7277644519839E-01  1.1785617886846E+00
66  6.5000000000000E-01  2.9700832481084E-01  1.2213732145605E+00
67  6.6000000000000E-01  2.2198976214291E-01  1.2609821958915E+00
68  6.7000000000000E-01  1.4790179580830E-01  1.2968568560640E+00
69  6.8000000000000E-01  7.4930944871807E-02  1.3285377613966E+00
70  6.9000000000000E-01  3.2723168399331E-03  1.3556513450356E+00
71  7.0000000000000E-01 -6.6867840266649E-02  1.3779211702351E+00
72  7.1000000000000E-01 -1.3527027140886E-01  1.3951766636373E+00
73  7.2000000000000E-01 -2.0170164151292E-01  1.4073590161138E+00
74  7.3000000000000E-01 -2.6591433833861E-01  1.4145240257761E+00
75  7.4000000000000E-01 -3.2764720505403E-01  1.4168417427924E+00
76  7.5000000000000E-01 -3.8662722555124E-01  1.4145928662851E+00
77  7.6000000000000E-01 -4.4257215345227E-01  1.4081619372655E+00
78  7.7000000000000E-01 -4.9519404334969E-01  1.3980274655555E+00
79  7.8000000000000E-01 -5.4420361109155E-01  1.3847492202108E+00
80  7.9000000000000E-01 -5.8931531984773E-01  1.3689529993527E+00
81  8.0000000000000E-01 -6.3025306123688E-01  1.3513132739224E+00
82  8.1000000000000E-01 -6.6675627683947E-01  1.3325341682581E+00
83  8.2000000000000E-01 -6.9858634576658E-01  1.3133292964004E+00
84  8.3000000000000E-01 -7.2553304927471E-01  1.2944010148283E+00
85  8.4000000000000E-01 -7.4742091425017E-01  1.2764196784645E+00
86  8.5000000000000E-01 -7.6411523411171E-01  1.2600034962902E+00
87  8.6000000000000E-01 -7.7552756850408E-01  1.2456995752232E+00
88  8.7000000000000E-01 -7.8162053210496E-01  1.2339667160386E+00
89  8.8000000000000E-01 -7.8241169778718E-01  1.2251604835120E+00
90  8.9000000000000E-01 -7.7797645992962E-01  1.2195210156119E+00
91  9.0000000000000E-01 -7.6844972934372E-01  1.2171639649240E+00
92  9.1000000000000E-01 -7.5402636140610E-01  1.2180748814155E+00
93  9.2000000000000E-01 -7.3496025274947E-01  1.2221072514332E+00
94  9.3000000000000E-01 -7.1156207832803E-01  1.2289843060624E+00
95  9.4000000000000E-01 -6.8419567881647E-01  1.2383046054942E+00
96  9.5000000000000E-01 -6.5327314701695E-01  1.2495512979185E+00
97  9.6000000000000E-01 -6.1924870013029E-01  1.2621048447299E+00
98  9.7000000000000E-01 -5.8261146123856E-01  1.2752589016942E+00
99  9.8000000000000E-01 -5.4387730706485E-01  1.2882389511476E+00
100  9.9000000000000E-01 -5.0357996896653E-01  1.3002231962003E+00
101  1.0000000000000E+00 -4.6226159924345E-01  1.3103651568544E+00
102  1.0100000000000E+00 -4.2046303436278E-01  1.3178173522427E+00
103  1.0200000000000E+00 -3.7871399991972E-01  1.3217554147529E+00
104  1.0300000000000E+00 -3.3752350855657E-01  1.3214019620422E+00
105  1.0400000000000E+00 -2.9737070128038E-01  1.3160495528777E+00
106  1.0500000000000E+00 -2.5869637448552E-01  1.3050820728395E+00
107  1.0600000000000E+00 -2.2189541955957E-01  1.2879939360350E+00
108  1.0700000000000E+00 -1.8731037935783E-01  1.2644065487610E+00
109  1.0800000000000E+00 -1.5522629661262E-01  1.2340815590662E+00
110  1.0900000000000E+00 -1.2586699390647E-01  1.1969305112941E+00
111  1.1000000000000E+00 -9.9392884051964E-02  1.1530206345964E+00
112  1.1100000000000E+00 -7.5900364415615E-02  1.1025766168325E+00
113  1.1200000000000E+00 -5.5422799783815E-02  1.0459783478334E+00
114  1.1300000000000E+00 -3.7933047144599E-02  9.8375475503901E-01
115  1.1400000000000E+00 -2.3347422958861E-02  9.1657399810022E-01