Fr    ONCVPSP-4.0.1  r_core=   1.60257   1.60257   1.75302   1.65123
87.0000     27.0000      231012    zatom,zion,pspd
8 -116133   3     4   600     0    pspcod,pspxc,lmax,lloc,mmax,r2well
5.99000000  5.00000000  0.00000000    rchrg fchrg qchrg
3     3     2     2    nproj
3     1           extension_switch
4     4     3    nprojso
0                         6.9821611167866E+00 -3.2655419144812E+00  8.4281306579886E-01
1  0.0000000000000E+00 -1.2782749081452E-08 -1.6453827189622E-10 -2.8971701815372E-08
2  1.0000000000000E-02  1.1059813413337E-01  3.5198414444456E-02  5.6521932575372E-02
3  2.0000000000000E-02  2.2043524259730E-01  7.0363456824924E-02  1.1193101514962E-01
4  3.0000000000000E-02  3.2876015185085E-01  1.0546189547399E-01  1.6513477657912E-01
5  4.0000000000000E-02  4.3484121882106E-01  1.4046077727593E-01  2.1508111420652E-01
6  5.0000000000000E-02  5.3797566502580E-01  1.7532756138225E-01  2.6077751264944E-01
7  6.0000000000000E-02  6.3749840270880E-01  2.1003024637486E-01  3.0130912522112E-01
8  7.0000000000000E-02  7.3279019903242E-01  2.4453748889087E-01  3.3585537370378E-01
9  8.0000000000000E-02  8.2328503715707E-01  2.7881871188698E-01  3.6370475116679E-01
10  9.0000000000000E-02  9.0847654852793E-01  3.1284420092153E-01  3.8426754763931E-01
11  1.0000000000000E-01  9.8792340858353E-01  3.4658518706244E-01  3.9708625901263E-01
12  1.1000000000000E-01  1.0612536080378E+00  3.8001391528680E-01  4.0184348475506E-01
13  1.2000000000000E-01  1.1281675334717E+00  4.1310369751662E-01  3.9836716897396E-01
14  1.3000000000000E-01  1.1884398137721E+00  4.4582894972980E-01  3.8663309108576E-01
15  1.4000000000000E-01  1.2419199125240E+00  4.7816521289115E-01  3.6676456582948E-01
16  1.5000000000000E-01  1.2885314703248E+00  5.1008915775721E-01  3.3902936652667E-01
17  1.6000000000000E-01  1.3282704246811E+00  5.4157857391725E-01  3.0383393928061E-01
18  1.7000000000000E-01  1.3612019581997E+00  5.7261234373247E-01  2.6171502815957E-01
19  1.8000000000000E-01  1.3874563477348E+00  6.0317040212280E-01  2.1332888129750E-01
20  1.9000000000000E-01  1.4072238075891E+00  6.3323368341807E-01  1.5943825428769E-01
21  2.0000000000000E-01  1.4207484383704E+00  6.6278405673418E-01  1.0089746934247E-01
22  2.1000000000000E-01  1.4283214093360E+00  6.9180425154928E-01  3.8635825617105E-02
23  2.2000000000000E-01  1.4302735156901E+00  7.2027777533681E-01 -2.6360312851885E-02
24  2.3000000000000E-01  1.4269672630860E+00  7.4818882525705E-01 -9.3066400572207E-02
25  2.4000000000000E-01  1.4187886393178E+00  7.7552219601494E-01 -1.6043919672202E-01
26  2.5000000000000E-01  1.4061387377308E+00  8.0226318605629E-01 -2.2743647493939E-01
27  2.6000000000000E-01  1.3894253981603E+00  8.2839750429647E-01 -2.9303657479928E-01
28  2.7000000000000E-01  1.3690550292143E+00  8.5391117955557E-01 -3.5625741754166E-01
29  2.8000000000000E-01  1.3454247705088E+00  8.7879047481024E-01 -4.1617462050342E-01
30  2.9000000000000E-01  1.3189151451580E+00  9.0302180826935E-01 -4.7193836369553E-01
31  3.0000000000000E-01  1.2898833416034E+00  9.2659168313714E-01 -5.2278868764401E-01
32  3.1000000000000E-01  1.2586572499720E+00  9.4948662774907E-01 -5.6806893345594E-01
33  3.2000000000000E-01  1.2255303618773E+00  9.7169314755397E-01 -6.0723707342261E-01
34  3.3000000000000E-01  1.1907576242509E+00  9.9319769017659E-01 -6.3987472257900E-01
35  3.4000000000000E-01  1.1545523177991E+00  1.0139866245312E+00 -6.6569366765271E-01
36  3.5000000000000E-01  1.1170840094185E+00  1.0340462346747E+00 -6.8453979883831E-01
37  3.6000000000000E-01  1.0784776058150E+00  1.0533627287938E+00 -6.9639438085182E-01
38  3.7000000000000E-01  1.0388135130856E+00  1.0719222634167E+00 -7.0137265174350E-01
39  3.8000000000000E-01  9.9812888460167E-01  1.0897109826374E+00 -6.9971978995782E-01
40  3.9000000000000E-01  9.5641991761363E-01  1.1067150718421E+00 -6.9180434110605E-01
41  4.0000000000000E-01  9.1364513801261E-01  1.1229208251331E+00 -6.7810924487546E-01
42  4.1000000000000E-01  8.6972959304959E-01  1.1383147253792E+00 -6.5922064848766E-01
43  4.2000000000000E-01  8.2456985390205E-01  1.1528835355603E+00 -6.3581473526453E-01
44  4.3000000000000E-01  7.7803971413990E-01  1.1666143998528E+00 -6.0864283435882E-01
45  4.4000000000000E-01  7.2999645667344E-01  1.1794949527003E+00 -5.7851510985761E-01
46  4.5000000000000E-01  6.8028755092097E-01  1.1915134339523E+00 -5.4628315367361E-01
47  4.6000000000000E-01  6.2875763390472E-01  1.2026588080234E+00 -5.1282182643309E-01
48  4.7000000000000E-01  5.7525562391349E-01  1.2129208849392E+00 -4.7901070360157E-01
49  4.8000000000000E-01  5.1964181333910E-01  1.2222904410833E+00 -4.4571549014693E-01
50  4.9000000000000E-01  4.6179478831558E-01  1.2307593374551E+00 -4.1376976606109E-01
51  5.0000000000000E-01  4.0161802682891E-01  1.2383206332785E+00 -3.8395741709928E-01
52  5.1000000000000E-01  3.3904603391573E-01  1.2449686928804E+00 -3.5699609035805E-01
53  5.2000000000000E-01  2.7404988227409E-01  1.2506992838647E+00 -3.3352199313110E-01
54  5.3000000000000E-01  2.0664203885848E-01  1.2555096647627E+00 -3.1407632630389E-01
55  5.4000000000000E-01  1.3688037256279E-01  1.2593986605198E+00 -2.9909361094673E-01
56  5.5000000000000E-01  6.4871254607488E-02  1.2623667243939E+00 -2.8889212940471E-01
57  5.6000000000000E-01 -9.2283185995736E-03  1.2644159850803E+00 -2.8366666081694E-01
58  5.7000000000000E-01 -8.5209630932181E-02  1.2655502781358E+00 -2.8348364645151E-01
59  5.8000000000000E-01 -1.6281221083979E-01  1.2657751610564E+00 -2.8827887339544E-01
60  5.9000000000000E-01 -2.4172486417530E-01  1.2650979116466E+00 -2.9785771690949E-01
61  6.0000000000000E-01 -3.2158776440906E-01  1.2635275096158E+00 -3.1189793307355E-01
62  6.1000000000000E-01 -4.0199556856581E-01  1.2610746016310E+00 -3.2995494515145E-01
63  6.2000000000000E-01 -4.8250150744001E-01  1.2577514503432E+00 -3.5146952030583E-01
64  6.3000000000000E-01 -5.6262237997795E-01  1.2535718681857E+00 -3.7577768877628E-01
65  6.4000000000000E-01 -6.4184436451365E-01  1.2485511370041E+00 -4.0212271622225E-01
66  6.5000000000000E-01 -7.1962954413187E-01  1.2427059148221E+00 -4.2966890239112E-01
67  6.6000000000000E-01 -7.9542303008656E-01  1.2360541312650E+00 -4.5751694627525E-01
68  6.7000000000000E-01 -8.6866055616390E-01  1.2286148733517E+00 -4.8472059005093E-01
69  6.8000000000000E-01 -9.3877640834040E-01  1.2204082635238E+00 -5.1030423183314E-01
70  6.9000000000000E-01 -1.0052115481843E+00  1.2114553319054E+00 -5.3328118099216E-01
71  7.0000000000000E-01 -1.0674217852721E+00  1.2017778848683E+00 -5.5267221971322E-01
72  7.1000000000000E-01 -1.1248858534743E+00  1.1913983720303E+00 -5.6752413076315E-01
73  7.2000000000000E-01 -1.1771132482811E+00  1.1803397538203E+00 -5.7692785406498E-01
74  7.3000000000000E-01 -1.2236516873206E+00  1.1686253717136E+00 -5.8003594355149E-01
75  7.4000000000000E-01 -1.2640940637409E+00  1.1562788231753E+00 -5.7607901063978E-01
76  7.5000000000000E-01 -1.2980847720053E+00  1.1433238432410E+00 -5.6438086119584E-01
77  7.6000000000000E-01 -1.3253252976849E+00  1.1297841945289E+00 -5.4437205858901E-01
78  7.7000000000000E-01 -1.3455789767482E+00  1.1156835673032E+00 -5.1560167582928E-01
79  7.8000000000000E-01 -1.3586748453761E+00  1.1010454910088E+00 -4.7774703421693E-01
80  7.9000000000000E-01 -1.3645105181378E+00  1.0858932584752E+00 -4.3062126371264E-01
81  8.0000000000000E-01 -1.3630540501261E+00  1.0702498637391E+00 -3.7417856062112E-01
82  8.1000000000000E-01 -1.3543447570091E+00  1.0541379541747E+00 -3.0851706037830E-01
83  8.2000000000000E-01 -1.3384929855595E+00  1.0375797973491E+00 -2.3387928644091E-01
84  8.3000000000000E-01 -1.3156788457102E+00  1.0205972627380E+00 -1.5065017967504E-01
85  8.4000000000000E-01 -1.2861499332138E+00  1.0032118181593E+00 -5.9352755425675E-02
86  8.5000000000000E-01 -1.2502180892119E+00  9.8544454050322E-01  3.9358523167562E-02
87  8.6000000000000E-01 -1.2082552591390E+00  9.6731614006835E-01  1.4470652779993E-01
88  8.7000000000000E-01 -1.1606885281107E+00  9.4884699756146E-01  2.5580223936520E-01
89  8.8000000000000E-01 -1.1079944230114E+00  9.3005721257707E-01  3.7165731690617E-01
90  8.9000000000000E-01 -1.0506925826990E+00  9.1096666216069E-01  4.9119823508259E-01
91  9.0000000000000E-01 -9.8933890688763E-01  8.9159506786835E-01  6.1328173966112E-01
92  9.1000000000000E-01 -9.2451830123682E-01  8.7196206957479E-01  7.3671135095846E-01
93  9.2000000000000E-01 -8.5683714085879E-01  8.5208730415297E-01  8.6025463074692E-01
94  9.3000000000000E-01 -7.8691557682272E-01  8.3199048705269E-01  9.8266091901715E-01
95  9.4000000000000E-01 -7.1537981028141E-01  8.1169149474523E-01  1.1026792432751E+00
96  9.5000000000000E-01 -6.4285445661957E-01  7.9121044597755E-01  1.2190761046888E+00
97  9.6000000000000E-01 -5.6995511761554E-01  7.7056777979157E-01  1.3306528522678E+00
98  9.7000000000000E-01 -4.9728127314917E-01  7.4978432831322E-01  1.4362623681299E+00
99  9.8000000000000E-01 -4.2540959564649E-01  7.2888138239932E-01  1.5348248034712E+00
100  9.9000000000000E-01 -3.5488778042975E-01  7.0788074834836E-01  1.6253421257043E+00
101  1.0000000000000E+00 -2.8622897367336E-01  6.8680479402987E-01  1.7069112618911E+00
102  1.0100000000000E+00 -2.1990686699810E-01  6.6567648296539E-01  1.7787356515595E+00
103  1.0200000000000E+00 -1.5635151414694E-01  6.4451939509750E-01  1.8401350526514E+00
104  1.0300000000000E+00 -9.5945910963880E-02  6.2335773320956E-01  1.8905534770854E+00
105  1.0400000000000E+00 -3.9023365324501E-02  6.0221631420325E-01  1.9295651665929E+00
106  1.0500000000000E+00  1.4134330969152E-02  5.8112054469974E-01  1.9568785544627E+00
107  1.0600000000000E+00  6.3297930701727E-02  5.6009638069879E-01  1.9723381938631E+00
108  1.0700000000000E+00  1.0829097644834E-01  5.3917027130444E-01  1.9759246679916E+00
109  1.0800000000000E+00  1.4898929188320E-01  5.1836908680097E-01  1.9677525306930E+00
110  1.0900000000000E+00  1.8531976074056E-01  4.9772003163374E-01  1.9480663578270E+00
111  1.1000000000000E+00  2.1725844593289E-01  4.7725054311379E-01  1.9172350191334E+00
112  1.1100000000000E+00  2.4482811085715E-01  4.5698817691511E-01  1.8757443069230E+00
113  1.1200000000000E+00  2.6809521296918E-01  4.3696048066928E-01  1.8241880815048E+00
114  1.1300000000000E+00  2.8716644606248E-01  4.1719485717610E-01  1.7632581131871E+00
115  1.1400000000000E+00  3.0218491236293E-01  3.9771841894061E-01  1.6937328169706E+00
116  1.1500000000000E+00  3.1332600844440E-01  3.7855783591133E-01  1.6164650882735E+00
117  1.1600000000000E+00  3.2079311011518E-01  3.5973917843081E-01  1.5323694562485E+00
118  1.1700000000000E+00  3.2481314084841E-01  3.4128775751401E-01  1.4424087753247E+00
119  1.1800000000000E+00  3.2563210607662E-01  3.2322796464229E-01  1.3475806756392E+00
120  1.1900000000000E+00  3.2351067189884E-01  3.0558311329924E-01  1.2489039891480E+00
121  1.2000000000000E+00  3.1871986149974E-01  2.8837528447891E-01  1.1474053605349E+00
122  1.2100000000000E+00  3.1153693611201E-01  2.7162517836657E-01  1.0441062409540E+00
123  1.2200000000000E+00  3.0224151975363E-01  2.5535197432911E-01  9.4001044834493E-01
124  1.2300000000000E+00  2.9111201846769E-01  2.3957320125466E-01  8.3609246093319E-01
125  1.2400000000000E+00  2.7842237564199E-01  2.2430462015473E-01  7.3328659111944E-01
126  1.2500000000000E+00  2.6443919526189E-01  2.0956012078381E-01  6.3247716537991E-01
127  1.2600000000000E+00  2.4941925504142E-01  1.9535163384840E-01  5.3448981288716E-01
128  1.2700000000000E+00  2.3360742137404E-01  1.8168906016933E-01  4.4008394151118E-01
129  1.2800000000000E+00  2.1723496816438E-01  1.6858021793131E-01  3.4994645514627E-01
130  1.2900000000000E+00  2.0051829211926E-01  1.5603080890723E-01  2.6468674159115E-01
131  1.3000000000000E+00  1.8365800807947E-01  1.4404440428338E-01  1.8483293570654E-01
132  1.3100000000000E+00  1.6683839964683E-01  1.3262245043898E-01  1.1082943873571E-01
133  1.3200000000000E+00  1.5022719288180E-01  1.2176429475516E-01  4.3035651995570E-02
134  1.3300000000000E+00  1.3397561429726E-01  1.1146723124713E-01 -1.8274138094516E-02
135  1.3400000000000E+00  1.1821868880268E-01  1.0172656553144E-01 -7.2909806360347E-02
136  1.3500000000000E+00  1.0307572881290E-01  9.2535698364540E-02 -1.2076346685649E-01
137  1.3600000000000E+00  8.8650962376205E-02  8.3886226721248E-02 -1.6180669824054E-01
138  1.3700000000000E+00  7.5034245938226E-02  7.5768061125808E-02 -1.9608704547225E-01
139  1.3800000000000E+00  6.2301806215473E-02  6.8169557707007E-02 -2.2372393760409E-01
140  1.3900000000000E+00  5.0516955560138E-02  6.1077663227230E-02 -2.4490416979695E-01
141  1.4000000000000E+00  3.9730726085007E-02  5.4478071133507E-02 -2.5987710370918E-01
142  1.4100000000000E+00  2.9982369577490E-02  4.8355386501809E-02 -2.6894974405916E-01
143  1.4200000000000E+00  2.1299672803998E-02  4.2693297592884E-02 -2.7248185059534E-01
144  1.4300000000000E+00  1.3699041013402E-02  3.7474751614443E-02 -2.7088124401814E-01
145  1.4400000000000E+00  7.1853062002832E-03  3.2682132188652E-02 -2.6459946180075E-01
146  1.4500000000000E+00  1.7512208418674E-03  2.8297435958464E-02 -2.5412791549628E-01
147  1.4600000000000E+00 -2.6233977898817E-03  2.4302445731298E-02 -2.3999469527714E-01
148  1.4700000000000E+00 -5.9729030975473E-03  2.0678897554153E-02 -2.2276216025274E-01
149  1.4800000000000E+00 -8.3474615334465E-03  1.7408639118739E-02 -2.0302544906422E-01
150  1.4900000000000E+00 -9.8151199728286E-03  1.4473777025624E-02 -1.8141202036614E-01
151  1.5000000000000E+00 -1.0464292408931E-02  1.1856811113133E-02 -1.5858226722831E-01
152  1.5100000000000E+00 -1.0406037943318E-02  9.5407623355066E-03 -1.3522914749706E-01
153  1.5200000000000E+00 -9.7665513634080E-03  7.5094761582090E-03 -1.1204616228790E-01
154  1.5300000000000E+00 -8.6879325522791E-03  5.7469144777947E-03 -8.9705948380879E-02
155  1.5400000000000E+00 -7.3210050807895E-03  4.2376294859084E-03 -6.8842626638599E-02
156  1.5500000000000E+00 -5.7840850020042E-03  2.9708203193129E-03 -4.9979936292903E-02
157  1.5600000000000E+00 -4.2010324397671E-03  1.9372219965123E-03 -3.3589045440453E-02
158  1.5700000000000E+00 -2.7000888854122E-03  1.1291808727103E-03 -2.0084495565513E-02
159  1.5800000000000E+00 -1.4138268117922E-03  5.4091774358410E-04 -9.8254857389682E-03
160  1.5900000000000E+00 -4.7077734087821E-04  1.6626880893455E-04 -3.0701821710476E-03
161  1.6000000000000E+00 -3.4955222836579E-05  1.1388451915487E-05 -2.1306436227424E-04
162  1.6100000000000E+00  7.3739192083847E-06 -2.3167107207321E-06  4.3747678783212E-05
163  1.6200000000000E+00 -2.2239281291274E-06  7.2612792514152E-07 -1.3625838056914E-05
164  1.63  0.  0.  0.
165  1.64  0.  0.  0.
166  1.65  0.  0.  0.
167  1.66  0.  0.  0.
168  1.67  0.  0.  0.
169  1.68  0.  0.  0.
170  1.69  0.  0.  0.
171  1.70  0.  0.  0.
172  1.71  0.  0.  0.
173  1.72  0.  0.  0.
174  1.73  0.  0.  0.
175  1.74  0.  0.  0.
176  1.75  0.  0.  0.
177  1.76  0.  0.  0.
178  1.77  0.  0.  0.
179  1.78  0.  0.  0.
180  1.79  0.  0.  0.
181  1.80  0.  0.  0.
182  1.81  0.  0.  0.
183  1.82  0.  0.  0.
184  1.83  0.  0.  0.
185  1.84  0.  0.  0.
186  1.85  0.  0.  0.
187  1.86  0.  0.  0.
188  1.87  0.  0.  0.
189  1.88  0.  0.  0.
190  1.89  0.  0.  0.
191  1.90  0.  0.  0.
192  1.91  0.  0.  0.
193  1.92  0.  0.  0.
194  1.93  0.  0.  0.
195  1.94  0.  0.  0.
196  1.95  0.  0.  0.
197  1.96  0.  0.  0.
198  1.97  0.  0.  0.
199  1.98  0.  0.  0.
200  1.99  0.  0.  0.
201  2.00  0.  0.  0.
202  2.01  0.  0.  0.
203  2.02  0.  0.  0.
204  2.03  0.  0.  0.
205  2.04  0.  0.  0.
206  2.05  0.  0.  0.
207  2.06  0.  0.  0.
208  2.07  0.  0.  0.
209  2.08  0.  0.  0.
210  2.09  0.  0.  0.
211  2.10  0.  0.  0.
212  2.11  0.  0.  0.
213  2.12  0.  0.  0.
214  2.13  0.  0.  0.
215  2.14  0.  0.  0.
216  2.15  0.  0.  0.
217  2.16  0.  0.  0.
218  2.17  0.  0.  0.
219  2.18  0.  0.  0.
220  2.19  0.  0.  0.
221  2.20  0.  0.  0.
222  2.21  0.  0.  0.
223  2.22  0.  0.  0.
224  2.23  0.  0.  0.
225  2.24  0.  0.  0.
226  2.25  0.  0.  0.
227  2.26  0.  0.  0.
228  2.27  0.  0.  0.
229  2.28  0.  0.  0.
230  2.29  0.  0.  0.
231  2.30  0.  0.  0.
232  2.31  0.  0.  0.
233  2.32  0.  0.  0.
234  2.33  0.  0.  0.
235  2.34  0.  0.  0.
236  2.35  0.  0.  0.
237  2.36  0.  0.  0.
238  2.37  0.  0.  0.
239  2.38  0.  0.  0.
240  2.39  0.  0.  0.
241  2.40  0.  0.  0.
242  2.41  0.  0.  0.
243  2.42  0.  0.  0.
244  2.43  0.  0.  0.
245  2.44  0.  0.  0.
246  2.45  0.  0.  0.
247  2.46  0.  0.  0.
248  2.47  0.  0.  0.
249  2.48  0.  0.  0.
250  2.49  0.  0.  0.
251  2.50  0.  0.  0.
252  2.51  0.  0.  0.
253  2.52  0.  0.  0.
254  2.53  0.  0.  0.
255  2.54  0.  0.  0.
256  2.55  0.  0.  0.
257  2.56  0.  0.  0.
258  2.57  0.  0.  0.
259  2.58  0.  0.  0.
260  2.59  0.  0.  0.
261  2.60  0.  0.  0.
262  2.61  0.  0.  0.
263  2.62  0.  0.  0.
264  2.63  0.  0.  0.
265  2.64  0.  0.  0.
266  2.65  0.  0.  0.
267  2.66  0.  0.  0.
268  2.67  0.  0.  0.
269  2.68  0.  0.  0.
270  2.69  0.  0.  0.
271  2.70  0.  0.  0.
272  2.71  0.  0.  0.
273  2.72  0.  0.  0.
274  2.73  0.  0.  0.
275  2.74  0.  0.  0.
276  2.75  0.  0.  0.
277  2.76  0.  0.  0.
278  2.77  0.  0.  0.
279  2.78  0.  0.  0.
280  2.79  0.  0.  0.
281  2.80  0.  0.  0.
282  2.81  0.  0.  0.
283  2.82  0.  0.  0.
284  2.83  0.  0.  0.
285  2.84  0.  0.  0.
286  2.85  0.  0.  0.
287  2.86  0.  0.  0.
288  2.87  0.  0.  0.
289  2.88  0.  0.  0.
290  2.89  0.  0.  0.
291  2.90  0.  0.  0.
292  2.91  0.  0.  0.
293  2.92  0.  0.  0.
294  2.93  0.  0.  0.
295  2.94  0.  0.  0.
296  2.95  0.  0.  0.
297  2.96  0.  0.  0.
298  2.97  0.  0.  0.
299  2.98  0.  0.  0.
300  2.99  0.  0.  0.
301  3.00  0.  0.  0.
302  3.01  0.  0.  0.
303  3.02  0.  0.  0.
304  3.03  0.  0.  0.
305  3.04  0.  0.  0.
306  3.05  0.  0.  0.
307  3.06  0.  0.  0.
308  3.07  0.  0.  0.
309  3.08  0.  0.  0.
310  3.09  0.  0.  0.
311  3.10  0.  0.  0.
312  3.11  0.  0.  0.
313  3.12  0.  0.  0.
314  3.13  0.  0.  0.
315  3.14  0.  0.  0.
316  3.15  0.  0.  0.
317  3.16  0.  0.  0.
318  3.17  0.  0.  0.
319  3.18  0.  0.  0.
320  3.19  0.  0.  0.
321  3.20  0.  0.  0.
322  3.21  0.  0.  0.
323  3.22  0.  0.  0.
324  3.23  0.  0.  0.
325  3.24  0.  0.  0.
326  3.25  0.  0.  0.
327  3.26  0.  0.  0.
328  3.27  0.  0.  0.
329  3.28  0.  0.  0.
330  3.29  0.  0.  0.
331  3.30  0.  0.  0.
332  3.31  0.  0.  0.
333  3.32  0.  0.  0.
334  3.33  0.  0.  0.
335  3.34  0.  0.  0.
336  3.35  0.  0.  0.
337  3.36  0.  0.  0.
338  3.37  0.  0.  0.
339  3.38  0.  0.  0.
340  3.39  0.  0.  0.
341  3.40  0.  0.  0.
342  3.41  0.  0.  0.
343  3.42  0.  0.  0.
344  3.43  0.  0.  0.
345  3.44  0.  0.  0.
346  3.45  0.  0.  0.
347  3.46  0.  0.  0.
348  3.47  0.  0.  0.
349  3.48  0.  0.  0.
350  3.49  0.  0.  0.
351  3.50  0.  0.  0.
352  3.51  0.  0.  0.
353  3.52  0.  0.  0.
354  3.53  0.  0.  0.
355  3.54  0.  0.  0.
356  3.55  0.  0.  0.
357  3.56  0.  0.  0.
358  3.57  0.  0.  0.
359  3.58  0.  0.  0.
360  3.59  0.  0.  0.
361  3.60  0.  0.  0.
362  3.61  0.  0.  0.
363  3.62  0.  0.  0.
364  3.63  0.  0.  0.
365  3.64  0.  0.  0.
366  3.65  0.  0.  0.
367  3.66  0.  0.  0.
368  3.67  0.  0.  0.
369  3.68  0.  0.  0.
370  3.69  0.  0.  0.
371  3.70  0.  0.  0.
372  3.71  0.  0.  0.
373  3.72  0.  0.  0.
374  3.73  0.  0.  0.
375  3.74  0.  0.  0.
376  3.75  0.  0.  0.
377  3.76  0.  0.  0.
378  3.77  0.  0.  0.
379  3.78  0.  0.  0.
380  3.79  0.  0.  0.
381  3.80  0.  0.  0.
382  3.81  0.  0.  0.
383  3.82  0.  0.  0.
384  3.83  0.  0.  0.
385  3.84  0.  0.  0.
386  3.85  0.  0.  0.
387  3.86  0.  0.  0.
388  3.87  0.  0.  0.
389  3.88  0.  0.  0.
390  3.89  0.  0.  0.
391  3.90  0.  0.  0.
392  3.91  0.  0.  0.
393  3.92  0.  0.  0.
394  3.93  0.  0.  0.
395  3.94  0.  0.  0.
396  3.95  0.  0.  0.
397  3.96  0.  0.  0.
398  3.97  0.  0.  0.
399  3.98  0.  0.  0.
400  3.99  0.  0.  0.
401  4.00  0.  0.  0.
402  4.01  0.  0.  0.
403  4.02  0.  0.  0.
404  4.03  0.  0.  0.
405  4.04  0.  0.  0.
406  4.05  0.  0.  0.
407  4.06  0.  0.  0.
408  4.07  0.  0.  0.
409  4.08  0.  0.  0.
410  4.09  0.  0.  0.
411  4.10  0.  0.  0.
412  4.11  0.  0.  0.
413  4.12  0.  0.  0.
414  4.13  0.  0.  0.
415  4.14  0.  0.  0.
416  4.15  0.  0.  0.
417  4.16  0.  0.  0.
418  4.17  0.  0.  0.
419  4.18  0.  0.  0.
420  4.19  0.  0.  0.
421  4.20  0.  0.  0.
422  4.21  0.  0.  0.
423  4.22  0.  0.  0.
424  4.23  0.  0.  0.
425  4.24  0.  0.  0.
426  4.25  0.  0.  0.
427  4.26  0.  0.  0.
428  4.27  0.  0.  0.
429  4.28  0.  0.  0.
430  4.29  0.  0.  0.
431  4.30  0.  0.  0.
432  4.31  0.  0.  0.
433  4.32  0.  0.  0.
434  4.33  0.  0.  0.
435  4.34  0.  0.  0.
436  4.35  0.  0.  0.
437  4.36  0.  0.  0.
438  4.37  0.  0.  0.
439  4.38  0.  0.  0.
440  4.39  0.  0.  0.
441  4.40  0.  0.  0.
442  4.41  0.  0.  0.
443  4.42  0.  0.  0.
444  4.43  0.  0.  0.
445  4.44  0.  0.  0.
446  4.45  0.  0.  0.
447  4.46  0.  0.  0.
448  4.47  0.  0.  0.
449  4.48  0.  0.  0.
450  4.49  0.  0.  0.
451  4.50  0.  0.  0.
452  4.51  0.  0.  0.
453  4.52  0.  0.  0.
454  4.53  0.  0.  0.
455  4.54  0.  0.  0.
456  4.55  0.  0.  0.
457  4.56  0.  0.  0.
458  4.57  0.  0.  0.
459  4.58  0.  0.  0.
460  4.59  0.  0.  0.
461  4.60  0.  0.  0.
462  4.61  0.  0.  0.
463  4.62  0.  0.  0.
464  4.63  0.  0.  0.
465  4.64  0.  0.  0.
466  4.65  0.  0.  0.
467  4.66  0.  0.  0.
468  4.67  0.  0.  0.
469  4.68  0.  0.  0.
470  4.69  0.  0.  0.
471  4.70  0.  0.  0.
472  4.71  0.  0.  0.
473  4.72  0.  0.  0.
474  4.73  0.  0.  0.
475  4.74  0.  0.  0.
476  4.75  0.  0.  0.
477  4.76  0.  0.  0.
478  4.77  0.  0.  0.
479  4.78  0.  0.  0.
480  4.79  0.  0.  0.
481  4.80  0.  0.  0.
482  4.81  0.  0.  0.
483  4.82  0.  0.  0.
484  4.83  0.  0.  0.
485  4.84  0.  0.  0.
486  4.85  0.  0.  0.
487  4.86  0.  0.  0.
488  4.87  0.  0.  0.
489  4.88  0.  0.  0.
490  4.89  0.  0.  0.
491  4.90  0.  0.  0.
492  4.91  0.  0.  0.
493  4.92  0.  0.  0.
494  4.93  0.  0.  0.
495  4.94  0.  0.  0.
496  4.95  0.  0.  0.
497  4.96  0.  0.  0.
498  4.97  0.  0.  0.
499  4.98  0.  0.  0.
500  4.99  0.  0.  0.
501  5.00  0.  0.  0.
502  5.01  0.  0.  0.
503  5.02  0.  0.  0.
504  5.03  0.  0.  0.
505  5.04  0.  0.  0.
506  5.05  0.  0.  0.
507  5.06  0.  0.  0.
508  5.07  0.  0.  0.
509  5.08  0.  0.  0.
510  5.09  0.  0.  0.
511  5.10  0.  0.  0.
512  5.11  0.  0.  0.
513  5.12  0.  0.  0.
514  5.13  0.  0.  0.
515  5.14  0.  0.  0.
516  5.15  0.  0.  0.
517  5.16  0.  0.  0.
518  5.17  0.  0.  0.
519  5.18  0.  0.  0.
520  5.19  0.  0.  0.
521  5.20  0.  0.  0.
522  5.21  0.  0.  0.
523  5.22  0.  0.  0.
524  5.23  0.  0.  0.
525  5.24  0.  0.  0.
526  5.25  0.  0.  0.
527  5.26  0.  0.  0.
528  5.27  0.  0.  0.
529  5.28  0.  0.  0.
530  5.29  0.  0.  0.
531  5.30  0.  0.  0.
532  5.31  0.  0.  0.
533  5.32  0.  0.  0.
534  5.33  0.  0.  0.
535  5.34  0.  0.  0.
536  5.35  0.  0.  0.
537  5.36  0.  0.  0.
538  5.37  0.  0.  0.
539  5.38  0.  0.  0.
540  5.39  0.  0.  0.
541  5.40  0.  0.  0.
542  5.41  0.  0.  0.
543  5.42  0.  0.  0.
544  5.43  0.  0.  0.
545  5.44  0.  0.  0.
546  5.45  0.  0.  0.
547  5.46  0.  0.  0.
548  5.47  0.  0.  0.
549  5.48  0.  0.  0.
550  5.49  0.  0.  0.
551  5.50  0.  0.  0.
552  5.51  0.  0.  0.
553  5.52  0.  0.  0.
554  5.53  0.  0.  0.
555  5.54  0.  0.  0.
556  5.55  0.  0.  0.
557  5.56  0.  0.  0.
558  5.57  0.  0.  0.
559  5.58  0.  0.  0.
560  5.59  0.  0.  0.
561  5.60  0.  0.  0.
562  5.61  0.  0.  0.
563  5.62  0.  0.  0.
564  5.63  0.  0.  0.
565  5.64  0.  0.  0.
566  5.65  0.  0.  0.
567  5.66  0.  0.  0.
568  5.67  0.  0.  0.
569  5.68  0.  0.  0.
570  5.69  0.  0.  0.
571  5.70  0.  0.  0.
572  5.71  0.  0.  0.
573  5.72  0.  0.  0.
574  5.73  0.  0.  0.
575  5.74  0.  0.  0.
576  5.75  0.  0.  0.
577  5.76  0.  0.  0.
578  5.77  0.  0.  0.
579  5.78  0.  0.  0.
580  5.79  0.  0.  0.
581  5.80  0.  0.  0.
582  5.81  0.  0.  0.
583  5.82  0.  0.  0.
584  5.83  0.  0.  0.
585  5.84  0.  0.  0.
586  5.85  0.  0.  0.
587  5.86  0.  0.  0.
588  5.87  0.  0.  0.
589  5.88  0.  0.  0.
590  5.89  0.  0.  0.
591  5.90  0.  0.  0.
592  5.91  0.  0.  0.
593  5.92  0.  0.  0.
594  5.93  0.  0.  0.
595  5.94  0.  0.  0.
596  5.95  0.  0.  0.
597  5.96  0.  0.  0.
598  5.97  0.  0.  0.
599  5.98  0.  0.  0.
600  5.99  0.  0.  0.
1                        -3.6520106151336E+00  4.3650091760894E-01 -6.7909612688270E-02
1  0.0000000000000E+00  8.6027268642042E-10  1.7851568188954E-08 -2.4512492730056E-08
2  1.0000000000000E-02  1.1373790431835E-03  6.2762636099652E-04 -3.9009377901682E-03
3  2.0000000000000E-02  4.5447589485230E-03  2.4860128861651E-03 -1.5552500816645E-02
4  3.0000000000000E-02  1.0207904578893E-02  5.5022070289498E-03 -3.4801737148517E-02
5  4.0000000000000E-02  1.8103211990774E-02  9.5563610498198E-03 -6.1396376140915E-02
6  5.0000000000000E-02  2.8197888620765E-02  1.4484304938558E-02 -9.4988752067080E-02
7  6.0000000000000E-02  4.0450202096694E-02  2.0081075597577E-02 -1.3514119774510E-01
8  7.0000000000000E-02  5.4809794297431E-02  2.6105331139037E-02 -1.8133281100826E-01
9  8.0000000000000E-02  7.1218056425261E-02  3.2284561296975E-02 -2.3296747235563E-01
10  9.0000000000000E-02  8.9608560069772E-02  3.8320988892241E-02 -2.8938296995254E-01
11  1.0000000000000E-01  1.0990753854651E-01  4.3898043335325E-02 -3.4986106875280E-01
12  1.1000000000000E-01  1.3203441219895E-01  4.8687275591293E-02 -4.1363834425769E-01
13  1.2000000000000E-01  1.5590235086890E-01  5.2355575093953E-02 -4.7991758861846E-01
14  1.3000000000000E-01  1.8141886637589E-01  5.4572542962154E-02 -5.4787958766802E-01
15  1.4000000000000E-01  2.0848642760620E-01  5.5017872664965E-02 -6.1669506220465E-01
16  1.5000000000000E-01  2.3700309070012E-01  5.3388589065309E-02 -6.8553656553109E-01
17  1.6000000000000E-01  2.6686313684224E-01  4.9405999553318E-02 -7.5359013189889E-01
18  1.7000000000000E-01  2.9795771030274E-01  4.2822216699244E-02 -8.2006647704550E-01
19  1.8000000000000E-01  3.3017544964327E-01  3.3426120402144E-02 -8.8421156230920E-01
20  1.9000000000000E-01  3.6340310538277E-01  2.1048638708612E-02 -9.4531634764280E-01
21  2.0000000000000E-01  3.9752613790756E-01  5.5672401042360E-03 -1.0027255759422E+00
22  2.1000000000000E-01  4.3242928999590E-01 -1.3090454137164E-02 -1.0558454511097E+00
23  2.2000000000000E-01  4.6799712899719E-01 -3.4944011340480E-02 -1.1041500947810E+00
24  2.3000000000000E-01  5.0411455444575E-01 -5.9958537241747E-02 -1.1471866912102E+00
25  2.4000000000000E-01  5.4066726768433E-01 -8.8044068710513E-02 -1.1845792559281E+00
26  2.5000000000000E-01  5.7754220090554E-01 -1.1905602296827E-01 -1.2160309909550E+00
27  2.6000000000000E-01  6.1462790387458E-01 -1.5279669571680E-01 -1.2413252170100E+00
28  2.7000000000000E-01  6.5181488745620E-01 -1.8901777957086E-01 -1.2603249007670E+00
29  2.8000000000000E-01  6.8899592391567E-01 -2.2742385374554E-01 -1.2729708222235E+00
30  2.9000000000000E-01  7.2606630478098E-01 -2.6767677649192E-01 -1.2792784531229E+00
31  3.0000000000000E-01  7.6292405782611E-01 -3.0940089369757E-01 -1.2793336416119E+00
32  3.1000000000000E-01  7.9947012544685E-01 -3.5218896073586E-01 -1.2732872204315E+00
33  3.2000000000000E-01  8.3560850733898E-01 -3.9560866038997E-01 -1.2613486755094E+00
34  3.3000000000000E-01  8.7124637094104E-01 -4.3920958778256E-01 -1.2437790284579E+00
35  3.4000000000000E-01  9.0629413356026E-01 -4.8253056395259E-01 -1.2208830998660E+00
36  3.5000000000000E-01  9.4066552045239E-01 -5.2510713322537E-01 -1.1930013301517E+00
37  3.6000000000000E-01  9.7427760336899E-01 -5.6647909595516E-01 -1.1605013409240E+00
38  3.7000000000000E-01  1.0070508242141E+00 -6.0619792765686E-01 -1.1237694221861E+00
39  3.8000000000000E-01  1.0389090084667E+00 -6.4383393799871E-01 -1.0832021292576E+00
40  3.9000000000000E-01  1.0697793729257E+00 -6.7898302855730E-01 -1.0391981680436E+00
41  4.0000000000000E-01  1.0995925321246E+00 -7.1127291653412E-01 -9.9215073836285E-01
42  4.1000000000000E-01  1.1282825074497E+00 -7.4036870263567E-01 -9.4244049264183E-01
43  4.2000000000000E-01  1.1557867425854E+00 -7.6597767481173E-01 -8.9042925166936E-01
44  4.3000000000000E-01  1.1820461284138E+00 -7.8785325525907E-01 -8.3645460060013E-01
45  4.4000000000000E-01  1.2070050399266E+00 -8.0579801571967E-01 -7.8082546738889E-01
46  4.5000000000000E-01  1.2306113870720E+00 -8.1966570528101E-01 -7.2381876276534E-01
47  4.6000000000000E-01  1.2528166807877E+00 -8.2936225523781E-01 -6.6567713620034E-01
48  4.7000000000000E-01  1.2735761147525E+00 -8.3484574669260E-01 -6.0660787657701E-01
49  4.8000000000000E-01  1.2928486626746E+00 -8.3612534802971E-01 -5.4678296000148E-01
50  4.9000000000000E-01  1.3105971902059E+00 -8.3325925076445E-01 -4.8634022090676E-01
51  5.0000000000000E-01  1.3267885798696E+00 -8.2635165311017E-01 -4.2538559686879E-01
52  5.1000000000000E-01  1.3413938667212E+00 -8.1554886049993E-01 -3.6399637289916E-01
53  5.2000000000000E-01  1.3543883818409E+00 -8.0103459084040E-01 -3.0222532791658E-01
54  5.3000000000000E-01  1.3657519002028E+00 -7.8302458907918E-01 -2.4010566511697E-01
55  5.4000000000000E-01  1.3754687889877E+00 -7.6176067039091E-01 -1.7765658949557E-01
56  5.5000000000000E-01  1.3835281520226E+00 -7.3750432361887E-01 -1.1488938022395E-01
57  5.6000000000000E-01  1.3899239657370E+00 -7.1053001628873E-01 -5.1813793278203E-02
58  5.7000000000000E-01  1.3946552018500E+00 -6.8111834932836E-01  1.1555379069122E-02
59  5.8000000000000E-01  1.3977259319308E+00 -6.4954921342788E-01  7.5191770348963E-02
60  5.9000000000000E-01  1.3991454090250E+00 -6.1609509966052E-01  1.3905110325974E-01
61  6.0000000000000E-01  1.3989281217039E+00 -5.8101471452544E-01  2.0306523129022E-01
62  6.1000000000000E-01  1.3970938161721E+00 -5.4454704399482E-01  2.6713672904740E-01
63  6.2000000000000E-01  1.3936674824643E+00 -5.0690600253683E-01  3.3113419142250E-01
64  6.3000000000000E-01  1.3886793012550E+00 -4.6827579160029E-01  3.9488838783692E-01