Fr    ONCVPSP-4.0.1  r_core=   1.60257   1.60257   1.75302   1.65123
87.0000     27.0000      231012    zatom,zion,pspd
8 -116133   3     4   600     0    pspcod,pspxc,lmax,lloc,mmax,r2well
5.99000000  5.00000000  0.00000000    rchrg fchrg qchrg
3     2     2     2     0    nproj
1     1           extension_switch
0                         6.9424357570897E+00 -3.3013938455596E+00  8.4062710310297E-01
1  0.0000000000000E+00 -1.2625564371760E-08 -1.4102474743538E-10 -2.8504442473043E-08
2  1.0000000000000E-02  1.1030564163119E-01  3.5420202083790E-02  5.5852738366562E-02
3  2.0000000000000E-02  2.1985410072841E-01  7.0807115722616E-02  1.1060570562320E-01
4  3.0000000000000E-02  3.2789796201677E-01  1.0612757946612E-01  1.6317923946139E-01
5  4.0000000000000E-02  4.3370917282894E-01  1.4134868391376E-01  2.1253351168955E-01
6  5.0000000000000E-02  5.3658829795271E-01  1.7643789292824E-01  2.5768749407113E-01
7  6.0000000000000E-02  6.3587327196078E-01  2.1136315917820E-01  2.9773680353276E-01
8  7.0000000000000E-02  7.3094749670288E-01  2.4609303228935E-01  3.3187008747934E-01
9  8.0000000000000E-02  8.2124714426531E-01  2.8059675802428E-01  3.5938363845735E-01
10  9.0000000000000E-02  9.0626754100635E-01  3.1484436708239E-01  3.7969396196057E-01
11  1.0000000000000E-01  9.8556852595083E-01  3.4880675230884E-01  3.9234806108842E-01
12  1.1000000000000E-01  1.0587786965229E+00  3.8245573332230E-01  3.9703124625268E-01
13  1.2000000000000E-01  1.1255984759206E+00  4.1576410781056E-01  3.9357232630484E-01
14  1.3000000000000E-01  1.1858019589654E+00  4.4870568899573E-01  3.8194608836533E-01
15  1.4000000000000E-01  1.2392375165479E+00  4.8125532903361E-01  3.6227302627474E-01
16  1.5000000000000E-01  1.2858271623764E+00  5.1338892837725E-01  3.3481633091347E-01
17  1.6000000000000E-01  1.3255647091531E+00  5.4508343140004E-01  2.9997620860131E-01
18  1.7000000000000E-01  1.3585127640898E+00  5.7631680883206E-01  2.5828164534790E-01
19  1.8000000000000E-01  1.3847986353878E+00  6.0706802781070E-01  2.1037978386934E-01
20  1.9000000000000E-01  1.4046092415139E+00  6.3731701057753E-01  1.5702312605296E-01
21  2.0000000000000E-01  1.4181851334244E+00  6.6704458306437E-01  9.9054815050199E-02
22  2.1000000000000E-01  1.4258137559511E+00  6.9623241479718E-01  3.7392287600711E-02
23  2.2000000000000E-01  1.4278220880792E+00  7.2486295170461E-01 -2.6990382160149E-02
24  2.3000000000000E-01  1.4245688125422E+00  7.5291934354456E-01 -9.3081101873600E-02
25  2.4000000000000E-01  1.4164361728478E+00  7.8038536775580E-01 -1.5984898010259E-01
26  2.5000000000000E-01  1.4038216803906E+00  8.0724535159923E-01 -2.2626377211696E-01
27  2.6000000000000E-01  1.3871298356218E+00  8.3348409447564E-01 -2.9131517597442E-01
28  2.7000000000000E-01  1.3667640253335E+00  8.5908679229139E-01 -3.5403160689639E-01
29  2.8000000000000E-01  1.3431187530209E+00  8.8403896569261E-01 -4.1349808951835E-01
30  2.9000000000000E-01  1.3165723511339E+00  9.0832639390188E-01 -4.6887292616032E-01
31  3.0000000000000E-01  1.2874803129985E+00  9.3193505577142E-01 -5.1940282442310E-01
32  3.1000000000000E-01  1.2561693685060E+00  9.5485107951581E-01 -5.6443619864514E-01
33  3.2000000000000E-01  1.2229324116303E+00  9.7706070240797E-01 -6.0343439642652E-01
34  3.3000000000000E-01  1.1880243697668E+00  9.9855024151839E-01 -6.3598064278263E-01
35  3.4000000000000E-01  1.1516590851589E+00  1.0193060763529E+00 -6.6178653972024E-01
36  3.5000000000000E-01  1.1140072576994E+00  1.0393146440034E+00 -6.8069600721029E-01
37  3.6000000000000E-01  1.0751954765767E+00  1.0585624471741E+00 -6.9268660172531E-01
38  3.7000000000000E-01  1.0353063460274E+00  1.0770360751847E+00 -6.9786819971621E-01
39  3.8000000000000E-01  9.9437968829476E-01  1.0947222377931E+00 -6.9647908461702E-01
40  3.9000000000000E-01  9.5241478521860E-01  1.1116078114205E+00 -6.8887952619770E-01
41  4.0000000000000E-01  9.0937359911886E-01  1.1276798971119E+00 -6.7554298934745E-01
42  4.1000000000000E-01  8.6518489419417E-01  1.1429258893295E+00 -6.5704515474498E-01
43  4.2000000000000E-01  8.1974916190898E-01  1.1573335544531E+00 -6.3405097548538E-01
44  4.3000000000000E-01  7.7294423813081E-01  1.1708911176676E+00 -6.0730003079801E-01
45  4.4000000000000E-01  7.2463148640083E-01  1.1835873567416E+00 -5.7759046981423E-01
46  4.5000000000000E-01  6.7466241092336E-01  1.1954117010553E+00 -5.4576186433779E-01
47  4.6000000000000E-01  6.2288555484009E-01  1.2063543341258E+00 -5.1267730926789E-01
48  4.7000000000000E-01  5.6915353425162E-01  1.2164062977931E+00 -4.7920512238111E-01
49  4.8000000000000E-01  5.1333005634285E-01  1.2255595961859E+00 -4.4620050138114E-01
50  4.9000000000000E-01  4.5529677087951E-01  1.2338072975759E+00 -4.1448749540252E-01
51  5.0000000000000E-01  3.9495980823259E-01  1.2411436322519E+00 -3.8484164056016E-01
52  5.1000000000000E-01  3.3225586385655E-01  1.2475640846063E+00 -3.5797359486718E-01
53  5.2000000000000E-01  2.6715769864064E-01  1.2530654777183E+00 -3.3451408722056E-01
54  5.3000000000000E-01  1.9967893656756E-01  1.2576460488449E+00 -3.1500046861223E-01
55  5.4000000000000E-01  1.2987805538999E-01  1.2613055143825E+00 -2.9986512182556E-01
56  5.5000000000000E-01  5.7861482281396E-02  1.2640451230447E+00 -2.8942594926458E-01
57  5.6000000000000E-01 -1.6214275705616E-02  1.2658676962065E+00 -2.8387911798456E-01
58  5.7000000000000E-01 -9.2141517388473E-02  1.2667776545836E+00 -2.8329419724219E-01
59  5.8000000000000E-01 -1.6966128039164E-01  1.2667810306600E+00 -2.8761177783939E-01
60  5.9000000000000E-01 -2.4846433172512E-01  1.2658854665193E+00 -2.9664361508146E-01
61  6.0000000000000E-01 -3.2819320584747E-01  1.2641001969933E+00 -3.1007528923217E-01
62  6.1000000000000E-01 -4.0844525976382E-01  1.2614360182950E+00 -3.2747132984685E-01
63  6.2000000000000E-01 -4.8877669512282E-01  1.2579052425556E+00 -3.4828270418997E-01
64  6.3000000000000E-01 -5.6870747877488E-01  1.2535216389286E+00 -3.7185652597720E-01
65  6.4000000000000E-01 -6.4772707618243E-01  1.2483003621545E+00 -3.9744779972744E-01
66  6.5000000000000E-01 -7.2530089675062E-01  1.2422578696948E+00 -4.2423297882577E-01
67  6.6000000000000E-01 -8.0087733685304E-01  1.2354118287369E+00 -4.5132508264967E-01
68  6.7000000000000E-01 -8.7389529529966E-01  1.2277810145396E+00 -4.7779009037882E-01
69  6.8000000000000E-01 -9.4379202742392E-01  1.2193852017335E+00 -5.0266430687080E-01
70  6.9000000000000E-01 -1.0100111979907E+00  1.2102450503008E+00 -5.2497237959981E-01
71  7.0000000000000E-01 -1.0720109898416E+00  1.2003819880410E+00 -5.4374563538803E-01
72  7.1000000000000E-01 -1.1292721246240E+00  1.1898180913757E+00 -5.5804040162311E-01
73  7.2000000000000E-01 -1.1813056540901E+00  1.1785759663621E+00 -5.6695597887782E-01
74  7.3000000000000E-01 -1.2276603852162E+00  1.1666786317629E+00 -5.6965194020877E-01
75  7.4000000000000E-01 -1.2679298096773E+00  1.1541494059675E+00 -5.6536444669507E-01
76  7.5000000000000E-01 -1.3017584178321E+00  1.1410117994758E+00 -5.5342128864731E-01
77  7.6000000000000E-01 -1.3288472891347E+00  1.1272894145389E+00 -5.3325538694028E-01
78  7.7000000000000E-01 -1.3489588645269E+00  1.1130058534053E+00 -5.0441651857036E-01
79  7.8000000000000E-01 -1.3619208216073E+00  1.0981846364536E+00 -4.6658106420465E-01
80  7.9000000000000E-01 -1.3676289899048E+00  1.0828491312986E+00 -4.1955961249901E-01
81  8.0000000000000E-01 -1.3660492610757E+00  1.0670224937458E+00 -3.6330229558473E-01
82  8.1000000000000E-01 -1.3572184669506E+00  1.0507276212433E+00 -2.9790177159120E-01
83  8.2000000000000E-01 -1.3412442167296E+00  1.0339871192401E+00 -2.2359381259244E-01
84  8.3000000000000E-01 -1.3183037029069E+00  1.0168232806181E+00 -1.4075549913763E-01
85  8.4000000000000E-01 -1.2886415033631E+00  9.9925807811367E-01 -4.9901064755310E-02
86  8.5000000000000E-01 -1.2525664241514E+00  9.8131316940329E-01  4.8324525264363E-02
87  8.6000000000000E-01 -1.2104474435286E+00  9.6300991428447E-01  1.5315413763738E-01
88  8.7000000000000E-01 -1.1627088324431E+00  9.4436940315832E-01  2.6370901810246E-01
89  8.8000000000000E-01 -1.1098245397463E+00  9.2541249580308E-01  3.7901112961015E-01
90  8.9000000000000E-01 -1.0523119416201E+00  9.0615986923350E-01  4.9799706074338E-01
91  9.0000000000000E-01 -9.9072506393036E-01  8.8663207326592E-01  6.1953325893613E-01
92  9.1000000000000E-01 -9.2564739329045E-01  8.6684959225956E-01  7.4243232331888E-01
93  9.2000000000000E-01 -8.5768439745641E-01  8.4683291138198E-01  8.6547007731362E-01
94  9.3000000000000E-01 -7.8745587822592E-01  8.2660258565336E-01  9.8740313161202E-01
95  9.4000000000000E-01 -7.1558828027949E-01  8.0617930996233E-01  1.1069866439797E+00
96  9.5000000000000E-01 -6.4270707742192E-01  7.8558398821534E-01  1.2229919834140E+00
97  9.6000000000000E-01 -5.6942935354199E-01  7.6483779978423E-01  1.3342240124312E+00
98  9.7000000000000E-01 -4.9635668943447E-01  7.4396226145061E-01  1.4395377124488E+00
99  9.8000000000000E-01 -4.2406845858189E-01  7.2297928311239E-01  1.5378538930731E+00
100  9.9000000000000E-01 -3.5311562526981E-01  7.0191121561457E-01  1.6281737462074E+00
101  1.0000000000000E+00 -2.8401512723907E-01  6.8078088919236E-01  1.7095920298046E+00
102  1.0100000000000E+00 -2.1724491269755E-01  6.5961164116754E-01  1.7813086933075E+00
103  1.0200000000000E+00 -1.5323968819790E-01  6.3842733171626E-01  1.8426387867576E+00
104  1.0300000000000E+00 -9.2387419918087E-02  6.1725234672476E-01  1.8930205276111E+00
105  1.0400000000000E+00 -3.5026616532446E-02  5.9611158696634E-01  1.9320214328509E+00
106  1.0500000000000E+00  1.8555592580613E-02  5.7503044306389E-01  1.9593424584038E+00
107  1.0600000000000E+00  6.8124584277583E-02  5.5403475594417E-01  1.9748201224356E+00
108  1.0700000000000E+00  1.1349858801056E-01  5.3315076273829E-01  1.9784266232915E+00
109  1.0800000000000E+00  1.5454827894245E-01  5.1240502833467E-01  1.9702679959594E+00
110  1.0900000000000E+00  1.9119565725230E-01  4.9182436303976E-01  1.9505803824009E+00
111  1.1000000000000E+00  2.2341226403746E-01  4.7143572704685E-01  1.9197245204886E+00
112  1.1100000000000E+00  2.5121679380693E-01  4.5126612264793E-01  1.8781785829234E+00
113  1.1200000000000E+00  2.7467217171212E-01  4.3134247534541E-01  1.8265295212381E+00
114  1.1300000000000E+00  2.9388217016254E-01  4.1169150522559E-01  1.7654630901827E+00
115  1.1400000000000E+00  3.0898764433690E-01  3.9233959014100E-01  1.6957527444396E+00
116  1.1500000000000E+00  3.2016246920980E-01  3.7331262241042E-01  1.6182476122866E+00
117  1.1600000000000E+00  3.2760926211301E-01  3.5463586088241E-01  1.5338597595909E+00
118  1.1700000000000E+00  3.3155497454709E-01  3.3633378031659E-01  1.4435509622036E+00
119  1.1800000000000E+00  3.3224643500220E-01  3.1842992011636E-01  1.3483192055158E+00
120  1.1900000000000E+00  3.2994592108297E-01  3.0094673449527E-01  1.2491851267826E+00
121  1.2000000000000E+00  3.2492683429741E-01  2.8390544617591E-01  1.1471786088781E+00
122  1.2100000000000E+00  3.1746954471590E-01  2.6732590570544E-01  1.0433257238133E+00
123  1.2200000000000E+00  3.0785746541209E-01  2.5122645842454E-01  9.3863621078942E-01
124  1.2300000000000E+00  2.9637340838670E-01  2.3562382104869E-01  8.3409165714694E-01
125  1.2400000000000E+00  2.8329626479550E-01  2.2053296971232E-01  7.3063453184104E-01
126  1.2500000000000E+00  2.6889804282395E-01  2.0596704118927E-01  6.2915820010995E-01
127  1.2600000000000E+00  2.5344128685538E-01  1.9193724883923E-01  5.3049802564402E-01
128  1.2700000000000E+00  2.3717689175094E-01  1.7845281464218E-01  4.3542364298332E-01
129  1.2800000000000E+00  2.2034231631458E-01  1.6552091847205E-01  3.4463245853496E-01
130  1.2900000000000E+00  2.0316019062325E-01  1.5314666553254E-01  2.5874441416110E-01
131  1.3000000000000E+00  1.8583730294938E-01  1.4133307263370E-01  1.7829802295458E-01
132  1.3100000000000E+00  1.6856394367258E-01  1.3008107373047E-01  1.0374766303919E-01
133  1.3200000000000E+00  1.5151357604636E-01  1.1938954487904E-01  3.5462092500179E-02
134  1.3300000000000E+00  1.3484279703807E-01  1.0925534849715E-01 -2.6275872856523E-02
135  1.3400000000000E+00  1.1869154574553E-01  9.9673396541360E-02 -8.1268597171952E-02
136  1.3500000000000E+00  1.0318351226919E-01  9.0636731945382E-02 -1.2940187380501E-01
137  1.3600000000000E+00  8.8426696335324E-02  8.2136627400233E-02 -1.7064229834880E-01
138  1.3700000000000E+00  7.4514062473446E-02  7.4162700303018E-02 -2.0503389126059E-01
139  1.3800000000000E+00  6.1524237121364E-02  6.6703042459826E-02 -2.3269410743513E-01
140  1.3900000000000E+00  4.9522192636855E-02  5.9744362904170E-02 -2.5380937908902E-01
141  1.4000000000000E+00  3.8559863759480E-02  5.3272141986440E-02 -2.6863034506202E-01
142  1.4100000000000E+00  2.8676643499951E-02  4.7270794707073E-02 -2.7746692403169E-01
143  1.4200000000000E+00  1.9899707677205E-02  4.1723841105862E-02 -2.8068339132315E-01
144  1.4300000000000E+00  1.2244120208687E-02  3.6614081387771E-02 -2.7869361904618E-01
145  1.4400000000000E+00  5.7126747047732E-03  3.1923773360471E-02 -2.7195663740336E-01
146  1.4500000000000E+00  2.9543178300505E-04  2.7634809683416E-02 -2.6097267132591E-01
147  1.4600000000000E+00 -4.0310843519837E-03  2.3728892383056E-02 -2.4627980135353E-01
148  1.4700000000000E+00 -7.3050622036093E-03  2.0187702074313E-02 -2.2845139101748E-01
149  1.4800000000000E+00 -9.5809812675454E-03  1.6993059324527E-02 -2.0809441942059E-01
150  1.4900000000000E+00 -1.0931612452517E-02  1.4127075712190E-02 -1.8584883299857E-01
151  1.5000000000000E+00 -1.1450436954442E-02  1.1572292771494E-02 -1.6238796491527E-01
152  1.5100000000000E+00 -1.1253847031608E-02  9.3118145695432E-03 -1.3841794678344E-01
153  1.5200000000000E+00 -1.0473415040821E-02  7.3296036346997E-03 -1.1464518537771E-01
154  1.5300000000000E+00 -9.2562685874031E-03  5.6097832164271E-03 -9.1754058165736E-02
155  1.5400000000000E+00 -7.7578072861647E-03  4.1371005325885E-03 -7.0389068029199E-02
156  1.5500000000000E+00 -6.1008217032285E-03  2.9009001971450E-03 -5.1083882786106E-02
157  1.5600000000000E+00 -4.4130742480502E-03  1.8920853016309E-03 -3.4317950802740E-02
158  1.5700000000000E+00 -2.8260537422451E-03  1.1031918157509E-03 -2.0512275437880E-02
159  1.5800000000000E+00 -1.4748804769071E-03  5.2864647513951E-04 -1.0030639116657E-02
160  1.5900000000000E+00 -4.8962517663912E-04  1.6255629881613E-04 -3.1329683849201E-03
161  1.6000000000000E+00 -3.6230422231800E-05  1.1135460302999E-05 -2.1733232149038E-04
162  1.6100000000000E+00  7.6392757438027E-06 -2.2673528976152E-06  4.4607119400569E-05
163  1.6200000000000E+00 -2.3070863176271E-06  7.1041968473868E-07 -1.3897282502355E-05
164  1.63  0. -0.  0.
165  1.64 -0. -0. -0.
166  1.65  0.  0.  0.
167  1.66  0.  0.  0.
168  1.67  0.  0.  0.
169  1.68  0.  0.  0.
170  1.69  0.  0.  0.
171  1.70  0.  0.  0.
172  1.71  0.  0.  0.
173  1.72  0.  0.  0.
174  1.73  0.  0.  0.
175  1.74  0.  0.  0.
176  1.75  0.  0.  0.
177  1.76  0.  0.  0.
178  1.77  0.  0.  0.
179  1.78  0.  0.  0.
180  1.79  0.  0.  0.
181  1.80  0.  0.  0.
182  1.81  0.  0.  0.
183  1.82  0.  0.  0.
184  1.83  0.  0.  0.
185  1.84  0.  0.  0.
186  1.85  0.  0.  0.
187  1.86  0.  0.  0.
188  1.87  0.  0.  0.
189  1.88  0.  0.  0.
190  1.89  0.  0.  0.
191  1.90  0.  0.  0.
192  1.91  0.  0.  0.
193  1.92  0.  0.  0.
194  1.93  0.  0.  0.
195  1.94  0.  0.  0.
196  1.95  0.  0.  0.
197  1.96  0.  0.  0.
198  1.97  0.  0.  0.
199  1.98  0.  0.  0.
200  1.99  0.  0.  0.
201  2.00  0.  0.  0.
202  2.01  0.  0.  0.
203  2.02  0.  0.  0.
204  2.03  0.  0.  0.
205  2.04  0.  0.  0.
206  2.05  0.  0.  0.
207  2.06  0.  0.  0.
208  2.07  0.  0.  0.
209  2.08  0.  0.  0.
210  2.09  0.  0.  0.
211  2.10  0.  0.  0.
212  2.11  0.  0.  0.
213  2.12  0.  0.  0.
214  2.13  0.  0.  0.
215  2.14  0.  0.  0.
216  2.15  0.  0.  0.
217  2.16  0.  0.  0.
218  2.17  0.  0.  0.
219  2.18  0.  0.  0.
220  2.19  0.  0.  0.
221  2.20  0.  0.  0.
222  2.21  0.  0.  0.
223  2.22  0.  0.  0.
224  2.23  0.  0.  0.
225  2.24  0.  0.  0.
226  2.25  0.  0.  0.
227  2.26  0.  0.  0.
228  2.27  0.  0.  0.
229  2.28  0.  0.  0.
230  2.29  0.  0.  0.
231  2.30  0.  0.  0.
232  2.31  0.  0.  0.
233  2.32  0.  0.  0.
234  2.33  0.  0.  0.
235  2.34  0.  0.  0.
236  2.35  0.  0.  0.
237  2.36  0.  0.  0.
238  2.37  0.  0.  0.
239  2.38  0.  0.  0.
240  2.39  0.  0.  0.
241  2.40  0.  0.  0.
242  2.41  0.  0.  0.
243  2.42  0.  0.  0.
244  2.43  0.  0.  0.
245  2.44  0.  0.  0.
246  2.45  0.  0.  0.
247  2.46  0.  0.  0.
248  2.47  0.  0.  0.
249  2.48  0.  0.  0.
250  2.49  0.  0.  0.
251  2.50  0.  0.  0.
252  2.51  0.  0.  0.
253  2.52  0.  0.  0.
254  2.53  0.  0.  0.
255  2.54  0.  0.  0.
256  2.55  0.  0.  0.
257  2.56  0.  0.  0.
258  2.57  0.  0.  0.
259  2.58  0.  0.  0.
260  2.59  0.  0.  0.
261  2.60  0.  0.  0.
262  2.61  0.  0.  0.
263  2.62  0.  0.  0.
264  2.63  0.  0.  0.
265  2.64  0.  0.  0.
266  2.65  0.  0.  0.
267  2.66  0.  0.  0.
268  2.67  0.  0.  0.
269  2.68  0.  0.  0.
270  2.69  0.  0.  0.
271  2.70  0.  0.  0.
272  2.71  0.  0.  0.
273  2.72  0.  0.  0.
274  2.73  0.  0.  0.
275  2.74  0.  0.  0.
276  2.75  0.  0.  0.
277  2.76  0.  0.  0.
278  2.77  0.  0.  0.
279  2.78  0.  0.  0.
280  2.79  0.  0.  0.
281  2.80  0.  0.  0.
282  2.81  0.  0.  0.
283  2.82  0.  0.  0.
284  2.83  0.  0.  0.
285  2.84  0.  0.  0.
286  2.85  0.  0.  0.
287  2.86  0.  0.  0.
288  2.87  0.  0.  0.
289  2.88  0.  0.  0.
290  2.89  0.  0.  0.
291  2.90  0.  0.  0.
292  2.91  0.  0.  0.
293  2.92  0.  0.  0.
294  2.93  0.  0.  0.
295  2.94  0.  0.  0.
296  2.95  0.  0.  0.
297  2.96  0.  0.  0.
298  2.97  0.  0.  0.
299  2.98  0.  0.  0.
300  2.99  0.  0.  0.
301  3.00  0.  0.  0.
302  3.01  0.  0.  0.
303  3.02  0.  0.  0.
304  3.03  0.  0.  0.
305  3.04  0.  0.  0.
306  3.05  0.  0.  0.
307  3.06  0.  0.  0.
308  3.07  0.  0.  0.
309  3.08  0.  0.  0.
310  3.09  0.  0.  0.
311  3.10  0.  0.  0.
312  3.11  0.  0.  0.
313  3.12  0.  0.  0.
314  3.13  0.  0.  0.
315  3.14  0.  0.  0.
316  3.15  0.  0.  0.
317  3.16  0.  0.  0.
318  3.17  0.  0.  0.
319  3.18  0.  0.  0.
320  3.19  0.  0.  0.
321  3.20  0.  0.  0.
322  3.21  0.  0.  0.
323  3.22  0.  0.  0.
324  3.23  0.  0.  0.
325  3.24  0.  0.  0.
326  3.25  0.  0.  0.
327  3.26  0.  0.  0.
328  3.27  0.  0.  0.
329  3.28  0.  0.  0.
330  3.29  0.  0.  0.
331  3.30  0.  0.  0.
332  3.31  0.  0.  0.
333  3.32  0.  0.  0.
334  3.33  0.  0.  0.
335  3.34  0.  0.  0.
336  3.35  0.  0.  0.
337  3.36  0.  0.  0.
338  3.37  0.  0.  0.
339  3.38  0.  0.  0.
340  3.39  0.  0.  0.
341  3.40  0.  0.  0.
342  3.41  0.  0.  0.
343  3.42  0.  0.  0.
344  3.43  0.  0.  0.
345  3.44  0.  0.  0.
346  3.45  0.  0.  0.
347  3.46  0.  0.  0.
348  3.47  0.  0.  0.
349  3.48  0.  0.  0.
350  3.49  0.  0.  0.
351  3.50  0.  0.  0.
352  3.51  0.  0.  0.
353  3.52  0.  0.  0.
354  3.53  0.  0.  0.
355  3.54  0.  0.  0.
356  3.55  0.  0.  0.
357  3.56  0.  0.  0.
358  3.57  0.  0.  0.
359  3.58  0.  0.  0.
360  3.59  0.  0.  0.
361  3.60  0.  0.  0.
362  3.61  0.  0.  0.
363  3.62  0.  0.  0.
364  3.63  0.  0.  0.
365  3.64  0.  0.  0.
366  3.65  0.  0.  0.
367  3.66  0.  0.  0.
368  3.67  0.  0.  0.
369  3.68  0.  0.  0.
370  3.69  0.  0.  0.
371  3.70  0.  0.  0.
372  3.71  0.  0.  0.
373  3.72  0.  0.  0.
374  3.73  0.  0.  0.
375  3.74  0.  0.  0.
376  3.75  0.  0.  0.
377  3.76  0.  0.  0.
378  3.77  0.  0.  0.
379  3.78  0.  0.  0.
380  3.79  0.  0.  0.
381  3.80  0.  0.  0.
382  3.81  0.  0.  0.
383  3.82  0.  0.  0.
384  3.83  0.  0.  0.
385  3.84  0.  0.  0.
386  3.85  0.  0.  0.
387  3.86  0.  0.  0.
388  3.87  0.  0.  0.
389  3.88  0.  0.  0.
390  3.89  0.  0.  0.
391  3.90  0.  0.  0.
392  3.91  0.  0.  0.
393  3.92  0.  0.  0.
394  3.93  0.  0.  0.
395  3.94  0.  0.  0.
396  3.95  0.  0.  0.
397  3.96  0.  0.  0.
398  3.97  0.  0.  0.
399  3.98  0.  0.  0.
400  3.99  0.  0.  0.
401  4.00  0.  0.  0.
402  4.01  0.  0.  0.
403  4.02  0.  0.  0.
404  4.03  0.  0.  0.
405  4.04  0.  0.  0.
406  4.05  0.  0.  0.
407  4.06  0.  0.  0.
408  4.07  0.  0.  0.
409  4.08  0.  0.  0.
410  4.09  0.  0.  0.
411  4.10  0.  0.  0.
412  4.11  0.  0.  0.
413  4.12  0.  0.  0.
414  4.13  0.  0.  0.
415  4.14  0.  0.  0.
416  4.15  0.  0.  0.
417  4.16  0.  0.  0.
418  4.17  0.  0.  0.
419  4.18  0.  0.  0.
420  4.19  0.  0.  0.
421  4.20  0.  0.  0.
422  4.21  0.  0.  0.
423  4.22  0.  0.  0.
424  4.23  0.  0.  0.
425  4.24  0.  0.  0.
426  4.25  0.  0.  0.
427  4.26  0.  0.  0.
428  4.27  0.  0.  0.
429  4.28  0.  0.  0.
430  4.29  0.  0.  0.
431  4.30  0.  0.  0.
432  4.31  0.  0.  0.
433  4.32  0.  0.  0.
434  4.33  0.  0.  0.
435  4.34  0.  0.  0.
436  4.35  0.  0.  0.
437  4.36  0.  0.  0.
438  4.37  0.  0.  0.
439  4.38  0.  0.  0.
440  4.39  0.  0.  0.
441  4.40  0.  0.  0.
442  4.41  0.  0.  0.
443  4.42  0.  0.  0.
444  4.43  0.  0.  0.
445  4.44  0.  0.  0.
446  4.45  0.  0.  0.
447  4.46  0.  0.  0.
448  4.47  0.  0.  0.
449  4.48  0.  0.  0.
450  4.49  0.  0.  0.
451  4.50  0.  0.  0.
452  4.51  0.  0.  0.
453  4.52  0.  0.  0.
454  4.53  0.  0.  0.
455  4.54  0.  0.  0.
456  4.55  0.  0.  0.
457  4.56  0.  0.  0.
458  4.57  0.  0.  0.
459  4.58  0.  0.  0.
460  4.59  0.  0.  0.
461  4.60  0.  0.  0.
462  4.61  0.  0.  0.
463  4.62  0.  0.  0.
464  4.63  0.  0.  0.
465  4.64  0.  0.  0.
466  4.65  0.  0.  0.
467  4.66  0.  0.  0.
468  4.67  0.  0.  0.
469  4.68  0.  0.  0.
470  4.69  0.  0.  0.
471  4.70  0.  0.  0.
472  4.71  0.  0.  0.
473  4.72  0.  0.  0.
474  4.73  0.  0.  0.
475  4.74  0.  0.  0.
476  4.75  0.  0.  0.
477  4.76  0.  0.  0.
478  4.77  0.  0.  0.
479  4.78  0.  0.  0.
480  4.79  0.  0.  0.
481  4.80  0.  0.  0.
482  4.81  0.  0.  0.
483  4.82  0.  0.  0.
484  4.83  0.  0.  0.
485  4.84  0.  0.  0.
486  4.85  0.  0.  0.
487  4.86  0.  0.  0.
488  4.87  0.  0.  0.
489  4.88  0.  0.  0.
490  4.89  0.  0.  0.
491  4.90  0.  0.  0.
492  4.91  0.  0.  0.
493  4.92  0.  0.  0.
494  4.93  0.  0.  0.
495  4.94  0.  0.  0.
496  4.95  0.  0.  0.
497  4.96  0.  0.  0.
498  4.97  0.  0.  0.
499  4.98  0.  0.  0.
500  4.99  0.  0.  0.
501  5.00  0.  0.  0.
502  5.01  0.  0.  0.
503  5.02  0.  0.  0.
504  5.03  0.  0.  0.
505  5.04  0.  0.  0.
506  5.05  0.  0.  0.
507  5.06  0.  0.  0.
508  5.07  0.  0.  0.
509  5.08  0.  0.  0.
510  5.09  0.  0.  0.
511  5.10  0.  0.  0.
512  5.11  0.  0.  0.
513  5.12  0.  0.  0.
514  5.13  0.  0.  0.
515  5.14  0.  0.  0.
516  5.15  0.  0.  0.
517  5.16  0.  0.  0.
518  5.17  0.  0.  0.
519  5.18  0.  0.  0.
520  5.19  0.  0.  0.
521  5.20  0.  0.  0.
522  5.21  0.  0.  0.
523  5.22  0.  0.  0.
524  5.23  0.  0.  0.
525  5.24  0.  0.  0.
526  5.25  0.  0.  0.
527  5.26  0.  0.  0.
528  5.27  0.  0.  0.
529  5.28  0.  0.  0.
530  5.29  0.  0.  0.
531  5.30  0.  0.  0.
532  5.31  0.  0.  0.
533  5.32  0.  0.  0.
534  5.33  0.  0.  0.
535  5.34  0.  0.  0.
536  5.35  0.  0.  0.
537  5.36  0.  0.  0.
538  5.37  0.  0.  0.
539  5.38  0.  0.  0.
540  5.39  0.  0.  0.
541  5.40  0.  0.  0.
542  5.41  0.  0.  0.
543  5.42  0.  0.  0.
544  5.43  0.  0.  0.
545  5.44  0.  0.  0.
546  5.45  0.  0.  0.
547  5.46  0.  0.  0.
548  5.47  0.  0.  0.
549  5.48  0.  0.  0.
550  5.49  0.  0.  0.
551  5.50  0.  0.  0.
552  5.51  0.  0.  0.
553  5.52  0.  0.  0.
554  5.53  0.  0.  0.
555  5.54  0.  0.  0.
556  5.55  0.  0.  0.
557  5.56  0.  0.  0.
558  5.57  0.  0.  0.
559  5.58  0.  0.  0.
560  5.59  0.  0.  0.
561  5.60  0.  0.  0.
562  5.61  0.  0.  0.
563  5.62  0.  0.  0.
564  5.63  0.  0.  0.
565  5.64  0.  0.  0.
566  5.65  0.  0.  0.
567  5.66  0.  0.  0.
568  5.67  0.  0.  0.
569  5.68  0.  0.  0.
570  5.69  0.  0.  0.
571  5.70  0.  0.  0.
572  5.71  0.  0.  0.
573  5.72  0.  0.  0.
574  5.73  0.  0.  0.
575  5.74  0.  0.  0.
576  5.75  0.  0.  0.
577  5.76  0.  0.  0.
578  5.77  0.  0.  0.
579  5.78  0.  0.  0.
580  5.79  0.  0.  0.
581  5.80  0.  0.  0.
582  5.81  0.  0.  0.
583  5.82  0.  0.  0.
584  5.83  0.  0.  0.
585  5.84  0.  0.  0.
586  5.85  0.  0.  0.
587  5.86  0.  0.  0.
588  5.87  0.  0.  0.
589  5.88  0.  0.  0.
590  5.89  0.  0.  0.
591  5.90  0.  0.  0.
592  5.91  0.  0.  0.
593  5.92  0.  0.  0.
594  5.93  0.  0.  0.
595  5.94  0.  0.  0.
596  5.95  0.  0.  0.
597  5.96  0.  0.  0.
598  5.97  0.  0.  0.
599  5.98  0.  0.  0.
600  5.99  0.  0.  0.
1                        -3.5476952447308E+00  1.4236119809854E+00
1  0.0000000000000E+00  1.5190401991827E-09  2.2317762651825E-08
2  1.0000000000000E-02  1.1756654523620E-03  1.2847972278964E-03
3  2.0000000000000E-02  4.6969005158474E-03  5.1056441403721E-03
4  3.0000000000000E-02  1.0546477724017E-02  1.1362575868853E-02
5  4.0000000000000E-02  1.8695871790877E-02  1.9891202567288E-02
6  5.0000000000000E-02  2.9105537250342E-02  3.0465990823637E-02
7  6.0000000000000E-02  4.1725291015977E-02  4.2804766598490E-02
8  7.0000000000000E-02  5.6494793863812E-02  5.6574350836382E-02
9  8.0000000000000E-02  7.3344123321905E-02  7.1397216577590E-02
10  9.0000000000000E-02  9.2194429071995E-02  8.6859036298549E-02
11  1.0000000000000E-01  1.1295866075606E-01  1.0251697072614E-01
12  1.1000000000000E-01  1.3554235705652E-01  1.1790853585421E-01
13  1.2000000000000E-01  1.5984448410141E-01  1.3256087362889E-01
14  1.3000000000000E-01  1.8575831064990E-01  1.4600024398362E-01
15  1.4000000000000E-01  2.1317230714872E-01  1.5776155175379E-01
16  1.5000000000000E-01  2.4197105562221E-01  1.6739772155823E-01
17  1.6000000000000E-01  2.7203615746921E-01  1.7448873701698E-01
18  1.7000000000000E-01  3.0324712658392E-01  1.7865016760439E-01
19  1.8000000000000E-01  3.3548225578844E-01  1.7954101687970E-01
20  1.9000000000000E-01  3.6861944534822E-01  1.7687073958067E-01
21  2.0000000000000E-01  4.0253698332148E-01  1.7040529183098E-01
22  2.1000000000000E-01  4.3711426864980E-01  1.5997209816488E-01
23  2.2000000000000E-01  4.7223246920477E-01  1.4546384081790E-01
24  2.3000000000000E-01  5.0777510843846E-01  1.2684100033742E-01
25  2.4000000000000E-01  5.4362857581424E-01  1.0413310155385E-01
26  2.5000000000000E-01  5.7968255778830E-01  7.7438644822119E-02
27  2.6000000000000E-01  6.1583038773817E-01  4.6923728675129E-02
28  2.7000000000000E-01  6.5196931486175E-01  1.2819396097548E-02
29  2.8000000000000E-01  6.8800069366417E-01 -2.4582237991400E-02
30  2.9000000000000E-01  7.2383009718031E-01 -6.4932996274808E-02
31  3.0000000000000E-01  7.5936735851702E-01 -1.0783468132279E-01
32  3.1000000000000E-01  7.9452654661272E-01 -1.5284602598597E-01
33  3.2000000000000E-01  8.2922588327770E-01 -1.9949040943679E-01
34  3.3000000000000E-01  8.6338760957387E-01 -2.4726418147436E-01
35  3.4000000000000E-01  8.9693781039800E-01 -2.9564542598973E-01
36  3.5000000000000E-01  9.2980620673377E-01 -3.4410298620534E-01
37  3.6000000000000E-01  9.6192592542357E-01 -3.9210556962535E-01
38  3.7000000000000E-01  9.9323325647438E-01 -4.3913074965643E-01
39  3.8000000000000E-01  1.0236674078525E+00 -4.8467368360244E-01
40  3.9000000000000E-01  1.0531702674400E+00 -5.2825537314802E-01
41  4.0000000000000E-01  1.0816861813325E+00 -5.6943030339814E-01
42  4.1000000000000E-01  1.1091617569568E+00 -6.0779330983399E-01
43  4.2000000000000E-01  1.1355456986086E+00 -6.4298553891625E-01
44  4.3000000000000E-01  1.1607886819539E+00 -6.7469938718448E-01
45  4.4000000000000E-01  1.1848432728461E+00 -7.0268232518542E-01
46  4.5000000000000E-01  1.2076638944970E+00 -7.2673953598030E-01
47  4.6000000000000E-01  1.2292068456347E+00 -7.4673532285957E-01
48  4.7000000000000E-01  1.2494303708213E+00 -7.6259326673462E-01
49  4.8000000000000E-01  1.2682947826106E+00 -7.7429513995359E-01
50  4.9000000000000E-01  1.2857626337393E+00 -7.8187860947388E-01
51  5.0000000000000E-01  1.3017989360928E+00 -7.8543378788260E-01
52  5.1000000000000E-01  1.3163714218071E+00 -7.8509871516851E-01
53  5.2000000000000E-01  1.3294508405762E+00 -7.8105387691405E-01
54  5.3000000000000E-01  1.3410112860801E+00 -7.7351588522566E-01
55  5.4000000000000E-01  1.3510305434359E+00 -7.6273046682552E-01
56  5.5000000000000E-01  1.3594904487420E+00 -7.4896491790849E-01
57  5.6000000000000E-01  1.3663772511450E+00 -7.3250019730380E-01
58  5.7000000000000E-01  1.3716819674273E+00 -7.1362283790805E-01
59  5.8000000000000E-01  1.3754007189014E+00 -6.9261686108789E-01
60  5.9000000000000E-01  1.3775350404148E+00 -6.6975587966584E-01
61  6.0000000000000E-01  1.3780921515135E+00 -6.4529557215947E-01
62  6.1000000000000E-01  1.3770851802858E+00 -6.1946670417498E-01
63  6.2000000000000E-01  1.3745333310986E+00 -5.9246886236978E-01
64  6.3000000000000E-01  1.3704619883410E+00 -5.6446505238342E-01
65  6.4000000000000E-01  1.3649027493806E+00 -5.3557729483826E-01
66  6.5000000000000E-01  1.3578933812052E+00 -5.0588333326245E-01
67  6.6000000000000E-01  1.3494776966329E+00 -4.7541454496337E-01
68  6.7000000000000E-01  1.3397053475127E+00 -4.4415512091771E-01
69  6.8000000000000E-01  1.3286315339612E+00 -4.1204255412977E-01
70  6.9000000000000E-01  1.3163166303707E+00 -3.7896944815412E-01
71  7.0000000000000E-01  1.3028257306362E+00 -3.4478662913470E-01
72  7.1000000000000E-01  1.2882281167587E+00 -3.0930751633527E-01
73  7.2000000000000E-01  1.2725966566409E+00 -2.7231367829730E-01
74  7.3000000000000E-01  1.2560071384864E+00 -2.3356147501862E-01
75  7.4000000000000E-01  1.2385375506859E+00 -1.9278966145064E-01
76  7.5000000000000E-01  1.2202673174165E+00 -1.4972780467639E-01
77  7.6000000000000E-01  1.2012765013436E+00 -1.0410534684395E-01
78  7.7000000000000E-01  1.1816449857921E+00 -5.5661128723164E-02
79  7.8000000000000E-01  1.1614516495014E+00 -4.1531750081300E-03
80  7.9000000000000E-01  1.1407735475978E+00  5.0631467476312E-02
81  8.0000000000000E-01  1.1196851126815E+00  1.0886705344419E-01
82  8.1000000000000E-01  1.0982573899269E+00  1.7067984120824E-01
83  8.2000000000000E-01  1.0765573198315E+00  2.3613938708551E-01
84  8.3000000000000E-01  1.0546470817203E+00  3.0525063923762E-01
85  8.4000000000000E-01  1.0325835103204E+00  3.7794702692684E-01
86  8.5000000000000E-01  1.0104175966795E+00  4.5408472598059E-01