Am    ONCVPSP-4.0.1  r_core=   1.10131   1.00079   1.00079   1.10131
95.0000     35.0000      231012    zatom,zion,pspd
8 -116133   3     4   600     0    pspcod,pspxc,lmax,lloc,mmax,r2well
5.99000000  3.50000000  0.00000000    rchrg fchrg qchrg
3     2     2     2     0    nproj
1     1           extension_switch
0                         4.8809955841520E+01  3.7705670698369E+00 -3.0648441818961E-01
1  0.0000000000000E+00 -5.8159877358577E-08  2.4357891692528E-07  3.0609470313969E-07
2  1.0000000000000E-02  1.5415954333662E-01 -7.8827634152371E-02  9.4772071291725E-03
3  2.0000000000000E-02  3.0735613266119E-01 -1.5616022819184E-01  1.9716772422199E-02
4  3.0000000000000E-02  4.5863869448048E-01 -2.3054066242976E-01  3.1437323228388E-02
5  4.0000000000000E-02  6.0707955109034E-01 -3.0058614917080E-01  4.5272006591806E-02
6  5.0000000000000E-02  7.5178522174315E-01 -3.6502169507165E-01  6.1730616972239E-02
7  6.0000000000000E-02  8.9190619288359E-01 -4.2270930780491E-01  8.1167329855534E-02
8  7.0000000000000E-02  1.0266453867930E+00 -4.7267183368468E-01  1.0375552809565E-01
9  8.0000000000000E-02  1.1552651161421E+00 -5.1411055648904E-01  1.2947090173609E-01
10  9.0000000000000E-02  1.2770923793947E+00 -5.4641597060848E-01  1.5808364479513E-01
11  1.0000000000000E-01  1.3915224255728E+00 -5.6917145088762E-01  1.8916017938502E-01
12  1.1000000000000E-01  1.4980205931495E+00 -5.8214986293693E-01  2.2207442539086E-01
13  1.2000000000000E-01  1.5961225031856E+00 -5.8530347647141E-01  2.5602822043507E-01
14  1.3000000000000E-01  1.6854327577173E+00 -5.7874784568181E-01  2.9008009770333E-01
15  1.4000000000000E-01  1.7656223574713E+00 -5.6274059077866E-01  3.2318126544264E-01
16  1.5000000000000E-01  1.8364251052012E+00 -5.3765624106862E-01  3.5421731715556E-01
17  1.6000000000000E-01  1.8976332997889E+00 -5.0395847159504E-01  3.8205394919616E-01
18  1.7000000000000E-01  1.9490930498025E+00 -4.6217117428597E-01  4.0558478345720E-01
19  1.8000000000000E-01  1.9906995422411E+00 -4.1284984535353E-01  4.2377929479054E-01
20  1.9000000000000E-01  2.0223925922688E+00 -3.5655474112406E-01  4.3572882990750E-01
21  2.0000000000000E-01  2.0441527731941E+00 -2.9382715548671E-01  4.4068877732208E-01
22  2.1000000000000E-01  2.0559983839030E+00 -2.2517000791641E-01  4.3811510324665E-01
23  2.2000000000000E-01  2.0579834552938E+00 -1.5103370875063E-01  4.2769369952802E-01
24  2.3000000000000E-01  2.0501969305096E+00 -7.1807998017948E-02  4.0936128674727E-01
25  2.4000000000000E-01  2.0327630790208E+00  1.2179852115057E-02  3.8331696568501E-01
26  2.5000000000000E-01  2.0058431253936E+00  1.0066040925495E-01  3.5002389836285E-01
27  2.6000000000000E-01  1.9696379936555E+00  1.9341129971923E-01  3.1020100910697E-01
28  2.7000000000000E-01  1.9243919914333E+00  2.9024087282786E-01  2.6480500887660E-01
29  2.8000000000000E-01  1.8703971882549E+00  3.9096721010672E-01  2.1500344472573E-01
30  2.9000000000000E-01  1.8079981831395E+00  4.9539364124137E-01  1.6213984354496E-01
31  3.0000000000000E-01  1.7375969109345E+00  6.0328213911023E-01  1.0769233946760E-01
32  3.1000000000000E-01  1.6596571073513E+00  7.1432611422381E-01  5.3227433805960E-02
33  3.2000000000000E-01  1.5747080411307E+00  8.2812420650016E-01  3.5072417436373E-04
34  3.3000000000000E-01  1.4833471292851E+00  9.4415667466149E-01 -4.9343452317245E-02
35  3.4000000000000E-01  1.3862410781054E+00  1.0617659092412E+00 -9.4321492521558E-02
36  3.5000000000000E-01  1.2841252378941E+00  1.1801424462848E+00 -1.3315720815637E-01
37  3.6000000000000E-01  1.1778009216382E+00  1.2983176408070E+00 -1.6457394636947E-01
38  3.7000000000000E-01  1.0681305147087E+00  1.4151638806984E+00 -1.8748059822956E-01
39  3.8000000000000E-01  9.5603029107813E-01  1.5294028946696E+00 -2.0100022409241E-01
40  3.9000000000000E-01  8.4246094782427E-01  1.6396223460353E+00 -2.0449035725799E-01
41  4.0000000000000E-01  7.2841596972935E-01  1.7443005235004E+00 -1.9755441646629E-01
42  4.1000000000000E-01  6.1490803522072E-01  1.8418385575841E+00 -1.8004404685147E-01
43  4.2000000000000E-01  5.0295376931130E-01  1.9305992241956E+00 -1.5205260045239E-01
44  4.3000000000000E-01  3.9355723427454E-01  2.0089510620657E+00 -1.1390034363805E-01
45  4.4000000000000E-01  2.8769262055903E-01  2.0753162439392E+00 -6.6112323012267E-02
46  4.5000000000000E-01  1.8628665544453E-01  2.1282204164252E+00 -9.3901181906101E-03
47  4.6000000000000E-01  9.0201282352686E-02  2.1663425714704E+00  5.5421053878420E-02
48  4.7000000000000E-01  2.1717757343860E-04  2.1885629416349E+00  1.2736825287844E-01
49  4.8000000000000E-01 -8.2981337649559E-02  2.1940069263973E+00  2.0542802956541E-01
50  4.9000000000000E-01 -1.5881946333308E-01  2.1820831584572E+00  2.8854321647389E-01
51  5.0000000000000E-01 -2.2684269244339E-01  2.1525140044515E+00  3.7565764513860E-01
52  5.1000000000000E-01 -2.8672478884733E-01  2.1053570569550E+00  4.6574729130341E-01
53  5.2000000000000E-01 -3.3827266329279E-01  2.0410165038453E+00  5.5784656984976E-01
54  5.3000000000000E-01 -3.8142794403337E-01  1.9602436437905E+00  6.5106877958987E-01
55  5.4000000000000E-01 -4.1626515327709E-01  1.8641262369042E+00  7.4462002098423E-01
56  5.5000000000000E-01 -4.4298652031674E-01  1.7540668198823E+00  8.3780626158634E-01
57  5.6000000000000E-01 -4.6191358210578E-01  1.6317505564074E+00  9.3003358749518E-01
58  5.7000000000000E-01 -4.7347583725427E-01  1.4991036173489E+00  1.0208020367343E+00
59  5.8000000000000E-01 -4.7819682515905E-01  1.3582434729170E+00  1.1096937449237E+00
60  5.9000000000000E-01 -4.7667809384440E-01  1.2114228134755E+00  1.1963564285807E+00
61  6.0000000000000E-01 -4.6958159424991E-01  1.0609690824922E+00  1.2804834725285E+00
62  6.1000000000000E-01 -4.5761109204557E-01  9.0922179213978E-01  1.3617920632632E+00
63  6.2000000000000E-01 -4.4149321836526E-01  7.5846989092340E-01  1.4400009109978E+00
64  6.3000000000000E-01 -4.2195878686403E-01  6.1089145865803E-01  1.5148091241479E+00
65  6.4000000000000E-01 -3.9972498600255E-01  4.6849791647960E-01  1.5858777397709E+00
66  6.5000000000000E-01 -3.7547901325424E-01  3.3308476170727E-01  1.6528152742576E+00
67  6.6000000000000E-01 -3.4986365382499E-01  2.0619057651083E-01  1.7151684464543E+00
68  6.7000000000000E-01 -3.2346522321264E-01  8.9065726351807E-02  1.7724189499796E+00
69  6.8000000000000E-01 -2.9680419403407E-01 -1.7348227036056E-02  1.8239868253428E+00
70  6.9000000000000E-01 -2.7032871717364E-01 -1.1242780639518E-01  1.8692406206161E+00
71  7.0000000000000E-01 -2.4441113008233E-01 -1.9586545837338E-01  1.9075141487244E+00
72  7.1000000000000E-01 -2.1934742582153E-01 -2.6765627793688E-01  1.9381292676352E+00
73  7.2000000000000E-01 -1.9535954010752E-01 -3.2807439086278E-01  1.9604237449544E+00
74  7.3000000000000E-01 -1.7260020485989E-01 -3.7764018131736E-01  1.9737829380035E+00
75  7.4000000000000E-01 -1.5116001991791E-01 -4.1707991567654E-01  1.9776737404391E+00
76  7.5000000000000E-01 -1.3107631342726E-01 -4.4727961350658E-01  1.9716790308816E+00
77  7.6000000000000E-01 -1.1234329894378E-01 -4.6923524028263E-01  1.9555307191639E+00
78  7.7000000000000E-01 -9.4922995792594E-02 -4.8400143539087E-01  1.9291394300795E+00
79  7.8000000000000E-01 -7.8756359979705E-02 -4.9264103828723E-01  1.8926188978959E+00
80  7.9000000000000E-01 -6.3774076395630E-02 -4.9617763398417E-01  1.8463032690400E+00
81  8.0000000000000E-01 -4.9906488719447E-02 -4.9555320836532E-01  1.7907557236750E+00
82  8.1000000000000E-01 -3.7092190033714E-02 -4.9159278953081E-01  1.7267671247001E+00
83  8.2000000000000E-01 -2.5284862731640E-02 -4.8497766142308E-01  1.6553437779276E+00
84  8.3000000000000E-01 -1.4458038312981E-02 -4.7622838053771E-01  1.5776838307026E+00
85  8.4000000000000E-01 -4.6075432614527E-03 -4.6569841704662E-01  1.4951423377913E+00
86  8.5000000000000E-01  4.2484966440910E-03 -4.5357879019452E-01  1.4091855722767E+00
87  8.6000000000000E-01  1.2072107446644E-02 -4.3991358605207E-01  1.3213357452663E+00
88  8.7000000000000E-01  1.8810268637934E-02 -4.2462574405358E-01  1.2331079125673E+00
89  8.8000000000000E-01  2.4401838718114E-02 -4.0755198556462E-01  1.1459414824235E+00
90  8.9000000000000E-01  2.8786254959444E-02 -3.8848523843774E-01  1.0611293921959E+00
91  9.0000000000000E-01  3.1913533482987E-02 -3.6722238793564E-01  9.7974869343033E-01
92  9.1000000000000E-01  3.3754970020172E-02 -3.4361465416927E-01  9.0259697815632E-01
93  9.2000000000000E-01  3.4313812684361E-02 -3.1761735229430E-01  8.3013980322841E-01
94  9.3000000000000E-01  3.3635042755483E-02 -2.8933522222195E-01  7.6247503760586E-01
95  9.4000000000000E-01  3.1813253660268E-02 -2.5905890263090E-01  6.9932088812083E-01
96  9.5000000000000E-01  2.8997456537597E-02 -2.2728744776151E-01  6.4003527581253E-01
97  9.6000000000000E-01  2.5391456304883E-02 -1.9473101808798E-01  5.8367526541410E-01
98  9.7000000000000E-01  2.1248227257245E-02 -1.6228698674003E-01  5.2910642690608E-01
99  9.8000000000000E-01  1.6856463043526E-02 -1.3098165710665E-01  4.7517336667859E-01
100  9.9000000000000E-01  1.2517166845019E-02 -1.0186851677961E-01  4.2094432715533E-01
101  1.0000000000000E+00  8.5078530635369E-03 -7.5872800486133E-02  3.6604366315048E-01
102  1.0100000000000E+00  5.0350281475933E-03 -5.3587440070634E-02  3.1103777722221E-01
103  1.0200000000000E+00  2.2275797777645E-03 -3.5273185600951E-02  2.5715376296540E-01
104  1.0300000000000E+00  1.6785210768208E-04 -2.1032494528498E-02  2.0560079475652E-01
105  1.0400000000000E+00 -1.1111921735363E-03 -1.0811106127377E-02  1.5749977187016E-01
106  1.0500000000000E+00 -1.6643880062638E-03 -4.2613267922225E-03  1.1394794025464E-01
107  1.0600000000000E+00 -1.8142316170714E-03 -8.2650651175159E-05  7.6292583517772E-02
108  1.0700000000000E+00 -1.5806555479950E-03  1.8855411840666E-03  4.5305762963696E-02
109  1.0800000000000E+00 -1.0334985440228E-03  1.9449242018264E-03  2.1709839402564E-02
110  1.0900000000000E+00 -3.8826750851321E-04  8.9262576460788E-04  6.3085144136286E-03
111  1.1000000000000E+00 -1.3547733569986E-05  3.5060803443895E-05  1.7484872161929E-04
112  1.1100000000000E+00 -2.2434086540525E-06  5.7199431489932E-06  2.9861656446580E-05
113  1.1200000000000E+00  2.0617383918852E-07 -5.0406712930863E-07 -2.9939739117722E-06
114  1.13  0.  0.  0.
115  1.14  0.  0.  0.
116  1.15  0.  0.  0.
117  1.16  0.  0.  0.
118  1.17  0.  0.  0.
119  1.18  0.  0.  0.
120  1.19  0.  0.  0.
121  1.20  0.  0.  0.
122  1.21  0.  0.  0.
123  1.22  0.  0.  0.
124  1.23  0.  0.  0.
125  1.24  0.  0.  0.
126  1.25  0.  0.  0.
127  1.26  0.  0.  0.
128  1.27  0.  0.  0.
129  1.28  0.  0.  0.
130  1.29  0.  0.  0.
131  1.30  0.  0.  0.
132  1.31  0.  0.  0.
133  1.32  0.  0.  0.
134  1.33  0.  0.  0.
135  1.34  0.  0.  0.
136  1.35  0.  0.  0.
137  1.36  0.  0.  0.
138  1.37  0.  0.  0.
139  1.38  0.  0.  0.
140  1.39  0.  0.  0.
141  1.40  0.  0.  0.
142  1.41  0.  0.  0.
143  1.42  0.  0.  0.
144  1.43  0.  0.  0.
145  1.44  0.  0.  0.
146  1.45  0.  0.  0.
147  1.46  0.  0.  0.
148  1.47  0.  0.  0.
149  1.48  0.  0.  0.
150  1.49  0.  0.  0.
151  1.50  0.  0.  0.
152  1.51  0.  0.  0.
153  1.52  0.  0.  0.
154  1.53  0.  0.  0.
155  1.54  0.  0.  0.
156  1.55  0.  0.  0.
157  1.56  0.  0.  0.
158  1.57  0.  0.  0.
159  1.58  0.  0.  0.
160  1.59  0.  0.  0.
161  1.60  0.  0.  0.
162  1.61  0.  0.  0.
163  1.62  0.  0.  0.
164  1.63  0.  0.  0.
165  1.64  0.  0.  0.
166  1.65  0.  0.  0.
167  1.66  0.  0.  0.
168  1.67  0.  0.  0.
169  1.68  0.  0.  0.
170  1.69  0.  0.  0.
171  1.70  0.  0.  0.
172  1.71  0.  0.  0.
173  1.72  0.  0.  0.
174  1.73  0.  0.  0.
175  1.74  0.  0.  0.
176  1.75  0.  0.  0.
177  1.76  0.  0.  0.
178  1.77  0.  0.  0.
179  1.78  0.  0.  0.
180  1.79  0.  0.  0.
181  1.80  0.  0.  0.
182  1.81  0.  0.  0.
183  1.82  0.  0.  0.
184  1.83  0.  0.  0.
185  1.84  0.  0.  0.
186  1.85  0.  0.  0.
187  1.86  0.  0.  0.
188  1.87  0.  0.  0.
189  1.88  0.  0.  0.
190  1.89  0.  0.  0.
191  1.90  0.  0.  0.
192  1.91  0.  0.  0.
193  1.92  0.  0.  0.
194  1.93  0.  0.  0.
195  1.94  0.  0.  0.
196  1.95  0.  0.  0.
197  1.96  0.  0.  0.
198  1.97  0.  0.  0.
199  1.98  0.  0.  0.
200  1.99  0.  0.  0.
201  2.00  0.  0.  0.
202  2.01  0.  0.  0.
203  2.02  0.  0.  0.
204  2.03  0.  0.  0.
205  2.04  0.  0.  0.
206  2.05  0.  0.  0.
207  2.06  0.  0.  0.
208  2.07  0.  0.  0.
209  2.08  0.  0.  0.
210  2.09  0.  0.  0.
211  2.10  0.  0.  0.
212  2.11  0.  0.  0.
213  2.12  0.  0.  0.
214  2.13  0.  0.  0.
215  2.14  0.  0.  0.
216  2.15  0.  0.  0.
217  2.16  0.  0.  0.
218  2.17  0.  0.  0.
219  2.18  0.  0.  0.
220  2.19  0.  0.  0.
221  2.20  0.  0.  0.
222  2.21  0.  0.  0.
223  2.22  0.  0.  0.
224  2.23  0.  0.  0.
225  2.24  0.  0.  0.
226  2.25  0.  0.  0.
227  2.26  0.  0.  0.
228  2.27  0.  0.  0.
229  2.28  0.  0.  0.
230  2.29  0.  0.  0.
231  2.30  0.  0.  0.
232  2.31  0.  0.  0.
233  2.32  0.  0.  0.
234  2.33  0.  0.  0.
235  2.34  0.  0.  0.
236  2.35  0.  0.  0.
237  2.36  0.  0.  0.
238  2.37  0.  0.  0.
239  2.38  0.  0.  0.
240  2.39  0.  0.  0.
241  2.40  0.  0.  0.
242  2.41  0.  0.  0.
243  2.42  0.  0.  0.
244  2.43  0.  0.  0.
245  2.44  0.  0.  0.
246  2.45  0.  0.  0.
247  2.46  0.  0.  0.
248  2.47  0.  0.  0.
249  2.48  0.  0.  0.
250  2.49  0.  0.  0.
251  2.50  0.  0.  0.
252  2.51  0.  0.  0.
253  2.52  0.  0.  0.
254  2.53  0.  0.  0.
255  2.54  0.  0.  0.
256  2.55  0.  0.  0.
257  2.56  0.  0.  0.
258  2.57  0.  0.  0.
259  2.58  0.  0.  0.
260  2.59  0.  0.  0.
261  2.60  0.  0.  0.
262  2.61  0.  0.  0.
263  2.62  0.  0.  0.
264  2.63  0.  0.  0.
265  2.64  0.  0.  0.
266  2.65  0.  0.  0.
267  2.66  0.  0.  0.
268  2.67  0.  0.  0.
269  2.68  0.  0.  0.
270  2.69  0.  0.  0.
271  2.70  0.  0.  0.
272  2.71  0.  0.  0.
273  2.72  0.  0.  0.
274  2.73  0.  0.  0.
275  2.74  0.  0.  0.
276  2.75  0.  0.  0.
277  2.76  0.  0.  0.
278  2.77  0.  0.  0.
279  2.78  0.  0.  0.
280  2.79  0.  0.  0.
281  2.80  0.  0.  0.
282  2.81  0.  0.  0.
283  2.82  0.  0.  0.
284  2.83  0.  0.  0.
285  2.84  0.  0.  0.
286  2.85  0.  0.  0.
287  2.86  0.  0.  0.
288  2.87  0.  0.  0.
289  2.88  0.  0.  0.
290  2.89  0.  0.  0.
291  2.90  0.  0.  0.
292  2.91  0.  0.  0.
293  2.92  0.  0.  0.
294  2.93  0.  0.  0.
295  2.94  0.  0.  0.
296  2.95  0.  0.  0.
297  2.96  0.  0.  0.
298  2.97  0.  0.  0.
299  2.98  0.  0.  0.
300  2.99  0.  0.  0.
301  3.00  0.  0.  0.
302  3.01  0.  0.  0.
303  3.02  0.  0.  0.
304  3.03  0.  0.  0.
305  3.04  0.  0.  0.
306  3.05  0.  0.  0.
307  3.06  0.  0.  0.
308  3.07  0.  0.  0.
309  3.08  0.  0.  0.
310  3.09  0.  0.  0.
311  3.10  0.  0.  0.
312  3.11  0.  0.  0.
313  3.12  0.  0.  0.
314  3.13  0.  0.  0.
315  3.14  0.  0.  0.
316  3.15  0.  0.  0.
317  3.16  0.  0.  0.
318  3.17  0.  0.  0.
319  3.18  0.  0.  0.
320  3.19  0.  0.  0.
321  3.20  0.  0.  0.
322  3.21  0.  0.  0.
323  3.22  0.  0.  0.
324  3.23  0.  0.  0.
325  3.24  0.  0.  0.
326  3.25  0.  0.  0.
327  3.26  0.  0.  0.
328  3.27  0.  0.  0.
329  3.28  0.  0.  0.
330  3.29  0.  0.  0.
331  3.30  0.  0.  0.
332  3.31  0.  0.  0.
333  3.32  0.  0.  0.
334  3.33  0.  0.  0.
335  3.34  0.  0.  0.
336  3.35  0.  0.  0.
337  3.36  0.  0.  0.
338  3.37  0.  0.  0.
339  3.38  0.  0.  0.
340  3.39  0.  0.  0.
341  3.40  0.  0.  0.
342  3.41  0.  0.  0.
343  3.42  0.  0.  0.
344  3.43  0.  0.  0.
345  3.44  0.  0.  0.
346  3.45  0.  0.  0.
347  3.46  0.  0.  0.
348  3.47  0.  0.  0.
349  3.48  0.  0.  0.
350  3.49  0.  0.  0.
351  3.50  0.  0.  0.
352  3.51  0.  0.  0.
353  3.52  0.  0.  0.
354  3.53  0.  0.  0.
355  3.54  0.  0.  0.
356  3.55  0.  0.  0.
357  3.56  0.  0.  0.
358  3.57  0.  0.  0.
359  3.58  0.  0.  0.
360  3.59  0.  0.  0.
361  3.60  0.  0.  0.
362  3.61  0.  0.  0.
363  3.62  0.  0.  0.
364  3.63  0.  0.  0.
365  3.64  0.  0.  0.
366  3.65  0.  0.  0.
367  3.66  0.  0.  0.
368  3.67  0.  0.  0.
369  3.68  0.  0.  0.
370  3.69  0.  0.  0.
371  3.70  0.  0.  0.
372  3.71  0.  0.  0.
373  3.72  0.  0.  0.
374  3.73  0.  0.  0.
375  3.74  0.  0.  0.
376  3.75  0.  0.  0.
377  3.76  0.  0.  0.
378  3.77  0.  0.  0.
379  3.78  0.  0.  0.
380  3.79  0.  0.  0.
381  3.80  0.  0.  0.
382  3.81  0.  0.  0.
383  3.82  0.  0.  0.
384  3.83  0.  0.  0.
385  3.84  0.  0.  0.
386  3.85  0.  0.  0.
387  3.86  0.  0.  0.
388  3.87  0.  0.  0.
389  3.88  0.  0.  0.
390  3.89  0.  0.  0.
391  3.90  0.  0.  0.
392  3.91  0.  0.  0.
393  3.92  0.  0.  0.
394  3.93  0.  0.  0.
395  3.94  0.  0.  0.
396  3.95  0.  0.  0.
397  3.96  0.  0.  0.
398  3.97  0.  0.  0.
399  3.98  0.  0.  0.
400  3.99  0.  0.  0.
401  4.00  0.  0.  0.
402  4.01  0.  0.  0.
403  4.02  0.  0.  0.
404  4.03  0.  0.  0.
405  4.04  0.  0.  0.
406  4.05  0.  0.  0.
407  4.06  0.  0.  0.
408  4.07  0.  0.  0.
409  4.08  0.  0.  0.
410  4.09  0.  0.  0.
411  4.10  0.  0.  0.
412  4.11  0.  0.  0.
413  4.12  0.  0.  0.
414  4.13  0.  0.  0.
415  4.14  0.  0.  0.
416  4.15  0.  0.  0.
417  4.16  0.  0.  0.
418  4.17  0.  0.  0.
419  4.18  0.  0.  0.
420  4.19  0.  0.  0.
421  4.20  0.  0.  0.
422  4.21  0.  0.  0.
423  4.22  0.  0.  0.
424  4.23  0.  0.  0.
425  4.24  0.  0.  0.
426  4.25  0.  0.  0.
427  4.26  0.  0.  0.
428  4.27  0.  0.  0.
429  4.28  0.  0.  0.
430  4.29  0.  0.  0.
431  4.30  0.  0.  0.
432  4.31  0.  0.  0.
433  4.32  0.  0.  0.
434  4.33  0.  0.  0.
435  4.34  0.  0.  0.
436  4.35  0.  0.  0.
437  4.36  0.  0.  0.
438  4.37  0.  0.  0.
439  4.38  0.  0.  0.
440  4.39  0.  0.  0.
441  4.40  0.  0.  0.
442  4.41  0.  0.  0.
443  4.42  0.  0.  0.
444  4.43  0.  0.  0.
445  4.44  0.  0.  0.
446  4.45  0.  0.  0.
447  4.46  0.  0.  0.
448  4.47  0.  0.  0.
449  4.48  0.  0.  0.
450  4.49  0.  0.  0.
451  4.50  0.  0.  0.
452  4.51  0.  0.  0.
453  4.52  0.  0.  0.
454  4.53  0.  0.  0.
455  4.54  0.  0.  0.
456  4.55  0.  0.  0.
457  4.56  0.  0.  0.
458  4.57  0.  0.  0.
459  4.58  0.  0.  0.
460  4.59  0.  0.  0.
461  4.60  0.  0.  0.
462  4.61  0.  0.  0.
463  4.62  0.  0.  0.
464  4.63  0.  0.  0.
465  4.64  0.  0.  0.
466  4.65  0.  0.  0.
467  4.66  0.  0.  0.
468  4.67  0.  0.  0.
469  4.68  0.  0.  0.
470  4.69  0.  0.  0.
471  4.70  0.  0.  0.
472  4.71  0.  0.  0.
473  4.72  0.  0.  0.
474  4.73  0.  0.  0.
475  4.74  0.  0.  0.
476  4.75  0.  0.  0.
477  4.76  0.  0.  0.
478  4.77  0.  0.  0.
479  4.78  0.  0.  0.
480  4.79  0.  0.  0.
481  4.80  0.  0.  0.
482  4.81  0.  0.  0.
483  4.82  0.  0.  0.
484  4.83  0.  0.  0.
485  4.84  0.  0.  0.
486  4.85  0.  0.  0.
487  4.86  0.  0.  0.
488  4.87  0.  0.  0.
489  4.88  0.  0.  0.
490  4.89  0.  0.  0.
491  4.90  0.  0.  0.
492  4.91  0.  0.  0.
493  4.92  0.  0.  0.
494  4.93  0.  0.  0.
495  4.94  0.  0.  0.
496  4.95  0.  0.  0.
497  4.96  0.  0.  0.
498  4.97  0.  0.  0.
499  4.98  0.  0.  0.
500  4.99  0.  0.  0.
501  5.00  0.  0.  0.
502  5.01  0.  0.  0.
503  5.02  0.  0.  0.
504  5.03  0.  0.  0.
505  5.04  0.  0.  0.
506  5.05  0.  0.  0.
507  5.06  0.  0.  0.
508  5.07  0.  0.  0.
509  5.08  0.  0.  0.
510  5.09  0.  0.  0.
511  5.10  0.  0.  0.
512  5.11  0.  0.  0.
513  5.12  0.  0.  0.
514  5.13  0.  0.  0.
515  5.14  0.  0.  0.
516  5.15  0.  0.  0.
517  5.16  0.  0.  0.
518  5.17  0.  0.  0.
519  5.18  0.  0.  0.
520  5.19  0.  0.  0.
521  5.20  0.  0.  0.
522  5.21  0.  0.  0.
523  5.22  0.  0.  0.
524  5.23  0.  0.  0.
525  5.24  0.  0.  0.
526  5.25  0.  0.  0.
527  5.26  0.  0.  0.
528  5.27  0.  0.  0.
529  5.28  0.  0.  0.
530  5.29  0.  0.  0.
531  5.30  0.  0.  0.
532  5.31  0.  0.  0.
533  5.32  0.  0.  0.
534  5.33  0.  0.  0.
535  5.34  0.  0.  0.
536  5.35  0.  0.  0.
537  5.36  0.  0.  0.
538  5.37  0.  0.  0.
539  5.38  0.  0.  0.
540  5.39  0.  0.  0.
541  5.40  0.  0.  0.
542  5.41  0.  0.  0.
543  5.42  0.  0.  0.
544  5.43  0.  0.  0.
545  5.44  0.  0.  0.
546  5.45  0.  0.  0.
547  5.46  0.  0.  0.
548  5.47  0.  0.  0.
549  5.48  0.  0.  0.
550  5.49  0.  0.  0.
551  5.50  0.  0.  0.
552  5.51  0.  0.  0.
553  5.52  0.  0.  0.
554  5.53  0.  0.  0.
555  5.54  0.  0.  0.
556  5.55  0.  0.  0.
557  5.56  0.  0.  0.
558  5.57  0.  0.  0.
559  5.58  0.  0.  0.
560  5.59  0.  0.  0.
561  5.60  0.  0.  0.
562  5.61  0.  0.  0.
563  5.62  0.  0.  0.
564  5.63  0.  0.  0.
565  5.64  0.  0.  0.
566  5.65  0.  0.  0.
567  5.66  0.  0.  0.
568  5.67  0.  0.  0.
569  5.68  0.  0.  0.
570  5.69  0.  0.  0.
571  5.70  0.  0.  0.
572  5.71  0.  0.  0.
573  5.72  0.  0.  0.
574  5.73  0.  0.  0.
575  5.74  0.  0.  0.
576  5.75  0.  0.  0.
577  5.76  0.  0.  0.
578  5.77  0.  0.  0.
579  5.78  0.  0.  0.
580  5.79  0.  0.  0.
581  5.80  0.  0.  0.
582  5.81  0.  0.  0.
583  5.82  0.  0.  0.
584  5.83  0.  0.  0.
585  5.84  0.  0.  0.
586  5.85  0.  0.  0.
587  5.86  0.  0.  0.
588  5.87  0.  0.  0.
589  5.88  0.  0.  0.
590  5.89  0.  0.  0.
591  5.90  0.  0.  0.
592  5.91  0.  0.  0.
593  5.92  0.  0.  0.
594  5.93  0.  0.  0.
595  5.94  0.  0.  0.
596  5.95  0.  0.  0.
597  5.96  0.  0.  0.
598  5.97  0.  0.  0.
599  5.98  0.  0.  0.
600  5.99  0.  0.  0.
1                         1.5621085344067E+01 -2.7899840862432E+00
1  0.0000000000000E+00  3.1748480594507E-08  3.8948881900258E-07
2  1.0000000000000E-02  3.8654759168488E-03 -3.4160015631858E-03
3  2.0000000000000E-02  1.5425975987397E-02 -1.3697538431955E-02
4  3.0000000000000E-02  3.4574358278591E-02 -3.0939917211655E-02
5  4.0000000000000E-02  6.1134164340298E-02 -5.5284671961412E-02
6  5.0000000000000E-02  9.4862698110092E-02 -8.6894711593491E-02
7  6.0000000000000E-02  1.3545516446860E-01 -1.2592169131864E-01
8  7.0000000000000E-02  1.8254970601544E-01 -1.7246763501429E-01
9  8.0000000000000E-02  2.3573314488744E-01 -2.2654322488121E-01
10  9.0000000000000E-02  2.9454721445621E-01 -2.8802543530589E-01
11  1.0000000000000E-01  3.5849505462498E-01 -3.5661730475231E-01
12  1.1000000000000E-01  4.2704774474022E-01 -4.3181260534275E-01
13  1.2000000000000E-01  4.9965065980257E-01 -5.1286798481869E-01
14  1.3000000000000E-01  5.7572945807560E-01 -5.9878482778577E-01
15  1.4000000000000E-01  6.5469554016261E-01 -6.8830262789788E-01
16  1.5000000000000E-01  7.3595085946080E-01 -7.7990510192704E-01
17  1.6000000000000E-01  8.1889200949876E-01 -8.7183963810222E-01
18  1.7000000000000E-01  9.0291356258974E-01 -9.6214998653460E-01
19  1.8000000000000E-01  9.8741068386881E-01 -1.0487214035389E+00
20  1.9000000000000E-01  1.0717810924409E+00 -1.1293367897513E+00
21  2.0000000000000E-01  1.1554264844377E+00 -1.2017417489023E+00
22  2.1000000000000E-01  1.2377535688610E+00 -1.2637159721552E+00
23  2.2000000000000E-01  1.3181748941104E+00 -1.3131479501297E+00
24  2.3000000000000E-01  1.3961096594254E+00 -1.3481097535235E+00
25  2.4000000000000E-01  1.4709847100324E+00 -1.3669285192334E+00
26  2.5000000000000E-01  1.5422359070791E+00 -1.3682513399898E+00
27  2.6000000000000E-01  1.6093100436072E+00 -1.3511004814925E+00
28  2.7000000000000E-01  1.6716674466447E+00 -1.3149162333429E+00
29  2.8000000000000E-01  1.7287853643773E+00 -1.2595852221976E+00
30  2.9000000000000E-01  1.7801621882336E+00 -1.1854526537684E+00
31  3.0000000000000E-01  1.8253225049987E+00 -1.0933176746335E+00
32  3.1000000000000E-01  1.8638229165100E+00 -9.8441182060398E-01
33  3.2000000000000E-01  1.8952585070714E+00 -8.6036130780269E-01
34  3.3000000000000E-01  1.9192697844982E+00 -7.2313468659759E-01
35  3.4000000000000E-01  1.9355498726408E+00 -5.7497807867205E-01
36  3.5000000000000E-01  1.9438516940879E+00 -4.1834081802324E-01
37  3.6000000000000E-01  1.9439948538627E+00 -2.5579478616826E-01
38  3.7000000000000E-01  1.9358719201941E+00 -8.9951045012844E-02
39  3.8000000000000E-01  1.9194537980982E+00  7.6622490169111E-02
40  3.9000000000000E-01  1.8947939061411E+00  2.4147863979233E-01
41  4.0000000000000E-01  1.8620308961987E+00  4.0236034171913E-01
42  4.1000000000000E-01  1.8213896993945E+00  5.5725875992238E-01
43  4.2000000000000E-01  1.7731807370692E+00  7.0445761494081E-01
44  4.3000000000000E-01  1.7177972013516E+00  8.4256192276955E-01
45  4.4000000000000E-01  1.6557103828386E+00  9.7051011851519E-01
46  4.5000000000000E-01  1.5874630998106E+00  1.0875693901124E+00
47  4.6000000000000E-01  1.5136613607637E+00  1.1933149133290E+00
48  4.7000000000000E-01  1.4349644662028E+00  1.2875945182567E+00
49  4.8000000000000E-01  1.3520738230085E+00  1.3704810861488E+00
50  4.9000000000000E-01  1.2657208019420E+00  1.4422156332603E+00
51  5.0000000000000E-01  1.1766540130299E+00  1.5031445495937E+00
52  5.1000000000000E-01  1.0856264023106E+00  1.5536547962364E+00
53  5.2000000000000E-01  9.9338258503775E-01  1.5941110047859E+00
54  5.3000000000000E-01  9.0064682401741E-01  1.6247983552412E+00
55  5.4000000000000E-01  8.0811203725457E-01  1.6458748340985E+00
56  5.5000000000000E-01  7.1643017731407E-01  1.6573360021894E+00
57  5.6000000000000E-01  6.2620426741621E-01  1.6589947523325E+00
58  5.7000000000000E-01  5.3798230873028E-01  1.6504777398863E+00
59  5.8000000000000E-01  4.5225319271583E-01  1.6312392627653E+00
60  5.9000000000000E-01  3.6944466534801E-01  1.6005923958291E+00
61  6.0000000000000E-01  2.8992330067722E-01  1.5577561965380E+00
62  6.1000000000000E-01  2.1399635362234E-01  1.5019168451544E+00
63  6.2000000000000E-01  1.4191528037001E-01  1.4322997137863E+00
64  6.3000000000000E-01  7.3880643212874E-02  1.3482486213935E+00
65  6.4000000000000E-01  1.0048058649101E-02  1.2493079681703E+00
66  6.5000000000000E-01 -4.9465193976388E-02  1.1353030864355E+00
67  6.6000000000000E-01 -1.0457330889694E-01  1.0064140206618E+00
68  6.7000000000000E-01 -1.5521524394632E-01  8.6323806989672E-01
69  6.8000000000000E-01 -2.0134855530949E-01  7.0683679294642E-01
70  6.9000000000000E-01 -2.4294413103256E-01  5.3876377948341E-01
71  7.0000000000000E-01 -2.7998212212212E-01  3.6107030569492E-01
72  7.1000000000000E-01 -3.1244929925390E-01  1.7628698732843E-01
73  7.2000000000000E-01 -3.4033798000601E-01 -1.2619327965448E-02
74  7.3000000000000E-01 -3.6364658007055E-01 -2.0231297463990E-01
75  7.4000000000000E-01 -3.8238174650777E-01 -3.8917949651169E-01
76  7.5000000000000E-01 -3.9656193648118E-01 -5.6943538905567E-01
77  7.6000000000000E-01 -4.0622221576206E-01 -7.3925354665738E-01
78  7.7000000000000E-01 -4.1141997218533E-01 -8.9489944335029E-01
79  7.8000000000000E-01 -4.1224117430967E-01 -1.0328723158226E+00
80  7.9000000000000E-01 -4.0880675833736E-01 -1.1500451026615E+00
81  8.0000000000000E-01 -4.0127869965527E-01 -1.2437966567918E+00
82  8.1000000000000E-01 -3.8986532103772E-01 -1.3121298098331E+00
83  8.2000000000000E-01 -3.7482540846412E-01 -1.3537692354383E+00
84  8.3000000000000E-01 -3.5647074746620E-01 -1.3682337278289E+00
85  8.4000000000000E-01 -3.3516675670022E-01 -1.3558784624581E+00
86  8.5000000000000E-01 -3.1133097881836E-01 -1.3179040060354E+00
87  8.6000000000000E-01 -2.8542928857848E-01 -1.2563302497587E+00
88  8.7000000000000E-01 -2.5796979062348E-01 -1.1739349997756E+00
89  8.8000000000000E-01 -2.2949450005046E-01 -1.0741586128575E+00
90  8.9000000000000E-01 -2.0056902298035E-01 -9.6097774881969E-01
91  9.0000000000000E-01 -1.7177057688899E-01 -8.3875295870552E-01
92  9.1000000000000E-01 -1.4367480661029E-01 -7.1205637498344E-01
93  9.2000000000000E-01 -1.1684195711415E-01 -5.8548715721466E-01
94  9.3000000000000E-01 -9.1803054351437E-02 -4.6348352120066E-01
95  9.4000000000000E-01 -6.9046806691089E-02 -3.5014064376657E-01
96  9.5000000000000E-01 -4.9008073807584E-02 -2.4904744486302E-01
97  9.6000000000000E-01 -3.2046983665466E-02 -1.6273157897581E-01
98  9.7000000000000E-01 -1.8457669312060E-02 -9.3220111341585E-02
99  9.8000000000000E-01 -8.4834303354947E-03 -4.2428838667096E-02
100  9.9000000000000E-01 -2.2934637451465E-03 -1.1314109475320E-02
101  1.0000000000000E+00 -3.3256697919614E-05 -1.6109135348611E-04
102  1.0100000000000E+00 -1.0231268780303E-05 -4.9716068683678E-05
103  1.0200000000000E+00 -3.9181489074750E-11 -3.0539381634199E-11
104  1.03  0.  0.
105  1.04  0.  0.
106  1.05  0.  0.
107  1.06  0.  0.
108  1.07  0.  0.
109  1.08  0.  0.
110  1.09  0.  0.
111  1.10  0.  0.
112  1.11  0.  0.
113  1.12  0.  0.
114  1.13  0.  0.
115  1.14  0.  0.
116  1.15  0.  0.
117  1.16  0.  0.
118  1.17  0.  0.
119  1.18  0.  0.
120  1.19  0.  0.
121  1.20  0.  0.
122  1.21  0.  0.
123  1.22  0.  0.
124  1.23  0.  0.
125  1.24  0.  0.
126  1.25  0.  0.
127  1.26  0.  0.
128  1.27  0.  0.
129  1.28  0.  0.
130  1.29  0.  0.
131  1.30  0.  0.
132  1.31  0.  0.
133  1.32  0.  0.
134  1.33  0.  0.
135  1.34  0.  0.
136  1.35  0.  0.
137  1.36  0.  0.
138  1.37  0.  0.
139  1.38  0.  0.
140  1.39  0.  0.
141  1.40  0.  0.
142  1.41  0.  0.
143  1.42  0.  0.
144  1.43  0.  0.
145  1.44  0.  0.
146  1.45  0.  0.
147  1.46  0.  0.
148  1.47  0.  0.
149  1.48  0.  0.
150  1.49  0.  0.
151  1.50  0.  0.
152  1.51  0.  0.
153  1.52  0.  0.
154  1.53  0.  0.
155  1.54  0.  0.
156  1.55  0.  0.
157  1.56  0.  0.
158  1.57  0.  0.
159  1.58  0.  0.
160  1.59  0.  0.
161  1.60  0.  0.
162  1.61  0.  0.
163  1.62  0.  0.
164  1.63  0.  0.
165  1.64  0.  0.
166  1.65  0.  0.
167  1.66  0.  0.
168  1.67  0.  0.
169  1.68  0.  0.
170  1.69  0.  0.
171  1.70  0.  0.
172  1.71  0.  0.
173  1.72  0.  0.
174  1.73  0.  0.
175  1.74  0.  0.
176  1.75  0.  0.
177  1.76  0.  0.
178  1.77  0.  0.
179  1.78  0.  0.
180  1.79  0.  0.
181  1.80  0.  0.
182  1.81  0.  0.
183  1.82  0.  0.
184  1.83  0.  0.
185  1.84  0.  0.
186  1.85  0.  0.
187  1.86  0.  0.
188  1.87  0.  0.
189  1.88  0.  0.
190  1.89  0.  0.
191  1.90  0.  0.
192  1.91  0.  0.
193  1.92  0.  0.
194  1.93  0.  0.
195  1.94  0.  0.
196  1.95  0.  0.
197  1.96  0.  0.
198  1.97  0.  0.
199  1.98  0.  0.
200  1.99  0.  0.
201  2.00  0.  0.
202  2.01  0.  0.
203  2.02  0.  0.
204  2.03  0.  0.
205  2.04  0.  0.
206  2.05  0.  0.
207  2.06  0.  0.
208  2.07  0.  0.
209  2.08  0.  0.
210  2.09  0.  0.
211  2.10  0.  0.
212  2.11  0.  0.
213  2.12  0.  0.
214  2.13  0.  0.
215  2.14  0.  0.
216  2.15  0.  0.
217  2.16  0.  0.
218  2.17  0.  0.
219  2.18  0.  0.
220  2.19  0.  0.
221  2.20  0.  0.
222  2.21  0.  0.
223  2.22  0.  0.
224  2.23  0.  0.