Am    ONCVPSP-4.0.1  r_core=   1.10131   1.00079   1.00079   1.10131
95.0000     35.0000      231012    zatom,zion,pspd
8 -116133   3     4   600     0    pspcod,pspxc,lmax,lloc,mmax,r2well
5.99000000  3.50000000  0.00000000    rchrg fchrg qchrg
3     3     3     2    nproj
3     1           extension_switch
3     4     4    nprojso
0                         4.9209061300233E+01  3.7660587411180E+00 -3.0031263521096E-01
1  0.0000000000000E+00 -5.9485887327071E-08  2.4921884789197E-07  3.1857547019842E-07
2  1.0000000000000E-02  1.5370177530466E-01 -7.8722166896057E-02  8.6366588703698E-03
3  2.0000000000000E-02  3.0644503243850E-01 -1.5594621943315E-01  1.8075840915007E-02
4  3.0000000000000E-02  4.5728320617771E-01 -2.3021249412740E-01  2.9074510327322E-02
5  4.0000000000000E-02  6.0529326486019E-01 -3.0013668831893E-01  4.2300574751860E-02
6  5.0000000000000E-02  7.4958656310355E-01 -3.6444375835333E-01  5.8293421620153E-02
7  6.0000000000000E-02  8.8931864381832E-01 -4.2199747213092E-01  7.7430286840545E-02
8  7.0000000000000E-02  1.0236977139289E+00 -4.7182447976831E-01  9.9900002595742E-02
9  8.0000000000000E-02  1.1519915777007E+00 -5.1313201533541E-01  1.2568535242635E-01
10  9.0000000000000E-02  1.2735328805490E+00 -5.4531863206538E-01  1.5455488996830E-01
11  1.0000000000000E-01  1.3877225914493E+00 -5.6797768981114E-01  1.8606466861896E-01
12  1.1000000000000E-01  1.4940317300553E+00 -5.8089364234297E-01  2.1956990053425E-01
13  1.2000000000000E-01  1.5920014216880E+00 -5.8403149818534E-01  2.5424613312940E-01
14  1.3000000000000E-01  1.6812414358572E+00 -5.7752013704576E-01  2.8911911808511E-01
15  1.4000000000000E-01  1.7614274284572E+00 -5.6163044016625E-01  3.2310216949934E-01
16  1.5000000000000E-01  1.8322971611638E+00 -5.3674942425264E-01  3.5503948048693E-01
17  1.6000000000000E-01  1.8936460112533E+00 -5.0335174409853E-01  3.8375360527325E-01
18  1.7000000000000E-01  1.9453221091017E+00 -4.6197004023528E-01  4.0809512790964E-01
19  1.8000000000000E-01  1.9872214477577E+00 -4.1316564942536E-01  4.2699243712272E-01
20  1.9000000000000E-01  2.0192832987511E+00 -3.5750116524484E-01  4.3949951386555E-01
21  2.0000000000000E-01  2.0414862410456E+00 -2.9551623435999E-01  4.4483971439642E-01
22  2.1000000000000E-01  2.0538450669292E+00 -2.2770780565633E-01  4.4244369386263E-01
23  2.2000000000000E-01  2.0564087715626E+00 -1.5451582149652E-01  4.3197985640970E-01
24  2.3000000000000E-01  2.0492597644739E+00 -7.6315063231097E-02  4.1337602737592E-01
25  2.4000000000000E-01  2.0325143646588E+00  6.5864507722873E-03  3.8683140777946E-01
26  2.5000000000000E-01  2.0063245597120E+00  9.3942452543569E-02  3.5281827534900E-01
27  2.6000000000000E-01  1.9708809274457E+00  1.8555707837643E-01  3.1207332234160E-01
28  2.7000000000000E-01  1.9264165397085E+00  2.8126780398083E-01  2.6557894995596E-01
29  2.8000000000000E-01  1.8732115964789E+00  3.8092358459857E-01  2.1453525380137E-01
30  2.9000000000000E-01  1.8115984774015E+00  4.8435939273705E-01  1.6032381673614E-01
31  3.0000000000000E-01  1.7419668509310E+00  5.9136856216070E-01  1.0446475811671E-01
32  3.1000000000000E-01  1.6647684507638E+00  7.0167449878562E-01  4.8568757822214E-02
33  3.2000000000000E-01  1.5805211171541E+00  8.1490339904719E-01 -5.7140320564176E-03
34  3.3000000000000E-01  1.4898117080944E+00  9.3055961921583E-01 -5.6746163354232E-02
35  3.4000000000000E-01  1.3932975124094E+00  1.0480052635015E+00 -1.0295410709329E-01
36  3.5000000000000E-01  1.2917058428496E+00  1.1664454067567E+00 -1.4287652292425E-01
37  3.6000000000000E-01  1.1858315507115E+00  1.2849201447172E+00 -1.7520774631982E-01
38  3.7000000000000E-01  1.0765322819304E+00  1.4023043800072E+00 -1.9883488325541E-01
39  3.8000000000000E-01  9.6472138486166E-01  1.5173159174168E+00 -2.1286719553766E-01
40  3.9000000000000E-01  8.5135847833281E-01  1.6285320716334E+00 -2.1665680717202E-01
41  4.0000000000000E-01  7.3743779082237E-01  1.7344146008581E+00 -2.0981014741052E-01
42  4.1000000000000E-01  6.2397448334409E-01  1.8333423879044E+00 -1.9218995197714E-01
43  4.2000000000000E-01  5.1198926526327E-01  1.9236509141728E+00 -1.6390805209496E-01
44  4.3000000000000E-01  4.0249169943973E-01  2.0036772286213E+00 -1.2530957297892E-01
45  4.4000000000000E-01  2.9646266672816E-01  2.0718088195460E+00 -7.6949521886616E-02
46  4.5000000000000E-01  1.9483651640299E-01  2.1265345658340E+00 -1.9563054581468E-02
47  4.6000000000000E-01  9.8483465661906E-02  2.1664957878072E+00  4.5969045432674E-02
48  4.7000000000000E-01  8.1928259435765E-03  2.1905353442159E+00  1.1865796907702E-01
49  4.8000000000000E-01 -7.5342374744754E-02  2.1977427361190E+00  1.9744576926459E-01
50  4.9000000000000E-01 -1.5153883609123E-01  2.1874932812252E+00  2.8124373254098E-01
51  5.0000000000000E-01 -2.1993401311633E-01  2.1594796107539E+00  3.6896851256013E-01
52  5.1000000000000E-01 -2.8019431866402E-01  2.1137340081275E+00  4.5957446230860E-01
53  5.2000000000000E-01 -3.3212018469242E-01  2.0506404444485E+00  5.5208083320557E-01
54  5.3000000000000E-01 -3.7564777294750E-01  1.9709355560791E+00  6.4559280099419E-01
55  5.4000000000000E-01 -4.1084724220587E-01  1.8756982386293E+00  7.3931561652875E-01
56  5.5000000000000E-01 -4.3791760112917E-01  1.7663279811836E+00  8.3256154770514E-01
57  5.6000000000000E-01 -4.5717829791042E-01  1.6445125155173E+00  9.2474965906998E-01
58  5.7000000000000E-01 -4.6905781528623E-01  1.5121857880115E+00  1.0153988497138E+00
59  5.8000000000000E-01 -4.7407964726017E-01  1.3714776581526E+00  1.1041149197626E+00
60  5.9000000000000E-01 -4.7284612754913E-01  1.2246570696163E+00  1.1905727441891E+00
61  6.0000000000000E-01 -4.6602065540526E-01  1.0740707128830E+00  1.2744948847239E+00
62  6.1000000000000E-01 -4.5430891892055E-01  9.2207938996348E-01  1.3556281539599E+00
63  6.2000000000000E-01 -4.3843974690909E-01  7.7099439342794E-01  1.4337197511408E+00
64  6.3000000000000E-01 -4.1914622670950E-01  6.2301621873111E-01  1.5084946111269E+00
65  6.4000000000000E-01 -3.9714770651772E-01  4.8017784008124E-01  1.5796355450498E+00
66  6.5000000000000E-01 -3.7313325798012E-01  3.4429459923966E-01  1.6467676056705E+00
67  6.6000000000000E-01 -3.4774710959438E-01  2.1692249106276E-01  1.7094478888004E+00
68  6.7000000000000E-01 -3.2157647676844E-01  9.9326290379786E-02  1.7671616943166E+00
69  6.8000000000000E-01 -2.9514211377177E-01 -7.5414338423944E-03  1.8193256294468E+00
70  6.9000000000000E-01 -2.6889180052158E-01 -1.0304981242770E-01  1.8652978588246E+00
71  7.0000000000000E-01 -2.4319685789305E-01 -1.8688753885856E-01  1.9043953079050E+00
72  7.1000000000000E-01 -2.1835166396288E-01 -2.5904943213799E-01  1.9359172272151E+00
73  7.2000000000000E-01 -1.9457602529473E-01 -3.1981248601697E-01  1.9591741434918E+00
74  7.3000000000000E-01 -1.7202014682679E-01 -3.6970261269418E-01  1.9735208780981E+00
75  7.4000000000000E-01 -1.5077184554266E-01 -4.0945365999863E-01  1.9783920200068E+00
76  7.5000000000000E-01 -1.3086557072226E-01 -4.3996058624106E-01  1.9733380146793E+00
77  7.6000000000000E-01 -1.1229273026661E-01 -4.6222890440856E-01  1.9580598831559E+00
78  7.7000000000000E-01 -9.5012780643800E-02 -4.7732264843772E-01  1.9324405263540E+00
79  7.8000000000000E-01 -7.8964518745633E-02 -4.8631316392483E-01  1.8965706031132E+00
80  7.9000000000000E-01 -6.4077017793987E-02 -4.9023098242119E-01  1.8507670986351E+00
81  8.0000000000000E-01 -5.0279675905403E-02 -4.9002290458446E-01  1.7955829209407E+00
82  8.1000000000000E-01 -3.7510893683429E-02 -4.8651619840650E-01  1.7318061719087E+00
83  8.2000000000000E-01 -2.5724964236308E-02 -4.8039152272654E-01  1.6604481289017E+00
84  8.3000000000000E-01 -1.4896842725976E-02 -4.7216582368076E-01  1.5827194334022E+00
85  8.4000000000000E-01 -5.0245600001996E-03 -4.6218603442842E-01  1.4999945036733E+00
86  8.5000000000000E-01  3.8708470489035E-03 -4.5063394877405E-01  1.4137647580507E+00
87  8.6000000000000E-01  1.1747900032990E-02 -4.3754214917123E-01  1.3255818433126E+00
88  8.7000000000000E-01  1.8549629501407E-02 -4.2282035976831E-01  1.2369926993528E+00
89  8.8000000000000E-01  2.4210678830104E-02 -4.0629107423325E-01  1.1494689499949E+00
90  8.9000000000000E-01  2.8666204393115E-02 -3.8773278165548E-01  1.0643337862824E+00
91  9.0000000000000E-01  3.1862089284845E-02 -3.6692858381241E-01  9.8269020271093E-01
92  9.1000000000000E-01  3.3765860910992E-02 -3.4371746110720E-01  9.0535516284416E-01
93  9.2000000000000E-01  3.4377572677194E-02 -3.1804489546140E-01  8.3280501749606E-01
94  9.3000000000000E-01  3.3739773754151E-02 -2.9000898423101E-01  7.6513829023716E-01
95  9.4000000000000E-01  3.1945544195833E-02 -2.5989756262805E-01  7.0206280047800E-01
96  9.5000000000000E-01  2.9143409953618E-02 -2.2821117087738E-01  6.4291503801636E-01
97  9.6000000000000E-01  2.5537766734865E-02 -1.9566592917181E-01  5.8672076386595E-01
98  9.7000000000000E-01  2.1383225321513E-02 -1.6316948703066E-01  5.3230702351787E-01
99  9.8000000000000E-01  1.6971034834163E-02 -1.3176215784949E-01  4.7847715842212E-01
100  9.9000000000000E-01  1.2605428746419E-02 -1.0251406666010E-01  4.2426211347220E-01
101  1.0000000000000E+00  8.5674409434608E-03 -7.6367972944288E-02  3.6926228127582E-01
102  1.0100000000000E+00  5.0668566130319E-03 -5.3932836374721E-02  3.1404466263607E-01
103  1.0200000000000E+00  2.2353199311997E-03 -3.5482760747290E-02  2.5985580414200E-01
104  1.0300000000000E+00  1.5743538218040E-04 -2.1131175901665E-02  2.0792654324314E-01
105  1.0400000000000E+00 -1.1322535872201E-03 -1.0831722994715E-02  1.5940020811608E-01
106  1.0500000000000E+00 -1.6884508864672E-03 -4.2384959191549E-03  1.1540073689211E-01
107  1.0600000000000E+00 -1.8385284291637E-03 -3.2607281532604E-05  7.7322773933777E-02
108  1.0700000000000E+00 -1.6016351214186E-03  1.9428420351713E-03  4.5956162746439E-02
109  1.0800000000000E+00 -1.0473961110520E-03  1.9884805928125E-03  2.2041778669258E-02
110  1.0900000000000E+00 -3.9358569079503E-04  9.1060865553192E-04  6.4111920164922E-03
111  1.1000000000000E+00 -1.3727543767245E-05  3.5663589313303E-05  1.7778012331001E-04
112  1.1100000000000E+00 -2.2756106170465E-06  5.8373781373020E-06  3.0386978236004E-05
113  1.1200000000000E+00  2.0913719465744E-07 -5.1478406579569E-07 -3.0454965863619E-06
114  1.13  0.  0.  0.
115  1.14  0.  0.  0.
116  1.15  0.  0.  0.
117  1.16  0.  0.  0.
118  1.17  0.  0.  0.
119  1.18  0.  0.  0.
120  1.19  0.  0.  0.
121  1.20  0.  0.  0.
122  1.21  0.  0.  0.
123  1.22  0.  0.  0.
124  1.23  0.  0.  0.
125  1.24  0.  0.  0.
126  1.25  0.  0.  0.
127  1.26  0.  0.  0.
128  1.27  0.  0.  0.
129  1.28  0.  0.  0.
130  1.29  0.  0.  0.
131  1.30  0.  0.  0.
132  1.31  0.  0.  0.
133  1.32  0.  0.  0.
134  1.33  0.  0.  0.
135  1.34  0.  0.  0.
136  1.35  0.  0.  0.
137  1.36  0.  0.  0.
138  1.37  0.  0.  0.
139  1.38  0.  0.  0.
140  1.39  0.  0.  0.
141  1.40  0.  0.  0.
142  1.41  0.  0.  0.
143  1.42  0.  0.  0.
144  1.43  0.  0.  0.
145  1.44  0.  0.  0.
146  1.45  0.  0.  0.
147  1.46  0.  0.  0.
148  1.47  0.  0.  0.
149  1.48  0.  0.  0.
150  1.49  0.  0.  0.
151  1.50  0.  0.  0.
152  1.51  0.  0.  0.
153  1.52  0.  0.  0.
154  1.53  0.  0.  0.
155  1.54  0.  0.  0.
156  1.55  0.  0.  0.
157  1.56  0.  0.  0.
158  1.57  0.  0.  0.
159  1.58  0.  0.  0.
160  1.59  0.  0.  0.
161  1.60  0.  0.  0.
162  1.61  0.  0.  0.
163  1.62  0.  0.  0.
164  1.63  0.  0.  0.
165  1.64  0.  0.  0.
166  1.65  0.  0.  0.
167  1.66  0.  0.  0.
168  1.67  0.  0.  0.
169  1.68  0.  0.  0.
170  1.69  0.  0.  0.
171  1.70  0.  0.  0.
172  1.71  0.  0.  0.
173  1.72  0.  0.  0.
174  1.73  0.  0.  0.
175  1.74  0.  0.  0.
176  1.75  0.  0.  0.
177  1.76  0.  0.  0.
178  1.77  0.  0.  0.
179  1.78  0.  0.  0.
180  1.79  0.  0.  0.
181  1.80  0.  0.  0.
182  1.81  0.  0.  0.
183  1.82  0.  0.  0.
184  1.83  0.  0.  0.
185  1.84  0.  0.  0.
186  1.85  0.  0.  0.
187  1.86  0.  0.  0.
188  1.87  0.  0.  0.
189  1.88  0.  0.  0.
190  1.89  0.  0.  0.
191  1.90  0.  0.  0.
192  1.91  0.  0.  0.
193  1.92  0.  0.  0.
194  1.93  0.  0.  0.
195  1.94  0.  0.  0.
196  1.95  0.  0.  0.
197  1.96  0.  0.  0.
198  1.97  0.  0.  0.
199  1.98  0.  0.  0.
200  1.99  0.  0.  0.
201  2.00  0.  0.  0.
202  2.01  0.  0.  0.
203  2.02  0.  0.  0.
204  2.03  0.  0.  0.
205  2.04  0.  0.  0.
206  2.05  0.  0.  0.
207  2.06  0.  0.  0.
208  2.07  0.  0.  0.
209  2.08  0.  0.  0.
210  2.09  0.  0.  0.
211  2.10  0.  0.  0.
212  2.11  0.  0.  0.
213  2.12  0.  0.  0.
214  2.13  0.  0.  0.
215  2.14  0.  0.  0.
216  2.15  0.  0.  0.
217  2.16  0.  0.  0.
218  2.17  0.  0.  0.
219  2.18  0.  0.  0.
220  2.19  0.  0.  0.
221  2.20  0.  0.  0.
222  2.21  0.  0.  0.
223  2.22  0.  0.  0.
224  2.23  0.  0.  0.
225  2.24  0.  0.  0.
226  2.25  0.  0.  0.
227  2.26  0.  0.  0.
228  2.27  0.  0.  0.
229  2.28  0.  0.  0.
230  2.29  0.  0.  0.
231  2.30  0.  0.  0.
232  2.31  0.  0.  0.
233  2.32  0.  0.  0.
234  2.33  0.  0.  0.
235  2.34  0.  0.  0.
236  2.35  0.  0.  0.
237  2.36  0.  0.  0.
238  2.37  0.  0.  0.
239  2.38  0.  0.  0.
240  2.39  0.  0.  0.
241  2.40  0.  0.  0.
242  2.41  0.  0.  0.
243  2.42  0.  0.  0.
244  2.43  0.  0.  0.
245  2.44  0.  0.  0.
246  2.45  0.  0.  0.
247  2.46  0.  0.  0.
248  2.47  0.  0.  0.
249  2.48  0.  0.  0.
250  2.49  0.  0.  0.
251  2.50  0.  0.  0.
252  2.51  0.  0.  0.
253  2.52  0.  0.  0.
254  2.53  0.  0.  0.
255  2.54  0.  0.  0.
256  2.55  0.  0.  0.
257  2.56  0.  0.  0.
258  2.57  0.  0.  0.
259  2.58  0.  0.  0.
260  2.59  0.  0.  0.
261  2.60  0.  0.  0.
262  2.61  0.  0.  0.
263  2.62  0.  0.  0.
264  2.63  0.  0.  0.
265  2.64  0.  0.  0.
266  2.65  0.  0.  0.
267  2.66  0.  0.  0.
268  2.67  0.  0.  0.
269  2.68  0.  0.  0.
270  2.69  0.  0.  0.
271  2.70  0.  0.  0.
272  2.71  0.  0.  0.
273  2.72  0.  0.  0.
274  2.73  0.  0.  0.
275  2.74  0.  0.  0.
276  2.75  0.  0.  0.
277  2.76  0.  0.  0.
278  2.77  0.  0.  0.
279  2.78  0.  0.  0.
280  2.79  0.  0.  0.
281  2.80  0.  0.  0.
282  2.81  0.  0.  0.
283  2.82  0.  0.  0.
284  2.83  0.  0.  0.
285  2.84  0.  0.  0.
286  2.85  0.  0.  0.
287  2.86  0.  0.  0.
288  2.87  0.  0.  0.
289  2.88  0.  0.  0.
290  2.89  0.  0.  0.
291  2.90  0.  0.  0.
292  2.91  0.  0.  0.
293  2.92  0.  0.  0.
294  2.93  0.  0.  0.
295  2.94  0.  0.  0.
296  2.95  0.  0.  0.
297  2.96  0.  0.  0.
298  2.97  0.  0.  0.
299  2.98  0.  0.  0.
300  2.99  0.  0.  0.
301  3.00  0.  0.  0.
302  3.01  0.  0.  0.
303  3.02  0.  0.  0.
304  3.03  0.  0.  0.
305  3.04  0.  0.  0.
306  3.05  0.  0.  0.
307  3.06  0.  0.  0.
308  3.07  0.  0.  0.
309  3.08  0.  0.  0.
310  3.09  0.  0.  0.
311  3.10  0.  0.  0.
312  3.11  0.  0.  0.
313  3.12  0.  0.  0.
314  3.13  0.  0.  0.
315  3.14  0.  0.  0.
316  3.15  0.  0.  0.
317  3.16  0.  0.  0.
318  3.17  0.  0.  0.
319  3.18  0.  0.  0.
320  3.19  0.  0.  0.
321  3.20  0.  0.  0.
322  3.21  0.  0.  0.
323  3.22  0.  0.  0.
324  3.23  0.  0.  0.
325  3.24  0.  0.  0.
326  3.25  0.  0.  0.
327  3.26  0.  0.  0.
328  3.27  0.  0.  0.
329  3.28  0.  0.  0.
330  3.29  0.  0.  0.
331  3.30  0.  0.  0.
332  3.31  0.  0.  0.
333  3.32  0.  0.  0.
334  3.33  0.  0.  0.
335  3.34  0.  0.  0.
336  3.35  0.  0.  0.
337  3.36  0.  0.  0.
338  3.37  0.  0.  0.
339  3.38  0.  0.  0.
340  3.39  0.  0.  0.
341  3.40  0.  0.  0.
342  3.41  0.  0.  0.
343  3.42  0.  0.  0.
344  3.43  0.  0.  0.
345  3.44  0.  0.  0.
346  3.45  0.  0.  0.
347  3.46  0.  0.  0.
348  3.47  0.  0.  0.
349  3.48  0.  0.  0.
350  3.49  0.  0.  0.
351  3.50  0.  0.  0.
352  3.51  0.  0.  0.
353  3.52  0.  0.  0.
354  3.53  0.  0.  0.
355  3.54  0.  0.  0.
356  3.55  0.  0.  0.
357  3.56  0.  0.  0.
358  3.57  0.  0.  0.
359  3.58  0.  0.  0.
360  3.59  0.  0.  0.
361  3.60  0.  0.  0.
362  3.61  0.  0.  0.
363  3.62  0.  0.  0.
364  3.63  0.  0.  0.
365  3.64  0.  0.  0.
366  3.65  0.  0.  0.
367  3.66  0.  0.  0.
368  3.67  0.  0.  0.
369  3.68  0.  0.  0.
370  3.69  0.  0.  0.
371  3.70  0.  0.  0.
372  3.71  0.  0.  0.
373  3.72  0.  0.  0.
374  3.73  0.  0.  0.
375  3.74  0.  0.  0.
376  3.75  0.  0.  0.
377  3.76  0.  0.  0.
378  3.77  0.  0.  0.
379  3.78  0.  0.  0.
380  3.79  0.  0.  0.
381  3.80  0.  0.  0.
382  3.81  0.  0.  0.
383  3.82  0.  0.  0.
384  3.83  0.  0.  0.
385  3.84  0.  0.  0.
386  3.85  0.  0.  0.
387  3.86  0.  0.  0.
388  3.87  0.  0.  0.
389  3.88  0.  0.  0.
390  3.89  0.  0.  0.
391  3.90  0.  0.  0.
392  3.91  0.  0.  0.
393  3.92  0.  0.  0.
394  3.93  0.  0.  0.
395  3.94  0.  0.  0.
396  3.95  0.  0.  0.
397  3.96  0.  0.  0.
398  3.97  0.  0.  0.
399  3.98  0.  0.  0.
400  3.99  0.  0.  0.
401  4.00  0.  0.  0.
402  4.01  0.  0.  0.
403  4.02  0.  0.  0.
404  4.03  0.  0.  0.
405  4.04  0.  0.  0.
406  4.05  0.  0.  0.
407  4.06  0.  0.  0.
408  4.07  0.  0.  0.
409  4.08  0.  0.  0.
410  4.09  0.  0.  0.
411  4.10  0.  0.  0.
412  4.11  0.  0.  0.
413  4.12  0.  0.  0.
414  4.13  0.  0.  0.
415  4.14  0.  0.  0.
416  4.15  0.  0.  0.
417  4.16  0.  0.  0.
418  4.17  0.  0.  0.
419  4.18  0.  0.  0.
420  4.19  0.  0.  0.
421  4.20  0.  0.  0.
422  4.21  0.  0.  0.
423  4.22  0.  0.  0.
424  4.23  0.  0.  0.
425  4.24  0.  0.  0.
426  4.25  0.  0.  0.
427  4.26  0.  0.  0.
428  4.27  0.  0.  0.
429  4.28  0.  0.  0.
430  4.29  0.  0.  0.
431  4.30  0.  0.  0.
432  4.31  0.  0.  0.
433  4.32  0.  0.  0.
434  4.33  0.  0.  0.
435  4.34  0.  0.  0.
436  4.35  0.  0.  0.
437  4.36  0.  0.  0.
438  4.37  0.  0.  0.
439  4.38  0.  0.  0.
440  4.39  0.  0.  0.
441  4.40  0.  0.  0.
442  4.41  0.  0.  0.
443  4.42  0.  0.  0.
444  4.43  0.  0.  0.
445  4.44  0.  0.  0.
446  4.45  0.  0.  0.
447  4.46  0.  0.  0.
448  4.47  0.  0.  0.
449  4.48  0.  0.  0.
450  4.49  0.  0.  0.
451  4.50  0.  0.  0.
452  4.51  0.  0.  0.
453  4.52  0.  0.  0.
454  4.53  0.  0.  0.
455  4.54  0.  0.  0.
456  4.55  0.  0.  0.
457  4.56  0.  0.  0.
458  4.57  0.  0.  0.
459  4.58  0.  0.  0.
460  4.59  0.  0.  0.
461  4.60  0.  0.  0.
462  4.61  0.  0.  0.
463  4.62  0.  0.  0.
464  4.63  0.  0.  0.
465  4.64  0.  0.  0.
466  4.65  0.  0.  0.
467  4.66  0.  0.  0.
468  4.67  0.  0.  0.
469  4.68  0.  0.  0.
470  4.69  0.  0.  0.
471  4.70  0.  0.  0.
472  4.71  0.  0.  0.
473  4.72  0.  0.  0.
474  4.73  0.  0.  0.
475  4.74  0.  0.  0.
476  4.75  0.  0.  0.
477  4.76  0.  0.  0.
478  4.77  0.  0.  0.
479  4.78  0.  0.  0.
480  4.79  0.  0.  0.
481  4.80  0.  0.  0.
482  4.81  0.  0.  0.
483  4.82  0.  0.  0.
484  4.83  0.  0.  0.
485  4.84  0.  0.  0.
486  4.85  0.  0.  0.
487  4.86  0.  0.  0.
488  4.87  0.  0.  0.
489  4.88  0.  0.  0.
490  4.89  0.  0.  0.
491  4.90  0.  0.  0.
492  4.91  0.  0.  0.
493  4.92  0.  0.  0.
494  4.93  0.  0.  0.
495  4.94  0.  0.  0.
496  4.95  0.  0.  0.
497  4.96  0.  0.  0.
498  4.97  0.  0.  0.
499  4.98  0.  0.  0.
500  4.99  0.  0.  0.
501  5.00  0.  0.  0.
502  5.01  0.  0.  0.
503  5.02  0.  0.  0.
504  5.03  0.  0.  0.
505  5.04  0.  0.  0.
506  5.05  0.  0.  0.
507  5.06  0.  0.  0.
508  5.07  0.  0.  0.
509  5.08  0.  0.  0.
510  5.09  0.  0.  0.
511  5.10  0.  0.  0.
512  5.11  0.  0.  0.
513  5.12  0.  0.  0.
514  5.13  0.  0.  0.
515  5.14  0.  0.  0.
516  5.15  0.  0.  0.
517  5.16  0.  0.  0.
518  5.17  0.  0.  0.
519  5.18  0.  0.  0.
520  5.19  0.  0.  0.
521  5.20  0.  0.  0.
522  5.21  0.  0.  0.
523  5.22  0.  0.  0.
524  5.23  0.  0.  0.
525  5.24  0.  0.  0.
526  5.25  0.  0.  0.
527  5.26  0.  0.  0.
528  5.27  0.  0.  0.
529  5.28  0.  0.  0.
530  5.29  0.  0.  0.
531  5.30  0.  0.  0.
532  5.31  0.  0.  0.
533  5.32  0.  0.  0.
534  5.33  0.  0.  0.
535  5.34  0.  0.  0.
536  5.35  0.  0.  0.
537  5.36  0.  0.  0.
538  5.37  0.  0.  0.
539  5.38  0.  0.  0.
540  5.39  0.  0.  0.
541  5.40  0.  0.  0.
542  5.41  0.  0.  0.
543  5.42  0.  0.  0.
544  5.43  0.  0.  0.
545  5.44  0.  0.  0.
546  5.45  0.  0.  0.
547  5.46  0.  0.  0.
548  5.47  0.  0.  0.
549  5.48  0.  0.  0.
550  5.49  0.  0.  0.
551  5.50  0.  0.  0.
552  5.51  0.  0.  0.
553  5.52  0.  0.  0.
554  5.53  0.  0.  0.
555  5.54  0.  0.  0.
556  5.55  0.  0.  0.
557  5.56  0.  0.  0.
558  5.57  0.  0.  0.
559  5.58  0.  0.  0.
560  5.59  0.  0.  0.
561  5.60  0.  0.  0.
562  5.61  0.  0.  0.
563  5.62  0.  0.  0.
564  5.63  0.  0.  0.
565  5.64  0.  0.  0.
566  5.65  0.  0.  0.
567  5.66  0.  0.  0.
568  5.67  0.  0.  0.
569  5.68  0.  0.  0.
570  5.69  0.  0.  0.
571  5.70  0.  0.  0.
572  5.71  0.  0.  0.
573  5.72  0.  0.  0.
574  5.73  0.  0.  0.
575  5.74  0.  0.  0.
576  5.75  0.  0.  0.
577  5.76  0.  0.  0.
578  5.77  0.  0.  0.
579  5.78  0.  0.  0.
580  5.79  0.  0.  0.
581  5.80  0.  0.  0.
582  5.81  0.  0.  0.
583  5.82  0.  0.  0.
584  5.83  0.  0.  0.
585  5.84  0.  0.  0.
586  5.85  0.  0.  0.
587  5.86  0.  0.  0.
588  5.87  0.  0.  0.
589  5.88  0.  0.  0.
590  5.89  0.  0.  0.
591  5.90  0.  0.  0.
592  5.91  0.  0.  0.
593  5.92  0.  0.  0.
594  5.93  0.  0.  0.
595  5.94  0.  0.  0.
596  5.95  0.  0.  0.
597  5.96  0.  0.  0.
598  5.97  0.  0.  0.
599  5.98  0.  0.  0.
600  5.99  0.  0.  0.
1                         3.3667944455944E+01  3.7049737487998E+00 -1.3983277922140E-01
1  0.0000000000000E+00 -1.3024202766276E-07  2.8304303500981E-07 -3.0355041825969E-07
2  1.0000000000000E-02  4.9682336081398E-03 -1.0711685808355E-03  1.2721075357860E-03
3  2.0000000000000E-02  1.9853051974534E-02 -4.3186959253066E-03  5.1255398400054E-03
4  3.0000000000000E-02  4.4593232743314E-02 -9.8407363282073E-03  1.1667507176423E-02
5  4.0000000000000E-02  7.9081597222296E-02 -1.7788079303244E-02  2.1063218007344E-02
6  5.0000000000000E-02  1.2315767223096E-01 -2.8345754999971E-02  3.3516541777651E-02
7  6.0000000000000E-02  1.7659814416849E-01 -4.1708851798773E-02  4.9244639902242E-02
8  7.0000000000000E-02  2.3910578596980E-01 -5.8054016241851E-02  6.8448157587928E-02
9  8.0000000000000E-02  3.1029766785925E-01 -7.7508388501191E-02  9.1278872671212E-02
10  9.0000000000000E-02  3.8969354936321E-01 -1.0011791646216E-01  1.1780689828962E-01
11  1.0000000000000E-01  4.7670538790376E-01 -1.2581707757674E-01  1.4798962230117E-01
12  1.1000000000000E-01  5.7062888593011E-01 -1.5440201453370E-01  1.8164453215487E-01
13  1.2000000000000E-01  6.7063793401440E-01 -1.8550895867910E-01  2.1842791982596E-01
14  1.3000000000000E-01  7.7578269431810E-01 -2.1859957974701E-01  2.5782119409015E-01
15  1.4000000000000E-01  8.8499191249280E-01 -2.5295457289476E-01  2.9912615937891E-01
16  1.5000000000000E-01  9.9707985383546E-01 -2.8767639015071E-01  3.4147016960887E-01
17  1.6000000000000E-01  1.1107580406921E+00 -3.2170156308363E-01  3.8382155407058E-01
18  1.7000000000000E-01  1.2246517334636E+00 -3.5382256977706E-01  4.2501516643353E-01
19  1.8000000000000E-01  1.3373208588035E+00 -3.8271869697334E-01  4.6378735503755E-01
20  1.9000000000000E-01  1.4472848577466E+00 -4.0699486318981E-01  4.9881912149630E-01
21  2.0000000000000E-01  1.5530507153654E+00 -4.2522692579199E-01  5.2878575314414E-01
22  2.1000000000000E-01  1.6531432530549E+00 -4.3601161769835E-01  5.5241080881269E-01
23  2.2000000000000E-01  1.7461366242692E+00 -4.3801896783925E-01  5.6852202919782E-01
24  2.3000000000000E-01  1.8306858621254E+00 -4.3004486988980E-01  5.7610655043969E-01
25  2.4000000000000E-01  1.9055572881479E+00 -4.1106138741478E-01  5.7436273470135E-01
26  2.5000000000000E-01  1.9696566083357E+00 -3.8026242612802E-01  5.6274600046128E-01
27  2.6000000000000E-01  2.0220535957462E+00 -3.3710256530216E-01  5.4100623726184E-01
28  2.7000000000000E-01  2.0620023851480E+00 -2.8132711431620E-01  5.0921471740731E-01
29  2.8000000000000E-01  2.0889565795704E+00 -2.1299183499858E-01  4.6777885676941E-01
30  2.9000000000000E-01  2.1025785828836E+00 -1.3247122868383E-01  4.1744370878160E-01
31  3.0000000000000E-01  2.1027428168897E+00 -4.0454807165830E-02  3.5927967526246E-01
32  3.1000000000000E-01  2.0895327442108E+00  6.2068676014988E-02  2.9465655647763E-01
33  3.2000000000000E-01  2.0632318868332E+00  1.7383849053079E-01  2.2520470993430E-01
34  3.3000000000000E-01  2.0243092914162E+00  2.9335959849777E-01  1.5276471095026E-01
35  3.4000000000000E-01  1.9734001334654E+00  4.1894913356242E-01  7.9327476807303E-02
36  3.5000000000000E-01  1.9112823611467E+00  5.4878966487806E-01  6.9673012027311E-03
37  3.6000000000000E-01  1.8388504452669E+00  6.8098688494880E-01 -6.2229378663833E-02
38  3.7000000000000E-01  1.7570874161875E+00  8.1362913694707E-01 -1.2623641414159E-01
39  3.8000000000000E-01  1.6670364250439E+00  9.4484609925035E-01 -1.8315840630151E-01
40  3.9000000000000E-01  1.5697730623316E+00  1.0728639793081E+00 -2.3129607599933E-01
41  4.0000000000000E-01  1.4663796014137E+00  1.1960547357073E+00 -2.6920362403975E-01
42  4.1000000000000E-01  1.3579222106295E+00  1.3129771399400E+00 -2.9573550832873E-01
43  4.2000000000000E-01  1.2454320012502E+00  1.4224078949200E+00 -3.1008054009305E-01
44  4.3000000000000E-01  1.1298905581070E+00  1.5233615268433E+00 -3.1178178458055E-01
45  4.4000000000000E-01  1.0122203462231E+00  1.6150983365542E+00 -3.0074141602170E-01
46  4.5000000000000E-01  8.9328011299971E-01  1.6971203082131E+00 -2.7721039044808E-01
47  4.6000000000000E-01  7.7386512543164E-01  1.7691554961785E+00 -2.4176352866896E-01
48  4.7000000000000E-01  6.5471181001283E-01  1.8311320138846E+00 -1.9526130941858E-01
49  4.8000000000000E-01  5.3650611379040E-01  1.8831432998449E+00 -1.3880032398693E-01
50  4.9000000000000E-01  4.1989469187412E-01  1.9254068064791E+00 -7.3654905329058E-02
51  5.0000000000000E-01  3.0549786141406E-01  1.9582186215600E+00 -1.2128874405192E-03
52  5.1000000000000E-01  1.9392315417150E-01  1.9819067689318E+00  7.7091249148592E-02
53  5.2000000000000E-01  8.5778256080742E-02  1.9967860300732E+00  1.5984244966158E-01
54  5.3000000000000E-01 -1.8317853805816E-02  2.0031170733269E+00  2.4570700800569E-01
55  5.4000000000000E-01 -1.1772666077021E-01  2.0010724729439E+00  3.3348717246485E-01
56  5.5000000000000E-01 -2.1178570780530E-01  1.9907118529126E+00  4.2216562838125E-01
57  5.6000000000000E-01 -2.9980875060246E-01  1.9719679157280E+00  5.1093756131994E-01
58  5.7000000000000E-01 -3.8109093840278E-01  1.9446445355607E+00  5.9922863725556E-01
59  5.8000000000000E-01 -4.5491918864291E-01  1.9084274363504E+00  6.8669796318806E-01
60  5.9000000000000E-01 -5.2058760695968E-01  1.8629072705239E+00  7.7322587709309E-01
61  6.0000000000000E-01 -5.7741748396528E-01  1.8076141987480E+00  8.5888722148843E-01
62  6.1000000000000E-01 -6.2478109316450E-01  1.7420623822573E+00  9.4391153974624E-01
63  6.2000000000000E-01 -6.6212823713374E-01  1.6658021732855E+00  1.0286323584945E+00
64  6.3000000000000E-01 -6.8901425723627E-01  1.5784772601724E+00  1.1134283452712E+00
65  6.4000000000000E-01 -7.0512804944110E-01  1.4798836219866E+00  1.1986596245189E+00
66  6.5000000000000E-01 -7.1031852635411E-01  1.3700268975092E+00  1.2846028695535E+00
67  6.6000000000000E-01 -7.0461794122232E-01  1.2491746927090E+00  1.3713889433071E+00
68  6.7000000000000E-01 -6.8826054757422E-01  1.1179004488873E+00  1.4589468250490E+00
69  6.8000000000000E-01 -6.6169520841344E-01  9.7711577124895E-01  1.5469573318887E+00
70  6.9000000000000E-01 -6.2559078748951E-01  8.2808856665635E-01  1.6348197301657E+00
71  7.0000000000000E-01 -5.8083344402735E-01  6.7244494272894E-01  1.7216337497970E+00
72  7.1000000000000E-01 -5.2851529966632E-01  5.1215355335720E-01  1.8061987897688E+00
73  7.2000000000000E-01 -4.6991433711536E-01  3.4949190580689E-01  1.8870312685029E+00
74  7.3000000000000E-01 -4.0646580658467E-01  1.8699503421773E-01  1.9624001678407E+00
75  7.4000000000000E-01 -3.3972583892320E-01  2.7387851576906E-02  2.0303798873066E+00
76  7.5000000000000E-01 -2.7132837319513E-01 -1.2649662672870E-01  2.0889186116618E+00
77  7.6000000000000E-01 -2.0293688092054E-01 -2.7181018363017E-01  2.1359195448052E+00
78  7.7000000000000E-01 -1.3619269001605E-01 -4.0578972207931E-01  2.1693316200721E+00
79  7.8000000000000E-01 -7.2661961303099E-02 -5.2586075480561E-01  2.1872456994663E+00
80  7.9000000000000E-01 -1.3783534730201E-02 -6.2973944084614E-01  2.1879918546295E+00
81  8.0000000000000E-01  3.9180069838416E-02 -7.1552838474138E-01  2.1702331046063E+00
82  8.1000000000000E-01  8.5186248239595E-02 -7.8180147254872E-01  2.1330509846305E+00
83  8.2000000000000E-01  1.2344839682618E-01 -8.2767330411363E-01  2.0760185409690E+00
84  8.3000000000000E-01  1.5346262494880E-01 -8.5284928941523E-01  1.9992567835707E+00
85  8.4000000000000E-01  1.7502357637473E-01 -8.5765319447951E-01  1.9034712647930E+00
86  8.5000000000000E-01  1.8822826979702E-01 -8.4302982625224E-01  1.7899662629999E+00
87  8.6000000000000E-01  1.9346736866924E-01 -8.1052160459374E-01  1.6606349999380E+00
88  8.7000000000000E-01  1.9140384380390E-01 -7.6221894493687E-01  1.5179253690148E+00
89  8.8000000000000E-01  1.8293957803775E-01 -7.0068562370485E-01  1.3647817511919E+00
90  8.9000000000000E-01  1.6917105886183E-01 -6.2886157364684E-01  1.2045645963182E+00
91  9.0000000000000E-01  1.5133588982840E-01 -5.4994681004291E-01  1.0409504996107E+00
92  9.1000000000000E-01  1.3075240290847E-01 -4.6727137454457E-01  8.7781645630039E-01
93  9.2000000000000E-01  1.0875515143521E-01 -3.8415725772704E-01  7.1911278646821E-01
94  9.3000000000000E-01  8.6629488960664E-02 -3.0377918591929E-01  5.6872984674035E-01
95  9.4000000000000E-01  6.5548584929963E-02 -2.2903153426391E-01  4.3036387663002E-01
96  9.5000000000000E-01  4.6517782733939E-02 -1.6241168326967E-01  3.0738856242219E-01
97  9.6000000000000E-01  3.0150588183459E-02 -1.0558305417039E-01  2.0259476994486E-01
98  9.7000000000000E-01  1.6918292552297E-02 -5.9843429765297E-02  1.1834872200790E-01
99  9.8000000000000E-01  7.3242697403165E-03 -2.6476817568934E-02  5.6603561886825E-02
100  9.9000000000000E-01  1.5581136457450E-03 -6.1002567164212E-03  1.8463790149991E-02
101  1.0000000000000E+00 -4.8441505812780E-04  1.2556316462955E-03  4.9085098710283E-03
102  1.0100000000000E+00  5.6424441260715E-05 -1.5876389881975E-04 -3.7508253588761E-04