Ts    ONCVPSP-4.0.1  r_core=   1.40055   1.40055   1.45173   1.60713
117.0000     25.0000      231012    zatom,zion,pspd
8 -116133   3     4   600     0    pspcod,pspxc,lmax,lloc,mmax,r2well
5.99000000  5.00000000  0.00000000    rchrg fchrg qchrg
2     3     3     3    nproj
3     1           extension_switch
4     3     4    nprojso
0                         1.4252963353887E+01 -2.9896098911299E-01
1  0.0000000000000E+00  4.1205394651911E-10  9.8739874887510E-09
2  1.0000000000000E-02  8.1363468929933E-02  2.0945689812980E-02
3  2.0000000000000E-02  1.6254049496884E-01  4.2013015935611E-02
4  3.0000000000000E-02  2.4334492047734E-01  6.3318371102543E-02
5  4.0000000000000E-02  3.2359116243998E-01  8.4967782907571E-02
6  5.0000000000000E-02  4.0309450997024E-01  1.0705203365274E-01
7  6.0000000000000E-02  4.8167143374571E-01  1.2964213586622E-01
8  7.0000000000000E-02  5.5913991085402E-01  1.5278527015007E-01
9  8.0000000000000E-02  6.3531976811844E-01  1.7650128214519E-01
10  9.0000000000000E-02  7.1003304647256E-01  2.0077982345264E-01
11  1.0000000000000E-01  7.8310438837807E-01  2.2557820757971E-01
12  1.1000000000000E-01  8.5436144963869E-01  2.5082003667407E-01
13  1.2000000000000E-01  9.2363533627067E-01  2.7639463829280E-01
14  1.3000000000000E-01  9.9076106636029E-01  3.0215733407149E-01
15  1.4000000000000E-01  1.0555780560855E+00  3.2793054427933E-01
16  1.5000000000000E-01  1.1179306283198E+00  3.5350571424401E-01
17  1.6000000000000E-01  1.1776685414830E+00  3.7864603088784E-01
18  1.7000000000000E-01  1.2346475355803E+00  4.0308988050567E-01
19  1.8000000000000E-01  1.2887298916770E+00  4.2655498280111E-01
20  1.9000000000000E-01  1.3397850004286E+00  4.4874312141897E-01
21  2.0000000000000E-01  1.3876899347122E+00  4.6934537808536E-01
22  2.1000000000000E-01  1.4323300209205E+00  4.8804776626995E-01
23  2.2000000000000E-01  1.4735994030786E+00  5.0453715125944E-01
24  2.3000000000000E-01  1.5114015936419E+00  5.1850733686812E-01
25  2.4000000000000E-01  1.5456500046383E+00  5.2966519485948E-01
26  2.5000000000000E-01  1.5762684527281E+00  5.3773671159879E-01
27  2.6000000000000E-01  1.6031916317835E+00  5.4247282754209E-01
28  2.7000000000000E-01  1.6263655467218E+00  5.4365494887009E-01
29  2.8000000000000E-01  1.6457479025790E+00  5.4110001682257E-01
30  2.9000000000000E-01  1.6613084431595E+00  5.3466502895263E-01
31  3.0000000000000E-01  1.6730292340555E+00  5.2425091741827E-01
32  3.1000000000000E-01  1.6809048853740E+00  5.0980570233503E-01
33  3.2000000000000E-01  1.6849427101369E+00  4.9132685285579E-01
34  3.3000000000000E-01  1.6851628150225E+00  4.6886280471295E-01
35  3.4000000000000E-01  1.6815981208692E+00  4.4251360011460E-01
36  3.5000000000000E-01  1.6742943111678E+00  4.1243063376513E-01
37  3.6000000000000E-01  1.6633097075967E+00  3.7881550700188E-01
38  3.7000000000000E-01  1.6487150725029E+00  3.4191801021311E-01
39  3.8000000000000E-01  1.6305933390717E+00  3.0203327144152E-01
40  3.9000000000000E-01  1.6090392707608E+00  2.5949812599862E-01
41  4.0000000000000E-01  1.5841590523692E+00  2.1468677765756E-01
42  4.1000000000000E-01  1.5560698158653E+00  1.6800583621328E-01
43  4.2000000000000E-01  1.5248991047935E+00  1.1988882859375E-01
44  4.3000000000000E-01  1.4907842817058E+00  7.0790291003571E-02
45  4.4000000000000E-01  1.4538718836111E+00  2.1179557560191E-02
46  4.5000000000000E-01  1.4143169308949E+00 -2.8465633634355E-02
47  4.6000000000000E-01  1.3722821955304E+00 -7.7665593172840E-02
48  4.7000000000000E-01  1.3279374346669E+00 -1.2594506777113E-01
49  4.8000000000000E-01  1.2814585958530E+00 -1.7283944093333E-01
50  4.9000000000000E-01  1.2330270002185E+00 -2.1790063046548E-01
51  5.0000000000000E-01  1.1828285099105E+00 -2.6070257408651E-01
52  5.1000000000000E-01  1.1310526859532E+00 -3.0084620437479E-01
53  5.2000000000000E-01  1.0778919424919E+00 -3.3796382640422E-01
54  5.3000000000000E-01  1.0235407030903E+00 -3.7172282540099E-01
55  5.4000000000000E-01  9.6819456438562E-01 -4.0182864727710E-01
56  5.5000000000000E-01  9.1204947198840E-01 -4.2802701162316E-01
57  5.6000000000000E-01  8.5530091304338E-01 -4.5010533429658E-01
58  5.7000000000000E-01  7.9814312936390E-01 -4.6789335472272E-01
59  5.8000000000000E-01  7.4076835452808E-01 -4.8126298103375E-01
60  5.9000000000000E-01  6.8336607779169E-01 -4.9012738378686E-01
61  6.0000000000000E-01  6.2612233714456E-01 -4.9443938583163E-01
62  6.1000000000000E-01  5.6921904332834E-01 -4.9418921154407E-01
63  6.2000000000000E-01  5.1283333615391E-01 -4.8940167275143E-01
64  6.3000000000000E-01  4.5713697401912E-01 -4.8013288090292E-01
65  6.4000000000000E-01  4.0229575714093E-01 -4.6646658511162E-01
66  6.5000000000000E-01  3.4846898468875E-01 -4.4851024335377E-01
67  6.6000000000000E-01  2.9580894574392E-01 -4.2639093917807E-01
68  6.7000000000000E-01  2.4446044381905E-01 -4.0025125861516E-01
69  6.8000000000000E-01  1.9456035455164E-01 -3.7024524151838E-01
70  6.9000000000000E-01  1.4623721614007E-01 -3.3653451830316E-01
71  7.0000000000000E-01  9.9610852114718E-02 -2.9928473704417E-01
72  7.1000000000000E-01  5.4792026127985E-02 -2.5866237725961E-01
73  7.2000000000000E-01  1.1882128599468E-02 -2.1483203564120E-01
74  7.3000000000000E-01 -2.9027104742812E-02 -1.6795425572795E-01
75  7.4000000000000E-01 -6.7853842135619E-02 -1.1818395835590E-01
76  7.5000000000000E-01 -1.0452637229835E-01 -6.5669513002426E-02
77  7.6000000000000E-01 -1.3898328732501E-01 -1.0552472253231E-02
78  7.7000000000000E-01 -1.7117363077274E-01  4.7032027020672E-02
79  7.8000000000000E-01 -2.0105700946868E-01  1.0695421114904E-01
80  7.9000000000000E-01 -2.2860366727766E-01  1.6908800000695E-01
81  8.0000000000000E-01 -2.5379451882791E-01  2.3330877264686E-01
82  8.1000000000000E-01 -2.7662114099538E-01  2.9949063784287E-01
83  8.2000000000000E-01 -2.9708571980985E-01  3.6750329490003E-01
84  8.3000000000000E-01 -3.1520095038082E-01  4.3720858394101E-01
85  8.4000000000000E-01 -3.3098988745670E-01  5.0845683650704E-01
86  8.5000000000000E-01 -3.4448574433463E-01  5.8108314638396E-01
87  8.6000000000000E-01 -3.5573163803712E-01  6.5490368681934E-01
88  8.7000000000000E-01 -3.6478027896754E-01  7.2971220353263E-01
89  8.8000000000000E-01 -3.7169360365130E-01  8.0527681299723E-01
90  8.9000000000000E-01 -3.7654234966099E-01  8.8133723232697E-01
91  9.0000000000000E-01 -3.7940557240707E-01  9.5760256073383E-01
92  9.1000000000000E-01 -3.8037010414550E-01  1.0337497230203E+00
93  9.2000000000000E-01 -3.7952995629794E-01  1.1094226730829E+00
94  9.3000000000000E-01 -3.7698566698948E-01  1.1842324401575E+00
95  9.4000000000000E-01 -3.7284359656710E-01  1.2577580828235E+00
96  9.5000000000000E-01 -3.6721517475447E-01  1.3295485959584E+00
97  9.6000000000000E-01 -3.6021610400676E-01  1.3991257943029E+00
98  9.7000000000000E-01 -3.5196552453401E-01  1.4659881735148E+00
99  9.8000000000000E-01 -3.4258514734386E-01  1.5296157260532E+00
100  9.9000000000000E-01 -3.3219836249247E-01  1.5894756654549E+00
101  1.0000000000000E+00 -3.2092933050777E-01  1.6450289890757E+00
102  1.0100000000000E+00 -3.0890206563977E-01  1.6957377867146E+00
103  1.0200000000000E+00 -2.9623952018036E-01  1.7410731812514E+00
104  1.0300000000000E+00 -2.8306267956331E-01  1.7805237679876E+00
105  1.0400000000000E+00 -2.6948967828515E-01  1.8136044023061E+00
106  1.0500000000000E+00 -2.5563494686907E-01  1.8398651709692E+00
107  1.0600000000000E+00 -2.4160840011263E-01  1.8589003712226E+00
108  1.0700000000000E+00 -2.2751467671009E-01  1.8703573142258E+00
109  1.0800000000000E+00 -2.1345244001505E-01  1.8739447653947E+00
110  1.0900000000000E+00 -1.9951374920653E-01  1.8694408342263E+00
111  1.1000000000000E+00 -1.8578350944703E-01  1.8567001301246E+00
112  1.1100000000000E+00 -1.7233900877246E-01  1.8356600087475E+00
113  1.1200000000000E+00 -1.5924954845073E-01  1.8063457452387E+00
114  1.1300000000000E+00 -1.4657617238779E-01  1.7688744864002E+00
115  1.1400000000000E+00 -1.3437149987614E-01  1.7234578529504E+00
116  1.1500000000000E+00 -1.2267966457639E-01  1.6704030853985E+00
117  1.1600000000000E+00 -1.1153636113379E-01  1.6101126520826E+00
118  1.1700000000000E+00 -1.0096899926450E-01  1.5430822654280E+00
119  1.1800000000000E+00 -9.0996963549755E-02  1.4698972815385E+00
120  1.1900000000000E+00 -8.1631975548747E-02  1.3912274887997E+00
121  1.2000000000000E+00 -7.2878553244231E-02  1.3078203220311E+00
122  1.2100000000000E+00 -6.4734561263849E-02  1.2204925698780E+00
123  1.2200000000000E+00 -5.7191843832054E-02  1.1301206734225E+00
124  1.2300000000000E+00 -5.0236931012708E-02  1.0376297431032E+00
125  1.2400000000000E+00 -4.3851807530854E-02  9.4398144832587E-01
126  1.2500000000000E+00 -3.8014732348437E-02  8.5016095880818E-01
127  1.2600000000000E+00 -3.2701096218373E-02  7.5716313858377E-01
128  1.2700000000000E+00 -2.7884303689840E-02  6.6597821186079E-01
129  1.2800000000000E+00 -2.3536665493255E-02  5.7757713434381E-01
130  1.2900000000000E+00 -1.9630286907857E-02  4.9289691390761E-01
131  1.3000000000000E+00 -1.6137937623977E-02  4.1282613021079E-01
132  1.3100000000000E+00 -1.3033887416227E-02  3.3819093651968E-01
133  1.3200000000000E+00 -1.0294704119382E-02  2.6974151826690E-01
134  1.3300000000000E+00 -7.9000067556876E-03  2.0813938124063E-01
135  1.3400000000000E+00 -5.8367289783902E-03  1.5385517170289E-01
136  1.3500000000000E+00 -4.0940218308934E-03  1.0728783205887E-01
137  1.3600000000000E+00 -2.6598500608974E-03  6.8868674812933E-02
138  1.3700000000000E+00 -1.5289881303847E-03  3.8876232121770E-02
139  1.3800000000000E+00 -7.0295479042846E-04  1.7447229467606E-02
140  1.3900000000000E+00 -1.8714004771261E-04  4.5100342014482E-03
141  1.4000000000000E+00 -2.5217126556464E-06  5.8595886366036E-05
142  1.4100000000000E+00 -8.4620371085832E-07  1.9883874888069E-05
143  1.4200000000000E+00  2.7247825427049E-07 -6.5117974113448E-06
144  1.43  0.  0.
145  1.44  0.  0.
146  1.45  0.  0.
147  1.46  0.  0.
148  1.47  0.  0.
149  1.48  0.  0.
150  1.49  0.  0.
151  1.50  0.  0.
152  1.51  0.  0.
153  1.52  0.  0.
154  1.53  0.  0.
155  1.54  0.  0.
156  1.55  0.  0.
157  1.56  0.  0.
158  1.57  0.  0.
159  1.58  0.  0.
160  1.59  0.  0.
161  1.60  0.  0.
162  1.61  0.  0.
163  1.62  0.  0.
164  1.63  0.  0.
165  1.64  0.  0.
166  1.65  0.  0.
167  1.66  0.  0.
168  1.67  0.  0.
169  1.68  0.  0.
170  1.69  0.  0.
171  1.70  0.  0.
172  1.71  0.  0.
173  1.72  0.  0.
174  1.73  0.  0.
175  1.74  0.  0.
176  1.75  0.  0.
177  1.76  0.  0.
178  1.77  0.  0.
179  1.78  0.  0.
180  1.79  0.  0.
181  1.80  0.  0.
182  1.81  0.  0.
183  1.82  0.  0.
184  1.83  0.  0.
185  1.84  0.  0.
186  1.85  0.  0.
187  1.86  0.  0.
188  1.87  0.  0.
189  1.88  0.  0.
190  1.89  0.  0.
191  1.90  0.  0.
192  1.91  0.  0.
193  1.92  0.  0.
194  1.93  0.  0.
195  1.94  0.  0.
196  1.95  0.  0.
197  1.96  0.  0.
198  1.97  0.  0.
199  1.98  0.  0.
200  1.99  0.  0.
201  2.00  0.  0.
202  2.01  0.  0.
203  2.02  0.  0.
204  2.03  0.  0.
205  2.04  0.  0.
206  2.05  0.  0.
207  2.06  0.  0.
208  2.07  0.  0.
209  2.08  0.  0.
210  2.09  0.  0.
211  2.10  0.  0.
212  2.11  0.  0.
213  2.12  0.  0.
214  2.13  0.  0.
215  2.14  0.  0.
216  2.15  0.  0.
217  2.16  0.  0.
218  2.17  0.  0.
219  2.18  0.  0.
220  2.19  0.  0.
221  2.20  0.  0.
222  2.21  0.  0.
223  2.22  0.  0.
224  2.23  0.  0.
225  2.24  0.  0.
226  2.25  0.  0.
227  2.26  0.  0.
228  2.27  0.  0.
229  2.28  0.  0.
230  2.29  0.  0.
231  2.30  0.  0.
232  2.31  0.  0.
233  2.32  0.  0.
234  2.33  0.  0.
235  2.34  0.  0.
236  2.35  0.  0.
237  2.36  0.  0.
238  2.37  0.  0.
239  2.38  0.  0.
240  2.39  0.  0.
241  2.40  0.  0.
242  2.41  0.  0.
243  2.42  0.  0.
244  2.43  0.  0.
245  2.44  0.  0.
246  2.45  0.  0.
247  2.46  0.  0.
248  2.47  0.  0.
249  2.48  0.  0.
250  2.49  0.  0.
251  2.50  0.  0.
252  2.51  0.  0.
253  2.52  0.  0.
254  2.53  0.  0.
255  2.54  0.  0.
256  2.55  0.  0.
257  2.56  0.  0.
258  2.57  0.  0.
259  2.58  0.  0.
260  2.59  0.  0.
261  2.60  0.  0.
262  2.61  0.  0.
263  2.62  0.  0.
264  2.63  0.  0.
265  2.64  0.  0.
266  2.65  0.  0.
267  2.66  0.  0.
268  2.67  0.  0.
269  2.68  0.  0.
270  2.69  0.  0.
271  2.70  0.  0.
272  2.71  0.  0.
273  2.72  0.  0.
274  2.73  0.  0.
275  2.74  0.  0.
276  2.75  0.  0.
277  2.76  0.  0.
278  2.77  0.  0.
279  2.78  0.  0.
280  2.79  0.  0.
281  2.80  0.  0.
282  2.81  0.  0.
283  2.82  0.  0.
284  2.83  0.  0.
285  2.84  0.  0.
286  2.85  0.  0.
287  2.86  0.  0.
288  2.87  0.  0.
289  2.88  0.  0.
290  2.89  0.  0.
291  2.90  0.  0.
292  2.91  0.  0.
293  2.92  0.  0.
294  2.93  0.  0.
295  2.94  0.  0.
296  2.95  0.  0.
297  2.96  0.  0.
298  2.97  0.  0.
299  2.98  0.  0.
300  2.99  0.  0.
301  3.00  0.  0.
302  3.01  0.  0.
303  3.02  0.  0.
304  3.03  0.  0.
305  3.04  0.  0.
306  3.05  0.  0.
307  3.06  0.  0.
308  3.07  0.  0.
309  3.08  0.  0.
310  3.09  0.  0.
311  3.10  0.  0.
312  3.11  0.  0.
313  3.12  0.  0.
314  3.13  0.  0.
315  3.14  0.  0.
316  3.15  0.  0.
317  3.16  0.  0.
318  3.17  0.  0.
319  3.18  0.  0.
320  3.19  0.  0.
321  3.20  0.  0.
322  3.21  0.  0.
323  3.22  0.  0.
324  3.23  0.  0.
325  3.24  0.  0.
326  3.25  0.  0.
327  3.26  0.  0.
328  3.27  0.  0.
329  3.28  0.  0.
330  3.29  0.  0.
331  3.30  0.  0.
332  3.31  0.  0.
333  3.32  0.  0.
334  3.33  0.  0.
335  3.34  0.  0.
336  3.35  0.  0.
337  3.36  0.  0.
338  3.37  0.  0.
339  3.38  0.  0.
340  3.39  0.  0.
341  3.40  0.  0.
342  3.41  0.  0.
343  3.42  0.  0.
344  3.43  0.  0.
345  3.44  0.  0.
346  3.45  0.  0.
347  3.46  0.  0.
348  3.47  0.  0.
349  3.48  0.  0.
350  3.49  0.  0.
351  3.50  0.  0.
352  3.51  0.  0.
353  3.52  0.  0.
354  3.53  0.  0.
355  3.54  0.  0.
356  3.55  0.  0.
357  3.56  0.  0.
358  3.57  0.  0.
359  3.58  0.  0.
360  3.59  0.  0.
361  3.60  0.  0.
362  3.61  0.  0.
363  3.62  0.  0.
364  3.63  0.  0.
365  3.64  0.  0.
366  3.65  0.  0.
367  3.66  0.  0.
368  3.67  0.  0.
369  3.68  0.  0.
370  3.69  0.  0.
371  3.70  0.  0.
372  3.71  0.  0.
373  3.72  0.  0.
374  3.73  0.  0.
375  3.74  0.  0.
376  3.75  0.  0.
377  3.76  0.  0.
378  3.77  0.  0.
379  3.78  0.  0.
380  3.79  0.  0.
381  3.80  0.  0.
382  3.81  0.  0.
383  3.82  0.  0.
384  3.83  0.  0.
385  3.84  0.  0.
386  3.85  0.  0.
387  3.86  0.  0.
388  3.87  0.  0.
389  3.88  0.  0.
390  3.89  0.  0.
391  3.90  0.  0.
392  3.91  0.  0.
393  3.92  0.  0.
394  3.93  0.  0.
395  3.94  0.  0.
396  3.95  0.  0.
397  3.96  0.  0.
398  3.97  0.  0.
399  3.98  0.  0.
400  3.99  0.  0.
401  4.00  0.  0.
402  4.01  0.  0.
403  4.02  0.  0.
404  4.03  0.  0.
405  4.04  0.  0.
406  4.05  0.  0.
407  4.06  0.  0.
408  4.07  0.  0.
409  4.08  0.  0.
410  4.09  0.  0.
411  4.10  0.  0.
412  4.11  0.  0.
413  4.12  0.  0.
414  4.13  0.  0.
415  4.14  0.  0.
416  4.15  0.  0.
417  4.16  0.  0.
418  4.17  0.  0.
419  4.18  0.  0.
420  4.19  0.  0.
421  4.20  0.  0.
422  4.21  0.  0.
423  4.22  0.  0.
424  4.23  0.  0.
425  4.24  0.  0.
426  4.25  0.  0.
427  4.26  0.  0.
428  4.27  0.  0.
429  4.28  0.  0.
430  4.29  0.  0.
431  4.30  0.  0.
432  4.31  0.  0.
433  4.32  0.  0.
434  4.33  0.  0.
435  4.34  0.  0.
436  4.35  0.  0.
437  4.36  0.  0.
438  4.37  0.  0.
439  4.38  0.  0.
440  4.39  0.  0.
441  4.40  0.  0.
442  4.41  0.  0.
443  4.42  0.  0.
444  4.43  0.  0.
445  4.44  0.  0.
446  4.45  0.  0.
447  4.46  0.  0.
448  4.47  0.  0.
449  4.48  0.  0.
450  4.49  0.  0.
451  4.50  0.  0.
452  4.51  0.  0.
453  4.52  0.  0.
454  4.53  0.  0.
455  4.54  0.  0.
456  4.55  0.  0.
457  4.56  0.  0.
458  4.57  0.  0.
459  4.58  0.  0.
460  4.59  0.  0.
461  4.60  0.  0.
462  4.61  0.  0.
463  4.62  0.  0.
464  4.63  0.  0.
465  4.64  0.  0.
466  4.65  0.  0.
467  4.66  0.  0.
468  4.67  0.  0.
469  4.68  0.  0.
470  4.69  0.  0.
471  4.70  0.  0.
472  4.71  0.  0.
473  4.72  0.  0.
474  4.73  0.  0.
475  4.74  0.  0.
476  4.75  0.  0.
477  4.76  0.  0.
478  4.77  0.  0.
479  4.78  0.  0.
480  4.79  0.  0.
481  4.80  0.  0.
482  4.81  0.  0.
483  4.82  0.  0.
484  4.83  0.  0.
485  4.84  0.  0.
486  4.85  0.  0.
487  4.86  0.  0.
488  4.87  0.  0.
489  4.88  0.  0.
490  4.89  0.  0.
491  4.90  0.  0.
492  4.91  0.  0.
493  4.92  0.  0.
494  4.93  0.  0.
495  4.94  0.  0.
496  4.95  0.  0.
497  4.96  0.  0.
498  4.97  0.  0.
499  4.98  0.  0.
500  4.99  0.  0.
501  5.00  0.  0.
502  5.01  0.  0.
503  5.02  0.  0.
504  5.03  0.  0.
505  5.04  0.  0.
506  5.05  0.  0.
507  5.06  0.  0.
508  5.07  0.  0.
509  5.08  0.  0.
510  5.09  0.  0.
511  5.10  0.  0.
512  5.11  0.  0.
513  5.12  0.  0.
514  5.13  0.  0.
515  5.14  0.  0.
516  5.15  0.  0.
517  5.16  0.  0.
518  5.17  0.  0.
519  5.18  0.  0.
520  5.19  0.  0.
521  5.20  0.  0.
522  5.21  0.  0.
523  5.22  0.  0.
524  5.23  0.  0.
525  5.24  0.  0.
526  5.25  0.  0.
527  5.26  0.  0.
528  5.27  0.  0.
529  5.28  0.  0.
530  5.29  0.  0.
531  5.30  0.  0.
532  5.31  0.  0.
533  5.32  0.  0.
534  5.33  0.  0.
535  5.34  0.  0.
536  5.35  0.  0.
537  5.36  0.  0.
538  5.37  0.  0.
539  5.38  0.  0.
540  5.39  0.  0.
541  5.40  0.  0.
542  5.41  0.  0.
543  5.42  0.  0.
544  5.43  0.  0.
545  5.44  0.  0.
546  5.45  0.  0.
547  5.46  0.  0.
548  5.47  0.  0.
549  5.48  0.  0.
550  5.49  0.  0.
551  5.50  0.  0.
552  5.51  0.  0.
553  5.52  0.  0.
554  5.53  0.  0.
555  5.54  0.  0.
556  5.55  0.  0.
557  5.56  0.  0.
558  5.57  0.  0.
559  5.58  0.  0.
560  5.59  0.  0.
561  5.60  0.  0.
562  5.61  0.  0.
563  5.62  0.  0.
564  5.63  0.  0.
565  5.64  0.  0.
566  5.65  0.  0.
567  5.66  0.  0.
568  5.67  0.  0.
569  5.68  0.  0.
570  5.69  0.  0.
571  5.70  0.  0.
572  5.71  0.  0.
573  5.72  0.  0.
574  5.73  0.  0.
575  5.74  0.  0.
576  5.75  0.  0.
577  5.76  0.  0.
578  5.77  0.  0.
579  5.78  0.  0.
580  5.79  0.  0.
581  5.80  0.  0.
582  5.81  0.  0.
583  5.82  0.  0.
584  5.83  0.  0.
585  5.84  0.  0.
586  5.85  0.  0.
587  5.86  0.  0.
588  5.87  0.  0.
589  5.88  0.  0.
590  5.89  0.  0.
591  5.90  0.  0.
592  5.91  0.  0.
593  5.92  0.  0.
594  5.93  0.  0.
595  5.94  0.  0.
596  5.95  0.  0.
597  5.96  0.  0.
598  5.97  0.  0.
599  5.98  0.  0.
600  5.99  0.  0.
1                         1.1055172716176E+01  8.9166483998487E-01 -8.3117825287275E-02
1  0.0000000000000E+00 -2.5099575889920E-09  9.4900398164843E-09 -3.7880442112920E-08
2  1.0000000000000E-02  1.7263333608621E-03 -9.1408000290079E-04  2.7944604588320E-04
3  2.0000000000000E-02  6.9001138405515E-03 -3.6556151514513E-03  1.1389870623238E-03
4  3.0000000000000E-02  1.5505647994289E-02 -8.2223098454125E-03  2.6414071828376E-03
5  4.0000000000000E-02  2.7516666216692E-02 -1.4609740696123E-02  4.8886221634798E-03
6  5.0000000000000E-02  4.2896157465897E-02 -2.2810481319236E-02  8.0176756121032E-03
7  6.0000000000000E-02  6.1596148763499E-02 -3.2812918210558E-02  1.2195297290183E-02
8  7.0000000000000E-02  8.3557440000340E-02 -4.4599797523030E-02  1.7611181811900E-02
9  8.0000000000000E-02  1.0870930708813E-01 -5.8146552052911E-02  2.4470183945608E-02
10  9.0000000000000E-02  1.3696918865037E-01 -7.3419465885379E-02  3.2983659346533E-02
11  1.0000000000000E-01  1.6824237318270E-01 -9.0373740717347E-02  4.3360206033306E-02
12  1.1000000000000E-01  2.0242170488276E-01 -1.0895153268181E-01  5.5796081535595E-02
13  1.2000000000000E-01  2.3938732711543E-01 -1.2908003140316E-01  7.0465582838177E-02
14  1.3000000000000E-01  2.7900648271520E-01 -1.5066965392516E-01  8.7511680668313E-02
15  1.4000000000000E-01  3.2113339002285E-01 -1.7361242503294E-01  1.0703719616404E-01
16  1.5000000000000E-01  3.6560921271000E-01 -1.9778061235198E-01  1.2909679657032E-01
17  1.6000000000000E-01  4.1226214007945E-01 -2.2302567951573E-01  1.5369006759510E-01
18  1.7000000000000E-01  4.6090759267064E-01 -2.4917761376872E-01  1.8075589387389E-01
19  1.8000000000000E-01  5.1134856569111E-01 -2.7604467577927E-01  2.1016834628571E-01
20  1.9000000000000E-01  5.6337612009005E-01 -3.0341360938728E-01  2.4173423645540E-01
21  2.0000000000000E-01  6.1677002805444E-01 -3.3105033775830E-01  2.7519245563793E-01
22  2.1000000000000E-01  6.7129957641438E-01 -3.5870116023929E-01  3.1021516841496E-01
23  2.2000000000000E-01  7.2672452797402E-01 -3.8609445142473E-01  3.4641088244270E-01
24  2.3000000000000E-01  7.8279623722186E-01 -4.1294285087171E-01  3.8332936515182E-01
25  2.4000000000000E-01  8.3925891330927E-01 -4.3894591888904E-01  4.2046832812630E-01
26  2.5000000000000E-01  8.9585101970714E-01 -4.6379322120710E-01  4.5728175120082E-01
27  2.6000000000000E-01  9.5230679664552E-01 -4.8716779344614E-01  4.9318967240633E-01
28  2.7000000000000E-01  1.0083578893939E+00 -5.0874992545730E-01  5.2758922799151E-01
29  2.8000000000000E-01  1.0637350627283E+00 -5.2822119610595E-01  5.5986668999067E-01
30  2.9000000000000E-01  1.1181699796266E+00 -5.4526868116228E-01  5.8941021820948E-01
31  3.0000000000000E-01  1.1713970203920E+00 -5.5958925088228E-01  6.1562301992187E-01
32  3.1000000000000E-01  1.2231551170839E+00 -5.7089386978030E-01  6.3793659470308E-01
33  3.2000000000000E-01  1.2731895773598E+00 -5.7891180914190E-01  6.5582373416184E-01
34  3.3000000000000E-01  1.3212538716369E+00 -5.8339468307594E-01  6.6881094716736E-01
35  3.4000000000000E-01  1.3671113578658E+00 -5.8412022137789E-01  6.7648999056595E-01
36  3.5000000000000E-01  1.4105369191725E+00 -5.8089569713486E-01  6.7852820320030E-01
37  3.6000000000000E-01  1.4513184911448E+00 -5.7356093375118E-01  6.7467736691283E-01
38  3.7000000000000E-01  1.4892584575806E+00 -5.6199082476513E-01  6.6478085155583E-01
39  3.8000000000000E-01  1.5241748960334E+00 -5.4609731026099E-01  6.4877884106623E-01
40  3.9000000000000E-01  1.5559026574204E+00 -5.2583076561126E-01  6.2671148343449E-01
41  4.0000000000000E-01  1.5842942672343E+00 -5.0118077142309E-01  5.9871985778808E-01
42  4.1000000000000E-01  1.6092206394402E+00 -4.7217624759058E-01  5.6504470557046E-01
43  4.2000000000000E-01  1.6305715978551E+00 -4.3888494892356E-01  5.2602292858181E-01
44  4.3000000000000E-01  1.6482562036117E+00 -4.0141233456808E-01  4.8208191303574E-01
45  4.4000000000000E-01  1.6622028911024E+00 -3.5989983798312E-01  4.3373179433511E-01
46  4.5000000000000E-01  1.6723594184953E+00 -3.1452257821852E-01  3.8155583053055E-01
47  4.6000000000000E-01  1.6786926424093E+00 -2.6548656629075E-01  3.2619910200198E-01
48  4.7000000000000E-01  1.6811881295555E+00 -2.1302547223438E-01  2.6835579946766E-01
49  4.8000000000000E-01  1.6798496210076E+00 -1.5739702860627E-01  2.0875540077152E-01
50  4.9000000000000E-01  1.6746983671839E+00 -9.8879154560877E-02  1.4814806796015E-01
51  5.0000000000000E-01  1.6657723535535E+00 -3.7765890869687E-02  8.7289619046708E-02
52  5.1000000000000E-01  1.6531254384645E+00  2.5636759754230E-02  2.6926442878808E-02
53  5.2000000000000E-01  1.6368264253011E+00  9.1014991066334E-02 -3.2219269789997E-02
54  5.3000000000000E-01  1.6169580913941E+00  1.5805125532732E-01 -8.9463610818901E-02
55  5.4000000000000E-01  1.5936161957216E+00  2.2642813716099E-01 -1.4417400104370E-01
56  5.5000000000000E-01  1.5669084864717E+00  2.9583195311915E-01 -1.9578086851888E-01
57  5.6000000000000E-01  1.5369537280065E+00  3.6595599879109E-01 -2.4378766127046E-01
58  5.7000000000000E-01  1.5038807647251E+00  4.3650337532371E-01 -2.8777893788298E-01
59  5.8000000000000E-01  1.4678276368219E+00  5.0718933907976E-01 -3.2742632707958E-01
60  5.9000000000000E-01  1.4289407600417E+00  5.7774313156465E-01 -3.6249220129104E-01
61  6.0000000000000E-01  1.3873741783379E+00  6.4790926136000E-01 -3.9283096773217E-01
62  6.1000000000000E-01  1.3432888949200E+00  7.1744822524289E-01 -4.1838794226166E-01
63  6.2000000000000E-01  1.2968522836372E+00  7.8613667154514E-01 -4.3919583473487E-01
64  6.3000000000000E-01  1.2482375790843E+00  8.5376702470209E-01 -4.5536893804950E-01
65  6.4000000000000E-01  1.1976234403362E+00  9.2014660543357E-01 -4.6709517498170E-01
66  6.5000000000000E-01  1.1451935799195E+00  9.8509629567477E-01 -4.7462621558900E-01
67  6.6000000000000E-01  1.0911364466134E+00  1.0484488108306E+00 -4.7826593184505E-01
68  6.7000000000000E-01  1.0356449480270E+00  1.1100466537871E+00 -4.7835750379651E-01
69  6.8000000000000E-01  9.7891619670818E-01  1.1697398350405E+00 -4.7526953156984E-01
70  6.9000000000000E-01  9.2115126187256E-01  1.2273834510034E+00 -4.6938153884249E-01
71  7.0000000000000E-01  8.6255490776152E-01  1.2828352177762E+00 -4.6106927498524E-01
72  7.1000000000000E-01  8.0333529917788E-01  1.3359530602564E+00 -4.5069023426397E-01
73  7.2000000000000E-01  7.4370365494740E-01  1.3865928562761E+00 -4.3856981080415E-01
74  7.3000000000000E-01  6.8387383091150E-01  1.4346064324782E+00 -4.2498849728356E-01
75  7.4000000000000E-01  6.2406181556860E-01  1.4798399028782E+00 -4.1017051362266E-01
76  7.5000000000000E-01  5.6448512361970E-01  1.5221324326294E+00 -3.9427421966859E-01
77  7.6000000000000E-01  5.0536207539358E-01  1.5613154985772E+00 -3.7738462367352E-01
78  7.7000000000000E-01  4.4691095336781E-01  1.5972127049993E+00 -3.5950824716626E-01
79  7.8000000000000E-01  3.8934903068557E-01  1.6296401977870E+00 -3.4057054778545E-01
80  7.9000000000000E-01  3.3289147060546E-01  1.6584077035950E+00 -3.2041603615788E-01
81  8.0000000000000E-01  2.7775010010885E-01  1.6833202025737E+00 -2.9881115255301E-01
82  8.1000000000000E-01  2.2413206531540E-01  1.7041802246552E+00 -2.7544989553872E-01
83  8.2000000000000E-01  1.7223838080403E-01  1.7207907404687E+00 -2.4996212005082E-01
84  8.3000000000000E-01  1.2226238928133E-01  1.7329585992963E+00 -2.2192434806344E-01
85  8.4000000000000E-01  7.4388152160955E-02  1.7404984485541E+00 -1.9087286332910E-01
86  8.5000000000000E-01  2.8788795394232E-02  1.7432370525735E+00 -1.5631879433446E-01
87  8.6000000000000E-01 -1.4375161787461E-02  1.7410179134350E+00 -1.1776482849951E-01
88  8.7000000000000E-01 -5.4957464801443E-02  1.7337060837048E+00 -7.4723147415474E-02
89  8.8000000000000E-01 -9.2827735795407E-02  1.7211930505213E+00 -2.6734129085486E-02
90  8.9000000000000E-01 -1.2787300599781E-01  1.7034015629220E+00  2.6614669999647E-02
91  9.0000000000000E-01 -1.5999913388360E-01  1.6802902698368E+00  8.5669761494653E-02
92  9.1000000000000E-01 -1.8913207497313E-01  1.6518580350144E+00  1.5069371792994E-01
93  9.2000000000000E-01 -2.1521897021664E-01  1.6181477973928E+00  2.2184842476873E-01
94  9.3000000000000E-01 -2.3822902191627E-01  1.5792498511087E+00  2.9918008769885E-01
95  9.4000000000000E-01 -2.5815412898222E-01  1.5353044284121E+00  3.8260646076108E-01
96  9.5000000000000E-01 -2.7500925696811E-01  1.4865034810579E+00  4.7190671811593E-01
97  9.6000000000000E-01 -2.8883252271819E-01  1.4330915710736E+00  5.6671433779039E-01
98  9.7000000000000E-01 -2.9968497850536E-01  1.3753657998307E+00  6.6651330073649E-01
99  9.8000000000000E-01 -3.0765008613871E-01  1.3136747247100E+00  7.7063783440941E-01
100  9.9000000000000E-01 -3.1283287755804E-01  1.2484162348861E+00  8.7827584846569E-01
101  1.0000000000000E+00 -3.1535880477717E-01  1.1800343813854E+00  9.8847612297744E-01
102  1.0100000000000E+00 -3.1537228854573E-01  1.1090151810237E+00  1.1001592187979E+00
103  1.0200000000000E+00 -3.1303498161678E-01  1.0358814385301E+00  1.2121319876266E+00
104  1.0300000000000E+00 -3.0852376889104E-01  9.6118665554924E-01  1.3231054679792E+00
105  1.0400000000000E+00 -3.0202853279228E-01  8.8550811863741E-01  1.4317158651180E+00
106  1.0500000000000E+00 -2.9374971786297E-01  8.0943928025968E-01  1.5365482301995E+00
107  1.0600000000000E+00 -2.8389573362556E-01  7.3358156662822E-01  1.6361623783939E+00
108  1.0700000000000E+00 -2.7268023907549E-01  6.5853576340041E-01  1.7291205198214E+00
109  1.0800000000000E+00 -2.6031935566076E-01  5.8489314437807E-01  1.8140160223128E+00
110  1.0900000000000E+00 -2.4702885814776E-01  5.1322651897985E-01  1.8895026829007E+00
111  1.1000000000000E+00 -2.3302139429264E-01  4.4408138106459E-01  1.9543238568517E+00
112  1.1100000000000E+00 -2.1850378467897E-01  3.7796734444531E-01  2.0073407797738E+00
113  1.1200000000000E+00 -2.0367445340826E-01  3.1535004898825E-01  2.0475594205387E+00
114  1.1300000000000E+00 -1.8872103852689E-01  2.5664371547347E-01  2.0741552206723E+00
115  1.1400000000000E+00 -1.7381822817354E-01  2.0220451750473E-01  2.0864951091605E+00
116  1.1500000000000E+00 -1.5912586445186E-01  1.5232492474980E-01  2.0841562300804E+00
117  1.1600000000000E+00 -1.4478735208410E-01  1.0722915406648E-01  2.0669408826672E+00
118  1.1700000000000E+00 -1.3092840301553E-01  6.7069843743868E-02  2.0348872488925E+00
119  1.1800000000000E+00 -1.1765614151898E-01  3.1926041912083E-02  1.9882755696448E+00
120  1.1900000000000E+00 -1.0505858701168E-01  1.8025732183470E-03  1.9276295268513E+00
121  1.2000000000000E+00 -9.3204524040897E-02 -2.3369180755439E-02  1.8537126913264E+00
122  1.2100000000000E+00 -8.2143760730212E-02 -4.3729082102801E-02  1.7675200045421E+00
123  1.2200000000000E+00 -7.1907768719737E-02 -5.9484643684052E-02  1.6702643725963E+00
124  1.2300000000000E+00 -6.2510689377591E-02 -7.0906098903906E-02  1.5633585609997E+00
125  1.2400000000000E+00 -5.3950682997994E-02 -7.8320220475722E-02  1.4483926868565E+00
126  1.2500000000000E+00 -4.6211590086358E-02 -8.2103002951241E-02  1.3271077070861E+00
127  1.2600000000000E+00 -3.9264866721051E-02 -8.2671350433252E-02  1.2013653966610E+00
128  1.2700000000000E+00 -3.3071749643445E-02 -8.0473934669088E-02  1.0731153957434E+00
129  1.2800000000000E+00 -2.7585601273354E-02 -7.5981409220165E-02  9.4435997753442E-01
130  1.2900000000000E+00 -2.2754380365692E-02 -6.9676182270540E-02  8.1711724834231E-01
131  1.3000000000000E+00 -1.8523180705315E-02 -6.2041963157849E-02  6.9338353526604E-01
132  1.3100000000000E+00 -1.4836773296521E-02 -5.3553318646918E-02  5.7509577764483E-01
133  1.3200000000000E+00 -1.1642133079577E-02 -4.4665353366998E-02  4.6409443117769E-01
134  1.3300000000000E+00 -8.8908480535394E-03 -3.5803863401127E-02  3.6208794814371E-01
135  1.3400000000000E+00 -6.5550028639858E-03 -2.7319527846020E-02  2.7052611393369E-01