Ts    ONCVPSP-4.0.1  r_core=   1.40055   1.40055   1.45173   1.60713
117.0000     25.0000      231012    zatom,zion,pspd
8 -116133   3     4   600     0    pspcod,pspxc,lmax,lloc,mmax,r2well
5.99000000  5.00000000  0.00000000    rchrg fchrg qchrg
2     2     2     2     0    nproj
1     1           extension_switch
0                         1.4098273618558E+01 -3.0680371084642E-01
1  0.0000000000000E+00  4.2147951795357E-10  9.5957399526281E-09
2  1.0000000000000E-02  8.1834053632699E-02  2.1546006751364E-02
3  2.0000000000000E-02  1.6347883273936E-01  4.3202229845924E-02
4  3.0000000000000E-02  2.4474535782273E-01  6.5073852734268E-02
5  4.0000000000000E-02  3.2544524361607E-01  8.7256111277197E-02
6  5.0000000000000E-02  4.0539100652001E-01  1.0982961290923E-01
7  6.0000000000000E-02  4.8439638411666E-01  1.3285600032084E-01
8  7.0000000000000E-02  5.6227667027943E-01  1.5637406293861E-01
9  8.0000000000000E-02  6.3884906897548E-01  1.8039638988633E-01
10  9.0000000000000E-02  7.1393306934716E-01  2.0490664649991E-01
11  1.0000000000000E-01  7.8735084407043E-01  2.2985754308643E-01
12  1.1000000000000E-01  8.5892767233254E-01  2.5516954974747E-01
13  1.2000000000000E-01  9.2849238806410E-01  2.8073039503898E-01
14  1.3000000000000E-01  9.9587785331387E-01  3.0639536935515E-01
15  1.4000000000000E-01  1.0609214558864E+00  3.3198843655604E-01
16  1.5000000000000E-01  1.1234656295863E+00  3.5730413987688E-01
17  1.6000000000000E-01  1.1833583946469E+00  3.8211027092804E-01
18  1.7000000000000E-01  1.2404539151792E+00  4.0615125398583E-01
19  1.8000000000000E-01  1.2946130697771E+00  4.2915218213637E-01
20  1.9000000000000E-01  1.3457040307681E+00  4.5082342750000E-01
21  2.0000000000000E-01  1.3936028470247E+00  4.7086573503820E-01
22  2.1000000000000E-01  1.4381940247534E+00  4.8897569859985E-01
23  2.2000000000000E-01  1.4793711002787E+00  5.0485150913291E-01
24  2.3000000000000E-01  1.5170371985340E+00  5.1819885855740E-01
25  2.4000000000000E-01  1.5511055707792E+00  5.2873687880889E-01
26  2.5000000000000E-01  1.5815001049814E+00  5.3620399410620E-01
27  2.6000000000000E-01  1.6081558023284E+00  5.4036356560629E-01
28  2.7000000000000E-01  1.6310192134927E+00  5.4100921126916E-01
29  2.8000000000000E-01  1.6500488285260E+00  5.3796968988721E-01
30  2.9000000000000E-01  1.6652154146332E+00  5.3111324671638E-01
31  3.0000000000000E-01  1.6765022965502E+00  5.2035132880167E-01
32  3.1000000000000E-01  1.6839055748133E+00  5.0564159069481E-01
33  3.2000000000000E-01  1.6874342778644E+00  4.8699012555514E-01
34  3.3000000000000E-01  1.6871104446545E+00  4.6445287229987E-01
35  3.4000000000000E-01  1.6829691351931E+00  4.3813616620123E-01
36  3.5000000000000E-01  1.6750583673183E+00  4.0819641775447E-01
37  3.6000000000000E-01  1.6634389788155E+00  3.7483892239725E-01
38  3.7000000000000E-01  1.6481844148866E+00  3.3831582136282E-01
39  3.8000000000000E-01  1.6293804418364E+00  2.9892325122390E-01
40  3.9000000000000E-01  1.6071247886959E+00  2.5699773615394E-01
41  4.0000000000000E-01  1.5815267193174E+00  2.1291189225053E-01
42  4.1000000000000E-01  1.5527065382508E+00  1.6706952709330E-01
43  4.2000000000000E-01  1.5207950344169E+00  1.1990022975553E-01
44  4.3000000000000E-01  1.4859328672343E+00  7.1853556483662E-02
45  4.4000000000000E-01  1.4482699004143E+00  2.3392924993675E-02
46  4.5000000000000E-01  1.4079644890987E+00 -2.5010664370176E-02
47  4.6000000000000E-01  1.3651827263885E+00 -7.2884959619450E-02
48  4.7000000000000E-01  1.3200976555752E+00 -1.1976271911948E-01
49  4.8000000000000E-01  1.2728884545503E+00 -1.6518778595251E-01
50  4.9000000000000E-01  1.2237395989272E+00 -2.0872086104205E-01
51  5.0000000000000E-01  1.1728400103684E+00 -2.4994486893246E-01
52  5.1000000000000E-01  1.1203821964699E+00 -2.8846981990485E-01
53  5.2000000000000E-01  1.0665613883272E+00 -3.2393708397236E-01
54  5.3000000000000E-01  1.0115746815930E+00 -3.5602300596874E-01
55  5.4000000000000E-01  9.5562018645217E-01 -3.8444180612604E-01
56  5.5000000000000E-01  8.9889619149500E-01 -4.0894772688392E-01
57  5.6000000000000E-01  8.4160034597362E-01 -4.2933640382586E-01
58  5.7000000000000E-01  7.8392886439642E-01 -4.4544545620362E-01
59  5.8000000000000E-01  7.2607575686441E-01 -4.5715431009772E-01
60  5.9000000000000E-01  6.6823208799322E-01 -4.6438328446689E-01
61  6.0000000000000E-01  6.1058526671161E-01 -4.6709198676892E-01
62  6.1000000000000E-01  5.5331836869382E-01 -4.6527708011276E-01
63  6.2000000000000E-01  4.9660949268157E-01 -4.5896949767146E-01
64  6.3000000000000E-01  4.4063115149424E-01 -4.4823119202441E-01
65  6.4000000000000E-01  3.8554969812142E-01 -4.3315151692464E-01
66  6.5000000000000E-01  3.3152478695117E-01 -4.1384334646310E-01
67  6.6000000000000E-01  2.7870886991394E-01 -3.9043904154514E-01
68  6.7000000000000E-01  2.2724672712359E-01 -3.6308637587412E-01
69  6.8000000000000E-01  1.7727503147345E-01 -3.3194453318713E-01
70  6.9000000000000E-01  1.2892194659857E-01 -2.9718028430243E-01
71  7.0000000000000E-01  8.2306757642877E-02 -2.5896444667282E-01
72  7.1000000000000E-01  3.7539534367301E-02 -2.1746872071777E-01
73  7.2000000000000E-01 -5.2791737031954E-03 -1.7286298640403E-01
74  7.3000000000000E-01 -4.6058610178707E-02 -1.2531313060276E-01
75  7.4000000000000E-01 -8.4718052571323E-02 -7.4979460955979E-02
76  7.5000000000000E-01 -1.2118702045424E-01 -2.2015745672302E-02
77  7.6000000000000E-01 -1.5540545021829E-01  3.3431098779744E-02
78  7.7000000000000E-01 -1.8732383530405E-01  9.1220668305197E-02
79  7.8000000000000E-01 -2.1690333046688E-01  1.5121809486454E-01
80  7.9000000000000E-01 -2.4411581833217E-01  2.1329246629354E-01
81  8.0000000000000E-01 -2.6894393623299E-01  2.7731469314154E-01
82  8.1000000000000E-01 -2.9138106110610E-01  3.4315489018928E-01
83  8.2000000000000E-01 -3.1143125006769E-01  4.1067935565639E-01
84  8.3000000000000E-01 -3.2910913420886E-01  4.7974724463617E-01
85  8.4000000000000E-01 -3.4443976315312E-01  5.5020704464422E-01
86  8.5000000000000E-01 -3.5745839801147E-01  6.2189297002841E-01
87  8.6000000000000E-01 -3.6821025056148E-01  6.9462139810246E-01
88  8.7000000000000E-01 -3.7675016676882E-01  7.6818747303530E-01
89  8.8000000000000E-01 -3.8314225316310E-01  8.4236200361978E-01
90  8.9000000000000E-01 -3.8745944507431E-01  9.1688877799301E-01
91  9.0000000000000E-01 -3.8978301632547E-01  9.9148241219160E-01
92  9.1000000000000E-01 -3.9020203065636E-01  1.0658268401782E+00
93  9.2000000000000E-01 -3.8881273591047E-01  1.1395745408197E+00
94  9.3000000000000E-01 -3.8571790284209E-01  1.2123465824536E+00
95  9.4000000000000E-01 -3.8102611127721E-01  1.2837335484316E+00
96  9.5000000000000E-01 -3.7485098727482E-01  1.3532973877197E+00
97  9.6000000000000E-01 -3.6731039586535E-01  1.4205742136680E+00
98  9.7000000000000E-01 -3.5852559487165E-01  1.4850780518759E+00
99  9.8000000000000E-01 -3.4862035622354E-01  1.5463055151562E+00
100  9.9000000000000E-01 -3.3772006203990E-01  1.6037413604420E+00
101  1.0000000000000E+00 -3.2595078355012E-01  1.6568648596125E+00
102  1.0100000000000E+00 -3.1343835164008E-01  1.7051568941453E+00
103  1.0200000000000E+00 -3.0030742841575E-01  1.7481076627843E+00
104  1.0300000000000E+00 -2.8668058966365E-01  1.7852248724807E+00
105  1.0400000000000E+00 -2.7267742843262E-01  1.8160422662465E+00
106  1.0500000000000E+00 -2.5841369015422E-01  1.8401283276489E+00
107  1.0600000000000E+00 -2.4400044974586E-01  1.8570949908223E+00
108  1.0700000000000E+00 -2.2954334099419E-01  1.8666061774474E+00
109  1.0800000000000E+00 -2.1514184819069E-01  1.8683859783232E+00
110  1.0900000000000E+00 -2.0088866948344E-01  1.8622262971644E+00
111  1.1000000000000E+00 -1.8686916072479E-01  1.8479937781199E+00
112  1.1100000000000E+00 -1.7316086773177E-01  1.8256358463139E+00
113  1.1200000000000E+00 -1.5983315385372E-01  1.7951857022694E+00
114  1.1300000000000E+00 -1.4694692856149E-01  1.7567661263670E+00
115  1.1400000000000E+00 -1.3455448146159E-01  1.7105919681019E+00
116  1.1500000000000E+00 -1.2269942470460E-01  1.6569712167144E+00
117  1.1600000000000E+00 -1.1141674523540E-01  1.5963045741433E+00
118  1.1700000000000E+00 -1.0073296673100E-01  1.5290834780507E+00
119  1.1800000000000E+00 -9.0666419438126E-02  1.4558865509649E+00
120  1.1900000000000E+00 -8.1227614458580E-02  1.3773744813578E+00
121  1.2000000000000E+00 -7.2419717395401E-02  1.2942833725161E+00
122  1.2100000000000E+00 -6.4239114665522E-02  1.2074166253993E+00
123  1.2200000000000E+00 -5.6676064260785E-02  1.1176354511520E+00
124  1.2300000000000E+00 -4.9715421311154E-02  1.0258481372733E+00
125  1.2400000000000E+00 -4.3337427501957E-02  9.3299821799183E-01
126  1.2500000000000E+00 -3.7518552256331E-02  8.4005172338506E-01
127  1.2600000000000E+00 -3.2232372620982E-02  7.4798370304801E-01
128  1.2700000000000E+00 -2.7450478023637E-02  6.5776423787360E-01
129  1.2800000000000E+00 -2.3143385513244E-02  5.7034416749253E-01
130  1.2900000000000E+00 -1.9281450760839E-02  4.8664077088542E-01
131  1.3000000000000E+00 -1.5835760006275E-02  4.0752364317709E-01
132  1.3100000000000E+00 -1.2778986966088E-02  3.3380104385431E-01
133  1.3200000000000E+00 -1.0086210681037E-02  2.6620669599032E-01
134  1.3300000000000E+00 -7.7356871977002E-03  2.0538739385636E-01
135  1.3400000000000E+00 -5.7130655885885E-03  1.5180496555131E-01
136  1.3500000000000E+00 -4.0063848563891E-03  1.0585036147189E-01
137  1.3600000000000E+00 -2.6027746015655E-03  6.7942996086148E-02
138  1.3700000000000E+00 -1.4963463035626E-03  3.8353177784157E-02
139  1.3800000000000E+00 -6.8813089959653E-04  1.7212783038689E-02
140  1.3900000000000E+00 -1.8326364476960E-04  4.4496422945027E-03
141  1.4000000000000E+00 -2.4634160302880E-06  5.7823679360057E-05
142  1.4100000000000E+00 -8.2940770492634E-07  1.9618096545161E-05
143  1.4200000000000E+00  2.6702644388692E-07 -6.4245394386099E-06
144  1.43 -0. -0.
145  1.44  0.  0.
146  1.45  0.  0.
147  1.46  0.  0.
148  1.47  0.  0.
149  1.48  0.  0.
150  1.49  0.  0.
151  1.50  0.  0.
152  1.51  0.  0.
153  1.52  0.  0.
154  1.53  0.  0.
155  1.54  0.  0.
156  1.55  0.  0.
157  1.56  0.  0.
158  1.57  0.  0.
159  1.58  0.  0.
160  1.59  0.  0.
161  1.60  0.  0.
162  1.61  0.  0.
163  1.62  0.  0.
164  1.63  0.  0.
165  1.64  0.  0.
166  1.65  0.  0.
167  1.66  0.  0.
168  1.67  0.  0.
169  1.68  0.  0.
170  1.69  0.  0.
171  1.70  0.  0.
172  1.71  0.  0.
173  1.72  0.  0.
174  1.73  0.  0.
175  1.74  0.  0.
176  1.75  0.  0.
177  1.76  0.  0.
178  1.77  0.  0.
179  1.78  0.  0.
180  1.79  0.  0.
181  1.80  0.  0.
182  1.81  0.  0.
183  1.82  0.  0.
184  1.83  0.  0.
185  1.84  0.  0.
186  1.85  0.  0.
187  1.86  0.  0.
188  1.87  0.  0.
189  1.88  0.  0.
190  1.89  0.  0.
191  1.90  0.  0.
192  1.91  0.  0.
193  1.92  0.  0.
194  1.93  0.  0.
195  1.94  0.  0.
196  1.95  0.  0.
197  1.96  0.  0.
198  1.97  0.  0.
199  1.98  0.  0.
200  1.99  0.  0.
201  2.00  0.  0.
202  2.01  0.  0.
203  2.02  0.  0.
204  2.03  0.  0.
205  2.04  0.  0.
206  2.05  0.  0.
207  2.06  0.  0.
208  2.07  0.  0.
209  2.08  0.  0.
210  2.09  0.  0.
211  2.10  0.  0.
212  2.11  0.  0.
213  2.12  0.  0.
214  2.13  0.  0.
215  2.14  0.  0.
216  2.15  0.  0.
217  2.16  0.  0.
218  2.17  0.  0.
219  2.18  0.  0.
220  2.19  0.  0.
221  2.20  0.  0.
222  2.21  0.  0.
223  2.22  0.  0.
224  2.23  0.  0.
225  2.24  0.  0.
226  2.25  0.  0.
227  2.26  0.  0.
228  2.27  0.  0.
229  2.28  0.  0.
230  2.29  0.  0.
231  2.30  0.  0.
232  2.31  0.  0.
233  2.32  0.  0.
234  2.33  0.  0.
235  2.34  0.  0.
236  2.35  0.  0.
237  2.36  0.  0.
238  2.37  0.  0.
239  2.38  0.  0.
240  2.39  0.  0.
241  2.40  0.  0.
242  2.41  0.  0.
243  2.42  0.  0.
244  2.43  0.  0.
245  2.44  0.  0.
246  2.45  0.  0.
247  2.46  0.  0.
248  2.47  0.  0.
249  2.48  0.  0.
250  2.49  0.  0.
251  2.50  0.  0.
252  2.51  0.  0.
253  2.52  0.  0.
254  2.53  0.  0.
255  2.54  0.  0.
256  2.55  0.  0.
257  2.56  0.  0.
258  2.57  0.  0.
259  2.58  0.  0.
260  2.59  0.  0.
261  2.60  0.  0.
262  2.61  0.  0.
263  2.62  0.  0.
264  2.63  0.  0.
265  2.64  0.  0.
266  2.65  0.  0.
267  2.66  0.  0.
268  2.67  0.  0.
269  2.68  0.  0.
270  2.69  0.  0.
271  2.70  0.  0.
272  2.71  0.  0.
273  2.72  0.  0.
274  2.73  0.  0.
275  2.74  0.  0.
276  2.75  0.  0.
277  2.76  0.  0.
278  2.77  0.  0.
279  2.78  0.  0.
280  2.79  0.  0.
281  2.80  0.  0.
282  2.81  0.  0.
283  2.82  0.  0.
284  2.83  0.  0.
285  2.84  0.  0.
286  2.85  0.  0.
287  2.86  0.  0.
288  2.87  0.  0.
289  2.88  0.  0.
290  2.89  0.  0.
291  2.90  0.  0.
292  2.91  0.  0.
293  2.92  0.  0.
294  2.93  0.  0.
295  2.94  0.  0.
296  2.95  0.  0.
297  2.96  0.  0.
298  2.97  0.  0.
299  2.98  0.  0.
300  2.99  0.  0.
301  3.00  0.  0.
302  3.01  0.  0.
303  3.02  0.  0.
304  3.03  0.  0.
305  3.04  0.  0.
306  3.05  0.  0.
307  3.06  0.  0.
308  3.07  0.  0.
309  3.08  0.  0.
310  3.09  0.  0.
311  3.10  0.  0.
312  3.11  0.  0.
313  3.12  0.  0.
314  3.13  0.  0.
315  3.14  0.  0.
316  3.15  0.  0.
317  3.16  0.  0.
318  3.17  0.  0.
319  3.18  0.  0.
320  3.19  0.  0.
321  3.20  0.  0.
322  3.21  0.  0.
323  3.22  0.  0.
324  3.23  0.  0.
325  3.24  0.  0.
326  3.25  0.  0.
327  3.26  0.  0.
328  3.27  0.  0.
329  3.28  0.  0.
330  3.29  0.  0.
331  3.30  0.  0.
332  3.31  0.  0.
333  3.32  0.  0.
334  3.33  0.  0.
335  3.34  0.  0.
336  3.35  0.  0.
337  3.36  0.  0.
338  3.37  0.  0.
339  3.38  0.  0.
340  3.39  0.  0.
341  3.40  0.  0.
342  3.41  0.  0.
343  3.42  0.  0.
344  3.43  0.  0.
345  3.44  0.  0.
346  3.45  0.  0.
347  3.46  0.  0.
348  3.47  0.  0.
349  3.48  0.  0.
350  3.49  0.  0.
351  3.50  0.  0.
352  3.51  0.  0.
353  3.52  0.  0.
354  3.53  0.  0.
355  3.54  0.  0.
356  3.55  0.  0.
357  3.56  0.  0.
358  3.57  0.  0.
359  3.58  0.  0.
360  3.59  0.  0.
361  3.60  0.  0.
362  3.61  0.  0.
363  3.62  0.  0.
364  3.63  0.  0.
365  3.64  0.  0.
366  3.65  0.  0.
367  3.66  0.  0.
368  3.67  0.  0.
369  3.68  0.  0.
370  3.69  0.  0.
371  3.70  0.  0.
372  3.71  0.  0.
373  3.72  0.  0.
374  3.73  0.  0.
375  3.74  0.  0.
376  3.75  0.  0.
377  3.76  0.  0.
378  3.77  0.  0.
379  3.78  0.  0.
380  3.79  0.  0.
381  3.80  0.  0.
382  3.81  0.  0.
383  3.82  0.  0.
384  3.83  0.  0.
385  3.84  0.  0.
386  3.85  0.  0.
387  3.86  0.  0.
388  3.87  0.  0.
389  3.88  0.  0.
390  3.89  0.  0.
391  3.90  0.  0.
392  3.91  0.  0.
393  3.92  0.  0.
394  3.93  0.  0.
395  3.94  0.  0.
396  3.95  0.  0.
397  3.96  0.  0.
398  3.97  0.  0.
399  3.98  0.  0.
400  3.99  0.  0.
401  4.00  0.  0.
402  4.01  0.  0.
403  4.02  0.  0.
404  4.03  0.  0.
405  4.04  0.  0.
406  4.05  0.  0.
407  4.06  0.  0.
408  4.07  0.  0.
409  4.08  0.  0.
410  4.09  0.  0.
411  4.10  0.  0.
412  4.11  0.  0.
413  4.12  0.  0.
414  4.13  0.  0.
415  4.14  0.  0.
416  4.15  0.  0.
417  4.16  0.  0.
418  4.17  0.  0.
419  4.18  0.  0.
420  4.19  0.  0.
421  4.20  0.  0.
422  4.21  0.  0.
423  4.22  0.  0.
424  4.23  0.  0.
425  4.24  0.  0.
426  4.25  0.  0.
427  4.26  0.  0.
428  4.27  0.  0.
429  4.28  0.  0.
430  4.29  0.  0.
431  4.30  0.  0.
432  4.31  0.  0.
433  4.32  0.  0.
434  4.33  0.  0.
435  4.34  0.  0.
436  4.35  0.  0.
437  4.36  0.  0.
438  4.37  0.  0.
439  4.38  0.  0.
440  4.39  0.  0.
441  4.40  0.  0.
442  4.41  0.  0.
443  4.42  0.  0.
444  4.43  0.  0.
445  4.44  0.  0.
446  4.45  0.  0.
447  4.46  0.  0.
448  4.47  0.  0.
449  4.48  0.  0.
450  4.49  0.  0.
451  4.50  0.  0.
452  4.51  0.  0.
453  4.52  0.  0.
454  4.53  0.  0.
455  4.54  0.  0.
456  4.55  0.  0.
457  4.56  0.  0.
458  4.57  0.  0.
459  4.58  0.  0.
460  4.59  0.  0.
461  4.60  0.  0.
462  4.61  0.  0.
463  4.62  0.  0.
464  4.63  0.  0.
465  4.64  0.  0.
466  4.65  0.  0.
467  4.66  0.  0.
468  4.67  0.  0.
469  4.68  0.  0.
470  4.69  0.  0.
471  4.70  0.  0.
472  4.71  0.  0.
473  4.72  0.  0.
474  4.73  0.  0.
475  4.74  0.  0.
476  4.75  0.  0.
477  4.76  0.  0.
478  4.77  0.  0.
479  4.78  0.  0.
480  4.79  0.  0.
481  4.80  0.  0.
482  4.81  0.  0.
483  4.82  0.  0.
484  4.83  0.  0.
485  4.84  0.  0.
486  4.85  0.  0.
487  4.86  0.  0.
488  4.87  0.  0.
489  4.88  0.  0.
490  4.89  0.  0.
491  4.90  0.  0.
492  4.91  0.  0.
493  4.92  0.  0.
494  4.93  0.  0.
495  4.94  0.  0.
496  4.95  0.  0.
497  4.96  0.  0.
498  4.97  0.  0.
499  4.98  0.  0.
500  4.99  0.  0.
501  5.00  0.  0.
502  5.01  0.  0.
503  5.02  0.  0.
504  5.03  0.  0.
505  5.04  0.  0.
506  5.05  0.  0.
507  5.06  0.  0.
508  5.07  0.  0.
509  5.08  0.  0.
510  5.09  0.  0.
511  5.10  0.  0.
512  5.11  0.  0.
513  5.12  0.  0.
514  5.13  0.  0.
515  5.14  0.  0.
516  5.15  0.  0.
517  5.16  0.  0.
518  5.17  0.  0.
519  5.18  0.  0.
520  5.19  0.  0.
521  5.20  0.  0.
522  5.21  0.  0.
523  5.22  0.  0.
524  5.23  0.  0.
525  5.24  0.  0.
526  5.25  0.  0.
527  5.26  0.  0.
528  5.27  0.  0.
529  5.28  0.  0.
530  5.29  0.  0.
531  5.30  0.  0.
532  5.31  0.  0.
533  5.32  0.  0.
534  5.33  0.  0.
535  5.34  0.  0.
536  5.35  0.  0.
537  5.36  0.  0.
538  5.37  0.  0.
539  5.38  0.  0.
540  5.39  0.  0.
541  5.40  0.  0.
542  5.41  0.  0.
543  5.42  0.  0.
544  5.43  0.  0.
545  5.44  0.  0.
546  5.45  0.  0.
547  5.46  0.  0.
548  5.47  0.  0.
549  5.48  0.  0.
550  5.49  0.  0.
551  5.50  0.  0.
552  5.51  0.  0.
553  5.52  0.  0.
554  5.53  0.  0.
555  5.54  0.  0.
556  5.55  0.  0.
557  5.56  0.  0.
558  5.57  0.  0.
559  5.58  0.  0.
560  5.59  0.  0.
561  5.60  0.  0.
562  5.61  0.  0.
563  5.62  0.  0.
564  5.63  0.  0.
565  5.64  0.  0.
566  5.65  0.  0.
567  5.66  0.  0.
568  5.67  0.  0.
569  5.68  0.  0.
570  5.69  0.  0.
571  5.70  0.  0.
572  5.71  0.  0.
573  5.72  0.  0.
574  5.73  0.  0.
575  5.74  0.  0.
576  5.75  0.  0.
577  5.76  0.  0.
578  5.77  0.  0.
579  5.78  0.  0.
580  5.79  0.  0.
581  5.80  0.  0.
582  5.81  0.  0.
583  5.82  0.  0.
584  5.83  0.  0.
585  5.84  0.  0.
586  5.85  0.  0.
587  5.86  0.  0.
588  5.87  0.  0.
589  5.88  0.  0.
590  5.89  0.  0.
591  5.90  0.  0.
592  5.91  0.  0.
593  5.92  0.  0.
594  5.93  0.  0.
595  5.94  0.  0.
596  5.95  0.  0.
597  5.96  0.  0.
598  5.97  0.  0.
599  5.98  0.  0.
600  5.99  0.  0.
1                         1.3725053262929E+01  1.3462873075418E+00
1  0.0000000000000E+00 -4.6272048831453E-09  1.6994078241850E-08
2  1.0000000000000E-02  1.7942803568355E-03 -6.7539058110782E-04
3  2.0000000000000E-02  7.1727185103707E-03 -2.7070616639295E-03
4  3.0000000000000E-02  1.6122026335144E-02 -6.1111557620912E-03
5  4.0000000000000E-02  2.8619795297247E-02 -1.0913402763579E-02
6  5.0000000000000E-02  4.4634114121399E-02 -1.7147395694833E-02
7  6.0000000000000E-02  6.4123053551900E-02 -2.4852250199204E-02
8  7.0000000000000E-02  8.7034037585090E-02 -3.4069718777501E-02
9  8.0000000000000E-02  1.1330312517813E-01 -4.4840847832402E-02
10  9.0000000000000E-02  1.4285423041622E-01 -5.7202280190966E-02
11  1.0000000000000E-01  1.7559831233793E-01 -7.1182317652269E-02
12  1.1000000000000E-01  2.1143256798550E-01 -8.6796866892305E-02
13  1.2000000000000E-01  2.5023966369520E-01 -1.0404539750870E-01
14  1.3000000000000E-01  2.9188704012698E-01 -1.2290704294140E-01
15  1.4000000000000E-01  3.3622632603196E-01 -1.4333697339121E-01
16  1.5000000000000E-01  3.8309289427585E-01 -1.6526316469690E-01
17  1.6000000000000E-01  4.3230559120668E-01 -1.8858367853815E-01
18  1.7000000000000E-01  4.8366666713034E-01 -2.1316455750830E-01
19  1.8000000000000E-01  5.3696193151646E-01 -2.3883842383744E-01
20  1.9000000000000E-01  5.9196115169915E-01 -2.6540385320899E-01
21  2.0000000000000E-01  6.4841870838079E-01 -2.9262557563692E-01
22  2.1000000000000E-01  7.0607451532786E-01 -3.2023553425136E-01
23  2.2000000000000E-01  7.6465520441223E-01 -3.4793481061551E-01
24  2.3000000000000E-01  8.2387557075698E-01 -3.7539640244101E-01
25  2.4000000000000E-01  8.8344026635440E-01 -4.0226881687009E-01
26  2.5000000000000E-01  9.4304572429752E-01 -4.2818042044668E-01
27  2.6000000000000E-01  1.0023822898665E+00 -4.5274446608285E-01
28  2.7000000000000E-01  1.0611365292892E+00 -4.7556469829927E-01
29  2.8000000000000E-01  1.1189936821939E+00 -4.9624142128680E-01
30  2.9000000000000E-01  1.1756402197184E+00 -5.1437790036169E-01
31  3.0000000000000E-01  1.2307664670406E+00 -5.2958695655710E-01
32  3.1000000000000E-01  1.2840692468464E+00 -5.4149760672242E-01
33  3.2000000000000E-01  1.3352544990048E+00 -5.4976159781483E-01
34  3.3000000000000E-01  1.3840398315289E+00 -5.5405968419907E-01
35  3.4000000000000E-01  1.4301569587719E+00 -5.5410750075697E-01
36  3.5000000000000E-01  1.4733539847269E+00 -5.4966089238641E-01
37  3.6000000000000E-01  1.5133974922326E+00 -5.4052057187947E-01
38  3.7000000000000E-01  1.5500744027596E+00 -5.2653599295531E-01
39  3.8000000000000E-01  1.5831935761837E+00 -5.0760834304156E-01
40  3.9000000000000E-01  1.6125871254246E+00 -4.8369258082071E-01
41  4.0000000000000E-01  1.6381114269089E+00 -4.5479846608891E-01
42  4.1000000000000E-01  1.6596478143583E+00 -4.2099055355593E-01
43  4.2000000000000E-01  1.6771029502494E+00 -3.8238714724485E-01
44  4.3000000000000E-01  1.6904088762575E+00 -3.3915823749406E-01
45  4.4000000000000E-01  1.6995227509314E+00 -2.9152246757464E-01
46  4.5000000000000E-01  1.7044262895454E+00 -2.3974320096593E-01
47  4.6000000000000E-01  1.7051249273972E+00 -1.8412378275331E-01
48  4.7000000000000E-01  1.7016467335819E+00 -1.2500210882778E-01
49  4.8000000000000E-01  1.6940411073384E+00 -6.2744634037233E-02
50  4.9000000000000E-01  1.6823772932954E+00  2.2600353202312E-03
51  5.0000000000000E-01  1.6667427552327E+00  6.9607808658932E-02
52  5.1000000000000E-01  1.6472414502316E+00  1.3888587525308E-01
53  5.2000000000000E-01  1.6239920462503E+00  2.0967940018802E-01
54  5.3000000000000E-01  1.5971261261989E+00  2.8157798869096E-01
55  5.4000000000000E-01  1.5667864204937E+00  3.5418176144533E-01
56  5.5000000000000E-01  1.5331251078664E+00  4.2710689368055E-01
57  5.6000000000000E-01  1.4963022209523E+00  4.9999048496050E-01
58  5.7000000000000E-01  1.4564841889506E+00  5.7249464434528E-01
59  5.8000000000000E-01  1.4138425445632E+00  6.4430969655100E-01
60  5.9000000000000E-01  1.3685528165941E+00  7.1515643837236E-01
61  6.0000000000000E-01  1.3207936231930E+00  7.8478740037730E-01
62  6.1000000000000E-01  1.2707459739155E+00  8.5298709608090E-01
63  6.2000000000000E-01  1.2185927817377E+00  9.1957126876472E-01
64  6.3000000000000E-01  1.1645185790862E+00  9.8438517409975E-01
65  6.4000000000000E-01  1.1087094250330E+00  1.0473009640204E+00
66  6.5000000000000E-01  1.0513529842348E+00  1.1082142631544E+00
67  6.6000000000000E-01  9.9263875216626E-01  1.1670400528351E+00
68  6.7000000000000E-01  9.3275839587277E-01  1.2237079986482E+00
69  6.8000000000000E-01  8.7190617501151E-01  1.2781573750015E+00
70  6.9000000000000E-01  8.1027940449409E-01  1.3303317538325E+00
71  7.0000000000000E-01  7.4807891770521E-01  1.3801736338583E+00
72  7.1000000000000E-01  6.8550948812973E-01  1.4276191914127E+00
73  7.2000000000000E-01  6.2278016733334E-01  1.4725933336909E+00
74  7.3000000000000E-01  5.6010449862686E-01  1.5150052300641E+00
75  7.4000000000000E-01  4.9770056839275E-01  1.5547444870654E+00
76  7.5000000000000E-01  4.3579086091478E-01  1.5916781178709E+00
77  7.6000000000000E-01  3.7460188755230E-01  1.6256484378912E+00
78  7.7000000000000E-01  3.1436356712621E-01  1.6564719948730E+00
79  7.8000000000000E-01  2.5530834129431E-01  1.6839396152119E+00
80  7.9000000000000E-01  1.9767001632461E-01  1.7078176186325E+00
81  8.0000000000000E-01  1.4168233083466E-01  1.7278502216959E+00
82  8.1000000000000E-01  8.7577257548858E-02  1.7437631175531E+00
83  8.2000000000000E-01  3.5583055711923E-02  1.7552681857824E+00
84  8.3000000000000E-01 -1.4077900740650E-02  1.7620692529127E+00
85  8.4000000000000E-01 -6.1191486045446E-02  1.7638687921950E+00
86  8.5000000000000E-01 -1.0555433576756E-01  1.7603754212057E+00
87  8.6000000000000E-01 -1.4697646277455E-01  1.7513120287682E+00
88  8.7000000000000E-01 -1.8528392281029E-01  1.7364243392205E+00
89  8.8000000000000E-01 -2.2032147188177E-01  1.7154897029259E+00
90  8.9000000000000E-01 -2.5195515442917E-01  1.6883258877156E+00
91  9.0000000000000E-01 -2.8007475945491E-01  1.6547996371314E+00
92  9.1000000000000E-01 -3.0459608153019E-01  1.6148347582683E+00
93  9.2000000000000E-01 -3.2546292492935E-01  1.5684195049031E+00
94  9.3000000000000E-01 -3.4264879207556E-01  1.5156130305145E+00
95  9.4000000000000E-01 -3.5615820198840E-01  1.4565507006527E+00
96  9.5000000000000E-01 -3.6602759043862E-01  1.3914480747015E+00
97  9.6000000000000E-01 -3.7232575092842E-01  1.3206033929749E+00
98  9.7000000000000E-01 -3.7515378428633E-01  1.2443984358217E+00
99  9.8000000000000E-01 -3.7464453441076E-01  1.1632976562965E+00
100  9.9000000000000E-01 -3.7096149831123E-01  1.0778455262489E+00
101  1.0000000000000E+00 -3.6429720984319E-01  9.8866207651404E-01
102  1.0100000000000E+00 -3.5487110815674E-01  8.9643665431828E-01
103  1.0200000000000E+00 -3.4292691360089E-01  8.0191996401118E-01
104  1.0300000000000E+00 -3.2872954538731E-01  7.0591449984365E-01
105  1.0400000000000E+00 -3.1256162641287E-01  6.0926352060178E-01
106  1.0500000000000E+00 -2.9471963100138E-01  5.1283875447292E-01
107  1.0600000000000E+00 -2.7550974070988E-01  4.1752705766566E-01
108  1.0700000000000E+00 -2.5524348146637E-01  3.2421628095911E-01
109  1.0800000000000E+00 -2.3423322198275E-01  2.3378062382960E-01
110  1.0900000000000E+00 -2.1278761841004E-01  1.4706577531727E-01
111  1.1000000000000E+00 -1.9120709341823E-01  6.4874153754941E-02
112  1.1100000000000E+00 -1.6977943918722E-01 -1.2049436503019E-02
113  1.1200000000000E+00 -1.4877563311115E-01 -8.3031414454690E-02
114  1.1300000000000E+00 -1.2844595231577E-01 -1.4748198964842E-01
115  1.1400000000000E+00 -1.0901646841446E-01 -2.0490639477773E-01
116  1.1500000000000E+00 -9.0685997308450E-02 -2.5491451424696E-01
117  1.1600000000000E+00 -7.3623570457215E-02 -2.9722866877410E-01
118  1.1700000000000E+00 -5.7966483962401E-02 -3.3168935187744E-01
119  1.1800000000000E+00 -4.3818970374915E-02 -3.5825875489895E-01
120  1.1900000000000E+00 -3.1251525383281E-02 -3.7702196292069E-01
121  1.2000000000000E+00 -2.0300907995287E-02 -3.8818575264216E-01
122  1.2100000000000E+00 -1.0970818505208E-02 -3.9207497491897E-01
123  1.2200000000000E+00 -3.2332440021167E-03 -3.8912655719586E-01
124  1.2300000000000E+00  2.9695534036378E-03 -3.7988121385359E-01
125  1.2400000000000E+00  7.7224447382197E-03 -3.6497300428316E-01
126  1.2500000000000E+00  1.1134291335894E-02 -3.4511692764641E-01
127  1.2600000000000E+00  1.3334316323838E-02 -3.2109478938492E-01
128  1.2700000000000E+00  1.4468067051521E-02 -2.9373961584304E-01
129  1.2800000000000E+00  1.4693054887636E-02 -2.6391892912563E-01
130  1.2900000000000E+00  1.4174166896900E-02 -2.3251722391894E-01
131  1.3000000000000E+00  1.3078949953875E-02 -2.0041801020647E-01
132  1.3100000000000E+00  1.1572878623641E-02 -1.6848582020290E-01
133  1.3200000000000E+00  9.8146541065558E-03 -1.3754839172308E-01
134  1.3300000000000E+00  7.9516977795019E-03 -1.0837961120163E-01
135  1.3400000000000E+00  6.0966062570150E-03 -8.1627127338325E-02
136  1.3500000000000E+00  4.3493968790049E-03 -5.7872253590970E-02
137  1.3600000000000E+00  2.8195823112837E-03 -3.7692850376609E-02
138  1.3700000000000E+00  1.5868352764580E-03 -2.1547600856961E-02
139  1.3800000000000E+00  7.0050815309706E-04 -9.7749278604791E-03
140  1.3900000000000E+00  1.7562843006862E-04 -2.5492270213872E-03
141  1.4000000000000E+00  2.1667379820091E-06 -3.3304537330071E-05
142  1.4100000000000E+00  7.5150899165123E-07 -1.1317256830507E-05
143  1.4200000000000E+00 -2.5113300813381E-07  3.6895481600614E-06
144  1.43 -0. -0.
145  1.44  0.  0.
146  1.45  0.  0.
147  1.46  0.  0.
148  1.47  0.  0.
149  1.48  0.  0.
150  1.49  0.  0.
151  1.50  0.  0.
152  1.51  0.  0.
153  1.52  0.  0.
154  1.53  0.  0.
155  1.54  0.  0.
156  1.55  0.  0.
157  1.56  0.  0.
158  1.57  0.  0.
159  1.58  0.  0.
160  1.59  0.  0.
161  1.60  0.  0.
162  1.61  0.  0.
163  1.62  0.  0.
164  1.63  0.  0.
165  1.64  0.  0.
166  1.65  0.  0.
167  1.66  0.  0.
168  1.67  0.  0.
169  1.68  0.  0.
170  1.69  0.  0.
171  1.70  0.  0.
172  1.71  0.  0.
173  1.72  0.  0.
174  1.73  0.  0.
175  1.74  0.  0.
176  1.75  0.  0.
177  1.76  0.  0.
178  1.77  0.  0.
179  1.78  0.  0.
180  1.79  0.  0.
181  1.80  0.  0.
182  1.81  0.  0.
183  1.82  0.  0.
184  1.83  0.  0.
185  1.84  0.  0.
186  1.85  0.  0.
187  1.86  0.  0.
188  1.87  0.  0.
189  1.88  0.  0.
190  1.89  0.  0.
191  1.90  0.  0.
192  1.91  0.  0.
193  1.92  0.  0.
194  1.93  0.  0.
195  1.94  0.  0.
196  1.95  0.  0.
197  1.96  0.  0.
198  1.97  0.  0.
199  1.98  0.  0.
200  1.99  0.  0.
201  2.00  0.  0.
202  2.01  0.  0.
203  2.02  0.  0.
204  2.03  0.  0.
205  2.04  0.  0.
206  2.05  0.  0.
207  2.06  0.  0.
208  2.07  0.  0.
209  2.08  0.  0.
210  2.09  0.  0.
211  2.10  0.  0.
212  2.11  0.  0.
213  2.12  0.  0.
214  2.13  0.  0.
215  2.14  0.  0.
216  2.15  0.  0.
217  2.16  0.  0.
218  2.17  0.  0.
219  2.18  0.  0.
220  2.19  0.  0.
221  2.20  0.  0.
222  2.21  0.  0.
223  2.22  0.  0.
224  2.23  0.  0.
225  2.24  0.  0.
226  2.25  0.  0.
227  2.26  0.  0.
228  2.27  0.  0.
229  2.28  0.  0.
230  2.29  0.  0.
231  2.30  0.  0.
232  2.31  0.  0.
233  2.32  0.  0.
234  2.33  0.  0.
235  2.34  0.  0.
236  2.35  0.  0.
237  2.36  0.  0.
238  2.37  0.  0.
239  2.38  0.  0.
240  2.39  0.  0.
241  2.40  0.  0.
242  2.41  0.  0.
243  2.42  0.  0.
244  2.43  0.  0.
245  2.44  0.  0.
246  2.45  0.  0.
247  2.46  0.  0.
248  2.47  0.  0.
249  2.48  0.  0.
250  2.49  0.  0.
251  2.50  0.  0.
252  2.51  0.  0.
253  2.52  0.  0.
254  2.53  0.  0.
255  2.54  0.  0.
256  2.55  0.  0.
257  2.56  0.  0.
258  2.57  0.  0.
259  2.58  0.  0.
260  2.59  0.  0.
261  2.60  0.  0.
262  2.61  0.  0.
263  2.62  0.  0.
264  2.63  0.  0.
265  2.64  0.  0.
266  2.65  0.  0.
267  2.66  0.  0.
268  2.67  0.  0.
269  2.68  0.  0.
270  2.69  0.  0.
271  2.70  0.  0.
272  2.71  0.  0.
273  2.72  0.  0.
274  2.73  0.  0.
275  2.74  0.  0.