Hs    ONCVPSP-4.0.1  r_core=   1.10501   1.10501   1.10501   1.20154
108.0000     48.0000      231012    zatom,zion,pspd
8   -1012   3     4   600     0    pspcod,pspxc,lmax,lloc,mmax,r2well
5.99000000  3.50000000  0.00000000    rchrg fchrg qchrg
3     3     2     2    nproj
3     1           extension_switch
3     3     3    nprojso
0                        -1.2942048379196E+01  1.1092473232764E+01 -2.7458928358424E-01
1  0.0000000000000E+00 -2.3804458404442E-10  1.3660579778474E-08 -3.7990089851725E-08
2  1.0000000000000E-02  7.0923568273938E-02  1.8150828001801E-01 -2.9393010737871E-02
3  2.0000000000000E-02  1.4171411223891E-01  3.6129398145621E-01 -5.8236325453500E-02
4  3.0000000000000E-02  2.1223874114457E-01  5.3765197754057E-01 -8.5994261550627E-02
5  4.0000000000000E-02  2.8236483253255E-01  7.0891192644527E-01 -1.1215900226877E-01
6  5.0000000000000E-02  3.5196016939443E-01  8.7345536273134E-01 -1.3626411425154E-01
7  6.0000000000000E-02  4.2089308114794E-01  1.0297324156861E+00 -1.5789753221054E-01
8  7.0000000000000E-02  4.8903259002487E-01  1.1762780116084E+00 -1.7671377962176E-01
9  8.0000000000000E-02  5.5624856470215E-01  1.3117274034236E+00 -1.9244515640123E-01
10  9.0000000000000E-02  6.2241188326163E-01  1.4348308566176E+00 -2.0491158614125E-01
11  1.0000000000000E-01  6.8739460780807E-01  1.5444673068900E+00 -2.1402878188731E-01
12  1.1000000000000E-01  7.5107017328254E-01  1.6396567937848E+00 -2.1981436589173E-01
13  1.2000000000000E-01  8.1331359315131E-01  1.7195714674668E+00 -2.2239157036220E-01
14  1.3000000000000E-01  8.7400168470372E-01  1.7835449642778E+00 -2.2199015737676E-01
15  1.4000000000000E-01  9.3301331663271E-01  1.8310799520057E+00 -2.1894423033737E-01
16  1.5000000000000E-01  9.9022968138020E-01  1.8618536589033E+00 -2.1368666876701E-01
17  1.6000000000000E-01  1.0455345943948E+00  1.8757212220014E+00 -2.0674000357048E-01
18  1.7000000000000E-01  1.0988148219631E+00  1.8727167203260E+00 -1.9870366003605E-01
19  1.8000000000000E-01  1.1499604386433E+00  1.8530517969508E+00 -1.9023762805780E-01
20  1.9000000000000E-01  1.1988652145534E+00  1.8171118196033E+00 -1.8204276878563E-01
21  2.0000000000000E-01  1.2454270318711E+00  1.7654495815658E+00 -1.7483812808645E-01
22  2.1000000000000E-01  1.2895483289058E+00  1.6987766012097E+00 -1.6933579240735E-01
23  2.2000000000000E-01  1.3311365690365E+00  1.6179521376663E+00 -1.6621398348082E-01
24  2.3000000000000E-01  1.3701047307098E+00  1.5239700996210E+00 -1.6608923582862E-01
25  2.4000000000000E-01  1.4063718136007E+00  1.4179440815739E+00 -1.6948862613399E-01
26  2.5000000000000E-01  1.4398633549907E+00  1.3010908146908E+00 -1.7682311757091E-01
27  2.6000000000000E-01  1.4705119494609E+00  1.1747123651732E+00 -1.8836313732935E-01
28  2.7000000000000E-01  1.4982577641741E+00  1.0401774497134E+00 -2.0421751544293E-01
29  2.8000000000000E-01  1.5230490413571E+00  8.9890226319433E-01 -2.2431687303545E-01
30  2.9000000000000E-01  1.5448425791400E+00  7.5233122687300E-01 -2.4840245584364E-01
31  3.0000000000000E-01  1.5636041816771E+00  6.0191806489375E-01 -2.7602126439065E-01
32  3.1000000000000E-01  1.5793090694855E+00  4.4910760270445E-01 -3.0652813811609E-01
33  3.2000000000000E-01  1.5919422412090E+00  2.9531865300517E-01 -3.3909521238358E-01
34  3.3000000000000E-01  1.6014987785372E+00  1.4192831404991E-01 -3.7272889237835E-01
35  3.4000000000000E-01  1.6079840867788E+00 -9.7420471431894E-03 -4.0629418654223E-01
36  3.5000000000000E-01  1.6114140645864E+00 -1.5843891589443E-01 -4.3854592637104E-01
37  3.6000000000000E-01  1.6118151975243E+00 -3.0298671337020E-01 -4.6816608255230E-01
38  3.7000000000000E-01  1.6092245715345E+00 -4.4229577377067E-01 -4.9380608385850E-01
39  3.8000000000000E-01  1.6036898038387E+00 -5.7536822093448E-01 -5.1413276946685E-01
40  3.9000000000000E-01  1.5952688903722E+00 -7.0130182269050E-01 -5.2787637155428E-01
41  4.0000000000000E-01  1.5840299704352E+00 -8.1929196889321E-01 -5.3387874604911E-01
42  4.1000000000000E-01  1.5700510108042E+00 -9.2863197874823E-01 -5.3113995647147E-01
43  4.2000000000000E-01  1.5534194130348E+00 -1.0287119921350E+00 -5.1886127758203E-01
44  4.3000000000000E-01  1.5342315490514E+00 -1.1190167359650E+00 -4.9648272788059E-01
45  4.4000000000000E-01  1.5125922313179E+00 -1.1991224785317E+00 -4.6371336530308E-01
46  4.5000000000000E-01  1.4886141248833E+00 -1.2686934912997E+00 -4.2055278758763E-01
47  4.6000000000000E-01  1.4624171093682E+00 -1.3274783283354E+00 -3.6730256283893E-01
48  4.7000000000000E-01  1.4341275994814E+00 -1.3753062090007E+00 -3.0456666825539E-01
49  4.8000000000000E-01  1.4038778329199E+00 -1.4120837507511E+00 -2.3324042381123E-01
50  4.9000000000000E-01  1.3718051345200E+00 -1.4377922477053E+00 -1.5448785785178E-01
51  5.0000000000000E-01  1.3380511652871E+00 -1.4524856295004E+00 -6.9707915535826E-02
52  5.1000000000000E-01  1.3027611644714E+00 -1.4562891667526E+00  1.9509600526743E-02
53  5.2000000000000E-01  1.2660831921962E+00 -1.4493989175118E+00  1.1143700563464E-01
54  5.3000000000000E-01  1.2281673793212E+00 -1.4320818369938E+00  2.0426884660936E-01
55  5.4000000000000E-01  1.1891651902785E+00 -1.4046764042168E+00  2.9618700633450E-01
56  5.5000000000000E-01  1.1492287035972E+00 -1.3675935575161E+00  3.8542835686241E-01
57  5.6000000000000E-01  1.1085099137791E+00 -1.3213176795415E+00  4.7035231394955E-01
58  5.7000000000000E-01  1.0671600571522E+00 -1.2664073341464E+00  5.4950554377678E-01
59  5.8000000000000E-01  1.0253289633534E+00 -1.2034954348714E+00  6.2168108165334E-01
60  5.9000000000000E-01  9.8316443321750E-01 -1.1332885191651E+00  6.8596924671967E-01
61  6.0000000000000E-01  9.4081164311270E-01 -1.0565648149474E+00  7.4179797526903E-01
62  6.1000000000000E-01  8.9841257518953E-01 -9.7417081666526E-01  7.8896054260552E-01
63  6.2000000000000E-01  8.5610547262050E-01 -8.8701613582303E-01  8.2762908876710E-01
64  6.3000000000000E-01  8.1402431871469E-01 -7.9606645445232E-01  8.5835289183196E-01
65  6.4000000000000E-01  7.7229833879282E-01 -7.0233448671802E-01  8.8204092466489E-01
66  6.5000000000000E-01  7.3105152389919E-01 -6.0686894072049E-01  8.9992886423259E-01
67  6.6000000000000E-01  6.9040217578892E-01 -5.1074156587784E-01  9.1353137184234E-01
68  6.7000000000000E-01  6.5046247313825E-01 -4.1503246696067E-01  9.2458110115310E-01
69  6.8000000000000E-01  6.1133805955010E-01 -3.2081395956099E-01  9.3495649136650E-01
70  6.9000000000000E-01  5.7312765462987E-01 -2.2913332910947E-01  9.4660093913626E-01
71  7.0000000000000E-01  5.3592269014701E-01 -1.4099493225668E-01  9.6143638979434E-01
72  7.1000000000000E-01  4.9980697403255E-01 -5.7342141575465E-02  9.8127472471119E-01
73  7.2000000000000E-01  4.6485638565055E-01  2.0960321274937E-02  1.0077305292428E+00
74  7.3000000000000E-01  4.3113860637939E-01  9.3143095279160E-02  1.0421388917915E+00
75  7.4000000000000E-01  3.9871289001150E-01  1.5854736311087E-01  1.0854818016280E+00
76  7.5000000000000E-01  3.6762987779468E-01  2.1663796050801E-01  1.1383264798496E+00
77  7.6000000000000E-01  3.3793146306977E-01  2.6701391107204E-01  1.2007785990658E+00
78  7.7000000000000E-01  3.0965071039041E-01  3.0941595407155E-01  1.2724528342300E+00
79  7.8000000000000E-01  2.8281183373265E-01  3.4373072165406E-01  1.3524625564711E+00
80  7.9000000000000E-01  2.5743023791424E-01  3.6999132798512E-01  1.4394297564341E+00
81  8.0000000000000E-01  2.3351262665579E-01  3.8837425237890E-01  1.5315154906090E+00
82  8.1000000000000E-01  2.1105717984436E-01  3.9919252688721E-01  1.6264703142514E+00
83  8.2000000000000E-01  1.9005380153125E-01  4.0288537098953E-01  1.7217033310623E+00
84  8.3000000000000E-01  1.7048443903994E-01  4.0000454657340E-01  1.8143676872640E+00
85  8.4000000000000E-01  1.5232347231532E-01  3.9119782983998E-01  1.9014596002150E+00
86  8.5000000000000E-01  1.3553817135144E-01  3.7719010776208E-01  1.9799273718463E+00
87  8.6000000000000E-01  1.2008921823543E-01  3.5876270031917E-01  2.0467863243245E+00
88  8.7000000000000E-01  1.0593128908144E-01  3.3673158157398E-01  2.0992352345412E+00
89  8.8000000000000E-01  9.3013689943066E-02  3.1192521919399E-01  2.1347696547533E+00
90  8.9000000000000E-01  8.1281039722542E-02  2.8516277067722E-01  2.1512875019745E+00
91  9.0000000000000E-01  7.0673992173460E-02  2.5723336385555E-01  2.1471824842684E+00
92  9.1000000000000E-01  6.1129988348137E-02  2.2887714894141E-01  2.1214213060981E+00
93  9.2000000000000E-01  5.2584030290763E-02  2.0076874041930E-01  2.0736011477109E+00
94  9.3000000000000E-01  4.4969466435764E-02  1.7350357164456E-01  2.0039846279941E+00
95  9.4000000000000E-01  3.8218779041620E-02  1.4758756643095E-01  1.9135103121606E+00
96  9.5000000000000E-01  3.2264364070516E-02  1.2343039455178E-01  1.8037777846385E+00
97  9.6000000000000E-01  2.7039294202584E-02  1.0134242718143E-01  1.6770073381982E+00
98  9.7000000000000E-01  2.2478056132607E-02  8.1535349805365E-02  1.5359753932255E+00
99  9.8000000000000E-01  1.8517253913853E-02  6.4126230253890E-02  1.3839278153737E+00
100  9.9000000000000E-01  1.5096270860297E-02  4.9144684890353E-02  1.2244743028153E+00
101  1.0000000000000E+00  1.2157883364506E-02  3.6542642893805E-02  1.0614679258157E+00
102  1.0100000000000E+00  9.6488209014575E-03  2.6206083080896E-02  8.9887468309873E-01
103  1.0200000000000E+00  7.5202674374856E-03  1.7968015083369E-02  7.4063855854739E-01
104  1.0300000000000E+00  5.7283021028629E-03  1.1621899226699E-02  5.9054799399127E-01
105  1.0400000000000E+00  4.2342597055769E-03  6.9346765909247E-03  4.5210987583554E-01
106  1.0500000000000E+00  3.0049773502485E-03  3.6584987306761E-03  3.2843733374484E-01
107  1.0600000000000E+00  2.0056387712385E-03  1.5550666822336E-03  2.2212622769967E-01
108  1.0700000000000E+00  1.2137544029348E-03  3.9223030120621E-04  1.3519566328869E-01
109  1.0800000000000E+00  6.2164621306075E-04 -8.3500983727230E-05  6.9130384318868E-02
110  1.0900000000000E+00  2.2556422991484E-04 -1.3414225442006E-04  2.4866028988286E-02
111  1.1000000000000E+00  2.6477153004249E-05 -2.8113525019999E-05  2.8728095468475E-03
112  1.1100000000000E+00 -1.1495455742044E-06  1.5834356296266E-06 -1.2357363426880E-04
113  1.1200000000000E+00 -8.9014330174368E-08  8.7694785154573E-08 -9.7129230414548E-06
114  1.13  0.  0.  0.
115  1.14  0.  0.  0.
116  1.15  0.  0.  0.
117  1.16  0.  0.  0.
118  1.17  0.  0.  0.
119  1.18  0.  0.  0.
120  1.19  0.  0.  0.
121  1.20  0.  0.  0.
122  1.21  0.  0.  0.
123  1.22  0.  0.  0.
124  1.23  0.  0.  0.
125  1.24  0.  0.  0.
126  1.25  0.  0.  0.
127  1.26  0.  0.  0.
128  1.27  0.  0.  0.
129  1.28  0.  0.  0.
130  1.29  0.  0.  0.
131  1.30  0.  0.  0.
132  1.31  0.  0.  0.
133  1.32  0.  0.  0.
134  1.33  0.  0.  0.
135  1.34  0.  0.  0.
136  1.35  0.  0.  0.
137  1.36  0.  0.  0.
138  1.37  0.  0.  0.
139  1.38  0.  0.  0.
140  1.39  0.  0.  0.
141  1.40  0.  0.  0.
142  1.41  0.  0.  0.
143  1.42  0.  0.  0.
144  1.43  0.  0.  0.
145  1.44  0.  0.  0.
146  1.45  0.  0.  0.
147  1.46  0.  0.  0.
148  1.47  0.  0.  0.
149  1.48  0.  0.  0.
150  1.49  0.  0.  0.
151  1.50  0.  0.  0.
152  1.51  0.  0.  0.
153  1.52  0.  0.  0.
154  1.53  0.  0.  0.
155  1.54  0.  0.  0.
156  1.55  0.  0.  0.
157  1.56  0.  0.  0.
158  1.57  0.  0.  0.
159  1.58  0.  0.  0.
160  1.59  0.  0.  0.
161  1.60  0.  0.  0.
162  1.61  0.  0.  0.
163  1.62  0.  0.  0.
164  1.63  0.  0.  0.
165  1.64  0.  0.  0.
166  1.65  0.  0.  0.
167  1.66  0.  0.  0.
168  1.67  0.  0.  0.
169  1.68  0.  0.  0.
170  1.69  0.  0.  0.
171  1.70  0.  0.  0.
172  1.71  0.  0.  0.
173  1.72  0.  0.  0.
174  1.73  0.  0.  0.
175  1.74  0.  0.  0.
176  1.75  0.  0.  0.
177  1.76  0.  0.  0.
178  1.77  0.  0.  0.
179  1.78  0.  0.  0.
180  1.79  0.  0.  0.
181  1.80  0.  0.  0.
182  1.81  0.  0.  0.
183  1.82  0.  0.  0.
184  1.83  0.  0.  0.
185  1.84  0.  0.  0.
186  1.85  0.  0.  0.
187  1.86  0.  0.  0.
188  1.87  0.  0.  0.
189  1.88  0.  0.  0.
190  1.89  0.  0.  0.
191  1.90  0.  0.  0.
192  1.91  0.  0.  0.
193  1.92  0.  0.  0.
194  1.93  0.  0.  0.
195  1.94  0.  0.  0.
196  1.95  0.  0.  0.
197  1.96  0.  0.  0.
198  1.97  0.  0.  0.
199  1.98  0.  0.  0.
200  1.99  0.  0.  0.
201  2.00  0.  0.  0.
202  2.01  0.  0.  0.
203  2.02  0.  0.  0.
204  2.03  0.  0.  0.
205  2.04  0.  0.  0.
206  2.05  0.  0.  0.
207  2.06  0.  0.  0.
208  2.07  0.  0.  0.
209  2.08  0.  0.  0.
210  2.09  0.  0.  0.
211  2.10  0.  0.  0.
212  2.11  0.  0.  0.
213  2.12  0.  0.  0.
214  2.13  0.  0.  0.
215  2.14  0.  0.  0.
216  2.15  0.  0.  0.
217  2.16  0.  0.  0.
218  2.17  0.  0.  0.
219  2.18  0.  0.  0.
220  2.19  0.  0.  0.
221  2.20  0.  0.  0.
222  2.21  0.  0.  0.
223  2.22  0.  0.  0.
224  2.23  0.  0.  0.
225  2.24  0.  0.  0.
226  2.25  0.  0.  0.
227  2.26  0.  0.  0.
228  2.27  0.  0.  0.
229  2.28  0.  0.  0.
230  2.29  0.  0.  0.
231  2.30  0.  0.  0.
232  2.31  0.  0.  0.
233  2.32  0.  0.  0.
234  2.33  0.  0.  0.
235  2.34  0.  0.  0.
236  2.35  0.  0.  0.
237  2.36  0.  0.  0.
238  2.37  0.  0.  0.
239  2.38  0.  0.  0.
240  2.39  0.  0.  0.
241  2.40  0.  0.  0.
242  2.41  0.  0.  0.
243  2.42  0.  0.  0.
244  2.43  0.  0.  0.
245  2.44  0.  0.  0.
246  2.45  0.  0.  0.
247  2.46  0.  0.  0.
248  2.47  0.  0.  0.
249  2.48  0.  0.  0.
250  2.49  0.  0.  0.
251  2.50  0.  0.  0.
252  2.51  0.  0.  0.
253  2.52  0.  0.  0.
254  2.53  0.  0.  0.
255  2.54  0.  0.  0.
256  2.55  0.  0.  0.
257  2.56  0.  0.  0.
258  2.57  0.  0.  0.
259  2.58  0.  0.  0.
260  2.59  0.  0.  0.
261  2.60  0.  0.  0.
262  2.61  0.  0.  0.
263  2.62  0.  0.  0.
264  2.63  0.  0.  0.
265  2.64  0.  0.  0.
266  2.65  0.  0.  0.
267  2.66  0.  0.  0.
268  2.67  0.  0.  0.
269  2.68  0.  0.  0.
270  2.69  0.  0.  0.
271  2.70  0.  0.  0.
272  2.71  0.  0.  0.
273  2.72  0.  0.  0.
274  2.73  0.  0.  0.
275  2.74  0.  0.  0.
276  2.75  0.  0.  0.
277  2.76  0.  0.  0.
278  2.77  0.  0.  0.
279  2.78  0.  0.  0.
280  2.79  0.  0.  0.
281  2.80  0.  0.  0.
282  2.81  0.  0.  0.
283  2.82  0.  0.  0.
284  2.83  0.  0.  0.
285  2.84  0.  0.  0.
286  2.85  0.  0.  0.
287  2.86  0.  0.  0.
288  2.87  0.  0.  0.
289  2.88  0.  0.  0.
290  2.89  0.  0.  0.
291  2.90  0.  0.  0.
292  2.91  0.  0.  0.
293  2.92  0.  0.  0.
294  2.93  0.  0.  0.
295  2.94  0.  0.  0.
296  2.95  0.  0.  0.
297  2.96  0.  0.  0.
298  2.97  0.  0.  0.
299  2.98  0.  0.  0.
300  2.99  0.  0.  0.
301  3.00  0.  0.  0.
302  3.01  0.  0.  0.
303  3.02  0.  0.  0.
304  3.03  0.  0.  0.
305  3.04  0.  0.  0.
306  3.05  0.  0.  0.
307  3.06  0.  0.  0.
308  3.07  0.  0.  0.
309  3.08  0.  0.  0.
310  3.09  0.  0.  0.
311  3.10  0.  0.  0.
312  3.11  0.  0.  0.
313  3.12  0.  0.  0.
314  3.13  0.  0.  0.
315  3.14  0.  0.  0.
316  3.15  0.  0.  0.
317  3.16  0.  0.  0.
318  3.17  0.  0.  0.
319  3.18  0.  0.  0.
320  3.19  0.  0.  0.
321  3.20  0.  0.  0.
322  3.21  0.  0.  0.
323  3.22  0.  0.  0.
324  3.23  0.  0.  0.
325  3.24  0.  0.  0.
326  3.25  0.  0.  0.
327  3.26  0.  0.  0.
328  3.27  0.  0.  0.
329  3.28  0.  0.  0.
330  3.29  0.  0.  0.
331  3.30  0.  0.  0.
332  3.31  0.  0.  0.
333  3.32  0.  0.  0.
334  3.33  0.  0.  0.
335  3.34  0.  0.  0.
336  3.35  0.  0.  0.
337  3.36  0.  0.  0.
338  3.37  0.  0.  0.
339  3.38  0.  0.  0.
340  3.39  0.  0.  0.
341  3.40  0.  0.  0.
342  3.41  0.  0.  0.
343  3.42  0.  0.  0.
344  3.43  0.  0.  0.
345  3.44  0.  0.  0.
346  3.45  0.  0.  0.
347  3.46  0.  0.  0.
348  3.47  0.  0.  0.
349  3.48  0.  0.  0.
350  3.49  0.  0.  0.
351  3.50  0.  0.  0.
352  3.51  0.  0.  0.
353  3.52  0.  0.  0.
354  3.53  0.  0.  0.
355  3.54  0.  0.  0.
356  3.55  0.  0.  0.
357  3.56  0.  0.  0.
358  3.57  0.  0.  0.
359  3.58  0.  0.  0.
360  3.59  0.  0.  0.
361  3.60  0.  0.  0.
362  3.61  0.  0.  0.
363  3.62  0.  0.  0.
364  3.63  0.  0.  0.
365  3.64  0.  0.  0.
366  3.65  0.  0.  0.
367  3.66  0.  0.  0.
368  3.67  0.  0.  0.
369  3.68  0.  0.  0.
370  3.69  0.  0.  0.
371  3.70  0.  0.  0.
372  3.71  0.  0.  0.
373  3.72  0.  0.  0.
374  3.73  0.  0.  0.
375  3.74  0.  0.  0.
376  3.75  0.  0.  0.
377  3.76  0.  0.  0.
378  3.77  0.  0.  0.
379  3.78  0.  0.  0.
380  3.79  0.  0.  0.
381  3.80  0.  0.  0.
382  3.81  0.  0.  0.
383  3.82  0.  0.  0.
384  3.83  0.  0.  0.
385  3.84  0.  0.  0.
386  3.85  0.  0.  0.
387  3.86  0.  0.  0.
388  3.87  0.  0.  0.
389  3.88  0.  0.  0.
390  3.89  0.  0.  0.
391  3.90  0.  0.  0.
392  3.91  0.  0.  0.
393  3.92  0.  0.  0.
394  3.93  0.  0.  0.
395  3.94  0.  0.  0.
396  3.95  0.  0.  0.
397  3.96  0.  0.  0.
398  3.97  0.  0.  0.
399  3.98  0.  0.  0.
400  3.99  0.  0.  0.
401  4.00  0.  0.  0.
402  4.01  0.  0.  0.
403  4.02  0.  0.  0.
404  4.03  0.  0.  0.
405  4.04  0.  0.  0.
406  4.05  0.  0.  0.
407  4.06  0.  0.  0.
408  4.07  0.  0.  0.
409  4.08  0.  0.  0.
410  4.09  0.  0.  0.
411  4.10  0.  0.  0.
412  4.11  0.  0.  0.
413  4.12  0.  0.  0.
414  4.13  0.  0.  0.
415  4.14  0.  0.  0.
416  4.15  0.  0.  0.
417  4.16  0.  0.  0.
418  4.17  0.  0.  0.
419  4.18  0.  0.  0.
420  4.19  0.  0.  0.
421  4.20  0.  0.  0.
422  4.21  0.  0.  0.
423  4.22  0.  0.  0.
424  4.23  0.  0.  0.
425  4.24  0.  0.  0.
426  4.25  0.  0.  0.
427  4.26  0.  0.  0.
428  4.27  0.  0.  0.
429  4.28  0.  0.  0.
430  4.29  0.  0.  0.
431  4.30  0.  0.  0.
432  4.31  0.  0.  0.
433  4.32  0.  0.  0.
434  4.33  0.  0.  0.
435  4.34  0.  0.  0.
436  4.35  0.  0.  0.
437  4.36  0.  0.  0.
438  4.37  0.  0.  0.
439  4.38  0.  0.  0.
440  4.39  0.  0.  0.
441  4.40  0.  0.  0.
442  4.41  0.  0.  0.
443  4.42  0.  0.  0.
444  4.43  0.  0.  0.
445  4.44  0.  0.  0.
446  4.45  0.  0.  0.
447  4.46  0.  0.  0.
448  4.47  0.  0.  0.
449  4.48  0.  0.  0.
450  4.49  0.  0.  0.
451  4.50  0.  0.  0.
452  4.51  0.  0.  0.
453  4.52  0.  0.  0.
454  4.53  0.  0.  0.
455  4.54  0.  0.  0.
456  4.55  0.  0.  0.
457  4.56  0.  0.  0.
458  4.57  0.  0.  0.
459  4.58  0.  0.  0.
460  4.59  0.  0.  0.
461  4.60  0.  0.  0.
462  4.61  0.  0.  0.
463  4.62  0.  0.  0.
464  4.63  0.  0.  0.
465  4.64  0.  0.  0.
466  4.65  0.  0.  0.
467  4.66  0.  0.  0.
468  4.67  0.  0.  0.
469  4.68  0.  0.  0.
470  4.69  0.  0.  0.
471  4.70  0.  0.  0.
472  4.71  0.  0.  0.
473  4.72  0.  0.  0.
474  4.73  0.  0.  0.
475  4.74  0.  0.  0.
476  4.75  0.  0.  0.
477  4.76  0.  0.  0.
478  4.77  0.  0.  0.
479  4.78  0.  0.  0.
480  4.79  0.  0.  0.
481  4.80  0.  0.  0.
482  4.81  0.  0.  0.
483  4.82  0.  0.  0.
484  4.83  0.  0.  0.
485  4.84  0.  0.  0.
486  4.85  0.  0.  0.
487  4.86  0.  0.  0.
488  4.87  0.  0.  0.
489  4.88  0.  0.  0.
490  4.89  0.  0.  0.
491  4.90  0.  0.  0.
492  4.91  0.  0.  0.
493  4.92  0.  0.  0.
494  4.93  0.  0.  0.
495  4.94  0.  0.  0.
496  4.95  0.  0.  0.
497  4.96  0.  0.  0.
498  4.97  0.  0.  0.
499  4.98  0.  0.  0.
500  4.99  0.  0.  0.
501  5.00  0.  0.  0.
502  5.01  0.  0.  0.
503  5.02  0.  0.  0.
504  5.03  0.  0.  0.
505  5.04  0.  0.  0.
506  5.05  0.  0.  0.
507  5.06  0.  0.  0.
508  5.07  0.  0.  0.
509  5.08  0.  0.  0.
510  5.09  0.  0.  0.
511  5.10  0.  0.  0.
512  5.11  0.  0.  0.
513  5.12  0.  0.  0.
514  5.13  0.  0.  0.
515  5.14  0.  0.  0.
516  5.15  0.  0.  0.
517  5.16  0.  0.  0.
518  5.17  0.  0.  0.
519  5.18  0.  0.  0.
520  5.19  0.  0.  0.
521  5.20  0.  0.  0.
522  5.21  0.  0.  0.
523  5.22  0.  0.  0.
524  5.23  0.  0.  0.
525  5.24  0.  0.  0.
526  5.25  0.  0.  0.
527  5.26  0.  0.  0.
528  5.27  0.  0.  0.
529  5.28  0.  0.  0.
530  5.29  0.  0.  0.
531  5.30  0.  0.  0.
532  5.31  0.  0.  0.
533  5.32  0.  0.  0.
534  5.33  0.  0.  0.
535  5.34  0.  0.  0.
536  5.35  0.  0.  0.
537  5.36  0.  0.  0.
538  5.37  0.  0.  0.
539  5.38  0.  0.  0.
540  5.39  0.  0.  0.
541  5.40  0.  0.  0.
542  5.41  0.  0.  0.
543  5.42  0.  0.  0.
544  5.43  0.  0.  0.
545  5.44  0.  0.  0.
546  5.45  0.  0.  0.
547  5.46  0.  0.  0.
548  5.47  0.  0.  0.
549  5.48  0.  0.  0.
550  5.49  0.  0.  0.
551  5.50  0.  0.  0.
552  5.51  0.  0.  0.
553  5.52  0.  0.  0.
554  5.53  0.  0.  0.
555  5.54  0.  0.  0.
556  5.55  0.  0.  0.
557  5.56  0.  0.  0.
558  5.57  0.  0.  0.
559  5.58  0.  0.  0.
560  5.59  0.  0.  0.
561  5.60  0.  0.  0.
562  5.61  0.  0.  0.
563  5.62  0.  0.  0.
564  5.63  0.  0.  0.
565  5.64  0.  0.  0.
566  5.65  0.  0.  0.
567  5.66  0.  0.  0.
568  5.67  0.  0.  0.
569  5.68  0.  0.  0.
570  5.69  0.  0.  0.
571  5.70  0.  0.  0.
572  5.71  0.  0.  0.
573  5.72  0.  0.  0.
574  5.73  0.  0.  0.
575  5.74  0.  0.  0.
576  5.75  0.  0.  0.
577  5.76  0.  0.  0.
578  5.77  0.  0.  0.
579  5.78  0.  0.  0.
580  5.79  0.  0.  0.
581  5.80  0.  0.  0.
582  5.81  0.  0.  0.
583  5.82  0.  0.  0.
584  5.83  0.  0.  0.
585  5.84  0.  0.  0.
586  5.85  0.  0.  0.
587  5.86  0.  0.  0.
588  5.87  0.  0.  0.
589  5.88  0.  0.  0.
590  5.89  0.  0.  0.
591  5.90  0.  0.  0.
592  5.91  0.  0.  0.
593  5.92  0.  0.  0.
594  5.93  0.  0.  0.
595  5.94  0.  0.  0.
596  5.95  0.  0.  0.
597  5.96  0.  0.  0.
598  5.97  0.  0.  0.
599  5.98  0.  0.  0.
600  5.99  0.  0.  0.
1                        -1.1851389778335E+01 -2.2953610332709E+00 -7.1780994789086E-01
1  0.0000000000000E+00  4.2608970518554E-09  2.8611992386463E-08  4.3923053111294E-09
2  1.0000000000000E-02  3.0756777680133E-03  6.9012858476156E-03  2.0952198657769E-03
3  2.0000000000000E-02  1.2279118007656E-02  2.7499335688358E-02  8.3338907479129E-03
4  3.0000000000000E-02  2.7539759021852E-02  6.1478125466730E-02  1.8575663888345E-02
5  4.0000000000000E-02  4.8740720632811E-02  1.0831559863112E-01  3.2588685238192E-02
6  5.0000000000000E-02  7.5719880006724E-02  1.6729059476453E-01  5.0052694700460E-02
7  6.0000000000000E-02  1.0827136159905E-01  2.3749245579020E-01  7.0563379631947E-02
8  7.0000000000000E-02  1.4614742522829E-01  3.1783321473557E-01  9.3637991980178E-02
9  8.0000000000000E-02  1.8906073202514E-01  4.0706224342572E-01  1.1872223403890E-01
10  9.0000000000000E-02  2.3668696397107E-01  5.0378320604345E-01  1.4519840868153E-01
11  1.0000000000000E-01  2.8866776898174E-01  6.0647313534148E-01  1.7239481562760E-01
12  1.1000000000000E-01  3.4461400005166E-01  7.1350341767717E-01  1.9959635567932E-01
13  1.2000000000000E-01  4.0410921389779E-01  8.2316244236727E-01  2.2605628013635E-01
14  1.3000000000000E-01  4.6671339185998E-01  9.3367964068725E-01  2.5100899329536E-01
15  1.4000000000000E-01  5.3196684356927E-01  1.0432506108610E+00  2.7368378293264E-01
16  1.5000000000000E-01  5.9939425211081E-01  1.1500629984166E+00  2.9331931810937E-01
17  1.6000000000000E-01  6.6850881811067E-01  1.2523227772224E+00  3.0917871694040E-01
18  1.7000000000000E-01  7.3881645938476E-01  1.3482805563256E+00  3.2056495072791E-01
19  1.8000000000000E-01  8.0982002251537E-01  1.4362575223569E+00  3.2683631680547E-01
20  1.9000000000000E-01  8.8102346297308E-01  1.5146706176867E+00  3.2742168233847E-01
21  2.0000000000000E-01  9.5193595117889E-01  1.5820565515790E+00  3.2183517692168E-01
22  2.1000000000000E-01  1.0220758631939E+00  1.6370942460358E+00  3.0968999472736E-01
23  2.2000000000000E-01  1.0909746165180E+00  1.6786253304319E+00  2.9071095861998E-01
24  2.3000000000000E-01  1.1581803137523E+00  1.7056723197930E+00  2.6474550022591E-01
25  2.4000000000000E-01  1.2232611595981E+00  1.7174541408027E+00  2.3177272226485E-01
26  2.5000000000000E-01  1.2858086198005E+00  1.7133987072266E+00  1.9191023296167E-01
27  2.6000000000000E-01  1.3454402941409E+00  1.6931522920347E+00  1.4541847709839E-01
28  2.7000000000000E-01  1.4018024794003E+00  1.6565854964076E+00  9.2702333827696E-02
29  2.8000000000000E-01  1.4545724022952E+00  1.6037956751141E+00  3.4309806909034E-02
30  2.9000000000000E-01  1.5034601066664E+00  1.5351057422493E+00 -2.9072302726845E-02
31  3.0000000000000E-01  1.5482099836248E+00  1.4510593496173E+00 -9.6625780887233E-02
32  3.1000000000000E-01  1.5886019378483E+00  1.3524125005416E+00 -1.6741140296529E-01
33  3.2000000000000E-01  1.6244521877247E+00  1.2401217328428E+00 -2.4038223908074E-01
34  3.3000000000000E-01  1.6556137014745E+00  1.1153290743200E+00 -3.1439966545420E-01
35  3.4000000000000E-01  1.6819762756966E+00  9.7934404045594E-01 -3.8825180881691E-01
36  3.5000000000000E-01  1.7034662669025E+00  8.3362300541814E-01 -4.6067407838299E-01
37  3.6000000000000E-01  1.7200459904732E+00  6.7974633201261E-01 -5.3037137501045E-01
38  3.7000000000000E-01  1.7317128050400E+00  5.1939369250867E-01 -5.9604151197625E-01
39  3.8000000000000E-01  1.7384979035017E+00  3.5431804881378E-01 -6.5639933835276E-01
40  3.9000000000000E-01  1.7404648347075E+00  1.8631878624552E-01 -7.1020102600425E-01
41  4.0000000000000E-01  1.7377077822212E+00  1.7214509320771E-02 -7.5626796601012E-01
42  4.1000000000000E-01  1.7303496285161E+00 -1.5118398990665E-01 -7.9350972067867E-01
43  4.2000000000000E-01  1.7185398344095E+00 -3.1710009048766E-01 -8.2094549353582E-01
44  4.3000000000000E-01  1.7024521645251E+00 -4.7881654970627E-01 -8.3772361152062E-01
45  4.4000000000000E-01  1.6822822900777E+00 -6.3469911348845E-01 -8.4313856032135E-01
46  4.5000000000000E-01  1.6582453003047E+00 -7.8321812852635E-01 -8.3664517405805E-01
47  4.6000000000000E-01  1.6305731534560E+00 -9.2296780727878E-01 -8.1786965259912E-01
48  4.7000000000000E-01  1.5995120974138E+00 -1.0526828572792E+00 -7.8661716151584E-01
49  4.8000000000000E-01  1.5653200887867E+00 -1.1712522522286E+00 -7.4287585850888E-01
50  4.9000000000000E-01  1.5282642377405E+00 -1.2777299922429E+00 -6.8681728330921E-01
51  5.0000000000000E-01  1.4886183039476E+00 -1.3713427723207E+00 -6.1879314262488E-01
52  5.1000000000000E-01  1.4466602668897E+00 -1.4514945495377E+00 -5.3932861468172E-01
53  5.2000000000000E-01  1.4026699914070E+00 -1.5177680686045E+00 -4.4911238634472E-01
54  5.3000000000000E-01  1.3569270068795E+00 -1.5699234703326E+00 -3.4898371691844E-01
55  5.4000000000000E-01  1.3097084158319E+00 -1.6078941664454E+00 -2.3991689397028E-01
56  5.5000000000000E-01  1.2612869450970E+00 -1.6317802155243E+00 -1.2300350570782E-01
57  5.6000000000000E-01  1.2119291500304E+00 -1.6418394774100E+00  5.6700019891939E-04
58  5.7000000000000E-01  1.1618937796657E+00 -1.6384768561399E+00  1.2952797121302E-01
59  5.8000000000000E-01  1.1114303081899E+00 -1.6222319638806E+00  2.6255690342415E-01
60  5.9000000000000E-01  1.0607776357392E+00 -1.5937655500633E+00  3.9829698109795E-01
61  6.0000000000000E-01  1.0101629592915E+00 -1.5538450411684E+00  5.3537830680659E-01
62  6.1000000000000E-01  9.5980081239776E-01 -1.5033295277961E+00  6.7243835880736E-01
63  6.2000000000000E-01  9.0989227066732E-01 -1.4431545176288E+00  8.0814125781997E-01
64  6.3000000000000E-01  8.6062431831068E-01 -1.3743167467162E+00  9.4119548229131E-01
65  6.4000000000000E-01  8.1216936966730E-01 -1.2978593085805E+00  1.0703697373512E+00
66  6.5000000000000E-01  7.6468493849261E-01 -1.2148573224906E+00  1.1945067553781E+00
67  6.6000000000000E-01  7.1831344685646E-01 -1.1264043205947E+00  1.3125348826227E+00
68  6.7000000000000E-01  6.7318216479855E-01 -1.0335994902037E+00  1.4234773838044E+00
69  6.8000000000000E-01  6.2940327138605E-01 -9.3753586415916E-01  1.5264594721188E+00
70  6.9000000000000E-01  5.8707402750626E-01 -8.3928951061717E-01  1.6207131429261E+00
71  7.0000000000000E-01  5.4627705058522E-01 -7.3990973531095E-01  1.7055799529877E+00
72  7.1000000000000E-01  5.0708068142959E-01 -6.4041027583407E-01  1.7805119412680E+00
73  7.2000000000000E-01  4.6953943352202E-01 -5.4176143985363E-01  1.8450709302033E+00
74  7.3000000000000E-01  4.3369451533801E-01 -4.4488311830390E-01  1.8989264766052E+00
75  7.4000000000000E-01  3.9957441657064E-01 -3.5063859107747E-01  1.9418527581965E+00
76  7.5000000000000E-01  3.6719554953042E-01 -2.5982903674530E-01  1.9737246848851E+00
77  7.6000000000000E-01  3.3656293740804E-01 -1.7318865928079E-01  1.9945135135541E+00
78  7.7000000000000E-01  3.0767094153376E-01 -9.1380353176792E-02  2.0042822222283E+00
79  7.8000000000000E-01  2.8050402022033E-01 -1.4991842963275E-02  2.0031808652988E+00
80  7.9000000000000E-01  2.5503751222731E-01  5.5467747098046E-02  1.9914420878833E+00
81  8.0000000000000E-01  2.3123843832109E-01  1.1957091373358E-01  1.9693769265535E+00
82  8.1000000000000E-01  2.0906631482154E-01  1.7697438035886E-01  1.9373709680934E+00
83  8.2000000000000E-01  1.8847397341806E-01  2.2742125550084E-01  1.8958808803597E+00
84  8.3000000000000E-01  1.6940838190306E-01  2.7074268569907E-01  1.8454312725099E+00
85  8.4000000000000E-01  1.5181146080923E-01  3.0685892112874E-01  1.7866117886110E+00
86  8.5000000000000E-01  1.3562089125172E-01  3.3577969268574E-01  1.7200742916075E+00
87  8.6000000000000E-01  1.2077090956874E-01  3.5760378516218E-01  1.6465299561928E+00
88  8.7000000000000E-01  1.0719308463078E-01  3.7251768359126E-01  1.5667460613626E+00
89  8.8000000000000E-01  9.4817073952294E-02  3.8079316974520E-01  1.4815422579497E+00
90  8.9000000000000E-01  8.3571354996589E-02  3.8278375370895E-01  1.3917860843560E+00
91  9.0000000000000E-01  7.3383928319172E-02  3.7891984165839E-01  1.2983875155735E+00
92  9.1000000000000E-01  6.4182989450285E-02  3.6970256530740E-01  1.2022923563683E+00
93  9.2000000000000E-01  5.5897566678011E-02  3.5569623045223E-01  1.1044743285744E+00
94  9.3000000000000E-01  4.8458122160464E-02  3.3751938076781E-01  1.0059257535584E+00
95  9.4000000000000E-01  4.1797114070435E-02  3.1583451730633E-01  9.0764679233342E-01
96  9.5000000000000E-01  3.5849517758109E-02  2.9133656252278E-01  8.1063327524753E-01
97  9.6000000000000E-01  3.0553304205428E-02  2.6474020838202E-01  7.1586322802026E-01
98  9.7000000000000E-01  2.5849874336810E-02  2.3676633926906E-01  6.2428227816824E-01
99  9.8000000000000E-01  2.1684448041679E-02  2.0812777005258E-01  5.3678820246447E-01
100  9.9000000000000E-01  1.8006407050269E-02  1.7951458566795E-01  4.5421494875046E-01
101  1.0000000000000E+00  1.4769591080647E-02  1.5157940904037E-01  3.7731653107077E-01
102  1.0100000000000E+00  1.1932546936929E-02  1.2492295720607E-01  3.0675125276095E-01