Hs    ONCVPSP-4.0.1  r_core=   1.10501   1.10501   1.10501   1.20154
108.0000     48.0000      231012    zatom,zion,pspd
8   -1012   3     4   600     0    pspcod,pspxc,lmax,lloc,mmax,r2well
5.99000000  3.50000000  0.00000000    rchrg fchrg qchrg
3     2     2     2     0    nproj
1     1           extension_switch
0                        -1.3157431040421E+01  1.0899566692822E+01 -2.8982307778788E-01
1  0.0000000000000E+00 -3.2338764999196E-10  1.6753162412897E-08 -4.7884107040597E-08
2  1.0000000000000E-02  7.1871193644635E-02  1.8116478187370E-01 -2.6138911369975E-02
3  2.0000000000000E-02  1.4360279234769E-01  3.6060911610238E-01 -5.1827601089004E-02
4  3.0000000000000E-02  2.1505538941911E-01  5.3662973515100E-01 -7.6626905744733E-02
5  4.0000000000000E-02  2.8608995506813E-01  7.0755762984306E-01 -1.0011970680993E-01
6  5.0000000000000E-02  3.5656802594244E-01  8.7177491862921E-01 -1.2192175864540E-01
7  6.0000000000000E-02  4.2635189624491E-01  1.0277313906875E+00 -1.4169224134031E-01
8  7.0000000000000E-02  4.9530481138136E-01  1.1739605916411E+00 -1.5914388120570E-01
9  8.0000000000000E-02  5.6329116541633E-01  1.3090953039275E+00 -1.7405243385269E-01
10  9.0000000000000E-02  6.3017670396685E-01  1.4318822558901E+00 -1.8626527457362E-01
11  1.0000000000000E-01  6.9582873451681E-01  1.5411958762215E+00 -1.9570879366682E-01
12  1.1000000000000E-01  7.6011634645485E-01  1.6360508952802E+00 -2.0239425607934E-01
13  1.2000000000000E-01  8.2291064339411E-01  1.7156135838616E+00 -2.0642176076893E-01
14  1.3000000000000E-01  8.8408499049241E-01  1.7792114148978E+00 -2.0798193040438E-01
15  1.4000000000000E-01  9.4351527952860E-01  1.8263409357781E+00 -2.0735498037721E-01
16  1.5000000000000E-01  1.0010802143829E+00  1.8566736496293E+00 -2.0490686023957E-01
17  1.6000000000000E-01  1.0566616193005E+00  1.8700597237111E+00 -2.0108223174586E-01
18  1.7000000000000E-01  1.1101447718793E+00  1.8665293723149E+00 -1.9639414505347E-01
19  1.8000000000000E-01  1.1614187621163E+00  1.8462917999342E+00 -1.9141039596175E-01
20  1.9000000000000E-01  1.2103768780793E+00  1.8097316372462E+00 -1.8673668818670E-01
21  2.0000000000000E-01  1.2569170178616E+00  1.7574028563023E+00 -1.8299687981225E-01
22  2.1000000000000E-01  1.3009421264523E+00  1.6900202105549E+00 -1.8081075506028E-01
23  2.2000000000000E-01  1.3423606550441E+00  1.6084483078106E+00 -1.8076992314400E-01
24  2.3000000000000E-01  1.3810870391484E+00  1.5136884874816E+00 -1.8341259632011E-01
25  2.4000000000000E-01  1.4170421907343E+00  1.4068637350019E+00 -1.8919813023336E-01
26  2.5000000000000E-01  1.4501539985002E+00  1.2892019233183E+00 -1.9848231244959E-01
27  2.6000000000000E-01  1.4803578293714E+00  1.1620177213574E+00 -2.1149445170351E-01
28  2.7000000000000E-01  1.5075970234429E+00  1.0266935499205E+00 -2.2831734412196E-01
29  2.8000000000000E-01  1.5318233738866E+00  8.8465999448646E-01 -2.4887116854661E-01
30  2.9000000000000E-01  1.5529975828652E+00  7.3737610027829E-01 -2.7290228817880E-01
31  3.0000000000000E-01  1.5710896842542E+00  5.8630997657134E-01 -2.9997780960323E-01
32  3.1000000000000E-01  1.5860794240073E+00  4.3292012407124E-01 -3.2948657486228E-01
33  3.2000000000000E-01  1.5979565892993E+00  2.7863787142404E-01 -3.6064704228405E-01
34  3.3000000000000E-01  1.6067212781620E+00  1.2485126532129E-01 -3.9252225436792E-01
35  3.4000000000000E-01  1.6123841021676E+00 -2.7109295329484E-02 -4.2404180564549E-01
36  3.5000000000000E-01  1.6149663157991E+00 -1.7598345506612E-01 -4.5403042144822E-01
37  3.6000000000000E-01  1.6144998674406E+00 -3.2059117346953E-01 -4.8124245283244E-01
38  3.7000000000000E-01  1.6110273683842E+00 -4.5984079591679E-01 -5.0440129735879E-01
39  3.8000000000000E-01  1.6046019778401E+00 -5.9273492551063E-01 -5.2224248418536E-01
40  3.9000000000000E-01  1.5952872035938E+00 -7.1837417534972E-01 -5.3355892882000E-01
41  4.0000000000000E-01  1.5831566196324E+00 -8.3595895245061E-01 -5.3724668072203E-01
42  4.1000000000000E-01  1.5682935036933E+00 -9.4478948861787E-01 -5.3234936689299E-01
43  4.2000000000000E-01  1.5507903992340E+00 -1.0442643865432E+00 -5.1809948551401E-01
44  4.3000000000000E-01  1.5307486077084E+00 -1.1338779890062E+00 -4.9395473166827E-01
45  4.4000000000000E-01  1.5082776182441E+00 -1.2132169034466E+00 -4.5962764508782E-01
46  4.5000000000000E-01  1.4834944827803E+00 -1.2819560222402E+00 -4.1510705707608E-01
47  4.6000000000000E-01  1.4565231454446E+00 -1.3398543703410E+00 -3.6067007604930E-01
48  4.7000000000000E-01  1.4274937353825E+00 -1.3867510869282E+00 -2.9688368070796E-01
49  4.8000000000000E-01  1.3965418324050E+00 -1.4225618074425E+00 -2.2459537551256E-01
50  4.9000000000000E-01  1.3638077146973E+00 -1.4472756588059E+00 -1.4491279070345E-01
51  5.0000000000000E-01  1.3294355974358E+00 -1.4609530161852E+00 -5.9172561894898E-02
52  5.1000000000000E-01  1.2935728705359E+00 -1.4637240974911E+00  3.1100716246867E-02
53  5.2000000000000E-01  1.2563693429126E+00 -1.4557883953709E+00  1.2424422118131E-01
54  5.3000000000000E-01  1.2179764996446E+00 -1.4374148695357E+00  2.1851366371523E-01
55  5.4000000000000E-01  1.1785467773188E+00 -1.4089427487080E+00  3.1214506277510E-01
56  5.5000000000000E-01  1.1382328616616E+00 -1.3707827250695E+00  4.0341922538246E-01
57  5.6000000000000E-01  1.0971870103797E+00 -1.3234182683426E+00  4.9072641689441E-01
58  5.7000000000000E-01  1.0555604029998E+00 -1.2674067446607E+00  5.7262859757965E-01
59  5.8000000000000E-01  1.0135025184479E+00 -1.2033799996641E+00  6.4791659878073E-01
60  5.9000000000000E-01  9.7116054020465E-01 -1.1320440576324E+00  7.1565971957778E-01
61  6.0000000000000E-01  9.2867878813963E-01 -1.0541775998977E+00  7.7524544272172E-01
62  6.1000000000000E-01  8.8619817559688E-01 -9.7062891642348E-01  8.2640729158656E-01
63  6.2000000000000E-01  8.4385568999356E-01 -8.8231107348224E-01  8.6923926824632E-01
64  6.3000000000000E-01  8.0178389511371E-01 -7.9019510616162E-01  9.0419581229862E-01
65  6.4000000000000E-01  7.6011045342254E-01 -6.9530112447242E-01  9.3207678255604E-01
66  6.5000000000000E-01  7.1895766708321E-01 -5.9868731287400E-01  9.5399756768271E-01
67  6.6000000000000E-01  6.7844203690172E-01 -5.0143690121733E-01  9.7134505320948E-01
68  6.7000000000000E-01  6.3867383912491E-01 -4.0464328612725E-01  9.8572078554462E-01
69  6.8000000000000E-01  5.9975672083091E-01 -3.0939358111433E-01  9.9887325242326E-01
70  6.9000000000000E-01  5.6178731553519E-01 -2.1675096657513E-01  1.0126217181831E+00
71  7.0000000000000E-01  5.2485488153897E-01 -1.2773629279160E-01  1.0287744874343E+00
72  7.1000000000000E-01  4.8904096642122E-01 -4.3309455898708E-02  1.0490448009806E+00
73  7.2000000000000E-01  4.5441910186829E-01  3.5648885073236E-02  1.0749677758983E+00
74  7.3000000000000E-01  4.2105453370375E-01  1.0835465548064E-01  1.1078218746995E+00
75  7.4000000000000E-01  3.8900399248026E-01  1.7413617926541E-01  1.1485583190328E+00
76  7.5000000000000E-01  3.5831551029420E-01  2.3244788461618E-01  1.1977416496697E+00
77  7.6000000000000E-01  3.2902828955553E-01  2.8288137236110E-01  1.2555042808937E+00
78  7.7000000000000E-01  3.0117262927377E-01  3.2517338877491E-01  1.3215174142071E+00
79  7.8000000000000E-01  2.7476991400251E-01  3.5921033645681E-01  1.3949800794850E+00
80  7.9000000000000E-01  2.4983266992343E-01  3.8502906730578E-01  1.4746273827793E+00
81  8.0000000000000E-01  2.2636469166331E-01  4.0281382635544E-01  1.5587582846974E+00
82  8.1000000000000E-01  2.0436124234990E-01  4.1288934954257E-01  1.6452824410851E+00
83  8.2000000000000E-01  1.8380932815889E-01  4.1571025703569E-01  1.7317848404820E+00
84  8.3000000000000E-01  1.6468804722732E-01  4.1184702086334E-01  1.8156062035207E+00
85  8.4000000000000E-01  1.4696901135470E-01  4.0196891549012E-01  1.8939364008932E+00
86  8.5000000000000E-01  1.3061683743440E-01  3.8682447704940E-01  1.9639175300619E+00
87  8.6000000000000E-01  1.1558970410417E-01  3.6722009593185E-01  2.0227527948384E+00
88  8.7000000000000E-01  1.0183996772948E-01  3.4399744373114E-01  2.0678169805436E+00
89  8.8000000000000E-01  8.9314830582275E-02  3.1801048540117E-01  2.0967641295636E+00
90  8.9000000000000E-01  7.7957052994925E-02  2.9010284813158E-01  2.1076280104467E+00
91  9.0000000000000E-01  6.7705700389816E-02  2.6108630832441E-01  2.0989111440017E+00
92  9.1000000000000E-01  5.8496915436294E-02  2.3172111682656E-01  2.0696585006240E+00
93  9.2000000000000E-01  5.0264705187247E-02  2.0269881121453E-01  2.0195125053241E+00
94  9.3000000000000E-01  4.2941732904701E-02  1.7462806470423E-01  1.9487466643840E+00
95  9.4000000000000E-01  3.6460104395820E-02  1.4802399764241E-01  1.8582759372586E+00
96  9.5000000000000E-01  3.0752139035171E-02  1.2330123409673E-01  1.7496428902970E+00
97  9.6000000000000E-01  2.5751116225110E-02  1.0077082828109E-01  1.6249796512664E+00
98  9.7000000000000E-01  2.1391988814141E-02  8.0641019666696E-02  1.4869466977758E+00
99  9.8000000000000E-01  1.7612055918091E-02  6.3021608173974E-02  1.3386505195431E+00
100  9.9000000000000E-01  1.4351588630011E-02  4.7931578777406E-02  1.1835431530165E+00
101  1.0000000000000E+00  1.1554403219155E-02  3.5309454791949E-02  1.0253074586838E+00
102  1.0100000000000E+00  9.1683775632313E-03  2.5025727426111E-02  8.6773275976834E-01
103  1.0200000000000E+00  7.1459076898951E-03  1.6896601429580E-02  7.1458605432862E-01
104  1.0300000000000E+00  5.4443040660926E-03  1.0698214767452E-02  5.6948442897663E-01
105  1.0400000000000E+00  4.0261100875611E-03  6.1804715666147E-03  4.3577446523541E-01
106  1.0500000000000E+00  2.8593109530963E-03  3.0795497887903E-03  3.1642460292822E-01
107  1.0600000000000E+00  1.9101570725672E-03  1.1455983355274E-03  2.1390177177457E-01
108  1.0700000000000E+00  1.1570934734564E-03  1.3500317596546E-04  1.3012442509775E-01
109  1.0800000000000E+00  5.9323316340888E-04 -2.1770117557568E-04  6.6500802337749E-02
110  1.0900000000000E+00  2.1548523132854E-04 -1.8286350138362E-04  2.3905640178738E-02
111  1.1000000000000E+00  2.5320519519094E-05 -3.3697116967812E-05  2.7599144447661E-03
112  1.1100000000000E+00 -1.1008897362373E-06  1.8367642760209E-06 -1.1867228633273E-04
113  1.1200000000000E+00 -8.5165616540703E-08  1.0766812808430E-07 -9.3333453831180E-06
114  1.13 -0. -0.  0.
115  1.14  0.  0.  0.
116  1.15  0.  0.  0.
117  1.16  0.  0.  0.
118  1.17  0.  0.  0.
119  1.18  0.  0.  0.
120  1.19  0.  0.  0.
121  1.20  0.  0.  0.
122  1.21  0.  0.  0.
123  1.22  0.  0.  0.
124  1.23  0.  0.  0.
125  1.24  0.  0.  0.
126  1.25  0.  0.  0.
127  1.26  0.  0.  0.
128  1.27  0.  0.  0.
129  1.28  0.  0.  0.
130  1.29  0.  0.  0.
131  1.30  0.  0.  0.
132  1.31  0.  0.  0.
133  1.32  0.  0.  0.
134  1.33  0.  0.  0.
135  1.34  0.  0.  0.
136  1.35  0.  0.  0.
137  1.36  0.  0.  0.
138  1.37  0.  0.  0.
139  1.38  0.  0.  0.
140  1.39  0.  0.  0.
141  1.40  0.  0.  0.
142  1.41  0.  0.  0.
143  1.42  0.  0.  0.
144  1.43  0.  0.  0.
145  1.44  0.  0.  0.
146  1.45  0.  0.  0.
147  1.46  0.  0.  0.
148  1.47  0.  0.  0.
149  1.48  0.  0.  0.
150  1.49  0.  0.  0.
151  1.50  0.  0.  0.
152  1.51  0.  0.  0.
153  1.52  0.  0.  0.
154  1.53  0.  0.  0.
155  1.54  0.  0.  0.
156  1.55  0.  0.  0.
157  1.56  0.  0.  0.
158  1.57  0.  0.  0.
159  1.58  0.  0.  0.
160  1.59  0.  0.  0.
161  1.60  0.  0.  0.
162  1.61  0.  0.  0.
163  1.62  0.  0.  0.
164  1.63  0.  0.  0.
165  1.64  0.  0.  0.
166  1.65  0.  0.  0.
167  1.66  0.  0.  0.
168  1.67  0.  0.  0.
169  1.68  0.  0.  0.
170  1.69  0.  0.  0.
171  1.70  0.  0.  0.
172  1.71  0.  0.  0.
173  1.72  0.  0.  0.
174  1.73  0.  0.  0.
175  1.74  0.  0.  0.
176  1.75  0.  0.  0.
177  1.76  0.  0.  0.
178  1.77  0.  0.  0.
179  1.78  0.  0.  0.
180  1.79  0.  0.  0.
181  1.80  0.  0.  0.
182  1.81  0.  0.  0.
183  1.82  0.  0.  0.
184  1.83  0.  0.  0.
185  1.84  0.  0.  0.
186  1.85  0.  0.  0.
187  1.86  0.  0.  0.
188  1.87  0.  0.  0.
189  1.88  0.  0.  0.
190  1.89  0.  0.  0.
191  1.90  0.  0.  0.
192  1.91  0.  0.  0.
193  1.92  0.  0.  0.
194  1.93  0.  0.  0.
195  1.94  0.  0.  0.
196  1.95  0.  0.  0.
197  1.96  0.  0.  0.
198  1.97  0.  0.  0.
199  1.98  0.  0.  0.
200  1.99  0.  0.  0.
201  2.00  0.  0.  0.
202  2.01  0.  0.  0.
203  2.02  0.  0.  0.
204  2.03  0.  0.  0.
205  2.04  0.  0.  0.
206  2.05  0.  0.  0.
207  2.06  0.  0.  0.
208  2.07  0.  0.  0.
209  2.08  0.  0.  0.
210  2.09  0.  0.  0.
211  2.10  0.  0.  0.
212  2.11  0.  0.  0.
213  2.12  0.  0.  0.
214  2.13  0.  0.  0.
215  2.14  0.  0.  0.
216  2.15  0.  0.  0.
217  2.16  0.  0.  0.
218  2.17  0.  0.  0.
219  2.18  0.  0.  0.
220  2.19  0.  0.  0.
221  2.20  0.  0.  0.
222  2.21  0.  0.  0.
223  2.22  0.  0.  0.
224  2.23  0.  0.  0.
225  2.24  0.  0.  0.
226  2.25  0.  0.  0.
227  2.26  0.  0.  0.
228  2.27  0.  0.  0.
229  2.28  0.  0.  0.
230  2.29  0.  0.  0.
231  2.30  0.  0.  0.
232  2.31  0.  0.  0.
233  2.32  0.  0.  0.
234  2.33  0.  0.  0.
235  2.34  0.  0.  0.
236  2.35  0.  0.  0.
237  2.36  0.  0.  0.
238  2.37  0.  0.  0.
239  2.38  0.  0.  0.
240  2.39  0.  0.  0.
241  2.40  0.  0.  0.
242  2.41  0.  0.  0.
243  2.42  0.  0.  0.
244  2.43  0.  0.  0.
245  2.44  0.  0.  0.
246  2.45  0.  0.  0.
247  2.46  0.  0.  0.
248  2.47  0.  0.  0.
249  2.48  0.  0.  0.
250  2.49  0.  0.  0.
251  2.50  0.  0.  0.
252  2.51  0.  0.  0.
253  2.52  0.  0.  0.
254  2.53  0.  0.  0.
255  2.54  0.  0.  0.
256  2.55  0.  0.  0.
257  2.56  0.  0.  0.
258  2.57  0.  0.  0.
259  2.58  0.  0.  0.
260  2.59  0.  0.  0.
261  2.60  0.  0.  0.
262  2.61  0.  0.  0.
263  2.62  0.  0.  0.
264  2.63  0.  0.  0.
265  2.64  0.  0.  0.
266  2.65  0.  0.  0.
267  2.66  0.  0.  0.
268  2.67  0.  0.  0.
269  2.68  0.  0.  0.
270  2.69  0.  0.  0.
271  2.70  0.  0.  0.
272  2.71  0.  0.  0.
273  2.72  0.  0.  0.
274  2.73  0.  0.  0.
275  2.74  0.  0.  0.
276  2.75  0.  0.  0.
277  2.76  0.  0.  0.
278  2.77  0.  0.  0.
279  2.78  0.  0.  0.
280  2.79  0.  0.  0.
281  2.80  0.  0.  0.
282  2.81  0.  0.  0.
283  2.82  0.  0.  0.
284  2.83  0.  0.  0.
285  2.84  0.  0.  0.
286  2.85  0.  0.  0.
287  2.86  0.  0.  0.
288  2.87  0.  0.  0.
289  2.88  0.  0.  0.
290  2.89  0.  0.  0.
291  2.90  0.  0.  0.
292  2.91  0.  0.  0.
293  2.92  0.  0.  0.
294  2.93  0.  0.  0.
295  2.94  0.  0.  0.
296  2.95  0.  0.  0.
297  2.96  0.  0.  0.
298  2.97  0.  0.  0.
299  2.98  0.  0.  0.
300  2.99  0.  0.  0.
301  3.00  0.  0.  0.
302  3.01  0.  0.  0.
303  3.02  0.  0.  0.
304  3.03  0.  0.  0.
305  3.04  0.  0.  0.
306  3.05  0.  0.  0.
307  3.06  0.  0.  0.
308  3.07  0.  0.  0.
309  3.08  0.  0.  0.
310  3.09  0.  0.  0.
311  3.10  0.  0.  0.
312  3.11  0.  0.  0.
313  3.12  0.  0.  0.
314  3.13  0.  0.  0.
315  3.14  0.  0.  0.
316  3.15  0.  0.  0.
317  3.16  0.  0.  0.
318  3.17  0.  0.  0.
319  3.18  0.  0.  0.
320  3.19  0.  0.  0.
321  3.20  0.  0.  0.
322  3.21  0.  0.  0.
323  3.22  0.  0.  0.
324  3.23  0.  0.  0.
325  3.24  0.  0.  0.
326  3.25  0.  0.  0.
327  3.26  0.  0.  0.
328  3.27  0.  0.  0.
329  3.28  0.  0.  0.
330  3.29  0.  0.  0.
331  3.30  0.  0.  0.
332  3.31  0.  0.  0.
333  3.32  0.  0.  0.
334  3.33  0.  0.  0.
335  3.34  0.  0.  0.
336  3.35  0.  0.  0.
337  3.36  0.  0.  0.
338  3.37  0.  0.  0.
339  3.38  0.  0.  0.
340  3.39  0.  0.  0.
341  3.40  0.  0.  0.
342  3.41  0.  0.  0.
343  3.42  0.  0.  0.
344  3.43  0.  0.  0.
345  3.44  0.  0.  0.
346  3.45  0.  0.  0.
347  3.46  0.  0.  0.
348  3.47  0.  0.  0.
349  3.48  0.  0.  0.
350  3.49  0.  0.  0.
351  3.50  0.  0.  0.
352  3.51  0.  0.  0.
353  3.52  0.  0.  0.
354  3.53  0.  0.  0.
355  3.54  0.  0.  0.
356  3.55  0.  0.  0.
357  3.56  0.  0.  0.
358  3.57  0.  0.  0.
359  3.58  0.  0.  0.
360  3.59  0.  0.  0.
361  3.60  0.  0.  0.
362  3.61  0.  0.  0.
363  3.62  0.  0.  0.
364  3.63  0.  0.  0.
365  3.64  0.  0.  0.
366  3.65  0.  0.  0.
367  3.66  0.  0.  0.
368  3.67  0.  0.  0.
369  3.68  0.  0.  0.
370  3.69  0.  0.  0.
371  3.70  0.  0.  0.
372  3.71  0.  0.  0.
373  3.72  0.  0.  0.
374  3.73  0.  0.  0.
375  3.74  0.  0.  0.
376  3.75  0.  0.  0.
377  3.76  0.  0.  0.
378  3.77  0.  0.  0.
379  3.78  0.  0.  0.
380  3.79  0.  0.  0.
381  3.80  0.  0.  0.
382  3.81  0.  0.  0.
383  3.82  0.  0.  0.
384  3.83  0.  0.  0.
385  3.84  0.  0.  0.
386  3.85  0.  0.  0.
387  3.86  0.  0.  0.
388  3.87  0.  0.  0.
389  3.88  0.  0.  0.
390  3.89  0.  0.  0.
391  3.90  0.  0.  0.
392  3.91  0.  0.  0.
393  3.92  0.  0.  0.
394  3.93  0.  0.  0.
395  3.94  0.  0.  0.
396  3.95  0.  0.  0.
397  3.96  0.  0.  0.
398  3.97  0.  0.  0.
399  3.98  0.  0.  0.
400  3.99  0.  0.  0.
401  4.00  0.  0.  0.
402  4.01  0.  0.  0.
403  4.02  0.  0.  0.
404  4.03  0.  0.  0.
405  4.04  0.  0.  0.
406  4.05  0.  0.  0.
407  4.06  0.  0.  0.
408  4.07  0.  0.  0.
409  4.08  0.  0.  0.
410  4.09  0.  0.  0.
411  4.10  0.  0.  0.
412  4.11  0.  0.  0.
413  4.12  0.  0.  0.
414  4.13  0.  0.  0.
415  4.14  0.  0.  0.
416  4.15  0.  0.  0.
417  4.16  0.  0.  0.
418  4.17  0.  0.  0.
419  4.18  0.  0.  0.
420  4.19  0.  0.  0.
421  4.20  0.  0.  0.
422  4.21  0.  0.  0.
423  4.22  0.  0.  0.
424  4.23  0.  0.  0.
425  4.24  0.  0.  0.
426  4.25  0.  0.  0.
427  4.26  0.  0.  0.
428  4.27  0.  0.  0.
429  4.28  0.  0.  0.
430  4.29  0.  0.  0.
431  4.30  0.  0.  0.
432  4.31  0.  0.  0.
433  4.32  0.  0.  0.
434  4.33  0.  0.  0.
435  4.34  0.  0.  0.
436  4.35  0.  0.  0.
437  4.36  0.  0.  0.
438  4.37  0.  0.  0.
439  4.38  0.  0.  0.
440  4.39  0.  0.  0.
441  4.40  0.  0.  0.
442  4.41  0.  0.  0.
443  4.42  0.  0.  0.
444  4.43  0.  0.  0.
445  4.44  0.  0.  0.
446  4.45  0.  0.  0.
447  4.46  0.  0.  0.
448  4.47  0.  0.  0.
449  4.48  0.  0.  0.
450  4.49  0.  0.  0.
451  4.50  0.  0.  0.
452  4.51  0.  0.  0.
453  4.52  0.  0.  0.
454  4.53  0.  0.  0.
455  4.54  0.  0.  0.
456  4.55  0.  0.  0.
457  4.56  0.  0.  0.
458  4.57  0.  0.  0.
459  4.58  0.  0.  0.
460  4.59  0.  0.  0.
461  4.60  0.  0.  0.
462  4.61  0.  0.  0.
463  4.62  0.  0.  0.
464  4.63  0.  0.  0.
465  4.64  0.  0.  0.
466  4.65  0.  0.  0.
467  4.66  0.  0.  0.
468  4.67  0.  0.  0.
469  4.68  0.  0.  0.
470  4.69  0.  0.  0.
471  4.70  0.  0.  0.
472  4.71  0.  0.  0.
473  4.72  0.  0.  0.
474  4.73  0.  0.  0.
475  4.74  0.  0.  0.
476  4.75  0.  0.  0.
477  4.76  0.  0.  0.
478  4.77  0.  0.  0.
479  4.78  0.  0.  0.
480  4.79  0.  0.  0.
481  4.80  0.  0.  0.
482  4.81  0.  0.  0.
483  4.82  0.  0.  0.
484  4.83  0.  0.  0.
485  4.84  0.  0.  0.
486  4.85  0.  0.  0.
487  4.86  0.  0.  0.
488  4.87  0.  0.  0.
489  4.88  0.  0.  0.
490  4.89  0.  0.  0.
491  4.90  0.  0.  0.
492  4.91  0.  0.  0.
493  4.92  0.  0.  0.
494  4.93  0.  0.  0.
495  4.94  0.  0.  0.
496  4.95  0.  0.  0.
497  4.96  0.  0.  0.
498  4.97  0.  0.  0.
499  4.98  0.  0.  0.
500  4.99  0.  0.  0.
501  5.00  0.  0.  0.
502  5.01  0.  0.  0.
503  5.02  0.  0.  0.
504  5.03  0.  0.  0.
505  5.04  0.  0.  0.
506  5.05  0.  0.  0.
507  5.06  0.  0.  0.
508  5.07  0.  0.  0.
509  5.08  0.  0.  0.
510  5.09  0.  0.  0.
511  5.10  0.  0.  0.
512  5.11  0.  0.  0.
513  5.12  0.  0.  0.
514  5.13  0.  0.  0.
515  5.14  0.  0.  0.
516  5.15  0.  0.  0.
517  5.16  0.  0.  0.
518  5.17  0.  0.  0.
519  5.18  0.  0.  0.
520  5.19  0.  0.  0.
521  5.20  0.  0.  0.
522  5.21  0.  0.  0.
523  5.22  0.  0.  0.
524  5.23  0.  0.  0.
525  5.24  0.  0.  0.
526  5.25  0.  0.  0.
527  5.26  0.  0.  0.
528  5.27  0.  0.  0.
529  5.28  0.  0.  0.
530  5.29  0.  0.  0.
531  5.30  0.  0.  0.
532  5.31  0.  0.  0.
533  5.32  0.  0.  0.
534  5.33  0.  0.  0.
535  5.34  0.  0.  0.
536  5.35  0.  0.  0.
537  5.36  0.  0.  0.
538  5.37  0.  0.  0.
539  5.38  0.  0.  0.
540  5.39  0.  0.  0.
541  5.40  0.  0.  0.
542  5.41  0.  0.  0.
543  5.42  0.  0.  0.
544  5.43  0.  0.  0.
545  5.44  0.  0.  0.
546  5.45  0.  0.  0.
547  5.46  0.  0.  0.
548  5.47  0.  0.  0.
549  5.48  0.  0.  0.
550  5.49  0.  0.  0.
551  5.50  0.  0.  0.
552  5.51  0.  0.  0.
553  5.52  0.  0.  0.
554  5.53  0.  0.  0.
555  5.54  0.  0.  0.
556  5.55  0.  0.  0.
557  5.56  0.  0.  0.
558  5.57  0.  0.  0.
559  5.58  0.  0.  0.
560  5.59  0.  0.  0.
561  5.60  0.  0.  0.
562  5.61  0.  0.  0.
563  5.62  0.  0.  0.
564  5.63  0.  0.  0.
565  5.64  0.  0.  0.
566  5.65  0.  0.  0.
567  5.66  0.  0.  0.
568  5.67  0.  0.  0.
569  5.68  0.  0.  0.
570  5.69  0.  0.  0.
571  5.70  0.  0.  0.
572  5.71  0.  0.  0.
573  5.72  0.  0.  0.
574  5.73  0.  0.  0.
575  5.74  0.  0.  0.
576  5.75  0.  0.  0.
577  5.76  0.  0.  0.
578  5.77  0.  0.  0.
579  5.78  0.  0.  0.
580  5.79  0.  0.  0.
581  5.80  0.  0.  0.
582  5.81  0.  0.  0.
583  5.82  0.  0.  0.
584  5.83  0.  0.  0.
585  5.84  0.  0.  0.
586  5.85  0.  0.  0.
587  5.86  0.  0.  0.
588  5.87  0.  0.  0.
589  5.88  0.  0.  0.
590  5.89  0.  0.  0.
591  5.90  0.  0.  0.
592  5.91  0.  0.  0.
593  5.92  0.  0.  0.
594  5.93  0.  0.  0.
595  5.94  0.  0.  0.
596  5.95  0.  0.  0.
597  5.96  0.  0.  0.
598  5.97  0.  0.  0.
599  5.98  0.  0.  0.
600  5.99  0.  0.  0.
1                        -1.1117104594923E+01 -6.9988556530243E-01
1  0.0000000000000E+00  2.5711888451685E-09  1.1305067354472E-08
2  1.0000000000000E-02  2.6533409401732E-03  3.6521658272901E-03
3  2.0000000000000E-02  1.0595953887839E-02  1.4538469249039E-02
4  3.0000000000000E-02  2.3775746429311E-02  3.2449255170518E-02
5  4.0000000000000E-02  4.2106353712046E-02  5.7038187780894E-02
6  5.0000000000000E-02  6.5467816935264E-02  8.7826880654128E-02
7  6.0000000000000E-02  9.3707522812821E-02  1.2421136879592E-01
8  7.0000000000000E-02  1.2664139382693E-01  1.6547040742417E-01
9  8.0000000000000E-02  1.6405531652010E-01  2.1077557096535E-01
10  9.0000000000000E-02  2.0570679273982E-01  2.5920310983020E-01
11  1.0000000000000E-01  2.5132679669234E-01  3.0974750160496E-01
12  1.1000000000000E-01  3.0062181890757E-01  3.6133660730049E-01
13  1.2000000000000E-01  3.5327607678477E-01  4.1284831253084E-01
14  1.3000000000000E-01  4.0895387028832E-01  4.6312849858942E-01
15  1.4000000000000E-01  4.6730206059361E-01  5.1101015033379E-01
16  1.5000000000000E-01  5.2795264903626E-01  5.5533336786520E-01
17  1.6000000000000E-01  5.9052543357527E-01  5.9496600873491E-01
18  1.7000000000000E-01  6.5463072011711E-01  6.2882464855794E-01
19  1.8000000000000E-01  7.1987206643262E-01  6.5589551231885E-01
20  1.9000000000000E-01  7.8584903699636E-01  6.7525499819834E-01
21  2.0000000000000E-01  8.5215994784995E-01  6.8608939227437E-01
22  2.1000000000000E-01  9.1840458149899E-01  6.8771335765397E-01
23  2.2000000000000E-01  9.8418685285789E-01  6.7958677695196E-01
24  2.3000000000000E-01  1.0491174083231E+00  6.6132953372809E-01
25  2.4000000000000E-01  1.1128161411500E+00  6.3273383733481E-01
26  2.5000000000000E-01  1.1749146074067E+00  5.9377372700667E-01
27  2.6000000000000E-01  1.2350583278550E+00  5.4461143487041E-01
28  2.7000000000000E-01  1.2929089621550E+00  4.8560034332775E-01
29  2.8000000000000E-01  1.3481463427934E+00  4.1728433893689E-01
30  2.9000000000000E-01  1.4004703571033E+00  3.4039344101357E-01
31  3.0000000000000E-01  1.4496026666685E+00  2.5583566678509E-01
32  3.1000000000000E-01  1.4952882543207E+00  1.6468518379720E-01
33  3.2000000000000E-01  1.5372967898385E+00  6.8166891839360E-02
34  3.3000000000000E-01  1.5754238063815E+00 -3.2362331839901E-02
35  3.4000000000000E-01  1.6094916806521E+00 -1.3543540167684E-01
36  3.5000000000000E-01  1.6393504108039E+00 -2.3949940215972E-01
37  3.6000000000000E-01  1.6648781872250E+00 -3.4294209606609E-01
38  3.7000000000000E-01  1.6859817525388E+00 -4.4412002012558E-01
39  3.8000000000000E-01  1.7025965485048E+00 -5.4138757596183E-01
40  3.9000000000000E-01  1.7146866489663E+00 -6.3312648971941E-01
41  4.0000000000000E-01  1.7222444795962E+00 -7.1777499598684E-01
42  4.1000000000000E-01  1.7252903269257E+00 -7.9385610135732E-01
43  4.2000000000000E-01  1.7238716409893E+00 -8.6000430052343E-01
44  4.3000000000000E-01  1.7180621378747E+00 -9.1499015290038E-01
45  4.4000000000000E-01  1.7079607104809E+00 -9.5774217953571E-01
46  4.5000000000000E-01  1.6936901578511E+00 -9.8736560705977E-01
47  4.6000000000000E-01  1.6753957454928E+00 -1.0031575657014E+00
48  4.7000000000000E-01  1.6532436110984E+00 -1.0046184395255E+00
49  4.8000000000000E-01  1.6274190319788E+00 -9.9145916625546E-01
50  4.9000000000000E-01  1.5981245722651E+00 -9.6360438825442E-01
51  5.0000000000000E-01  1.5655781294742E+00 -9.2119146221395E-01
52  5.1000000000000E-01  1.5300109013250E+00 -8.6456543953232E-01
53  5.2000000000000E-01  1.4916652946812E+00 -7.9427022900959E-01
54  5.3000000000000E-01  1.4507927991539E+00 -7.1103624526356E-01
55  5.4000000000000E-01  1.4076518481884E+00 -6.1576492737898E-01
56  5.5000000000000E-01  1.3625056903653E+00 -5.0951058031793E-01
57  5.6000000000000E-01  1.3156202931525E+00 -3.9346004458236E-01
58  5.7000000000000E-01  1.2672623004595E+00 -2.6891073609892E-01
59  5.8000000000000E-01  1.2176970640747E+00 -1.3724761744476E-01
60  5.9000000000000E-01  1.1671867674391E+00  8.0336890648991E-05
61  6.0000000000000E-01  1.1159886582600E+00  1.4158363413152E-01
62  6.1000000000000E-01  1.0643534042444E+00  2.8575520049580E-01
63  6.2000000000000E-01  1.0125235837866E+00  4.3109229342553E-01
64  6.3000000000000E-01  9.6073232084358E-01  5.7611697925156E-01
65  6.4000000000000E-01  9.0920207054297E-01  7.1939483616340E-01
66  6.5000000000000E-01  8.5814355936423E-01  8.5955161915849E-01
67  6.6000000000000E-01  8.0775488108415E-01  9.9528770485406E-01
68  6.7000000000000E-01  7.5822074715933E-01  1.1253902165488E+00
69  6.8000000000000E-01  7.0971188789254E-01  1.2487428106034E+00
70  6.9000000000000E-01  6.6238459866101E-01  1.3643331810951E+00
71  7.0000000000000E-01  6.1638042372288E-01  1.4712584080434E+00
72  7.1000000000000E-01  5.7182596870547E-01  1.5687283329062E+00
73  7.2000000000000E-01  5.2883283184372E-01  1.6560671915361E+00
74  7.3000000000000E-01  4.8749764339602E-01  1.7327137679156E+00
75  7.4000000000000E-01  4.4790220241829E-01  1.7982203508500E+00
76  7.5000000000000E-01  4.1011370021382E-01  1.8522507800986E+00
77  7.6000000000000E-01  3.7418502026851E-01  1.8945778584634E+00
78  7.7000000000000E-01  3.4015510529084E-01  1.9250803830381E+00
79  7.8000000000000E-01  3.0804938304962E-01  1.9437400135863E+00
80  7.9000000000000E-01  2.7788024398182E-01  1.9506381508360E+00
81  8.0000000000000E-01  2.4964756495611E-01  1.9459529446976E+00
82  8.1000000000000E-01  2.2333927505308E-01  1.9299564947379E+00
83  8.2000000000000E-01  1.9893196068315E-01  1.9030122455749E+00
84  8.3000000000000E-01  1.7639150873240E-01  1.8655725212017E+00
85  8.4000000000000E-01  1.5567378763192E-01  1.8181760875687E+00
86  8.5000000000000E-01  1.3672536722341E-01  1.7614455848900E+00
87  8.6000000000000E-01  1.1948427898328E-01  1.6960846326345E+00
88  8.7000000000000E-01  1.0388081852643E-01  1.6228743831958E+00
89  8.8000000000000E-01  8.9838392305199E-02  1.5426692865161E+00
90  8.9000000000000E-01  7.7274410032685E-02  1.4563918286112E+00
91  9.0000000000000E-01  6.6101223591515E-02  1.3650260225650E+00
92  9.1000000000000E-01  5.6227112054283E-02  1.2696094610206E+00
93  9.2000000000000E-01  4.7557310972216E-02  1.1712237837728E+00
94  9.3000000000000E-01  3.9995082330920E-02  1.0709834713718E+00
95  9.4000000000000E-01  3.3442819587397E-02  9.7002294373866E-01
96  9.5000000000000E-01  2.7803180063447E-02  8.6948201919515E-01
97  9.6000000000000E-01  2.2980234759638E-02  7.7048987112882E-01
98  9.7000000000000E-01  1.8880623460035E-02  6.7414770351529E-01
99  9.8000000000000E-01  1.5414700911750E-02  5.8151044934886E-01
100  9.9000000000000E-01  1.2497657978222E-02  4.9356787415692E-01
101  1.0000000000000E+00  1.0050600067662E-02  4.1122553685348E-01
102  1.0100000000000E+00  8.0015639089854E-03  3.3528611903582E-01
103  1.0200000000000E+00  6.2864529564819E-03  2.6643167865396E-01
104  1.0300000000000E+00  4.8498708891338E-03  2.0520746443907E-01
105  1.0400000000000E+00  3.6458388892793E-03  1.5200736598564E-01
106  1.0500000000000E+00  2.6383970529358E-03  1.0706036284388E-01
107  1.0600000000000E+00  1.8038633035456E-03  7.0205004321905E-02
108  1.0700000000000E+00  1.1259856319585E-03  4.1332508225897E-02
109  1.0800000000000E+00  5.9796202287454E-04  2.0391783061763E-02
110  1.0900000000000E+00  2.2579074557852E-04  7.0563473499963E-03
111  1.1000000000000E+00  2.7642524597589E-05  7.8138513510824E-04
112  1.1100000000000E+00 -1.2368160160592E-06 -3.2540221455094E-05
113  1.1200000000000E+00 -9.2460597348279E-08 -2.6569853908814E-06
114  1.13  0. -0.
115  1.14  0.  0.
116  1.15  0.  0.
117  1.16  0.  0.
118  1.17  0.  0.
119  1.18  0.  0.
120  1.19  0.  0.
121  1.20  0.  0.
122  1.21  0.  0.
123  1.22  0.  0.
124  1.23  0.  0.
125  1.24  0.  0.
126  1.25  0.  0.
127  1.26  0.  0.
128  1.27  0.  0.
129  1.28  0.  0.
130  1.29  0.  0.
131  1.30  0.  0.
132  1.31  0.  0.
133  1.32  0.  0.
134  1.33  0.  0.
135  1.34  0.  0.
136  1.35  0.  0.
137  1.36  0.  0.
138  1.37  0.  0.
139  1.38  0.  0.
140  1.39  0.  0.
141  1.40  0.  0.
142  1.41  0.  0.
143  1.42  0.  0.
144  1.43  0.  0.
145  1.44  0.  0.
146  1.45  0.  0.
147  1.46  0.  0.
148  1.47  0.  0.
149  1.48  0.  0.
150  1.49  0.  0.
151  1.50  0.  0.
152  1.51  0.  0.
153  1.52  0.  0.
154  1.53  0.  0.
155  1.54  0.  0.
156  1.55  0.  0.
157  1.56  0.  0.
158  1.57  0.  0.
159  1.58  0.  0.
160  1.59  0.  0.
161  1.60  0.  0.
162  1.61  0.  0.
163  1.62  0.  0.
164  1.63  0.  0.
165  1.64  0.  0.
166  1.65  0.  0.
167  1.66  0.  0.
168  1.67  0.  0.
169  1.68  0.  0.
170  1.69  0.  0.
171  1.70  0.  0.
172  1.71  0.  0.
173  1.72  0.  0.
174  1.73  0.  0.
175  1.74  0.  0.
176  1.75  0.  0.
177  1.76  0.  0.
178  1.77  0.  0.
179  1.78  0.  0.
180  1.79  0.  0.
181  1.80  0.  0.
182  1.81  0.  0.
183  1.82  0.  0.
184  1.83  0.  0.
185  1.84  0.  0.
186  1.85  0.  0.
187  1.86  0.  0.
188  1.87  0.  0.
189  1.88  0.  0.
190  1.89  0.  0.
191  1.90  0.  0.
192  1.91  0.  0.
193  1.92  0.  0.
194  1.93  0.  0.
195  1.94  0.  0.
196  1.95  0.  0.
197  1.96  0.  0.