Cf    ONCVPSP-4.0.1  r_core=   1.15394   1.15394   1.35621   1.35621
98.0000     38.0000      231012    zatom,zion,pspd
8   -1012   3     4   600     0    pspcod,pspxc,lmax,lloc,mmax,r2well
5.99000000  5.00000000  0.00000000    rchrg fchrg qchrg
3     3     3     2    nproj
3     1           extension_switch
4     4     4    nprojso
0                         4.2253362590405E+01  1.7130742119629E+00 -1.0602832491423E+00
1  0.0000000000000E+00 -9.4227361469024E-09  9.7277455868294E-08 -1.8450500835487E-08
2  1.0000000000000E-02  1.6303864287706E-01 -9.5520311743102E-02  1.5256718154757E-02
3  2.0000000000000E-02  3.2506544709566E-01 -1.8954237216501E-01  3.0410239300304E-02
4  3.0000000000000E-02  4.8507667393847E-01 -2.8059263377418E-01  4.5359581120965E-02
5  4.0000000000000E-02  6.4208468800865E-01 -3.6724627860491E-01  6.0008102529845E-02
6  5.0000000000000E-02  7.9512577012665E-01 -4.4814991489914E-01  7.4265459212363E-02
7  6.0000000000000E-02  9.4326765098910E-01 -5.2204234719853E-01  8.8049315702402E-02
8  7.0000000000000E-02  1.0856166842944E+00 -5.8777289926825E-01  1.0128675633225E-01
9  8.0000000000000E-02  1.2213245874618E+00 -6.4431686655183E-01  1.1391535584797E-01
10  9.0000000000000E-02  1.3495946890427E+00 -6.9078778812548E-01  1.2588389153698E-01
11  1.0000000000000E-01  1.4696876339541E+00 -7.2644635232767E-01  1.3715270116937E-01
12  1.1000000000000E-01  1.5809265102340E+00 -7.5070587990981E-01  1.4769371362381E-01
13  1.2000000000000E-01  1.6827013735755E+00 -7.6313445788684E-01  1.5749020041103E-01
14  1.3000000000000E-01  1.7744731578998E+00 -7.6345392052512E-01  1.6653631512762E-01
15  1.4000000000000E-01  1.8557769711740E+00 -7.5153598558737E-01  1.7483650296811E-01
16  1.5000000000000E-01  1.9262247851113E+00 -7.2739594904209E-01  1.8240487274669E-01
17  1.6000000000000E-01  1.9855075349419E+00 -6.9118441574146E-01  1.8926462862966E-01
18  1.7000000000000E-01  2.0333966508334E+00 -6.4317759366870E-01  1.9544765738044E-01
19  1.8000000000000E-01  2.0697450456208E+00 -5.8376670310372E-01  2.0099435915081E-01
20  1.9000000000000E-01  2.0944875842201E+00 -5.1344704834850E-01  2.0595379577429E-01
21  2.0000000000000E-01  2.1076410585632E+00 -4.3280726877394E-01  2.1038421056735E-01
22  2.1000000000000E-01  2.1093036882869E+00 -3.4251922934287E-01  2.1435394855120E-01
23  2.2000000000000E-01  2.0996541620941E+00 -2.4332893119908E-01  2.1794277684332E-01
24  2.3000000000000E-01  2.0789502280963E+00 -1.3604872414679E-01  2.2124357303049E-01
25  2.4000000000000E-01  2.0475268340718E+00 -2.1550989721875E-02  2.2436431617951E-01
26  2.5000000000000E-01  2.0057938110057E+00  9.9236658435500E-02  2.2743028243522E-01
27  2.6000000000000E-01  1.9542330861460E+00  2.2533473498026E-01  2.3058631666817E-01
28  2.7000000000000E-01  1.8933954057155E+00  3.5571400338253E-01  2.3399902512094E-01
29  2.8000000000000E-01  1.8238965429775E+00  4.8929666742186E-01  2.3785871312993E-01
30  2.9000000000000E-01  1.7464129650875E+00  6.2495704027459E-01  2.4238087827334E-01
31  3.0000000000000E-01  1.6616769325416E+00  7.6152217248777E-01  2.4780706396740E-01
32  3.1000000000000E-01  1.5704710083860E+00  8.9777296922164E-01  2.5440488253488E-01
33  3.2000000000000E-01  1.4736219609014E+00  1.0324463472193E+00  2.6246703066233E-01
34  3.3000000000000E-01  1.3719940532719E+00  1.1642389708940E+00  2.7230914407712E-01
35  3.4000000000000E-01  1.2664817266894E+00  1.2918130639525E+00  2.8426637190017E-01
36  3.5000000000000E-01  1.1580016991635E+00  1.4138047188607E+00  2.9868859368641E-01
37  3.6000000000000E-01  1.0474845205684E+00  1.5288350234154E+00  3.1593425242719E-01
38  3.7000000000000E-01  9.3586564457778E-01  1.6355241953821E+00  3.3636283312180E-01
39  3.8000000000000E-01  8.2407609939803E-01  1.7325087676135E+00  3.6032607690137E-01
40  3.9000000000000E-01  7.1303286077910E-01  1.8184617033403E+00  3.8815808281927E-01
41  4.0000000000000E-01  6.0362905174880E-01  1.8921151515492E+00  4.2016451075187E-01
42  4.1000000000000E-01  4.9672411293452E-01  1.9522853830704E+00  4.5661115677290E-01
43  4.2000000000000E-01  3.9313410423832E-01  1.9978992872668E+00  4.9771222418034E-01
44  4.3000000000000E-01  2.9362231210582E-01  2.0280216648476E+00  5.4361865654716E-01
45  4.4000000000000E-01  1.9889034582317E-01  2.0418824319270E+00  5.9440693136982E-01
46  4.5000000000000E-01  1.0956991046587E-01  2.0389027607637E+00  6.5006873209253E-01
47  4.6000000000000E-01  2.6215442736172E-02  2.0187191293752E+00  7.1050192089193E-01
48  4.7000000000000E-01 -5.0702211428162E-02  1.9812042398082E+00  7.7550322351836E-01
49  4.8000000000000E-01 -1.2080091208678E-01  1.9264837960561E+00  8.4476301018986E-01
50  4.9000000000000E-01 -1.8379098756688E-01  1.8549482084342E+00  9.1786251313048E-01
51  5.0000000000000E-01 -2.3947752334901E-01  1.7672584108541E+00  9.9427376257221E-01
52  5.1000000000000E-01 -2.8776108779674E-01  1.6643451380521E+00  1.0733624503005E+00
53  5.2000000000000E-01 -3.2863684011790E-01  1.5474012068319E+00  1.1543938451175E+00
54  5.3000000000000E-01 -3.6219200465707E-01  1.4178665724483E+00  1.2365417904719E+00
55  5.4000000000000E-01 -3.8860173672681E-01  1.2774061804369E+00  1.3189007140237E+00
56  5.5000000000000E-01 -4.0812344741700E-01  1.1278808964554E+00  1.4005004754659E+00
57  5.6000000000000E-01 -4.2108969678361E-01  9.7131206194390E-01  1.4803237761994E+00
58  5.7000000000000E-01 -4.2789980508451E-01  8.0984048112268E-01  1.5573257562469E+00
59  5.8000000000000E-01 -4.2901036887435E-01  6.4568088439060E-01  1.6304553138479E+00
60  5.9000000000000E-01 -4.2492490142029E-01  4.8107312418798E-01  1.6986776051330E+00
61  6.0000000000000E-01 -4.1618284381222E-01  3.1823153240004E-01  1.7609971183835E+00
62  6.1000000000000E-01 -4.0334821321262E-01  1.5929399490435E-01  1.8164806725134E+00
63  6.2000000000000E-01 -3.8699816705300E-01  6.2723721930246E-03  1.8642796648141E+00
64  6.3000000000000E-01 -3.6771176599555E-01 -1.3899408990210E-01  1.9036508902820E+00
65  6.4000000000000E-01 -3.4605921378837E-01 -2.7488076130257E-01  1.9339752748683E+00
66  6.5000000000000E-01 -3.2259183869219E-01 -4.0001355006899E-01  1.9547739077750E+00
67  6.6000000000000E-01 -2.9783305919070E-01 -5.1329742293817E-01  1.9657208227490E+00
68  6.7000000000000E-01 -2.7227054676466E-01 -6.1393642394706E-01  1.9666520636000E+00
69  6.8000000000000E-01 -2.4634976145250E-01 -7.0144436344339E-01  1.9575706725831E+00
70  6.9000000000000E-01 -2.2046899282253E-01 -7.7564566312361E-01  1.9386473588504E+00
71  7.0000000000000E-01 -1.9497599118317E-01 -8.3666618678736E-01  1.9102167342690E+00
72  7.1000000000000E-01 -1.7016622284214E-01 -8.8491424983239E-01  1.8727691415265E+00
73  7.2000000000000E-01 -1.4628273064538E-01 -9.2105237045270E-01  1.8269382401859E+00
74  7.3000000000000E-01 -1.2351752856916E-01 -9.4596068907471E-01  1.7734846557318E+00
75  7.4000000000000E-01 -1.0201440854576E-01 -9.6069332643824E-01  1.7132761300935E+00
76  7.5000000000000E-01 -8.1872990647456E-02 -9.6642926209980E-01  1.6472647352619E+00
77  7.6000000000000E-01 -6.3153805826285E-02 -9.6441958191605E-01  1.5764618203401E+00
78  7.7000000000000E-01 -4.5884165063916E-02 -9.5593315421766E-01  1.5019114529720E+00
79  7.8000000000000E-01 -3.0064541287544E-02 -9.4220294046982E-01  1.4246631854330E+00
80  7.9000000000000E-01 -1.5675171814078E-02 -9.2437521933490E-01  1.3457450211594E+00
81  8.0000000000000E-01 -2.6825802249738E-03 -9.0346399716621E-01  1.2661374772055E+00
82  8.1000000000000E-01  8.9542819604756E-03 -8.8031278883620E-01  1.1867496307790E+00
83  8.2000000000000E-01  1.9278561287497E-02 -8.5556577794501E-01  1.1083980029384E+00
84  8.3000000000000E-01  2.8330960507246E-02 -8.2965010391548E-01  1.0317890696593E+00
85  8.4000000000000E-01  3.6146359468950E-02 -8.0277067556226E-01  9.5750610012594E-01
86  8.5000000000000E-01  4.2751784820934E-02 -7.7491847758224E-01  8.8600090497946E-01
87  8.6000000000000E-01  4.8165859538459E-02 -7.4589281964572E-01  8.1759093421591E-01
88  8.7000000000000E-01  5.2399797983661E-02 -7.1533737873213E-01  7.5246199631209E-01
89  8.8000000000000E-01  5.5459936788195E-02 -6.8278920484096E-01  6.9067667764757E-01
90  8.9000000000000E-01  5.7351706347881E-02 -6.4773909749063E-01  6.3218832460391E-01
91  9.0000000000000E-01  5.8084851965933E-02 -6.0970091306646E-01  5.7686020954229E-01
92  9.1000000000000E-01  5.7679607205962E-02 -5.6828642589895E-01  5.2448923499211E-01
93  9.2000000000000E-01  5.6173404022700E-02 -5.2328133086727E-01  4.7483323570302E-01
94  9.3000000000000E-01  5.3627573508672E-02 -4.7471683054524E-01  4.2764061239562E-01
95  9.4000000000000E-01  5.0133345945060E-02 -4.2292997961185E-01  3.8268066945967E-01
96  9.5000000000000E-01  4.5816297089797E-02 -3.6860454329697E-01  3.3977262544965E-01
97  9.6000000000000E-01  4.0838206557233E-02 -3.1278254032837E-01  2.9881081248182E-01
98  9.7000000000000E-01  3.5395090369054E-02 -2.5683485389179E-01  2.5978306921053E-01
99  9.8000000000000E-01  2.9709939490605E-02 -2.0237727269858E-01  2.2277875141175E-01
100  9.9000000000000E-01  2.4018433421079E-02 -1.5111601218849E-01  1.8798212067259E-01
101  1.0000000000000E+00  1.8545619117888E-02 -1.0460435883786E-01  1.5564612526905E-01
102  1.0100000000000E+00  1.3471263491801E-02 -6.3889730981764E-02  1.2604075864238E-01
103  1.0200000000000E+00  8.9039718477632E-03 -2.9278880884479E-02  9.9386836696529E-02
104  1.0300000000000E+00  4.9167538549176E-03 -7.8313297487612E-04  7.5838692455834E-02
105  1.0400000000000E+00  1.5667763097116E-03  2.1645122283565E-02  5.5490523043404E-02
106  1.0500000000000E+00 -1.1063201044251E-03  3.8123585804149E-02  3.8375700551587E-02
107  1.0600000000000E+00 -3.0827142286237E-03  4.8858563900330E-02  2.4464564285571E-02
108  1.0700000000000E+00 -4.3650173611004E-03  5.4167546599178E-02  1.3661006922237E-02
109  1.0800000000000E+00 -4.9810523207998E-03  5.4504198324064E-02  5.7981824174912E-03
110  1.0900000000000E+00 -4.9866967722556E-03  5.0484669989145E-02  6.3357648269888E-04
111  1.1000000000000E+00 -4.4817560112680E-03  4.3017575417202E-02 -2.2031865801585E-03
112  1.1100000000000E+00 -3.6818042441180E-03  3.3882940850579E-02 -3.4683445697934E-03
113  1.1200000000000E+00 -2.6809879967271E-03  2.3853366065904E-02 -3.4460965739868E-03
114  1.1300000000000E+00 -1.6039687341828E-03  1.3891400261044E-02 -2.4832964812039E-03
115  1.1400000000000E+00 -6.4466457060659E-04  5.4640332417934E-03 -1.1290083478477E-03
116  1.1500000000000E+00 -6.8084171757531E-05  5.6682081026449E-04 -1.3025733726133E-04
117  1.1600000000000E+00  2.6134389758124E-06 -2.1577357012635E-05  5.2132559916272E-06
118  1.1700000000000E+00  4.0747391180907E-07 -3.4109380153935E-06  7.6264140447178E-07
119  1.18  0.  0.  0.
120  1.19  0.  0.  0.
121  1.20  0.  0.  0.
122  1.21  0.  0.  0.
123  1.22  0.  0.  0.
124  1.23  0.  0.  0.
125  1.24  0.  0.  0.
126  1.25  0.  0.  0.
127  1.26  0.  0.  0.
128  1.27  0.  0.  0.
129  1.28  0.  0.  0.
130  1.29  0.  0.  0.
131  1.30  0.  0.  0.
132  1.31  0.  0.  0.
133  1.32  0.  0.  0.
134  1.33  0.  0.  0.
135  1.34  0.  0.  0.
136  1.35  0.  0.  0.
137  1.36  0.  0.  0.
138  1.37  0.  0.  0.
139  1.38  0.  0.  0.
140  1.39  0.  0.  0.
141  1.40  0.  0.  0.
142  1.41  0.  0.  0.
143  1.42  0.  0.  0.
144  1.43  0.  0.  0.
145  1.44  0.  0.  0.
146  1.45  0.  0.  0.
147  1.46  0.  0.  0.
148  1.47  0.  0.  0.
149  1.48  0.  0.  0.
150  1.49  0.  0.  0.
151  1.50  0.  0.  0.
152  1.51  0.  0.  0.
153  1.52  0.  0.  0.
154  1.53  0.  0.  0.
155  1.54  0.  0.  0.
156  1.55  0.  0.  0.
157  1.56  0.  0.  0.
158  1.57  0.  0.  0.
159  1.58  0.  0.  0.
160  1.59  0.  0.  0.
161  1.60  0.  0.  0.
162  1.61  0.  0.  0.
163  1.62  0.  0.  0.
164  1.63  0.  0.  0.
165  1.64  0.  0.  0.
166  1.65  0.  0.  0.
167  1.66  0.  0.  0.
168  1.67  0.  0.  0.
169  1.68  0.  0.  0.
170  1.69  0.  0.  0.
171  1.70  0.  0.  0.
172  1.71  0.  0.  0.
173  1.72  0.  0.  0.
174  1.73  0.  0.  0.
175  1.74  0.  0.  0.
176  1.75  0.  0.  0.
177  1.76  0.  0.  0.
178  1.77  0.  0.  0.
179  1.78  0.  0.  0.
180  1.79  0.  0.  0.
181  1.80  0.  0.  0.
182  1.81  0.  0.  0.
183  1.82  0.  0.  0.
184  1.83  0.  0.  0.
185  1.84  0.  0.  0.
186  1.85  0.  0.  0.
187  1.86  0.  0.  0.
188  1.87  0.  0.  0.
189  1.88  0.  0.  0.
190  1.89  0.  0.  0.
191  1.90  0.  0.  0.
192  1.91  0.  0.  0.
193  1.92  0.  0.  0.
194  1.93  0.  0.  0.
195  1.94  0.  0.  0.
196  1.95  0.  0.  0.
197  1.96  0.  0.  0.
198  1.97  0.  0.  0.
199  1.98  0.  0.  0.
200  1.99  0.  0.  0.
201  2.00  0.  0.  0.
202  2.01  0.  0.  0.
203  2.02  0.  0.  0.
204  2.03  0.  0.  0.
205  2.04  0.  0.  0.
206  2.05  0.  0.  0.
207  2.06  0.  0.  0.
208  2.07  0.  0.  0.
209  2.08  0.  0.  0.
210  2.09  0.  0.  0.
211  2.10  0.  0.  0.
212  2.11  0.  0.  0.
213  2.12  0.  0.  0.
214  2.13  0.  0.  0.
215  2.14  0.  0.  0.
216  2.15  0.  0.  0.
217  2.16  0.  0.  0.
218  2.17  0.  0.  0.
219  2.18  0.  0.  0.
220  2.19  0.  0.  0.
221  2.20  0.  0.  0.
222  2.21  0.  0.  0.
223  2.22  0.  0.  0.
224  2.23  0.  0.  0.
225  2.24  0.  0.  0.
226  2.25  0.  0.  0.
227  2.26  0.  0.  0.
228  2.27  0.  0.  0.
229  2.28  0.  0.  0.
230  2.29  0.  0.  0.
231  2.30  0.  0.  0.
232  2.31  0.  0.  0.
233  2.32  0.  0.  0.
234  2.33  0.  0.  0.
235  2.34  0.  0.  0.
236  2.35  0.  0.  0.
237  2.36  0.  0.  0.
238  2.37  0.  0.  0.
239  2.38  0.  0.  0.
240  2.39  0.  0.  0.
241  2.40  0.  0.  0.
242  2.41  0.  0.  0.
243  2.42  0.  0.  0.
244  2.43  0.  0.  0.
245  2.44  0.  0.  0.
246  2.45  0.  0.  0.
247  2.46  0.  0.  0.
248  2.47  0.  0.  0.
249  2.48  0.  0.  0.
250  2.49  0.  0.  0.
251  2.50  0.  0.  0.
252  2.51  0.  0.  0.
253  2.52  0.  0.  0.
254  2.53  0.  0.  0.
255  2.54  0.  0.  0.
256  2.55  0.  0.  0.
257  2.56  0.  0.  0.
258  2.57  0.  0.  0.
259  2.58  0.  0.  0.
260  2.59  0.  0.  0.
261  2.60  0.  0.  0.
262  2.61  0.  0.  0.
263  2.62  0.  0.  0.
264  2.63  0.  0.  0.
265  2.64  0.  0.  0.
266  2.65  0.  0.  0.
267  2.66  0.  0.  0.
268  2.67  0.  0.  0.
269  2.68  0.  0.  0.
270  2.69  0.  0.  0.
271  2.70  0.  0.  0.
272  2.71  0.  0.  0.
273  2.72  0.  0.  0.
274  2.73  0.  0.  0.
275  2.74  0.  0.  0.
276  2.75  0.  0.  0.
277  2.76  0.  0.  0.
278  2.77  0.  0.  0.
279  2.78  0.  0.  0.
280  2.79  0.  0.  0.
281  2.80  0.  0.  0.
282  2.81  0.  0.  0.
283  2.82  0.  0.  0.
284  2.83  0.  0.  0.
285  2.84  0.  0.  0.
286  2.85  0.  0.  0.
287  2.86  0.  0.  0.
288  2.87  0.  0.  0.
289  2.88  0.  0.  0.
290  2.89  0.  0.  0.
291  2.90  0.  0.  0.
292  2.91  0.  0.  0.
293  2.92  0.  0.  0.
294  2.93  0.  0.  0.
295  2.94  0.  0.  0.
296  2.95  0.  0.  0.
297  2.96  0.  0.  0.
298  2.97  0.  0.  0.
299  2.98  0.  0.  0.
300  2.99  0.  0.  0.
301  3.00  0.  0.  0.
302  3.01  0.  0.  0.
303  3.02  0.  0.  0.
304  3.03  0.  0.  0.
305  3.04  0.  0.  0.
306  3.05  0.  0.  0.
307  3.06  0.  0.  0.
308  3.07  0.  0.  0.
309  3.08  0.  0.  0.
310  3.09  0.  0.  0.
311  3.10  0.  0.  0.
312  3.11  0.  0.  0.
313  3.12  0.  0.  0.
314  3.13  0.  0.  0.
315  3.14  0.  0.  0.
316  3.15  0.  0.  0.
317  3.16  0.  0.  0.
318  3.17  0.  0.  0.
319  3.18  0.  0.  0.
320  3.19  0.  0.  0.
321  3.20  0.  0.  0.
322  3.21  0.  0.  0.
323  3.22  0.  0.  0.
324  3.23  0.  0.  0.
325  3.24  0.  0.  0.
326  3.25  0.  0.  0.
327  3.26  0.  0.  0.
328  3.27  0.  0.  0.
329  3.28  0.  0.  0.
330  3.29  0.  0.  0.
331  3.30  0.  0.  0.
332  3.31  0.  0.  0.
333  3.32  0.  0.  0.
334  3.33  0.  0.  0.
335  3.34  0.  0.  0.
336  3.35  0.  0.  0.
337  3.36  0.  0.  0.
338  3.37  0.  0.  0.
339  3.38  0.  0.  0.
340  3.39  0.  0.  0.
341  3.40  0.  0.  0.
342  3.41  0.  0.  0.
343  3.42  0.  0.  0.
344  3.43  0.  0.  0.
345  3.44  0.  0.  0.
346  3.45  0.  0.  0.
347  3.46  0.  0.  0.
348  3.47  0.  0.  0.
349  3.48  0.  0.  0.
350  3.49  0.  0.  0.
351  3.50  0.  0.  0.
352  3.51  0.  0.  0.
353  3.52  0.  0.  0.
354  3.53  0.  0.  0.
355  3.54  0.  0.  0.
356  3.55  0.  0.  0.
357  3.56  0.  0.  0.
358  3.57  0.  0.  0.
359  3.58  0.  0.  0.
360  3.59  0.  0.  0.
361  3.60  0.  0.  0.
362  3.61  0.  0.  0.
363  3.62  0.  0.  0.
364  3.63  0.  0.  0.
365  3.64  0.  0.  0.
366  3.65  0.  0.  0.
367  3.66  0.  0.  0.
368  3.67  0.  0.  0.
369  3.68  0.  0.  0.
370  3.69  0.  0.  0.
371  3.70  0.  0.  0.
372  3.71  0.  0.  0.
373  3.72  0.  0.  0.
374  3.73  0.  0.  0.
375  3.74  0.  0.  0.
376  3.75  0.  0.  0.
377  3.76  0.  0.  0.
378  3.77  0.  0.  0.
379  3.78  0.  0.  0.
380  3.79  0.  0.  0.
381  3.80  0.  0.  0.
382  3.81  0.  0.  0.
383  3.82  0.  0.  0.
384  3.83  0.  0.  0.
385  3.84  0.  0.  0.
386  3.85  0.  0.  0.
387  3.86  0.  0.  0.
388  3.87  0.  0.  0.
389  3.88  0.  0.  0.
390  3.89  0.  0.  0.
391  3.90  0.  0.  0.
392  3.91  0.  0.  0.
393  3.92  0.  0.  0.
394  3.93  0.  0.  0.
395  3.94  0.  0.  0.
396  3.95  0.  0.  0.
397  3.96  0.  0.  0.
398  3.97  0.  0.  0.
399  3.98  0.  0.  0.
400  3.99  0.  0.  0.
401  4.00  0.  0.  0.
402  4.01  0.  0.  0.
403  4.02  0.  0.  0.
404  4.03  0.  0.  0.
405  4.04  0.  0.  0.
406  4.05  0.  0.  0.
407  4.06  0.  0.  0.
408  4.07  0.  0.  0.
409  4.08  0.  0.  0.
410  4.09  0.  0.  0.
411  4.10  0.  0.  0.
412  4.11  0.  0.  0.
413  4.12  0.  0.  0.
414  4.13  0.  0.  0.
415  4.14  0.  0.  0.
416  4.15  0.  0.  0.
417  4.16  0.  0.  0.
418  4.17  0.  0.  0.
419  4.18  0.  0.  0.
420  4.19  0.  0.  0.
421  4.20  0.  0.  0.
422  4.21  0.  0.  0.
423  4.22  0.  0.  0.
424  4.23  0.  0.  0.
425  4.24  0.  0.  0.
426  4.25  0.  0.  0.
427  4.26  0.  0.  0.
428  4.27  0.  0.  0.
429  4.28  0.  0.  0.
430  4.29  0.  0.  0.
431  4.30  0.  0.  0.
432  4.31  0.  0.  0.
433  4.32  0.  0.  0.
434  4.33  0.  0.  0.
435  4.34  0.  0.  0.
436  4.35  0.  0.  0.
437  4.36  0.  0.  0.
438  4.37  0.  0.  0.
439  4.38  0.  0.  0.
440  4.39  0.  0.  0.
441  4.40  0.  0.  0.
442  4.41  0.  0.  0.
443  4.42  0.  0.  0.
444  4.43  0.  0.  0.
445  4.44  0.  0.  0.
446  4.45  0.  0.  0.
447  4.46  0.  0.  0.
448  4.47  0.  0.  0.
449  4.48  0.  0.  0.
450  4.49  0.  0.  0.
451  4.50  0.  0.  0.
452  4.51  0.  0.  0.
453  4.52  0.  0.  0.
454  4.53  0.  0.  0.
455  4.54  0.  0.  0.
456  4.55  0.  0.  0.
457  4.56  0.  0.  0.
458  4.57  0.  0.  0.
459  4.58  0.  0.  0.
460  4.59  0.  0.  0.
461  4.60  0.  0.  0.
462  4.61  0.  0.  0.
463  4.62  0.  0.  0.
464  4.63  0.  0.  0.
465  4.64  0.  0.  0.
466  4.65  0.  0.  0.
467  4.66  0.  0.  0.
468  4.67  0.  0.  0.
469  4.68  0.  0.  0.
470  4.69  0.  0.  0.
471  4.70  0.  0.  0.
472  4.71  0.  0.  0.
473  4.72  0.  0.  0.
474  4.73  0.  0.  0.
475  4.74  0.  0.  0.
476  4.75  0.  0.  0.
477  4.76  0.  0.  0.
478  4.77  0.  0.  0.
479  4.78  0.  0.  0.
480  4.79  0.  0.  0.
481  4.80  0.  0.  0.
482  4.81  0.  0.  0.
483  4.82  0.  0.  0.
484  4.83  0.  0.  0.
485  4.84  0.  0.  0.
486  4.85  0.  0.  0.
487  4.86  0.  0.  0.
488  4.87  0.  0.  0.
489  4.88  0.  0.  0.
490  4.89  0.  0.  0.
491  4.90  0.  0.  0.
492  4.91  0.  0.  0.
493  4.92  0.  0.  0.
494  4.93  0.  0.  0.
495  4.94  0.  0.  0.
496  4.95  0.  0.  0.
497  4.96  0.  0.  0.
498  4.97  0.  0.  0.
499  4.98  0.  0.  0.
500  4.99  0.  0.  0.
501  5.00  0.  0.  0.
502  5.01  0.  0.  0.
503  5.02  0.  0.  0.
504  5.03  0.  0.  0.
505  5.04  0.  0.  0.
506  5.05  0.  0.  0.
507  5.06  0.  0.  0.
508  5.07  0.  0.  0.
509  5.08  0.  0.  0.
510  5.09  0.  0.  0.
511  5.10  0.  0.  0.
512  5.11  0.  0.  0.
513  5.12  0.  0.  0.
514  5.13  0.  0.  0.
515  5.14  0.  0.  0.
516  5.15  0.  0.  0.
517  5.16  0.  0.  0.
518  5.17  0.  0.  0.
519  5.18  0.  0.  0.
520  5.19  0.  0.  0.
521  5.20  0.  0.  0.
522  5.21  0.  0.  0.
523  5.22  0.  0.  0.
524  5.23  0.  0.  0.
525  5.24  0.  0.  0.
526  5.25  0.  0.  0.
527  5.26  0.  0.  0.
528  5.27  0.  0.  0.
529  5.28  0.  0.  0.
530  5.29  0.  0.  0.
531  5.30  0.  0.  0.
532  5.31  0.  0.  0.
533  5.32  0.  0.  0.
534  5.33  0.  0.  0.
535  5.34  0.  0.  0.
536  5.35  0.  0.  0.
537  5.36  0.  0.  0.
538  5.37  0.  0.  0.
539  5.38  0.  0.  0.
540  5.39  0.  0.  0.
541  5.40  0.  0.  0.
542  5.41  0.  0.  0.
543  5.42  0.  0.  0.
544  5.43  0.  0.  0.
545  5.44  0.  0.  0.
546  5.45  0.  0.  0.
547  5.46  0.  0.  0.
548  5.47  0.  0.  0.
549  5.48  0.  0.  0.
550  5.49  0.  0.  0.
551  5.50  0.  0.  0.
552  5.51  0.  0.  0.
553  5.52  0.  0.  0.
554  5.53  0.  0.  0.
555  5.54  0.  0.  0.
556  5.55  0.  0.  0.
557  5.56  0.  0.  0.
558  5.57  0.  0.  0.
559  5.58  0.  0.  0.
560  5.59  0.  0.  0.
561  5.60  0.  0.  0.
562  5.61  0.  0.  0.
563  5.62  0.  0.  0.
564  5.63  0.  0.  0.
565  5.64  0.  0.  0.
566  5.65  0.  0.  0.
567  5.66  0.  0.  0.
568  5.67  0.  0.  0.
569  5.68  0.  0.  0.
570  5.69  0.  0.  0.
571  5.70  0.  0.  0.
572  5.71  0.  0.  0.
573  5.72  0.  0.  0.
574  5.73  0.  0.  0.
575  5.74  0.  0.  0.
576  5.75  0.  0.  0.
577  5.76  0.  0.  0.
578  5.77  0.  0.  0.
579  5.78  0.  0.  0.
580  5.79  0.  0.  0.
581  5.80  0.  0.  0.
582  5.81  0.  0.  0.
583  5.82  0.  0.  0.
584  5.83  0.  0.  0.
585  5.84  0.  0.  0.
586  5.85  0.  0.  0.
587  5.86  0.  0.  0.
588  5.87  0.  0.  0.
589  5.88  0.  0.  0.
590  5.89  0.  0.  0.
591  5.90  0.  0.  0.
592  5.91  0.  0.  0.
593  5.92  0.  0.  0.
594  5.93  0.  0.  0.
595  5.94  0.  0.  0.
596  5.95  0.  0.  0.
597  5.96  0.  0.  0.
598  5.97  0.  0.  0.
599  5.98  0.  0.  0.
600  5.99  0.  0.  0.
1                         1.1643609087120E+01 -1.0689451866615E+00 -1.5263066311092E-01
1  0.0000000000000E+00  7.7530807884862E-09  3.3637864715885E-09  2.7548456738025E-08
2  1.0000000000000E-02  4.5202483942296E-03 -4.9998250371218E-03  1.5531666448108E-03
3  2.0000000000000E-02  1.8038994386712E-02 -1.9925867297197E-02  6.1780743755156E-03
4  3.0000000000000E-02  4.0430646897146E-02 -4.4558461905393E-02  1.3771725130971E-02
5  4.0000000000000E-02  7.1487238139607E-02 -7.8533619004250E-02  2.4165034137854E-02
6  5.0000000000000E-02  1.1092043469397E-01 -1.2134622160060E-01  3.7126640484768E-02
7  6.0000000000000E-02  1.5836432329245E-01 -1.7235454141886E-01  5.2368128345124E-02
8  7.0000000000000E-02  2.1337894204199E-01 -2.3078610698736E-01  6.9550548171359E-02
9  8.0000000000000E-02  2.7545452005045E-01 -2.9574496154834E-01  8.8292099634558E-02
10  9.0000000000000E-02  3.4401638111681E-01 -3.6622034729667E-01  1.0817681346844E-01
11  1.0000000000000E-01  4.1843046036877E-01 -4.4109684632222E-01  1.2876404820721E-01
12  1.1000000000000E-01  4.9800937655940E-01 -5.1916599706828E-01  1.4959860052594E-01
13  1.2000000000000E-01  5.8201899723614E-01 -5.9913938797175E-01  1.7022121485418E-01
14  1.3000000000000E-01  6.6968542922527E-01 -6.7966320731473E-01  1.9017926940031E-01
15  1.4000000000000E-01  7.6020236288012E-01 -7.5933420053546E-01  2.0903741185821E-01
16  1.5000000000000E-01  8.5273869535477E-01 -8.3671695390732E-01  2.2638791893614E-01
17  1.6000000000000E-01  9.4644635581060E-01 -9.1036238742062E-01  2.4186055940553E-01
18  1.7000000000000E-01  1.0404682539525E+00 -9.7882730092172E-01  2.5513175048006E-01
19  1.8000000000000E-01  1.1339462726253E+00 -1.0406947772885E+00  2.6593281176742E-01
20  1.9000000000000E-01  1.2260292253687E+00 -1.0945952060020E+00  2.7405713945890E-01
21  2.0000000000000E-01  1.3158807008147E+00 -1.1392276513648E+00  2.7936614543258E-01
22  2.1000000000000E-01  1.4026867175809E+00 -1.1733812533196E+00  2.8179383106332E-01
23  2.2000000000000E-01  1.4856631158346E+00 -1.1959563168469E+00  2.8134989321533E-01
24  2.3000000000000E-01  1.5640626149350E+00 -1.2059847197182E+00  2.7812128955685E-01
25  2.4000000000000E-01  1.6371814704451E+00 -1.2026492493129E+00  2.7227222135307E-01
26  2.5000000000000E-01  1.7043656683018E+00 -1.1853014684654E+00  2.6404252362439E-01
27  2.6000000000000E-01  1.7650165989740E+00 -1.1534777089044E+00  2.5374448434761E-01
28  2.7000000000000E-01  1.8185961599682E+00 -1.1069127995307E+00  2.4175814558910E-01
29  2.8000000000000E-01  1.8646312410011E+00 -1.0455511560487E+00  2.2852516946511E-01
30  2.9000000000000E-01  1.9027175524834E+00 -9.6955488849497E-01  2.1454138004371E-01
31  3.0000000000000E-01  1.9325227645879E+00 -8.7930862385971E-01  2.0034811818487E-01
32  3.1000000000000E-01  1.9537889310487E+00 -7.7542079180585E-01  1.8652256938478E-01
33  3.2000000000000E-01  1.9663341788945E+00 -6.5872118165866E-01  1.7366724451566E-01
34  3.3000000000000E-01  1.9700536525016E+00 -5.3025464725430E-01  1.6239880959399E-01
35  3.4000000000000E-01  1.9649197076008E+00 -3.9127091149500E-01  1.5333647308967E-01
36  3.5000000000000E-01  1.9509813581340E+00 -2.4321050289209E-01  1.4709014762215E-01
37  3.6000000000000E-01  1.9283629860744E+00 -8.7686940102914E-02  1.4424860706354E-01
38  3.7000000000000E-01  1.8972623314443E+00  7.3534634578569E-02  1.4536786006450E-01
39  3.8000000000000E-01  1.8579477867362E+00  2.3856208780162E-01  1.5095995688431E-01
40  3.9000000000000E-01  1.8107550267061E+00  4.0540382798933E-01  1.6148243828072E-01
41  4.0000000000000E-01  1.7560830110208E+00  5.7199879713946E-01  1.7732862329627E-01
42  4.1000000000000E-01  1.6943894034358E+00  7.3624841238586E-01  1.9881891733615E-01
43  4.2000000000000E-01  1.6261854570128E+00  8.9604988971516E-01  2.2619330329679E-01
44  4.3000000000000E-01  1.5520304203011E+00  1.0493303351759E+00  2.5960515704630E-01
45  4.4000000000000E-01  1.4725255243386E+00  1.1940809547455E+00  2.9911650469935E-01
46  4.5000000000000E-01  1.3883076147359E+00  1.3283907139715E+00  3.4469481331580E-01
47  4.6000000000000E-01  1.3000424969228E+00  1.4504787734714E+00  3.9621137935889E-01
48  4.7000000000000E-01  1.2084180658131E+00  1.5587250368612E+00  4.5344135095977E-01
49  4.8000000000000E-01  1.1141372936250E+00  1.6516981738028E+00  5.1606539124506E-01
50  4.9000000000000E-01  1.0179111513350E+00  1.7281805222935E+00  5.8367296117694E-01
51  5.0000000000000E-01  9.2045154019246E-01  1.7871893303616E+00  6.5576717201751E-01
52  5.1000000000000E-01  8.2246430984852E-01  1.8279938668638E+00  7.3177113011759E-01
53  5.2000000000000E-01  7.2464243891886E-01  1.8501280126141E+00  8.1103567068691E-01
54  5.3000000000000E-01  6.2765945218438E-01  1.8533980348124E+00  8.9284835293994E-01
55  5.4000000000000E-01  5.3216314612879E-01  1.8378853475751E+00  9.7644356691111E-01
56  5.5000000000000E-01  4.3876969111179E-01  1.8039441669821E+00  1.0610135826342E+00
57  5.6000000000000E-01  3.4805817419935E-01  1.7521940779644E+00  1.1457203555941E+00
58  5.7000000000000E-01  2.6056564154437E-01  1.6835076399728E+00  1.2297078886454E+00
59  5.8000000000000E-01  1.7678269327582E-01  1.5989932660989E+00  1.3121149401743E+00
60  5.9000000000000E-01  9.7149677171121E-02  1.4999737135963E+00  1.3920878613285E+00
61  6.0000000000000E-01  2.2053520030381E-02  1.3879606201412E+00  1.4687933417941E+00
62  6.1000000000000E-01 -4.8174772268555E-02  1.2646256074181E+00  1.5414308439306E+00
63  6.2000000000000E-01 -1.1326192347382E-01  1.1317685496983E+00  1.6092445091221E+00
64  6.3000000000000E-01 -1.7299349064172E-01  9.9128366828179E-01  1.6715343279571E+00
65  6.4000000000000E-01 -2.2721425803135E-01  8.4512416160197E-01  1.7276663772355E+00
66  6.5000000000000E-01 -2.7582792555727E-01  6.9526611442589E-01  1.7770819417139E+00
67  6.6000000000000E-01 -3.1879610521328E-01  5.4367244727635E-01  1.8193053567670E+00
68  6.7000000000000E-01 -3.5613664775922E-01  3.9225766870040E-01  1.8539504295609E+00
69  6.8000000000000E-01 -3.8792133051064E-01  2.4285417842859E-01  1.8807253206188E+00
70  6.9000000000000E-01 -4.1427294514965E-01  9.7180839294542E-02  1.8994357945217E+00
71  7.0000000000000E-01 -4.3536183195628E-01 -4.3185509186070E-02  1.9099867775375E+00
72  7.1000000000000E-01 -4.5140191362714E-01 -1.7683498136725E-01  1.9123821908287E+00
73  7.2000000000000E-01 -4.6264628780119E-01 -3.0254547702162E-01  1.9067230600817E+00
74  7.3000000000000E-01 -4.6938244247466E-01 -4.1929895277230E-01  1.8932039354483E+00
75  7.4000000000000E-01 -4.7192716259806E-01 -5.2629276363675E-01  1.8721076890701E+00
76  7.5000000000000E-01 -4.7062119928136E-01 -6.2294580399796E-01  1.8437987906043E+00
77  7.6000000000000E-01 -4.6582377518261E-01 -7.0889928255656E-01  1.8087151935206E+00
78  7.7000000000000E-01 -4.5790700084866E-01 -7.8401207574080E-01  1.7673589958891E+00
79  7.8000000000000E-01 -4.4725027707011E-01 -8.4835071736417E-01  1.7202860683316E+00
80  7.9000000000000E-01 -4.3423475779049E-01 -9.0217419795768E-01  1.6680948681577E+00
81  8.0000000000000E-01 -4.1923794688922E-01 -9.4591386437727E-01  1.6114146818613E+00
82  8.1000000000000E-01 -4.0262850037748E-01 -9.8014882854145E-01  1.5508935575213E+00
83  8.2000000000000E-01 -3.8476130337573E-01 -1.0055774133918E+00  1.4871862036850E+00
84  8.3000000000000E-01 -3.6597288886696E-01 -1.0229852846741E+00  1.4209421414827E+00
85  8.4000000000000E-01 -3.4657726284913E-01 -1.0332110395815E+00  1.3527944015239E+00
86  8.5000000000000E-01 -3.2686219836475E-01 -1.0371101487610E+00  1.2833490561237E+00
87  8.6000000000000E-01 -3.0708605919529E-01 -1.0355182780994E+00  1.2131758701751E+00
88  8.7000000000000E-01 -2.8747521301180E-01 -1.0292151528935E+00  1.1428003401658E+00
89  8.8000000000000E-01 -2.6822209370732E-01 -1.0188902716056E+00  1.0726973701123E+00
90  8.9000000000000E-01 -2.4948397373847E-01 -1.0051119318430E+00  1.0032868052693E+00
91  9.0000000000000E-01 -2.3138250979990E-01 -9.8830120015729E-01  9.3493100914041E-01
92  9.1000000000000E-01 -2.1400412926608E-01 -9.6871264261034E-01  8.6793462635216E-01
93  9.2000000000000E-01 -1.9740133076435E-01 -9.4642383782899E-01  8.0254662319293E-01
94  9.3000000000000E-01 -1.8159498018041E-01 -9.2133592157588E-01  7.3896463890138E-01
95  9.4000000000000E-01 -1.6657769351792E-01 -8.9318766487959E-01  6.7734161397130E-01
96  9.5000000000000E-01 -1.5231841048911E-01 -8.6158586961674E-01  6.1779458668728E-01
97  9.6000000000000E-01 -1.3876827764241E-01 -8.2605517920095E-01  5.6041546567488E-01
98  9.7000000000000E-01 -1.2586797735949E-01 -7.8611075079206E-01  5.0528349425312E-01
99  9.8000000000000E-01 -1.1355665927585E-01 -7.4135762188515E-01  4.5247902166699E-01