Cf    ONCVPSP-4.0.1  r_core=   1.15394   1.15394   1.35621   1.35621
98.0000     38.0000      231012    zatom,zion,pspd
8   -1012   3     4   600     0    pspcod,pspxc,lmax,lloc,mmax,r2well
5.99000000  5.00000000  0.00000000    rchrg fchrg qchrg
3     2     2     2     0    nproj
1     1           extension_switch
0                         4.1927416215425E+01  1.7395493022136E+00 -1.0698466030372E+00
1  0.0000000000000E+00 -9.1999174944846E-09  9.3271909862302E-08 -1.7202476970679E-08
2  1.0000000000000E-02  1.6357248877873E-01 -9.5141368887154E-02  1.5997211566701E-02
3  2.0000000000000E-02  3.2612519924152E-01 -1.8878823295950E-01  3.1884572980883E-02
4  3.0000000000000E-02  4.8664652537706E-01 -2.7947043413028E-01  4.7554457284113E-02
5  4.0000000000000E-02  6.4414110960500E-01 -3.6576585199117E-01  6.2903601028522E-02
6  5.0000000000000E-02  7.9763772912288E-01 -4.4632280933476E-01  7.7835083807398E-02
7  6.0000000000000E-02  9.4619690391331E-01 -5.1988061369889E-01  9.2260078754542E-02
8  7.0000000000000E-02  1.0889181451318E+00 -5.8528773020293E-01  1.0609931958722E-01
9  8.0000000000000E-02  1.2249467717960E+00 -6.4151717421788E-01  1.1928424696998E-01
10  9.0000000000000E-02  1.3534802344118E+00 -6.8767882102227E-01  1.3175781659377E-01
11  1.0000000000000E-01  1.4737738959304E+00 -7.2302844872352E-01  1.4347497227142E-01
12  1.1000000000000E-01  1.5851462327215E+00 -7.4697345510902E-01  1.5440280833819E-01
13  1.2000000000000E-01  1.6869834305430E+00 -7.5907531319461E-01  1.6452046546012E-01
14  1.3000000000000E-01  1.7787433622528E+00 -7.5904894857223E-01  1.7381882138445E-01
15  1.4000000000000E-01  1.8599589447657E+00 -7.4675932893237E-01  1.8230005208481E-01
16  1.5000000000000E-01  1.9302408820537E+00 -7.2221564759996E-01  1.8997714819729E-01
17  1.6000000000000E-01  1.9892798084765E+00 -6.8556355449635E-01  1.9687347585014E-01
18  1.7000000000000E-01  2.0368478521345E+00 -6.3707593642216E-01  2.0302246944669E-01
19  1.8000000000000E-01  2.0727996411073E+00 -5.7714277185936E-01  2.0846753646205E-01
20  1.9000000000000E-01  2.0970727763497E+00 -5.0626058257618E-01  2.1326224093423E-01
21  2.0000000000000E-01  2.1096877937329E+00 -4.2502197544002E-01  2.1747081348518E-01
22  2.1000000000000E-01  2.1107476344674E+00 -3.3410571443312E-01  2.2116901211121E-01
23  2.2000000000000E-01  2.1004366382400E+00 -2.3426768750746E-01  2.2444533063159E-01
24  2.3000000000000E-01  2.0790190672532E+00 -1.2633303927119E-01  2.2740252183251E-01
25  2.4000000000000E-01  2.0468371624954E+00 -1.1189633172339E-02  2.3015937144723E-01
26  2.5000000000000E-01  2.0043087265325E+00  1.1021710892488E-01  2.3285262874804E-01
27  2.6000000000000E-01  1.9519242205148E+00  2.3688806023783E-01  2.3563897136853E-01
28  2.7000000000000E-01  1.8902433575190E+00  3.6777312109461E-01  2.3869685765766E-01
29  2.8000000000000E-01  1.8198911703814E+00  5.0177312053311E-01  2.4222810097403E-01
30  2.9000000000000E-01  1.7415535303386E+00  6.3774126902903E-01  2.4645898824810E-01
31  3.0000000000000E-01  1.6559720935143E+00  7.7448461423951E-01  2.5164076104889E-01
32  3.1000000000000E-01  1.5639386559010E+00  9.1076599753690E-01  2.5804928213682E-01
33  3.2000000000000E-01  1.4662889041830E+00  1.0453070272591E+00  2.6598372458671E-01
34  3.3000000000000E-01  1.3638955595805E+00  1.1767925730508E+00  2.7576414410719E-01
35  3.4000000000000E-01  1.2576609247496E+00  1.3038772437115E+00  2.8772782784779E-01
36  3.5000000000000E-01  1.1485088593892E+00  1.4251942393249E+00  3.0222435401391E-01
37  3.6000000000000E-01  1.0373762281503E+00  1.5393668693275E+00  3.1960934480991E-01
38  3.7000000000000E-01  9.2520388413293E-01  1.6450229050947E+00  3.4023694902410E-01
39  3.8000000000000E-01  8.1292727199622E-01  1.7408117934011E+00  3.6445114803310E-01
40  3.9000000000000E-01  7.0146675567779E-01  1.8254246016240E+00  3.9257603792691E-01
41  4.0000000000000E-01  5.9171779602995E-01  1.8976164035726E+00  4.2490529843366E-01
42  4.1000000000000E-01  4.8454112240627E-01  1.9562306536808E+00  4.6169111384099E-01
43  4.2000000000000E-01  3.8075305843640E-01  2.0002249445913E+00  5.0313285965220E-01
44  4.3000000000000E-01  2.8111617501417E-01  2.0286974064901E+00  5.4936590886254E-01
45  4.4000000000000E-01  1.8633045207262E-01  2.0409128930995E+00  6.0045094128035E-01
46  4.5000000000000E-01  9.7025134329058E-02  2.0363280154724E+00  6.5636415635514E-01
47  4.6000000000000E-01  1.3751464299084E-02  2.0146140361190E+00  7.1698879301215E-01
48  4.7000000000000E-01 -6.3023531866475E-02  1.9756766266740E+00  7.8210834802046E-01
49  4.8000000000000E-01 -1.3292204393425E-01  1.9196715248923E+00  8.5140185698237E-01
50  4.9000000000000E-01 -1.9565912047223E-01  1.8470152022047E+00  9.2444155924584E-01
51  5.0000000000000E-01 -2.5104483839296E-01  1.7583897704024E+00  1.0006932106773E+00
52  5.1000000000000E-01 -2.9898491300965E-01  1.6547415126379E+00  1.0795192376195E+00
53  5.2000000000000E-01 -3.3947969736132E-01  1.5372726152338E+00  1.1601848434622E+00
54  5.3000000000000E-01 -3.7262155789677E-01  1.4074258966928E+00  1.2418670885225E+00
55  5.4000000000000E-01 -3.9859065423632E-01  1.2668625711362E+00  1.3236668673017E+00
56  5.5000000000000E-01 -4.1764919239361E-01  1.1174333363963E+00  1.4046236079220E+00
57  5.6000000000000E-01 -4.3013426217394E-01  9.6114333246393E-01  1.4837324201691E+00
58  5.7000000000000E-01 -4.3644940906536E-01  8.0011176379373E-01  1.5599633247039E+00
59  5.8000000000000E-01 -4.3705512740399E-01  6.3652720885981E-01  1.6322821102514E+00
60  5.9000000000000E-01 -4.3245849358717E-01  4.7259984241039E-01  1.6996722913683E+00
61  6.0000000000000E-01 -4.2320218439878E-01  3.1051196094038E-01  1.7611575798529E+00
62  6.1000000000000E-01 -4.0985314503423E-01  1.5236832193357E-01  1.8158242407038E+00
63  6.2000000000000E-01 -3.9299118331422E-01  1.4787594256276E-04  1.8628426808843E+00
64  6.3000000000000E-01 -3.7319777023388E-01 -1.4434151722001E-01  1.9014876175423E+00
65  6.4000000000000E-01 -3.5104532207470E-01 -2.7950384361934E-01  1.9311561925325E+00
66  6.5000000000000E-01 -3.2708722575454E-01 -4.0398972328594E-01  1.9513834421348E+00
67  6.6000000000000E-01 -3.0184884715896E-01 -5.1672395670160E-01  1.9618545940057E+00
68  6.7000000000000E-01 -2.7581973243063E-01 -6.1692477258766E-01  1.9624137461134E+00
69  6.8000000000000E-01 -2.4944717542306E-01 -7.0411398477049E-01  1.9530685824579E+00
70  6.9000000000000E-01 -2.2313128182889E-01 -7.7811757009610E-01  1.9339908948824E+00
71  7.0000000000000E-01 -1.9722161318578E-01 -8.3905651298466E-01  1.9055128057649E+00
72  7.1000000000000E-01 -1.7201544351384E-01 -8.8732811419498E-01  1.8681187190079E+00
73  7.2000000000000E-01 -1.4775760937116E-01 -9.2357831946140E-01  1.8224331622760E+00
74  7.3000000000000E-01 -1.2464188229374E-01 -9.4866597533602E-01  1.7692048175807E+00
75  7.4000000000000E-01 -1.0281374262347E-01 -9.6362025196288E-01  1.7092871656999E+00
76  7.5000000000000E-01 -8.2374387271890E-02 -9.6959277326779E-01  1.6436162883502E+00
77  7.6000000000000E-01 -6.3385762585673E-02 -9.6780625247474E-01  1.5731864765820E+00
78  7.7000000000000E-01 -4.5876378599866E-02 -9.5950163436428E-01  1.4990243810030E+00
79  7.8000000000000E-01 -2.9847633834566E-02 -9.4588588609189E-01  1.4221625061227E+00
80  7.9000000000000E-01 -1.5280361449333E-02 -9.2808264810967E-01  1.3436128948970E+00
81  8.0000000000000E-01 -2.1412988382962E-03 -9.0708794990674E-01  1.2643418685805E+00
82  8.1000000000000E-01  9.6108157890422E-03 -8.8373310782166E-01  1.1852466800315E+00
83  8.2000000000000E-01  2.0019804273606E-02 -8.5865675162723E-01  1.1071349050420E+00
84  8.3000000000000E-01  2.9127528505569E-02 -8.3228767199765E-01  1.0307073359447E+00
85  8.4000000000000E-01  3.6970517780791E-02 -8.0483984259511E-01  9.5654505505512E-01
86  8.5000000000000E-01  4.3577927687839E-02 -7.7632054939174E-01  8.8510125304100E-01
87  8.6000000000000E-01  4.8970960259396E-02 -7.4655205742361E-01  8.1669821990943E-01
88  8.7000000000000E-01  5.3163810503970E-02 -7.1520666275609E-01  7.5152977475460E-01
89  8.8000000000000E-01  5.6166129780358E-02 -6.8185431556194E-01  6.8966921531521E-01
90  8.9000000000000E-01  5.7986911809614E-02 -6.4602125821790E-01  6.3108265997910E-01
91  9.0000000000000E-01  5.8639612245631E-02 -6.0725729759139E-01  5.7564742277377E-01
92  9.1000000000000E-01  5.8148207186124E-02 -5.6520841821429E-01  5.2317480496280E-01
93  9.2000000000000E-01  5.6553778994964E-02 -5.1969043479163E-01  4.7343640304470E-01
94  9.3000000000000E-01  5.3921088118775E-02 -4.7075826700105E-01  4.2619271902406E-01
95  9.4000000000000E-01  5.0344445546981E-02 -4.1876418137664E-01  3.8122251033626E-01
96  9.5000000000000E-01  4.5952040021243E-02 -3.6439696462868E-01  3.3835092793684E-01
97  9.6000000000000E-01  4.0907694365847E-02 -3.0869244606432E-01  2.9747405458847E-01
98  9.7000000000000E-01  3.5408823052281E-02 -2.5300404440795E-01  2.5857696232379E-01
99  9.8000000000000E-01  2.9679134590806E-02 -1.9892004351926E-01  2.2174184832692E-01
100  9.9000000000000E-01  2.3954361635189E-02 -1.4811204761806E-01  1.8714216900600E-01
101  1.0000000000000E+00  1.8459025229071E-02 -1.0209672179572E-01  1.5501797205618E-01
102  1.0100000000000E+00  1.3371960201935E-02 -6.1890637593061E-02  1.2562682589128E-01
103  1.0200000000000E+00  8.8006272916189E-03 -2.7781348680052E-02  9.9179971514629E-02
104  1.0300000000000E+00  4.8166573697634E-03  2.3540175139875E-04  7.5823499355458E-02
105  1.0400000000000E+00  1.4756103548420E-03  2.2223358121239E-02  5.5643765468753E-02
106  1.0500000000000E+00 -1.1846220055827E-03  3.8316039269724E-02  3.8667053770006E-02
107  1.0600000000000E+00 -3.1460124566394E-03  4.8734160641914E-02  2.4857795697186E-02
108  1.0700000000000E+00 -4.4129067293308E-03  5.3806987653235E-02  1.4115632018705E-02
109  1.0800000000000E+00 -5.0146945212562E-03  5.3996027220081E-02  6.2716230041251E-03
110  1.0900000000000E+00 -5.0085436569047E-03  4.9920006946071E-02  1.0838328287763E-03
111  1.1000000000000E+00 -4.4948788929777E-03  4.2479583492610E-02 -1.8124875142365E-03
112  1.1100000000000E+00 -3.6874364501161E-03  3.3412738846236E-02 -3.1519709398945E-03
113  1.1200000000000E+00 -2.6813673920418E-03  2.3488285374076E-02 -3.2154791090855E-03
114  1.1300000000000E+00 -1.6021058037000E-03  1.3659455692272E-02 -2.3439854504680E-03
115  1.1400000000000E+00 -6.4314223657953E-04  5.3656222885394E-03 -1.0722114885556E-03
116  1.1500000000000E+00 -6.7834081358876E-05  5.5586093785560E-04 -1.2411819551440E-04
117  1.1600000000000E+00  2.6046734922803E-06 -2.1154472081001E-05  4.9824790695937E-06
118  1.1700000000000E+00  4.0651572217524E-07 -3.3476360494880E-06  7.2730715762175E-07
119  1.18 -0.  0. -0.
120  1.19  0.  0.  0.
121  1.20  0.  0.  0.
122  1.21  0.  0.  0.
123  1.22  0.  0.  0.
124  1.23  0.  0.  0.
125  1.24  0.  0.  0.
126  1.25  0.  0.  0.
127  1.26  0.  0.  0.
128  1.27  0.  0.  0.
129  1.28  0.  0.  0.
130  1.29  0.  0.  0.
131  1.30  0.  0.  0.
132  1.31  0.  0.  0.
133  1.32  0.  0.  0.
134  1.33  0.  0.  0.
135  1.34  0.  0.  0.
136  1.35  0.  0.  0.
137  1.36  0.  0.  0.
138  1.37  0.  0.  0.
139  1.38  0.  0.  0.
140  1.39  0.  0.  0.
141  1.40  0.  0.  0.
142  1.41  0.  0.  0.
143  1.42  0.  0.  0.
144  1.43  0.  0.  0.
145  1.44  0.  0.  0.
146  1.45  0.  0.  0.
147  1.46  0.  0.  0.
148  1.47  0.  0.  0.
149  1.48  0.  0.  0.
150  1.49  0.  0.  0.
151  1.50  0.  0.  0.
152  1.51  0.  0.  0.
153  1.52  0.  0.  0.
154  1.53  0.  0.  0.
155  1.54  0.  0.  0.
156  1.55  0.  0.  0.
157  1.56  0.  0.  0.
158  1.57  0.  0.  0.
159  1.58  0.  0.  0.
160  1.59  0.  0.  0.
161  1.60  0.  0.  0.
162  1.61  0.  0.  0.
163  1.62  0.  0.  0.
164  1.63  0.  0.  0.
165  1.64  0.  0.  0.
166  1.65  0.  0.  0.
167  1.66  0.  0.  0.
168  1.67  0.  0.  0.
169  1.68  0.  0.  0.
170  1.69  0.  0.  0.
171  1.70  0.  0.  0.
172  1.71  0.  0.  0.
173  1.72  0.  0.  0.
174  1.73  0.  0.  0.
175  1.74  0.  0.  0.
176  1.75  0.  0.  0.
177  1.76  0.  0.  0.
178  1.77  0.  0.  0.
179  1.78  0.  0.  0.
180  1.79  0.  0.  0.
181  1.80  0.  0.  0.
182  1.81  0.  0.  0.
183  1.82  0.  0.  0.
184  1.83  0.  0.  0.
185  1.84  0.  0.  0.
186  1.85  0.  0.  0.
187  1.86  0.  0.  0.
188  1.87  0.  0.  0.
189  1.88  0.  0.  0.
190  1.89  0.  0.  0.
191  1.90  0.  0.  0.
192  1.91  0.  0.  0.
193  1.92  0.  0.  0.
194  1.93  0.  0.  0.
195  1.94  0.  0.  0.
196  1.95  0.  0.  0.
197  1.96  0.  0.  0.
198  1.97  0.  0.  0.
199  1.98  0.  0.  0.
200  1.99  0.  0.  0.
201  2.00  0.  0.  0.
202  2.01  0.  0.  0.
203  2.02  0.  0.  0.
204  2.03  0.  0.  0.
205  2.04  0.  0.  0.
206  2.05  0.  0.  0.
207  2.06  0.  0.  0.
208  2.07  0.  0.  0.
209  2.08  0.  0.  0.
210  2.09  0.  0.  0.
211  2.10  0.  0.  0.
212  2.11  0.  0.  0.
213  2.12  0.  0.  0.
214  2.13  0.  0.  0.
215  2.14  0.  0.  0.
216  2.15  0.  0.  0.
217  2.16  0.  0.  0.
218  2.17  0.  0.  0.
219  2.18  0.  0.  0.
220  2.19  0.  0.  0.
221  2.20  0.  0.  0.
222  2.21  0.  0.  0.
223  2.22  0.  0.  0.
224  2.23  0.  0.  0.
225  2.24  0.  0.  0.
226  2.25  0.  0.  0.
227  2.26  0.  0.  0.
228  2.27  0.  0.  0.
229  2.28  0.  0.  0.
230  2.29  0.  0.  0.
231  2.30  0.  0.  0.
232  2.31  0.  0.  0.
233  2.32  0.  0.  0.
234  2.33  0.  0.  0.
235  2.34  0.  0.  0.
236  2.35  0.  0.  0.
237  2.36  0.  0.  0.
238  2.37  0.  0.  0.
239  2.38  0.  0.  0.
240  2.39  0.  0.  0.
241  2.40  0.  0.  0.
242  2.41  0.  0.  0.
243  2.42  0.  0.  0.
244  2.43  0.  0.  0.
245  2.44  0.  0.  0.
246  2.45  0.  0.  0.
247  2.46  0.  0.  0.
248  2.47  0.  0.  0.
249  2.48  0.  0.  0.
250  2.49  0.  0.  0.
251  2.50  0.  0.  0.
252  2.51  0.  0.  0.
253  2.52  0.  0.  0.
254  2.53  0.  0.  0.
255  2.54  0.  0.  0.
256  2.55  0.  0.  0.
257  2.56  0.  0.  0.
258  2.57  0.  0.  0.
259  2.58  0.  0.  0.
260  2.59  0.  0.  0.
261  2.60  0.  0.  0.
262  2.61  0.  0.  0.
263  2.62  0.  0.  0.
264  2.63  0.  0.  0.
265  2.64  0.  0.  0.
266  2.65  0.  0.  0.
267  2.66  0.  0.  0.
268  2.67  0.  0.  0.
269  2.68  0.  0.  0.
270  2.69  0.  0.  0.
271  2.70  0.  0.  0.
272  2.71  0.  0.  0.
273  2.72  0.  0.  0.
274  2.73  0.  0.  0.
275  2.74  0.  0.  0.
276  2.75  0.  0.  0.
277  2.76  0.  0.  0.
278  2.77  0.  0.  0.
279  2.78  0.  0.  0.
280  2.79  0.  0.  0.
281  2.80  0.  0.  0.
282  2.81  0.  0.  0.
283  2.82  0.  0.  0.
284  2.83  0.  0.  0.
285  2.84  0.  0.  0.
286  2.85  0.  0.  0.
287  2.86  0.  0.  0.
288  2.87  0.  0.  0.
289  2.88  0.  0.  0.
290  2.89  0.  0.  0.
291  2.90  0.  0.  0.
292  2.91  0.  0.  0.
293  2.92  0.  0.  0.
294  2.93  0.  0.  0.
295  2.94  0.  0.  0.
296  2.95  0.  0.  0.
297  2.96  0.  0.  0.
298  2.97  0.  0.  0.
299  2.98  0.  0.  0.
300  2.99  0.  0.  0.
301  3.00  0.  0.  0.
302  3.01  0.  0.  0.
303  3.02  0.  0.  0.
304  3.03  0.  0.  0.
305  3.04  0.  0.  0.
306  3.05  0.  0.  0.
307  3.06  0.  0.  0.
308  3.07  0.  0.  0.
309  3.08  0.  0.  0.
310  3.09  0.  0.  0.
311  3.10  0.  0.  0.
312  3.11  0.  0.  0.
313  3.12  0.  0.  0.
314  3.13  0.  0.  0.
315  3.14  0.  0.  0.
316  3.15  0.  0.  0.
317  3.16  0.  0.  0.
318  3.17  0.  0.  0.
319  3.18  0.  0.  0.
320  3.19  0.  0.  0.
321  3.20  0.  0.  0.
322  3.21  0.  0.  0.
323  3.22  0.  0.  0.
324  3.23  0.  0.  0.
325  3.24  0.  0.  0.
326  3.25  0.  0.  0.
327  3.26  0.  0.  0.
328  3.27  0.  0.  0.
329  3.28  0.  0.  0.
330  3.29  0.  0.  0.
331  3.30  0.  0.  0.
332  3.31  0.  0.  0.
333  3.32  0.  0.  0.
334  3.33  0.  0.  0.
335  3.34  0.  0.  0.
336  3.35  0.  0.  0.
337  3.36  0.  0.  0.
338  3.37  0.  0.  0.
339  3.38  0.  0.  0.
340  3.39  0.  0.  0.
341  3.40  0.  0.  0.
342  3.41  0.  0.  0.
343  3.42  0.  0.  0.
344  3.43  0.  0.  0.
345  3.44  0.  0.  0.
346  3.45  0.  0.  0.
347  3.46  0.  0.  0.
348  3.47  0.  0.  0.
349  3.48  0.  0.  0.
350  3.49  0.  0.  0.
351  3.50  0.  0.  0.
352  3.51  0.  0.  0.
353  3.52  0.  0.  0.
354  3.53  0.  0.  0.
355  3.54  0.  0.  0.
356  3.55  0.  0.  0.
357  3.56  0.  0.  0.
358  3.57  0.  0.  0.
359  3.58  0.  0.  0.
360  3.59  0.  0.  0.
361  3.60  0.  0.  0.
362  3.61  0.  0.  0.
363  3.62  0.  0.  0.
364  3.63  0.  0.  0.
365  3.64  0.  0.  0.
366  3.65  0.  0.  0.
367  3.66  0.  0.  0.
368  3.67  0.  0.  0.
369  3.68  0.  0.  0.
370  3.69  0.  0.  0.
371  3.70  0.  0.  0.
372  3.71  0.  0.  0.
373  3.72  0.  0.  0.
374  3.73  0.  0.  0.
375  3.74  0.  0.  0.
376  3.75  0.  0.  0.
377  3.76  0.  0.  0.
378  3.77  0.  0.  0.
379  3.78  0.  0.  0.
380  3.79  0.  0.  0.
381  3.80  0.  0.  0.
382  3.81  0.  0.  0.
383  3.82  0.  0.  0.
384  3.83  0.  0.  0.
385  3.84  0.  0.  0.
386  3.85  0.  0.  0.
387  3.86  0.  0.  0.
388  3.87  0.  0.  0.
389  3.88  0.  0.  0.
390  3.89  0.  0.  0.
391  3.90  0.  0.  0.
392  3.91  0.  0.  0.
393  3.92  0.  0.  0.
394  3.93  0.  0.  0.
395  3.94  0.  0.  0.
396  3.95  0.  0.  0.
397  3.96  0.  0.  0.
398  3.97  0.  0.  0.
399  3.98  0.  0.  0.
400  3.99  0.  0.  0.
401  4.00  0.  0.  0.
402  4.01  0.  0.  0.
403  4.02  0.  0.  0.
404  4.03  0.  0.  0.
405  4.04  0.  0.  0.
406  4.05  0.  0.  0.
407  4.06  0.  0.  0.
408  4.07  0.  0.  0.
409  4.08  0.  0.  0.
410  4.09  0.  0.  0.
411  4.10  0.  0.  0.
412  4.11  0.  0.  0.
413  4.12  0.  0.  0.
414  4.13  0.  0.  0.
415  4.14  0.  0.  0.
416  4.15  0.  0.  0.
417  4.16  0.  0.  0.
418  4.17  0.  0.  0.
419  4.18  0.  0.  0.
420  4.19  0.  0.  0.
421  4.20  0.  0.  0.
422  4.21  0.  0.  0.
423  4.22  0.  0.  0.
424  4.23  0.  0.  0.
425  4.24  0.  0.  0.
426  4.25  0.  0.  0.
427  4.26  0.  0.  0.
428  4.27  0.  0.  0.
429  4.28  0.  0.  0.
430  4.29  0.  0.  0.
431  4.30  0.  0.  0.
432  4.31  0.  0.  0.
433  4.32  0.  0.  0.
434  4.33  0.  0.  0.
435  4.34  0.  0.  0.
436  4.35  0.  0.  0.
437  4.36  0.  0.  0.
438  4.37  0.  0.  0.
439  4.38  0.  0.  0.
440  4.39  0.  0.  0.
441  4.40  0.  0.  0.
442  4.41  0.  0.  0.
443  4.42  0.  0.  0.
444  4.43  0.  0.  0.
445  4.44  0.  0.  0.
446  4.45  0.  0.  0.
447  4.46  0.  0.  0.
448  4.47  0.  0.  0.
449  4.48  0.  0.  0.
450  4.49  0.  0.  0.
451  4.50  0.  0.  0.
452  4.51  0.  0.  0.
453  4.52  0.  0.  0.
454  4.53  0.  0.  0.
455  4.54  0.  0.  0.
456  4.55  0.  0.  0.
457  4.56  0.  0.  0.
458  4.57  0.  0.  0.
459  4.58  0.  0.  0.
460  4.59  0.  0.  0.
461  4.60  0.  0.  0.
462  4.61  0.  0.  0.
463  4.62  0.  0.  0.
464  4.63  0.  0.  0.
465  4.64  0.  0.  0.
466  4.65  0.  0.  0.
467  4.66  0.  0.  0.
468  4.67  0.  0.  0.
469  4.68  0.  0.  0.
470  4.69  0.  0.  0.
471  4.70  0.  0.  0.
472  4.71  0.  0.  0.
473  4.72  0.  0.  0.
474  4.73  0.  0.  0.
475  4.74  0.  0.  0.
476  4.75  0.  0.  0.
477  4.76  0.  0.  0.
478  4.77  0.  0.  0.
479  4.78  0.  0.  0.
480  4.79  0.  0.  0.
481  4.80  0.  0.  0.
482  4.81  0.  0.  0.
483  4.82  0.  0.  0.
484  4.83  0.  0.  0.
485  4.84  0.  0.  0.
486  4.85  0.  0.  0.
487  4.86  0.  0.  0.
488  4.87  0.  0.  0.
489  4.88  0.  0.  0.
490  4.89  0.  0.  0.
491  4.90  0.  0.  0.
492  4.91  0.  0.  0.
493  4.92  0.  0.  0.
494  4.93  0.  0.  0.
495  4.94  0.  0.  0.
496  4.95  0.  0.  0.
497  4.96  0.  0.  0.
498  4.97  0.  0.  0.
499  4.98  0.  0.  0.
500  4.99  0.  0.  0.
501  5.00  0.  0.  0.
502  5.01  0.  0.  0.
503  5.02  0.  0.  0.
504  5.03  0.  0.  0.
505  5.04  0.  0.  0.
506  5.05  0.  0.  0.
507  5.06  0.  0.  0.
508  5.07  0.  0.  0.
509  5.08  0.  0.  0.
510  5.09  0.  0.  0.
511  5.10  0.  0.  0.
512  5.11  0.  0.  0.
513  5.12  0.  0.  0.
514  5.13  0.  0.  0.
515  5.14  0.  0.  0.
516  5.15  0.  0.  0.
517  5.16  0.  0.  0.
518  5.17  0.  0.  0.
519  5.18  0.  0.  0.
520  5.19  0.  0.  0.
521  5.20  0.  0.  0.
522  5.21  0.  0.  0.
523  5.22  0.  0.  0.
524  5.23  0.  0.  0.
525  5.24  0.  0.  0.
526  5.25  0.  0.  0.
527  5.26  0.  0.  0.
528  5.27  0.  0.  0.
529  5.28  0.  0.  0.
530  5.29  0.  0.  0.
531  5.30  0.  0.  0.
532  5.31  0.  0.  0.
533  5.32  0.  0.  0.
534  5.33  0.  0.  0.
535  5.34  0.  0.  0.
536  5.35  0.  0.  0.
537  5.36  0.  0.  0.
538  5.37  0.  0.  0.
539  5.38  0.  0.  0.
540  5.39  0.  0.  0.
541  5.40  0.  0.  0.
542  5.41  0.  0.  0.
543  5.42  0.  0.  0.
544  5.43  0.  0.  0.
545  5.44  0.  0.  0.
546  5.45  0.  0.  0.
547  5.46  0.  0.  0.
548  5.47  0.  0.  0.
549  5.48  0.  0.  0.
550  5.49  0.  0.  0.
551  5.50  0.  0.  0.
552  5.51  0.  0.  0.
553  5.52  0.  0.  0.
554  5.53  0.  0.  0.
555  5.54  0.  0.  0.
556  5.55  0.  0.  0.
557  5.56  0.  0.  0.
558  5.57  0.  0.  0.
559  5.58  0.  0.  0.
560  5.59  0.  0.  0.
561  5.60  0.  0.  0.
562  5.61  0.  0.  0.
563  5.62  0.  0.  0.
564  5.63  0.  0.  0.
565  5.64  0.  0.  0.
566  5.65  0.  0.  0.
567  5.66  0.  0.  0.
568  5.67  0.  0.  0.
569  5.68  0.  0.  0.
570  5.69  0.  0.  0.
571  5.70  0.  0.  0.
572  5.71  0.  0.  0.
573  5.72  0.  0.  0.
574  5.73  0.  0.  0.
575  5.74  0.  0.  0.
576  5.75  0.  0.  0.
577  5.76  0.  0.  0.
578  5.77  0.  0.  0.
579  5.78  0.  0.  0.
580  5.79  0.  0.  0.
581  5.80  0.  0.  0.
582  5.81  0.  0.  0.
583  5.82  0.  0.  0.
584  5.83  0.  0.  0.
585  5.84  0.  0.  0.
586  5.85  0.  0.  0.
587  5.86  0.  0.  0.
588  5.87  0.  0.  0.
589  5.88  0.  0.  0.
590  5.89  0.  0.  0.
591  5.90  0.  0.  0.
592  5.91  0.  0.  0.
593  5.92  0.  0.  0.
594  5.93  0.  0.  0.
595  5.94  0.  0.  0.
596  5.95  0.  0.  0.
597  5.96  0.  0.  0.
598  5.97  0.  0.  0.
599  5.98  0.  0.  0.
600  5.99  0.  0.  0.
1                         1.3962093847052E+01 -4.8857284783240E-01
1  0.0000000000000E+00  7.3145353107762E-09  7.8088102095641E-09
2  1.0000000000000E-02  4.9011872456114E-03  4.8330856245771E-03
3  2.0000000000000E-02  1.9557121503670E-02  1.9255019025740E-02
4  3.0000000000000E-02  4.3825372238852E-02  4.3034690785852E-02
5  4.0000000000000E-02  7.7470057851539E-02  7.5789787394713E-02
6  5.0000000000000E-02  1.2016408663467E-01  1.1699109014455E-01
7  6.0000000000000E-02  1.7149226816979E-01  1.6596848351524E-01
8  7.0000000000000E-02  2.3095526927065E-01  2.2191866001300E-01
9  8.0000000000000E-02  2.9797438126790E-01  2.8391450061680E-01
10  9.0000000000000E-02  3.7189705819232E-01  3.5091609939226E-01
11  1.0000000000000E-01  4.5200317828926E-01  4.2178338712031E-01
12  1.1000000000000E-01  5.3751197432736E-01  4.9529029179207E-01
13  1.2000000000000E-01  6.2758957140215E-01  5.7014035354449E-01
14  1.3000000000000E-01  7.2135706444113E-01  6.4498368824121E-01
15  1.4000000000000E-01  8.1789906146386E-01  7.1843516780611E-01
16  1.5000000000000E-01  9.1627261291716E-01  7.8909365714140E-01
17  1.6000000000000E-01  1.0155164421799E+00  8.5556211771913E-01
18  1.7000000000000E-01  1.1146603877068E+00  9.1646835758047E-01
19  1.8000000000000E-01  1.2127349633546E+00  9.7048617749318E-01
20  1.9000000000000E-01  1.3087809403015E+00  1.0163566344723E+00
21  2.0000000000000E-01  1.4018588517332E+00  1.0529091178897E+00
22  2.1000000000000E-01  1.4910583202184E+00  1.0790819111300E+00
23  2.2000000000000E-01  1.5755071075118E+00  1.0939418943171E+00
24  2.3000000000000E-01  1.6543797874905E+00  1.0967030320930E+00
25  2.4000000000000E-01  1.7269059451001E+00  1.0867432857406E+00
26  2.5000000000000E-01  1.7923778076106E+00  1.0636195919125E+00
27  2.6000000000000E-01  1.8501572191874E+00  1.0270805614914E+00
28  2.7000000000000E-01  1.8996818757653E+00  9.7707657209586E-01
29  2.8000000000000E-01  1.9404707444691E+00  9.1376695663362E-01
30  2.9000000000000E-01  1.9721286002926E+00  8.3752402804156E-01
31  3.0000000000000E-01  1.9943496223794E+00  7.4893372658586E-01
32  3.1000000000000E-01  2.0069200029335E+00  6.4879273024180E-01
33  3.2000000000000E-01  2.0097195334176E+00  5.3810192984653E-01
34  3.3000000000000E-01  2.0027221451230E+00  4.1805623780917E-01
35  3.4000000000000E-01  1.9859953942586E+00  2.9003077081375E-01
36  3.5000000000000E-01  1.9596988952153E+00  1.5556352161304E-01
37  3.6000000000000E-01  1.9240817194200E+00  1.6334710972633E-02
38  3.7000000000000E-01  1.8794787909878E+00 -1.2585691375686E-01
39  3.8000000000000E-01  1.8263063239815E+00 -2.6912049398219E-01
40  3.9000000000000E-01  1.7650563592713E+00 -4.1150178106219E-01
41  4.0000000000000E-01  1.6962904715256E+00 -5.5101369294415E-01
42  4.1000000000000E-01  1.6206327285314E+00 -6.8566818154484E-01
43  4.2000000000000E-01  1.5387619956251E+00 -8.1350884160558E-01
44  4.3000000000000E-01  1.4514036873171E+00 -9.3264365835188E-01
45  4.4000000000000E-01  1.3593210760293E+00 -1.0412772702757E+00
46  4.5000000000000E-01  1.2633062740842E+00 -1.1377421156687E+00
47  4.6000000000000E-01  1.1641710095527E+00 -1.2205278377709E+00
48  4.7000000000000E-01  1.0627373191892E+00 -1.2883083438451E+00
49  4.8000000000000E-01  9.5982828239207E-01 -1.3399659480303E+00
50  4.9000000000000E-01  8.5625891889210E-01 -1.3746120760350E+00
51  5.0000000000000E-01  7.5282736970315E-01 -1.3916040707664E+00
52  5.1000000000000E-01  6.5030647580310E-01 -1.3905577107020E+00
53  5.2000000000000E-01  5.4943586213862E-01 -1.3713551357128E+00
54  5.3000000000000E-01  4.5091462597139E-01 -1.3341479663668E+00
55  5.4000000000000E-01  3.5539471845858E-01 -1.2793555004835E+00
56  5.5000000000000E-01  2.6347509686326E-01 -1.2076579726591E+00
57  5.6000000000000E-01  1.7569671212636E-01 -1.1199849663220E+00
58  5.7000000000000E-01  9.2538382927567E-02 -1.0174991711983E+00
59  5.8000000000000E-01  1.4413593063175E-02 -9.0157577946084E-01
60  5.9000000000000E-01 -5.8331765767655E-02 -7.7377790894800E-01
61  6.0000000000000E-01 -1.2542069858700E-01 -6.3582852944079E-01
62  6.1000000000000E-01 -1.8664546680802E-01 -4.8957944601458E-01
63  6.2000000000000E-01 -2.4186702504759E-01 -3.3697796012153E-01
64  6.3000000000000E-01 -2.9101357103220E-01 -1.8003188275442E-01
65  6.4000000000000E-01 -3.3407825755541E-01 -2.0773613568625E-02
66  6.5000000000000E-01 -3.7111612738758E-01  1.3877597569824E-01
67  6.6000000000000E-01 -4.0224034272204E-01  2.9664310629673E-01
68  6.7000000000000E-01 -4.2761778999745E-01  4.5093536569694E-01
69  6.8000000000000E-01 -4.4746414862765E-01  5.9987397110136E-01
70  6.9000000000000E-01 -4.6203851819214E-01  7.4182334283918E-01
71  7.0000000000000E-01 -4.7163770292250E-01  8.7531735891069E-01
72  7.1000000000000E-01 -4.7659025482566E-01  9.9908172669341E-01
73  7.2000000000000E-01 -4.7725037751206E-01  1.1120519842911E+00
74  7.3000000000000E-01 -4.7399179177546E-01  1.2133867307020E+00
75  7.4000000000000E-01 -4.6720166126460E-01  1.3024757792669E+00
76  7.5000000000000E-01 -4.5727467228348E-01  1.3789430310708E+00
77  7.6000000000000E-01 -4.4460735597258E-01  1.4426439724551E+00
78  7.7000000000000E-01 -4.2959273399448E-01  1.4936578119799E+00
79  7.8000000000000E-01 -4.1261536052611E-01  1.5322743856161E+00
80  7.9000000000000E-01 -3.9404682401107E-01  1.5589760734323E+00
81  8.0000000000000E-01 -3.7424176192243E-01  1.5744150855645E+00
82  8.1000000000000E-01 -3.5353443090198E-01  1.5793865891348E+00
83  8.2000000000000E-01 -3.3223586324889E-01  1.5747982606518E+00
84  8.3000000000000E-01 -3.1063162899249E-01  1.5616369602444E+00
85  8.4000000000000E-01 -2.8898021085402E-01  1.5409333352090E+00
86  8.5000000000000E-01 -2.6751198741670E-01  1.5137252714687E+00
87  8.6000000000000E-01 -2.4642880790061E-01  1.4810212237264E+00
88  8.7000000000000E-01 -2.2590413017482E-01  1.4437645697283E+00
89  8.8000000000000E-01 -2.0608368210544E-01  1.4028002528449E+00
90  8.9000000000000E-01 -1.8708659508190E-01  1.3588451021170E+00
91  9.0000000000000E-01 -1.6900694760603E-01  1.3124633522197E+00
92  9.1000000000000E-01 -1.5191564616372E-01  1.2640490298812E+00
93  9.2000000000000E-01 -1.3586256019908E-01  1.2138170307279E+00
94  9.3000000000000E-01 -1.2087881782379E-01  1.1618048839365E+00
95  9.4000000000000E-01 -1.0697915884666E-01  1.1078873941921E+00
96  9.5000000000000E-01 -9.4164231712825E-02  1.0518065639241E+00
97  9.6000000000000E-01 -8.2422710894890E-02  9.9321943625709E-01
98  9.7000000000000E-01 -7.1733101065780E-02  9.3176676317103E-01
99  9.8000000000000E-01 -6.2065083891507E-02  8.6716569629422E-01
100  9.9000000000000E-01 -5.3380252313315E-02  7.9933003429076E-01
101  1.0000000000000E+00 -4.5632066777361E-02  7.2852174951912E-01
102  1.0100000000000E+00 -3.8764859045844E-02  6.5553740922449E-01
103  1.0200000000000E+00 -3.2713035941254E-02  5.8173899693387E-01
104  1.0300000000000E+00 -2.7404488070620E-02  5.0856263867995E-01
105  1.0400000000000E+00 -2.2764615347100E-02  4.3729613459432E-01
106  1.0500000000000E+00 -1.8719360613103E-02  3.6907723274101E-01
107  1.0600000000000E+00 -1.5198018997151E-02  3.0489535439494E-01
108  1.0700000000000E+00 -1.2135811036677E-02  2.4559455775048E-01
109  1.0800000000000E+00 -9.4762019358314E-03  1.9187717314527E-01
110  1.0900000000000E+00 -7.1729551154710E-03  1.4430771372328E-01
111  1.1000000000000E+00 -5.1943347673901E-03  1.0326523722378E-01
112  1.1100000000000E+00 -3.5373432108952E-03  6.8646219024558E-02
113  1.1200000000000E+00 -2.1846886048839E-03  4.0834477451616E-02
114  1.1300000000000E+00 -1.1336285672699E-03  2.0162783512205E-02
115  1.1400000000000E+00 -4.0337590593367E-04  6.7539228200793E-03
116  1.1500000000000E+00 -3.8309743079328E-05  5.9721327747068E-04
117  1.1600000000000E+00  1.3911478679712E-06 -2.0731620363241E-05
118  1.1700000000000E+00  2.3630440823759E-07 -3.7628887136326E-06
119  1.18 -0. -0.
120  1.19  0.  0.
121  1.20  0.  0.
122  1.21  0.  0.
123  1.22  0.  0.
124  1.23  0.  0.
125  1.24  0.  0.
126  1.25  0.  0.
127  1.26  0.  0.
128  1.27  0.  0.
129  1.28  0.  0.
130  1.29  0.  0.
131  1.30  0.  0.
132  1.31  0.  0.
133  1.32  0.  0.
134  1.33  0.  0.
135  1.34  0.  0.
136  1.35  0.  0.
137  1.36  0.  0.
138  1.37  0.  0.
139  1.38  0.  0.
140  1.39  0.  0.
141  1.40  0.  0.
142  1.41  0.  0.
143  1.42  0.  0.
144  1.43  0.  0.
145  1.44  0.  0.
146  1.45  0.  0.
147  1.46  0.  0.
148  1.47  0.  0.
149  1.48  0.  0.
150  1.49  0.  0.
151  1.50  0.  0.
152  1.51  0.  0.
153  1.52  0.  0.
154  1.53  0.  0.
155  1.54  0.  0.
156  1.55  0.  0.
157  1.56  0.  0.
158  1.57  0.  0.
159  1.58  0.  0.
160  1.59  0.  0.
161  1.60  0.  0.
162  1.61  0.  0.
163  1.62  0.  0.
164  1.63  0.  0.
165  1.64  0.  0.