No    ONCVPSP-4.0.1  r_core=   1.15610   1.15610   1.15610   1.15610
102.0000     42.0000      231012    zatom,zion,pspd
8 -116133   3     4   600     0    pspcod,pspxc,lmax,lloc,mmax,r2well
5.99000000  5.00000000  0.00000000    rchrg fchrg qchrg
3     4     3     2    nproj
3     1           extension_switch
4     4     3    nprojso
0                         2.3011682020651E+01  2.5528930324118E+00 -1.6743489493902E+00
1  0.0000000000000E+00 -1.5944015441249E-08  5.5356498107617E-08 -8.6556056766440E-10
2  1.0000000000000E-02  1.6406709482261E-01 -4.8595755577541E-02  4.0685498196141E-02
3  2.0000000000000E-02  3.2696208500346E-01 -9.6086269736297E-02  8.1229118485185E-02
4  3.0000000000000E-02  4.8752404060459E-01 -1.4138620823211E-01  1.2149032954588E-01
5  4.0000000000000E-02  6.4461421113430E-01 -1.8344956696618E-01  1.6133127970159E-01
6  5.0000000000000E-02  7.9712669470749E-01 -2.2128814166652E-01  2.0061810316715E-01
7  6.0000000000000E-02  9.4399861453830E-01 -2.5398860490951E-01  2.3922218667271E-01
8  7.0000000000000E-02  1.0842196581268E+00 -2.8072779439395E-01  2.7702138433802E-01
9  8.0000000000000E-02  1.2168408504446E+00 -3.0078587173641E-01  3.1390116953615E-01
10  9.0000000000000E-02  1.3409824513393E+00 -3.1355707657819E-01  3.4975571349494E-01
11  1.0000000000000E-01  1.4558408886318E+00 -3.1855787422126E-01  3.8448888149372E-01
12  1.1000000000000E-01  1.5606946612920E+00 -3.1543237382317E-01  4.1801513867735E-01
13  1.2000000000000E-01  1.6549091708813E+00 -3.0395497567688E-01  4.5026035867932E-01
14  1.3000000000000E-01  1.7379404633977E+00 -2.8403028749831E-01  4.8116252937739E-01
15  1.4000000000000E-01  1.8093378869754E+00 -2.5569042818051E-01  5.1067235115452E-01
16  1.5000000000000E-01  1.8687456928553E+00 -2.1908991049759E-01  5.3875372397040E-01
17  1.6000000000000E-01  1.9159036269828E+00 -1.7449835931497E-01  5.6538412033678E-01
18  1.7000000000000E-01  1.9506465769161E+00 -1.2229137684254E-01  5.9055484191527E-01
19  1.8000000000000E-01  1.9729033529675E+00 -6.2939909580304E-02  6.1427115791380E-01
20  1.9000000000000E-01  1.9826946932694E+00  3.0014984877390E-03  6.3655232375201E-01
21  2.0000000000000E-01  1.9801305895485E+00  7.4907166050914E-02  6.5743147861606E-01
22  2.1000000000000E-01  1.9654070336907E+00  1.5209304614973E-01  6.7695542055642E-01
23  2.2000000000000E-01  1.9388022847529E+00  2.3382942035482E-01  6.9518425774045E-01
24  2.3000000000000E-01  1.9006727521087E+00  3.1935315278847E-01  7.1219093440120E-01
25  2.4000000000000E-01  1.8514485832234E+00  4.0787918007626E-01  7.2806062998208E-01
26  2.5000000000000E-01  1.7916290345826E+00  4.9861096282789E-01  7.4289003002081E-01
27  2.6000000000000E-01  1.7217776920861E+00  5.9074968251629E-01  7.5678646750747E-01
28  2.7000000000000E-01  1.6425175933850E+00  6.8350203235455E-01  7.6986693384786E-01
29  2.8000000000000E-01  1.5545262898634E+00  7.7608651941269E-01  7.8225695921739E-01
30  2.9000000000000E-01  1.4585308709479E+00  8.6773826511015E-01  7.9408936304713E-01
31  3.0000000000000E-01  1.3553029588833E+00  9.5771235966231E-01  8.0550287667610E-01
32  3.1000000000000E-01  1.2456536687178E+00  1.0452858904042E+00  8.1664064185007E-01
33  3.2000000000000E-01  1.1304285166300E+00  1.1297588217018E+00  8.2764859075124E-01
34  3.3000000000000E-01  1.0105022504632E+00  1.2104539531475E+00  8.3867371558992E-01
35  3.4000000000000E-01  8.8677356985236E-01  1.2867162210538E+00  8.4986223844590E-01
36  3.5000000000000E-01  7.6015969999466E-01  1.3579116344132E+00  8.6135769496036E-01
37  3.6000000000000E-01  6.3159078312111E-01  1.4234261494537E+00  8.7329894858173E-01
38  3.7000000000000E-01  5.0200405514892E-01  1.4826647861935E+00  8.8581815527121E-01
39  3.8000000000000E-01  3.7233778176369E-01  1.5350512759349E+00  8.9903870177805E-01
40  3.9000000000000E-01  2.4352493807161E-01  1.5800285010054E+00  9.1307314368742E-01
41  4.0000000000000E-01  1.1648662863709E-01  1.6170599482246E+00  9.2802117230622E-01
42  4.1000000000000E-01 -7.8747403058576E-03  1.6456323470740E+00  9.4396764196092E-01
43  4.2000000000000E-01 -1.2868250797809E-01  1.6652596042556E+00  9.6098069131457E-01
44  4.3000000000000E-01 -2.4509297926658E-01  1.6754880804976E+00  9.7910999375081E-01
45  4.4000000000000E-01 -3.5630275368111E-01  1.6759031856205E+00  9.9838517261454E-01
46  4.5000000000000E-01 -4.6155608105051E-01  1.6661371966987E+00  1.0188144170511E+00
47  4.6000000000000E-01 -5.6015214548369E-01  1.6458781344066E+00  1.0403833332755E+00
48  4.7000000000000E-01 -6.5145216459090E-01  1.6148794670734E+00  1.0630540642820E+00
49  4.8000000000000E-01 -7.3488617906486E-01  1.5729703531925E+00  1.0867647082473E+00
50  4.9000000000000E-01 -8.0995939907394E-01  1.5200660835511E+00  1.1114290621970E+00
51  5.0000000000000E-01 -8.7625796903722E-01  1.4561783458392E+00  1.1369367129219E+00
52  5.1000000000000E-01 -9.3345401162555E-01  1.3814249092828E+00  1.1631534917231E+00
53  5.2000000000000E-01 -9.8130981551650E-01  1.2960383157549E+00  1.1899223034174E+00
54  5.3000000000000E-01 -1.0196810396310E+00  1.2003731677299E+00  1.2170643332772E+00
55  5.4000000000000E-01 -1.0485188192404E+00  1.0949116225681E+00  1.2443806283495E+00
56  5.5000000000000E-01 -1.0678706762453E+00  9.8026673664056E-01  1.2716540420772E+00
57  5.6000000000000E-01 -1.0778801567350E+00  8.5718335088586E-01  1.2986515235031E+00
58  5.7000000000000E-01 -1.0787851431238E+00  7.2653627017147E-01  1.3251267247796E+00
59  5.8000000000000E-01 -1.0709148151145E+00  5.8932556050298E-01  1.3508228934318E+00
60  5.9000000000000E-01 -1.0546852627034E+00  4.4666886846400E-01  1.3754760090257E+00
61  6.0000000000000E-01 -1.0305937846175E+00  2.9979075374012E-01  1.3988181177807E+00
62  6.1000000000000E-01 -9.9921193606212E-01  1.5000911539966E-01  1.4205808134001E+00
63  6.2000000000000E-01 -9.6117741958186E-01 -1.2811171577053E-03  1.4404988081550E+00
64  6.3000000000000E-01 -9.1718494126961E-01 -1.5262676998275E-01  1.4583135351640E+00
65  6.4000000000000E-01 -8.6797618065335E-01 -3.0253734626450E-01  1.4737767209832E+00
66  6.5000000000000E-01 -8.1432904552640E-01 -4.4950766910141E-01  1.4866538671256E+00
67  6.6000000000000E-01 -7.5704640205217E-01 -5.9204176727187E-01  1.4967275800051E+00
68  6.7000000000000E-01 -6.9694448505891E-01 -7.2867747557349E-01  1.5038006910461E+00
69  6.8000000000000E-01 -6.3484120307073E-01 -8.5801118563492E-01  1.5076991122815E+00
70  6.9000000000000E-01 -5.7154455696849E-01 -9.7872216342508E-01  1.5082743775967E+00
71  7.0000000000000E-01 -5.0784139006930E-01 -1.0895958467856E+00  1.5054058257601E+00
72  7.1000000000000E-01 -4.4448668085148E-01 -1.1895455504453E+00  1.4990023883626E+00
73  7.2000000000000E-01 -3.8219357768763E-01 -1.2776320368660E+00  1.4890039536043E+00
74  7.3000000000000E-01 -3.2162435810140E-01 -1.3530804580823E+00  1.4753822853098E+00
75  7.4000000000000E-01 -2.6338247369186E-01 -1.4152942351343E+00  1.4581414854250E+00
76  7.5000000000000E-01 -2.0800581657345E-01 -1.4638655159461E+00  1.4373179973139E+00
77  7.6000000000000E-01 -1.5596131466492E-01 -1.4985819374095E+00  1.4129801562098E+00
78  7.7000000000000E-01 -1.0764093222459E-01 -1.5194295104795E+00  1.3852273019571E+00
79  7.8000000000000E-01 -6.3359119540668E-02 -1.5265915455112E+00  1.3541884774861E+00
80  7.9000000000000E-01 -2.3351722538609E-02 -1.5204436359629E+00  1.3200207440999E+00
81  8.0000000000000E-01  1.2223669821156E-02 -1.5015448189803E+00  1.2829071514299E+00
82  8.1000000000000E-01  4.3285994221984E-02 -1.4706251283035E+00  1.2430544056885E+00
83  8.2000000000000E-01  6.9827681355478E-02 -1.4285698455933E+00  1.2006902844856E+00
84  8.3000000000000E-01  9.1910434544930E-02 -1.3764008380096E+00  1.1560608498853E+00
85  8.4000000000000E-01  1.0965995270120E-01 -1.3152554403867E+00  1.1094275135129E+00
86  8.5000000000000E-01  1.2325975113977E-01 -1.2463633976241E+00  1.0610640083488E+00
87  8.6000000000000E-01  1.3294424874863E-01 -1.1710224253991E+00  1.0112533213858E+00
88  8.7000000000000E-01  1.3899130014193E-01 -1.0905729738540E+00  9.6028463962775E-01
89  8.8000000000000E-01  1.4171435659291E-01 -1.0063727888931E+00  9.0845035905042E-01
90  8.9000000000000E-01  1.4145443967583E-01 -9.1977185895329E-01  8.5604320223166E-01
91  9.0000000000000E-01  1.3857210677364E-01 -8.3208831193029E-01  8.0335348553400E-01
92  9.1000000000000E-01  1.3343957816614E-01 -7.4458578811707E-01  7.5066657112301E-01
93  9.2000000000000E-01  1.2643318167345E-01 -6.5845276178033E-01  6.9826053290834E-01
94  9.3000000000000E-01  1.1792625326416E-01 -5.7478421795571E-01  6.4640405886824E-01
95  9.4000000000000E-01  1.0828261122571E-01 -4.9456601416501E-01  5.9535460534490E-01
96  9.5000000000000E-01  9.7850698067448E-02 -4.1866217121827E-01  5.4535681194933E-01
97  9.6000000000000E-01  8.6958458998213E-02 -3.4780524554414E-01  4.9664117886608E-01
98  9.7000000000000E-01  7.5908999311676E-02 -2.8258984011546E-01  4.4942300175301E-01
99  9.8000000000000E-01  6.4977036072024E-02 -2.2346921463544E-01  4.0390155323944E-01
100  9.9000000000000E-01  5.4406132860638E-02 -1.7075486085197E-01  3.6025949436021E-01
101  1.0000000000000E+00  4.4406680710545E-02 -1.2461881812795E-01  3.1866249423073E-01
102  1.0100000000000E+00  3.5154564405427E-02 -8.5098420175307E-02  2.7925903195632E-01
103  1.0200000000000E+00  2.6790431642071E-02 -5.2103088278904E-02  2.4218035124015E-01
104  1.0300000000000E+00  1.9419463659348E-02 -2.5422721248405E-02  2.0754053544476E-01
105  1.0400000000000E+00  1.3111530288861E-02 -4.7371794348292E-03  1.7543666899976E-01
106  1.0500000000000E+00  7.9016003117224E-03  1.0373679360879E-02  1.4594905002446E-01
107  1.0600000000000E+00  3.7902697445527E-03  2.0419979511931E-02  1.1914141883394E-01
108  1.0700000000000E+00  7.4426640034967E-04  2.5992400511758E-02  9.5061167585995E-02
109  1.0800000000000E+00 -1.3031992626962E-03  2.7753877977568E-02  7.3739513336144E-02
110  1.0900000000000E+00 -2.4524640215083E-03  2.6433281187117E-02  5.5191479261742E-02
111  1.1000000000000E+00 -2.8395043410072E-03  2.2826454591980E-02  3.9413729370254E-02
112  1.1100000000000E+00 -2.6684830717757E-03  1.7898501791041E-02  2.6339163889786E-02
113  1.1200000000000E+00 -2.1195080436862E-03  1.2475394769279E-02  1.5942872253041E-02
114  1.1300000000000E+00 -1.3698740534265E-03  7.2857960324530E-03  8.2051536902157E-03
115  1.1400000000000E+00 -6.2407530617615E-04  3.0552131693543E-03  3.0673559006229E-03
116  1.1500000000000E+00 -1.0615149690047E-04  4.8427420136213E-04  4.3743697707175E-04
117  1.1600000000000E+00  6.3511575593908E-06 -2.7745945795044E-05 -2.3239608415367E-05
118  1.1700000000000E+00 -8.9323938198332E-09  3.9702764674747E-08  3.4239246088332E-08
119  1.18  0.  0.  0.
120  1.19  0.  0.  0.
121  1.20  0.  0.  0.
122  1.21  0.  0.  0.
123  1.22  0.  0.  0.
124  1.23  0.  0.  0.
125  1.24  0.  0.  0.
126  1.25  0.  0.  0.
127  1.26  0.  0.  0.
128  1.27  0.  0.  0.
129  1.28  0.  0.  0.
130  1.29  0.  0.  0.
131  1.30  0.  0.  0.
132  1.31  0.  0.  0.
133  1.32  0.  0.  0.
134  1.33  0.  0.  0.
135  1.34  0.  0.  0.
136  1.35  0.  0.  0.
137  1.36  0.  0.  0.
138  1.37  0.  0.  0.
139  1.38  0.  0.  0.
140  1.39  0.  0.  0.
141  1.40  0.  0.  0.
142  1.41  0.  0.  0.
143  1.42  0.  0.  0.
144  1.43  0.  0.  0.
145  1.44  0.  0.  0.
146  1.45  0.  0.  0.
147  1.46  0.  0.  0.
148  1.47  0.  0.  0.
149  1.48  0.  0.  0.
150  1.49  0.  0.  0.
151  1.50  0.  0.  0.
152  1.51  0.  0.  0.
153  1.52  0.  0.  0.
154  1.53  0.  0.  0.
155  1.54  0.  0.  0.
156  1.55  0.  0.  0.
157  1.56  0.  0.  0.
158  1.57  0.  0.  0.
159  1.58  0.  0.  0.
160  1.59  0.  0.  0.
161  1.60  0.  0.  0.
162  1.61  0.  0.  0.
163  1.62  0.  0.  0.
164  1.63  0.  0.  0.
165  1.64  0.  0.  0.
166  1.65  0.  0.  0.
167  1.66  0.  0.  0.
168  1.67  0.  0.  0.
169  1.68  0.  0.  0.
170  1.69  0.  0.  0.
171  1.70  0.  0.  0.
172  1.71  0.  0.  0.
173  1.72  0.  0.  0.
174  1.73  0.  0.  0.
175  1.74  0.  0.  0.
176  1.75  0.  0.  0.
177  1.76  0.  0.  0.
178  1.77  0.  0.  0.
179  1.78  0.  0.  0.
180  1.79  0.  0.  0.
181  1.80  0.  0.  0.
182  1.81  0.  0.  0.
183  1.82  0.  0.  0.
184  1.83  0.  0.  0.
185  1.84  0.  0.  0.
186  1.85  0.  0.  0.
187  1.86  0.  0.  0.
188  1.87  0.  0.  0.
189  1.88  0.  0.  0.
190  1.89  0.  0.  0.
191  1.90  0.  0.  0.
192  1.91  0.  0.  0.
193  1.92  0.  0.  0.
194  1.93  0.  0.  0.
195  1.94  0.  0.  0.
196  1.95  0.  0.  0.
197  1.96  0.  0.  0.
198  1.97  0.  0.  0.
199  1.98  0.  0.  0.
200  1.99  0.  0.  0.
201  2.00  0.  0.  0.
202  2.01  0.  0.  0.
203  2.02  0.  0.  0.
204  2.03  0.  0.  0.
205  2.04  0.  0.  0.
206  2.05  0.  0.  0.
207  2.06  0.  0.  0.
208  2.07  0.  0.  0.
209  2.08  0.  0.  0.
210  2.09  0.  0.  0.
211  2.10  0.  0.  0.
212  2.11  0.  0.  0.
213  2.12  0.  0.  0.
214  2.13  0.  0.  0.
215  2.14  0.  0.  0.
216  2.15  0.  0.  0.
217  2.16  0.  0.  0.
218  2.17  0.  0.  0.
219  2.18  0.  0.  0.
220  2.19  0.  0.  0.
221  2.20  0.  0.  0.
222  2.21  0.  0.  0.
223  2.22  0.  0.  0.
224  2.23  0.  0.  0.
225  2.24  0.  0.  0.
226  2.25  0.  0.  0.
227  2.26  0.  0.  0.
228  2.27  0.  0.  0.
229  2.28  0.  0.  0.
230  2.29  0.  0.  0.
231  2.30  0.  0.  0.
232  2.31  0.  0.  0.
233  2.32  0.  0.  0.
234  2.33  0.  0.  0.
235  2.34  0.  0.  0.
236  2.35  0.  0.  0.
237  2.36  0.  0.  0.
238  2.37  0.  0.  0.
239  2.38  0.  0.  0.
240  2.39  0.  0.  0.
241  2.40  0.  0.  0.
242  2.41  0.  0.  0.
243  2.42  0.  0.  0.
244  2.43  0.  0.  0.
245  2.44  0.  0.  0.
246  2.45  0.  0.  0.
247  2.46  0.  0.  0.
248  2.47  0.  0.  0.
249  2.48  0.  0.  0.
250  2.49  0.  0.  0.
251  2.50  0.  0.  0.
252  2.51  0.  0.  0.
253  2.52  0.  0.  0.
254  2.53  0.  0.  0.
255  2.54  0.  0.  0.
256  2.55  0.  0.  0.
257  2.56  0.  0.  0.
258  2.57  0.  0.  0.
259  2.58  0.  0.  0.
260  2.59  0.  0.  0.
261  2.60  0.  0.  0.
262  2.61  0.  0.  0.
263  2.62  0.  0.  0.
264  2.63  0.  0.  0.
265  2.64  0.  0.  0.
266  2.65  0.  0.  0.
267  2.66  0.  0.  0.
268  2.67  0.  0.  0.
269  2.68  0.  0.  0.
270  2.69  0.  0.  0.
271  2.70  0.  0.  0.
272  2.71  0.  0.  0.
273  2.72  0.  0.  0.
274  2.73  0.  0.  0.
275  2.74  0.  0.  0.
276  2.75  0.  0.  0.
277  2.76  0.  0.  0.
278  2.77  0.  0.  0.
279  2.78  0.  0.  0.
280  2.79  0.  0.  0.
281  2.80  0.  0.  0.
282  2.81  0.  0.  0.
283  2.82  0.  0.  0.
284  2.83  0.  0.  0.
285  2.84  0.  0.  0.
286  2.85  0.  0.  0.
287  2.86  0.  0.  0.
288  2.87  0.  0.  0.
289  2.88  0.  0.  0.
290  2.89  0.  0.  0.
291  2.90  0.  0.  0.
292  2.91  0.  0.  0.
293  2.92  0.  0.  0.
294  2.93  0.  0.  0.
295  2.94  0.  0.  0.
296  2.95  0.  0.  0.
297  2.96  0.  0.  0.
298  2.97  0.  0.  0.
299  2.98  0.  0.  0.
300  2.99  0.  0.  0.
301  3.00  0.  0.  0.
302  3.01  0.  0.  0.
303  3.02  0.  0.  0.
304  3.03  0.  0.  0.
305  3.04  0.  0.  0.
306  3.05  0.  0.  0.
307  3.06  0.  0.  0.
308  3.07  0.  0.  0.
309  3.08  0.  0.  0.
310  3.09  0.  0.  0.
311  3.10  0.  0.  0.
312  3.11  0.  0.  0.
313  3.12  0.  0.  0.
314  3.13  0.  0.  0.
315  3.14  0.  0.  0.
316  3.15  0.  0.  0.
317  3.16  0.  0.  0.
318  3.17  0.  0.  0.
319  3.18  0.  0.  0.
320  3.19  0.  0.  0.
321  3.20  0.  0.  0.
322  3.21  0.  0.  0.
323  3.22  0.  0.  0.
324  3.23  0.  0.  0.
325  3.24  0.  0.  0.
326  3.25  0.  0.  0.
327  3.26  0.  0.  0.
328  3.27  0.  0.  0.
329  3.28  0.  0.  0.
330  3.29  0.  0.  0.
331  3.30  0.  0.  0.
332  3.31  0.  0.  0.
333  3.32  0.  0.  0.
334  3.33  0.  0.  0.
335  3.34  0.  0.  0.
336  3.35  0.  0.  0.
337  3.36  0.  0.  0.
338  3.37  0.  0.  0.
339  3.38  0.  0.  0.
340  3.39  0.  0.  0.
341  3.40  0.  0.  0.
342  3.41  0.  0.  0.
343  3.42  0.  0.  0.
344  3.43  0.  0.  0.
345  3.44  0.  0.  0.
346  3.45  0.  0.  0.
347  3.46  0.  0.  0.
348  3.47  0.  0.  0.
349  3.48  0.  0.  0.
350  3.49  0.  0.  0.
351  3.50  0.  0.  0.
352  3.51  0.  0.  0.
353  3.52  0.  0.  0.
354  3.53  0.  0.  0.
355  3.54  0.  0.  0.
356  3.55  0.  0.  0.
357  3.56  0.  0.  0.
358  3.57  0.  0.  0.
359  3.58  0.  0.  0.
360  3.59  0.  0.  0.
361  3.60  0.  0.  0.
362  3.61  0.  0.  0.
363  3.62  0.  0.  0.
364  3.63  0.  0.  0.
365  3.64  0.  0.  0.
366  3.65  0.  0.  0.
367  3.66  0.  0.  0.
368  3.67  0.  0.  0.
369  3.68  0.  0.  0.
370  3.69  0.  0.  0.
371  3.70  0.  0.  0.
372  3.71  0.  0.  0.
373  3.72  0.  0.  0.
374  3.73  0.  0.  0.
375  3.74  0.  0.  0.
376  3.75  0.  0.  0.
377  3.76  0.  0.  0.
378  3.77  0.  0.  0.
379  3.78  0.  0.  0.
380  3.79  0.  0.  0.
381  3.80  0.  0.  0.
382  3.81  0.  0.  0.
383  3.82  0.  0.  0.
384  3.83  0.  0.  0.
385  3.84  0.  0.  0.
386  3.85  0.  0.  0.
387  3.86  0.  0.  0.
388  3.87  0.  0.  0.
389  3.88  0.  0.  0.
390  3.89  0.  0.  0.
391  3.90  0.  0.  0.
392  3.91  0.  0.  0.
393  3.92  0.  0.  0.
394  3.93  0.  0.  0.
395  3.94  0.  0.  0.
396  3.95  0.  0.  0.
397  3.96  0.  0.  0.
398  3.97  0.  0.  0.
399  3.98  0.  0.  0.
400  3.99  0.  0.  0.
401  4.00  0.  0.  0.
402  4.01  0.  0.  0.
403  4.02  0.  0.  0.
404  4.03  0.  0.  0.
405  4.04  0.  0.  0.
406  4.05  0.  0.  0.
407  4.06  0.  0.  0.
408  4.07  0.  0.  0.
409  4.08  0.  0.  0.
410  4.09  0.  0.  0.
411  4.10  0.  0.  0.
412  4.11  0.  0.  0.
413  4.12  0.  0.  0.
414  4.13  0.  0.  0.
415  4.14  0.  0.  0.
416  4.15  0.  0.  0.
417  4.16  0.  0.  0.
418  4.17  0.  0.  0.
419  4.18  0.  0.  0.
420  4.19  0.  0.  0.
421  4.20  0.  0.  0.
422  4.21  0.  0.  0.
423  4.22  0.  0.  0.
424  4.23  0.  0.  0.
425  4.24  0.  0.  0.
426  4.25  0.  0.  0.
427  4.26  0.  0.  0.
428  4.27  0.  0.  0.
429  4.28  0.  0.  0.
430  4.29  0.  0.  0.
431  4.30  0.  0.  0.
432  4.31  0.  0.  0.
433  4.32  0.  0.  0.
434  4.33  0.  0.  0.
435  4.34  0.  0.  0.
436  4.35  0.  0.  0.
437  4.36  0.  0.  0.
438  4.37  0.  0.  0.
439  4.38  0.  0.  0.
440  4.39  0.  0.  0.
441  4.40  0.  0.  0.
442  4.41  0.  0.  0.
443  4.42  0.  0.  0.
444  4.43  0.  0.  0.
445  4.44  0.  0.  0.
446  4.45  0.  0.  0.
447  4.46  0.  0.  0.
448  4.47  0.  0.  0.
449  4.48  0.  0.  0.
450  4.49  0.  0.  0.
451  4.50  0.  0.  0.
452  4.51  0.  0.  0.
453  4.52  0.  0.  0.
454  4.53  0.  0.  0.
455  4.54  0.  0.  0.
456  4.55  0.  0.  0.
457  4.56  0.  0.  0.
458  4.57  0.  0.  0.
459  4.58  0.  0.  0.
460  4.59  0.  0.  0.
461  4.60  0.  0.  0.
462  4.61  0.  0.  0.
463  4.62  0.  0.  0.
464  4.63  0.  0.  0.
465  4.64  0.  0.  0.
466  4.65  0.  0.  0.
467  4.66  0.  0.  0.
468  4.67  0.  0.  0.
469  4.68  0.  0.  0.
470  4.69  0.  0.  0.
471  4.70  0.  0.  0.
472  4.71  0.  0.  0.
473  4.72  0.  0.  0.
474  4.73  0.  0.  0.
475  4.74  0.  0.  0.
476  4.75  0.  0.  0.
477  4.76  0.  0.  0.
478  4.77  0.  0.  0.
479  4.78  0.  0.  0.
480  4.79  0.  0.  0.
481  4.80  0.  0.  0.
482  4.81  0.  0.  0.
483  4.82  0.  0.  0.
484  4.83  0.  0.  0.
485  4.84  0.  0.  0.
486  4.85  0.  0.  0.
487  4.86  0.  0.  0.
488  4.87  0.  0.  0.
489  4.88  0.  0.  0.
490  4.89  0.  0.  0.
491  4.90  0.  0.  0.
492  4.91  0.  0.  0.
493  4.92  0.  0.  0.
494  4.93  0.  0.  0.
495  4.94  0.  0.  0.
496  4.95  0.  0.  0.
497  4.96  0.  0.  0.
498  4.97  0.  0.  0.
499  4.98  0.  0.  0.
500  4.99  0.  0.  0.
501  5.00  0.  0.  0.
502  5.01  0.  0.  0.
503  5.02  0.  0.  0.
504  5.03  0.  0.  0.
505  5.04  0.  0.  0.
506  5.05  0.  0.  0.
507  5.06  0.  0.  0.
508  5.07  0.  0.  0.
509  5.08  0.  0.  0.
510  5.09  0.  0.  0.
511  5.10  0.  0.  0.
512  5.11  0.  0.  0.
513  5.12  0.  0.  0.
514  5.13  0.  0.  0.
515  5.14  0.  0.  0.
516  5.15  0.  0.  0.
517  5.16  0.  0.  0.
518  5.17  0.  0.  0.
519  5.18  0.  0.  0.
520  5.19  0.  0.  0.
521  5.20  0.  0.  0.
522  5.21  0.  0.  0.
523  5.22  0.  0.  0.
524  5.23  0.  0.  0.
525  5.24  0.  0.  0.
526  5.25  0.  0.  0.
527  5.26  0.  0.  0.
528  5.27  0.  0.  0.
529  5.28  0.  0.  0.
530  5.29  0.  0.  0.
531  5.30  0.  0.  0.
532  5.31  0.  0.  0.
533  5.32  0.  0.  0.
534  5.33  0.  0.  0.
535  5.34  0.  0.  0.
536  5.35  0.  0.  0.
537  5.36  0.  0.  0.
538  5.37  0.  0.  0.
539  5.38  0.  0.  0.
540  5.39  0.  0.  0.
541  5.40  0.  0.  0.
542  5.41  0.  0.  0.
543  5.42  0.  0.  0.
544  5.43  0.  0.  0.
545  5.44  0.  0.  0.
546  5.45  0.  0.  0.
547  5.46  0.  0.  0.
548  5.47  0.  0.  0.
549  5.48  0.  0.  0.
550  5.49  0.  0.  0.
551  5.50  0.  0.  0.
552  5.51  0.  0.  0.
553  5.52  0.  0.  0.
554  5.53  0.  0.  0.
555  5.54  0.  0.  0.
556  5.55  0.  0.  0.
557  5.56  0.  0.  0.
558  5.57  0.  0.  0.
559  5.58  0.  0.  0.
560  5.59  0.  0.  0.
561  5.60  0.  0.  0.
562  5.61  0.  0.  0.
563  5.62  0.  0.  0.
564  5.63  0.  0.  0.
565  5.64  0.  0.  0.
566  5.65  0.  0.  0.
567  5.66  0.  0.  0.
568  5.67  0.  0.  0.
569  5.68  0.  0.  0.
570  5.69  0.  0.  0.
571  5.70  0.  0.  0.
572  5.71  0.  0.  0.
573  5.72  0.  0.  0.
574  5.73  0.  0.  0.
575  5.74  0.  0.  0.
576  5.75  0.  0.  0.
577  5.76  0.  0.  0.
578  5.77  0.  0.  0.
579  5.78  0.  0.  0.
580  5.79  0.  0.  0.
581  5.80  0.  0.  0.
582  5.81  0.  0.  0.
583  5.82  0.  0.  0.
584  5.83  0.  0.  0.
585  5.84  0.  0.  0.
586  5.85  0.  0.  0.
587  5.86  0.  0.  0.
588  5.87  0.  0.  0.
589  5.88  0.  0.  0.
590  5.89  0.  0.  0.
591  5.90  0.  0.  0.
592  5.91  0.  0.  0.
593  5.92  0.  0.  0.
594  5.93  0.  0.  0.
595  5.94  0.  0.  0.
596  5.95  0.  0.  0.
597  5.96  0.  0.  0.
598  5.97  0.  0.  0.
599  5.98  0.  0.  0.
600  5.99  0.  0.  0.
1                         6.1939795538092E+00 -1.7519313023818E+00  8.3295108666985E-02 -9.2009268511831E-03
1  0.0000000000000E+00 -6.3817047757375E-09 -7.4041065986630E-09  5.0988607558367E-08 -2.3167226187448E-07
2  1.0000000000000E-02  4.6694569256446E-03  5.7626146626687E-04  5.5528130485226E-03 -6.7261519753810E-03
3  2.0000000000000E-02  1.8635548364051E-02  2.3099599863085E-03  2.2106820606555E-02 -2.6722593567374E-02
4  3.0000000000000E-02  4.1771646673362E-02  5.2156751028637E-03  4.9350476751781E-02 -5.9448350166830E-02
5  4.0000000000000E-02  7.3867413046517E-02  9.3171683362630E-03  8.6770338112153E-02 -1.0401853707193E-01
6  5.0000000000000E-02  1.1462987909272E-01  1.4646594002500E-02  1.3365966041792E-01 -1.5922893157513E-01
7  6.0000000000000E-02  1.6368500110186E-01  2.1243428533724E-02  1.8913022918304E-01 -2.2358931734658E-01
8  7.0000000000000E-02  2.2057972400782E-01  2.9153151066635E-02  2.5212722441994E-01 -2.9536458646708E-01
9  8.0000000000000E-02  2.8478459844817E-01  3.8425715468361E-02  3.2144686830308E-01 -3.7262235279164E-01
10  9.0000000000000E-02  3.5569699779549E-01  4.9113860001668E-02  3.9575655818602E-01 -4.5328563957106E-01
11  1.0000000000000E-01  4.3264498221879E-01  6.1271305290111E-02  4.7361714615006E-01 -5.3518906053812E-01
12  1.1000000000000E-01  5.1489185347447E-01  7.4950893982639E-02  5.5350699104466E-01 -6.1613682153310E-01
13  1.2000000000000E-01  6.0164143712331E-01  9.0202726451853E-02  6.3384738036399E-01 -6.9396083194091E-01
14  1.3000000000000E-01  6.9204411828369E-01  1.0707234596948E-01  7.1302889776868E-01 -7.6657723266569E-01
15  1.4000000000000E-01  7.8520364307525E-01  1.2559902413151E-01  7.8943829794792E-01 -8.3203971909295E-01
16  1.5000000000000E-01  8.8018468095196E-01  1.4581419296098E-01  8.6148544402548E-01 -8.8858816067190E-01
17  1.6000000000000E-01  9.7602112367657E-01  1.6774006426649E-01  9.2762986390469E-01 -9.3469118881904E-01
18  1.7000000000000E-01  1.0717250753825E+00  1.9138846969902E-01  9.8640649073979E-01 -9.6908163566200E-01
19  1.8000000000000E-01  1.1662964657405E+00  2.1675994679595E-01  1.0364501688912E+00 -9.9078395019047E-01
20  1.9000000000000E-01  1.2587331955023E+00  2.4384308743033E-01  1.0765185299172E+00 -9.9913298706049E-01
21  2.0000000000000E-01  1.3480417014953E+00  2.7261415582401E-01  1.1055128728934E+00 -9.9378384720232E-01
22  2.1000000000000E-01  1.4332478073515E+00  3.0303697397501E-01  1.1224967190372E+00 -9.7471273864846E-01
23  2.2000000000000E-01  1.5134077077347E+00  3.3506306333399E-01  1.1267117515563E+00 -9.4220911065664E-01
24  2.3000000000000E-01  1.5876189183761E+00  3.6863202317164E-01  1.1175908970495E+00 -8.9685958450582E-01
25  2.4000000000000E-01  1.6550310125622E+00  4.0367211861430E-01  1.0947683538157E+00 -8.3952445115189E-01
26  2.5000000000000E-01  1.7148559574514E+00  4.4010104505948E-01  1.0580864241668E+00 -7.7130772098379E-01
27  2.6000000000000E-01  1.7663778611939E+00  4.7782683084221E-01  1.0075990613472E+00 -6.9352188718746E-01
28  2.7000000000000E-01  1.8089619446151E+00  5.1674883677921E-01  9.4357209598936E-01 -6.0764869609296E-01
29  2.8000000000000E-01  1.8420625593348E+00  5.5675880968243E-01  8.6648016121810E-01 -5.1529730140163E-01
30  2.9000000000000E-01  1.8652300875928E+00  5.9774194715341E-01  7.7700038863209E-01 -4.1816121219260E-01
31  3.0000000000000E-01  1.8781165775182E+00  6.3957793292625E-01  6.7600299853793E-01 -3.1797542676742E-01
32  3.1000000000000E-01  1.8804799907040E+00  6.8214190563267E-01  5.6453895615794E-01 -2.1647507726650E-01
33  3.2000000000000E-01  1.8721869661601E+00  7.2530532896927E-01  4.4382491029945E-01 -1.1535679691543E-01
34  3.3000000000000E-01  1.8532140352862E+00  7.6893673764642E-01  3.1522567147873E-01 -1.6243867763127E-02
35  3.4000000000000E-01  1.8236472555715E+00  8.1290234093100E-01  1.8023452213641E-01  7.9343981642174E-02
36  3.5000000000000E-01  1.7836802653282E+00  8.5706647376233E-01  4.0451681870575E-02  1.7001547428687E-01
37  3.6000000000000E-01  1.7336107968694E+00  9.0129189399029E-01 -1.0243872483967E-01  2.5452695715803E-01
38  3.7000000000000E-01  1.6738357200720E+00  9.4543993290834E-01 -2.4669283241655E-01  3.3179566860354E-01
39  3.8000000000000E-01  1.6048447211610E+00  9.8937051457692E-01 -3.9053195112471E-01  4.0090716188699E-01
40  3.9000000000000E-01  1.5272127517772E+00  1.0329420671098E+00 -5.3216785270759E-01  4.6111717665940E-01
41  4.0000000000000E-01  1.4415914099885E+00  1.0760113558003E+00 -6.6982804032346E-01  5.1184846107439E-01
42  4.1000000000000E-01  1.3486994370400E+00  1.1184332734092E+00 -8.0178062446876E-01  5.5268323061431E-01
43  4.2000000000000E-01  1.2493125305881E+00  1.1600606268700E+00 -9.2635843842474E-01  5.8335209827423E-01
44  4.3000000000000E-01  1.1442526864148E+00  1.2007439619098E+00 -1.0419820440333E+00  6.0372041886583E-01
45  4.4000000000000E-01  1.0343772857977E+00  1.2403314675013E+00 -1.1471813008828E+00  6.1377305378103E-01
46  4.5000000000000E-01  9.2056814469553E-01  1.2786690005974E+00 -1.2406151987737E+00  6.1359857930671E-01
47  4.6000000000000E-01  8.0372073374655E-01  1.3156002682794E+00 -1.3210896841082E+00  6.0337393112995E-01
48  4.7000000000000E-01  6.8473376505554E-01  1.3509671993481E+00 -1.3875732450131E+00  5.8335040153986E-01
49  4.8000000000000E-01  5.6449932333419E-01  1.3846105306750E+00 -1.4392100569615E+00  5.5384178743889E-01
50  4.9000000000000E-01  4.4389369582706E-01  1.4163706255283E+00 -1.4753305297695E+00  5.1521533177517E-01
51  5.0000000000000E-01  3.2376902842964E-01  1.4460885318820E+00 -1.4954591374738E+00  4.6788591513485E-01
52  5.1000000000000E-01  2.0494590545182E-01  1.4736072787395E+00 -1.4993194541144E+00  4.1231374604639E-01
53  5.2000000000000E-01  8.8206918664952E-02  1.4987733981221E+00 -1.4868363602272E+00  3.4900557707869E-01
54  5.3000000000000E-01 -2.5708741273096E-02  1.5214386499909E+00 -1.4581354263007E+00  2.7851924881117E-01
55  5.4000000000000E-01 -1.3610967004000E-01  1.5414619173768E+00 -1.4135395199980E+00  2.0147114519140E-01
56  5.5000000000000E-01 -2.4235564110276E-01  1.5587112298016E+00 -1.3535627230522E+00  1.1854594156435E-01
57  5.6000000000000E-01 -3.4386006091243E-01  1.5730658650477E+00 -1.2789016809143E+00  3.0507850126052E-02
58  5.7000000000000E-01 -4.4009156966658E-01  1.5844184728230E+00 -1.1904245430188E+00 -6.1787574817052E-02
59  5.8000000000000E-01 -5.3057488934046E-01  1.5926771591608E+00 -1.0891576835194E+00 -1.5738211038993E-01
60  5.9000000000000E-01 -6.1489103545522E-01  1.5977674677283E+00 -9.7627042117949E-01 -2.5520511007549E-01
61  6.0000000000000E-01 -6.9267701824209E-01  1.5996341937495E+00 -8.5305798246748E-01 -3.5406641574916E-01
62  6.1000000000000E-01 -7.6362516222345E-01  1.5982429680604E+00 -7.2092297353209E-01 -4.5265298305091E-01
63  6.2000000000000E-01 -8.2748217073788E-01  1.5935815529205E+00 -5.8135564441095E-01 -5.4953016454105E-01
64  6.3000000000000E-01 -8.8404805378956E-01  1.5856607975020E+00 -4.3591324237677E-01 -6.4314844350751E-01
65  6.4000000000000E-01 -9.3317502423006E-01  1.5745152093223E+00 -2.8619876062916E-01 -7.3185621455319E-01
66  6.5000000000000E-01 -9.7476644931619E-01  1.5602031080152E+00 -1.3383939351265E-01 -8.1391897179907E-01
67  6.6000000000000E-01 -1.0087759229548E+00  1.5428063394545E+00  1.9534989948411E-02 -8.8754500007851E-01
68  6.7000000000000E-01 -1.0352064994201E+00  1.5224295409568E+00  1.7231304615208E-01 -9.5091737874487E-01
69  6.8000000000000E-01 -1.0541101031121E+00  1.4991989617003E+00  3.2292253065886E-01 -1.0022318126766E+00
70  6.9000000000000E-01 -1.0655871021847E+00  1.4732608561250E+00  4.6984995781456E-01 -1.0397395124757E+00
71  7.0000000000000E-01 -1.0697860078335E+00  1.4447794814719E+00  6.1165907480341E-01 -1.0617940677696E+00
72  7.1000000000000E-01 -1.0669032368669E+00  1.4139347432987E+00  7.4700789883840E-01 -1.0669010057778E+00
73  7.2000000000000E-01 -1.0571828540542E+00  1.3809195443186E+00  8.7466408998130E-01 -1.0537685131436E+00
74  7.3000000000000E-01 -1.0409161936475E+00  1.3459369018306E+00  9.9351845919528E-01 -1.0213576325924E+00
75  7.4000000000000E-01 -1.0184412473120E+00  1.3091969069800E+00  1.1025964413394E+00 -9.6893013586095E-01
76  7.5000000000000E-01 -9.9014169915117E-01  1.2709136047839E+00  1.2010673955186E+00 -8.9609222732788E-01
77  7.6000000000000E-01 -9.5644548804971E-01  1.2313018770702E+00  1.2882516300704E+00 -8.0283225335898E-01
78  7.7000000000000E-01 -9.1782278342973E-01  1.1905744110429E+00  1.3636250860196E+00 -6.8955068271039E-01
79  7.8000000000000E-01 -8.7478327268014E-01  1.1489388340686E+00  1.4268216505223E+00 -5.5708078290407E-01