No    ONCVPSP-4.0.1  r_core=   1.15610   1.15610   1.15610   1.15610
102.0000     42.0000      231012    zatom,zion,pspd
8 -116133   3     4   600     0    pspcod,pspxc,lmax,lloc,mmax,r2well
5.99000000  5.00000000  0.00000000    rchrg fchrg qchrg
3     2     2     2     0    nproj
1     1           extension_switch
0                         2.2820989272911E+01  2.5220312268917E+00 -1.7362439776040E+00
1  0.0000000000000E+00 -1.5408149645069E-08  5.3623754936449E-08 -1.0688678830917E-09
2  1.0000000000000E-02  1.6425819040461E-01 -4.8396473353715E-02  4.1100146548508E-02
3  2.0000000000000E-02  3.2733949107384E-01 -9.5692203003891E-02  8.2059161102290E-02
4  3.0000000000000E-02  4.8807818605599E-01 -1.4080615223614E-01  1.2273728437142E-01
5  4.0000000000000E-02  6.4533073976373E-01 -1.8269622452574E-01  1.6299748730861E-01
6  5.0000000000000E-02  7.9798647333835E-01 -2.2037756379338E-01  2.0270679860981E-01
7  6.0000000000000E-02  9.4497775602599E-01 -2.5293949132620E-01  2.4173758788870E-01
8  7.0000000000000E-02  1.0852895688155E+00 -2.7956069088336E-01  2.7996879107799E-01
9  8.0000000000000E-02  1.2179683129961E+00 -2.9952230712973E-01  3.1728706567981E-01
10  9.0000000000000E-02  1.3421297545819E+00 -3.1221868604033E-01  3.5358786473931E-01
11  1.0000000000000E-01  1.4569660161265E+00 -3.1716555713126E-01  3.8877641980226E-01
12  1.1000000000000E-01  1.5617515496461E+00 -3.1400553386960E-01  4.2276862458344E-01
13  1.2000000000000E-01  1.6558480474719E+00 -3.0251088779981E-01  4.5549181256154E-01
14  1.3000000000000E-01  1.7387082711305E+00 -2.8258363112242E-01  4.8688542317460E-01
15  1.4000000000000E-01  1.8098788010671E+00 -2.5425301899993E-01  5.1690155266442E-01
16  1.5000000000000E-01  1.8690017314920E+00 -2.1767065419425E-01  5.4550538686395E-01
17  1.6000000000000E-01  1.9158153541906E+00 -1.7310344039638E-01  5.7267551430231E-01
18  1.7000000000000E-01  1.9501538922330E+00 -1.2092468470808E-01  5.9840411888970E-01
19  1.8000000000000E-01  1.9719463586740E+00 -6.1603692456349E-02  6.2269705212547E-01
20  1.9000000000000E-01  1.9812146261984E+00  4.3057724602178E-03  6.4557378524482E-01
21  2.0000000000000E-01  1.9780708009999E+00  7.6177772027055E-02  6.6706724199361E-01
22  2.1000000000000E-01  1.9627139978992E+00  1.5332683116066E-01  6.8722351282185E-01
23  2.2000000000000E-01  1.9354266138301E+00  2.3502054638897E-01  7.0610145124940E-01
24  2.3000000000000E-01  1.8965701935339E+00  3.2049180962305E-01  7.2377215302958E-01
25  2.4000000000000E-01  1.8465809748931E+00  4.0895032696898E-01  7.4031831857230E-01
26  2.5000000000000E-01  1.7859651922125E+00  4.9959315957245E-01  7.5583349894874E-01
27  2.6000000000000E-01  1.7152942044297E+00  5.9161406918216E-01  7.7042122574783E-01
28  2.7000000000000E-01  1.6351995022959E+00  6.8421151326340E-01  7.8419402515477E-01
29  2.8000000000000E-01  1.5463676346382E+00  7.7659520066638E-01  7.9727231693258E-01
30  2.9000000000000E-01  1.4495350795899E+00  8.6799118649040E-01  8.0978319956265E-01
31  3.0000000000000E-01  1.3454830728065E+00  9.5764555128301E-01  8.2185912368180E-01
32  3.1000000000000E-01  1.2350323918445E+00  1.0448267725261E+00  8.3363645717202E-01
33  3.2000000000000E-01  1.1190380846674E+00  1.1288269530732E+00  8.4525394682846E-01
34  3.3000000000000E-01  9.9838412119725E-01  1.2089621196597E+00  8.5685108345076E-01
35  3.4000000000000E-01  8.7397794039517E-01  1.2845718429342E+00  8.6856637944920E-01
36  3.5000000000000E-01  7.4674486186947E-01  1.3550184571918E+00  8.8053557059330E-01
37  3.6000000000000E-01  6.1762233068786E-01  1.4196861720869E+00  8.9288975629633E-01
38  3.7000000000000E-01  4.8755396699131E-01  1.4779803694935E+00  9.0575349575039E-01
39  3.8000000000000E-01  3.5748339811827E-01  1.5293273663096E+00  9.1924288021184E-01
40  3.9000000000000E-01  2.2834786005766E-01  1.5731748987969E+00  9.3346360468185E-01
41  4.0000000000000E-01  1.0107156683789E-01  1.6089935469298E+00  9.4850906501873E-01
42  4.1000000000000E-01 -2.3441139512126E-02  1.6362792695829E+00  9.6445850903804E-01
43  4.2000000000000E-01 -1.4431283006795E-01  1.6545571649940E+00  9.8137527228243E-01
44  4.3000000000000E-01 -2.6070017602104E-01  1.6633865079245E+00  9.9930513075949E-01
45  4.4000000000000E-01 -3.7180121925849E-01  1.6623670477145E+00  1.0182748039412E+00
46  4.5000000000000E-01 -4.7686264733393E-01  1.6511464825423E+00  1.0382906415976E+00
47  4.6000000000000E-01 -5.7518697789185E-01  1.6294289573532E+00  1.0593375275194E+00
48  4.7000000000000E-01 -6.6613954363896E-01  1.5969843687449E+00  1.0813780318085E+00
49  4.8000000000000E-01 -7.4915515745127E-01  1.5536582021626E+00  1.1043518411471E+00
50  4.9000000000000E-01 -8.2374432876714E-01  1.4993815774167E+00  1.1281754932917E+00
51  5.0000000000000E-01 -8.8949889755063E-01  1.4341811398625E+00  1.1527424379858E+00
52  5.1000000000000E-01 -9.4609695120956E-01  1.3581884082945E+00  1.1779234416062E+00
53  5.2000000000000E-01 -9.9330689318115E-01  1.2716481779914E+00  1.2035673472272E+00
54  5.3000000000000E-01 -1.0309905395758E+00  1.1749255792167E+00  1.2295021955027E+00
55  5.4000000000000E-01 -1.0591051322663E+00  1.0685114081518E+00  1.2555367049751E+00
56  5.5000000000000E-01 -1.0777041729467E+00  9.5302537848614E-01  1.2814621032628E+00
57  5.6000000000000E-01 -1.0869370026336E+00  8.2921698699838E-01  1.3070542932354E+00
58  5.7000000000000E-01 -1.0870470743770E+00  6.9796374418955E-01  1.3320763309397E+00
59  5.8000000000000E-01 -1.0783688929997E+00  5.6026658970513E-01  1.3562811848882E+00
60  5.9000000000000E-01 -1.0613236237903E+00  4.1724238980759E-01  1.3794147395560E+00
61  6.0000000000000E-01 -1.0364134014631E+00  2.7011349812601E-01  1.4012189997473E+00
62  6.1000000000000E-01 -1.0042144005168E+00  1.2019444863435E-01  1.4214354470716E+00
63  6.2000000000000E-01 -9.6536875750804E-01 -3.1124061531023E-02  1.4398084952728E+00
64  6.3000000000000E-01 -9.2057546382628E-01 -1.8239365511343E-01  1.4560889877362E+00
65  6.4000000000000E-01 -8.7058037345765E-01 -3.3212889748340E-01  1.4700376782590E+00
66  6.5000000000000E-01 -8.1616549316792E-01 -4.7882965865504E-01  1.4814286352183E+00
67  6.6000000000000E-01 -7.5813774179079E-01 -6.2100474994887E-01  1.4900525096393E+00
68  6.7000000000000E-01 -6.9731738026848E-01 -7.5719631879336E-01  1.4957196093826E+00
69  6.8000000000000E-01 -6.3452632426245E-01 -8.8600444741001E-01  1.4982627247148E+00
70  6.9000000000000E-01 -5.7057655618287E-01 -1.0061113789021E+00  1.4975396548313E+00
71  7.0000000000000E-01 -5.0625885317539E-01 -1.1163047884689E+00  1.4934353903865E+00
72  7.1000000000000E-01 -4.4233204191112E-01 -1.2154995284754E+00  1.4858639136143E+00
73  7.2000000000000E-01 -3.7951298006893E-01 -1.3027573037747E+00  1.4747695850468E+00
74  7.3000000000000E-01 -3.1846744845192E-01 -1.3773037773230E+00  1.4601280939667E+00
75  7.4000000000000E-01 -2.5980211716186E-01 -1.4385426645823E+00  1.4419469583730E+00
76  7.5000000000000E-01 -2.0405772472541E-01 -1.4860664467986E+00  1.4202655691701E+00
77  7.6000000000000E-01 -1.5170358119047E-01 -1.5196634159450E+00  1.3951547822959E+00
78  7.7000000000000E-01 -1.0313347576079E-01 -1.5393208555058E+00  1.3667160713552E+00
79  7.8000000000000E-01 -5.8663037347712E-02 -1.5452242586780E+00  1.3350802617998E+00
80  7.9000000000000E-01 -1.8528563374644E-02 -1.5377525861335E+00  1.3004058755961E+00
81  8.0000000000000E-01  1.7112700827077E-02 -1.5174696662519E+00  1.2628771224481E+00
82  8.1000000000000E-01  4.8180881749230E-02 -1.4851119387708E+00  1.2227015798342E+00
83  8.2000000000000E-01  7.4670476540909E-02 -1.4415728352162E+00  1.1801076092304E+00
84  8.3000000000000E-01  9.6646138584601E-02 -1.3878841736122E+00  1.1353415598222E+00
85  8.4000000000000E-01  1.1423738180644E-01 -1.3251950183788E+00  1.0886648136724E+00
86  8.5000000000000E-01  1.2763235614238E-01 -1.2547485169173E+00  1.0403507276778E+00
87  8.6000000000000E-01  1.3707086259899E-01 -1.1778572704397E+00  9.9068152770107E-01
88  8.7000000000000E-01  1.4283678758797E-01 -1.0958778268474E+00  9.3994520904104E-01
89  8.8000000000000E-01  1.4525014245594E-01 -1.0101848970919E+00  8.8843249495743E-01
90  8.9000000000000E-01  1.4465889529896E-01 -9.2214589314113E-01  8.3643390139500E-01
91  9.0000000000000E-01  1.4143077830649E-01 -8.3309636559432E-01  7.8423695146752E-01
92  9.1000000000000E-01  1.3594524522542E-01 -7.4431688278288E-01  7.3212357780862E-01
93  9.2000000000000E-01  1.2858574040244E-01 -6.5701184196487E-01  6.8036774472963E-01
94  9.3000000000000E-01  1.1973242369895E-01 -5.7229063847973E-01  6.2923331541666E-01
95  9.4000000000000E-01  1.0975547493080E-01 -4.9115154236936E-01  5.7897218232804E-01
96  9.5000000000000E-01  9.9009077989669E-02 -4.1446854614587E-01  5.2982267169861E-01
97  9.6000000000000E-01  8.7826159162018E-02 -3.4298135456104E-01  4.8200822580013E-01
98  9.7000000000000E-01  7.6513927106701E-02 -2.7728858996440E-01  4.3573635951647E-01
99  9.8000000000000E-01  6.5350234251930E-02 -2.1784418783324E-01  3.9119788102999E-01
100  9.9000000000000E-01  5.4580751789859E-02 -1.6495685902125E-01  3.4856636012710E-01
101  1.0000000000000E+00  4.4416923714791E-02 -1.1879240080875E-01  3.0799782194149E-01
102  1.0100000000000E+00  3.5034640189533E-02 -7.9378550522308E-02  2.6963063897577E-01
103  1.0200000000000E+00  2.6573547578185E-02 -4.6611995638357E-02  2.3358559005897E-01
104  1.0300000000000E+00  1.9136892306065E-02 -2.0267084892920E-02  1.9996605157239E-01
105  1.0400000000000E+00  1.2791778820598E-02 -5.7278731799964E-06  1.6885828385442E-01
106  1.0500000000000E+00  7.5697087111960E-03  1.4612072758455E-02  1.4033177419453E-01
107  1.0600000000000E+00  3.4672587772892E-03  2.4117640847618E-02  1.1443959724538E-01
108  1.0700000000000E+00  4.4675073308668E-04  2.9123595648367E-02  9.1218754004668E-02
109  1.0800000000000E+00 -1.5632240572103E-03  3.0314927410787E-02  7.0690466965040E-02
110  1.0900000000000E+00 -2.6676555123416E-03  2.8442043076018E-02  5.2860275329318E-02
111  1.1000000000000E+00 -3.0069884981287E-03  2.4321082096977E-02  3.7716022012935E-02
112  1.1100000000000E+00 -2.7884343127869E-03  1.8932752505667E-02  2.5183794723961E-02
113  1.1200000000000E+00 -2.1959374619218E-03  1.3119480034796E-02  1.5231462158205E-02
114  1.1300000000000E+00 -1.4106154693241E-03  7.6247283242654E-03  7.8331026999372E-03
115  1.1400000000000E+00 -6.3960362178459E-04  3.1839622496921E-03  2.9261766196673E-03
116  1.1500000000000E+00 -1.0836059135725E-04  5.0279831379643E-04  4.1702568462008E-04
117  1.1600000000000E+00  6.4777963536508E-06 -2.8748452585566E-05 -2.2141136714068E-05
118  1.1700000000000E+00 -9.1147137809377E-09  4.1171501272572E-08  3.2628534227177E-08
119  1.18 -0.  0. -0.
120  1.19  0.  0.  0.
121  1.20  0.  0.  0.
122  1.21  0.  0.  0.
123  1.22  0.  0.  0.
124  1.23  0.  0.  0.
125  1.24  0.  0.  0.
126  1.25  0.  0.  0.
127  1.26  0.  0.  0.
128  1.27  0.  0.  0.
129  1.28  0.  0.  0.
130  1.29  0.  0.  0.
131  1.30  0.  0.  0.
132  1.31  0.  0.  0.
133  1.32  0.  0.  0.
134  1.33  0.  0.  0.
135  1.34  0.  0.  0.
136  1.35  0.  0.  0.
137  1.36  0.  0.  0.
138  1.37  0.  0.  0.
139  1.38  0.  0.  0.
140  1.39  0.  0.  0.
141  1.40  0.  0.  0.
142  1.41  0.  0.  0.
143  1.42  0.  0.  0.
144  1.43  0.  0.  0.
145  1.44  0.  0.  0.
146  1.45  0.  0.  0.
147  1.46  0.  0.  0.
148  1.47  0.  0.  0.
149  1.48  0.  0.  0.
150  1.49  0.  0.  0.
151  1.50  0.  0.  0.
152  1.51  0.  0.  0.
153  1.52  0.  0.  0.
154  1.53  0.  0.  0.
155  1.54  0.  0.  0.
156  1.55  0.  0.  0.
157  1.56  0.  0.  0.
158  1.57  0.  0.  0.
159  1.58  0.  0.  0.
160  1.59  0.  0.  0.
161  1.60  0.  0.  0.
162  1.61  0.  0.  0.
163  1.62  0.  0.  0.
164  1.63  0.  0.  0.
165  1.64  0.  0.  0.
166  1.65  0.  0.  0.
167  1.66  0.  0.  0.
168  1.67  0.  0.  0.
169  1.68  0.  0.  0.
170  1.69  0.  0.  0.
171  1.70  0.  0.  0.
172  1.71  0.  0.  0.
173  1.72  0.  0.  0.
174  1.73  0.  0.  0.
175  1.74  0.  0.  0.
176  1.75  0.  0.  0.
177  1.76  0.  0.  0.
178  1.77  0.  0.  0.
179  1.78  0.  0.  0.
180  1.79  0.  0.  0.
181  1.80  0.  0.  0.
182  1.81  0.  0.  0.
183  1.82  0.  0.  0.
184  1.83  0.  0.  0.
185  1.84  0.  0.  0.
186  1.85  0.  0.  0.
187  1.86  0.  0.  0.
188  1.87  0.  0.  0.
189  1.88  0.  0.  0.
190  1.89  0.  0.  0.
191  1.90  0.  0.  0.
192  1.91  0.  0.  0.
193  1.92  0.  0.  0.
194  1.93  0.  0.  0.
195  1.94  0.  0.  0.
196  1.95  0.  0.  0.
197  1.96  0.  0.  0.
198  1.97  0.  0.  0.
199  1.98  0.  0.  0.
200  1.99  0.  0.  0.
201  2.00  0.  0.  0.
202  2.01  0.  0.  0.
203  2.02  0.  0.  0.
204  2.03  0.  0.  0.
205  2.04  0.  0.  0.
206  2.05  0.  0.  0.
207  2.06  0.  0.  0.
208  2.07  0.  0.  0.
209  2.08  0.  0.  0.
210  2.09  0.  0.  0.
211  2.10  0.  0.  0.
212  2.11  0.  0.  0.
213  2.12  0.  0.  0.
214  2.13  0.  0.  0.
215  2.14  0.  0.  0.
216  2.15  0.  0.  0.
217  2.16  0.  0.  0.
218  2.17  0.  0.  0.
219  2.18  0.  0.  0.
220  2.19  0.  0.  0.
221  2.20  0.  0.  0.
222  2.21  0.  0.  0.
223  2.22  0.  0.  0.
224  2.23  0.  0.  0.
225  2.24  0.  0.  0.
226  2.25  0.  0.  0.
227  2.26  0.  0.  0.
228  2.27  0.  0.  0.
229  2.28  0.  0.  0.
230  2.29  0.  0.  0.
231  2.30  0.  0.  0.
232  2.31  0.  0.  0.
233  2.32  0.  0.  0.
234  2.33  0.  0.  0.
235  2.34  0.  0.  0.
236  2.35  0.  0.  0.
237  2.36  0.  0.  0.
238  2.37  0.  0.  0.
239  2.38  0.  0.  0.
240  2.39  0.  0.  0.
241  2.40  0.  0.  0.
242  2.41  0.  0.  0.
243  2.42  0.  0.  0.
244  2.43  0.  0.  0.
245  2.44  0.  0.  0.
246  2.45  0.  0.  0.
247  2.46  0.  0.  0.
248  2.47  0.  0.  0.
249  2.48  0.  0.  0.
250  2.49  0.  0.  0.
251  2.50  0.  0.  0.
252  2.51  0.  0.  0.
253  2.52  0.  0.  0.
254  2.53  0.  0.  0.
255  2.54  0.  0.  0.
256  2.55  0.  0.  0.
257  2.56  0.  0.  0.
258  2.57  0.  0.  0.
259  2.58  0.  0.  0.
260  2.59  0.  0.  0.
261  2.60  0.  0.  0.
262  2.61  0.  0.  0.
263  2.62  0.  0.  0.
264  2.63  0.  0.  0.
265  2.64  0.  0.  0.
266  2.65  0.  0.  0.
267  2.66  0.  0.  0.
268  2.67  0.  0.  0.
269  2.68  0.  0.  0.
270  2.69  0.  0.  0.
271  2.70  0.  0.  0.
272  2.71  0.  0.  0.
273  2.72  0.  0.  0.
274  2.73  0.  0.  0.
275  2.74  0.  0.  0.
276  2.75  0.  0.  0.
277  2.76  0.  0.  0.
278  2.77  0.  0.  0.
279  2.78  0.  0.  0.
280  2.79  0.  0.  0.
281  2.80  0.  0.  0.
282  2.81  0.  0.  0.
283  2.82  0.  0.  0.
284  2.83  0.  0.  0.
285  2.84  0.  0.  0.
286  2.85  0.  0.  0.
287  2.86  0.  0.  0.
288  2.87  0.  0.  0.
289  2.88  0.  0.  0.
290  2.89  0.  0.  0.
291  2.90  0.  0.  0.
292  2.91  0.  0.  0.
293  2.92  0.  0.  0.
294  2.93  0.  0.  0.
295  2.94  0.  0.  0.
296  2.95  0.  0.  0.
297  2.96  0.  0.  0.
298  2.97  0.  0.  0.
299  2.98  0.  0.  0.
300  2.99  0.  0.  0.
301  3.00  0.  0.  0.
302  3.01  0.  0.  0.
303  3.02  0.  0.  0.
304  3.03  0.  0.  0.
305  3.04  0.  0.  0.
306  3.05  0.  0.  0.
307  3.06  0.  0.  0.
308  3.07  0.  0.  0.
309  3.08  0.  0.  0.
310  3.09  0.  0.  0.
311  3.10  0.  0.  0.
312  3.11  0.  0.  0.
313  3.12  0.  0.  0.
314  3.13  0.  0.  0.
315  3.14  0.  0.  0.
316  3.15  0.  0.  0.
317  3.16  0.  0.  0.
318  3.17  0.  0.  0.
319  3.18  0.  0.  0.
320  3.19  0.  0.  0.
321  3.20  0.  0.  0.
322  3.21  0.  0.  0.
323  3.22  0.  0.  0.
324  3.23  0.  0.  0.
325  3.24  0.  0.  0.
326  3.25  0.  0.  0.
327  3.26  0.  0.  0.
328  3.27  0.  0.  0.
329  3.28  0.  0.  0.
330  3.29  0.  0.  0.
331  3.30  0.  0.  0.
332  3.31  0.  0.  0.
333  3.32  0.  0.  0.
334  3.33  0.  0.  0.
335  3.34  0.  0.  0.
336  3.35  0.  0.  0.
337  3.36  0.  0.  0.
338  3.37  0.  0.  0.
339  3.38  0.  0.  0.
340  3.39  0.  0.  0.
341  3.40  0.  0.  0.
342  3.41  0.  0.  0.
343  3.42  0.  0.  0.
344  3.43  0.  0.  0.
345  3.44  0.  0.  0.
346  3.45  0.  0.  0.
347  3.46  0.  0.  0.
348  3.47  0.  0.  0.
349  3.48  0.  0.  0.
350  3.49  0.  0.  0.
351  3.50  0.  0.  0.
352  3.51  0.  0.  0.
353  3.52  0.  0.  0.
354  3.53  0.  0.  0.
355  3.54  0.  0.  0.
356  3.55  0.  0.  0.
357  3.56  0.  0.  0.
358  3.57  0.  0.  0.
359  3.58  0.  0.  0.
360  3.59  0.  0.  0.
361  3.60  0.  0.  0.
362  3.61  0.  0.  0.
363  3.62  0.  0.  0.
364  3.63  0.  0.  0.
365  3.64  0.  0.  0.
366  3.65  0.  0.  0.
367  3.66  0.  0.  0.
368  3.67  0.  0.  0.
369  3.68  0.  0.  0.
370  3.69  0.  0.  0.
371  3.70  0.  0.  0.
372  3.71  0.  0.  0.
373  3.72  0.  0.  0.
374  3.73  0.  0.  0.
375  3.74  0.  0.  0.
376  3.75  0.  0.  0.
377  3.76  0.  0.  0.
378  3.77  0.  0.  0.
379  3.78  0.  0.  0.
380  3.79  0.  0.  0.
381  3.80  0.  0.  0.
382  3.81  0.  0.  0.
383  3.82  0.  0.  0.
384  3.83  0.  0.  0.
385  3.84  0.  0.  0.
386  3.85  0.  0.  0.
387  3.86  0.  0.  0.
388  3.87  0.  0.  0.
389  3.88  0.  0.  0.
390  3.89  0.  0.  0.
391  3.90  0.  0.  0.
392  3.91  0.  0.  0.
393  3.92  0.  0.  0.
394  3.93  0.  0.  0.
395  3.94  0.  0.  0.
396  3.95  0.  0.  0.
397  3.96  0.  0.  0.
398  3.97  0.  0.  0.
399  3.98  0.  0.  0.
400  3.99  0.  0.  0.
401  4.00  0.  0.  0.
402  4.01  0.  0.  0.
403  4.02  0.  0.  0.
404  4.03  0.  0.  0.
405  4.04  0.  0.  0.
406  4.05  0.  0.  0.
407  4.06  0.  0.  0.
408  4.07  0.  0.  0.
409  4.08  0.  0.  0.
410  4.09  0.  0.  0.
411  4.10  0.  0.  0.
412  4.11  0.  0.  0.
413  4.12  0.  0.  0.
414  4.13  0.  0.  0.
415  4.14  0.  0.  0.
416  4.15  0.  0.  0.
417  4.16  0.  0.  0.
418  4.17  0.  0.  0.
419  4.18  0.  0.  0.
420  4.19  0.  0.  0.
421  4.20  0.  0.  0.
422  4.21  0.  0.  0.
423  4.22  0.  0.  0.
424  4.23  0.  0.  0.
425  4.24  0.  0.  0.
426  4.25  0.  0.  0.
427  4.26  0.  0.  0.
428  4.27  0.  0.  0.
429  4.28  0.  0.  0.
430  4.29  0.  0.  0.
431  4.30  0.  0.  0.
432  4.31  0.  0.  0.
433  4.32  0.  0.  0.
434  4.33  0.  0.  0.
435  4.34  0.  0.  0.
436  4.35  0.  0.  0.
437  4.36  0.  0.  0.
438  4.37  0.  0.  0.
439  4.38  0.  0.  0.
440  4.39  0.  0.  0.
441  4.40  0.  0.  0.
442  4.41  0.  0.  0.
443  4.42  0.  0.  0.
444  4.43  0.  0.  0.
445  4.44  0.  0.  0.
446  4.45  0.  0.  0.
447  4.46  0.  0.  0.
448  4.47  0.  0.  0.
449  4.48  0.  0.  0.
450  4.49  0.  0.  0.
451  4.50  0.  0.  0.
452  4.51  0.  0.  0.
453  4.52  0.  0.  0.
454  4.53  0.  0.  0.
455  4.54  0.  0.  0.
456  4.55  0.  0.  0.
457  4.56  0.  0.  0.
458  4.57  0.  0.  0.
459  4.58  0.  0.  0.
460  4.59  0.  0.  0.
461  4.60  0.  0.  0.
462  4.61  0.  0.  0.
463  4.62  0.  0.  0.
464  4.63  0.  0.  0.
465  4.64  0.  0.  0.
466  4.65  0.  0.  0.
467  4.66  0.  0.  0.
468  4.67  0.  0.  0.
469  4.68  0.  0.  0.
470  4.69  0.  0.  0.
471  4.70  0.  0.  0.
472  4.71  0.  0.  0.
473  4.72  0.  0.  0.
474  4.73  0.  0.  0.
475  4.74  0.  0.  0.
476  4.75  0.  0.  0.
477  4.76  0.  0.  0.
478  4.77  0.  0.  0.
479  4.78  0.  0.  0.
480  4.79  0.  0.  0.
481  4.80  0.  0.  0.
482  4.81  0.  0.  0.
483  4.82  0.  0.  0.
484  4.83  0.  0.  0.
485  4.84  0.  0.  0.
486  4.85  0.  0.  0.
487  4.86  0.  0.  0.
488  4.87  0.  0.  0.
489  4.88  0.  0.  0.
490  4.89  0.  0.  0.
491  4.90  0.  0.  0.
492  4.91  0.  0.  0.
493  4.92  0.  0.  0.
494  4.93  0.  0.  0.
495  4.94  0.  0.  0.
496  4.95  0.  0.  0.
497  4.96  0.  0.  0.
498  4.97  0.  0.  0.
499  4.98  0.  0.  0.
500  4.99  0.  0.  0.
501  5.00  0.  0.  0.
502  5.01  0.  0.  0.
503  5.02  0.  0.  0.
504  5.03  0.  0.  0.
505  5.04  0.  0.  0.
506  5.05  0.  0.  0.
507  5.06  0.  0.  0.
508  5.07  0.  0.  0.
509  5.08  0.  0.  0.
510  5.09  0.  0.  0.
511  5.10  0.  0.  0.
512  5.11  0.  0.  0.
513  5.12  0.  0.  0.
514  5.13  0.  0.  0.
515  5.14  0.  0.  0.
516  5.15  0.  0.  0.
517  5.16  0.  0.  0.
518  5.17  0.  0.  0.
519  5.18  0.  0.  0.
520  5.19  0.  0.  0.
521  5.20  0.  0.  0.
522  5.21  0.  0.  0.
523  5.22  0.  0.  0.
524  5.23  0.  0.  0.
525  5.24  0.  0.  0.
526  5.25  0.  0.  0.
527  5.26  0.  0.  0.
528  5.27  0.  0.  0.
529  5.28  0.  0.  0.
530  5.29  0.  0.  0.
531  5.30  0.  0.  0.
532  5.31  0.  0.  0.
533  5.32  0.  0.  0.
534  5.33  0.  0.  0.
535  5.34  0.  0.  0.
536  5.35  0.  0.  0.
537  5.36  0.  0.  0.
538  5.37  0.  0.  0.
539  5.38  0.  0.  0.
540  5.39  0.  0.  0.
541  5.40  0.  0.  0.
542  5.41  0.  0.  0.
543  5.42  0.  0.  0.
544  5.43  0.  0.  0.
545  5.44  0.  0.  0.
546  5.45  0.  0.  0.
547  5.46  0.  0.  0.
548  5.47  0.  0.  0.
549  5.48  0.  0.  0.
550  5.49  0.  0.  0.
551  5.50  0.  0.  0.
552  5.51  0.  0.  0.
553  5.52  0.  0.  0.
554  5.53  0.  0.  0.
555  5.54  0.  0.  0.
556  5.55  0.  0.  0.
557  5.56  0.  0.  0.
558  5.57  0.  0.  0.
559  5.58  0.  0.  0.
560  5.59  0.  0.  0.
561  5.60  0.  0.  0.
562  5.61  0.  0.  0.
563  5.62  0.  0.  0.
564  5.63  0.  0.  0.
565  5.64  0.  0.  0.
566  5.65  0.  0.  0.
567  5.66  0.  0.  0.
568  5.67  0.  0.  0.
569  5.68  0.  0.  0.
570  5.69  0.  0.  0.
571  5.70  0.  0.  0.
572  5.71  0.  0.  0.
573  5.72  0.  0.  0.
574  5.73  0.  0.  0.
575  5.74  0.  0.  0.
576  5.75  0.  0.  0.
577  5.76  0.  0.  0.
578  5.77  0.  0.  0.
579  5.78  0.  0.  0.
580  5.79  0.  0.  0.
581  5.80  0.  0.  0.
582  5.81  0.  0.  0.
583  5.82  0.  0.  0.
584  5.83  0.  0.  0.
585  5.84  0.  0.  0.
586  5.85  0.  0.  0.
587  5.86  0.  0.  0.
588  5.87  0.  0.  0.
589  5.88  0.  0.  0.
590  5.89  0.  0.  0.
591  5.90  0.  0.  0.
592  5.91  0.  0.  0.
593  5.92  0.  0.  0.
594  5.93  0.  0.  0.
595  5.94  0.  0.  0.
596  5.95  0.  0.  0.
597  5.96  0.  0.  0.
598  5.97  0.  0.  0.
599  5.98  0.  0.  0.
600  5.99  0.  0.  0.
1                         6.7718580064750E+00 -1.5647637026538E+00
1  0.0000000000000E+00 -7.7632804629246E-09 -1.1549229024521E-08
2  1.0000000000000E-02  4.5552204716921E-03  4.2832714314359E-04
3  2.0000000000000E-02  1.8181076892075E-02  1.7213529136700E-03
4  3.0000000000000E-02  4.0758320538721E-02  3.9029602855159E-03
5  4.0000000000000E-02  7.2088764590991E-02  7.0121285503232E-03
6  5.0000000000000E-02  1.1189614927153E-01  1.1101721966315E-02
7  6.0000000000000E-02  1.5982739878958E-01  1.6236847200265E-02
8  7.0000000000000E-02  2.1545431265130E-01  2.2492830693216E-02
9  8.0000000000000E-02  2.7827574166550E-01  2.9952878629859E-02
10  9.0000000000000E-02  3.4772030368644E-01  3.8705491596641E-02
11  1.0000000000000E-01  4.2314969538339E-01  4.8841712958025E-02
12  1.1000000000000E-01  5.0386265384049E-01  6.0452294235038E-02
13  1.2000000000000E-01  5.8909961545287E-01  7.3624862201556E-02
14  1.3000000000000E-01  6.7804810944442E-01  8.8441170987963E-02
15  1.4000000000000E-01  7.6984890959829E-01  1.0497451826657E-01
16  1.5000000000000E-01  8.6360295083104E-01  1.2328739775492E-01
17  1.6000000000000E-01  9.5837899756816E-01  1.4342945107120E-01
18  1.7000000000000E-01  1.0532220291356E+00  1.6543577075375E-01
19  1.8000000000000E-01  1.1471622843158E+00  1.8932559342804E-01
20  1.9000000000000E-01  1.2392248836584E+00  2.1510140814047E-01
21  2.0000000000000E-01  1.3284399249594E+00  2.4274849029001E-01
22  2.1000000000000E-01  1.4138529254272E+00  2.7223485690561E-01
23  2.2000000000000E-01  1.4945354643202E+00  3.0351162477523E-01
24  2.3000000000000E-01  1.5695958630898E+00  3.3651373964432E-01
25  2.4000000000000E-01  1.6381897270584E+00  3.7116103284884E-01
26  2.5000000000000E-01  1.6995301640275E+00  4.0735955175473E-01
27  2.6000000000000E-01  1.7528974914559E+00  4.4500310259751E-01
28  2.7000000000000E-01  1.7976482453102E+00  4.8397493902586E-01
29  2.8000000000000E-01  1.8332233105406E+00  5.2414952702962E-01
30  2.9000000000000E-01  1.8591550053509E+00  5.6539431705659E-01
31  3.0000000000000E-01  1.8750729688165E+00  6.0757145696716E-01
32  3.1000000000000E-01  1.8807087235625E+00  6.5053938491659E-01
33  3.2000000000000E-01  1.8758988115862E+00  6.9415424906279E-01
34  3.3000000000000E-01  1.8605864311744E+00  7.3827111085895E-01
35  3.4000000000000E-01  1.8348215353680E+00  7.8274490020620E-01
36  3.5000000000000E-01  1.7987593866098E+00  8.2743110345335E-01
37  3.6000000000000E-01  1.7526575970309E+00  8.7218617862746E-01
38  3.7000000000000E-01  1.6968717182219E+00  9.1686770582394E-01
39  3.8000000000000E-01  1.6318494772124E+00  9.6133429382970E-01
40  3.9000000000000E-01  1.5581237857107E+00  1.0054452762637E+00
41  4.0000000000000E-01  1.4763046764690E+00  1.0490602412913E+00
42  4.1000000000000E-01  1.3870703430759E+00  1.0920384478540E+00
43  4.2000000000000E-01  1.2911574768263E+00  1.1342381879661E+00
44  4.3000000000000E-01  1.1893511060238E+00  1.1755161586797E+00
45  4.4000000000000E-01  1.0824741487791E+00  1.2157269085943E+00
46  4.5000000000000E-01  9.7137688991260E-01  1.2547224222068E+00
47  4.6000000000000E-01  8.5692658601692E-01  1.2923519009758E+00
48  4.7000000000000E-01  7.3999739034249E-01  1.3284617928334E+00
49  4.8000000000000E-01  6.2146077140997E-01  1.3628961122716E+00
50  4.9000000000000E-01  5.0217657678445E-01  1.3954970813815E+00
51  5.0000000000000E-01  3.8298486709228E-01  1.4261061087760E+00
52  5.1000000000000E-01  2.6469861608227E-01  1.4545651086728E+00
53  5.2000000000000E-01  1.4809734139403E-01  1.4807181471258E+00
54  5.3000000000000E-01  3.3921698826096E-02  1.5044133870505E+00
55  5.4000000000000E-01 -7.7130958551928E-02  1.5255052889273E+00
56  5.5000000000000E-01 -1.8441008499180E-01  1.5438570104548E+00
57  5.6000000000000E-01 -2.8731456617629E-01  1.5593429365683E+00
58  5.7000000000000E-01 -3.8529454232373E-01  1.5718512616149E+00
59  5.8000000000000E-01 -4.7785252899778E-01  1.5812865385592E+00
60  5.9000000000000E-01 -5.6454394847289E-01  1.5875721061969E+00
61  6.0000000000000E-01 -6.4497719309000E-01  1.5906523047405E+00
62  6.1000000000000E-01 -7.1881334481756E-01  1.5904943929147E+00
63  6.2000000000000E-01 -7.8576567219278E-01  1.5870900858528E+00
64  6.3000000000000E-01 -8.4559901716737E-01  1.5804566424899E+00
65  6.4000000000000E-01 -8.9812917055904E-01  1.5706374435346E+00
66  6.5000000000000E-01 -9.4322231645976E-01  1.5577020160880E+00
67  6.6000000000000E-01 -9.8079460390820E-01  1.5417454780866E+00
68  6.7000000000000E-01 -1.0108118793869E+00  1.5228873943897E+00
69  6.8000000000000E-01 -1.0332895873619E+00  1.5012700558694E+00
70  6.9000000000000E-01 -1.0482928193334E+00  1.4770562125962E+00
71  7.0000000000000E-01 -1.0559364659257E+00  1.4504263114321E+00
72  7.1000000000000E-01 -1.0563854026171E+00  1.4215753063241E+00
73  7.2000000000000E-01 -1.0498546189360E+00  1.3907091256664E+00
74  7.3000000000000E-01 -1.0366091843535E+00  1.3580408946269E+00
75  7.4000000000000E-01 -1.0169639325627E+00  1.3237870207829E+00
76  7.5000000000000E-01 -9.9128274004317E-01  1.2881632583269E+00
77  7.6000000000000E-01 -9.5997727521769E-01  1.2513808691751E+00
78  7.7000000000000E-01 -9.2350510135394E-01  1.2136429983403E+00
79  7.8000000000000E-01 -8.8236702960036E-01  1.1751413758797E+00
80  7.9000000000000E-01 -8.3710363787669E-01  1.1360534487028E+00
81  8.0000000000000E-01 -7.8829089621309E-01  1.0965400327638E+00
82  8.1000000000000E-01 -7.3653486875110E-01  1.0567435600711E+00
83  8.2000000000000E-01 -6.8246549597307E-01  1.0167869760244E+00
84  8.3000000000000E-01 -6.2672949662442E-01  9.7677332147997E-01
85  8.4000000000000E-01 -5.6998246590192E-01  9.3678601134816E-01
86  8.5000000000000E-01 -5.1288028337914E-01  8.9688979823421E-01
87  8.6000000000000E-01 -4.5606997936220E-01  8.5713238645136E-01
88  8.7000000000000E-01 -4.0018024046987E-01  8.1754663949424E-01
89  8.8000000000000E-01 -3.4581176283165E-01  7.7815330355242E-01
90  8.9000000000000E-01 -2.9352768314515E-01  7.3896415162067E-01
91  9.0000000000000E-01 -2.4384433285133E-01  6.9998543788714E-01
92  9.1000000000000E-01 -1.9722256801317E-01  6.6122154091455E-01
93  9.2000000000000E-01 -1.5405992652031E-01  6.2267866710524E-01
94  9.3000000000000E-01 -1.1468385466972E-01  5.8436848334620E-01
95  9.4000000000000E-01 -7.9346226984510E-02  5.4631154969609E-01
96  9.5000000000000E-01 -4.8219356616935E-02  5.0854042947285E-01
97  9.6000000000000E-01 -2.1393659456986E-02  4.7110236493025E-01
98  9.7000000000000E-01  1.1229059772866E-03  4.3406142152445E-01
99  9.8000000000000E-01  1.9403547487005E-02  3.9750002206664E-01
100  9.9000000000000E-01  3.3599472538465E-02  3.6151981320185E-01
101  1.0000000000000E+00  4.3934875211768E-02  3.2624182992643E-01
102  1.0100000000000E+00  5.0700160549133E-02  2.9180594842276E-01
103  1.0200000000000E+00  5.4243543863110E-02  2.5836964247780E-01
104  1.0300000000000E+00  5.4961213758901E-02  2.2610608330027E-01
105  1.0400000000000E+00  5.3286294439776E-02  1.9520164574699E-01
106  1.0500000000000E+00  4.9676883682437E-02  1.6585290497717E-01
107  1.0600000000000E+00  4.4603476314184E-02  1.3826322565519E-01
108  1.0700000000000E+00  3.8536107745760E-02  1.1263906029371E-01
109  1.0800000000000E+00  3.1931583531409E-02  8.9186093131815E-02
110  1.0900000000000E+00  2.5221022959645E-02  6.8105283206569E-02
111  1.1000000000000E+00  1.8796042203937E-02  4.9587847481913E-02
112  1.1100000000000E+00  1.2951623822843E-02  3.3782571444164E-02
113  1.1200000000000E+00  7.9833653341181E-03  2.0851381549719E-02
114  1.1300000000000E+00  4.1332103212564E-03  1.0945137113014E-02
115  1.1400000000000E+00  1.5348578776910E-03  4.1739849798021E-03
116  1.1500000000000E+00  2.1451277001570E-04  6.0736858193646E-04
117  1.1600000000000E+00 -1.1174294974481E-05 -3.2769249825352E-05
118  1.1700000000000E+00  1.6629610430518E-08  4.7986315466969E-08
119  1.18 -0. -0.
120  1.19  0.  0.
121  1.20  0.  0.
122  1.21  0.  0.
123  1.22  0.  0.
124  1.23  0.  0.
125  1.24  0.  0.
126  1.25  0.  0.
127  1.26  0.  0.
128  1.27  0.  0.
129  1.28  0.  0.
130  1.29  0.  0.
131  1.30  0.  0.
132  1.31  0.  0.
133  1.32  0.  0.
134  1.33  0.  0.
135  1.34  0.  0.
136  1.35  0.  0.
137  1.36  0.  0.
138  1.37  0.  0.
139  1.38  0.  0.
140  1.39  0.  0.
141  1.40  0.  0.
142  1.41  0.  0.
143  1.42  0.  0.
144  1.43  0.  0.
145  1.44  0.  0.
146  1.45  0.  0.
147  1.46  0.  0.
148  1.47  0.  0.
149  1.48  0.  0.
150  1.49  0.  0.
151  1.50  0.  0.
152  1.51  0.  0.
153  1.52  0.  0.
154  1.53  0.  0.
155  1.54  0.  0.
156  1.55  0.  0.
157  1.56  0.  0.
158  1.57  0.  0.
159  1.58  0.  0.
160  1.59  0.  0.
161  1.60  0.  0.
162  1.61  0.  0.
163  1.62  0.  0.
164  1.63  0.  0.
165  1.64  0.  0.