Lr    ONCVPSP-4.0.1  r_core=   1.10451   1.15174   1.15174   1.20099
103.0000     43.0000      231012    zatom,zion,pspd
8   -1012   3     4   600     0    pspcod,pspxc,lmax,lloc,mmax,r2well
5.99000000  4.12600000  0.00000000    rchrg fchrg qchrg
3     3     2     2    nproj
3     1           extension_switch
4     4     3    nprojso
0                         1.2436275059171E+01 -7.5551393730084E+00 -2.0227278864761E+00
1  0.0000000000000E+00  1.0955197460305E-07  1.9647676652301E-08 -1.2195771639245E-06
2  1.0000000000000E-02  1.5022299975498E-01  4.0128157994497E-02  2.1273497100649E-01
3  2.0000000000000E-02  2.9972125814489E-01  8.0382795348263E-02  4.1919111223936E-01
4  3.0000000000000E-02  4.4776116128657E-01  1.2088597937321E-01  6.1331028120593E-01
5  4.0000000000000E-02  5.9359202846088E-01  1.6175109812817E-01  7.8946722955952E-01
6  5.0000000000000E-02  7.3643924370070E-01  2.0307887745515E-01  9.4266518772184E-01
7  6.0000000000000E-02  8.7549930127531E-01  2.4495381099219E-01  1.0687073487936E+00
8  7.0000000000000E-02  1.0099372666213E+00  2.8744111643317E-01  1.1643377343466E+00
9  8.0000000000000E-02  1.1388870447181E+00  3.3058431165680E-01  1.2273461442661E+00
10  9.0000000000000E-02  1.2614547198232E+00  3.7440348129789E-01  1.2566333212408E+00
11  1.0000000000000E-01  1.3767250892243E+00  4.1889427879648E-01  1.2522340396566E+00
12  1.1000000000000E-01  1.4837713651545E+00  4.6402768194669E-01  1.2152974944495E+00
13  1.2000000000000E-01  1.5816678694653E+00  5.0975049253990E-01  1.1480260503996E+00
14  1.3000000000000E-01  1.6695054013545E+00  5.5598654393356E-01  1.0535750483750E+00
15  1.4000000000000E-01  1.7464088254641E+00  6.0263855531965E-01  9.3591788629788E-01
16  1.5000000000000E-01  1.8115563116199E+00  6.4959054908397E-01  7.9968193821196E-01
17  1.6000000000000E-01  1.8641995633155E+00  6.9671072879442E-01  6.4996199125722E-01
18  1.7000000000000E-01  1.9036843037891E+00  7.4385470073907E-01  4.9211872366560E-01
19  1.8000000000000E-01  1.9294702491911E+00  7.9086891208632E-01  3.3157028446802E-01
20  1.9000000000000E-01  1.9411497897268E+00  8.3759417399422E-01  1.7358524742275E-01
21  2.0000000000000E-01  1.9384646223325E+00  8.8386913848412E-01  2.3085091086121E-02
22  2.1000000000000E-01  1.9213196317323E+00  9.2953360353011E-01 -1.1553608917364E-01
23  2.2000000000000E-01  1.8897933986790E+00  9.7443153131282E-01 -2.3856768301642E-01
24  2.3000000000000E-01  1.8441448217321E+00  1.0184136794601E+00 -3.4310855136957E-01
25  2.4000000000000E-01  1.7848154679473E+00  1.0613397636962E+00 -4.2715822233983E-01
26  2.5000000000000E-01  1.7124274133791E+00  1.1030800918486E+00 -4.8967005459688E-01
27  2.6000000000000E-01  1.6277764906989E+00  1.1435166327089E+00 -5.3056467736390E-01
28  2.7000000000000E-01  1.5318210224560E+00  1.1825435078403E+00 -5.5070362295830E-01
29  2.8000000000000E-01  1.4256662783149E+00  1.2200669190527E+00 -5.5182466507996E-01
30  2.9000000000000E-01  1.3105450468180E+00  1.2560045479361E+00 -5.3644189959690E-01
31  3.0000000000000E-01  1.1877948509904E+00  1.2902844856000E+00 -5.0771499390369E-01
32  3.1000000000000E-01  1.0588324571031E+00  1.3228437697603E+00 -4.6929323139612E-01
33  3.2000000000000E-01  9.2512642256760E-01  1.3536266217967E+00 -4.2514094277331E-01
34  3.3000000000000E-01  7.8816849862145E-01  1.3825824877983E+00 -3.7935160917912E-01
35  3.4000000000000E-01  6.4944474357514E-01  1.4096639945012E+00 -3.3595831841130E-01
36  3.5000000000000E-01  5.1040721152669E-01  1.4348249331782E+00 -2.9874834149573E-01
37  3.6000000000000E-01  3.7244705936441E-01  1.4580183819270E+00 -2.7108937238735E-01
38  3.7000000000000E-01  2.3686986256419E-01  1.4791950695884E+00 -2.5577445042534E-01
39  3.8000000000000E-01  1.0487384986422E-01  1.4983020730466E+00 -2.5489178722356E-01
40  3.9000000000000E-01 -2.2468338441697E-02  1.5152819244328E+00 -2.6972468146793E-01
41  4.0000000000000E-01 -1.4422389000421E-01  1.5300721864277E+00 -3.0068547030535E-01
42  4.1000000000000E-01 -2.5960972122237E-01  1.5426055332063E+00 -3.4728608568477E-01
43  4.2000000000000E-01 -3.6799785548881E-01  1.5528103524521E+00 -4.0814631430094E-01
44  4.3000000000000E-01 -4.6891625240019E-01  1.5606118611798E+00 -4.8103935975808E-01
45  4.4000000000000E-01 -5.6204521773021E-01  1.5659337057714E+00 -5.6297283464485E-01
46  4.5000000000000E-01 -6.4720967335057E-01  1.5686999955365E+00 -6.5030192594701E-01
47  4.6000000000000E-01 -7.2436770335300E-01  1.5688377000769E+00 -7.3887023295397E-01
48  4.7000000000000E-01 -7.9359591247237E-01  1.5662793245154E+00 -8.2417271958430E-01
49  4.8000000000000E-01 -8.5507223134444E-01  1.5609657638478E+00 -9.0153439195677E-01
50  4.9000000000000E-01 -9.0905687683090E-01  1.5528492287730E+00 -9.6629773662682E-01
51  5.0000000000000E-01 -9.5587222225484E-01  1.5418961306624E+00 -1.0140116543646E+00
52  5.1000000000000E-01 -9.9588235061568E-01  1.5280898129968E+00 -1.0406146067579E+00
53  5.2000000000000E-01 -1.0294730534712E+00  1.5114330205927E+00 -1.0426049552288E+00
54  5.3000000000000E-01 -1.0570330000424E+00  1.4919500060795E+00 -1.0171920003412E+00
55  5.4000000000000E-01 -1.0789367370894E+00  1.4696881850120E+00 -9.6242199953441E-01
56  5.5000000000000E-01 -1.0955300930232E+00  1.4447192662303E+00 -8.7727442067145E-01
57  5.6000000000000E-01 -1.1071184531931E+00  1.4171398019887E+00 -7.6172483652239E-01
58  5.7000000000000E-01 -1.1139582515747E+00  1.3870711222798E+00 -6.1677213526253E-01
59  5.8000000000000E-01 -1.1162518919727E+00  1.3546586388984E+00 -4.4442906408581E-01
60  5.9000000000000E-01 -1.1141461743791E+00  1.3200705263306E+00 -2.4767648515184E-01
61  6.0000000000000E-01 -1.1077341644891E+00  1.2834958077184E+00 -3.0383053555421E-02
62  6.1000000000000E-01 -1.0970603116304E+00  1.2451418941554E+00  2.0280672372443E-01
63  6.2000000000000E-01 -1.0821284973279E+00  1.2052316437122E+00  4.4661196628527E-01
64  6.3000000000000E-01 -1.0629125877531E+00  1.1640000222384E+00  6.9527739826474E-01
65  6.4000000000000E-01 -1.0393689721591E+00  1.1216904606079E+00  9.4275203047300E-01
66  6.5000000000000E-01 -1.0114504991138E+00  1.0785510122797E+00  1.1828782171962E+00
67  6.6000000000000E-01 -9.7912117512393E-01  1.0348304205577E+00  1.4095844626328E+00
68  6.7000000000000E-01 -9.4237096743707E-01  9.9077420663407E-01  1.6170753011078E+00
69  6.8000000000000E-01 -9.0123005482756E-01  9.4662088740597E-01  1.8000117659189E+00
70  6.9000000000000E-01 -8.5578189653950E-01  9.0259842632704E-01  1.9536763817118E+00
71  7.0000000000000E-01 -8.0617453892776E-01  8.5892101146678E-01  2.0741172443777E+00
72  7.1000000000000E-01 -7.5262964954972E-01  8.1578624291600E-01  2.1582665628998E+00
73  7.2000000000000E-01 -6.9544885667942E-01  7.7337279717675E-01  2.2040299959400E+00
74  7.3000000000000E-01 -6.3501707499937E-01  7.3183861978687E-01  2.2103441840212E+00
75  7.4000000000000E-01 -5.7180261169701E-01  6.9131967976892E-01  2.1772010149382E+00
76  7.5000000000000E-01 -5.0635396718460E-01  6.5192930120658E-01  2.1056383231942E+00
77  7.6000000000000E-01 -4.3929336683682E-01  6.1375806898799E-01  1.9976978715853E+00
78  7.7000000000000E-01 -3.7130718019942E-01  5.7687428813881E-01  1.8563525543971E+00
79  7.8000000000000E-01 -3.0313349791923E-01  5.4132495977908E-01  1.6854057600972E+00
80  7.9000000000000E-01 -2.3554724031624E-01  5.0713722209661E-01  1.4893667043170E+00
81  8.0000000000000E-01 -1.6934326164762E-01  4.7432019227187E-01  1.2733062645392E+00
82  8.1000000000000E-01 -1.0531798779678E-01  4.4286713536108E-01  1.0426983955788E+00
83  8.2000000000000E-01 -4.4250180067345E-02  4.1275787899078E-01  8.0325256588004E-01
84  8.3000000000000E-01  1.3118547641532E-02  3.8396138847591E-01  5.6074282210806E-01
85  8.4000000000000E-01  6.6102817679937E-02  3.5643841568107E-01  3.2083906364353E-01
86  8.5000000000000E-01  1.1409155106171E-01  3.3014413653115E-01  8.8945896268891E-02
87  8.6000000000000E-01  1.5656440012952E-01  3.0503069638272E-01 -1.2994595154235E-01
88  8.7000000000000E-01  1.9310599711168E-01  2.8104958924576E-01 -3.3139120750858E-01
89  8.8000000000000E-01  2.2341753125120E-01  2.5815380578086E-01 -5.1160086122134E-01
90  8.9000000000000E-01  2.4732525002589E-01  2.3629969571836E-01 -6.6752920872710E-01
91  9.0000000000000E-01  2.6478557591128E-01  2.1544850244328E-01 -7.9693500697980E-01
92  9.1000000000000E-01  2.7588663609613E-01  1.9556754052706E-01 -8.9841551678317E-01
93  9.2000000000000E-01  2.8084611528987E-01  1.7663100052756E-01 -9.7141313997184E-01
94  9.3000000000000E-01  2.8000545782339E-01  1.5862037898600E-01 -1.0161952743431E+00
95  9.4000000000000E-01  2.7382056123340E-01  1.4152454481816E-01 -1.0338088916717E+00
96  9.5000000000000E-01  2.6284921607680E-01  1.2533946584921E-01 -1.0260121657701E+00
97  9.6000000000000E-01  2.4773565268792E-01  1.1006763074971E-01 -9.9518621817587E-01
98  9.7000000000000E-01  2.2919265202215E-01  9.5717211810975E-02 -9.4423069119134E-01
99  9.8000000000000E-01  2.0798176210275E-01  8.2301022635561E-02 -8.7644738871023E-01
100  9.9000000000000E-01  1.8489223164066E-01  6.9835331741726E-02 -7.9541663479613E-01
101  1.0000000000000E+00  1.6071932641917E-01  5.8338598189469E-02 -7.0487128328159E-01
102  1.0100000000000E+00  1.3624273070864E-01  4.7830198578497E-02 -6.0857346705224E-01
103  1.0200000000000E+00  1.1220575452331E-01  3.8329216152367E-02 -5.1019920511278E-01
104  1.0300000000000E+00  8.9296063806536E-02  2.9853363364585E-02 -4.1323578692574E-01
105  1.0400000000000E+00  6.8128666658905E-02  2.2418097696910E-02 -3.2089763028671E-01
106  1.0500000000000E+00  4.9232020708214E-02  1.6035950336780E-02 -2.3607139029619E-01
107  1.0600000000000E+00  3.3051323335123E-02  1.0711874659200E-02 -1.6164973161720E-01
108  1.0700000000000E+00  1.9913289800054E-02  6.4505595943517E-03 -9.9680967320968E-02
109  1.0800000000000E+00  1.0024289397712E-02  3.2593982768130E-03 -5.1540248278713E-02
110  1.0900000000000E+00  3.4932423266545E-03  1.1447207651823E-03 -1.8517739764720E-02
111  1.1000000000000E+00  3.5691421617032E-04  1.1836091981748E-04 -1.9595512684874E-03
112  1.1100000000000E+00 -1.2750968781867E-05 -4.2598130327897E-06  7.1669478614340E-05
113  1.1200000000000E+00 -1.7014742337138E-06 -5.6208614216011E-07  9.2689026461994E-06
114  1.13  0.  0.  0.
115  1.14  0.  0.  0.
116  1.15  0.  0.  0.
117  1.16  0.  0.  0.
118  1.17  0.  0.  0.
119  1.18  0.  0.  0.
120  1.19  0.  0.  0.
121  1.20  0.  0.  0.
122  1.21  0.  0.  0.
123  1.22  0.  0.  0.
124  1.23  0.  0.  0.
125  1.24  0.  0.  0.
126  1.25  0.  0.  0.
127  1.26  0.  0.  0.
128  1.27  0.  0.  0.
129  1.28  0.  0.  0.
130  1.29  0.  0.  0.
131  1.30  0.  0.  0.
132  1.31  0.  0.  0.
133  1.32  0.  0.  0.
134  1.33  0.  0.  0.
135  1.34  0.  0.  0.
136  1.35  0.  0.  0.
137  1.36  0.  0.  0.
138  1.37  0.  0.  0.
139  1.38  0.  0.  0.
140  1.39  0.  0.  0.
141  1.40  0.  0.  0.
142  1.41  0.  0.  0.
143  1.42  0.  0.  0.
144  1.43  0.  0.  0.
145  1.44  0.  0.  0.
146  1.45  0.  0.  0.
147  1.46  0.  0.  0.
148  1.47  0.  0.  0.
149  1.48  0.  0.  0.
150  1.49  0.  0.  0.
151  1.50  0.  0.  0.
152  1.51  0.  0.  0.
153  1.52  0.  0.  0.
154  1.53  0.  0.  0.
155  1.54  0.  0.  0.
156  1.55  0.  0.  0.
157  1.56  0.  0.  0.
158  1.57  0.  0.  0.
159  1.58  0.  0.  0.
160  1.59  0.  0.  0.
161  1.60  0.  0.  0.
162  1.61  0.  0.  0.
163  1.62  0.  0.  0.
164  1.63  0.  0.  0.
165  1.64  0.  0.  0.
166  1.65  0.  0.  0.
167  1.66  0.  0.  0.
168  1.67  0.  0.  0.
169  1.68  0.  0.  0.
170  1.69  0.  0.  0.
171  1.70  0.  0.  0.
172  1.71  0.  0.  0.
173  1.72  0.  0.  0.
174  1.73  0.  0.  0.
175  1.74  0.  0.  0.
176  1.75  0.  0.  0.
177  1.76  0.  0.  0.
178  1.77  0.  0.  0.
179  1.78  0.  0.  0.
180  1.79  0.  0.  0.
181  1.80  0.  0.  0.
182  1.81  0.  0.  0.
183  1.82  0.  0.  0.
184  1.83  0.  0.  0.
185  1.84  0.  0.  0.
186  1.85  0.  0.  0.
187  1.86  0.  0.  0.
188  1.87  0.  0.  0.
189  1.88  0.  0.  0.
190  1.89  0.  0.  0.
191  1.90  0.  0.  0.
192  1.91  0.  0.  0.
193  1.92  0.  0.  0.
194  1.93  0.  0.  0.
195  1.94  0.  0.  0.
196  1.95  0.  0.  0.
197  1.96  0.  0.  0.
198  1.97  0.  0.  0.
199  1.98  0.  0.  0.
200  1.99  0.  0.  0.
201  2.00  0.  0.  0.
202  2.01  0.  0.  0.
203  2.02  0.  0.  0.
204  2.03  0.  0.  0.
205  2.04  0.  0.  0.
206  2.05  0.  0.  0.
207  2.06  0.  0.  0.
208  2.07  0.  0.  0.
209  2.08  0.  0.  0.
210  2.09  0.  0.  0.
211  2.10  0.  0.  0.
212  2.11  0.  0.  0.
213  2.12  0.  0.  0.
214  2.13  0.  0.  0.
215  2.14  0.  0.  0.
216  2.15  0.  0.  0.
217  2.16  0.  0.  0.
218  2.17  0.  0.  0.
219  2.18  0.  0.  0.
220  2.19  0.  0.  0.
221  2.20  0.  0.  0.
222  2.21  0.  0.  0.
223  2.22  0.  0.  0.
224  2.23  0.  0.  0.
225  2.24  0.  0.  0.
226  2.25  0.  0.  0.
227  2.26  0.  0.  0.
228  2.27  0.  0.  0.
229  2.28  0.  0.  0.
230  2.29  0.  0.  0.
231  2.30  0.  0.  0.
232  2.31  0.  0.  0.
233  2.32  0.  0.  0.
234  2.33  0.  0.  0.
235  2.34  0.  0.  0.
236  2.35  0.  0.  0.
237  2.36  0.  0.  0.
238  2.37  0.  0.  0.
239  2.38  0.  0.  0.
240  2.39  0.  0.  0.
241  2.40  0.  0.  0.
242  2.41  0.  0.  0.
243  2.42  0.  0.  0.
244  2.43  0.  0.  0.
245  2.44  0.  0.  0.
246  2.45  0.  0.  0.
247  2.46  0.  0.  0.
248  2.47  0.  0.  0.
249  2.48  0.  0.  0.
250  2.49  0.  0.  0.
251  2.50  0.  0.  0.
252  2.51  0.  0.  0.
253  2.52  0.  0.  0.
254  2.53  0.  0.  0.
255  2.54  0.  0.  0.
256  2.55  0.  0.  0.
257  2.56  0.  0.  0.
258  2.57  0.  0.  0.
259  2.58  0.  0.  0.
260  2.59  0.  0.  0.
261  2.60  0.  0.  0.
262  2.61  0.  0.  0.
263  2.62  0.  0.  0.
264  2.63  0.  0.  0.
265  2.64  0.  0.  0.
266  2.65  0.  0.  0.
267  2.66  0.  0.  0.
268  2.67  0.  0.  0.
269  2.68  0.  0.  0.
270  2.69  0.  0.  0.
271  2.70  0.  0.  0.
272  2.71  0.  0.  0.
273  2.72  0.  0.  0.
274  2.73  0.  0.  0.
275  2.74  0.  0.  0.
276  2.75  0.  0.  0.
277  2.76  0.  0.  0.
278  2.77  0.  0.  0.
279  2.78  0.  0.  0.
280  2.79  0.  0.  0.
281  2.80  0.  0.  0.
282  2.81  0.  0.  0.
283  2.82  0.  0.  0.
284  2.83  0.  0.  0.
285  2.84  0.  0.  0.
286  2.85  0.  0.  0.
287  2.86  0.  0.  0.
288  2.87  0.  0.  0.
289  2.88  0.  0.  0.
290  2.89  0.  0.  0.
291  2.90  0.  0.  0.
292  2.91  0.  0.  0.
293  2.92  0.  0.  0.
294  2.93  0.  0.  0.
295  2.94  0.  0.  0.
296  2.95  0.  0.  0.
297  2.96  0.  0.  0.
298  2.97  0.  0.  0.
299  2.98  0.  0.  0.
300  2.99  0.  0.  0.
301  3.00  0.  0.  0.
302  3.01  0.  0.  0.
303  3.02  0.  0.  0.
304  3.03  0.  0.  0.
305  3.04  0.  0.  0.
306  3.05  0.  0.  0.
307  3.06  0.  0.  0.
308  3.07  0.  0.  0.
309  3.08  0.  0.  0.
310  3.09  0.  0.  0.
311  3.10  0.  0.  0.
312  3.11  0.  0.  0.
313  3.12  0.  0.  0.
314  3.13  0.  0.  0.
315  3.14  0.  0.  0.
316  3.15  0.  0.  0.
317  3.16  0.  0.  0.
318  3.17  0.  0.  0.
319  3.18  0.  0.  0.
320  3.19  0.  0.  0.
321  3.20  0.  0.  0.
322  3.21  0.  0.  0.
323  3.22  0.  0.  0.
324  3.23  0.  0.  0.
325  3.24  0.  0.  0.
326  3.25  0.  0.  0.
327  3.26  0.  0.  0.
328  3.27  0.  0.  0.
329  3.28  0.  0.  0.
330  3.29  0.  0.  0.
331  3.30  0.  0.  0.
332  3.31  0.  0.  0.
333  3.32  0.  0.  0.
334  3.33  0.  0.  0.
335  3.34  0.  0.  0.
336  3.35  0.  0.  0.
337  3.36  0.  0.  0.
338  3.37  0.  0.  0.
339  3.38  0.  0.  0.
340  3.39  0.  0.  0.
341  3.40  0.  0.  0.
342  3.41  0.  0.  0.
343  3.42  0.  0.  0.
344  3.43  0.  0.  0.
345  3.44  0.  0.  0.
346  3.45  0.  0.  0.
347  3.46  0.  0.  0.
348  3.47  0.  0.  0.
349  3.48  0.  0.  0.
350  3.49  0.  0.  0.
351  3.50  0.  0.  0.
352  3.51  0.  0.  0.
353  3.52  0.  0.  0.
354  3.53  0.  0.  0.
355  3.54  0.  0.  0.
356  3.55  0.  0.  0.
357  3.56  0.  0.  0.
358  3.57  0.  0.  0.
359  3.58  0.  0.  0.
360  3.59  0.  0.  0.
361  3.60  0.  0.  0.
362  3.61  0.  0.  0.
363  3.62  0.  0.  0.
364  3.63  0.  0.  0.
365  3.64  0.  0.  0.
366  3.65  0.  0.  0.
367  3.66  0.  0.  0.
368  3.67  0.  0.  0.
369  3.68  0.  0.  0.
370  3.69  0.  0.  0.
371  3.70  0.  0.  0.
372  3.71  0.  0.  0.
373  3.72  0.  0.  0.
374  3.73  0.  0.  0.
375  3.74  0.  0.  0.
376  3.75  0.  0.  0.
377  3.76  0.  0.  0.
378  3.77  0.  0.  0.
379  3.78  0.  0.  0.
380  3.79  0.  0.  0.
381  3.80  0.  0.  0.
382  3.81  0.  0.  0.
383  3.82  0.  0.  0.
384  3.83  0.  0.  0.
385  3.84  0.  0.  0.
386  3.85  0.  0.  0.
387  3.86  0.  0.  0.
388  3.87  0.  0.  0.
389  3.88  0.  0.  0.
390  3.89  0.  0.  0.
391  3.90  0.  0.  0.
392  3.91  0.  0.  0.
393  3.92  0.  0.  0.
394  3.93  0.  0.  0.
395  3.94  0.  0.  0.
396  3.95  0.  0.  0.
397  3.96  0.  0.  0.
398  3.97  0.  0.  0.
399  3.98  0.  0.  0.
400  3.99  0.  0.  0.
401  4.00  0.  0.  0.
402  4.01  0.  0.  0.
403  4.02  0.  0.  0.
404  4.03  0.  0.  0.
405  4.04  0.  0.  0.
406  4.05  0.  0.  0.
407  4.06  0.  0.  0.
408  4.07  0.  0.  0.
409  4.08  0.  0.  0.
410  4.09  0.  0.  0.
411  4.10  0.  0.  0.
412  4.11  0.  0.  0.
413  4.12  0.  0.  0.
414  4.13  0.  0.  0.
415  4.14  0.  0.  0.
416  4.15  0.  0.  0.
417  4.16  0.  0.  0.
418  4.17  0.  0.  0.
419  4.18  0.  0.  0.
420  4.19  0.  0.  0.
421  4.20  0.  0.  0.
422  4.21  0.  0.  0.
423  4.22  0.  0.  0.
424  4.23  0.  0.  0.
425  4.24  0.  0.  0.
426  4.25  0.  0.  0.
427  4.26  0.  0.  0.
428  4.27  0.  0.  0.
429  4.28  0.  0.  0.
430  4.29  0.  0.  0.
431  4.30  0.  0.  0.
432  4.31  0.  0.  0.
433  4.32  0.  0.  0.
434  4.33  0.  0.  0.
435  4.34  0.  0.  0.
436  4.35  0.  0.  0.
437  4.36  0.  0.  0.
438  4.37  0.  0.  0.
439  4.38  0.  0.  0.
440  4.39  0.  0.  0.
441  4.40  0.  0.  0.
442  4.41  0.  0.  0.
443  4.42  0.  0.  0.
444  4.43  0.  0.  0.
445  4.44  0.  0.  0.
446  4.45  0.  0.  0.
447  4.46  0.  0.  0.
448  4.47  0.  0.  0.
449  4.48  0.  0.  0.
450  4.49  0.  0.  0.
451  4.50  0.  0.  0.
452  4.51  0.  0.  0.
453  4.52  0.  0.  0.
454  4.53  0.  0.  0.
455  4.54  0.  0.  0.
456  4.55  0.  0.  0.
457  4.56  0.  0.  0.
458  4.57  0.  0.  0.
459  4.58  0.  0.  0.
460  4.59  0.  0.  0.
461  4.60  0.  0.  0.
462  4.61  0.  0.  0.
463  4.62  0.  0.  0.
464  4.63  0.  0.  0.
465  4.64  0.  0.  0.
466  4.65  0.  0.  0.
467  4.66  0.  0.  0.
468  4.67  0.  0.  0.
469  4.68  0.  0.  0.
470  4.69  0.  0.  0.
471  4.70  0.  0.  0.
472  4.71  0.  0.  0.
473  4.72  0.  0.  0.
474  4.73  0.  0.  0.
475  4.74  0.  0.  0.
476  4.75  0.  0.  0.
477  4.76  0.  0.  0.
478  4.77  0.  0.  0.
479  4.78  0.  0.  0.
480  4.79  0.  0.  0.
481  4.80  0.  0.  0.
482  4.81  0.  0.  0.
483  4.82  0.  0.  0.
484  4.83  0.  0.  0.
485  4.84  0.  0.  0.
486  4.85  0.  0.  0.
487  4.86  0.  0.  0.
488  4.87  0.  0.  0.
489  4.88  0.  0.  0.
490  4.89  0.  0.  0.
491  4.90  0.  0.  0.
492  4.91  0.  0.  0.
493  4.92  0.  0.  0.
494  4.93  0.  0.  0.
495  4.94  0.  0.  0.
496  4.95  0.  0.  0.
497  4.96  0.  0.  0.
498  4.97  0.  0.  0.
499  4.98  0.  0.  0.
500  4.99  0.  0.  0.
501  5.00  0.  0.  0.
502  5.01  0.  0.  0.
503  5.02  0.  0.  0.
504  5.03  0.  0.  0.
505  5.04  0.  0.  0.
506  5.05  0.  0.  0.
507  5.06  0.  0.  0.
508  5.07  0.  0.  0.
509  5.08  0.  0.  0.
510  5.09  0.  0.  0.
511  5.10  0.  0.  0.
512  5.11  0.  0.  0.
513  5.12  0.  0.  0.
514  5.13  0.  0.  0.
515  5.14  0.  0.  0.
516  5.15  0.  0.  0.
517  5.16  0.  0.  0.
518  5.17  0.  0.  0.
519  5.18  0.  0.  0.
520  5.19  0.  0.  0.
521  5.20  0.  0.  0.
522  5.21  0.  0.  0.
523  5.22  0.  0.  0.
524  5.23  0.  0.  0.
525  5.24  0.  0.  0.
526  5.25  0.  0.  0.
527  5.26  0.  0.  0.
528  5.27  0.  0.  0.
529  5.28  0.  0.  0.
530  5.29  0.  0.  0.
531  5.30  0.  0.  0.
532  5.31  0.  0.  0.
533  5.32  0.  0.  0.
534  5.33  0.  0.  0.
535  5.34  0.  0.  0.
536  5.35  0.  0.  0.
537  5.36  0.  0.  0.
538  5.37  0.  0.  0.
539  5.38  0.  0.  0.
540  5.39  0.  0.  0.
541  5.40  0.  0.  0.
542  5.41  0.  0.  0.
543  5.42  0.  0.  0.
544  5.43  0.  0.  0.
545  5.44  0.  0.  0.
546  5.45  0.  0.  0.
547  5.46  0.  0.  0.
548  5.47  0.  0.  0.
549  5.48  0.  0.  0.
550  5.49  0.  0.  0.
551  5.50  0.  0.  0.
552  5.51  0.  0.  0.
553  5.52  0.  0.  0.
554  5.53  0.  0.  0.
555  5.54  0.  0.  0.
556  5.55  0.  0.  0.
557  5.56  0.  0.  0.
558  5.57  0.  0.  0.
559  5.58  0.  0.  0.
560  5.59  0.  0.  0.
561  5.60  0.  0.  0.
562  5.61  0.  0.  0.
563  5.62  0.  0.  0.
564  5.63  0.  0.  0.
565  5.64  0.  0.  0.
566  5.65  0.  0.  0.
567  5.66  0.  0.  0.
568  5.67  0.  0.  0.
569  5.68  0.  0.  0.
570  5.69  0.  0.  0.
571  5.70  0.  0.  0.
572  5.71  0.  0.  0.
573  5.72  0.  0.  0.
574  5.73  0.  0.  0.
575  5.74  0.  0.  0.
576  5.75  0.  0.  0.
577  5.76  0.  0.  0.
578  5.77  0.  0.  0.
579  5.78  0.  0.  0.
580  5.79  0.  0.  0.
581  5.80  0.  0.  0.
582  5.81  0.  0.  0.
583  5.82  0.  0.  0.
584  5.83  0.  0.  0.
585  5.84  0.  0.  0.
586  5.85  0.  0.  0.
587  5.86  0.  0.  0.
588  5.87  0.  0.  0.
589  5.88  0.  0.  0.
590  5.89  0.  0.  0.
591  5.90  0.  0.  0.
592  5.91  0.  0.  0.
593  5.92  0.  0.  0.
594  5.93  0.  0.  0.
595  5.94  0.  0.  0.
596  5.95  0.  0.  0.
597  5.96  0.  0.  0.
598  5.97  0.  0.  0.
599  5.98  0.  0.  0.
600  5.99  0.  0.  0.
1                        -7.2001412292401E+00  1.2064353825747E+00 -1.0104501706675E-01
1  0.0000000000000E+00  1.1798341803537E-08  1.9021868786356E-07 -4.0883616597709E-07
2  1.0000000000000E-02  2.3558770444464E-03 -5.1799629455213E-04 -8.2755911004554E-03
3  2.0000000000000E-02  9.4051071571317E-03 -2.1369344628033E-03 -3.2863452338065E-02
4  3.0000000000000E-02  2.1092774486299E-02 -5.0483527939712E-03 -7.3054730805909E-02
5  4.0000000000000E-02  3.7328301873240E-02 -9.5605860804123E-03 -1.2769399448866E-01
6  5.0000000000000E-02  5.7986846660428E-02 -1.6082893362159E-02 -1.9521721907201E-01
7  6.0000000000000E-02  8.2911199687621E-02 -2.5104160114342E-02 -2.7370301372895E-01
8  7.0000000000000E-02  1.1191413470658E-01 -3.7167054160047E-02 -3.6093521987961E-01
9  8.0000000000000E-02  1.4478114364664E-01 -5.2838704809863E-02 -4.5447460808483E-01
10  9.0000000000000E-02  1.8127348365116E-01 -7.2679122510148E-02 -5.5173707596808E-01
11  1.0000000000000E-01  2.2113145490243E-01 -9.7208675717770E-02 -6.5007552652666E-01
12  1.1000000000000E-01  2.6407782418604E-01 -1.2687598879719E-01 -7.4686248974267E-01
13  1.2000000000000E-01  3.0982130803159E-01 -1.6202761750029E-01 -8.3957054525207E-01
14  1.3000000000000E-01  3.5806003111222E-01 -2.0288079721195E-01 -9.2584770990898E-01
15  1.4000000000000E-01  4.0848488028477E-01 -2.4950044592897E-01 -1.0035851670287E+00
16  1.5000000000000E-01  4.6078268199345E-01 -3.0178144322397E-01 -1.0709750254377E+00
17  1.6000000000000E-01  5.1463914043177E-01 -3.5943700444196E-01 -1.1265561939453E+00
18  1.7000000000000E-01  5.6974148546269E-01 -4.2199373392600E-01 -1.1692469249217E+00
19  1.8000000000000E-01  6.2578079236859E-01 -4.8879368133818E-01 -1.1983631010528E+00
20  1.9000000000000E-01  6.8245394951928E-01 -5.5900345127160E-01 -1.2136218917949E+00
21  2.0000000000000E-01  7.3946526445722E-01 -6.3163013905332E-01 -1.2151309691011E+00
22  2.1000000000000E-01  7.9652771314010E-01 -7.0554359579346E-01 -1.2033640238003E+00
23  2.2000000000000E-01  8.5336385060185E-01 -7.7950427395367E-01 -1.1791238432021E+00
24  2.3000000000000E-01  9.0970641357358E-01 -8.5219568092756E-01 -1.1434946769986E+00
25  2.4000000000000E-01  9.6529865618073E-01 -9.2226028121826E-01 -1.0977860143223E+00
26  2.5000000000000E-01  1.0198944683052E+00 -9.8833754522956E-01 -1.0434702046659E+00
27  2.6000000000000E-01  1.0732583322612E+00 -1.0491027502171E+00 -9.8211656736111E-01
28  2.7000000000000E-01  1.1251651768703E+00 -1.1033051004065E+00 -9.1532474040083E-01
29  2.8000000000000E-01  1.1754001887230E+00 -1.1498037504270E+00 -8.4466001559186E-01
30  2.9000000000000E-01  1.2237586383919E+00 -1.1876003886183E+00 -7.7159329369537E-01
31  3.0000000000000E-01  1.2700457747167E+00 -1.2158671619019E+00 -6.9744807492910E-01
32  3.1000000000000E-01  1.3140768332413E+00 -1.2339688971443E+00 -6.2335658567178E-01
33  3.2000000000000E-01  1.3556771957502E+00 -1.2414787887936E+00 -5.5022674387471E-01
34  3.3000000000000E-01  1.3946827270322E+00 -1.2381869709112E+00 -4.7872119929231E-01
35  3.4000000000000E-01  1.4309403029512E+00 -1.2241016640665E+00 -4.0924916862138E-01
36  3.5000000000000E-01  1.4643085311427E+00 -1.1994428734883E+00 -3.4197124039009E-01
37  3.6000000000000E-01  1.4946586527343E+00 -1.1646289033313E+00 -2.7681677157503E-01
38  3.7000000000000E-01  1.5218756009438E+00 -1.1202562317435E+00 -2.1351295941681E-01
39  3.8000000000000E-01  1.5458591808052E+00 -1.0670735516906E+00 -1.5162416925544E-01
40  3.9000000000000E-01  1.5665253240895E+00 -1.0059510129685E+00 -9.0599652612908E-02
41  4.0000000000000E-01  1.5838073652028E+00 -9.3784589235770E-01 -2.9827417325808E-02
42  4.1000000000000E-01  1.5976572778136E+00 -8.6376606372310E-01  3.1308271396644E-02
43  4.2000000000000E-01  1.6080468084956E+00 -7.8473273203622E-01  9.3368461606761E-02
44  4.3000000000000E-01  1.6149684429511E+00 -7.0174393079049E-01  1.5680293154360E-01
45  4.4000000000000E-01  1.6184361424979E+00 -6.1574025919502E-01  2.2189818603541E-01
46  4.5000000000000E-01  1.6184857934200E+00 -5.2757425422057E-01  2.8873261124446E-01
47  4.6000000000000E-01  1.6151753193728E+00 -4.3798465559368E-01  3.5714110425680E-01
48  4.7000000000000E-01  1.6085844170405E+00 -3.4757663390593E-01  4.2669113270295E-01
49  4.8000000000000E-01  1.5988138873233E+00 -2.5680881982627E-01  4.9667173233733E-01
50  4.9000000000000E-01  1.5859845480505E+00 -1.6598770442184E-01  5.6609643375590E-01
51  5.0000000000000E-01  1.5702357290695E+00 -7.5269686713513E-02  6.3372054252540E-01
52  5.1000000000000E-01  1.5517233659879E+00  1.5329264196379E-02  6.9807260140452E-01
53  5.2000000000000E-01  1.5306177242568E+00  1.0591667709383E-01  7.5749926192481E-01
54  5.3000000000000E-01  1.5071008000789E+00  1.9670002467207E-01  8.1022220873364E-01
55  5.4000000000000E-01  1.4813634582078E+00  2.8795747833339E-01  8.5440523683356E-01
56  5.5000000000000E-01  1.4536023785320E+00  3.8000415364155E-01  8.8822910100197E-01
57  5.6000000000000E-01  1.4240168928915E+00  4.7315523766566E-01  9.0997135802817E-01
58  5.7000000000000E-01  1.3928058004549E+00  5.6768754838178E-01  9.1808812295139E-01
59  5.8000000000000E-01  1.3601642538317E+00  6.6380117785578E-01  9.1129447373197E-01
60  5.9000000000000E-01  1.3262808087124E+00  7.6158291024212E-01  8.8864017423524E-01
61  6.0000000000000E-01  1.2913347270793E+00  8.6097308006822E-01  8.4957744812541E-01
62  6.1000000000000E-01  1.2554936179556E+00  9.6173744558154E-01  7.9401772664282E-01
63  6.2000000000000E-01  1.2189114903711E+00  1.0634454982805E+00  7.2237460691567E-01
64  6.3000000000000E-01  1.1817272810014E+00  1.1654564176777E+00  6.3559068538252E-01
65  6.4000000000000E-01  1.1440639041402E+00  1.2669136166309E+00  5.3514645964290E-01
66  6.5000000000000E-01  1.1060278547786E+00  1.3667485160465E+00  4.2305010415657E-01
67  6.6000000000000E-01  1.0677093771475E+00  1.4636938489642E+00  3.0180759981432E-01
68  6.7000000000000E-01  1.0291831917632E+00  1.5563064349088E+00  1.7437341094688E-01
69  6.8000000000000E-01  9.9050975448104E-01  1.6429989988498E+00  4.4082630342436E-02
70  6.9000000000000E-01  9.5173700200888E-01  1.7220802485975E+00 -8.5433773206658E-02
71  7.0000000000000E-01  9.1290252045394E-01  1.7918020834103E+00 -2.1034829588040E-01
72  7.1000000000000E-01  8.7403605745952E-01  1.8504124980775E+00 -3.2674791024767E-01
73  7.2000000000000E-01  8.3516228493565E-01  1.8962124828141E+00 -4.3075330887587E-01
74  7.3000000000000E-01  7.9630370885773E-01  1.9276150107285E+00 -5.1864253187699E-01
75  7.4000000000000E-01  7.5748361554079E-01  1.9432040602925E+00 -5.8697484772712E-01
76  7.5000000000000E-01  7.1872894052999E-01  1.9417915469494E+00 -6.3271061518995E-01
77  7.6000000000000E-01  6.8007294698523E-01  1.9224700400853E+00 -6.5332286203633E-01
78  7.7000000000000E-01  6.4155760524220E-01  1.8846592207487E+00 -6.4689647668877E-01
79  7.8000000000000E-01  6.0323557402800E-01  1.8281441907115E+00 -6.1221121980228E-01
80  7.9000000000000E-01  5.6517169636870E-01  1.7531039708892E+00 -5.4880521641624E-01
81  8.0000000000000E-01  5.2744393918802E-01  1.6601288202768E+00 -4.5701617276334E-01
82  8.1000000000000E-01  4.9014372446469E-01  1.5502253564177E+00 -3.3799825720891E-01
83  8.2000000000000E-01  4.5337562098220E-01  1.4248088537287E+00 -1.9371336978903E-01
84  8.3000000000000E-01  4.1725638846430E-01  1.2856825236752E+00 -2.6896373508451E-02
85  8.4000000000000E-01  3.8191338946345E-01  1.1350040262117E+00  1.5900525595822E-01
86  8.5000000000000E-01  3.4748240793351E-01  9.7523990958685E-01  3.5991601787393E-01
87  8.6000000000000E-01  3.1410493612867E-01  8.0910910959803E-01  5.7123900677128E-01
88  8.7000000000000E-01  2.8192501249717E-01  6.3951704389095E-01  7.8798155915738E-01
89  8.8000000000000E-01  2.5108571178950E-01  4.6948219684718E-01  1.0048962067460E+00
90  8.9000000000000E-01  2.2172540395722E-01  3.0205739218704E-01  1.2166326183738E+00
91  9.0000000000000E-01  1.9397390995814E-01  1.4024818162223E-01  1.4178957539230E+00
92  9.1000000000000E-01  1.6794868980646E-01 -1.3069071032357E-02  1.6036051530935E+00
93  9.2000000000000E-01  1.4375120075525E-01 -1.5522676702031E-01  1.7690501536562E+00
94  9.3000000000000E-01  1.2146356117449E-01 -2.8384069531785E-01  1.9100358859865E+00
95  9.4000000000000E-01  1.0114564846099E-01 -3.9687720487298E-01  2.0230151249921E+00
96  9.5000000000000E-01  8.2832747331436E-02 -4.9271064026194E-01  2.1052014923572E+00
97  9.6000000000000E-01  6.6533848419185E-02 -5.7016904889392E-01  2.1546600803726E+00
98  9.7000000000000E-01  5.2230676709965E-02 -6.2856653778128E-01  2.1703722959270E+00
99  9.8000000000000E-01  3.9877505625301E-02 -6.6772109215153E-01  2.1522725772742E+00
100  9.9000000000000E-01  2.9401786275221E-02 -6.8795715243141E-01  2.1012555885390E+00
101  1.0000000000000E+00  2.0705593405596E-02 -6.9009276459345E-01  2.0191535164103E+00
102  1.0100000000000E+00  1.3667860834025E-02 -6.7541165340113E-01  1.9086841443211E+00