Lr    ONCVPSP-4.0.1  r_core=   1.10451   1.15174   1.15174   1.20099
103.0000     43.0000      231012    zatom,zion,pspd
8   -1012   3     4   600     0    pspcod,pspxc,lmax,lloc,mmax,r2well
5.99000000  4.12600000  0.00000000    rchrg fchrg qchrg
3     2     2     2     0    nproj
1     1           extension_switch
0                         1.2573531268124E+01 -7.6874664015434E+00 -1.7367216572545E+00
1  0.0000000000000E+00  8.5318054399153E-08  1.3862022196776E-08 -1.2055816625001E-06
2  1.0000000000000E-02  1.5427276652171E-01  4.2246958288696E-02  2.0837227896016E-01
3  2.0000000000000E-02  3.0769369368609E-01  8.4584653999918E-02  4.1052100897024E-01
4  3.0000000000000E-02  4.5940644469119E-01  1.2710048930329E-01  6.0044169555685E-01
5  4.0000000000000E-02  6.0854619842569E-01  1.6987530041926E-01  7.7255955002137E-01
6  5.0000000000000E-02  7.5423666000444E-01  2.1298033220189E-01  9.2192366897252E-01
7  6.0000000000000E-02  8.9558850900193E-01  2.5647451120539E-01  1.0443773290757E+00
8  7.0000000000000E-02  1.0316996583477E+00  3.0040209953499E-01  1.1366979338810E+00
9  8.0000000000000E-02  1.1616576115294E+00  3.4479079792068E-01  1.1967013551745E+00
10  9.0000000000000E-02  1.2845441060320E+00  3.8965035017689E-01  1.2233068236295E+00
11  1.0000000000000E-01  1.3994421210149E+00  4.3497168316137E-01  1.2165600853412E+00
12  1.1000000000000E-01  1.5054452117316E+00  4.8072659722538E-01  1.1776141889017E+00
13  1.2000000000000E-01  1.6016690169941E+00  5.2686800270042E-01  1.1086689354304E+00
14  1.3000000000000E-01  1.6872646740042E+00  5.7333067894553E-01  1.0128716442802E+00
15  1.4000000000000E-01  1.7614337718784E+00  6.2003251461393E-01  8.9418339494906E-01
16  1.5000000000000E-01  1.8234443855812E+00  6.6687617176883E-01  7.5721624087249E-01
17  1.6000000000000E-01  1.8726476596423E+00  7.1375110288627E-01  6.0704800027042E-01
18  1.7000000000000E-01  1.9084943591301E+00  7.6053583912812E-01  4.4902206954200E-01
19  1.8000000000000E-01  1.9305507762581E+00  8.0710046092908E-01  2.8854024339224E-01
20  1.9000000000000E-01  1.9385133761376E+00  8.5330915816119E-01  1.3085674289999E-01
21  2.0000000000000E-01  1.9322215850354E+00  8.9902278701690E-01 -1.9118458801287E-02
22  2.1000000000000E-01  1.9116681684968E+00  9.4410133423889E-01 -1.5699935720872E-01
23  2.2000000000000E-01  1.8770067133643E+00  9.8840620623141E-01 -2.7907976381869E-01
24  2.3000000000000E-01  1.8285558146205E+00  1.0318022705862E+00 -3.8245936794539E-01
25  2.4000000000000E-01  1.7667996719055E+00  1.0741595902023E+00 -4.6513533702924E-01
26  2.5000000000000E-01  1.6923849175595E+00  1.1153548049242E+00 -5.2605619334359E-01
27  2.6000000000000E-01  1.6061136237160E+00  1.1552721318455E+00 -5.6513623843324E-01
28  2.7000000000000E-01  1.5089325655038E+00  1.1938039724472E+00 -5.8323038723859E-01
29  2.8000000000000E-01  1.4019189458944E+00  1.2308511318612E+00 -5.8207085746657E-01
30  2.9000000000000E-01  1.2862629102360E+00  1.2663226720822E+00 -5.6416867302887E-01
31  3.0000000000000E-01  1.1632472903879E+00  1.3001354362198E+00 -5.3268432328497E-01
32  3.1000000000000E-01  1.0342251153634E+00  1.3322132943031E+00 -4.9127311823226E-01
33  3.2000000000000E-01  9.0059550381988E-01  1.3624861721846E+00 -4.4391174737497E-01
34  3.3000000000000E-01  7.6377861067185E-01  1.3908889333340E+00 -3.9471325023575E-01
35  3.4000000000000E-01  6.2519033341180E-01  1.4173601884618E+00 -3.4773801382441E-01
36  3.5000000000000E-01  4.8621749220296E-01  1.4418411097971E+00 -3.0680851333834E-01
37  3.6000000000000E-01  3.4819418119771E-01  1.4642743254284E+00 -2.7533530582447E-01
38  3.7000000000000E-01  2.1237994752338E-01  1.4846029644987E+00 -2.5616128361151E-01
39  3.8000000000000E-01  7.9940390575835E-02  1.5027699164479E+00 -2.5143041789841E-01
40  3.9000000000000E-01 -4.8069309872905E-02  1.5187173572643E+00 -2.6248620642176E-01
41  4.0000000000000E-01 -1.7071752950914E-01  1.5323865832802E+00 -2.8980382526067E-01
42  4.1000000000000E-01 -2.8720570658252E-01  1.5437181789565E+00 -3.3295862351992E-01
43  4.2000000000000E-01 -3.9687405120674E-01  1.5526525299290E+00 -3.9063214605623E-01
44  4.3000000000000E-01 -4.9920341582188E-01  1.5591306769602E+00 -4.6065538174233E-01
45  4.4000000000000E-01 -5.9381341357243E-01  1.5630954909896E+00 -5.4008747173409E-01
46  4.5000000000000E-01 -6.8045699424844E-01  1.5644931348126E+00 -6.2532673087855E-01
47  4.6000000000000E-01 -7.5901180103688E-01  1.5632747636392E+00 -7.1224958878859E-01
48  4.7000000000000E-01 -8.2946873162801E-01  1.5593984053854E+00 -7.9637199229247E-01
49  4.8000000000000E-01 -8.9191821075796E-01  1.5528309524901E+00 -8.7302696718659E-01
50  4.9000000000000E-01 -9.4653474524814E-01  1.5435501906574E+00 -9.3755144456005E-01
51  5.0000000000000E-01 -9.9356037499000E-01  1.5315467864317E+00 -9.8547513525685E-01
52  5.1000000000000E-01 -1.0332876529117E+00  1.5168261550418E+00 -1.0127041943004E+00
53  5.2000000000000E-01 -1.0660427834016E+00  1.4994101324978E+00 -1.0156926533156E+00
54  5.3000000000000E-01 -1.0921695224580E+00  1.4793383813610E+00 -9.9159510043231E-01
55  5.4000000000000E-01 -1.1120143953186E+00  1.4566694677275E+00 -9.3839483104700E-01
56  5.5000000000000E-01 -1.1259137205894E+00  1.4314815574153E+00 -8.5500264744101E-01
57  5.6000000000000E-01 -1.1341828467035E+00  1.4038726917354E+00 -7.4132261129113E-01
58  5.7000000000000E-01 -1.1371079102217E+00  1.3739606170677E+00 -5.9828230538215E-01
59  5.8000000000000E-01 -1.1349403197783E+00  1.3418821572259E+00 -4.2782649012432E-01
60  5.9000000000000E-01 -1.1278940584099E+00  1.3077921327441E+00 -2.3287439554410E-01
61  6.0000000000000E-01 -1.1161457847294E+00  1.2718618461724E+00 -1.7242218972138E-02
62  6.1000000000000E-01 -1.0998376040439E+00  1.2342771667099E+00  2.1446634660460E-01
63  6.2000000000000E-01 -1.0790822780228E+00  1.1952362605165E+00  4.5699759418448E-01
64  6.3000000000000E-01 -1.0539705495094E+00  1.1549470243820E+00  7.0460836108235E-01
65  6.4000000000000E-01 -1.0245801807412E+00  1.1136242897137E+00  9.5124395030403E-01
66  6.5000000000000E-01 -9.9098624122110E-01  1.0714868707433E+00  1.1907271398649E+00
67  6.6000000000000E-01 -9.5327213777410E-01  1.0287545352336E+00  1.4169516788814E+00
68  6.7000000000000E-01 -9.1154085523325E-01  9.8564497769082E-01  1.6240735859739E+00
69  6.8000000000000E-01 -8.6592587231168E-01  9.4237087414688E-01  1.8066937232044E+00
70  6.9000000000000E-01 -8.1660123338205E-01  8.9913709405070E-01  1.9600255067533E+00
71  7.0000000000000E-01 -7.6379029224178E-01  8.5613813888813E-01  2.0800422149573E+00
72  7.1000000000000E-01 -7.0777269696215E-01  8.1355586908352E-01  2.1635991388981E+00
73  7.2000000000000E-01 -6.4888925348375E-01  7.7155757085943E-01  2.2085267582707E+00
74  7.3000000000000E-01 -5.8754438708773E-01  7.3029440342249E-01  2.2136921786169E+00
75  7.4000000000000E-01 -5.2420601220266E-01  6.8990025452832E-01  2.1790271950062E+00
76  7.5000000000000E-01 -4.5940271886817E-01  6.5049101959879E-01  2.1055225100620E+00
77  7.6000000000000E-01 -3.9371828505326E-01  6.1216430657400E-01  1.9951887888643E+00
78  7.7000000000000E-01 -3.2778362436795E-01  5.7499955601661E-01  1.8509863394237E+00
79  7.8000000000000E-01 -2.6226637503833E-01  5.3905855406179E-01  1.6767262276972E+00
80  7.9000000000000E-01 -1.9785842503248E-01  5.0438630499621E-01  1.4769465371491E+00
81  8.0000000000000E-01 -1.3526174694910E-01  4.7101222087484E-01  1.2567682367572E+00
82  8.1000000000000E-01 -7.5172982103974E-02  4.3895157790621E-01  1.0217357061445E+00
83  8.2000000000000E-01 -1.8267264037154E-02  4.0820718354834E-01  7.7764736684139E-01
84  8.3000000000000E-01  3.4818194189464E-02  3.7877119447984E-01  5.3038207612772E-01
85  8.4000000000000E-01  8.3500208072270E-02  3.5062702389342E-01  2.8572695291308E-01
86  8.5000000000000E-01  1.2726488596629E-01  3.2375127687996E-01  4.9212128787978E-02
87  8.6000000000000E-01  1.6568153012683E-01  2.9811565494253E-01 -1.7404243699192E-01
88  8.7000000000000E-01  1.9841469199391E-01  2.7368877475203E-01 -3.7946345550355E-01
89  8.8000000000000E-01  2.2523395226688E-01  2.5043785192998E-01 -5.6314015161066E-01
90  8.9000000000000E-01  2.4602106371292E-01  2.2833020767569E-01 -7.2191625576263E-01
91  9.0000000000000E-01  2.6077417426762E-01  2.0733456417092E-01 -8.5345580462402E-01
92  9.1000000000000E-01  2.6960893733312E-01  1.8742210359881E-01 -9.5628132649948E-01
93  9.2000000000000E-01  2.7275641254749E-01  1.6856727500247E-01 -1.0297839314104E+00
94  9.3000000000000E-01  2.7055776075952E-01  1.5074834277639E-01 -1.0742057686230E+00
95  9.4000000000000E-01  2.6345583852876E-01  1.3394768003968E-01 -1.0905962289229E+00
96  9.5000000000000E-01  2.5198389719548E-01  1.1815181920937E-01 -1.0807441295199E+00
97  9.6000000000000E-01  2.3675168655633E-01  1.0335128053047E-01 -1.0470889037476E+00
98  9.7000000000000E-01  2.1842935069689E-01  8.9540206909690E-02 -9.9261450644865E-01
99  9.8000000000000E-01  1.9772958116674E-01  7.6715839971256E-02 -9.2073032428113E-01
100  9.9000000000000E-01  1.7538855820783E-01  6.4877877661889E-02 -8.3514383629635E-01
101  1.0000000000000E+00  1.5214626241222E-01  5.4027757885810E-02 -7.3973009700656E-01
102  1.0100000000000E+00  1.2872677557144E-01  4.4167915489915E-02 -6.3840330822853E-01
103  1.0200000000000E+00  1.0581920964835E-01  3.5301061427440E-02 -5.3499580740331E-01
104  1.0300000000000E+00  8.4059904512263E-02  2.7429534640070E-02 -4.3314962758006E-01
105  1.0400000000000E+00  6.4016536677660E-02  2.0554762365059E-02 -3.3622655542027E-01
106  1.0500000000000E+00  4.6174813767612E-02  1.4676802003684E-02 -2.4724760450890E-01
107  1.0600000000000E+00  3.0934777315268E-02  9.7881888606393E-03 -1.6921334930554E-01
108  1.0700000000000E+00  1.8591889926180E-02  5.8849761612245E-03 -1.0426572689345E-01
109  1.0800000000000E+00  9.3315934993606E-03  2.9689062962243E-03 -5.3857150537634E-02
110  1.0900000000000E+00  3.2405634939330E-03  1.0410158478449E-03 -1.9326257788944E-02
111  1.1000000000000E+00  3.2974480097703E-04  1.0745231747638E-04 -2.0420381709493E-03
112  1.1100000000000E+00 -1.1741402889575E-05 -3.8633130414292E-06  7.4614132842406E-05
113  1.1200000000000E+00 -1.5727521162554E-06 -5.1053555434316E-07  9.6625883085864E-06
114  1.13  0. -0. -0.
115  1.14  0.  0.  0.
116  1.15  0.  0.  0.
117  1.16  0.  0.  0.
118  1.17  0.  0.  0.
119  1.18  0.  0.  0.
120  1.19  0.  0.  0.
121  1.20  0.  0.  0.
122  1.21  0.  0.  0.
123  1.22  0.  0.  0.
124  1.23  0.  0.  0.
125  1.24  0.  0.  0.
126  1.25  0.  0.  0.
127  1.26  0.  0.  0.
128  1.27  0.  0.  0.
129  1.28  0.  0.  0.
130  1.29  0.  0.  0.
131  1.30  0.  0.  0.
132  1.31  0.  0.  0.
133  1.32  0.  0.  0.
134  1.33  0.  0.  0.
135  1.34  0.  0.  0.
136  1.35  0.  0.  0.
137  1.36  0.  0.  0.
138  1.37  0.  0.  0.
139  1.38  0.  0.  0.
140  1.39  0.  0.  0.
141  1.40  0.  0.  0.
142  1.41  0.  0.  0.
143  1.42  0.  0.  0.
144  1.43  0.  0.  0.
145  1.44  0.  0.  0.
146  1.45  0.  0.  0.
147  1.46  0.  0.  0.
148  1.47  0.  0.  0.
149  1.48  0.  0.  0.
150  1.49  0.  0.  0.
151  1.50  0.  0.  0.
152  1.51  0.  0.  0.
153  1.52  0.  0.  0.
154  1.53  0.  0.  0.
155  1.54  0.  0.  0.
156  1.55  0.  0.  0.
157  1.56  0.  0.  0.
158  1.57  0.  0.  0.
159  1.58  0.  0.  0.
160  1.59  0.  0.  0.
161  1.60  0.  0.  0.
162  1.61  0.  0.  0.
163  1.62  0.  0.  0.
164  1.63  0.  0.  0.
165  1.64  0.  0.  0.
166  1.65  0.  0.  0.
167  1.66  0.  0.  0.
168  1.67  0.  0.  0.
169  1.68  0.  0.  0.
170  1.69  0.  0.  0.
171  1.70  0.  0.  0.
172  1.71  0.  0.  0.
173  1.72  0.  0.  0.
174  1.73  0.  0.  0.
175  1.74  0.  0.  0.
176  1.75  0.  0.  0.
177  1.76  0.  0.  0.
178  1.77  0.  0.  0.
179  1.78  0.  0.  0.
180  1.79  0.  0.  0.
181  1.80  0.  0.  0.
182  1.81  0.  0.  0.
183  1.82  0.  0.  0.
184  1.83  0.  0.  0.
185  1.84  0.  0.  0.
186  1.85  0.  0.  0.
187  1.86  0.  0.  0.
188  1.87  0.  0.  0.
189  1.88  0.  0.  0.
190  1.89  0.  0.  0.
191  1.90  0.  0.  0.
192  1.91  0.  0.  0.
193  1.92  0.  0.  0.
194  1.93  0.  0.  0.
195  1.94  0.  0.  0.
196  1.95  0.  0.  0.
197  1.96  0.  0.  0.
198  1.97  0.  0.  0.
199  1.98  0.  0.  0.
200  1.99  0.  0.  0.
201  2.00  0.  0.  0.
202  2.01  0.  0.  0.
203  2.02  0.  0.  0.
204  2.03  0.  0.  0.
205  2.04  0.  0.  0.
206  2.05  0.  0.  0.
207  2.06  0.  0.  0.
208  2.07  0.  0.  0.
209  2.08  0.  0.  0.
210  2.09  0.  0.  0.
211  2.10  0.  0.  0.
212  2.11  0.  0.  0.
213  2.12  0.  0.  0.
214  2.13  0.  0.  0.
215  2.14  0.  0.  0.
216  2.15  0.  0.  0.
217  2.16  0.  0.  0.
218  2.17  0.  0.  0.
219  2.18  0.  0.  0.
220  2.19  0.  0.  0.
221  2.20  0.  0.  0.
222  2.21  0.  0.  0.
223  2.22  0.  0.  0.
224  2.23  0.  0.  0.
225  2.24  0.  0.  0.
226  2.25  0.  0.  0.
227  2.26  0.  0.  0.
228  2.27  0.  0.  0.
229  2.28  0.  0.  0.
230  2.29  0.  0.  0.
231  2.30  0.  0.  0.
232  2.31  0.  0.  0.
233  2.32  0.  0.  0.
234  2.33  0.  0.  0.
235  2.34  0.  0.  0.
236  2.35  0.  0.  0.
237  2.36  0.  0.  0.
238  2.37  0.  0.  0.
239  2.38  0.  0.  0.
240  2.39  0.  0.  0.
241  2.40  0.  0.  0.
242  2.41  0.  0.  0.
243  2.42  0.  0.  0.
244  2.43  0.  0.  0.
245  2.44  0.  0.  0.
246  2.45  0.  0.  0.
247  2.46  0.  0.  0.
248  2.47  0.  0.  0.
249  2.48  0.  0.  0.
250  2.49  0.  0.  0.
251  2.50  0.  0.  0.
252  2.51  0.  0.  0.
253  2.52  0.  0.  0.
254  2.53  0.  0.  0.
255  2.54  0.  0.  0.
256  2.55  0.  0.  0.
257  2.56  0.  0.  0.
258  2.57  0.  0.  0.
259  2.58  0.  0.  0.
260  2.59  0.  0.  0.
261  2.60  0.  0.  0.
262  2.61  0.  0.  0.
263  2.62  0.  0.  0.
264  2.63  0.  0.  0.
265  2.64  0.  0.  0.
266  2.65  0.  0.  0.
267  2.66  0.  0.  0.
268  2.67  0.  0.  0.
269  2.68  0.  0.  0.
270  2.69  0.  0.  0.
271  2.70  0.  0.  0.
272  2.71  0.  0.  0.
273  2.72  0.  0.  0.
274  2.73  0.  0.  0.
275  2.74  0.  0.  0.
276  2.75  0.  0.  0.
277  2.76  0.  0.  0.
278  2.77  0.  0.  0.
279  2.78  0.  0.  0.
280  2.79  0.  0.  0.
281  2.80  0.  0.  0.
282  2.81  0.  0.  0.
283  2.82  0.  0.  0.
284  2.83  0.  0.  0.
285  2.84  0.  0.  0.
286  2.85  0.  0.  0.
287  2.86  0.  0.  0.
288  2.87  0.  0.  0.
289  2.88  0.  0.  0.
290  2.89  0.  0.  0.
291  2.90  0.  0.  0.
292  2.91  0.  0.  0.
293  2.92  0.  0.  0.
294  2.93  0.  0.  0.
295  2.94  0.  0.  0.
296  2.95  0.  0.  0.
297  2.96  0.  0.  0.
298  2.97  0.  0.  0.
299  2.98  0.  0.  0.
300  2.99  0.  0.  0.
301  3.00  0.  0.  0.
302  3.01  0.  0.  0.
303  3.02  0.  0.  0.
304  3.03  0.  0.  0.
305  3.04  0.  0.  0.
306  3.05  0.  0.  0.
307  3.06  0.  0.  0.
308  3.07  0.  0.  0.
309  3.08  0.  0.  0.
310  3.09  0.  0.  0.
311  3.10  0.  0.  0.
312  3.11  0.  0.  0.
313  3.12  0.  0.  0.
314  3.13  0.  0.  0.
315  3.14  0.  0.  0.
316  3.15  0.  0.  0.
317  3.16  0.  0.  0.
318  3.17  0.  0.  0.
319  3.18  0.  0.  0.
320  3.19  0.  0.  0.
321  3.20  0.  0.  0.
322  3.21  0.  0.  0.
323  3.22  0.  0.  0.
324  3.23  0.  0.  0.
325  3.24  0.  0.  0.
326  3.25  0.  0.  0.
327  3.26  0.  0.  0.
328  3.27  0.  0.  0.
329  3.28  0.  0.  0.
330  3.29  0.  0.  0.
331  3.30  0.  0.  0.
332  3.31  0.  0.  0.
333  3.32  0.  0.  0.
334  3.33  0.  0.  0.
335  3.34  0.  0.  0.
336  3.35  0.  0.  0.
337  3.36  0.  0.  0.
338  3.37  0.  0.  0.
339  3.38  0.  0.  0.
340  3.39  0.  0.  0.
341  3.40  0.  0.  0.
342  3.41  0.  0.  0.
343  3.42  0.  0.  0.
344  3.43  0.  0.  0.
345  3.44  0.  0.  0.
346  3.45  0.  0.  0.
347  3.46  0.  0.  0.
348  3.47  0.  0.  0.
349  3.48  0.  0.  0.
350  3.49  0.  0.  0.
351  3.50  0.  0.  0.
352  3.51  0.  0.  0.
353  3.52  0.  0.  0.
354  3.53  0.  0.  0.
355  3.54  0.  0.  0.
356  3.55  0.  0.  0.
357  3.56  0.  0.  0.
358  3.57  0.  0.  0.
359  3.58  0.  0.  0.
360  3.59  0.  0.  0.
361  3.60  0.  0.  0.
362  3.61  0.  0.  0.
363  3.62  0.  0.  0.
364  3.63  0.  0.  0.
365  3.64  0.  0.  0.
366  3.65  0.  0.  0.
367  3.66  0.  0.  0.
368  3.67  0.  0.  0.
369  3.68  0.  0.  0.
370  3.69  0.  0.  0.
371  3.70  0.  0.  0.
372  3.71  0.  0.  0.
373  3.72  0.  0.  0.
374  3.73  0.  0.  0.
375  3.74  0.  0.  0.
376  3.75  0.  0.  0.
377  3.76  0.  0.  0.
378  3.77  0.  0.  0.
379  3.78  0.  0.  0.
380  3.79  0.  0.  0.
381  3.80  0.  0.  0.
382  3.81  0.  0.  0.
383  3.82  0.  0.  0.
384  3.83  0.  0.  0.
385  3.84  0.  0.  0.
386  3.85  0.  0.  0.
387  3.86  0.  0.  0.
388  3.87  0.  0.  0.
389  3.88  0.  0.  0.
390  3.89  0.  0.  0.
391  3.90  0.  0.  0.
392  3.91  0.  0.  0.
393  3.92  0.  0.  0.
394  3.93  0.  0.  0.
395  3.94  0.  0.  0.
396  3.95  0.  0.  0.
397  3.96  0.  0.  0.
398  3.97  0.  0.  0.
399  3.98  0.  0.  0.
400  3.99  0.  0.  0.
401  4.00  0.  0.  0.
402  4.01  0.  0.  0.
403  4.02  0.  0.  0.
404  4.03  0.  0.  0.
405  4.04  0.  0.  0.
406  4.05  0.  0.  0.
407  4.06  0.  0.  0.
408  4.07  0.  0.  0.
409  4.08  0.  0.  0.
410  4.09  0.  0.  0.
411  4.10  0.  0.  0.
412  4.11  0.  0.  0.
413  4.12  0.  0.  0.
414  4.13  0.  0.  0.
415  4.14  0.  0.  0.
416  4.15  0.  0.  0.
417  4.16  0.  0.  0.
418  4.17  0.  0.  0.
419  4.18  0.  0.  0.
420  4.19  0.  0.  0.
421  4.20  0.  0.  0.
422  4.21  0.  0.  0.
423  4.22  0.  0.  0.
424  4.23  0.  0.  0.
425  4.24  0.  0.  0.
426  4.25  0.  0.  0.
427  4.26  0.  0.  0.
428  4.27  0.  0.  0.
429  4.28  0.  0.  0.
430  4.29  0.  0.  0.
431  4.30  0.  0.  0.
432  4.31  0.  0.  0.
433  4.32  0.  0.  0.
434  4.33  0.  0.  0.
435  4.34  0.  0.  0.
436  4.35  0.  0.  0.
437  4.36  0.  0.  0.
438  4.37  0.  0.  0.
439  4.38  0.  0.  0.
440  4.39  0.  0.  0.
441  4.40  0.  0.  0.
442  4.41  0.  0.  0.
443  4.42  0.  0.  0.
444  4.43  0.  0.  0.
445  4.44  0.  0.  0.
446  4.45  0.  0.  0.
447  4.46  0.  0.  0.
448  4.47  0.  0.  0.
449  4.48  0.  0.  0.
450  4.49  0.  0.  0.
451  4.50  0.  0.  0.
452  4.51  0.  0.  0.
453  4.52  0.  0.  0.
454  4.53  0.  0.  0.
455  4.54  0.  0.  0.
456  4.55  0.  0.  0.
457  4.56  0.  0.  0.
458  4.57  0.  0.  0.
459  4.58  0.  0.  0.
460  4.59  0.  0.  0.
461  4.60  0.  0.  0.
462  4.61  0.  0.  0.
463  4.62  0.  0.  0.
464  4.63  0.  0.  0.
465  4.64  0.  0.  0.
466  4.65  0.  0.  0.
467  4.66  0.  0.  0.
468  4.67  0.  0.  0.
469  4.68  0.  0.  0.
470  4.69  0.  0.  0.
471  4.70  0.  0.  0.
472  4.71  0.  0.  0.
473  4.72  0.  0.  0.
474  4.73  0.  0.  0.
475  4.74  0.  0.  0.
476  4.75  0.  0.  0.
477  4.76  0.  0.  0.
478  4.77  0.  0.  0.
479  4.78  0.  0.  0.
480  4.79  0.  0.  0.
481  4.80  0.  0.  0.
482  4.81  0.  0.  0.
483  4.82  0.  0.  0.
484  4.83  0.  0.  0.
485  4.84  0.  0.  0.
486  4.85  0.  0.  0.
487  4.86  0.  0.  0.
488  4.87  0.  0.  0.
489  4.88  0.  0.  0.
490  4.89  0.  0.  0.
491  4.90  0.  0.  0.
492  4.91  0.  0.  0.
493  4.92  0.  0.  0.
494  4.93  0.  0.  0.
495  4.94  0.  0.  0.
496  4.95  0.  0.  0.
497  4.96  0.  0.  0.
498  4.97  0.  0.  0.
499  4.98  0.  0.  0.
500  4.99  0.  0.  0.
501  5.00  0.  0.  0.
502  5.01  0.  0.  0.
503  5.02  0.  0.  0.
504  5.03  0.  0.  0.
505  5.04  0.  0.  0.
506  5.05  0.  0.  0.
507  5.06  0.  0.  0.
508  5.07  0.  0.  0.
509  5.08  0.  0.  0.
510  5.09  0.  0.  0.
511  5.10  0.  0.  0.
512  5.11  0.  0.  0.
513  5.12  0.  0.  0.
514  5.13  0.  0.  0.
515  5.14  0.  0.  0.
516  5.15  0.  0.  0.
517  5.16  0.  0.  0.
518  5.17  0.  0.  0.
519  5.18  0.  0.  0.
520  5.19  0.  0.  0.
521  5.20  0.  0.  0.
522  5.21  0.  0.  0.
523  5.22  0.  0.  0.
524  5.23  0.  0.  0.
525  5.24  0.  0.  0.
526  5.25  0.  0.  0.
527  5.26  0.  0.  0.
528  5.27  0.  0.  0.
529  5.28  0.  0.  0.
530  5.29  0.  0.  0.
531  5.30  0.  0.  0.
532  5.31  0.  0.  0.
533  5.32  0.  0.  0.
534  5.33  0.  0.  0.
535  5.34  0.  0.  0.
536  5.35  0.  0.  0.
537  5.36  0.  0.  0.
538  5.37  0.  0.  0.
539  5.38  0.  0.  0.
540  5.39  0.  0.  0.
541  5.40  0.  0.  0.
542  5.41  0.  0.  0.
543  5.42  0.  0.  0.
544  5.43  0.  0.  0.
545  5.44  0.  0.  0.
546  5.45  0.  0.  0.
547  5.46  0.  0.  0.
548  5.47  0.  0.  0.
549  5.48  0.  0.  0.
550  5.49  0.  0.  0.
551  5.50  0.  0.  0.
552  5.51  0.  0.  0.
553  5.52  0.  0.  0.
554  5.53  0.  0.  0.
555  5.54  0.  0.  0.
556  5.55  0.  0.  0.
557  5.56  0.  0.  0.
558  5.57  0.  0.  0.
559  5.58  0.  0.  0.
560  5.59  0.  0.  0.
561  5.60  0.  0.  0.
562  5.61  0.  0.  0.
563  5.62  0.  0.  0.
564  5.63  0.  0.  0.
565  5.64  0.  0.  0.
566  5.65  0.  0.  0.
567  5.66  0.  0.  0.
568  5.67  0.  0.  0.
569  5.68  0.  0.  0.
570  5.69  0.  0.  0.
571  5.70  0.  0.  0.
572  5.71  0.  0.  0.
573  5.72  0.  0.  0.
574  5.73  0.  0.  0.
575  5.74  0.  0.  0.
576  5.75  0.  0.  0.
577  5.76  0.  0.  0.
578  5.77  0.  0.  0.
579  5.78  0.  0.  0.
580  5.79  0.  0.  0.
581  5.80  0.  0.  0.
582  5.81  0.  0.  0.
583  5.82  0.  0.  0.
584  5.83  0.  0.  0.
585  5.84  0.  0.  0.
586  5.85  0.  0.  0.
587  5.86  0.  0.  0.
588  5.87  0.  0.  0.
589  5.88  0.  0.  0.
590  5.89  0.  0.  0.
591  5.90  0.  0.  0.
592  5.91  0.  0.  0.
593  5.92  0.  0.  0.
594  5.93  0.  0.  0.
595  5.94  0.  0.  0.
596  5.95  0.  0.  0.
597  5.96  0.  0.  0.
598  5.97  0.  0.  0.
599  5.98  0.  0.  0.
600  5.99  0.  0.  0.
1                        -6.7885867482473E+00  2.2697622976370E+00
1  0.0000000000000E+00  1.4104982765106E-08  2.0501894340552E-07
2  1.0000000000000E-02  2.3023166286117E-03 -4.1421534339543E-04
3  2.0000000000000E-02  9.1904493851841E-03 -1.7282656139756E-03
4  3.0000000000000E-02  2.0608272312545E-02 -4.1527868039293E-03
5  4.0000000000000E-02  3.6463317159009E-02 -8.0270632077440E-03
6  5.0000000000000E-02  5.6628352094252E-02 -1.3801871653555E-02
7  6.0000000000000E-02  8.0943525576690E-02 -2.2016458285356E-02
8  7.0000000000000E-02  1.0921901193839E-01 -3.3270595318105E-02
9  8.0000000000000E-02  1.4123808114854E-01 -4.8192870206720E-02
10  9.0000000000000E-02  1.7676050391333E-01 -6.7406519000052E-02
11  1.0000000000000E-01  2.1552619516364E-01 -9.1494222935483E-02
12  1.1000000000000E-01  2.5725899434805E-01 -1.2096333824616E-01
13  1.2000000000000E-01  3.0167047992725E-01 -1.5621302159341E-01
14  1.3000000000000E-01  3.4846371806325E-01 -1.9750464768760E-01
15  1.4000000000000E-01  3.9733685157941E-01 -2.4493679399366E-01
16  1.5000000000000E-01  4.4798644457022E-01 -2.9842589460524E-01
17  1.6000000000000E-01  5.0011051017917E-01 -3.5769344809290E-01
18  1.7000000000000E-01  5.5341116354449E-01 -4.2226041082711E-01
19  1.8000000000000E-01  6.0759685816037E-01 -4.9144912780917E-01
20  1.9000000000000E-01  6.6238418127074E-01 -5.6439285832276E-01
21  2.0000000000000E-01  7.1749920172273E-01 -6.4005265527462E-01
22  2.1000000000000E-01  7.7267838126324E-01 -7.1724106662799E-01
23  2.2000000000000E-01  8.2766907688361E-01 -7.9465185626500E-01
24  2.3000000000000E-01  8.8222967686509E-01 -8.7089470063640E-01
25  2.4000000000000E-01  9.3612942607648E-01 -9.4453361621750E-01
26  2.5000000000000E-01  9.8914800633874E-01 -1.0141277191159E+00
27  2.6000000000000E-01  1.0410749449174E+00 -1.0782728183712E+00
28  2.7000000000000E-01  1.0917089281730E+00 -1.1356423026711E+00
29  2.8000000000000E-01  1.1408570979633E+00 -1.1850257982612E+00
30  2.9000000000000E-01  1.1883344055509E+00 -1.2253641533181E+00
31  3.0000000000000E-01  1.2339630916749E+00 -1.2557794382315E+00
32  3.1000000000000E-01  1.2775723523565E+00 -1.2755988371534E+00
33  3.2000000000000E-01  1.3189982383202E+00 -1.2843715368359E+00
34  3.3000000000000E-01  1.3580838221220E+00 -1.2818779854537E+00
35  3.4000000000000E-01  1.3946796517469E+00 -1.2681311866049E+00
36  3.5000000000000E-01  1.4286444932306E+00 -1.2433700007921E+00
37  3.6000000000000E-01  1.4598463484284E+00 -1.2080447365414E+00
38  3.7000000000000E-01  1.4881637181035E+00 -1.1627956139066E+00
39  3.8000000000000E-01  1.5134870657016E+00 -1.1084249626973E+00
40  3.9000000000000E-01  1.5357204241431E+00 -1.0458642653617E+00
41  4.0000000000000E-01  1.5547830772713E+00 -9.7613736021680E-01
42  4.1000000000000E-01  1.5706112397095E+00 -9.0032127634777E-01
43  4.2000000000000E-01  1.5831596541688E+00 -8.1950627057659E-01
44  4.3000000000000E-01  1.5924030239579E+00 -7.3475667509932E-01
45  4.4000000000000E-01  1.5983372006772E+00 -6.4707413971730E-01
46  4.5000000000000E-01  1.6009800528111E+00 -5.5736476540136E-01
47  4.6000000000000E-01  1.6003719499911E+00 -4.6641147900549E-01
48  4.7000000000000E-01  1.5965758097873E+00 -3.7485279735711E-01
49  4.8000000000000E-01  1.5896766685785E+00 -2.8316887989873E-01
50  4.9000000000000E-01  1.5797807548094E+00 -1.9167548162585E-01
51  5.0000000000000E-01  1.5670140611596E+00 -1.0052610289474E-01
52  5.1000000000000E-01  1.5515204311222E+00 -9.7223015685859E-03
53  5.2000000000000E-01  1.5334591945023E+00  8.0868201522147E-02
54  5.3000000000000E-01  1.5130024046558E+00  1.7148631788566E-01
55  5.4000000000000E-01  1.4903317471555E+00  2.6245028451525E-01
56  5.5000000000000E-01  1.4656352043329E+00  3.5411952092254E-01
57  5.6000000000000E-01  1.4391035721526E+00  4.4685514022112E-01
58  5.7000000000000E-01  1.4109269346363E+00  5.4097877438331E-01
59  5.8000000000000E-01  1.3812912061248E+00  6.3673148219400E-01
60  5.9000000000000E-01  1.3503748527867E+00  7.3423455006340E-01
61  6.0000000000000E-01  1.3183459018016E+00  8.3345396794671E-01
62  6.1000000000000E-01  1.2853593395777E+00  9.3417026491546E-01
63  6.2000000000000E-01  1.2515549893693E+00  1.0359552237933E+00
64  6.3000000000000E-01  1.2170559440552E+00  1.1381567666159E+00
65  6.4000000000000E-01  1.1819676120731E+00  1.2398930198038E+00
66  6.5000000000000E-01  1.1463774141562E+00  1.3400562393417E+00
67  6.6000000000000E-01  1.1103551462772E+00  1.4373269132731E+00
68  6.7000000000000E-01  1.0739540008325E+00  1.5301979742730E+00
69  6.8000000000000E-01  1.0372122144330E+00  1.6170086627950E+00
70  6.9000000000000E-01  1.0001552875569E+00  1.6959871957293E+00
71  7.0000000000000E-01  9.6279869962293E-01  1.7653010310464E+00
72  7.1000000000000E-01  9.2515102357702E-01  1.8231131895375E+00
73  7.2000000000000E-01  8.8721732761679E-01  1.8676428133757E+00
74  7.3000000000000E-01  8.4900273886441E-01  1.8972279193151E+00
75  7.4000000000000E-01  8.1051603519664E-01  1.9103881514000E+00
76  7.5000000000000E-01  7.7177312745448E-01  1.9058852612895E+00
77  7.6000000000000E-01  7.3280029513774E-01  1.8827790483094E+00
78  7.7000000000000E-01  6.9363704452266E-01  1.8404765778611E+00
79  7.8000000000000E-01  6.5433846882910E-01  1.7787726646717E+00
80  7.9000000000000E-01  6.1497700533542E-01  1.6978798523869E+00
81  8.0000000000000E-01  5.7564350375125E-01  1.5984464361456E+00
82  8.1000000000000E-01  5.3644754311101E-01  1.4815614503412E+00
83  8.2000000000000E-01  4.9751696020022E-01  1.3487459676181E+00
84  8.3000000000000E-01  4.5899658021723E-01  1.2019305132333E+00
85  8.4000000000000E-01  4.2104616905342E-01  1.0434188755337E+00
86  8.5000000000000E-01  3.8383765524459E-01  8.7583907185825E-01
87  8.6000000000000E-01  3.4755169727627E-01  7.0208269258579E-01
88  8.7000000000000E-01  3.1237369750581E-01  5.2523427742994E-01
89  8.8000000000000E-01  2.7848938653102E-01  3.4849276131883E-01
90  8.9000000000000E-01  2.4608012051552E-01  1.7508734757518E-01
91  9.0000000000000E-01  2.1531804801689E-01  8.1904108390372E-03
92  9.1000000000000E-01  1.8636131165023E-01 -1.4916980909703E-01
93  9.2000000000000E-01  1.5934945302265E-01 -2.9419389611893E-01
94  9.3000000000000E-01  1.3439918655459E-01 -4.2439053541792E-01
95  9.4000000000000E-01  1.1160069902696E-01 -5.3764771727689E-01
96  9.5000000000000E-01  9.1014617138619E-02 -6.3229343169057E-01
97  9.6000000000000E-01  7.2669765407565E-02 -7.0714373586020E-01
98  9.7000000000000E-01  5.6561812002476E-02 -7.6153647441291E-01
99  9.8000000000000E-01  4.2652871295974E-02 -7.9534939832266E-01
100  9.9000000000000E-01  3.0872100037839E-02 -8.0900194747641E-01
101  1.0000000000000E+00  2.1117290092286E-02 -8.0344051666648E-01
102  1.0100000000000E+00  1.3257425851064E-02 -7.8010759608087E-01
103  1.0200000000000E+00  7.1361398652665E-03 -7.4089574632206E-01
104  1.0300000000000E+00  2.5759672148482E-03 -6.8808791347697E-01
105  1.0400000000000E+00 -6.1673119001739E-04 -6.2428609269653E-01
106  1.0500000000000E+00 -2.6463327422673E-03 -5.5233079147979E-01
107  1.0600000000000E+00 -3.7221828060107E-03 -4.7521410872781E-01
108  1.0700000000000E+00 -4.0526841531078E-03 -3.9598951972430E-01
109  1.0800000000000E+00 -3.8394388814365E-03 -3.1768143142195E-01
110  1.0900000000000E+00 -3.2717527362359E-03 -2.4319958643197E-01
111  1.1000000000000E+00 -2.5164072310166E-03 -1.7516566881570E-01
112  1.1100000000000E+00 -1.7102609348669E-03 -1.1577226781820E-01
113  1.1200000000000E+00 -9.8884252520608E-04 -6.7316794979815E-02
114  1.1300000000000E+00 -4.4406900939682E-04 -3.1447794110028E-02
115  1.1400000000000E+00 -1.1767053451761E-04 -9.0132974597842E-03
116  1.1500000000000E+00 -3.7006699114631E-06 -3.2650626814753E-04
117  1.1600000000000E+00 -3.5627206002711E-07 -3.0563643665810E-05
118  1.1700000000000E+00  8.8318749394189E-08  7.1728146331013E-06
119  1.18  0.  0.
120  1.19  0.  0.
121  1.20  0.  0.
122  1.21  0.  0.
123  1.22  0.  0.
124  1.23  0.  0.
125  1.24  0.  0.
126  1.25  0.  0.
127  1.26  0.  0.
128  1.27  0.  0.
129  1.28  0.  0.
130  1.29  0.  0.
131  1.30  0.  0.
132  1.31  0.  0.
133  1.32  0.  0.
134  1.33  0.  0.
135  1.34  0.  0.
136  1.35  0.  0.
137  1.36  0.  0.
138  1.37  0.  0.
139  1.38  0.  0.
140  1.39  0.  0.
141  1.40  0.  0.
142  1.41  0.  0.
143  1.42  0.  0.
144  1.43  0.  0.
145  1.44  0.  0.
146  1.45  0.  0.
147  1.46  0.  0.
148  1.47  0.  0.
149  1.48  0.  0.
150  1.49  0.  0.
151  1.50  0.  0.
152  1.51  0.  0.
153  1.52  0.  0.
154  1.53  0.  0.
155  1.54  0.  0.
156  1.55  0.  0.
157  1.56  0.  0.
158  1.57  0.  0.
159  1.58  0.  0.
160  1.59  0.  0.
161  1.60  0.  0.
162  1.61  0.  0.
163  1.62  0.  0.
164  1.63  0.  0.
165  1.64  0.  0.
166  1.65  0.  0.
167  1.66  0.  0.
168  1.67  0.  0.
169  1.68  0.  0.
170  1.69  0.  0.
171  1.70  0.  0.
172  1.71  0.  0.
173  1.72  0.  0.
174  1.73  0.  0.
175  1.74  0.  0.
176  1.75  0.  0.
177  1.76  0.  0.
178  1.77  0.  0.
179  1.78  0.  0.
180  1.79  0.  0.
181  1.80  0.  0.
182  1.81  0.  0.
183  1.82  0.  0.