Bk    ONCVPSP-4.0.1  r_core=   1.15197   1.15197   1.15197   1.35390
97.0000     37.0000      231012    zatom,zion,pspd
8   -1012   3     4   600     0    pspcod,pspxc,lmax,lloc,mmax,r2well
5.99000000  5.00000000  0.00000000    rchrg fchrg qchrg
3     2     2     2     0    nproj
1     1           extension_switch
0                         2.7121866071940E+01  3.1226992468652E+00 -1.1782647445888E+00
1  0.0000000000000E+00 -9.8375550816598E-08  3.3278036071227E-07  7.7068768311594E-09
2  1.0000000000000E-02  1.6124989205322E-01 -8.0952645670470E-02  2.8949837670524E-02
3  2.0000000000000E-02  3.2118385642148E-01 -1.5963548993672E-01  5.7824586918459E-02
4  3.0000000000000E-02  4.7850927517677E-01 -2.3384662663379E-01  8.6548161354569E-02
5  4.0000000000000E-02  6.3197942241098E-01 -3.0151751671709E-01  1.1504254271717E-01
6  5.0000000000000E-02  7.8041461866750E-01 -3.6077370523896E-01  1.4322697303098E-01
7  6.0000000000000E-02  9.2272131046856E-01 -4.0998863197235E-01  1.7101733077304E-01
8  7.0000000000000E-02  1.0579085051777E+00 -4.4782864569169E-01  1.9832574302705E-01
9  8.0000000000000E-02  1.1851010898128E+00 -4.7328766490136E-01  2.2506047790040E-01
10  9.0000000000000E-02  1.3035496780597E+00 -4.8571031911108E-01  2.5112615222637E-01
11  1.0000000000000E-01  1.4126367581703E+00 -4.8480283956743E-01  2.7642427901970E-01
12  1.1000000000000E-01  1.5118790506940E+00 -4.7063142996123E-01  3.0085416757793E-01
13  1.2000000000000E-01  1.6009261238399E+00 -4.4360831830996E-01  3.2431417683520E-01
14  1.3000000000000E-01  1.6795554503313E+00 -4.0446615290686E-01  3.4670330991525E-01
15  1.4000000000000E-01  1.7476642176672E+00 -3.5422184020820E-01  3.6792312515049E-01
16  1.5000000000000E-01  1.8052583187989E+00 -2.9413131413009E-01  3.8787992649454E-01
17  1.6000000000000E-01  1.8524390479702E+00 -2.2563705945149E-01  4.0648718461957E-01
18  1.7000000000000E-01  1.8893881030881E+00 -1.5031047412828E-01  4.2366812940943E-01
19  1.8000000000000E-01  1.9163515486001E+00 -6.9791336339092E-02  4.3935844536764E-01
20  1.9000000000000E-01  1.9336234194503E+00  1.4273264848683E-02  4.5350899396459E-01
21  2.0000000000000E-01  1.9415296463362E+00  1.0028817462302E-01  4.6608848141765E-01
22  2.1000000000000E-01  1.9404129552599E+00  1.8676532243690E-01  4.7708598705717E-01
23  2.2000000000000E-01  1.9306193414270E+00  2.7237268323610E-01  4.8651326645139E-01
24  2.3000000000000E-01  1.9124866410307E+00  3.5597521422906E-01  4.9440674495478E-01
25  2.4000000000000E-01  1.8863356274446E+00  4.3666626002385E-01  5.0082912135496E-01
26  2.5000000000000E-01  1.8524639447233E+00  5.1378830512300E-01  5.0587050779813E-01
27  2.6000000000000E-01  1.8111430655825E+00  5.8694238152588E-01  5.0964904108012E-01
28  2.7000000000000E-01  1.7626183282317E+00  6.5598589377510E-01  5.1231091153077E-01
29  2.8000000000000E-01  1.7071119718215E+00  7.2101908649417E-01  5.1402976886039E-01
30  2.9000000000000E-01  1.6448289592192E+00  7.8236083224873E-01  5.1500547917355E-01
31  3.0000000000000E-01  1.5759652535512E+00  8.4051484278362E-01  5.1546222352747E-01
32  3.1000000000000E-01  1.5007181063230E+00  8.9612778779109E-01  5.1564594550317E-01
33  3.2000000000000E-01  1.4192978243027E+00  9.4994112750809E-01  5.1582117281290E-01
34  3.3000000000000E-01  1.3319404133492E+00  1.0027387161025E+00  5.1626725549802E-01
35  3.4000000000000E-01  1.2389204527905E+00  1.0552924022430E+00  5.1727408027614E-01
36  3.5000000000000E-01  1.1405635356244E+00  1.1083079348946E+00  5.1913733656589E-01
37  3.6000000000000E-01  1.0372576185264E+00  1.1623734730864E+00  5.2215342416148E-01
38  3.7000000000000E-01  9.2946266114165E-01  1.2179128985824E+00  5.2661410497947E-01
39  3.8000000000000E-01  8.1771799507801E-01  1.2751459439662E+00  5.3280101133693E-01
40  3.9000000000000E-01  7.0264694709187E-01  1.3340568829388E+00  5.4098013048004E-01
41  4.0000000000000E-01  5.8495834491207E-01  1.3943731950375E+00  5.5139638927358E-01
42  4.1000000000000E-01  4.6544465396800E-01  1.4555552265468E+00  5.6426846387699E-01
43  4.2000000000000E-01  3.4497662431150E-01  1.5167974383675E+00  5.7978393675880E-01
44  4.3000000000000E-01  2.2449446415405E-01  1.5770413767974E+00  5.9809491752139E-01
45  4.4000000000000E-01  1.0499569433374E-01  1.6350000422932E+00  6.1931423481487E-01
46  4.5000000000000E-01 -1.2480028694701E-02  1.6891928822082E+00  6.4351229430375E-01
47  4.6000000000000E-01 -1.2686871029638E-01  1.7379902136879E+00  6.7071468251160E-01
48  4.7000000000000E-01 -2.3710191564604E-01  1.7796655085737E+00  7.0090057879656E-01
49  4.8000000000000E-01 -3.4212815846501E-01  1.8124536577641E+00  7.3400201818262E-01
50  4.9000000000000E-01 -4.4093510316225E-01  1.8346130900756E+00  7.6990402683675E-01
51  5.0000000000000E-01 -5.3257186053640E-01  1.8444894594565E+00  8.0844563024792E-01
52  5.1000000000000E-01 -6.1617064138906E-01  1.8405785404759E+00  8.4942171227349E-01
53  5.2000000000000E-01 -6.9096704391025E-01  1.8215859879511E+00  8.9258568183522E-01
54  5.3000000000000E-01 -7.5631828908072E-01  1.7864817215089E+00  9.3765288382928E-01
55  5.4000000000000E-01 -8.1171878211773E-01  1.7345468854581E+00  9.8430467239408E-01
56  5.5000000000000E-01 -8.5681246470316E-01  1.6654116009570E+00  1.0321930486415E+00
57  5.6000000000000E-01 -8.9140152905248E-01  1.5790820605633E+00  1.0809457518163E+00
58  5.7000000000000E-01 -9.1545118672016E-01  1.4759559017287E+00  1.1301716830320E+00
59  5.8000000000000E-01 -9.2909031775047E-01  1.3568252206308E+00  1.1794665345603E+00
60  5.9000000000000E-01 -9.3260796432410E-01  1.2228670344418E+00  1.2284184953340E+00
61  6.0000000000000E-01 -9.2644577219223E-01  1.0756214515704E+00  1.2766139049246E+00
62  6.1000000000000E-01 -9.1118661772529E-01  9.1695824838701E-01  1.3236427337364E+00
63  6.2000000000000E-01 -8.8753978334523E-01  7.4903296088526E-01  1.3691037763085E+00
64  6.3000000000000E-01 -8.5632315490228E-01  5.7423396539729E-01  1.4126094571293E+00
65  6.4000000000000E-01 -8.1844300722964E-01  3.9512233048888E-01  1.4537901637984E+00
66  6.5000000000000E-01 -7.7487201545080E-01  2.1436646152259E-01  1.4922980401710E+00
67  6.6000000000000E-01 -7.2662617727041E-01  3.4673721917255E-02  1.5278101916602E+00
68  6.7000000000000E-01 -6.7474135405439E-01 -1.4127870424116E-01  1.5600312754407E+00
69  6.8000000000000E-01 -6.2025013558471E-01 -3.1091144671955E-01  1.5886954691626E+00
70  6.9000000000000E-01 -5.6415970555104E-01 -4.7180690471553E-01  1.6135678321705E+00
71  7.0000000000000E-01 -5.0743133364508E-01 -6.2176751059376E-01  1.6344450923995E+00
72  7.1000000000000E-01 -4.5096204798337E-01 -7.5886652220090E-01  1.6511559093622E+00
73  7.2000000000000E-01 -3.9556895166904E-01 -8.8148985755813E-01  1.6635606783238E+00
74  7.3000000000000E-01 -3.4197654342597E-01 -9.8836782687675E-01  1.6715509523280E+00
75  7.4000000000000E-01 -2.9080728866008E-01 -1.0785959918977E+00  1.6750485667614E+00
76  7.5000000000000E-01 -2.4257556854548E-01 -1.1516447766892E+00  1.6740045553218E+00
77  7.6000000000000E-01 -1.9768501543556E-01 -1.2073578519240E+00  1.6683979464392E+00
78  7.7000000000000E-01 -1.5642912756448E-01 -1.2459397013116E+00  1.6582345253967E+00
79  7.8000000000000E-01 -1.1899494885779E-01 -1.2679331400907E+00  1.6435456397585E+00
80  7.9000000000000E-01 -8.5469504501773E-02 -1.2741878784417E+00  1.6243871145747E+00
81  8.0000000000000E-01 -5.5848602901326E-02 -1.2658214964463E+00  1.6008383296416E+00
82  8.1000000000000E-01 -3.0047552261970E-02 -1.2441744131017E+00  1.5730014944610E+00
83  8.2000000000000E-01 -7.9132969546766E-03 -1.2107605837252E+00  1.5410011381665E+00
84  8.3000000000000E-01  1.0762544089647E-02 -1.1672157444360E+00  1.5049838123658E+00
85  8.4000000000000E-01  2.6230257432995E-02 -1.1152450385475E+00  1.4651179854415E+00
86  8.5000000000000E-01  3.8768737436905E-02 -1.0565718096440E+00  1.4215940882461E+00
87  8.6000000000000E-01  4.8672780092721E-02 -9.9288923427280E-01  1.3746246542008E+00
88  8.7000000000000E-01  5.6241387417267E-02 -9.2581630020447E-01  1.3244444824113E+00
89  8.8000000000000E-01  6.1767438220580E-02 -8.5685942248593E-01  1.2713107413317E+00
90  8.9000000000000E-01  6.5529007876331E-02 -7.8738073879556E-01  1.2155029234200E+00
91  9.0000000000000E-01  6.7782539869753E-02 -7.1857384842271E-01  1.1573225587096E+00
92  9.1000000000000E-01  6.8757988689076E-02 -6.5144746641047E-01  1.0970925976805E+00
93  9.2000000000000E-01  6.8655970234920E-02 -5.8681716650851E-01  1.0351563815252E+00
94  9.3000000000000E-01  6.7646875278790E-02 -5.2530509344054E-01  9.7187613094400E-01
95  9.4000000000000E-01  6.5871826075859E-02 -4.6734724506692E-01  9.0763090288797E-01
96  9.5000000000000E-01  6.3445287971991E-02 -4.1320766519923E-01  8.4281398792999E-01
97  9.6000000000000E-01  6.0459088029108E-02 -3.6299865294281E-01  7.7782974874303E-01
98  9.7000000000000E-01  5.6987541921800E-02 -3.1670588720327E-01  7.1308993189060E-01
99  9.8000000000000E-01  5.3093348429671E-02 -2.7421718549991E-01  6.4900952007561E-01
100  9.9000000000000E-01  4.8833876888205E-02 -2.3535346252855E-01  5.8600222924798E-01
101  1.0000000000000E+00  4.4267445280839E-02 -1.9990032135217E-01  5.2447579361345E-01
102  1.0100000000000E+00  3.9459162970950E-02 -1.6763859214344E-01  4.6482722054545E-01
103  1.0200000000000E+00  3.4485889455345E-02 -1.3837202131021E-01  4.0743823567050E-01
104  1.0300000000000E+00  2.9439835601522E-02 -1.1195019751206E-01  3.5267117482582E-01
105  1.0400000000000E+00  2.4430302900214E-02 -8.8284669162271E-02  3.0086561313517E-01
106  1.0500000000000E+00  1.9583015249383E-02 -6.7356047865989E-02  2.5233605115084E-01
107  1.0600000000000E+00  1.5036442701417E-02 -4.9209691553009E-02  2.0737100282082E-01
108  1.0700000000000E+00  1.0934443478776E-02 -3.3937307259013E-02  1.6623384919565E-01
109  1.0800000000000E+00  7.4143972176370E-03 -2.1641326366219E-02  1.2916578959255E-01
110  1.0900000000000E+00  4.5904655363545E-03 -1.2380179649389E-02  9.6391676163643E-02
111  1.1000000000000E+00  2.5014792361150E-03 -6.0051123691862E-03  6.8105494887675E-02
112  1.1100000000000E+00  1.0514679667253E-03 -1.9656626209062E-03  4.4456109992329E-02
113  1.1200000000000E+00  2.1423945326355E-04  8.8752046009011E-05  2.5712248741064E-02
114  1.1300000000000E+00 -1.1256513568223E-04  6.6496172004298E-04  1.2054203536549E-02
115  1.1400000000000E+00 -1.0373399360549E-04  3.9173136434794E-04  3.5272769640214E-03
116  1.1500000000000E+00 -7.8869331383487E-06  2.5865969109483E-05  1.4703721387642E-04
117  1.1600000000000E+00 -5.1408773116913E-07  1.7060219301607E-06  1.0036982019704E-05
118  1.1700000000000E+00  1.1692514009784E-07 -4.0531686390810E-07 -2.8346750249037E-06
119  1.18  0.  0.  0.
120  1.19  0.  0.  0.
121  1.20  0.  0.  0.
122  1.21  0.  0.  0.
123  1.22  0.  0.  0.
124  1.23  0.  0.  0.
125  1.24  0.  0.  0.
126  1.25  0.  0.  0.
127  1.26  0.  0.  0.
128  1.27  0.  0.  0.
129  1.28  0.  0.  0.
130  1.29  0.  0.  0.
131  1.30  0.  0.  0.
132  1.31  0.  0.  0.
133  1.32  0.  0.  0.
134  1.33  0.  0.  0.
135  1.34  0.  0.  0.
136  1.35  0.  0.  0.
137  1.36  0.  0.  0.
138  1.37  0.  0.  0.
139  1.38  0.  0.  0.
140  1.39  0.  0.  0.
141  1.40  0.  0.  0.
142  1.41  0.  0.  0.
143  1.42  0.  0.  0.
144  1.43  0.  0.  0.
145  1.44  0.  0.  0.
146  1.45  0.  0.  0.
147  1.46  0.  0.  0.
148  1.47  0.  0.  0.
149  1.48  0.  0.  0.
150  1.49  0.  0.  0.
151  1.50  0.  0.  0.
152  1.51  0.  0.  0.
153  1.52  0.  0.  0.
154  1.53  0.  0.  0.
155  1.54  0.  0.  0.
156  1.55  0.  0.  0.
157  1.56  0.  0.  0.
158  1.57  0.  0.  0.
159  1.58  0.  0.  0.
160  1.59  0.  0.  0.
161  1.60  0.  0.  0.
162  1.61  0.  0.  0.
163  1.62  0.  0.  0.
164  1.63  0.  0.  0.
165  1.64  0.  0.  0.
166  1.65  0.  0.  0.
167  1.66  0.  0.  0.
168  1.67  0.  0.  0.
169  1.68  0.  0.  0.
170  1.69  0.  0.  0.
171  1.70  0.  0.  0.
172  1.71  0.  0.  0.
173  1.72  0.  0.  0.
174  1.73  0.  0.  0.
175  1.74  0.  0.  0.
176  1.75  0.  0.  0.
177  1.76  0.  0.  0.
178  1.77  0.  0.  0.
179  1.78  0.  0.  0.
180  1.79  0.  0.  0.
181  1.80  0.  0.  0.
182  1.81  0.  0.  0.
183  1.82  0.  0.  0.
184  1.83  0.  0.  0.
185  1.84  0.  0.  0.
186  1.85  0.  0.  0.
187  1.86  0.  0.  0.
188  1.87  0.  0.  0.
189  1.88  0.  0.  0.
190  1.89  0.  0.  0.
191  1.90  0.  0.  0.
192  1.91  0.  0.  0.
193  1.92  0.  0.  0.
194  1.93  0.  0.  0.
195  1.94  0.  0.  0.
196  1.95  0.  0.  0.
197  1.96  0.  0.  0.
198  1.97  0.  0.  0.
199  1.98  0.  0.  0.
200  1.99  0.  0.  0.
201  2.00  0.  0.  0.
202  2.01  0.  0.  0.
203  2.02  0.  0.  0.
204  2.03  0.  0.  0.
205  2.04  0.  0.  0.
206  2.05  0.  0.  0.
207  2.06  0.  0.  0.
208  2.07  0.  0.  0.
209  2.08  0.  0.  0.
210  2.09  0.  0.  0.
211  2.10  0.  0.  0.
212  2.11  0.  0.  0.
213  2.12  0.  0.  0.
214  2.13  0.  0.  0.
215  2.14  0.  0.  0.
216  2.15  0.  0.  0.
217  2.16  0.  0.  0.
218  2.17  0.  0.  0.
219  2.18  0.  0.  0.
220  2.19  0.  0.  0.
221  2.20  0.  0.  0.
222  2.21  0.  0.  0.
223  2.22  0.  0.  0.
224  2.23  0.  0.  0.
225  2.24  0.  0.  0.
226  2.25  0.  0.  0.
227  2.26  0.  0.  0.
228  2.27  0.  0.  0.
229  2.28  0.  0.  0.
230  2.29  0.  0.  0.
231  2.30  0.  0.  0.
232  2.31  0.  0.  0.
233  2.32  0.  0.  0.
234  2.33  0.  0.  0.
235  2.34  0.  0.  0.
236  2.35  0.  0.  0.
237  2.36  0.  0.  0.
238  2.37  0.  0.  0.
239  2.38  0.  0.  0.
240  2.39  0.  0.  0.
241  2.40  0.  0.  0.
242  2.41  0.  0.  0.
243  2.42  0.  0.  0.
244  2.43  0.  0.  0.
245  2.44  0.  0.  0.
246  2.45  0.  0.  0.
247  2.46  0.  0.  0.
248  2.47  0.  0.  0.
249  2.48  0.  0.  0.
250  2.49  0.  0.  0.
251  2.50  0.  0.  0.
252  2.51  0.  0.  0.
253  2.52  0.  0.  0.
254  2.53  0.  0.  0.
255  2.54  0.  0.  0.
256  2.55  0.  0.  0.
257  2.56  0.  0.  0.
258  2.57  0.  0.  0.
259  2.58  0.  0.  0.
260  2.59  0.  0.  0.
261  2.60  0.  0.  0.
262  2.61  0.  0.  0.
263  2.62  0.  0.  0.
264  2.63  0.  0.  0.
265  2.64  0.  0.  0.
266  2.65  0.  0.  0.
267  2.66  0.  0.  0.
268  2.67  0.  0.  0.
269  2.68  0.  0.  0.
270  2.69  0.  0.  0.
271  2.70  0.  0.  0.
272  2.71  0.  0.  0.
273  2.72  0.  0.  0.
274  2.73  0.  0.  0.
275  2.74  0.  0.  0.
276  2.75  0.  0.  0.
277  2.76  0.  0.  0.
278  2.77  0.  0.  0.
279  2.78  0.  0.  0.
280  2.79  0.  0.  0.
281  2.80  0.  0.  0.
282  2.81  0.  0.  0.
283  2.82  0.  0.  0.
284  2.83  0.  0.  0.
285  2.84  0.  0.  0.
286  2.85  0.  0.  0.
287  2.86  0.  0.  0.
288  2.87  0.  0.  0.
289  2.88  0.  0.  0.
290  2.89  0.  0.  0.
291  2.90  0.  0.  0.
292  2.91  0.  0.  0.
293  2.92  0.  0.  0.
294  2.93  0.  0.  0.
295  2.94  0.  0.  0.
296  2.95  0.  0.  0.
297  2.96  0.  0.  0.
298  2.97  0.  0.  0.
299  2.98  0.  0.  0.
300  2.99  0.  0.  0.
301  3.00  0.  0.  0.
302  3.01  0.  0.  0.
303  3.02  0.  0.  0.
304  3.03  0.  0.  0.
305  3.04  0.  0.  0.
306  3.05  0.  0.  0.
307  3.06  0.  0.  0.
308  3.07  0.  0.  0.
309  3.08  0.  0.  0.
310  3.09  0.  0.  0.
311  3.10  0.  0.  0.
312  3.11  0.  0.  0.
313  3.12  0.  0.  0.
314  3.13  0.  0.  0.
315  3.14  0.  0.  0.
316  3.15  0.  0.  0.
317  3.16  0.  0.  0.
318  3.17  0.  0.  0.
319  3.18  0.  0.  0.
320  3.19  0.  0.  0.
321  3.20  0.  0.  0.
322  3.21  0.  0.  0.
323  3.22  0.  0.  0.
324  3.23  0.  0.  0.
325  3.24  0.  0.  0.
326  3.25  0.  0.  0.
327  3.26  0.  0.  0.
328  3.27  0.  0.  0.
329  3.28  0.  0.  0.
330  3.29  0.  0.  0.
331  3.30  0.  0.  0.
332  3.31  0.  0.  0.
333  3.32  0.  0.  0.
334  3.33  0.  0.  0.
335  3.34  0.  0.  0.
336  3.35  0.  0.  0.
337  3.36  0.  0.  0.
338  3.37  0.  0.  0.
339  3.38  0.  0.  0.
340  3.39  0.  0.  0.
341  3.40  0.  0.  0.
342  3.41  0.  0.  0.
343  3.42  0.  0.  0.
344  3.43  0.  0.  0.
345  3.44  0.  0.  0.
346  3.45  0.  0.  0.
347  3.46  0.  0.  0.
348  3.47  0.  0.  0.
349  3.48  0.  0.  0.
350  3.49  0.  0.  0.
351  3.50  0.  0.  0.
352  3.51  0.  0.  0.
353  3.52  0.  0.  0.
354  3.53  0.  0.  0.
355  3.54  0.  0.  0.
356  3.55  0.  0.  0.
357  3.56  0.  0.  0.
358  3.57  0.  0.  0.
359  3.58  0.  0.  0.
360  3.59  0.  0.  0.
361  3.60  0.  0.  0.
362  3.61  0.  0.  0.
363  3.62  0.  0.  0.
364  3.63  0.  0.  0.
365  3.64  0.  0.  0.
366  3.65  0.  0.  0.
367  3.66  0.  0.  0.
368  3.67  0.  0.  0.
369  3.68  0.  0.  0.
370  3.69  0.  0.  0.
371  3.70  0.  0.  0.
372  3.71  0.  0.  0.
373  3.72  0.  0.  0.
374  3.73  0.  0.  0.
375  3.74  0.  0.  0.
376  3.75  0.  0.  0.
377  3.76  0.  0.  0.
378  3.77  0.  0.  0.
379  3.78  0.  0.  0.
380  3.79  0.  0.  0.
381  3.80  0.  0.  0.
382  3.81  0.  0.  0.
383  3.82  0.  0.  0.
384  3.83  0.  0.  0.
385  3.84  0.  0.  0.
386  3.85  0.  0.  0.
387  3.86  0.  0.  0.
388  3.87  0.  0.  0.
389  3.88  0.  0.  0.
390  3.89  0.  0.  0.
391  3.90  0.  0.  0.
392  3.91  0.  0.  0.
393  3.92  0.  0.  0.
394  3.93  0.  0.  0.
395  3.94  0.  0.  0.
396  3.95  0.  0.  0.
397  3.96  0.  0.  0.
398  3.97  0.  0.  0.
399  3.98  0.  0.  0.
400  3.99  0.  0.  0.
401  4.00  0.  0.  0.
402  4.01  0.  0.  0.
403  4.02  0.  0.  0.
404  4.03  0.  0.  0.
405  4.04  0.  0.  0.
406  4.05  0.  0.  0.
407  4.06  0.  0.  0.
408  4.07  0.  0.  0.
409  4.08  0.  0.  0.
410  4.09  0.  0.  0.
411  4.10  0.  0.  0.
412  4.11  0.  0.  0.
413  4.12  0.  0.  0.
414  4.13  0.  0.  0.
415  4.14  0.  0.  0.
416  4.15  0.  0.  0.
417  4.16  0.  0.  0.
418  4.17  0.  0.  0.
419  4.18  0.  0.  0.
420  4.19  0.  0.  0.
421  4.20  0.  0.  0.
422  4.21  0.  0.  0.
423  4.22  0.  0.  0.
424  4.23  0.  0.  0.
425  4.24  0.  0.  0.
426  4.25  0.  0.  0.
427  4.26  0.  0.  0.
428  4.27  0.  0.  0.
429  4.28  0.  0.  0.
430  4.29  0.  0.  0.
431  4.30  0.  0.  0.
432  4.31  0.  0.  0.
433  4.32  0.  0.  0.
434  4.33  0.  0.  0.
435  4.34  0.  0.  0.
436  4.35  0.  0.  0.
437  4.36  0.  0.  0.
438  4.37  0.  0.  0.
439  4.38  0.  0.  0.
440  4.39  0.  0.  0.
441  4.40  0.  0.  0.
442  4.41  0.  0.  0.
443  4.42  0.  0.  0.
444  4.43  0.  0.  0.
445  4.44  0.  0.  0.
446  4.45  0.  0.  0.
447  4.46  0.  0.  0.
448  4.47  0.  0.  0.
449  4.48  0.  0.  0.
450  4.49  0.  0.  0.
451  4.50  0.  0.  0.
452  4.51  0.  0.  0.
453  4.52  0.  0.  0.
454  4.53  0.  0.  0.
455  4.54  0.  0.  0.
456  4.55  0.  0.  0.
457  4.56  0.  0.  0.
458  4.57  0.  0.  0.
459  4.58  0.  0.  0.
460  4.59  0.  0.  0.
461  4.60  0.  0.  0.
462  4.61  0.  0.  0.
463  4.62  0.  0.  0.
464  4.63  0.  0.  0.
465  4.64  0.  0.  0.
466  4.65  0.  0.  0.
467  4.66  0.  0.  0.
468  4.67  0.  0.  0.
469  4.68  0.  0.  0.
470  4.69  0.  0.  0.
471  4.70  0.  0.  0.
472  4.71  0.  0.  0.
473  4.72  0.  0.  0.
474  4.73  0.  0.  0.
475  4.74  0.  0.  0.
476  4.75  0.  0.  0.
477  4.76  0.  0.  0.
478  4.77  0.  0.  0.
479  4.78  0.  0.  0.
480  4.79  0.  0.  0.
481  4.80  0.  0.  0.
482  4.81  0.  0.  0.
483  4.82  0.  0.  0.
484  4.83  0.  0.  0.
485  4.84  0.  0.  0.
486  4.85  0.  0.  0.
487  4.86  0.  0.  0.
488  4.87  0.  0.  0.
489  4.88  0.  0.  0.
490  4.89  0.  0.  0.
491  4.90  0.  0.  0.
492  4.91  0.  0.  0.
493  4.92  0.  0.  0.
494  4.93  0.  0.  0.
495  4.94  0.  0.  0.
496  4.95  0.  0.  0.
497  4.96  0.  0.  0.
498  4.97  0.  0.  0.
499  4.98  0.  0.  0.
500  4.99  0.  0.  0.
501  5.00  0.  0.  0.
502  5.01  0.  0.  0.
503  5.02  0.  0.  0.
504  5.03  0.  0.  0.
505  5.04  0.  0.  0.
506  5.05  0.  0.  0.
507  5.06  0.  0.  0.
508  5.07  0.  0.  0.
509  5.08  0.  0.  0.
510  5.09  0.  0.  0.
511  5.10  0.  0.  0.
512  5.11  0.  0.  0.
513  5.12  0.  0.  0.
514  5.13  0.  0.  0.
515  5.14  0.  0.  0.
516  5.15  0.  0.  0.
517  5.16  0.  0.  0.
518  5.17  0.  0.  0.
519  5.18  0.  0.  0.
520  5.19  0.  0.  0.
521  5.20  0.  0.  0.
522  5.21  0.  0.  0.
523  5.22  0.  0.  0.
524  5.23  0.  0.  0.
525  5.24  0.  0.  0.
526  5.25  0.  0.  0.
527  5.26  0.  0.  0.
528  5.27  0.  0.  0.
529  5.28  0.  0.  0.
530  5.29  0.  0.  0.
531  5.30  0.  0.  0.
532  5.31  0.  0.  0.
533  5.32  0.  0.  0.
534  5.33  0.  0.  0.
535  5.34  0.  0.  0.
536  5.35  0.  0.  0.
537  5.36  0.  0.  0.
538  5.37  0.  0.  0.
539  5.38  0.  0.  0.
540  5.39  0.  0.  0.
541  5.40  0.  0.  0.
542  5.41  0.  0.  0.
543  5.42  0.  0.  0.
544  5.43  0.  0.  0.
545  5.44  0.  0.  0.
546  5.45  0.  0.  0.
547  5.46  0.  0.  0.
548  5.47  0.  0.  0.
549  5.48  0.  0.  0.
550  5.49  0.  0.  0.
551  5.50  0.  0.  0.
552  5.51  0.  0.  0.
553  5.52  0.  0.  0.
554  5.53  0.  0.  0.
555  5.54  0.  0.  0.
556  5.55  0.  0.  0.
557  5.56  0.  0.  0.
558  5.57  0.  0.  0.
559  5.58  0.  0.  0.
560  5.59  0.  0.  0.
561  5.60  0.  0.  0.
562  5.61  0.  0.  0.
563  5.62  0.  0.  0.
564  5.63  0.  0.  0.
565  5.64  0.  0.  0.
566  5.65  0.  0.  0.
567  5.66  0.  0.  0.
568  5.67  0.  0.  0.
569  5.68  0.  0.  0.
570  5.69  0.  0.  0.
571  5.70  0.  0.  0.
572  5.71  0.  0.  0.
573  5.72  0.  0.  0.
574  5.73  0.  0.  0.
575  5.74  0.  0.  0.
576  5.75  0.  0.  0.
577  5.76  0.  0.  0.
578  5.77  0.  0.  0.
579  5.78  0.  0.  0.
580  5.79  0.  0.  0.
581  5.80  0.  0.  0.
582  5.81  0.  0.  0.
583  5.82  0.  0.  0.
584  5.83  0.  0.  0.
585  5.84  0.  0.  0.
586  5.85  0.  0.  0.
587  5.86  0.  0.  0.
588  5.87  0.  0.  0.
589  5.88  0.  0.  0.
590  5.89  0.  0.  0.
591  5.90  0.  0.  0.
592  5.91  0.  0.  0.
593  5.92  0.  0.  0.
594  5.93  0.  0.  0.
595  5.94  0.  0.  0.
596  5.95  0.  0.  0.
597  5.96  0.  0.  0.
598  5.97  0.  0.  0.
599  5.98  0.  0.  0.
600  5.99  0.  0.  0.
1                         8.7625306400483E+00 -9.5321006964126E-01
1  0.0000000000000E+00 -1.6249867340612E-08 -3.9426574246701E-08
2  1.0000000000000E-02  4.1089855119714E-03  1.0457526322810E-04
3  2.0000000000000E-02  1.6406963525456E-02  4.3435500818993E-04
4  3.0000000000000E-02  3.6806944591664E-02  1.0368078218867E-03
5  4.0000000000000E-02  6.5163779101723E-02  1.9887650888925E-03
6  5.0000000000000E-02  1.0127394937052E-01  3.3930935226736E-03
7  6.0000000000000E-02  1.4487536230129E-01  5.3742266833175E-03
8  7.0000000000000E-02  1.9564722178289E-01  8.0727365735952E-03
9  8.0000000000000E-02  2.5321007622160E-01  1.1639165831856E-02
10  9.0000000000000E-02  3.1712614842680E-01  1.6227371873139E-02
11  1.0000000000000E-01  3.8690006183428E-01  2.1987655341536E-02
12  1.1000000000000E-01  4.6198007833796E-01  2.9059955573012E-02
13  1.2000000000000E-01  5.4175995860193E-01  3.7567394975072E-02
14  1.3000000000000E-01  6.2558154565501E-01  4.7610442280230E-02
15  1.4000000000000E-01  7.1273815707219E-01  5.9261941919910E-02
16  1.5000000000000E-01  8.0247885058057E-01  7.2563224103820E-02
17  1.6000000000000E-01  8.9401360315829E-01  8.7521468771764E-02
18  1.7000000000000E-01  9.8651941546635E-01  1.0410844794683E-01
19  1.8000000000000E-01  1.0791473227641E+00  1.2226071698486E-01
20  1.9000000000000E-01  1.1710302614187E+00  1.4188126782914E-01
21  2.0000000000000E-01  1.2612917079141E+00  1.6284259883136E-01
22  2.1000000000000E-01  1.3490549761159E+00  1.8499109824276E-01
23  2.2000000000000E-01  1.4334530296502E+00  2.0815258434768E-01
24  2.3000000000000E-01  1.5136386407665E+00  2.3213879653346E-01
25  2.4000000000000E-01  1.5887947059954E+00  2.5675459031046E-01
26  2.5000000000000E-01  1.6581445132090E+00  2.8180555709600E-01
27  2.6000000000000E-01  1.7209617450319E+00  3.0710576781331E-01
28  2.7000000000000E-01  1.7765800004788E+00  3.3248532900598E-01
29  2.8000000000000E-01  1.8244016204662E+00  3.5779744178189E-01
30  2.9000000000000E-01  1.8639056135170E+00  3.8292466758339E-01
31  3.0000000000000E-01  1.8946544953288E+00  4.0778413017792E-01
32  3.1000000000000E-01  1.9162998794638E+00  4.3233141957302E-01
33  3.2000000000000E-01  1.9285866855437E+00  4.5656300955078E-01
34  3.3000000000000E-01  1.9313558651161E+00  4.8051705457689E-01
35  3.4000000000000E-01  1.9245455827158E+00  5.0427249202254E-01
36  3.5000000000000E-01  1.9081908293627E+00  5.2794643974112E-01
37  3.6000000000000E-01  1.8824214865032E+00  5.5168994467861E-01
38  3.7000000000000E-01  1.8474588988417E+00  5.7568220288808E-01
39  3.8000000000000E-01  1.8036110532543E+00  6.0012343258286E-01
40  3.9000000000000E-01  1.7512664966977E+00  6.2522663731070E-01
41  4.0000000000000E-01  1.6908871575024E+00  6.5120854375607E-01
42  4.1000000000000E-01  1.6230002605704E+00  6.7828003614373E-01
43  4.2000000000000E-01  1.5481895468936E+00  7.0663643513434E-01
44  4.3000000000000E-01  1.4670860207769E+00  7.3644798229458E-01
45  4.4000000000000E-01  1.3803584537591E+00  7.6785089097797E-01
46  4.5000000000000E-01  1.2887038722972E+00  8.0093931055107E-01
47  4.6000000000000E-01  1.1928382469249E+00  8.3575852364320E-01
48  4.7000000000000E-01  1.0934875841881E+00  8.7229965629552E-01
49  4.8000000000000E-01  9.9137959983457E-01  9.1049612983575E-01
50  4.9000000000000E-01  8.8723612337403E-01  9.5022202275584E-01
51  5.0000000000000E-01  7.8176635132012E-01  9.9129244295537E-01
52  5.1000000000000E-01  6.7566103042328E-01  1.0334659378861E+00
53  5.2000000000000E-01  5.6958761440307E-01  1.0764488950669E+00
54  5.3000000000000E-01  4.6418639953027E-01  1.1199018109416E+00
55  5.4000000000000E-01  3.6006760737494E-01  1.1634472349550E+00
56  5.5000000000000E-01  2.5780934855522E-01  1.2066791307698E+00
57  5.6000000000000E-01  1.5795637073359E-01  1.2491733403033E+00
58  5.7000000000000E-01  6.1019468603301E-02  1.2904987909918E+00
59  5.8000000000000E-01 -3.2524585817517E-02  1.3302290542871E+00
60  5.9000000000000E-01 -1.2223274685326E-01  1.3679538452820E+00
61  6.0000000000000E-01 -2.0769519232760E-01  1.4032900504589E+00
62  6.1000000000000E-01 -2.8853477146992E-01  1.4358918832056E+00
63  6.2000000000000E-01 -3.6440655114102E-01  1.4654597947013E+00
64  6.3000000000000E-01 -4.3499759124276E-01  1.4917478102156E+00
65  6.4000000000000E-01 -5.0002705715143E-01  1.5145690163888E+00
66  6.5000000000000E-01 -5.5924674863662E-01  1.5337989917576E+00
67  6.6000000000000E-01 -6.1244209218992E-01  1.5493770482792E+00
68  6.7000000000000E-01 -6.5943360837607E-01  1.5613052331523E+00
69  6.8000000000000E-01 -7.0007882925170E-01  1.5696451247963E+00
70  6.9000000000000E-01 -7.3427460467172E-01  1.5745125412689E+00
71  7.0000000000000E-01 -7.6195970202775E-01  1.5760703604230E+00
72  7.1000000000000E-01 -7.8311757320328E-01  1.5745197255977E+00
73  7.2000000000000E-01 -7.9777913672748E-01  1.5700899756383E+00
74  7.3000000000000E-01 -8.0602540354460E-01  1.5630276909265E+00
75  7.4000000000000E-01 -8.0798976253065E-01  1.5535852856456E+00
76  7.5000000000000E-01 -8.0385973765998E-01  1.5420095990307E+00
77  7.6000000000000E-01 -7.9387803301350E-01  1.5285309437180E+00
78  7.7000000000000E-01 -7.7834269475464E-01  1.5133530570639E+00
79  7.8000000000000E-01 -7.5760624056329E-01  1.4966443716201E+00
80  7.9000000000000E-01 -7.3207363624221E-01  1.4785309746933E+00
81  8.0000000000000E-01 -7.0219903540156E-01  1.4590915655931E+00
82  8.1000000000000E-01 -6.6848124008234E-01  1.4383546448745E+00
83  8.2000000000000E-01 -6.3145788643223E-01  1.4162980852526E+00
84  8.3000000000000E-01 -5.9169840841906E-01  1.3928511419742E+00
85  8.4000000000000E-01 -5.4979588221941E-01  1.3678988646764E+00
86  8.5000000000000E-01 -5.0635790242833E-01  1.3412887767676E+00
87  8.6000000000000E-01 -4.6199668665404E-01  1.3128395958118E+00
88  8.7000000000000E-01 -4.1731864549572E-01  1.2823516829392E+00
89  8.8000000000000E-01 -3.7291368857920E-01  1.2496188343920E+00
90  8.9000000000000E-01 -3.2934456266091E-01  1.2144409670913E+00
91  9.0000000000000E-01 -2.8713653346824E-01  1.1766372053056E+00
92  9.1000000000000E-01 -2.4676772788853E-01  1.1360588492974E+00
93  9.2000000000000E-01 -2.0866044665070E-01  1.0926017008246E+00
94  9.3000000000000E-01 -1.7317373943724E-01  1.0462172354894E+00
95  9.4000000000000E-01 -1.4059750447481E-01  9.9692214839800E-01
96  9.5000000000000E-01 -1.1114833352450E-01  9.4480585692394E-01
97  9.6000000000000E-01 -8.4967271633599E-02  8.9003562140343E-01
98  9.7000000000000E-01 -6.2119600223119E-02  8.3285903944747E-01
99  9.8000000000000E-01 -4.2596683482837E-02  7.7360377991267E-01
100  9.9000000000000E-01 -2.6319843449617E-02  7.1267454538806E-01
101  1.0000000000000E+00 -1.3146150443382E-02  6.5054738409386E-01
102  1.0100000000000E+00 -2.8759349074076E-03  5.8776160958115E-01
103  1.0200000000000E+00  4.7382538064422E-03  5.2490972598125E-01
104  1.0300000000000E+00  9.9815942301847E-03  4.6262589368300E-01
105  1.0400000000000E+00  1.3166271214699E-02  4.0157360149014E-01
106  1.0500000000000E+00  1.4620579236190E-02  3.4243333318271E-01
107  1.0600000000000E+00  1.4678402582574E-02  2.8589112530567E-01
108  1.0700000000000E+00  1.3669673473375E-02  2.3262900638670E-01
109  1.0800000000000E+00  1.1912413988256E-02  1.8331834178835E-01
110  1.0900000000000E+00  9.7073268369434E-03  1.3861756944860E-01
111  1.1000000000000E+00  7.3182909426784E-03  9.9152686097472E-02
112  1.1100000000000E+00  4.9549073465988E-03  6.5496969724547E-02
113  1.1200000000000E+00  2.8930959774287E-03  3.8322514029214E-02
114  1.1300000000000E+00  1.3330748634890E-03  1.8169639664390E-02
115  1.1400000000000E+00  3.7254672440541E-04  5.3753432882218E-03
116  1.1500000000000E+00  1.4271188534125E-05  2.2664406760089E-04
117  1.1600000000000E+00  9.8748338682797E-07  1.5461567861574E-05
118  1.1700000000000E+00 -2.8806360495228E-07 -4.3453974704793E-06
119  1.18  0.  0.
120  1.19  0.  0.
121  1.20  0.  0.
122  1.21  0.  0.
123  1.22  0.  0.
124  1.23  0.  0.
125  1.24  0.  0.
126  1.25  0.  0.
127  1.26  0.  0.
128  1.27  0.  0.
129  1.28  0.  0.
130  1.29  0.  0.
131  1.30  0.  0.
132  1.31  0.  0.
133  1.32  0.  0.
134  1.33  0.  0.
135  1.34  0.  0.
136  1.35  0.  0.
137  1.36  0.  0.
138  1.37  0.  0.
139  1.38  0.  0.
140  1.39  0.  0.
141  1.40  0.  0.
142  1.41  0.  0.
143  1.42  0.  0.
144  1.43  0.  0.
145  1.44  0.  0.
146  1.45  0.  0.
147  1.46  0.  0.
148  1.47  0.  0.
149  1.48  0.  0.
150  1.49  0.  0.
151  1.50  0.  0.
152  1.51  0.  0.
153  1.52  0.  0.
154  1.53  0.  0.
155  1.54  0.  0.
156  1.55  0.  0.
157  1.56  0.  0.
158  1.57  0.  0.
159  1.58  0.  0.
160  1.59  0.  0.
161  1.60  0.  0.
162  1.61  0.  0.
163  1.62  0.  0.
164  1.63  0.  0.
165  1.64  0.  0.