Bk    ONCVPSP-4.0.1  r_core=   1.15197   1.15197   1.15197   1.35390
97.0000     37.0000      231012    zatom,zion,pspd
8   -1012   3     4   600     0    pspcod,pspxc,lmax,lloc,mmax,r2well
5.99000000  5.00000000  0.00000000    rchrg fchrg qchrg
3     3     3     2    nproj
3     1           extension_switch
4     4     4    nprojso
0                         2.7311605897203E+01  3.1463463630782E+00 -1.1528676461511E+00
1  0.0000000000000E+00 -9.9577967871411E-08  3.3642430125047E-07  9.9042871404276E-09
2  1.0000000000000E-02  1.6108472094496E-01 -8.1441218653333E-02  2.8454357397082E-02
3  2.0000000000000E-02  3.2085402167943E-01 -1.6060068346264E-01  5.6844176337148E-02
4  3.0000000000000E-02  4.7801593029305E-01 -2.3526506451068E-01  8.5103489922434E-02
5  4.0000000000000E-02  6.3132463637804E-01 -3.0335543270043E-01  1.1316355473188E-01
6  5.0000000000000E-02  7.7960176152780E-01 -3.6298843540919E-01  1.4095166079384E-01
7  6.0000000000000E-02  9.2175553344539E-01 -4.1253049878157E-01  1.6839017206384E-01
8  7.0000000000000E-02  1.0567972882378E+00 -4.5064314887743E-01  1.9539586217269E-01
9  8.0000000000000E-02  1.1838548250501E+00 -4.7631788031483E-01  2.2187960030562E-01
10  9.0000000000000E-02  1.3021822542364E+00 -4.8889939662044E-01  2.4774643023192E-01
11  1.0000000000000E-01  1.4111661102462E+00 -4.8809648600979E-01  2.7289607206405E-01
12  1.1000000000000E-01  1.5103276383056E+00 -4.7398026286865E-01  2.9722386167438E-01
13  1.2000000000000E-01  1.5993213044562E+00 -4.4696998085933E-01  3.2062212726088E-01
14  1.3000000000000E-01  1.6779297161684E+00 -4.0780709006137E-01  3.4298198678425E-01
15  1.4000000000000E-01  1.7460552702490E+00 -3.5751864994836E-01  3.6419553436514E-01
16  1.5000000000000E-01  1.8037089611328E+00 -2.9737160545012E-01  3.8415836870378E-01
17  1.6000000000000E-01  1.8509968814081E+00 -2.2881976968192E-01  4.0277240262461E-01
18  1.7000000000000E-01  1.8881050237899E+00 -1.5344562127810E-01  4.1994888039563E-01
19  1.8000000000000E-01  1.9152830467756E+00 -7.2899206558361E-02  4.3561151892672E-01
20  1.9000000000000E-01  1.9328276928977E+00  1.1163469924425E-02  4.4969968067098E-01
21  2.0000000000000E-01  1.9410665478630E+00  9.7140182017988E-02  4.6217148033418E-01
22  2.1000000000000E-01  1.9403428010350E+00  1.8353805277527E-01  4.7300672457112E-01
23  2.2000000000000E-01  1.9310016138482E+00  2.6902284647287E-01  4.8220958386816E-01
24  2.3000000000000E-01  1.9133786250216E+00  3.5246013043894E-01  4.8981089885253E-01
25  2.4000000000000E-01  1.8877910229878E+00  4.3294678806945E-01  4.9587002931808E-01
26  2.5000000000000E-01  1.8545315007042E+00  5.0983175537249E-01  5.0047616321504E-01
27  2.6000000000000E-01  1.8138652805688E+00  5.8272528724956E-01  5.0374901453270E-01
28  2.7000000000000E-01  1.7660302625793E+00  6.5149651953701E-01  5.0583885313763E-01
29  2.8000000000000E-01  1.7112402125324E+00  7.1625956065617E-01  5.0692582587035E-01
30  2.9000000000000E-01  1.6496907743645E+00  7.7734880428794E-01  5.0721854613248E-01
31  3.0000000000000E-01  1.5815679669856E+00  8.3528458398876E-01  5.0695194833784E-01
32  3.1000000000000E-01  1.5070587160948E+00  8.9073067531037E-01  5.0638442343011E-01
33  3.2000000000000E-01  1.4263628798638E+00  9.4444547584469E-01  5.0579427163128E-01
34  3.3000000000000E-01  1.3397061577429E+00  9.9722894598920E-01  5.0547552810271E-01
35  3.4000000000000E-01  1.2473532267653E+00  1.0498675633416E+00  5.0573323570048E-01
36  3.5000000000000E-01  1.1496204314672E+00  1.1030796248477E+00  5.0687825592803E-01
37  3.6000000000000E-01  1.0468873626864E+00  1.1574632200442E+00  5.0922172400782E-01
38  3.7000000000000E-01  9.3960669676733E-01  1.2134490963864E+00  5.1306926623177E-01
39  3.8000000000000E-01  8.2831172874011E-01  1.2712604477879E+00  5.1871510699909E-01
40  3.9000000000000E-01  7.1362111847325E-01  1.3308813875566E+00  5.2643619887957E-01
41  4.0000000000000E-01  5.9624047434094E-01  1.3920355274571E+00  5.3648651141035E-01
42  4.1000000000000E-01  4.7696052049875E-01  1.4541756889400E+00  5.4909161301148E-01
43  4.2000000000000E-01  3.5665172670557E-01  1.5164853360901E+00  5.6444367535871E-01
44  4.3000000000000E-01  2.3625541858839E-01  1.5778918596036E+00  5.8269702086832E-01
45  4.4000000000000E-01  1.1677152590366E-01  1.6370913750183E+00  6.0396432182191E-01
46  4.5000000000000E-01 -7.5673874728799E-04  1.6925842446355E+00  6.2831354439559E-01
47  4.6000000000000E-01 -1.1526085341114E-01  1.7427201087011E+00  6.5576571286393E-01
48  4.7000000000000E-01 -2.2566708516290E-01  1.7857508338690E+00  6.8629354902091E-01
49  4.8000000000000E-01 -3.3091809526779E-01  1.8198894703403E+00  7.1982101997507E-01
50  4.9000000000000E-01 -4.2999536497432E-01  1.8433730654938E+00  7.5622380456606E-01
51  5.0000000000000E-01 -5.2194171314301E-01  1.8545270206078E+00  7.9533066539527E-01
52  5.1000000000000E-01 -6.0588316133399E-01  1.8518286044302E+00  8.3692569055834E-01
53  5.2000000000000E-01 -6.8104941407027E-01  1.8339672554841E+00  8.8075134730924E-01
54  5.3000000000000E-01 -7.4679226129498E-01  1.7998994131074E+00  9.2651226974405E-01
55  5.4000000000000E-01 -8.0260127503069E-01  1.7488958108537E+00  9.7387968479190E-01
56  5.5000000000000E-01 -8.4811626041780E-01  1.6805794372446E+00  1.0224963658945E+00
57  5.6000000000000E-01 -8.8313602925696E-01  1.5949527072008E+00  1.0719819922122E+00
58  5.7000000000000E-01 -9.0762318776261E-01  1.4924127794878E+00  1.1219387833750E+00
59  5.8000000000000E-01 -9.2170476472640E-01  1.3737543859058E+00  1.1719572759391E+00
60  5.9000000000000E-01 -9.2566864656741E-01  1.2401599900323E+00  1.2216221079342E+00
61  6.0000000000000E-01 -9.1995592651278E-01  1.0931775497194E+00  1.2705176821601E+00
62  6.1000000000000E-01 -9.0514941112638E-01  9.3468660083182E-01  1.3182335870616E+00
63  6.2000000000000E-01 -8.8195865354013E-01  7.6685379315663E-01  1.3643696657825E+00
64  6.3000000000000E-01 -8.5120199443213E-01  5.9207937760413E-01  1.4085406389493E+00
65  6.4000000000000E-01 -8.1378618503241E-01  4.1293645327323E-01  1.4503802043459E+00
66  6.5000000000000E-01 -7.7068423798320E-01  2.3210502261923E-01  1.4895445562664E+00
67  6.6000000000000E-01 -7.2291219937579E-01  5.2303064644644E-02  1.5257152882995E+00
68  6.7000000000000E-01 -6.7150555734027E-01 -1.2378308531755E-01  1.5586016648250E+00
69  6.8000000000000E-01 -6.1749599878917E-01 -2.9356676681156E-01  1.5879422678491E+00
70  6.9000000000000E-01 -5.6188919693785E-01 -4.5462524341188E-01  1.6135060461649E+00
71  7.0000000000000E-01 -5.0564425962865E-01 -6.0475814460990E-01  1.6350928124919E+00
72  7.1000000000000E-01 -4.4965539475951E-01 -7.4203831374010E-01  1.6525332505115E+00
73  7.2000000000000E-01 -3.9473625750154E-01 -8.6485357413831E-01  1.6656885070039E+00
74  7.3000000000000E-01 -3.4160733837197E-01 -9.7193827244654E-01  1.6744494540976E+00
75  7.4000000000000E-01 -2.9088663594517E-01 -1.0623938384365E+00  1.6787357126212E+00
76  7.5000000000000E-01 -2.4308373763540E-01 -1.1356979998422E+00  1.6784945294638E+00
77  7.6000000000000E-01 -1.9859731127625E-01 -1.1917026929400E+00  1.6736995996571E+00
78  7.7000000000000E-01 -1.5771589372386E-01 -1.2306210997901E+00  1.6643499176720E+00
79  7.8000000000000E-01 -1.2062175469424E-01 -1.2530046068408E+00  1.6504687324295E+00
80  7.9000000000000E-01 -8.7397518346719E-02 -1.2597108039876E+00  1.6321026671658E+00
81  8.0000000000000E-01 -5.8035144931542E-02 -1.2518639172440E+00  1.6093210491049E+00
82  8.1000000000000E-01 -3.2446812625515E-02 -1.2308092831534E+00  1.5822154755397E+00
83  8.2000000000000E-01 -1.0477197157810E-02 -1.1980636228694E+00  1.5508996231788E+00
84  8.3000000000000E-01  8.0833751874782E-03 -1.1552629550782E+00  1.5155092873029E+00
85  8.4000000000000E-01  2.3485427135916E-02 -1.1041099990660E+00  1.4762026172944E+00
86  8.5000000000000E-01  3.6006990390284E-02 -1.0463228644016E+00  1.4331604963381E+00
87  8.6000000000000E-01  4.5940897676249E-02 -9.8358670655276E-01  1.3865869964285E+00
88  8.7000000000000E-01  5.3583126578805E-02 -9.1750985515662E-01  1.3367098260924E+00
89  8.8000000000000E-01  5.9222549877985E-02 -8.4958570226308E-01  1.2837806781926E+00
90  8.9000000000000E-01  6.3132372185594E-02 -7.8116138166619E-01  1.2280753794698E+00
91  9.0000000000000E-01  6.5563451222255E-02 -7.1341398821434E-01  1.1698937426251E+00
92  9.1000000000000E-01  6.6739617443427E-02 -6.4733478881948E-01  1.1095590261077E+00
93  9.2000000000000E-01  6.6855021166257E-02 -5.8372157548166E-01  1.0474169165614E+00
94  9.3000000000000E-01  6.6073454845074E-02 -5.2317901501387E-01  9.8383396413094E-01
95  9.4000000000000E-01  6.4529522199444E-02 -4.6612656887939E-01  9.1919542138809E-01
96  9.5000000000000E-01  6.2331457485203E-02 -4.1281329660075E-01  8.5390246220185E-01
97  9.6000000000000E-01  5.9565338607913E-02 -3.6333862241055E-01  7.8836878695935E-01
98  9.7000000000000E-01  5.6300387598294E-02 -3.1767793985822E-01  7.2301665450786E-01
99  9.8000000000000E-01  5.2595010970252E-02 -2.7571175297070E-01  6.5827241829736E-01
100  9.9000000000000E-01  4.8503199747834E-02 -2.3725690319532E-01  5.9456168354752E-01
101  1.0000000000000E+00  4.4080882735261E-02 -2.0209830388285E-01  5.3230424291641E-01
102  1.0100000000000E+00  3.9391804560233E-02 -1.7001949174238E-01  4.7190898905390E-01
103  1.0200000000000E+00  3.4512479140270E-02 -1.4083019852198E-01  4.1376904259630E-01
104  1.0300000000000E+00  2.9535746048375E-02 -1.1438903575960E-01  3.5825737247952E-01
105  1.0400000000000E+00  2.4572427991162E-02 -9.0619259163252E-02  3.0572322091699E-01
106  1.0500000000000E+00  1.9750548103008E-02 -6.9515424106720E-02  2.5648967708993E-01
107  1.0600000000000E+00  1.5211511926658E-02 -5.1138547247032E-02  2.1085277053126E-01
108  1.0700000000000E+00  1.1102586749998E-02 -3.5597138592104E-02  1.6908247664171E-01
109  1.0800000000000E+00  7.5648573725571E-03 -2.3010980845373E-02  1.3142599689651E-01
110  1.0900000000000E+00  4.7163080888566E-03 -1.3455828569304E-02  9.8114135508994E-02
111  1.1000000000000E+00  2.5991112316722E-03 -6.7985075841886E-03  6.9347437249410E-02
112  1.1100000000000E+00  1.1194235121865E-03 -2.5003334178612E-03  4.5282790320775E-02
113  1.1200000000000E+00  2.5505065154025E-04 -2.2707095161705E-04  2.6199386857625E-02
114  1.1300000000000E+00 -9.3181935872446E-05  5.1531743571264E-04  1.2286712776699E-02
115  1.1400000000000E+00 -9.8131664726618E-05  3.4793242846497E-04  3.5964960626897E-03
116  1.1500000000000E+00 -7.6754956009760E-06  2.4062806979460E-05  1.4996813647683E-04
117  1.1600000000000E+00 -4.9772343338739E-07  1.5820734186019E-06  1.0237745627983E-05
118  1.1700000000000E+00  1.1221926919300E-07 -3.7019496718721E-07 -2.8909570072934E-06
119  1.18  0.  0.  0.
120  1.19  0.  0.  0.
121  1.20  0.  0.  0.
122  1.21  0.  0.  0.
123  1.22  0.  0.  0.
124  1.23  0.  0.  0.
125  1.24  0.  0.  0.
126  1.25  0.  0.  0.
127  1.26  0.  0.  0.
128  1.27  0.  0.  0.
129  1.28  0.  0.  0.
130  1.29  0.  0.  0.
131  1.30  0.  0.  0.
132  1.31  0.  0.  0.
133  1.32  0.  0.  0.
134  1.33  0.  0.  0.
135  1.34  0.  0.  0.
136  1.35  0.  0.  0.
137  1.36  0.  0.  0.
138  1.37  0.  0.  0.
139  1.38  0.  0.  0.
140  1.39  0.  0.  0.
141  1.40  0.  0.  0.
142  1.41  0.  0.  0.
143  1.42  0.  0.  0.
144  1.43  0.  0.  0.
145  1.44  0.  0.  0.
146  1.45  0.  0.  0.
147  1.46  0.  0.  0.
148  1.47  0.  0.  0.
149  1.48  0.  0.  0.
150  1.49  0.  0.  0.
151  1.50  0.  0.  0.
152  1.51  0.  0.  0.
153  1.52  0.  0.  0.
154  1.53  0.  0.  0.
155  1.54  0.  0.  0.
156  1.55  0.  0.  0.
157  1.56  0.  0.  0.
158  1.57  0.  0.  0.
159  1.58  0.  0.  0.
160  1.59  0.  0.  0.
161  1.60  0.  0.  0.
162  1.61  0.  0.  0.
163  1.62  0.  0.  0.
164  1.63  0.  0.  0.
165  1.64  0.  0.  0.
166  1.65  0.  0.  0.
167  1.66  0.  0.  0.
168  1.67  0.  0.  0.
169  1.68  0.  0.  0.
170  1.69  0.  0.  0.
171  1.70  0.  0.  0.
172  1.71  0.  0.  0.
173  1.72  0.  0.  0.
174  1.73  0.  0.  0.
175  1.74  0.  0.  0.
176  1.75  0.  0.  0.
177  1.76  0.  0.  0.
178  1.77  0.  0.  0.
179  1.78  0.  0.  0.
180  1.79  0.  0.  0.
181  1.80  0.  0.  0.
182  1.81  0.  0.  0.
183  1.82  0.  0.  0.
184  1.83  0.  0.  0.
185  1.84  0.  0.  0.
186  1.85  0.  0.  0.
187  1.86  0.  0.  0.
188  1.87  0.  0.  0.
189  1.88  0.  0.  0.
190  1.89  0.  0.  0.
191  1.90  0.  0.  0.
192  1.91  0.  0.  0.
193  1.92  0.  0.  0.
194  1.93  0.  0.  0.
195  1.94  0.  0.  0.
196  1.95  0.  0.  0.
197  1.96  0.  0.  0.
198  1.97  0.  0.  0.
199  1.98  0.  0.  0.
200  1.99  0.  0.  0.
201  2.00  0.  0.  0.
202  2.01  0.  0.  0.
203  2.02  0.  0.  0.
204  2.03  0.  0.  0.
205  2.04  0.  0.  0.
206  2.05  0.  0.  0.
207  2.06  0.  0.  0.
208  2.07  0.  0.  0.
209  2.08  0.  0.  0.
210  2.09  0.  0.  0.
211  2.10  0.  0.  0.
212  2.11  0.  0.  0.
213  2.12  0.  0.  0.
214  2.13  0.  0.  0.
215  2.14  0.  0.  0.
216  2.15  0.  0.  0.
217  2.16  0.  0.  0.
218  2.17  0.  0.  0.
219  2.18  0.  0.  0.
220  2.19  0.  0.  0.
221  2.20  0.  0.  0.
222  2.21  0.  0.  0.
223  2.22  0.  0.  0.
224  2.23  0.  0.  0.
225  2.24  0.  0.  0.
226  2.25  0.  0.  0.
227  2.26  0.  0.  0.
228  2.27  0.  0.  0.
229  2.28  0.  0.  0.
230  2.29  0.  0.  0.
231  2.30  0.  0.  0.
232  2.31  0.  0.  0.
233  2.32  0.  0.  0.
234  2.33  0.  0.  0.
235  2.34  0.  0.  0.
236  2.35  0.  0.  0.
237  2.36  0.  0.  0.
238  2.37  0.  0.  0.
239  2.38  0.  0.  0.
240  2.39  0.  0.  0.
241  2.40  0.  0.  0.
242  2.41  0.  0.  0.
243  2.42  0.  0.  0.
244  2.43  0.  0.  0.
245  2.44  0.  0.  0.
246  2.45  0.  0.  0.
247  2.46  0.  0.  0.
248  2.47  0.  0.  0.
249  2.48  0.  0.  0.
250  2.49  0.  0.  0.
251  2.50  0.  0.  0.
252  2.51  0.  0.  0.
253  2.52  0.  0.  0.
254  2.53  0.  0.  0.
255  2.54  0.  0.  0.
256  2.55  0.  0.  0.
257  2.56  0.  0.  0.
258  2.57  0.  0.  0.
259  2.58  0.  0.  0.
260  2.59  0.  0.  0.
261  2.60  0.  0.  0.
262  2.61  0.  0.  0.
263  2.62  0.  0.  0.
264  2.63  0.  0.  0.
265  2.64  0.  0.  0.
266  2.65  0.  0.  0.
267  2.66  0.  0.  0.
268  2.67  0.  0.  0.
269  2.68  0.  0.  0.
270  2.69  0.  0.  0.
271  2.70  0.  0.  0.
272  2.71  0.  0.  0.
273  2.72  0.  0.  0.
274  2.73  0.  0.  0.
275  2.74  0.  0.  0.
276  2.75  0.  0.  0.
277  2.76  0.  0.  0.
278  2.77  0.  0.  0.
279  2.78  0.  0.  0.
280  2.79  0.  0.  0.
281  2.80  0.  0.  0.
282  2.81  0.  0.  0.
283  2.82  0.  0.  0.
284  2.83  0.  0.  0.
285  2.84  0.  0.  0.
286  2.85  0.  0.  0.
287  2.86  0.  0.  0.
288  2.87  0.  0.  0.
289  2.88  0.  0.  0.
290  2.89  0.  0.  0.
291  2.90  0.  0.  0.
292  2.91  0.  0.  0.
293  2.92  0.  0.  0.
294  2.93  0.  0.  0.
295  2.94  0.  0.  0.
296  2.95  0.  0.  0.
297  2.96  0.  0.  0.
298  2.97  0.  0.  0.
299  2.98  0.  0.  0.
300  2.99  0.  0.  0.
301  3.00  0.  0.  0.
302  3.01  0.  0.  0.
303  3.02  0.  0.  0.
304  3.03  0.  0.  0.
305  3.04  0.  0.  0.
306  3.05  0.  0.  0.
307  3.06  0.  0.  0.
308  3.07  0.  0.  0.
309  3.08  0.  0.  0.
310  3.09  0.  0.  0.
311  3.10  0.  0.  0.
312  3.11  0.  0.  0.
313  3.12  0.  0.  0.
314  3.13  0.  0.  0.
315  3.14  0.  0.  0.
316  3.15  0.  0.  0.
317  3.16  0.  0.  0.
318  3.17  0.  0.  0.
319  3.18  0.  0.  0.
320  3.19  0.  0.  0.
321  3.20  0.  0.  0.
322  3.21  0.  0.  0.
323  3.22  0.  0.  0.
324  3.23  0.  0.  0.
325  3.24  0.  0.  0.
326  3.25  0.  0.  0.
327  3.26  0.  0.  0.
328  3.27  0.  0.  0.
329  3.28  0.  0.  0.
330  3.29  0.  0.  0.
331  3.30  0.  0.  0.
332  3.31  0.  0.  0.
333  3.32  0.  0.  0.
334  3.33  0.  0.  0.
335  3.34  0.  0.  0.
336  3.35  0.  0.  0.
337  3.36  0.  0.  0.
338  3.37  0.  0.  0.
339  3.38  0.  0.  0.
340  3.39  0.  0.  0.
341  3.40  0.  0.  0.
342  3.41  0.  0.  0.
343  3.42  0.  0.  0.
344  3.43  0.  0.  0.
345  3.44  0.  0.  0.
346  3.45  0.  0.  0.
347  3.46  0.  0.  0.
348  3.47  0.  0.  0.
349  3.48  0.  0.  0.
350  3.49  0.  0.  0.
351  3.50  0.  0.  0.
352  3.51  0.  0.  0.
353  3.52  0.  0.  0.
354  3.53  0.  0.  0.
355  3.54  0.  0.  0.
356  3.55  0.  0.  0.
357  3.56  0.  0.  0.
358  3.57  0.  0.  0.
359  3.58  0.  0.  0.
360  3.59  0.  0.  0.
361  3.60  0.  0.  0.
362  3.61  0.  0.  0.
363  3.62  0.  0.  0.
364  3.63  0.  0.  0.
365  3.64  0.  0.  0.
366  3.65  0.  0.  0.
367  3.66  0.  0.  0.
368  3.67  0.  0.  0.
369  3.68  0.  0.  0.
370  3.69  0.  0.  0.
371  3.70  0.  0.  0.
372  3.71  0.  0.  0.
373  3.72  0.  0.  0.
374  3.73  0.  0.  0.
375  3.74  0.  0.  0.
376  3.75  0.  0.  0.
377  3.76  0.  0.  0.
378  3.77  0.  0.  0.
379  3.78  0.  0.  0.
380  3.79  0.  0.  0.
381  3.80  0.  0.  0.
382  3.81  0.  0.  0.
383  3.82  0.  0.  0.
384  3.83  0.  0.  0.
385  3.84  0.  0.  0.
386  3.85  0.  0.  0.
387  3.86  0.  0.  0.
388  3.87  0.  0.  0.
389  3.88  0.  0.  0.
390  3.89  0.  0.  0.
391  3.90  0.  0.  0.
392  3.91  0.  0.  0.
393  3.92  0.  0.  0.
394  3.93  0.  0.  0.
395  3.94  0.  0.  0.
396  3.95  0.  0.  0.
397  3.96  0.  0.  0.
398  3.97  0.  0.  0.
399  3.98  0.  0.  0.
400  3.99  0.  0.  0.
401  4.00  0.  0.  0.
402  4.01  0.  0.  0.
403  4.02  0.  0.  0.
404  4.03  0.  0.  0.
405  4.04  0.  0.  0.
406  4.05  0.  0.  0.
407  4.06  0.  0.  0.
408  4.07  0.  0.  0.
409  4.08  0.  0.  0.
410  4.09  0.  0.  0.
411  4.10  0.  0.  0.
412  4.11  0.  0.  0.
413  4.12  0.  0.  0.
414  4.13  0.  0.  0.
415  4.14  0.  0.  0.
416  4.15  0.  0.  0.
417  4.16  0.  0.  0.
418  4.17  0.  0.  0.
419  4.18  0.  0.  0.
420  4.19  0.  0.  0.
421  4.20  0.  0.  0.
422  4.21  0.  0.  0.
423  4.22  0.  0.  0.
424  4.23  0.  0.  0.
425  4.24  0.  0.  0.
426  4.25  0.  0.  0.
427  4.26  0.  0.  0.
428  4.27  0.  0.  0.
429  4.28  0.  0.  0.
430  4.29  0.  0.  0.
431  4.30  0.  0.  0.
432  4.31  0.  0.  0.
433  4.32  0.  0.  0.
434  4.33  0.  0.  0.
435  4.34  0.  0.  0.
436  4.35  0.  0.  0.
437  4.36  0.  0.  0.
438  4.37  0.  0.  0.
439  4.38  0.  0.  0.
440  4.39  0.  0.  0.
441  4.40  0.  0.  0.
442  4.41  0.  0.  0.
443  4.42  0.  0.  0.
444  4.43  0.  0.  0.
445  4.44  0.  0.  0.
446  4.45  0.  0.  0.
447  4.46  0.  0.  0.
448  4.47  0.  0.  0.
449  4.48  0.  0.  0.
450  4.49  0.  0.  0.
451  4.50  0.  0.  0.
452  4.51  0.  0.  0.
453  4.52  0.  0.  0.
454  4.53  0.  0.  0.
455  4.54  0.  0.  0.
456  4.55  0.  0.  0.
457  4.56  0.  0.  0.
458  4.57  0.  0.  0.
459  4.58  0.  0.  0.
460  4.59  0.  0.  0.
461  4.60  0.  0.  0.
462  4.61  0.  0.  0.
463  4.62  0.  0.  0.
464  4.63  0.  0.  0.
465  4.64  0.  0.  0.
466  4.65  0.  0.  0.
467  4.66  0.  0.  0.
468  4.67  0.  0.  0.
469  4.68  0.  0.  0.
470  4.69  0.  0.  0.
471  4.70  0.  0.  0.
472  4.71  0.  0.  0.
473  4.72  0.  0.  0.
474  4.73  0.  0.  0.
475  4.74  0.  0.  0.
476  4.75  0.  0.  0.
477  4.76  0.  0.  0.
478  4.77  0.  0.  0.
479  4.78  0.  0.  0.
480  4.79  0.  0.  0.
481  4.80  0.  0.  0.
482  4.81  0.  0.  0.
483  4.82  0.  0.  0.
484  4.83  0.  0.  0.
485  4.84  0.  0.  0.
486  4.85  0.  0.  0.
487  4.86  0.  0.  0.
488  4.87  0.  0.  0.
489  4.88  0.  0.  0.
490  4.89  0.  0.  0.
491  4.90  0.  0.  0.
492  4.91  0.  0.  0.
493  4.92  0.  0.  0.
494  4.93  0.  0.  0.
495  4.94  0.  0.  0.
496  4.95  0.  0.  0.
497  4.96  0.  0.  0.
498  4.97  0.  0.  0.
499  4.98  0.  0.  0.
500  4.99  0.  0.  0.
501  5.00  0.  0.  0.
502  5.01  0.  0.  0.
503  5.02  0.  0.  0.
504  5.03  0.  0.  0.
505  5.04  0.  0.  0.
506  5.05  0.  0.  0.
507  5.06  0.  0.  0.
508  5.07  0.  0.  0.
509  5.08  0.  0.  0.
510  5.09  0.  0.  0.
511  5.10  0.  0.  0.
512  5.11  0.  0.  0.
513  5.12  0.  0.  0.
514  5.13  0.  0.  0.
515  5.14  0.  0.  0.
516  5.15  0.  0.  0.
517  5.16  0.  0.  0.
518  5.17  0.  0.  0.
519  5.18  0.  0.  0.
520  5.19  0.  0.  0.
521  5.20  0.  0.  0.
522  5.21  0.  0.  0.
523  5.22  0.  0.  0.
524  5.23  0.  0.  0.
525  5.24  0.  0.  0.
526  5.25  0.  0.  0.
527  5.26  0.  0.  0.
528  5.27  0.  0.  0.
529  5.28  0.  0.  0.
530  5.29  0.  0.  0.
531  5.30  0.  0.  0.
532  5.31  0.  0.  0.
533  5.32  0.  0.  0.
534  5.33  0.  0.  0.
535  5.34  0.  0.  0.
536  5.35  0.  0.  0.
537  5.36  0.  0.  0.
538  5.37  0.  0.  0.
539  5.38  0.  0.  0.
540  5.39  0.  0.  0.
541  5.40  0.  0.  0.
542  5.41  0.  0.  0.
543  5.42  0.  0.  0.
544  5.43  0.  0.  0.
545  5.44  0.  0.  0.
546  5.45  0.  0.  0.
547  5.46  0.  0.  0.
548  5.47  0.  0.  0.
549  5.48  0.  0.  0.
550  5.49  0.  0.  0.
551  5.50  0.  0.  0.
552  5.51  0.  0.  0.
553  5.52  0.  0.  0.
554  5.53  0.  0.  0.
555  5.54  0.  0.  0.
556  5.55  0.  0.  0.
557  5.56  0.  0.  0.
558  5.57  0.  0.  0.
559  5.58  0.  0.  0.
560  5.59  0.  0.  0.
561  5.60  0.  0.  0.
562  5.61  0.  0.  0.
563  5.62  0.  0.  0.
564  5.63  0.  0.  0.
565  5.64  0.  0.  0.
566  5.65  0.  0.  0.
567  5.66  0.  0.  0.
568  5.67  0.  0.  0.
569  5.68  0.  0.  0.
570  5.69  0.  0.  0.
571  5.70  0.  0.  0.
572  5.71  0.  0.  0.
573  5.72  0.  0.  0.
574  5.73  0.  0.  0.
575  5.74  0.  0.  0.
576  5.75  0.  0.  0.
577  5.76  0.  0.  0.
578  5.77  0.  0.  0.
579  5.78  0.  0.  0.
580  5.79  0.  0.  0.
581  5.80  0.  0.  0.
582  5.81  0.  0.  0.
583  5.82  0.  0.  0.
584  5.83  0.  0.  0.
585  5.84  0.  0.  0.
586  5.85  0.  0.  0.
587  5.86  0.  0.  0.
588  5.87  0.  0.  0.
589  5.88  0.  0.  0.
590  5.89  0.  0.  0.
591  5.90  0.  0.  0.
592  5.91  0.  0.  0.
593  5.92  0.  0.  0.
594  5.93  0.  0.  0.
595  5.94  0.  0.  0.
596  5.95  0.  0.  0.
597  5.96  0.  0.  0.
598  5.97  0.  0.  0.
599  5.98  0.  0.  0.
600  5.99  0.  0.  0.
1                         8.2642973865605E+00 -1.0172629784603E+00  5.3261426260341E-02
1  0.0000000000000E+00 -1.5958993793141E-08 -3.3829316202494E-08 -2.4073044113671E-09
2  1.0000000000000E-02  4.1597772213553E-03  1.9478921155389E-04 -5.0763722857628E-03
3  2.0000000000000E-02  1.6609212779974E-02  7.9223395570023E-04 -2.0225734448499E-02
4  3.0000000000000E-02  3.7258577402604E-02  1.8309791134997E-03 -4.5209636448686E-02
5  4.0000000000000E-02  6.5958198037847E-02  3.3735021145373E-03 -7.9633378921480E-02
6  5.0000000000000E-02  1.0249831381168E-01  5.5033003506449E-03 -1.2295010215851E-01
7  6.0000000000000E-02  1.4660895706293E-01  8.3211171350997E-03 -1.7446653413597E-01
8  7.0000000000000E-02  1.9795993756640E-01  1.1940362066722E-02 -2.3335041554973E-01
9  8.0000000000000E-02  2.5616102400996E-01  1.6481915487603E-02 -2.9863961741071E-01
10  9.0000000000000E-02  3.2076242832608E-01  2.2068533086033E-02 -3.6925295921332E-01
11  1.0000000000000E-01  3.9125570496659E-01  2.8819084529679E-02 -4.4400272243855E-01
12  1.1000000000000E-01  4.6707517823432E-01  3.6842868579837E-02 -5.2160883489658E-01
13  1.2000000000000E-01  5.4760000613743E-01  4.6234246048318E-02 -6.0071467619212E-01
14  1.3000000000000E-01  6.3215697893474E-01  5.7067821197443E-02 -6.7990442377181E-01
15  1.4000000000000E-01  7.2002413483587E-01  6.9394382103537E-02 -7.5772182327584E-01
16  1.5000000000000E-01  8.1043525467637E-01  8.3237781819200E-02 -8.3269022726947E-01
17  1.6000000000000E-01  9.0258527247272E-01  9.8592905928195E-02 -9.0333370414771E-01
18  1.7000000000000E-01  9.9563661042601E-01  1.1542482963574E-01 -9.6819897560075E-01
19  1.8000000000000E-01  1.0887264161868E+00  1.3366922047258E-01 -1.0258778981846E+00
20  1.9000000000000E-01  1.1809746481331E+00  1.5323399280070E-01 -1.0750301640665E+00
21  2.0000000000000E-01  1.2714929222385E+00  1.7400216950396E-01 -1.1144058597550E+00
22  2.1000000000000E-01  1.3593940030377E+00  1.9583585649580E-01 -1.1428674913959E+00
23  2.2000000000000E-01  1.4438017924409E+00  2.1858118892419E-01 -1.1594110627325E+00
24  2.3000000000000E-01  1.5238616448450E+00  2.4207406605689E-01 -1.1631857786229E+00
25  2.4000000000000E-01  1.5987508161891E+00  2.6614645647588E-01 -1.1535119443675E+00
26  2.5000000000000E-01  1.6676888391915E+00  2.9063302786035E-01 -1.1298966399925E+00
27  2.6000000000000E-01  1.7299476077104E+00  3.1537783746471E-01 -1.0920467696858E+00
28  2.7000000000000E-01  1.7848609504915E+00  3.4024081124005E-01 -1.0398791199946E+00
29  2.8000000000000E-01  1.8318334787873E+00  3.6510374187201E-01 -9.7352710595284E-01
30  2.9000000000000E-01  1.8703485034776E+00  3.8987554888866E-01 -8.9334394136964E-01
31  3.0000000000000E-01  1.8999748351810E+00  4.1449656710304E-01 -7.9990203698374E-01
32  3.1000000000000E-01  1.9203723049506E+00  4.3894166227562E-01 -6.9398850658523E-01
33  3.2000000000000E-01  1.9312958728031E+00  4.6322201391935E-01 -5.7659674466051E-01
34  3.3000000000000E-01  1.9325982256358E+00  4.8738545319634E-01 -4.4891412744577E-01
35  3.4000000000000E-01  1.9242308039497E+00  5.1151529715273E-01 -3.1230598003806E-01
36  3.5000000000000E-01  1.9062432369949E+00  5.3572767716678E-01 -1.6829604280067E-01
37  3.6000000000000E-01  1.8787812071620E+00  5.6016741734246E-01 -1.8543758006368E-02
38  3.7000000000000E-01  1.8420828052784E+00  5.8500257548935E-01  1.3518122022212E-01
39  3.8000000000000E-01  1.7964734775429E+00  6.1041781310851E-01  2.9102681569480E-01
40  3.9000000000000E-01  1.7423597008315E+00  6.3660680935945E-01  4.4708807938825E-01
41  4.0000000000000E-01  1.6802215547662E+00  6.6376397537947E-01  6.0143790734425E-01
42  4.1000000000000E-01  1.6106043851969E+00  6.9207575787234E-01  7.5215830050863E-01
43  4.2000000000000E-01  1.5341097736694E+00  7.2171184318790E-01  8.9737151979834E-01
44  4.3000000000000E-01  1.4513860403753E+00  7.5281658415522E-01  1.0352704865445E+00
45  4.4000000000000E-01  1.3631185135524E+00  7.8550097109195E-01  1.1641477925387E+00
46  4.5000000000000E-01  1.2700197961711E+00  8.1983545551410E-01  1.2824227150404E+00
47  4.6000000000000E-01  1.1728202510954E+00  8.5584391038722E-01  1.3886656795748E+00
48  4.7000000000000E-01  1.0722589091485E+00  8.9349897501544E-01  1.4816196759065E+00
49  4.8000000000000E-01  9.6907498127147E-01  9.3271898701092E-01  1.5602182084862E+00
50  4.9000000000000E-01  8.6400012714401E-01  9.7336664976975E-01  1.6235994497288E+00
51  5.0000000000000E-01  7.5775159932497E-01  1.0152495233871E+00  1.6711163601457E+00
52  5.1000000000000E-01  6.5102634544895E-01  1.0581223621376E+00  1.7023426407571E+00
53  5.2000000000000E-01  5.4449611267157E-01  1.1016912548877E+00  1.7170744872907E+00
54  5.3000000000000E-01  4.3880355986188E-01  1.1456194585686E+00  1.7153282193047E+00
55  5.4000000000000E-01  3.3455934548016E-01  1.1895347516150E+00  1.6973339573913E+00
56  5.5000000000000E-01  2.3234012409778E-01  1.2330380764906E+00  1.6635256150286E+00
57  5.6000000000000E-01  1.3268735346346E-01  1.2757131903253E+00  1.6145275556479E+00
58  5.7000000000000E-01  3.6106788097434E-02  1.3171370022879E+00  1.5511383376110E+00
59  5.8000000000000E-01 -5.6931484394319E-02  1.3568902472745E+00  1.4743120279736E+00
60  5.9000000000000E-01 -1.4599262098464E-01  1.3945681290690E+00  1.3851376085825E+00
61  6.0000000000000E-01 -2.3067637706500E-01  1.4297905631354E+00  1.2848170241557E+00
62  6.1000000000000E-01 -3.1061639656113E-01  1.4622116599374E+00  1.1746424310595E+00
63  6.2000000000000E-01 -3.8547958883858E-01  1.4915281139503E+00  1.0559731976398E+00
64  6.3000000000000E-01 -4.5496572624479E-01  1.5174862005945E+00  9.3021318286835E-01
65  6.4000000000000E-01 -5.1880737308500E-01  1.5398871319850E+00  7.9878878098988E-01
66  6.5000000000000E-01 -5.7677022836881E-01  1.5585905809529E+00  6.6312816753113E-01
67  6.6000000000000E-01 -6.2865393199413E-01  1.5735162491925E+00  5.2464211866220E-01
68  6.7000000000000E-01 -6.7429334854753E-01  1.5846434272070E+00  3.8470670400525E-01
69  6.8000000000000E-01 -7.1356030612257E-01  1.5920085683191E+00  2.4464807536913E-01
70  6.9000000000000E-01 -7.4636573109738E-01  1.5957009735826E+00  1.0572949349103E-01
71  7.0000000000000E-01 -7.7266208528603E-01  1.5958567561552E+00 -3.0859345335885E-02
72  7.1000000000000E-01 -7.9244598086044E-01  1.5926513197869E+00 -1.6401069796730E-01
73  7.2000000000000E-01 -8.0576082238066E-01  1.5862906439725E+00 -2.9270496493664E-01
74  7.3000000000000E-01 -8.1269930545858E-01  1.5770017156761E+00 -4.1601483232779E-01
75  7.4000000000000E-01 -8.1340558906314E-01  1.5650224824238E+00 -5.3310756722596E-01
76  7.5000000000000E-01 -8.0807695403424E-01  1.5505917224732E+00 -6.4324570980312E-01
77  7.6000000000000E-01 -7.9696476447393E-01  1.5339392337188E+00 -7.4578643292588E-01
78  7.7000000000000E-01 -7.8037456145558E-01  1.5152767335460E+00 -8.4017985448804E-01
79  7.8000000000000E-01 -7.5866513971969E-01  1.4947898371575E+00 -9.2596658849090E-01
80  7.9000000000000E-01 -7.3224648713757E-01  1.4726314426917E+00 -1.0027748088094E+00
81  8.0000000000000E-01 -7.0157650282534E-01  1.4489167990406E+00 -1.0703170757060E+00
82  8.1000000000000E-01 -6.6715645167365E-01  1.4237204684628E+00 -1.1283871410654E+00
83  8.2000000000000E-01 -6.2952515925205E-01  1.3970753231800E+00 -1.1768569060260E+00
84  8.3000000000000E-01 -5.8925199986521E-01  1.3689736357870E+00 -1.2156736564685E+00
85  8.4000000000000E-01 -5.4692878013924E-01  1.3393702404796E+00 -1.2448576502371E+00
86  8.5000000000000E-01 -5.0316066896593E-01  1.3081876589313E+00 -1.2645000776210E+00
87  8.6000000000000E-01 -4.5855636998086E-01  1.2753230043622E+00 -1.2747613661708E+00
88  8.7000000000000E-01 -4.1371777309715E-01  1.2406564030911E+00 -1.2758697548492E+00
89  8.8000000000000E-01 -3.6922935518222E-01  1.2040606076702E+00 -1.2681200231208E+00
90  8.9000000000000E-01 -3.2564762516300E-01  1.1654114222920E+00 -1.2518722298162E+00
91  9.0000000000000E-01 -2.8349092433494E-01  1.1245985219080E+00 -1.2275502959968E+00
92  9.1000000000000E-01 -2.4322989739645E-01  1.0815362233121E+00 -1.1956402566570E+00
93  9.2000000000000E-01 -2.0527894303325E-01  1.0361737607004E+00 -1.1566880084367E+00
94  9.3000000000000E-01 -1.6998893441282E-01  9.8850463072971E-01 -1.1112963945125E+00
95  9.4000000000000E-01 -1.3764146977613E-01  9.3857460305194E-01 -1.0601214928552E+00
96  9.5000000000000E-01 -1.0844487188125E-01  8.8648804127713E-01 -1.0038680088558E+00
97  9.6000000000000E-01 -8.2532103173321E-02  8.3241224530927E-01 -9.4328371619874E-01
98  9.7000000000000E-01 -5.9960702437531E-02  7.7657960735715E-01 -8.7915293851725E-01
99  9.8000000000000E-01 -4.0714779757586E-02  7.1928746864061E-01 -8.1228911621238E-01