Mt    ONCVPSP-4.0.1  r_core=   1.10144   1.30228   1.20485   1.20485
    109.0000     49.0000      211119    zatom,zion,pspd
     8      11   3     4   600     0    pspcod,pspxc,lmax,lloc,mmax,r2well
  5.99000000  5.00000000  0.00000000    rchrg fchrg qchrg
     3     2     2     2     0    nproj
     1     1           extension_switch
   0                         1.5307436335535E+01 -1.4273430531653E+01 -6.1037510936094E-01
     1  0.0000000000000E+00 -8.2065869655423E-09  1.0000985595227E-09 -4.1217665808224E-08
     2  1.0000000000000E-02  2.1227683083411E-01  6.9581901636203E-02 -1.5190505068040E-02
     3  2.0000000000000E-02  4.2223037071400E-01  1.3906659911840E-01 -3.0396920825121E-02
     4  3.0000000000000E-02  6.2756567363247E-01  2.0835635782392E-01 -4.5633314693093E-02
     5  4.0000000000000E-02  8.2604414490925E-01  2.7735239653605E-01 -6.0910232518003E-02
     6  5.0000000000000E-02  1.0155108721037E+00  3.4595439974263E-01 -7.6233338110685E-02
     7  6.0000000000000E-02  1.1939209470560E+00  4.1406007191957E-01 -9.1602500120765E-02
     8  7.0000000000000E-02  1.3593644512845E+00  4.8156474659285E-01 -1.0701142240084E-01
     9  8.0000000000000E-02  1.5100897851773E+00  5.4836106197235E-01 -1.2244787279986E-01
    10  9.0000000000000E-02  1.6445250327142E+00  6.1433871373727E-01 -1.3789451874452E-01
    11  1.0000000000000E-01  1.7612970684357E+00  6.7938429414792E-01 -1.5333032891682E-01
    12  1.1000000000000E-01  1.8592481325878E+00  7.4338122509020E-01 -1.6873245190036E-01
    13  1.2000000000000E-01  1.9374496243481E+00  8.0620979095498E-01 -1.8407843797033E-01
    14  1.3000000000000E-01  1.9952128921879E+00  8.6774727544737E-01 -1.9934863220543E-01
    15  1.4000000000000E-01  2.0320968350059E+00  9.2786820454316E-01 -2.1452853845851E-01
    16  1.5000000000000E-01  2.0479121677483E+00  9.8644469589575E-01 -2.2961093661771E-01
    17  1.6000000000000E-01  2.0427222506341E+00  1.0433469130804E+00 -2.4459753158836E-01
    18  1.7000000000000E-01  2.0168404314204E+00  1.0984436211781E+00 -2.5949992241230E-01
    19  1.8000000000000E-01  1.9708239046726E+00  1.1516028383799E+00 -2.7433970400526E-01
    20  1.9000000000000E-01  1.9054641498106E+00  1.2026925765672E+00 -2.8914755145579E-01
    21  2.0000000000000E-01  1.8217740695910E+00  1.2515816622191E+00 -3.0396118621964E-01
    22  2.1000000000000E-01  1.7209720112475E+00  1.2981406275447E+00 -3.1882218268077E-01
    23  2.2000000000000E-01  1.6044629121845E+00  1.3422426604563E+00 -3.3377163963418E-01
    24  2.3000000000000E-01  1.4738168692143E+00  1.3837646009042E+00 -3.4884481098520E-01
    25  2.4000000000000E-01  1.3307454831147E+00  1.4225879702105E+00 -3.6406485973626E-01
    26  2.5000000000000E-01  1.1770763770560E+00  1.4586000193693E+00 -3.7943596538709E-01
    27  2.6000000000000E-01  1.0147263265878E+00  1.4916947818334E+00 -3.9493607348159E-01
    28  2.7000000000000E-01  8.4567346894244E-01  1.5217741160962E+00 -4.1050962371496E-01
    29  2.8000000000000E-01  6.7192907919252E-01  1.5487487233852E+00 -4.2606062671563E-01
    30  2.9000000000000E-01  4.9550940938565E-01  1.5725391260213E+00 -4.4144647686985E-01
    31  3.0000000000000E-01  3.1840808359004E-01  1.5930765924511E+00 -4.5647288763575E-01
    32  3.1000000000000E-01  1.4256952664995E-01  1.6103039956161E+00 -4.7089031581949E-01
    33  3.2000000000000E-01 -3.0136122425854E-02  1.6241765921759E+00 -4.8439220228578E-01
    34  3.3000000000000E-01 -1.9793619950490E-01  1.6346627111281E+00 -4.9661529952200E-01
    35  3.4000000000000E-01 -3.5917644194023E-01  1.6417443415527E+00 -5.0714228325963E-01
    36  3.5000000000000E-01 -5.1233934467260E-01  1.6454176105325E+00 -5.1550675872271E-01
    37  3.6000000000000E-01 -6.5605970153936E-01  1.6456931437369E+00 -5.2120067551071E-01
    38  3.7000000000000E-01 -7.8913715633975E-01  1.6425963026904E+00 -5.2368406271513E-01
    39  3.8000000000000E-01 -9.1054565994115E-01  1.6361672943449E+00 -5.2239689212141E-01
    40  3.9000000000000E-01 -1.0194398020980E+00  1.6264611502222E+00 -5.1677277697516E-01
    41  4.0000000000000E-01 -1.1151580574294E+00  1.6135475740571E+00 -5.0625412150400E-01
    42  4.1000000000000E-01 -1.1972230519688E+00  1.5975106585402E+00 -4.9030825666751E-01
    43  4.2000000000000E-01 -1.2653390178313E+00  1.5784484733898E+00 -4.6844403449247E-01
    44  4.3000000000000E-01 -1.3193866570368E+00  1.5564725285799E+00 -4.4022831023171E-01
    45  4.4000000000000E-01 -1.3594156799106E+00  1.5317071180639E+00 -4.0530172103446E-01
    46  4.5000000000000E-01 -1.3856353176275E+00  1.5042885507702E+00 -3.6339317343999E-01
    47  4.6000000000000E-01 -1.3984031316750E+00  1.4743642769624E+00 -3.1433248037000E-01
    48  4.7000000000000E-01 -1.3982124550181E+00  1.4420919192616E+00 -2.5806064083755E-01
    49  4.8000000000000E-01 -1.3856788007142E+00  1.4076382186830E+00 -1.9463733066330E-01
    50  4.9000000000000E-01 -1.3615255642716E+00  1.3711779069517E+00 -1.2424526737779E-01
    51  5.0000000000000E-01 -1.3265693271565E+00  1.3328925171092E+00 -4.7191223535455E-02
    52  5.1000000000000E-01 -1.2817050418854E+00  1.2929691450038E+00  3.6096414598528E-02
    53  5.2000000000000E-01 -1.2278913457378E+00  1.2515991746635E+00  1.2507351668359E-01
    54  5.3000000000000E-01 -1.1661362121167E+00  1.2089769807821E+00  2.1908934948340E-01
    55  5.4000000000000E-01 -1.0974831079635E+00  1.1652986216043E+00  3.1739870684971E-01
    56  5.5000000000000E-01 -1.0229977843873E+00  1.1207605353783E+00  4.1917662985669E-01
    57  5.6000000000000E-01 -9.4375578775301E-01  1.0755582532584E+00  5.2353521775696E-01
    58  5.7000000000000E-01 -8.6083074169051E-01  1.0298851410951E+00  6.2954194959758E-01
    59  5.8000000000000E-01 -7.7528341840844E-01  9.8393118195464E-01  7.3623887912768E-01
    60  5.9000000000000E-01 -6.8815159159914E-01  9.3788181047470E-01  8.4266203484628E-01
    61  6.0000000000000E-01 -6.0044064403068E-01  8.9191680930761E-01  9.4786035433216E-01
    62  6.1000000000000E-01 -5.1311489115934E-01  8.4620927693388E-01  1.0509135077864E+00
    63  6.2000000000000E-01 -4.2708957787336E-01  8.0092467507324E-01  1.1509480191461E+00
    64  6.3000000000000E-01 -3.4322350848930E-01  7.5621996279013E-01  1.2471511720861E+00
    65  6.4000000000000E-01 -2.6231227965520E-01  7.1224282320693E-01  1.3387822894100E+00
    66  6.5000000000000E-01 -1.8508210080175E-01  6.6913098752078E-01  1.4251810934030E+00
    67  6.6000000000000E-01 -1.1218420584448E-01  6.2701165978733E-01  1.5057729864435E+00
    68  6.7000000000000E-01 -4.4189881362793E-02  5.8600104470723E-01  1.5800712296740E+00
    69  6.8000000000000E-01  1.8413841302627E-02  5.4620397944643E-01  1.6476761365487E+00
    70  6.9000000000000E-01  7.5227761516830E-02  5.0771366935707E-01  1.7082715312016E+00
    71  7.0000000000000E-01  1.2594326572708E-01  4.7061152635838E-01  1.7616188426153E+00
    72  7.1000000000000E-01  1.7034416456627E-01  4.3496710769970E-01  1.8075493087473E+00
    73  7.2000000000000E-01  2.0830750303802E-01  4.0083815187452E-01  1.8459548450629E+00
    74  7.3000000000000E-01  2.3980323589160E-01  3.6827070759339E-01  1.8767781852934E+00
    75  7.4000000000000E-01  2.6489266805437E-01  3.3729935096461E-01  1.9000029257991E+00
    76  7.5000000000000E-01  2.8372557611280E-01  3.0794748537809E-01  1.9156440971584E+00
    77  7.6000000000000E-01  2.9653595124010E-01  2.8022771804435E-01  1.9237398474121E+00
    78  7.7000000000000E-01  3.0363633609630E-01  2.5414230670598E-01  1.9243447521587E+00
    79  7.8000000000000E-01  3.0541076706980E-01  2.2968366971276E-01  1.9175251702290E+00
    80  7.9000000000000E-01  3.0230637735192E-01  2.0683495242827E-01  1.9033569441435E+00
    81  8.0000000000000E-01  2.9482376393932E-01  1.8557064281063E-01  1.8819256073110E+00
    82  8.1000000000000E-01  2.8350627064050E-01  1.6585722897395E-01  1.8533291112975E+00
    83  8.2000000000000E-01  2.6892838722080E-01  1.4765389158167E-01  1.8176829335152E+00
    84  8.3000000000000E-01  2.5168350954486E-01  1.3091322403782E-01  1.7751272757687E+00
    85  8.4000000000000E-01  2.3237134456482E-01  1.1558197361664E-01  1.7258359247909E+00
    86  8.5000000000000E-01  2.1158527497449E-01  1.0160179689294E-01  1.6700262244261E+00
    87  8.6000000000000E-01  1.8990001925413E-01  8.8910023095530E-02  1.6079695121507E+00
    88  8.7000000000000E-01  1.6785993195972E-01  7.7440419291515E-02  1.5400013058783E+00
    89  8.8000000000000E-01  1.4596828518218E-01  6.7123951611881E-02  1.4665304950305E+00
    90  8.9000000000000E-01  1.2467785435171E-01  5.7889537038567E-02  1.3880467957619E+00
    91  9.0000000000000E-01  1.0438309978405E-01  4.9664780583474E-02  1.3051257754972E+00
    92  9.1000000000000E-01  8.5414189958312E-02  4.2376692993850E-02  1.2184308363349E+00
    93  9.2000000000000E-01  6.8033054485066E-02  3.5952384412096E-02  1.1287116683878E+00
    94  9.3000000000000E-01  5.2431585655840E-02  3.0319729698228E-02  1.0367988390540E+00
    95  9.4000000000000E-01  3.8732029505507E-02  2.5408001388931E-02  9.4359436718699E-01
    96  9.5000000000000E-01  2.6989523060340E-02  2.1148466518437E-02  8.5005833543674E-01
    97  9.6000000000000E-01  1.7196646866044E-02  1.7474943765368E-02  7.5719181176444E-01
    98  9.7000000000000E-01  9.2897742480730E-03  1.4324317618850E-02  6.6601657350790E-01
    99  9.8000000000000E-01  3.1569143986248E-03  1.1637006480665E-02  5.7755234522949E-01
   100  9.9000000000000E-01 -1.3533312720195E-03  9.3573818423264E-03  4.9279246546136E-01
   101  1.0000000000000E+00 -4.4221479006056E-03  7.4341359018548E-03  4.1267907858373E-01
   102  1.0100000000000E+00 -6.2507243775798E-03  5.8205952192527E-03  3.3807909784259E-01
   103  1.0200000000000E+00 -7.0508519390341E-03  4.4749782570136E-03  2.6976229686913E-01
   104  1.0300000000000E+00 -7.0364758246456E-03  3.3605965798886E-03  2.0838296441670E-01
   105  1.0400000000000E+00 -6.4166782215040E-03  2.4459853500656E-03  1.5446641339898E-01
   106  1.0500000000000E+00 -5.3869161685503E-03  1.7039227546546E-03  1.0839586358465E-01
   107  1.0600000000000E+00 -4.0898232644092E-03  1.1046456108774E-03  7.0352177046581E-02
   108  1.0700000000000E+00 -2.7032264368048E-03  6.3739913833552E-04  4.0462075056804E-02
   109  1.0800000000000E+00 -1.4241241764222E-03  2.9817876324760E-04  1.8791745106339E-02
   110  1.0900000000000E+00 -4.5343765771937E-04  8.5446170692769E-05  5.3278907597120E-03
   111  1.1000000000000E+00 -1.4972375775585E-05  2.5588196344118E-06  1.5667468475208E-04
   112  1.1100000000000E+00 -2.1837476405214E-06  3.7477012624296E-07  2.3151327328336E-05
   113  1.1200000000000E+00  2.3932365266581E-07 -4.2763276363626E-08 -2.6572170389145E-06
   114  1.13  0.  0.  0.
   115  1.14  0.  0.  0.
   116  1.15  0.  0.  0.
   117  1.16  0.  0.  0.
   118  1.17  0.  0.  0.
   119  1.18  0.  0.  0.
   120  1.19  0.  0.  0.
   121  1.20  0.  0.  0.
   122  1.21  0.  0.  0.
   123  1.22  0.  0.  0.
   124  1.23  0.  0.  0.
   125  1.24  0.  0.  0.
   126  1.25  0.  0.  0.
   127  1.26  0.  0.  0.
   128  1.27  0.  0.  0.
   129  1.28  0.  0.  0.
   130  1.29  0.  0.  0.
   131  1.30  0.  0.  0.
   132  1.31  0.  0.  0.
   133  1.32  0.  0.  0.
   134  1.33  0.  0.  0.
   135  1.34  0.  0.  0.
   136  1.35  0.  0.  0.
   137  1.36  0.  0.  0.
   138  1.37  0.  0.  0.
   139  1.38  0.  0.  0.
   140  1.39  0.  0.  0.
   141  1.40  0.  0.  0.
   142  1.41  0.  0.  0.
   143  1.42  0.  0.  0.
   144  1.43  0.  0.  0.
   145  1.44  0.  0.  0.
   146  1.45  0.  0.  0.
   147  1.46  0.  0.  0.
   148  1.47  0.  0.  0.
   149  1.48  0.  0.  0.
   150  1.49  0.  0.  0.
   151  1.50  0.  0.  0.
   152  1.51  0.  0.  0.
   153  1.52  0.  0.  0.
   154  1.53  0.  0.  0.
   155  1.54  0.  0.  0.
   156  1.55  0.  0.  0.
   157  1.56  0.  0.  0.
   158  1.57  0.  0.  0.
   159  1.58  0.  0.  0.
   160  1.59  0.  0.  0.
   161  1.60  0.  0.  0.
   162  1.61  0.  0.  0.
   163  1.62  0.  0.  0.
   164  1.63  0.  0.  0.
   165  1.64  0.  0.  0.
   166  1.65  0.  0.  0.
   167  1.66  0.  0.  0.
   168  1.67  0.  0.  0.
   169  1.68  0.  0.  0.
   170  1.69  0.  0.  0.
   171  1.70  0.  0.  0.
   172  1.71  0.  0.  0.
   173  1.72  0.  0.  0.
   174  1.73  0.  0.  0.
   175  1.74  0.  0.  0.
   176  1.75  0.  0.  0.
   177  1.76  0.  0.  0.
   178  1.77  0.  0.  0.
   179  1.78  0.  0.  0.
   180  1.79  0.  0.  0.
   181  1.80  0.  0.  0.
   182  1.81  0.  0.  0.
   183  1.82  0.  0.  0.
   184  1.83  0.  0.  0.
   185  1.84  0.  0.  0.
   186  1.85  0.  0.  0.
   187  1.86  0.  0.  0.
   188  1.87  0.  0.  0.
   189  1.88  0.  0.  0.
   190  1.89  0.  0.  0.
   191  1.90  0.  0.  0.
   192  1.91  0.  0.  0.
   193  1.92  0.  0.  0.
   194  1.93  0.  0.  0.
   195  1.94  0.  0.  0.
   196  1.95  0.  0.  0.
   197  1.96  0.  0.  0.
   198  1.97  0.  0.  0.
   199  1.98  0.  0.  0.
   200  1.99  0.  0.  0.
   201  2.00  0.  0.  0.
   202  2.01  0.  0.  0.
   203  2.02  0.  0.  0.
   204  2.03  0.  0.  0.
   205  2.04  0.  0.  0.
   206  2.05  0.  0.  0.
   207  2.06  0.  0.  0.
   208  2.07  0.  0.  0.
   209  2.08  0.  0.  0.
   210  2.09  0.  0.  0.
   211  2.10  0.  0.  0.
   212  2.11  0.  0.  0.
   213  2.12  0.  0.  0.
   214  2.13  0.  0.  0.
   215  2.14  0.  0.  0.
   216  2.15  0.  0.  0.
   217  2.16  0.  0.  0.
   218  2.17  0.  0.  0.
   219  2.18  0.  0.  0.
   220  2.19  0.  0.  0.
   221  2.20  0.  0.  0.
   222  2.21  0.  0.  0.
   223  2.22  0.  0.  0.
   224  2.23  0.  0.  0.
   225  2.24  0.  0.  0.
   226  2.25  0.  0.  0.
   227  2.26  0.  0.  0.
   228  2.27  0.  0.  0.
   229  2.28  0.  0.  0.
   230  2.29  0.  0.  0.
   231  2.30  0.  0.  0.
   232  2.31  0.  0.  0.
   233  2.32  0.  0.  0.
   234  2.33  0.  0.  0.
   235  2.34  0.  0.  0.
   236  2.35  0.  0.  0.
   237  2.36  0.  0.  0.
   238  2.37  0.  0.  0.
   239  2.38  0.  0.  0.
   240  2.39  0.  0.  0.
   241  2.40  0.  0.  0.
   242  2.41  0.  0.  0.
   243  2.42  0.  0.  0.
   244  2.43  0.  0.  0.
   245  2.44  0.  0.  0.
   246  2.45  0.  0.  0.
   247  2.46  0.  0.  0.
   248  2.47  0.  0.  0.
   249  2.48  0.  0.  0.
   250  2.49  0.  0.  0.
   251  2.50  0.  0.  0.
   252  2.51  0.  0.  0.
   253  2.52  0.  0.  0.
   254  2.53  0.  0.  0.
   255  2.54  0.  0.  0.
   256  2.55  0.  0.  0.
   257  2.56  0.  0.  0.
   258  2.57  0.  0.  0.
   259  2.58  0.  0.  0.
   260  2.59  0.  0.  0.
   261  2.60  0.  0.  0.
   262  2.61  0.  0.  0.
   263  2.62  0.  0.  0.
   264  2.63  0.  0.  0.
   265  2.64  0.  0.  0.
   266  2.65  0.  0.  0.
   267  2.66  0.  0.  0.
   268  2.67  0.  0.  0.
   269  2.68  0.  0.  0.
   270  2.69  0.  0.  0.
   271  2.70  0.  0.  0.
   272  2.71  0.  0.  0.
   273  2.72  0.  0.  0.
   274  2.73  0.  0.  0.
   275  2.74  0.  0.  0.
   276  2.75  0.  0.  0.
   277  2.76  0.  0.  0.
   278  2.77  0.  0.  0.
   279  2.78  0.  0.  0.
   280  2.79  0.  0.  0.
   281  2.80  0.  0.  0.
   282  2.81  0.  0.  0.
   283  2.82  0.  0.  0.
   284  2.83  0.  0.  0.
   285  2.84  0.  0.  0.
   286  2.85  0.  0.  0.
   287  2.86  0.  0.  0.
   288  2.87  0.  0.  0.
   289  2.88  0.  0.  0.
   290  2.89  0.  0.  0.
   291  2.90  0.  0.  0.
   292  2.91  0.  0.  0.
   293  2.92  0.  0.  0.
   294  2.93  0.  0.  0.
   295  2.94  0.  0.  0.
   296  2.95  0.  0.  0.
   297  2.96  0.  0.  0.
   298  2.97  0.  0.  0.
   299  2.98  0.  0.  0.
   300  2.99  0.  0.  0.
   301  3.00  0.  0.  0.
   302  3.01  0.  0.  0.
   303  3.02  0.  0.  0.
   304  3.03  0.  0.  0.
   305  3.04  0.  0.  0.
   306  3.05  0.  0.  0.
   307  3.06  0.  0.  0.
   308  3.07  0.  0.  0.
   309  3.08  0.  0.  0.
   310  3.09  0.  0.  0.
   311  3.10  0.  0.  0.
   312  3.11  0.  0.  0.
   313  3.12  0.  0.  0.
   314  3.13  0.  0.  0.
   315  3.14  0.  0.  0.
   316  3.15  0.  0.  0.
   317  3.16  0.  0.  0.
   318  3.17  0.  0.  0.
   319  3.18  0.  0.  0.
   320  3.19  0.  0.  0.
   321  3.20  0.  0.  0.
   322  3.21  0.  0.  0.
   323  3.22  0.  0.  0.
   324  3.23  0.  0.  0.
   325  3.24  0.  0.  0.
   326  3.25  0.  0.  0.
   327  3.26  0.  0.  0.
   328  3.27  0.  0.  0.
   329  3.28  0.  0.  0.
   330  3.29  0.  0.  0.
   331  3.30  0.  0.  0.
   332  3.31  0.  0.  0.
   333  3.32  0.  0.  0.
   334  3.33  0.  0.  0.
   335  3.34  0.  0.  0.
   336  3.35  0.  0.  0.
   337  3.36  0.  0.  0.
   338  3.37  0.  0.  0.
   339  3.38  0.  0.  0.
   340  3.39  0.  0.  0.
   341  3.40  0.  0.  0.
   342  3.41  0.  0.  0.
   343  3.42  0.  0.  0.
   344  3.43  0.  0.  0.
   345  3.44  0.  0.  0.
   346  3.45  0.  0.  0.
   347  3.46  0.  0.  0.
   348  3.47  0.  0.  0.
   349  3.48  0.  0.  0.
   350  3.49  0.  0.  0.
   351  3.50  0.  0.  0.
   352  3.51  0.  0.  0.
   353  3.52  0.  0.  0.
   354  3.53  0.  0.  0.
   355  3.54  0.  0.  0.
   356  3.55  0.  0.  0.
   357  3.56  0.  0.  0.
   358  3.57  0.  0.  0.
   359  3.58  0.  0.  0.
   360  3.59  0.  0.  0.
   361  3.60  0.  0.  0.
   362  3.61  0.  0.  0.
   363  3.62  0.  0.  0.
   364  3.63  0.  0.  0.
   365  3.64  0.  0.  0.
   366  3.65  0.  0.  0.
   367  3.66  0.  0.  0.
   368  3.67  0.  0.  0.
   369  3.68  0.  0.  0.
   370  3.69  0.  0.  0.
   371  3.70  0.  0.  0.
   372  3.71  0.  0.  0.
   373  3.72  0.  0.  0.
   374  3.73  0.  0.  0.
   375  3.74  0.  0.  0.
   376  3.75  0.  0.  0.
   377  3.76  0.  0.  0.
   378  3.77  0.  0.  0.
   379  3.78  0.  0.  0.
   380  3.79  0.  0.  0.
   381  3.80  0.  0.  0.
   382  3.81  0.  0.  0.
   383  3.82  0.  0.  0.
   384  3.83  0.  0.  0.
   385  3.84  0.  0.  0.
   386  3.85  0.  0.  0.
   387  3.86  0.  0.  0.
   388  3.87  0.  0.  0.
   389  3.88  0.  0.  0.
   390  3.89  0.  0.  0.
   391  3.90  0.  0.  0.
   392  3.91  0.  0.  0.
   393  3.92  0.  0.  0.
   394  3.93  0.  0.  0.
   395  3.94  0.  0.  0.
   396  3.95  0.  0.  0.
   397  3.96  0.  0.  0.
   398  3.97  0.  0.  0.
   399  3.98  0.  0.  0.
   400  3.99  0.  0.  0.
   401  4.00  0.  0.  0.
   402  4.01  0.  0.  0.
   403  4.02  0.  0.  0.
   404  4.03  0.  0.  0.
   405  4.04  0.  0.  0.
   406  4.05  0.  0.  0.
   407  4.06  0.  0.  0.
   408  4.07  0.  0.  0.
   409  4.08  0.  0.  0.
   410  4.09  0.  0.  0.
   411  4.10  0.  0.  0.
   412  4.11  0.  0.  0.
   413  4.12  0.  0.  0.
   414  4.13  0.  0.  0.
   415  4.14  0.  0.  0.
   416  4.15  0.  0.  0.
   417  4.16  0.  0.  0.
   418  4.17  0.  0.  0.
   419  4.18  0.  0.  0.
   420  4.19  0.  0.  0.
   421  4.20  0.  0.  0.
   422  4.21  0.  0.  0.
   423  4.22  0.  0.  0.
   424  4.23  0.  0.  0.
   425  4.24  0.  0.  0.
   426  4.25  0.  0.  0.
   427  4.26  0.  0.  0.
   428  4.27  0.  0.  0.
   429  4.28  0.  0.  0.
   430  4.29  0.  0.  0.
   431  4.30  0.  0.  0.
   432  4.31  0.  0.  0.
   433  4.32  0.  0.  0.
   434  4.33  0.  0.  0.
   435  4.34  0.  0.  0.
   436  4.35  0.  0.  0.
   437  4.36  0.  0.  0.
   438  4.37  0.  0.  0.
   439  4.38  0.  0.  0.
   440  4.39  0.  0.  0.
   441  4.40  0.  0.  0.
   442  4.41  0.  0.  0.
   443  4.42  0.  0.  0.
   444  4.43  0.  0.  0.
   445  4.44  0.  0.  0.
   446  4.45  0.  0.  0.
   447  4.46  0.  0.  0.
   448  4.47  0.  0.  0.
   449  4.48  0.  0.  0.
   450  4.49  0.  0.  0.
   451  4.50  0.  0.  0.
   452  4.51  0.  0.  0.
   453  4.52  0.  0.  0.
   454  4.53  0.  0.  0.
   455  4.54  0.  0.  0.
   456  4.55  0.  0.  0.
   457  4.56  0.  0.  0.
   458  4.57  0.  0.  0.
   459  4.58  0.  0.  0.
   460  4.59  0.  0.  0.
   461  4.60  0.  0.  0.
   462  4.61  0.  0.  0.
   463  4.62  0.  0.  0.
   464  4.63  0.  0.  0.
   465  4.64  0.  0.  0.
   466  4.65  0.  0.  0.
   467  4.66  0.  0.  0.
   468  4.67  0.  0.  0.
   469  4.68  0.  0.  0.
   470  4.69  0.  0.  0.
   471  4.70  0.  0.  0.
   472  4.71  0.  0.  0.
   473  4.72  0.  0.  0.
   474  4.73  0.  0.  0.
   475  4.74  0.  0.  0.
   476  4.75  0.  0.  0.
   477  4.76  0.  0.  0.
   478  4.77  0.  0.  0.
   479  4.78  0.  0.  0.
   480  4.79  0.  0.  0.
   481  4.80  0.  0.  0.
   482  4.81  0.  0.  0.
   483  4.82  0.  0.  0.
   484  4.83  0.  0.  0.
   485  4.84  0.  0.  0.
   486  4.85  0.  0.  0.
   487  4.86  0.  0.  0.
   488  4.87  0.  0.  0.
   489  4.88  0.  0.  0.
   490  4.89  0.  0.  0.
   491  4.90  0.  0.  0.
   492  4.91  0.  0.  0.
   493  4.92  0.  0.  0.
   494  4.93  0.  0.  0.
   495  4.94  0.  0.  0.
   496  4.95  0.  0.  0.
   497  4.96  0.  0.  0.
   498  4.97  0.  0.  0.
   499  4.98  0.  0.  0.
   500  4.99  0.  0.  0.
   501  5.00  0.  0.  0.
   502  5.01  0.  0.  0.
   503  5.02  0.  0.  0.
   504  5.03  0.  0.  0.
   505  5.04  0.  0.  0.
   506  5.05  0.  0.  0.
   507  5.06  0.  0.  0.
   508  5.07  0.  0.  0.
   509  5.08  0.  0.  0.
   510  5.09  0.  0.  0.
   511  5.10  0.  0.  0.
   512  5.11  0.  0.  0.
   513  5.12  0.  0.  0.
   514  5.13  0.  0.  0.
   515  5.14  0.  0.  0.
   516  5.15  0.  0.  0.
   517  5.16  0.  0.  0.
   518  5.17  0.  0.  0.
   519  5.18  0.  0.  0.
   520  5.19  0.  0.  0.
   521  5.20  0.  0.  0.
   522  5.21  0.  0.  0.
   523  5.22  0.  0.  0.
   524  5.23  0.  0.  0.
   525  5.24  0.  0.  0.
   526  5.25  0.  0.  0.
   527  5.26  0.  0.  0.
   528  5.27  0.  0.  0.
   529  5.28  0.  0.  0.
   530  5.29  0.  0.  0.
   531  5.30  0.  0.  0.
   532  5.31  0.  0.  0.
   533  5.32  0.  0.  0.
   534  5.33  0.  0.  0.
   535  5.34  0.  0.  0.
   536  5.35  0.  0.  0.
   537  5.36  0.  0.  0.
   538  5.37  0.  0.  0.
   539  5.38  0.  0.  0.
   540  5.39  0.  0.  0.
   541  5.40  0.  0.  0.
   542  5.41  0.  0.  0.
   543  5.42  0.  0.  0.
   544  5.43  0.  0.  0.
   545  5.44  0.  0.  0.
   546  5.45  0.  0.  0.
   547  5.46  0.  0.  0.
   548  5.47  0.  0.  0.
   549  5.48  0.  0.  0.
   550  5.49  0.  0.  0.
   551  5.50  0.  0.  0.
   552  5.51  0.  0.  0.
   553  5.52  0.  0.  0.
   554  5.53  0.  0.  0.
   555  5.54  0.  0.  0.
   556  5.55  0.  0.  0.
   557  5.56  0.  0.  0.
   558  5.57  0.  0.  0.
   559  5.58  0.  0.  0.
   560  5.59  0.  0.  0.
   561  5.60  0.  0.  0.
   562  5.61  0.  0.  0.
   563  5.62  0.  0.  0.
   564  5.63  0.  0.  0.
   565  5.64  0.  0.  0.
   566  5.65  0.  0.  0.
   567  5.66  0.  0.  0.
   568  5.67  0.  0.  0.
   569  5.68  0.  0.  0.
   570  5.69  0.  0.  0.
   571  5.70  0.  0.  0.
   572  5.71  0.  0.  0.
   573  5.72  0.  0.  0.
   574  5.73  0.  0.  0.
   575  5.74  0.  0.  0.
   576  5.75  0.  0.  0.
   577  5.76  0.  0.  0.
   578  5.77  0.  0.  0.
   579  5.78  0.  0.  0.
   580  5.79  0.  0.  0.
   581  5.80  0.  0.  0.
   582  5.81  0.  0.  0.
   583  5.82  0.  0.  0.
   584  5.83  0.  0.  0.
   585  5.84  0.  0.  0.
   586  5.85  0.  0.  0.
   587  5.86  0.  0.  0.
   588  5.87  0.  0.  0.
   589  5.88  0.  0.  0.
   590  5.89  0.  0.  0.
   591  5.90  0.  0.  0.
   592  5.91  0.  0.  0.
   593  5.92  0.  0.  0.
   594  5.93  0.  0.  0.
   595  5.94  0.  0.  0.
   596  5.95  0.  0.  0.
   597  5.96  0.  0.  0.
   598  5.97  0.  0.  0.
   599  5.98  0.  0.  0.
   600  5.99  0.  0.  0.
   1                        -1.2040310517161E+01 -1.1561769142886E+00
     1  0.0000000000000E+00  4.1165624797834E-09 -2.1919772885681E-08
     2  1.0000000000000E-02  2.9929321017999E-03 -4.7859618900077E-03
     3  2.0000000000000E-02  1.1949268692261E-02 -1.9077993047986E-02
     4  3.0000000000000E-02  2.6801836009467E-02 -4.2679403121897E-02
     5  4.0000000000000E-02  4.7439360095157E-02 -7.5265272987486E-02
     6  5.0000000000000E-02  7.3707482249442E-02 -1.1638675843966E-01
     7  6.0000000000000E-02  1.0541016475156E-01 -1.6547702905369E-01
     8  7.0000000000000E-02  1.4231147118460E-01 -2.2185875752439E-01
     9  8.0000000000000E-02  1.8413770158571E-01 -2.8475305287178E-01
    10  9.0000000000000E-02  2.3057985878749E-01 -3.5328971063557E-01
    11  1.0000000000000E-01  2.8129641877226E-01 -4.2651863488063E-01
    12  1.1000000000000E-01  3.3591637467198E-01 -5.0342227077712E-01
    13  1.2000000000000E-01  3.9404252125422E-01 -5.8292887294241E-01
    14  1.3000000000000E-01  4.5525494437132E-01 -6.6392642383485E-01
    15  1.4000000000000E-01  5.1911467794351E-01 -7.4527700842617E-01
    16  1.5000000000000E-01  5.8516748961790E-01 -8.2583144625646E-01
    17  1.6000000000000E-01  6.5294775530747E-01 -9.0444397985068E-01
    18  1.7000000000000E-01  7.2198238237297E-01 -9.7998681935879E-01
    19  1.8000000000000E-01  7.9179474126709E-01 -1.0513643471326E+00
    20  1.9000000000000E-01  8.6190856600364E-01 -1.1175267926837E+00
    21  2.0000000000000E-01  9.3185178483295E-01 -1.1774831979453E+00
    22  2.1000000000000E-01  1.0011602439744E+00 -1.2303135048080E+00
    23  2.2000000000000E-01  1.0693812891520E+00 -1.2751796113033E+00
    24  2.3000000000000E-01  1.1360771719660E+00 -1.3113352593081E+00
    25  2.4000000000000E-01  1.2008282507721E+00 -1.3381346349663E+00
    26  2.5000000000000E-01  1.2632359586941E+00 -1.3550395828487E+00
    27  2.6000000000000E-01  1.3229255146085E+00 -1.3616253558798E+00
    28  2.7000000000000E-01  1.3795483563761E+00 -1.3575848448972E+00
    29  2.8000000000000E-01  1.4327842791913E+00 -1.3427312540297E+00
    30  2.9000000000000E-01  1.4823432656320E+00 -1.3169992105255E+00
    31  3.0000000000000E-01  1.5279669977679E+00 -1.2804443198795E+00
    32  3.1000000000000E-01  1.5694300454642E+00 -1.2332411987597E+00
    33  3.2000000000000E-01  1.6065407287622E+00 -1.1756800389916E+00
    34  3.3000000000000E-01  1.6391416558652E+00 -1.1081617754152E+00
    35  3.4000000000000E-01  1.6671099417803E+00 -1.0311919485073E+00
    36  3.5000000000000E-01  1.6903571159968E+00 -9.4537336900955E-01
    37  3.6000000000000E-01  1.7088287307105E+00 -8.5139770620704E-01
    38  3.7000000000000E-01  1.7225036839693E+00 -7.5003613377384E-01
    39  3.8000000000000E-01  1.7313932747089E+00 -6.4212917711495E-01
    40  3.9000000000000E-01  1.7355400089340E+00 -5.2857591377444E-01
    41  4.0000000000000E-01  1.7350161782646E+00 -4.1032268369674E-01
    42  4.1000000000000E-01  1.7299222336973E+00 -2.8835146890233E-01
    43  4.2000000000000E-01  1.7203849787132E+00 -1.6366810249358E-01
    44  4.3000000000000E-01  1.7065556068044E+00 -3.7290464905448E-02
    45  4.4000000000000E-01  1.6886076090849E+00  8.9763178941814E-02
    46  4.5000000000000E-01  1.6667345779071E+00  2.1648555430911E-01
    47  4.6000000000000E-01  1.6411479323438E+00  3.4189132417946E-01
    48  4.7000000000000E-01  1.6120745910151E+00  4.6502748082469E-01
    49  4.8000000000000E-01  1.5797546170852E+00  5.8498306419083E-01
    50  4.9000000000000E-01  1.5444388593235E+00  7.0089810284729E-01
    51  5.0000000000000E-01  1.5063866119645E+00  8.1197168725949E-01
    52  5.1000000000000E-01  1.4658633147279E+00  9.1746909996191E-01
    53  5.2000000000000E-01  1.4231383128084E+00  1.0167279425690E+00
    54  5.3000000000000E-01  1.3784826949453E+00  1.1091632152030E+00
    55  5.4000000000000E-01  1.3321672258653E+00  1.1942713195826E+00
    56  5.5000000000000E-01  1.2844603874886E+00  1.2716329724665E+00
    57  5.6000000000000E-01  1.2356265413330E+00  1.3409150311370E+00
    58  5.7000000000000E-01  1.1859242225652E+00  1.4018712469420E+00
    59  5.8000000000000E-01  1.1356045741733E+00  1.4543419763858E+00
    60  5.9000000000000E-01  1.0849099277783E+00  1.4982528917026E+00
    61  6.0000000000000E-01  1.0340725357093E+00  1.5336127441245E+00
    62  6.1000000000000E-01  9.8331345714066E-01  1.5605102430440E+00
    63  6.2000000000000E-01  9.3284159935783E-01  1.5791101228910E+00
    64  6.3000000000000E-01  8.8285291359841E-01  1.5896484767253E+00
    65  6.4000000000000E-01  8.3352974341135E-01  1.5924274412756E+00
    66  6.5000000000000E-01  7.8504032210811E-01  1.5878093224133E+00
    67  6.6000000000000E-01  7.3753841464790E-01  1.5762102528709E+00
    68  6.7000000000000E-01  6.9116309820900E-01  1.5580934754469E+00
    69  6.8000000000000E-01  6.4603867475308E-01  1.5339623450475E+00
    70  6.9000000000000E-01  6.0227470808631E-01  1.5043531417957E+00
    71  7.0000000000000E-01  5.5996617725891E-01  1.4698277851992E+00
    72  7.1000000000000E-01  5.1919373761640E-01  1.4309665361190E+00
    73  7.2000000000000E-01  4.8002408041650E-01  1.3883607691735E+00
    74  7.3000000000000E-01  4.4251038164575E-01  1.3426058933574E+00
    75  7.4000000000000E-01  4.0669283050142E-01  1.2942944932211E+00
    76  7.5000000000000E-01  3.7259922793657E-01  1.2440097570608E+00
    77  7.6000000000000E-01  3.4024564568936E-01  1.1923192523696E+00
    78  7.7000000000000E-01  3.0963713632121E-01  1.1397691024147E+00
    79  7.8000000000000E-01  2.8076848496151E-01  1.0868786113670E+00
    80  7.9000000000000E-01  2.5362499369015E-01  1.0341353790247E+00
    81  8.0000000000000E-01  2.2818328977204E-01  9.8199093994624E-01
    82  8.1000000000000E-01  2.0441214928317E-01  9.3085695582334E-01
    83  8.2000000000000E-01  1.8227332802569E-01  8.8110198424973E-01
    84  8.3000000000000E-01  1.6172239201460E-01  8.3304884173649E-01
    85  8.4000000000000E-01  1.4270954022355E-01  7.8697257392028E-01
    86  8.5000000000000E-01  1.2518041269805E-01  7.4309904143341E-01
    87  8.6000000000000E-01  1.0907687757617E-01  7.0160412585792E-01
    88  8.7000000000000E-01  9.4337790997453E-02  6.6261355656196E-01
    89  8.8000000000000E-01  8.0899724327140E-02  6.2620335599405E-01
    90  8.9000000000000E-01  6.8697653575060E-02  5.9240089815579E-01
    91  9.0000000000000E-01  5.7665606344318E-02  5.6118657244416E-01
    92  9.1000000000000E-01  4.7737262105903E-02  5.3249604279999E-01
    93  9.2000000000000E-01  3.8846502060738E-02  5.0622309006392E-01
    94  9.3000000000000E-01  3.0927905321726E-02  4.8222302356754E-01
    95  9.4000000000000E-01  2.3917188625601E-02  4.6031664621543E-01
    96  9.5000000000000E-01  1.7751587268545E-02  4.4029475558762E-01
    97  9.6000000000000E-01  1.2370175451344E-02  4.2192316185535E-01
    98  9.7000000000000E-01  7.7141247190993E-03  4.0494820151139E-01
    99  9.8000000000000E-01  3.7268996875032E-03  3.8910272402694E-01
   100  9.9000000000000E-01  3.5439076115422E-04  3.7411252652967E-01