Mt    ONCVPSP-4.0.1  r_core=   1.10144   1.10144   1.10144   1.20485
109.0000     49.0000      220322    zatom,zion,pspd
8      11   3     4   600     0    pspcod,pspxc,lmax,lloc,mmax,r2well
5.99000000  5.00000000  0.00000000    rchrg fchrg qchrg
3     2     2     2     0    nproj
1     1           extension_switch
0                        -1.4359939312251E+01  9.9294132711823E+00 -3.9018223507536E-01
1  0.0000000000000E+00 -8.9990659368766E-10  3.8290876025471E-08 -8.0778423186545E-08
2  1.0000000000000E-02  7.6659201411709E-02  1.7918851572477E-01 -1.4251745327738E-02
3  2.0000000000000E-02  1.5314428798382E-01  3.5667534996229E-01 -2.8427248577681E-02
4  3.0000000000000E-02  2.2928164321111E-01  5.3077411813770E-01 -4.2450493517387E-02
5  4.0000000000000E-02  3.0489864267074E-01  6.9982904285691E-01 -5.6246156886741E-02
6  5.0000000000000E-02  3.7982413885869E-01  8.6223027948377E-01 -6.9740533857318E-02
7  6.0000000000000E-02  4.5388893329667E-01  1.0164292369284E+00 -8.2863092087172E-02
8  7.0000000000000E-02  5.2692623281618E-01  1.1609538423261E+00 -9.5548758535986E-02
9  8.0000000000000E-02  5.9877208782621E-01  1.2944236599937E+00 -1.0774096242709E-01
10  9.0000000000000E-02  6.6926581139414E-01  1.4155647323192E+00 -1.1939536801375E-01
11  1.0000000000000E-01  7.3825037905614E-01  1.5232239660563E+00 -1.3048413862153E-01
12  1.1000000000000E-01  8.0557281035820E-01  1.6163828450745E+00 -1.4100048564953E-01
13  1.2000000000000E-01  8.7108453414748E-01  1.6941702131658E+00 -1.5096317962649E-01
14  1.3000000000000E-01  9.3464174052137E-01  1.7558738411109E+00 -1.6042064134928E-01
15  1.4000000000000E-01  9.9610572304111E-01  1.8009504735826E+00 -1.6945419502634E-01
16  1.5000000000000E-01  1.0553432152792E+00  1.8290340458405E+00 -1.7818005639460E-01
17  1.6000000000000E-01  1.1122267259578E+00  1.8399417691512E+00 -1.8674964963713E-01
18  1.7000000000000E-01  1.1666348768235E+00  1.8336778082875E+00 -1.9534789849649E-01
19  1.8000000000000E-01  1.2184527469878E+00  1.8104343143754E+00 -2.0418921828960E-01
20  1.9000000000000E-01  1.2675722267446E+00  1.7705896309573E+00 -2.1351104372481E-01
21  2.0000000000000E-01  1.3138923828830E+00  1.7147035588073E+00 -2.2356485784949E-01
22  2.1000000000000E-01  1.3573198362831E+00  1.6435096433977E+00 -2.3460483387215E-01
23  2.2000000000000E-01  1.3977691511673E+00  1.5579045349187E+00 -2.4687435644356E-01
24  2.3000000000000E-01  1.4351632338395E+00  1.4589345608440E+00 -2.6059084377205E-01
25  2.4000000000000E-01  1.4694337371580E+00  1.3477797412876E+00 -2.7592943769149E-01
26  2.5000000000000E-01  1.5005214654206E+00  1.2257355637141E+00 -2.9300625651752E-01
27  2.6000000000000E-01  1.5283767728849E+00  1.0941929119005E+00 -3.1186200668787E-01
28  2.7000000000000E-01  1.5529599478641E+00  9.5461661056524E-01 -3.3244681625567E-01
29  2.8000000000000E-01  1.5742415733063E+00  8.0852309839426E-01 -3.5460718015746E-01
30  2.9000000000000E-01  1.5922028540460E+00  6.5745777551944E-01 -3.7807588951712E-01
31  3.0000000000000E-01  1.6068359005471E+00  5.0297258481630E-01 -4.0246575289187E-01
32  3.1000000000000E-01  1.6181439589825E+00  3.4660437854613E-01 -4.2726780648449E-01
33  3.2000000000000E-01  1.6261415779224E+00  1.8985459267856E-01 -4.5185455554600E-01
34  3.3000000000000E-01  1.6308547027361E+00  3.4170701494422E-02 -4.7548859548599E-01
35  3.4000000000000E-01  1.6323206900240E+00 -1.1907014344784E-01 -4.9733673588414E-01
36  3.5000000000000E-01  1.6305882359569E+00 -2.6857497052205E-01 -5.1648950292428E-01
37  3.6000000000000E-01  1.6257172142504E+00 -4.1314611921560E-01 -5.3198563664489E-01
38  3.7000000000000E-01  1.6177784215756E+00 -5.5168952884249E-01 -5.4284094084002E-01
39  3.8000000000000E-01  1.6068532304261E+00 -6.8322017803261E-01 -5.4808059806167E-01
40  3.9000000000000E-01  1.5930331517433E+00 -8.0686477699563E-01 -5.4677384257149E-01
41  4.0000000000000E-01  1.5764193118451E+00 -9.2186191749659E-01 -5.3806970223158E-01
42  4.1000000000000E-01  1.5571218503362E+00 -1.0275599779154E+00 -5.2123238693471E-01
43  4.2000000000000E-01  1.5352592475956E+00 -1.1234131584220E+00 -4.9567482517179E-01
44  4.3000000000000E-01  1.5109575920779E+00 -1.2089760805412E+00 -4.6098883830243E-01
45  4.4000000000000E-01  1.4843497989527E+00 -1.2838974233739E+00 -4.1697049790934E-01
46  4.5000000000000E-01  1.4555747924953E+00 -1.3479130836061E+00 -3.6363933611576E-01
47  4.6000000000000E-01  1.4247766650956E+00 -1.4008393373570E+00 -3.0125026959540E-01
48  4.7000000000000E-01  1.3921038257543E+00 -1.4425664492004E+00 -2.3029734967633E-01
49  4.8000000000000E-01  1.3577081504923E+00 -1.4730531187515E+00 -1.5150875483869E-01
50  4.9000000000000E-01  1.3217441462320E+00 -1.4923220805476E+00 -6.5832786674577E-02
51  5.0000000000000E-01  1.2843681384589E+00 -1.5004570820351E+00  2.5584997709304E-02
52  5.1000000000000E-01  1.2457374913985E+00 -1.4976013616002E+00  1.2143300032319E-01
53  5.2000000000000E-01  1.2060098676207E+00 -1.4839576386905E+00  2.2027224895035E-01
54  5.3000000000000E-01  1.1653425319877E+00 -1.4597895165253E+00  3.2058126450149E-01
55  5.4000000000000E-01  1.1238917027940E+00 -1.4254240902151E+00  4.2080556037665E-01
56  5.5000000000000E-01  1.0818119508906E+00 -1.3812554547701E+00  5.1940994241925E-01
57  5.6000000000000E-01  1.0392556456387E+00 -1.3277487235724E+00  6.1493158378382E-01
58  5.7000000000000E-01  9.9637244479180E-01 -1.2654441029709E+00  7.0603173452872E-01
59  5.8000000000000E-01  9.5330882392577E-01 -1.1949605264372E+00  7.9154389913440E-01
60  5.9000000000000E-01  9.1020763990299E-01 -1.1169983349358E+00  8.7051638098239E-01
61  6.0000000000000E-01  8.6720772211113E-01 -1.0323405003887E+00  9.4224725171801E-01
62  6.1000000000000E-01  8.2444348489201E-01 -9.4185192668684E-01  1.0063100518868E+00
63  6.2000000000000E-01  7.8204455468580E-01 -8.4647642667732E-01  1.0625688597262E+00
64  6.3000000000000E-01  7.4013540595048E-01 -7.4723106170342E-01  1.1111817661065E+00
65  6.4000000000000E-01  6.9883500084807E-01 -6.4519763918369E-01  1.1525922504358E+00
66  6.5000000000000E-01  6.5825642897132E-01 -5.4151128889323E-01  1.1875084470346E+00
67  6.6000000000000E-01  6.1850654495286E-01 -4.3734617468737E-01  1.2168708039622E+00
68  6.7000000000000E-01  5.7968560357568E-01 -3.3389853934777E-01  1.2418091449925E+00
69  6.8000000000000E-01  5.4188689390081E-01 -2.3236741960345E-01  1.2635906283324E+00
70  6.9000000000000E-01  5.0519637585048E-01 -1.3393349964139E-01  1.2835605310956E+00
71  7.0000000000000E-01  4.6969232453464E-01 -3.9736688196150E-02  1.3030781561648E+00
72  7.1000000000000E-01  4.3544498929210E-01  4.9146899281523E-02  1.3234504399293E+00
73  7.2000000000000E-01  4.0251627584323E-01  1.3172780098408E-01  1.3458660205686E+00
74  7.3000000000000E-01  3.7095946104384E-01  2.0712511798660E-01  1.3713325961215E+00
75  7.4000000000000E-01  3.4081895042314E-01  2.7458667002859E-01  1.4006203529838E+00
76  7.5000000000000E-01  3.1213008893705E-01  3.3350662090506E-01  1.4342140771449E+00
77  7.6000000000000E-01  2.8491903514401E-01  3.8343985609858E-01  1.4722762758146E+00
78  7.7000000000000E-01  2.5920270830765E-01  4.2411248753751E-01  1.5146232447367E+00
79  7.8000000000000E-01  2.3498881676415E-01  4.5542798235341E-01  1.5607155298353E+00
80  7.9000000000000E-01  2.1227597429941E-01  4.7746855986474E-01  1.6096636688276E+00
81  8.0000000000000E-01  1.9105390931604E-01  4.9049166815318E-01  1.6602494806603E+00
82  8.1000000000000E-01  1.7130376930889E-01  4.9492153187887E-01  1.7109625228159E+00
83  8.2000000000000E-01  1.5299852069542E-01  4.9133594903817E-01  1.7600506852883E+00
84  8.3000000000000E-01  1.3610344146301E-01  4.8044869837167E-01  1.8055832629063E+00
85  8.4000000000000E-01  1.2057670150410E-01  4.6308809314274E-01  1.8455242720287E+00
86  8.5000000000000E-01  1.0637002301602E-01  4.4017237331869E-01  1.8778132793509E+00
87  8.6000000000000E-01  9.3429411050363E-02  4.1268275967014E-01  1.9004506130086E+00
88  8.7000000000000E-01  8.1695942300298E-02  3.8163509372773E-01  1.9115835491092E+00
89  8.8000000000000E-01  7.1106598597804E-02  3.4805105186382E-01  1.9095899254611E+00
90  8.9000000000000E-01  6.1595130422626E-02  3.1292994640754E-01  1.8931556385220E+00
91  9.0000000000000E-01  5.3092935050666E-02  2.7722210968697E-01  1.8613426334963E+00
92  9.1000000000000E-01  4.5529933818081E-02  2.4180479800439E-01  1.8136442989521E+00
93  9.2000000000000E-01  3.8835433354242E-02  2.0746145336729E-01  1.7500256179476E+00
94  9.3000000000000E-01  3.2938956524051E-02  1.7486502464843E-01  1.6709459930959E+00
95  9.4000000000000E-01  2.7771030178416E-02  1.4456588173844E-01  1.5773633332425E+00
96  9.5000000000000E-01  2.3263918580849E-02  1.1698466261884E-01  1.4707187397789E+00
97  9.6000000000000E-01  1.9352293481283E-02  9.2410181777687E-02  1.3529019323948E+00
98  9.7000000000000E-01  1.5973834152795E-02  7.1002307618974E-02  1.2261983756680E+00
99  9.8000000000000E-01  1.3069753192634E-02  5.2799495517905E-02  1.0932198765807E+00
100  9.9000000000000E-01  1.0585246406885E-02  3.7730451347382E-02  9.5682118521289E-01
101  1.0000000000000E+00  8.4698675441521E-03  2.5629206431985E-02  8.2000581543904E-01
102  1.0100000000000E+00  6.6778309113522E-03  1.6252717631891E-02  6.8582487915449E-01
103  1.0200000000000E+00  5.1682469023974E-03  9.2999728298564E-03  5.5727317156422E-01
104  1.0300000000000E+00  3.9052988859549E-03  4.4314817782824E-03  4.3718704390834E-01
105  1.0400000000000E+00  2.8583550703101E-03  1.2880844253803E-03  3.2814859226615E-01
106  1.0500000000000E+00  2.0009248748085E-03 -4.8818427073727E-04  2.3239624248707E-01
107  1.0600000000000E+00  1.3032859167193E-03 -1.2017797862352E-03  1.5170676498061E-01
108  1.0700000000000E+00  7.5551963045143E-04 -1.1853346008966E-03  8.7452220634434E-02
109  1.0800000000000E+00  3.5507342912229E-04 -7.7365388659907E-04  4.0556861618540E-02
110  1.0900000000000E+00  1.0222172776893E-04 -2.8094020198127E-04  1.1436643401964E-02
111  1.1000000000000E+00  3.0748162739226E-06 -1.0172424850828E-05  3.3305626156430E-04
112  1.1100000000000E+00  4.5053447374461E-07 -1.4732618353891E-06  4.9278797624967E-05
113  1.1200000000000E+00 -5.1306042062604E-08  1.5565262470410E-07 -5.6765904659822E-06
114  1.13  0.  0.  0.
115  1.14  0.  0.  0.
116  1.15  0.  0.  0.
117  1.16  0.  0.  0.
118  1.17  0.  0.  0.
119  1.18  0.  0.  0.
120  1.19  0.  0.  0.
121  1.20  0.  0.  0.
122  1.21  0.  0.  0.
123  1.22  0.  0.  0.
124  1.23  0.  0.  0.
125  1.24  0.  0.  0.
126  1.25  0.  0.  0.
127  1.26  0.  0.  0.
128  1.27  0.  0.  0.
129  1.28  0.  0.  0.
130  1.29  0.  0.  0.
131  1.30  0.  0.  0.
132  1.31  0.  0.  0.
133  1.32  0.  0.  0.
134  1.33  0.  0.  0.
135  1.34  0.  0.  0.
136  1.35  0.  0.  0.
137  1.36  0.  0.  0.
138  1.37  0.  0.  0.
139  1.38  0.  0.  0.
140  1.39  0.  0.  0.
141  1.40  0.  0.  0.
142  1.41  0.  0.  0.
143  1.42  0.  0.  0.
144  1.43  0.  0.  0.
145  1.44  0.  0.  0.
146  1.45  0.  0.  0.
147  1.46  0.  0.  0.
148  1.47  0.  0.  0.
149  1.48  0.  0.  0.
150  1.49  0.  0.  0.
151  1.50  0.  0.  0.
152  1.51  0.  0.  0.
153  1.52  0.  0.  0.
154  1.53  0.  0.  0.
155  1.54  0.  0.  0.
156  1.55  0.  0.  0.
157  1.56  0.  0.  0.
158  1.57  0.  0.  0.
159  1.58  0.  0.  0.
160  1.59  0.  0.  0.
161  1.60  0.  0.  0.
162  1.61  0.  0.  0.
163  1.62  0.  0.  0.
164  1.63  0.  0.  0.
165  1.64  0.  0.  0.
166  1.65  0.  0.  0.
167  1.66  0.  0.  0.
168  1.67  0.  0.  0.
169  1.68  0.  0.  0.
170  1.69  0.  0.  0.
171  1.70  0.  0.  0.
172  1.71  0.  0.  0.
173  1.72  0.  0.  0.
174  1.73  0.  0.  0.
175  1.74  0.  0.  0.
176  1.75  0.  0.  0.
177  1.76  0.  0.  0.
178  1.77  0.  0.  0.
179  1.78  0.  0.  0.
180  1.79  0.  0.  0.
181  1.80  0.  0.  0.
182  1.81  0.  0.  0.
183  1.82  0.  0.  0.
184  1.83  0.  0.  0.
185  1.84  0.  0.  0.
186  1.85  0.  0.  0.
187  1.86  0.  0.  0.
188  1.87  0.  0.  0.
189  1.88  0.  0.  0.
190  1.89  0.  0.  0.
191  1.90  0.  0.  0.
192  1.91  0.  0.  0.
193  1.92  0.  0.  0.
194  1.93  0.  0.  0.
195  1.94  0.  0.  0.
196  1.95  0.  0.  0.
197  1.96  0.  0.  0.
198  1.97  0.  0.  0.
199  1.98  0.  0.  0.
200  1.99  0.  0.  0.
201  2.00  0.  0.  0.
202  2.01  0.  0.  0.
203  2.02  0.  0.  0.
204  2.03  0.  0.  0.
205  2.04  0.  0.  0.
206  2.05  0.  0.  0.
207  2.06  0.  0.  0.
208  2.07  0.  0.  0.
209  2.08  0.  0.  0.
210  2.09  0.  0.  0.
211  2.10  0.  0.  0.
212  2.11  0.  0.  0.
213  2.12  0.  0.  0.
214  2.13  0.  0.  0.
215  2.14  0.  0.  0.
216  2.15  0.  0.  0.
217  2.16  0.  0.  0.
218  2.17  0.  0.  0.
219  2.18  0.  0.  0.
220  2.19  0.  0.  0.
221  2.20  0.  0.  0.
222  2.21  0.  0.  0.
223  2.22  0.  0.  0.
224  2.23  0.  0.  0.
225  2.24  0.  0.  0.
226  2.25  0.  0.  0.
227  2.26  0.  0.  0.
228  2.27  0.  0.  0.
229  2.28  0.  0.  0.
230  2.29  0.  0.  0.
231  2.30  0.  0.  0.
232  2.31  0.  0.  0.
233  2.32  0.  0.  0.
234  2.33  0.  0.  0.
235  2.34  0.  0.  0.
236  2.35  0.  0.  0.
237  2.36  0.  0.  0.
238  2.37  0.  0.  0.
239  2.38  0.  0.  0.
240  2.39  0.  0.  0.
241  2.40  0.  0.  0.
242  2.41  0.  0.  0.
243  2.42  0.  0.  0.
244  2.43  0.  0.  0.
245  2.44  0.  0.  0.
246  2.45  0.  0.  0.
247  2.46  0.  0.  0.
248  2.47  0.  0.  0.
249  2.48  0.  0.  0.
250  2.49  0.  0.  0.
251  2.50  0.  0.  0.
252  2.51  0.  0.  0.
253  2.52  0.  0.  0.
254  2.53  0.  0.  0.
255  2.54  0.  0.  0.
256  2.55  0.  0.  0.
257  2.56  0.  0.  0.
258  2.57  0.  0.  0.
259  2.58  0.  0.  0.
260  2.59  0.  0.  0.
261  2.60  0.  0.  0.
262  2.61  0.  0.  0.
263  2.62  0.  0.  0.
264  2.63  0.  0.  0.
265  2.64  0.  0.  0.
266  2.65  0.  0.  0.
267  2.66  0.  0.  0.
268  2.67  0.  0.  0.
269  2.68  0.  0.  0.
270  2.69  0.  0.  0.
271  2.70  0.  0.  0.
272  2.71  0.  0.  0.
273  2.72  0.  0.  0.
274  2.73  0.  0.  0.
275  2.74  0.  0.  0.
276  2.75  0.  0.  0.
277  2.76  0.  0.  0.
278  2.77  0.  0.  0.
279  2.78  0.  0.  0.
280  2.79  0.  0.  0.
281  2.80  0.  0.  0.
282  2.81  0.  0.  0.
283  2.82  0.  0.  0.
284  2.83  0.  0.  0.
285  2.84  0.  0.  0.
286  2.85  0.  0.  0.
287  2.86  0.  0.  0.
288  2.87  0.  0.  0.
289  2.88  0.  0.  0.
290  2.89  0.  0.  0.
291  2.90  0.  0.  0.
292  2.91  0.  0.  0.
293  2.92  0.  0.  0.
294  2.93  0.  0.  0.
295  2.94  0.  0.  0.
296  2.95  0.  0.  0.
297  2.96  0.  0.  0.
298  2.97  0.  0.  0.
299  2.98  0.  0.  0.
300  2.99  0.  0.  0.
301  3.00  0.  0.  0.
302  3.01  0.  0.  0.
303  3.02  0.  0.  0.
304  3.03  0.  0.  0.
305  3.04  0.  0.  0.
306  3.05  0.  0.  0.
307  3.06  0.  0.  0.
308  3.07  0.  0.  0.
309  3.08  0.  0.  0.
310  3.09  0.  0.  0.
311  3.10  0.  0.  0.
312  3.11  0.  0.  0.
313  3.12  0.  0.  0.
314  3.13  0.  0.  0.
315  3.14  0.  0.  0.
316  3.15  0.  0.  0.
317  3.16  0.  0.  0.
318  3.17  0.  0.  0.
319  3.18  0.  0.  0.
320  3.19  0.  0.  0.
321  3.20  0.  0.  0.
322  3.21  0.  0.  0.
323  3.22  0.  0.  0.
324  3.23  0.  0.  0.
325  3.24  0.  0.  0.
326  3.25  0.  0.  0.
327  3.26  0.  0.  0.
328  3.27  0.  0.  0.
329  3.28  0.  0.  0.
330  3.29  0.  0.  0.
331  3.30  0.  0.  0.
332  3.31  0.  0.  0.
333  3.32  0.  0.  0.
334  3.33  0.  0.  0.
335  3.34  0.  0.  0.
336  3.35  0.  0.  0.
337  3.36  0.  0.  0.
338  3.37  0.  0.  0.
339  3.38  0.  0.  0.
340  3.39  0.  0.  0.
341  3.40  0.  0.  0.
342  3.41  0.  0.  0.
343  3.42  0.  0.  0.
344  3.43  0.  0.  0.
345  3.44  0.  0.  0.
346  3.45  0.  0.  0.
347  3.46  0.  0.  0.
348  3.47  0.  0.  0.
349  3.48  0.  0.  0.
350  3.49  0.  0.  0.
351  3.50  0.  0.  0.
352  3.51  0.  0.  0.
353  3.52  0.  0.  0.
354  3.53  0.  0.  0.
355  3.54  0.  0.  0.
356  3.55  0.  0.  0.
357  3.56  0.  0.  0.
358  3.57  0.  0.  0.
359  3.58  0.  0.  0.
360  3.59  0.  0.  0.
361  3.60  0.  0.  0.
362  3.61  0.  0.  0.
363  3.62  0.  0.  0.
364  3.63  0.  0.  0.
365  3.64  0.  0.  0.
366  3.65  0.  0.  0.
367  3.66  0.  0.  0.
368  3.67  0.  0.  0.
369  3.68  0.  0.  0.
370  3.69  0.  0.  0.
371  3.70  0.  0.  0.
372  3.71  0.  0.  0.
373  3.72  0.  0.  0.
374  3.73  0.  0.  0.
375  3.74  0.  0.  0.
376  3.75  0.  0.  0.
377  3.76  0.  0.  0.
378  3.77  0.  0.  0.
379  3.78  0.  0.  0.
380  3.79  0.  0.  0.
381  3.80  0.  0.  0.
382  3.81  0.  0.  0.
383  3.82  0.  0.  0.
384  3.83  0.  0.  0.
385  3.84  0.  0.  0.
386  3.85  0.  0.  0.
387  3.86  0.  0.  0.
388  3.87  0.  0.  0.
389  3.88  0.  0.  0.
390  3.89  0.  0.  0.
391  3.90  0.  0.  0.
392  3.91  0.  0.  0.
393  3.92  0.  0.  0.
394  3.93  0.  0.  0.
395  3.94  0.  0.  0.
396  3.95  0.  0.  0.
397  3.96  0.  0.  0.
398  3.97  0.  0.  0.
399  3.98  0.  0.  0.
400  3.99  0.  0.  0.
401  4.00  0.  0.  0.
402  4.01  0.  0.  0.
403  4.02  0.  0.  0.
404  4.03  0.  0.  0.
405  4.04  0.  0.  0.
406  4.05  0.  0.  0.
407  4.06  0.  0.  0.
408  4.07  0.  0.  0.
409  4.08  0.  0.  0.
410  4.09  0.  0.  0.
411  4.10  0.  0.  0.
412  4.11  0.  0.  0.
413  4.12  0.  0.  0.
414  4.13  0.  0.  0.
415  4.14  0.  0.  0.
416  4.15  0.  0.  0.
417  4.16  0.  0.  0.
418  4.17  0.  0.  0.
419  4.18  0.  0.  0.
420  4.19  0.  0.  0.
421  4.20  0.  0.  0.
422  4.21  0.  0.  0.
423  4.22  0.  0.  0.
424  4.23  0.  0.  0.
425  4.24  0.  0.  0.
426  4.25  0.  0.  0.
427  4.26  0.  0.  0.
428  4.27  0.  0.  0.
429  4.28  0.  0.  0.
430  4.29  0.  0.  0.
431  4.30  0.  0.  0.
432  4.31  0.  0.  0.
433  4.32  0.  0.  0.
434  4.33  0.  0.  0.
435  4.34  0.  0.  0.
436  4.35  0.  0.  0.
437  4.36  0.  0.  0.
438  4.37  0.  0.  0.
439  4.38  0.  0.  0.
440  4.39  0.  0.  0.
441  4.40  0.  0.  0.
442  4.41  0.  0.  0.
443  4.42  0.  0.  0.
444  4.43  0.  0.  0.
445  4.44  0.  0.  0.
446  4.45  0.  0.  0.
447  4.46  0.  0.  0.
448  4.47  0.  0.  0.
449  4.48  0.  0.  0.
450  4.49  0.  0.  0.
451  4.50  0.  0.  0.
452  4.51  0.  0.  0.
453  4.52  0.  0.  0.
454  4.53  0.  0.  0.
455  4.54  0.  0.  0.
456  4.55  0.  0.  0.
457  4.56  0.  0.  0.
458  4.57  0.  0.  0.
459  4.58  0.  0.  0.
460  4.59  0.  0.  0.
461  4.60  0.  0.  0.
462  4.61  0.  0.  0.
463  4.62  0.  0.  0.
464  4.63  0.  0.  0.
465  4.64  0.  0.  0.
466  4.65  0.  0.  0.
467  4.66  0.  0.  0.
468  4.67  0.  0.  0.
469  4.68  0.  0.  0.
470  4.69  0.  0.  0.
471  4.70  0.  0.  0.
472  4.71  0.  0.  0.
473  4.72  0.  0.  0.
474  4.73  0.  0.  0.
475  4.74  0.  0.  0.
476  4.75  0.  0.  0.
477  4.76  0.  0.  0.
478  4.77  0.  0.  0.
479  4.78  0.  0.  0.
480  4.79  0.  0.  0.
481  4.80  0.  0.  0.
482  4.81  0.  0.  0.
483  4.82  0.  0.  0.
484  4.83  0.  0.  0.
485  4.84  0.  0.  0.
486  4.85  0.  0.  0.
487  4.86  0.  0.  0.
488  4.87  0.  0.  0.
489  4.88  0.  0.  0.
490  4.89  0.  0.  0.
491  4.90  0.  0.  0.
492  4.91  0.  0.  0.
493  4.92  0.  0.  0.
494  4.93  0.  0.  0.
495  4.94  0.  0.  0.
496  4.95  0.  0.  0.
497  4.96  0.  0.  0.
498  4.97  0.  0.  0.
499  4.98  0.  0.  0.
500  4.99  0.  0.  0.
501  5.00  0.  0.  0.
502  5.01  0.  0.  0.
503  5.02  0.  0.  0.
504  5.03  0.  0.  0.
505  5.04  0.  0.  0.
506  5.05  0.  0.  0.
507  5.06  0.  0.  0.
508  5.07  0.  0.  0.
509  5.08  0.  0.  0.
510  5.09  0.  0.  0.
511  5.10  0.  0.  0.
512  5.11  0.  0.  0.
513  5.12  0.  0.  0.
514  5.13  0.  0.  0.
515  5.14  0.  0.  0.
516  5.15  0.  0.  0.
517  5.16  0.  0.  0.
518  5.17  0.  0.  0.
519  5.18  0.  0.  0.
520  5.19  0.  0.  0.
521  5.20  0.  0.  0.
522  5.21  0.  0.  0.
523  5.22  0.  0.  0.
524  5.23  0.  0.  0.
525  5.24  0.  0.  0.
526  5.25  0.  0.  0.
527  5.26  0.  0.  0.
528  5.27  0.  0.  0.
529  5.28  0.  0.  0.
530  5.29  0.  0.  0.
531  5.30  0.  0.  0.
532  5.31  0.  0.  0.
533  5.32  0.  0.  0.
534  5.33  0.  0.  0.
535  5.34  0.  0.  0.
536  5.35  0.  0.  0.
537  5.36  0.  0.  0.
538  5.37  0.  0.  0.
539  5.38  0.  0.  0.
540  5.39  0.  0.  0.
541  5.40  0.  0.  0.
542  5.41  0.  0.  0.
543  5.42  0.  0.  0.
544  5.43  0.  0.  0.
545  5.44  0.  0.  0.
546  5.45  0.  0.  0.
547  5.46  0.  0.  0.
548  5.47  0.  0.  0.
549  5.48  0.  0.  0.
550  5.49  0.  0.  0.
551  5.50  0.  0.  0.
552  5.51  0.  0.  0.
553  5.52  0.  0.  0.
554  5.53  0.  0.  0.
555  5.54  0.  0.  0.
556  5.55  0.  0.  0.
557  5.56  0.  0.  0.
558  5.57  0.  0.  0.
559  5.58  0.  0.  0.
560  5.59  0.  0.  0.
561  5.60  0.  0.  0.
562  5.61  0.  0.  0.
563  5.62  0.  0.  0.
564  5.63  0.  0.  0.
565  5.64  0.  0.  0.
566  5.65  0.  0.  0.
567  5.66  0.  0.  0.
568  5.67  0.  0.  0.
569  5.68  0.  0.  0.
570  5.69  0.  0.  0.
571  5.70  0.  0.  0.
572  5.71  0.  0.  0.
573  5.72  0.  0.  0.
574  5.73  0.  0.  0.
575  5.74  0.  0.  0.
576  5.75  0.  0.  0.
577  5.76  0.  0.  0.
578  5.77  0.  0.  0.
579  5.78  0.  0.  0.
580  5.79  0.  0.  0.
581  5.80  0.  0.  0.
582  5.81  0.  0.  0.
583  5.82  0.  0.  0.
584  5.83  0.  0.  0.
585  5.84  0.  0.  0.
586  5.85  0.  0.  0.
587  5.86  0.  0.  0.
588  5.87  0.  0.  0.
589  5.88  0.  0.  0.
590  5.89  0.  0.  0.
591  5.90  0.  0.  0.
592  5.91  0.  0.  0.
593  5.92  0.  0.  0.
594  5.93  0.  0.  0.
595  5.94  0.  0.  0.
596  5.95  0.  0.  0.
597  5.96  0.  0.  0.
598  5.97  0.  0.  0.
599  5.98  0.  0.  0.
600  5.99  0.  0.  0.
1                        -1.2046352881207E+01 -6.5330587349071E-01
1  0.0000000000000E+00  5.2003140404988E-09 -7.9656616233659E-08
2  1.0000000000000E-02  2.8958376565995E-03 -1.9649264352621E-03
3  2.0000000000000E-02  1.1562018487165E-02 -7.8215266808242E-03
4  3.0000000000000E-02  2.5934754784150E-02 -1.7456624515791E-02
5  4.0000000000000E-02  4.5908426157923E-02 -3.0686069618391E-02
6  5.0000000000000E-02  7.1336606950519E-02 -4.7261245907161E-02
7  6.0000000000000E-02  1.0203348237367E-01 -6.6877779149953E-02
8  7.0000000000000E-02  1.3777563181919E-01 -8.9186061262750E-02
9  8.0000000000000E-02  1.7830415258964E-01 -1.1380312906366E-01
10  9.0000000000000E-02  2.2332709276757E-01 -1.4032537604227E-01
11  1.0000000000000E-01  2.7252215818360E-01 -1.6834153960491E-01
12  1.1000000000000E-01  3.2553965552763E-01 -1.9744539491072E-01
13  1.2000000000000E-01  3.8200563161955E-01 -2.2724760039389E-01
14  1.3000000000000E-01  4.4152516772899E-01 -2.5738617883749E-01
15  1.4000000000000E-01  5.0368578759162E-01 -2.8753517980639E-01
16  1.5000000000000E-01  5.6806093837017E-01 -3.1741115172444E-01
17  1.6000000000000E-01  6.3421350517920E-01 -3.4677715135330E-01
18  1.7000000000000E-01  7.0169932184314E-01 -3.7544413059949E-01
19  1.8000000000000E-01  7.7007064317491E-01 -4.0326966057420E-01
20  1.9000000000000E-01  8.3887954712409E-01 -4.3015407542480E-01
21  2.0000000000000E-01  9.0768123851550E-01 -4.5603423827403E-01
22  2.1000000000000E-01  9.7603722964707E-01 -4.8087524336166E-01
23  2.2000000000000E-01  1.0435183766074E+00 -5.0466046722059E-01
24  2.3000000000000E-01  1.1097077536842E+00 -5.2738046300409E-01
25  2.4000000000000E-01  1.1742033515546E+00 -5.4902125220863E-01
26  2.5000000000000E-01  1.2366205879840E+00 -5.6955260418984E-01
27  2.6000000000000E-01  1.2965946224357E+00 -5.8891690424312E-01
28  2.7000000000000E-01  1.3537824682665E+00 -6.0701919490621E-01
29  2.8000000000000E-01  1.4078648980149E+00 -6.2371893296051E-01
30  2.9000000000000E-01  1.4585481386946E+00 -6.3882393790447E-01
31  3.0000000000000E-01  1.5055653549925E+00 -6.5208691904959E-01
32  3.1000000000000E-01  1.5486779188937E+00 -6.6320486141104E-01
33  3.2000000000000E-01  1.5876764645704E+00 -6.7182142960591E-01
34  3.3000000000000E-01  1.6223817274640E+00 -6.7753241904213E-01
35  3.4000000000000E-01  1.6526451664407E+00 -6.7989415022027E-01
36  3.5000000000000E-01  1.6783493678114E+00 -6.7843457061436E-01
37  3.6000000000000E-01  1.6994082299711E+00 -6.7266670495620E-01
38  3.7000000000000E-01  1.7157669275217E+00 -6.6210398415360E-01
39  3.8000000000000E-01  1.7274016540823E+00 -6.4627689037329E-01
40  3.9000000000000E-01  1.7343191436288E+00 -6.2475028515259E-01
41  4.0000000000000E-01  1.7365559711929E+00 -5.9714074203934E-01
42  4.1000000000000E-01  1.7341776351244E+00 -5.6313318743608E-01
43  4.2000000000000E-01  1.7272774248881E+00 -5.2249616416544E-01
44  4.3000000000000E-01  1.7159750805117E+00 -4.7509507171794E-01
45  4.4000000000000E-01  1.7004152522929E+00 -4.2090280394585E-01
46  4.5000000000000E-01  1.6807657721437E+00 -3.6000729673324E-01
47  4.6000000000000E-01  1.6572157509293E+00 -2.9261561145228E-01
48  4.7000000000000E-01  1.6299735192355E+00 -2.1905431042973E-01
49  4.8000000000000E-01  1.5992644320756E+00 -1.3976602306048E-01
50  4.9000000000000E-01  1.5653285609951E+00 -5.5302249928328E-02
51  5.0000000000000E-01  1.5284182997297E+00  3.3687398687041E-02
52  5.1000000000000E-01  1.4887959118978E+00  1.2646919032274E-01
53  5.2000000000000E-01  1.4467310510432E+00  2.2224201279795E-01
54  5.3000000000000E-01  1.4024982845898E+00  3.2015628636032E-01
55  5.4000000000000E-01  1.3563746538340E+00  4.1933436820332E-01
56  5.5000000000000E-01  1.3086373019241E+00  5.1889170622277E-01
57  5.6000000000000E-01  1.2595612008174E+00  6.1795796231268E-01
58  5.7000000000000E-01  1.2094170064506E+00  7.1569732007338E-01
59  5.8000000000000E-01  1.1584690688273E+00  8.1132721816431E-01
60  5.9000000000000E-01  1.1069736204660E+00  9.0413480804098E-01
61  6.0000000000000E-01  1.0551771627351E+00  9.9349052156318E-01
62  6.1000000000000E-01  1.0033150651304E+00  1.0788582468223E+00
63  6.2000000000000E-01  9.5161038765982E-01  1.1598017452847E+00
64  6.3000000000000E-01  9.0027293131948E-01  1.2359870948063E+00
65  6.4000000000000E-01  8.4949851635623E-01  1.3071811053098E+00
66  6.5000000000000E-01  7.9946848276197E-01  1.3732458204672E+00
67  6.6000000000000E-01  7.5034940242509E-01  1.4341293828632E+00
68  6.7000000000000E-01  7.0229298773104E-01  1.4898536950739E+00
69  6.8000000000000E-01  6.5543617732025E-01  1.5404994483950E+00
70  6.9000000000000E-01  6.0990137631909E-01  1.5861892086211E+00
71  7.0000000000000E-01  5.6579682577637E-01  1.6270693391134E+00
72  7.1000000000000E-01  5.2321707435806E-01  1.6632916011893E+00
73  7.2000000000000E-01  4.8224352463565E-01  1.6949952975872E+00
74  7.3000000000000E-01  4.4294502657743E-01  1.7222908146835E+00
75  7.4000000000000E-01  4.0537849210563E-01  1.7452453729596E+00
76  7.5000000000000E-01  3.6958950677023E-01  1.7638717140776E+00
77  7.6000000000000E-01  3.3561291763130E-01  1.7781203393809E+00
78  7.7000000000000E-01  3.0347338021936E-01  1.7878757726265E+00
79  7.8000000000000E-01  2.7318585181419E-01  1.7929571544265E+00
80  7.9000000000000E-01  2.4475602307614E-01  1.7931232934227E+00
81  8.0000000000000E-01  2.1818068509305E-01  1.7880821066565E+00
82  8.1000000000000E-01  1.9344803396938E-01  1.7775041865153E+00
83  8.2000000000000E-01  1.7053791997775E-01  1.7610400418878E+00
84  8.3000000000000E-01  1.4942205281423E-01  1.7383403845594E+00
85  8.4000000000000E-01  1.3006417845782E-01  1.7090786759212E+00
86  8.5000000000000E-01  1.1242024635782E-01  1.6729750205778E+00
87  8.6000000000000E-01  9.6438588014242E-02  1.6298203983455E+00
88  8.7000000000000E-01  8.2060129360085E-02  1.5795001691588E+00
89  8.8000000000000E-01  6.9218659622070E-02  1.5220157699017E+00
90  8.9000000000000E-01  5.7841178490006E-02  1.4575035499386E+00
91  9.0000000000000E-01  4.7848341468919E-02  1.3862497632776E+00
92  9.1000000000000E-01  3.9155020271531E-02  1.3087008482925E+00
93  9.2000000000000E-01  3.1670991122016E-02  1.2254682775321E+00
94  9.3000000000000E-01  2.5301759016844E-02  1.1373274455383E+00
95  9.4000000000000E-01  1.9949520492318E-02  1.0452102755261E+00
96  9.5000000000000E-01  1.5514261477994E-02  9.5019145879935E-01
97  9.6000000000000E-01  1.1894980591353E-02  8.5346848550198E-01
98  9.7000000000000E-01  8.9910219886084E-03  7.5633587262801E-01
99  9.8000000000000E-01  6.7034958704259E-03  6.6015423587469E-01
100  9.9000000000000E-01  4.9367591926374E-03  5.6631507647976E-01
101  1.0000000000000E+00  3.5999242727446E-03  4.7620235401518E-01
102  1.0100000000000E+00  2.6083590271763E-03  3.9115208281677E-01
103  1.0200000000000E+00  1.8851396947294E-03  3.1241131650144E-01
104  1.0300000000000E+00  1.3624147713842E-03  2.4109801376561E-01
105  1.0400000000000E+00  9.8263904164493E-04  1.7816297025279E-01
106  1.0500000000000E+00  6.9995416262853E-04  1.2432509739440E-01
107  1.0600000000000E+00  4.8206194684865E-04  7.9866323095856E-02
108  1.0700000000000E+00  3.0517343491357E-04  4.5217505922158E-02
109  1.0800000000000E+00  1.5998239787807E-04  2.0551810163456E-02
110  1.0900000000000E+00  5.1910759653893E-05  5.6667150527285E-03
111  1.1000000000000E+00  1.7789828627033E-06  1.6078318967443E-04
112  1.1100000000000E+00  2.5589296315322E-07  2.3833204803834E-05
113  1.1200000000000E+00 -2.7722514799601E-08 -2.7755778409032E-06
114  1.13  0.  0.
115  1.14  0.  0.
116  1.15  0.  0.
117  1.16  0.  0.
118  1.17  0.  0.
119  1.18  0.  0.
120  1.19  0.  0.
121  1.20  0.  0.
122  1.21  0.  0.
123  1.22  0.  0.
124  1.23  0.  0.
125  1.24  0.  0.
126  1.25  0.  0.
127  1.26  0.  0.
128  1.27  0.  0.
129  1.28  0.  0.
130  1.29  0.  0.
131  1.30  0.  0.
132  1.31  0.  0.
133  1.32  0.  0.
134  1.33  0.  0.
135  1.34  0.  0.
136  1.35  0.  0.
137  1.36  0.  0.
138  1.37  0.  0.
139  1.38  0.  0.
140  1.39  0.  0.
141  1.40  0.  0.
142  1.41  0.  0.
143  1.42  0.  0.
144  1.43  0.  0.
145  1.44  0.  0.
146  1.45  0.  0.
147  1.46  0.  0.
148  1.47  0.  0.
149  1.48  0.  0.
150  1.49  0.  0.
151  1.50  0.  0.
152  1.51  0.  0.
153  1.52  0.  0.
154  1.53  0.  0.
155  1.54  0.  0.
156  1.55  0.  0.
157  1.56  0.  0.
158  1.57  0.  0.
159  1.58  0.  0.
160  1.59  0.  0.
161  1.60  0.  0.
162  1.61  0.  0.
163  1.62  0.  0.
164  1.63  0.  0.
165  1.64  0.  0.
166  1.65  0.  0.
167  1.66  0.  0.
168  1.67  0.  0.
169  1.68  0.  0.
170  1.69  0.  0.
171  1.70  0.  0.
172  1.71  0.  0.
173  1.72  0.  0.
174  1.73  0.  0.
175  1.74  0.  0.
176  1.75  0.  0.
177  1.76  0.  0.
178  1.77  0.  0.
179  1.78  0.  0.
180  1.79  0.  0.
181  1.80  0.  0.
182  1.81  0.  0.
183  1.82  0.  0.
184  1.83  0.  0.
185  1.84  0.  0.
186  1.85  0.  0.
187  1.86  0.  0.
188  1.87  0.  0.
189  1.88  0.  0.
190  1.89  0.  0.
191  1.90  0.  0.
192  1.91  0.  0.
193  1.92  0.  0.
194  1.93  0.  0.
195  1.94  0.  0.
196  1.95  0.  0.
197  1.96  0.  0.