Mt    ONCVPSP-4.0.1  r_core=   1.10144   1.10144   1.10144   1.20485
109.0000     49.0000      220206    zatom,zion,pspd
8      11   3     4   600     0    pspcod,pspxc,lmax,lloc,mmax,r2well
5.99000000  5.00000000  0.00000000    rchrg fchrg qchrg
3     2     2     2     0    nproj
1     1           extension_switch
0                        -1.4359939312251E+01  9.9294132711823E+00 -3.9018223507536E-01
1  0.0000000000000E+00 -8.9990659368766E-10  3.8290876025471E-08 -8.0778423186545E-08
2  1.0000000000000E-02  7.6659201411709E-02  1.7918851572477E-01 -1.4251745327738E-02
3  2.0000000000000E-02  1.5314428798382E-01  3.5667534996229E-01 -2.8427248577681E-02
4  3.0000000000000E-02  2.2928164321111E-01  5.3077411813770E-01 -4.2450493517387E-02
5  4.0000000000000E-02  3.0489864267074E-01  6.9982904285691E-01 -5.6246156886741E-02
6  5.0000000000000E-02  3.7982413885869E-01  8.6223027948377E-01 -6.9740533857318E-02
7  6.0000000000000E-02  4.5388893329667E-01  1.0164292369284E+00 -8.2863092087172E-02
8  7.0000000000000E-02  5.2692623281618E-01  1.1609538423261E+00 -9.5548758535986E-02
9  8.0000000000000E-02  5.9877208782621E-01  1.2944236599937E+00 -1.0774096242709E-01
10  9.0000000000000E-02  6.6926581139414E-01  1.4155647323192E+00 -1.1939536801375E-01
11  1.0000000000000E-01  7.3825037905614E-01  1.5232239660563E+00 -1.3048413862153E-01
12  1.1000000000000E-01  8.0557281035820E-01  1.6163828450745E+00 -1.4100048564953E-01
13  1.2000000000000E-01  8.7108453414748E-01  1.6941702131658E+00 -1.5096317962649E-01
14  1.3000000000000E-01  9.3464174052137E-01  1.7558738411109E+00 -1.6042064134928E-01
15  1.4000000000000E-01  9.9610572304111E-01  1.8009504735826E+00 -1.6945419502634E-01
16  1.5000000000000E-01  1.0553432152792E+00  1.8290340458405E+00 -1.7818005639460E-01
17  1.6000000000000E-01  1.1122267259578E+00  1.8399417691512E+00 -1.8674964963713E-01
18  1.7000000000000E-01  1.1666348768235E+00  1.8336778082875E+00 -1.9534789849649E-01
19  1.8000000000000E-01  1.2184527469878E+00  1.8104343143754E+00 -2.0418921828960E-01
20  1.9000000000000E-01  1.2675722267446E+00  1.7705896309573E+00 -2.1351104372481E-01
21  2.0000000000000E-01  1.3138923828830E+00  1.7147035588073E+00 -2.2356485784949E-01
22  2.1000000000000E-01  1.3573198362831E+00  1.6435096433977E+00 -2.3460483387215E-01
23  2.2000000000000E-01  1.3977691511673E+00  1.5579045349187E+00 -2.4687435644356E-01
24  2.3000000000000E-01  1.4351632338395E+00  1.4589345608440E+00 -2.6059084377205E-01
25  2.4000000000000E-01  1.4694337371580E+00  1.3477797412876E+00 -2.7592943769149E-01
26  2.5000000000000E-01  1.5005214654206E+00  1.2257355637141E+00 -2.9300625651752E-01
27  2.6000000000000E-01  1.5283767728849E+00  1.0941929119005E+00 -3.1186200668787E-01
28  2.7000000000000E-01  1.5529599478641E+00  9.5461661056524E-01 -3.3244681625567E-01
29  2.8000000000000E-01  1.5742415733063E+00  8.0852309839426E-01 -3.5460718015746E-01
30  2.9000000000000E-01  1.5922028540460E+00  6.5745777551944E-01 -3.7807588951712E-01
31  3.0000000000000E-01  1.6068359005471E+00  5.0297258481630E-01 -4.0246575289187E-01
32  3.1000000000000E-01  1.6181439589825E+00  3.4660437854613E-01 -4.2726780648449E-01
33  3.2000000000000E-01  1.6261415779224E+00  1.8985459267856E-01 -4.5185455554600E-01
34  3.3000000000000E-01  1.6308547027361E+00  3.4170701494422E-02 -4.7548859548599E-01
35  3.4000000000000E-01  1.6323206900240E+00 -1.1907014344784E-01 -4.9733673588414E-01
36  3.5000000000000E-01  1.6305882359569E+00 -2.6857497052205E-01 -5.1648950292428E-01
37  3.6000000000000E-01  1.6257172142504E+00 -4.1314611921560E-01 -5.3198563664489E-01
38  3.7000000000000E-01  1.6177784215756E+00 -5.5168952884249E-01 -5.4284094084002E-01
39  3.8000000000000E-01  1.6068532304261E+00 -6.8322017803261E-01 -5.4808059806167E-01
40  3.9000000000000E-01  1.5930331517433E+00 -8.0686477699563E-01 -5.4677384257149E-01
41  4.0000000000000E-01  1.5764193118451E+00 -9.2186191749659E-01 -5.3806970223158E-01
42  4.1000000000000E-01  1.5571218503362E+00 -1.0275599779154E+00 -5.2123238693471E-01
43  4.2000000000000E-01  1.5352592475956E+00 -1.1234131584220E+00 -4.9567482517179E-01
44  4.3000000000000E-01  1.5109575920779E+00 -1.2089760805412E+00 -4.6098883830243E-01
45  4.4000000000000E-01  1.4843497989527E+00 -1.2838974233739E+00 -4.1697049790934E-01
46  4.5000000000000E-01  1.4555747924953E+00 -1.3479130836061E+00 -3.6363933611576E-01
47  4.6000000000000E-01  1.4247766650956E+00 -1.4008393373570E+00 -3.0125026959540E-01
48  4.7000000000000E-01  1.3921038257543E+00 -1.4425664492004E+00 -2.3029734967633E-01
49  4.8000000000000E-01  1.3577081504923E+00 -1.4730531187515E+00 -1.5150875483869E-01
50  4.9000000000000E-01  1.3217441462320E+00 -1.4923220805476E+00 -6.5832786674577E-02
51  5.0000000000000E-01  1.2843681384589E+00 -1.5004570820351E+00  2.5584997709304E-02
52  5.1000000000000E-01  1.2457374913985E+00 -1.4976013616002E+00  1.2143300032319E-01
53  5.2000000000000E-01  1.2060098676207E+00 -1.4839576386905E+00  2.2027224895035E-01
54  5.3000000000000E-01  1.1653425319877E+00 -1.4597895165253E+00  3.2058126450149E-01
55  5.4000000000000E-01  1.1238917027940E+00 -1.4254240902151E+00  4.2080556037665E-01
56  5.5000000000000E-01  1.0818119508906E+00 -1.3812554547701E+00  5.1940994241925E-01
57  5.6000000000000E-01  1.0392556456387E+00 -1.3277487235724E+00  6.1493158378382E-01
58  5.7000000000000E-01  9.9637244479180E-01 -1.2654441029709E+00  7.0603173452872E-01
59  5.8000000000000E-01  9.5330882392577E-01 -1.1949605264372E+00  7.9154389913440E-01
60  5.9000000000000E-01  9.1020763990299E-01 -1.1169983349358E+00  8.7051638098239E-01
61  6.0000000000000E-01  8.6720772211113E-01 -1.0323405003887E+00  9.4224725171801E-01
62  6.1000000000000E-01  8.2444348489201E-01 -9.4185192668684E-01  1.0063100518868E+00
63  6.2000000000000E-01  7.8204455468580E-01 -8.4647642667732E-01  1.0625688597262E+00
64  6.3000000000000E-01  7.4013540595048E-01 -7.4723106170342E-01  1.1111817661065E+00
65  6.4000000000000E-01  6.9883500084807E-01 -6.4519763918369E-01  1.1525922504358E+00
66  6.5000000000000E-01  6.5825642897132E-01 -5.4151128889323E-01  1.1875084470346E+00
67  6.6000000000000E-01  6.1850654495286E-01 -4.3734617468737E-01  1.2168708039622E+00
68  6.7000000000000E-01  5.7968560357568E-01 -3.3389853934777E-01  1.2418091449925E+00
69  6.8000000000000E-01  5.4188689390081E-01 -2.3236741960345E-01  1.2635906283324E+00
70  6.9000000000000E-01  5.0519637585048E-01 -1.3393349964139E-01  1.2835605310956E+00
71  7.0000000000000E-01  4.6969232453464E-01 -3.9736688196150E-02  1.3030781561648E+00
72  7.1000000000000E-01  4.3544498929210E-01  4.9146899281523E-02  1.3234504399293E+00
73  7.2000000000000E-01  4.0251627584323E-01  1.3172780098408E-01  1.3458660205686E+00
74  7.3000000000000E-01  3.7095946104384E-01  2.0712511798660E-01  1.3713325961215E+00
75  7.4000000000000E-01  3.4081895042314E-01  2.7458667002859E-01  1.4006203529838E+00
76  7.5000000000000E-01  3.1213008893705E-01  3.3350662090506E-01  1.4342140771449E+00
77  7.6000000000000E-01  2.8491903514401E-01  3.8343985609858E-01  1.4722762758146E+00
78  7.7000000000000E-01  2.5920270830765E-01  4.2411248753751E-01  1.5146232447367E+00
79  7.8000000000000E-01  2.3498881676415E-01  4.5542798235341E-01  1.5607155298353E+00
80  7.9000000000000E-01  2.1227597429941E-01  4.7746855986474E-01  1.6096636688276E+00
81  8.0000000000000E-01  1.9105390931604E-01  4.9049166815318E-01  1.6602494806603E+00
82  8.1000000000000E-01  1.7130376930889E-01  4.9492153187887E-01  1.7109625228159E+00
83  8.2000000000000E-01  1.5299852069542E-01  4.9133594903817E-01  1.7600506852883E+00
84  8.3000000000000E-01  1.3610344146301E-01  4.8044869837167E-01  1.8055832629063E+00
85  8.4000000000000E-01  1.2057670150410E-01  4.6308809314274E-01  1.8455242720287E+00
86  8.5000000000000E-01  1.0637002301602E-01  4.4017237331869E-01  1.8778132793509E+00
87  8.6000000000000E-01  9.3429411050363E-02  4.1268275967014E-01  1.9004506130086E+00
88  8.7000000000000E-01  8.1695942300298E-02  3.8163509372773E-01  1.9115835491092E+00
89  8.8000000000000E-01  7.1106598597804E-02  3.4805105186382E-01  1.9095899254611E+00
90  8.9000000000000E-01  6.1595130422626E-02  3.1292994640754E-01  1.8931556385220E+00
91  9.0000000000000E-01  5.3092935050666E-02  2.7722210968697E-01  1.8613426334963E+00
92  9.1000000000000E-01  4.5529933818081E-02  2.4180479800439E-01  1.8136442989521E+00
93  9.2000000000000E-01  3.8835433354242E-02  2.0746145336729E-01  1.7500256179476E+00
94  9.3000000000000E-01  3.2938956524051E-02  1.7486502464843E-01  1.6709459930959E+00
95  9.4000000000000E-01  2.7771030178416E-02  1.4456588173844E-01  1.5773633332425E+00
96  9.5000000000000E-01  2.3263918580849E-02  1.1698466261884E-01  1.4707187397789E+00
97  9.6000000000000E-01  1.9352293481283E-02  9.2410181777687E-02  1.3529019323948E+00
98  9.7000000000000E-01  1.5973834152795E-02  7.1002307618974E-02  1.2261983756680E+00
99  9.8000000000000E-01  1.3069753192634E-02  5.2799495517905E-02  1.0932198765807E+00
100  9.9000000000000E-01  1.0585246406885E-02  3.7730451347382E-02  9.5682118521289E-01
101  1.0000000000000E+00  8.4698675441521E-03  2.5629206431985E-02  8.2000581543904E-01
102  1.0100000000000E+00  6.6778309113522E-03  1.6252717631891E-02  6.8582487915449E-01
103  1.0200000000000E+00  5.1682469023974E-03  9.2999728298564E-03  5.5727317156422E-01
104  1.0300000000000E+00  3.9052988859549E-03  4.4314817782824E-03  4.3718704390834E-01
105  1.0400000000000E+00  2.8583550703101E-03  1.2880844253803E-03  3.2814859226615E-01
106  1.0500000000000E+00  2.0009248748085E-03 -4.8818427073727E-04  2.3239624248707E-01
107  1.0600000000000E+00  1.3032859167193E-03 -1.2017797862352E-03  1.5170676498061E-01
108  1.0700000000000E+00  7.5551963045143E-04 -1.1853346008966E-03  8.7452220634434E-02
109  1.0800000000000E+00  3.5507342912229E-04 -7.7365388659907E-04  4.0556861618540E-02
110  1.0900000000000E+00  1.0222172776893E-04 -2.8094020198127E-04  1.1436643401964E-02
111  1.1000000000000E+00  3.0748162739226E-06 -1.0172424850828E-05  3.3305626156430E-04
112  1.1100000000000E+00  4.5053447374461E-07 -1.4732618353891E-06  4.9278797624967E-05
113  1.1200000000000E+00 -5.1306042062604E-08  1.5565262470410E-07 -5.6765904659822E-06
114  1.13  0.  0.  0.
115  1.14  0.  0.  0.
116  1.15  0.  0.  0.
117  1.16  0.  0.  0.
118  1.17  0.  0.  0.
119  1.18  0.  0.  0.
120  1.19  0.  0.  0.
121  1.20  0.  0.  0.
122  1.21  0.  0.  0.
123  1.22  0.  0.  0.
124  1.23  0.  0.  0.
125  1.24  0.  0.  0.
126  1.25  0.  0.  0.
127  1.26  0.  0.  0.
128  1.27  0.  0.  0.
129  1.28  0.  0.  0.
130  1.29  0.  0.  0.
131  1.30  0.  0.  0.
132  1.31  0.  0.  0.
133  1.32  0.  0.  0.
134  1.33  0.  0.  0.
135  1.34  0.  0.  0.
136  1.35  0.  0.  0.
137  1.36  0.  0.  0.
138  1.37  0.  0.  0.
139  1.38  0.  0.  0.
140  1.39  0.  0.  0.
141  1.40  0.  0.  0.
142  1.41  0.  0.  0.
143  1.42  0.  0.  0.
144  1.43  0.  0.  0.
145  1.44  0.  0.  0.
146  1.45  0.  0.  0.
147  1.46  0.  0.  0.
148  1.47  0.  0.  0.
149  1.48  0.  0.  0.
150  1.49  0.  0.  0.
151  1.50  0.  0.  0.
152  1.51  0.  0.  0.
153  1.52  0.  0.  0.
154  1.53  0.  0.  0.
155  1.54  0.  0.  0.
156  1.55  0.  0.  0.
157  1.56  0.  0.  0.
158  1.57  0.  0.  0.
159  1.58  0.  0.  0.
160  1.59  0.  0.  0.
161  1.60  0.  0.  0.
162  1.61  0.  0.  0.
163  1.62  0.  0.  0.
164  1.63  0.  0.  0.
165  1.64  0.  0.  0.
166  1.65  0.  0.  0.
167  1.66  0.  0.  0.
168  1.67  0.  0.  0.
169  1.68  0.  0.  0.
170  1.69  0.  0.  0.
171  1.70  0.  0.  0.
172  1.71  0.  0.  0.
173  1.72  0.  0.  0.
174  1.73  0.  0.  0.
175  1.74  0.  0.  0.
176  1.75  0.  0.  0.
177  1.76  0.  0.  0.
178  1.77  0.  0.  0.
179  1.78  0.  0.  0.
180  1.79  0.  0.  0.
181  1.80  0.  0.  0.
182  1.81  0.  0.  0.
183  1.82  0.  0.  0.
184  1.83  0.  0.  0.
185  1.84  0.  0.  0.
186  1.85  0.  0.  0.
187  1.86  0.  0.  0.
188  1.87  0.  0.  0.
189  1.88  0.  0.  0.
190  1.89  0.  0.  0.
191  1.90  0.  0.  0.
192  1.91  0.  0.  0.
193  1.92  0.  0.  0.
194  1.93  0.  0.  0.
195  1.94  0.  0.  0.
196  1.95  0.  0.  0.
197  1.96  0.  0.  0.
198  1.97  0.  0.  0.
199  1.98  0.  0.  0.
200  1.99  0.  0.  0.
201  2.00  0.  0.  0.
202  2.01  0.  0.  0.
203  2.02  0.  0.  0.
204  2.03  0.  0.  0.
205  2.04  0.  0.  0.
206  2.05  0.  0.  0.
207  2.06  0.  0.  0.
208  2.07  0.  0.  0.
209  2.08  0.  0.  0.
210  2.09  0.  0.  0.
211  2.10  0.  0.  0.
212  2.11  0.  0.  0.
213  2.12  0.  0.  0.
214  2.13  0.  0.  0.
215  2.14  0.  0.  0.
216  2.15  0.  0.  0.
217  2.16  0.  0.  0.
218  2.17  0.  0.  0.
219  2.18  0.  0.  0.
220  2.19  0.  0.  0.
221  2.20  0.  0.  0.
222  2.21  0.  0.  0.
223  2.22  0.  0.  0.
224  2.23  0.  0.  0.
225  2.24  0.  0.  0.
226  2.25  0.  0.  0.
227  2.26  0.  0.  0.
228  2.27  0.  0.  0.
229  2.28  0.  0.  0.
230  2.29  0.  0.  0.
231  2.30  0.  0.  0.
232  2.31  0.  0.  0.
233  2.32  0.  0.  0.
234  2.33  0.  0.  0.
235  2.34  0.  0.  0.
236  2.35  0.  0.  0.
237  2.36  0.  0.  0.
238  2.37  0.  0.  0.
239  2.38  0.  0.  0.
240  2.39  0.  0.  0.
241  2.40  0.  0.  0.
242  2.41  0.  0.  0.
243  2.42  0.  0.  0.
244  2.43  0.  0.  0.
245  2.44  0.  0.  0.
246  2.45  0.  0.  0.
247  2.46  0.  0.  0.
248  2.47  0.  0.  0.
249  2.48  0.  0.  0.
250  2.49  0.  0.  0.
251  2.50  0.  0.  0.
252  2.51  0.  0.  0.
253  2.52  0.  0.  0.
254  2.53  0.  0.  0.
255  2.54  0.  0.  0.
256  2.55  0.  0.  0.
257  2.56  0.  0.  0.
258  2.57  0.  0.  0.
259  2.58  0.  0.  0.
260  2.59  0.  0.  0.
261  2.60  0.  0.  0.
262  2.61  0.  0.  0.
263  2.62  0.  0.  0.
264  2.63  0.  0.  0.
265  2.64  0.  0.  0.
266  2.65  0.  0.  0.
267  2.66  0.  0.  0.
268  2.67  0.  0.  0.
269  2.68  0.  0.  0.
270  2.69  0.  0.  0.
271  2.70  0.  0.  0.
272  2.71  0.  0.  0.
273  2.72  0.  0.  0.
274  2.73  0.  0.  0.
275  2.74  0.  0.  0.
276  2.75  0.  0.  0.
277  2.76  0.  0.  0.
278  2.77  0.  0.  0.
279  2.78  0.  0.  0.
280  2.79  0.  0.  0.
281  2.80  0.  0.  0.
282  2.81  0.  0.  0.
283  2.82  0.  0.  0.
284  2.83  0.  0.  0.
285  2.84  0.  0.  0.
286  2.85  0.  0.  0.
287  2.86  0.  0.  0.
288  2.87  0.  0.  0.
289  2.88  0.  0.  0.
290  2.89  0.  0.  0.
291  2.90  0.  0.  0.
292  2.91  0.  0.  0.
293  2.92  0.  0.  0.
294  2.93  0.  0.  0.
295  2.94  0.  0.  0.
296  2.95  0.  0.  0.
297  2.96  0.  0.  0.
298  2.97  0.  0.  0.
299  2.98  0.  0.  0.
300  2.99  0.  0.  0.
301  3.00  0.  0.  0.
302  3.01  0.  0.  0.
303  3.02  0.  0.  0.
304  3.03  0.  0.  0.
305  3.04  0.  0.  0.
306  3.05  0.  0.  0.
307  3.06  0.  0.  0.
308  3.07  0.  0.  0.
309  3.08  0.  0.  0.
310  3.09  0.  0.  0.
311  3.10  0.  0.  0.
312  3.11  0.  0.  0.
313  3.12  0.  0.  0.
314  3.13  0.  0.  0.
315  3.14  0.  0.  0.
316  3.15  0.  0.  0.
317  3.16  0.  0.  0.
318  3.17  0.  0.  0.
319  3.18  0.  0.  0.
320  3.19  0.  0.  0.
321  3.20  0.  0.  0.
322  3.21  0.  0.  0.
323  3.22  0.  0.  0.
324  3.23  0.  0.  0.
325  3.24  0.  0.  0.
326  3.25  0.  0.  0.
327  3.26  0.  0.  0.
328  3.27  0.  0.  0.
329  3.28  0.  0.  0.
330  3.29  0.  0.  0.
331  3.30  0.  0.  0.
332  3.31  0.  0.  0.
333  3.32  0.  0.  0.
334  3.33  0.  0.  0.
335  3.34  0.  0.  0.
336  3.35  0.  0.  0.
337  3.36  0.  0.  0.
338  3.37  0.  0.  0.
339  3.38  0.  0.  0.
340  3.39  0.  0.  0.
341  3.40  0.  0.  0.
342  3.41  0.  0.  0.
343  3.42  0.  0.  0.
344  3.43  0.  0.  0.
345  3.44  0.  0.  0.
346  3.45  0.  0.  0.
347  3.46  0.  0.  0.
348  3.47  0.  0.  0.
349  3.48  0.  0.  0.
350  3.49  0.  0.  0.
351  3.50  0.  0.  0.
352  3.51  0.  0.  0.
353  3.52  0.  0.  0.
354  3.53  0.  0.  0.
355  3.54  0.  0.  0.
356  3.55  0.  0.  0.
357  3.56  0.  0.  0.
358  3.57  0.  0.  0.
359  3.58  0.  0.  0.
360  3.59  0.  0.  0.
361  3.60  0.  0.  0.
362  3.61  0.  0.  0.
363  3.62  0.  0.  0.
364  3.63  0.  0.  0.
365  3.64  0.  0.  0.
366  3.65  0.  0.  0.
367  3.66  0.  0.  0.
368  3.67  0.  0.  0.
369  3.68  0.  0.  0.
370  3.69  0.  0.  0.
371  3.70  0.  0.  0.
372  3.71  0.  0.  0.
373  3.72  0.  0.  0.
374  3.73  0.  0.  0.
375  3.74  0.  0.  0.
376  3.75  0.  0.  0.
377  3.76  0.  0.  0.
378  3.77  0.  0.  0.
379  3.78  0.  0.  0.
380  3.79  0.  0.  0.
381  3.80  0.  0.  0.
382  3.81  0.  0.  0.
383  3.82  0.  0.  0.
384  3.83  0.  0.  0.
385  3.84  0.  0.  0.
386  3.85  0.  0.  0.
387  3.86  0.  0.  0.
388  3.87  0.  0.  0.
389  3.88  0.  0.  0.
390  3.89  0.  0.  0.
391  3.90  0.  0.  0.
392  3.91  0.  0.  0.
393  3.92  0.  0.  0.
394  3.93  0.  0.  0.
395  3.94  0.  0.  0.
396  3.95  0.  0.  0.
397  3.96  0.  0.  0.
398  3.97  0.  0.  0.
399  3.98  0.  0.  0.
400  3.99  0.  0.  0.
401  4.00  0.  0.  0.
402  4.01  0.  0.  0.
403  4.02  0.  0.  0.
404  4.03  0.  0.  0.
405  4.04  0.  0.  0.
406  4.05  0.  0.  0.
407  4.06  0.  0.  0.
408  4.07  0.  0.  0.
409  4.08  0.  0.  0.
410  4.09  0.  0.  0.
411  4.10  0.  0.  0.
412  4.11  0.  0.  0.
413  4.12  0.  0.  0.
414  4.13  0.  0.  0.
415  4.14  0.  0.  0.
416  4.15  0.  0.  0.
417  4.16  0.  0.  0.
418  4.17  0.  0.  0.
419  4.18  0.  0.  0.
420  4.19  0.  0.  0.
421  4.20  0.  0.  0.
422  4.21  0.  0.  0.
423  4.22  0.  0.  0.
424  4.23  0.  0.  0.
425  4.24  0.  0.  0.
426  4.25  0.  0.  0.
427  4.26  0.  0.  0.
428  4.27  0.  0.  0.
429  4.28  0.  0.  0.
430  4.29  0.  0.  0.
431  4.30  0.  0.  0.
432  4.31  0.  0.  0.
433  4.32  0.  0.  0.
434  4.33  0.  0.  0.
435  4.34  0.  0.  0.
436  4.35  0.  0.  0.
437  4.36  0.  0.  0.
438  4.37  0.  0.  0.
439  4.38  0.  0.  0.
440  4.39  0.  0.  0.
441  4.40  0.  0.  0.
442  4.41  0.  0.  0.
443  4.42  0.  0.  0.
444  4.43  0.  0.  0.
445  4.44  0.  0.  0.
446  4.45  0.  0.  0.
447  4.46  0.  0.  0.
448  4.47  0.  0.  0.
449  4.48  0.  0.  0.
450  4.49  0.  0.  0.
451  4.50  0.  0.  0.
452  4.51  0.  0.  0.
453  4.52  0.  0.  0.
454  4.53  0.  0.  0.
455  4.54  0.  0.  0.
456  4.55  0.  0.  0.
457  4.56  0.  0.  0.
458  4.57  0.  0.  0.
459  4.58  0.  0.  0.
460  4.59  0.  0.  0.
461  4.60  0.  0.  0.
462  4.61  0.  0.  0.
463  4.62  0.  0.  0.
464  4.63  0.  0.  0.
465  4.64  0.  0.  0.
466  4.65  0.  0.  0.
467  4.66  0.  0.  0.
468  4.67  0.  0.  0.
469  4.68  0.  0.  0.
470  4.69  0.  0.  0.
471  4.70  0.  0.  0.
472  4.71  0.  0.  0.
473  4.72  0.  0.  0.
474  4.73  0.  0.  0.
475  4.74  0.  0.  0.
476  4.75  0.  0.  0.
477  4.76  0.  0.  0.
478  4.77  0.  0.  0.
479  4.78  0.  0.  0.
480  4.79  0.  0.  0.
481  4.80  0.  0.  0.
482  4.81  0.  0.  0.
483  4.82  0.  0.  0.
484  4.83  0.  0.  0.
485  4.84  0.  0.  0.
486  4.85  0.  0.  0.
487  4.86  0.  0.  0.
488  4.87  0.  0.  0.
489  4.88  0.  0.  0.
490  4.89  0.  0.  0.
491  4.90  0.  0.  0.
492  4.91  0.  0.  0.
493  4.92  0.  0.  0.
494  4.93  0.  0.  0.
495  4.94  0.  0.  0.
496  4.95  0.  0.  0.
497  4.96  0.  0.  0.
498  4.97  0.  0.  0.
499  4.98  0.  0.  0.
500  4.99  0.  0.  0.
501  5.00  0.  0.  0.
502  5.01  0.  0.  0.
503  5.02  0.  0.  0.
504  5.03  0.  0.  0.
505  5.04  0.  0.  0.
506  5.05  0.  0.  0.
507  5.06  0.  0.  0.
508  5.07  0.  0.  0.
509  5.08  0.  0.  0.
510  5.09  0.  0.  0.
511  5.10  0.  0.  0.
512  5.11  0.  0.  0.
513  5.12  0.  0.  0.
514  5.13  0.  0.  0.
515  5.14  0.  0.  0.
516  5.15  0.  0.  0.
517  5.16  0.  0.  0.
518  5.17  0.  0.  0.
519  5.18  0.  0.  0.
520  5.19  0.  0.  0.
521  5.20  0.  0.  0.
522  5.21  0.  0.  0.
523  5.22  0.  0.  0.
524  5.23  0.  0.  0.
525  5.24  0.  0.  0.
526  5.25  0.  0.  0.
527  5.26  0.  0.  0.
528  5.27  0.  0.  0.
529  5.28  0.  0.  0.
530  5.29  0.  0.  0.
531  5.30  0.  0.  0.
532  5.31  0.  0.  0.
533  5.32  0.  0.  0.
534  5.33  0.  0.  0.
535  5.34  0.  0.  0.
536  5.35  0.  0.  0.
537  5.36  0.  0.  0.
538  5.37  0.  0.  0.
539  5.38  0.  0.  0.
540  5.39  0.  0.  0.
541  5.40  0.  0.  0.
542  5.41  0.  0.  0.
543  5.42  0.  0.  0.
544  5.43  0.  0.  0.
545  5.44  0.  0.  0.
546  5.45  0.  0.  0.
547  5.46  0.  0.  0.
548  5.47  0.  0.  0.
549  5.48  0.  0.  0.
550  5.49  0.  0.  0.
551  5.50  0.  0.  0.
552  5.51  0.  0.  0.
553  5.52  0.  0.  0.
554  5.53  0.  0.  0.
555  5.54  0.  0.  0.
556  5.55  0.  0.  0.
557  5.56  0.  0.  0.
558  5.57  0.  0.  0.
559  5.58  0.  0.  0.
560  5.59  0.  0.  0.
561  5.60  0.  0.  0.
562  5.61  0.  0.  0.
563  5.62  0.  0.  0.
564  5.63  0.  0.  0.
565  5.64  0.  0.  0.
566  5.65  0.  0.  0.
567  5.66  0.  0.  0.
568  5.67  0.  0.  0.
569  5.68  0.  0.  0.
570  5.69  0.  0.  0.
571  5.70  0.  0.  0.
572  5.71  0.  0.  0.
573  5.72  0.  0.  0.
574  5.73  0.  0.  0.
575  5.74  0.  0.  0.
576  5.75  0.  0.  0.
577  5.76  0.  0.  0.
578  5.77  0.  0.  0.
579  5.78  0.  0.  0.
580  5.79  0.  0.  0.
581  5.80  0.  0.  0.
582  5.81  0.  0.  0.
583  5.82  0.  0.  0.
584  5.83  0.  0.  0.
585  5.84  0.  0.  0.
586  5.85  0.  0.  0.
587  5.86  0.  0.  0.
588  5.87  0.  0.  0.
589  5.88  0.  0.  0.
590  5.89  0.  0.  0.
591  5.90  0.  0.  0.
592  5.91  0.  0.  0.
593  5.92  0.  0.  0.
594  5.93  0.  0.  0.
595  5.94  0.  0.  0.
596  5.95  0.  0.  0.
597  5.96  0.  0.  0.
598  5.97  0.  0.  0.
599  5.98  0.  0.  0.
600  5.99  0.  0.  0.
1                        -1.1915703860602E+01 -8.9930560111820E-01
1  0.0000000000000E+00  8.4646868403482E-09 -2.0369059700043E-07
2  1.0000000000000E-02  2.8463767121656E-03 -5.3892012844932E-03
3  2.0000000000000E-02  1.1363822902836E-02 -2.1434314537963E-02
4  3.0000000000000E-02  2.5487543413604E-02 -4.7771708695769E-02
5  4.0000000000000E-02  4.5110396169416E-02 -8.3807985893239E-02
6  5.0000000000000E-02  7.0084147065966E-02 -1.2873844858961E-01
7  6.0000000000000E-02  1.0022118772647E-01 -1.8157194796239E-01
8  7.0000000000000E-02  1.3529667866167E-01 -2.4116115815636E-01
9  8.0000000000000E-02  1.7505107190222E-01 -3.0623711728049E-01
10  9.0000000000000E-02  2.1919296026237E-01 -3.7544672026598E-01
11  1.0000000000000E-01  2.6740219525092E-01 -4.4739174718837E-01
12  1.1000000000000E-01  3.1933321241155E-01 -5.2066796748841E-01
13  1.2000000000000E-01  3.7461850161595E-01 -5.9390287731756E-01
14  1.3000000000000E-01  4.3287216053685E-01 -6.6579070307856E-01
15  1.4000000000000E-01  4.9369347210535E-01 -7.3512343574177E-01
16  1.5000000000000E-01  5.5667045104502E-01 -8.0081684196778E-01
17  1.6000000000000E-01  6.2138331034782E-01 -8.6193062163504E-01
18  1.7000000000000E-01  6.8740780553009E-01 -9.1768213747514E-01
19  1.8000000000000E-01  7.5431842235715E-01 -9.6745342021582E-01
20  1.9000000000000E-01  8.2169138209705E-01 -1.0107914400898E+00
21  2.0000000000000E-01  8.8910744689153E-01 -1.0474019205572E+00
22  2.1000000000000E-01  9.5615451615014E-01 -1.0771372405044E+00
23  2.2000000000000E-01  1.0224300126345E+00 -1.0999792155599E+00
24  2.3000000000000E-01  1.0875430637901E+00 -1.1160177571502E+00
25  2.4000000000000E-01  1.1511164896340E+00 -1.1254265707226E+00
26  2.5000000000000E-01  1.2127886129073E+00 -1.1284371653249E+00
27  2.6000000000000E-01  1.2722149101045E+00 -1.1253125008105E+00
28  2.7000000000000E-01  1.3290695233260E+00 -1.1163215941112E+00
29  2.8000000000000E-01  1.3830466526641E+00 -1.1017163425861E+00
30  2.9000000000000E-01  1.4338618470973E+00 -1.0817117032019E+00
31  3.0000000000000E-01  1.4812532087869E+00 -1.0564701964157E+00
32  3.1000000000000E-01  1.5249825214356E+00 -1.0260914904851E+00
33  3.2000000000000E-01  1.5648363082592E+00 -9.9060757473371E-01
34  3.3000000000000E-01  1.6006268194249E+00 -9.4998375977521E-01
35  3.4000000000000E-01  1.6321929428696E+00 -9.0412546058497E-01
36  3.5000000000000E-01  1.6594010265650E+00 -8.5289043688490E-01
37  3.6000000000000E-01  1.6821455948860E+00 -7.9610589689239E-01
38  3.7000000000000E-01  1.7003499370983E+00 -7.3358962688638E-01
39  3.8000000000000E-01  1.7139665423898E+00 -6.6517410109282E-01
40  3.9000000000000E-01  1.7229773535841E+00 -5.9073236345542E-01
41  4.0000000000000E-01  1.7273938108823E+00 -5.1020436245640E-01
42  4.1000000000000E-01  1.7272566577947E+00 -4.2362236762315E-01
43  4.2000000000000E-01  1.7226354839046E+00 -3.3113410462358E-01
44  4.3000000000000E-01  1.7136279832219E+00 -2.3302231528547E-01
45  4.4000000000000E-01  1.7003589125258E+00 -1.2971957725135E-01
46  4.5000000000000E-01  1.6829787410943E+00 -2.1817400570358E-02
47  4.6000000000000E-01  1.6616619913216E+00  8.9931151741333E-02
48  4.7000000000000E-01  1.6366052786336E+00  2.0461580440322E-01
49  4.8000000000000E-01  1.6080250684805E+00  3.2118056216346E-01
50  4.9000000000000E-01  1.5761551776313E+00  4.3844223404657E-01
51  5.0000000000000E-01  1.5412440561227E+00  5.5511555779260E-01
52  5.1000000000000E-01  1.5035518946312E+00  6.6984419158744E-01
53  5.2000000000000E-01  1.4633476093577E+00  7.8123656291468E-01
54  5.3000000000000E-01  1.4209057624026E+00  8.8790532303130E-01
55  5.4000000000000E-01  1.3765034797526E+00  9.8850896093898E-01
56  5.5000000000000E-01  1.3304174311841E+00  1.0817939917926E+00
57  5.6000000000000E-01  1.2829209364253E+00  1.1666360582947E+00
58  5.7000000000000E-01  1.2342812597495E+00  1.2420782741617E+00
59  5.8000000000000E-01  1.1847571507845E+00  1.3073651979321E+00
60  5.9000000000000E-01  1.1345966828202E+00  1.3619709521702E+00
61  6.0000000000000E-01  1.0840354314540E+00  1.4056201936828E+00
62  6.1000000000000E-01  1.0332950262922E+00  1.4383008882464E+00
63  6.2000000000000E-01  9.8258209696630E-01  1.4602681396443E+00
64  6.3000000000000E-01  9.3208762230713E-01  1.4720386565322E+00
65  6.4000000000000E-01  8.8198667861177E-01  1.4743757991002E+00
66  6.5000000000000E-01  8.3243856998826E-01  1.4682655167499E+00
67  6.6000000000000E-01  7.8358731127643E-01  1.4548838534952E+00
68  6.7000000000000E-01  7.3556242248961E-01  1.4355570447947E+00
69  6.8000000000000E-01  6.8847998356119E-01  1.4117155438361E+00
70  6.9000000000000E-01  6.4244388982235E-01  1.3848435837350E+00
71  7.0000000000000E-01  5.9754724243627E-01  1.3564260930797E+00
72  7.1000000000000E-01  5.5387380424379E-01  1.3278949262552E+00
73  7.2000000000000E-01  5.1149945032574E-01  1.3005764399453E+00
74  7.3000000000000E-01  4.7049354414911E-01  1.2756424389319E+00
75  7.4000000000000E-01  4.3092017442554E-01  1.2540664265231E+00
76  7.5000000000000E-01  3.9283919465554E-01  1.2365869295773E+00
77  7.6000000000000E-01  3.5630701654263E-01  1.2236794300839E+00
78  7.7000000000000E-01  3.2137711972214E-01  1.2155381325721E+00
79  7.8000000000000E-01  2.8810025316031E-01  1.2120684398463E+00
80  7.9000000000000E-01  2.5652431766608E-01  1.2128906116539E+00
81  8.0000000000000E-01  2.2669393369332E-01  1.2173546566117E+00
82  8.1000000000000E-01  1.9864971342796E-01  1.2245660732138E+00
83  8.2000000000000E-01  1.7242727047310E-01  1.2334216277488E+00
84  8.3000000000000E-01  1.4805601369058E-01  1.2426539523426E+00
85  8.4000000000000E-01  1.2555778338490E-01  1.2508833813246E+00
86  8.5000000000000E-01  1.0494539753048E-01  1.2566751336893E+00
87  8.6000000000000E-01  8.6221182721082E-02  1.2585997066872E+00
88  8.7000000000000E-01  6.9375568627626E-02  1.2552941812536E+00
89  8.8000000000000E-01  5.4385825754576E-02  1.2455220618954E+00
90  8.9000000000000E-01  4.1215024069985E-02  1.2282292864154E+00
91  9.0000000000000E-01  2.9811284654540E-02  1.2025941456200E+00
92  9.1000000000000E-01  2.0107388000224E-02  1.1680690474833E+00
93  9.2000000000000E-01  1.2020791240044E-02  1.1244123382029E+00
94  9.3000000000000E-01  5.4540927717389E-03  1.0717087448548E+00
95  9.4000000000000E-01  2.9596692062771E-04  1.0103774185518E+00
96  9.5000000000000E-01 -3.5774259770016E-03  9.4116701818512E-01
97  9.6000000000000E-01 -6.3005667755080E-03  8.6513776596098E-01
98  9.7000000000000E-01 -8.0162729521689E-03  7.8363090845001E-01
99  9.8000000000000E-01 -8.8730109271116E-03  6.9822651171827E-01
100  9.9000000000000E-01 -9.0218904196291E-03  6.1069098679512E-01
101  1.0000000000000E+00 -8.6134206313254E-03  5.2291616437571E-01
102  1.0100000000000E+00 -7.7941202273351E-03  4.3685209772759E-01
103  1.0200000000000E+00 -6.7030823121005E-03  3.5443605593999E-01
104  1.0300000000000E+00 -5.4686020167526E-03  2.7752040244673E-01
105  1.0400000000000E+00 -4.2049754166710E-03  2.0780187539753E-01
106  1.0500000000000E+00 -3.0092050015684E-03  1.4673061656963E-01
107  1.0600000000000E+00 -1.9571233937938E-03  9.5308458055555E-02
108  1.0700000000000E+00 -1.1081153225190E-03  5.4531157576360E-02
109  1.0800000000000E+00 -4.9724156245550E-04  2.5033567355868E-02
110  1.0900000000000E+00 -1.3344748325398E-04  6.9676455054630E-03
111  1.1000000000000E+00 -3.6080147356072E-06  1.9958369750049E-04
112  1.1100000000000E+00 -5.4091854013054E-07  2.9562670867173E-05
113  1.1200000000000E+00  6.4131075327909E-08 -3.4286390054441E-06
114  1.13  0.  0.
115  1.14  0.  0.
116  1.15  0.  0.
117  1.16  0.  0.
118  1.17  0.  0.
119  1.18  0.  0.
120  1.19  0.  0.
121  1.20  0.  0.
122  1.21  0.  0.
123  1.22  0.  0.
124  1.23  0.  0.
125  1.24  0.  0.
126  1.25  0.  0.
127  1.26  0.  0.
128  1.27  0.  0.
129  1.28  0.  0.
130  1.29  0.  0.
131  1.30  0.  0.
132  1.31  0.  0.
133  1.32  0.  0.
134  1.33  0.  0.
135  1.34  0.  0.
136  1.35  0.  0.
137  1.36  0.  0.
138  1.37  0.  0.
139  1.38  0.  0.
140  1.39  0.  0.
141  1.40  0.  0.
142  1.41  0.  0.
143  1.42  0.  0.
144  1.43  0.  0.
145  1.44  0.  0.
146  1.45  0.  0.
147  1.46  0.  0.
148  1.47  0.  0.
149  1.48  0.  0.
150  1.49  0.  0.
151  1.50  0.  0.
152  1.51  0.  0.
153  1.52  0.  0.
154  1.53  0.  0.
155  1.54  0.  0.
156  1.55  0.  0.
157  1.56  0.  0.
158  1.57  0.  0.
159  1.58  0.  0.
160  1.59  0.  0.
161  1.60  0.  0.
162  1.61  0.  0.
163  1.62  0.  0.
164  1.63  0.  0.
165  1.64  0.  0.
166  1.65  0.  0.
167  1.66  0.  0.
168  1.67  0.  0.
169  1.68  0.  0.
170  1.69  0.  0.
171  1.70  0.  0.
172  1.71  0.  0.
173  1.72  0.  0.
174  1.73  0.  0.
175  1.74  0.  0.
176  1.75  0.  0.
177  1.76  0.  0.
178  1.77  0.  0.
179  1.78  0.  0.
180  1.79  0.  0.
181  1.80  0.  0.
182  1.81  0.  0.
183  1.82  0.  0.
184  1.83  0.  0.
185  1.84  0.  0.
186  1.85  0.  0.
187  1.86  0.  0.
188  1.87  0.  0.
189  1.88  0.  0.
190  1.89  0.  0.
191  1.90  0.  0.
192  1.91  0.  0.
193  1.92  0.  0.
194  1.93  0.  0.
195  1.94  0.  0.
196  1.95  0.  0.
197  1.96  0.  0.