Mt    ONCVPSP-4.0.1  r_core=   1.10144   1.10144   1.10144   1.20485
109.0000     49.0000      220328    zatom,zion,pspd
8      11   3     4   600     0    pspcod,pspxc,lmax,lloc,mmax,r2well
5.99000000  5.00000000  0.00000000    rchrg fchrg qchrg
3     2     2     2     0    nproj
1     1           extension_switch
0                         1.4661069037301E+01 -1.0223607342771E+01  1.4140474580803E+00
1  0.0000000000000E+00  2.9923843403168E-08 -5.0082671343432E-10  8.6088410095053E-08
2  1.0000000000000E-02  1.7610298075138E-01  7.3474952528473E-02  3.5209557422858E-02
3  2.0000000000000E-02  3.5058295600991E-01  1.4678529944221E-01  6.9619514520305E-02
4  3.0000000000000E-02  5.2183160253604E-01  2.1976695926727E-01  1.0243809586658E-01
5  4.0000000000000E-02  6.8826994497094E-01  2.9225689513992E-01  1.3288941421014E-01
6  5.0000000000000E-02  8.4836297920835E-01  3.6409362807899E-01  1.6022198504844E-01
7  6.0000000000000E-02  1.0006342105037E+00  4.3511773981833E-01  1.8371785615468E-01
8  7.0000000000000E-02  1.1436800387877E+00  5.0517236236045E-01  2.0270244576953E-01
9  8.0000000000000E-02  1.2761838937279E+00  5.7410365191281E-01  2.1655509708203E-01
10  9.0000000000000E-02  1.3969299889344E+00  6.4176124543731E-01  2.2472026000054E-01
11  1.0000000000000E-01  1.5048165308161E+00  7.0799869864598E-01  2.2671911045113E-01
12  1.1000000000000E-01  1.5988681855906E+00  7.7267390487723E-01  2.2216131935223E-01
13  1.2000000000000E-01  1.6782475804837E+00  8.3564949485040E-01  2.1075659483389E-01
14  1.3000000000000E-01  1.7422655947056E+00  8.9679321778758E-01  1.9232554866556E-01
15  1.4000000000000E-01  1.7903901845633E+00  9.5597830478022E-01  1.6680938692945E-01
16  1.5000000000000E-01  1.8222534868062E+00  1.0130838155383E+00  1.3427790034528E-01
17  1.6000000000000E-01  1.8376569562318E+00  1.0679949697741E+00  9.4935234529342E-02
18  1.7000000000000E-01  1.8365743182537E+00  1.1206034644315E+00  4.9122956475813E-02
19  1.8000000000000E-01  1.8191521544681E+00  1.1708077777717E+00 -2.6799994386483E-03
20  1.9000000000000E-01  1.7857079884061E+00  1.2185134609794E+00 -5.9860826512561E-02
21  2.0000000000000E-01  1.7367257981465E+00  1.2636334174733E+00 -1.2167998082477E-01
22  2.1000000000000E-01  1.6728489501520E+00  1.3060881695184E+00 -1.8728201348776E-01
23  2.2000000000000E-01  1.5948706219103E+00  1.3458061110769E+00 -2.5571000150710E-01
24  2.3000000000000E-01  1.5037218566534E+00  1.3827237451385E+00 -3.2592331685660E-01
25  2.4000000000000E-01  1.4004574682253E+00  1.4167859030785E+00 -3.9681831352505E-01
26  2.5000000000000E-01  1.2862400846371E+00  1.4479459429513E+00 -4.6725136285828E-01
27  2.6000000000000E-01  1.1623226816020E+00  1.4761659230725E+00 -5.3606353672677E-01
28  2.7000000000000E-01  1.0300300092339E+00  1.5014167468264E+00 -6.0210613347319E-01
29  2.8000000000000E-01  8.9073935339678E-01  1.5236782743757E+00 -6.6426616973402E-01
30  2.9000000000000E-01  7.4586109570971E-01  1.5429393968921E+00 -7.2149092717856E-01
31  3.0000000000000E-01  5.9681954144856E-01  1.5591980690713E+00 -7.7281065029634E-01
32  3.1000000000000E-01  4.4503447179642E-01  1.5724612960700E+00 -8.1735854097899E-01
33  3.2000000000000E-01  2.9190384616798E-01  1.5827450715865E+00 -8.5438728707281E-01
34  3.3000000000000E-01  1.3878803260218E-01  1.5900742646037E+00 -8.8328149249779E-01
35  3.4000000000000E-01 -1.3004118764971E-02  1.5944824532882E+00 -9.0356554106074E-01
36  3.5000000000000E-01 -1.6222711986533E-01  1.5960117056667E+00 -9.1490661801509E-01
37  3.6000000000000E-01 -3.0770845252872E-01  1.5947123079293E+00 -9.1711282441313E-01
38  3.7000000000000E-01 -4.4835587721565E-01  1.5906424425033E+00 -9.1012653983112E-01
39  3.8000000000000E-01 -5.8316247296156E-01  1.5838678193322E+00 -8.9401340880017E-01
40  3.9000000000000E-01 -7.1120952956447E-01  1.5744612650347E+00 -8.6894753461451E-01
41  4.0000000000000E-01 -8.3166749723259E-01  1.5625022757523E+00 -8.3519365068366E-01
42  4.1000000000000E-01 -9.4379527259208E-01  1.5480765404623E+00 -7.9308719453091E-01
43  4.2000000000000E-01 -1.0469381595810E+00  1.5312754422888E+00 -7.4301332439145E-01
44  4.3000000000000E-01 -1.1405248863627E+00  1.5121955458569E+00 -6.8538598626597E-01
45  4.4000000000000E-01 -1.2240640827562E+00  1.4909380789532E+00 -6.2062815538178E-01
46  4.5000000000000E-01 -1.2971406254485E+00  1.4676084166825E+00 -5.4915433777988E-01
47  4.6000000000000E-01 -1.3594122399976E+00  1.4423155759257E+00 -4.7135632513952E-01
48  4.7000000000000E-01 -1.4106067099442E+00  1.4151717272114E+00 -3.8759305153959E-01
49  4.8000000000000E-01 -1.4505199857549E+00  1.3862917301493E+00 -2.9818520972008E-01
50  4.9000000000000E-01 -1.4790154123203E+00  1.3557926973524E+00 -2.0341505401767E-01
51  5.0000000000000E-01 -1.4960242066314E+00  1.3237935903502E+00 -1.0353155708119E-01
52  5.1000000000000E-01 -1.5015472210868E+00  1.2904148494244E+00  1.2391909870627E-03
53  5.2000000000000E-01 -1.4956579271792E+00  1.2557780576386E+00  1.1067873673465E-01
54  5.3000000000000E-01 -1.4785064539729E+00  1.2200056376535E+00  2.2455684330146E-01
55  5.4000000000000E-01 -1.4503244207883E+00  1.1832205782951E+00  3.4260882496930E-01
56  5.5000000000000E-01 -1.4114302187639E+00  1.1455461863432E+00  4.6451078764089E-01
57  5.6000000000000E-01 -1.3622343259875E+00  1.1071058576950E+00  5.8985410373690E-01
58  5.7000000000000E-01 -1.3032441896810E+00  1.0680228610025E+00  7.1812057167994E-01
59  5.8000000000000E-01 -1.2350681796861E+00  1.0284201261316E+00  8.4865976842007E-01
60  5.9000000000000E-01 -1.1584181125461E+00  9.8842002938085E-01  9.8067009304878E-01
61  6.0000000000000E-01 -1.0741098660317E+00  9.4814416736872E-01  1.1131849180959E+00
62  6.1000000000000E-01 -9.8306165012090E-01  9.0771311184750E-01  1.2450651133831E+00
63  6.2000000000000E-01 -8.8628957110760E-01  8.6724613843873E-01  1.3749989893265E+00
64  6.3000000000000E-01 -7.8490021844389E-01  8.2686092338170E-01  1.5015104294478E+00
65  6.4000000000000E-01 -6.8008011573953E-01  7.8667320381275E-01  1.6229756556254E+00
66  6.5000000000000E-01 -5.7308200372939E-01  7.4679639879740E-01  1.7376487068876E+00
67  6.6000000000000E-01 -4.6520805882256E-01  7.0734119025871E-01  1.8436953279999E+00
68  6.7000000000000E-01 -3.5779029031332E-01  6.6841506501078E-01  1.9392345739131E+00
69  6.8000000000000E-01 -2.5216849635196E-01  6.3012182123686E-01  2.0223870573056E+00
70  6.9000000000000E-01 -1.4966628712884E-01  5.9256104486232E-01  2.0913284160588E+00
71  7.0000000000000E-01 -5.1565797375033E-02  5.5582756327865E-01  2.1443462719789E+00
72  7.1000000000000E-01  4.0918196344457E-02  5.2001088569336E-01  2.1798987064068E+00
73  7.2000000000000E-01  1.2666396985386E-01  4.8519464093516E-01  2.1966721054156E+00
74  7.3000000000000E-01  2.0466753424963E-01  4.5145602476678E-01  2.1936361371696E+00
75  7.4000000000000E-01  2.7406547722882E-01  4.1886526959363E-01  2.1700936234868E+00
76  7.5000000000000E-01  3.3415515850322E-01  3.8748514986549E-01  2.1257231597386E+00
77  7.6000000000000E-01  3.8441151401603E-01  3.5737053642480E-01  2.0606125210208E+00
78  7.7000000000000E-01  4.2449981448197E-01  3.2856801255446E-01  1.9752811629959E+00
79  7.8000000000000E-01  4.5428384338029E-01  3.0111556353009E-01  1.8706904739375E+00
80  7.9000000000000E-01  4.7382910362836E-01  2.7504235011768E-01  1.7482408475472E+00
81  8.0000000000000E-01  4.8340082524927E-01  2.5036857472356E-01  1.6097551080770E+00
82  8.1000000000000E-01  4.8345672186321E-01  2.2710544686081E-01  1.4574483114110E+00
83  8.2000000000000E-01  4.7463462450600E-01  2.0525525231979E-01  1.2938844474161E+00
84  8.3000000000000E-01  4.5773529936166E-01  1.8481152800448E-01  1.1219210582894E+00
85  8.4000000000000E-01  4.3370092362649E-01  1.6575934191002E-01  9.4464324287513E-01
86  8.5000000000000E-01  4.0358984325519E-01  1.4807567526452E-01  7.6528891685903E-01
87  8.6000000000000E-01  3.6854836070192E-01  1.3172990153035E-01  5.8716752396415E-01
88  8.7000000000000E-01  3.2978039378328E-01  1.1668435484314E-01  4.1357462704361E-01
89  8.8000000000000E-01  2.8851590347718E-01  1.0289497863787E-01  2.4770493702164E-01
90  8.9000000000000E-01  2.4597900530591E-01  9.0312043736373E-02  9.2566352888590E-02
91  9.0000000000000E-01  2.0335665405973E-01  7.8880924098432E-02 -4.9102516983052E-02
92  9.1000000000000E-01  1.6176872489895E-01  6.8542917803599E-02 -1.7490910243635E-01
93  9.2000000000000E-01  1.2224020706741E-01  5.9236100646829E-02 -2.8287597054582E-01
94  9.3000000000000E-01  8.5676083081885E-02  5.0896199993946E-02 -3.7150079180953E-01
95  9.4000000000000E-01  5.2839291581188E-02  4.3457477229576E-02 -4.3980620791798E-01
96  9.5000000000000E-01  2.4331972730973E-02  3.6853608199440E-02 -4.8737921994169E-01
97  9.6000000000000E-01  5.7997914649833E-04  3.1018552444926E-02 -5.1440034298215E-01
98  9.7000000000000E-01 -1.8179588360564E-02  2.5887403679760E-02 -5.2166341767390E-01
99  9.8000000000000E-01 -3.1908282938203E-02  2.1397215788027E-02 -5.1058760373216E-01
100  9.9000000000000E-01 -4.0774331746122E-02  1.7487800569517E-02 -4.8322370421247E-01
101  1.0000000000000E+00 -4.5159563914289E-02  1.4102495030331E-02 -4.4225718635842E-01
102  1.0100000000000E+00 -4.5661933568719E-02  1.1188878664876E-02 -3.9099365646959E-01
103  1.0200000000000E+00 -4.3031276056023E-02  8.6991719000369E-03 -3.3308221208949E-01
104  1.0300000000000E+00 -3.8069462233658E-02  6.5904904616750E-03 -2.7212318393691E-01
105  1.0400000000000E+00 -3.1589034414852E-02  4.8252798799377E-03 -2.1152848530432E-01
106  1.0500000000000E+00 -2.4378042827123E-02  3.3701594217938E-03 -1.5441814240902E-01
107  1.0600000000000E+00 -1.7132917137899E-02  2.1862454755861E-03 -1.0346585317477E-01
108  1.0700000000000E+00 -1.0523771786520E-02  1.2604331925552E-03 -6.0974751348550E-02
109  1.0800000000000E+00 -5.1549823490273E-03  5.8830814207957E-04 -2.8798299480815E-02
110  1.0900000000000E+00 -1.5234432362059E-03  1.6798660970516E-04 -8.2386040047508E-03
111  1.1000000000000E+00 -4.6319946341535E-05  5.0004692659186E-06 -2.4267577754848E-04
112  1.1100000000000E+00 -6.8309098305258E-06  7.3422110177476E-07 -3.5898131534175E-05
113  1.1200000000000E+00  7.7250465197213E-07 -8.3946118449050E-08  4.1135913511626E-06
114  1.13  0.  0.  0.
115  1.14  0.  0.  0.
116  1.15  0.  0.  0.
117  1.16  0.  0.  0.
118  1.17  0.  0.  0.
119  1.18  0.  0.  0.
120  1.19  0.  0.  0.
121  1.20  0.  0.  0.
122  1.21  0.  0.  0.
123  1.22  0.  0.  0.
124  1.23  0.  0.  0.
125  1.24  0.  0.  0.
126  1.25  0.  0.  0.
127  1.26  0.  0.  0.
128  1.27  0.  0.  0.
129  1.28  0.  0.  0.
130  1.29  0.  0.  0.
131  1.30  0.  0.  0.
132  1.31  0.  0.  0.
133  1.32  0.  0.  0.
134  1.33  0.  0.  0.
135  1.34  0.  0.  0.
136  1.35  0.  0.  0.
137  1.36  0.  0.  0.
138  1.37  0.  0.  0.
139  1.38  0.  0.  0.
140  1.39  0.  0.  0.
141  1.40  0.  0.  0.
142  1.41  0.  0.  0.
143  1.42  0.  0.  0.
144  1.43  0.  0.  0.
145  1.44  0.  0.  0.
146  1.45  0.  0.  0.
147  1.46  0.  0.  0.
148  1.47  0.  0.  0.
149  1.48  0.  0.  0.
150  1.49  0.  0.  0.
151  1.50  0.  0.  0.
152  1.51  0.  0.  0.
153  1.52  0.  0.  0.
154  1.53  0.  0.  0.
155  1.54  0.  0.  0.
156  1.55  0.  0.  0.
157  1.56  0.  0.  0.
158  1.57  0.  0.  0.
159  1.58  0.  0.  0.
160  1.59  0.  0.  0.
161  1.60  0.  0.  0.
162  1.61  0.  0.  0.
163  1.62  0.  0.  0.
164  1.63  0.  0.  0.
165  1.64  0.  0.  0.
166  1.65  0.  0.  0.
167  1.66  0.  0.  0.
168  1.67  0.  0.  0.
169  1.68  0.  0.  0.
170  1.69  0.  0.  0.
171  1.70  0.  0.  0.
172  1.71  0.  0.  0.
173  1.72  0.  0.  0.
174  1.73  0.  0.  0.
175  1.74  0.  0.  0.
176  1.75  0.  0.  0.
177  1.76  0.  0.  0.
178  1.77  0.  0.  0.
179  1.78  0.  0.  0.
180  1.79  0.  0.  0.
181  1.80  0.  0.  0.
182  1.81  0.  0.  0.
183  1.82  0.  0.  0.
184  1.83  0.  0.  0.
185  1.84  0.  0.  0.
186  1.85  0.  0.  0.
187  1.86  0.  0.  0.
188  1.87  0.  0.  0.
189  1.88  0.  0.  0.
190  1.89  0.  0.  0.
191  1.90  0.  0.  0.
192  1.91  0.  0.  0.
193  1.92  0.  0.  0.
194  1.93  0.  0.  0.
195  1.94  0.  0.  0.
196  1.95  0.  0.  0.
197  1.96  0.  0.  0.
198  1.97  0.  0.  0.
199  1.98  0.  0.  0.
200  1.99  0.  0.  0.
201  2.00  0.  0.  0.
202  2.01  0.  0.  0.
203  2.02  0.  0.  0.
204  2.03  0.  0.  0.
205  2.04  0.  0.  0.
206  2.05  0.  0.  0.
207  2.06  0.  0.  0.
208  2.07  0.  0.  0.
209  2.08  0.  0.  0.
210  2.09  0.  0.  0.
211  2.10  0.  0.  0.
212  2.11  0.  0.  0.
213  2.12  0.  0.  0.
214  2.13  0.  0.  0.
215  2.14  0.  0.  0.
216  2.15  0.  0.  0.
217  2.16  0.  0.  0.
218  2.17  0.  0.  0.
219  2.18  0.  0.  0.
220  2.19  0.  0.  0.
221  2.20  0.  0.  0.
222  2.21  0.  0.  0.
223  2.22  0.  0.  0.
224  2.23  0.  0.  0.
225  2.24  0.  0.  0.
226  2.25  0.  0.  0.
227  2.26  0.  0.  0.
228  2.27  0.  0.  0.
229  2.28  0.  0.  0.
230  2.29  0.  0.  0.
231  2.30  0.  0.  0.
232  2.31  0.  0.  0.
233  2.32  0.  0.  0.
234  2.33  0.  0.  0.
235  2.34  0.  0.  0.
236  2.35  0.  0.  0.
237  2.36  0.  0.  0.
238  2.37  0.  0.  0.
239  2.38  0.  0.  0.
240  2.39  0.  0.  0.
241  2.40  0.  0.  0.
242  2.41  0.  0.  0.
243  2.42  0.  0.  0.
244  2.43  0.  0.  0.
245  2.44  0.  0.  0.
246  2.45  0.  0.  0.
247  2.46  0.  0.  0.
248  2.47  0.  0.  0.
249  2.48  0.  0.  0.
250  2.49  0.  0.  0.
251  2.50  0.  0.  0.
252  2.51  0.  0.  0.
253  2.52  0.  0.  0.
254  2.53  0.  0.  0.
255  2.54  0.  0.  0.
256  2.55  0.  0.  0.
257  2.56  0.  0.  0.
258  2.57  0.  0.  0.
259  2.58  0.  0.  0.
260  2.59  0.  0.  0.
261  2.60  0.  0.  0.
262  2.61  0.  0.  0.
263  2.62  0.  0.  0.
264  2.63  0.  0.  0.
265  2.64  0.  0.  0.
266  2.65  0.  0.  0.
267  2.66  0.  0.  0.
268  2.67  0.  0.  0.
269  2.68  0.  0.  0.
270  2.69  0.  0.  0.
271  2.70  0.  0.  0.
272  2.71  0.  0.  0.
273  2.72  0.  0.  0.
274  2.73  0.  0.  0.
275  2.74  0.  0.  0.
276  2.75  0.  0.  0.
277  2.76  0.  0.  0.
278  2.77  0.  0.  0.
279  2.78  0.  0.  0.
280  2.79  0.  0.  0.
281  2.80  0.  0.  0.
282  2.81  0.  0.  0.
283  2.82  0.  0.  0.
284  2.83  0.  0.  0.
285  2.84  0.  0.  0.
286  2.85  0.  0.  0.
287  2.86  0.  0.  0.
288  2.87  0.  0.  0.
289  2.88  0.  0.  0.
290  2.89  0.  0.  0.
291  2.90  0.  0.  0.
292  2.91  0.  0.  0.
293  2.92  0.  0.  0.
294  2.93  0.  0.  0.
295  2.94  0.  0.  0.
296  2.95  0.  0.  0.
297  2.96  0.  0.  0.
298  2.97  0.  0.  0.
299  2.98  0.  0.  0.
300  2.99  0.  0.  0.
301  3.00  0.  0.  0.
302  3.01  0.  0.  0.
303  3.02  0.  0.  0.
304  3.03  0.  0.  0.
305  3.04  0.  0.  0.
306  3.05  0.  0.  0.
307  3.06  0.  0.  0.
308  3.07  0.  0.  0.
309  3.08  0.  0.  0.
310  3.09  0.  0.  0.
311  3.10  0.  0.  0.
312  3.11  0.  0.  0.
313  3.12  0.  0.  0.
314  3.13  0.  0.  0.
315  3.14  0.  0.  0.
316  3.15  0.  0.  0.
317  3.16  0.  0.  0.
318  3.17  0.  0.  0.
319  3.18  0.  0.  0.
320  3.19  0.  0.  0.
321  3.20  0.  0.  0.
322  3.21  0.  0.  0.
323  3.22  0.  0.  0.
324  3.23  0.  0.  0.
325  3.24  0.  0.  0.
326  3.25  0.  0.  0.
327  3.26  0.  0.  0.
328  3.27  0.  0.  0.
329  3.28  0.  0.  0.
330  3.29  0.  0.  0.
331  3.30  0.  0.  0.
332  3.31  0.  0.  0.
333  3.32  0.  0.  0.
334  3.33  0.  0.  0.
335  3.34  0.  0.  0.
336  3.35  0.  0.  0.
337  3.36  0.  0.  0.
338  3.37  0.  0.  0.
339  3.38  0.  0.  0.
340  3.39  0.  0.  0.
341  3.40  0.  0.  0.
342  3.41  0.  0.  0.
343  3.42  0.  0.  0.
344  3.43  0.  0.  0.
345  3.44  0.  0.  0.
346  3.45  0.  0.  0.
347  3.46  0.  0.  0.
348  3.47  0.  0.  0.
349  3.48  0.  0.  0.
350  3.49  0.  0.  0.
351  3.50  0.  0.  0.
352  3.51  0.  0.  0.
353  3.52  0.  0.  0.
354  3.53  0.  0.  0.
355  3.54  0.  0.  0.
356  3.55  0.  0.  0.
357  3.56  0.  0.  0.
358  3.57  0.  0.  0.
359  3.58  0.  0.  0.
360  3.59  0.  0.  0.
361  3.60  0.  0.  0.
362  3.61  0.  0.  0.
363  3.62  0.  0.  0.
364  3.63  0.  0.  0.
365  3.64  0.  0.  0.
366  3.65  0.  0.  0.
367  3.66  0.  0.  0.
368  3.67  0.  0.  0.
369  3.68  0.  0.  0.
370  3.69  0.  0.  0.
371  3.70  0.  0.  0.
372  3.71  0.  0.  0.
373  3.72  0.  0.  0.
374  3.73  0.  0.  0.
375  3.74  0.  0.  0.
376  3.75  0.  0.  0.
377  3.76  0.  0.  0.
378  3.77  0.  0.  0.
379  3.78  0.  0.  0.
380  3.79  0.  0.  0.
381  3.80  0.  0.  0.
382  3.81  0.  0.  0.
383  3.82  0.  0.  0.
384  3.83  0.  0.  0.
385  3.84  0.  0.  0.
386  3.85  0.  0.  0.
387  3.86  0.  0.  0.
388  3.87  0.  0.  0.
389  3.88  0.  0.  0.
390  3.89  0.  0.  0.
391  3.90  0.  0.  0.
392  3.91  0.  0.  0.
393  3.92  0.  0.  0.
394  3.93  0.  0.  0.
395  3.94  0.  0.  0.
396  3.95  0.  0.  0.
397  3.96  0.  0.  0.
398  3.97  0.  0.  0.
399  3.98  0.  0.  0.
400  3.99  0.  0.  0.
401  4.00  0.  0.  0.
402  4.01  0.  0.  0.
403  4.02  0.  0.  0.
404  4.03  0.  0.  0.
405  4.04  0.  0.  0.
406  4.05  0.  0.  0.
407  4.06  0.  0.  0.
408  4.07  0.  0.  0.
409  4.08  0.  0.  0.
410  4.09  0.  0.  0.
411  4.10  0.  0.  0.
412  4.11  0.  0.  0.
413  4.12  0.  0.  0.
414  4.13  0.  0.  0.
415  4.14  0.  0.  0.
416  4.15  0.  0.  0.
417  4.16  0.  0.  0.
418  4.17  0.  0.  0.
419  4.18  0.  0.  0.
420  4.19  0.  0.  0.
421  4.20  0.  0.  0.
422  4.21  0.  0.  0.
423  4.22  0.  0.  0.
424  4.23  0.  0.  0.
425  4.24  0.  0.  0.
426  4.25  0.  0.  0.
427  4.26  0.  0.  0.
428  4.27  0.  0.  0.
429  4.28  0.  0.  0.
430  4.29  0.  0.  0.
431  4.30  0.  0.  0.
432  4.31  0.  0.  0.
433  4.32  0.  0.  0.
434  4.33  0.  0.  0.
435  4.34  0.  0.  0.
436  4.35  0.  0.  0.
437  4.36  0.  0.  0.
438  4.37  0.  0.  0.
439  4.38  0.  0.  0.
440  4.39  0.  0.  0.
441  4.40  0.  0.  0.
442  4.41  0.  0.  0.
443  4.42  0.  0.  0.
444  4.43  0.  0.  0.
445  4.44  0.  0.  0.
446  4.45  0.  0.  0.
447  4.46  0.  0.  0.
448  4.47  0.  0.  0.
449  4.48  0.  0.  0.
450  4.49  0.  0.  0.
451  4.50  0.  0.  0.
452  4.51  0.  0.  0.
453  4.52  0.  0.  0.
454  4.53  0.  0.  0.
455  4.54  0.  0.  0.
456  4.55  0.  0.  0.
457  4.56  0.  0.  0.
458  4.57  0.  0.  0.
459  4.58  0.  0.  0.
460  4.59  0.  0.  0.
461  4.60  0.  0.  0.
462  4.61  0.  0.  0.
463  4.62  0.  0.  0.
464  4.63  0.  0.  0.
465  4.64  0.  0.  0.
466  4.65  0.  0.  0.
467  4.66  0.  0.  0.
468  4.67  0.  0.  0.
469  4.68  0.  0.  0.
470  4.69  0.  0.  0.
471  4.70  0.  0.  0.
472  4.71  0.  0.  0.
473  4.72  0.  0.  0.
474  4.73  0.  0.  0.
475  4.74  0.  0.  0.
476  4.75  0.  0.  0.
477  4.76  0.  0.  0.
478  4.77  0.  0.  0.
479  4.78  0.  0.  0.
480  4.79  0.  0.  0.
481  4.80  0.  0.  0.
482  4.81  0.  0.  0.
483  4.82  0.  0.  0.
484  4.83  0.  0.  0.
485  4.84  0.  0.  0.
486  4.85  0.  0.  0.
487  4.86  0.  0.  0.
488  4.87  0.  0.  0.
489  4.88  0.  0.  0.
490  4.89  0.  0.  0.
491  4.90  0.  0.  0.
492  4.91  0.  0.  0.
493  4.92  0.  0.  0.
494  4.93  0.  0.  0.
495  4.94  0.  0.  0.
496  4.95  0.  0.  0.
497  4.96  0.  0.  0.
498  4.97  0.  0.  0.
499  4.98  0.  0.  0.
500  4.99  0.  0.  0.
501  5.00  0.  0.  0.
502  5.01  0.  0.  0.
503  5.02  0.  0.  0.
504  5.03  0.  0.  0.
505  5.04  0.  0.  0.
506  5.05  0.  0.  0.
507  5.06  0.  0.  0.
508  5.07  0.  0.  0.
509  5.08  0.  0.  0.
510  5.09  0.  0.  0.
511  5.10  0.  0.  0.
512  5.11  0.  0.  0.
513  5.12  0.  0.  0.
514  5.13  0.  0.  0.
515  5.14  0.  0.  0.
516  5.15  0.  0.  0.
517  5.16  0.  0.  0.
518  5.17  0.  0.  0.
519  5.18  0.  0.  0.
520  5.19  0.  0.  0.
521  5.20  0.  0.  0.
522  5.21  0.  0.  0.
523  5.22  0.  0.  0.
524  5.23  0.  0.  0.
525  5.24  0.  0.  0.
526  5.25  0.  0.  0.
527  5.26  0.  0.  0.
528  5.27  0.  0.  0.
529  5.28  0.  0.  0.
530  5.29  0.  0.  0.
531  5.30  0.  0.  0.
532  5.31  0.  0.  0.
533  5.32  0.  0.  0.
534  5.33  0.  0.  0.
535  5.34  0.  0.  0.
536  5.35  0.  0.  0.
537  5.36  0.  0.  0.
538  5.37  0.  0.  0.
539  5.38  0.  0.  0.
540  5.39  0.  0.  0.
541  5.40  0.  0.  0.
542  5.41  0.  0.  0.
543  5.42  0.  0.  0.
544  5.43  0.  0.  0.
545  5.44  0.  0.  0.
546  5.45  0.  0.  0.
547  5.46  0.  0.  0.
548  5.47  0.  0.  0.
549  5.48  0.  0.  0.
550  5.49  0.  0.  0.
551  5.50  0.  0.  0.
552  5.51  0.  0.  0.
553  5.52  0.  0.  0.
554  5.53  0.  0.  0.
555  5.54  0.  0.  0.
556  5.55  0.  0.  0.
557  5.56  0.  0.  0.
558  5.57  0.  0.  0.
559  5.58  0.  0.  0.
560  5.59  0.  0.  0.
561  5.60  0.  0.  0.
562  5.61  0.  0.  0.
563  5.62  0.  0.  0.
564  5.63  0.  0.  0.
565  5.64  0.  0.  0.
566  5.65  0.  0.  0.
567  5.66  0.  0.  0.
568  5.67  0.  0.  0.
569  5.68  0.  0.  0.
570  5.69  0.  0.  0.
571  5.70  0.  0.  0.
572  5.71  0.  0.  0.
573  5.72  0.  0.  0.
574  5.73  0.  0.  0.
575  5.74  0.  0.  0.
576  5.75  0.  0.  0.
577  5.76  0.  0.  0.
578  5.77  0.  0.  0.
579  5.78  0.  0.  0.
580  5.79  0.  0.  0.
581  5.80  0.  0.  0.
582  5.81  0.  0.  0.
583  5.82  0.  0.  0.
584  5.83  0.  0.  0.
585  5.84  0.  0.  0.
586  5.85  0.  0.  0.
587  5.86  0.  0.  0.
588  5.87  0.  0.  0.
589  5.88  0.  0.  0.
590  5.89  0.  0.  0.
591  5.90  0.  0.  0.
592  5.91  0.  0.  0.
593  5.92  0.  0.  0.
594  5.93  0.  0.  0.
595  5.94  0.  0.  0.
596  5.95  0.  0.  0.
597  5.96  0.  0.  0.
598  5.97  0.  0.  0.
599  5.98  0.  0.  0.
600  5.99  0.  0.  0.
1                        -8.1572456581308E+00  2.0524310451641E+00
1  0.0000000000000E+00  9.7559694767213E-09  7.9235529915067E-08
2  1.0000000000000E-02  2.9339777131808E-03 -2.4873320038478E-03
3  2.0000000000000E-02  1.1711386031307E-02 -9.9526115835735E-03
4  3.0000000000000E-02  2.6258960864924E-02 -2.2404478469548E-02
5  4.0000000000000E-02  4.6455623688823E-02 -3.9853354283900E-02
6  5.0000000000000E-02  7.2134002140549E-02 -6.2305678419794E-02
7  6.0000000000000E-02  1.0308251584305E-01 -8.9756234886745E-02
8  7.0000000000000E-02  1.3904798595044E-01 -1.2217894628584E-01
9  8.0000000000000E-02  1.7973871715972E-01 -1.5951659031429E-01
10  9.0000000000000E-02  2.2482799264630E-01 -2.0166995391502E-01
11  1.0000000000000E-01  2.7395791578157E-01 -2.4848697780342E-01
12  1.1000000000000E-01  3.2674352773278E-01 -2.9975245797496E-01
13  1.2000000000000E-01  3.8277712721846E-01 -3.5517886028159E-01
14  1.3000000000000E-01  4.4163271782063E-01 -4.1439876965028E-01
15  1.4000000000000E-01  5.0287050929382E-01 -4.7695943840450E-01
16  1.5000000000000E-01  5.6604140215337E-01 -5.4231982079026E-01
17  1.6000000000000E-01  6.3069138930604E-01 -6.0985038640571E-01
18  1.7000000000000E-01  6.9636581438639E-01 -6.7883589770511E-01
19  1.8000000000000E-01  7.6261343352607E-01 -7.4848122055895E-01
20  1.9000000000000E-01  8.2899023521973E-01 -8.1792011682671E-01
21  2.0000000000000E-01  8.9506298145328E-01 -8.8622684901545E-01
22  2.1000000000000E-01  9.6041244201462E-01 -9.5243031428227E-01
23  2.2000000000000E-01  1.0246363026045E+00 -1.0155303229525E+00
24  2.3000000000000E-01  1.0873517357167E+00 -1.0745155495764E+00
25  2.4000000000000E-01  1.1481976310028E+00 -1.1283826159094E+00
26  2.5000000000000E-01  1.2068364887486E+00 -1.1761557178686E+00
27  2.6000000000000E-01  1.2629559860019E+00 -1.2169061843927E+00
28  2.7000000000000E-01  1.3162702296636E+00 -1.2497713561442E+00
29  2.8000000000000E-01  1.3665207144298E+00 -1.2739721960566E+00
30  2.9000000000000E-01  1.4134770058281E+00 -1.2888290907783E+00
31  3.0000000000000E-01  1.4569371697686E+00 -1.2937753700514E+00
32  3.1000000000000E-01  1.4967279701194E+00 -1.2883681571084E+00
33  3.2000000000000E-01  1.5327048549489E+00 -1.2722962636167E+00
34  3.3000000000000E-01  1.5647517504291E+00 -1.2453849533456E+00
35  3.4000000000000E-01  1.5927806791595E+00 -1.2075975149170E+00
36  3.5000000000000E-01  1.6167312170691E+00 -1.1590337009052E+00
37  3.6000000000000E-01  1.6365698003107E+00 -1.0999252032934E+00
38  3.7000000000000E-01  1.6522888908928E+00 -1.0306284392224E+00
39  3.8000000000000E-01  1.6639060074130E+00 -9.5161501179157E-01
40  3.9000000000000E-01  1.6714626253383E+00 -8.6346028468388E-01
41  4.0000000000000E-01  1.6750229499794E+00 -7.6683056358076E-01
42  4.1000000000000E-01  1.6746725647354E+00 -6.6246940957192E-01
43  4.2000000000000E-01  1.6705169574100E+00 -5.5118361881826E-01
44  4.3000000000000E-01  1.6626799284415E+00 -4.3382938837528E-01
45  4.4000000000000E-01  1.6513018867143E+00 -3.1129915109361E-01
46  4.5000000000000E-01  1.6365380411576E+00 -1.8450950462201E-01
47  4.6000000000000E-01  1.6185564994679E+00 -5.4390583381319E-02
48  4.7000000000000E-01  1.5975362888471E+00  7.8122868612729E-02
49  4.8000000000000E-01  1.5736653174600E+00  2.1209856794385E-01
50  4.9000000000000E-01  1.5471382991441E+00  3.4661185679942E-01
51  5.0000000000000E-01  1.5181546675504E+00  4.8074902381924E-01
52  5.1000000000000E-01  1.4869165091131E+00  6.1360894741420E-01
53  5.2000000000000E-01  1.4536265468249E+00  7.4430332526090E-01
54  5.3000000000000E-01  1.4184862085319E+00  8.7195583770528E-01
55  5.4000000000000E-01  1.3816938141861E+00  9.9570065974027E-01
56  5.5000000000000E-01  1.3434429160645E+00  1.1146807827008E+00
57  5.6000000000000E-01  1.3039208243025E+00  1.2280466303175E+00
58  5.7000000000000E-01  1.2633073471427E+00  1.3349554527046E+00
59  5.8000000000000E-01  1.2217737710993E+00  1.4345719556828E+00
60  5.9000000000000E-01  1.1794821008401E+00  1.5260705720716E+00
61  6.0000000000000E-01  1.1365845721337E+00  1.6086397078206E+00
62  6.1000000000000E-01  1.0932234438659E+00  1.6814882017082E+00
63  6.2000000000000E-01  1.0495310671363E+00  1.7438541263740E+00
64  6.3000000000000E-01  1.0056302210553E+00  1.7950159350400E+00
65  6.4000000000000E-01  9.6163469638458E-01  1.8343058274578E+00
66  6.5000000000000E-01  9.1765009990579E-01  1.8611250758720E+00
67  6.6000000000000E-01  8.7377484468833E-01  1.8749609228718E+00
68  6.7000000000000E-01  8.3010128458172E-01  1.8754045436812E+00
69  6.8000000000000E-01  7.8671694556984E-01  1.8621694612655E+00
70  6.9000000000000E-01  7.4370580237024E-01  1.8351097187344E+00
71  7.0000000000000E-01  7.0114954606148E-01  1.7942370543327E+00
72  7.1000000000000E-01  6.5912878774769E-01  1.7397362934364E+00
73  7.2000000000000E-01  6.1772414442857E-01  1.6719781719349E+00
74  7.3000000000000E-01  5.7701715637396E-01  1.5915288375793E+00
75  7.4000000000000E-01  5.3709099036726E-01  1.4991553404070E+00
76  7.5000000000000E-01  4.9803089006863E-01  1.3958265190094E+00
77  7.6000000000000E-01  4.5992434327234E-01  1.2827088137026E+00
78  7.7000000000000E-01  4.2286094573218E-01  1.1611566868153E+00
79  7.8000000000000E-01  3.8693195218806E-01  1.0326974994416E+00
80  7.9000000000000E-01  3.5222951686909E-01  8.9901087723737E-01
81  8.0000000000000E-01  3.1884563766354E-01  7.6190278852585E-01
82  8.1000000000000E-01  2.8687082989107E-01  6.2327474891271E-01
83  8.2000000000000E-01  2.5639256674025E-01  4.8508875034556E-01
84  8.3000000000000E-01  2.2749353350149E-01  3.4932868164273E-01
85  8.4000000000000E-01  2.0024975131423E-01  2.1795915483748E-01
86  8.5000000000000E-01  1.7472863288300E-01  9.2882770730819E-02
87  8.6000000000000E-01  1.5098703718023E-01 -2.4103057803731E-02
88  8.7000000000000E-01  1.2906939230156E-01 -1.3134855943022E-01
89  8.8000000000000E-01  1.0900595520894E-01 -2.2739216422834E-01
90  8.9000000000000E-01  9.0811274022870E-02 -3.1099803692722E-01
91  9.0000000000000E-01  7.4482912839331E-02 -3.8118953131206E-01
92  9.1000000000000E-01  6.0000490883511E-02 -4.3727763558711E-01
93  9.2000000000000E-01  4.7325077405496E-02 -4.7888363826630E-01
94  9.3000000000000E-01  3.6398971398296E-02 -5.0595543677767E-01
95  9.4000000000000E-01  2.7145881388690E-02 -5.1877712994870E-01
96  9.5000000000000E-01  1.9471505694032E-02 -5.1797177328141E-01
97  9.6000000000000E-01  1.3264498186627E-02 -5.0449742384271E-01
98  9.7000000000000E-01  8.3977893291869E-03 -4.7963685045625E-01
99  9.8000000000000E-01  4.7302176128251E-03 -4.4498152530453E-01
100  9.9000000000000E-01  2.1084125282106E-03 -4.0241074882130E-01
101  1.0000000000000E+00  3.6886580797627E-04 -3.5406679003708E-01
102  1.0100000000000E+00 -6.5949020051209E-04 -3.0231807425924E-01
103  1.0200000000000E+00 -1.1466283373838E-03 -2.4958479914817E-01
104  1.0300000000000E+00 -1.2502839346007E-03 -1.9812000901353E-01
105  1.0400000000000E+00 -1.1109082012012E-03 -1.4993615418106E-01
106  1.0500000000000E+00 -8.4688222629910E-04 -1.0672821709211E-01
107  1.0600000000000E+00 -5.4670718087428E-04 -6.9670716899172E-02
108  1.0700000000000E+00 -2.8516518578444E-04 -3.9936832029180E-02
109  1.0800000000000E+00 -1.0616494601219E-04 -1.8312150940036E-02
110  1.0900000000000E+00 -1.9163042175545E-05 -5.0749771523417E-03
111  1.1000000000000E+00 -1.0933431934848E-07 -1.4420569088445E-04
112  1.1100000000000E+00 -2.8291440527822E-08 -2.1391712133861E-05
113  1.1200000000000E+00  6.1763977392463E-09  2.4883721716459E-06
114  1.13  0.  0.
115  1.14  0.  0.
116  1.15  0.  0.
117  1.16  0.  0.
118  1.17  0.  0.
119  1.18  0.  0.
120  1.19  0.  0.
121  1.20  0.  0.
122  1.21  0.  0.
123  1.22  0.  0.
124  1.23  0.  0.
125  1.24  0.  0.
126  1.25  0.  0.
127  1.26  0.  0.
128  1.27  0.  0.
129  1.28  0.  0.
130  1.29  0.  0.
131  1.30  0.  0.
132  1.31  0.  0.
133  1.32  0.  0.
134  1.33  0.  0.
135  1.34  0.  0.
136  1.35  0.  0.
137  1.36  0.  0.
138  1.37  0.  0.
139  1.38  0.  0.
140  1.39  0.  0.
141  1.40  0.  0.
142  1.41  0.  0.
143  1.42  0.  0.
144  1.43  0.  0.
145  1.44  0.  0.
146  1.45  0.  0.
147  1.46  0.  0.
148  1.47  0.  0.
149  1.48  0.  0.
150  1.49  0.  0.
151  1.50  0.  0.
152  1.51  0.  0.
153  1.52  0.  0.
154  1.53  0.  0.
155  1.54  0.  0.
156  1.55  0.  0.
157  1.56  0.  0.
158  1.57  0.  0.
159  1.58  0.  0.
160  1.59  0.  0.
161  1.60  0.  0.
162  1.61  0.  0.
163  1.62  0.  0.
164  1.63  0.  0.
165  1.64  0.  0.
166  1.65  0.  0.
167  1.66  0.  0.
168  1.67  0.  0.
169  1.68  0.  0.
170  1.69  0.  0.
171  1.70  0.  0.
172  1.71  0.  0.
173  1.72  0.  0.
174  1.73  0.  0.
175  1.74  0.  0.
176  1.75  0.  0.
177  1.76  0.  0.
178  1.77  0.  0.
179  1.78  0.  0.
180  1.79  0.  0.
181  1.80  0.  0.
182  1.81  0.  0.
183  1.82  0.  0.
184  1.83  0.  0.
185  1.84  0.  0.
186  1.85  0.  0.
187  1.86  0.  0.
188  1.87  0.  0.
189  1.88  0.  0.
190  1.89  0.  0.
191  1.90  0.  0.
192  1.91  0.  0.
193  1.92  0.  0.
194  1.93  0.  0.
195  1.94  0.  0.
196  1.95  0.  0.
197  1.96  0.  0.