Mt    ONCVPSP-4.0.1  r_core=   1.15543   1.15543   1.15543   1.20485
109.0000     49.0000      220328    zatom,zion,pspd
8      11   3     4   600     0    pspcod,pspxc,lmax,lloc,mmax,r2well
5.99000000  3.80000000  0.00000000    rchrg fchrg qchrg
3     2     2     2     0    nproj
1     1           extension_switch
0                         1.2558422872731E+01 -1.0302260906118E+01  1.4395439466298E+00
1  0.0000000000000E+00  1.7466497803653E-08 -9.5294605539920E-10  4.8654865580922E-08
2  1.0000000000000E-02  1.6394694786490E-01  7.8241142491065E-02  3.4804791621217E-02
3  2.0000000000000E-02  3.2646628353579E-01  1.5627357385928E-01  6.8941147712503E-02
4  3.0000000000000E-02  4.8614216262309E-01  2.3388960154762E-01  1.0174572555073E-01
5  4.0000000000000E-02  6.4158225926775E-01  3.1088355949286E-01  1.3256554021832E-01
6  5.0000000000000E-02  7.9142947757578E-01  3.8705279504158E-01  1.6076356002788E-01
7  6.0000000000000E-02  9.3437359159590E-01  4.6219862499668E-01  1.8572476342927E-01
8  7.0000000000000E-02  1.0691627675213E+00  5.3612725168663E-01  2.0686274950155E-01
9  8.0000000000000E-02  1.1946149043303E+00  6.0865063090242E-01  2.2362694547742E-01
10  9.0000000000000E-02  1.3096287094126E+00  6.7958728466675E-01  2.3551039900002E-01
11  1.0000000000000E-01  1.4131944051391E+00  7.4876305304173E-01  2.4205808298868E-01
12  1.1000000000000E-01  1.5044039422117E+00  8.1601178050015E-01  2.4287558036595E-01
13  1.2000000000000E-01  1.5824605773884E+00  8.8117593372974E-01  2.3763795784684E-01
14  1.3000000000000E-01  1.6466876582012E+00  9.4410714906248E-01  2.2609858583007E-01
15  1.4000000000000E-01  1.6965364468364E+00  1.0046667089744E+00  2.0809761823215E-01
16  1.5000000000000E-01  1.7315928105134E+00  1.0627259482437E+00  1.8356981458002E-01
17  1.6000000000000E-01  1.7515826073323E+00  1.1181665913505E+00  1.5255136900128E-01
18  1.7000000000000E-01  1.7563756052211E+00  1.1708810235216E+00  1.1518540847569E-01
19  1.8000000000000E-01  1.7459877875450E+00  1.2207724984498E+00  7.1725836677810E-02
20  1.9000000000000E-01  1.7205819220321E+00  1.2677552861399E+00  2.2539230012397E-02
21  2.0000000000000E-01  1.6804662994785E+00  1.3117547645528E+00 -3.1895461684184E-02
22  2.1000000000000E-01  1.6260915844280E+00  1.3527074587458E+00 -9.0989597305055E-02
23  2.2000000000000E-01  1.5580457605839E+00  1.3905610310606E+00 -1.5405002507669E-01
24  2.3000000000000E-01  1.4770471977436E+00  1.4252742256170E+00 -2.2028679607305E-01
25  2.4000000000000E-01  1.3839359129760E+00  1.4568167699677E+00 -2.8882335811760E-01
26  2.5000000000000E-01  1.2796631448744E+00  1.4851692362896E+00 -3.5870908831709E-01
27  2.6000000000000E-01  1.1652794042336E+00  1.5103228639793E+00 -4.2893393482206E-01
28  2.7000000000000E-01  1.0419212056296E+00  1.5322793450218E+00 -4.9844485619012E-01
29  2.8000000000000E-01  9.1079672045317E-01  1.5510505730547E+00 -5.6616367363401E-01
30  2.9000000000000E-01  7.7317062142440E-01  1.5666583566918E+00 -6.3100589083507E-01
31  3.0000000000000E-01  6.3034841020656E-01  1.5791340974343E+00 -6.9189999079020E-01
32  3.1000000000000E-01  4.8366053245488E-01  1.5885184324036E+00 -7.4780669160756E-01
33  3.2000000000000E-01  3.3444658781342E-01  1.5948608422022E+00 -7.9773763482836E-01
34  3.3000000000000E-01  1.8403993574449E-01  1.5982192244451E+00 -8.4077299147639E-01
35  3.4000000000000E-01  3.3752981757153E-02  1.5986594339078E+00 -8.7607750251350E-01
36  3.5000000000000E-01 -1.1513659688969E-01  1.5962547907948E+00 -9.0291452075684E-01
37  3.6000000000000E-01 -2.6139846069732E-01  1.5910855593130E+00 -9.2065768879561E-01
38  3.7000000000000E-01 -4.0386086812773E-01  1.5832383995248E+00 -9.2879996948825E-01
39  3.8000000000000E-01 -5.4142044823901E-01  1.5728057962947E+00 -9.2695983901063E-01
40  3.9000000000000E-01 -6.7305039745644E-01  1.5598854700102E+00 -9.1488455342370E-01
41  4.0000000000000E-01 -7.9780706387252E-01  1.5445797745861E+00 -8.9245050421515E-01
42  4.1000000000000E-01 -9.1483493385351E-01  1.5269950890167E+00 -8.5966078192142E-01
43  4.2000000000000E-01 -1.0233700847659E+00  1.5072412093680E+00 -8.1664016541268E-01
44  4.3000000000000E-01 -1.1227422123608E+00  1.4854307485570E+00 -7.6362784354047E-01
45  4.4000000000000E-01 -1.2123753799798E+00  1.4616785515169E+00 -7.0096825178062E-01
46  4.5000000000000E-01 -1.2917876677194E+00  1.4361011333526E+00 -6.2910046592667E-01
47  4.6000000000000E-01 -1.3605899217899E+00  1.4088161478413E+00 -5.4854663515690E-01
48  4.7000000000000E-01 -1.4184838166439E+00  1.3799418931025E+00 -4.5989995603658E-01
49  4.8000000000000E-01 -1.4652594445991E+00  1.3495968604697E+00 -3.6381268624357E-01
50  4.9000000000000E-01 -1.5007926395930E+00  1.3178993315337E+00 -2.6098467196008E-01
51  5.0000000000000E-01 -1.5250422238130E+00  1.2849670270382E+00 -1.5215281685197E-01
52  5.1000000000000E-01 -1.5380473390940E+00  1.2509168098157E+00 -3.8081855178848E-02
53  5.2000000000000E-01 -1.5399249903977E+00  1.2158644423098E+00  8.0443290470467E-02
54  5.3000000000000E-01 -1.5308678879889E+00  1.1799243974872E+00  2.0262338159150E-01
55  5.4000000000000E-01 -1.5111426299867E+00  1.1432097201724E+00  3.2764888550725E-01
56  5.5000000000000E-01 -1.4810882198871E+00  1.1058319340905E+00  4.5470217461123E-01
57  5.6000000000000E-01 -1.4411148666570E+00  1.0679009882643E+00  5.8295804000997E-01
58  5.7000000000000E-01 -1.3917029703546E+00  1.0295252349399E+00  7.1158276000625E-01
59  5.8000000000000E-01 -1.3334021561321E+00  9.9081142997338E-01  8.3973205740434E-01
60  5.9000000000000E-01 -1.2668301859843E+00  9.5186474566378E-01  9.6654835866911E-01
61  6.0000000000000E-01 -1.1926715525247E+00  9.1278878541228E-01  1.0911578285615E+00
62  6.1000000000000E-01 -1.1116755438750E+00  8.7368558935595E-01  1.2126676927349E+00
63  6.2000000000000E-01 -1.0246535645418E+00  8.3465562030201E-01  1.3301643754873E+00
64  6.3000000000000E-01 -9.3247550455328E-01  7.9579771987719E-01  1.4427129689779E+00
65  6.4000000000000E-01 -8.3606496829314E-01  7.5720902580495E-01  1.5493585133449E+00
66  6.5000000000000E-01 -7.3639320503424E-01  7.1898484261069E-01  1.6491295050097E+00
67  6.6000000000000E-01 -6.3447162428808E-01  6.8121845979293E-01  1.7410439648321E+00
68  6.7000000000000E-01 -5.3134282939278E-01  6.4400091353761E-01  1.8241182915473E+00
69  6.8000000000000E-01 -4.2807016049141E-01  6.0742069032856E-01  1.8973790028762E+00
70  6.9000000000000E-01 -3.2572580104012E-01  5.7156337324329E-01  1.9598773315059E+00
71  7.0000000000000E-01 -2.2537756778203E-01  5.3651123423813E-01  2.0107065010611E+00
72  7.1000000000000E-01 -1.2807457008003E-01  5.0234277822878E-01  2.0490213639774E+00
73  7.2000000000000E-01 -3.4831987863271E-02  4.6913224717177E-01  2.0740599447981E+00
74  7.3000000000000E-01  5.3384724516375E-02  4.3694909455806E-01  2.0851663047824E+00
75  7.4000000000000E-01  1.3567585110140E-01  4.0585744265713E-01  2.0818140324940E+00
76  7.5000000000000E-01  2.1122324656577E-01  3.7591553642098E-01  2.0636295753910E+00
77  7.6000000000000E-01  2.7930556305913E-01  3.4717520910700E-01  2.0304145637418E+00
78  7.7000000000000E-01  3.3931243313495E-01  3.1968137535530E-01  1.9821662439053E+00
79  7.8000000000000E-01  3.9075717140847E-01  2.9347156762535E-01  1.9190951354363E+00
80  7.9000000000000E-01  4.3328757408904E-01  2.6857553154236E-01  1.8416390566617E+00
81  8.0000000000000E-01  4.6669442719784E-01  2.4501489482996E-01  1.7504727260367E+00
82  8.1000000000000E-01  4.9091738030088E-01  2.2280292313544E-01  1.6465122400419E+00
83  8.2000000000000E-01  5.0604790154313E-01  2.0194437423062E-01  1.5309138496313E+00
84  8.3000000000000E-01  5.1232909964614E-01  1.8243545985728E-01  1.4050666019864E+00
85  8.4000000000000E-01  5.1015227681115E-01  1.6426392195858E-01  1.2705785771830E+00
86  8.5000000000000E-01  5.0005016019432E-01  1.4740922728920E-01  1.1292566239953E+00
87  8.6000000000000E-01  4.8268684552287E-01  1.3184288152920E-01  9.8307967840882E-01
88  8.7000000000000E-01  4.5884457103662E-01  1.1752886114828E-01  8.3416592505901E-01
89  8.8000000000000E-01  4.2940751975113E-01  1.0442415848990E-01  6.8473422815560E-01
90  8.9000000000000E-01  3.9534291962399E-01  9.2479432977545E-02  5.3706040715113E-01
91  9.0000000000000E-01  3.5767977137445E-01  8.1639759090512E-02  3.9342905657393E-01
92  9.1000000000000E-01  3.1748557965290E-01  7.1845459907039E-02  2.5608170304996E-01
93  9.2000000000000E-01  2.7584149267633E-01  6.3033013644389E-02  1.2716215062955E-01
94  9.3000000000000E-01  2.3381626665339E-01  5.5136019799290E-02  8.6598845056055E-03
95  9.4000000000000E-01  1.9243946334596E-01  4.8086211245075E-02 -9.7647618987778E-02
96  9.5000000000000E-01  1.5267426174085E-01  4.1814498990410E-02 -1.9025289198952E-01
97  9.6000000000000E-01  1.1539021862014E-01  3.6252037239985E-02 -2.6797610426647E-01
98  9.7000000000000E-01  8.1336249218869E-02  3.1331297887628E-02 -3.3002178303436E-01
99  9.8000000000000E-01  5.1114020260561E-02  2.6987145562187E-02 -3.7603425828128E-01
100  9.9000000000000E-01  2.5151850858533E-02  2.3157906868666E-02 -4.0615168763190E-01
101  1.0000000000000E+00  3.6791838575564E-03  1.9786428843275E-02 -4.2105849440800E-01
102  1.0100000000000E+00 -1.3294840259536E-02  1.6821051742244E-02 -4.2202343946805E-01
103  1.0200000000000E+00 -2.5945479370437E-02  1.4215423170991E-02 -4.1073750552049E-01
104  1.0300000000000E+00 -3.4563832993181E-02  1.1927684619734E-02 -3.8906145813791E-01
105  1.0400000000000E+00 -3.9534166126107E-02  9.9205549320510E-03 -3.5895814274518E-01
106  1.0500000000000E+00 -4.1316418378359E-02  8.1614266344703E-03 -3.2244861727295E-01
107  1.0600000000000E+00 -4.0427280192210E-02  6.6223430491105E-03 -2.8156644464215E-01
108  1.0700000000000E+00 -3.7420403629792E-02  5.2798748831443E-03 -2.3831121475168E-01
109  1.0800000000000E+00 -3.2866414864517E-02  4.1149201151784E-03 -1.9460266976358E-01
110  1.0900000000000E+00 -2.7333241373212E-02  3.1124244994927E-03 -1.5223656641670E-01
111  1.1000000000000E+00 -2.1364664229148E-02  2.2604327412672E-03 -1.1283984229288E-01
112  1.1100000000000E+00 -1.5411427577292E-02  1.5402461040037E-03 -7.7759346474146E-02
113  1.1200000000000E+00 -9.9318237787663E-03  9.5011816308579E-04 -4.8191441175981E-02
114  1.1300000000000E+00 -5.3573139957979E-03  4.9638916471983E-04 -2.5133042978319E-02
115  1.1400000000000E+00 -2.0440250078420E-03  1.8541188401643E-04 -9.3116125907541E-03
116  1.1500000000000E+00 -2.6896696183082E-04  2.4124890787506E-05 -1.1937372435663E-03
117  1.1600000000000E+00  1.4944533398796E-05 -1.3290353112162E-06  6.5179264313358E-05
118  1.1700000000000E+00  3.7280565099082E-07 -3.3390467027182E-08  1.6605792288744E-06
119  1.18 -0. -0. -0.
120  1.19  0.  0.  0.
121  1.20  0.  0.  0.
122  1.21  0.  0.  0.
123  1.22  0.  0.  0.
124  1.23  0.  0.  0.
125  1.24  0.  0.  0.
126  1.25  0.  0.  0.
127  1.26  0.  0.  0.
128  1.27  0.  0.  0.
129  1.28  0.  0.  0.
130  1.29  0.  0.  0.
131  1.30  0.  0.  0.
132  1.31  0.  0.  0.
133  1.32  0.  0.  0.
134  1.33  0.  0.  0.
135  1.34  0.  0.  0.
136  1.35  0.  0.  0.
137  1.36  0.  0.  0.
138  1.37  0.  0.  0.
139  1.38  0.  0.  0.
140  1.39  0.  0.  0.
141  1.40  0.  0.  0.
142  1.41  0.  0.  0.
143  1.42  0.  0.  0.
144  1.43  0.  0.  0.
145  1.44  0.  0.  0.
146  1.45  0.  0.  0.
147  1.46  0.  0.  0.
148  1.47  0.  0.  0.
149  1.48  0.  0.  0.
150  1.49  0.  0.  0.
151  1.50  0.  0.  0.
152  1.51  0.  0.  0.
153  1.52  0.  0.  0.
154  1.53  0.  0.  0.
155  1.54  0.  0.  0.
156  1.55  0.  0.  0.
157  1.56  0.  0.  0.
158  1.57  0.  0.  0.
159  1.58  0.  0.  0.
160  1.59  0.  0.  0.
161  1.60  0.  0.  0.
162  1.61  0.  0.  0.
163  1.62  0.  0.  0.
164  1.63  0.  0.  0.
165  1.64  0.  0.  0.
166  1.65  0.  0.  0.
167  1.66  0.  0.  0.
168  1.67  0.  0.  0.
169  1.68  0.  0.  0.
170  1.69  0.  0.  0.
171  1.70  0.  0.  0.
172  1.71  0.  0.  0.
173  1.72  0.  0.  0.
174  1.73  0.  0.  0.
175  1.74  0.  0.  0.
176  1.75  0.  0.  0.
177  1.76  0.  0.  0.
178  1.77  0.  0.  0.
179  1.78  0.  0.  0.
180  1.79  0.  0.  0.
181  1.80  0.  0.  0.
182  1.81  0.  0.  0.
183  1.82  0.  0.  0.
184  1.83  0.  0.  0.
185  1.84  0.  0.  0.
186  1.85  0.  0.  0.
187  1.86  0.  0.  0.
188  1.87  0.  0.  0.
189  1.88  0.  0.  0.
190  1.89  0.  0.  0.
191  1.90  0.  0.  0.
192  1.91  0.  0.  0.
193  1.92  0.  0.  0.
194  1.93  0.  0.  0.
195  1.94  0.  0.  0.
196  1.95  0.  0.  0.
197  1.96  0.  0.  0.
198  1.97  0.  0.  0.
199  1.98  0.  0.  0.
200  1.99  0.  0.  0.
201  2.00  0.  0.  0.
202  2.01  0.  0.  0.
203  2.02  0.  0.  0.
204  2.03  0.  0.  0.
205  2.04  0.  0.  0.
206  2.05  0.  0.  0.
207  2.06  0.  0.  0.
208  2.07  0.  0.  0.
209  2.08  0.  0.  0.
210  2.09  0.  0.  0.
211  2.10  0.  0.  0.
212  2.11  0.  0.  0.
213  2.12  0.  0.  0.
214  2.13  0.  0.  0.
215  2.14  0.  0.  0.
216  2.15  0.  0.  0.
217  2.16  0.  0.  0.
218  2.17  0.  0.  0.
219  2.18  0.  0.  0.
220  2.19  0.  0.  0.
221  2.20  0.  0.  0.
222  2.21  0.  0.  0.
223  2.22  0.  0.  0.
224  2.23  0.  0.  0.
225  2.24  0.  0.  0.
226  2.25  0.  0.  0.
227  2.26  0.  0.  0.
228  2.27  0.  0.  0.
229  2.28  0.  0.  0.
230  2.29  0.  0.  0.
231  2.30  0.  0.  0.
232  2.31  0.  0.  0.
233  2.32  0.  0.  0.
234  2.33  0.  0.  0.
235  2.34  0.  0.  0.
236  2.35  0.  0.  0.
237  2.36  0.  0.  0.
238  2.37  0.  0.  0.
239  2.38  0.  0.  0.
240  2.39  0.  0.  0.
241  2.40  0.  0.  0.
242  2.41  0.  0.  0.
243  2.42  0.  0.  0.
244  2.43  0.  0.  0.
245  2.44  0.  0.  0.
246  2.45  0.  0.  0.
247  2.46  0.  0.  0.
248  2.47  0.  0.  0.
249  2.48  0.  0.  0.
250  2.49  0.  0.  0.
251  2.50  0.  0.  0.
252  2.51  0.  0.  0.
253  2.52  0.  0.  0.
254  2.53  0.  0.  0.
255  2.54  0.  0.  0.
256  2.55  0.  0.  0.
257  2.56  0.  0.  0.
258  2.57  0.  0.  0.
259  2.58  0.  0.  0.
260  2.59  0.  0.  0.
261  2.60  0.  0.  0.
262  2.61  0.  0.  0.
263  2.62  0.  0.  0.
264  2.63  0.  0.  0.
265  2.64  0.  0.  0.
266  2.65  0.  0.  0.
267  2.66  0.  0.  0.
268  2.67  0.  0.  0.
269  2.68  0.  0.  0.
270  2.69  0.  0.  0.
271  2.70  0.  0.  0.
272  2.71  0.  0.  0.
273  2.72  0.  0.  0.
274  2.73  0.  0.  0.
275  2.74  0.  0.  0.
276  2.75  0.  0.  0.
277  2.76  0.  0.  0.
278  2.77  0.  0.  0.
279  2.78  0.  0.  0.
280  2.79  0.  0.  0.
281  2.80  0.  0.  0.
282  2.81  0.  0.  0.
283  2.82  0.  0.  0.
284  2.83  0.  0.  0.
285  2.84  0.  0.  0.
286  2.85  0.  0.  0.
287  2.86  0.  0.  0.
288  2.87  0.  0.  0.
289  2.88  0.  0.  0.
290  2.89  0.  0.  0.
291  2.90  0.  0.  0.
292  2.91  0.  0.  0.
293  2.92  0.  0.  0.
294  2.93  0.  0.  0.
295  2.94  0.  0.  0.
296  2.95  0.  0.  0.
297  2.96  0.  0.  0.
298  2.97  0.  0.  0.
299  2.98  0.  0.  0.
300  2.99  0.  0.  0.
301  3.00  0.  0.  0.
302  3.01  0.  0.  0.
303  3.02  0.  0.  0.
304  3.03  0.  0.  0.
305  3.04  0.  0.  0.
306  3.05  0.  0.  0.
307  3.06  0.  0.  0.
308  3.07  0.  0.  0.
309  3.08  0.  0.  0.
310  3.09  0.  0.  0.
311  3.10  0.  0.  0.
312  3.11  0.  0.  0.
313  3.12  0.  0.  0.
314  3.13  0.  0.  0.
315  3.14  0.  0.  0.
316  3.15  0.  0.  0.
317  3.16  0.  0.  0.
318  3.17  0.  0.  0.
319  3.18  0.  0.  0.
320  3.19  0.  0.  0.
321  3.20  0.  0.  0.
322  3.21  0.  0.  0.
323  3.22  0.  0.  0.
324  3.23  0.  0.  0.
325  3.24  0.  0.  0.
326  3.25  0.  0.  0.
327  3.26  0.  0.  0.
328  3.27  0.  0.  0.
329  3.28  0.  0.  0.
330  3.29  0.  0.  0.
331  3.30  0.  0.  0.
332  3.31  0.  0.  0.
333  3.32  0.  0.  0.
334  3.33  0.  0.  0.
335  3.34  0.  0.  0.
336  3.35  0.  0.  0.
337  3.36  0.  0.  0.
338  3.37  0.  0.  0.
339  3.38  0.  0.  0.
340  3.39  0.  0.  0.
341  3.40  0.  0.  0.
342  3.41  0.  0.  0.
343  3.42  0.  0.  0.
344  3.43  0.  0.  0.
345  3.44  0.  0.  0.
346  3.45  0.  0.  0.
347  3.46  0.  0.  0.
348  3.47  0.  0.  0.
349  3.48  0.  0.  0.
350  3.49  0.  0.  0.
351  3.50  0.  0.  0.
352  3.51  0.  0.  0.
353  3.52  0.  0.  0.
354  3.53  0.  0.  0.
355  3.54  0.  0.  0.
356  3.55  0.  0.  0.
357  3.56  0.  0.  0.
358  3.57  0.  0.  0.
359  3.58  0.  0.  0.
360  3.59  0.  0.  0.
361  3.60  0.  0.  0.
362  3.61  0.  0.  0.
363  3.62  0.  0.  0.
364  3.63  0.  0.  0.
365  3.64  0.  0.  0.
366  3.65  0.  0.  0.
367  3.66  0.  0.  0.
368  3.67  0.  0.  0.
369  3.68  0.  0.  0.
370  3.69  0.  0.  0.
371  3.70  0.  0.  0.
372  3.71  0.  0.  0.
373  3.72  0.  0.  0.
374  3.73  0.  0.  0.
375  3.74  0.  0.  0.
376  3.75  0.  0.  0.
377  3.76  0.  0.  0.
378  3.77  0.  0.  0.
379  3.78  0.  0.  0.
380  3.79  0.  0.  0.
381  3.80  0.  0.  0.
382  3.81  0.  0.  0.
383  3.82  0.  0.  0.
384  3.83  0.  0.  0.
385  3.84  0.  0.  0.
386  3.85  0.  0.  0.
387  3.86  0.  0.  0.
388  3.87  0.  0.  0.
389  3.88  0.  0.  0.
390  3.89  0.  0.  0.
391  3.90  0.  0.  0.
392  3.91  0.  0.  0.
393  3.92  0.  0.  0.
394  3.93  0.  0.  0.
395  3.94  0.  0.  0.
396  3.95  0.  0.  0.
397  3.96  0.  0.  0.
398  3.97  0.  0.  0.
399  3.98  0.  0.  0.
400  3.99  0.  0.  0.
401  4.00  0.  0.  0.
402  4.01  0.  0.  0.
403  4.02  0.  0.  0.
404  4.03  0.  0.  0.
405  4.04  0.  0.  0.
406  4.05  0.  0.  0.
407  4.06  0.  0.  0.
408  4.07  0.  0.  0.
409  4.08  0.  0.  0.
410  4.09  0.  0.  0.
411  4.10  0.  0.  0.
412  4.11  0.  0.  0.
413  4.12  0.  0.  0.
414  4.13  0.  0.  0.
415  4.14  0.  0.  0.
416  4.15  0.  0.  0.
417  4.16  0.  0.  0.
418  4.17  0.  0.  0.
419  4.18  0.  0.  0.
420  4.19  0.  0.  0.
421  4.20  0.  0.  0.
422  4.21  0.  0.  0.
423  4.22  0.  0.  0.
424  4.23  0.  0.  0.
425  4.24  0.  0.  0.
426  4.25  0.  0.  0.
427  4.26  0.  0.  0.
428  4.27  0.  0.  0.
429  4.28  0.  0.  0.
430  4.29  0.  0.  0.
431  4.30  0.  0.  0.
432  4.31  0.  0.  0.
433  4.32  0.  0.  0.
434  4.33  0.  0.  0.
435  4.34  0.  0.  0.
436  4.35  0.  0.  0.
437  4.36  0.  0.  0.
438  4.37  0.  0.  0.
439  4.38  0.  0.  0.
440  4.39  0.  0.  0.
441  4.40  0.  0.  0.
442  4.41  0.  0.  0.
443  4.42  0.  0.  0.
444  4.43  0.  0.  0.
445  4.44  0.  0.  0.
446  4.45  0.  0.  0.
447  4.46  0.  0.  0.
448  4.47  0.  0.  0.
449  4.48  0.  0.  0.
450  4.49  0.  0.  0.
451  4.50  0.  0.  0.
452  4.51  0.  0.  0.
453  4.52  0.  0.  0.
454  4.53  0.  0.  0.
455  4.54  0.  0.  0.
456  4.55  0.  0.  0.
457  4.56  0.  0.  0.
458  4.57  0.  0.  0.
459  4.58  0.  0.  0.
460  4.59  0.  0.  0.
461  4.60  0.  0.  0.
462  4.61  0.  0.  0.
463  4.62  0.  0.  0.
464  4.63  0.  0.  0.
465  4.64  0.  0.  0.
466  4.65  0.  0.  0.
467  4.66  0.  0.  0.
468  4.67  0.  0.  0.
469  4.68  0.  0.  0.
470  4.69  0.  0.  0.
471  4.70  0.  0.  0.
472  4.71  0.  0.  0.
473  4.72  0.  0.  0.
474  4.73  0.  0.  0.
475  4.74  0.  0.  0.
476  4.75  0.  0.  0.
477  4.76  0.  0.  0.
478  4.77  0.  0.  0.
479  4.78  0.  0.  0.
480  4.79  0.  0.  0.
481  4.80  0.  0.  0.
482  4.81  0.  0.  0.
483  4.82  0.  0.  0.
484  4.83  0.  0.  0.
485  4.84  0.  0.  0.
486  4.85  0.  0.  0.
487  4.86  0.  0.  0.
488  4.87  0.  0.  0.
489  4.88  0.  0.  0.
490  4.89  0.  0.  0.
491  4.90  0.  0.  0.
492  4.91  0.  0.  0.
493  4.92  0.  0.  0.
494  4.93  0.  0.  0.
495  4.94  0.  0.  0.
496  4.95  0.  0.  0.
497  4.96  0.  0.  0.
498  4.97  0.  0.  0.
499  4.98  0.  0.  0.
500  4.99  0.  0.  0.
501  5.00  0.  0.  0.
502  5.01  0.  0.  0.
503  5.02  0.  0.  0.
504  5.03  0.  0.  0.
505  5.04  0.  0.  0.
506  5.05  0.  0.  0.
507  5.06  0.  0.  0.
508  5.07  0.  0.  0.
509  5.08  0.  0.  0.
510  5.09  0.  0.  0.
511  5.10  0.  0.  0.
512  5.11  0.  0.  0.
513  5.12  0.  0.  0.
514  5.13  0.  0.  0.
515  5.14  0.  0.  0.
516  5.15  0.  0.  0.
517  5.16  0.  0.  0.
518  5.17  0.  0.  0.
519  5.18  0.  0.  0.
520  5.19  0.  0.  0.
521  5.20  0.  0.  0.
522  5.21  0.  0.  0.
523  5.22  0.  0.  0.
524  5.23  0.  0.  0.
525  5.24  0.  0.  0.
526  5.25  0.  0.  0.
527  5.26  0.  0.  0.
528  5.27  0.  0.  0.
529  5.28  0.  0.  0.
530  5.29  0.  0.  0.
531  5.30  0.  0.  0.
532  5.31  0.  0.  0.
533  5.32  0.  0.  0.
534  5.33  0.  0.  0.
535  5.34  0.  0.  0.
536  5.35  0.  0.  0.
537  5.36  0.  0.  0.
538  5.37  0.  0.  0.
539  5.38  0.  0.  0.
540  5.39  0.  0.  0.
541  5.40  0.  0.  0.
542  5.41  0.  0.  0.
543  5.42  0.  0.  0.
544  5.43  0.  0.  0.
545  5.44  0.  0.  0.
546  5.45  0.  0.  0.
547  5.46  0.  0.  0.
548  5.47  0.  0.  0.
549  5.48  0.  0.  0.
550  5.49  0.  0.  0.
551  5.50  0.  0.  0.
552  5.51  0.  0.  0.
553  5.52  0.  0.  0.
554  5.53  0.  0.  0.
555  5.54  0.  0.  0.
556  5.55  0.  0.  0.
557  5.56  0.  0.  0.
558  5.57  0.  0.  0.
559  5.58  0.  0.  0.
560  5.59  0.  0.  0.
561  5.60  0.  0.  0.
562  5.61  0.  0.  0.
563  5.62  0.  0.  0.
564  5.63  0.  0.  0.
565  5.64  0.  0.  0.
566  5.65  0.  0.  0.
567  5.66  0.  0.  0.
568  5.67  0.  0.  0.
569  5.68  0.  0.  0.
570  5.69  0.  0.  0.
571  5.70  0.  0.  0.
572  5.71  0.  0.  0.
573  5.72  0.  0.  0.
574  5.73  0.  0.  0.
575  5.74  0.  0.  0.
576  5.75  0.  0.  0.
577  5.76  0.  0.  0.
578  5.77  0.  0.  0.
579  5.78  0.  0.  0.
580  5.79  0.  0.  0.
581  5.80  0.  0.  0.
582  5.81  0.  0.  0.
583  5.82  0.  0.  0.
584  5.83  0.  0.  0.
585  5.84  0.  0.  0.
586  5.85  0.  0.  0.
587  5.86  0.  0.  0.
588  5.87  0.  0.  0.
589  5.88  0.  0.  0.
590  5.89  0.  0.  0.
591  5.90  0.  0.  0.
592  5.91  0.  0.  0.
593  5.92  0.  0.  0.
594  5.93  0.  0.  0.
595  5.94  0.  0.  0.
596  5.95  0.  0.  0.
597  5.96  0.  0.  0.
598  5.97  0.  0.  0.
599  5.98  0.  0.  0.
600  5.99  0.  0.  0.
1                        -8.2271489342412E+00  1.5582772305951E+00
1  0.0000000000000E+00  7.6358746825544E-09  4.1873991954433E-08
2  1.0000000000000E-02  3.0692887695532E-03 -1.2922529995301E-03
3  2.0000000000000E-02  1.2251355026403E-02 -5.1826168511836E-03
4  3.0000000000000E-02  2.7469092626589E-02 -1.1711066316701E-02
5  4.0000000000000E-02  4.8594966850172E-02 -2.0941454415114E-02
6  5.0000000000000E-02  7.5452461957821E-02 -3.2957451252497E-02
7  6.0000000000000E-02  1.0781807664614E-01 -4.7857047629307E-02
8  7.0000000000000E-02  1.4542383702308E-01 -6.5745805396465E-02
9  8.0000000000000E-02  1.8796028908887E-01 -8.6729078405329E-02
10  9.0000000000000E-02  2.3507992581893E-01 -1.1090346265921E-01
11  1.0000000000000E-01  2.8640099793032E-01 -1.3834776084671E-01
12  1.1000000000000E-01  3.4151165237878E-01 -1.6911376402014E-01
13  1.2000000000000E-01  3.9997433866174E-01 -2.0321716127375E-01
14  1.3000000000000E-01  4.6133042015014E-01 -2.4062888668905E-01
15  1.4000000000000E-01  5.2510492597080E-01 -2.8126720167763E-01
16  1.5000000000000E-01  5.9081137841443E-01 -3.2499079060574E-01
17  1.6000000000000E-01  6.5795663143188E-01 -3.7159311896014E-01
18  1.7000000000000E-01  7.2604565745683E-01 -4.2079826730396E-01
19  1.8000000000000E-01  7.9458622248767E-01 -4.7225841209621E-01
20  1.9000000000000E-01  8.6309339298740E-01 -5.2555307750538E-01
21  2.0000000000000E-01  9.3109382261060E-01 -5.8019023217084E-01
22  2.1000000000000E-01  9.9812977192191E-01 -6.3560925305948E-01
23  2.2000000000000E-01  1.0637628200007E+00 -6.9118572675864E-01
24  2.3000000000000E-01  1.1275772329937E+00 -7.4623800833262E-01
25  2.4000000000000E-01  1.1891829611448E+00 -8.0003541075331E-01
26  2.5000000000000E-01  1.2482182424519E+00 -8.5180785526447E-01
27  2.6000000000000E-01  1.3043517977550E+00 -9.0075677603994E-01
28  2.7000000000000E-01  1.3572846085979E+00 -9.4606704212107E-01
29  2.8000000000000E-01  1.4067512755368E+00 -9.8691963659364E-01
30  2.9000000000000E-01  1.4525209605617E+00 -1.0225048177560E+00
31  3.0000000000000E-01  1.4943979228842E+00 -1.0520354798311E+00
32  3.1000000000000E-01  1.5322216624332E+00 -1.0747604315105E+00
33  3.2000000000000E-01  1.5658666899450E+00 -1.0899773189600E+00
34  3.3000000000000E-01  1.5952419464856E+00 -1.0970449352786E+00
35  3.4000000000000E-01  1.6202898985774E+00 -1.0953946800232E+00
36  3.5000000000000E-01  1.6409853378156E+00 -1.0845409593061E+00
37  3.6000000000000E-01  1.6573339159465E+00 -1.0640903480674E+00
38  3.7000000000000E-01  1.6693704478685E+00 -1.0337493702152E+00
39  3.8000000000000E-01  1.6771570159305E+00 -9.9333078818277E-01
40  3.9000000000000E-01  1.6807809092811E+00 -9.4275832983822E-01
41  4.0000000000000E-01  1.6803524319119E+00 -8.8206981640503E-01
42  4.1000000000000E-01  1.6760026124895E+00 -8.1141868900180E-01
43  4.2000000000000E-01  1.6678808481375E+00 -7.3107396261111E-01
44  4.3000000000000E-01  1.6561525130662E+00 -6.4141866391046E-01
45  4.4000000000000E-01  1.6409965614038E+00 -5.4294683280120E-01
46  4.5000000000000E-01  1.6226031518188E+00 -4.3625918620867E-01
47  4.6000000000000E-01  1.6011713195756E+00 -3.2205755656572E-01
48  4.7000000000000E-01  1.5769067195821E+00 -2.0113822630711E-01
49  4.8000000000000E-01  1.5500194618079E+00 -7.4384283877698E-02
50  4.9000000000000E-01  1.5207220581992E+00  5.7242873436452E-02
51  5.0000000000000E-01  1.4892274979266E+00  1.9271276856343E-01
52  5.1000000000000E-01  1.4557474654811E+00  3.3093569145730E-01
53  5.2000000000000E-01  1.4204907138121E+00  4.7077305904270E-01
54  5.3000000000000E-01  1.3836616023760E+00  6.1104819465442E-01
55  5.4000000000000E-01  1.3454588076495E+00  7.5055744489571E-01
56  5.5000000000000E-01  1.3060742113586E+00  8.8808156308095E-01
57  5.6000000000000E-01  1.2656919693932E+00  1.0223972984979E+00
58  5.7000000000000E-01  1.2244877621105E+00  1.1522891388529E+00
59  5.8000000000000E-01  1.1826282244924E+00  1.2765611587981E+00
60  5.9000000000000E-01  1.1402705524178E+00  1.3940489298756E+00
61  6.0000000000000E-01  1.0975622791441E+00  1.5036314462177E+00
62  6.1000000000000E-01  1.0546412139881E+00  1.6042430157642E+00
63  6.2000000000000E-01  1.0116355331562E+00  1.6948850586541E+00
64  6.3000000000000E-01  9.6866401074007E-01  1.7746377430639E+00
65  6.4000000000000E-01  9.2583637607036E-01  1.8426713745531E+00
66  6.5000000000000E-01  8.8325378195483E-01  1.8982574385546E+00
67  6.6000000000000E-01  8.4100936684073E-01  1.9407791778089E+00
68  6.7000000000000E-01  7.9918889267148E-01  1.9697415681889E+00
69  6.8000000000000E-01  7.5787143919119E-01  1.9847805385209E+00
70  6.9000000000000E-01  7.1713013471900E-01  1.9856712637286E+00
71  7.0000000000000E-01  6.7703290300306E-01  1.9723353469971E+00
72  7.1000000000000E-01  6.3764320569837E-01  1.9448466967185E+00
73  7.2000000000000E-01  5.9902076031713E-01  1.9034358987003E+00
74  7.3000000000000E-01  5.6122221419059E-01  1.8484928843392E+00
75  7.4000000000000E-01  5.2430175606535E-01  1.7805677018656E+00
76  7.5000000000000E-01  4.8831164843199E-01  1.7003692108106E+00
77  7.6000000000000E-01  4.5330266553771E-01  1.6087615398004E+00
78  7.7000000000000E-01  4.1932442424184E-01  1.5067581745980E+00
79  7.8000000000000E-01  3.8642559739945E-01  1.3955135767373E+00
80  7.9000000000000E-01  3.5465400225442E-01  1.2763122725293E+00
81  8.0000000000000E-01  3.2405655933251E-01  1.1505553968732E+00
82  8.1000000000000E-01  2.9467912047831E-01  1.0197447250606E+00
83  8.2000000000000E-01  2.6656616790040E-01  8.8546427732945E-01
84  8.3000000000000E-01  2.3976038929450E-01  7.4935963380087E-01
85  8.4000000000000E-01  2.1430213721680E-01  6.1311514998507E-01
86  8.5000000000000E-01  1.9022878379088E-01  4.7842931354038E-01
87  8.6000000000000E-01  1.6757398446373E-01  3.4698852966652E-01
88  8.7000000000000E-01  1.4636686679704E-01  2.2043966369468E-01
89  8.8000000000000E-01  1.2663116211266E-01  1.0036170348960E-01
90  8.9000000000000E-01  1.0838429914192E-01 -1.1763070233705E-02
91  9.0000000000000E-01  9.1636479604199E-02 -1.1457800186850E-01
92  9.1000000000000E-01  7.6389755824752E-02 -2.0688065833422E-01
93  9.2000000000000E-01  6.2637130077536E-02 -2.8765070342075E-01
94  9.3000000000000E-01  5.0361694304107E-02 -3.5607666432284E-01
95  9.4000000000000E-01  3.9535827237436E-02 -4.1158123474841E-01
96  9.5000000000000E-01  3.0120463788604E-02 -4.5384479885454E-01
97  9.6000000000000E-01  2.2064448895702E-02 -4.8282690989621E-01
98  9.7000000000000E-01  1.5303984966992E-02 -4.9878551549174E-01
99  9.8000000000000E-01  9.7621786676251E-03 -5.0229378612566E-01
100  9.9000000000000E-01  5.3486886849844E-03 -4.9425448716963E-01
101  1.0000000000000E+00  1.9594789532831E-03 -4.7591172795746E-01
102  1.0100000000000E+00 -5.2297162647373E-04 -4.4885028090257E-01
103  1.0200000000000E+00 -2.2239400108237E-03 -4.1484578614670E-01
104  1.0300000000000E+00 -3.2682991241512E-03 -3.7566471793986E-01
105  1.0400000000000E+00 -3.7775724539509E-03 -3.3301799649104E-01
106  1.0500000000000E+00 -3.8678469425254E-03 -2.8853631125454E-01
107  1.0600000000000E+00 -3.6478289219745E-03 -2.4374644884541E-01
108  1.0700000000000E+00 -3.2170532500182E-03 -2.0004879945659E-01
109  1.0800000000000E+00 -2.6642620515726E-03 -1.5869644104623E-01
110  1.0900000000000E+00 -2.0659676398693E-03 -1.2077586023003E-01
111  1.1000000000000E+00 -1.4850965620796E-03 -8.7181005238576E-02
112  1.1100000000000E+00 -9.6950995253361E-04 -5.8484124598057E-02
113  1.1200000000000E+00 -5.5453559152268E-04 -3.5245383369233E-02
114  1.1300000000000E+00 -2.5852956551124E-04 -1.7851225480718E-02
115  1.1400000000000E+00 -8.1966407721923E-05 -6.4126959952350E-03
116  1.1500000000000E+00 -8.3900937359031E-06 -7.9537758394110E-04
117  1.1600000000000E+00  3.7336234340108E-07  4.2321958011601E-05
118  1.1700000000000E+00  1.2148178659139E-08  1.1104566945082E-06
119  1.18 -0.  0.
120  1.19  0.  0.
121  1.20  0.  0.
122  1.21  0.  0.
123  1.22  0.  0.
124  1.23  0.  0.
125  1.24  0.  0.
126  1.25  0.  0.
127  1.26  0.  0.
128  1.27  0.  0.
129  1.28  0.  0.
130  1.29  0.  0.
131  1.30  0.  0.
132  1.31  0.  0.
133  1.32  0.  0.
134  1.33  0.  0.
135  1.34  0.  0.
136  1.35  0.  0.
137  1.36  0.  0.
138  1.37  0.  0.
139  1.38  0.  0.
140  1.39  0.  0.
141  1.40  0.  0.
142  1.41  0.  0.
143  1.42  0.  0.
144  1.43  0.  0.
145  1.44  0.  0.
146  1.45  0.  0.
147  1.46  0.  0.
148  1.47  0.  0.
149  1.48  0.  0.
150  1.49  0.  0.
151  1.50  0.  0.
152  1.51  0.  0.
153  1.52  0.  0.
154  1.53  0.  0.
155  1.54  0.  0.
156  1.55  0.  0.
157  1.56  0.  0.
158  1.57  0.  0.
159  1.58  0.  0.
160  1.59  0.  0.
161  1.60  0.  0.
162  1.61  0.  0.
163  1.62  0.  0.
164  1.63  0.  0.
165  1.64  0.  0.