Mt    ONCVPSP-4.0.1  r_core=   1.10144   1.30228   1.20485   1.20485
109.0000     49.0000      220307    zatom,zion,pspd
8      11   3     4   600     0    pspcod,pspxc,lmax,lloc,mmax,r2well
5.99000000  5.00000000  0.00000000    rchrg fchrg qchrg
3     2     2     2     0    nproj
1     1           extension_switch
0                         1.5307436425390E+01 -1.4273430531190E+01 -6.1037510698118E-01
1  0.0000000000000E+00 -8.2065074735738E-09  1.0001049988162E-09 -4.1218022633904E-08
2  1.0000000000000E-02  2.1227683094384E-01  6.9581901625245E-02 -1.5190505695870E-02
3  2.0000000000000E-02  4.2223037093117E-01  1.3906659909653E-01 -3.0396922070477E-02
4  3.0000000000000E-02  6.2756567395254E-01  2.0835635779125E-01 -4.5633316535525E-02
5  4.0000000000000E-02  8.2604414532552E-01  2.7735239649274E-01 -6.0910234927174E-02
6  5.0000000000000E-02  1.0155108726074E+00  3.4595439968888E-01 -7.6233341046809E-02
7  6.0000000000000E-02  1.1939209476361E+00  4.1406007185564E-01 -9.1602503535167E-02
8  7.0000000000000E-02  1.3593644519286E+00  4.8156474651903E-01 -1.0701142623667E-01
9  8.0000000000000E-02  1.5100897858710E+00  5.4836106188903E-01 -1.2244787699285E-01
10  9.0000000000000E-02  1.6445250334417E+00  6.1433871364485E-01 -1.3789452322409E-01
11  1.0000000000000E-01  1.7612970691801E+00  6.7938429404686E-01 -1.5333033360696E-01
12  1.1000000000000E-01  1.8592481333312E+00  7.4338122498102E-01 -1.6873245672089E-01
13  1.2000000000000E-01  1.9374496250719E+00  8.0620979083825E-01 -1.8407844283822E-01
14  1.3000000000000E-01  1.9952128928732E+00  8.6774727532370E-01 -1.9934863703599E-01
15  1.4000000000000E-01  2.0320968356338E+00  9.2786820441322E-01 -2.1452854316697E-01
16  1.5000000000000E-01  2.0479121683000E+00  9.8644469576025E-01 -2.2961094112050E-01
17  1.6000000000000E-01  2.0427222510917E+00  1.0433469129401E+00 -2.4459753580458E-01
18  1.7000000000000E-01  2.0168404317670E+00  1.0984436210338E+00 -2.5949992626527E-01
19  1.8000000000000E-01  1.9708239048925E+00  1.1516028382324E+00 -2.7433970742372E-01
20  1.9000000000000E-01  1.9054641498899E+00  1.2026925764175E+00 -2.8914755437551E-01
21  2.0000000000000E-01  1.8217740695178E+00  1.2515816620680E+00 -3.0396118858425E-01
22  2.1000000000000E-01  1.7209720110123E+00  1.2981406273932E+00 -3.1882218444327E-01
23  2.2000000000000E-01  1.6044629117802E+00  1.3422426603054E+00 -3.3377164075767E-01
24  2.3000000000000E-01  1.4738168686366E+00  1.3837646007548E+00 -3.4884481144367E-01
25  2.4000000000000E-01  1.3307454823624E+00  1.4225879700637E+00 -3.6406485951522E-01
26  2.5000000000000E-01  1.1770763761309E+00  1.4586000192261E+00 -3.7943596448400E-01
27  2.6000000000000E-01  1.0147263254949E+00  1.4916947816947E+00 -3.9493607190591E-01
28  2.7000000000000E-01  8.4567346768967E-01  1.5217741159631E+00 -4.1050962148801E-01
29  2.8000000000000E-01  6.7192907779113E-01  1.5487487232587E+00 -4.2606062387038E-01
30  2.9000000000000E-01  4.9550940784985E-01  1.5725391259024E+00 -4.4144647345050E-01
31  3.0000000000000E-01  3.1840808193678E-01  1.5930765923407E+00 -4.5647288369656E-01
32  3.1000000000000E-01  1.4256952489877E-01  1.6103039955150E+00 -4.7089031142404E-01
33  3.2000000000000E-01 -3.0136124253122E-02  1.6241765920850E+00 -4.8439219750592E-01
34  3.3000000000000E-01 -1.9793620138444E-01  1.6346627110482E+00 -4.9661529443637E-01
35  3.4000000000000E-01 -3.5917644384670E-01  1.6417443414845E+00 -5.0714227795215E-01
36  3.5000000000000E-01 -5.1233934657942E-01  1.6454176104766E+00 -5.1550675328118E-01
37  3.6000000000000E-01 -6.5605970341919E-01  1.6456931436939E+00 -5.2120067002525E-01
38  3.7000000000000E-01 -7.8913715816495E-01  1.6425963026607E+00 -5.2368405727636E-01
39  3.8000000000000E-01 -9.1054566168418E-01  1.6361672943290E+00 -5.2239688681910E-01
40  3.9000000000000E-01 -1.0194398037320E+00  1.6264611502202E+00 -5.1677277189633E-01
41  4.0000000000000E-01 -1.1151580589282E+00  1.6135475740693E+00 -5.0625411673183E-01
42  4.1000000000000E-01 -1.1972230533079E+00  1.5975106585665E+00 -4.9030825227976E-01
43  4.2000000000000E-01 -1.2653390189877E+00  1.5784484734302E+00 -4.6844403056034E-01
44  4.3000000000000E-01 -1.3193866579898E+00  1.5564725286342E+00 -4.4022830681881E-01
45  4.4000000000000E-01 -1.3594156806417E+00  1.5317071181319E+00 -4.0530171819589E-01
46  4.5000000000000E-01 -1.3856353181207E+00  1.5042885508514E+00 -3.6339317122175E-01
47  4.6000000000000E-01 -1.3984031319174E+00  1.4743642770564E+00 -3.1433247880829E-01
48  4.7000000000000E-01 -1.3982124549994E+00  1.4420919193679E+00 -2.5806063995880E-01
49  4.8000000000000E-01 -1.3856788004272E+00  1.4076382188009E+00 -1.9463733048370E-01
50  4.9000000000000E-01 -1.3615255637123E+00  1.3711779070803E+00 -1.2424526790351E-01
51  5.0000000000000E-01 -1.3265693263236E+00  1.3328925172478E+00 -4.7191224762906E-02
52  5.1000000000000E-01 -1.2817050407809E+00  1.2929691451515E+00  3.6096412682523E-02
53  5.2000000000000E-01 -1.2278913443664E+00  1.2515991748193E+00  1.2507351410123E-01
54  5.3000000000000E-01 -1.1661362104859E+00  1.2089769809450E+00  2.1908934626534E-01
55  5.4000000000000E-01 -1.0974831060837E+00  1.1652986217733E+00  3.1739870303457E-01
56  5.5000000000000E-01 -1.0229977822711E+00  1.1207605355523E+00  4.1917662549022E-01
57  5.6000000000000E-01 -9.4375578541531E-01  1.0755582534363E+00  5.2353521289144E-01
58  5.7000000000000E-01 -8.6083073914846E-01  1.0298851412759E+00  6.2954194429110E-01
59  5.8000000000000E-01 -7.7528341568104E-01  9.8393118213718E-01  7.3623887344332E-01
60  5.9000000000000E-01 -6.8815158870704E-01  9.3788181065790E-01  8.4266202885150E-01
61  6.0000000000000E-01 -6.0044064099601E-01  8.9191680949041E-01  9.4786034809791E-01
62  6.1000000000000E-01 -5.1311488800550E-01  8.4620927711522E-01  1.0509135013865E+00
63  6.2000000000000E-01 -4.2708957462478E-01  8.0092467525212E-01  1.1509480126568E+00
64  6.3000000000000E-01 -3.4322350517121E-01  7.5621996296559E-01  1.2471511655849E+00
65  6.4000000000000E-01 -2.6231227629341E-01  7.1224282337805E-01  1.3387822829751E+00
66  6.5000000000000E-01 -1.8508209742246E-01  6.6913098768670E-01  1.4251810871129E+00
67  6.6000000000000E-01 -1.1218420247397E-01  6.2701165994725E-01  1.5057729803757E+00
68  6.7000000000000E-01 -4.4189878027272E-02  5.8600104486042E-01  1.5800712239050E+00
69  6.8000000000000E-01  1.8413844577349E-02  5.4620397959222E-01  1.6476761311525E+00
70  6.9000000000000E-01  7.5227764705567E-02  5.0771366949489E-01  1.7082715262491E+00
71  7.0000000000000E-01  1.2594326880552E-01  4.7061152648772E-01  1.7616188381737E+00
72  7.1000000000000E-01  1.7034416751126E-01  4.3496710782014E-01  1.8075493048788E+00
73  7.2000000000000E-01  2.0830750582781E-01  4.0083815198572E-01  1.8459548418241E+00
74  7.3000000000000E-01  2.3980323850621E-01  3.6827070769510E-01  1.8767781827343E+00
75  7.4000000000000E-01  2.6489267047576E-01  3.3729935105667E-01  1.9000029239620E+00
76  7.5000000000000E-01  2.8372557832514E-01  3.0794748546044E-01  1.9156440960773E+00
77  7.6000000000000E-01  2.9653595323009E-01  2.8022771811699E-01  1.9237398471117E+00
78  7.7000000000000E-01  3.0363633785335E-01  2.5414230676903E-01  1.9243447526536E+00
79  7.8000000000000E-01  3.0541076858622E-01  2.2968366976641E-01  1.9175251715234E+00
80  7.9000000000000E-01  3.0230637862312E-01  2.0683495247279E-01  1.9033569462305E+00
81  8.0000000000000E-01  2.9482376496388E-01  1.8557064284638E-01  1.8819256101720E+00
82  8.1000000000000E-01  2.8350627142027E-01  1.6585722900135E-01  1.8533291149029E+00
83  8.2000000000000E-01  2.6892838776092E-01  1.4765389160122E-01  1.8176829378235E+00
84  8.3000000000000E-01  2.5168350985365E-01  1.3091322405008E-01  1.7751272807278E+00
85  8.4000000000000E-01  2.3237134465377E-01  1.1558197362221E-01  1.7258359303381E+00
86  8.5000000000000E-01  2.1158527485796E-01  1.0160179689248E-01  1.6700262304893E+00
87  8.6000000000000E-01  1.8990001894918E-01  8.8910023089712E-02  1.6079695186495E+00
88  8.7000000000000E-01  1.6785993148577E-01  7.7440419281056E-02  1.5400013127253E+00
89  8.8000000000000E-01  1.4596828456061E-01  6.7123951597504E-02  1.4665305021331E+00
90  8.9000000000000E-01  1.2467785360549E-01  5.7889537020995E-02  1.3880468030239E+00
91  9.0000000000000E-01  1.0438309893719E-01  4.9664780563420E-02  1.3051257828208E+00
92  9.1000000000000E-01  8.5414189035445E-02  4.2376692972008E-02  1.2184308436228E+00
93  9.2000000000000E-01  6.8033053510818E-02  3.5952384389125E-02  1.1287116755455E+00
94  9.3000000000000E-01  5.2431584654391E-02  3.0319729674748E-02  1.0367988459914E+00
95  9.4000000000000E-01  3.8732028499979E-02  2.5408001365511E-02  9.4359437382085E-01
96  9.5000000000000E-01  2.6989522072328E-02  2.1148466495584E-02  8.5005834169254E-01
97  9.6000000000000E-01  1.7196645915113E-02  1.7474943743526E-02  7.5719181757797E-01
98  9.7000000000000E-01  9.2897733513682E-03  1.4324317598389E-02  6.6601657882675E-01
99  9.8000000000000E-01  3.1569135704988E-03  1.1637006461881E-02  5.7755235001422E-01
100  9.9000000000000E-01 -1.3533320202900E-03  9.3573818254384E-03  4.9279246968628E-01
101  1.0000000000000E+00 -4.4221485610604E-03  7.4341358870047E-03  4.1267908223759E-01
102  1.0100000000000E+00 -6.2507249455730E-03  5.8205952065061E-03  3.3807910092823E-01
103  1.0200000000000E+00 -7.0508524133357E-03  4.4749782463632E-03  2.6976229940351E-01
104  1.0300000000000E+00 -7.0364762072801E-03  3.3605965712605E-03  2.0838296642988E-01
105  1.0400000000000E+00 -6.4166785176025E-03  2.4459853433246E-03  1.5446641493337E-01
106  1.0500000000000E+00 -5.3869163859628E-03  1.7039227496110E-03  1.0839586469296E-01
107  1.0600000000000E+00 -4.0898234134367E-03  1.1046456073013E-03  7.0352177790434E-02
108  1.0700000000000E+00 -2.7032265295961E-03  6.3739913595824E-04  4.0462075504484E-02
109  1.0800000000000E+00 -1.4241242263146E-03  2.9817876177097E-04  1.8791745330357E-02
110  1.0900000000000E+00 -4.5343767857339E-04  8.5446169807898E-05  5.3278908346227E-03
111  1.1000000000000E+00 -1.4972381606313E-05  2.5588189394206E-06  1.5667468313028E-04
112  1.1100000000000E+00 -2.1837473229880E-06  3.7477018531049E-07  2.3151328387602E-05
113  1.1200000000000E+00  2.3932360664077E-07 -4.2763284184195E-08 -2.6572171598170E-06
114  1.13  0.  0.  0.
115  1.14  0.  0.  0.
116  1.15  0.  0.  0.
117  1.16  0.  0.  0.
118  1.17  0.  0.  0.
119  1.18  0.  0.  0.
120  1.19  0.  0.  0.
121  1.20  0.  0.  0.
122  1.21  0.  0.  0.
123  1.22  0.  0.  0.
124  1.23  0.  0.  0.
125  1.24  0.  0.  0.
126  1.25  0.  0.  0.
127  1.26  0.  0.  0.
128  1.27  0.  0.  0.
129  1.28  0.  0.  0.
130  1.29  0.  0.  0.
131  1.30  0.  0.  0.
132  1.31  0.  0.  0.
133  1.32  0.  0.  0.
134  1.33  0.  0.  0.
135  1.34  0.  0.  0.
136  1.35  0.  0.  0.
137  1.36  0.  0.  0.
138  1.37  0.  0.  0.
139  1.38  0.  0.  0.
140  1.39  0.  0.  0.
141  1.40  0.  0.  0.
142  1.41  0.  0.  0.
143  1.42  0.  0.  0.
144  1.43  0.  0.  0.
145  1.44  0.  0.  0.
146  1.45  0.  0.  0.
147  1.46  0.  0.  0.
148  1.47  0.  0.  0.
149  1.48  0.  0.  0.
150  1.49  0.  0.  0.
151  1.50  0.  0.  0.
152  1.51  0.  0.  0.
153  1.52  0.  0.  0.
154  1.53  0.  0.  0.
155  1.54  0.  0.  0.
156  1.55  0.  0.  0.
157  1.56  0.  0.  0.
158  1.57  0.  0.  0.
159  1.58  0.  0.  0.
160  1.59  0.  0.  0.
161  1.60  0.  0.  0.
162  1.61  0.  0.  0.
163  1.62  0.  0.  0.
164  1.63  0.  0.  0.
165  1.64  0.  0.  0.
166  1.65  0.  0.  0.
167  1.66  0.  0.  0.
168  1.67  0.  0.  0.
169  1.68  0.  0.  0.
170  1.69  0.  0.  0.
171  1.70  0.  0.  0.
172  1.71  0.  0.  0.
173  1.72  0.  0.  0.
174  1.73  0.  0.  0.
175  1.74  0.  0.  0.
176  1.75  0.  0.  0.
177  1.76  0.  0.  0.
178  1.77  0.  0.  0.
179  1.78  0.  0.  0.
180  1.79  0.  0.  0.
181  1.80  0.  0.  0.
182  1.81  0.  0.  0.
183  1.82  0.  0.  0.
184  1.83  0.  0.  0.
185  1.84  0.  0.  0.
186  1.85  0.  0.  0.
187  1.86  0.  0.  0.
188  1.87  0.  0.  0.
189  1.88  0.  0.  0.
190  1.89  0.  0.  0.
191  1.90  0.  0.  0.
192  1.91  0.  0.  0.
193  1.92  0.  0.  0.
194  1.93  0.  0.  0.
195  1.94  0.  0.  0.
196  1.95  0.  0.  0.
197  1.96  0.  0.  0.
198  1.97  0.  0.  0.
199  1.98  0.  0.  0.
200  1.99  0.  0.  0.
201  2.00  0.  0.  0.
202  2.01  0.  0.  0.
203  2.02  0.  0.  0.
204  2.03  0.  0.  0.
205  2.04  0.  0.  0.
206  2.05  0.  0.  0.
207  2.06  0.  0.  0.
208  2.07  0.  0.  0.
209  2.08  0.  0.  0.
210  2.09  0.  0.  0.
211  2.10  0.  0.  0.
212  2.11  0.  0.  0.
213  2.12  0.  0.  0.
214  2.13  0.  0.  0.
215  2.14  0.  0.  0.
216  2.15  0.  0.  0.
217  2.16  0.  0.  0.
218  2.17  0.  0.  0.
219  2.18  0.  0.  0.
220  2.19  0.  0.  0.
221  2.20  0.  0.  0.
222  2.21  0.  0.  0.
223  2.22  0.  0.  0.
224  2.23  0.  0.  0.
225  2.24  0.  0.  0.
226  2.25  0.  0.  0.
227  2.26  0.  0.  0.
228  2.27  0.  0.  0.
229  2.28  0.  0.  0.
230  2.29  0.  0.  0.
231  2.30  0.  0.  0.
232  2.31  0.  0.  0.
233  2.32  0.  0.  0.
234  2.33  0.  0.  0.
235  2.34  0.  0.  0.
236  2.35  0.  0.  0.
237  2.36  0.  0.  0.
238  2.37  0.  0.  0.
239  2.38  0.  0.  0.
240  2.39  0.  0.  0.
241  2.40  0.  0.  0.
242  2.41  0.  0.  0.
243  2.42  0.  0.  0.
244  2.43  0.  0.  0.
245  2.44  0.  0.  0.
246  2.45  0.  0.  0.
247  2.46  0.  0.  0.
248  2.47  0.  0.  0.
249  2.48  0.  0.  0.
250  2.49  0.  0.  0.
251  2.50  0.  0.  0.
252  2.51  0.  0.  0.
253  2.52  0.  0.  0.
254  2.53  0.  0.  0.
255  2.54  0.  0.  0.
256  2.55  0.  0.  0.
257  2.56  0.  0.  0.
258  2.57  0.  0.  0.
259  2.58  0.  0.  0.
260  2.59  0.  0.  0.
261  2.60  0.  0.  0.
262  2.61  0.  0.  0.
263  2.62  0.  0.  0.
264  2.63  0.  0.  0.
265  2.64  0.  0.  0.
266  2.65  0.  0.  0.
267  2.66  0.  0.  0.
268  2.67  0.  0.  0.
269  2.68  0.  0.  0.
270  2.69  0.  0.  0.
271  2.70  0.  0.  0.
272  2.71  0.  0.  0.
273  2.72  0.  0.  0.
274  2.73  0.  0.  0.
275  2.74  0.  0.  0.
276  2.75  0.  0.  0.
277  2.76  0.  0.  0.
278  2.77  0.  0.  0.
279  2.78  0.  0.  0.
280  2.79  0.  0.  0.
281  2.80  0.  0.  0.
282  2.81  0.  0.  0.
283  2.82  0.  0.  0.
284  2.83  0.  0.  0.
285  2.84  0.  0.  0.
286  2.85  0.  0.  0.
287  2.86  0.  0.  0.
288  2.87  0.  0.  0.
289  2.88  0.  0.  0.
290  2.89  0.  0.  0.
291  2.90  0.  0.  0.
292  2.91  0.  0.  0.
293  2.92  0.  0.  0.
294  2.93  0.  0.  0.
295  2.94  0.  0.  0.
296  2.95  0.  0.  0.
297  2.96  0.  0.  0.
298  2.97  0.  0.  0.
299  2.98  0.  0.  0.
300  2.99  0.  0.  0.
301  3.00  0.  0.  0.
302  3.01  0.  0.  0.
303  3.02  0.  0.  0.
304  3.03  0.  0.  0.
305  3.04  0.  0.  0.
306  3.05  0.  0.  0.
307  3.06  0.  0.  0.
308  3.07  0.  0.  0.
309  3.08  0.  0.  0.
310  3.09  0.  0.  0.
311  3.10  0.  0.  0.
312  3.11  0.  0.  0.
313  3.12  0.  0.  0.
314  3.13  0.  0.  0.
315  3.14  0.  0.  0.
316  3.15  0.  0.  0.
317  3.16  0.  0.  0.
318  3.17  0.  0.  0.
319  3.18  0.  0.  0.
320  3.19  0.  0.  0.
321  3.20  0.  0.  0.
322  3.21  0.  0.  0.
323  3.22  0.  0.  0.
324  3.23  0.  0.  0.
325  3.24  0.  0.  0.
326  3.25  0.  0.  0.
327  3.26  0.  0.  0.
328  3.27  0.  0.  0.
329  3.28  0.  0.  0.
330  3.29  0.  0.  0.
331  3.30  0.  0.  0.
332  3.31  0.  0.  0.
333  3.32  0.  0.  0.
334  3.33  0.  0.  0.
335  3.34  0.  0.  0.
336  3.35  0.  0.  0.
337  3.36  0.  0.  0.
338  3.37  0.  0.  0.
339  3.38  0.  0.  0.
340  3.39  0.  0.  0.
341  3.40  0.  0.  0.
342  3.41  0.  0.  0.
343  3.42  0.  0.  0.
344  3.43  0.  0.  0.
345  3.44  0.  0.  0.
346  3.45  0.  0.  0.
347  3.46  0.  0.  0.
348  3.47  0.  0.  0.
349  3.48  0.  0.  0.
350  3.49  0.  0.  0.
351  3.50  0.  0.  0.
352  3.51  0.  0.  0.
353  3.52  0.  0.  0.
354  3.53  0.  0.  0.
355  3.54  0.  0.  0.
356  3.55  0.  0.  0.
357  3.56  0.  0.  0.
358  3.57  0.  0.  0.
359  3.58  0.  0.  0.
360  3.59  0.  0.  0.
361  3.60  0.  0.  0.
362  3.61  0.  0.  0.
363  3.62  0.  0.  0.
364  3.63  0.  0.  0.
365  3.64  0.  0.  0.
366  3.65  0.  0.  0.
367  3.66  0.  0.  0.
368  3.67  0.  0.  0.
369  3.68  0.  0.  0.
370  3.69  0.  0.  0.
371  3.70  0.  0.  0.
372  3.71  0.  0.  0.
373  3.72  0.  0.  0.
374  3.73  0.  0.  0.
375  3.74  0.  0.  0.
376  3.75  0.  0.  0.
377  3.76  0.  0.  0.
378  3.77  0.  0.  0.
379  3.78  0.  0.  0.
380  3.79  0.  0.  0.
381  3.80  0.  0.  0.
382  3.81  0.  0.  0.
383  3.82  0.  0.  0.
384  3.83  0.  0.  0.
385  3.84  0.  0.  0.
386  3.85  0.  0.  0.
387  3.86  0.  0.  0.
388  3.87  0.  0.  0.
389  3.88  0.  0.  0.
390  3.89  0.  0.  0.
391  3.90  0.  0.  0.
392  3.91  0.  0.  0.
393  3.92  0.  0.  0.
394  3.93  0.  0.  0.
395  3.94  0.  0.  0.
396  3.95  0.  0.  0.
397  3.96  0.  0.  0.
398  3.97  0.  0.  0.
399  3.98  0.  0.  0.
400  3.99  0.  0.  0.
401  4.00  0.  0.  0.
402  4.01  0.  0.  0.
403  4.02  0.  0.  0.
404  4.03  0.  0.  0.
405  4.04  0.  0.  0.
406  4.05  0.  0.  0.
407  4.06  0.  0.  0.
408  4.07  0.  0.  0.
409  4.08  0.  0.  0.
410  4.09  0.  0.  0.
411  4.10  0.  0.  0.
412  4.11  0.  0.  0.
413  4.12  0.  0.  0.
414  4.13  0.  0.  0.
415  4.14  0.  0.  0.
416  4.15  0.  0.  0.
417  4.16  0.  0.  0.
418  4.17  0.  0.  0.
419  4.18  0.  0.  0.
420  4.19  0.  0.  0.
421  4.20  0.  0.  0.
422  4.21  0.  0.  0.
423  4.22  0.  0.  0.
424  4.23  0.  0.  0.
425  4.24  0.  0.  0.
426  4.25  0.  0.  0.
427  4.26  0.  0.  0.
428  4.27  0.  0.  0.
429  4.28  0.  0.  0.
430  4.29  0.  0.  0.
431  4.30  0.  0.  0.
432  4.31  0.  0.  0.
433  4.32  0.  0.  0.
434  4.33  0.  0.  0.
435  4.34  0.  0.  0.
436  4.35  0.  0.  0.
437  4.36  0.  0.  0.
438  4.37  0.  0.  0.
439  4.38  0.  0.  0.
440  4.39  0.  0.  0.
441  4.40  0.  0.  0.
442  4.41  0.  0.  0.
443  4.42  0.  0.  0.
444  4.43  0.  0.  0.
445  4.44  0.  0.  0.
446  4.45  0.  0.  0.
447  4.46  0.  0.  0.
448  4.47  0.  0.  0.
449  4.48  0.  0.  0.
450  4.49  0.  0.  0.
451  4.50  0.  0.  0.
452  4.51  0.  0.  0.
453  4.52  0.  0.  0.
454  4.53  0.  0.  0.
455  4.54  0.  0.  0.
456  4.55  0.  0.  0.
457  4.56  0.  0.  0.
458  4.57  0.  0.  0.
459  4.58  0.  0.  0.
460  4.59  0.  0.  0.
461  4.60  0.  0.  0.
462  4.61  0.  0.  0.
463  4.62  0.  0.  0.
464  4.63  0.  0.  0.
465  4.64  0.  0.  0.
466  4.65  0.  0.  0.
467  4.66  0.  0.  0.
468  4.67  0.  0.  0.
469  4.68  0.  0.  0.
470  4.69  0.  0.  0.
471  4.70  0.  0.  0.
472  4.71  0.  0.  0.
473  4.72  0.  0.  0.
474  4.73  0.  0.  0.
475  4.74  0.  0.  0.
476  4.75  0.  0.  0.
477  4.76  0.  0.  0.
478  4.77  0.  0.  0.
479  4.78  0.  0.  0.
480  4.79  0.  0.  0.
481  4.80  0.  0.  0.
482  4.81  0.  0.  0.
483  4.82  0.  0.  0.
484  4.83  0.  0.  0.
485  4.84  0.  0.  0.
486  4.85  0.  0.  0.
487  4.86  0.  0.  0.
488  4.87  0.  0.  0.
489  4.88  0.  0.  0.
490  4.89  0.  0.  0.
491  4.90  0.  0.  0.
492  4.91  0.  0.  0.
493  4.92  0.  0.  0.
494  4.93  0.  0.  0.
495  4.94  0.  0.  0.
496  4.95  0.  0.  0.
497  4.96  0.  0.  0.
498  4.97  0.  0.  0.
499  4.98  0.  0.  0.
500  4.99  0.  0.  0.
501  5.00  0.  0.  0.
502  5.01  0.  0.  0.
503  5.02  0.  0.  0.
504  5.03  0.  0.  0.
505  5.04  0.  0.  0.
506  5.05  0.  0.  0.
507  5.06  0.  0.  0.
508  5.07  0.  0.  0.
509  5.08  0.  0.  0.
510  5.09  0.  0.  0.
511  5.10  0.  0.  0.
512  5.11  0.  0.  0.
513  5.12  0.  0.  0.
514  5.13  0.  0.  0.
515  5.14  0.  0.  0.
516  5.15  0.  0.  0.
517  5.16  0.  0.  0.
518  5.17  0.  0.  0.
519  5.18  0.  0.  0.
520  5.19  0.  0.  0.
521  5.20  0.  0.  0.
522  5.21  0.  0.  0.
523  5.22  0.  0.  0.
524  5.23  0.  0.  0.
525  5.24  0.  0.  0.
526  5.25  0.  0.  0.
527  5.26  0.  0.  0.
528  5.27  0.  0.  0.
529  5.28  0.  0.  0.
530  5.29  0.  0.  0.
531  5.30  0.  0.  0.
532  5.31  0.  0.  0.
533  5.32  0.  0.  0.
534  5.33  0.  0.  0.
535  5.34  0.  0.  0.
536  5.35  0.  0.  0.
537  5.36  0.  0.  0.
538  5.37  0.  0.  0.
539  5.38  0.  0.  0.
540  5.39  0.  0.  0.
541  5.40  0.  0.  0.
542  5.41  0.  0.  0.
543  5.42  0.  0.  0.
544  5.43  0.  0.  0.
545  5.44  0.  0.  0.
546  5.45  0.  0.  0.
547  5.46  0.  0.  0.
548  5.47  0.  0.  0.
549  5.48  0.  0.  0.
550  5.49  0.  0.  0.
551  5.50  0.  0.  0.
552  5.51  0.  0.  0.
553  5.52  0.  0.  0.
554  5.53  0.  0.  0.
555  5.54  0.  0.  0.
556  5.55  0.  0.  0.
557  5.56  0.  0.  0.
558  5.57  0.  0.  0.
559  5.58  0.  0.  0.
560  5.59  0.  0.  0.
561  5.60  0.  0.  0.
562  5.61  0.  0.  0.
563  5.62  0.  0.  0.
564  5.63  0.  0.  0.
565  5.64  0.  0.  0.
566  5.65  0.  0.  0.
567  5.66  0.  0.  0.
568  5.67  0.  0.  0.
569  5.68  0.  0.  0.
570  5.69  0.  0.  0.
571  5.70  0.  0.  0.
572  5.71  0.  0.  0.
573  5.72  0.  0.  0.
574  5.73  0.  0.  0.
575  5.74  0.  0.  0.
576  5.75  0.  0.  0.
577  5.76  0.  0.  0.
578  5.77  0.  0.  0.
579  5.78  0.  0.  0.
580  5.79  0.  0.  0.
581  5.80  0.  0.  0.
582  5.81  0.  0.  0.
583  5.82  0.  0.  0.
584  5.83  0.  0.  0.
585  5.84  0.  0.  0.
586  5.85  0.  0.  0.
587  5.86  0.  0.  0.
588  5.87  0.  0.  0.
589  5.88  0.  0.  0.
590  5.89  0.  0.  0.
591  5.90  0.  0.  0.
592  5.91  0.  0.  0.
593  5.92  0.  0.  0.
594  5.93  0.  0.  0.
595  5.94  0.  0.  0.
596  5.95  0.  0.  0.
597  5.96  0.  0.  0.
598  5.97  0.  0.  0.
599  5.98  0.  0.  0.
600  5.99  0.  0.  0.
1                        -1.2040310518181E+01 -1.1561769264798E+00
1  0.0000000000000E+00  4.1165668929199E-09 -2.1920211201731E-08
2  1.0000000000000E-02  2.9929321049886E-03 -4.7859619254412E-03
3  2.0000000000000E-02  1.1949268704965E-02 -1.9077993189029E-02
4  3.0000000000000E-02  2.6801836037859E-02 -4.2679403436712E-02
5  4.0000000000000E-02  4.7439360145158E-02 -7.5265273540898E-02
6  5.0000000000000E-02  7.3707482326626E-02 -1.1638675929193E-01
7  6.0000000000000E-02  1.0541016486106E-01 -1.6547703025929E-01
8  7.0000000000000E-02  1.4231147133103E-01 -2.2185875913100E-01
9  8.0000000000000E-02  1.8413770177309E-01 -2.8475305491930E-01
10  9.0000000000000E-02  2.3057985901918E-01 -3.5328971315532E-01
11  1.0000000000000E-01  2.8129641905089E-01 -4.2651863789462E-01
12  1.1000000000000E-01  3.3591637499941E-01 -5.0342227429762E-01
13  1.2000000000000E-01  3.9404252163154E-01 -5.8292887697158E-01
14  1.3000000000000E-01  4.5525494479878E-01 -6.6392642836455E-01
15  1.4000000000000E-01  5.1911467842052E-01 -7.4527701343799E-01
16  1.5000000000000E-01  5.8516749014308E-01 -8.2583145172192E-01
17  1.6000000000000E-01  6.5294775587860E-01 -9.0444398573156E-01
18  1.7000000000000E-01  7.2198238298706E-01 -9.7998682560766E-01
19  1.8000000000000E-01  7.9179474192040E-01 -1.0513643536935E+00
20  1.9000000000000E-01  8.6190856669174E-01 -1.1175267994930E+00
21  2.0000000000000E-01  9.3185178555077E-01 -1.1774832049325E+00
22  2.1000000000000E-01  1.0011602447163E+00 -1.2303135118970E+00
23  2.2000000000000E-01  1.0693812899119E+00 -1.2751796184135E+00
24  2.3000000000000E-01  1.1360771727373E+00 -1.3113352663556E+00
25  2.4000000000000E-01  1.2008282515480E+00 -1.3381346418652E+00
26  2.5000000000000E-01  1.2632359594674E+00 -1.3550395895125E+00
27  2.6000000000000E-01  1.3229255153721E+00 -1.3616253622227E+00
28  2.7000000000000E-01  1.3795483571229E+00 -1.3575848508352E+00
29  2.8000000000000E-01  1.4327842799139E+00 -1.3427312594824E+00
30  2.9000000000000E-01  1.4823432663235E+00 -1.3169992154170E+00
31  3.0000000000000E-01  1.5279669984214E+00 -1.2804443241396E+00
32  3.1000000000000E-01  1.5694300460734E+00 -1.2332412023252E+00
33  3.2000000000000E-01  1.6065407293209E+00 -1.1756800418072E+00
34  3.3000000000000E-01  1.6391416563680E+00 -1.1081617774344E+00
35  3.4000000000000E-01  1.6671099422223E+00 -1.0311919496931E+00
36  3.5000000000000E-01  1.6903571163735E+00 -9.4537336933513E-01
37  3.6000000000000E-01  1.7088287310183E+00 -8.5139770565628E-01
38  3.7000000000000E-01  1.7225036842053E+00 -7.5003613234156E-01
39  3.8000000000000E-01  1.7313932748709E+00 -6.4212917480714E-01
40  3.9000000000000E-01  1.7355400090205E+00 -5.2857591060826E-01
41  4.0000000000000E-01  1.7350161782751E+00 -4.1032267970039E-01
42  4.1000000000000E-01  1.7299222336319E+00 -2.8835146411476E-01
43  4.2000000000000E-01  1.7203849785728E+00 -1.6366809696407E-01
44  4.3000000000000E-01  1.7065556065908E+00 -3.7290458693023E-02
45  4.4000000000000E-01  1.6886076088004E+00  8.9763185769043E-02
46  4.5000000000000E-01  1.6667345775550E+00  2.1648556167481E-01
47  4.6000000000000E-01  1.6411479319278E+00  3.4189133199992E-01
48  4.7000000000000E-01  1.6120745905397E+00  4.6502748900994E-01
49  4.8000000000000E-01  1.5797546165552E+00  5.8498307264555E-01
50  4.9000000000000E-01  1.5444388587443E+00  7.0089811147209E-01
51  5.0000000000000E-01  1.5063866113420E+00  8.1197169595210E-01
52  5.1000000000000E-01  1.4658633140683E+00  9.1746910861827E-01
53  5.2000000000000E-01  1.4231383121182E+00  1.0167279510847E+00
54  5.3000000000000E-01  1.3784826942311E+00  1.1091632234742E+00
55  5.4000000000000E-01  1.3321672251337E+00  1.1942713275076E+00
56  5.5000000000000E-01  1.2844603867466E+00  1.2716329799468E+00
57  5.6000000000000E-01  1.2356265405871E+00  1.3409150380782E+00
58  5.7000000000000E-01  1.1859242218221E+00  1.4018712532553E+00
59  5.8000000000000E-01  1.1356045734394E+00  1.4543419819888E+00
60  5.9000000000000E-01  1.0849099270597E+00  1.4982528965201E+00
61  6.0000000000000E-01  1.0340725350119E+00  1.5336127480893E+00
62  6.1000000000000E-01  9.8331345646988E-01  1.5605102460983E+00
63  6.2000000000000E-01  9.3284159871862E-01  1.5791101249861E+00
64  6.3000000000000E-01  8.8285291299531E-01  1.5896484778227E+00
65  6.4000000000000E-01  8.3352974284832E-01  1.5924274413473E+00
66  6.5000000000000E-01  7.8504032158858E-01  1.5878093214419E+00
67  6.6000000000000E-01  7.3753841417471E-01  1.5762102508497E+00
68  6.7000000000000E-01  6.9116309778440E-01  1.5580934723803E+00
69  6.8000000000000E-01  6.4603867437868E-01  1.5339623409503E+00
70  6.9000000000000E-01  6.0227470776313E-01  1.5043531366936E+00
71  7.0000000000000E-01  5.5996617698734E-01  1.4698277791276E+00
72  7.1000000000000E-01  5.1919373739625E-01  1.4309665291233E+00
73  7.2000000000000E-01  4.8002408024699E-01  1.3883607613078E+00
74  7.3000000000000E-01  4.4251038152555E-01  1.3426058846844E+00
75  7.4000000000000E-01  4.0669283042867E-01  1.2942944838110E+00
76  7.5000000000000E-01  3.7259922790894E-01  1.2440097469904E+00
77  7.6000000000000E-01  3.4024564570407E-01  1.1923192417214E+00
78  7.7000000000000E-01  3.0963713637508E-01  1.1397690912762E+00
79  7.8000000000000E-01  2.8076848505103E-01  1.0868785998292E+00
80  7.9000000000000E-01  2.5362499381153E-01  1.0341353671811E+00
81  8.0000000000000E-01  2.2818328992124E-01  9.8199092789202E-01
82  8.1000000000000E-01  2.0441214945600E-01  9.3085694365383E-01
83  8.2000000000000E-01  1.8227332821785E-01  8.8110197205957E-01
84  8.3000000000000E-01  1.6172239222173E-01  8.3304882961847E-01
85  8.4000000000000E-01  1.4270954044131E-01  7.8697256196425E-01
86  8.5000000000000E-01  1.2518041292216E-01  7.4309902972531E-01
87  8.6000000000000E-01  1.0907687780249E-01  7.0160411447881E-01
88  8.7000000000000E-01  9.4337791222009E-02  6.6261354558722E-01
89  8.8000000000000E-01  8.0899724546188E-02  6.2620334549250E-01
90  8.9000000000000E-01  6.8697653785132E-02  5.9240088818911E-01
91  9.0000000000000E-01  5.7665606542254E-02  5.6118656306628E-01
92  9.1000000000000E-01  4.7737262288895E-02  5.3249603405666E-01
93  9.2000000000000E-01  3.8846502226348E-02  5.0622308199239E-01
94  9.3000000000000E-01  3.0927905467923E-02  4.8222301619625E-01
95  9.4000000000000E-01  2.3917188750761E-02  4.6031663956408E-01
96  9.5000000000000E-01  1.7751587371471E-02  4.4029474966719E-01
97  9.6000000000000E-01  1.2370175531266E-02  4.2192315666821E-01
98  9.7000000000000E-01  7.7141247756673E-03  4.0494819705162E-01
99  9.8000000000000E-01  3.7268997207817E-03  3.8910272028079E-01
100  9.9000000000000E-01  3.5439077159978E-04  3.7411252347599E-01
101  1.0000000000000E+00 -2.4550159430868E-03  3.5970320704234E-01
102  1.0100000000000E+00 -4.7504306722202E-03  3.4560742184885E-01
103  1.0200000000000E+00 -6.5785129104309E-03  3.3157247607940E-01
104  1.0300000000000E+00 -7.9835832418125E-03  3.1736826724650E-01
105  1.0400000000000E+00 -9.0077918546197E-03  3.0279550211376E-01
106  1.0500000000000E+00 -9.6913409192858E-03  2.8769416444109E-01
107  1.0600000000000E+00 -1.0072757535013E-02  2.7195218760174E-01
108  1.0700000000000E+00 -1.0189213484520E-02  2.5551428626347E-01
109  1.0800000000000E+00 -1.0076887598857E-02  2.3839089856082E-01
110  1.0900000000000E+00 -9.7713665274970E-03  2.2066719955484E-01
111  1.1000000000000E+00 -9.3080744449526E-03  2.0251199617632E-01
112  1.1100000000000E+00 -8.7226359773647E-03  1.8418368123886E-01
113  1.1200000000000E+00 -8.0494054938895E-03  1.6598018943013E-01
114  1.1300000000000E+00 -7.3191067310480E-03  1.4816510867394E-01
115  1.1400000000000E+00 -6.5585588156194E-03  1.3095927474210E-01
116  1.1500000000000E+00 -5.7907966160022E-03  1.1454342998036E-01
117  1.1600000000000E+00 -5.0352354561556E-03  9.9061200290663E-02
118  1.1700000000000E+00 -4.3078711283447E-03  8.4622286857053E-02
119  1.1800000000000E+00 -3.6215069723904E-03  7.1305794483545E-02
120  1.1900000000000E+00 -2.9860000408996E-03  5.9163620020618E-02
121  1.2000000000000E+00 -2.4085186868722E-03  4.8223826531885E-02
122  1.2100000000000E+00 -1.8938043579529E-03  3.8493933410298E-02
123  1.2200000000000E+00 -1.4444314699005E-03  2.9964051766942E-02
124  1.2300000000000E+00 -1.0610560742688E-03  2.2609872254916E-02
125  1.2400000000000E+00 -7.4284058465419E-04  1.6393647081397E-02
126  1.2500000000000E+00 -4.8958717986656E-04  1.1256199559909E-02
127  1.2600000000000E+00 -2.9721961049728E-04  7.1554117461598E-03
128  1.2700000000000E+00 -1.5942561139331E-04  4.0445177547069E-03
129  1.2800000000000E+00 -6.9189590612940E-05  1.8644489427941E-03
130  1.2900000000000E+00 -1.8833068618481E-05  5.4421350564465E-04
131  1.3000000000000E+00 -8.7754782012391E-07  2.7891168983957E-05
132  1.3100000000000E+00  7.6459491567092E-09 -2.5242314560379E-07
133  1.3200000000000E+00  1.4915324800672E-08 -4.4520421089276E-07
134  1.33 -0.  0.
135  1.34  0.  0.
136  1.35  0.  0.
137  1.36  0.  0.
138  1.37  0.  0.
139  1.38  0.  0.
140  1.39  0.  0.
141  1.40  0.  0.
142  1.41  0.  0.