Mt    ONCVPSP-4.0.1  r_core=   1.10144   1.10144   1.10144   1.20485
109.0000     49.0000      220308    zatom,zion,pspd
8      11   3     4   600     0    pspcod,pspxc,lmax,lloc,mmax,r2well
5.99000000  5.00000000  0.00000000    rchrg fchrg qchrg
3     3     2     2    nproj
3     1           extension_switch
4     3     3    nprojso
0                        -1.4107481864935E+01  1.0133431261746E+01 -3.6534229831212E-01
1  0.0000000000000E+00 -7.8448425533395E-10  3.4312906960210E-08 -7.9383599929650E-08
2  1.0000000000000E-02  7.5706048903280E-02  1.7958912827198E-01 -1.6187213883463E-02
3  2.0000000000000E-02  1.5124496332378E-01  3.5747306965868E-01 -3.2236462399962E-02
4  3.0000000000000E-02  2.2645004381823E-01  5.3196229019641E-01 -4.8011630918868E-02
5  4.0000000000000E-02  3.0115545744800E-01  7.0139855353171E-01 -6.3380512573887E-02
6  5.0000000000000E-02  3.7519666232438E-01  8.6417053887300E-01 -7.8217253906768E-02
7  6.0000000000000E-02  4.4841082233224E-01  1.0187293938593E+00 -9.2405325225082E-02
8  7.0000000000000E-02  5.2063720976383E-01  1.1636041559499E+00 -1.0584108660669E-01
9  8.0000000000000E-02  5.9171759437857E-01  1.2974169416242E+00 -1.1843794109990E-01
10  9.0000000000000E-02  6.6149661829372E-01  1.4188977645333E+00 -1.3013097891249E-01
11  1.0000000000000E-01  7.2982215705017E-01  1.5268988045193E+00 -1.4088192686297E-01
12  1.1000000000000E-01  7.9654566812889E-01  1.6204079120754E+00 -1.5068413304833E-01
13  1.2000000000000E-01  8.6152252905823E-01  1.6985611003222E+00 -1.5956724445353E-01
14  1.3000000000000E-01  9.2461236799336E-01  1.7606537517364E+00 -1.6760118146392E-01
15  1.4000000000000E-01  9.8567939021400E-01  1.8061502521879E+00 -1.7489898338397E-01
16  1.5000000000000E-01  1.0445927043328E+00  1.8346917623410E+00 -1.8161809726270E-01
17  1.6000000000000E-01  1.1012266521005E+00  1.8461018475858E+00 -1.8795971111652E-01
18  1.7000000000000E-01  1.1554611455146E+00  1.8403897131274E+00 -1.9416579275031E-01
19  1.8000000000000E-01  1.2071820144798E+00  1.8177508306411E+00 -2.0051358559532E-01
20  1.9000000000000E-01  1.2562813675371E+00  1.7785647962095E+00 -2.0730743015122E-01
21  2.0000000000000E-01  1.3026579671999E+00  1.7233903245210E+00 -2.1486791873964E-01
22  2.1000000000000E-01  1.3462176202410E+00  1.6529573592570E+00 -2.2351854572287E-01
23  2.2000000000000E-01  1.3868735819162E+00  1.5681563613488E+00 -2.3357017714922E-01
24  2.3000000000000E-01  1.4245469716472E+00  1.4700249219800E+00 -2.4530382408554E-01
25  2.4000000000000E-01  1.4591671961805E+00  1.3597319321599E+00 -2.5895235332105E-01
26  2.5000000000000E-01  1.4906723747645E+00  1.2385596215616E+00 -2.7468189836050E-01
27  2.6000000000000E-01  1.5190097595162E+00  1.1078838523202E+00 -2.9257383388922E-01
28  2.7000000000000E-01  1.5441361429478E+00  9.6915311504659E-01 -3.1260824047041E-01
29  2.8000000000000E-01  1.5660182436589E+00  8.2386672129923E-01 -3.3464980693414E-01
30  2.9000000000000E-01  1.5846330605284E+00  6.7355271658895E-01 -3.5843709147438E-01
31  3.0000000000000E-01  1.5999681854001E+00  5.1974604883641E-01 -3.8357598687508E-01
32  3.1000000000000E-01  1.6120220642854E+00  3.6396751803656E-01 -4.0953811099182E-01
33  3.2000000000000E-01  1.6208041975113E+00  2.0770400359866E-01 -4.3566467363153E-01
34  3.3000000000000E-01  1.6263352700271E+00  5.2390417235129E-02 -4.6117616082780E-01
35  3.4000000000000E-01  1.6286472042290E+00 -1.0060623690799E-01 -4.8518793509265E-01
36  3.5000000000000E-01  1.6277831291256E+00 -2.5000039437934E-01 -5.0673158548465E-01
37  3.6000000000000E-01  1.6237972614163E+00 -3.9459884719881E-01 -5.2478158586990E-01
38  3.7000000000000E-01  1.6167546960075E+00 -5.3330893833603E-01 -5.3828654632370E-01
39  3.8000000000000E-01  1.6067311055918E+00 -6.6514403103203E-01 -5.4620408454423E-01
40  3.9000000000000E-01  1.5938123510705E+00 -7.8922635303364E-01 -5.4753811467641E-01
41  4.0000000000000E-01  1.5780940067393E+00 -9.0478741297147E-01 -5.4137716262188E-01
42  4.1000000000000E-01  1.5596808061873E+00 -1.0111662730980E+00 -5.2693218090445E-01
43  4.2000000000000E-01  1.5386860167044E+00 -1.1078060354050E+00 -5.0357226170646E-01
44  4.3000000000000E-01  1.5152307515832E+00 -1.1942489533582E+00 -4.7085664052025E-01
45  4.4000000000000E-01  1.4894432309725E+00 -1.2701306164885E+00 -4.2856144881159E-01
46  4.5000000000000E-01  1.4614580028399E+00 -1.3351736681396E+00 -3.7669981279139E-01
47  4.6000000000000E-01  1.4314151361081E+00 -1.3891815070784E+00 -3.1553410410565E-01
48  4.7000000000000E-01  1.3994593981106E+00 -1.4320323917581E+00 -2.4557942086316E-01
49  4.8000000000000E-01  1.3657394281878E+00 -1.4636743131910E+00 -1.6759770460233E-01
50  4.9000000000000E-01  1.3304069185197E+00 -1.4841209310375E+00 -8.2582268315402E-02
51  5.0000000000000E-01  1.2936158122066E+00 -1.4934487809820E+00  8.2670921981134E-03
52  5.1000000000000E-01  1.2555215272222E+00 -1.4917958638342E+00  1.0357782314141E-01
53  5.2000000000000E-01  1.2162802132309E+00 -1.4793616227755E+00  2.0184619161661E-01
54  5.3000000000000E-01  1.1760480464639E+00 -1.4564082098314E+00  3.0148535978009E-01
55  5.4000000000000E-01  1.1349805659645E+00 -1.4232628412490E+00  4.0087826125059E-01
56  5.5000000000000E-01  1.0932320526355E+00 -1.3803209491304E+00  4.9843331170319E-01
57  5.6000000000000E-01  1.0509549507237E+00 -1.3280497582573E+00  5.9264078416270E-01
58  5.7000000000000E-01  1.0082993297494E+00 -1.2669918567839E+00  6.8212756353507E-01
59  5.8000000000000E-01  9.6541238350135E-01 -1.1977682908818E+00  7.6570797282594E-01
60  5.9000000000000E-01  9.2243796162689E-01 -1.1210806990095E+00  8.4242843988606E-01
61  6.0000000000000E-01  8.7951612860909E-01 -1.0377120127144E+00  9.1160394880186E-01
62  6.1000000000000E-01  8.3678274455891E-01 -9.4852528801045E-01  9.7284449028709E-01
63  6.2000000000000E-01  7.9436906228164E-01 -8.5446029346158E-01  1.0260700823783E+00
64  6.3000000000000E-01  7.5240133549307E-01 -7.5652756597906E-01  1.0715133640624E+00
65  6.4000000000000E-01  7.1100043384146E-01 -6.5579974972210E-01  1.1097092541545E+00
66  6.5000000000000E-01  6.7028146149395E-01 -5.5340015307646E-01  1.1414716966814E+00
67  6.6000000000000E-01  6.3035337741631E-01 -4.5048858835215E-01  1.1678580607798E+00
68  6.7000000000000E-01  5.9131861704229E-01 -3.4824469283488E-01  1.1901223046925E+00
69  6.8000000000000E-01  5.5327271671528E-01 -2.4784906203715E-01  1.2096585264094E+00
70  6.9000000000000E-01  5.1630394400527E-01 -1.5046265020721E-01  1.2279369848177E+00
71  7.0000000000000E-01  4.8049293866957E-01 -5.7205003328866E-02  1.2464350633822E+00
72  7.1000000000000E-01  4.4591237055095E-01  3.0868019582911E-02  1.2665659443589E+00
73  7.2000000000000E-01  4.1262662200983E-01  1.1278631497741E-01  1.2896079496389E+00
74  7.3000000000000E-01  3.8069150349707E-01  1.8768663337628E-01  1.3166375730579E+00
75  7.4000000000000E-01  3.5015401152949E-01  2.5483194173019E-01  1.3484691715973E+00
76  7.5000000000000E-01  3.2105213858990E-01  3.1362830896016E-01  1.3856040978705E+00
77  7.6000000000000E-01  2.9341474430720E-01  3.6363863241891E-01  1.4281917474633E+00
78  7.7000000000000E-01  2.6726149667481E-01  4.0459261235799E-01  1.4760045714478E+00
79  7.8000000000000E-01  2.4260289104666E-01  4.3639249903175E-01  1.5284285811709E+00
80  7.9000000000000E-01  2.1944035324045E-01  4.5911427861399E-01  1.5844702684593E+00
81  8.0000000000000E-01  1.9776643132551E-01  4.7300412430120E-01  1.6427802028307E+00
82  8.1000000000000E-01  1.7756507864185E-01  4.7847011147759E-01  1.7016928745791E+00
83  8.2000000000000E-01  1.5881202836439E-01  4.7606937359340E-01  1.7592816570970E+00
84  8.3000000000000E-01  1.4147525757911E-01  4.6649105099710E-01  1.8134270929244E+00
85  8.4000000000000E-01  1.2551553646926E-01  4.5053555079783E-01  1.8618960948718E+00
86  8.5000000000000E-01  1.1088705591359E-01  4.2909078459220E-01  1.9024291237262E+00
87  8.6000000000000E-01  9.7538124669340E-02  4.0310617578295E-01  1.9328319823635E+00
88  8.7000000000000E-01  8.5411925434503E-02  3.7356532334058E-01  1.9510685735043E+00
89  8.8000000000000E-01  7.4447317534826E-02  3.4145826943495E-01  1.9553508209912E+00
90  8.9000000000000E-01  6.4579672822119E-02  3.0775434099903E-01  1.9442219627642E+00
91  9.0000000000000E-01  5.5741730648517E-02  2.7337651813675E-01  1.9166295918686E+00
92  9.1000000000000E-01  4.7864457523515E-02  2.3917822517444E-01  1.8719851474563E+00
93  9.2000000000000E-01  4.0877897274650E-02  2.0592334461254E-01  1.8102070318036E+00
94  9.3000000000000E-01  3.4711998206157E-02  1.7427012346211E-01  1.7317451364593E+00
95  9.4000000000000E-01  2.9297404850661E-02  1.4475948024557E-01  1.6375852792971E+00
96  9.5000000000000E-01  2.4566203386769E-02  1.1780803545554E-01  1.5292328580722E+00
97  9.6000000000000E-01  2.0452611584407E-02  9.3705985815939E-02  1.4086758844040E+00
98  9.7000000000000E-01  1.6893606160691E-02  7.2619731490540E-02  1.2783284411700E+00
99  9.8000000000000E-01  1.3829482594443E-02  5.4598954059639E-02  1.1409564711663E+00
100  9.9000000000000E-01  1.1204344662633E-02  3.9587640604886E-02  9.9958861967434E-01
101  1.0000000000000E+00  8.9665231353592E-03  2.7438363980829E-02  8.5741558514037E-01
102  1.0100000000000E+00  7.0689251040017E-03  1.7928969566203E-02  7.1768204822584E-01
103  1.0200000000000E+00  5.4693172383722E-03  1.0780691347715E-02  5.8357572354451E-01
104  1.0300000000000E+00  4.1305495711005E-03  5.6766248149108E-03  4.5811839678347E-01
105  1.0400000000000E+00  3.0207115143134E-03  2.2795317887301E-03  3.4406380172019E-01
106  1.0500000000000E+00  2.1121268176543E-03  2.5132371978799E-04  2.4380271968000E-01
107  1.0600000000000E+00  1.3740062596012E-03 -6.9850805512657E-04  1.5923835376749E-01
108  1.0700000000000E+00  7.9553059206008E-04 -8.8592727889170E-04  9.1842632362630E-02
109  1.0800000000000E+00  3.7341903211283E-04 -6.3162526036758E-04  4.2615849861698E-02
110  1.0900000000000E+00  1.0737422997826E-04 -2.4032614347779E-04  1.2023945872392E-02
111  1.1000000000000E+00  3.2283295545329E-06 -9.0394900123553E-06  3.5041780334579E-04
112  1.1100000000000E+00  4.7244500883305E-07 -1.2909186570111E-06  5.1834533370713E-05
113  1.1200000000000E+00 -5.3825218411599E-08  1.3464890112012E-07 -5.9694022334596E-06
114  1.13  0.  0.  0.
115  1.14  0.  0.  0.
116  1.15  0.  0.  0.
117  1.16  0.  0.  0.
118  1.17  0.  0.  0.
119  1.18  0.  0.  0.
120  1.19  0.  0.  0.
121  1.20  0.  0.  0.
122  1.21  0.  0.  0.
123  1.22  0.  0.  0.
124  1.23  0.  0.  0.
125  1.24  0.  0.  0.
126  1.25  0.  0.  0.
127  1.26  0.  0.  0.
128  1.27  0.  0.  0.
129  1.28  0.  0.  0.
130  1.29  0.  0.  0.
131  1.30  0.  0.  0.
132  1.31  0.  0.  0.
133  1.32  0.  0.  0.
134  1.33  0.  0.  0.
135  1.34  0.  0.  0.
136  1.35  0.  0.  0.
137  1.36  0.  0.  0.
138  1.37  0.  0.  0.
139  1.38  0.  0.  0.
140  1.39  0.  0.  0.
141  1.40  0.  0.  0.
142  1.41  0.  0.  0.
143  1.42  0.  0.  0.
144  1.43  0.  0.  0.
145  1.44  0.  0.  0.
146  1.45  0.  0.  0.
147  1.46  0.  0.  0.
148  1.47  0.  0.  0.
149  1.48  0.  0.  0.
150  1.49  0.  0.  0.
151  1.50  0.  0.  0.
152  1.51  0.  0.  0.
153  1.52  0.  0.  0.
154  1.53  0.  0.  0.
155  1.54  0.  0.  0.
156  1.55  0.  0.  0.
157  1.56  0.  0.  0.
158  1.57  0.  0.  0.
159  1.58  0.  0.  0.
160  1.59  0.  0.  0.
161  1.60  0.  0.  0.
162  1.61  0.  0.  0.
163  1.62  0.  0.  0.
164  1.63  0.  0.  0.
165  1.64  0.  0.  0.
166  1.65  0.  0.  0.
167  1.66  0.  0.  0.
168  1.67  0.  0.  0.
169  1.68  0.  0.  0.
170  1.69  0.  0.  0.
171  1.70  0.  0.  0.
172  1.71  0.  0.  0.
173  1.72  0.  0.  0.
174  1.73  0.  0.  0.
175  1.74  0.  0.  0.
176  1.75  0.  0.  0.
177  1.76  0.  0.  0.
178  1.77  0.  0.  0.
179  1.78  0.  0.  0.
180  1.79  0.  0.  0.
181  1.80  0.  0.  0.
182  1.81  0.  0.  0.
183  1.82  0.  0.  0.
184  1.83  0.  0.  0.
185  1.84  0.  0.  0.
186  1.85  0.  0.  0.
187  1.86  0.  0.  0.
188  1.87  0.  0.  0.
189  1.88  0.  0.  0.
190  1.89  0.  0.  0.
191  1.90  0.  0.  0.
192  1.91  0.  0.  0.
193  1.92  0.  0.  0.
194  1.93  0.  0.  0.
195  1.94  0.  0.  0.
196  1.95  0.  0.  0.
197  1.96  0.  0.  0.
198  1.97  0.  0.  0.
199  1.98  0.  0.  0.
200  1.99  0.  0.  0.
201  2.00  0.  0.  0.
202  2.01  0.  0.  0.
203  2.02  0.  0.  0.
204  2.03  0.  0.  0.
205  2.04  0.  0.  0.
206  2.05  0.  0.  0.
207  2.06  0.  0.  0.
208  2.07  0.  0.  0.
209  2.08  0.  0.  0.
210  2.09  0.  0.  0.
211  2.10  0.  0.  0.
212  2.11  0.  0.  0.
213  2.12  0.  0.  0.
214  2.13  0.  0.  0.
215  2.14  0.  0.  0.
216  2.15  0.  0.  0.
217  2.16  0.  0.  0.
218  2.17  0.  0.  0.
219  2.18  0.  0.  0.
220  2.19  0.  0.  0.
221  2.20  0.  0.  0.
222  2.21  0.  0.  0.
223  2.22  0.  0.  0.
224  2.23  0.  0.  0.
225  2.24  0.  0.  0.
226  2.25  0.  0.  0.
227  2.26  0.  0.  0.
228  2.27  0.  0.  0.
229  2.28  0.  0.  0.
230  2.29  0.  0.  0.
231  2.30  0.  0.  0.
232  2.31  0.  0.  0.
233  2.32  0.  0.  0.
234  2.33  0.  0.  0.
235  2.34  0.  0.  0.
236  2.35  0.  0.  0.
237  2.36  0.  0.  0.
238  2.37  0.  0.  0.
239  2.38  0.  0.  0.
240  2.39  0.  0.  0.
241  2.40  0.  0.  0.
242  2.41  0.  0.  0.
243  2.42  0.  0.  0.
244  2.43  0.  0.  0.
245  2.44  0.  0.  0.
246  2.45  0.  0.  0.
247  2.46  0.  0.  0.
248  2.47  0.  0.  0.
249  2.48  0.  0.  0.
250  2.49  0.  0.  0.
251  2.50  0.  0.  0.
252  2.51  0.  0.  0.
253  2.52  0.  0.  0.
254  2.53  0.  0.  0.
255  2.54  0.  0.  0.
256  2.55  0.  0.  0.
257  2.56  0.  0.  0.
258  2.57  0.  0.  0.
259  2.58  0.  0.  0.
260  2.59  0.  0.  0.
261  2.60  0.  0.  0.
262  2.61  0.  0.  0.
263  2.62  0.  0.  0.
264  2.63  0.  0.  0.
265  2.64  0.  0.  0.
266  2.65  0.  0.  0.
267  2.66  0.  0.  0.
268  2.67  0.  0.  0.
269  2.68  0.  0.  0.
270  2.69  0.  0.  0.
271  2.70  0.  0.  0.
272  2.71  0.  0.  0.
273  2.72  0.  0.  0.
274  2.73  0.  0.  0.
275  2.74  0.  0.  0.
276  2.75  0.  0.  0.
277  2.76  0.  0.  0.
278  2.77  0.  0.  0.
279  2.78  0.  0.  0.
280  2.79  0.  0.  0.
281  2.80  0.  0.  0.
282  2.81  0.  0.  0.
283  2.82  0.  0.  0.
284  2.83  0.  0.  0.
285  2.84  0.  0.  0.
286  2.85  0.  0.  0.
287  2.86  0.  0.  0.
288  2.87  0.  0.  0.
289  2.88  0.  0.  0.
290  2.89  0.  0.  0.
291  2.90  0.  0.  0.
292  2.91  0.  0.  0.
293  2.92  0.  0.  0.
294  2.93  0.  0.  0.
295  2.94  0.  0.  0.
296  2.95  0.  0.  0.
297  2.96  0.  0.  0.
298  2.97  0.  0.  0.
299  2.98  0.  0.  0.
300  2.99  0.  0.  0.
301  3.00  0.  0.  0.
302  3.01  0.  0.  0.
303  3.02  0.  0.  0.
304  3.03  0.  0.  0.
305  3.04  0.  0.  0.
306  3.05  0.  0.  0.
307  3.06  0.  0.  0.
308  3.07  0.  0.  0.
309  3.08  0.  0.  0.
310  3.09  0.  0.  0.
311  3.10  0.  0.  0.
312  3.11  0.  0.  0.
313  3.12  0.  0.  0.
314  3.13  0.  0.  0.
315  3.14  0.  0.  0.
316  3.15  0.  0.  0.
317  3.16  0.  0.  0.
318  3.17  0.  0.  0.
319  3.18  0.  0.  0.
320  3.19  0.  0.  0.
321  3.20  0.  0.  0.
322  3.21  0.  0.  0.
323  3.22  0.  0.  0.
324  3.23  0.  0.  0.
325  3.24  0.  0.  0.
326  3.25  0.  0.  0.
327  3.26  0.  0.  0.
328  3.27  0.  0.  0.
329  3.28  0.  0.  0.
330  3.29  0.  0.  0.
331  3.30  0.  0.  0.
332  3.31  0.  0.  0.
333  3.32  0.  0.  0.
334  3.33  0.  0.  0.
335  3.34  0.  0.  0.
336  3.35  0.  0.  0.
337  3.36  0.  0.  0.
338  3.37  0.  0.  0.
339  3.38  0.  0.  0.
340  3.39  0.  0.  0.
341  3.40  0.  0.  0.
342  3.41  0.  0.  0.
343  3.42  0.  0.  0.
344  3.43  0.  0.  0.
345  3.44  0.  0.  0.
346  3.45  0.  0.  0.
347  3.46  0.  0.  0.
348  3.47  0.  0.  0.
349  3.48  0.  0.  0.
350  3.49  0.  0.  0.
351  3.50  0.  0.  0.
352  3.51  0.  0.  0.
353  3.52  0.  0.  0.
354  3.53  0.  0.  0.
355  3.54  0.  0.  0.
356  3.55  0.  0.  0.
357  3.56  0.  0.  0.
358  3.57  0.  0.  0.
359  3.58  0.  0.  0.
360  3.59  0.  0.  0.
361  3.60  0.  0.  0.
362  3.61  0.  0.  0.
363  3.62  0.  0.  0.
364  3.63  0.  0.  0.
365  3.64  0.  0.  0.
366  3.65  0.  0.  0.
367  3.66  0.  0.  0.
368  3.67  0.  0.  0.
369  3.68  0.  0.  0.
370  3.69  0.  0.  0.
371  3.70  0.  0.  0.
372  3.71  0.  0.  0.
373  3.72  0.  0.  0.
374  3.73  0.  0.  0.
375  3.74  0.  0.  0.
376  3.75  0.  0.  0.
377  3.76  0.  0.  0.
378  3.77  0.  0.  0.
379  3.78  0.  0.  0.
380  3.79  0.  0.  0.
381  3.80  0.  0.  0.
382  3.81  0.  0.  0.
383  3.82  0.  0.  0.
384  3.83  0.  0.  0.
385  3.84  0.  0.  0.
386  3.85  0.  0.  0.
387  3.86  0.  0.  0.
388  3.87  0.  0.  0.
389  3.88  0.  0.  0.
390  3.89  0.  0.  0.
391  3.90  0.  0.  0.
392  3.91  0.  0.  0.
393  3.92  0.  0.  0.
394  3.93  0.  0.  0.
395  3.94  0.  0.  0.
396  3.95  0.  0.  0.
397  3.96  0.  0.  0.
398  3.97  0.  0.  0.
399  3.98  0.  0.  0.
400  3.99  0.  0.  0.
401  4.00  0.  0.  0.
402  4.01  0.  0.  0.
403  4.02  0.  0.  0.
404  4.03  0.  0.  0.
405  4.04  0.  0.  0.
406  4.05  0.  0.  0.
407  4.06  0.  0.  0.
408  4.07  0.  0.  0.
409  4.08  0.  0.  0.
410  4.09  0.  0.  0.
411  4.10  0.  0.  0.
412  4.11  0.  0.  0.
413  4.12  0.  0.  0.
414  4.13  0.  0.  0.
415  4.14  0.  0.  0.
416  4.15  0.  0.  0.
417  4.16  0.  0.  0.
418  4.17  0.  0.  0.
419  4.18  0.  0.  0.
420  4.19  0.  0.  0.
421  4.20  0.  0.  0.
422  4.21  0.  0.  0.
423  4.22  0.  0.  0.
424  4.23  0.  0.  0.
425  4.24  0.  0.  0.
426  4.25  0.  0.  0.
427  4.26  0.  0.  0.
428  4.27  0.  0.  0.
429  4.28  0.  0.  0.
430  4.29  0.  0.  0.
431  4.30  0.  0.  0.
432  4.31  0.  0.  0.
433  4.32  0.  0.  0.
434  4.33  0.  0.  0.
435  4.34  0.  0.  0.
436  4.35  0.  0.  0.
437  4.36  0.  0.  0.
438  4.37  0.  0.  0.
439  4.38  0.  0.  0.
440  4.39  0.  0.  0.
441  4.40  0.  0.  0.
442  4.41  0.  0.  0.
443  4.42  0.  0.  0.
444  4.43  0.  0.  0.
445  4.44  0.  0.  0.
446  4.45  0.  0.  0.
447  4.46  0.  0.  0.
448  4.47  0.  0.  0.
449  4.48  0.  0.  0.
450  4.49  0.  0.  0.
451  4.50  0.  0.  0.
452  4.51  0.  0.  0.
453  4.52  0.  0.  0.
454  4.53  0.  0.  0.
455  4.54  0.  0.  0.
456  4.55  0.  0.  0.
457  4.56  0.  0.  0.
458  4.57  0.  0.  0.
459  4.58  0.  0.  0.
460  4.59  0.  0.  0.
461  4.60  0.  0.  0.
462  4.61  0.  0.  0.
463  4.62  0.  0.  0.
464  4.63  0.  0.  0.
465  4.64  0.  0.  0.
466  4.65  0.  0.  0.
467  4.66  0.  0.  0.
468  4.67  0.  0.  0.
469  4.68  0.  0.  0.
470  4.69  0.  0.  0.
471  4.70  0.  0.  0.
472  4.71  0.  0.  0.
473  4.72  0.  0.  0.
474  4.73  0.  0.  0.
475  4.74  0.  0.  0.
476  4.75  0.  0.  0.
477  4.76  0.  0.  0.
478  4.77  0.  0.  0.
479  4.78  0.  0.  0.
480  4.79  0.  0.  0.
481  4.80  0.  0.  0.
482  4.81  0.  0.  0.
483  4.82  0.  0.  0.
484  4.83  0.  0.  0.
485  4.84  0.  0.  0.
486  4.85  0.  0.  0.
487  4.86  0.  0.  0.
488  4.87  0.  0.  0.
489  4.88  0.  0.  0.
490  4.89  0.  0.  0.
491  4.90  0.  0.  0.
492  4.91  0.  0.  0.
493  4.92  0.  0.  0.
494  4.93  0.  0.  0.
495  4.94  0.  0.  0.
496  4.95  0.  0.  0.
497  4.96  0.  0.  0.
498  4.97  0.  0.  0.
499  4.98  0.  0.  0.
500  4.99  0.  0.  0.
501  5.00  0.  0.  0.
502  5.01  0.  0.  0.
503  5.02  0.  0.  0.
504  5.03  0.  0.  0.
505  5.04  0.  0.  0.
506  5.05  0.  0.  0.
507  5.06  0.  0.  0.
508  5.07  0.  0.  0.
509  5.08  0.  0.  0.
510  5.09  0.  0.  0.
511  5.10  0.  0.  0.
512  5.11  0.  0.  0.
513  5.12  0.  0.  0.
514  5.13  0.  0.  0.
515  5.14  0.  0.  0.
516  5.15  0.  0.  0.
517  5.16  0.  0.  0.
518  5.17  0.  0.  0.
519  5.18  0.  0.  0.
520  5.19  0.  0.  0.
521  5.20  0.  0.  0.
522  5.21  0.  0.  0.
523  5.22  0.  0.  0.
524  5.23  0.  0.  0.
525  5.24  0.  0.  0.
526  5.25  0.  0.  0.
527  5.26  0.  0.  0.
528  5.27  0.  0.  0.
529  5.28  0.  0.  0.
530  5.29  0.  0.  0.
531  5.30  0.  0.  0.
532  5.31  0.  0.  0.
533  5.32  0.  0.  0.
534  5.33  0.  0.  0.
535  5.34  0.  0.  0.
536  5.35  0.  0.  0.
537  5.36  0.  0.  0.
538  5.37  0.  0.  0.
539  5.38  0.  0.  0.
540  5.39  0.  0.  0.
541  5.40  0.  0.  0.
542  5.41  0.  0.  0.
543  5.42  0.  0.  0.
544  5.43  0.  0.  0.
545  5.44  0.  0.  0.
546  5.45  0.  0.  0.
547  5.46  0.  0.  0.
548  5.47  0.  0.  0.
549  5.48  0.  0.  0.
550  5.49  0.  0.  0.
551  5.50  0.  0.  0.
552  5.51  0.  0.  0.
553  5.52  0.  0.  0.
554  5.53  0.  0.  0.
555  5.54  0.  0.  0.
556  5.55  0.  0.  0.
557  5.56  0.  0.  0.
558  5.57  0.  0.  0.
559  5.58  0.  0.  0.
560  5.59  0.  0.  0.
561  5.60  0.  0.  0.
562  5.61  0.  0.  0.
563  5.62  0.  0.  0.
564  5.63  0.  0.  0.
565  5.64  0.  0.  0.
566  5.65  0.  0.  0.
567  5.66  0.  0.  0.
568  5.67  0.  0.  0.
569  5.68  0.  0.  0.
570  5.69  0.  0.  0.
571  5.70  0.  0.  0.
572  5.71  0.  0.  0.
573  5.72  0.  0.  0.
574  5.73  0.  0.  0.
575  5.74  0.  0.  0.
576  5.75  0.  0.  0.
577  5.76  0.  0.  0.
578  5.77  0.  0.  0.
579  5.78  0.  0.  0.
580  5.79  0.  0.  0.
581  5.80  0.  0.  0.
582  5.81  0.  0.  0.
583  5.82  0.  0.  0.
584  5.83  0.  0.  0.
585  5.84  0.  0.  0.
586  5.85  0.  0.  0.
587  5.86  0.  0.  0.
588  5.87  0.  0.  0.
589  5.88  0.  0.  0.
590  5.89  0.  0.  0.
591  5.90  0.  0.  0.
592  5.91  0.  0.  0.
593  5.92  0.  0.  0.
594  5.93  0.  0.  0.
595  5.94  0.  0.  0.
596  5.95  0.  0.  0.
597  5.96  0.  0.  0.
598  5.97  0.  0.  0.
599  5.98  0.  0.  0.
600  5.99  0.  0.  0.
1                        -1.2645862083374E+01 -1.5510718405024E+00 -1.9254044944664E-01
1  0.0000000000000E+00  4.7197585284486E-09  1.3343817745204E-08 -7.7597222036818E-07
2  1.0000000000000E-02  2.8862033263306E-03 -3.7802761109409E-03 -6.5526190152067E-03
3  2.0000000000000E-02  1.1523871577703E-02 -1.5080693818102E-02 -2.5905432198542E-02
4  3.0000000000000E-02  2.5850377178487E-02 -3.3780170631018E-02 -5.7156611307040E-02
5  4.0000000000000E-02  4.5761996585711E-02 -5.9677413059599E-02 -9.8846878247877E-02
6  5.0000000000000E-02  7.1114883696167E-02 -9.2491726274080E-02 -1.4902316902748E-01
7  6.0000000000000E-02  1.0172641245241E-01 -1.3186423212066E-01 -2.0532387224067E-01
8  7.0000000000000E-02  1.3737686910604E-01 -1.7735957348301E-01 -2.6508195255805E-01
9  8.0000000000000E-02  1.7781146987684E-01 -2.2846819632369E-01 -3.2544149369787E-01
10  9.0000000000000E-02  2.2274267563068E-01 -2.8460930797465E-01 -3.8348261153616E-01
11  1.0000000000000E-01  2.7185277177514E-01 -3.4513461064252E-01 -4.3634932157869E-01
12  1.1000000000000E-01  3.2479667890400E-01 -4.0933290225454E-01 -4.8137481193968E-01
13  1.2000000000000E-01  3.8120495784514E-01 -4.7643562265344E-01 -5.1619867923285E-01
14  1.3000000000000E-01  4.4068697169254E-01 -5.4562340207225E-01 -5.3887102611838E-01
15  1.4000000000000E-01  5.0283416711215E-01 -6.1603364145480E-01 -5.4793888133290E-01
16  1.5000000000000E-01  5.6722343766146E-01 -6.8676912153169E-01 -5.4251116206653E-01
17  1.6000000000000E-01  6.3342053298627E-01 -7.5690760089814E-01 -5.2229932227046E-01
18  1.7000000000000E-01  7.0098347946929E-01 -8.2551232418475E-01 -4.8763187952300E-01
19  1.8000000000000E-01  7.6946598010053E-01 -8.9164332144886E-01 -4.3944214264372E-01
20  1.9000000000000E-01  8.3842076390694E-01 -9.5436934092046E-01 -3.7922962398937E-01
21  2.0000000000000E-01  9.0740285809720E-01 -1.0127802210094E+00 -3.0899676446385E-01
22  2.1000000000000E-01  9.7597275902835E-01 -1.0659994757527E+00 -2.3116367652920E-01
23  2.2000000000000E-01  1.0436994810667E+00 -1.1131968422478E+00 -1.4846457443663E-01
24  2.3000000000000E-01  1.1101634652916E+00 -1.1536005204612E+00 -6.3830369727123E-02
25  2.4000000000000E-01  1.1749593326810E+00 -1.1865088262257E+00  1.9737471518320E-02
26  2.5000000000000E-01  1.2376984688525E+00 -1.2113009780297E+00  9.9296312466938E-02
27  2.6000000000000E-01  1.2980114295493E+00 -1.2274467477489E+00  1.7208930824306E-01
28  2.7000000000000E-01  1.3555501578332E+00 -1.2345147248123E+00  2.3566436451484E-01
29  2.8000000000000E-01  1.4099900053591E+00 -1.2321789720210E+00  2.8797982978433E-01
30  2.9000000000000E-01  1.4610315511717E+00 -1.2202238885901E+00  3.2749220938646E-01
31  3.0000000000000E-01  1.5084022122237E+00 -1.1985471408043E+00  3.5322194641965E-01
32  3.1000000000000E-01  1.5518576403091E+00 -1.1671605714983E+00  3.6479424790480E-01
33  3.2000000000000E-01  1.5911829004151E+00 -1.1261890546576E+00  3.6245300460317E-01
34  3.3000000000000E-01  1.6261934256932E+00 -1.0758673188317E+00  3.4704701529306E-01
35  3.4000000000000E-01  1.6567357444271E+00 -1.0165348206925E+00  3.1998893191552E-01
36  3.5000000000000E-01  1.6826879746237E+00 -9.4862880584170E-01  2.8318853972698E-01
37  3.6000000000000E-01  1.7039600822581E+00 -8.7267574578792E-01  2.3896312530353E-01
38  3.7000000000000E-01  1.7204938998465E+00 -7.8928138593398E-01  1.8992871593690E-01
39  3.8000000000000E-01  1.7322629029780E+00 -6.9911967767990E-01  1.3887685183700E-01
40  3.9000000000000E-01  1.7392717437443E+00 -6.0292089688979E-01  8.8642238894638E-02
41  4.0000000000000E-01  1.7415555417175E+00 -5.0145926985407E-01  4.1967093582007E-02
42  4.1000000000000E-01  1.7391789352381E+00 -3.9554043575195E-01  1.3682109703214E-03
43  4.2000000000000E-01  1.7322348982779E+00 -2.8598907115420E-01 -3.0987250027583E-02
44  4.3000000000000E-01  1.7208433310059E+00 -1.7363698740859E-01 -5.3391564479609E-02
45  4.4000000000000E-01  1.7051494353370E+00 -5.9311986361024E-02 -6.4686665029178E-02
46  4.5000000000000E-01  1.6853218901137E+00  5.6172275256237E-02 -6.4330404488780E-02
47  4.6000000000000E-01  1.6615508440468E+00  1.7202520595122E-01 -5.2435439638589E-02
48  4.7000000000000E-01  1.6340457480160E+00  2.8748682752778E-01 -2.9778447705739E-02
49  4.8000000000000E-01  1.6030330516704E+00  4.0183384949463E-01  2.2213687076048E-03
50  4.9000000000000E-01  1.5687537923403E+00  5.1438422590834E-01  4.1554223678889E-02
51  5.0000000000000E-01  1.5314611069474E+00  6.2450020878958E-01  8.5700552914295E-02
52  5.1000000000000E-01  1.4914176997453E+00  7.3158996845110E-01  1.3173782213687E-01
53  5.2000000000000E-01  1.4488933002261E+00  8.3510790321950E-01  1.7646930197664E-01
54  5.3000000000000E-01  1.4041621462908E+00  9.3455380708305E-01  2.1656974323623E-01
55  5.4000000000000E-01  1.3575005277252E+00  1.0294711019531E+00  2.4874205048171E-01
56  5.5000000000000E-01  1.3091844240971E+00  1.1194443699952E+00  2.6987844693218E-01
57  5.6000000000000E-01  1.2594872693782E+00  1.2040964397525E+00  2.7721927835353E-01
58  5.7000000000000E-01  1.2086778728986E+00  1.2830852868386E+00  2.6850253668002E-01
59  5.8000000000000E-01  1.1570185227154E+00  1.3561010055837E+00  2.4209740292723E-01
60  5.9000000000000E-01  1.1047632931920E+00  1.4228630923614E+00  1.9711560964378E-01
61  6.0000000000000E-01  1.0521565736454E+00  1.4831182550995E+00  1.3349519023546E-01
62  6.1000000000000E-01  9.9943182946762E-01  1.5366389277509E+00  5.2052189516074E-02
63  6.2000000000000E-01  9.4681060131764E-01  1.5832226247924E+00 -4.5502879770110E-02
64  6.3000000000000E-01  8.9450174199495E-01  1.6226922209261E+00 -1.5658568128616E-01
65  6.4000000000000E-01  8.4270088463092E-01  1.6548971871913E+00 -2.7779617311055E-01
66  6.5000000000000E-01  7.9159013007452E-01  1.6797157589102E+00 -4.0501305015678E-01
67  6.6000000000000E-01  7.4133793599319E-01  1.6970579556687E+00 -5.3352185199526E-01
68  6.7000000000000E-01  6.9209918545211E-01  1.7068693212226E+00 -6.5817264067023E-01
69  6.8000000000000E-01  6.4401540874402E-01  1.7091352041099E+00 -7.7356184904965E-01
70  6.9000000000000E-01  5.9721512916913E-01  1.7038853599011E+00 -8.7423178337102E-01
71  7.0000000000000E-01  5.5181430143001E-01  1.6911986252601E+00 -9.5488038231880E-01
72  7.1000000000000E-01  5.0791681039666E-01  1.6712073937615E+00 -1.0105732289277E+00
73  7.2000000000000E-01  4.6561499825988E-01  1.6441016147743E+00 -1.0369495105542E+00
74  7.3000000000000E-01  4.2499018953277E-01  1.6101320402566E+00 -1.0304136440824E+00
75  7.4000000000000E-01  3.8611318594440E-01  1.5696124601128E+00 -9.8830463412633E-01
76  7.5000000000000E-01  3.4904470691609E-01  1.5229206944439E+00 -9.0903590388493E-01
77  7.6000000000000E-01  3.1383575589968E-01  1.4704981496767E+00 -7.9219931157114E-01
78  7.7000000000000E-01  2.8052789822893E-01  1.4128477938418E+00 -6.3862830753398E-01
79  7.8000000000000E-01  2.4915344209929E-01  1.3505304624130E+00 -4.5041665492081E-01
80  7.9000000000000E-01  2.1973552062779E-01  1.2841594679998E+00 -2.3089077671369E-01
81  8.0000000000000E-01  1.9228807941784E-01  1.2143935524307E+00  1.5464456482362E-02
82  8.1000000000000E-01  1.6681578041228E-01  1.1419282857919E+00  2.8312488707707E-01
83  8.2000000000000E-01  1.4331383881166E-01  1.0674860811620E+00  5.6568779660924E-01
84  8.3000000000000E-01  1.2176781521984E-01  9.9180505349498E-01  8.5606913637571E-01
85  8.4000000000000E-01  1.0215338972655E-01  9.1562700384707E-01  1.1467306850336E+00
86  8.5000000000000E-01  8.4436148145430E-02  8.3968485368259E-01  1.4299292627330E+00
87  8.6000000000000E-01  6.8571412926402E-02  7.6468988638946E-01  1.6979791167750E+00
88  8.7000000000000E-01  5.4504152225956E-02  6.9131917286952E-01  1.9435179023351E+00
89  8.8000000000000E-01  4.2169000165944E-02  6.2020356410242E-01  2.1597663464254E+00
90  8.9000000000000E-01  3.1490419411105E-02  5.5191662539197E-01  2.3407717236760E+00
91  9.0000000000000E-01  2.2383033870718E-02  4.8696486463145E-01  2.4816256940762E+00
92  9.1000000000000E-01  1.4752154658063E-02  4.2577957096619E-01  2.5786478461683E+00
93  9.2000000000000E-01  8.4945165528547E-03  3.6871053183699E-01  2.6295274303109E+00
94  9.3000000000000E-01  3.4992352855069E-03  3.1602183721067E-01  2.6334172176523E+00
95  9.4000000000000E-01 -3.5101177772190E-04  2.6788991196255E-01  2.5909751305402E+00
96  9.5000000000000E-01 -3.1785872640590E-03  2.2440384334654E-01  2.5043511978982E+00
97  9.6000000000000E-01 -5.1092920141526E-03  1.8556799304012E-01  2.3771194244192E+00
98  9.7000000000000E-01 -6.2705826883830E-03  1.5130680533814E-01  2.2141562486191E+00
99  9.8000000000000E-01 -6.7896397230392E-03  1.2147164767347E-01  2.0214693230570E+00
100  9.9000000000000E-01 -6.7913241019715E-03  9.5849449750812E-02  1.8059822995919E+00
101  1.0000000000000E+00 -6.3960679608077E-03  7.4172845886555E-02  1.5752830690878E+00
102  1.0100000000000E+00 -5.7177493660464E-03  5.6131474216340E-02  1.3373444155946E+00