Ts    ONCVPSP-4.0.1  r_core=   1.40055   1.40055   1.40055   1.50478
117.0000     25.0000      221108    zatom,zion,pspd
8      11   3     4   600     0    pspcod,pspxc,lmax,lloc,mmax,r2well
5.99000000  5.00000000  0.00000000    rchrg fchrg qchrg
2     2     2     1     0    nproj
1     1           extension_switch
0                         2.1138831630234E+01  2.2818547378904E+00
1  0.0000000000000E+00  1.9533296091723E-09 -5.6778176188432E-09
2  1.0000000000000E-02  7.6449180376680E-02 -6.4088708972574E-03
3  2.0000000000000E-02  1.5279249348899E-01 -1.2912833192989E-02
4  3.0000000000000E-02  2.2892301425655E-01 -1.9603262586429E-02
5  4.0000000000000E-02  3.0473172859783E-01 -2.6564179850646E-02
6  5.0000000000000E-02  3.8010655499407E-01 -3.3868763058165E-02
7  6.0000000000000E-02  4.5493144390476E-01 -4.1576083284693E-02
8  7.0000000000000E-02  5.2908557863868E-01 -4.9728131457222E-02
9  8.0000000000000E-02  6.0244269933067E-01 -5.8347198335002E-02
10  9.0000000000000E-02  6.7487056930442E-01 -6.7433662727156E-02
11  1.0000000000000E-01  7.4623060035972E-01 -7.6964235094797E-02
12  1.1000000000000E-01  8.1637765046223E-01 -8.6890694815176E-02
13  1.2000000000000E-01  8.8516000399351E-01 -9.7139149775110E-02
14  1.3000000000000E-01  9.5241954120277E-01 -1.0760983680027E-01
15  1.4000000000000E-01  1.0179920998562E+00 -1.1817747091599E-01
16  1.5000000000000E-01  1.0817080283763E+00 -1.2869214078056E-01
17  1.6000000000000E-01  1.1433929260703E+00 -1.3898073704450E-01
18  1.7000000000000E-01  1.2028685624400E+00 -1.4884889007572E-01
19  1.8000000000000E-01  1.2599539641033E+00 -1.5808338365519E-01
20  1.9000000000000E-01  1.3144666546217E+00 -1.6645500208319E-01
21  2.0000000000000E-01  1.3662240295626E+00 -1.7372175982210E-01
22  2.1000000000000E-01  1.4150448464992E+00 -1.7963245550093E-01
23  2.2000000000000E-01  1.4607508074080E+00 -1.8393048596191E-01
24  2.3000000000000E-01  1.5031682091039E+00 -1.8635785115878E-01
25  2.4000000000000E-01  1.5421296359951E+00 -1.8665927721384E-01
26  2.5000000000000E-01  1.5774756685624E+00 -1.8458638287232E-01
27  2.6000000000000E-01  1.6090565805870E+00 -1.7990181399368E-01
28  2.7000000000000E-01  1.6367339982736E+00 -1.7238327159914E-01
29  2.8000000000000E-01  1.6603824950339E+00 -1.6182736132738E-01
30  2.9000000000000E-01  1.6798910967928E+00 -1.4805319588618E-01
31  3.0000000000000E-01  1.6951646742392E+00 -1.3090568714345E-01
32  3.1000000000000E-01  1.7061252004184E+00 -1.1025847076956E-01
33  3.2000000000000E-01  1.7127128544254E+00 -8.6016413692281E-02
34  3.3000000000000E-01  1.7148869546480E+00 -5.8117662898500E-02
35  3.4000000000000E-01  1.7126267079750E+00 -2.6535203143091E-02
36  3.5000000000000E-01  1.7059317645677E+00  8.7220992874662E-03
37  3.6000000000000E-01  1.6948225711210E+00  4.7608979658961E-02
38  3.7000000000000E-01  1.6793405189520E+00  9.0043787518963E-02
39  3.8000000000000E-01  1.6595478866803E+00  1.3590902182204E-01
40  3.9000000000000E-01  1.6355275806291E+00  1.8505237141768E-01
41  4.0000000000000E-01  1.6073826793193E+00  2.3728823455321E-01
42  4.1000000000000E-01  1.5752357914882E+00  2.9239968239056E-01
43  4.2000000000000E-01  1.5392282398676E+00  3.5014082372037E-01
44  4.3000000000000E-01  1.4995190854655E+00  4.1023952124223E-01
45  4.4000000000000E-01  1.4562840092524E+00  4.7240040410124E-01
46  4.5000000000000E-01  1.4097140699218E+00  5.3630811694436E-01
47  4.6000000000000E-01  1.3600143577451E+00  6.0163074266845E-01
48  4.7000000000000E-01  1.3074025654522E+00  6.6802333433489E-01
49  4.8000000000000E-01  1.2521074975260E+00  7.3513149144750E-01
50  4.9000000000000E-01  1.1943675393076E+00  8.0259491692460E-01
51  5.0000000000000E-01  1.1344291068679E+00  8.7005089360868E-01
52  5.1000000000000E-01  1.0725450977385E+00  9.3713762297738E-01
53  5.2000000000000E-01  1.0089733613354E+00  1.0034973737520E+00
54  5.3000000000000E-01  9.4397520628237E-01  1.0687793942200E+00
55  5.4000000000000E-01  8.7781395991091E-01  1.1326425491473E+00
56  5.5000000000000E-01  8.1075359300568E-01  1.1947576499817E+00
57  5.6000000000000E-01  7.4305742046441E-01  1.2548094554565E+00
58  5.7000000000000E-01  6.7498688598887E-01  1.3124983284879E+00
59  5.8000000000000E-01  6.0680043629819E-01  1.3675415442095E+00
60  5.9000000000000E-01  5.3875248771828E-01  1.4196742528928E+00
61  6.0000000000000E-01  4.7109248542045E-01  1.4686501101397E+00
62  6.1000000000000E-01  4.0406405312334E-01  1.5142415949040E+00
63  6.2000000000000E-01  3.3790422879771E-01  1.5562400433909E+00
64  6.3000000000000E-01  2.7284277988082E-01  1.5944554335297E+00
65  6.4000000000000E-01  2.0910158976776E-01  1.6287159603332E+00
66  6.5000000000000E-01  1.4689410594585E-01  1.6588674469194E+00
67  6.6000000000000E-01  8.6424839110422E-02  1.6847726391622E+00
68  6.7000000000000E-01  2.7888901972784E-02  1.7063104337606E+00
69  6.8000000000000E-01 -2.8528423739499E-02  1.7233750899420E+00
70  6.9000000000000E-01 -8.2652103378357E-02  1.7358754739994E+00
71  7.0000000000000E-01 -1.3431775922645E-01  1.7437343834479E+00
72  7.1000000000000E-01 -1.8337208373271E-01  1.7468879937994E+00
73  7.2000000000000E-01 -2.2967326435590E-01  1.7452854659001E+00
74  7.3000000000000E-01 -2.7309142649615E-01  1.7388887455621E+00
75  7.4000000000000E-01 -3.1350909895849E-01  1.7276725799889E+00
76  7.5000000000000E-01 -3.5082170411860E-01  1.7116247674385E+00
77  7.6000000000000E-01 -3.8493807251042E-01  1.6907466478580E+00
78  7.7000000000000E-01 -4.1578097899547E-01  1.6650538331023E+00
79  7.8000000000000E-01 -4.4328769507623E-01  1.6345771660240E+00
80  7.9000000000000E-01 -4.6741054935401E-01  1.5993638884503E+00
81  8.0000000000000E-01 -4.8811748568122E-01  1.5594789890672E+00
82  8.1000000000000E-01 -5.0539260629116E-01  1.5150066937734E+00
83  8.2000000000000E-01 -5.1923668517703E-01  1.4660520533553E+00
84  8.3000000000000E-01 -5.2966763530194E-01  1.4127425766036E+00
85  8.4000000000000E-01 -5.3672091191206E-01  1.3552298514324E+00
86  8.5000000000000E-01 -5.4044983334858E-01  1.2936910923467E+00
87  8.6000000000000E-01 -5.4092580035221E-01  1.2283305498821E+00
88  8.7000000000000E-01 -5.3823839495880E-01  1.1593807165220E+00
89  8.8000000000000E-01 -5.3249534071619E-01  1.0871032641576E+00
90  8.9000000000000E-01 -5.2382230711795E-01  1.0117896504349E+00
91  9.0000000000000E-01 -5.1236254284425E-01  9.3376133532502E-01
92  9.1000000000000E-01 -4.9827632460552E-01  8.5336955492178E-01
93  9.2000000000000E-01 -4.8174021106911E-01  7.7099460672057E-01
94  9.3000000000000E-01 -4.6294609446922E-01  6.8704460935226E-01
95  9.4000000000000E-01 -4.4210004600065E-01  6.0195370976541E-01
96  9.5000000000000E-01 -4.1942095491038E-01  5.1617972197955E-01
97  9.6000000000000E-01 -3.9513896525264E-01  4.3020119354367E-01
98  9.7000000000000E-01 -3.6949371847827E-01  3.4451390847535E-01
99  9.8000000000000E-01 -3.4273241429807E-01  2.5962684845411E-01
100  9.9000000000000E-01 -3.1510770649831E-01  1.7605764711160E-01
101  1.0000000000000E+00 -2.8687545449866E-01  9.4327585104349E-02
102  1.0100000000000E+00 -2.5829235533045E-01  1.4956185973383E-02
103  1.0200000000000E+00 -2.2961348428161E-01 -6.1544515710136E-02
104  1.0300000000000E+00 -2.0108977561844E-01 -1.3467595200678E-01
105  1.0400000000000E+00 -1.7296547746229E-01 -2.0395915413983E-01
106  1.0500000000000E+00 -1.4547561700149E-01 -2.6894094152698E-01
107  1.0600000000000E+00 -1.1884351369115E-01 -3.2920006331699E-01
108  1.0700000000000E+00 -9.3278378877441E-02 -3.8435318480994E-01
109  1.0800000000000E+00 -6.8973040347528E-02 -4.3406060961947E-01
110  1.0900000000000E+00 -4.6101829616866E-02 -4.7803162914055E-01
111  1.1000000000000E+00 -2.4818668327379E-02 -5.1602939382480E-01
112  1.1100000000000E+00 -5.2553879283972E-03 -5.4787520598336E-01
113  1.1200000000000E+00  1.2479686100133E-02 -5.7345214121070E-01
114  1.1300000000000E+00  2.8302857842630E-02 -5.9270791503813E-01
115  1.1400000000000E+00  4.2155868953842E-02 -6.0565692282905E-01
116  1.1500000000000E+00  5.4006372489986E-02 -6.1238139414796E-01
117  1.1600000000000E+00  6.3848059253655E-02 -6.1303161748915E-01
118  1.1700000000000E+00  7.1700429040895E-02 -6.0782520725413E-01
119  1.1800000000000E+00  7.7608205115384E-02 -5.9704540167684E-01
120  1.1900000000000E+00  8.1640396401483E-02 -5.8103839798654E-01
121  1.2000000000000E+00  8.3889018045582E-02 -5.6020974877447E-01
122  1.2100000000000E+00  8.4467487148288E-02 -5.3501986129569E-01
123  1.2200000000000E+00  8.3508716390802E-02 -5.0597865862620E-01
124  1.2300000000000E+00  8.1162933913117E-02 -4.7363947803744E-01
125  1.2400000000000E+00  7.7595263025514E-02 -4.3859229728089E-01
126  1.2500000000000E+00  7.2983099997997E-02 -4.0145639324108E-01
127  1.2600000000000E+00  6.7513332247573E-02 -3.6287254953324E-01
128  1.2700000000000E+00  6.1379442579092E-02 -3.2349493963531E-01
129  1.2800000000000E+00  5.4778547688850E-02 -2.8398281991832E-01
130  1.2900000000000E+00  4.7908422300885E-02 -2.4499217712091E-01
131  1.3000000000000E+00  4.0964540519544E-02 -2.0716740871182E-01
132  1.3100000000000E+00  3.4137222360176E-02 -1.7113330150758E-01
133  1.3200000000000E+00  2.7606254045963E-02 -1.3747849609516E-01
134  1.3300000000000E+00  2.1532908503463E-02 -1.0673037091066E-01
135  1.3400000000000E+00  1.6040020901729E-02 -7.9294465026937E-02
136  1.3500000000000E+00  1.1233030050810E-02 -5.5518448132349E-02
137  1.3600000000000E+00  7.2172323022868E-03 -3.5747253529152E-02
138  1.3700000000000E+00  4.0642224660015E-03 -2.0222153802808E-02
139  1.3800000000000E+00  1.8132676442912E-03 -9.0862066682799E-03
140  1.3900000000000E+00  4.6436503786746E-04 -2.3493029499710E-03
141  1.4000000000000E+00  5.9605544141399E-06 -3.0512067078295E-05
142  1.4100000000000E+00  2.0287075354679E-06 -1.0355695207227E-05
143  1.4200000000000E+00 -6.6827808044310E-07  3.3915006545420E-06
144  1.43 -0.  0.
145  1.44  0.  0.
146  1.45  0.  0.
147  1.46  0.  0.
148  1.47  0.  0.
149  1.48  0.  0.
150  1.49  0.  0.
151  1.50  0.  0.
152  1.51  0.  0.
153  1.52  0.  0.
154  1.53  0.  0.
155  1.54  0.  0.
156  1.55  0.  0.
157  1.56  0.  0.
158  1.57  0.  0.
159  1.58  0.  0.
160  1.59  0.  0.
161  1.60  0.  0.
162  1.61  0.  0.
163  1.62  0.  0.
164  1.63  0.  0.
165  1.64  0.  0.
166  1.65  0.  0.
167  1.66  0.  0.
168  1.67  0.  0.
169  1.68  0.  0.
170  1.69  0.  0.
171  1.70  0.  0.
172  1.71  0.  0.
173  1.72  0.  0.
174  1.73  0.  0.
175  1.74  0.  0.
176  1.75  0.  0.
177  1.76  0.  0.
178  1.77  0.  0.
179  1.78  0.  0.
180  1.79  0.  0.
181  1.80  0.  0.
182  1.81  0.  0.
183  1.82  0.  0.
184  1.83  0.  0.
185  1.84  0.  0.
186  1.85  0.  0.
187  1.86  0.  0.
188  1.87  0.  0.
189  1.88  0.  0.
190  1.89  0.  0.
191  1.90  0.  0.
192  1.91  0.  0.
193  1.92  0.  0.
194  1.93  0.  0.
195  1.94  0.  0.
196  1.95  0.  0.
197  1.96  0.  0.
198  1.97  0.  0.
199  1.98  0.  0.
200  1.99  0.  0.
201  2.00  0.  0.
202  2.01  0.  0.
203  2.02  0.  0.
204  2.03  0.  0.
205  2.04  0.  0.
206  2.05  0.  0.
207  2.06  0.  0.
208  2.07  0.  0.
209  2.08  0.  0.
210  2.09  0.  0.
211  2.10  0.  0.
212  2.11  0.  0.
213  2.12  0.  0.
214  2.13  0.  0.
215  2.14  0.  0.
216  2.15  0.  0.
217  2.16  0.  0.
218  2.17  0.  0.
219  2.18  0.  0.
220  2.19  0.  0.
221  2.20  0.  0.
222  2.21  0.  0.
223  2.22  0.  0.
224  2.23  0.  0.
225  2.24  0.  0.
226  2.25  0.  0.
227  2.26  0.  0.
228  2.27  0.  0.
229  2.28  0.  0.
230  2.29  0.  0.
231  2.30  0.  0.
232  2.31  0.  0.
233  2.32  0.  0.
234  2.33  0.  0.
235  2.34  0.  0.
236  2.35  0.  0.
237  2.36  0.  0.
238  2.37  0.  0.
239  2.38  0.  0.
240  2.39  0.  0.
241  2.40  0.  0.
242  2.41  0.  0.
243  2.42  0.  0.
244  2.43  0.  0.
245  2.44  0.  0.
246  2.45  0.  0.
247  2.46  0.  0.
248  2.47  0.  0.
249  2.48  0.  0.
250  2.49  0.  0.
251  2.50  0.  0.
252  2.51  0.  0.
253  2.52  0.  0.
254  2.53  0.  0.
255  2.54  0.  0.
256  2.55  0.  0.
257  2.56  0.  0.
258  2.57  0.  0.
259  2.58  0.  0.
260  2.59  0.  0.
261  2.60  0.  0.
262  2.61  0.  0.
263  2.62  0.  0.
264  2.63  0.  0.
265  2.64  0.  0.
266  2.65  0.  0.
267  2.66  0.  0.
268  2.67  0.  0.
269  2.68  0.  0.
270  2.69  0.  0.
271  2.70  0.  0.
272  2.71  0.  0.
273  2.72  0.  0.
274  2.73  0.  0.
275  2.74  0.  0.
276  2.75  0.  0.
277  2.76  0.  0.
278  2.77  0.  0.
279  2.78  0.  0.
280  2.79  0.  0.
281  2.80  0.  0.
282  2.81  0.  0.
283  2.82  0.  0.
284  2.83  0.  0.
285  2.84  0.  0.
286  2.85  0.  0.
287  2.86  0.  0.
288  2.87  0.  0.
289  2.88  0.  0.
290  2.89  0.  0.
291  2.90  0.  0.
292  2.91  0.  0.
293  2.92  0.  0.
294  2.93  0.  0.
295  2.94  0.  0.
296  2.95  0.  0.
297  2.96  0.  0.
298  2.97  0.  0.
299  2.98  0.  0.
300  2.99  0.  0.
301  3.00  0.  0.
302  3.01  0.  0.
303  3.02  0.  0.
304  3.03  0.  0.
305  3.04  0.  0.
306  3.05  0.  0.
307  3.06  0.  0.
308  3.07  0.  0.
309  3.08  0.  0.
310  3.09  0.  0.
311  3.10  0.  0.
312  3.11  0.  0.
313  3.12  0.  0.
314  3.13  0.  0.
315  3.14  0.  0.
316  3.15  0.  0.
317  3.16  0.  0.
318  3.17  0.  0.
319  3.18  0.  0.
320  3.19  0.  0.
321  3.20  0.  0.
322  3.21  0.  0.
323  3.22  0.  0.
324  3.23  0.  0.
325  3.24  0.  0.
326  3.25  0.  0.
327  3.26  0.  0.
328  3.27  0.  0.
329  3.28  0.  0.
330  3.29  0.  0.
331  3.30  0.  0.
332  3.31  0.  0.
333  3.32  0.  0.
334  3.33  0.  0.
335  3.34  0.  0.
336  3.35  0.  0.
337  3.36  0.  0.
338  3.37  0.  0.
339  3.38  0.  0.
340  3.39  0.  0.
341  3.40  0.  0.
342  3.41  0.  0.
343  3.42  0.  0.
344  3.43  0.  0.
345  3.44  0.  0.
346  3.45  0.  0.
347  3.46  0.  0.
348  3.47  0.  0.
349  3.48  0.  0.
350  3.49  0.  0.
351  3.50  0.  0.
352  3.51  0.  0.
353  3.52  0.  0.
354  3.53  0.  0.
355  3.54  0.  0.
356  3.55  0.  0.
357  3.56  0.  0.
358  3.57  0.  0.
359  3.58  0.  0.
360  3.59  0.  0.
361  3.60  0.  0.
362  3.61  0.  0.
363  3.62  0.  0.
364  3.63  0.  0.
365  3.64  0.  0.
366  3.65  0.  0.
367  3.66  0.  0.
368  3.67  0.  0.
369  3.68  0.  0.
370  3.69  0.  0.
371  3.70  0.  0.
372  3.71  0.  0.
373  3.72  0.  0.
374  3.73  0.  0.
375  3.74  0.  0.
376  3.75  0.  0.
377  3.76  0.  0.
378  3.77  0.  0.
379  3.78  0.  0.
380  3.79  0.  0.
381  3.80  0.  0.
382  3.81  0.  0.
383  3.82  0.  0.
384  3.83  0.  0.
385  3.84  0.  0.
386  3.85  0.  0.
387  3.86  0.  0.
388  3.87  0.  0.
389  3.88  0.  0.
390  3.89  0.  0.
391  3.90  0.  0.
392  3.91  0.  0.
393  3.92  0.  0.
394  3.93  0.  0.
395  3.94  0.  0.
396  3.95  0.  0.
397  3.96  0.  0.
398  3.97  0.  0.
399  3.98  0.  0.
400  3.99  0.  0.
401  4.00  0.  0.
402  4.01  0.  0.
403  4.02  0.  0.
404  4.03  0.  0.
405  4.04  0.  0.
406  4.05  0.  0.
407  4.06  0.  0.
408  4.07  0.  0.
409  4.08  0.  0.
410  4.09  0.  0.
411  4.10  0.  0.
412  4.11  0.  0.
413  4.12  0.  0.
414  4.13  0.  0.
415  4.14  0.  0.
416  4.15  0.  0.
417  4.16  0.  0.
418  4.17  0.  0.
419  4.18  0.  0.
420  4.19  0.  0.
421  4.20  0.  0.
422  4.21  0.  0.
423  4.22  0.  0.
424  4.23  0.  0.
425  4.24  0.  0.
426  4.25  0.  0.
427  4.26  0.  0.
428  4.27  0.  0.
429  4.28  0.  0.
430  4.29  0.  0.
431  4.30  0.  0.
432  4.31  0.  0.
433  4.32  0.  0.
434  4.33  0.  0.
435  4.34  0.  0.
436  4.35  0.  0.
437  4.36  0.  0.
438  4.37  0.  0.
439  4.38  0.  0.
440  4.39  0.  0.
441  4.40  0.  0.
442  4.41  0.  0.
443  4.42  0.  0.
444  4.43  0.  0.
445  4.44  0.  0.
446  4.45  0.  0.
447  4.46  0.  0.
448  4.47  0.  0.
449  4.48  0.  0.
450  4.49  0.  0.
451  4.50  0.  0.
452  4.51  0.  0.
453  4.52  0.  0.
454  4.53  0.  0.
455  4.54  0.  0.
456  4.55  0.  0.
457  4.56  0.  0.
458  4.57  0.  0.
459  4.58  0.  0.
460  4.59  0.  0.
461  4.60  0.  0.
462  4.61  0.  0.
463  4.62  0.  0.
464  4.63  0.  0.
465  4.64  0.  0.
466  4.65  0.  0.
467  4.66  0.  0.
468  4.67  0.  0.
469  4.68  0.  0.
470  4.69  0.  0.
471  4.70  0.  0.
472  4.71  0.  0.
473  4.72  0.  0.
474  4.73  0.  0.
475  4.74  0.  0.
476  4.75  0.  0.
477  4.76  0.  0.
478  4.77  0.  0.
479  4.78  0.  0.
480  4.79  0.  0.
481  4.80  0.  0.
482  4.81  0.  0.
483  4.82  0.  0.
484  4.83  0.  0.
485  4.84  0.  0.
486  4.85  0.  0.
487  4.86  0.  0.
488  4.87  0.  0.
489  4.88  0.  0.
490  4.89  0.  0.
491  4.90  0.  0.
492  4.91  0.  0.
493  4.92  0.  0.
494  4.93  0.  0.
495  4.94  0.  0.
496  4.95  0.  0.
497  4.96  0.  0.
498  4.97  0.  0.
499  4.98  0.  0.
500  4.99  0.  0.
501  5.00  0.  0.
502  5.01  0.  0.
503  5.02  0.  0.
504  5.03  0.  0.
505  5.04  0.  0.
506  5.05  0.  0.
507  5.06  0.  0.
508  5.07  0.  0.
509  5.08  0.  0.
510  5.09  0.  0.
511  5.10  0.  0.
512  5.11  0.  0.
513  5.12  0.  0.
514  5.13  0.  0.
515  5.14  0.  0.
516  5.15  0.  0.
517  5.16  0.  0.
518  5.17  0.  0.
519  5.18  0.  0.
520  5.19  0.  0.
521  5.20  0.  0.
522  5.21  0.  0.
523  5.22  0.  0.
524  5.23  0.  0.
525  5.24  0.  0.
526  5.25  0.  0.
527  5.26  0.  0.
528  5.27  0.  0.
529  5.28  0.  0.
530  5.29  0.  0.
531  5.30  0.  0.
532  5.31  0.  0.
533  5.32  0.  0.
534  5.33  0.  0.
535  5.34  0.  0.
536  5.35  0.  0.
537  5.36  0.  0.
538  5.37  0.  0.
539  5.38  0.  0.
540  5.39  0.  0.
541  5.40  0.  0.
542  5.41  0.  0.
543  5.42  0.  0.
544  5.43  0.  0.
545  5.44  0.  0.
546  5.45  0.  0.
547  5.46  0.  0.
548  5.47  0.  0.
549  5.48  0.  0.
550  5.49  0.  0.
551  5.50  0.  0.
552  5.51  0.  0.
553  5.52  0.  0.
554  5.53  0.  0.
555  5.54  0.  0.
556  5.55  0.  0.
557  5.56  0.  0.
558  5.57  0.  0.
559  5.58  0.  0.
560  5.59  0.  0.
561  5.60  0.  0.
562  5.61  0.  0.
563  5.62  0.  0.
564  5.63  0.  0.
565  5.64  0.  0.
566  5.65  0.  0.
567  5.66  0.  0.
568  5.67  0.  0.
569  5.68  0.  0.
570  5.69  0.  0.
571  5.70  0.  0.
572  5.71  0.  0.
573  5.72  0.  0.
574  5.73  0.  0.
575  5.74  0.  0.
576  5.75  0.  0.
577  5.76  0.  0.
578  5.77  0.  0.
579  5.78  0.  0.
580  5.79  0.  0.
581  5.80  0.  0.
582  5.81  0.  0.
583  5.82  0.  0.
584  5.83  0.  0.
585  5.84  0.  0.
586  5.85  0.  0.
587  5.86  0.  0.
588  5.87  0.  0.
589  5.88  0.  0.
590  5.89  0.  0.
591  5.90  0.  0.
592  5.91  0.  0.
593  5.92  0.  0.
594  5.93  0.  0.
595  5.94  0.  0.
596  5.95  0.  0.
597  5.96  0.  0.
598  5.97  0.  0.
599  5.98  0.  0.
600  5.99  0.  0.
1                         1.4235668791566E+01  1.5865749003520E+00
1  0.0000000000000E+00 -3.3879793415181E-09  1.0983526615993E-08
2  1.0000000000000E-02  1.5916934583142E-03 -6.5434753901558E-04
3  2.0000000000000E-02  6.3634694019529E-03 -2.6204763486228E-03
4  3.0000000000000E-02  1.4305350743659E-02 -5.9074094600484E-03
5  4.0000000000000E-02  2.5400498469977E-02 -1.0529406975085E-02
6  5.0000000000000E-02  3.9624903169926E-02 -1.6504822512741E-02
7  6.0000000000000E-02  5.6946967644958E-02 -2.3854549342315E-02
8  7.0000000000000E-02  7.7326994627535E-02 -3.2600101842495E-02
9  8.0000000000000E-02  1.0071659702371E-01 -4.2761388909591E-02
10  9.0000000000000E-02  1.2705805103908E-01 -5.4354245450406E-02
11  1.0000000000000E-01  1.5628361497156E-01 -6.7387795885847E-02
12  1.1000000000000E-01  1.8831483829547E-01 -8.1861729453466E-02
13  1.2000000000000E-01  2.2306188687009E-01 -9.7763570871418E-02
14  1.3000000000000E-01  2.6042291064934E-01 -1.1506603150693E-01
15  1.4000000000000E-01  3.0028348012995E-01 -1.3372452552756E-01
16  1.5000000000000E-01  3.4251611695366E-01 -1.5367493260958E-01
17  1.6000000000000E-01  3.8697994259115E-01 -1.7483168369641E-01
18  1.7000000000000E-01  4.3352046691462E-01 -1.9708623915958E-01
19  1.8000000000000E-01  4.8196953576193E-01 -2.2030601968536E-01
20  1.9000000000000E-01  5.3214545337000E-01 -2.4433383951161E-01
21  2.0000000000000E-01  5.8385329188776E-01 -2.6898787953384E-01
22  2.1000000000000E-01  6.3688539615453E-01 -2.9406222458775E-01
23  2.2000000000000E-01  6.9102208764786E-01 -3.1932797522591E-01
24  2.3000000000000E-01  7.4603256706742E-01 -3.4453492989216E-01
25  2.4000000000000E-01  8.0167601053806E-01 -3.6941381892121E-01
26  2.5000000000000E-01  8.5770284999380E-01 -3.9367905762311E-01
27  2.6000000000000E-01  9.1385622405563E-01 -4.1703197221454E-01
28  2.7000000000000E-01  9.6987358174247E-01 -4.3916443988151E-01
29  2.8000000000000E-01  1.0254884177561E+00 -4.5976287312541E-01
30  2.9000000000000E-01  1.0804321149465E+00 -4.7851246905114E-01
31  3.0000000000000E-01  1.1344358669711E+00 -4.9510163665674E-01
32  3.1000000000000E-01  1.1872326521782E+00 -5.0922650968696E-01
33  3.2000000000000E-01  1.2385592284167E+00 -5.2059544937555E-01
34  3.3000000000000E-01  1.2881581178395E+00 -5.2893344052368E-01
35  3.4000000000000E-01  1.3357795508448E+00 -5.3398628588609E-01
36  3.5000000000000E-01  1.3811833390787E+00 -5.3552450774339E-01
37  3.6000000000000E-01  1.4241406489005E+00 -5.3334687174858E-01
38  3.7000000000000E-01  1.4644356488356E+00 -5.2728345650851E-01
39  3.8000000000000E-01  1.5018670072761E+00 -5.1719820270113E-01
40  3.9000000000000E-01  1.5362492199497E+00 -5.0299088758936E-01
41  4.0000000000000E-01  1.5674137504011E+00 -4.8459848427697E-01
42  4.1000000000000E-01  1.5952099708059E+00 -4.6199587962923E-01
43  4.2000000000000E-01  1.6195058947747E+00 -4.3519594008488E-01
44  4.3000000000000E-01  1.6401886982921E+00 -4.0424893023015E-01
45  4.4000000000000E-01  1.6571650294511E+00 -3.6924130459047E-01
46  4.5000000000000E-01  1.6703611120865E+00 -3.3029390821904E-01
47  4.6000000000000E-01  1.6797226526517E+00 -2.8755963592835E-01
48  4.7000000000000E-01  1.6852145636277E+00 -2.4122061304622E-01
49  4.8000000000000E-01  1.6868205202887E+00 -1.9148497203151E-01
50  4.9000000000000E-01  1.6845423706916E+00 -1.3858330884611E-01
51  5.0000000000000E-01  1.6783994212219E+00 -8.2764910382722E-02
52  5.1000000000000E-01  1.6684276218582E+00 -2.4293849279099E-02
53  5.2000000000000E-01  1.6546786764598E+00  3.6554955043628E-02
54  5.3000000000000E-01  1.6372191038073E+00  9.9499610389395E-02
55  5.4000000000000E-01  1.6161292748268E+00  1.6425496485781E-01
56  5.5000000000000E-01  1.5915024504140E+00  2.3053606832741E-01
57  5.6000000000000E-01  1.5634438425630E+00  2.9806129951318E-01
58  5.7000000000000E-01  1.5320697191614E+00  3.6655508586419E-01
59  5.8000000000000E-01  1.4975065698846E+00  4.3575015572148E-01
60  5.9000000000000E-01  1.4598903472003E+00  5.0538927605863E-01
61  6.0000000000000E-01  1.4193657926747E+00  5.7522644442508E-01
62  6.1000000000000E-01  1.3760858546539E+00  6.4502752001124E-01
63  6.2000000000000E-01  1.3302111991052E+00  7.1457029562847E-01
64  6.3000000000000E-01  1.2819098110618E+00  7.8364402939595E-01
65  6.4000000000000E-01  1.2313566798451E+00  8.5204847159329E-01
66  6.5000000000000E-01  1.1787335571730E+00  9.1959243801186E-01
67  6.6000000000000E-01  1.1242287735198E+00  9.8609199577696E-01
68  6.7000000000000E-01  1.0680370947924E+00  1.0513683405949E+00
69  6.8000000000000E-01  1.0103595986296E+00  1.1152454553235E+00
70  6.9000000000000E-01  9.5140354751450E-01  1.1775476483309E+00
71  7.0000000000000E-01  8.9138223448914E-01  1.2380970760226E+00
72  7.1000000000000E-01  8.3051477663204E-01  1.2967113569573E+00
73  7.2000000000000E-01  7.6902583164566E-01  1.3532013850053E+00
74  7.3000000000000E-01  7.0714521391608E-01  1.4073694459565E+00
75  7.4000000000000E-01  6.4510738824703E-01  1.4590077358727E+00
76  7.5000000000000E-01  5.8315082210610E-01  1.5078973704013E+00
77  7.6000000000000E-01  5.2151718060200E-01  1.5538079623972E+00
78  7.7000000000000E-01  4.6045035246536E-01  1.5964978307878E+00
79  7.8000000000000E-01  4.0019529993939E-01  1.6357148869910E+00
80  7.9000000000000E-01  3.4099673058956E-01  1.6711982267504E+00
81  8.0000000000000E-01  2.8309759448754E-01  1.7026804354229E+00
82  8.1000000000000E-01  2.2673741587378E-01  1.7298905940500E+00
83  8.2000000000000E-01  1.7215047410836E-01  1.7525579524732E+00
84  8.3000000000000E-01  1.1956385432560E-01  1.7704162148821E+00
85  8.4000000000000E-01  6.9195393559715E-02  1.7832083630552E+00
86  8.5000000000000E-01  2.1251553053187E-02  1.7906919237193E+00
87  8.6000000000000E-01 -2.4074748151336E-02  1.7926445694454E+00
88  8.7000000000000E-01 -6.6606299535979E-02  1.7888699278047E+00
89  8.8000000000000E-01 -1.0618372366542E-01  1.7792034615792E+00
90  8.9000000000000E-01 -1.4266751532663E-01  1.7635182740304E+00
91  9.0000000000000E-01 -1.7593995063585E-01  1.7417306879072E+00
92  9.1000000000000E-01 -2.0590682159647E-01  1.7138054452286E+00
93  9.2000000000000E-01 -2.3249895278872E-01  1.6797603770745E+00
94  9.3000000000000E-01 -2.5567345917428E-01  1.6396703986873E+00
95  9.4000000000000E-01 -2.7541470738886E-01  1.5936706950972E+00
96  9.5000000000000E-01 -2.9173494732331E-01  1.5419589760722E+00
97  9.6000000000000E-01 -3.0467458618600E-01  1.4847966962334E+00
98  9.7000000000000E-01 -3.1430208349382E-01  1.4225091563243E+00
99  9.8000000000000E-01 -3.2071345243081E-01  1.3554844244581E+00
100  9.9000000000000E-01 -3.2403136059616E-01  1.2841710412032E+00
101  1.0000000000000E+00 -3.2440383117273E-01  1.2090744990391E+00
102  1.0100000000000E+00 -3.2200255380325E-01  1.1307525144097E+00
103  1.0200000000000E+00 -3.1702082276873E-01  1.0498091386538E+00
104  1.0300000000000E+00 -3.0967112824145E-01  9.6688778187005E-01
105  1.0400000000000E+00 -3.0018243421938E-01  8.8266325054919E-01
106  1.0500000000000E+00 -2.8879718405082E-01  7.9783292491908E-01
107  1.0600000000000E+00 -2.7576808105950E-01  7.1310722480924E-01
108  1.0700000000000E+00 -2.6135469748016E-01  6.2919953276019E-01
109  1.0800000000000E+00 -2.4581996958557E-01  5.4681575962189E-01
110  1.0900000000000E+00 -2.2942664038323E-01  4.6664375050091E-01
111  1.1000000000000E+00 -2.1243371347629E-01  3.8934273724030E-01
112  1.1100000000000E+00 -1.9509298254689E-01  3.1553304739511E-01
113  1.1200000000000E+00 -1.7764570037955E-01  2.4578627869967E-01
114  1.1300000000000E+00 -1.6031944937753E-01  1.8061614223493E-01
115  1.1400000000000E+00 -1.4332527217171E-01  1.2047016699194E-01
116  1.1500000000000E+00 -1.2685511619903E-01  6.5722443353099E-02
117  1.1600000000000E+00 -1.1107964016993E-01  1.6667563609031E-02
118  1.1700000000000E+00 -9.6146423192705E-02 -2.6484105864156E-02
119  1.1800000000000E+00 -8.2178609227184E-02 -6.3609712894576E-02
120  1.1900000000000E+00 -6.9274010526257E-02 -9.4675690320322E-02
121  1.2000000000000E+00 -5.7504684160264E-02 -1.1973796321244E-01
122  1.2100000000000E+00 -4.6916985623445E-02 -1.3894058013478E-01
123  1.2200000000000E+00 -3.7532093284492E-02 -1.5251279032642E-01
124  1.2300000000000E+00 -2.9346987189908E-02 -1.6076462307433E-01
125  1.2400000000000E+00 -2.2335855697592E-02 -1.6408105923435E-01
126  1.2500000000000E+00 -1.6451893927672E-02 -1.6291491677121E-01
127  1.2600000000000E+00 -1.1629449140549E-02 -1.5777860207153E-01
128  1.2700000000000E+00 -7.7864602238768E-03 -1.4923490549494E-01
129  1.2800000000000E+00 -4.8271316309786E-03 -1.3788704268580E-01
130  1.2900000000000E+00 -2.6447754443905E-03 -1.2436816677478E-01
131  1.3000000000000E+00 -1.1247655599649E-03 -1.0933052551826E-01
132  1.3100000000000E+00 -1.4750430579578E-04 -9.3434620635673E-02
133  1.3200000000000E+00  4.0677503959122E-04 -7.7330166837190E-02
134  1.3300000000000E+00  6.5117666755391E-04 -6.1628368813486E-02
135  1.3400000000000E+00  6.7381164447253E-04 -4.6849122530494E-02
136  1.3500000000000E+00  5.5373925159872E-04 -3.3459481707985E-02
137  1.3600000000000E+00  3.7657559440386E-04 -2.1913695180303E-02
138  1.3700000000000E+00  2.0543945700238E-04 -1.2575870136883E-02
139  1.3800000000000E+00  8.0084445963539E-05 -5.7178857939686E-03
140  1.3900000000000E+00  1.5264833463626E-05 -1.4921858393754E-03
141  1.4000000000000E+00  9.0742724752515E-08 -1.9481524591370E-05
142  1.4100000000000E+00  4.4366035366909E-08 -6.6244260494657E-06
143  1.4200000000000E+00 -1.9497840117229E-08  2.1594244616868E-06
144  1.43 -0. -0.
145  1.44  0.  0.
146  1.45  0.  0.
147  1.46  0.  0.
148  1.47  0.  0.
149  1.48  0.  0.
150  1.49  0.  0.
151  1.50  0.  0.
152  1.51  0.  0.
153  1.52  0.  0.
154  1.53  0.  0.
155  1.54  0.  0.
156  1.55  0.  0.
157  1.56  0.  0.
158  1.57  0.  0.
159  1.58  0.  0.
160  1.59  0.  0.
161  1.60  0.  0.
162  1.61  0.  0.
163  1.62  0.  0.
164  1.63  0.  0.
165  1.64  0.  0.
166  1.65  0.  0.
167  1.66  0.  0.
168  1.67  0.  0.
169  1.68  0.  0.
170  1.69  0.  0.
171  1.70  0.  0.
172  1.71  0.  0.
173  1.72  0.  0.
174  1.73  0.  0.
175  1.74  0.  0.
176  1.75  0.  0.
177  1.76  0.  0.
178  1.77  0.  0.
179  1.78  0.  0.
180  1.79  0.  0.
181  1.80  0.  0.
182  1.81  0.  0.
183  1.82  0.  0.
184  1.83  0.  0.
185  1.84  0.  0.
186  1.85  0.  0.
187  1.86  0.  0.
188  1.87  0.  0.
189  1.88  0.  0.
190  1.89  0.  0.
191  1.90  0.  0.
192  1.91  0.  0.
193  1.92  0.  0.
194  1.93  0.  0.
195  1.94  0.  0.
196  1.95  0.  0.
197  1.96  0.  0.
198  1.97  0.  0.
199  1.98  0.  0.
200  1.99  0.  0.
201  2.00  0.  0.
202  2.01  0.  0.
203  2.02  0.  0.
204  2.03  0.  0.
205  2.04  0.  0.
206  2.05  0.  0.
207  2.06  0.  0.
208  2.07  0.  0.
209  2.08  0.  0.
210  2.09  0.  0.
211  2.10  0.  0.
212  2.11  0.  0.
213  2.12  0.  0.
214  2.13  0.  0.
215  2.14  0.  0.
216  2.15  0.  0.
217  2.16  0.  0.
218  2.17  0.  0.
219  2.18  0.  0.
220  2.19  0.  0.
221  2.20  0.  0.
222  2.21  0.  0.
223  2.22  0.  0.
224  2.23  0.  0.
225  2.24  0.  0.
226  2.25  0.  0.
227  2.26  0.  0.
228  2.27  0.  0.
229  2.28  0.  0.
230  2.29  0.  0.
231  2.30  0.  0.
232  2.31  0.  0.
233  2.32  0.  0.
234  2.33  0.  0.
235  2.34  0.  0.
236  2.35  0.  0.
237  2.36  0.  0.
238  2.37  0.  0.
239  2.38  0.  0.
240  2.39  0.  0.
241  2.40  0.  0.
242  2.41  0.  0.
243  2.42  0.  0.
244  2.43  0.  0.
245  2.44  0.  0.
246  2.45  0.  0.
247  2.46  0.  0.
248  2.47  0.  0.
249  2.48  0.  0.
250  2.49  0.  0.
251  2.50  0.  0.
252  2.51  0.  0.
253  2.52  0.  0.
254  2.53  0.  0.
255  2.54  0.  0.
256  2.55  0.  0.
257  2.56  0.  0.
258  2.57  0.  0.
259  2.58  0.  0.
260  2.59  0.  0.
261  2.60  0.  0.
262  2.61  0.  0.
263  2.62  0.  0.
264  2.63  0.  0.
265  2.64  0.  0.
266  2.65  0.  0.
267  2.66  0.  0.
268  2.67  0.  0.
269  2.68  0.  0.
270  2.69  0.  0.
271  2.70  0.  0.
272  2.71  0.  0.
273  2.72  0.  0.
274  2.73  0.  0.
275  2.74  0.  0.