Ts    ONCVPSP-4.0.1  r_core=   1.60713   1.60713   1.80058   1.60713
117.0000     25.0000      220206    zatom,zion,pspd
8      11   3     4   600     0    pspcod,pspxc,lmax,lloc,mmax,r2well
5.99000000  5.00000000  0.00000000    rchrg fchrg qchrg
2     2     2     1     0    nproj
1     1           extension_switch
0                         6.9707975647160E+00 -7.7761960945983E-01
1  0.0000000000000E+00  3.3367575369425E-10  7.2337656698007E-10
2  1.0000000000000E-02  7.6672648214216E-02  1.3451908658547E-02
3  2.0000000000000E-02  1.5317201433422E-01  2.6936205480388E-02
4  3.0000000000000E-02  2.2932503656962E-01  4.0484649743890E-02
5  4.0000000000000E-02  3.0495909763215E-01  5.4127754048342E-02
6  5.0000000000000E-02  3.7990225663566E-01  6.7894188512780E-02
7  6.0000000000000E-02  4.5398349233248E-01  8.1810217495984E-02
8  7.0000000000000E-02  5.2703296106541E-01  9.5899178812551E-02
9  8.0000000000000E-02  5.9888227248068E-01  1.1018101469662E-01
10  9.0000000000000E-02  6.6936478564135E-01  1.2467186288332E-01
11  1.0000000000000E-01  7.3831592770849E-01  1.3938371515310E-01
12  1.1000000000000E-01  8.0557353682846E-01  1.5432414953269E-01
13  1.2000000000000E-01  8.7097823028669E-01  1.6949614108754E-01
14  1.3000000000000E-01  9.3437379837272E-01  1.8489795489573E-01
15  1.4000000000000E-01  9.9560762375751E-01  2.0052312338359E-01
16  1.5000000000000E-01  1.0545311255240E+00  2.1636050875414E-01
17  1.6000000000000E-01  1.1110002263270E+00  2.3239444977297E-01
18  1.7000000000000E-01  1.1648758405006E+00  2.4860499071869E-01
19  1.8000000000000E-01  1.2160243802912E+00  2.6496818887985E-01
20  1.9000000000000E-01  1.2643182767858E+00  2.8145649561178E-01
21  2.0000000000000E-01  1.3096365115346E+00  2.9803920467853E-01
22  2.1000000000000E-01  1.3518651543519E+00  3.1468296041777E-01
23  2.2000000000000E-01  1.3908979023208E+00  3.3135231720171E-01
24  2.3000000000000E-01  1.4266366146427E+00  3.4801034074221E-01
25  2.4000000000000E-01  1.4589918376611E+00  3.6461924101943E-01
26  2.5000000000000E-01  1.4878833141646E+00  3.8114102601448E-01
27  2.6000000000000E-01  1.5132404709385E+00  3.9753816500788E-01
28  2.7000000000000E-01  1.5350028784859E+00  4.1377424997497E-01
29  2.8000000000000E-01  1.5531206768934E+00  4.2981464357195E-01
30  2.9000000000000E-01  1.5675549619591E+00  4.4562710236263E-01
31  3.0000000000000E-01  1.5782781259404E+00  4.6118236428522E-01
32  3.1000000000000E-01  1.5852741476108E+00  4.7645468989523E-01
33  3.2000000000000E-01  1.5885388267335E+00  4.9142234763688E-01
34  3.3000000000000E-01  1.5880799585604E+00  5.0606803428010E-01
35  3.4000000000000E-01  1.5839174445432E+00  5.2037922269944E-01
36  3.5000000000000E-01  1.5760833360860E+00  5.3434843034812E-01
37  3.6000000000000E-01  1.5646218088735E+00  5.4797340307649E-01
38  3.7000000000000E-01  1.5495890660581E+00  5.6125721033786E-01
39  3.8000000000000E-01  1.5310531693772E+00  5.7420824929312E-01
40  3.9000000000000E-01  1.5090937980857E+00  5.8684015684536E-01
41  4.0000000000000E-01  1.4838019364139E+00  5.9917163018066E-01
42  4.1000000000000E-01  1.4552794910880E+00  6.1122615793608E-01
43  4.2000000000000E-01  1.4236388412638E+00  6.2303166563519E-01
44  4.3000000000000E-01  1.3890023240156E+00  6.3462008049849E-01
45  4.4000000000000E-01  1.3515016592741E+00  6.4602682212702E-01
46  4.5000000000000E-01  1.3112773188113E+00  6.5729022684784E-01
47  4.6000000000000E-01  1.2684778445176E+00  6.6845091467786E-01
48  4.7000000000000E-01  1.2232591217903E+00  6.7955110888729E-01
49  4.8000000000000E-01  1.1757836143512E+00  6.9063391900771E-01
50  4.9000000000000E-01  1.1262195672225E+00  7.0174259881669E-01
51  5.0000000000000E-01  1.0747401849096E+00  7.1291979132872E-01
52  5.1000000000000E-01  1.0215227920600E+00  7.2420677312090E-01
53  5.2000000000000E-01  9.6674798398959E-01  7.3564271041537E-01
54  5.3000000000000E-01  9.1059877448568E-01  7.4726393922558E-01
55  5.4000000000000E-01  8.5325974821051E-01  7.5910328155130E-01
56  5.5000000000000E-01  7.9491622484501E-01  7.7118940908095E-01
57  5.6000000000000E-01  7.3575344182808E-01  7.8354626513761E-01
58  5.7000000000000E-01  6.7595576216966E-01  7.9619255469744E-01
59  5.8000000000000E-01  6.1570591335252E-01  8.0914131123012E-01
60  5.9000000000000E-01  5.5518426279438E-01  8.2239954787756E-01
61  6.0000000000000E-01  4.9456813472883E-01  8.3596799911935E-01
62  6.1000000000000E-01  4.3403117269007E-01  8.4984095759275E-01
63  6.2000000000000E-01  3.7374275106497E-01  8.6400620916678E-01
64  6.3000000000000E-01  3.1386743841655E-01  8.7844506773900E-01
65  6.4000000000000E-01  2.5456451450037E-01  8.9313250955788E-01
66  6.5000000000000E-01  1.9598754210117E-01  9.0803740520052E-01
67  6.6000000000000E-01  1.3828399402476E-01  9.2312284568431E-01
68  6.7000000000000E-01  8.1594934803938E-02  9.3834655758850E-01
69  6.8000000000000E-01  2.6054755928209E-02  9.5366140053748E-01
70  6.9000000000000E-01 -2.8209037300585E-02  9.6901593897573E-01
71  7.0000000000000E-01 -8.1075989839997E-02  9.8435507887274E-01
72  7.1000000000000E-01 -1.3243281505158E-01  9.9962075885526E-01
73  7.2000000000000E-01 -1.8217347058291E-01  1.0147526842967E+00
74  7.3000000000000E-01 -2.3019919608895E-01  1.0296890921158E+00
75  7.4000000000000E-01 -2.7641851724363E-01  1.0443675334655E+00
76  7.5000000000000E-01 -3.2074722074694E-01  1.0587256611373E+00
77  7.6000000000000E-01 -3.6310830518933E-01  1.0727020083755E+00
78  7.7000000000000E-01 -4.0343191269129E-01  1.0862367458987E+00
79  7.8000000000000E-01 -4.4165524619167E-01  1.0992724042480E+00
80  7.9000000000000E-01 -4.7772247711431E-01  1.1117545491416E+00
81  8.0000000000000E-01 -5.1158464790295E-01  1.1236323982855E+00
82  8.1000000000000E-01 -5.4319957358352E-01  1.1348593690684E+00
83  8.2000000000000E-01 -5.7253174609770E-01  1.1453935477446E+00
84  8.3000000000000E-01 -5.9955224466011E-01  1.1551980720506E+00
85  8.4000000000000E-01 -6.2423865483341E-01  1.1642414207017E+00
86  8.5000000000000E-01 -6.4657499840220E-01  1.1724976048389E+00
87  8.6000000000000E-01 -6.6655167546887E-01  1.1799462582255E+00
88  8.7000000000000E-01 -6.8416541950703E-01  1.1865726247907E+00
89  8.8000000000000E-01 -6.9941926540288E-01  1.1923674439596E+00
90  8.9000000000000E-01 -7.1232252980688E-01  1.1973267360598E+00
91  9.0000000000000E-01 -7.2289080242149E-01  1.2014514919282E+00
92  9.1000000000000E-01 -7.3114594617927E-01  1.2047472726149E+00
93  9.2000000000000E-01 -7.3711610363383E-01  1.2072237267773E+00
94  9.3000000000000E-01 -7.4083570630698E-01  1.2088940349319E+00
95  9.4000000000000E-01 -7.4234548322138E-01  1.2097742911690E+00
96  9.5000000000000E-01 -7.4169246441119E-01  1.2098828341931E+00
97  9.6000000000000E-01 -7.3892997485303E-01  1.2092395406290E+00
98  9.7000000000000E-01 -7.3411761400562E-01  1.2078650943799E+00
99  9.8000000000000E-01 -7.2732121599557E-01  1.2057802464512E+00
100  9.9000000000000E-01 -7.1861278544442E-01  1.2030050800257E+00
101  1.0000000000000E+00 -7.0807040400163E-01  1.1995582956957E+00
102  1.0100000000000E+00 -6.9577810283196E-01  1.1954565316147E+00
103  1.0200000000000E+00 -6.8182569660152E-01  1.1907137329261E+00
104  1.0300000000000E+00 -6.6630857491433E-01  1.1853405841620E+00
105  1.0400000000000E+00 -6.4932744766407E-01  1.1793440173863E+00
106  1.0500000000000E+00 -6.3098804137738E-01  1.1727268077063E+00
107  1.0600000000000E+00 -6.1140074432853E-01  1.1654872663910E+00
108  1.0700000000000E+00 -5.9068019898845E-01  1.1576190402607E+00
109  1.0800000000000E+00 -5.6894484122165E-01  1.1491110242478E+00
110  1.0900000000000E+00 -5.4631638655273E-01  1.1399473921212E+00
111  1.1000000000000E+00 -5.2291926476794E-01  1.1301077483352E+00
112  1.1100000000000E+00 -4.9888000509055E-01  1.1195674018445E+00
113  1.1200000000000E+00 -4.7432657514420E-01  1.1082977605566E+00
114  1.1300000000000E+00 -4.4938767788980E-01  1.0962668429009E+00
115  1.1400000000000E+00 -4.2419201166091E-01  1.0834399008286E+00
116  1.1500000000000E+00 -3.9886749932327E-01  1.0697801464408E+00
117  1.1600000000000E+00 -3.7354049341870E-01  1.0552495724251E+00
118  1.1700000000000E+00 -3.4833496491646E-01  1.0398098545867E+00
119  1.1800000000000E+00 -3.2337168386061E-01  1.0234233230344E+00
120  1.1900000000000E+00 -2.9876740076611E-01  1.0060539870420E+00
121  1.2000000000000E+00 -2.7463403805713E-01  9.8766859729331E-01
122  1.2100000000000E+00 -2.5107790115591E-01  9.6823772815324E-01
123  1.2200000000000E+00 -2.2819891900438E-01  9.4773686180606E-01
124  1.2300000000000E+00 -2.0608992383071E-01  9.2614745559321E-01
125  1.2400000000000E+00 -1.8483597985164E-01  9.0345797366748E-01
126  1.2500000000000E+00 -1.6451377033043E-01  8.7966486417358E-01
127  1.2600000000000E+00 -1.4519105198469E-01  8.5477346356833E-01
128  1.2700000000000E+00 -1.2692618516468E-01  8.2879881040600E-01
129  1.2800000000000E+00 -1.0976774750846E-01  8.0176635191988E-01
130  1.2900000000000E+00 -9.3754237923640E-02  7.7371252803638E-01
131  1.3000000000000E+00 -7.8913876766414E-02  7.4468521902772E-01
132  1.3100000000000E+00 -6.5264506999306E-02  7.1474404482307E-01
133  1.3200000000000E+00 -5.2813599910332E-02  6.8396050605090E-01
134  1.3300000000000E+00 -4.1558367702103E-02  6.5241795911908E-01
135  1.3400000000000E+00 -3.1485983916466E-02  6.2021142003742E-01
136  1.3500000000000E+00 -2.2573911271319E-02  5.8744719420839E-01
137  1.3600000000000E+00 -1.4790335065818E-02  5.5424233202567E-01
138  1.3700000000000E+00 -8.0946988897611E-03  5.2072391276923E-01
139  1.3800000000000E+00 -2.4383379643000E-03  4.8702816194250E-01
140  1.3900000000000E+00  2.2347959298700E-03  4.5329940981412E-01
141  1.4000000000000E+00  5.9873252982517E-03  4.1968890147022E-01
142  1.4100000000000E+00  8.8875621468712E-03  3.8635347109328E-01
143  1.4200000000000E+00  1.1008557301666E-02  3.5345409544405E-01
144  1.4300000000000E+00  1.2427094590356E-02  3.2115434357607E-01
145  1.4400000000000E+00  1.3222641538478E-02  2.8961874164377E-01
146  1.4500000000000E+00  1.3476268974039E-02  2.5901107322661E-01
147  1.4600000000000E+00  1.3269552519061E-02  2.2949263686481E-01
148  1.4700000000000E+00  1.2683469360294E-02  2.0122048346549E-01
149  1.4800000000000E+00  1.1797303925854E-02  1.7434565686971E-01
150  1.4900000000000E+00  1.0687576145857E-02  1.4901146116212E-01
151  1.5000000000000E+00  9.4270070140910E-03  1.2535178530400E-01
152  1.5100000000000E+00  8.0835217099385E-03  1.0348943335286E-01
153  1.5200000000000E+00  6.7193669952565E-03  8.3534830529355E-02
154  1.5300000000000E+00  5.3899113286113E-03  6.5582679613237E-02
155  1.5400000000000E+00  4.1415399496078E-03  4.9701224815100E-02
156  1.5500000000000E+00  3.0153837241104E-03  3.5957444842993E-02
157  1.5600000000000E+00  2.0447276676103E-03  2.4407031677435E-02
158  1.5700000000000E+00  1.2531693395618E-03  1.5085355443437E-02
159  1.5800000000000E+00  6.5460592431244E-04  8.0086799378317E-03
160  1.5900000000000E+00  2.5223959806398E-04  3.1618213952469E-03
161  1.6000000000000E+00  4.3943256297599E-05  5.7000689428710E-04
162  1.6100000000000E+00 -3.4705316403164E-06 -4.6215883143854E-05
163  1.6200000000000E+00  1.0411598163482E-06  1.3667295723237E-05
164  1.63 -0. -0.
165  1.64 -0. -0.
166  1.65  0.  0.
167  1.66  0.  0.
168  1.67  0.  0.
169  1.68  0.  0.
170  1.69  0.  0.
171  1.70  0.  0.
172  1.71  0.  0.
173  1.72  0.  0.
174  1.73  0.  0.
175  1.74  0.  0.
176  1.75  0.  0.
177  1.76  0.  0.
178  1.77  0.  0.
179  1.78  0.  0.
180  1.79  0.  0.
181  1.80  0.  0.
182  1.81  0.  0.
183  1.82  0.  0.
184  1.83  0.  0.
185  1.84  0.  0.
186  1.85  0.  0.
187  1.86  0.  0.
188  1.87  0.  0.
189  1.88  0.  0.
190  1.89  0.  0.
191  1.90  0.  0.
192  1.91  0.  0.
193  1.92  0.  0.
194  1.93  0.  0.
195  1.94  0.  0.
196  1.95  0.  0.
197  1.96  0.  0.
198  1.97  0.  0.
199  1.98  0.  0.
200  1.99  0.  0.
201  2.00  0.  0.
202  2.01  0.  0.
203  2.02  0.  0.
204  2.03  0.  0.
205  2.04  0.  0.
206  2.05  0.  0.
207  2.06  0.  0.
208  2.07  0.  0.
209  2.08  0.  0.
210  2.09  0.  0.
211  2.10  0.  0.
212  2.11  0.  0.
213  2.12  0.  0.
214  2.13  0.  0.
215  2.14  0.  0.
216  2.15  0.  0.
217  2.16  0.  0.
218  2.17  0.  0.
219  2.18  0.  0.
220  2.19  0.  0.
221  2.20  0.  0.
222  2.21  0.  0.
223  2.22  0.  0.
224  2.23  0.  0.
225  2.24  0.  0.
226  2.25  0.  0.
227  2.26  0.  0.
228  2.27  0.  0.
229  2.28  0.  0.
230  2.29  0.  0.
231  2.30  0.  0.
232  2.31  0.  0.
233  2.32  0.  0.
234  2.33  0.  0.
235  2.34  0.  0.
236  2.35  0.  0.
237  2.36  0.  0.
238  2.37  0.  0.
239  2.38  0.  0.
240  2.39  0.  0.
241  2.40  0.  0.
242  2.41  0.  0.
243  2.42  0.  0.
244  2.43  0.  0.
245  2.44  0.  0.
246  2.45  0.  0.
247  2.46  0.  0.
248  2.47  0.  0.
249  2.48  0.  0.
250  2.49  0.  0.
251  2.50  0.  0.
252  2.51  0.  0.
253  2.52  0.  0.
254  2.53  0.  0.
255  2.54  0.  0.
256  2.55  0.  0.
257  2.56  0.  0.
258  2.57  0.  0.
259  2.58  0.  0.
260  2.59  0.  0.
261  2.60  0.  0.
262  2.61  0.  0.
263  2.62  0.  0.
264  2.63  0.  0.
265  2.64  0.  0.
266  2.65  0.  0.
267  2.66  0.  0.
268  2.67  0.  0.
269  2.68  0.  0.
270  2.69  0.  0.
271  2.70  0.  0.
272  2.71  0.  0.
273  2.72  0.  0.
274  2.73  0.  0.
275  2.74  0.  0.
276  2.75  0.  0.
277  2.76  0.  0.
278  2.77  0.  0.
279  2.78  0.  0.
280  2.79  0.  0.
281  2.80  0.  0.
282  2.81  0.  0.
283  2.82  0.  0.
284  2.83  0.  0.
285  2.84  0.  0.
286  2.85  0.  0.
287  2.86  0.  0.
288  2.87  0.  0.
289  2.88  0.  0.
290  2.89  0.  0.
291  2.90  0.  0.
292  2.91  0.  0.
293  2.92  0.  0.
294  2.93  0.  0.
295  2.94  0.  0.
296  2.95  0.  0.
297  2.96  0.  0.
298  2.97  0.  0.
299  2.98  0.  0.
300  2.99  0.  0.
301  3.00  0.  0.
302  3.01  0.  0.
303  3.02  0.  0.
304  3.03  0.  0.
305  3.04  0.  0.
306  3.05  0.  0.
307  3.06  0.  0.
308  3.07  0.  0.
309  3.08  0.  0.
310  3.09  0.  0.
311  3.10  0.  0.
312  3.11  0.  0.
313  3.12  0.  0.
314  3.13  0.  0.
315  3.14  0.  0.
316  3.15  0.  0.
317  3.16  0.  0.
318  3.17  0.  0.
319  3.18  0.  0.
320  3.19  0.  0.
321  3.20  0.  0.
322  3.21  0.  0.
323  3.22  0.  0.
324  3.23  0.  0.
325  3.24  0.  0.
326  3.25  0.  0.
327  3.26  0.  0.
328  3.27  0.  0.
329  3.28  0.  0.
330  3.29  0.  0.
331  3.30  0.  0.
332  3.31  0.  0.
333  3.32  0.  0.
334  3.33  0.  0.
335  3.34  0.  0.
336  3.35  0.  0.
337  3.36  0.  0.
338  3.37  0.  0.
339  3.38  0.  0.
340  3.39  0.  0.
341  3.40  0.  0.
342  3.41  0.  0.
343  3.42  0.  0.
344  3.43  0.  0.
345  3.44  0.  0.
346  3.45  0.  0.
347  3.46  0.  0.
348  3.47  0.  0.
349  3.48  0.  0.
350  3.49  0.  0.
351  3.50  0.  0.
352  3.51  0.  0.
353  3.52  0.  0.
354  3.53  0.  0.
355  3.54  0.  0.
356  3.55  0.  0.
357  3.56  0.  0.
358  3.57  0.  0.
359  3.58  0.  0.
360  3.59  0.  0.
361  3.60  0.  0.
362  3.61  0.  0.
363  3.62  0.  0.
364  3.63  0.  0.
365  3.64  0.  0.
366  3.65  0.  0.
367  3.66  0.  0.
368  3.67  0.  0.
369  3.68  0.  0.
370  3.69  0.  0.
371  3.70  0.  0.
372  3.71  0.  0.
373  3.72  0.  0.
374  3.73  0.  0.
375  3.74  0.  0.
376  3.75  0.  0.
377  3.76  0.  0.
378  3.77  0.  0.
379  3.78  0.  0.
380  3.79  0.  0.
381  3.80  0.  0.
382  3.81  0.  0.
383  3.82  0.  0.
384  3.83  0.  0.
385  3.84  0.  0.
386  3.85  0.  0.
387  3.86  0.  0.
388  3.87  0.  0.
389  3.88  0.  0.
390  3.89  0.  0.
391  3.90  0.  0.
392  3.91  0.  0.
393  3.92  0.  0.
394  3.93  0.  0.
395  3.94  0.  0.
396  3.95  0.  0.
397  3.96  0.  0.
398  3.97  0.  0.
399  3.98  0.  0.
400  3.99  0.  0.
401  4.00  0.  0.
402  4.01  0.  0.
403  4.02  0.  0.
404  4.03  0.  0.
405  4.04  0.  0.
406  4.05  0.  0.
407  4.06  0.  0.
408  4.07  0.  0.
409  4.08  0.  0.
410  4.09  0.  0.
411  4.10  0.  0.
412  4.11  0.  0.
413  4.12  0.  0.
414  4.13  0.  0.
415  4.14  0.  0.
416  4.15  0.  0.
417  4.16  0.  0.
418  4.17  0.  0.
419  4.18  0.  0.
420  4.19  0.  0.
421  4.20  0.  0.
422  4.21  0.  0.
423  4.22  0.  0.
424  4.23  0.  0.
425  4.24  0.  0.
426  4.25  0.  0.
427  4.26  0.  0.
428  4.27  0.  0.
429  4.28  0.  0.
430  4.29  0.  0.
431  4.30  0.  0.
432  4.31  0.  0.
433  4.32  0.  0.
434  4.33  0.  0.
435  4.34  0.  0.
436  4.35  0.  0.
437  4.36  0.  0.
438  4.37  0.  0.
439  4.38  0.  0.
440  4.39  0.  0.
441  4.40  0.  0.
442  4.41  0.  0.
443  4.42  0.  0.
444  4.43  0.  0.
445  4.44  0.  0.
446  4.45  0.  0.
447  4.46  0.  0.
448  4.47  0.  0.
449  4.48  0.  0.
450  4.49  0.  0.
451  4.50  0.  0.
452  4.51  0.  0.
453  4.52  0.  0.
454  4.53  0.  0.
455  4.54  0.  0.
456  4.55  0.  0.
457  4.56  0.  0.
458  4.57  0.  0.
459  4.58  0.  0.
460  4.59  0.  0.
461  4.60  0.  0.
462  4.61  0.  0.
463  4.62  0.  0.
464  4.63  0.  0.
465  4.64  0.  0.
466  4.65  0.  0.
467  4.66  0.  0.
468  4.67  0.  0.
469  4.68  0.  0.
470  4.69  0.  0.
471  4.70  0.  0.
472  4.71  0.  0.
473  4.72  0.  0.
474  4.73  0.  0.
475  4.74  0.  0.
476  4.75  0.  0.
477  4.76  0.  0.
478  4.77  0.  0.
479  4.78  0.  0.
480  4.79  0.  0.
481  4.80  0.  0.
482  4.81  0.  0.
483  4.82  0.  0.
484  4.83  0.  0.
485  4.84  0.  0.
486  4.85  0.  0.
487  4.86  0.  0.
488  4.87  0.  0.
489  4.88  0.  0.
490  4.89  0.  0.
491  4.90  0.  0.
492  4.91  0.  0.
493  4.92  0.  0.
494  4.93  0.  0.
495  4.94  0.  0.
496  4.95  0.  0.
497  4.96  0.  0.
498  4.97  0.  0.
499  4.98  0.  0.
500  4.99  0.  0.
501  5.00  0.  0.
502  5.01  0.  0.
503  5.02  0.  0.
504  5.03  0.  0.
505  5.04  0.  0.
506  5.05  0.  0.
507  5.06  0.  0.
508  5.07  0.  0.
509  5.08  0.  0.
510  5.09  0.  0.
511  5.10  0.  0.
512  5.11  0.  0.
513  5.12  0.  0.
514  5.13  0.  0.
515  5.14  0.  0.
516  5.15  0.  0.
517  5.16  0.  0.
518  5.17  0.  0.
519  5.18  0.  0.
520  5.19  0.  0.
521  5.20  0.  0.
522  5.21  0.  0.
523  5.22  0.  0.
524  5.23  0.  0.
525  5.24  0.  0.
526  5.25  0.  0.
527  5.26  0.  0.
528  5.27  0.  0.
529  5.28  0.  0.
530  5.29  0.  0.
531  5.30  0.  0.
532  5.31  0.  0.
533  5.32  0.  0.
534  5.33  0.  0.
535  5.34  0.  0.
536  5.35  0.  0.
537  5.36  0.  0.
538  5.37  0.  0.
539  5.38  0.  0.
540  5.39  0.  0.
541  5.40  0.  0.
542  5.41  0.  0.
543  5.42  0.  0.
544  5.43  0.  0.
545  5.44  0.  0.
546  5.45  0.  0.
547  5.46  0.  0.
548  5.47  0.  0.
549  5.48  0.  0.
550  5.49  0.  0.
551  5.50  0.  0.
552  5.51  0.  0.
553  5.52  0.  0.
554  5.53  0.  0.
555  5.54  0.  0.
556  5.55  0.  0.
557  5.56  0.  0.
558  5.57  0.  0.
559  5.58  0.  0.
560  5.59  0.  0.
561  5.60  0.  0.
562  5.61  0.  0.
563  5.62  0.  0.
564  5.63  0.  0.
565  5.64  0.  0.
566  5.65  0.  0.
567  5.66  0.  0.
568  5.67  0.  0.
569  5.68  0.  0.
570  5.69  0.  0.
571  5.70  0.  0.
572  5.71  0.  0.
573  5.72  0.  0.
574  5.73  0.  0.
575  5.74  0.  0.
576  5.75  0.  0.
577  5.76  0.  0.
578  5.77  0.  0.
579  5.78  0.  0.
580  5.79  0.  0.
581  5.80  0.  0.
582  5.81  0.  0.
583  5.82  0.  0.
584  5.83  0.  0.
585  5.84  0.  0.
586  5.85  0.  0.
587  5.86  0.  0.
588  5.87  0.  0.
589  5.88  0.  0.
590  5.89  0.  0.
591  5.90  0.  0.
592  5.91  0.  0.
593  5.92  0.  0.
594  5.93  0.  0.
595  5.94  0.  0.
596  5.95  0.  0.
597  5.96  0.  0.
598  5.97  0.  0.
599  5.98  0.  0.
600  5.99  0.  0.
1                         5.2423562974655E+00 -2.1071791511571E-01
1  0.0000000000000E+00 -1.0444250742037E-09 -1.3684412682874E-08
2  1.0000000000000E-02  1.4186474747140E-03  1.1363572483082E-04
3  2.0000000000000E-02  5.6706814110429E-03  4.6756407506776E-04
4  3.0000000000000E-02  1.2744361855321E-02  1.1004785456600E-03
5  4.0000000000000E-02  2.2620074544985E-02  2.0756429887404E-03
6  5.0000000000000E-02  3.5270261582009E-02  3.4790819604213E-03
7  6.0000000000000E-02  5.0659328693655E-02  5.4171032257050E-03
8  7.0000000000000E-02  6.8743533286637E-02  8.0132070683410E-03
9  8.0000000000000E-02  8.9470858545290E-02  1.1404450736873E-02
10  9.0000000000000E-02  1.1278087975505E-01  1.5737348646183E-02
11  1.0000000000000E-01  1.3860462982893E-01  2.1163399594827E-02
12  1.1000000000000E-01  1.6686447165857E-01  2.7834341029188E-02
13  1.2000000000000E-01  1.9747398538789E-01  3.5897237104197E-02
14  1.3000000000000E-01  2.3033787900474E-01  4.5489511811928E-02
15  1.4000000000000E-01  2.6535193075542E-01  5.6734040673952E-02
16  1.5000000000000E-01  3.0240297180497E-01  6.9734414366747E-02
17  1.6000000000000E-01  3.4136891729104E-01  8.4570485162881E-02
18  1.7000000000000E-01  3.8211885345439E-01  1.0129430226351E-01
19  1.8000000000000E-01  4.2451318788186E-01  1.1992653505454E-01
20  1.9000000000000E-01  4.6840386907772E-01  1.4045347417062E-01
21  2.0000000000000E-01  5.1363468060158E-01  1.6282468916951E-01
22  2.1000000000000E-01  5.6004161389210E-01  1.8695140881686E-01
23  2.2000000000000E-01  6.0745332265603E-01  2.1270567570452E-01
24  2.3000000000000E-01  6.5569166036417E-01  2.3992031145342E-01
25  2.4000000000000E-01  7.0457230098501E-01  2.6838971238546E-01
26  2.5000000000000E-01  7.5390544162839E-01  2.9787147861338E-01
27  2.6000000000000E-01  8.0349658429476E-01  3.2808886232704E-01
28  2.7000000000000E-01  8.5314739245682E-01  3.5873400399291E-01
29  2.8000000000000E-01  9.0265661677004E-01  3.8947190857369E-01
30  2.9000000000000E-01  9.5182108284216E-01  4.1994509805371E-01
31  3.0000000000000E-01  1.0004367327187E+00  4.4977886184563E-01
32  3.1000000000000E-01  1.0482997105845E+00  4.7858701336011E-01
33  3.2000000000000E-01  1.0952074821668E+00  5.0597804941961E-01
34  3.3000000000000E-01  1.1409599764707E+00  5.3156159953775E-01
35  3.4000000000000E-01  1.1853607378038E+00  5.5495504457784E-01
36  3.5000000000000E-01  1.2282180755676E+00  5.7579017911669E-01
37  3.6000000000000E-01  1.2693461990187E+00  5.9371978910053E-01
38  3.7000000000000E-01  1.3085663241423E+00  6.0842401616496E-01
39  3.8000000000000E-01  1.3457077399340E+00  6.1961638233154E-01
40  3.9000000000000E-01  1.3806088217615E+00  6.2704935366813E-01
41  4.0000000000000E-01  1.4131179800551E+00  6.3051932883898E-01
42  4.1000000000000E-01  1.4430945333660E+00  6.2987094815256E-01
43  4.2000000000000E-01  1.4704094958022E+00  6.2500063057490E-01
44  4.3000000000000E-01  1.4949462700063E+00  6.1585926000162E-01
45  4.4000000000000E-01  1.5166012381373E+00  6.0245395762063E-01
46  4.5000000000000E-01  1.5352842447577E+00  5.8484889416284E-01
47  4.6000000000000E-01  1.5509189670679E+00  5.6316511390970E-01
48  4.7000000000000E-01  1.5634431695496E+00  5.3757936116151E-01
49  4.8000000000000E-01  1.5728088417526E+00  5.0832191910563E-01
50  4.9000000000000E-01  1.5789822196492E+00  4.7567349028627E-01
51  5.0000000000000E-01  1.5819436926601E+00  4.3996116678774E-01
52  5.1000000000000E-01  1.5816876000979E+00  4.0155355642680E-01
53  5.2000000000000E-01  1.5782219223368E+00  3.6085514833965E-01
54  5.3000000000000E-01  1.5715678734894E+00  3.1830001700043E-01
55  5.4000000000000E-01  1.5617594037087E+00  2.7434497759303E-01
56  5.5000000000000E-01  1.5488426204242E+00  2.2946231748835E-01
57  5.6000000000000E-01  1.5328751388330E+00  1.8413223809525E-01
58  5.7000000000000E-01  1.5139253727905E+00  1.3883514834558E-01
59  5.8000000000000E-01  1.4920717778594E+00  9.4043955371380E-02
60  5.9000000000000E-01  1.4674020586681E+00  5.0216499424139E-02
61  6.0000000000000E-01  1.4400123529027E+00  7.7882787057453E-03
62  6.1000000000000E-01  1.4100064041905E+00 -3.2834394475342E-02
63  6.2000000000000E-01  1.3774947358526E+00 -7.1280671894528E-02
64  6.3000000000000E-01  1.3425938369869E+00 -1.0722075742717E-01
65  6.4000000000000E-01  1.3054253716284E+00 -1.4037069274148E-01
66  6.5000000000000E-01  1.2661154208150E+00 -1.7049624324285E-01
67  6.6000000000000E-01  1.2247937662924E+00 -1.9741580366050E-01
68  6.7000000000000E-01  1.1815932233429E+00 -2.2100226127268E-01
69  6.8000000000000E-01  1.1366490288394E+00 -2.4118377481706E-01
70  6.9000000000000E-01  1.0900982891429E+00 -2.5794344825587E-01
71  7.0000000000000E-01  1.0420794909039E+00 -2.7131790035699E-01
72  7.1000000000000E-01  9.9273207622756E-01 -2.8139475309713E-01
73  7.2000000000000E-01  9.4219608205630E-01 -2.8830908376008E-01
74  7.3000000000000E-01  8.9061184203796E-01 -2.9223890686055E-01
75  7.4000000000000E-01  8.3811974762092E-01 -2.9339977224959E-01
76  7.5000000000000E-01  7.8486006367887E-01 -2.9203858453786E-01
77  7.6000000000000E-01  7.3097279264755E-01 -2.8842676592203E-01
78  7.7000000000000E-01  6.7659757998323E-01 -2.8285289926041E-01
79  7.8000000000000E-01  6.2187365275095E-01 -2.7561500049416E-01
80  7.9000000000000E-01  5.6693978234464E-01 -2.6701257897987E-01
81  8.0000000000000E-01  5.1193426174621E-01 -2.5733865075844E-01
82  8.1000000000000E-01  4.5699488736378E-01 -2.4687187306667E-01
83  8.2000000000000E-01  4.0225893535793E-01 -2.3586896839386E-01
84  8.3000000000000E-01  3.4786312247538E-01 -2.2455760304277E-01
85  8.4000000000000E-01  2.9394354176155E-01 -2.1312987849447E-01
86  8.5000000000000E-01  2.4063556411266E-01 -2.0173658397758E-01
87  8.6000000000000E-01  1.8807369744426E-01 -1.9048234564820E-01
88  8.7000000000000E-01  1.3639139628258E-01 -1.7942179190689E-01
89  8.8000000000000E-01  8.5720815808519E-02 -1.6855683587527E-01
90  8.9000000000000E-01  3.6192505778672E-02 -1.5783515524950E-01
91  9.0000000000000E-01 -1.2064958713368E-02 -1.4714992700913E-01
92  9.1000000000000E-01 -5.8925411019340E-02 -1.3634085019760E-01
93  9.2000000000000E-01 -1.0426559091217E-01 -1.2519646465538E-01
94  9.3000000000000E-01 -1.4796570462512E-01 -1.1345774764802E-01
95  9.4000000000000E-01 -1.8991004303444E-01 -1.0082294428591E-01
96  9.5000000000000E-01 -2.2998765230357E-01 -8.6953561978498E-02
97  9.6000000000000E-01 -2.6809304961062E-01 -7.1481434408209E-02
98  9.7000000000000E-01 -3.0412697498553E-01 -5.4016737136970E-02
99  9.8000000000000E-01 -3.3799716882600E-01 -3.4156815449054E-02
100  9.9000000000000E-01 -3.6961916337376E-01 -1.1495665823872E-02
101  1.0000000000000E+00 -3.9891707534581E-01  1.4366104064797E-02
102  1.0100000000000E+00 -4.2582438605660E-01  4.3811025352953E-02
103  1.0200000000000E+00 -4.5028469475845E-01  7.7194426567596E-02
104  1.0300000000000E+00 -4.7225243058781E-01  1.1483420578581E-01
105  1.0400000000000E+00 -4.9169350844806E-01  1.5700092397388E-01
106  1.0500000000000E+00 -5.0858591439262E-01  2.0390842580622E-01
107  1.0600000000000E+00 -5.2292020659884E-01  2.5570518898041E-01
108  1.0700000000000E+00 -5.3469991884008E-01  3.1246659384308E-01
109  1.0800000000000E+00 -5.4394185446034E-01  3.7418829212923E-01
110  1.0900000000000E+00 -5.5067626022369E-01  4.4078083692495E-01
111  1.1000000000000E+00 -5.5494687101874E-01  5.1206571597513E-01
112  1.1100000000000E+00 -5.5681081823959E-01  5.8777290727928E-01
113  1.1200000000000E+00 -5.5633839668587E-01  6.6754005021603E-01
114  1.1300000000000E+00 -5.5361268701821E-01  7.5091329733246E-01
115  1.1400000000000E+00 -5.4872903310772E-01  8.3734988224171E-01
116  1.1500000000000E+00 -5.4179437601420E-01  9.2622240798870E-01
117  1.1600000000000E+00 -5.3292644874922E-01  1.0168248286734E+00
118  1.1700000000000E+00 -5.2225283841061E-01  1.1083800652525E+00
119  1.1800000000000E+00 -5.0990992463690E-01  1.2000491653183E+00
120  1.1900000000000E+00 -4.9604170561771E-01  1.2909418863263E+00
121  1.2000000000000E+00 -4.8079852502203E-01  1.3801285533784E+00
122  1.2100000000000E+00 -4.6433571517176E-01  1.4666530162320E+00
123  1.2200000000000E+00 -4.4681217351814E-01  1.5495465066960E+00
124  1.2300000000000E+00 -4.2838889095984E-01  1.6278421771695E+00
125  1.2400000000000E+00 -4.0922745173562E-01  1.7005900842778E+00
126  1.2500000000000E+00 -3.8948852549867E-01  1.7668723688182E+00
127  1.2600000000000E+00 -3.6933037272435E-01  1.8258183746519E+00
128  1.2700000000000E+00 -3.4890738478996E-01  1.8766194451703E+00
129  1.2800000000000E+00 -3.2836867989660E-01  1.9185431365040E+00
130  1.2900000000000E+00 -3.0785677546492E-01  1.9509465919061E+00
131  1.3000000000000E+00 -2.8750635673884E-01  1.9732888316372E+00
132  1.3100000000000E+00 -2.6744316008930E-01  1.9851417270157E+00
133  1.3200000000000E+00 -2.4778298792237E-01  1.9861994460908E+00
134  1.3300000000000E+00 -2.2863087020529E-01  1.9762861811276E+00
135  1.3400000000000E+00 -2.1008038544955E-01  1.9553619945245E+00
136  1.3500000000000E+00 -1.9221315156866E-01  1.9235266494409E+00
137  1.3600000000000E+00 -1.7509849438887E-01  1.8810213239416E+00
138  1.3700000000000E+00 -1.5879329879640E-01  1.8282281420663E+00
139  1.3800000000000E+00 -1.4334204458668E-01  1.7656674915148E+00
140  1.3900000000000E+00 -1.2877702609440E-01  1.6939931348797E+00
141  1.4000000000000E+00 -1.1511875166934E-01  1.6139851590645E+00
142  1.4100000000000E+00 -1.0237651609689E-01  1.5265408447121E+00
143  1.4200000000000E+00 -9.0549136166949E-02  1.4326635738591E+00
144  1.4300000000000E+00 -7.9625836850333E-02  1.3334499286038E+00
145  1.4400000000000E+00 -6.9587272965666E-02  1.2300751660899E+00
146  1.4500000000000E+00 -6.0406668886228E-02  1.1237772846308E+00
147  1.4600000000000E+00 -5.2051056773551E-02  1.0158399219579E+00
148  1.4700000000000E+00 -4.4482592070840E-02  9.0757434888000E-01
149  1.4800000000000E+00 -3.7659923580229E-02  8.0030083963748E-01
150  1.4900000000000E+00 -3.1539594411342E-02  6.9532971355265E-01
151  1.5000000000000E+00 -2.6077444817380E-02  5.9394238294120E-01
152  1.5100000000000E+00 -2.1230041494021E-02  4.9737237940571E-01
153  1.5200000000000E+00 -1.6955879044680E-02  4.0678818726271E-01
154  1.5300000000000E+00 -1.3217944166695E-02  3.2326740918987E-01
155  1.5400000000000E+00 -9.9910313859259E-03  2.4773600887844E-01
156  1.5500000000000E+00 -7.2456004194495E-03  1.8107219221884E-01
157  1.5600000000000E+00 -4.9548508895241E-03  1.2405643165684E-01
158  1.5700000000000E+00 -3.1009493530328E-03  7.7323260510292E-02
159  1.5800000000000E+00 -1.6753188486095E-03  4.1360240973134E-02
160  1.5900000000000E+00 -6.7626401748300E-04  1.6437480300860E-02
161  1.6000000000000E+00 -1.2531931548386E-04  2.9809420559504E-03
162  1.6100000000000E+00  1.0378497645390E-05 -2.4278819570368E-04
163  1.6200000000000E+00 -3.0356798748000E-06  7.1667610639701E-05
164  1.63  0. -0.
165  1.64 -0. -0.
166  1.65  0.  0.