Ts    ONCVPSP-4.0.1  r_core=   2.10358   2.10358   1.95787
    117.0000     25.0000      211219    zatom,zion,pspd
     8      11   2     4   600     0    pspcod,pspxc,lmax,lloc,mmax,r2well
  5.99000000  5.00000000  0.00000000    rchrg fchrg qchrg
     2     2     2     0     0    nproj
     1     1           extension_switch
   0                         4.9743804546527E+00 -3.3709005217996E+00
     1  0.0000000000000E+00 -6.2874927486689E-11  1.6640022693082E-12
     2  1.0000000000000E-02  8.1579077437906E-02  3.1198000915457E-02
     3  2.0000000000000E-02  1.6289696923037E-01  6.2376568294653E-02
     4  3.0000000000000E-02  2.4369343210846E-01  9.3516272174811E-02
     5  4.0000000000000E-02  3.2371010379750E-01  1.2459768980932E-01
     6  5.0000000000000E-02  4.0269143413326E-01  1.5560140944840E-01
     7  6.0000000000000E-02  4.8038560496544E-01  1.8650803432565E-01
     8  7.0000000000000E-02  5.5654543518461E-01  2.1729818691724E-01
     9  8.0000000000000E-02  6.3092926727180E-01  2.4795251353872E-01
    10  9.0000000000000E-02  7.0330183184785E-01  2.7845168934234E-01
    11  1.0000000000000E-01  7.7343508679267E-01  3.0877642377553E-01
    12  1.1000000000000E-01  8.4110902761204E-01  3.3890746655816E-01
    13  1.2000000000000E-01  9.0611246585099E-01  3.6882561423294E-01
    14  1.3000000000000E-01  9.6824377248787E-01  3.9851171734013E-01
    15  1.4000000000000E-01  1.0273115833913E+00  4.2794668826337E-01
    16  1.5000000000000E-01  1.0831354640819E+00  4.5711150978975E-01
    17  1.6000000000000E-01  1.1355465312140E+00  4.8598724442226E-01
    18  1.7000000000000E-01  1.1843880283729E+00  5.1455504447848E-01
    19  1.8000000000000E-01  1.2295158539791E+00  5.4279616300405E-01
    20  1.9000000000000E-01  1.2707990392911E+00  5.7069196552430E-01
    21  2.0000000000000E-01  1.3081201747090E+00  5.9822394265224E-01
    22  2.1000000000000E-01  1.3413757828011E+00  6.2537372356508E-01
    23  2.2000000000000E-01  1.3704766366984E+00  6.5212309035624E-01
    24  2.3000000000000E-01  1.3953480227328E+00  6.7845399326356E-01
    25  2.4000000000000E-01  1.4159299464309E+00  7.0434856676865E-01
    26  2.5000000000000E-01  1.4321772812116E+00  7.2978914655652E-01
    27  2.6000000000000E-01  1.4440598593797E+00  7.5475828731827E-01
    28  2.7000000000000E-01  1.4515625052470E+00  7.7923878137389E-01
    29  2.8000000000000E-01  1.4546850104573E+00  8.0321367808627E-01
    30  2.9000000000000E-01  1.4534420518348E+00  8.2666630403148E-01
    31  3.0000000000000E-01  1.4478630523138E+00  8.4958028388465E-01
    32  3.1000000000000E-01  1.4379919857467E+00  8.7193956197521E-01
    33  3.2000000000000E-01  1.4238871266220E+00  8.9372842445968E-01
    34  3.3000000000000E-01  1.4056207459518E+00  9.1493152205468E-01
    35  3.4000000000000E-01  1.3832787548126E+00  9.3553389326827E-01
    36  3.5000000000000E-01  1.3569602972397E+00  9.5552098806208E-01
    37  3.6000000000000E-01  1.3267772943822E+00  9.7487869187293E-01
    38  3.7000000000000E-01  1.2928539420300E+00  9.9359334991757E-01
    39  3.8000000000000E-01  1.2553261638078E+00  1.0116517917008E+00
    40  3.9000000000000E-01  1.2143410225168E+00  1.0290413556431E+00
    41  4.0000000000000E-01  1.1700560922702E+00  1.0457499137411E+00
    42  4.1000000000000E-01  1.1226387942237E+00  1.0617658961703E+00
    43  4.2000000000000E-01  1.0722656988489E+00  1.0770783157389E+00
    44  4.3000000000000E-01  1.0191217978247E+00  1.0916767920969E+00
    45  4.4000000000000E-01  9.6339974873822E-01  1.1055515756052E+00
    46  4.5000000000000E-01  9.0529909588907E-01  1.1186935707665E+00
    47  4.6000000000000E-01  8.4502547057651E-01  1.1310943591206E+00
    48  4.7000000000000E-01  7.8278977431908E-01  1.1427462215048E+00
    49  4.8000000000000E-01  7.1880734851315E-01  1.1536421595810E+00
    50  4.9000000000000E-01  6.5329713407446E-01  1.1637759165323E+00
    51  5.0000000000000E-01  5.8648082463103E-01  1.1731419968311E+00
    52  5.1000000000000E-01  5.1858201684168E-01  1.1817356849836E+00
    53  5.2000000000000E-01  4.4982536140580E-01  1.1895530631587E+00
    54  5.3000000000000E-01  3.8043571830402E-01  1.1965910276078E+00
    55  5.4000000000000E-01  3.1063731976821E-01  1.2028473037891E+00
    56  5.5000000000000E-01  2.4065294442161E-01  1.2083204601119E+00
    57  5.6000000000000E-01  1.7070310595743E-01  1.2130099202176E+00
    58  5.7000000000000E-01  1.0100525963613E-01  1.2169159737226E+00
    59  5.8000000000000E-01  3.1773029779000E-02  1.2200397853497E+00
    60  5.9000000000000E-01 -3.6784538680758E-02  1.2223834023806E+00
    61  6.0000000000000E-01 -1.0446370165881E-01  1.2239497603669E+00
    62  6.1000000000000E-01 -1.7106670760451E-01  1.2247426870430E+00
    63  6.2000000000000E-01 -2.3640245677731E-01  1.2247669043908E+00
    64  6.3000000000000E-01 -3.0028712564893E-01  1.2240280288104E+00
    65  6.4000000000000E-01 -3.6254475414230E-01  1.2225325693599E+00
    66  6.5000000000000E-01 -4.2300779360539E-01  1.2202879240316E+00
    67  6.6000000000000E-01 -4.8151761361298E-01  1.2173023740414E+00
    68  6.7000000000000E-01 -5.3792496589282E-01  1.2135850761125E+00
    69  6.8000000000000E-01 -5.9209040388192E-01  1.2091460527445E+00
    70  6.9000000000000E-01 -6.4388465663454E-01  1.2039961804639E+00
    71  7.0000000000000E-01 -6.9318895602242E-01  1.1981471760610E+00
    72  7.1000000000000E-01 -7.3989531639173E-01  1.1916115808247E+00
    73  7.2000000000000E-01 -7.8390676606600E-01  1.1844027427956E+00
    74  7.3000000000000E-01 -8.2513753031117E-01  1.1765347970618E+00
    75  7.4000000000000E-01 -8.6351316560522E-01  1.1680226441354E+00
    76  7.5000000000000E-01 -8.9897064528021E-01  1.1588819264467E+00
    77  7.6000000000000E-01 -9.3145839682776E-01  1.1491290030085E+00
    78  7.7000000000000E-01 -9.6093629137844E-01  1.1387809223043E+00
    79  7.8000000000000E-01 -9.8737558608091E-01  1.1278553934626E+00
    80  7.9000000000000E-01 -1.0107588203163E+00  1.1163707557882E+00
    81  8.0000000000000E-01 -1.0310796668864E+00  1.1043459467237E+00
    82  8.1000000000000E-01 -1.0483427395091E+00  1.0918004683246E+00
    83  8.2000000000000E-01 -1.0625633581436E+00  1.0787543523349E+00
    84  8.3000000000000E-01 -1.0737672738418E+00  1.0652281239552E+00
    85  8.4000000000000E-01 -1.0819903549939E+00  1.0512427644023E+00
    86  8.5000000000000E-01 -1.0872782369894E+00  1.0368196723626E+00
    87  8.6000000000000E-01 -1.0896859374605E+00  1.0219806244464E+00
    88  8.7000000000000E-01 -1.0892774394069E+00  1.0067477347535E+00
    89  8.8000000000000E-01 -1.0861252446203E+00  9.9114341366570E-01
    90  8.9000000000000E-01 -1.0803098999329E+00  9.7519032598222E-01
    91  9.0000000000000E-01 -1.0719194989045E+00  9.5891134851923E-01
    92  9.1000000000000E-01 -1.0610491616424E+00  9.4232952729488E-01
    93  9.2000000000000E-01 -1.0478004955098E+00  9.2546803442390E-01
    94  9.3000000000000E-01 -1.0322810395277E+00  9.0835012484636E-01
    95  9.4000000000000E-01 -1.0146036953073E+00  8.9099909301625E-01
    96  9.5000000000000E-01 -9.9488614737066E-01  8.7343822967520E-01
    97  9.6000000000000E-01 -9.7325027571896E-01  8.5569077883670E-01
    98  9.7000000000000E-01 -9.4982156349906E-01  8.3777989510509E-01
    99  9.8000000000000E-01 -9.2472850259192E-01  8.1972860145217E-01
   100  9.9000000000000E-01 -8.9810199990866E-01  8.0155974757261E-01
   101  1.0000000000000E+00 -8.7007478712632E-01  7.8329596893698E-01
   102  1.0100000000000E+00 -8.4078083652932E-01  7.6495964665824E-01
   103  1.0200000000000E+00 -8.1035478554356E-01  7.4657286828463E-01
   104  1.0300000000000E+00 -7.7893137245922E-01  7.2815738962800E-01
   105  1.0400000000000E+00 -7.4664488573529E-01  7.0973459773255E-01
   106  1.0500000000000E+00 -7.1362862916603E-01  6.9132547508466E-01
   107  1.0600000000000E+00 -6.8001440506572E-01  6.7295056515950E-01
   108  1.0700000000000E+00 -6.4593201749579E-01  6.5462993939487E-01
   109  1.0800000000000E+00 -6.1150879741753E-01  6.3638316567738E-01
   110  1.0900000000000E+00 -5.7686915150513E-01  6.1822927842016E-01
   111  1.1000000000000E+00 -5.4213413619935E-01  6.0018675030509E-01
   112  1.1100000000000E+00 -5.0742105842140E-01  5.8227346575649E-01
   113  1.1200000000000E+00 -4.7284310420218E-01  5.6450669620637E-01
   114  1.1300000000000E+00 -4.3850899631331E-01  5.4690307720471E-01
   115  1.1400000000000E+00 -4.0452268181555E-01  5.2947858742146E-01
   116  1.1500000000000E+00 -3.7098305026754E-01  5.1224852957982E-01
   117  1.1600000000000E+00 -3.3798368316487E-01  4.9522751335317E-01
   118  1.1700000000000E+00 -3.0561263500641E-01  4.7842944025110E-01
   119  1.1800000000000E+00 -2.7395224621417E-01  4.6186749051258E-01
   120  1.1900000000000E+00 -2.4307898796279E-01  4.4555411201729E-01
   121  1.2000000000000E+00 -2.1306333881049E-01  4.2950101121877E-01
   122  1.2100000000000E+00 -1.8396969286025E-01  4.1371914609619E-01
   123  1.2200000000000E+00 -1.5585629902397E-01  3.9821872111439E-01
   124  1.2300000000000E+00 -1.2877523081164E-01  3.8300918417503E-01
   125  1.2400000000000E+00 -1.0277238592214E-01  3.6809922553501E-01
   126  1.2500000000000E+00 -7.7887514776210E-02  3.5349677866169E-01
   127  1.2600000000000E+00 -5.4154277001873E-02  3.3920902298826E-01
   128  1.2700000000000E+00 -3.1600324761746E-02  3.2524238852629E-01
   129  1.2800000000000E+00 -1.0247411700220E-02  3.1160256228702E-01
   130  1.2900000000000E+00  9.8884738149411E-03  2.9829449645700E-01
   131  1.3000000000000E+00  2.8796952574386E-02  2.8532241826867E-01
   132  1.3100000000000E+00  4.6473077032831E-02  2.7268984150150E-01
   133  1.3200000000000E+00  6.2917134011632E-02  2.6039957954471E-01
   134  1.3300000000000E+00  7.8134429232929E-02  2.4845375994821E-01
   135  1.3400000000000E+00  9.2135055371127E-02  2.3685384038475E-01
   136  1.3500000000000E+00  1.0493364534777E-01  2.2560062594257E-01
   137  1.3600000000000E+00  1.1654911262559E-01  2.1469428766481E-01
   138  1.3700000000000E+00  1.2700438027646E-01  2.0413438224913E-01
   139  1.3800000000000E+00  1.3632610060636E-01  1.9391987281889E-01
   140  1.3900000000000E+00  1.4454436711899E-01  1.8404915067487E-01
   141  1.4000000000000E+00  1.5169242058750E-01  1.7452005793557E-01
   142  1.4100000000000E+00  1.5780635098266E-01  1.6532991097248E-01
   143  1.4200000000000E+00  1.6292479697475E-01  1.5647552454640E-01
   144  1.4300000000000E+00  1.6708864468705E-01  1.4795323655028E-01
   145  1.4400000000000E+00  1.7034072733041E-01  1.3975893326440E-01
   146  1.4500000000000E+00  1.7272552729273E-01  1.3188807502991E-01
   147  1.4600000000000E+00  1.7428888219351E-01  1.2433572224781E-01
   148  1.4700000000000E+00  1.7507769634379E-01  1.1709656161165E-01
   149  1.4800000000000E+00  1.7513965897523E-01  1.1016493248346E-01
   150  1.4900000000000E+00  1.7452297052065E-01  1.0353485332496E-01
   151  1.5000000000000E+00  1.7327607814124E-01  9.7200048097533E-02
   152  1.5100000000000E+00  1.7144742160496E-01  9.1153972547796E-02
   153  1.5200000000000E+00  1.6908519052604E-01  8.5389840297663E-02
   154  1.5300000000000E+00  1.6623709387821E-01  7.9900648661488E-02
   155  1.5400000000000E+00  1.6295014259455E-01  7.4679204115838E-02
   156  1.5500000000000E+00  1.5927044596596E-01  6.9718147351209E-02
   157  1.5600000000000E+00  1.5524302244791E-01  6.5009977838670E-02
   158  1.5700000000000E+00  1.5091162538304E-01  6.0547077848476E-02
   159  1.5800000000000E+00  1.4631858404529E-01  5.6321735861743E-02
   160  1.5900000000000E+00  1.4150466031018E-01  5.2326169320582E-02
   161  1.6000000000000E+00  1.3650892115656E-01  4.8552546666501E-02
   162  1.6100000000000E+00  1.3136862710772E-01  4.4993008621303E-02
   163  1.6200000000000E+00  1.2611913662527E-01  4.1639688669331E-02
   164  1.6300000000000E+00  1.2079382637739E-01  3.8484732704464E-02
   165  1.6400000000000E+00  1.1542402721508E-01  3.5520317809923E-02
   166  1.6500000000000E+00  1.1003897560586E-01  3.2738670143579E-02
   167  1.6600000000000E+00  1.0466578019447E-01  3.0132081906045E-02
   168  1.6700000000000E+00  9.9329403085081E-02  2.7692927373431E-02
   169  1.6800000000000E+00  9.4052655369029E-02  2.5413677981162E-02
   170  1.6900000000000E+00  8.8856206356906E-02  2.3286916449645E-02
   171  1.7000000000000E+00  8.3758605914235E-02  2.1305349946967E-02
   172  1.7100000000000E+00  7.8776319245388E-02  1.9461822287957E-02
   173  1.7200000000000E+00  7.3923773421823E-02  1.7749325173076E-02
   174  1.7300000000000E+00  6.9213414907664E-02  1.6161008474475E-02
   175  1.7400000000000E+00  6.4655777298312E-02  1.4690189580367E-02
   176  1.7500000000000E+00  6.0259558456219E-02  1.3330361812379E-02
   177  1.7600000000000E+00  5.6031706201984E-02  1.2075201933995E-02
   178  1.7700000000000E+00  5.1977511698630E-02  1.0918576771306E-02
   179  1.7800000000000E+00  4.8100709652083E-02  9.8545489702976E-03
   180  1.7900000000000E+00  4.4403584441338E-02  8.8773819175967E-03
   181  1.8000000000000E+00  4.0887081287480E-02  7.9815438541190E-03
   182  1.8100000000000E+00  3.7550921571531E-02  7.1617112133002E-03
   183  1.8200000000000E+00  3.4393721416237E-02  6.4127712176022E-03
   184  1.8300000000000E+00  3.1413112657306E-02  5.7298237687516E-03
   185  1.8400000000000E+00  2.8605865343475E-02  5.1081826686584E-03
   186  1.8500000000000E+00  2.5968010923433E-02  4.5433762092410E-03
   187  1.8600000000000E+00  2.3494965299484E-02  4.0311471703309E-03
   188  1.8700000000000E+00  2.1181650953395E-02  3.5674522656181E-03
   189  1.8800000000000E+00  1.9022617378652E-02  3.1484610770580E-03
   190  1.8900000000000E+00  1.7012159084869E-02  2.7705545183984E-03
   191  1.9000000000000E+00  1.5144430474331E-02  2.4303228685092E-03
   192  1.9100000000000E+00  1.3413556927068E-02  2.1245634149098E-03
   193  1.9200000000000E+00  1.1813741469819E-02  1.8502777474329E-03
   194  1.9300000000000E+00  1.0339366612263E-02  1.6046687413203E-03
   195  1.9400000000000E+00  8.9850906619448E-03  1.3851372669245E-03
   196  1.9500000000000E+00  7.7459303567833E-03  1.1892786688318E-03
   197  1.9600000000000E+00  6.6173753797888E-03  1.0148792901677E-03
   198  1.9700000000000E+00  5.5953173772772E-03  8.5991116340091E-04
   199  1.9800000000000E+00  4.6756705944769E-03  7.2253055882151E-04
   200  1.9900000000000E+00  3.8540743498685E-03  6.0107717285183E-04
   201  2.0000000000000E+00  3.1260511396788E-03  4.9401821864198E-04
   202  2.0100000000000E+00  2.4876802825093E-03  3.9959264206869E-04
   203  2.0200000000000E+00  1.9346168329368E-03  3.1648224892716E-04
   204  2.0300000000000E+00  1.4617186040923E-03  2.4404866318560E-04
   205  2.0400000000000E+00  1.0640493949769E-03  1.8168953425447E-04
   206  2.0500000000000E+00  7.3679890487235E-04  1.2893131628136E-04
   207  2.0600000000000E+00  4.7534444408348E-04  8.5413893603605E-05
   208  2.0700000000000E+00  2.7533996013270E-04  5.0906281663853E-05
   209  2.0800000000000E+00  1.3227818060046E-04  2.5208350868596E-05
   210  2.0900000000000E+00  4.2699239676115E-05  8.4055892994501E-06
   211  2.1000000000000E+00  4.5273929525926E-06  9.3161271187485E-07
   212  2.1100000000000E+00 -1.6288375712181E-06 -3.3495036188866E-07
   213  2.1200000000000E+00  4.7508572676545E-07  9.5936154961052E-08
   214  2.13 -0. -0.
   215  2.14 -0. -0.
   216  2.15  0. -0.
   217  2.16  0.  0.
   218  2.17  0.  0.
   219  2.18  0.  0.
   220  2.19  0.  0.
   221  2.20  0.  0.
   222  2.21  0.  0.
   223  2.22  0.  0.
   224  2.23  0.  0.
   225  2.24  0.  0.
   226  2.25  0.  0.
   227  2.26  0.  0.
   228  2.27  0.  0.
   229  2.28  0.  0.
   230  2.29  0.  0.
   231  2.30  0.  0.
   232  2.31  0.  0.
   233  2.32  0.  0.
   234  2.33  0.  0.
   235  2.34  0.  0.
   236  2.35  0.  0.
   237  2.36  0.  0.
   238  2.37  0.  0.
   239  2.38  0.  0.
   240  2.39  0.  0.
   241  2.40  0.  0.
   242  2.41  0.  0.
   243  2.42  0.  0.
   244  2.43  0.  0.
   245  2.44  0.  0.
   246  2.45  0.  0.
   247  2.46  0.  0.
   248  2.47  0.  0.
   249  2.48  0.  0.
   250  2.49  0.  0.
   251  2.50  0.  0.
   252  2.51  0.  0.
   253  2.52  0.  0.
   254  2.53  0.  0.
   255  2.54  0.  0.
   256  2.55  0.  0.
   257  2.56  0.  0.
   258  2.57  0.  0.
   259  2.58  0.  0.
   260  2.59  0.  0.
   261  2.60  0.  0.
   262  2.61  0.  0.
   263  2.62  0.  0.
   264  2.63  0.  0.
   265  2.64  0.  0.
   266  2.65  0.  0.
   267  2.66  0.  0.
   268  2.67  0.  0.
   269  2.68  0.  0.
   270  2.69  0.  0.
   271  2.70  0.  0.
   272  2.71  0.  0.
   273  2.72  0.  0.
   274  2.73  0.  0.
   275  2.74  0.  0.
   276  2.75  0.  0.
   277  2.76  0.  0.
   278  2.77  0.  0.
   279  2.78  0.  0.
   280  2.79  0.  0.
   281  2.80  0.  0.
   282  2.81  0.  0.
   283  2.82  0.  0.
   284  2.83  0.  0.
   285  2.84  0.  0.
   286  2.85  0.  0.
   287  2.86  0.  0.
   288  2.87  0.  0.
   289  2.88  0.  0.
   290  2.89  0.  0.
   291  2.90  0.  0.
   292  2.91  0.  0.
   293  2.92  0.  0.
   294  2.93  0.  0.
   295  2.94  0.  0.
   296  2.95  0.  0.
   297  2.96  0.  0.
   298  2.97  0.  0.
   299  2.98  0.  0.
   300  2.99  0.  0.
   301  3.00  0.  0.
   302  3.01  0.  0.
   303  3.02  0.  0.
   304  3.03  0.  0.
   305  3.04  0.  0.
   306  3.05  0.  0.
   307  3.06  0.  0.
   308  3.07  0.  0.
   309  3.08  0.  0.
   310  3.09  0.  0.
   311  3.10  0.  0.
   312  3.11  0.  0.
   313  3.12  0.  0.
   314  3.13  0.  0.
   315  3.14  0.  0.
   316  3.15  0.  0.
   317  3.16  0.  0.
   318  3.17  0.  0.
   319  3.18  0.  0.
   320  3.19  0.  0.
   321  3.20  0.  0.
   322  3.21  0.  0.
   323  3.22  0.  0.
   324  3.23  0.  0.
   325  3.24  0.  0.
   326  3.25  0.  0.
   327  3.26  0.  0.
   328  3.27  0.  0.
   329  3.28  0.  0.
   330  3.29  0.  0.
   331  3.30  0.  0.
   332  3.31  0.  0.
   333  3.32  0.  0.
   334  3.33  0.  0.
   335  3.34  0.  0.
   336  3.35  0.  0.
   337  3.36  0.  0.
   338  3.37  0.  0.
   339  3.38  0.  0.
   340  3.39  0.  0.
   341  3.40  0.  0.
   342  3.41  0.  0.
   343  3.42  0.  0.
   344  3.43  0.  0.
   345  3.44  0.  0.
   346  3.45  0.  0.
   347  3.46  0.  0.
   348  3.47  0.  0.
   349  3.48  0.  0.
   350  3.49  0.  0.
   351  3.50  0.  0.
   352  3.51  0.  0.
   353  3.52  0.  0.
   354  3.53  0.  0.
   355  3.54  0.  0.
   356  3.55  0.  0.
   357  3.56  0.  0.
   358  3.57  0.  0.
   359  3.58  0.  0.
   360  3.59  0.  0.
   361  3.60  0.  0.
   362  3.61  0.  0.
   363  3.62  0.  0.
   364  3.63  0.  0.
   365  3.64  0.  0.
   366  3.65  0.  0.
   367  3.66  0.  0.
   368  3.67  0.  0.
   369  3.68  0.  0.
   370  3.69  0.  0.
   371  3.70  0.  0.
   372  3.71  0.  0.
   373  3.72  0.  0.
   374  3.73  0.  0.
   375  3.74  0.  0.
   376  3.75  0.  0.
   377  3.76  0.  0.
   378  3.77  0.  0.
   379  3.78  0.  0.
   380  3.79  0.  0.
   381  3.80  0.  0.
   382  3.81  0.  0.
   383  3.82  0.  0.
   384  3.83  0.  0.
   385  3.84  0.  0.
   386  3.85  0.  0.
   387  3.86  0.  0.
   388  3.87  0.  0.
   389  3.88  0.  0.
   390  3.89  0.  0.
   391  3.90  0.  0.
   392  3.91  0.  0.
   393  3.92  0.  0.
   394  3.93  0.  0.
   395  3.94  0.  0.
   396  3.95  0.  0.
   397  3.96  0.  0.
   398  3.97  0.  0.
   399  3.98  0.  0.
   400  3.99  0.  0.
   401  4.00  0.  0.
   402  4.01  0.  0.
   403  4.02  0.  0.
   404  4.03  0.  0.
   405  4.04  0.  0.
   406  4.05  0.  0.
   407  4.06  0.  0.
   408  4.07  0.  0.
   409  4.08  0.  0.
   410  4.09  0.  0.
   411  4.10  0.  0.
   412  4.11  0.  0.
   413  4.12  0.  0.
   414  4.13  0.  0.
   415  4.14  0.  0.
   416  4.15  0.  0.
   417  4.16  0.  0.
   418  4.17  0.  0.
   419  4.18  0.  0.
   420  4.19  0.  0.
   421  4.20  0.  0.
   422  4.21  0.  0.
   423  4.22  0.  0.
   424  4.23  0.  0.
   425  4.24  0.  0.
   426  4.25  0.  0.
   427  4.26  0.  0.
   428  4.27  0.  0.
   429  4.28  0.  0.
   430  4.29  0.  0.
   431  4.30  0.  0.
   432  4.31  0.  0.
   433  4.32  0.  0.
   434  4.33  0.  0.
   435  4.34  0.  0.
   436  4.35  0.  0.
   437  4.36  0.  0.
   438  4.37  0.  0.
   439  4.38  0.  0.
   440  4.39  0.  0.
   441  4.40  0.  0.
   442  4.41  0.  0.
   443  4.42  0.  0.
   444  4.43  0.  0.
   445  4.44  0.  0.
   446  4.45  0.  0.
   447  4.46  0.  0.
   448  4.47  0.  0.
   449  4.48  0.  0.
   450  4.49  0.  0.
   451  4.50  0.  0.
   452  4.51  0.  0.
   453  4.52  0.  0.
   454  4.53  0.  0.
   455  4.54  0.  0.
   456  4.55  0.  0.
   457  4.56  0.  0.
   458  4.57  0.  0.
   459  4.58  0.  0.
   460  4.59  0.  0.
   461  4.60  0.  0.
   462  4.61  0.  0.
   463  4.62  0.  0.
   464  4.63  0.  0.
   465  4.64  0.  0.
   466  4.65  0.  0.
   467  4.66  0.  0.
   468  4.67  0.  0.
   469  4.68  0.  0.
   470  4.69  0.  0.
   471  4.70  0.  0.
   472  4.71  0.  0.
   473  4.72  0.  0.
   474  4.73  0.  0.
   475  4.74  0.  0.
   476  4.75  0.  0.
   477  4.76  0.  0.
   478  4.77  0.  0.
   479  4.78  0.  0.
   480  4.79  0.  0.
   481  4.80  0.  0.
   482  4.81  0.  0.
   483  4.82  0.  0.
   484  4.83  0.  0.
   485  4.84  0.  0.
   486  4.85  0.  0.
   487  4.86  0.  0.
   488  4.87  0.  0.
   489  4.88  0.  0.
   490  4.89  0.  0.
   491  4.90  0.  0.
   492  4.91  0.  0.
   493  4.92  0.  0.
   494  4.93  0.  0.
   495  4.94  0.  0.
   496  4.95  0.  0.
   497  4.96  0.  0.
   498  4.97  0.  0.
   499  4.98  0.  0.
   500  4.99  0.  0.
   501  5.00  0.  0.
   502  5.01  0.  0.
   503  5.02  0.  0.
   504  5.03  0.  0.
   505  5.04  0.  0.
   506  5.05  0.  0.
   507  5.06  0.  0.
   508  5.07  0.  0.
   509  5.08  0.  0.
   510  5.09  0.  0.
   511  5.10  0.  0.
   512  5.11  0.  0.
   513  5.12  0.  0.
   514  5.13  0.  0.
   515  5.14  0.  0.
   516  5.15  0.  0.
   517  5.16  0.  0.
   518  5.17  0.  0.
   519  5.18  0.  0.
   520  5.19  0.  0.
   521  5.20  0.  0.
   522  5.21  0.  0.
   523  5.22  0.  0.
   524  5.23  0.  0.
   525  5.24  0.  0.
   526  5.25  0.  0.
   527  5.26  0.  0.
   528  5.27  0.  0.
   529  5.28  0.  0.
   530  5.29  0.  0.
   531  5.30  0.  0.
   532  5.31  0.  0.
   533  5.32  0.  0.
   534  5.33  0.  0.
   535  5.34  0.  0.
   536  5.35  0.  0.
   537  5.36  0.  0.
   538  5.37  0.  0.
   539  5.38  0.  0.
   540  5.39  0.  0.
   541  5.40  0.  0.
   542  5.41  0.  0.
   543  5.42  0.  0.
   544  5.43  0.  0.
   545  5.44  0.  0.
   546  5.45  0.  0.
   547  5.46  0.  0.
   548  5.47  0.  0.
   549  5.48  0.  0.
   550  5.49  0.  0.
   551  5.50  0.  0.
   552  5.51  0.  0.
   553  5.52  0.  0.
   554  5.53  0.  0.
   555  5.54  0.  0.
   556  5.55  0.  0.
   557  5.56  0.  0.
   558  5.57  0.  0.
   559  5.58  0.  0.
   560  5.59  0.  0.
   561  5.60  0.  0.
   562  5.61  0.  0.
   563  5.62  0.  0.
   564  5.63  0.  0.
   565  5.64  0.  0.
   566  5.65  0.  0.
   567  5.66  0.  0.
   568  5.67  0.  0.
   569  5.68  0.  0.
   570  5.69  0.  0.
   571  5.70  0.  0.
   572  5.71  0.  0.
   573  5.72  0.  0.
   574  5.73  0.  0.
   575  5.74  0.  0.
   576  5.75  0.  0.
   577  5.76  0.  0.
   578  5.77  0.  0.
   579  5.78  0.  0.
   580  5.79  0.  0.
   581  5.80  0.  0.
   582  5.81  0.  0.
   583  5.82  0.  0.
   584  5.83  0.  0.
   585  5.84  0.  0.
   586  5.85  0.  0.
   587  5.86  0.  0.
   588  5.87  0.  0.
   589  5.88  0.  0.
   590  5.89  0.  0.
   591  5.90  0.  0.
   592  5.91  0.  0.
   593  5.92  0.  0.
   594  5.93  0.  0.
   595  5.94  0.  0.
   596  5.95  0.  0.
   597  5.96  0.  0.
   598  5.97  0.  0.
   599  5.98  0.  0.
   600  5.99  0.  0.
   1                         3.5781755660868E+00 -1.6711644369699E+00
     1  0.0000000000000E+00  4.2847632386600E-10 -1.2200025711895E-11
     2  1.0000000000000E-02  1.8950501808419E-03  3.4323053210305E-04
     3  2.0000000000000E-02  7.5709274079180E-03  1.3727382349268E-03
     4  3.0000000000000E-02  1.6999856400663E-02  3.0879704450547E-03
     5  4.0000000000000E-02  3.0135693687496E-02  5.4880027865571E-03
     6  5.0000000000000E-02  4.6914149819501E-02  8.5715342877602E-03
     7  6.0000000000000E-02  6.7253098913007E-02  1.2336880588853E-02
     8  7.0000000000000E-02  9.1052973973964E-02  1.6781965284306E-02
     9  8.0000000000000E-02  1.1819724602851E-01  2.1904309456268E-02
    10  9.0000000000000E-02  1.4855298466568E-01  2.7701019467252E-02
    11  1.0000000000000E-01  1.8197149719194E-01  3.4168773092125E-02
    12  1.1000000000000E-01  2.1828904320518E-01  4.1303804080978E-02
    13  1.2000000000000E-01  2.5732762102003E-01  4.9101885255503E-02
    14  1.3000000000000E-01  2.9889582201881E-01  5.7558310252321E-02
    15  1.4000000000000E-01  3.4278974866479E-01  6.6667874036894E-02
    16  1.5000000000000E-01  3.8879399159864E-01  7.6424852321543E-02
    17  1.6000000000000E-01  4.3668266094637E-01  8.6822980030266E-02
    18  1.7000000000000E-01  4.8622046669960E-01  9.7855428961817E-02
    19  1.8000000000000E-01  5.3716384278749E-01  1.0951478481053E-01
    20  1.9000000000000E-01  5.8926210924585E-01  1.2179302371178E-01
    21  2.0000000000000E-01  6.4225866670381E-01  1.3468148848582E-01
    22  2.1000000000000E-01  6.9589221725265E-01  1.4817086475940E-01
    23  2.2000000000000E-01  7.4989800563610E-01  1.6225115715034E-01
    24  2.3000000000000E-01  8.0400907460759E-01  1.7691166570411E-01
    25  2.4000000000000E-01  8.5795752823670E-01  1.9214096277530E-01
    26  2.5000000000000E-01  9.1147579691714E-01  2.0792687054982E-01
    27  2.6000000000000E-01  9.6429789782918E-01  2.2425643940504E-01
    28  2.7000000000000E-01  1.0161606846437E+00  2.4111592730652E-01
    29  2.8000000000000E-01  1.0668050803200E+00  2.5849078043965E-01
    30  2.9000000000000E-01  1.1159772869467E+00  2.7636561527372E-01
    31  3.0000000000000E-01  1.1634299667033E+00  2.9472420225420E-01
    32  3.1000000000000E-01  1.2089233881789E+00  3.1354945131574E-01
    33  3.2000000000000E-01  1.2522265324729E+00  3.3282339940508E-01
    34  3.3000000000000E-01  1.2931181537182E+00  3.5252720019776E-01
    35  3.4000000000000E-01  1.3313877889152E+00  3.7264111618702E-01
    36  3.5000000000000E-01  1.3668367122324E+00  3.9314451331640E-01
    37  3.6000000000000E-01  1.3992788292270E+00  4.1401585831970E-01
    38  3.7000000000000E-01  1.4285415067577E+00  4.3523271892332E-01
    39  3.8000000000000E-01  1.4544663347033E+00  4.5677176705642E-01
    40  3.9000000000000E-01  1.4769098159581E+00  4.7860878520358E-01
    41  4.0000000000000E-01  1.4957439815590E+00  5.0071867602324E-01
    42  4.1000000000000E-01  1.5108569281879E+00  5.2307547534299E-01
    43  4.2000000000000E-01  1.5221532757036E+00  5.4565236862943E-01
    44  4.3000000000000E-01  1.5295545427783E+00  5.6842171101644E-01
    45  4.4000000000000E-01  1.5329994391392E+00  5.9135505096117E-01
    46  4.5000000000000E-01  1.5324440733548E+00  6.1442315758134E-01
    47  4.6000000000000E-01  1.5278620755433E+00  6.3759605171195E-01
    48  4.7000000000000E-01  1.5192446348265E+00  6.6084304070235E-01
    49  4.8000000000000E-01  1.5066004517904E+00  6.8413275695805E-01
    50  4.9000000000000E-01  1.4899556066588E+00  7.0743320021374E-01
    51  5.0000000000000E-01  1.4693533443165E+00  7.3071178350641E-01
    52  5.1000000000000E-01  1.4448537777498E+00  7.5393538279905E-01
    53  5.2000000000000E-01  1.4165335118869E+00  7.7707039018707E-01
    54  5.3000000000000E-01  1.3844851902289E+00  8.0008277060125E-01
    55  5.4000000000000E-01  1.3488169670518E+00  8.2293812190211E-01
    56  5.5000000000000E-01  1.3096519083357E+00  8.4560173824253E-01
    57  5.6000000000000E-01  1.2671273249343E+00  8.6803867655657E-01
    58  5.7000000000000E-01  1.2213940418332E+00  8.9021382601478E-01
    59  5.8000000000000E-01  1.1726156076604E+00  9.1209198026814E-01
    60  5.9000000000000E-01  1.1209674489005E+00  9.3363791228554E-01
    61  6.0000000000000E-01  1.0666359735317E+00  9.5481645157271E-01
    62  6.1000000000000E-01  1.0098176290375E+00  9.7559256354443E-01
    63  6.2000000000000E-01  9.5071791995851E-01  9.9593143080608E-01
    64  6.3000000000000E-01  8.8955039032649E-01  1.0157985360859E+00
    65  6.4000000000000E-01  8.2653557647333E-01  1.0351597465456E+00
    66  6.5000000000000E-01  7.6189993582544E-01  1.0539813991840E+00
    67  6.6000000000000E-01  6.9587475738101E-01  1.0722303870359E+00
    68  6.7000000000000E-01  6.2869505962146E-01  1.0898742458598E+00
    69  6.8000000000000E-01  5.6059848163135E-01  1.1068812409950E+00
    70  6.9000000000000E-01  4.9182417319025E-01  1.1232204540649E+00
    71  7.0000000000000E-01  4.2261168955828E-01  1.1388618691929E+00
    72  7.1000000000000E-01  3.5319989660318E-01  1.1537764583936E+00
    73  7.2000000000000E-01  2.8382589181130E-01  1.1679362657986E+00
    74  7.3000000000000E-01  2.1472394658986E-01  1.1813144903723E+00
    75  7.4000000000000E-01  1.4612447510254E-01  1.1938855667748E+00
    76  7.5000000000000E-01  7.8253034687210E-02  1.2056252440268E+00
    77  7.6000000000000E-01  1.1329362684244E-02  1.2165106616373E+00
    78  7.7000000000000E-01 -5.4433545742479E-02  1.2265204228566E+00
    79  7.8000000000000E-01 -1.1883031447970E-01  1.2356346647248E+00
    80  7.9000000000000E-01 -1.8166401401457E-01  1.2438351245919E+00
    81  8.0000000000000E-01 -2.4274693595352E-01  1.2511052027972E+00
    82  8.1000000000000E-01 -3.0190131113501E-01  1.2574300212039E+00
    83  8.2000000000000E-01 -3.5895996830894E-01  1.2627964773006E+00
    84  8.3000000000000E-01 -4.1376693071749E-01  1.2671932935923E+00
    85  8.4000000000000E-01 -4.6617794828588E-01  1.2706110620216E+00
    86  8.5000000000000E-01 -5.1606096351554E-01  1.2730422831783E+00
    87  8.6000000000000E-01 -5.6329650956246E-01  1.2744814000713E+00
    88  8.7000000000000E-01 -6.0777803937939E-01  1.2749248262609E+00
    89  8.8000000000000E-01 -6.4941218519836E-01  1.2743709681680E+00
    90  8.9000000000000E-01 -6.8811894802782E-01  1.2728202414000E+00
    91  9.0000000000000E-01 -7.2383181723428E-01  1.2702750809582E+00
    92  9.1000000000000E-01 -7.5649782066857E-01  1.2667399452131E+00