Ts    ONCVPSP-4.0.1  r_core=   1.00187   1.00187   0.90499   1.00187
117.0000     57.0000      230111    zatom,zion,pspd
8      11   3     4   600     0    pspcod,pspxc,lmax,lloc,mmax,r2well
5.99000000  5.00000000  0.00000000    rchrg fchrg qchrg
2     2     2     2     0    nproj
1     1           extension_switch
0                         1.3364092273992E+01 -5.3835334712810E+00
1  0.0000000000000E+00  2.0881472106993E-09  6.2687073310030E-09
2  1.0000000000000E-02  1.8124200005711E-01  6.2601794831575E-02
3  2.0000000000000E-02  3.6085982147857E-01  1.2519463990368E-01
4  3.0000000000000E-02  5.3724455228589E-01  1.8776727548761E-01
5  4.0000000000000E-02  7.0881769712085E-01  2.5030388339426E-01
6  5.0000000000000E-02  8.7404609307777E-01  3.1278195974418E-01
7  6.0000000000000E-02  1.0314564725739E+00  3.7517036544462E-01
8  7.0000000000000E-02  1.1796495525582E+00  4.3742760594143E-01
9  8.0000000000000E-02  1.3173135272697E+00  4.9950038554504E-01
10  9.0000000000000E-02  1.4432368397725E+00  5.6132247416168E-01
11  1.0000000000000E-01  1.5563201059861E+00  6.2281391582089E-01
12  1.1000000000000E-01  1.6555870643022E+00  6.8388059923409E-01
13  1.2000000000000E-01  1.7401944245627E+00  7.4441420102169E-01
14  1.3000000000000E-01  1.8094404925688E+00  8.0429250249535E-01
15  1.4000000000000E-01  1.8627724507959E+00  8.6338007126498E-01
16  1.5000000000000E-01  1.8997921829349E+00  9.2152928973772E-01
17  1.6000000000000E-01  1.9202605395339E+00  9.7858170405272E-01
18  1.7000000000000E-01  1.9240999545646E+00  1.0343696593879E+00
19  1.8000000000000E-01  1.9113953382599E+00  1.0887181810905E+00
20  1.9000000000000E-01  1.8823931900419E+00  1.1414470558852E+00
21  2.0000000000000E-01  1.8374988966327E+00  1.1923730636302E+00
22  2.1000000000000E-01  1.7772722042487E+00  1.2413123077848E+00
23  2.2000000000000E-01  1.7024208797464E+00  1.2880825919635E+00
24  2.3000000000000E-01  1.6137926032136E+00  1.3325057906381E+00
25  2.4000000000000E-01  1.5123651631999E+00  1.3744101641532E+00
26  2.5000000000000E-01  1.3992350548893E+00  1.4136325716128E+00
27  2.6000000000000E-01  1.2756046102889E+00  1.4500205397280E+00
28  2.7000000000000E-01  1.1427678171952E+00  1.4834341511927E+00
29  2.8000000000000E-01  1.0020950095006E+00  1.5137477223614E+00
30  2.9000000000000E-01  8.5501663456958E-01  1.5408512467101E+00
31  3.0000000000000E-01  7.0300632321830E-01  1.5646515875198E+00
32  3.1000000000000E-01  5.4756350362131E-01  1.5850734102019E+00
33  3.2000000000000E-01  3.9019581169387E-01  1.6020598514405E+00
34  3.3000000000000E-01  2.3240155671633E-01  1.6155729286601E+00
35  3.4000000000000E-01  7.5652501879913E-02  1.6255936990360E+00
36  3.5000000000000E-01 -7.8622785108865E-02  1.6321221822072E+00
37  3.6000000000000E-01 -2.2905476621382E-01  1.6351770648964E+00
38  3.7000000000000E-01 -3.7434772214871E-01  1.6347952087223E+00
39  3.8000000000000E-01 -5.1329328664314E-01  1.6310309845621E+00
40  3.9000000000000E-01 -6.4478254082005E-01  1.6239554579038E+00
41  4.0000000000000E-01 -7.6781651106128E-01  1.6136554497554E+00
42  4.1000000000000E-01 -8.8151494526060E-01  1.6002324969507E+00
43  4.2000000000000E-01 -9.8512327612014E-01  1.5838017342186E+00
44  4.3000000000000E-01 -1.0780177152290E+00  1.5644907183122E+00
45  4.4000000000000E-01 -1.1597084571324E+00  1.5424382119890E+00
46  4.5000000000000E-01 -1.2298410075128E+00  1.5177929428732E+00
47  4.6000000000000E-01 -1.2881956830464E+00  1.4907123493799E+00
48  4.7000000000000E-01 -1.3346853616198E+00  1.4613613231259E+00
49  4.8000000000000E-01 -1.3693515896357E+00  1.4299109547337E+00
50  4.9000000000000E-01 -1.3923591774512E+00  1.3965372877977E+00
51  5.0000000000000E-01 -1.4039894340904E+00  1.3614200841311E+00
52  5.1000000000000E-01 -1.4046322078931E+00  1.3247416023172E+00
53  5.2000000000000E-01 -1.3947769105254E+00  1.2866853910932E+00
54  5.3000000000000E-01 -1.3750027077711E+00  1.2474350992007E+00
55  5.4000000000000E-01 -1.3459680618942E+00  1.2071733040010E+00
56  5.5000000000000E-01 -1.3083998074064E+00  1.1660803623190E+00
57  5.6000000000000E-01 -1.2630819352423E+00  1.1243332885266E+00
58  5.7000000000000E-01 -1.2108442501819E+00  1.0821046667001E+00
59  5.8000000000000E-01 -1.1525510535145E+00  1.0395616056240E+00
60  5.9000000000000E-01 -1.0890899881127E+00  9.9686474731673E-01
61  6.0000000000000E-01 -1.0213611670093E+00  9.5416734146858E-01
62  6.1000000000000E-01 -9.5026668996543E-01  9.1161439954385E-01
63  6.2000000000000E-01 -8.7670063607907E-01  8.6934194318379E-01
64  6.3000000000000E-01 -8.0153960482480E-01  8.2747636182684E-01
65  6.4000000000000E-01 -7.2563386356704E-01  7.8613389405752E-01
66  6.5000000000000E-01 -6.4979914696931E-01  7.4542024604923E-01
67  6.6000000000000E-01 -5.7480914311219E-01  7.0543035856412E-01
68  6.7000000000000E-01 -5.0138869268339E-01  6.6624833133954E-01
69  6.8000000000000E-01 -4.3020772132114E-01  6.2794751039018E-01
70  6.9000000000000E-01 -3.6187592094903E-01  5.9059073988867E-01
71  7.0000000000000E-01 -2.9693819348413E-01  5.5423077599192E-01
72  7.1000000000000E-01 -2.3587086927214E-01  5.1891085541898E-01
73  7.2000000000000E-01 -1.7907871255942E-01  4.8466540694375E-01
74  7.3000000000000E-01 -1.2689272675344E-01  4.5152088943989E-01
75  7.4000000000000E-01 -7.9568772621860E-02  4.1949673590593E-01
76  7.5000000000000E-01 -3.7287012413439E-02  3.8860637920130E-01
77  7.6000000000000E-01 -1.5219166288751E-04  3.5885833221683E-01
78  7.7000000000000E-01  3.1805232258567E-02  3.3025729304067E-01
79  7.8000000000000E-01  5.8627110297473E-02  3.0280524448518E-01
80  7.9000000000000E-01  8.0424772575020E-02  2.7650251719379E-01
81  8.0000000000000E-01  9.7375360618970E-02  2.5134878648905E-01
82  8.1000000000000E-01  1.0971734240297E-01  2.2734397514528E-01
83  8.2000000000000E-01  1.1774524428479E-01  2.0448903731709E-01
84  8.3000000000000E-01  1.2180364817505E-01  1.8278660282602E-01
85  8.4000000000000E-01  1.2228051764562E-01  1.6224146575847E-01
86  8.5000000000000E-01  1.1959993265273E-01  1.4286090667838E-01
87  8.6000000000000E-01  1.1421432847591E-01  1.2465484349710E-01
88  8.7000000000000E-01  1.0659634967808E-01  1.0763581194122E-01
89  8.8000000000000E-01  9.7230443673771E-02  9.1818782375286E-02
90  8.9000000000000E-01  8.6604330257787E-02  7.7220825266752E-02
91  9.0000000000000E-01  7.5200490668348E-02  6.3860641827083E-02
92  9.1000000000000E-01  6.3487785325911E-02  5.1757964254413E-02
93  9.2000000000000E-01  5.1909592009373E-02  4.0931343395355E-02
94  9.3000000000000E-01  4.0865179971258E-02  3.1393130972573E-02
95  9.4000000000000E-01  3.0700332218059E-02  2.3148080709047E-02
96  9.5000000000000E-01  2.1702642493657E-02  1.6193678469221E-02
97  9.6000000000000E-01  1.4115188407956E-02  1.0500491588856E-02
98  9.7000000000000E-01  8.1139750381648E-03  6.0383602738391E-03
99  9.8000000000000E-01  3.7679754980346E-03  2.8152613577785E-03
100  9.9000000000000E-01  1.0875625805417E-03  8.1903916146323E-04
101  1.0000000000000E+00  3.8847456372822E-05  2.9664206419130E-05
102  1.0100000000000E+00  3.8280163805684E-06  2.9129522023363E-06
103  1.0200000000000E+00 -3.2999078559995E-09 -2.4989994237003E-09
104  1.03  0.  0.
105  1.04  0.  0.
106  1.05  0.  0.
107  1.06  0.  0.
108  1.07  0.  0.
109  1.08  0.  0.
110  1.09  0.  0.
111  1.10  0.  0.
112  1.11  0.  0.
113  1.12  0.  0.
114  1.13  0.  0.
115  1.14  0.  0.
116  1.15  0.  0.
117  1.16  0.  0.
118  1.17  0.  0.
119  1.18  0.  0.
120  1.19  0.  0.
121  1.20  0.  0.
122  1.21  0.  0.
123  1.22  0.  0.
124  1.23  0.  0.
125  1.24  0.  0.
126  1.25  0.  0.
127  1.26  0.  0.
128  1.27  0.  0.
129  1.28  0.  0.
130  1.29  0.  0.
131  1.30  0.  0.
132  1.31  0.  0.
133  1.32  0.  0.
134  1.33  0.  0.
135  1.34  0.  0.
136  1.35  0.  0.
137  1.36  0.  0.
138  1.37  0.  0.
139  1.38  0.  0.
140  1.39  0.  0.
141  1.40  0.  0.
142  1.41  0.  0.
143  1.42  0.  0.
144  1.43  0.  0.
145  1.44  0.  0.
146  1.45  0.  0.
147  1.46  0.  0.
148  1.47  0.  0.
149  1.48  0.  0.
150  1.49  0.  0.
151  1.50  0.  0.
152  1.51  0.  0.
153  1.52  0.  0.
154  1.53  0.  0.
155  1.54  0.  0.
156  1.55  0.  0.
157  1.56  0.  0.
158  1.57  0.  0.
159  1.58  0.  0.
160  1.59  0.  0.
161  1.60  0.  0.
162  1.61  0.  0.
163  1.62  0.  0.
164  1.63  0.  0.
165  1.64  0.  0.
166  1.65  0.  0.
167  1.66  0.  0.
168  1.67  0.  0.
169  1.68  0.  0.
170  1.69  0.  0.
171  1.70  0.  0.
172  1.71  0.  0.
173  1.72  0.  0.
174  1.73  0.  0.
175  1.74  0.  0.
176  1.75  0.  0.
177  1.76  0.  0.
178  1.77  0.  0.
179  1.78  0.  0.
180  1.79  0.  0.
181  1.80  0.  0.
182  1.81  0.  0.
183  1.82  0.  0.
184  1.83  0.  0.
185  1.84  0.  0.
186  1.85  0.  0.
187  1.86  0.  0.
188  1.87  0.  0.
189  1.88  0.  0.
190  1.89  0.  0.
191  1.90  0.  0.
192  1.91  0.  0.
193  1.92  0.  0.
194  1.93  0.  0.
195  1.94  0.  0.
196  1.95  0.  0.
197  1.96  0.  0.
198  1.97  0.  0.
199  1.98  0.  0.
200  1.99  0.  0.
201  2.00  0.  0.
202  2.01  0.  0.
203  2.02  0.  0.
204  2.03  0.  0.
205  2.04  0.  0.
206  2.05  0.  0.
207  2.06  0.  0.
208  2.07  0.  0.
209  2.08  0.  0.
210  2.09  0.  0.
211  2.10  0.  0.
212  2.11  0.  0.
213  2.12  0.  0.
214  2.13  0.  0.
215  2.14  0.  0.
216  2.15  0.  0.
217  2.16  0.  0.
218  2.17  0.  0.
219  2.18  0.  0.
220  2.19  0.  0.
221  2.20  0.  0.
222  2.21  0.  0.
223  2.22  0.  0.
224  2.23  0.  0.
225  2.24  0.  0.
226  2.25  0.  0.
227  2.26  0.  0.
228  2.27  0.  0.
229  2.28  0.  0.
230  2.29  0.  0.
231  2.30  0.  0.
232  2.31  0.  0.
233  2.32  0.  0.
234  2.33  0.  0.
235  2.34  0.  0.
236  2.35  0.  0.
237  2.36  0.  0.
238  2.37  0.  0.
239  2.38  0.  0.
240  2.39  0.  0.
241  2.40  0.  0.
242  2.41  0.  0.
243  2.42  0.  0.
244  2.43  0.  0.
245  2.44  0.  0.
246  2.45  0.  0.
247  2.46  0.  0.
248  2.47  0.  0.
249  2.48  0.  0.
250  2.49  0.  0.
251  2.50  0.  0.
252  2.51  0.  0.
253  2.52  0.  0.
254  2.53  0.  0.
255  2.54  0.  0.
256  2.55  0.  0.
257  2.56  0.  0.
258  2.57  0.  0.
259  2.58  0.  0.
260  2.59  0.  0.
261  2.60  0.  0.
262  2.61  0.  0.
263  2.62  0.  0.
264  2.63  0.  0.
265  2.64  0.  0.
266  2.65  0.  0.
267  2.66  0.  0.
268  2.67  0.  0.
269  2.68  0.  0.
270  2.69  0.  0.
271  2.70  0.  0.
272  2.71  0.  0.
273  2.72  0.  0.
274  2.73  0.  0.
275  2.74  0.  0.
276  2.75  0.  0.
277  2.76  0.  0.
278  2.77  0.  0.
279  2.78  0.  0.
280  2.79  0.  0.
281  2.80  0.  0.
282  2.81  0.  0.
283  2.82  0.  0.
284  2.83  0.  0.
285  2.84  0.  0.
286  2.85  0.  0.
287  2.86  0.  0.
288  2.87  0.  0.
289  2.88  0.  0.
290  2.89  0.  0.
291  2.90  0.  0.
292  2.91  0.  0.
293  2.92  0.  0.
294  2.93  0.  0.
295  2.94  0.  0.
296  2.95  0.  0.
297  2.96  0.  0.
298  2.97  0.  0.
299  2.98  0.  0.
300  2.99  0.  0.
301  3.00  0.  0.
302  3.01  0.  0.
303  3.02  0.  0.
304  3.03  0.  0.
305  3.04  0.  0.
306  3.05  0.  0.
307  3.06  0.  0.
308  3.07  0.  0.
309  3.08  0.  0.
310  3.09  0.  0.
311  3.10  0.  0.
312  3.11  0.  0.
313  3.12  0.  0.
314  3.13  0.  0.
315  3.14  0.  0.
316  3.15  0.  0.
317  3.16  0.  0.
318  3.17  0.  0.
319  3.18  0.  0.
320  3.19  0.  0.
321  3.20  0.  0.
322  3.21  0.  0.
323  3.22  0.  0.
324  3.23  0.  0.
325  3.24  0.  0.
326  3.25  0.  0.
327  3.26  0.  0.
328  3.27  0.  0.
329  3.28  0.  0.
330  3.29  0.  0.
331  3.30  0.  0.
332  3.31  0.  0.
333  3.32  0.  0.
334  3.33  0.  0.
335  3.34  0.  0.
336  3.35  0.  0.
337  3.36  0.  0.
338  3.37  0.  0.
339  3.38  0.  0.
340  3.39  0.  0.
341  3.40  0.  0.
342  3.41  0.  0.
343  3.42  0.  0.
344  3.43  0.  0.
345  3.44  0.  0.
346  3.45  0.  0.
347  3.46  0.  0.
348  3.47  0.  0.
349  3.48  0.  0.
350  3.49  0.  0.
351  3.50  0.  0.
352  3.51  0.  0.
353  3.52  0.  0.
354  3.53  0.  0.
355  3.54  0.  0.
356  3.55  0.  0.
357  3.56  0.  0.
358  3.57  0.  0.
359  3.58  0.  0.
360  3.59  0.  0.
361  3.60  0.  0.
362  3.61  0.  0.
363  3.62  0.  0.
364  3.63  0.  0.
365  3.64  0.  0.
366  3.65  0.  0.
367  3.66  0.  0.
368  3.67  0.  0.
369  3.68  0.  0.
370  3.69  0.  0.
371  3.70  0.  0.
372  3.71  0.  0.
373  3.72  0.  0.
374  3.73  0.  0.
375  3.74  0.  0.
376  3.75  0.  0.
377  3.76  0.  0.
378  3.77  0.  0.
379  3.78  0.  0.
380  3.79  0.  0.
381  3.80  0.  0.
382  3.81  0.  0.
383  3.82  0.  0.
384  3.83  0.  0.
385  3.84  0.  0.
386  3.85  0.  0.
387  3.86  0.  0.
388  3.87  0.  0.
389  3.88  0.  0.
390  3.89  0.  0.
391  3.90  0.  0.
392  3.91  0.  0.
393  3.92  0.  0.
394  3.93  0.  0.
395  3.94  0.  0.
396  3.95  0.  0.
397  3.96  0.  0.
398  3.97  0.  0.
399  3.98  0.  0.
400  3.99  0.  0.
401  4.00  0.  0.
402  4.01  0.  0.
403  4.02  0.  0.
404  4.03  0.  0.
405  4.04  0.  0.
406  4.05  0.  0.
407  4.06  0.  0.
408  4.07  0.  0.
409  4.08  0.  0.
410  4.09  0.  0.
411  4.10  0.  0.
412  4.11  0.  0.
413  4.12  0.  0.
414  4.13  0.  0.
415  4.14  0.  0.
416  4.15  0.  0.
417  4.16  0.  0.
418  4.17  0.  0.
419  4.18  0.  0.
420  4.19  0.  0.
421  4.20  0.  0.
422  4.21  0.  0.
423  4.22  0.  0.
424  4.23  0.  0.
425  4.24  0.  0.
426  4.25  0.  0.
427  4.26  0.  0.
428  4.27  0.  0.
429  4.28  0.  0.
430  4.29  0.  0.
431  4.30  0.  0.
432  4.31  0.  0.
433  4.32  0.  0.
434  4.33  0.  0.
435  4.34  0.  0.
436  4.35  0.  0.
437  4.36  0.  0.
438  4.37  0.  0.
439  4.38  0.  0.
440  4.39  0.  0.
441  4.40  0.  0.
442  4.41  0.  0.
443  4.42  0.  0.
444  4.43  0.  0.
445  4.44  0.  0.
446  4.45  0.  0.
447  4.46  0.  0.
448  4.47  0.  0.
449  4.48  0.  0.
450  4.49  0.  0.
451  4.50  0.  0.
452  4.51  0.  0.
453  4.52  0.  0.
454  4.53  0.  0.
455  4.54  0.  0.
456  4.55  0.  0.
457  4.56  0.  0.
458  4.57  0.  0.
459  4.58  0.  0.
460  4.59  0.  0.
461  4.60  0.  0.
462  4.61  0.  0.
463  4.62  0.  0.
464  4.63  0.  0.
465  4.64  0.  0.
466  4.65  0.  0.
467  4.66  0.  0.
468  4.67  0.  0.
469  4.68  0.  0.
470  4.69  0.  0.
471  4.70  0.  0.
472  4.71  0.  0.
473  4.72  0.  0.
474  4.73  0.  0.
475  4.74  0.  0.
476  4.75  0.  0.
477  4.76  0.  0.
478  4.77  0.  0.
479  4.78  0.  0.
480  4.79  0.  0.
481  4.80  0.  0.
482  4.81  0.  0.
483  4.82  0.  0.
484  4.83  0.  0.
485  4.84  0.  0.
486  4.85  0.  0.
487  4.86  0.  0.
488  4.87  0.  0.
489  4.88  0.  0.
490  4.89  0.  0.
491  4.90  0.  0.
492  4.91  0.  0.
493  4.92  0.  0.
494  4.93  0.  0.
495  4.94  0.  0.
496  4.95  0.  0.
497  4.96  0.  0.
498  4.97  0.  0.
499  4.98  0.  0.
500  4.99  0.  0.
501  5.00  0.  0.
502  5.01  0.  0.
503  5.02  0.  0.
504  5.03  0.  0.
505  5.04  0.  0.
506  5.05  0.  0.
507  5.06  0.  0.
508  5.07  0.  0.
509  5.08  0.  0.
510  5.09  0.  0.
511  5.10  0.  0.
512  5.11  0.  0.
513  5.12  0.  0.
514  5.13  0.  0.
515  5.14  0.  0.
516  5.15  0.  0.
517  5.16  0.  0.
518  5.17  0.  0.
519  5.18  0.  0.
520  5.19  0.  0.
521  5.20  0.  0.
522  5.21  0.  0.
523  5.22  0.  0.
524  5.23  0.  0.
525  5.24  0.  0.
526  5.25  0.  0.
527  5.26  0.  0.
528  5.27  0.  0.
529  5.28  0.  0.
530  5.29  0.  0.
531  5.30  0.  0.
532  5.31  0.  0.
533  5.32  0.  0.
534  5.33  0.  0.
535  5.34  0.  0.
536  5.35  0.  0.
537  5.36  0.  0.
538  5.37  0.  0.
539  5.38  0.  0.
540  5.39  0.  0.
541  5.40  0.  0.
542  5.41  0.  0.
543  5.42  0.  0.
544  5.43  0.  0.
545  5.44  0.  0.
546  5.45  0.  0.
547  5.46  0.  0.
548  5.47  0.  0.
549  5.48  0.  0.
550  5.49  0.  0.
551  5.50  0.  0.
552  5.51  0.  0.
553  5.52  0.  0.
554  5.53  0.  0.
555  5.54  0.  0.
556  5.55  0.  0.
557  5.56  0.  0.
558  5.57  0.  0.
559  5.58  0.  0.
560  5.59  0.  0.
561  5.60  0.  0.
562  5.61  0.  0.
563  5.62  0.  0.
564  5.63  0.  0.
565  5.64  0.  0.
566  5.65  0.  0.
567  5.66  0.  0.
568  5.67  0.  0.
569  5.68  0.  0.
570  5.69  0.  0.
571  5.70  0.  0.
572  5.71  0.  0.
573  5.72  0.  0.
574  5.73  0.  0.
575  5.74  0.  0.
576  5.75  0.  0.
577  5.76  0.  0.
578  5.77  0.  0.
579  5.78  0.  0.
580  5.79  0.  0.
581  5.80  0.  0.
582  5.81  0.  0.
583  5.82  0.  0.
584  5.83  0.  0.
585  5.84  0.  0.
586  5.85  0.  0.
587  5.86  0.  0.
588  5.87  0.  0.
589  5.88  0.  0.
590  5.89  0.  0.
591  5.90  0.  0.
592  5.91  0.  0.
593  5.92  0.  0.
594  5.93  0.  0.
595  5.94  0.  0.
596  5.95  0.  0.
597  5.96  0.  0.
598  5.97  0.  0.
599  5.98  0.  0.
600  5.99  0.  0.
1                         8.8022325462606E+00 -3.1167001922469E+00
1  0.0000000000000E+00  1.4052876640136E-08 -2.8781632493979E-08
2  1.0000000000000E-02  7.5353568577539E-03  7.9578106596125E-04
3  2.0000000000000E-02  3.0034128881791E-02  3.2011338163203E-03
4  3.0000000000000E-02  6.7175647706105E-02  7.2694551611253E-03
5  4.0000000000000E-02  1.1842955686164E-01  1.3087653889859E-02
6  5.0000000000000E-02  1.8306194659198E-01  2.0773090048007E-02
7  6.0000000000000E-02  2.6014393649533E-01  3.0469424484204E-02
8  7.0000000000000E-02  3.4856269239110E-01  4.2341507222742E-02
9  8.0000000000000E-02  4.4703484975635E-01  5.6569462097840E-02
10  9.0000000000000E-02  5.5412229533126E-01  7.3342148328300E-02
11  1.0000000000000E-01  6.6825023054265E-01  9.2850196650156E-02
12  1.1000000000000E-01  7.8772740523376E-01  1.1527882774853E-01
13  1.2000000000000E-01  9.1076836834303E-01  1.4080066379261E-01
14  1.3000000000000E-01  1.0355175346926E+00  1.6956873991082E-01
15  1.4000000000000E-01  1.1600748154751E+00  2.0170991174833E-01
16  1.5000000000000E-01  1.2825225063400E+00  2.3731883838477E-01
17  1.6000000000000E-01  1.4009530735096E+00  2.7645269764203E-01
18  1.7000000000000E-01  1.5134974276628E+00  3.1912676416193E-01
19  1.8000000000000E-01  1.6183532301113E+00  3.6531095070932E-01
20  1.9000000000000E-01  1.7138127387221E+00  4.1492738118725E-01
21  2.0000000000000E-01  1.7982896746486E+00  4.6784903111069E-01
22  2.1000000000000E-01  1.8703445774395E+00  5.2389943903755E-01
23  2.2000000000000E-01  1.9287081173323E+00  5.8285346190053E-01
24  2.3000000000000E-01  1.9723018507810E+00  6.4443901940471E-01
25  2.4000000000000E-01  2.0002559391919E+00  7.0833974857852E-01
26  2.5000000000000E-01  2.0119234014194E+00  7.7419846991682E-01
27  2.6000000000000E-01  2.0068905370774E+00  8.4162135183669E-01
28  2.7000000000000E-01  1.9849832386776E+00  9.1018265063857E-01
29  2.8000000000000E-01  1.9462690038756E+00  9.7942989884083E-01
30  2.9000000000000E-01  1.8910545619126E+00  1.0488894154053E+00
31  3.0000000000000E-01  1.8198791373905E+00  1.1180720165433E+00
32  3.1000000000000E-01  1.7335034861214E+00  1.1864788148378E+00
33  3.2000000000000E-01  1.6328949480071E+00  1.2536070065357E+00
34  3.3000000000000E-01  1.5192088667110E+00  1.3189555611341E+00
35  3.4000000000000E-01  1.3937668213538E+00  1.3820307428292E+00
36  3.5000000000000E-01  1.2580321979365E+00  1.4423514090305E+00
37  3.6000000000000E-01  1.1135836944491E+00  1.4994540460132E+00
38  3.7000000000000E-01  9.6208740102822E-01  1.5528975150519E+00
39  3.8000000000000E-01  8.0526812318292E-01  1.6022674933210E+00
40  3.9000000000000E-01  6.4488062091182E-01  1.6471806019478E+00
41  4.0000000000000E-01  4.8268141931064E-01  1.6872882185160E+00
42  4.1000000000000E-01  3.2040180770845E-01  1.7222799729501E+00
43  4.2000000000000E-01  1.5972258609675E-01  1.7518869241756E+00
44  4.3000000000000E-01  2.2510420647683E-03  1.7758844105971E+00
45  4.4000000000000E-01 -1.5049944818761E-01  1.7940945607955E+00
46  4.5000000000000E-01 -2.9712690113774E-01  1.8063884426447E+00
47  4.6000000000000E-01 -4.3635510194468E-01  1.8126878201037E+00
48  4.7000000000000E-01 -5.6704479524327E-01  1.8129664781936E+00
49  4.8000000000000E-01 -6.8820171556965E-01  1.8072510690391E+00
50  4.9000000000000E-01 -7.9898157979648E-01  1.7956214262724E+00
51  5.0000000000000E-01 -8.9869225028948E-01  1.7782102923664E+00
52  5.1000000000000E-01 -9.8679334921406E-01  1.7552024042848E+00
53  5.2000000000000E-01 -1.0628936588350E+00  1.7268328876814E+00
54  5.3000000000000E-01 -1.1267466779304E+00  1.6933849190385E+00
55  5.4000000000000E-01 -1.1782447196962E+00  1.6551866286079E+00
56  5.5000000000000E-01 -1.2174119318563E+00  1.6126072345735E+00
57  5.6000000000000E-01 -1.2443965962065E+00  1.5660524199799E+00
58  5.7000000000000E-01 -1.2594630245357E+00  1.5159589879162E+00
59  5.8000000000000E-01 -1.2629833136516E+00  1.4627888562397E+00
60  5.9000000000000E-01 -1.2554291576411E+00  1.4070224796309E+00
61  6.0000000000000E-01 -1.2373638445881E+00  1.3491518127213E+00
62  6.1000000000000E-01 -1.2094344921253E+00  1.2896729521151E+00
63  6.2000000000000E-01 -1.1723645058563E+00  1.2290786160249E+00
64  6.3000000000000E-01 -1.1269461811529E+00  1.1678506367177E+00
65  6.4000000000000E-01 -1.0740333160118E+00  1.1064526519556E+00
66  6.5000000000000E-01 -1.0145336638728E+00  1.0453231862139E+00
67  6.6000000000000E-01 -9.4940103309095E-01  9.8486931007841E-01
68  6.7000000000000E-01 -8.7962683574352E-01  9.2546105653827E-01
69  6.8000000000000E-01 -8.0623090323344E-01  8.6742675592891E-01
70  6.9000000000000E-01 -7.3025141925809E-01  8.1104942741487E-01
71  7.0000000000000E-01 -6.5273387061250E-01  7.5656433483383E-01
72  7.1000000000000E-01 -5.7471898046303E-01  7.0415777948059E-01
73  7.2000000000000E-01 -4.9722966375710E-01  6.5396716329017E-01
74  7.3000000000000E-01 -4.2125712619682E-01  6.0608231441138E-01
75  7.4000000000000E-01 -3.4774631208253E-01  5.6054802501811E-01
76  7.5000000000000E-01 -2.7758098740880E-01  5.1736771015370E-01
77  7.6000000000000E-01 -2.1156881796154E-01  4.7650805819374E-01
78  7.7000000000000E-01 -1.5042686314328E-01  4.3790450981610E-01
79  7.8000000000000E-01 -9.4767950662185E-02  4.0146737468757E-01
80  7.9000000000000E-01 -4.5088421615876E-02  3.6708837466799E-01
81  8.0000000000000E-01 -1.7577373661049E-03  3.3464739014622E-01
82  8.1000000000000E-01  3.4989582502012E-02  3.0401918274827E-01
83  8.2000000000000E-01  6.5059268154197E-02  2.7507987329165E-01
84  8.3000000000000E-01  8.8499499970728E-02  2.4771296829299E-01
85  8.4000000000000E-01  1.0549973862456E-01  2.2181475094996E-01
86  8.5000000000000E-01  1.1638603017190E-01  1.9729888232212E-01
87  8.6000000000000E-01  1.2161275321651E-01  1.7410009409521E-01
88  8.7000000000000E-01  1.2175090515167E-01  1.5217689422283E-01
89  8.8000000000000E-01  1.1747315703536E-01  1.3151324908882E-01
90  8.9000000000000E-01  1.0953603607478E-01  1.1211924880681E-01
91  9.0000000000000E-01  9.8759710549379E-02  9.4030801615390E-02
92  9.1000000000000E-01  8.6005861887395E-02  7.7308392639451E-02
93  9.2000000000000E-01  7.2145232777033E-02  6.2030466778044E-02
94  9.3000000000000E-01  5.8006078152025E-02  4.8277534759826E-02
95  9.4000000000000E-01  4.4341661572705E-02  3.6126327096319E-02
96  9.5000000000000E-01  3.1808717110309E-02  2.5648640631876E-02
97  9.6000000000000E-01  2.0923156643881E-02  1.6880353834351E-02
98  9.7000000000000E-01  1.2085517837477E-02  9.8549562824138E-03
99  9.8000000000000E-01  5.6040156708843E-03  4.6653112486201E-03
100  9.9000000000000E-01  1.6049242012852E-03  1.3782352827389E-03
101  1.0000000000000E+00  5.6514726099216E-05  5.0746222500793E-05
102  1.0100000000000E+00  5.5690671015127E-06  4.9767944959433E-06
103  1.0200000000000E+00 -4.8266556502342E-09 -4.2426607930885E-09
104  1.03  0.  0.
105  1.04  0.  0.
106  1.05  0.  0.
107  1.06  0.  0.
108  1.07  0.  0.
109  1.08  0.  0.
110  1.09  0.  0.
111  1.10  0.  0.
112  1.11  0.  0.
113  1.12  0.  0.
114  1.13  0.  0.
115  1.14  0.  0.
116  1.15  0.  0.
117  1.16  0.  0.
118  1.17  0.  0.
119  1.18  0.  0.
120  1.19  0.  0.
121  1.20  0.  0.
122  1.21  0.  0.
123  1.22  0.  0.
124  1.23  0.  0.
125  1.24  0.  0.
126  1.25  0.  0.
127  1.26  0.  0.
128  1.27  0.  0.
129  1.28  0.  0.
130  1.29  0.  0.
131  1.30  0.  0.
132  1.31  0.  0.
133  1.32  0.  0.
134  1.33  0.  0.
135  1.34  0.  0.
136  1.35  0.  0.
137  1.36  0.  0.
138  1.37  0.  0.
139  1.38  0.  0.
140  1.39  0.  0.
141  1.40  0.  0.
142  1.41  0.  0.
143  1.42  0.  0.
144  1.43  0.  0.
145  1.44  0.  0.
146  1.45  0.  0.
147  1.46  0.  0.
148  1.47  0.  0.
149  1.48  0.  0.
150  1.49  0.  0.
151  1.50  0.  0.
152  1.51  0.  0.
153  1.52  0.  0.
154  1.53  0.  0.
155  1.54  0.  0.
156  1.55  0.  0.
157  1.56  0.  0.
158  1.57  0.  0.
159  1.58  0.  0.
160  1.59  0.  0.
161  1.60  0.  0.
162  1.61  0.  0.
163  1.62  0.  0.
164  1.63  0.  0.
165  1.64  0.  0.
166  1.65  0.  0.
167  1.66  0.  0.
168  1.67  0.  0.
169  1.68  0.  0.
170  1.69  0.  0.
171  1.70  0.  0.
172  1.71  0.  0.
173  1.72  0.  0.
174  1.73  0.  0.
175  1.74  0.  0.
176  1.75  0.  0.
177  1.76  0.  0.
178  1.77  0.  0.
179  1.78  0.  0.
180  1.79  0.  0.
181  1.80  0.  0.
182  1.81  0.  0.
183  1.82  0.  0.
184  1.83  0.  0.
185  1.84  0.  0.
186  1.85  0.  0.
187  1.86  0.  0.
188  1.87  0.  0.
189  1.88  0.  0.
190  1.89  0.  0.
191  1.90  0.  0.
192  1.91  0.  0.
193  1.92  0.  0.
194  1.93  0.  0.
195  1.94  0.  0.
196  1.95  0.  0.
197  1.96  0.  0.
198  1.97  0.  0.
199  1.98  0.  0.
200  1.99  0.  0.
201  2.00  0.  0.
202  2.01  0.  0.
203  2.02  0.  0.
204  2.03  0.  0.
205  2.04  0.  0.
206  2.05  0.  0.
207  2.06  0.  0.
208  2.07  0.  0.
209  2.08  0.  0.
210  2.09  0.  0.
211  2.10  0.  0.
212  2.11  0.  0.
213  2.12  0.  0.
214  2.13  0.  0.
215  2.14  0.  0.
216  2.15  0.  0.
217  2.16  0.  0.
218  2.17  0.  0.
219  2.18  0.  0.
220  2.19  0.  0.
221  2.20  0.  0.
222  2.21  0.  0.
223  2.22  0.  0.
224  2.23  0.  0.
225  2.24  0.  0.
226  2.25  0.  0.
227  2.26  0.  0.
228  2.27  0.  0.
229  2.28  0.  0.
230  2.29  0.  0.
231  2.30  0.  0.
232  2.31  0.  0.
233  2.32  0.  0.
234  2.33  0.  0.
235  2.34  0.  0.
236  2.35  0.  0.
237  2.36  0.  0.
238  2.37  0.  0.
239  2.38  0.  0.
240  2.39  0.  0.
241  2.40  0.  0.
242  2.41  0.  0.
243  2.42  0.  0.
244  2.43  0.  0.
245  2.44  0.  0.
246  2.45  0.  0.
247  2.46  0.  0.
248  2.47  0.  0.
249  2.48  0.  0.
250  2.49  0.  0.
251  2.50  0.  0.
252  2.51  0.  0.
253  2.52  0.  0.
254  2.53  0.  0.
255  2.54  0.  0.
256  2.55  0.  0.
257  2.56  0.  0.
258  2.57  0.  0.
259  2.58  0.  0.
260  2.59  0.  0.
261  2.60  0.  0.
262  2.61  0.  0.
263  2.62  0.  0.
264  2.63  0.  0.
265  2.64  0.  0.
266  2.65  0.  0.
267  2.66  0.  0.
268  2.67  0.  0.
269  2.68  0.  0.
270  2.69  0.  0.
271  2.70  0.  0.
272  2.71  0.  0.
273  2.72  0.  0.
274  2.73  0.  0.
275  2.74  0.  0.
276  2.75  0.  0.
277  2.76  0.  0.
278  2.77  0.  0.
279  2.78  0.  0.
280  2.79  0.  0.
281  2.80  0.  0.
282  2.81  0.  0.
283  2.82  0.  0.
284  2.83  0.  0.
285  2.84  0.  0.
286  2.85  0.  0.
287  2.86  0.  0.
288  2.87  0.  0.
289  2.88  0.  0.
290  2.89  0.  0.
291  2.90  0.  0.
292  2.91  0.  0.
293  2.92  0.  0.
294  2.93  0.  0.
295  2.94  0.  0.
296  2.95  0.  0.
297  2.96  0.  0.
298  2.97  0.  0.
299  2.98  0.  0.
300  2.99  0.  0.
301  3.00  0.  0.
302  3.01  0.  0.
303  3.02  0.  0.
304  3.03  0.  0.
305  3.04  0.  0.
306  3.05  0.  0.
307  3.06  0.  0.
308  3.07  0.  0.
309  3.08  0.  0.
310  3.09  0.  0.
311  3.10  0.  0.
312  3.11  0.  0.
313  3.12  0.  0.
314  3.13  0.  0.
315  3.14  0.  0.
316  3.15  0.  0.
317  3.16  0.  0.
318  3.17  0.  0.
319  3.18  0.  0.
320  3.19  0.  0.
321  3.20  0.  0.
322  3.21  0.  0.
323  3.22  0.  0.
324  3.23  0.  0.
325  3.24  0.  0.
326  3.25  0.  0.
327  3.26  0.  0.
328  3.27  0.  0.
329  3.28  0.  0.
330  3.29  0.  0.
331  3.30  0.  0.
332  3.31  0.  0.
333  3.32  0.  0.
334  3.33  0.  0.
335  3.34  0.  0.
336  3.35  0.  0.
337  3.36  0.  0.
338  3.37  0.  0.
339  3.38  0.  0.
340  3.39  0.  0.
341  3.40  0.  0.
342  3.41  0.  0.
343  3.42  0.  0.
344  3.43  0.  0.
345  3.44  0.  0.
346  3.45  0.  0.
347  3.46  0.  0.
348  3.47  0.  0.
349  3.48  0.  0.
350  3.49  0.  0.
351  3.50  0.  0.
352  3.51  0.  0.
353  3.52  0.  0.
354  3.53  0.  0.
355  3.54  0.  0.
356  3.55  0.  0.
357  3.56  0.  0.
358  3.57  0.  0.
359  3.58  0.  0.
360  3.59  0.  0.
361  3.60  0.  0.
362  3.61  0.  0.
363  3.62  0.  0.
364  3.63  0.  0.
365  3.64  0.  0.
366  3.65  0.  0.
367  3.66  0.  0.
368  3.67  0.  0.
369  3.68  0.  0.
370  3.69  0.  0.
371  3.70  0.  0.
372  3.71  0.  0.
373  3.72  0.  0.
374  3.73  0.  0.
375  3.74  0.  0.
376  3.75  0.  0.
377  3.76  0.  0.
378  3.77  0.  0.
379  3.78  0.  0.
380  3.79  0.  0.
381  3.80  0.  0.
382  3.81  0.  0.
383  3.82  0.  0.
384  3.83  0.  0.
385  3.84  0.  0.
386  3.85  0.  0.
387  3.86  0.  0.
388  3.87  0.  0.
389  3.88  0.  0.
390  3.89  0.  0.
391  3.90  0.  0.
392  3.91  0.  0.
393  3.92  0.  0.
394  3.93  0.  0.
395  3.94  0.  0.
396  3.95  0.  0.
397  3.96  0.  0.
398  3.97  0.  0.
399  3.98  0.  0.
400  3.99  0.  0.
401  4.00  0.  0.
402  4.01  0.  0.
403  4.02  0.  0.
404  4.03  0.  0.
405  4.04  0.  0.
406  4.05  0.  0.
407  4.06  0.  0.
408  4.07  0.  0.
409  4.08  0.  0.
410  4.09  0.  0.
411  4.10  0.  0.
412  4.11  0.  0.
413  4.12  0.  0.
414  4.13  0.  0.
415  4.14  0.  0.
416  4.15  0.  0.
417  4.16  0.  0.
418  4.17  0.  0.
419  4.18  0.  0.
420  4.19  0.  0.
421  4.20  0.  0.
422  4.21  0.  0.
423  4.22  0.  0.
424  4.23  0.  0.
425  4.24  0.  0.
426  4.25  0.  0.
427  4.26  0.  0.
428  4.27  0.  0.
429  4.28  0.  0.
430  4.29  0.  0.
431  4.30  0.  0.
432  4.31  0.  0.
433  4.32  0.  0.
434  4.33  0.  0.
435  4.34  0.  0.
436  4.35  0.  0.
437  4.36  0.  0.
438  4.37  0.  0.
439  4.38  0.  0.
440  4.39  0.  0.
441  4.40  0.  0.
442  4.41  0.  0.
443  4.42  0.  0.
444  4.43  0.  0.
445  4.44  0.  0.
446  4.45  0.  0.
447  4.46  0.  0.
448  4.47  0.  0.
449  4.48  0.  0.
450  4.49  0.  0.
451  4.50  0.  0.
452  4.51  0.  0.
453  4.52  0.  0.
454  4.53  0.  0.
455  4.54  0.  0.
456  4.55  0.  0.
457  4.56  0.  0.
458  4.57  0.  0.
459  4.58  0.  0.
460  4.59  0.  0.
461  4.60  0.  0.
462  4.61  0.  0.
463  4.62  0.  0.
464  4.63  0.  0.
465  4.64  0.  0.
466  4.65  0.  0.
467  4.66  0.  0.
468  4.67  0.  0.
469  4.68  0.  0.
470  4.69  0.  0.
471  4.70  0.  0.
472  4.71  0.  0.
473  4.72  0.  0.
474  4.73  0.  0.
475  4.74  0.  0.
476  4.75  0.  0.
477  4.76  0.  0.
478  4.77  0.  0.
479  4.78  0.  0.
480  4.79  0.  0.
481  4.80  0.  0.
482  4.81  0.  0.
483  4.82  0.  0.
484  4.83  0.  0.
485  4.84  0.  0.
486  4.85  0.  0.
487  4.86  0.  0.
488  4.87  0.  0.
489  4.88  0.  0.
490  4.89  0.  0.
491  4.90  0.  0.
492  4.91  0.  0.