Ts    ONCVPSP-4.0.1  r_core=   1.40055   1.40055   1.40055   1.50478
117.0000     25.0000      220326    zatom,zion,pspd
8      11   3     4   600     0    pspcod,pspxc,lmax,lloc,mmax,r2well
5.99000000  5.00000000  0.00000000    rchrg fchrg qchrg
2     2     2     1     0    nproj
1     1           extension_switch
0                         1.4075381884901E+01 -3.0846615244406E-01
1  0.0000000000000E+00  4.1115888471666E-10  9.6866439869281E-09
2  1.0000000000000E-02  8.1729201897394E-02  2.2386010654306E-02
3  2.0000000000000E-02  1.6326955190317E-01  4.4879607736338E-02
4  3.0000000000000E-02  2.4443249589457E-01  6.7583306931802E-02
5  4.0000000000000E-02  3.2503007934408E-01  9.0589601756486E-02
6  5.0000000000000E-02  4.0487525715234E-01  1.1397624820250E-01
7  6.0000000000000E-02  4.8378221522266E-01  1.3780189716414E-01
8  7.0000000000000E-02  5.6156670719580E-01  1.6210217889993E-01
9  8.0000000000000E-02  6.3804640935289E-01  1.8688633410100E-01
10  9.0000000000000E-02  7.1304129619611E-01  2.1213447441471E-01
11  1.0000000000000E-01  7.8637403864264E-01  2.3779554176424E-01
12  1.1000000000000E-01  8.5787042612788E-01  2.6378602079237E-01
13  1.2000000000000E-01  9.2735981322363E-01  2.8998944255801E-01
14  1.3000000000000E-01  9.9467559064850E-01  3.1625670056786E-01
15  1.4000000000000E-01  1.0596556797975E+00  3.4240718269286E-01
16  1.5000000000000E-01  1.1221430491608E+00  3.6823070486897E-01
17  1.6000000000000E-01  1.1819862502530E+00  3.9349021508905E-01
18  1.7000000000000E-01  1.2390399699501E+00  4.1792521942268E-01
19  1.8000000000000E-01  1.2931655954486E+00  4.4125586601245E-01
20  1.9000000000000E-01  1.3442317874271E+00  4.6318760852083E-01
21  2.0000000000000E-01  1.3921150564319E+00  4.8341635765175E-01
22  2.1000000000000E-01  1.4367003370209E+00  5.0163401841873E-01
23  2.2000000000000E-01  1.4778815538048E+00  5.1753430201243E-01
24  2.3000000000000E-01  1.5155621732323E+00  5.3081869462481E-01
25  2.4000000000000E-01  1.5496557347697E+00  5.4120246155640E-01
26  2.5000000000000E-01  1.5800863550477E+00  5.4842056345764E-01
27  2.6000000000000E-01  1.6067891985749E+00  5.5223336267018E-01
28  2.7000000000000E-01  1.6297109087651E+00  5.5243200132064E-01
29  2.8000000000000E-01  1.6488099932731E+00  5.4884333900502E-01
30  2.9000000000000E-01  1.6640571580001E+00  5.4133434645805E-01
31  3.0000000000000E-01  1.6754355845833E+00  5.2981586235315E-01
32  3.1000000000000E-01  1.6829411467421E+00  5.1424563309919E-01
33  3.2000000000000E-01  1.6865825614842E+00  4.9463056992378E-01
34  3.3000000000000E-01  1.6863814718801E+00  4.7102817335464E-01
35  3.4000000000000E-01  1.6823724588801E+00  4.4354709209730E-01
36  3.5000000000000E-01  1.6746029804502E+00  4.1234680089899E-01
37  3.6000000000000E-01  1.6631332371429E+00  3.7763639991300E-01
38  3.7000000000000E-01  1.6480359640660E+00  3.3967255594998E-01
39  3.8000000000000E-01  1.6293961500626E+00  2.9875662344341E-01
40  3.9000000000000E-01  1.6073106857462E+00  2.5523099958791E-01
41  4.0000000000000E-01  1.5818879428363E+00  2.0947478357794E-01
42  4.1000000000000E-01  1.5532472879936E+00  1.6189882384194E-01
43  4.2000000000000E-01  1.5215185350523E+00  1.1294024933688E-01
44  4.3000000000000E-01  1.4868413401743E+00  6.3056591069701E-02
45  4.4000000000000E-01  1.4493645449973E+00  1.2719607832283E-02
46  4.5000000000000E-01  1.4092454733075E+00 -3.7591064502234E-02
47  4.6000000000000E-01  1.3666491871359E+00 -8.7394317983846E-02
48  4.7000000000000E-01  1.3217477084400E+00 -1.3621390960066E-01
49  4.8000000000000E-01  1.2747192127025E+00 -1.8358461050179E-01
50  4.9000000000000E-01  1.2257472008415E+00 -2.2905805269940E-01
51  5.0000000000000E-01  1.1750196557938E+00 -2.7220816607265E-01
52  5.1000000000000E-01  1.1227281900064E+00 -3.1263610835818E-01
53  5.2000000000000E-01  1.0690671898536E+00 -3.4997460276647E-01
54  5.3000000000000E-01  1.0142329627024E+00 -3.8389161164855E-01
55  5.4000000000000E-01  9.5842289197998E-01 -4.1409328994347E-01
56  5.5000000000000E-01  9.0183460517219E-01 -4.4032617862457E-01
57  5.6000000000000E-01  8.4466515920572E-01 -4.6237861566171E-01
58  5.7000000000000E-01  7.8711024715731E-01 -4.8008135973579E-01
59  5.8000000000000E-01  7.2936342970237E-01 -4.9330743968357E-01
60  5.9000000000000E-01  6.7161539417573E-01 -5.0197126000832E-01
61  6.0000000000000E-01  6.1405324358350E-01 -5.0602700936956E-01
62  6.1000000000000E-01  5.5685981738912E-01 -5.0546643438164E-01
63  6.2000000000000E-01  5.0021304541201E-01 -5.0031605494727E-01
64  6.3000000000000E-01  4.4428533573340E-01 -4.9063390940403E-01
65  6.4000000000000E-01  3.8924299711233E-01 -4.7650592768277E-01
66  6.5000000000000E-01  3.3524569608213E-01 -4.5804203822950E-01
67  6.6000000000000E-01  2.8244594863174E-01 -4.3537211943741E-01
68  6.7000000000000E-01  2.3098864618028E-01 -4.0864190864708E-01
69  6.8000000000000E-01  1.8101061543053E-01 -3.7800898133033E-01
70  6.9000000000000E-01  1.3264021163741E-01 -3.4363890986985E-01
71  7.0000000000000E-01  8.5996944849168E-02 -3.0570170544384E-01
72  7.1000000000000E-01  4.1191138767959E-02 -2.6436863803825E-01
73  7.2000000000000E-01 -1.6763779731544E-03 -2.1980951872619E-01
74  7.3000000000000E-01 -4.2514548116311E-02 -1.7219051530787E-01
75  7.4000000000000E-01 -8.1242329420212E-02 -1.2167255749221E-01
76  7.5000000000000E-01 -1.1778890510900E-01 -6.8410371356524E-02
77  7.6000000000000E-01 -1.5209386030073E-01 -1.2552165226527E-02
78  7.7000000000000E-01 -1.8410732328011E-01  4.5760029222373E-02
79  7.8000000000000E-01 -2.1379007017967E-01  1.0638937548949E-01
80  7.9000000000000E-01 -2.4111359135322E-01  1.6920264376573E-01
81  8.0000000000000E-01 -2.6606011748014E-01  2.3406806674492E-01
82  8.1000000000000E-01 -2.8862260324082E-01  3.0085270794968E-01
83  8.2000000000000E-01 -3.0880466626631E-01  3.6941942626525E-01
84  8.3000000000000E-01 -3.2662047899823E-01  4.3962353400968E-01
85  8.4000000000000E-01 -3.4209461111030E-01  5.1130925730727E-01
86  8.5000000000000E-01 -3.5526182024543E-01  5.8430611646007E-01
87  8.6000000000000E-01 -3.6616678902071E-01  6.5842535016951E-01
88  8.7000000000000E-01 -3.7486380654748E-01  7.3345651064707E-01
89  8.8000000000000E-01 -3.8141639310819E-01  8.0916435673418E-01
90  8.9000000000000E-01 -3.8589686712235E-01  8.8528616906122E-01
91  9.0000000000000E-01 -3.8838585411729E-01  9.6152960502198E-01
92  9.1000000000000E-01 -3.8897173808830E-01  1.0375712019994E+00
93  9.2000000000000E-01 -3.8775005637736E-01  1.1130556250048E+00
94  9.3000000000000E-01 -3.8482284000827E-01  1.1875957399073E+00
95  9.4000000000000E-01 -3.8029790227437E-01  1.2607735760207E+00
96  9.5000000000000E-01 -3.7428807926709E-01  1.3321422223248E+00
97  9.6000000000000E-01 -3.6691042694117E-01  1.4012286804395E+00
98  9.7000000000000E-01 -3.5828538021722E-01  1.4675376750775E+00
99  9.8000000000000E-01 -3.4853588050346E-01  1.5305563995709E+00
100  9.9000000000000E-01 -3.3778647885616E-01  1.5897601506997E+00
101  1.0000000000000E+00 -3.2616242277225E-01  1.6446187839710E+00
102  1.0100000000000E+00 -3.1378873529680E-01  1.6946038982420E+00
103  1.0200000000000E+00 -3.0078929571441E-01  1.7391966376671E+00
104  1.0300000000000E+00 -2.8728593155924E-01  1.7778959798621E+00
105  1.0400000000000E+00 -2.7339753200641E-01  1.8102273624135E+00
106  1.0500000000000E+00 -2.5923919288578E-01  1.8357514858333E+00
107  1.0600000000000E+00 -2.4492140357482E-01  1.8540731201260E+00
108  1.0700000000000E+00 -2.3054928587320E-01  1.8648497346463E+00
109  1.0800000000000E+00 -2.1622189463300E-01  1.8677997670910E+00
110  1.0900000000000E+00 -2.0203158941107E-01  1.8627103474871E+00
111  1.1000000000000E+00 -1.8806348573099E-01  1.8494442969566E+00
112  1.1100000000000E+00 -1.7439499368834E-01  1.8279462289364E+00
113  1.1200000000000E+00 -1.6109545062445E-01  1.7982475922169E+00
114  1.1300000000000E+00 -1.4822585343042E-01  1.7604705106147E+00
115  1.1400000000000E+00 -1.3583869475432E-01  1.7148302929031E+00
116  1.1500000000000E+00 -1.2397790597389E-01  1.6616365086536E+00
117  1.1600000000000E+00 -1.1267890830341E-01  1.6012925502681E+00
118  1.1700000000000E+00 -1.0196877183097E-01  1.5342936285451E+00
119  1.1800000000000E+00 -9.1866480680575E-02  1.4612231777075E+00
120  1.1900000000000E+00 -8.2383300861912E-02  1.3827476758839E+00
121  1.2000000000000E+00 -7.3523245769283E-02  1.2996099173759E+00
122  1.2100000000000E+00 -6.5283632716851E-02  1.2126208036778E+00
123  1.2200000000000E+00 -5.7655722406144E-02  1.1226497499812E+00
124  1.2300000000000E+00 -5.0625431824638E-02  1.0306138325069E+00
125  1.2400000000000E+00 -4.4174109801235E-02  9.3746582882002E-01
126  1.2500000000000E+00 -3.8279363329856E-02  8.4418132750091E-01
127  1.2600000000000E+00 -3.2915921822251E-02  7.5174510502581E-01
128  1.2700000000000E+00 -2.8056525700504E-02  6.6113698563711E-01
129  1.2800000000000E+00 -2.3672825197159E-02  5.7331741410735E-01
130  1.2900000000000E+00 -1.9736274908142E-02  4.8921298135936E-01
131  1.3000000000000E+00 -1.6219009556291E-02  4.0970214845689E-01
132  1.3100000000000E+00 -1.3094685286423E-02  3.3560144696258E-01
133  1.3200000000000E+00 -1.0339282465449E-02  2.6765213569899E-01
134  1.3300000000000E+00 -7.9318632840582E-03  2.0650767425493E-01
135  1.3400000000000E+00 -5.8586841807018E-03  1.5263488751357E-01
136  1.3500000000000E+00 -4.1083105958570E-03  1.0642893165971E-01
137  1.3600000000000E+00 -2.6684215001462E-03  6.8313363000247E-02
138  1.3700000000000E+00 -1.5335150227639E-03  3.8561143377648E-02
139  1.3800000000000E+00 -7.0485616773002E-04  1.7305372588602E-02
140  1.3900000000000E+00 -1.8759701175956E-04  4.4733216423403E-03
141  1.4000000000000E+00 -2.5197987211816E-06  5.8126362602862E-05
142  1.4100000000000E+00 -8.4854861778149E-07  1.9721521593764E-05
143  1.4200000000000E+00  2.7328736753960E-07 -6.4586321379913E-06
144  1.43 -0. -0.
145  1.44  0.  0.
146  1.45  0.  0.
147  1.46  0.  0.
148  1.47  0.  0.
149  1.48  0.  0.
150  1.49  0.  0.
151  1.50  0.  0.
152  1.51  0.  0.
153  1.52  0.  0.
154  1.53  0.  0.
155  1.54  0.  0.
156  1.55  0.  0.
157  1.56  0.  0.
158  1.57  0.  0.
159  1.58  0.  0.
160  1.59  0.  0.
161  1.60  0.  0.
162  1.61  0.  0.
163  1.62  0.  0.
164  1.63  0.  0.
165  1.64  0.  0.
166  1.65  0.  0.
167  1.66  0.  0.
168  1.67  0.  0.
169  1.68  0.  0.
170  1.69  0.  0.
171  1.70  0.  0.
172  1.71  0.  0.
173  1.72  0.  0.
174  1.73  0.  0.
175  1.74  0.  0.
176  1.75  0.  0.
177  1.76  0.  0.
178  1.77  0.  0.
179  1.78  0.  0.
180  1.79  0.  0.
181  1.80  0.  0.
182  1.81  0.  0.
183  1.82  0.  0.
184  1.83  0.  0.
185  1.84  0.  0.
186  1.85  0.  0.
187  1.86  0.  0.
188  1.87  0.  0.
189  1.88  0.  0.
190  1.89  0.  0.
191  1.90  0.  0.
192  1.91  0.  0.
193  1.92  0.  0.
194  1.93  0.  0.
195  1.94  0.  0.
196  1.95  0.  0.
197  1.96  0.  0.
198  1.97  0.  0.
199  1.98  0.  0.
200  1.99  0.  0.
201  2.00  0.  0.
202  2.01  0.  0.
203  2.02  0.  0.
204  2.03  0.  0.
205  2.04  0.  0.
206  2.05  0.  0.
207  2.06  0.  0.
208  2.07  0.  0.
209  2.08  0.  0.
210  2.09  0.  0.
211  2.10  0.  0.
212  2.11  0.  0.
213  2.12  0.  0.
214  2.13  0.  0.
215  2.14  0.  0.
216  2.15  0.  0.
217  2.16  0.  0.
218  2.17  0.  0.
219  2.18  0.  0.
220  2.19  0.  0.
221  2.20  0.  0.
222  2.21  0.  0.
223  2.22  0.  0.
224  2.23  0.  0.
225  2.24  0.  0.
226  2.25  0.  0.
227  2.26  0.  0.
228  2.27  0.  0.
229  2.28  0.  0.
230  2.29  0.  0.
231  2.30  0.  0.
232  2.31  0.  0.
233  2.32  0.  0.
234  2.33  0.  0.
235  2.34  0.  0.
236  2.35  0.  0.
237  2.36  0.  0.
238  2.37  0.  0.
239  2.38  0.  0.
240  2.39  0.  0.
241  2.40  0.  0.
242  2.41  0.  0.
243  2.42  0.  0.
244  2.43  0.  0.
245  2.44  0.  0.
246  2.45  0.  0.
247  2.46  0.  0.
248  2.47  0.  0.
249  2.48  0.  0.
250  2.49  0.  0.
251  2.50  0.  0.
252  2.51  0.  0.
253  2.52  0.  0.
254  2.53  0.  0.
255  2.54  0.  0.
256  2.55  0.  0.
257  2.56  0.  0.
258  2.57  0.  0.
259  2.58  0.  0.
260  2.59  0.  0.
261  2.60  0.  0.
262  2.61  0.  0.
263  2.62  0.  0.
264  2.63  0.  0.
265  2.64  0.  0.
266  2.65  0.  0.
267  2.66  0.  0.
268  2.67  0.  0.
269  2.68  0.  0.
270  2.69  0.  0.
271  2.70  0.  0.
272  2.71  0.  0.
273  2.72  0.  0.
274  2.73  0.  0.
275  2.74  0.  0.
276  2.75  0.  0.
277  2.76  0.  0.
278  2.77  0.  0.
279  2.78  0.  0.
280  2.79  0.  0.
281  2.80  0.  0.
282  2.81  0.  0.
283  2.82  0.  0.
284  2.83  0.  0.
285  2.84  0.  0.
286  2.85  0.  0.
287  2.86  0.  0.
288  2.87  0.  0.
289  2.88  0.  0.
290  2.89  0.  0.
291  2.90  0.  0.
292  2.91  0.  0.
293  2.92  0.  0.
294  2.93  0.  0.
295  2.94  0.  0.
296  2.95  0.  0.
297  2.96  0.  0.
298  2.97  0.  0.
299  2.98  0.  0.
300  2.99  0.  0.
301  3.00  0.  0.
302  3.01  0.  0.
303  3.02  0.  0.
304  3.03  0.  0.
305  3.04  0.  0.
306  3.05  0.  0.
307  3.06  0.  0.
308  3.07  0.  0.
309  3.08  0.  0.
310  3.09  0.  0.
311  3.10  0.  0.
312  3.11  0.  0.
313  3.12  0.  0.
314  3.13  0.  0.
315  3.14  0.  0.
316  3.15  0.  0.
317  3.16  0.  0.
318  3.17  0.  0.
319  3.18  0.  0.
320  3.19  0.  0.
321  3.20  0.  0.
322  3.21  0.  0.
323  3.22  0.  0.
324  3.23  0.  0.
325  3.24  0.  0.
326  3.25  0.  0.
327  3.26  0.  0.
328  3.27  0.  0.
329  3.28  0.  0.
330  3.29  0.  0.
331  3.30  0.  0.
332  3.31  0.  0.
333  3.32  0.  0.
334  3.33  0.  0.
335  3.34  0.  0.
336  3.35  0.  0.
337  3.36  0.  0.
338  3.37  0.  0.
339  3.38  0.  0.
340  3.39  0.  0.
341  3.40  0.  0.
342  3.41  0.  0.
343  3.42  0.  0.
344  3.43  0.  0.
345  3.44  0.  0.
346  3.45  0.  0.
347  3.46  0.  0.
348  3.47  0.  0.
349  3.48  0.  0.
350  3.49  0.  0.
351  3.50  0.  0.
352  3.51  0.  0.
353  3.52  0.  0.
354  3.53  0.  0.
355  3.54  0.  0.
356  3.55  0.  0.
357  3.56  0.  0.
358  3.57  0.  0.
359  3.58  0.  0.
360  3.59  0.  0.
361  3.60  0.  0.
362  3.61  0.  0.
363  3.62  0.  0.
364  3.63  0.  0.
365  3.64  0.  0.
366  3.65  0.  0.
367  3.66  0.  0.
368  3.67  0.  0.
369  3.68  0.  0.
370  3.69  0.  0.
371  3.70  0.  0.
372  3.71  0.  0.
373  3.72  0.  0.
374  3.73  0.  0.
375  3.74  0.  0.
376  3.75  0.  0.
377  3.76  0.  0.
378  3.77  0.  0.
379  3.78  0.  0.
380  3.79  0.  0.
381  3.80  0.  0.
382  3.81  0.  0.
383  3.82  0.  0.
384  3.83  0.  0.
385  3.84  0.  0.
386  3.85  0.  0.
387  3.86  0.  0.
388  3.87  0.  0.
389  3.88  0.  0.
390  3.89  0.  0.
391  3.90  0.  0.
392  3.91  0.  0.
393  3.92  0.  0.
394  3.93  0.  0.
395  3.94  0.  0.
396  3.95  0.  0.
397  3.96  0.  0.
398  3.97  0.  0.
399  3.98  0.  0.
400  3.99  0.  0.
401  4.00  0.  0.
402  4.01  0.  0.
403  4.02  0.  0.
404  4.03  0.  0.
405  4.04  0.  0.
406  4.05  0.  0.
407  4.06  0.  0.
408  4.07  0.  0.
409  4.08  0.  0.
410  4.09  0.  0.
411  4.10  0.  0.
412  4.11  0.  0.
413  4.12  0.  0.
414  4.13  0.  0.
415  4.14  0.  0.
416  4.15  0.  0.
417  4.16  0.  0.
418  4.17  0.  0.
419  4.18  0.  0.
420  4.19  0.  0.
421  4.20  0.  0.
422  4.21  0.  0.
423  4.22  0.  0.
424  4.23  0.  0.
425  4.24  0.  0.
426  4.25  0.  0.
427  4.26  0.  0.
428  4.27  0.  0.
429  4.28  0.  0.
430  4.29  0.  0.
431  4.30  0.  0.
432  4.31  0.  0.
433  4.32  0.  0.
434  4.33  0.  0.
435  4.34  0.  0.
436  4.35  0.  0.
437  4.36  0.  0.
438  4.37  0.  0.
439  4.38  0.  0.
440  4.39  0.  0.
441  4.40  0.  0.
442  4.41  0.  0.
443  4.42  0.  0.
444  4.43  0.  0.
445  4.44  0.  0.
446  4.45  0.  0.
447  4.46  0.  0.
448  4.47  0.  0.
449  4.48  0.  0.
450  4.49  0.  0.
451  4.50  0.  0.
452  4.51  0.  0.
453  4.52  0.  0.
454  4.53  0.  0.
455  4.54  0.  0.
456  4.55  0.  0.
457  4.56  0.  0.
458  4.57  0.  0.
459  4.58  0.  0.
460  4.59  0.  0.
461  4.60  0.  0.
462  4.61  0.  0.
463  4.62  0.  0.
464  4.63  0.  0.
465  4.64  0.  0.
466  4.65  0.  0.
467  4.66  0.  0.
468  4.67  0.  0.
469  4.68  0.  0.
470  4.69  0.  0.
471  4.70  0.  0.
472  4.71  0.  0.
473  4.72  0.  0.
474  4.73  0.  0.
475  4.74  0.  0.
476  4.75  0.  0.
477  4.76  0.  0.
478  4.77  0.  0.
479  4.78  0.  0.
480  4.79  0.  0.
481  4.80  0.  0.
482  4.81  0.  0.
483  4.82  0.  0.
484  4.83  0.  0.
485  4.84  0.  0.
486  4.85  0.  0.
487  4.86  0.  0.
488  4.87  0.  0.
489  4.88  0.  0.
490  4.89  0.  0.
491  4.90  0.  0.
492  4.91  0.  0.
493  4.92  0.  0.
494  4.93  0.  0.
495  4.94  0.  0.
496  4.95  0.  0.
497  4.96  0.  0.
498  4.97  0.  0.
499  4.98  0.  0.
500  4.99  0.  0.
501  5.00  0.  0.
502  5.01  0.  0.
503  5.02  0.  0.
504  5.03  0.  0.
505  5.04  0.  0.
506  5.05  0.  0.
507  5.06  0.  0.
508  5.07  0.  0.
509  5.08  0.  0.
510  5.09  0.  0.
511  5.10  0.  0.
512  5.11  0.  0.
513  5.12  0.  0.
514  5.13  0.  0.
515  5.14  0.  0.
516  5.15  0.  0.
517  5.16  0.  0.
518  5.17  0.  0.
519  5.18  0.  0.
520  5.19  0.  0.
521  5.20  0.  0.
522  5.21  0.  0.
523  5.22  0.  0.
524  5.23  0.  0.
525  5.24  0.  0.
526  5.25  0.  0.
527  5.26  0.  0.
528  5.27  0.  0.
529  5.28  0.  0.
530  5.29  0.  0.
531  5.30  0.  0.
532  5.31  0.  0.
533  5.32  0.  0.
534  5.33  0.  0.
535  5.34  0.  0.
536  5.35  0.  0.
537  5.36  0.  0.
538  5.37  0.  0.
539  5.38  0.  0.
540  5.39  0.  0.
541  5.40  0.  0.
542  5.41  0.  0.
543  5.42  0.  0.
544  5.43  0.  0.
545  5.44  0.  0.
546  5.45  0.  0.
547  5.46  0.  0.
548  5.47  0.  0.
549  5.48  0.  0.
550  5.49  0.  0.
551  5.50  0.  0.
552  5.51  0.  0.
553  5.52  0.  0.
554  5.53  0.  0.
555  5.54  0.  0.
556  5.55  0.  0.
557  5.56  0.  0.
558  5.57  0.  0.
559  5.58  0.  0.
560  5.59  0.  0.
561  5.60  0.  0.
562  5.61  0.  0.
563  5.62  0.  0.
564  5.63  0.  0.
565  5.64  0.  0.
566  5.65  0.  0.
567  5.66  0.  0.
568  5.67  0.  0.
569  5.68  0.  0.
570  5.69  0.  0.
571  5.70  0.  0.
572  5.71  0.  0.
573  5.72  0.  0.
574  5.73  0.  0.
575  5.74  0.  0.
576  5.75  0.  0.
577  5.76  0.  0.
578  5.77  0.  0.
579  5.78  0.  0.
580  5.79  0.  0.
581  5.80  0.  0.
582  5.81  0.  0.
583  5.82  0.  0.
584  5.83  0.  0.
585  5.84  0.  0.
586  5.85  0.  0.
587  5.86  0.  0.
588  5.87  0.  0.
589  5.88  0.  0.
590  5.89  0.  0.
591  5.90  0.  0.
592  5.91  0.  0.
593  5.92  0.  0.
594  5.93  0.  0.
595  5.94  0.  0.
596  5.95  0.  0.
597  5.96  0.  0.
598  5.97  0.  0.
599  5.98  0.  0.
600  5.99  0.  0.
1                         1.3725750830543E+01  1.3464520409527E+00
1  0.0000000000000E+00 -4.6077247572995E-09  1.6915554505725E-08
2  1.0000000000000E-02  1.7923390480296E-03 -6.7745135661517E-04
3  2.0000000000000E-02  7.1649580276375E-03 -2.7152543895344E-03
4  3.0000000000000E-02  1.6104583406370E-02 -6.1294021678372E-03
5  4.0000000000000E-02  2.8588832077923E-02 -1.0945381071050E-02
6  5.0000000000000E-02  4.4585830644636E-02 -1.7196454728728E-02
7  6.0000000000000E-02  6.4053702354382E-02 -2.4921334603156E-02
8  7.0000000000000E-02  8.6939940986764E-02 -3.4161307932608E-02
9  8.0000000000000E-02  1.1318069559119E-01 -4.4956910668198E-02
10  9.0000000000000E-02  1.4269999394019E-01 -5.7344247602674E-02
11  1.0000000000000E-01  1.7540893576564E-01 -7.1351073707856E-02
12  1.1000000000000E-01  2.1120488920352E-01 -8.6992759443399E-02
13  1.2000000000000E-01  2.4997072531583E-01 -1.0426826822621E-01
14  1.3000000000000E-01  2.9157412604149E-01 -1.2315627619662E-01
15  1.4000000000000E-01  3.3586700043099E-01 -1.4361156281268E-01
16  1.5000000000000E-01  3.8268504254679E-01 -1.6556179566971E-01
17  1.6000000000000E-01  4.3184746199383E-01 -1.8890482439110E-01
18  1.7000000000000E-01  4.8315691473562E-01 -2.1350658667087E-01
19  1.8000000000000E-01  5.3639965772947E-01 -2.3919971485633E-01
20  1.9000000000000E-01  5.9134594607934E-01 -2.6578291420474E-01
21  2.0000000000000E-01  6.4775068597291E-01 -2.9302116456471E-01
22  2.1000000000000E-01  7.0535435077713E-01 -3.2064677621317E-01
23  2.2000000000000E-01  7.6388416145878E-01 -3.4836130845875E-01
24  2.3000000000000E-01  8.2305552613043E-01 -3.7583833697225E-01
25  2.4000000000000E-01  8.8257372715839E-01 -4.0272703321191E-01
26  2.5000000000000E-01  9.4213583807000E-01 -4.2865649736509E-01
27  2.6000000000000E-01  1.0014328466221E+00 -4.5324076550809E-01
28  2.7000000000000E-01  1.0601519549932E+00 -4.7608439274156E-01
29  2.8000000000000E-01  1.1179790232792E+00 -4.9678849740247E-01
30  2.9000000000000E-01  1.1746011184342E+00 -5.1495713753732E-01
31  3.0000000000000E-01  1.2297091276119E+00 -5.3020388003613E-01
32  3.1000000000000E-01  1.2830003926162E+00 -5.4215841548198E-01
33  3.2000000000000E-01  1.3341813209299E+00 -5.5047306809349E-01
34  3.3000000000000E-01  1.3829699285948E+00 -5.5482905025893E-01
35  3.4000000000000E-01  1.4290982710762E+00 -5.5494231511892E-01
36  3.5000000000000E-01  1.4723147201568E+00 -5.5056886838685E-01
37  3.6000000000000E-01  1.5123860478150E+00 -5.4150941194293E-01
38  3.7000000000000E-01  1.5490992818979E+00 -5.2761320644572E-01
39  3.8000000000000E-01  1.5822633031047E+00 -5.0878105793041E-01
40  3.9000000000000E-01  1.6117101582379E+00 -4.8496735368235E-01
41  4.0000000000000E-01  1.6372960707312E+00 -4.5618109509223E-01
42  4.1000000000000E-01  1.6589021359723E+00 -4.2248589916188E-01
43  4.2000000000000E-01  1.6764346957482E+00 -3.8399896523722E-01
44  4.3000000000000E-01  1.6898253930791E+00 -3.4088902876687E-01
45  4.4000000000000E-01  1.6990309155998E+00 -2.9337334877651E-01
46  4.5000000000000E-01  1.7040324423241E+00 -2.4171379966651E-01
47  4.6000000000000E-01  1.7048348149168E+00 -1.8621216025776E-01
48  4.7000000000000E-01  1.7014654603342E+00 -1.2720471313645E-01
49  4.8000000000000E-01  1.6939730967405E+00 -6.5056284741579E-02
50  4.9000000000000E-01  1.6824262588181E+00 -1.5387082124494E-04
51  5.0000000000000E-01  1.6669116818698E+00  6.7099997545223E-02
52  5.1000000000000E-01  1.6475325863581E+00  1.3629398551315E-01
53  5.2000000000000E-01  1.6244069056906E+00  2.0701461926896E-01
54  5.3000000000000E-01  1.5976655001030E+00  2.7885272143477E-01
55  5.4000000000000E-01  1.5674503984030E+00  3.5140946044320E-01
56  5.5000000000000E-01  1.5339131071567E+00  4.2430186736818E-01
57  5.6000000000000E-01  1.4972130236582E+00  4.9716768774692E-01
58  5.7000000000000E-01  1.4575159848285E+00  5.6966945357838E-01
59  5.8000000000000E-01  1.4149929791213E+00  6.4149768151940E-01
60  5.9000000000000E-01  1.3698190427308E+00  7.1237312681250E-01
61  6.0000000000000E-01  1.3221723550261E+00  7.8204804808684E-01
62  6.1000000000000E-01  1.2722335413681E+00  8.5030646523020E-01
63  6.2000000000000E-01  1.2201851844619E+00  9.1696342034439E-01
64  6.3000000000000E-01  1.1662115383644E+00  9.8186327964507E-01
65  6.4000000000000E-01  1.1104984323873E+00  1.0448771413192E+00
66  6.5000000000000E-01  1.0532333456003E+00  1.1058994400809E+00
67  6.6000000000000E-01  9.9460562664228E-01  1.1648438627726E+00
68  6.7000000000000E-01  9.3480682824970E-01  1.2216387101805E+00
69  6.8000000000000E-01  8.7403112147843E-01  1.2762218576905E+00
70  6.9000000000000E-01  8.1247575115602E-01  1.3285354809701E+00
71  7.0000000000000E-01  7.5034149177494E-01  1.3785207221167E+00
72  7.1000000000000E-01  6.8783306190063E-01  1.4261124763346E+00
73  7.2000000000000E-01  6.2515945527928E-01  1.4712344789899E+00
74  7.3000000000000E-01  5.6253414820865E-01  1.5137948677679E+00
75  7.4000000000000E-01  5.0017514536878E-01  1.5536823846592E+00
76  7.5000000000000E-01  4.3830483015302E-01  1.5907633678032E+00
77  7.6000000000000E-01  3.7714959051376E-01  1.6248796641168E+00
78  7.7000000000000E-01  3.1693919733221E-01  1.6558475705443E+00
79  7.8000000000000E-01  2.5790591919771E-01  1.6834578852110E+00
80  7.9000000000000E-01  2.0028336507310E-01  1.7074771203683E+00
81  8.0000000000000E-01  1.4430505444161E-01  1.7276498974958E+00
82  8.1000000000000E-01  9.0202722971389E-02  1.7437025120461E+00
83  8.2000000000000E-01  3.8204380276259E-02  1.7553476219228E+00
84  8.3000000000000E-01 -1.1467855228366E-02  1.7622899807058E+00
85  8.4000000000000E-01 -5.8600111308442E-02  1.7642331047693E+00
86  8.5000000000000E-01 -1.0298926617483E-01  1.7608867336109E+00
87  8.6000000000000E-01 -1.4444555476784E-01  1.7519749157483E+00
88  8.7000000000000E-01 -1.8279522409062E-01  1.7372445292009E+00
89  8.8000000000000E-01 -2.1788318007471E-01  1.7164740265414E+00
90  8.9000000000000E-01 -2.4957556523498E-01  1.6894821803609E+00
91  9.0000000000000E-01 -2.7776220458776E-01  1.6561365962168E+00
92  9.1000000000000E-01 -3.0235885705158E-01  1.6163617570792E+00
93  9.2000000000000E-01 -3.2330921087731E-01  1.5701463661601E+00
94  9.3000000000000E-01 -3.4058656457523E-01  1.5175497638841E+00
95  9.4000000000000E-01 -3.5419513929427E-01  1.4587072095391E+00
96  9.5000000000000E-01 -3.6417097459567E-01  1.3938338386213E+00
97  9.6000000000000E-01 -3.7058236694333E-01  1.3232271326641E+00
98  9.7000000000000E-01 -3.7352981886343E-01  1.2472677689134E+00
99  9.8000000000000E-01 -3.7314547642650E-01  1.1664187519252E+00
100  9.9000000000000E-01 -3.6959204327069E-01  1.0812227672632E+00
101  1.0000000000000E+00 -3.6306117057983E-01  9.9229773810389E-01
102  1.0100000000000E+00 -3.5377133400031E-01  9.0033060777621E-01
103  1.0200000000000E+00 -3.4196522014789E-01  8.0606941404777E-01
104  1.0300000000000E+00 -3.2790665686381E-01  7.1031376336965E-01
105  1.0400000000000E+00 -3.1187713242356E-01  6.1390385417755E-01
106  1.0500000000000E+00 -2.9417195921476E-01  5.1770823672658E-01
107  1.0600000000000E+00 -2.7509614674141E-01  4.2261053190873E-01
108  1.0700000000000E+00 -2.5496005689617E-01  3.2949536200687E-01
109  1.0800000000000E+00 -2.3407492108781E-01  2.3923377168827E-01
110  1.0900000000000E+00 -2.1274830381105E-01  1.5266843695967E-01
111  1.1000000000000E+00 -1.9127960044624E-01  7.0598972703772E-02
112  1.1100000000000E+00 -1.6995565837450E-01 -6.2323445951558E-03
113  1.1200000000000E+00 -1.4904660981279E-01 -7.7154123563373E-02
114  1.1300000000000E+00 -1.2880200208291E-01 -1.4157836728894E-01
115  1.1400000000000E+00 -1.0944730637633E-01 -1.9901165428775E-01
116  1.1500000000000E+00 -9.1180879486812E-02 -2.4906472294789E-01
117  1.1600000000000E+00 -7.4171444641474E-02 -2.9146022066526E-01
118  1.1700000000000E+00 -5.8556147525246E-02 -3.2603841448901E-01
119  1.1800000000000E+00 -4.4439232211543E-02 -3.5276070070491E-01
120  1.1900000000000E+00 -3.1891369019480E-02 -3.7171079626575E-01
121  1.2000000000000E+00 -2.0949652833156E-02 -3.8309354345689E-01
122  1.2100000000000E+00 -1.1618276164690E-02 -3.8723131056635E-01
123  1.2200000000000E+00 -3.8698667715686E-03 -3.8455802361224E-01
124  1.2300000000000E+00  2.3525348729849E-03 -3.7561091671196E-01
125  1.2400000000000E+00  7.1328971729516E-03 -3.6102014022636E-01
126  1.2500000000000E+00  1.0579070447949E-02 -3.4149641472213E-01
127  1.2600000000000E+00  1.2819176412253E-02 -3.1781696468153E-01
128  1.2700000000000E+00  1.3997590370687E-02 -2.9081000699727E-01
129  1.2800000000000E+00  1.4270602155526E-02 -2.6133810487676E-01
130  1.2900000000000E+00  1.3801849882340E-02 -2.3028072725156E-01
131  1.3000000000000E+00  1.2757626621098E-02 -1.9851637588833E-01
132  1.3100000000000E+00  1.1302170806996E-02 -1.6690467661735E-01
133  1.3200000000000E+00  9.5929874504681E-03 -1.3626864601602E-01
134  1.3300000000000E+00  7.7763628799818E-03 -1.0737771366958E-01
135  1.3400000000000E+00  5.9639196428826E-03 -8.0875717080654E-02
136  1.3500000000000E+00  4.2547764325152E-03 -5.7340476005723E-02
137  1.3600000000000E+00  2.7575294070717E-03 -3.7346311793548E-02
138  1.3700000000000E+00  1.5510765502610E-03 -2.1348932750357E-02
139  1.3800000000000E+00  6.8413612417442E-04 -9.6843366477608E-03
140  1.3900000000000E+00  1.7131447790681E-04 -2.5254269689664E-03
141  1.4000000000000E+00  2.1101312264652E-06 -3.2991310688239E-05
142  1.4100000000000E+00  7.3216310831882E-07 -1.1210838356786E-05
143  1.4200000000000E+00 -2.4486175938772E-07  3.6550053419279E-06
144  1.43 -0. -0.
145  1.44  0.  0.
146  1.45  0.  0.
147  1.46  0.  0.
148  1.47  0.  0.
149  1.48  0.  0.
150  1.49  0.  0.
151  1.50  0.  0.
152  1.51  0.  0.
153  1.52  0.  0.
154  1.53  0.  0.
155  1.54  0.  0.
156  1.55  0.  0.
157  1.56  0.  0.
158  1.57  0.  0.
159  1.58  0.  0.
160  1.59  0.  0.
161  1.60  0.  0.
162  1.61  0.  0.
163  1.62  0.  0.
164  1.63  0.  0.
165  1.64  0.  0.
166  1.65  0.  0.
167  1.66  0.  0.
168  1.67  0.  0.
169  1.68  0.  0.
170  1.69  0.  0.
171  1.70  0.  0.
172  1.71  0.  0.
173  1.72  0.  0.
174  1.73  0.  0.
175  1.74  0.  0.
176  1.75  0.  0.
177  1.76  0.  0.
178  1.77  0.  0.
179  1.78  0.  0.
180  1.79  0.  0.
181  1.80  0.  0.
182  1.81  0.  0.
183  1.82  0.  0.
184  1.83  0.  0.
185  1.84  0.  0.
186  1.85  0.  0.
187  1.86  0.  0.
188  1.87  0.  0.
189  1.88  0.  0.
190  1.89  0.  0.
191  1.90  0.  0.
192  1.91  0.  0.
193  1.92  0.  0.
194  1.93  0.  0.
195  1.94  0.  0.
196  1.95  0.  0.
197  1.96  0.  0.
198  1.97  0.  0.
199  1.98  0.  0.
200  1.99  0.  0.
201  2.00  0.  0.
202  2.01  0.  0.
203  2.02  0.  0.
204  2.03  0.  0.
205  2.04  0.  0.
206  2.05  0.  0.
207  2.06  0.  0.
208  2.07  0.  0.
209  2.08  0.  0.
210  2.09  0.  0.
211  2.10  0.  0.
212  2.11  0.  0.
213  2.12  0.  0.
214  2.13  0.  0.
215  2.14  0.  0.
216  2.15  0.  0.
217  2.16  0.  0.
218  2.17  0.  0.
219  2.18  0.  0.
220  2.19  0.  0.
221  2.20  0.  0.
222  2.21  0.  0.
223  2.22  0.  0.
224  2.23  0.  0.
225  2.24  0.  0.
226  2.25  0.  0.
227  2.26  0.  0.
228  2.27  0.  0.
229  2.28  0.  0.
230  2.29  0.  0.
231  2.30  0.  0.
232  2.31  0.  0.
233  2.32  0.  0.
234  2.33  0.  0.
235  2.34  0.  0.
236  2.35  0.  0.
237  2.36  0.  0.
238  2.37  0.  0.
239  2.38  0.  0.
240  2.39  0.  0.
241  2.40  0.  0.
242  2.41  0.  0.
243  2.42  0.  0.
244  2.43  0.  0.
245  2.44  0.  0.
246  2.45  0.  0.
247  2.46  0.  0.
248  2.47  0.  0.
249  2.48  0.  0.
250  2.49  0.  0.
251  2.50  0.  0.
252  2.51  0.  0.
253  2.52  0.  0.
254  2.53  0.  0.
255  2.54  0.  0.
256  2.55  0.  0.
257  2.56  0.  0.
258  2.57  0.  0.
259  2.58  0.  0.
260  2.59  0.  0.
261  2.60  0.  0.
262  2.61  0.  0.
263  2.62  0.  0.
264  2.63  0.  0.
265  2.64  0.  0.
266  2.65  0.  0.
267  2.66  0.  0.
268  2.67  0.  0.
269  2.68  0.  0.
270  2.69  0.  0.
271  2.70  0.  0.
272  2.71  0.  0.
273  2.72  0.  0.
274  2.73  0.  0.
275  2.74  0.  0.