Ts    ONCVPSP-4.0.1  r_core=   1.30353   1.40055   1.35117   1.40055
117.0000     39.0000      230612    zatom,zion,pspd
8      11   3     4   600     0    pspcod,pspxc,lmax,lloc,mmax,r2well
5.99000000  5.00000000  0.00000000    rchrg fchrg qchrg
2     3     3     2    nproj
3     1           extension_switch
4     4     3    nprojso
0                         1.4429588071985E+01 -1.4473228197791E+00
1  0.0000000000000E+00 -2.6904116712245E-09 -3.7347959083028E-08
2  1.0000000000000E-02  7.5349121900113E-02  2.6712112968430E-03
3  2.0000000000000E-02  1.5049931396770E-01  4.6711102365691E-03
4  3.0000000000000E-02  2.2525312297024E-01  5.3457803233946E-03
5  4.0000000000000E-02  2.9941602005092E-01  4.0756851544885E-03
6  5.0000000000000E-02  3.7279779157251E-01  2.9183932530144E-04
7  6.0000000000000E-02  4.4521384633807E-01 -6.5092160635632E-03
8  7.0000000000000E-02  5.1648641457614E-01 -1.6751986532680E-02
9  8.0000000000000E-02  5.8644561676860E-01 -3.0770461870115E-02
10  9.0000000000000E-02  6.5493038363331E-01 -4.8798689236069E-02
11  1.0000000000000E-01  7.2178921226927E-01 -7.0963701212171E-02
12  1.1000000000000E-01  7.8688074753740E-01 -9.7280961579395E-02
13  1.2000000000000E-01  8.5007418208031E-01 -1.2765243104196E-01
14  1.3000000000000E-01  9.1124947287316E-01 -1.6186729216066E-01
15  1.4000000000000E-01  9.7029737672769E-01 -1.9960530895769E-01
16  1.5000000000000E-01  1.0271193116307E+00 -2.4044273356601E-01
17  1.6000000000000E-01  1.0816270550705E+00 -2.8386061146308E-01
18  1.7000000000000E-01  1.1337422944832E+00 -3.2925527974266E-01
19  1.8000000000000E-01  1.1833960485296E+00 -3.7595080093885E-01
20  1.9000000000000E-01  1.2305279810043E+00 -4.2321302939672E-01
21  2.0000000000000E-01  1.2750856316962E+00 -4.7026496920494E-01
22  2.1000000000000E-01  1.3170235904033E+00 -5.1630305319832E-01
23  2.2000000000000E-01  1.3563026414945E+00 -5.6051395223065E-01
24  2.3000000000000E-01  1.3928889068865E+00 -6.0209151330748E-01
25  2.4000000000000E-01  1.4267530150340E+00 -6.4025342451745E-01
26  2.5000000000000E-01  1.4578693225360E+00 -6.7425721401912E-01
27  2.6000000000000E-01  1.4862152132448E+00 -7.0341520939524E-01
28  2.7000000000000E-01  1.5117704973847E+00 -7.2710811200061E-01
29  2.8000000000000E-01  1.5345169301870E+00 -7.4479687778827E-01
30  2.9000000000000E-01  1.5544378660110E+00 -7.5603264058082E-01
31  3.0000000000000E-01  1.5715180599291E+00 -7.6046446473502E-01
32  3.1000000000000E-01  1.5857436244127E+00 -7.5784477034275E-01
33  3.2000000000000E-01  1.5971021441710E+00 -7.4803233409873E-01
34  3.3000000000000E-01  1.6055829474857E+00 -7.3099283121832E-01
35  3.4000000000000E-01  1.6111775276751E+00 -7.0679694672662E-01
36  3.5000000000000E-01  1.6138801037297E+00 -6.7561614644707E-01
37  3.6000000000000E-01  1.6136883048141E+00 -6.3771625750543E-01
38  3.7000000000000E-01  1.6106039593377E+00 -5.9344906359542E-01
39  3.8000000000000E-01  1.6046339657762E+00 -5.4324217018454E-01
40  3.9000000000000E-01  1.5957912194624E+00 -4.8758743796956E-01
41  4.0000000000000E-01  1.5840955672558E+00 -4.2702831807764E-01
42  4.1000000000000E-01  1.5695747604065E+00 -3.6214644881359E-01
43  4.2000000000000E-01  1.5522653751034E+00 -2.9354789045317E-01
44  4.3000000000000E-01  1.5322136701699E+00 -2.2184938120991E-01
45  4.4000000000000E-01  1.5094763521618E+00 -1.4766499382998E-01
46  4.5000000000000E-01  1.4841212197121E+00 -7.1593558356000E-02
47  4.6000000000000E-01  1.4562276613341E+00  5.7928072473848E-03
48  4.7000000000000E-01  1.4258869839882E+00  8.3958750115253E-02
49  4.8000000000000E-01  1.3932025534673E+00  1.6241405239190E-01
50  4.9000000000000E-01  1.3582897319735E+00  2.4072010047605E-01
51  5.0000000000000E-01  1.3212756030478E+00  3.1849429146883E-01
52  5.1000000000000E-01  1.2822984791553E+00  3.9541227488815E-01
53  5.2000000000000E-01  1.2415071925905E+00  4.7120799111056E-01
54  5.3000000000000E-01  1.1990601758287E+00  5.4567153291963E-01
55  5.4000000000000E-01  1.1551243428581E+00  6.1864492124551E-01
56  5.5000000000000E-01  1.1098737882517E+00  6.9001594891807E-01
57  5.6000000000000E-01  1.0634883256425E+00  7.5971030530676E-01
58  5.7000000000000E-01  1.0161518917128E+00  8.2768224844193E-01
59  5.8000000000000E-01  9.6805084568503E-01  8.9390413807128E-01
60  5.9000000000000E-01  9.1937219749374E-01  9.5835518174463E-01
61  6.0000000000000E-01  8.7030180023838E-01  1.0210097752677E+00
62  6.1000000000000E-01  8.2102254408404E-01  1.0818258377888E+00
63  6.2000000000000E-01  7.7171258944531E-01  1.1407335497023E+00
64  6.3000000000000E-01  7.2254367702007E-01  1.1976248980791E+00
65  6.4000000000000E-01  6.7367955102894E-01  1.2523444193611E+00
66  6.5000000000000E-01  6.2527452987774E-01  1.3046815027902E+00
67  6.6000000000000E-01  5.7747225543286E-01  1.3543645809880E+00
68  6.7000000000000E-01  5.3040464824614E-01  1.4010574870527E+00
69  6.8000000000000E-01  4.8419109146997E-01  1.4443582015774E+00
70  6.9000000000000E-01  4.3893786097040E-01  1.4838001494417E+00
71  7.0000000000000E-01  3.9473781339657E-01  1.5188561366477E+00
72  7.1000000000000E-01  3.5167033783818E-01  1.5489449435966E+00
73  7.2000000000000E-01  3.0980157034489E-01  1.5734405149199E+00
74  7.3000000000000E-01  2.6918486415299E-01  1.5916836092854E+00
75  7.4000000000000E-01  2.2986150212288E-01  1.6029956975048E+00
76  7.5000000000000E-01  1.9186163180101E-01  1.6066948258401E+00
77  7.6000000000000E-01  1.5520539783691E-01  1.6021130955810E+00
78  7.7000000000000E-01  1.1990424136092E-01  1.5886153516469E+00
79  7.8000000000000E-01  8.5962331499496E-02  1.5656186238416E+00
80  7.9000000000000E-01  5.3378090593707E-02  1.5326118259799E+00
81  8.0000000000000E-01  2.2145771998524E-02  1.4891751916614E+00
82  8.1000000000000E-01 -7.7429523443064E-03  1.4349989119772E+00
83  8.2000000000000E-01 -3.6297437988893E-02  1.3699004405436E+00
84  8.3000000000000E-01 -6.3526590680366E-02  1.2938399453111E+00
85  8.4000000000000E-01 -8.9437507048439E-02  1.2069334145535E+00
86  8.5000000000000E-01 -1.1403427203757E-01  1.1094629659235E+00
87  8.6000000000000E-01 -1.3731694813799E-01  1.0018839617422E+00
88  8.7000000000000E-01 -1.5928078685899E-01  8.8482859967269E-01
89  8.8000000000000E-01 -1.7991568741468E-01  7.5910572423783E-01
90  8.9000000000000E-01 -1.9920592139966E-01  6.2569668957804E-01
91  9.0000000000000E-01 -2.1713013546020E-01  4.8574719547196E-01
92  9.1000000000000E-01 -2.3366163677877E-01  3.4055511481768E-01
93  9.2000000000000E-01 -2.4876895875959E-01  1.9155442918808E-01
94  9.3000000000000E-01 -2.6241669681322E-01  4.0295487324030E-02
95  9.4000000000000E-01 -2.7456659677646E-01 -1.1157810292793E-01
96  9.5000000000000E-01 -2.8517887145586E-01 -2.6235554812153E-01
97  9.6000000000000E-01 -2.9421371423121E-01 -4.1028742383793E-01
98  9.7000000000000E-01 -3.0163297277034E-01 -5.5361615249374E-01
99  9.8000000000000E-01 -3.0740194084646E-01 -6.9060778439265E-01
100  9.9000000000000E-01 -3.1149122215213E-01 -8.1958441344629E-01
101  1.0000000000000E+00 -3.1387861698727E-01 -9.3895652519437E-01
102  1.0100000000000E+00 -3.1455098085500E-01 -1.0472545569310E+00
103  1.0200000000000E+00 -3.1350600339012E-01 -1.1431589486015E+00
104  1.0300000000000E+00 -3.1075385670611E-01 -1.2255279790779E+00
105  1.0400000000000E+00 -3.0631866418354E-01 -1.2934227153885E+00
106  1.0500000000000E+00 -3.0023974389654E-01 -1.3461284518828E+00
107  1.0600000000000E+00 -2.9257258524383E-01 -1.3831720815212E+00
108  1.0700000000000E+00 -2.8338952280716E-01 -1.4043349209139E+00
109  1.0800000000000E+00 -2.7278007789381E-01 -1.4096606029142E+00
110  1.0900000000000E+00 -2.6085094550458E-01 -1.3994577536913E+00
111  1.1000000000000E+00 -2.4772561239009E-01 -1.3742972823740E+00
112  1.1100000000000E+00 -2.3354360031374E-01 -1.3350042291519E+00
113  1.1200000000000E+00 -2.1845933732971E-01 -1.2826442380799E+00
114  1.1300000000000E+00 -2.0264066871178E-01 -1.2185048424544E+00
115  1.1400000000000E+00 -1.8626702781712E-01 -1.1440718692524E+00
116  1.1500000000000E+00 -1.6952729552827E-01 -1.0610013832579E+00
117  1.1600000000000E+00 -1.5261738468696E-01 -9.7108769716526E-01
118  1.1700000000000E+00 -1.3573759301998E-01 -8.7622806984270E-01
119  1.1800000000000E+00 -1.1908977418302E-01 -7.7838479741403E-01
120  1.1900000000000E+00 -1.0287438166090E-01 -6.7954547014978E-01
121  1.2000000000000E+00 -8.7287444132497E-02 -5.8168221935380E-01
122  1.2100000000000E+00 -7.2517533515443E-02 -4.8671081219921E-01
123  1.2200000000000E+00 -5.8742789488091E-02 -3.9645048910487E-01
124  1.2300000000000E+00 -4.6128044707054E-02 -3.1258515950478E-01
125  1.2400000000000E+00 -3.4821588749161E-02 -2.3661799846039E-01
126  1.2500000000000E+00 -2.4940617726995E-02 -1.6964965366523E-01
127  1.2600000000000E+00 -1.6594767569381E-02 -1.1276565277041E-01
128  1.2700000000000E+00 -9.8811344753877E-03 -6.6941919482421E-02
129  1.2800000000000E+00 -4.8707684140104E-03 -3.2831842918236E-02
130  1.2900000000000E+00 -1.6031413616531E-03 -1.0730025706252E-02
131  1.3000000000000E+00 -1.3418817884255E-04 -8.8957757344159E-04
132  1.3100000000000E+00  9.5734584484078E-06  6.3105195184296E-05
133  1.3200000000000E+00  4.9500912462847E-07  3.2952342138391E-06
134  1.33  0.  0.
135  1.34  0.  0.
136  1.35  0.  0.
137  1.36  0.  0.
138  1.37  0.  0.
139  1.38  0.  0.
140  1.39  0.  0.
141  1.40  0.  0.
142  1.41  0.  0.
143  1.42  0.  0.
144  1.43  0.  0.
145  1.44  0.  0.
146  1.45  0.  0.
147  1.46  0.  0.
148  1.47  0.  0.
149  1.48  0.  0.
150  1.49  0.  0.
151  1.50  0.  0.
152  1.51  0.  0.
153  1.52  0.  0.
154  1.53  0.  0.
155  1.54  0.  0.
156  1.55  0.  0.
157  1.56  0.  0.
158  1.57  0.  0.
159  1.58  0.  0.
160  1.59  0.  0.
161  1.60  0.  0.
162  1.61  0.  0.
163  1.62  0.  0.
164  1.63  0.  0.
165  1.64  0.  0.
166  1.65  0.  0.
167  1.66  0.  0.
168  1.67  0.  0.
169  1.68  0.  0.
170  1.69  0.  0.
171  1.70  0.  0.
172  1.71  0.  0.
173  1.72  0.  0.
174  1.73  0.  0.
175  1.74  0.  0.
176  1.75  0.  0.
177  1.76  0.  0.
178  1.77  0.  0.
179  1.78  0.  0.
180  1.79  0.  0.
181  1.80  0.  0.
182  1.81  0.  0.
183  1.82  0.  0.
184  1.83  0.  0.
185  1.84  0.  0.
186  1.85  0.  0.
187  1.86  0.  0.
188  1.87  0.  0.
189  1.88  0.  0.
190  1.89  0.  0.
191  1.90  0.  0.
192  1.91  0.  0.
193  1.92  0.  0.
194  1.93  0.  0.
195  1.94  0.  0.
196  1.95  0.  0.
197  1.96  0.  0.
198  1.97  0.  0.
199  1.98  0.  0.
200  1.99  0.  0.
201  2.00  0.  0.
202  2.01  0.  0.
203  2.02  0.  0.
204  2.03  0.  0.
205  2.04  0.  0.
206  2.05  0.  0.
207  2.06  0.  0.
208  2.07  0.  0.
209  2.08  0.  0.
210  2.09  0.  0.
211  2.10  0.  0.
212  2.11  0.  0.
213  2.12  0.  0.
214  2.13  0.  0.
215  2.14  0.  0.
216  2.15  0.  0.
217  2.16  0.  0.
218  2.17  0.  0.
219  2.18  0.  0.
220  2.19  0.  0.
221  2.20  0.  0.
222  2.21  0.  0.
223  2.22  0.  0.
224  2.23  0.  0.
225  2.24  0.  0.
226  2.25  0.  0.
227  2.26  0.  0.
228  2.27  0.  0.
229  2.28  0.  0.
230  2.29  0.  0.
231  2.30  0.  0.
232  2.31  0.  0.
233  2.32  0.  0.
234  2.33  0.  0.
235  2.34  0.  0.
236  2.35  0.  0.
237  2.36  0.  0.
238  2.37  0.  0.
239  2.38  0.  0.
240  2.39  0.  0.
241  2.40  0.  0.
242  2.41  0.  0.
243  2.42  0.  0.
244  2.43  0.  0.
245  2.44  0.  0.
246  2.45  0.  0.
247  2.46  0.  0.
248  2.47  0.  0.
249  2.48  0.  0.
250  2.49  0.  0.
251  2.50  0.  0.
252  2.51  0.  0.
253  2.52  0.  0.
254  2.53  0.  0.
255  2.54  0.  0.
256  2.55  0.  0.
257  2.56  0.  0.
258  2.57  0.  0.
259  2.58  0.  0.
260  2.59  0.  0.
261  2.60  0.  0.
262  2.61  0.  0.
263  2.62  0.  0.
264  2.63  0.  0.
265  2.64  0.  0.
266  2.65  0.  0.
267  2.66  0.  0.
268  2.67  0.  0.
269  2.68  0.  0.
270  2.69  0.  0.
271  2.70  0.  0.
272  2.71  0.  0.
273  2.72  0.  0.
274  2.73  0.  0.
275  2.74  0.  0.
276  2.75  0.  0.
277  2.76  0.  0.
278  2.77  0.  0.
279  2.78  0.  0.
280  2.79  0.  0.
281  2.80  0.  0.
282  2.81  0.  0.
283  2.82  0.  0.
284  2.83  0.  0.
285  2.84  0.  0.
286  2.85  0.  0.
287  2.86  0.  0.
288  2.87  0.  0.
289  2.88  0.  0.
290  2.89  0.  0.
291  2.90  0.  0.
292  2.91  0.  0.
293  2.92  0.  0.
294  2.93  0.  0.
295  2.94  0.  0.
296  2.95  0.  0.
297  2.96  0.  0.
298  2.97  0.  0.
299  2.98  0.  0.
300  2.99  0.  0.
301  3.00  0.  0.
302  3.01  0.  0.
303  3.02  0.  0.
304  3.03  0.  0.
305  3.04  0.  0.
306  3.05  0.  0.
307  3.06  0.  0.
308  3.07  0.  0.
309  3.08  0.  0.
310  3.09  0.  0.
311  3.10  0.  0.
312  3.11  0.  0.
313  3.12  0.  0.
314  3.13  0.  0.
315  3.14  0.  0.
316  3.15  0.  0.
317  3.16  0.  0.
318  3.17  0.  0.
319  3.18  0.  0.
320  3.19  0.  0.
321  3.20  0.  0.
322  3.21  0.  0.
323  3.22  0.  0.
324  3.23  0.  0.
325  3.24  0.  0.
326  3.25  0.  0.
327  3.26  0.  0.
328  3.27  0.  0.
329  3.28  0.  0.
330  3.29  0.  0.
331  3.30  0.  0.
332  3.31  0.  0.
333  3.32  0.  0.
334  3.33  0.  0.
335  3.34  0.  0.
336  3.35  0.  0.
337  3.36  0.  0.
338  3.37  0.  0.
339  3.38  0.  0.
340  3.39  0.  0.
341  3.40  0.  0.
342  3.41  0.  0.
343  3.42  0.  0.
344  3.43  0.  0.
345  3.44  0.  0.
346  3.45  0.  0.
347  3.46  0.  0.
348  3.47  0.  0.
349  3.48  0.  0.
350  3.49  0.  0.
351  3.50  0.  0.
352  3.51  0.  0.
353  3.52  0.  0.
354  3.53  0.  0.
355  3.54  0.  0.
356  3.55  0.  0.
357  3.56  0.  0.
358  3.57  0.  0.
359  3.58  0.  0.
360  3.59  0.  0.
361  3.60  0.  0.
362  3.61  0.  0.
363  3.62  0.  0.
364  3.63  0.  0.
365  3.64  0.  0.
366  3.65  0.  0.
367  3.66  0.  0.
368  3.67  0.  0.
369  3.68  0.  0.
370  3.69  0.  0.
371  3.70  0.  0.
372  3.71  0.  0.
373  3.72  0.  0.
374  3.73  0.  0.
375  3.74  0.  0.
376  3.75  0.  0.
377  3.76  0.  0.
378  3.77  0.  0.
379  3.78  0.  0.
380  3.79  0.  0.
381  3.80  0.  0.
382  3.81  0.  0.
383  3.82  0.  0.
384  3.83  0.  0.
385  3.84  0.  0.
386  3.85  0.  0.
387  3.86  0.  0.
388  3.87  0.  0.
389  3.88  0.  0.
390  3.89  0.  0.
391  3.90  0.  0.
392  3.91  0.  0.
393  3.92  0.  0.
394  3.93  0.  0.
395  3.94  0.  0.
396  3.95  0.  0.
397  3.96  0.  0.
398  3.97  0.  0.
399  3.98  0.  0.
400  3.99  0.  0.
401  4.00  0.  0.
402  4.01  0.  0.
403  4.02  0.  0.
404  4.03  0.  0.
405  4.04  0.  0.
406  4.05  0.  0.
407  4.06  0.  0.
408  4.07  0.  0.
409  4.08  0.  0.
410  4.09  0.  0.
411  4.10  0.  0.
412  4.11  0.  0.
413  4.12  0.  0.
414  4.13  0.  0.
415  4.14  0.  0.
416  4.15  0.  0.
417  4.16  0.  0.
418  4.17  0.  0.
419  4.18  0.  0.
420  4.19  0.  0.
421  4.20  0.  0.
422  4.21  0.  0.
423  4.22  0.  0.
424  4.23  0.  0.
425  4.24  0.  0.
426  4.25  0.  0.
427  4.26  0.  0.
428  4.27  0.  0.
429  4.28  0.  0.
430  4.29  0.  0.
431  4.30  0.  0.
432  4.31  0.  0.
433  4.32  0.  0.
434  4.33  0.  0.
435  4.34  0.  0.
436  4.35  0.  0.
437  4.36  0.  0.
438  4.37  0.  0.
439  4.38  0.  0.
440  4.39  0.  0.
441  4.40  0.  0.
442  4.41  0.  0.
443  4.42  0.  0.
444  4.43  0.  0.
445  4.44  0.  0.
446  4.45  0.  0.
447  4.46  0.  0.
448  4.47  0.  0.
449  4.48  0.  0.
450  4.49  0.  0.
451  4.50  0.  0.
452  4.51  0.  0.
453  4.52  0.  0.
454  4.53  0.  0.
455  4.54  0.  0.
456  4.55  0.  0.
457  4.56  0.  0.
458  4.57  0.  0.
459  4.58  0.  0.
460  4.59  0.  0.
461  4.60  0.  0.
462  4.61  0.  0.
463  4.62  0.  0.
464  4.63  0.  0.
465  4.64  0.  0.
466  4.65  0.  0.
467  4.66  0.  0.
468  4.67  0.  0.
469  4.68  0.  0.
470  4.69  0.  0.
471  4.70  0.  0.
472  4.71  0.  0.
473  4.72  0.  0.
474  4.73  0.  0.
475  4.74  0.  0.
476  4.75  0.  0.
477  4.76  0.  0.
478  4.77  0.  0.
479  4.78  0.  0.
480  4.79  0.  0.
481  4.80  0.  0.
482  4.81  0.  0.
483  4.82  0.  0.
484  4.83  0.  0.
485  4.84  0.  0.
486  4.85  0.  0.
487  4.86  0.  0.
488  4.87  0.  0.
489  4.88  0.  0.
490  4.89  0.  0.
491  4.90  0.  0.
492  4.91  0.  0.
493  4.92  0.  0.
494  4.93  0.  0.
495  4.94  0.  0.
496  4.95  0.  0.
497  4.96  0.  0.
498  4.97  0.  0.
499  4.98  0.  0.
500  4.99  0.  0.
501  5.00  0.  0.
502  5.01  0.  0.
503  5.02  0.  0.
504  5.03  0.  0.
505  5.04  0.  0.
506  5.05  0.  0.
507  5.06  0.  0.
508  5.07  0.  0.
509  5.08  0.  0.
510  5.09  0.  0.
511  5.10  0.  0.
512  5.11  0.  0.
513  5.12  0.  0.
514  5.13  0.  0.
515  5.14  0.  0.
516  5.15  0.  0.
517  5.16  0.  0.
518  5.17  0.  0.
519  5.18  0.  0.
520  5.19  0.  0.
521  5.20  0.  0.
522  5.21  0.  0.
523  5.22  0.  0.
524  5.23  0.  0.
525  5.24  0.  0.
526  5.25  0.  0.
527  5.26  0.  0.
528  5.27  0.  0.
529  5.28  0.  0.
530  5.29  0.  0.
531  5.30  0.  0.
532  5.31  0.  0.
533  5.32  0.  0.
534  5.33  0.  0.
535  5.34  0.  0.
536  5.35  0.  0.
537  5.36  0.  0.
538  5.37  0.  0.
539  5.38  0.  0.
540  5.39  0.  0.
541  5.40  0.  0.
542  5.41  0.  0.
543  5.42  0.  0.
544  5.43  0.  0.
545  5.44  0.  0.
546  5.45  0.  0.
547  5.46  0.  0.
548  5.47  0.  0.
549  5.48  0.  0.
550  5.49  0.  0.
551  5.50  0.  0.
552  5.51  0.  0.
553  5.52  0.  0.
554  5.53  0.  0.
555  5.54  0.  0.
556  5.55  0.  0.
557  5.56  0.  0.
558  5.57  0.  0.
559  5.58  0.  0.
560  5.59  0.  0.
561  5.60  0.  0.
562  5.61  0.  0.
563  5.62  0.  0.
564  5.63  0.  0.
565  5.64  0.  0.
566  5.65  0.  0.
567  5.66  0.  0.
568  5.67  0.  0.
569  5.68  0.  0.
570  5.69  0.  0.
571  5.70  0.  0.
572  5.71  0.  0.
573  5.72  0.  0.
574  5.73  0.  0.
575  5.74  0.  0.
576  5.75  0.  0.
577  5.76  0.  0.
578  5.77  0.  0.
579  5.78  0.  0.
580  5.79  0.  0.
581  5.80  0.  0.
582  5.81  0.  0.
583  5.82  0.  0.
584  5.83  0.  0.
585  5.84  0.  0.
586  5.85  0.  0.
587  5.86  0.  0.
588  5.87  0.  0.
589  5.88  0.  0.
590  5.89  0.  0.
591  5.90  0.  0.
592  5.91  0.  0.
593  5.92  0.  0.
594  5.93  0.  0.
595  5.94  0.  0.
596  5.95  0.  0.
597  5.96  0.  0.
598  5.97  0.  0.
599  5.98  0.  0.
600  5.99  0.  0.
1                         1.2939228501027E+01  2.1171748748102E+00  1.3824886430467E-01
1  0.0000000000000E+00 -3.6824764765298E-09  1.2668384008485E-08 -1.8114810929060E-08
2  1.0000000000000E-02  1.6460899717331E-03 -9.9750022035579E-04  1.4900397453287E-03
3  2.0000000000000E-02  6.5807677829731E-03 -3.9907374986365E-03  5.9576520891558E-03
4  3.0000000000000E-02  1.4793189606642E-02 -8.9816712877052E-03  1.3395002744692E-02
5  4.0000000000000E-02  2.6265059648432E-02 -1.5972740664963E-02  2.3788000775897E-02
6  5.0000000000000E-02  4.0970304018867E-02 -2.4965652051237E-02  3.7114788101765E-02
7  6.0000000000000E-02  5.8874629933684E-02 -3.5959736725611E-02  5.3343704022465E-02
8  7.0000000000000E-02  7.9934985532225E-02 -4.8949931087108E-02  7.2430801306457E-02
9  8.0000000000000E-02  1.0409893928601E-01 -6.3924445282501E-02  9.4317008492549E-02
10  9.0000000000000E-02  1.3130400116075E-01 -8.0862196727864E-02  1.1892504849513E-01
11  1.0000000000000E-01  1.6147691031149E-01 -9.9730093902589E-02  1.4615623590248E-01
12  1.1000000000000E-01  1.9453291606174E-01 -1.2048026234160E-01  1.7588728415770E-01
13  1.2000000000000E-01  2.3037508019103E-01 -1.4304730880781E-01  2.0796725882951E-01
14  1.3000000000000E-01  2.6889362909357E-01 -1.6734572106749E-01  2.4221481423517E-01
15  1.4000000000000E-01  3.0996538415635E-01 -1.9326749946041E-01  2.7841584769486E-01
16  1.5000000000000E-01  3.5345329773888E-01 -2.2068011256376E-01  3.1632169870270E-01
17  1.6000000000000E-01  3.9920612043725E-01 -2.4942486277615E-01  3.5564800943269E-01
18  1.7000000000000E-01  4.4705822292147E-01 -2.7931573874021E-01  3.9607434849496E-01
19  1.8000000000000E-01  4.9682959260161E-01 -3.1013882039110E-01  4.3724468205771E-01
20  1.9000000000000E-01  5.4832602177645E-01 -3.4165228933229E-01  4.7876875577992E-01
21  2.0000000000000E-01  6.0133949983515E-01 -3.7358708251974E-01  5.2022442796690E-01
22  2.1000000000000E-01  6.5564881761535E-01 -4.0564821124797E-01  5.6116096954109E-01
23  2.2000000000000E-01  7.1102038727897E-01 -4.3751675057590E-01  6.0110332044309E-01
24  2.3000000000000E-01  7.6720927616568E-01 -4.6885248703498E-01  6.3955726561067E-01
25  2.4000000000000E-01  8.2396044814426E-01 -4.9929719516755E-01  6.7601546741538E-01
26  2.5000000000000E-01  8.8101020112507E-01 -5.2847849659575E-01  7.0996426606175E-01
27  2.6000000000000E-01  9.3808778474430E-01 -5.5601423935955E-01  7.4089113565283E-01
28  2.7000000000000E-01  9.9491717789792E-01 -5.8151732060585E-01  7.6829266204776E-01
29  2.8000000000000E-01  1.0512190018996E+00 -6.0460086275129E-01  7.9168288988569E-01
30  2.9000000000000E-01  1.1067125416603E+00 -6.2488364233024E-01  8.1060187076249E-01
31  3.0000000000000E-01  1.1611178445266E+00 -6.4199566218066E-01  8.2462423298658E-01
32  3.1000000000000E-01  1.2141578643338E+00 -6.5558375166009E-01  8.3336758597601E-01
33  3.2000000000000E-01  1.2655606168981E+00 -6.6531707640576E-01  8.3650056946230E-01
34  3.3000000000000E-01  1.3150613126040E+00 -6.7089243887127E-01  8.3375035939864E-01
35  3.4000000000000E-01  1.3624044319790E+00 -6.7203925352927E-01  8.2490944887621E-01
36  3.5000000000000E-01  1.4073457111686E+00 -6.6852408619410E-01  8.0984153336322E-01
37  3.6000000000000E-01  1.4496540060128E+00 -6.6015465528390E-01  7.8848634500843E-01
38  3.7000000000000E-01  1.4891130059441E+00 -6.4678320382986E-01  7.6086330029323E-01
39  3.8000000000000E-01  1.5255227721067E+00 -6.2830916440521E-01  7.2707384856451E-01
40  3.9000000000000E-01  1.5587010778685E+00 -6.0468105457755E-01  6.8730243542559E-01
41  4.0000000000000E-01  1.5884845341632E+00 -5.7589755761953E-01  6.4181602400998E-01
42  4.1000000000000E-01  1.6147294867539E+00 -5.4200776163214E-01  5.9096214813996E-01
43  4.2000000000000E-01  1.6373126774430E+00 -5.0311054949096E-01  5.3516550355478E-01
44  4.3000000000000E-01  1.6561316663282E+00 -4.5935315164122E-01  4.7492311600783E-01
45  4.4000000000000E-01  1.6711050173100E+00 -4.1092889325243E-01  4.1079815729288E-01
46  4.5000000000000E-01  1.6821722540463E+00 -3.5807418610160E-01  3.4341251136804E-01
47  4.6000000000000E-01  1.6892935983127E+00 -3.0106483330360E-01  2.7343822192975E-01
48  4.7000000000000E-01  1.6924495071236E+00 -2.4021173118660E-01  2.0158797930711E-01
49  4.8000000000000E-01  1.6916400289079E+00 -1.7585606679238E-01  1.2860482771427E-01
50  4.9000000000000E-01  1.6868840023868E+00 -1.0836412128715E-01  5.5251293110015E-02
51  5.0000000000000E-01  1.6782181245053E+00 -3.8121798672405E-02 -1.7701853355839E-02
52  5.1000000000000E-01  1.6656959157398E+00  3.4470994670175E-02 -8.9486971491485E-02
53  5.2000000000000E-01  1.6493866122898E+00  1.0900599106714E-01 -1.5935083834475E-01
54  5.3000000000000E-01  1.6293740150405E+00  1.8507209499685E-01 -2.2656561587676E-01
55  5.4000000000000E-01  1.6057553247304E+00  2.6226068414249E-01 -2.9043927741942E-01
56  5.5000000000000E-01  1.5786399915004E+00  3.4017056006054E-01 -3.5032528175956E-01
57  5.6000000000000E-01  1.5481486049566E+00  4.1841244029808E-01 -4.0563130023827E-01
58  5.7000000000000E-01  1.5144118481179E+00  4.9661289647178E-01 -4.5582682353951E-01
59  5.8000000000000E-01  1.4775695352023E+00  5.7441765805204E-01 -5.0044950039259E-01
60  5.9000000000000E-01  1.4377697492362E+00  6.5149421900603E-01 -5.3911008963568E-01
61  6.0000000000000E-01  1.3951680910483E+00  7.2753370361212E-01 -5.7149593930210E-01
62  6.1000000000000E-01  1.3499270464685E+00  8.0225196818021E-01 -5.9737294081920E-01
63  6.2000000000000E-01  1.3022154736095E+00  8.7538993657673E-01 -6.1658594222424E-01
64  6.3000000000000E-01  1.2522082071198E+00  9.4671318880747E-01 -6.2905764061993E-01
65  6.4000000000000E-01  1.2000857713932E+00  1.0160108428957E+00 -6.3478601001702E-01
66  6.5000000000000E-01  1.1460341900527E+00  1.0830937903447E+00 -6.3384035533634E-01
67  6.6000000000000E-01  1.0902448747231E+00  1.1477923640490E+00 -6.2635611580086E-01
68  6.7000000000000E-01  1.0329145723173E+00  1.2099535341021E+00 -6.1252857039111E-01
69  6.8000000000000E-01  9.7424534687704E-01  1.2694377410711E+00 -5.9260562371878E-01
70  6.9000000000000E-01  9.1444456956197E-01  1.3261154875569E+00 -5.6687987189873E-01
71  7.0000000000000E-01  8.5372488873912E-01  1.3798638168882E+00 -5.3568016420690E-01
72  7.1000000000000E-01  7.9230415135866E-01  1.4305628123434E+00 -4.9936288704874E-01
73  7.2000000000000E-01  7.3040524695791E-01  1.4780922511797E+00 -4.5830320170887E-01
74  7.3000000000000E-01  6.6825584672698E-01  1.5223285448834E+00 -4.1288646634421E-01
75  7.4000000000000E-01  6.0608801209244E-01  1.5631420904611E+00 -3.6350006569313E-01
76  7.5000000000000E-01  5.4413765019699E-01  1.6003951473628E+00 -3.1052585913383E-01
77  7.6000000000000E-01  4.8264379741577E-01  1.6339403409900E+00 -2.5433343932841E-01
78  7.7000000000000E-01  4.2184771657138E-01  1.6636198769815E+00 -1.9527437014981E-01
79  7.8000000000000E-01  3.6199179868654E-01  1.6892655309776E+00 -1.3367754449063E-01
80  7.9000000000000E-01  3.0331826582021E-01  1.7106994568117E+00 -6.9845770574168E-02
81  8.0000000000000E-01  2.4606767762775E-01  1.7277358325956E+00 -4.0536603339399E-03
82  8.1000000000000E-01  1.9047725061337E-01  1.7401833395416E+00  6.3453143815076E-02
83  8.2000000000000E-01  1.3677900543588E-01  1.7478484432328E+00  1.3245740596531E-01
84  8.3000000000000E-01  8.5197763915190E-02  1.7505394220711E+00  2.0276843833001E-01
85  8.4000000000000E-01  3.5949023392919E-02  1.7480710634645E+00  2.7421902627201E-01
86  8.5000000000000E-01 -1.0763258346390E-02  1.7402699256121E+00  3.4666125167782E-01
87  8.6000000000000E-01 -5.4748929449211E-02  1.7269800421569E+00  4.1996136297305E-01
88  8.7000000000000E-01 -9.5833919349366E-02  1.7080689290736E+00  4.9399386976394E-01
89  8.8000000000000E-01 -1.3386247752964E-01  1.6834337384859E+00  5.6863506525562E-01
90  8.9000000000000E-01 -1.6869932786890E-01  1.6530073931271E+00  6.4375619952482E-01
91  9.0000000000000E-01 -2.0023168962659E-01  1.6167645282350E+00  7.1921654080799E-01
92  9.1000000000000E-01 -2.2837111616936E-01  1.5747270650948E+00  7.9485656974858E-01
93  9.2000000000000E-01 -2.5305510381755E-01  1.5269692423775E+00  8.7049155273217E-01
94  9.3000000000000E-01 -2.7424842569013E-01  1.4736219379296E+00  9.4590573489313E-01
95  9.4000000000000E-01 -2.9194414913269E-01  1.4148761247009E+00  1.0208473811408E+00
96  9.5000000000000E-01 -3.0616430017125E-01  1.3509853198671E+00  1.0950248748401E+00
97  9.6000000000000E-01 -3.1696014435919E-01  1.2822669056469E+00  1.1681040589808E+00
98  9.7000000000000E-01 -3.2441206026419E-01  1.2091022234153E+00  1.2397069743183E+00
99  9.8000000000000E-01 -3.2862898953439E-01  1.1319353689921E+00  1.3094121137884E+00
100  9.9000000000000E-01 -3.2974745582630E-01  1.0512706458512E+00  1.3767562732923E+00
101  1.0000000000000E+00 -3.2793015368823E-01  9.6766866378910E-01  1.4412380366897E+00
102  1.0100000000000E+00 -3.2336411757055E-01  8.8174110259165E-01  1.5023228885552E+00
103  1.0200000000000E+00 -3.1625849026267E-01  7.9414419265287E-01  1.5594499030902E+00
104  1.0300000000000E+00 -3.0684191903517E-01  7.0557099659769E-01  1.6120399126070E+00
105  1.0400000000000E+00 -2.9535961635505E-01  6.1674260687331E-01  1.6595050154655E+00
106  1.0500000000000E+00 -2.8207013003775E-01  5.2839840323609E-01  1.7012592423682E+00
107  1.0600000000000E+00 -2.6724187491125E-01  4.4128554038280E-01  1.7367301624936E+00
108  1.0700000000000E+00 -2.5114948427668E-01  3.5614785884296E-01  1.7653711782701E+00
109  1.0800000000000E+00 -2.3407004451640E-01  2.7371443114074E-01  1.7866742304118E+00
110  1.0900000000000E+00 -2.1627927996459E-01  1.9468796955885E-01  1.8001826140126E+00
111  1.1000000000000E+00 -1.9804775750243E-01  1.1973333115302E-01  1.8055035926714E+00
112  1.1100000000000E+00 -1.7963718119023E-01  4.9466359680171E-02  1.8023204912178E+00
113  1.1200000000000E+00 -1.6129684655145E-01 -1.5556697401022E-02  1.7904039489395E+00
114  1.1300000000000E+00 -1.4326032185486E-01 -7.4848965805151E-02  1.7696220244034E+00
115  1.1400000000000E+00 -1.2574241994757E-01 -1.2800169669298E-01  1.7399488598119E+00
116  1.1500000000000E+00 -1.0893651889414E-01 -1.7469179382910E-01  1.7014716372225E+00
117  1.1600000000000E+00 -9.3012283029096E-02 -2.1468793793800E-01  1.6543955901443E+00
118  1.1700000000000E+00 -7.8113828079122E-02 -2.4785515808966E-01  1.5990468717148E+00
119  1.1800000000000E+00 -6.4358365035692E-02 -2.7415773116813E-01  1.5358731234936E+00
120  1.1900000000000E+00 -5.1835347490170E-02 -2.9366032528756E-01  1.4654416366520E+00
121  1.2000000000000E+00 -4.0606136590673E-02 -3.0652733996465E-01  1.3884350479651E+00
122  1.2100000000000E+00 -3.0704186663685E-02 -3.1302043484852E-01  1.3056445663511E+00
123  1.2200000000000E+00 -2.2135743296915E-02 -3.1349427830642E-01  1.2179607795883E+00
124  1.2300000000000E+00 -1.4881034441437E-02 -3.0839058666143E-01  1.1263621445444E+00
125  1.2400000000000E+00 -8.8959241246753E-03 -2.9823056342764E-01  1.0319013164173E+00
126  1.2500000000000E+00 -4.1139880212458E-03 -2.8360588424095E-01  9.3568952140266E-01
127  1.2600000000000E+00 -4.4896048610543E-04 -2.6516840703720E-01  8.3887922239250E-01
128  1.2700000000000E+00  2.2025059181942E-03 -2.4361881707497E-01  7.4264536699446E-01
129  1.2800000000000E+00  3.9578347205923E-03 -2.1969444209516E-01  6.4816554060029E-01
130  1.2900000000000E+00  4.9453471605752E-03 -1.9415649788627E-01  5.5659937179945E-01
131  1.3000000000000E+00  5.3009725750554E-03 -1.6777698144878E-01  4.6906758304546E-01
132  1.3100000000000E+00  5.1649577804802E-03 -1.4132559474996E-01  3.8663102687322E-01
133  1.3200000000000E+00  4.6765111137086E-03 -1.1554943071284E-01  3.1027349936794E-01
134  1.3300000000000E+00  3.9661871418610E-03 -9.1145261956324E-02  2.4089013099850E-01
135  1.3400000000000E+00  3.1365569085280E-03 -6.8707611778970E-02  1.7926098688528E-01
136  1.3500000000000E+00  2.2788120848738E-03 -4.8766071853628E-02  1.2606484046089E-01
137  1.3600000000000E+00  1.4888960199388E-03 -3.1820686384135E-02  8.1875792926455E-02
138  1.3700000000000E+00  8.3708737297097E-04 -1.8265214904343E-02  4.7119887121346E-02
139  1.3800000000000E+00  3.6723649724514E-04 -8.3867793805981E-03  2.2083615215832E-02
140  1.3900000000000E+00  9.3922690124121E-05 -2.3246870804748E-03  6.7946653820653E-03
141  1.4000000000000E+00  6.9209959889277E-06 -2.2334077119374E-04  1.5423302685623E-03