Ts    ONCVPSP-4.0.1  r_core=   1.30353   1.30353   1.35117   1.40055
117.0000     25.0000      230111    zatom,zion,pspd
8      11   3     4   600     0    pspcod,pspxc,lmax,lloc,mmax,r2well
5.99000000  5.00000000  0.00000000    rchrg fchrg qchrg
2     2     2     1     0    nproj
1     1           extension_switch
0                         1.4297562891094E+01 -1.4797481202369E+00
1  0.0000000000000E+00 -2.6697565269629E-09 -3.6616790967392E-08
2  1.0000000000000E-02  7.5494109846362E-02 -1.0277672991193E-03
3  2.0000000000000E-02  1.5078918632658E-01 -2.6874580675444E-03
4  3.0000000000000E-02  2.2568766171748E-01 -5.5941208300023E-03
5  4.0000000000000E-02  2.9999487100977E-01 -1.0329456748438E-02
6  5.0000000000000E-02  3.7352043254610E-01 -1.7426142517394E-02
7  6.0000000000000E-02  4.4607954577088E-01 -2.7353322119127E-02
8  7.0000000000000E-02  5.1749418169951E-01 -4.0503612711125E-02
9  8.0000000000000E-02  5.8759414438469E-01 -5.7181933301928E-02
10  9.0000000000000E-02  6.5621798486617E-01 -7.7596420804816E-02
11  1.0000000000000E-01  7.2321375275794E-01 -1.0185164761789E-01
12  1.1000000000000E-01  7.8843957465953E-01 -1.2994429929599E-01
13  1.2000000000000E-01  8.5176405287562E-01 -1.6176141151101E-01
14  1.3000000000000E-01  9.1306648238024E-01 -1.9708120379598E-01
15  1.4000000000000E-01  9.7223688845608E-01 -2.3557648504207E-01
16  1.5000000000000E-01  1.0291758918622E+00 -2.7682054389978E-01
17  1.6000000000000E-01  1.0837944126204E+00 -3.2029537763814E-01
18  1.7000000000000E-01  1.1360132274545E+00 -3.6540205710397E-01
19  1.8000000000000E-01  1.1857623994654E+00 -4.1147297456767E-01
20  1.9000000000000E-01  1.2329806016860E+00 -4.5778567669432E-01
21  2.0000000000000E-01  1.2776143586548E+00 -5.0357794773563E-01
22  2.1000000000000E-01  1.3196172320079E+00 -5.4806377921453E-01
23  2.2000000000000E-01  1.3589489772658E+00 -5.9044984258188E-01
24  2.3000000000000E-01  1.3955746994542E+00 -6.2995207105290E-01
25  2.4000000000000E-01  1.4294640349229E+00 -6.6581195633281E-01
26  2.5000000000000E-01  1.4605903857321E+00 -6.9731217522920E-01
27  2.6000000000000E-01  1.4889302312613E+00 -7.2379117999088E-01
28  2.7000000000000E-01  1.5144625393298E+00 -7.4465641413713E-01
29  2.8000000000000E-01  1.5371682961277E+00 -7.5939585185164E-01
30  2.9000000000000E-01  1.5570301707418E+00 -7.6758760279799E-01
31  3.0000000000000E-01  1.5740323260882E+00 -7.6890737436893E-01
32  3.1000000000000E-01  1.5881603837517E+00 -7.6313363864709E-01
33  3.2000000000000E-01  1.5994015456701E+00 -7.5015041032817E-01
34  3.3000000000000E-01  1.6077448709292E+00 -7.2994760304807E-01
35  3.4000000000000E-01  1.6131817012491E+00 -7.0261899340084E-01
36  3.5000000000000E-01  1.6157062241880E+00 -6.6835788285514E-01
37  3.6000000000000E-01  1.6153161587697E+00 -6.2745060620944E-01
38  3.7000000000000E-01  1.6120135442808E+00 -5.8026808965907E-01
39  3.8000000000000E-01  1.6058056094877E+00 -5.2725571057247E-01
40  3.9000000000000E-01  1.5967056965902E+00 -4.6892175340061E-01
41  4.0000000000000E-01  1.5847342119370E+00 -4.0582479066046E-01
42  4.1000000000000E-01  1.5699195739540E+00 -3.3856034371212E-01
43  4.2000000000000E-01  1.5522991279260E+00 -2.6774719438752E-01
44  4.3000000000000E-01  1.5319199972566E+00 -1.9401372495953E-01
45  4.4000000000000E-01  1.5088398416233E+00 -1.1798466025259E-01
46  4.5000000000000E-01  1.4831274940401E+00 -4.0268571936359E-02
47  4.6000000000000E-01  1.4548634512010E+00  3.8553518475289E-02
48  4.7000000000000E-01  1.4241401945643E+00  1.1793813411229E-01
49  4.8000000000000E-01  1.3910623233710E+00  1.9738767201043E-01
50  4.9000000000000E-01  1.3557464850992E+00  2.7645685287597E-01
51  5.0000000000000E-01  1.3183210936193E+00  3.5475713162634E-01
52  5.1000000000000E-01  1.2789258304373E+00  4.3195896821690E-01
53  5.2000000000000E-01  1.2377109297517E+00  5.0779192064593E-01
54  5.3000000000000E-01  1.1948362534839E+00  5.8204258590333E-01
55  5.4000000000000E-01  1.1504701678268E+00  6.5455047828879E-01
56  5.5000000000000E-01  1.1047882380541E+00  7.2520199625338E-01
57  5.6000000000000E-01  1.0579717632136E+00  7.9392268701803E-01
58  5.7000000000000E-01  1.0102061767517E+00  8.6066807108105E-01
59  5.8000000000000E-01  9.6167934297335E-01  9.2541333484412E-01
60  5.9000000000000E-01  9.1257978241585E-01  9.8814223761915E-01
61  6.0000000000000E-01  8.6309486162165E-01  1.0488356080812E+00
62  6.1000000000000E-01  8.1340898435300E-01  1.1074598238890E+00
63  6.2000000000000E-01  7.6370182195407E-01  1.1639556760337E+00
64  6.3000000000000E-01  7.1414662029682E-01  1.2182280161186E+00
65  6.4000000000000E-01  6.6490861954020E-01  1.2701365701129E+00
66  6.5000000000000E-01  6.1614362080218E-01  1.3194882763616E+00
67  6.6000000000000E-01  5.6799673083016E-01  1.3660314692709E+00
68  6.7000000000000E-01  5.2060131191914E-01  1.4094521839014E+00
69  6.8000000000000E-01  4.7407815975282E-01  1.4493728017540E+00
70  6.9000000000000E-01  4.2853492663419E-01  1.4853531956284E+00
71  7.0000000000000E-01  3.8406580185032E-01  1.5168944630949E+00
72  7.1000000000000E-01  3.4075145481863E-01  1.5434452655707E+00
73  7.2000000000000E-01  2.9865924033500E-01  1.5644107150640E+00
74  7.3000000000000E-01  2.5784365884632E-01  1.5791636753189E+00
75  7.4000000000000E-01  2.1834705835916E-01  1.5870582703347E+00
76  7.5000000000000E-01  1.8020055853556E-01  1.5874453230629E+00
77  7.6000000000000E-01  1.4342517187123E-01  1.5796893824307E+00
78  7.7000000000000E-01  1.0803309175070E-01  1.5631869395421E+00
79  7.8000000000000E-01  7.4029112765564E-02  1.5373853856507E+00
80  7.9000000000000E-01  4.1412145087325E-02  1.5018022267589E+00
81  8.0000000000000E-01  1.0176782008858E-02  1.4560440437140E+00
82  8.1000000000000E-01 -1.9685121909989E-02  1.3998246734037E+00
83  8.2000000000000E-01 -4.8182905279518E-02  1.3329820867486E+00
84  8.3000000000000E-01 -7.5325629620830E-02  1.2554934529716E+00
85  8.4000000000000E-01 -1.0112072557179E-01  1.1674879070611E+00
86  8.5000000000000E-01 -1.2557279409070E-01  1.0692565780665E+00
87  8.6000000000000E-01 -1.4868259754026E-01  9.6125948914483E-01
88  8.7000000000000E-01 -1.7044627094031E-01  8.4412900505436E-01
89  8.8000000000000E-01 -1.9085477824184E-01  7.1866957770078E-01
90  8.9000000000000E-01 -2.0989363231912E-01  5.8585362371642E-01
91  9.0000000000000E-01 -2.2754289064773E-01  4.4681345799621E-01
92  9.1000000000000E-01 -2.4377743149224E-01  3.0282930151100E-01
93  9.2000000000000E-01 -2.5856750804307E-01  1.5531347831320E-01
94  9.3000000000000E-01 -2.7187957049874E-01  5.7910130707397E-03
95  9.4000000000000E-01 -2.8367733877375E-01 -1.4412306568602E-01
96  9.5000000000000E-01 -2.9392310150844E-01 -2.9274932252018E-01
97  9.6000000000000E-01 -3.0257921054674E-01 -4.3837193654292E-01
98  9.7000000000000E-01 -3.0960973420045E-01 -5.7926859946428E-01
99  9.8000000000000E-01 -3.1498222759153E-01 -7.1374168156321E-01
100  9.9000000000000E-01 -3.1866957429420E-01 -8.4015000925035E-01
101  1.0000000000000E+00 -3.2065185050316E-01 -9.5694056482787E-01
102  1.0100000000000E+00 -3.2091816112487E-01 -1.0626794016692E+00
103  1.0200000000000E+00 -3.1946839658633E-01 -1.1560810670438E+00
104  1.0300000000000E+00 -3.1631485981606E-01 -1.2360358405892E+00
105  1.0400000000000E+00 -3.1148371477990E-01 -1.3016341289296E+00
106  1.0500000000000E+00 -3.0501621111102E-01 -1.3521874055646E+00
107  1.0600000000000E+00 -2.9696964371920E-01 -1.3872451492957E+00
108  1.0700000000000E+00 -2.8741801168821E-01 -1.4066073125516E+00
109  1.0800000000000E+00 -2.7645234716620E-01 -1.4103319415780E+00
110  1.0900000000000E+00 -2.6418069219316E-01 -1.3987376717761E+00
111  1.1000000000000E+00 -2.5072770928203E-01 -1.3724009306902E+00
112  1.1100000000000E+00 -2.3623391997085E-01 -1.3321477968302E+00
113  1.1200000000000E+00 -2.2085457419703E-01 -1.2790405807125E+00
114  1.1300000000000E+00 -2.0475816211267E-01 -1.2143593139058E+00
115  1.1400000000000E+00 -1.8812458854987E-01 -1.1395784483030E+00
116  1.1500000000000E+00 -1.7114303864401E-01 -1.0563391798439E+00
117  1.1600000000000E+00 -1.5400957083795E-01 -9.6641791457136E-01
118  1.1700000000000E+00 -1.3692448052229E-01 -8.7169148894778E-01
119  1.1800000000000E+00 -1.2008948364410E-01 -7.7409983719809E-01
120  1.1900000000000E+00 -1.0370477468524E-01 -6.7560686538150E-01
121  1.2000000000000E+00 -8.7966017244542E-02 -5.7816034198337E-01
122  1.2100000000000E+00 -7.3061328035548E-02 -4.8365164777842E-01
123  1.2200000000000E+00 -5.9168317647029E-02 -3.9387626309239E-01
124  1.2300000000000E+00 -4.6451232200261E-02 -3.1049560269297E-01
125  1.2400000000000E+00 -3.5057743028096E-02 -2.3499252921371E-01
126  1.2500000000000E+00 -2.5104638837882E-02 -1.6845705846446E-01
127  1.2600000000000E+00 -1.6700896788518E-02 -1.1195940104205E-01
128  1.2700000000000E+00 -9.9427637648089E-03 -6.6457816597764E-02
129  1.2800000000000E+00 -4.9004817673451E-03 -3.2592949863620E-02
130  1.2900000000000E+00 -1.6127328242996E-03 -1.0651862269964E-02
131  1.3000000000000E+00 -1.3497026037746E-04 -8.8310994884045E-04
132  1.3100000000000E+00  9.6303435665605E-06  6.2650568981007E-05
133  1.3200000000000E+00  4.9800428665613E-07  3.2713932561632E-06
134  1.33  0.  0.
135  1.34  0.  0.
136  1.35  0.  0.
137  1.36  0.  0.
138  1.37  0.  0.
139  1.38  0.  0.
140  1.39  0.  0.
141  1.40  0.  0.
142  1.41  0.  0.
143  1.42  0.  0.
144  1.43  0.  0.
145  1.44  0.  0.
146  1.45  0.  0.
147  1.46  0.  0.
148  1.47  0.  0.
149  1.48  0.  0.
150  1.49  0.  0.
151  1.50  0.  0.
152  1.51  0.  0.
153  1.52  0.  0.
154  1.53  0.  0.
155  1.54  0.  0.
156  1.55  0.  0.
157  1.56  0.  0.
158  1.57  0.  0.
159  1.58  0.  0.
160  1.59  0.  0.
161  1.60  0.  0.
162  1.61  0.  0.
163  1.62  0.  0.
164  1.63  0.  0.
165  1.64  0.  0.
166  1.65  0.  0.
167  1.66  0.  0.
168  1.67  0.  0.
169  1.68  0.  0.
170  1.69  0.  0.
171  1.70  0.  0.
172  1.71  0.  0.
173  1.72  0.  0.
174  1.73  0.  0.
175  1.74  0.  0.
176  1.75  0.  0.
177  1.76  0.  0.
178  1.77  0.  0.
179  1.78  0.  0.
180  1.79  0.  0.
181  1.80  0.  0.
182  1.81  0.  0.
183  1.82  0.  0.
184  1.83  0.  0.
185  1.84  0.  0.
186  1.85  0.  0.
187  1.86  0.  0.
188  1.87  0.  0.
189  1.88  0.  0.
190  1.89  0.  0.
191  1.90  0.  0.
192  1.91  0.  0.
193  1.92  0.  0.
194  1.93  0.  0.
195  1.94  0.  0.
196  1.95  0.  0.
197  1.96  0.  0.
198  1.97  0.  0.
199  1.98  0.  0.
200  1.99  0.  0.
201  2.00  0.  0.
202  2.01  0.  0.
203  2.02  0.  0.
204  2.03  0.  0.
205  2.04  0.  0.
206  2.05  0.  0.
207  2.06  0.  0.
208  2.07  0.  0.
209  2.08  0.  0.
210  2.09  0.  0.
211  2.10  0.  0.
212  2.11  0.  0.
213  2.12  0.  0.
214  2.13  0.  0.
215  2.14  0.  0.
216  2.15  0.  0.
217  2.16  0.  0.
218  2.17  0.  0.
219  2.18  0.  0.
220  2.19  0.  0.
221  2.20  0.  0.
222  2.21  0.  0.
223  2.22  0.  0.
224  2.23  0.  0.
225  2.24  0.  0.
226  2.25  0.  0.
227  2.26  0.  0.
228  2.27  0.  0.
229  2.28  0.  0.
230  2.29  0.  0.
231  2.30  0.  0.
232  2.31  0.  0.
233  2.32  0.  0.
234  2.33  0.  0.
235  2.34  0.  0.
236  2.35  0.  0.
237  2.36  0.  0.
238  2.37  0.  0.
239  2.38  0.  0.
240  2.39  0.  0.
241  2.40  0.  0.
242  2.41  0.  0.
243  2.42  0.  0.
244  2.43  0.  0.
245  2.44  0.  0.
246  2.45  0.  0.
247  2.46  0.  0.
248  2.47  0.  0.
249  2.48  0.  0.
250  2.49  0.  0.
251  2.50  0.  0.
252  2.51  0.  0.
253  2.52  0.  0.
254  2.53  0.  0.
255  2.54  0.  0.
256  2.55  0.  0.
257  2.56  0.  0.
258  2.57  0.  0.
259  2.58  0.  0.
260  2.59  0.  0.
261  2.60  0.  0.
262  2.61  0.  0.
263  2.62  0.  0.
264  2.63  0.  0.
265  2.64  0.  0.
266  2.65  0.  0.
267  2.66  0.  0.
268  2.67  0.  0.
269  2.68  0.  0.
270  2.69  0.  0.
271  2.70  0.  0.
272  2.71  0.  0.
273  2.72  0.  0.
274  2.73  0.  0.
275  2.74  0.  0.
276  2.75  0.  0.
277  2.76  0.  0.
278  2.77  0.  0.
279  2.78  0.  0.
280  2.79  0.  0.
281  2.80  0.  0.
282  2.81  0.  0.
283  2.82  0.  0.
284  2.83  0.  0.
285  2.84  0.  0.
286  2.85  0.  0.
287  2.86  0.  0.
288  2.87  0.  0.
289  2.88  0.  0.
290  2.89  0.  0.
291  2.90  0.  0.
292  2.91  0.  0.
293  2.92  0.  0.
294  2.93  0.  0.
295  2.94  0.  0.
296  2.95  0.  0.
297  2.96  0.  0.
298  2.97  0.  0.
299  2.98  0.  0.
300  2.99  0.  0.
301  3.00  0.  0.
302  3.01  0.  0.
303  3.02  0.  0.
304  3.03  0.  0.
305  3.04  0.  0.
306  3.05  0.  0.
307  3.06  0.  0.
308  3.07  0.  0.
309  3.08  0.  0.
310  3.09  0.  0.
311  3.10  0.  0.
312  3.11  0.  0.
313  3.12  0.  0.
314  3.13  0.  0.
315  3.14  0.  0.
316  3.15  0.  0.
317  3.16  0.  0.
318  3.17  0.  0.
319  3.18  0.  0.
320  3.19  0.  0.
321  3.20  0.  0.
322  3.21  0.  0.
323  3.22  0.  0.
324  3.23  0.  0.
325  3.24  0.  0.
326  3.25  0.  0.
327  3.26  0.  0.
328  3.27  0.  0.
329  3.28  0.  0.
330  3.29  0.  0.
331  3.30  0.  0.
332  3.31  0.  0.
333  3.32  0.  0.
334  3.33  0.  0.
335  3.34  0.  0.
336  3.35  0.  0.
337  3.36  0.  0.
338  3.37  0.  0.
339  3.38  0.  0.
340  3.39  0.  0.
341  3.40  0.  0.
342  3.41  0.  0.
343  3.42  0.  0.
344  3.43  0.  0.
345  3.44  0.  0.
346  3.45  0.  0.
347  3.46  0.  0.
348  3.47  0.  0.
349  3.48  0.  0.
350  3.49  0.  0.
351  3.50  0.  0.
352  3.51  0.  0.
353  3.52  0.  0.
354  3.53  0.  0.
355  3.54  0.  0.
356  3.55  0.  0.
357  3.56  0.  0.
358  3.57  0.  0.
359  3.58  0.  0.
360  3.59  0.  0.
361  3.60  0.  0.
362  3.61  0.  0.
363  3.62  0.  0.
364  3.63  0.  0.
365  3.64  0.  0.
366  3.65  0.  0.
367  3.66  0.  0.
368  3.67  0.  0.
369  3.68  0.  0.
370  3.69  0.  0.
371  3.70  0.  0.
372  3.71  0.  0.
373  3.72  0.  0.
374  3.73  0.  0.
375  3.74  0.  0.
376  3.75  0.  0.
377  3.76  0.  0.
378  3.77  0.  0.
379  3.78  0.  0.
380  3.79  0.  0.
381  3.80  0.  0.
382  3.81  0.  0.
383  3.82  0.  0.
384  3.83  0.  0.
385  3.84  0.  0.
386  3.85  0.  0.
387  3.86  0.  0.
388  3.87  0.  0.
389  3.88  0.  0.
390  3.89  0.  0.
391  3.90  0.  0.
392  3.91  0.  0.
393  3.92  0.  0.
394  3.93  0.  0.
395  3.94  0.  0.
396  3.95  0.  0.
397  3.96  0.  0.
398  3.97  0.  0.
399  3.98  0.  0.
400  3.99  0.  0.
401  4.00  0.  0.
402  4.01  0.  0.
403  4.02  0.  0.
404  4.03  0.  0.
405  4.04  0.  0.
406  4.05  0.  0.
407  4.06  0.  0.
408  4.07  0.  0.
409  4.08  0.  0.
410  4.09  0.  0.
411  4.10  0.  0.
412  4.11  0.  0.
413  4.12  0.  0.
414  4.13  0.  0.
415  4.14  0.  0.
416  4.15  0.  0.
417  4.16  0.  0.
418  4.17  0.  0.
419  4.18  0.  0.
420  4.19  0.  0.
421  4.20  0.  0.
422  4.21  0.  0.
423  4.22  0.  0.
424  4.23  0.  0.
425  4.24  0.  0.
426  4.25  0.  0.
427  4.26  0.  0.
428  4.27  0.  0.
429  4.28  0.  0.
430  4.29  0.  0.
431  4.30  0.  0.
432  4.31  0.  0.
433  4.32  0.  0.
434  4.33  0.  0.
435  4.34  0.  0.
436  4.35  0.  0.
437  4.36  0.  0.
438  4.37  0.  0.
439  4.38  0.  0.
440  4.39  0.  0.
441  4.40  0.  0.
442  4.41  0.  0.
443  4.42  0.  0.
444  4.43  0.  0.
445  4.44  0.  0.
446  4.45  0.  0.
447  4.46  0.  0.
448  4.47  0.  0.
449  4.48  0.  0.
450  4.49  0.  0.
451  4.50  0.  0.
452  4.51  0.  0.
453  4.52  0.  0.
454  4.53  0.  0.
455  4.54  0.  0.
456  4.55  0.  0.
457  4.56  0.  0.
458  4.57  0.  0.
459  4.58  0.  0.
460  4.59  0.  0.
461  4.60  0.  0.
462  4.61  0.  0.
463  4.62  0.  0.
464  4.63  0.  0.
465  4.64  0.  0.
466  4.65  0.  0.
467  4.66  0.  0.
468  4.67  0.  0.
469  4.68  0.  0.
470  4.69  0.  0.
471  4.70  0.  0.
472  4.71  0.  0.
473  4.72  0.  0.
474  4.73  0.  0.
475  4.74  0.  0.
476  4.75  0.  0.
477  4.76  0.  0.
478  4.77  0.  0.
479  4.78  0.  0.
480  4.79  0.  0.
481  4.80  0.  0.
482  4.81  0.  0.
483  4.82  0.  0.
484  4.83  0.  0.
485  4.84  0.  0.
486  4.85  0.  0.
487  4.86  0.  0.
488  4.87  0.  0.
489  4.88  0.  0.
490  4.89  0.  0.
491  4.90  0.  0.
492  4.91  0.  0.
493  4.92  0.  0.
494  4.93  0.  0.
495  4.94  0.  0.
496  4.95  0.  0.
497  4.96  0.  0.
498  4.97  0.  0.
499  4.98  0.  0.
500  4.99  0.  0.
501  5.00  0.  0.
502  5.01  0.  0.
503  5.02  0.  0.
504  5.03  0.  0.
505  5.04  0.  0.
506  5.05  0.  0.
507  5.06  0.  0.
508  5.07  0.  0.
509  5.08  0.  0.
510  5.09  0.  0.
511  5.10  0.  0.
512  5.11  0.  0.
513  5.12  0.  0.
514  5.13  0.  0.
515  5.14  0.  0.
516  5.15  0.  0.
517  5.16  0.  0.
518  5.17  0.  0.
519  5.18  0.  0.
520  5.19  0.  0.
521  5.20  0.  0.
522  5.21  0.  0.
523  5.22  0.  0.
524  5.23  0.  0.
525  5.24  0.  0.
526  5.25  0.  0.
527  5.26  0.  0.
528  5.27  0.  0.
529  5.28  0.  0.
530  5.29  0.  0.
531  5.30  0.  0.
532  5.31  0.  0.
533  5.32  0.  0.
534  5.33  0.  0.
535  5.34  0.  0.
536  5.35  0.  0.
537  5.36  0.  0.
538  5.37  0.  0.
539  5.38  0.  0.
540  5.39  0.  0.
541  5.40  0.  0.
542  5.41  0.  0.
543  5.42  0.  0.
544  5.43  0.  0.
545  5.44  0.  0.
546  5.45  0.  0.
547  5.46  0.  0.
548  5.47  0.  0.
549  5.48  0.  0.
550  5.49  0.  0.
551  5.50  0.  0.
552  5.51  0.  0.
553  5.52  0.  0.
554  5.53  0.  0.
555  5.54  0.  0.
556  5.55  0.  0.
557  5.56  0.  0.
558  5.57  0.  0.
559  5.58  0.  0.
560  5.59  0.  0.
561  5.60  0.  0.
562  5.61  0.  0.
563  5.62  0.  0.
564  5.63  0.  0.
565  5.64  0.  0.
566  5.65  0.  0.
567  5.66  0.  0.
568  5.67  0.  0.
569  5.68  0.  0.
570  5.69  0.  0.
571  5.70  0.  0.
572  5.71  0.  0.
573  5.72  0.  0.
574  5.73  0.  0.
575  5.74  0.  0.
576  5.75  0.  0.
577  5.76  0.  0.
578  5.77  0.  0.
579  5.78  0.  0.
580  5.79  0.  0.
581  5.80  0.  0.
582  5.81  0.  0.
583  5.82  0.  0.
584  5.83  0.  0.
585  5.84  0.  0.
586  5.85  0.  0.
587  5.86  0.  0.
588  5.87  0.  0.
589  5.88  0.  0.
590  5.89  0.  0.
591  5.90  0.  0.
592  5.91  0.  0.
593  5.92  0.  0.
594  5.93  0.  0.
595  5.94  0.  0.
596  5.95  0.  0.
597  5.96  0.  0.
598  5.97  0.  0.
599  5.98  0.  0.
600  5.99  0.  0.
1                         1.5157167935911E+01  1.2274744266802E+00
1  0.0000000000000E+00 -3.9684705938070E-09  1.5514218139334E-08
2  1.0000000000000E-02  1.6707371010038E-03 -7.7738325601942E-04
3  2.0000000000000E-02  6.6788956259077E-03 -3.1119527436639E-03
4  3.0000000000000E-02  1.5012252420539E-02 -7.0106804489639E-03
5  4.0000000000000E-02  2.6650222082963E-02 -1.2484239368994E-02
6  5.0000000000000E-02  4.1563545725225E-02 -1.9545618636758E-02
7  6.0000000000000E-02  5.9713872918688E-02 -2.8208254723112E-02
8  7.0000000000000E-02  8.1053253857932E-02 -3.8483746068170E-02
9  8.0000000000000E-02  1.0552356274667E-01 -5.0379234008871E-02
10  9.0000000000000E-02  1.3305587673994E-01 -6.3894545743454E-02
11  1.0000000000000E-01  1.6356983736752E-01 -7.9019204889785E-02
12  1.1000000000000E-01  1.9697302313331E-01 -9.5729421628472E-02
13  1.2000000000000E-01  2.3316036287758E-01 -1.1398517725210E-01
14  1.3000000000000E-01  2.7201361947223E-01 -1.3372751705911E-01
15  1.4000000000000E-01  3.1340097249086E-01 -1.5487616093860E-01
16  1.5000000000000E-01  3.5717672667594E-01 -1.7732753281047E-01
17  1.6000000000000E-01  4.0318117036694E-01 -2.0095329854385E-01
18  1.7000000000000E-01  4.5124060462736E-01 -2.2559948741358E-01
19  1.8000000000000E-01  5.0116755971473E-01 -2.5108625500084E-01
20  1.9000000000000E-01  5.5276121089106E-01 -2.7720832621631E-01
21  2.0000000000000E-01  6.0580800050783E-01 -3.0373613640622E-01
22  2.1000000000000E-01  6.6008246796441E-01 -3.3041766692841E-01
23  2.2000000000000E-01  7.1534828368918E-01 -3.5698094982427E-01
24  2.3000000000000E-01  7.7135947788632E-01 -3.8313719494201E-01
25  2.4000000000000E-01  8.2786184958831E-01 -4.0858447275810E-01
26  2.5000000000000E-01  8.8459453670811E-01 -4.3301186783825E-01
27  2.6000000000000E-01  9.4129172343832E-01 -4.5610400196986E-01
28  2.7000000000000E-01  9.9768445762836E-01 -4.7754581300982E-01
29  2.8000000000000E-01  1.0535025477950E+00 -4.9702746586623E-01
30  2.9000000000000E-01  1.1084765072766E+00 -5.1424926611233E-01
31  3.0000000000000E-01  1.1623395117928E+00 -5.2892644474936E-01
32  3.1000000000000E-01  1.2148293363582E+00 -5.4079368470476E-01
33  3.2000000000000E-01  1.2656902381309E+00 -5.4960926576536E-01
34  3.3000000000000E-01  1.3146747533406E+00 -5.5515871466637E-01
35  3.4000000000000E-01  1.3615453788871E+00 -5.5725786073041E-01
36  3.5000000000000E-01  1.4060761124603E+00 -5.5575521440263E-01
37  3.6000000000000E-01  1.4480538290092E+00 -5.5053360577903E-01
38  3.7000000000000E-01  1.4872794759582E+00 -5.4151104220195E-01
39  3.8000000000000E-01  1.5235690746041E+00 -5.2864076754804E-01
40  3.9000000000000E-01  1.5567545204624E+00 -5.1191053024983E-01
41  4.0000000000000E-01  1.5866841808157E+00 -4.9134109162399E-01
42  4.1000000000000E-01  1.6132232931736E+00 -4.6698402996267E-01
43  4.2000000000000E-01  1.6362541736152E+00 -4.3891891831980E-01
44  4.3000000000000E-01  1.6556762488925E+00 -4.0724997426529E-01
45  4.4000000000000E-01  1.6714059305612E+00 -3.7210229740840E-01
46  4.5000000000000E-01  1.6833763531459E+00 -3.3361782460777E-01
47  4.6000000000000E-01  1.6915370013084E+00 -2.9195114297797E-01
48  4.7000000000000E-01  1.6958532530781E+00 -2.4726530667645E-01
49  4.8000000000000E-01  1.6963058673491E+00 -1.9972780473466E-01
50  4.9000000000000E-01  1.6928904440032E+00 -1.4950682374720E-01
51  5.0000000000000E-01  1.6856168841729E+00 -9.6767941058012E-02
52  5.1000000000000E-01  1.6745088763303E+00 -4.1671371332170E-02
53  5.2000000000000E-01  1.6596034311250E+00  1.5630127628249E-02
54  5.3000000000000E-01  1.6409504842785E+00  7.4992604845991E-02
55  5.4000000000000E-01  1.6186125824840E+00  1.3628146109809E-01
56  5.5000000000000E-01  1.5926646622875E+00  1.9937115478859E-01
57  5.6000000000000E-01  1.5631939265034E+00  2.6414406337103E-01
58  5.7000000000000E-01  1.5302998170068E+00  3.3048852456209E-01
59  5.8000000000000E-01  1.4940940769456E+00  3.9829611132887E-01
60  5.9000000000000E-01  1.4547008897076E+00  4.6745822355986E-01
61  6.0000000000000E-01  1.4122570765644E+00  5.3786210652346E-01
62  6.1000000000000E-01  1.3669123299821E+00  6.0938643078691E-01
63  6.2000000000000E-01  1.3188294553165E+00  6.8189658937729E-01
64  6.3000000000000E-01  1.2681845901602E+00  7.5523988486402E-01
65  6.4000000000000E-01  1.2151673681305E+00  8.2924079107978E-01
66  6.5000000000000E-01  1.1599809924776E+00  9.0369648085949E-01
67  6.6000000000000E-01  1.1028421846620E+00  9.7837281209205E-01
68  6.7000000000000E-01  1.0439809740222E+00  1.0530009593367E+00
69  6.8000000000000E-01  9.8364029686878E-01  1.1272748672190E+00
70  6.9000000000000E-01  9.2207537675741E-01  1.2008496849274E+00
71  7.0000000000000E-01  8.5955286226307E-01  1.2733413186940E+00
72  7.1000000000000E-01  7.9634970419712E-01  1.3443272116565E+00
73  7.2000000000000E-01  7.3275176075170E-01  1.4133484286004E+00
74  7.3000000000000E-01  6.6905212635345E-01  1.4799130875846E+00
75  7.4000000000000E-01  6.0554918787393E-01  1.5435011422672E+00
76  7.5000000000000E-01  5.4254442006114E-01  1.6035704789119E+00
77  7.6000000000000E-01  4.8033994039389E-01  1.6595642516689E+00
78  7.7000000000000E-01  4.1923585177822E-01  1.7109193399434E+00
79  7.8000000000000E-01  3.5952740935527E-01  1.7570757736447E+00
80  7.9000000000000E-01  3.0150205493032E-01  1.7974869370177E+00
81  8.0000000000000E-01  2.4543636893197E-01  1.8316303306651E+00
82  8.1000000000000E-01  1.9159299515174E-01  1.8590186453091E+00
83  8.2000000000000E-01  1.4021759760814E-01  1.8792108806883E+00
84  8.3000000000000E-01  9.1535911562182E-02  1.8918232295082E+00
85  8.4000000000000E-01  4.5750951860197E-02  1.8965394401293E+00
86  8.5000000000000E-01  3.0404413060921E-03  1.8931203730872E+00
87  8.6000000000000E-01 -3.6445480371922E-02  1.8814124757787E+00
88  8.7000000000000E-01 -7.2586210193655E-02  1.8613549166906E+00
89  8.8000000000000E-01 -1.0529224688193E-01  1.8329851451488E+00
90  8.9000000000000E-01 -1.3450632266989E-01  1.7964426742588E+00
91  9.0000000000000E-01 -1.6020406583184E-01  1.7519709228284E+00
92  9.1000000000000E-01 -1.8239416730384E-01  1.6999169957446E+00
93  9.2000000000000E-01 -2.0111803522936E-01  1.6407293304665E+00
94  9.3000000000000E-01 -2.1644893245572E-01  1.5749531888313E+00
95  9.4000000000000E-01 -2.2849060364267E-01  1.5032240269087E+00
96  9.5000000000000E-01 -2.3737541042768E-01  1.4262588298293E+00
97  9.6000000000000E-01 -2.4326200471636E-01  1.3448455518664E+00
98  9.7000000000000E-01 -2.4633258132193E-01  1.2598308531651E+00
99  9.8000000000000E-01 -2.4678976155844E-01  1.1721063719216E+00
100  9.9000000000000E-01 -2.4485316871359E-01  1.0825938132133E+00
101  1.0000000000000E+00 -2.4075576431800E-01  9.9222917179255E-01
102  1.0100000000000E+00 -2.3474002055309E-01  9.0194643490467E-01
103  1.0200000000000E+00 -2.2705400880104E-01  8.1266113164436E-01
104  1.0300000000000E+00 -2.1794748708614E-01  7.2525410683680E-01
105  1.0400000000000E+00 -2.0766806986946E-01  6.4055589938557E-01
106  1.0500000000000E+00 -1.9645756230166E-01  5.5933209730675E-01
107  1.0600000000000E+00 -1.8454853759054E-01  4.8227002419112E-01
108  1.0700000000000E+00 -1.7216123067487E-01  4.0996708496706E-01
109  1.0800000000000E+00 -1.5950081402010E-01  3.4292106308720E-01
110  1.0900000000000E+00 -1.4675511220278E-01  2.8152261729577E-01
111  1.1000000000000E+00 -1.3409280130651E-01  2.2605017526898E-01
112  1.1100000000000E+00 -1.2166212715869E-01  1.7666736434866E-01
113  1.1200000000000E+00 -1.0959016353006E-01  1.3342305836879E-01
114  1.1300000000000E+00 -9.7982617762098E-02  9.6254054983105E-02
115  1.1400000000000E+00 -8.6924177385180E-02  6.4990332307975E-02
116  1.1500000000000E+00 -7.6479377343010E-02  3.9362768048461E-02
117  1.1600000000000E+00 -6.6693953963749E-02  1.9013140998690E-02
118  1.1700000000000E+00 -5.7596639003133E-02  3.5061747876236E-03
119  1.1800000000000E+00 -4.9201335447490E-02 -7.6566706001568E-03
120  1.1900000000000E+00 -4.1509606422347E-02 -1.5022002109063E-02
121  1.2000000000000E+00 -3.4513399979390E-02 -1.9168273949975E-02
122  1.2100000000000E+00 -2.8197925791319E-02 -2.0688958176197E-02
123  1.2200000000000E+00 -2.2544592869145E-02 -2.0175546932575E-02
124  1.2300000000000E+00 -1.7533949168127E-02 -1.8200722060177E-02
125  1.2400000000000E+00 -1.3149403305204E-02 -1.5299371200049E-02
126  1.2500000000000E+00 -9.4005109944893E-03 -1.1885814928674E-02
127  1.2600000000000E+00 -6.2819167073957E-03 -8.3802129753171E-03
128  1.2700000000000E+00 -3.7799355350490E-03 -5.1849556582748E-03
129  1.2800000000000E+00 -1.8944238869309E-03 -2.6098058996104E-03
130  1.2900000000000E+00 -6.3761566416795E-04 -8.6289237696808E-04
131  1.3000000000000E+00 -5.4960090131691E-05 -7.1347963069752E-05
132  1.3100000000000E+00  3.9847425653064E-06  5.0675928837395E-06
133  1.3200000000000E+00  2.0008058288598E-07  2.6550861349906E-07
134  1.33 -0. -0.
135  1.34  0.  0.
136  1.35  0.  0.
137  1.36  0.  0.
138  1.37  0.  0.
139  1.38  0.  0.
140  1.39  0.  0.
141  1.40  0.  0.
142  1.41  0.  0.
143  1.42  0.  0.
144  1.43  0.  0.
145  1.44  0.  0.
146  1.45  0.  0.
147  1.46  0.  0.
148  1.47  0.  0.
149  1.48  0.  0.
150  1.49  0.  0.
151  1.50  0.  0.
152  1.51  0.  0.
153  1.52  0.  0.
154  1.53  0.  0.
155  1.54  0.  0.
156  1.55  0.  0.
157  1.56  0.  0.
158  1.57  0.  0.
159  1.58  0.  0.
160  1.59  0.  0.
161  1.60  0.  0.
162  1.61  0.  0.
163  1.62  0.  0.
164  1.63  0.  0.
165  1.64  0.  0.
166  1.65  0.  0.
167  1.66  0.  0.
168  1.67  0.  0.
169  1.68  0.  0.
170  1.69  0.  0.
171  1.70  0.  0.
172  1.71  0.  0.
173  1.72  0.  0.
174  1.73  0.  0.
175  1.74  0.  0.
176  1.75  0.  0.
177  1.76  0.  0.
178  1.77  0.  0.
179  1.78  0.  0.
180  1.79  0.  0.
181  1.80  0.  0.
182  1.81  0.  0.
183  1.82  0.  0.
184  1.83  0.  0.
185  1.84  0.  0.
186  1.85  0.  0.
187  1.86  0.  0.
188  1.87  0.  0.
189  1.88  0.  0.
190  1.89  0.  0.
191  1.90  0.  0.
192  1.91  0.  0.
193  1.92  0.  0.
194  1.93  0.  0.
195  1.94  0.  0.
196  1.95  0.  0.
197  1.96  0.  0.
198  1.97  0.  0.
199  1.98  0.  0.
200  1.99  0.  0.
201  2.00  0.  0.
202  2.01  0.  0.
203  2.02  0.  0.
204  2.03  0.  0.
205  2.04  0.  0.
206  2.05  0.  0.
207  2.06  0.  0.
208  2.07  0.  0.
209  2.08  0.  0.
210  2.09  0.  0.
211  2.10  0.  0.
212  2.11  0.  0.
213  2.12  0.  0.
214  2.13  0.  0.
215  2.14  0.  0.
216  2.15  0.  0.
217  2.16  0.  0.
218  2.17  0.  0.
219  2.18  0.  0.
220  2.19  0.  0.
221  2.20  0.  0.
222  2.21  0.  0.
223  2.22  0.  0.
224  2.23  0.  0.
225  2.24  0.  0.
226  2.25  0.  0.
227  2.26  0.  0.
228  2.27  0.  0.
229  2.28  0.  0.
230  2.29  0.  0.
231  2.30  0.  0.
232  2.31  0.  0.
233  2.32  0.  0.
234  2.33  0.  0.
235  2.34  0.  0.
236  2.35  0.  0.
237  2.36  0.  0.
238  2.37  0.  0.
239  2.38  0.  0.
240  2.39  0.  0.
241  2.40  0.  0.
242  2.41  0.  0.
243  2.42  0.  0.
244  2.43  0.  0.
245  2.44  0.  0.
246  2.45  0.  0.
247  2.46  0.  0.
248  2.47  0.  0.
249  2.48  0.  0.
250  2.49  0.  0.
251  2.50  0.  0.
252  2.51  0.  0.
253  2.52  0.  0.
254  2.53  0.  0.
255  2.54  0.  0.
256  2.55  0.  0.
257  2.56  0.  0.
258  2.57  0.  0.
259  2.58  0.  0.
260  2.59  0.  0.
261  2.60  0.  0.
262  2.61  0.  0.
263  2.62  0.  0.
264  2.63  0.  0.
265  2.64  0.  0.
266  2.65  0.  0.
267  2.66  0.  0.
268  2.67  0.  0.
269  2.68  0.  0.
270  2.69  0.  0.
271  2.70  0.  0.
272  2.71  0.  0.
273  2.72  0.  0.
274  2.73  0.  0.
275  2.74  0.  0.
276  2.75  0.  0.
277  2.76  0.  0.
278  2.77  0.  0.
279  2.78  0.  0.
280  2.79  0.  0.
281  2.80  0.  0.
282  2.81  0.  0.
283  2.82  0.  0.
284  2.83  0.  0.
285  2.84  0.  0.
286  2.85  0.  0.
287  2.86  0.  0.
288  2.87  0.  0.
289  2.88  0.  0.
290  2.89  0.  0.
291  2.90  0.  0.
292  2.91  0.  0.
293  2.92  0.  0.
294  2.93  0.  0.
295  2.94  0.  0.
296  2.95  0.  0.
297  2.96  0.  0.
298  2.97  0.  0.
299  2.98  0.  0.
300  2.99  0.  0.
301  3.00  0.  0.
302  3.01  0.  0.
303  3.02  0.  0.
304  3.03  0.  0.
305  3.04  0.  0.
306  3.05  0.  0.
307  3.06  0.  0.
308  3.07  0.  0.
309  3.08  0.  0.
310  3.09  0.  0.
311  3.10  0.  0.
312  3.11  0.  0.
313  3.12  0.  0.
314  3.13  0.  0.
315  3.14  0.  0.
316  3.15  0.  0.
317  3.16  0.  0.
318  3.17  0.  0.
319  3.18  0.  0.
320  3.19  0.  0.
321  3.20  0.  0.
322  3.21  0.  0.
323  3.22  0.  0.
324  3.23  0.  0.
325  3.24  0.  0.
326  3.25  0.  0.
327  3.26  0.  0.
328  3.27  0.  0.
329  3.28  0.  0.