Ts    ONCVPSP-4.0.1  r_core=   1.40055   1.35117   1.30353   1.50478
117.0000     25.0000      230728    zatom,zion,pspd
8      11   3     4   600     0    pspcod,pspxc,lmax,lloc,mmax,r2well
5.99000000  5.00000000  0.00000000    rchrg fchrg qchrg
2     2     2     1     0    nproj
1     1           extension_switch
0                         1.8719472697177E+01  2.4804372423033E+00
1  0.0000000000000E+00  1.5282843879305E-09 -4.5757368033472E-09
2  1.0000000000000E-02  6.6110460626571E-02 -7.4853964061681E-03
3  2.0000000000000E-02  1.3217073480725E-01 -1.5076386778961E-02
4  3.0000000000000E-02  1.9812949081252E-01 -2.2875200454467E-02
5  4.0000000000000E-02  2.6393312908209E-01 -3.0977401727882E-02
6  5.0000000000000E-02  3.2952470475073E-01 -3.9468716683253E-02
7  6.0000000000000E-02  3.9484291679071E-01 -4.8422047905580E-02
8  7.0000000000000E-02  4.5982118414346E-01 -5.7894734207447E-02
9  8.0000000000000E-02  5.2438682768476E-01 -6.7926107926610E-02
10  9.0000000000000E-02  5.8846037500983E-01 -7.8535396796344E-02
11  1.0000000000000E-01  6.5195500287164E-01 -8.9720010962471E-02
12  1.1000000000000E-01  7.1477612969523E-01 -1.0145424854204E-01
13  1.2000000000000E-01  7.7682116796802E-01 -1.1368844532500E-01
14  1.3000000000000E-01  8.3797944351712E-01 -1.2634858596086E-01
15  1.4000000000000E-01  8.9813228578143E-01 -1.3933638540362E-01
16  1.5000000000000E-01  9.5715329022001E-01 -1.5252984067502E-01
17  1.6000000000000E-01  1.0149087510234E+00 -1.6578424431319E-01
18  1.7000000000000E-01  1.0712582593648E+00 -1.7893364236852E-01
19  1.8000000000000E-01  1.1260554595950E+00 -1.9179271165237E-01
20  1.9000000000000E-01  1.1791489531016E+00 -2.0415902329427E-01
21  2.0000000000000E-01  1.2303833370653E+00 -2.1581565266437E-01
22  2.1000000000000E-01  1.2796003630983E+00 -2.2653408950542E-01
23  2.2000000000000E-01  1.3266401987836E+00 -2.3607739680933E-01
24  2.3000000000000E-01  1.3713427734811E+00 -2.4420356266954E-01
25  2.4000000000000E-01  1.4135491884557E+00 -2.5066898612253E-01
26  2.5000000000000E-01  1.4531031704360E+00 -2.5523203591976E-01
27  2.6000000000000E-01  1.4898525471448E+00 -2.5765662028209E-01
28  2.7000000000000E-01  1.5236507231595E+00 -2.5771570599679E-01
29  2.8000000000000E-01  1.5543581346633E+00 -2.5519472671054E-01
30  2.9000000000000E-01  1.5818436622286E+00 -2.4989482291764E-01
31  3.0000000000000E-01  1.6059859817179E+00 -2.4163585988358E-01
32  3.1000000000000E-01  1.6266748346697E+00 -2.3025917449820E-01
33  3.2000000000000E-01  1.6438122011329E+00 -2.1563000772257E-01
34  3.3000000000000E-01  1.6573133597860E+00 -1.9763958575685E-01
35  3.4000000000000E-01  1.6671078222874E+00 -1.7620682017934E-01
36  3.5000000000000E-01  1.6731401311032E+00 -1.5127960493789E-01
37  3.6000000000000E-01  1.6753705125079E+00 -1.2283569605483E-01
38  3.7000000000000E-01  1.6737753789919E+00 -9.0883168066681E-02
39  3.8000000000000E-01  1.6683476778912E+00 -5.5460449388260E-02
40  3.9000000000000E-01  1.6590970856238E+00 -1.6635946795344E-02
41  4.0000000000000E-01  1.6460500494222E+00  2.5492723108855E-02
42  4.1000000000000E-01  1.6292496808430E+00  7.0799870402236E-02
43  4.2000000000000E-01  1.6087555075632E+00  1.1913320475761E-01
44  4.3000000000000E-01  1.5846430919930E+00  1.7031560744807E-01
45  4.4000000000000E-01  1.5570035270168E+00  2.2414716029253E-01
46  4.5000000000000E-01  1.5259428206681E+00  2.8040738555909E-01
47  4.6000000000000E-01  1.4915811827443E+00  3.3885764809910E-01
48  4.7000000000000E-01  1.4540522272300E+00  3.9924366938076E-01
49  4.8000000000000E-01  1.4135021049370E+00  4.6129810265785E-01
50  4.9000000000000E-01  1.3700885809525E+00  5.2474311924826E-01
51  5.0000000000000E-01  1.3239800713455E+00  5.8929295778652E-01
52  5.1000000000000E-01  1.2753546531049E+00  6.5465639130237E-01
53  5.2000000000000E-01  1.2243990604992E+00  7.2053907098857E-01
54  5.3000000000000E-01  1.1713076799882E+00  7.8664571045583E-01
55  5.4000000000000E-01  1.1162815545039E+00  8.5268208000721E-01
56  5.5000000000000E-01  1.0595274063970E+00  9.1835678685922E-01
57  5.6000000000000E-01  1.0012566866592E+00  9.8338282413126E-01
58  5.7000000000000E-01  9.4168465623102E-01  1.0474788786496E+00
59  5.8000000000000E-01  8.8102950333165E-01  1.1103703949856E+00
60  5.9000000000000E-01  8.1951149886688E-01  1.1717904004832E+00
61  6.0000000000000E-01  7.5735219012792E-01  1.2314801031472E+00
62  6.1000000000000E-01  6.9477363124104E-01  1.2891892809673E+00
63  6.2000000000000E-01  6.3199764721975E-01  1.3446764873837E+00
64  6.3000000000000E-01  5.6924512704995E-01  1.3977091029829E+00
65  6.4000000000000E-01  5.0673534004869E-01  1.4480632680045E+00
66  6.5000000000000E-01  4.4468526881427E-01  1.4955237337239E+00
67  6.6000000000000E-01  3.8330895145970E-01  1.5398836731309E+00
68  6.7000000000000E-01  3.2281682551426E-01  1.5809444924956E+00
69  6.8000000000000E-01  2.6341506590373E-01  1.6185156853330E+00
70  6.9000000000000E-01  2.0530490978356E-01  1.6524147689424E+00
71  7.0000000000000E-01  1.4868196169653E-01  1.6824673411147E+00
72  7.1000000000000E-01  9.3735473545321E-02  1.7085072908139E+00
73  7.2000000000000E-01  4.0647595187755E-02  1.7303771917281E+00
74  7.3000000000000E-01 -1.0407406951211E-02  1.7479289016538E+00
75  7.4000000000000E-01 -5.9263964040606E-02  1.7610243838543E+00
76  7.5000000000000E-01 -1.0576605056680E-01  1.7695367589888E+00
77  7.6000000000000E-01 -1.4976805827521E-01  1.7733515881037E+00
78  7.7000000000000E-01 -1.9113569277759E-01  1.7723683787330E+00
79  7.8000000000000E-01 -2.2974688504850E-01  1.7665022975605E+00
80  7.9000000000000E-01 -2.6549270785865E-01  1.7556860645832E+00
81  8.0000000000000E-01 -2.9827828512877E-01  1.7398719955096E+00
82  8.1000000000000E-01 -3.2802368029809E-01  1.7190341514350E+00
83  8.2000000000000E-01 -3.5466474814695E-01  1.6931705478894E+00
84  8.3000000000000E-01 -3.7815393315074E-01  1.6623053693418E+00
85  8.4000000000000E-01 -3.9846099642233E-01  1.6264911303558E+00
86  8.5000000000000E-01 -4.1557365266798E-01  1.5858107209887E+00
87  8.6000000000000E-01 -4.2949809837223E-01  1.5403792718353E+00
88  8.7000000000000E-01 -4.4025941266919E-01  1.4903457734574E+00
89  8.8000000000000E-01 -4.4790181306556E-01  1.4358943858637E+00
90  8.9000000000000E-01 -4.5248874936256E-01  1.3772453762560E+00
91  9.0000000000000E-01 -4.5410282077341E-01  1.3146556274326E+00
92  9.1000000000000E-01 -4.5284550333317E-01  1.2484186649887E+00
93  9.2000000000000E-01 -4.4883667722133E-01  1.1788641586996E+00
94  9.3000000000000E-01 -4.4221394652427E-01  1.1063568621011E+00
95  9.4000000000000E-01 -4.3313174720582E-01  1.0312949641230E+00
96  9.5000000000000E-01 -4.2176024257071E-01  9.5410783752305E-01
97  9.6000000000000E-01 -4.0828400922921E-01  8.7525318056636E-01
98  9.7000000000000E-01 -3.9290052042908E-01  7.9521356068531E-01
99  9.8000000000000E-01 -3.7581843753120E-01  7.1449238145396E-01
100  9.9000000000000E-01 -3.5725572428627E-01  6.3360930686333E-01
101  1.0000000000000E+00 -3.3743760233577E-01  5.5309518929792E-01
102  1.0100000000000E+00 -3.1659436992465E-01  4.7348655950871E-01
103  1.0200000000000E+00 -2.9495910909287E-01  3.9531974797150E-01
104  1.0300000000000E+00 -2.7276530953108E-01  3.1912471705947E-01
105  1.0400000000000E+00 -2.5024443976475E-01  2.4541869217567E-01
106  1.0500000000000E+00 -2.2762349830660E-01  1.7469968717208E-01
107  1.0600000000000E+00 -2.0512257883612E-01  1.0744002483743E-01
108  1.0700000000000E+00 -1.8295248427416E-01  4.4079956783974E-02
109  1.0800000000000E+00 -1.6131242479479E-01 -1.4978511393325E-02
110  1.0900000000000E+00 -1.4038783432598E-01 -6.9377484379298E-02
111  1.1000000000000E+00 -1.2034833894025E-01 -1.1880862820000E-01
112  1.1100000000000E+00 -1.0134590871549E-01 -1.6301811029461E-01
113  1.1200000000000E+00 -8.3513222200717E-02 -2.0181093767340E-01
114  1.1300000000000E+00 -6.6962269557121E-02 -2.3505461111079E-01
115  1.1400000000000E+00 -5.1783216844211E-02 -2.6268202396085E-01
116  1.1500000000000E+00 -3.8043549807206E-02 -2.8469354651041E-01
117  1.1600000000000E+00 -2.5787511013662E-02 -3.0115825043956E-01
118  1.1700000000000E+00 -1.5035839310904E-02 -3.1221424285077E-01
119  1.1800000000000E+00 -5.7858154944033E-03 -3.1806809494948E-01
120  1.1900000000000E+00  1.9883873149465E-03 -3.1899336723869E-01
121  1.2000000000000E+00  8.3350524550494E-03 -3.1532823762814E-01
122  1.2100000000000E+00  1.3323993884293E-02 -3.0747232504832E-01
123  1.2200000000000E+00  1.7044379362006E-02 -2.9587873386175E-01
124  1.2300000000000E+00  1.9599658199384E-02 -2.8103489982861E-01
125  1.2400000000000E+00  2.1103988809422E-02 -2.6345025764681E-01
126  1.2500000000000E+00  2.1679969617682E-02 -2.4364948565161E-01
127  1.2600000000000E+00  2.1456251980944E-02 -2.2216538314645E-01
128  1.2700000000000E+00  2.0565076104238E-02 -1.9953150997277E-01
129  1.2800000000000E+00  1.9139761861306E-02 -1.7627467888738E-01
130  1.2900000000000E+00  1.7312194130793E-02 -1.5290742227524E-01
131  1.3000000000000E+00  1.5210341492689E-02 -1.2992055169192E-01
132  1.3100000000000E+00  1.2955853190741E-02 -1.0777595096433E-01
133  1.3200000000000E+00  1.0661746232776E-02 -8.6899630966597E-02
134  1.3300000000000E+00  8.4302260727547E-03 -6.7675208440670E-02
135  1.3400000000000E+00  6.3428434594153E-03 -5.0412003591922E-02
136  1.3500000000000E+00  4.4703909203482E-03 -3.5377099871232E-02
137  1.3600000000000E+00  2.8806846362516E-03 -2.2822748312687E-02
138  1.3700000000000E+00  1.6214220647230E-03 -1.2931322717331E-02
139  1.3800000000000E+00  7.2050572336346E-04 -5.8175441983633E-03
140  1.3900000000000E+00  1.8310856235369E-04 -1.5055123373572E-03
141  1.4000000000000E+00  2.3237923746022E-06 -1.9558987718264E-05
142  1.4100000000000E+00  7.9375127574594E-07 -6.6407051474668E-06
143  1.4200000000000E+00 -2.6279018299612E-07  2.1739017122565E-06
144  1.43 -0.  0.
145  1.44  0.  0.
146  1.45  0.  0.
147  1.46  0.  0.
148  1.47  0.  0.
149  1.48  0.  0.
150  1.49  0.  0.
151  1.50  0.  0.
152  1.51  0.  0.
153  1.52  0.  0.
154  1.53  0.  0.
155  1.54  0.  0.
156  1.55  0.  0.
157  1.56  0.  0.
158  1.57  0.  0.
159  1.58  0.  0.
160  1.59  0.  0.
161  1.60  0.  0.
162  1.61  0.  0.
163  1.62  0.  0.
164  1.63  0.  0.
165  1.64  0.  0.
166  1.65  0.  0.
167  1.66  0.  0.
168  1.67  0.  0.
169  1.68  0.  0.
170  1.69  0.  0.
171  1.70  0.  0.
172  1.71  0.  0.
173  1.72  0.  0.
174  1.73  0.  0.
175  1.74  0.  0.
176  1.75  0.  0.
177  1.76  0.  0.
178  1.77  0.  0.
179  1.78  0.  0.
180  1.79  0.  0.
181  1.80  0.  0.
182  1.81  0.  0.
183  1.82  0.  0.
184  1.83  0.  0.
185  1.84  0.  0.
186  1.85  0.  0.
187  1.86  0.  0.
188  1.87  0.  0.
189  1.88  0.  0.
190  1.89  0.  0.
191  1.90  0.  0.
192  1.91  0.  0.
193  1.92  0.  0.
194  1.93  0.  0.
195  1.94  0.  0.
196  1.95  0.  0.
197  1.96  0.  0.
198  1.97  0.  0.
199  1.98  0.  0.
200  1.99  0.  0.
201  2.00  0.  0.
202  2.01  0.  0.
203  2.02  0.  0.
204  2.03  0.  0.
205  2.04  0.  0.
206  2.05  0.  0.
207  2.06  0.  0.
208  2.07  0.  0.
209  2.08  0.  0.
210  2.09  0.  0.
211  2.10  0.  0.
212  2.11  0.  0.
213  2.12  0.  0.
214  2.13  0.  0.
215  2.14  0.  0.
216  2.15  0.  0.
217  2.16  0.  0.
218  2.17  0.  0.
219  2.18  0.  0.
220  2.19  0.  0.
221  2.20  0.  0.
222  2.21  0.  0.
223  2.22  0.  0.
224  2.23  0.  0.
225  2.24  0.  0.
226  2.25  0.  0.
227  2.26  0.  0.
228  2.27  0.  0.
229  2.28  0.  0.
230  2.29  0.  0.
231  2.30  0.  0.
232  2.31  0.  0.
233  2.32  0.  0.
234  2.33  0.  0.
235  2.34  0.  0.
236  2.35  0.  0.
237  2.36  0.  0.
238  2.37  0.  0.
239  2.38  0.  0.
240  2.39  0.  0.
241  2.40  0.  0.
242  2.41  0.  0.
243  2.42  0.  0.
244  2.43  0.  0.
245  2.44  0.  0.
246  2.45  0.  0.
247  2.46  0.  0.
248  2.47  0.  0.
249  2.48  0.  0.
250  2.49  0.  0.
251  2.50  0.  0.
252  2.51  0.  0.
253  2.52  0.  0.
254  2.53  0.  0.
255  2.54  0.  0.
256  2.55  0.  0.
257  2.56  0.  0.
258  2.57  0.  0.
259  2.58  0.  0.
260  2.59  0.  0.
261  2.60  0.  0.
262  2.61  0.  0.
263  2.62  0.  0.
264  2.63  0.  0.
265  2.64  0.  0.
266  2.65  0.  0.
267  2.66  0.  0.
268  2.67  0.  0.
269  2.68  0.  0.
270  2.69  0.  0.
271  2.70  0.  0.
272  2.71  0.  0.
273  2.72  0.  0.
274  2.73  0.  0.
275  2.74  0.  0.
276  2.75  0.  0.
277  2.76  0.  0.
278  2.77  0.  0.
279  2.78  0.  0.
280  2.79  0.  0.
281  2.80  0.  0.
282  2.81  0.  0.
283  2.82  0.  0.
284  2.83  0.  0.
285  2.84  0.  0.
286  2.85  0.  0.
287  2.86  0.  0.
288  2.87  0.  0.
289  2.88  0.  0.
290  2.89  0.  0.
291  2.90  0.  0.
292  2.91  0.  0.
293  2.92  0.  0.
294  2.93  0.  0.
295  2.94  0.  0.
296  2.95  0.  0.
297  2.96  0.  0.
298  2.97  0.  0.
299  2.98  0.  0.
300  2.99  0.  0.
301  3.00  0.  0.
302  3.01  0.  0.
303  3.02  0.  0.
304  3.03  0.  0.
305  3.04  0.  0.
306  3.05  0.  0.
307  3.06  0.  0.
308  3.07  0.  0.
309  3.08  0.  0.
310  3.09  0.  0.
311  3.10  0.  0.
312  3.11  0.  0.
313  3.12  0.  0.
314  3.13  0.  0.
315  3.14  0.  0.
316  3.15  0.  0.
317  3.16  0.  0.
318  3.17  0.  0.
319  3.18  0.  0.
320  3.19  0.  0.
321  3.20  0.  0.
322  3.21  0.  0.
323  3.22  0.  0.
324  3.23  0.  0.
325  3.24  0.  0.
326  3.25  0.  0.
327  3.26  0.  0.
328  3.27  0.  0.
329  3.28  0.  0.
330  3.29  0.  0.
331  3.30  0.  0.
332  3.31  0.  0.
333  3.32  0.  0.
334  3.33  0.  0.
335  3.34  0.  0.
336  3.35  0.  0.
337  3.36  0.  0.
338  3.37  0.  0.
339  3.38  0.  0.
340  3.39  0.  0.
341  3.40  0.  0.
342  3.41  0.  0.
343  3.42  0.  0.
344  3.43  0.  0.
345  3.44  0.  0.
346  3.45  0.  0.
347  3.46  0.  0.
348  3.47  0.  0.
349  3.48  0.  0.
350  3.49  0.  0.
351  3.50  0.  0.
352  3.51  0.  0.
353  3.52  0.  0.
354  3.53  0.  0.
355  3.54  0.  0.
356  3.55  0.  0.
357  3.56  0.  0.
358  3.57  0.  0.
359  3.58  0.  0.
360  3.59  0.  0.
361  3.60  0.  0.
362  3.61  0.  0.
363  3.62  0.  0.
364  3.63  0.  0.
365  3.64  0.  0.
366  3.65  0.  0.
367  3.66  0.  0.
368  3.67  0.  0.
369  3.68  0.  0.
370  3.69  0.  0.
371  3.70  0.  0.
372  3.71  0.  0.
373  3.72  0.  0.
374  3.73  0.  0.
375  3.74  0.  0.
376  3.75  0.  0.
377  3.76  0.  0.
378  3.77  0.  0.
379  3.78  0.  0.
380  3.79  0.  0.
381  3.80  0.  0.
382  3.81  0.  0.
383  3.82  0.  0.
384  3.83  0.  0.
385  3.84  0.  0.
386  3.85  0.  0.
387  3.86  0.  0.
388  3.87  0.  0.
389  3.88  0.  0.
390  3.89  0.  0.
391  3.90  0.  0.
392  3.91  0.  0.
393  3.92  0.  0.
394  3.93  0.  0.
395  3.94  0.  0.
396  3.95  0.  0.
397  3.96  0.  0.
398  3.97  0.  0.
399  3.98  0.  0.
400  3.99  0.  0.
401  4.00  0.  0.
402  4.01  0.  0.
403  4.02  0.  0.
404  4.03  0.  0.
405  4.04  0.  0.
406  4.05  0.  0.
407  4.06  0.  0.
408  4.07  0.  0.
409  4.08  0.  0.
410  4.09  0.  0.
411  4.10  0.  0.
412  4.11  0.  0.
413  4.12  0.  0.
414  4.13  0.  0.
415  4.14  0.  0.
416  4.15  0.  0.
417  4.16  0.  0.
418  4.17  0.  0.
419  4.18  0.  0.
420  4.19  0.  0.
421  4.20  0.  0.
422  4.21  0.  0.
423  4.22  0.  0.
424  4.23  0.  0.
425  4.24  0.  0.
426  4.25  0.  0.
427  4.26  0.  0.
428  4.27  0.  0.
429  4.28  0.  0.
430  4.29  0.  0.
431  4.30  0.  0.
432  4.31  0.  0.
433  4.32  0.  0.
434  4.33  0.  0.
435  4.34  0.  0.
436  4.35  0.  0.
437  4.36  0.  0.
438  4.37  0.  0.
439  4.38  0.  0.
440  4.39  0.  0.
441  4.40  0.  0.
442  4.41  0.  0.
443  4.42  0.  0.
444  4.43  0.  0.
445  4.44  0.  0.
446  4.45  0.  0.
447  4.46  0.  0.
448  4.47  0.  0.
449  4.48  0.  0.
450  4.49  0.  0.
451  4.50  0.  0.
452  4.51  0.  0.
453  4.52  0.  0.
454  4.53  0.  0.
455  4.54  0.  0.
456  4.55  0.  0.
457  4.56  0.  0.
458  4.57  0.  0.
459  4.58  0.  0.
460  4.59  0.  0.
461  4.60  0.  0.
462  4.61  0.  0.
463  4.62  0.  0.
464  4.63  0.  0.
465  4.64  0.  0.
466  4.65  0.  0.
467  4.66  0.  0.
468  4.67  0.  0.
469  4.68  0.  0.
470  4.69  0.  0.
471  4.70  0.  0.
472  4.71  0.  0.
473  4.72  0.  0.
474  4.73  0.  0.
475  4.74  0.  0.
476  4.75  0.  0.
477  4.76  0.  0.
478  4.77  0.  0.
479  4.78  0.  0.
480  4.79  0.  0.
481  4.80  0.  0.
482  4.81  0.  0.
483  4.82  0.  0.
484  4.83  0.  0.
485  4.84  0.  0.
486  4.85  0.  0.
487  4.86  0.  0.
488  4.87  0.  0.
489  4.88  0.  0.
490  4.89  0.  0.
491  4.90  0.  0.
492  4.91  0.  0.
493  4.92  0.  0.
494  4.93  0.  0.
495  4.94  0.  0.
496  4.95  0.  0.
497  4.96  0.  0.
498  4.97  0.  0.
499  4.98  0.  0.
500  4.99  0.  0.
501  5.00  0.  0.
502  5.01  0.  0.
503  5.02  0.  0.
504  5.03  0.  0.
505  5.04  0.  0.
506  5.05  0.  0.
507  5.06  0.  0.
508  5.07  0.  0.
509  5.08  0.  0.
510  5.09  0.  0.
511  5.10  0.  0.
512  5.11  0.  0.
513  5.12  0.  0.
514  5.13  0.  0.
515  5.14  0.  0.
516  5.15  0.  0.
517  5.16  0.  0.
518  5.17  0.  0.
519  5.18  0.  0.
520  5.19  0.  0.
521  5.20  0.  0.
522  5.21  0.  0.
523  5.22  0.  0.
524  5.23  0.  0.
525  5.24  0.  0.
526  5.25  0.  0.
527  5.26  0.  0.
528  5.27  0.  0.
529  5.28  0.  0.
530  5.29  0.  0.
531  5.30  0.  0.
532  5.31  0.  0.
533  5.32  0.  0.
534  5.33  0.  0.
535  5.34  0.  0.
536  5.35  0.  0.
537  5.36  0.  0.
538  5.37  0.  0.
539  5.38  0.  0.
540  5.39  0.  0.
541  5.40  0.  0.
542  5.41  0.  0.
543  5.42  0.  0.
544  5.43  0.  0.
545  5.44  0.  0.
546  5.45  0.  0.
547  5.46  0.  0.
548  5.47  0.  0.
549  5.48  0.  0.
550  5.49  0.  0.
551  5.50  0.  0.
552  5.51  0.  0.
553  5.52  0.  0.
554  5.53  0.  0.
555  5.54  0.  0.
556  5.55  0.  0.
557  5.56  0.  0.
558  5.57  0.  0.
559  5.58  0.  0.
560  5.59  0.  0.
561  5.60  0.  0.
562  5.61  0.  0.
563  5.62  0.  0.
564  5.63  0.  0.
565  5.64  0.  0.
566  5.65  0.  0.
567  5.66  0.  0.
568  5.67  0.  0.
569  5.68  0.  0.
570  5.69  0.  0.
571  5.70  0.  0.
572  5.71  0.  0.
573  5.72  0.  0.
574  5.73  0.  0.
575  5.74  0.  0.
576  5.75  0.  0.
577  5.76  0.  0.
578  5.77  0.  0.
579  5.78  0.  0.
580  5.79  0.  0.
581  5.80  0.  0.
582  5.81  0.  0.
583  5.82  0.  0.
584  5.83  0.  0.
585  5.84  0.  0.
586  5.85  0.  0.
587  5.86  0.  0.
588  5.87  0.  0.
589  5.88  0.  0.
590  5.89  0.  0.
591  5.90  0.  0.
592  5.91  0.  0.
593  5.92  0.  0.
594  5.93  0.  0.
595  5.94  0.  0.
596  5.95  0.  0.
597  5.96  0.  0.
598  5.97  0.  0.
599  5.98  0.  0.
600  5.99  0.  0.
1                         1.6374541811944E+01  1.9259291810012E+00
1  0.0000000000000E+00 -4.1241512011014E-09  1.2232475539442E-08
2  1.0000000000000E-02  1.4428018889202E-03 -6.1915828272479E-04
3  2.0000000000000E-02  5.7696757646016E-03 -2.4807057023293E-03
4  3.0000000000000E-02  1.2975938879240E-02 -5.5966002520620E-03
5  4.0000000000000E-02  2.3053497981121E-02 -9.9859139380152E-03
6  5.0000000000000E-02  3.5990425257944E-02 -1.5673572732934E-02
7  6.0000000000000E-02  5.1770382322910E-02 -2.2688645610814E-02
8  7.0000000000000E-02  7.0371909361355E-02 -3.1062234017049E-02
9  8.0000000000000E-02  9.1767600679877E-02 -4.0825025361363E-02
10  9.0000000000000E-02  1.1592319147616E-01 -5.2004584612639E-02
11  1.0000000000000E-01  1.4279658358349E-01 -6.4622466535245E-02
12  1.1000000000000E-01  1.7233684016321E-01 -7.8691237299490E-02
13  1.2000000000000E-01  2.0448318076323E-01 -9.4211497948442E-02
14  1.3000000000000E-01  2.3916400879316E-01 -1.1116900339862E-01
15  1.4000000000000E-01  2.7629600326991E-01 -1.2953196925074E-01
16  1.5000000000000E-01  3.1578330566541E-01 -1.4924865471663E-01
17  1.6000000000000E-01  3.5751683086648E-01 -1.7024530352559E-01
18  1.7000000000000E-01  4.0137372868158E-01 -1.9242451592336E-01
19  1.8000000000000E-01  4.4721701906586E-01 -2.1566411404424E-01
20  1.9000000000000E-01  4.9489542036843E-01 -2.3981655030902E-01
21  2.0000000000000E-01  5.4424338553253E-01 -2.6470889440999E-01
22  2.1000000000000E-01  5.9508135641358E-01 -2.9014341926713E-01
23  2.2000000000000E-01  6.4721624134361E-01 -3.1589879048396E-01
24  2.3000000000000E-01  7.0044211589418E-01 -3.4173184772506E-01
25  2.4000000000000E-01  7.5454114160629E-01 -3.6737995051983E-01
26  2.5000000000000E-01  8.0928469239908E-01 -3.9256384570297E-01
27  2.6000000000000E-01  8.6443467357048E-01 -4.1699099945504E-01
28  2.7000000000000E-01  9.1974501388543E-01 -4.4035932410203E-01
29  2.8000000000000E-01  9.7496330732562E-01 -4.6236121883285E-01
30  2.9000000000000E-01  1.0298325777492E+00 -4.8268783461050E-01
31  3.0000000000000E-01  1.0840931370658E+00 -5.0103346704679E-01
32  3.1000000000000E-01  1.1374845056355E+00 -5.1709997707642E-01
33  3.2000000000000E-01  1.1897473625042E+00 -5.3060113803088E-01
34  3.3000000000000E-01  1.2406254928055E+00 -5.4126680923063E-01
35  3.4000000000000E-01  1.2898677002099E+00 -5.4884684046176E-01
36  3.5000000000000E-01  1.3372296536522E+00 -5.5311461858549E-01
37  3.6000000000000E-01  1.3824756396879E+00 -5.5387017687252E-01
38  3.7000000000000E-01  1.4253801946482E+00 -5.5094279921817E-01
39  3.8000000000000E-01  1.4657295942082E+00 -5.4419306487376E-01
40  3.9000000000000E-01  1.5033231819471E+00 -5.3351429436108E-01
41  4.0000000000000E-01  1.5379745228567E+00 -5.1883337341027E-01
42  4.1000000000000E-01  1.5695123724136E+00 -5.0011094863132E-01
43  4.2000000000000E-01  1.5977814566409E+00 -4.7734100572289E-01
44  4.3000000000000E-01  1.6226430634115E+00 -4.5054985785584E-01
45  4.4000000000000E-01  1.6439754499409E+00 -4.1979458796107E-01
46  4.5000000000000E-01  1.6616740758514E+00 -3.8516100353217E-01
47  4.6000000000000E-01  1.6756516752376E+00 -3.4676117578520E-01
48  4.7000000000000E-01  1.6858381846907E+00 -3.0473064619876E-01
49  4.8000000000000E-01  1.6921805471647E+00 -2.5922539224301E-01
50  4.9000000000000E-01  1.6946424137796E+00 -2.1041865021048E-01
51  5.0000000000000E-01  1.6932037671101E+00 -1.5849769627422E-01
52  5.1000000000000E-01  1.6878604901415E+00 -1.0366068708757E-01
53  5.2000000000000E-01  1.6786239048763E+00 -4.6113658356238E-02
54  5.3000000000000E-01  1.6655203035432E+00  1.3932226101330E-02
55  5.4000000000000E-01  1.6485904935286E+00  7.6263091109213E-02
56  5.5000000000000E-01  1.6278893745636E+00  1.4066436051841E-01
57  5.6000000000000E-01  1.6034855634468E+00  2.0692230293924E-01
58  5.7000000000000E-01  1.5754610777454E+00  2.7482507047090E-01
59  5.8000000000000E-01  1.5439110856296E+00  3.4416320559672E-01
60  5.9000000000000E-01  1.5089437243765E+00  4.1472961003044E-01
61  6.0000000000000E-01  1.4706799852821E+00  4.8631898848222E-01
62  6.1000000000000E-01  1.4292536578984E+00  5.5872679949882E-01
63  6.2000000000000E-01  1.3848113218228E+00  6.3174776414995E-01
64  6.3000000000000E-01  1.3375123698653E+00  7.0517400081126E-01
65  6.4000000000000E-01  1.2875290424625E+00  7.7879287008181E-01
66  6.5000000000000E-01  1.2350464498376E+00  8.5238462745886E-01
67  6.6000000000000E-01  1.1802625557498E+00  9.2571999230827E-01
68  6.7000000000000E-01  1.1233880948477E+00  9.9855774951924E-01
69  6.8000000000000E-01  1.0646463947305E+00  1.0706425046957E+00
70  6.9000000000000E-01  1.0042730738893E+00  1.1417027145849E+00
71  7.0000000000000E-01  9.4251558778739E-01  1.2114491115383E+00
72  7.1000000000000E-01  8.7963259745275E-01  1.2795736341215E+00
73  7.2000000000000E-01  8.1589313807261E-01  1.3457489655995E+00
74  7.3000000000000E-01  7.5157556914915E-01  1.4096287681271E+00
75  7.4000000000000E-01  6.8696629271472E-01  1.4708486833434E+00
76  7.5000000000000E-01  6.2235823180326E-01  1.5290281501026E+00
77  7.6000000000000E-01  5.5804906769714E-01  1.5837730677516E+00
78  7.7000000000000E-01  4.9433924125732E-01  1.6346793092415E+00
79  7.8000000000000E-01  4.3152973072223E-01  1.6813370630680E+00
80  7.9000000000000E-01  3.6991962553649E-01  1.7233359572429E+00
81  8.0000000000000E-01  3.0980352284403E-01  1.7602708929233E+00
82  8.1000000000000E-01  2.5146878004897E-01  1.7917484906786E+00
83  8.2000000000000E-01  1.9519266310776E-01  1.8173940293775E+00
84  8.3000000000000E-01  1.4123943577489E-01  1.8368587370252E+00
85  8.4000000000000E-01  8.9857439700294E-02  1.8498272752039E+00
86  8.5000000000000E-01  4.1276218906387E-02  1.8560252446630E+00
87  8.6000000000000E-01 -4.2962553822451E-03  1.8552265295546E+00
88  8.7000000000000E-01 -4.6676202434133E-02  1.8472602922267E+00
89  8.8000000000000E-01 -8.5706435335037E-02  1.8320174296467E+00
90  8.9000000000000E-01 -1.2125849469074E-01  1.8094563066183E+00
91  9.0000000000000E-01 -1.5323446053204E-01  1.7796075899944E+00
92  9.1000000000000E-01 -1.8156839471656E-01  1.7425780220060E+00
93  9.2000000000000E-01 -2.0622737192278E-01  1.6985529893777E+00
94  9.3000000000000E-01 -2.2721206435528E-01  1.6477977677463E+00
95  9.4000000000000E-01 -2.4455685338780E-01  1.5906573475457E+00
96  9.5000000000000E-01 -2.5832945038837E-01  1.5275547773927E+00
97  9.6000000000000E-01 -2.6863001869753E-01  1.4589879934055E+00
98  9.7000000000000E-01 -2.7558979894196E-01  1.3855251370386E+00
99  9.8000000000000E-01 -2.7936925031795E-01  1.3077983990875E+00
100  9.9000000000000E-01 -2.8015573091907E-01  1.2264964626310E+00
101  1.0000000000000E+00 -2.7816075034867E-01  1.1423556519331E+00
102  1.0100000000000E+00 -2.7361683749192E-01  1.0561499268303E+00
103  1.0200000000000E+00 -2.6677407516823E-01  9.6867989199459E-01
104  1.0300000000000E+00 -2.5789636122101E-01  8.8076101692905E-01
105  1.0400000000000E+00 -2.4725746219512E-01  7.9321128479679E-01
106  1.0500000000000E+00 -2.3513693092669E-01  7.0683850561955E-01
107  1.0600000000000E+00 -2.2181596297481E-01  6.2242754146195E-01
108  1.0700000000000E+00 -2.0757326872794E-01  5.4072769750064E-01
109  1.0800000000000E+00 -1.9268103816281E-01  4.6244053315696E-01
110  1.0900000000000E+00 -1.7740107356629E-01  3.8820834156013E-01
111  1.1000000000000E+00 -1.6198116209473E-01  3.1860353365441E-01
112  1.1100000000000E+00 -1.4665175485149E-01  2.5411914530266E-01
113  1.1200000000000E+00 -1.3162301238044E-01  1.9516066235094E-01
114  1.1300000000000E+00 -1.1708226816594E-01  1.4203933002516E-01
115  1.1400000000000E+00 -1.0319195217294E-01  9.4967080181390E-02
116  1.1500000000000E+00 -9.0088005773178E-02  5.4053173231020E-02
117  1.1600000000000E+00 -7.7878807949250E-02  1.9302612270265E-02
118  1.1700000000000E+00 -6.6644620579803E-02 -9.3836544841601E-03
119  1.1800000000000E+00 -5.6437548348869E-02 -3.2206768822501E-02
120  1.1900000000000E+00 -4.7281996350038E-02 -4.9466303947887E-02
121  1.2000000000000E+00 -3.9175599779262E-02 -6.1555005297419E-02
122  1.2100000000000E+00 -3.2090569892254E-02 -6.8952157856307E-02
123  1.2200000000000E+00 -2.5976523132080E-02 -7.2210206289184E-02
124  1.2300000000000E+00 -2.0766783285997E-02 -7.1925343764115E-02
125  1.2400000000000E+00 -1.6383360747264E-02 -6.8716504232254E-02
126  1.2500000000000E+00 -1.2740556178227E-02 -6.3211909697310E-02
127  1.2600000000000E+00 -9.7486467395443E-03 -5.6035407636863E-02
128  1.2700000000000E+00 -7.3176332687091E-03 -4.7792744041481E-02
129  1.2800000000000E+00 -5.3606565205099E-03 -3.9058822144926E-02
130  1.2900000000000E+00 -3.8044268730452E-03 -3.0347306908772E-02
131  1.3000000000000E+00 -2.5966797263294E-03 -2.2087262097301E-02
132  1.3100000000000E+00 -1.6686552660715E-03 -1.4716255146418E-02
133  1.3200000000000E+00 -9.6741472183876E-04 -8.5965527544494E-03
134  1.3300000000000E+00 -4.5993738884405E-04 -4.0036653048707E-03
135  1.3400000000000E+00 -1.3310612249029E-04 -1.1061692813109E-03
136  1.3500000000000E+00 -3.9225314619575E-06 -3.0194535344457E-05
137  1.3600000000000E+00 -3.8300261540199E-07 -3.0282878216027E-06
138  1.3700000000000E+00  1.6538875917235E-07  1.3457593567462E-06
139  1.38 -0. -0.
140  1.39  0.  0.
141  1.40  0.  0.
142  1.41  0.  0.
143  1.42  0.  0.
144  1.43  0.  0.
145  1.44  0.  0.
146  1.45  0.  0.
147  1.46  0.  0.
148  1.47  0.  0.
149  1.48  0.  0.
150  1.49  0.  0.
151  1.50  0.  0.
152  1.51  0.  0.
153  1.52  0.  0.
154  1.53  0.  0.
155  1.54  0.  0.
156  1.55  0.  0.
157  1.56  0.  0.
158  1.57  0.  0.
159  1.58  0.  0.
160  1.59  0.  0.
161  1.60  0.  0.
162  1.61  0.  0.
163  1.62  0.  0.
164  1.63  0.  0.
165  1.64  0.  0.
166  1.65  0.  0.
167  1.66  0.  0.
168  1.67  0.  0.
169  1.68  0.  0.
170  1.69  0.  0.
171  1.70  0.  0.
172  1.71  0.  0.
173  1.72  0.  0.
174  1.73  0.  0.
175  1.74  0.  0.
176  1.75  0.  0.
177  1.76  0.  0.
178  1.77  0.  0.
179  1.78  0.  0.
180  1.79  0.  0.
181  1.80  0.  0.
182  1.81  0.  0.
183  1.82  0.  0.
184  1.83  0.  0.
185  1.84  0.  0.
186  1.85  0.  0.
187  1.86  0.  0.
188  1.87  0.  0.
189  1.88  0.  0.
190  1.89  0.  0.
191  1.90  0.  0.
192  1.91  0.  0.
193  1.92  0.  0.
194  1.93  0.  0.
195  1.94  0.  0.
196  1.95  0.  0.
197  1.96  0.  0.
198  1.97  0.  0.
199  1.98  0.  0.
200  1.99  0.  0.
201  2.00  0.  0.
202  2.01  0.  0.
203  2.02  0.  0.
204  2.03  0.  0.
205  2.04  0.  0.
206  2.05  0.  0.
207  2.06  0.  0.
208  2.07  0.  0.
209  2.08  0.  0.
210  2.09  0.  0.
211  2.10  0.  0.
212  2.11  0.  0.
213  2.12  0.  0.
214  2.13  0.  0.
215  2.14  0.  0.
216  2.15  0.  0.
217  2.16  0.  0.
218  2.17  0.  0.
219  2.18  0.  0.
220  2.19  0.  0.
221  2.20  0.  0.
222  2.21  0.  0.
223  2.22  0.  0.
224  2.23  0.  0.
225  2.24  0.  0.
226  2.25  0.  0.
227  2.26  0.  0.
228  2.27  0.  0.
229  2.28  0.  0.
230  2.29  0.  0.
231  2.30  0.  0.
232  2.31  0.  0.
233  2.32  0.  0.
234  2.33  0.  0.
235  2.34  0.  0.
236  2.35  0.  0.
237  2.36  0.  0.
238  2.37  0.  0.
239  2.38  0.  0.
240  2.39  0.  0.
241  2.40  0.  0.
242  2.41  0.  0.
243  2.42  0.  0.
244  2.43  0.  0.
245  2.44  0.  0.
246  2.45  0.  0.
247  2.46  0.  0.
248  2.47  0.  0.
249  2.48  0.  0.
250  2.49  0.  0.
251  2.50  0.  0.
252  2.51  0.  0.
253  2.52  0.  0.
254  2.53  0.  0.
255  2.54  0.  0.
256  2.55  0.  0.
257  2.56  0.  0.
258  2.57  0.  0.
259  2.58  0.  0.
260  2.59  0.  0.
261  2.60  0.  0.
262  2.61  0.  0.
263  2.62  0.  0.
264  2.63  0.  0.
265  2.64  0.  0.
266  2.65  0.  0.
267  2.66  0.  0.
268  2.67  0.  0.
269  2.68  0.  0.
270  2.69  0.  0.
271  2.70  0.  0.
272  2.71  0.  0.
273  2.72  0.  0.
274  2.73  0.  0.
275  2.74  0.  0.
276  2.75  0.  0.
277  2.76  0.  0.
278  2.77  0.  0.
279  2.78  0.  0.
280  2.79  0.  0.
281  2.80  0.  0.
282  2.81  0.  0.
283  2.82  0.  0.
284  2.83  0.  0.
285  2.84  0.  0.
286  2.85  0.  0.
287  2.86  0.  0.
288  2.87  0.  0.