Ts    ONCVPSP-4.0.1  r_core=   2.10358   2.10358   1.95787
117.0000     25.0000      230727    zatom,zion,pspd
8      11   2     4   600     0    pspcod,pspxc,lmax,lloc,mmax,r2well
5.99000000  5.00000000  0.00000000    rchrg fchrg qchrg
2     2     2     0     0    nproj
1     1           extension_switch
0                         6.8596629941017E+00 -3.3649948500581E+00
1  0.0000000000000E+00 -7.7769013451245E-11  9.5887187079313E-13
2  1.0000000000000E-02  8.5732970132263E-02  2.9611502047071E-02
3  2.0000000000000E-02  1.7118217052458E-01  5.9206839405633E-02
4  3.0000000000000E-02  2.5606489929273E-01  8.8769846341700E-02
5  4.0000000000000E-02  3.4010058581590E-01  1.1828435508847E-01
6  5.0000000000000E-02  4.2301184526797E-01  1.4773419497506E-01
7  6.0000000000000E-02  5.0452551988318E-01  1.7710319172865E-01
8  7.0000000000000E-02  5.8437370262584E-01  2.0637516700686E-01
9  8.0000000000000E-02  6.6229473901111E-01  2.3553393821590E-01
10  9.0000000000000E-02  7.3803420292077E-01  2.6456331866919E-01
11  1.0000000000000E-01  8.1134584237279E-01  2.9344711813939E-01
12  1.1000000000000E-01  8.8199249133600E-01  3.2216914385527E-01
13  1.2000000000000E-01  9.4974694383157E-01  3.5071320199299E-01
14  1.3000000000000E-01  1.0143927867294E+00  3.7906309970917E-01
15  1.4000000000000E-01  1.0757251878297E+00  4.0720264776070E-01
16  1.5000000000000E-01  1.1335516360189E+00  4.3511566375409E-01
17  1.6000000000000E-01  1.1876926304979E+00  4.6278597606385E-01
18  1.7000000000000E-01  1.2379823163091E+00  4.9019742845709E-01
19  1.8000000000000E-01  1.2842690636222E+00  5.1733388545786E-01
20  1.9000000000000E-01  1.3264159884898E+00  5.4417923848197E-01
21  2.0000000000000E-01  1.3643014130402E+00  5.7071741276911E-01
22  2.1000000000000E-01  1.3978192633414E+00  5.9693237513597E-01
23  2.2000000000000E-01  1.4268794034473E+00  6.2280814256988E-01
24  2.3000000000000E-01  1.4514079044157E+00  6.4832879167898E-01
25  2.4000000000000E-01  1.4713472473746E+00  6.7347846901073E-01
26  2.5000000000000E-01  1.4866564600038E+00  6.9824140224652E-01
27  2.6000000000000E-01  1.4973111860903E+00  7.2260191227603E-01
28  2.7000000000000E-01  1.5033036881097E+00  7.4654442615062E-01
29  2.8000000000000E-01  1.5046427830807E+00  7.7005349091081E-01
30  2.9000000000000E-01  1.5013537122281E+00  7.9311378827838E-01
31  3.0000000000000E-01  1.4934779452830E+00  8.1571015019945E-01
32  3.1000000000000E-01  1.4810729205301E+00  8.3782757522009E-01
33  3.2000000000000E-01  1.4642117219929E+00  8.5945124567198E-01
34  3.3000000000000E-01  1.4429826954195E+00  8.8056654564097E-01
35  3.4000000000000E-01  1.4174890049956E+00  9.0115907968688E-01
36  3.5000000000000E-01  1.3878481329677E+00  9.2121469227891E-01
37  3.6000000000000E-01  1.3541913246008E+00  9.4071948790627E-01
38  3.7000000000000E-01  1.3166629811321E+00  9.5965985181971E-01
39  3.8000000000000E-01  1.2754200035973E+00  9.7802247135547E-01
40  3.9000000000000E-01  1.2306310906165E+00  9.9579435778888E-01
41  4.0000000000000E-01  1.1824759934163E+00  1.0129628686614E+00
42  4.1000000000000E-01  1.1311447315396E+00  1.0295157305208E+00
43  4.2000000000000E-01  1.0768367728564E+00  1.0454410620101E+00
44  4.3000000000000E-01  1.0197601816297E+00  1.0607273972393E+00
45  4.4000000000000E-01  9.6013073851407E-01  1.0753637093680E+00
46  4.5000000000000E-01  8.9817103647322E-01  1.0893394343261E+00
47  4.6000000000000E-01  8.3410955668579E-01  1.1026444945966E+00
48  4.7000000000000E-01  7.6817972858018E-01  1.1152693229803E+00
49  4.8000000000000E-01  7.0061897818436E-01  1.1272048862632E+00
50  4.9000000000000E-01  6.3166776900618E-01  1.1384427087011E+00
51  5.0000000000000E-01  5.6156863966715E-01  1.1489748952385E+00
52  5.1000000000000E-01  4.9056524250126E-01  1.1587941543733E+00
53  5.2000000000000E-01  4.1890138729852E-01  1.1678938205813E+00
54  5.3000000000000E-01  3.4682009432168E-01  1.1762678762112E+00
55  5.4000000000000E-01  2.7456266065352E-01  1.1839109727603E+00
56  5.5000000000000E-01  2.0236774384289E-01  1.1908184514435E+00
57  5.6000000000000E-01  1.3047046670884E-01  1.1969863629642E+00
58  5.7000000000000E-01  5.9101547036455E-02  1.2024114864002E+00
59  5.8000000000000E-01 -1.1513544245873E-02  1.2070913471158E+00
60  5.9000000000000E-01 -8.1155392977520E-02  1.2110242336136E+00
61  6.0000000000000E-01 -1.4961141651086E-01  1.2142092132414E+00
62  6.1000000000000E-01 -2.1667660022646E-01  1.2166461466701E+00
63  6.2000000000000E-01 -2.8215419295838E-01  1.2183357010627E+00
64  6.3000000000000E-01 -3.4585635868603E-01  1.2192793618556E+00
65  6.4000000000000E-01 -4.0760478207775E-01  1.2194794430772E+00
66  6.5000000000000E-01 -4.6723122570918E-01  1.2189390961310E+00
67  6.6000000000000E-01 -5.2457803702743E-01  1.2176623169775E+00
68  6.7000000000000E-01 -5.7949860338728E-01  1.2156539516477E+00
69  6.8000000000000E-01 -6.3185775374690E-01  1.2129197000303E+00
70  6.9000000000000E-01 -6.8153210587799E-01  1.2094661178784E+00
71  7.0000000000000E-01 -7.2841035821469E-01  1.2053006169829E+00
72  7.1000000000000E-01 -7.7239352573906E-01  1.2004314634717E+00
73  7.2000000000000E-01 -8.1339511957325E-01  1.1948677741922E+00
74  7.3000000000000E-01 -8.5134127022219E-01  1.1886195111468E+00
75  7.4000000000000E-01 -8.8617079468021E-01  1.1816974739529E+00
76  7.5000000000000E-01 -9.1783520788306E-01  1.1741132903068E+00
77  7.6000000000000E-01 -9.4629867924848E-01  1.1658794044391E+00
78  7.7000000000000E-01 -9.7153793530481E-01  1.1570090635516E+00
79  7.8000000000000E-01 -9.9354210965580E-01  1.1475163022388E+00
80  7.9000000000000E-01 -1.0123125417695E+00  1.1374159248972E+00
81  8.0000000000000E-01 -1.0278625263090E+00  1.1267234861395E+00
82  8.1000000000000E-01 -1.0402170149414E+00  1.1154552692328E+00
83  8.2000000000000E-01 -1.0494122727681E+00  1.1036282625900E+00
84  8.3000000000000E-01 -1.0554954917123E+00  1.0912601343505E+00
85  8.4000000000000E-01 -1.0585243633800E+00  1.0783692050928E+00
86  8.5000000000000E-01 -1.0585666140720E+00  1.0649744187300E+00
87  8.6000000000000E-01 -1.0556995047764E+00  1.0510953116453E+00
88  8.7000000000000E-01 -1.0500092990998E+00  1.0367519801331E+00
89  8.8000000000000E-01 -1.0415907022128E+00  1.0219650462163E+00
90  8.9000000000000E-01 -1.0305462739795E+00  1.0067556219198E+00
91  9.0000000000000E-01 -1.0169858195240E+00  9.9114527208450E-01
92  9.1000000000000E-01 -1.0010257605457E+00  9.7515597581326E-01
93  9.2000000000000E-01 -9.8278849073894E-01  9.5881008664765E-01
94  9.3000000000000E-01 -9.6240171869758E-01  9.4213029157795E-01
95  9.4000000000000E-01 -9.3999780169173E-01  9.2513956899611E-01
96  9.5000000000000E-01 -9.1571307369194E-01  9.0786114570591E-01
97  9.6000000000000E-01 -8.8968717098714E-01  8.9031845310908E-01
98  9.7000000000000E-01 -8.6206235869563E-01  8.7253508269122E-01
99  9.8000000000000E-01 -8.3298286140467E-01  8.5453474093451E-01
100  9.9000000000000E-01 -8.0259420109419E-01  8.3634120378827E-01
101  1.0000000000000E+00 -7.7104254540372E-01  8.1797827083123E-01
102  1.0100000000000E+00 -7.3847406919122E-01  7.9946971926158E-01
103  1.0200000000000E+00 -7.0503433220682E-01  7.8083925785354E-01
104  1.0300000000000E+00 -6.7086767556624E-01  7.6211048101971E-01
105  1.0400000000000E+00 -6.3611663955777E-01  7.4330682312026E-01
106  1.0500000000000E+00 -6.0092140515459E-01  7.2445151315958E-01
107  1.0600000000000E+00 -5.6541926143207E-01  7.0556753001130E-01
108  1.0700000000000E+00 -5.2974410090786E-01  6.8667755831142E-01
109  1.0800000000000E+00 -4.9402594463417E-01  6.6780394515814E-01
110  1.0900000000000E+00 -4.5839049867479E-01  6.4896865775461E-01
111  1.1000000000000E+00 -4.2295874339903E-01  6.3019324212877E-01
112  1.1100000000000E+00 -3.8784655681848E-01  6.1149878306079E-01
113  1.1200000000000E+00 -3.5316437298490E-01  5.9290586534517E-01
114  1.1300000000000E+00 -3.1901687625689E-01  5.7443453651020E-01
115  1.1400000000000E+00 -2.8550273203339E-01  5.5610427111273E-01
116  1.1500000000000E+00 -2.5271435434178E-01  5.3793393672063E-01
117  1.1600000000000E+00 -2.2073771046211E-01  5.1994176168968E-01
118  1.1700000000000E+00 -1.8965216256386E-01  5.0214530483526E-01
119  1.1800000000000E+00 -1.5953034613316E-01  4.8456142709212E-01
120  1.1900000000000E+00 -1.3043808477348E-01  4.6720626524864E-01
121  1.2000000000000E+00 -1.0243434077636E-01  4.5009520783404E-01
122  1.2100000000000E+00 -7.5571200678376E-02  4.3324287322919E-01
123  1.2200000000000E+00 -4.9893894849806E-02  4.1666309006304E-01
124  1.2300000000000E+00 -2.5440849998697E-02  4.0036887994833E-01
125  1.2400000000000E+00 -2.2437733223374E-03  3.8437244260113E-01
126  1.2500000000000E+00  1.9672233101907E-02  3.6868514337962E-01
127  1.2600000000000E+00  4.0288529223912E-02  3.5331750326826E-01
128  1.2700000000000E+00  5.9592766880442E-02  3.3827919132400E-01
129  1.2800000000000E+00  7.7578694365373E-02  3.2357901959176E-01
130  1.2900000000000E+00  9.4245937560518E-02  3.0922494048653E-01
131  1.3000000000000E+00  1.0959975955495E-01  2.9522404663021E-01
132  1.3100000000000E+00  1.2365080074558E-01  2.8158257312155E-01
133  1.3200000000000E+00  1.3641480146294E-01  2.6830590220818E-01
134  1.3300000000000E+00  1.4791230920416E-01  2.5539857032034E-01
135  1.3400000000000E+00  1.5816837257916E-01  2.4286427741709E-01
136  1.3500000000000E+00  1.6721222408763E-01  2.3070589858649E-01
137  1.3600000000000E+00  1.7507695384208E-01  2.1892549783299E-01
138  1.3700000000000E+00  1.8179917633846E-01  2.0752434397690E-01
139  1.3800000000000E+00  1.8741869234829E-01  1.9650292858277E-01
140  1.3900000000000E+00  1.9197814796875E-01  1.8586098582634E-01
141  1.4000000000000E+00  1.9552269281677E-01  1.7559751420220E-01
142  1.4100000000000E+00  1.9809963929351E-01  1.6571079996817E-01
143  1.4200000000000E+00  1.9975812477514E-01  1.5619844221615E-01
144  1.4300000000000E+00  2.0054877850691E-01  1.4705737945351E-01
145  1.4400000000000E+00  2.0052339488942E-01  1.3828391757454E-01
146  1.4500000000000E+00  1.9973461475112E-01  1.2987375909668E-01
147  1.4600000000000E+00  1.9823561609847E-01  1.2182203353296E-01
148  1.4700000000000E+00  1.9607981572770E-01  1.1412332876847E-01
149  1.4800000000000E+00  1.9332058296869E-01  1.0677172330680E-01
150  1.4900000000000E+00  1.9001096671459E-01  9.9760819250136E-02
151  1.5000000000000E+00  1.8620343677020E-01  9.3083775875834E-02
152  1.5100000000000E+00  1.8194964042934E-01  8.6733343671766E-02
153  1.5200000000000E+00  1.7730017506726E-01  8.0701898693005E-02
154  1.5300000000000E+00  1.7230437740922E-01  7.4981477103267E-02
155  1.5400000000000E+00  1.6701013001180E-01  6.9563809766127E-02
156  1.5500000000000E+00  1.6146368536976E-01  6.4440356753222E-02
157  1.5600000000000E+00  1.5570950793978E-01  5.9602341639501E-02
158  1.5700000000000E+00  1.4979013425314E-01  5.5040785459055E-02
159  1.5800000000000E+00  1.4374605117348E-01  5.0746540199090E-02
160  1.5900000000000E+00  1.3761559224430E-01  4.6710321714244E-02
161  1.6000000000000E+00  1.3143485196314E-01  4.2922741948617E-02
162  1.6100000000000E+00  1.2523761771743E-01  3.9374340358522E-02
163  1.6200000000000E+00  1.1905531902063E-01  3.6055614435112E-02
164  1.6300000000000E+00  1.1291699359655E-01  3.2957049232610E-02
165  1.6400000000000E+00  1.0684926977613E-01  3.0069145814816E-02
166  1.6500000000000E+00  1.0087636459333E-01  2.7382448539874E-02
167  1.6600000000000E+00  9.5020096897113E-02  2.4887571110888E-02
168  1.6700000000000E+00  8.9299914733240E-02  2.2575221327844E-02
169  1.6800000000000E+00  8.3732936194121E-02  2.0436224484382E-02
170  1.6900000000000E+00  7.8334002887032E-02  1.8461545361174E-02
171  1.7000000000000E+00  7.3115745130146E-02  1.6642308776032E-02
172  1.7100000000000E+00  6.8088657952756E-02  1.4969818659275E-02
173  1.7200000000000E+00  6.3261186950057E-02  1.3435575631277E-02
174  1.7300000000000E+00  5.8639823024183E-02  1.2031293067545E-02
175  1.7400000000000E+00  5.4229205031373E-02  1.0748911644900E-02
176  1.7500000000000E+00  5.0032229350078E-02  9.5806123705290E-03
177  1.7600000000000E+00  4.6050165386228E-02  8.5188281036215E-03
178  1.7700000000000E+00  4.2282776039317E-02  7.5562535870212E-03
179  1.7800000000000E+00  3.8728442166205E-02  6.6858540137865E-03
180  1.7900000000000E+00  3.5384290098133E-02  5.9008721606684E-03
181  1.8000000000000E+00  3.2246321289896E-02  5.1948341272876E-03
182  1.8100000000000E+00  2.9309543208402E-02  4.5615537261670E-03
183  1.8200000000000E+00  2.6568100599479E-02  3.9951355746675E-03
184  1.8300000000000E+00  2.4015406308022E-02  3.4899769453939E-03
185  1.8400000000000E+00  2.1644270865087E-02  3.0407684365502E-03
186  1.8500000000000E+00  1.9447030097161E-02  2.6424935282290E-03
187  1.8600000000000E+00  1.7415670056611E-02  2.2904270944477E-03
188  1.8700000000000E+00  1.5541948617733E-02  1.9801329441469E-03
189  1.8800000000000E+00  1.3817513129682E-02  1.7074604670937E-03
190  1.8900000000000E+00  1.2234013565289E-02  1.4685404628026E-03
191  1.9000000000000E+00  1.0783210652928E-02  1.2597802321960E-03
192  1.9100000000000E+00  9.4570785268175E-03  1.0778580126633E-03
193  1.9200000000000E+00  8.2479014796351E-03  9.1971683758459E-04
194  1.9300000000000E+00  7.1483646077206E-03  7.8255790591911E-04
195  1.9400000000000E+00  6.1516378884007E-03  6.6383353672611E-04
196  1.9500000000000E+00  5.2514461466080E-03  5.6123957988234E-04
197  1.9600000000000E+00  4.4421683227763E-03  4.7270888000199E-04
198  1.9700000000000E+00  3.7187600844836E-03  3.9639791733962E-04
199  1.9800000000000E+00  3.0763834290179E-03  3.3066895800649E-04
200  1.9900000000000E+00  2.5101135556249E-03  2.7407538945470E-04
201  2.0000000000000E+00  2.0150777604857E-03  2.2530484360288E-04
202  2.0100000000000E+00  1.5870836567983E-03  1.8283663338318E-04
203  2.0200000000000E+00  1.2216769813034E-03  1.4558220459651E-04
204  2.0300000000000E+00  9.1377699657094E-04  1.1310799574180E-04
205  2.0400000000000E+00  6.5861864429448E-04  8.5014770985351E-05
206  2.0500000000000E+00  4.5166701002009E-04  6.1025140702985E-05
207  2.0600000000000E+00  2.8866711994991E-04  4.0967165817659E-05
208  2.0700000000000E+00  1.6569758720174E-04  2.4782289230085E-05
209  2.0800000000000E+00  7.8916603815638E-05  1.2472346406049E-05
210  2.0900000000000E+00  2.5262644066586E-05  4.2323150452259E-06
211  2.1000000000000E+00  2.6497966985802E-06  4.7990674129612E-07
212  2.1100000000000E+00 -9.5358426031135E-07 -1.7275278004562E-07
213  2.1200000000000E+00  2.7922181370059E-07  4.8982261733428E-08
214  2.13 -0. -0.
215  2.14 -0. -0.
216  2.15  0. -0.
217  2.16  0.  0.
218  2.17  0.  0.
219  2.18  0.  0.
220  2.19  0.  0.
221  2.20  0.  0.
222  2.21  0.  0.
223  2.22  0.  0.
224  2.23  0.  0.
225  2.24  0.  0.
226  2.25  0.  0.
227  2.26  0.  0.
228  2.27  0.  0.
229  2.28  0.  0.
230  2.29  0.  0.
231  2.30  0.  0.
232  2.31  0.  0.
233  2.32  0.  0.
234  2.33  0.  0.
235  2.34  0.  0.
236  2.35  0.  0.
237  2.36  0.  0.
238  2.37  0.  0.
239  2.38  0.  0.
240  2.39  0.  0.
241  2.40  0.  0.
242  2.41  0.  0.
243  2.42  0.  0.
244  2.43  0.  0.
245  2.44  0.  0.
246  2.45  0.  0.
247  2.46  0.  0.
248  2.47  0.  0.
249  2.48  0.  0.
250  2.49  0.  0.
251  2.50  0.  0.
252  2.51  0.  0.
253  2.52  0.  0.
254  2.53  0.  0.
255  2.54  0.  0.
256  2.55  0.  0.
257  2.56  0.  0.
258  2.57  0.  0.
259  2.58  0.  0.
260  2.59  0.  0.
261  2.60  0.  0.
262  2.61  0.  0.
263  2.62  0.  0.
264  2.63  0.  0.
265  2.64  0.  0.
266  2.65  0.  0.
267  2.66  0.  0.
268  2.67  0.  0.
269  2.68  0.  0.
270  2.69  0.  0.
271  2.70  0.  0.
272  2.71  0.  0.
273  2.72  0.  0.
274  2.73  0.  0.
275  2.74  0.  0.
276  2.75  0.  0.
277  2.76  0.  0.
278  2.77  0.  0.
279  2.78  0.  0.
280  2.79  0.  0.
281  2.80  0.  0.
282  2.81  0.  0.
283  2.82  0.  0.
284  2.83  0.  0.
285  2.84  0.  0.
286  2.85  0.  0.
287  2.86  0.  0.
288  2.87  0.  0.
289  2.88  0.  0.
290  2.89  0.  0.
291  2.90  0.  0.
292  2.91  0.  0.
293  2.92  0.  0.
294  2.93  0.  0.
295  2.94  0.  0.
296  2.95  0.  0.
297  2.96  0.  0.
298  2.97  0.  0.
299  2.98  0.  0.
300  2.99  0.  0.
301  3.00  0.  0.
302  3.01  0.  0.
303  3.02  0.  0.
304  3.03  0.  0.
305  3.04  0.  0.
306  3.05  0.  0.
307  3.06  0.  0.
308  3.07  0.  0.
309  3.08  0.  0.
310  3.09  0.  0.
311  3.10  0.  0.
312  3.11  0.  0.
313  3.12  0.  0.
314  3.13  0.  0.
315  3.14  0.  0.
316  3.15  0.  0.
317  3.16  0.  0.
318  3.17  0.  0.
319  3.18  0.  0.
320  3.19  0.  0.
321  3.20  0.  0.
322  3.21  0.  0.
323  3.22  0.  0.
324  3.23  0.  0.
325  3.24  0.  0.
326  3.25  0.  0.
327  3.26  0.  0.
328  3.27  0.  0.
329  3.28  0.  0.
330  3.29  0.  0.
331  3.30  0.  0.
332  3.31  0.  0.
333  3.32  0.  0.
334  3.33  0.  0.
335  3.34  0.  0.
336  3.35  0.  0.
337  3.36  0.  0.
338  3.37  0.  0.
339  3.38  0.  0.
340  3.39  0.  0.
341  3.40  0.  0.
342  3.41  0.  0.
343  3.42  0.  0.
344  3.43  0.  0.
345  3.44  0.  0.
346  3.45  0.  0.
347  3.46  0.  0.
348  3.47  0.  0.
349  3.48  0.  0.
350  3.49  0.  0.
351  3.50  0.  0.
352  3.51  0.  0.
353  3.52  0.  0.
354  3.53  0.  0.
355  3.54  0.  0.
356  3.55  0.  0.
357  3.56  0.  0.
358  3.57  0.  0.
359  3.58  0.  0.
360  3.59  0.  0.
361  3.60  0.  0.
362  3.61  0.  0.
363  3.62  0.  0.
364  3.63  0.  0.
365  3.64  0.  0.
366  3.65  0.  0.
367  3.66  0.  0.
368  3.67  0.  0.
369  3.68  0.  0.
370  3.69  0.  0.
371  3.70  0.  0.
372  3.71  0.  0.
373  3.72  0.  0.
374  3.73  0.  0.
375  3.74  0.  0.
376  3.75  0.  0.
377  3.76  0.  0.
378  3.77  0.  0.
379  3.78  0.  0.
380  3.79  0.  0.
381  3.80  0.  0.
382  3.81  0.  0.
383  3.82  0.  0.
384  3.83  0.  0.
385  3.84  0.  0.
386  3.85  0.  0.
387  3.86  0.  0.
388  3.87  0.  0.
389  3.88  0.  0.
390  3.89  0.  0.
391  3.90  0.  0.
392  3.91  0.  0.
393  3.92  0.  0.
394  3.93  0.  0.
395  3.94  0.  0.
396  3.95  0.  0.
397  3.96  0.  0.
398  3.97  0.  0.
399  3.98  0.  0.
400  3.99  0.  0.
401  4.00  0.  0.
402  4.01  0.  0.
403  4.02  0.  0.
404  4.03  0.  0.
405  4.04  0.  0.
406  4.05  0.  0.
407  4.06  0.  0.
408  4.07  0.  0.
409  4.08  0.  0.
410  4.09  0.  0.
411  4.10  0.  0.
412  4.11  0.  0.
413  4.12  0.  0.
414  4.13  0.  0.
415  4.14  0.  0.
416  4.15  0.  0.
417  4.16  0.  0.
418  4.17  0.  0.
419  4.18  0.  0.
420  4.19  0.  0.
421  4.20  0.  0.
422  4.21  0.  0.
423  4.22  0.  0.
424  4.23  0.  0.
425  4.24  0.  0.
426  4.25  0.  0.
427  4.26  0.  0.
428  4.27  0.  0.
429  4.28  0.  0.
430  4.29  0.  0.
431  4.30  0.  0.
432  4.31  0.  0.
433  4.32  0.  0.
434  4.33  0.  0.
435  4.34  0.  0.
436  4.35  0.  0.
437  4.36  0.  0.
438  4.37  0.  0.
439  4.38  0.  0.
440  4.39  0.  0.
441  4.40  0.  0.
442  4.41  0.  0.
443  4.42  0.  0.
444  4.43  0.  0.
445  4.44  0.  0.
446  4.45  0.  0.
447  4.46  0.  0.
448  4.47  0.  0.
449  4.48  0.  0.
450  4.49  0.  0.
451  4.50  0.  0.
452  4.51  0.  0.
453  4.52  0.  0.
454  4.53  0.  0.
455  4.54  0.  0.
456  4.55  0.  0.
457  4.56  0.  0.
458  4.57  0.  0.
459  4.58  0.  0.
460  4.59  0.  0.
461  4.60  0.  0.
462  4.61  0.  0.
463  4.62  0.  0.
464  4.63  0.  0.
465  4.64  0.  0.
466  4.65  0.  0.
467  4.66  0.  0.
468  4.67  0.  0.
469  4.68  0.  0.
470  4.69  0.  0.
471  4.70  0.  0.
472  4.71  0.  0.
473  4.72  0.  0.
474  4.73  0.  0.
475  4.74  0.  0.
476  4.75  0.  0.
477  4.76  0.  0.
478  4.77  0.  0.
479  4.78  0.  0.
480  4.79  0.  0.
481  4.80  0.  0.
482  4.81  0.  0.
483  4.82  0.  0.
484  4.83  0.  0.
485  4.84  0.  0.
486  4.85  0.  0.
487  4.86  0.  0.
488  4.87  0.  0.
489  4.88  0.  0.
490  4.89  0.  0.
491  4.90  0.  0.
492  4.91  0.  0.
493  4.92  0.  0.
494  4.93  0.  0.
495  4.94  0.  0.
496  4.95  0.  0.
497  4.96  0.  0.
498  4.97  0.  0.
499  4.98  0.  0.
500  4.99  0.  0.
501  5.00  0.  0.
502  5.01  0.  0.
503  5.02  0.  0.
504  5.03  0.  0.
505  5.04  0.  0.
506  5.05  0.  0.
507  5.06  0.  0.
508  5.07  0.  0.
509  5.08  0.  0.
510  5.09  0.  0.
511  5.10  0.  0.
512  5.11  0.  0.
513  5.12  0.  0.
514  5.13  0.  0.
515  5.14  0.  0.
516  5.15  0.  0.
517  5.16  0.  0.
518  5.17  0.  0.
519  5.18  0.  0.
520  5.19  0.  0.
521  5.20  0.  0.
522  5.21  0.  0.
523  5.22  0.  0.
524  5.23  0.  0.
525  5.24  0.  0.
526  5.25  0.  0.
527  5.26  0.  0.
528  5.27  0.  0.
529  5.28  0.  0.
530  5.29  0.  0.
531  5.30  0.  0.
532  5.31  0.  0.
533  5.32  0.  0.
534  5.33  0.  0.
535  5.34  0.  0.
536  5.35  0.  0.
537  5.36  0.  0.
538  5.37  0.  0.
539  5.38  0.  0.
540  5.39  0.  0.
541  5.40  0.  0.
542  5.41  0.  0.
543  5.42  0.  0.
544  5.43  0.  0.
545  5.44  0.  0.
546  5.45  0.  0.
547  5.46  0.  0.
548  5.47  0.  0.
549  5.48  0.  0.
550  5.49  0.  0.
551  5.50  0.  0.
552  5.51  0.  0.
553  5.52  0.  0.
554  5.53  0.  0.
555  5.54  0.  0.
556  5.55  0.  0.
557  5.56  0.  0.
558  5.57  0.  0.
559  5.58  0.  0.
560  5.59  0.  0.
561  5.60  0.  0.
562  5.61  0.  0.
563  5.62  0.  0.
564  5.63  0.  0.
565  5.64  0.  0.
566  5.65  0.  0.
567  5.66  0.  0.
568  5.67  0.  0.
569  5.68  0.  0.
570  5.69  0.  0.
571  5.70  0.  0.
572  5.71  0.  0.
573  5.72  0.  0.
574  5.73  0.  0.
575  5.74  0.  0.
576  5.75  0.  0.
577  5.76  0.  0.
578  5.77  0.  0.
579  5.78  0.  0.
580  5.79  0.  0.
581  5.80  0.  0.
582  5.81  0.  0.
583  5.82  0.  0.
584  5.83  0.  0.
585  5.84  0.  0.
586  5.85  0.  0.
587  5.86  0.  0.
588  5.87  0.  0.
589  5.88  0.  0.
590  5.89  0.  0.
591  5.90  0.  0.
592  5.91  0.  0.
593  5.92  0.  0.
594  5.93  0.  0.
595  5.94  0.  0.
596  5.95  0.  0.
597  5.96  0.  0.
598  5.97  0.  0.
599  5.98  0.  0.
600  5.99  0.  0.
1                         3.5781755892733E+00 -1.6711644403499E+00
1  0.0000000000000E+00  4.2845303693806E-10 -1.2292371981415E-11
2  1.0000000000000E-02  1.8950501848631E-03  3.4323053227206E-04
3  2.0000000000000E-02  7.5709274239755E-03  1.3727382356015E-03
4  3.0000000000000E-02  1.6999856436672E-02  3.0879704465749E-03
5  4.0000000000000E-02  3.0135693751202E-02  5.4880027892631E-03
6  5.0000000000000E-02  4.6914149918416E-02  8.5715342919906E-03
7  6.0000000000000E-02  6.7253099054356E-02  1.2336880594953E-02
8  7.0000000000000E-02  9.1052974164614E-02  1.6781965292619E-02
9  8.0000000000000E-02  1.1819724627491E-01  2.1904309467143E-02
10  9.0000000000000E-02  1.4855298497382E-01  2.7701019481036E-02
11  1.0000000000000E-01  1.8197149756729E-01  3.4168773109172E-02
12  1.1000000000000E-01  2.1828904365262E-01  4.1303804101643E-02
13  1.2000000000000E-01  2.5732762154384E-01  4.9101885280143E-02
14  1.3000000000000E-01  2.9889582262259E-01  5.7558310281295E-02
15  1.4000000000000E-01  3.4278974935147E-01  6.6667874070565E-02
16  1.5000000000000E-01  3.8879399237041E-01  7.6424852360275E-02
17  1.6000000000000E-01  4.3668266180467E-01  8.6822980074424E-02
18  1.7000000000000E-01  4.8622046764510E-01  9.7855429011767E-02
19  1.8000000000000E-01  5.3716384382006E-01  1.0951478486664E-01
20  1.9000000000000E-01  5.8926211036456E-01  1.2179302377442E-01
21  2.0000000000000E-01  6.4225866790694E-01  1.3468148855533E-01
22  2.1000000000000E-01  6.9589221853765E-01  1.4817086483616E-01
23  2.2000000000000E-01  7.4989800699963E-01  1.6225115723471E-01
24  2.3000000000000E-01  8.0400907604552E-01  1.7691166579644E-01
25  2.4000000000000E-01  8.5795752974415E-01  1.9214096287593E-01
26  2.5000000000000E-01  9.1147579848844E-01  2.0792687065909E-01
27  2.6000000000000E-01  9.6429789945796E-01  2.2425643952328E-01
28  2.7000000000000E-01  1.0161606863229E+00  2.4111592743404E-01
29  2.8000000000000E-01  1.0668050820419E+00  2.5849078057675E-01
30  2.9000000000000E-01  1.1159772887030E+00  2.7636561542070E-01
31  3.0000000000000E-01  1.1634299684851E+00  2.9472420241133E-01
32  3.1000000000000E-01  1.2089233899769E+00  3.1354945148328E-01
33  3.2000000000000E-01  1.2522265342772E+00  3.3282339958326E-01
34  3.3000000000000E-01  1.2931181555186E+00  3.5252720038678E-01
35  3.4000000000000E-01  1.3313877907011E+00  3.7264111638708E-01
36  3.5000000000000E-01  1.3668367139930E+00  3.9314451352766E-01
37  3.6000000000000E-01  1.3992788309512E+00  4.1401585854230E-01
38  3.7000000000000E-01  1.4285415084345E+00  4.3523271915736E-01
39  3.8000000000000E-01  1.4544663363213E+00  4.5677176730198E-01
40  3.9000000000000E-01  1.4769098175062E+00  4.7860878546069E-01
41  4.0000000000000E-01  1.4957439830261E+00  5.0071867629190E-01
42  4.1000000000000E-01  1.5108569295630E+00  5.2307547562318E-01
43  4.2000000000000E-01  1.5221532769759E+00  5.4565236892107E-01
44  4.3000000000000E-01  1.5295545439375E+00  5.6842171131943E-01
45  4.4000000000000E-01  1.5329994401751E+00  5.9135505127534E-01
46  4.5000000000000E-01  1.5324440742578E+00  6.1442315790652E-01
47  4.6000000000000E-01  1.5278620763043E+00  6.3759605204789E-01
48  4.7000000000000E-01  1.5192446354369E+00  6.6084304104878E-01
49  4.8000000000000E-01  1.5066004522423E+00  6.8413275731463E-01
50  4.9000000000000E-01  1.4899556069450E+00  7.0743320058010E-01
51  5.0000000000000E-01  1.4693533444305E+00  7.3071178388214E-01
52  5.1000000000000E-01  1.4448537776858E+00  7.5393538318369E-01
53  5.2000000000000E-01  1.4165335116400E+00  7.7707039058012E-01
54  5.3000000000000E-01  1.3844851897951E+00  8.0008277100214E-01
55  5.4000000000000E-01  1.3488169664281E+00  8.2293812231027E-01
56  5.5000000000000E-01  1.3096519075199E+00  8.4560173865731E-01
57  5.6000000000000E-01  1.2671273239251E+00  8.6803867697728E-01
58  5.7000000000000E-01  1.2213940406305E+00  8.9021382644069E-01
59  5.8000000000000E-01  1.1726156062649E+00  9.1209198069850E-01
60  5.9000000000000E-01  1.1209674473141E+00  9.3363791271953E-01
61  6.0000000000000E-01  1.0666359717572E+00  9.5481645200951E-01
62  6.1000000000000E-01  1.0098176270787E+00  9.7559256398316E-01
63  6.2000000000000E-01  9.5071791782015E-01  9.9593143124582E-01
64  6.3000000000000E-01  8.8955038801440E-01  1.0157985365257E+00
65  6.4000000000000E-01  8.2653557399425E-01  1.0351597469846E+00
66  6.5000000000000E-01  7.6189993318706E-01  1.0539813996211E+00
67  6.6000000000000E-01  6.9587475459190E-01  1.0722303874701E+00
68  6.7000000000000E-01  6.2869505669107E-01  1.0898742462901E+00
69  6.8000000000000E-01  5.6059847856994E-01  1.1068812414203E+00
70  6.9000000000000E-01  4.9182417000885E-01  1.1232204544842E+00
71  7.0000000000000E-01  4.2261168626866E-01  1.1388618696052E+00
72  7.1000000000000E-01  3.5319989321775E-01  1.1537764587978E+00
73  7.2000000000000E-01  2.8382588834309E-01  1.1679362661935E+00
74  7.3000000000000E-01  2.1472394305245E-01  1.1813144907570E+00
75  7.4000000000000E-01  1.4612447150997E-01  1.1938855671482E+00
76  7.5000000000000E-01  7.8253031053931E-02  1.2056252443878E+00
77  7.6000000000000E-01  1.1329359025038E-02  1.2165106619848E+00
78  7.7000000000000E-01 -5.4433549412556E-02  1.2265204231897E+00
79  7.8000000000000E-01 -1.1883031814541E-01  1.2356346650425E+00
80  7.9000000000000E-01 -1.8166401766059E-01  1.2438351248933E+00
81  8.0000000000000E-01 -2.4274693956446E-01  1.2511052030812E+00
82  8.1000000000000E-01 -3.0190131469553E-01  1.2574300214697E+00
83  8.2000000000000E-01 -3.5895997180385E-01  1.2627964775473E+00
84  8.3000000000000E-01 -4.1376693413177E-01  1.2671932938191E+00
85  8.4000000000000E-01 -4.6617795160479E-01  1.2706110622277E+00
86  8.5000000000000E-01 -5.1606096672468E-01  1.2730422833630E+00
87  8.6000000000000E-01 -5.6329651264786E-01  1.2744814002338E+00
88  8.7000000000000E-01 -6.0777804232755E-01  1.2749248264007E+00
89  8.8000000000000E-01 -6.4941218799634E-01  1.2743709682845E+00
90  8.9000000000000E-01 -6.8811895066330E-01  1.2728202414927E+00
91  9.0000000000000E-01 -7.2383181969561E-01  1.2702750810265E+00
92  9.1000000000000E-01 -7.5649782294483E-01  1.2667399452568E+00
93  9.2000000000000E-01 -7.8607750826140E-01  1.2622213135828E+00
94  9.3000000000000E-01 -8.1254485761491E-01  1.2567276777143E+00
95  9.4000000000000E-01 -8.3588713539928E-01  1.2502695265433E+00
96  9.5000000000000E-01 -8.5610467285112E-01  1.2428593246009E+00
97  9.6000000000000E-01 -8.7321059084103E-01  1.2345114841200E+00
98  9.7000000000000E-01 -8.8723046361335E-01  1.2252423307549E+00
99  9.8000000000000E-01 -8.9820192634415E-01  1.2150700630366E+00
100  9.9000000000000E-01 -9.0617422966238E-01  1.2040147056678E+00
101  1.0000000000000E+00 -9.1120774452987E-01  1.1920980567942E+00
102  1.0100000000000E+00 -9.1337342110429E-01  1.1793436294110E+00
103  1.0200000000000E+00 -9.1275220541129E-01  1.1657765870939E+00
104  1.0300000000000E+00 -9.0943441782906E-01  1.1514236742687E+00
105  1.0400000000000E+00 -9.0351909753848E-01  1.1363131412592E+00
106  1.0500000000000E+00 -8.9511331721432E-01  1.1204746643765E+00
107  1.0600000000000E+00 -8.8433147232790E-01  1.1039392613386E+00
108  1.0700000000000E+00 -8.7129454949821E-01  1.0867392023277E+00
109  1.0800000000000E+00 -8.5612937836697E-01  1.0689079170178E+00
110  1.0900000000000E+00 -8.3896787148409E-01  1.0504798979184E+00
111  1.1000000000000E+00 -8.1994625667281E-01  1.0314906004052E+00
112  1.1100000000000E+00 -7.9920430629980E-01  1.0119763398170E+00
113  1.1200000000000E+00 -7.7688456780536E-01  9.9197418601796E-01
114  1.1300000000000E+00 -7.5313159975244E-01  9.7152185583351E-01
115  1.1400000000000E+00 -7.2809121753331E-01  9.5065760377915E-01
116  1.1500000000000E+00 -7.0190975272805E-01  9.2942011150995E-01
117  1.1600000000000E+00 -6.7473332994420E-01  9.0784837642415E-01
118  1.1700000000000E+00 -6.4670716477894E-01  8.8598159985860E-01
119  1.1800000000000E+00 -6.1797488634125E-01  8.6385907531539E-01
120  1.1900000000000E+00 -5.8867788754675E-01  8.4152007715861E-01
121  1.2000000000000E+00 -5.5895470616087E-01  8.1900375021770E-01
122  1.2100000000000E+00 -5.2894043931228E-01  7.9634900072900E-01
123  1.2200000000000E+00 -4.9876619393497E-01  7.7359438904016E-01
124  1.2300000000000E+00 -4.6855857532292E-01  7.5077802449312E-01
125  1.2400000000000E+00 -4.3843921569851E-01  7.2793746288992E-01
126  1.2500000000000E+00 -4.0852434440865E-01  7.0510960693272E-01
127  1.2600000000000E+00 -3.7892440106955E-01  6.8233061001411E-01