Ts    ONCVPSP-4.0.1  r_core=   2.10358   2.10358   1.95787
117.0000     25.0000      220307    zatom,zion,pspd
8      11   2     4   600     0    pspcod,pspxc,lmax,lloc,mmax,r2well
5.99000000  5.00000000  0.00000000    rchrg fchrg qchrg
2     2     2     0     0    nproj
1     1           extension_switch
0                         4.9743804583379E+00 -3.3709005262703E+00
1  0.0000000000000E+00 -6.2876037709714E-11  1.6572854200092E-12
2  1.0000000000000E-02  8.1579077426517E-02  3.1198000924974E-02
3  2.0000000000000E-02  1.6289696920762E-01  6.2376568313670E-02
4  3.0000000000000E-02  2.4369343207440E-01  9.3516272203292E-02
5  4.0000000000000E-02  3.2371010375220E-01  1.2459768984721E-01
6  5.0000000000000E-02  4.0269143407683E-01  1.5560140949563E-01
7  6.0000000000000E-02  4.8038560489799E-01  1.8650803438213E-01
8  7.0000000000000E-02  5.5654543510630E-01  2.1729818698288E-01
9  8.0000000000000E-02  6.3092926718280E-01  2.4795251361339E-01
10  9.0000000000000E-02  7.0330183174835E-01  2.7845168942589E-01
11  1.0000000000000E-01  7.7343508668289E-01  3.0877642386782E-01
12  1.1000000000000E-01  8.4110902749221E-01  3.3890746665901E-01
13  1.2000000000000E-01  9.0611246572136E-01  3.6882561434216E-01
14  1.3000000000000E-01  9.6824377234871E-01  3.9851171745752E-01
15  1.4000000000000E-01  1.0273115832429E+00  4.2794668838872E-01
16  1.5000000000000E-01  1.0831354639246E+00  4.5711150992282E-01
17  1.6000000000000E-01  1.1355465310480E+00  4.8598724456279E-01
18  1.7000000000000E-01  1.1843880281986E+00  5.1455504462623E-01
19  1.8000000000000E-01  1.2295158537968E+00  5.4279616315872E-01
20  1.9000000000000E-01  1.2707990391011E+00  5.7069196568561E-01
21  2.0000000000000E-01  1.3081201745116E+00  5.9822394281989E-01
22  2.1000000000000E-01  1.3413757825968E+00  6.2537372373875E-01
23  2.2000000000000E-01  1.3704766364874E+00  6.5212309053561E-01
24  2.3000000000000E-01  1.3953480225155E+00  6.7845399344828E-01
25  2.4000000000000E-01  1.4159299462076E+00  7.0434856695837E-01
26  2.5000000000000E-01  1.4321772809826E+00  7.2978914675090E-01
27  2.6000000000000E-01  1.4440598591455E+00  7.5475828751692E-01
28  2.7000000000000E-01  1.4515625050078E+00  7.7923878157643E-01
29  2.8000000000000E-01  1.4546850102133E+00  8.0321367829233E-01
30  2.9000000000000E-01  1.4534420515865E+00  8.2666630424065E-01
31  3.0000000000000E-01  1.4478630520614E+00  8.4958028409654E-01
32  3.1000000000000E-01  1.4379919854904E+00  8.7193956218942E-01
33  3.2000000000000E-01  1.4238871263621E+00  8.9372842467578E-01
34  3.3000000000000E-01  1.4056207456885E+00  9.1493152227226E-01
35  3.4000000000000E-01  1.3832787545463E+00  9.3553389348691E-01
36  3.5000000000000E-01  1.3569602969703E+00  9.5552098828136E-01
37  3.6000000000000E-01  1.3267772941102E+00  9.7487869209241E-01
38  3.7000000000000E-01  1.2928539417554E+00  9.9359335013684E-01
39  3.8000000000000E-01  1.2553261635307E+00  1.0116517919194E+00
40  3.9000000000000E-01  1.2143410222374E+00  1.0290413558607E+00
41  4.0000000000000E-01  1.1700560919885E+00  1.0457499139571E+00
42  4.1000000000000E-01  1.1226387939399E+00  1.0617658963843E+00
43  4.2000000000000E-01  1.0722656985630E+00  1.0770783159506E+00
44  4.3000000000000E-01  1.0191217975368E+00  1.0916767923059E+00
45  4.4000000000000E-01  9.6339974844829E-01  1.1055515758110E+00
46  4.5000000000000E-01  9.0529909559715E-01  1.1186935709687E+00
47  4.6000000000000E-01  8.4502547028257E-01  1.1310943593187E+00
48  4.7000000000000E-01  7.8278977402312E-01  1.1427462216985E+00
49  4.8000000000000E-01  7.1880734821511E-01  1.1536421597699E+00
50  4.9000000000000E-01  6.5329713377431E-01  1.1637759167160E+00
51  5.0000000000000E-01  5.8648082432871E-01  1.1731419970092E+00
52  5.1000000000000E-01  5.1858201653713E-01  1.1817356851558E+00
53  5.2000000000000E-01  4.4982536109894E-01  1.1895530633246E+00
54  5.3000000000000E-01  3.8043571799479E-01  1.1965910277670E+00
55  5.4000000000000E-01  3.1063731945653E-01  1.2028473039413E+00
56  5.5000000000000E-01  2.4065294410740E-01  1.2083204602569E+00
57  5.6000000000000E-01  1.7070310564064E-01  1.2130099203549E+00
58  5.7000000000000E-01  1.0100525931669E-01  1.2169159738519E+00
59  5.8000000000000E-01  3.1773029456857E-02  1.2200397854709E+00
60  5.9000000000000E-01 -3.6784539005643E-02  1.2223834024933E+00
61  6.0000000000000E-01 -1.0446370198646E-01  1.2239497604709E+00
62  6.1000000000000E-01 -1.7106670793491E-01  1.2247426871380E+00
63  6.2000000000000E-01 -2.3640245711047E-01  1.2247669044766E+00
64  6.3000000000000E-01 -3.0028712598479E-01  1.2240280288869E+00
65  6.4000000000000E-01 -3.6254475448080E-01  1.2225325694268E+00
66  6.5000000000000E-01 -4.2300779394644E-01  1.2202879240888E+00
67  6.6000000000000E-01 -4.8151761395646E-01  1.2173023740886E+00
68  6.7000000000000E-01 -5.3792496623855E-01  1.2135850761497E+00
69  6.8000000000000E-01 -5.9209040422971E-01  1.2091460527716E+00
70  6.9000000000000E-01 -6.4388465698416E-01  1.2039961804807E+00
71  7.0000000000000E-01 -6.9318895637358E-01  1.1981471760675E+00
72  7.1000000000000E-01 -7.3989531674412E-01  1.1916115808209E+00
73  7.2000000000000E-01 -7.8390676641925E-01  1.1844027427813E+00
74  7.3000000000000E-01 -8.2513753066489E-01  1.1765347970372E+00
75  7.4000000000000E-01 -8.6351316595895E-01  1.1680226441003E+00
76  7.5000000000000E-01 -8.9897064563345E-01  1.1588819264012E+00
77  7.6000000000000E-01 -9.3145839717997E-01  1.1491290029526E+00
78  7.7000000000000E-01 -9.6093629172902E-01  1.1387809222381E+00
79  7.8000000000000E-01 -9.8737558642922E-01  1.1278553933862E+00
80  7.9000000000000E-01 -1.0107588206617E+00  1.1163707557016E+00
81  8.0000000000000E-01 -1.0310796672280E+00  1.1043459466270E+00
82  8.1000000000000E-01 -1.0483427398463E+00  1.0918004682180E+00
83  8.2000000000000E-01 -1.0625633584755E+00  1.0787543522186E+00
84  8.3000000000000E-01 -1.0737672741675E+00  1.0652281238293E+00
85  8.4000000000000E-01 -1.0819903553126E+00  1.0512427642669E+00
86  8.5000000000000E-01 -1.0872782373002E+00  1.0368196722180E+00
87  8.6000000000000E-01 -1.0896859377623E+00  1.0219806242928E+00
88  8.7000000000000E-01 -1.0892774396987E+00  1.0067477345911E+00
89  8.8000000000000E-01 -1.0861252449011E+00  9.9114341349476E-01
90  8.9000000000000E-01 -1.0803099002017E+00  9.7519032580299E-01
91  9.0000000000000E-01 -1.0719194991601E+00  9.5891134833197E-01
92  9.1000000000000E-01 -1.0610491618838E+00  9.4232952709988E-01
93  9.2000000000000E-01 -1.0478004957359E+00  9.2546803422145E-01
94  9.3000000000000E-01 -1.0322810397373E+00  9.0835012463678E-01
95  9.4000000000000E-01 -1.0146036954993E+00  8.9099909279985E-01
96  9.5000000000000E-01 -9.9488614754398E-01  8.7343822945229E-01
97  9.6000000000000E-01 -9.7325027587247E-01  8.5569077860763E-01
98  9.7000000000000E-01 -9.4982156363166E-01  8.3777989487020E-01
99  9.8000000000000E-01 -9.2472850270253E-01  8.1972860121180E-01
100  9.9000000000000E-01 -8.9810199999622E-01  8.0155974732713E-01
101  1.0000000000000E+00 -8.7007478718980E-01  7.8329596868674E-01
102  1.0100000000000E+00 -8.4078083656772E-01  7.6495964640361E-01
103  1.0200000000000E+00 -8.1035478555592E-01  7.4657286802598E-01
104  1.0300000000000E+00 -7.7893137244462E-01  7.2815738936570E-01
105  1.0400000000000E+00 -7.4664488569286E-01  7.0973459746697E-01
106  1.0500000000000E+00 -7.1362862909496E-01  6.9132547481618E-01
107  1.0600000000000E+00 -6.8001440496526E-01  6.7295056488849E-01
108  1.0700000000000E+00 -6.4593201736524E-01  6.5462993912171E-01
109  1.0800000000000E+00 -6.1150879725627E-01  6.3638316540245E-01
110  1.0900000000000E+00 -5.7686915131261E-01  6.1822927814382E-01
111  1.1000000000000E+00 -5.4213413597509E-01  6.0018675002771E-01
112  1.1100000000000E+00 -5.0742105816500E-01  5.8227346547844E-01
113  1.1200000000000E+00 -4.7284310391334E-01  5.6450669592800E-01
114  1.1300000000000E+00 -4.3850899599180E-01  5.4690307692637E-01
115  1.1400000000000E+00 -4.0452268146124E-01  5.2947858714350E-01
116  1.1500000000000E+00 -3.7098304988037E-01  5.1224852930259E-01
117  1.1600000000000E+00 -3.3798368274489E-01  4.9522751307699E-01
118  1.1700000000000E+00 -3.0561263455378E-01  4.7842943997629E-01
119  1.1800000000000E+00 -2.7395224572911E-01  4.6186749023947E-01
120  1.1900000000000E+00 -2.4307898744564E-01  4.4555411174617E-01
121  1.2000000000000E+00 -2.1306333826168E-01  4.2950101094995E-01
122  1.2100000000000E+00 -1.8396969228030E-01  4.1371914582994E-01
123  1.2200000000000E+00 -1.5585629841350E-01  3.9821872085099E-01
124  1.2300000000000E+00 -1.2877523017136E-01  3.8300918391474E-01
125  1.2400000000000E+00 -1.0277238525286E-01  3.6809922527808E-01
126  1.2500000000000E+00 -7.7887514078832E-02  3.5349677840836E-01
127  1.2600000000000E+00 -5.4154276277367E-02  3.3920902273875E-01
128  1.2700000000000E+00 -3.1600324011177E-02  3.2524238828082E-01
129  1.2800000000000E+00 -1.0247410924735E-02  3.1160256204578E-01
130  1.2900000000000E+00  9.8884746141242E-03  2.9829449622018E-01
131  1.3000000000000E+00  2.8796953395972E-02  2.8532241803644E-01
132  1.3100000000000E+00  4.6473077875459E-02  2.7268984127402E-01
133  1.3200000000000E+00  6.2917134873879E-02  2.6039957932212E-01
134  1.3300000000000E+00  7.8134430113315E-02  2.4845375973065E-01
135  1.3400000000000E+00  9.2135056268120E-02  2.3685384017233E-01
136  1.3500000000000E+00  1.0493364625979E-01  2.2560062573540E-01
137  1.3600000000000E+00  1.1654911355102E-01  2.1469428746297E-01
138  1.3700000000000E+00  1.2700438121364E-01  2.0413438205271E-01
139  1.3800000000000E+00  1.3632610155362E-01  1.9391987262795E-01
140  1.3900000000000E+00  1.4454436807463E-01  1.8404915048946E-01
141  1.4000000000000E+00  1.5169242154980E-01  1.7452005775572E-01
142  1.4100000000000E+00  1.5780635194989E-01  1.6532991079823E-01
143  1.4200000000000E+00  1.6292479794520E-01  1.5647552437776E-01
144  1.4300000000000E+00  1.6708864565899E-01  1.4795323638726E-01
145  1.4400000000000E+00  1.7034072830213E-01  1.3975893310699E-01
146  1.4500000000000E+00  1.7272552826254E-01  1.3188807487807E-01
147  1.4600000000000E+00  1.7428888315975E-01  1.2433572210153E-01
148  1.4700000000000E+00  1.7507769730482E-01  1.1709656147088E-01
149  1.4800000000000E+00  1.7513965992945E-01  1.1016493234816E-01
150  1.4900000000000E+00  1.7452297146649E-01  1.0353485319505E-01
151  1.5000000000000E+00  1.7327607907720E-01  9.7200047972962E-02
152  1.5100000000000E+00  1.7144742252958E-01  9.1153972428482E-02
153  1.5200000000000E+00  1.6908519143793E-01  8.5389840183523E-02
154  1.5300000000000E+00  1.6623709477601E-01  7.9900648552430E-02
155  1.5400000000000E+00  1.6295014347700E-01  7.4679204011765E-02
156  1.5500000000000E+00  1.5927044683186E-01  6.9718147252016E-02
157  1.5600000000000E+00  1.5524302329612E-01  6.5009977744248E-02
158  1.5700000000000E+00  1.5091162621251E-01  6.0547077758710E-02
159  1.5800000000000E+00  1.4631858485504E-01  5.6321735776512E-02
160  1.5900000000000E+00  1.4150466109932E-01  5.2326169239765E-02
161  1.6000000000000E+00  1.3650892192427E-01  4.8552546589970E-02
162  1.6100000000000E+00  1.3136862785328E-01  4.4993008548929E-02
163  1.6200000000000E+00  1.2611913734803E-01  4.1639688600981E-02
164  1.6300000000000E+00  1.2079382707679E-01  3.8484732640004E-02
165  1.6400000000000E+00  1.1542402789066E-01  3.5520317749218E-02
166  1.6500000000000E+00  1.1003897625722E-01  3.2738670086493E-02
167  1.6600000000000E+00  1.0466578082131E-01  3.0132081852439E-02
168  1.6700000000000E+00  9.9329403687188E-02  2.7692927323168E-02
169  1.6800000000000E+00  9.4052655946261E-02  2.5413677934105E-02
170  1.6900000000000E+00  8.8856206909205E-02  2.3286916405658E-02
171  1.7000000000000E+00  8.3758606441619E-02  2.1305349905914E-02
172  1.7100000000000E+00  7.8776319747950E-02  1.9461822249707E-02
173  1.7200000000000E+00  7.3923773899731E-02  1.7749325137494E-02
174  1.7300000000000E+00  6.9213415361153E-02  1.6161008441433E-02
175  1.7400000000000E+00  6.4655777727686E-02  1.4690189549736E-02
176  1.7500000000000E+00  6.0259558861840E-02  1.3330361784035E-02
177  1.7600000000000E+00  5.6031706584273E-02  1.2075201907816E-02
178  1.7700000000000E+00  5.1977512058063E-02  1.0918576747173E-02
179  1.7800000000000E+00  4.8100709989187E-02  9.8545489480949E-03
180  1.7900000000000E+00  4.4403584756682E-02  8.8773818972116E-03
181  1.8000000000000E+00  4.0887081581679E-02  7.9815438354438E-03
182  1.8100000000000E+00  3.7550921845234E-02  7.1617111962300E-03
183  1.8200000000000E+00  3.4393721670128E-02  6.4127712020356E-03
184  1.8300000000000E+00  3.1413112892092E-02  5.7298237545919E-03
185  1.8400000000000E+00  2.8605865559891E-02  5.1081826558122E-03
186  1.8500000000000E+00  2.5968011122234E-02  4.5433761976193E-03
187  1.8600000000000E+00  2.3494965481433E-02  4.0311471598487E-03
188  1.8700000000000E+00  2.1181651119270E-02  3.5674522561938E-03
189  1.8800000000000E+00  1.9022617529234E-02  3.1484610686142E-03
190  1.8900000000000E+00  1.7012159220939E-02  2.7705545108615E-03
191  1.9000000000000E+00  1.5144430596668E-02  2.4303228618101E-03
192  1.9100000000000E+00  1.3413557036445E-02  2.1245634089820E-03
193  1.9200000000000E+00  1.1813741566995E-02  1.8502777422142E-03
194  1.9300000000000E+00  1.0339366697985E-02  1.6046687367504E-03
195  1.9400000000000E+00  8.9850907369381E-03  1.3851372629479E-03
196  1.9500000000000E+00  7.7459304217686E-03  1.1892786653960E-03
197  1.9600000000000E+00  6.6173754354040E-03  1.0148792872224E-03
198  1.9700000000000E+00  5.5953174241016E-03  8.5991116090000E-04
199  1.9800000000000E+00  4.6756706332977E-03  7.2253055672062E-04
200  1.9900000000000E+00  3.8540743813827E-03  6.0107717110928E-04
201  2.0000000000000E+00  3.1260511646218E-03  4.9401821721746E-04
202  2.0100000000000E+00  2.4876803016292E-03  3.9959264092528E-04
203  2.0200000000000E+00  1.9346168469155E-03  3.1648224803044E-04
204  2.0300000000000E+00  1.4617186136615E-03  2.4404866250151E-04
205  2.0400000000000E+00  1.0640494010182E-03  1.8168953375092E-04
206  2.0500000000000E+00  7.3679890798214E-04  1.2893131592833E-04
207  2.0600000000000E+00  4.7534444498330E-04  8.5413893372305E-05
208  2.0700000000000E+00  2.7533995959096E-04  5.0906281525322E-05
209  2.0800000000000E+00  1.3227817929192E-04  2.5208350795729E-05
210  2.0900000000000E+00  4.2699238329229E-05  8.4055892659570E-06
211  2.1000000000000E+00  4.5273923435797E-06  9.3161268462876E-07
212  2.1100000000000E+00 -1.6288376388071E-06 -3.3495037485908E-07
213  2.1200000000000E+00  4.7508573889096E-07  9.5936157417365E-08
214  2.13 -0. -0.
215  2.14 -0. -0.
216  2.15  0. -0.
217  2.16  0.  0.
218  2.17  0.  0.
219  2.18  0.  0.
220  2.19  0.  0.
221  2.20  0.  0.
222  2.21  0.  0.
223  2.22  0.  0.
224  2.23  0.  0.
225  2.24  0.  0.
226  2.25  0.  0.
227  2.26  0.  0.
228  2.27  0.  0.
229  2.28  0.  0.
230  2.29  0.  0.
231  2.30  0.  0.
232  2.31  0.  0.
233  2.32  0.  0.
234  2.33  0.  0.
235  2.34  0.  0.
236  2.35  0.  0.
237  2.36  0.  0.
238  2.37  0.  0.
239  2.38  0.  0.
240  2.39  0.  0.
241  2.40  0.  0.
242  2.41  0.  0.
243  2.42  0.  0.
244  2.43  0.  0.
245  2.44  0.  0.
246  2.45  0.  0.
247  2.46  0.  0.
248  2.47  0.  0.
249  2.48  0.  0.
250  2.49  0.  0.
251  2.50  0.  0.
252  2.51  0.  0.
253  2.52  0.  0.
254  2.53  0.  0.
255  2.54  0.  0.
256  2.55  0.  0.
257  2.56  0.  0.
258  2.57  0.  0.
259  2.58  0.  0.
260  2.59  0.  0.
261  2.60  0.  0.
262  2.61  0.  0.
263  2.62  0.  0.
264  2.63  0.  0.
265  2.64  0.  0.
266  2.65  0.  0.
267  2.66  0.  0.
268  2.67  0.  0.
269  2.68  0.  0.
270  2.69  0.  0.
271  2.70  0.  0.
272  2.71  0.  0.
273  2.72  0.  0.
274  2.73  0.  0.
275  2.74  0.  0.
276  2.75  0.  0.
277  2.76  0.  0.
278  2.77  0.  0.
279  2.78  0.  0.
280  2.79  0.  0.
281  2.80  0.  0.
282  2.81  0.  0.
283  2.82  0.  0.
284  2.83  0.  0.
285  2.84  0.  0.
286  2.85  0.  0.
287  2.86  0.  0.
288  2.87  0.  0.
289  2.88  0.  0.
290  2.89  0.  0.
291  2.90  0.  0.
292  2.91  0.  0.
293  2.92  0.  0.
294  2.93  0.  0.
295  2.94  0.  0.
296  2.95  0.  0.
297  2.96  0.  0.
298  2.97  0.  0.
299  2.98  0.  0.
300  2.99  0.  0.
301  3.00  0.  0.
302  3.01  0.  0.
303  3.02  0.  0.
304  3.03  0.  0.
305  3.04  0.  0.
306  3.05  0.  0.
307  3.06  0.  0.
308  3.07  0.  0.
309  3.08  0.  0.
310  3.09  0.  0.
311  3.10  0.  0.
312  3.11  0.  0.
313  3.12  0.  0.
314  3.13  0.  0.
315  3.14  0.  0.
316  3.15  0.  0.
317  3.16  0.  0.
318  3.17  0.  0.
319  3.18  0.  0.
320  3.19  0.  0.
321  3.20  0.  0.
322  3.21  0.  0.
323  3.22  0.  0.
324  3.23  0.  0.
325  3.24  0.  0.
326  3.25  0.  0.
327  3.26  0.  0.
328  3.27  0.  0.
329  3.28  0.  0.
330  3.29  0.  0.
331  3.30  0.  0.
332  3.31  0.  0.
333  3.32  0.  0.
334  3.33  0.  0.
335  3.34  0.  0.
336  3.35  0.  0.
337  3.36  0.  0.
338  3.37  0.  0.
339  3.38  0.  0.
340  3.39  0.  0.
341  3.40  0.  0.
342  3.41  0.  0.
343  3.42  0.  0.
344  3.43  0.  0.
345  3.44  0.  0.
346  3.45  0.  0.
347  3.46  0.  0.
348  3.47  0.  0.
349  3.48  0.  0.
350  3.49  0.  0.
351  3.50  0.  0.
352  3.51  0.  0.
353  3.52  0.  0.
354  3.53  0.  0.
355  3.54  0.  0.
356  3.55  0.  0.
357  3.56  0.  0.
358  3.57  0.  0.
359  3.58  0.  0.
360  3.59  0.  0.
361  3.60  0.  0.
362  3.61  0.  0.
363  3.62  0.  0.
364  3.63  0.  0.
365  3.64  0.  0.
366  3.65  0.  0.
367  3.66  0.  0.
368  3.67  0.  0.
369  3.68  0.  0.
370  3.69  0.  0.
371  3.70  0.  0.
372  3.71  0.  0.
373  3.72  0.  0.
374  3.73  0.  0.
375  3.74  0.  0.
376  3.75  0.  0.
377  3.76  0.  0.
378  3.77  0.  0.
379  3.78  0.  0.
380  3.79  0.  0.
381  3.80  0.  0.
382  3.81  0.  0.
383  3.82  0.  0.
384  3.83  0.  0.
385  3.84  0.  0.
386  3.85  0.  0.
387  3.86  0.  0.
388  3.87  0.  0.
389  3.88  0.  0.
390  3.89  0.  0.
391  3.90  0.  0.
392  3.91  0.  0.
393  3.92  0.  0.
394  3.93  0.  0.
395  3.94  0.  0.
396  3.95  0.  0.
397  3.96  0.  0.
398  3.97  0.  0.
399  3.98  0.  0.
400  3.99  0.  0.
401  4.00  0.  0.
402  4.01  0.  0.
403  4.02  0.  0.
404  4.03  0.  0.
405  4.04  0.  0.
406  4.05  0.  0.
407  4.06  0.  0.
408  4.07  0.  0.
409  4.08  0.  0.
410  4.09  0.  0.
411  4.10  0.  0.
412  4.11  0.  0.
413  4.12  0.  0.
414  4.13  0.  0.
415  4.14  0.  0.
416  4.15  0.  0.
417  4.16  0.  0.
418  4.17  0.  0.
419  4.18  0.  0.
420  4.19  0.  0.
421  4.20  0.  0.
422  4.21  0.  0.
423  4.22  0.  0.
424  4.23  0.  0.
425  4.24  0.  0.
426  4.25  0.  0.
427  4.26  0.  0.
428  4.27  0.  0.
429  4.28  0.  0.
430  4.29  0.  0.
431  4.30  0.  0.
432  4.31  0.  0.
433  4.32  0.  0.
434  4.33  0.  0.
435  4.34  0.  0.
436  4.35  0.  0.
437  4.36  0.  0.
438  4.37  0.  0.
439  4.38  0.  0.
440  4.39  0.  0.
441  4.40  0.  0.
442  4.41  0.  0.
443  4.42  0.  0.
444  4.43  0.  0.
445  4.44  0.  0.
446  4.45  0.  0.
447  4.46  0.  0.
448  4.47  0.  0.
449  4.48  0.  0.
450  4.49  0.  0.
451  4.50  0.  0.
452  4.51  0.  0.
453  4.52  0.  0.
454  4.53  0.  0.
455  4.54  0.  0.
456  4.55  0.  0.
457  4.56  0.  0.
458  4.57  0.  0.
459  4.58  0.  0.
460  4.59  0.  0.
461  4.60  0.  0.
462  4.61  0.  0.
463  4.62  0.  0.
464  4.63  0.  0.
465  4.64  0.  0.
466  4.65  0.  0.
467  4.66  0.  0.
468  4.67  0.  0.
469  4.68  0.  0.
470  4.69  0.  0.
471  4.70  0.  0.
472  4.71  0.  0.
473  4.72  0.  0.
474  4.73  0.  0.
475  4.74  0.  0.
476  4.75  0.  0.
477  4.76  0.  0.
478  4.77  0.  0.
479  4.78  0.  0.
480  4.79  0.  0.
481  4.80  0.  0.
482  4.81  0.  0.
483  4.82  0.  0.
484  4.83  0.  0.
485  4.84  0.  0.
486  4.85  0.  0.
487  4.86  0.  0.
488  4.87  0.  0.
489  4.88  0.  0.
490  4.89  0.  0.
491  4.90  0.  0.
492  4.91  0.  0.
493  4.92  0.  0.
494  4.93  0.  0.
495  4.94  0.  0.
496  4.95  0.  0.
497  4.96  0.  0.
498  4.97  0.  0.
499  4.98  0.  0.
500  4.99  0.  0.
501  5.00  0.  0.
502  5.01  0.  0.
503  5.02  0.  0.
504  5.03  0.  0.
505  5.04  0.  0.
506  5.05  0.  0.
507  5.06  0.  0.
508  5.07  0.  0.
509  5.08  0.  0.
510  5.09  0.  0.
511  5.10  0.  0.
512  5.11  0.  0.
513  5.12  0.  0.
514  5.13  0.  0.
515  5.14  0.  0.
516  5.15  0.  0.
517  5.16  0.  0.
518  5.17  0.  0.
519  5.18  0.  0.
520  5.19  0.  0.
521  5.20  0.  0.
522  5.21  0.  0.
523  5.22  0.  0.
524  5.23  0.  0.
525  5.24  0.  0.
526  5.25  0.  0.
527  5.26  0.  0.
528  5.27  0.  0.
529  5.28  0.  0.
530  5.29  0.  0.
531  5.30  0.  0.
532  5.31  0.  0.
533  5.32  0.  0.
534  5.33  0.  0.
535  5.34  0.  0.
536  5.35  0.  0.
537  5.36  0.  0.
538  5.37  0.  0.
539  5.38  0.  0.
540  5.39  0.  0.
541  5.40  0.  0.
542  5.41  0.  0.
543  5.42  0.  0.
544  5.43  0.  0.
545  5.44  0.  0.
546  5.45  0.  0.
547  5.46  0.  0.
548  5.47  0.  0.
549  5.48  0.  0.
550  5.49  0.  0.
551  5.50  0.  0.
552  5.51  0.  0.
553  5.52  0.  0.
554  5.53  0.  0.
555  5.54  0.  0.
556  5.55  0.  0.
557  5.56  0.  0.
558  5.57  0.  0.
559  5.58  0.  0.
560  5.59  0.  0.
561  5.60  0.  0.
562  5.61  0.  0.
563  5.62  0.  0.
564  5.63  0.  0.
565  5.64  0.  0.
566  5.65  0.  0.
567  5.66  0.  0.
568  5.67  0.  0.
569  5.68  0.  0.
570  5.69  0.  0.
571  5.70  0.  0.
572  5.71  0.  0.
573  5.72  0.  0.
574  5.73  0.  0.
575  5.74  0.  0.
576  5.75  0.  0.
577  5.76  0.  0.
578  5.77  0.  0.
579  5.78  0.  0.
580  5.79  0.  0.
581  5.80  0.  0.
582  5.81  0.  0.
583  5.82  0.  0.
584  5.83  0.  0.
585  5.84  0.  0.
586  5.85  0.  0.
587  5.86  0.  0.
588  5.87  0.  0.
589  5.88  0.  0.
590  5.89  0.  0.
591  5.90  0.  0.
592  5.91  0.  0.
593  5.92  0.  0.
594  5.93  0.  0.
595  5.94  0.  0.
596  5.95  0.  0.
597  5.96  0.  0.
598  5.97  0.  0.
599  5.98  0.  0.
600  5.99  0.  0.
1                         3.5781755892733E+00 -1.6711644403499E+00
1  0.0000000000000E+00  4.2845303693806E-10 -1.2292371981415E-11
2  1.0000000000000E-02  1.8950501848631E-03  3.4323053227206E-04
3  2.0000000000000E-02  7.5709274239755E-03  1.3727382356015E-03
4  3.0000000000000E-02  1.6999856436672E-02  3.0879704465749E-03
5  4.0000000000000E-02  3.0135693751202E-02  5.4880027892631E-03
6  5.0000000000000E-02  4.6914149918416E-02  8.5715342919906E-03
7  6.0000000000000E-02  6.7253099054356E-02  1.2336880594953E-02
8  7.0000000000000E-02  9.1052974164614E-02  1.6781965292619E-02
9  8.0000000000000E-02  1.1819724627491E-01  2.1904309467143E-02
10  9.0000000000000E-02  1.4855298497382E-01  2.7701019481036E-02
11  1.0000000000000E-01  1.8197149756729E-01  3.4168773109172E-02
12  1.1000000000000E-01  2.1828904365262E-01  4.1303804101643E-02
13  1.2000000000000E-01  2.5732762154384E-01  4.9101885280143E-02
14  1.3000000000000E-01  2.9889582262259E-01  5.7558310281295E-02
15  1.4000000000000E-01  3.4278974935147E-01  6.6667874070565E-02
16  1.5000000000000E-01  3.8879399237041E-01  7.6424852360275E-02
17  1.6000000000000E-01  4.3668266180467E-01  8.6822980074424E-02
18  1.7000000000000E-01  4.8622046764510E-01  9.7855429011767E-02
19  1.8000000000000E-01  5.3716384382006E-01  1.0951478486664E-01
20  1.9000000000000E-01  5.8926211036456E-01  1.2179302377442E-01
21  2.0000000000000E-01  6.4225866790694E-01  1.3468148855533E-01
22  2.1000000000000E-01  6.9589221853765E-01  1.4817086483616E-01
23  2.2000000000000E-01  7.4989800699963E-01  1.6225115723471E-01
24  2.3000000000000E-01  8.0400907604552E-01  1.7691166579644E-01
25  2.4000000000000E-01  8.5795752974415E-01  1.9214096287593E-01
26  2.5000000000000E-01  9.1147579848844E-01  2.0792687065909E-01
27  2.6000000000000E-01  9.6429789945796E-01  2.2425643952328E-01
28  2.7000000000000E-01  1.0161606863229E+00  2.4111592743404E-01
29  2.8000000000000E-01  1.0668050820419E+00  2.5849078057675E-01
30  2.9000000000000E-01  1.1159772887030E+00  2.7636561542070E-01
31  3.0000000000000E-01  1.1634299684851E+00  2.9472420241133E-01
32  3.1000000000000E-01  1.2089233899769E+00  3.1354945148328E-01
33  3.2000000000000E-01  1.2522265342772E+00  3.3282339958326E-01
34  3.3000000000000E-01  1.2931181555186E+00  3.5252720038678E-01
35  3.4000000000000E-01  1.3313877907011E+00  3.7264111638708E-01
36  3.5000000000000E-01  1.3668367139930E+00  3.9314451352766E-01
37  3.6000000000000E-01  1.3992788309512E+00  4.1401585854230E-01
38  3.7000000000000E-01  1.4285415084345E+00  4.3523271915736E-01
39  3.8000000000000E-01  1.4544663363213E+00  4.5677176730198E-01
40  3.9000000000000E-01  1.4769098175062E+00  4.7860878546069E-01
41  4.0000000000000E-01  1.4957439830261E+00  5.0071867629190E-01
42  4.1000000000000E-01  1.5108569295630E+00  5.2307547562318E-01
43  4.2000000000000E-01  1.5221532769759E+00  5.4565236892107E-01
44  4.3000000000000E-01  1.5295545439375E+00  5.6842171131943E-01
45  4.4000000000000E-01  1.5329994401751E+00  5.9135505127534E-01
46  4.5000000000000E-01  1.5324440742578E+00  6.1442315790652E-01
47  4.6000000000000E-01  1.5278620763043E+00  6.3759605204789E-01
48  4.7000000000000E-01  1.5192446354369E+00  6.6084304104878E-01
49  4.8000000000000E-01  1.5066004522423E+00  6.8413275731463E-01
50  4.9000000000000E-01  1.4899556069450E+00  7.0743320058010E-01
51  5.0000000000000E-01  1.4693533444305E+00  7.3071178388214E-01
52  5.1000000000000E-01  1.4448537776858E+00  7.5393538318369E-01
53  5.2000000000000E-01  1.4165335116400E+00  7.7707039058012E-01
54  5.3000000000000E-01  1.3844851897951E+00  8.0008277100214E-01
55  5.4000000000000E-01  1.3488169664281E+00  8.2293812231027E-01
56  5.5000000000000E-01  1.3096519075199E+00  8.4560173865731E-01
57  5.6000000000000E-01  1.2671273239251E+00  8.6803867697728E-01
58  5.7000000000000E-01  1.2213940406305E+00  8.9021382644069E-01
59  5.8000000000000E-01  1.1726156062649E+00  9.1209198069850E-01
60  5.9000000000000E-01  1.1209674473141E+00  9.3363791271953E-01
61  6.0000000000000E-01  1.0666359717572E+00  9.5481645200951E-01
62  6.1000000000000E-01  1.0098176270787E+00  9.7559256398316E-01
63  6.2000000000000E-01  9.5071791782015E-01  9.9593143124582E-01
64  6.3000000000000E-01  8.8955038801440E-01  1.0157985365257E+00
65  6.4000000000000E-01  8.2653557399425E-01  1.0351597469846E+00
66  6.5000000000000E-01  7.6189993318706E-01  1.0539813996211E+00
67  6.6000000000000E-01  6.9587475459190E-01  1.0722303874701E+00
68  6.7000000000000E-01  6.2869505669107E-01  1.0898742462901E+00
69  6.8000000000000E-01  5.6059847856994E-01  1.1068812414203E+00
70  6.9000000000000E-01  4.9182417000885E-01  1.1232204544842E+00
71  7.0000000000000E-01  4.2261168626866E-01  1.1388618696052E+00
72  7.1000000000000E-01  3.5319989321775E-01  1.1537764587978E+00
73  7.2000000000000E-01  2.8382588834309E-01  1.1679362661935E+00
74  7.3000000000000E-01  2.1472394305245E-01  1.1813144907570E+00
75  7.4000000000000E-01  1.4612447150997E-01  1.1938855671482E+00
76  7.5000000000000E-01  7.8253031053931E-02  1.2056252443878E+00
77  7.6000000000000E-01  1.1329359025038E-02  1.2165106619848E+00
78  7.7000000000000E-01 -5.4433549412556E-02  1.2265204231897E+00
79  7.8000000000000E-01 -1.1883031814541E-01  1.2356346650425E+00
80  7.9000000000000E-01 -1.8166401766059E-01  1.2438351248933E+00
81  8.0000000000000E-01 -2.4274693956446E-01  1.2511052030812E+00
82  8.1000000000000E-01 -3.0190131469553E-01  1.2574300214697E+00
83  8.2000000000000E-01 -3.5895997180385E-01  1.2627964775473E+00
84  8.3000000000000E-01 -4.1376693413177E-01  1.2671932938191E+00
85  8.4000000000000E-01 -4.6617795160479E-01  1.2706110622277E+00
86  8.5000000000000E-01 -5.1606096672468E-01  1.2730422833630E+00
87  8.6000000000000E-01 -5.6329651264786E-01  1.2744814002338E+00
88  8.7000000000000E-01 -6.0777804232755E-01  1.2749248264007E+00
89  8.8000000000000E-01 -6.4941218799634E-01  1.2743709682845E+00
90  8.9000000000000E-01 -6.8811895066330E-01  1.2728202414927E+00
91  9.0000000000000E-01 -7.2383181969561E-01  1.2702750810265E+00
92  9.1000000000000E-01 -7.5649782294483E-01  1.2667399452568E+00
93  9.2000000000000E-01 -7.8607750826140E-01  1.2622213135828E+00
94  9.3000000000000E-01 -8.1254485761491E-01  1.2567276777143E+00
95  9.4000000000000E-01 -8.3588713539928E-01  1.2502695265433E+00
96  9.5000000000000E-01 -8.5610467285112E-01  1.2428593246009E+00
97  9.6000000000000E-01 -8.7321059084103E-01  1.2345114841200E+00
98  9.7000000000000E-01 -8.8723046361335E-01  1.2252423307549E+00
99  9.8000000000000E-01 -8.9820192634415E-01  1.2150700630366E+00
100  9.9000000000000E-01 -9.0617422966238E-01  1.2040147056678E+00
101  1.0000000000000E+00 -9.1120774452987E-01  1.1920980567942E+00
102  1.0100000000000E+00 -9.1337342110429E-01  1.1793436294110E+00
103  1.0200000000000E+00 -9.1275220541129E-01  1.1657765870939E+00
104  1.0300000000000E+00 -9.0943441782906E-01  1.1514236742687E+00
105  1.0400000000000E+00 -9.0351909753848E-01  1.1363131412592E+00
106  1.0500000000000E+00 -8.9511331721432E-01  1.1204746643765E+00
107  1.0600000000000E+00 -8.8433147232790E-01  1.1039392613386E+00
108  1.0700000000000E+00 -8.7129454949821E-01  1.0867392023277E+00
109  1.0800000000000E+00 -8.5612937836697E-01  1.0689079170178E+00
110  1.0900000000000E+00 -8.3896787148409E-01  1.0504798979184E+00
111  1.1000000000000E+00 -8.1994625667281E-01  1.0314906004052E+00
112  1.1100000000000E+00 -7.9920430629980E-01  1.0119763398170E+00
113  1.1200000000000E+00 -7.7688456780536E-01  9.9197418601796E-01
114  1.1300000000000E+00 -7.5313159975244E-01  9.7152185583351E-01
115  1.1400000000000E+00 -7.2809121753331E-01  9.5065760377915E-01
116  1.1500000000000E+00 -7.0190975272805E-01  9.2942011150995E-01
117  1.1600000000000E+00 -6.7473332994420E-01  9.0784837642415E-01
118  1.1700000000000E+00 -6.4670716477894E-01  8.8598159985860E-01
119  1.1800000000000E+00 -6.1797488634125E-01  8.6385907531539E-01
120  1.1900000000000E+00 -5.8867788754675E-01  8.4152007715861E-01
121  1.2000000000000E+00 -5.5895470616087E-01  8.1900375021770E-01
122  1.2100000000000E+00 -5.2894043931228E-01  7.9634900072900E-01
123  1.2200000000000E+00 -4.9876619393497E-01  7.7359438904016E-01
124  1.2300000000000E+00 -4.6855857532292E-01  7.5077802449312E-01
125  1.2400000000000E+00 -4.3843921569851E-01  7.2793746288992E-01
126  1.2500000000000E+00 -4.0852434440865E-01  7.0510960693272E-01
127  1.2600000000000E+00 -3.7892440106955E-01  6.8233061001411E-01