Ts    ONCVPSP-4.0.1  r_core=   1.60713   1.60713   1.80058   1.60713
117.0000     25.0000      220208    zatom,zion,pspd
8      11   3     4   600     0    pspcod,pspxc,lmax,lloc,mmax,r2well
5.99000000  5.00000000  0.00000000    rchrg fchrg qchrg
2     4     3     2    nproj
3     1           extension_switch
4     4     2    nprojso
0                         7.0623724344671E+00 -7.4442145129771E-01
1  0.0000000000000E+00  3.2630298463232E-10  7.6017429850861E-10
2  1.0000000000000E-02  7.6450392021090E-02  1.3108881712827E-02
3  2.0000000000000E-02  1.5272930543351E-01  2.6251025954980E-02
4  3.0000000000000E-02  2.2866547904915E-01  3.9459039163458E-02
5  4.0000000000000E-02  3.0408809033465E-01  5.2764227231751E-02
6  5.0000000000000E-02  3.7882698418745E-01  6.6195974142724E-02
7  6.0000000000000E-02  4.5271291281341E-01  7.9781154735484E-02
8  7.0000000000000E-02  5.2557779001546E-01  9.3543592074665E-02
9  8.0000000000000E-02  5.9725496287701E-01  1.0750356913036E-01
10  9.0000000000000E-02  6.6757950342602E-01  1.2167740355064E-01
11  1.0000000000000E-01  7.3638852240458E-01  1.3607709323137E-01
12  1.1000000000000E-01  8.0352150675113E-01  1.5071003917818E-01
13  1.2000000000000E-01  8.6882068183738E-01  1.6557885083244E-01
14  1.3000000000000E-01  9.3213139889966E-01  1.8068123761961E-01
15  1.4000000000000E-01  9.9330254747498E-01  1.9600998899741E-01
16  1.5000000000000E-01  1.0521869920060E+00  2.1155304375786E-01
17  1.6000000000000E-01  1.1086420311293E+00  2.2729364779688E-01
18  1.7000000000000E-01  1.1625298775164E+00  2.4321059803299E-01
19  1.8000000000000E-01  1.2137181555126E+00  2.5927856865983E-01
20  1.9000000000000E-01  1.2620804132200E+00  2.7546851447899E-01
21  2.0000000000000E-01  1.3074966451165E+00  2.9174814470612E-01
22  2.1000000000000E-01  1.3498538207941E+00  3.0808245939646E-01
23  2.2000000000000E-01  1.3890464149541E+00  3.2443433951682E-01
24  2.3000000000000E-01  1.4249769334159E+00  3.4076518072012E-01
25  2.4000000000000E-01  1.4575564295952E+00  3.5703556007116E-01
26  2.5000000000000E-01  1.4867050056835E+00  3.7320592434347E-01
27  2.6000000000000E-01  1.5123522926249E+00  3.8923728806826E-01
28  2.7000000000000E-01  1.5344379029446E+00  4.0509192927456E-01
29  2.8000000000000E-01  1.5529118505263E+00  4.2073407082153E-01
30  2.9000000000000E-01  1.5677349315806E+00  4.3613053538908E-01
31  3.0000000000000E-01  1.5788790612752E+00  4.5125136256098E-01
32  3.1000000000000E-01  1.5863275608218E+00  4.6607037700000E-01
33  3.2000000000000E-01  1.5900753902225E+00  4.8056569746829E-01
34  3.3000000000000E-01  1.5901293223669E+00  4.9472017737727E-01
35  3.4000000000000E-01  1.5865080547323E+00  5.0852176864464E-01
36  3.5000000000000E-01  1.5792422555700E+00  5.2196380187405E-01
37  3.6000000000000E-01  1.5683745421444E+00  5.3504517723644E-01
38  3.7000000000000E-01  1.5539593893259E+00  5.4777046189774E-01
39  3.8000000000000E-01  1.5360629676056E+00  5.6014989138225E-01
40  3.9000000000000E-01  1.5147629103947E+00  5.7219927385951E-01
41  4.0000000000000E-01  1.4901480112784E+00  5.8393979796707E-01
42  4.1000000000000E-01  1.4623178527008E+00  5.9539774640677E-01
43  4.2000000000000E-01  1.4313823683515E+00  6.0660411914962E-01
44  4.3000000000000E-01  1.3974613422996E+00  6.1759417162761E-01
45  4.4000000000000E-01  1.3606838486546E+00  6.2840687475351E-01
46  4.5000000000000E-01  1.3211876362223E+00  6.3908430496736E-01
47  4.6000000000000E-01  1.2791184632577E+00  6.4967097373618E-01
48  4.7000000000000E-01  1.2346293879780E+00  6.6021310701226E-01
49  4.8000000000000E-01  1.1878800209878E+00  6.7075788606347E-01
50  4.9000000000000E-01  1.1390357461722E+00  6.8135266181278E-01
51  5.0000000000000E-01  1.0882669169270E+00  6.9204415534754E-01
52  5.1000000000000E-01  1.0357480348129E+00  7.0287765757496E-01
53  5.2000000000000E-01  9.8165691784328E-01  7.1389624109847E-01
54  5.3000000000000E-01  9.2617386563290E-01  7.2513999727085E-01
55  5.4000000000000E-01  8.6948082855672E-01  7.3664531104154E-01
56  5.5000000000000E-01  8.1176058788955E-01  7.4844418566357E-01
57  5.6000000000000E-01  7.5319595362241E-01  7.6056362856758E-01
58  5.7000000000000E-01  6.9396898628729E-01  7.7302510875684E-01
59  5.8000000000000E-01  6.3426024867164E-01  7.8584409494409E-01
60  5.9000000000000E-01  5.7424809277727E-01  7.9902968235553E-01
61  6.0000000000000E-01  5.1410798678222E-01  8.1258431469006E-01
62  6.1000000000000E-01  4.5401188611042E-01  8.2650360616657E-01
63  6.2000000000000E-01  3.9412765201153E-01  8.4077626694429E-01
64  6.3000000000000E-01  3.3461852031598E-01  8.5538413348712E-01
65  6.4000000000000E-01  2.7564262226820E-01  8.7030230369297E-01
66  6.5000000000000E-01  2.1735255856868E-01  8.8549937485031E-01
67  6.6000000000000E-01  1.5989502698472E-01  9.0093778074894E-01
68  6.7000000000000E-01  1.0341050313394E-01  9.1657422258773E-01
69  6.8000000000000E-01  4.8032973315642E-02  9.3236018671906E-01
70  6.9000000000000E-01 -6.1102824234483E-03  9.4824254077580E-01
71  7.0000000000000E-01 -5.8898859441246E-02  9.6416419836754E-01
72  7.1000000000000E-01 -1.1021935289864E-01  9.8006484133335E-01
73  7.2000000000000E-01 -1.5996544093829E-01  9.9588168751994E-01
74  7.3000000000000E-01 -2.0803793060432E-01  1.0115502912358E+00
75  7.4000000000000E-01 -2.5434477080318E-01  1.0270053629295E+00
76  7.5000000000000E-01 -2.9880103685448E-01  1.0421815942649E+00
77  7.6000000000000E-01 -3.4132889133310E-01  1.0570144746284E+00
78  7.7000000000000E-01 -3.8185752595944E-01  1.0714410852046E+00
79  7.8000000000000E-01 -4.2032308925179E-01  1.0854008570990E+00
80  7.9000000000000E-01 -4.5666860451566E-01  1.0988362805682E+00
81  8.0000000000000E-01 -4.9084388251222E-01  1.1116935532266E+00
82  8.1000000000000E-01 -5.2280543282672E-01  1.1239231561232E+00
83  8.2000000000000E-01 -5.5251637755459E-01  1.1354803478157E+00
84  8.3000000000000E-01 -5.7994637044508E-01  1.1463255679763E+00
85  8.4000000000000E-01 -6.0507152410043E-01  1.1564247436353E+00
86  8.5000000000000E-01 -6.2787434723214E-01  1.1657494928778E+00
87  8.6000000000000E-01 -6.4834369333711E-01  1.1742772226156E+00
88  8.7000000000000E-01 -6.6647472148831E-01  1.1819911189498E+00
89  8.8000000000000E-01 -6.8226886924945E-01  1.1888800305665E+00
90  8.9000000000000E-01 -6.9573383703566E-01  1.1949382475574E+00
91  9.0000000000000E-01 -7.0688358256537E-01  1.2001651799720E+00
92  9.1000000000000E-01 -7.1573832339708E-01  1.2045649422788E+00
93  9.2000000000000E-01 -7.2232454493136E-01  1.2081458516854E+00
94  9.3000000000000E-01 -7.2667501069676E-01  1.2109198499257E+00
95  9.4000000000000E-01 -7.2882877124031E-01  1.2129018596250E+00
96  9.5000000000000E-01 -7.2883116752019E-01  1.2141090876833E+00
97  9.6000000000000E-01 -7.2673382435986E-01  1.2145602892360E+00
98  9.7000000000000E-01 -7.2259462927853E-01  1.2142750066504E+00
99  9.8000000000000E-01 -7.1647769186865E-01  1.2132727986686E+00
100  9.9000000000000E-01 -7.0845327885260E-01  1.2115724751984E+00
101  1.0000000000000E+00 -6.9859772002196E-01  1.2091913533841E+00
102  1.0100000000000E+00 -6.8699328044431E-01  1.2061445504328E+00
103  1.0200000000000E+00 -6.7372799461409E-01  1.2024443282516E+00
104  1.0300000000000E+00 -6.5889545862372E-01  1.1980995042506E+00
105  1.0400000000000E+00 -6.4259457693423E-01  1.1931149417042E+00
106  1.0500000000000E+00 -6.2492926092270E-01  1.1874911318534E+00
107  1.0600000000000E+00 -6.0600807707300E-01  1.1812238784795E+00
108  1.0700000000000E+00 -5.8594384344070E-01  1.1743040940251E+00
109  1.0800000000000E+00 -5.6485317385558E-01  1.1667177144882E+00
110  1.0900000000000E+00 -5.4285597021128E-01  1.1584457383087E+00
111  1.1000000000000E+00 -5.2007486411386E-01  1.1494643923394E+00
112  1.1100000000000E+00 -4.9663461011142E-01  1.1397454257614E+00
113  1.1200000000000E+00 -4.7266143367873E-01  1.1292565305327E+00
114  1.1300000000000E+00 -4.4828233807916E-01  1.1179618846509E+00
115  1.1400000000000E+00 -4.2362437514249E-01  1.1058228122423E+00
116  1.1500000000000E+00 -3.9881388587620E-01  1.0927985522623E+00
117  1.1600000000000E+00 -3.7397571764117E-01  1.0788471254808E+00
118  1.1700000000000E+00 -3.4923242536730E-01  1.0639262874302E+00
119  1.1800000000000E+00 -3.2470346493209E-01  1.0479945531870E+00
120  1.1900000000000E+00 -3.0050438737577E-01  1.0310122782378E+00
121  1.2000000000000E+00 -2.7674604305474E-01  1.0129427783059E+00
122  1.2100000000000E+00 -2.5353380514152E-01  9.9375346989079E-01
123  1.2200000000000E+00 -2.3096682204736E-01  9.7341701243878E-01
124  1.2300000000000E+00 -2.0913730837165E-01  9.5191243252103E-01
125  1.2400000000000E+00 -1.8812988386175E-01  9.2922621017582E-01
126  1.2500000000000E+00 -1.6802096960117E-01  9.0535330766660E-01
127  1.2600000000000E+00 -1.4887825022640E-01  8.8029812133253E-01
128  1.2700000000000E+00 -1.3076021041089E-01  8.5407533795703E-01
129  1.2800000000000E+00 -1.1371575315619E-01  8.2671067813633E-01
130  1.2900000000000E+00 -9.7783906591061E-02  7.9824151050222E-01
131  1.3000000000000E+00 -8.2993625022927E-02  7.6871732230244E-01
132  1.3100000000000E+00 -6.9363688919568E-02  7.3820003374893E-01
133  1.3200000000000E+00 -5.6902707327531E-02  7.0676414570131E-01
134  1.3300000000000E+00 -4.5609224987298E-02  6.7449671260127E-01
135  1.3400000000000E+00 -3.5471935092381E-02  6.4149713509383E-01
136  1.3500000000000E+00 -2.6469997281272E-02  6.0787676942178E-01
137  1.3600000000000E+00 -1.8573459062367E-02  5.7375835342748E-01
138  1.3700000000000E+00 -1.1743777482977E-02  5.3927525178107E-01
139  1.3800000000000E+00 -5.9344364760959E-03  5.0457052584810E-01
140  1.3900000000000E+00 -1.0916539777907E-03  4.6979583636100E-01
141  1.4000000000000E+00  2.8448283805960E-03  4.3511018973412E-01
142  1.4100000000000E+00  5.9408814076490E-03  4.0067854139709E-01
143  1.4200000000000E+00  8.2670598337973E-03  3.6667027189954E-01
144  1.4300000000000E+00  9.8976196585163E-03  3.3325755370037E-01
145  1.4400000000000E+00  1.0909492756802E-02  3.0061362848306E-01
146  1.4500000000000E+00  1.1381230866490E-02  2.6891101648254E-01
147  1.4600000000000E+00  1.1391931650376E-02  2.3831968065091E-01
148  1.4700000000000E+00  1.1020159933513E-02  2.0900516950511E-01
149  1.4800000000000E+00  1.0342877447263E-02  1.8112676316769E-01
150  1.4900000000000E+00  9.4343944638351E-03  1.5483564742104E-01
151  1.5000000000000E+00  8.3653578143477E-03  1.3027314795793E-01
152  1.5100000000000E+00  7.2017745861440E-03  1.0756897048457E-01
153  1.5200000000000E+00  6.0041510694386E-03  8.6839835875054E-02
154  1.5300000000000E+00  4.8262930974702E-03  6.8185961069375E-02
155  1.5400000000000E+00  3.7131258937056E-03  5.1679765242133E-02
156  1.5500000000000E+00  2.7046792247754E-03  3.7392349279629E-02
157  1.5600000000000E+00  1.8334309303422E-03  2.5382963760456E-02
158  1.5700000000000E+00  1.1223974145705E-03  1.5689507574892E-02
159  1.5800000000000E+00  5.8512398613622E-04  8.3297903229999E-03
160  1.5900000000000E+00  2.2479757603364E-04  3.2886886737464E-03
161  1.6000000000000E+00  3.8989598065047E-05  5.9288592593826E-04
162  1.6100000000000E+00 -3.0767879657592E-06 -4.8071124404657E-05
163  1.6200000000000E+00  9.2358280240494E-07  1.4215975987964E-05
164  1.63  0.  0.
165  1.64  0.  0.
166  1.65  0.  0.
167  1.66  0.  0.
168  1.67  0.  0.
169  1.68  0.  0.
170  1.69  0.  0.
171  1.70  0.  0.
172  1.71  0.  0.
173  1.72  0.  0.
174  1.73  0.  0.
175  1.74  0.  0.
176  1.75  0.  0.
177  1.76  0.  0.
178  1.77  0.  0.
179  1.78  0.  0.
180  1.79  0.  0.
181  1.80  0.  0.
182  1.81  0.  0.
183  1.82  0.  0.
184  1.83  0.  0.
185  1.84  0.  0.
186  1.85  0.  0.
187  1.86  0.  0.
188  1.87  0.  0.
189  1.88  0.  0.
190  1.89  0.  0.
191  1.90  0.  0.
192  1.91  0.  0.
193  1.92  0.  0.
194  1.93  0.  0.
195  1.94  0.  0.
196  1.95  0.  0.
197  1.96  0.  0.
198  1.97  0.  0.
199  1.98  0.  0.
200  1.99  0.  0.
201  2.00  0.  0.
202  2.01  0.  0.
203  2.02  0.  0.
204  2.03  0.  0.
205  2.04  0.  0.
206  2.05  0.  0.
207  2.06  0.  0.
208  2.07  0.  0.
209  2.08  0.  0.
210  2.09  0.  0.
211  2.10  0.  0.
212  2.11  0.  0.
213  2.12  0.  0.
214  2.13  0.  0.
215  2.14  0.  0.
216  2.15  0.  0.
217  2.16  0.  0.
218  2.17  0.  0.
219  2.18  0.  0.
220  2.19  0.  0.
221  2.20  0.  0.
222  2.21  0.  0.
223  2.22  0.  0.
224  2.23  0.  0.
225  2.24  0.  0.
226  2.25  0.  0.
227  2.26  0.  0.
228  2.27  0.  0.
229  2.28  0.  0.
230  2.29  0.  0.
231  2.30  0.  0.
232  2.31  0.  0.
233  2.32  0.  0.
234  2.33  0.  0.
235  2.34  0.  0.
236  2.35  0.  0.
237  2.36  0.  0.
238  2.37  0.  0.
239  2.38  0.  0.
240  2.39  0.  0.
241  2.40  0.  0.
242  2.41  0.  0.
243  2.42  0.  0.
244  2.43  0.  0.
245  2.44  0.  0.
246  2.45  0.  0.
247  2.46  0.  0.
248  2.47  0.  0.
249  2.48  0.  0.
250  2.49  0.  0.
251  2.50  0.  0.
252  2.51  0.  0.
253  2.52  0.  0.
254  2.53  0.  0.
255  2.54  0.  0.
256  2.55  0.  0.
257  2.56  0.  0.
258  2.57  0.  0.
259  2.58  0.  0.
260  2.59  0.  0.
261  2.60  0.  0.
262  2.61  0.  0.
263  2.62  0.  0.
264  2.63  0.  0.
265  2.64  0.  0.
266  2.65  0.  0.
267  2.66  0.  0.
268  2.67  0.  0.
269  2.68  0.  0.
270  2.69  0.  0.
271  2.70  0.  0.
272  2.71  0.  0.
273  2.72  0.  0.
274  2.73  0.  0.
275  2.74  0.  0.
276  2.75  0.  0.
277  2.76  0.  0.
278  2.77  0.  0.
279  2.78  0.  0.
280  2.79  0.  0.
281  2.80  0.  0.
282  2.81  0.  0.
283  2.82  0.  0.
284  2.83  0.  0.
285  2.84  0.  0.
286  2.85  0.  0.
287  2.86  0.  0.
288  2.87  0.  0.
289  2.88  0.  0.
290  2.89  0.  0.
291  2.90  0.  0.
292  2.91  0.  0.
293  2.92  0.  0.
294  2.93  0.  0.
295  2.94  0.  0.
296  2.95  0.  0.
297  2.96  0.  0.
298  2.97  0.  0.
299  2.98  0.  0.
300  2.99  0.  0.
301  3.00  0.  0.
302  3.01  0.  0.
303  3.02  0.  0.
304  3.03  0.  0.
305  3.04  0.  0.
306  3.05  0.  0.
307  3.06  0.  0.
308  3.07  0.  0.
309  3.08  0.  0.
310  3.09  0.  0.
311  3.10  0.  0.
312  3.11  0.  0.
313  3.12  0.  0.
314  3.13  0.  0.
315  3.14  0.  0.
316  3.15  0.  0.
317  3.16  0.  0.
318  3.17  0.  0.
319  3.18  0.  0.
320  3.19  0.  0.
321  3.20  0.  0.
322  3.21  0.  0.
323  3.22  0.  0.
324  3.23  0.  0.
325  3.24  0.  0.
326  3.25  0.  0.
327  3.26  0.  0.
328  3.27  0.  0.
329  3.28  0.  0.
330  3.29  0.  0.
331  3.30  0.  0.
332  3.31  0.  0.
333  3.32  0.  0.
334  3.33  0.  0.
335  3.34  0.  0.
336  3.35  0.  0.
337  3.36  0.  0.
338  3.37  0.  0.
339  3.38  0.  0.
340  3.39  0.  0.
341  3.40  0.  0.
342  3.41  0.  0.
343  3.42  0.  0.
344  3.43  0.  0.
345  3.44  0.  0.
346  3.45  0.  0.
347  3.46  0.  0.
348  3.47  0.  0.
349  3.48  0.  0.
350  3.49  0.  0.
351  3.50  0.  0.
352  3.51  0.  0.
353  3.52  0.  0.
354  3.53  0.  0.
355  3.54  0.  0.
356  3.55  0.  0.
357  3.56  0.  0.
358  3.57  0.  0.
359  3.58  0.  0.
360  3.59  0.  0.
361  3.60  0.  0.
362  3.61  0.  0.
363  3.62  0.  0.
364  3.63  0.  0.
365  3.64  0.  0.
366  3.65  0.  0.
367  3.66  0.  0.
368  3.67  0.  0.
369  3.68  0.  0.
370  3.69  0.  0.
371  3.70  0.  0.
372  3.71  0.  0.
373  3.72  0.  0.
374  3.73  0.  0.
375  3.74  0.  0.
376  3.75  0.  0.
377  3.76  0.  0.
378  3.77  0.  0.
379  3.78  0.  0.
380  3.79  0.  0.
381  3.80  0.  0.
382  3.81  0.  0.
383  3.82  0.  0.
384  3.83  0.  0.
385  3.84  0.  0.
386  3.85  0.  0.
387  3.86  0.  0.
388  3.87  0.  0.
389  3.88  0.  0.
390  3.89  0.  0.
391  3.90  0.  0.
392  3.91  0.  0.
393  3.92  0.  0.
394  3.93  0.  0.
395  3.94  0.  0.
396  3.95  0.  0.
397  3.96  0.  0.
398  3.97  0.  0.
399  3.98  0.  0.
400  3.99  0.  0.
401  4.00  0.  0.
402  4.01  0.  0.
403  4.02  0.  0.
404  4.03  0.  0.
405  4.04  0.  0.
406  4.05  0.  0.
407  4.06  0.  0.
408  4.07  0.  0.
409  4.08  0.  0.
410  4.09  0.  0.
411  4.10  0.  0.
412  4.11  0.  0.
413  4.12  0.  0.
414  4.13  0.  0.
415  4.14  0.  0.
416  4.15  0.  0.
417  4.16  0.  0.
418  4.17  0.  0.
419  4.18  0.  0.
420  4.19  0.  0.
421  4.20  0.  0.
422  4.21  0.  0.
423  4.22  0.  0.
424  4.23  0.  0.
425  4.24  0.  0.
426  4.25  0.  0.
427  4.26  0.  0.
428  4.27  0.  0.
429  4.28  0.  0.
430  4.29  0.  0.
431  4.30  0.  0.
432  4.31  0.  0.
433  4.32  0.  0.
434  4.33  0.  0.
435  4.34  0.  0.
436  4.35  0.  0.
437  4.36  0.  0.
438  4.37  0.  0.
439  4.38  0.  0.
440  4.39  0.  0.
441  4.40  0.  0.
442  4.41  0.  0.
443  4.42  0.  0.
444  4.43  0.  0.
445  4.44  0.  0.
446  4.45  0.  0.
447  4.46  0.  0.
448  4.47  0.  0.
449  4.48  0.  0.
450  4.49  0.  0.
451  4.50  0.  0.
452  4.51  0.  0.
453  4.52  0.  0.
454  4.53  0.  0.
455  4.54  0.  0.
456  4.55  0.  0.
457  4.56  0.  0.
458  4.57  0.  0.
459  4.58  0.  0.
460  4.59  0.  0.
461  4.60  0.  0.
462  4.61  0.  0.
463  4.62  0.  0.
464  4.63  0.  0.
465  4.64  0.  0.
466  4.65  0.  0.
467  4.66  0.  0.
468  4.67  0.  0.
469  4.68  0.  0.
470  4.69  0.  0.
471  4.70  0.  0.
472  4.71  0.  0.
473  4.72  0.  0.
474  4.73  0.  0.
475  4.74  0.  0.
476  4.75  0.  0.
477  4.76  0.  0.
478  4.77  0.  0.
479  4.78  0.  0.
480  4.79  0.  0.
481  4.80  0.  0.
482  4.81  0.  0.
483  4.82  0.  0.
484  4.83  0.  0.
485  4.84  0.  0.
486  4.85  0.  0.
487  4.86  0.  0.
488  4.87  0.  0.
489  4.88  0.  0.
490  4.89  0.  0.
491  4.90  0.  0.
492  4.91  0.  0.
493  4.92  0.  0.
494  4.93  0.  0.
495  4.94  0.  0.
496  4.95  0.  0.
497  4.96  0.  0.
498  4.97  0.  0.
499  4.98  0.  0.
500  4.99  0.  0.
501  5.00  0.  0.
502  5.01  0.  0.
503  5.02  0.  0.
504  5.03  0.  0.
505  5.04  0.  0.
506  5.05  0.  0.
507  5.06  0.  0.
508  5.07  0.  0.
509  5.08  0.  0.
510  5.09  0.  0.
511  5.10  0.  0.
512  5.11  0.  0.
513  5.12  0.  0.
514  5.13  0.  0.
515  5.14  0.  0.
516  5.15  0.  0.
517  5.16  0.  0.
518  5.17  0.  0.
519  5.18  0.  0.
520  5.19  0.  0.
521  5.20  0.  0.
522  5.21  0.  0.
523  5.22  0.  0.
524  5.23  0.  0.
525  5.24  0.  0.
526  5.25  0.  0.
527  5.26  0.  0.
528  5.27  0.  0.
529  5.28  0.  0.
530  5.29  0.  0.
531  5.30  0.  0.
532  5.31  0.  0.
533  5.32  0.  0.
534  5.33  0.  0.
535  5.34  0.  0.
536  5.35  0.  0.
537  5.36  0.  0.
538  5.37  0.  0.
539  5.38  0.  0.
540  5.39  0.  0.
541  5.40  0.  0.
542  5.41  0.  0.
543  5.42  0.  0.
544  5.43  0.  0.
545  5.44  0.  0.
546  5.45  0.  0.
547  5.46  0.  0.
548  5.47  0.  0.
549  5.48  0.  0.
550  5.49  0.  0.
551  5.50  0.  0.
552  5.51  0.  0.
553  5.52  0.  0.
554  5.53  0.  0.
555  5.54  0.  0.
556  5.55  0.  0.
557  5.56  0.  0.
558  5.57  0.  0.
559  5.58  0.  0.
560  5.59  0.  0.
561  5.60  0.  0.
562  5.61  0.  0.
563  5.62  0.  0.
564  5.63  0.  0.
565  5.64  0.  0.
566  5.65  0.  0.
567  5.66  0.  0.
568  5.67  0.  0.
569  5.68  0.  0.
570  5.69  0.  0.
571  5.70  0.  0.
572  5.71  0.  0.
573  5.72  0.  0.
574  5.73  0.  0.
575  5.74  0.  0.
576  5.75  0.  0.
577  5.76  0.  0.
578  5.77  0.  0.
579  5.78  0.  0.
580  5.79  0.  0.
581  5.80  0.  0.
582  5.81  0.  0.
583  5.82  0.  0.
584  5.83  0.  0.
585  5.84  0.  0.
586  5.85  0.  0.
587  5.86  0.  0.
588  5.87  0.  0.
589  5.88  0.  0.
590  5.89  0.  0.
591  5.90  0.  0.
592  5.91  0.  0.
593  5.92  0.  0.
594  5.93  0.  0.
595  5.94  0.  0.
596  5.95  0.  0.
597  5.96  0.  0.
598  5.97  0.  0.
599  5.98  0.  0.
600  5.99  0.  0.
1                         3.7239644148068E+00 -3.6720906533258E-01 -1.6209046105554E-01  1.8953089907919E-02
1  0.0000000000000E+00  4.1865057254231E-10 -1.5033104335156E-08 -3.7642242829705E-09 -1.2400720200700E-08
2  1.0000000000000E-02  1.4140749804283E-03  4.6329356670937E-06  1.6445010569722E-04 -3.1524884634124E-03
3  2.0000000000000E-02  5.6509321628638E-03  3.4059405238096E-05  6.6049844825112E-04 -1.2575030537225E-02
4  3.0000000000000E-02  1.2694494006797E-02  1.3444696649670E-04  1.4961444760374E-03 -2.8163305938653E-02
5  4.0000000000000E-02  2.2518050157312E-02  3.8136570602318E-04  2.6844074280283E-03 -4.9744939190530E-02
6  5.0000000000000E-02  3.5084384924977E-02  8.7775552587708E-04  4.2428644051259E-03 -7.7081711947630E-02
7  6.0000000000000E-02  5.0345954094168E-02  1.7511418018951E-03  6.1930191680383E-03 -1.0987261039551E-01
8  7.0000000000000E-02  6.8245109429726E-02  3.1501593790025E-03  8.5595167678221E-03 -1.4775765895190E-01
9  8.0000000000000E-02  8.8714368833190E-02  5.2404599020409E-03  1.1369222879436E-02 -1.9032247910000E-01
10  9.0000000000000E-02  1.1167672971519E-01  8.2000909973763E-03  1.4650190075122E-02 -2.3710350089100E-01
11  1.0000000000000E-01  1.3704602280611E-01  1.2214447543037E-02  1.8430536169965E-02 -2.8759374467523E-01
12  1.1000000000000E-01  1.6472730332825E-01  1.7470904955213E-02  2.2737262134528E-02 -3.4124908213273E-01
13  1.2000000000000E-01  1.9461727620388E-01  2.4153251872961E-02  2.7595038846624E-02 -3.9749487883031E-01
14  1.3000000000000E-01  2.2660475177841E-01  3.2436044687667E-02  3.3024993106342E-02 -4.5573291544809E-01
15  1.4000000000000E-01  2.6057112839859E-01  4.2479008926609E-02  3.9043523836396E-02 -5.1534848158183E-01
16  1.5000000000000E-01  2.9639089810412E-01  5.4421612501979E-02  4.5661179220664E-02 -5.7571753469199E-01
17  1.6000000000000E-01  3.3393217166644E-01  6.8377933268276E-02  5.2881624694970E-02 -6.3621381734784E-01
18  1.7000000000000E-01  3.7305721924163E-01  8.4431938231875E-02  6.0700730208320E-02 -6.9621582838763E-01
19  1.8000000000000E-01  4.1362302299108E-01  1.0263328422041E-01  6.9105803046810E-02 -7.5511354792720E-01
20  1.9000000000000E-01  4.5548183816295E-01  1.2299373998456E-01  7.8074989792993E-02 -8.1231482220632E-01
21  2.0000000000000E-01  4.9848175931360E-01  1.4548431775877E-01  8.7576867733219E-02 -8.6725132194293E-01
22  2.1000000000000E-01  5.4246728857739E-01  1.7003318847797E-01  9.7570242285809E-02 -9.1938399701614E-01
23  2.2000000000000E-01  5.8727990315868E-01  1.9652443940383E-01  1.0800416287566E-01 -9.6820796073159E-01
24  2.3000000000000E-01  6.3275861951572E-01  2.2479771615480E-01  1.1881816520820E-01 -1.0132567484401E+00
25  2.4000000000000E-01  6.7874055202481E-01  2.5464877338963E-01  1.2994274318434E-01 -1.0541059076456E+00
26  2.5000000000000E-01  7.2506146424716E-01  2.8583094001288E-01  1.4130004884284E-01 -1.0903758897150E+00
27  2.6000000000000E-01  7.7155631126237E-01  3.1805748611680E-01  1.5280481381443E-01 -1.1217342266351E+00
28  2.7000000000000E-01  8.1805977187390E-01  3.5100486032082E-01  1.6436548092171E-01 -1.1478969896841E+00
29  2.8000000000000E-01  8.6440676982451E-01  3.8431674808641E-01  1.7588552986040E-01 -1.1686295401464E+00
30  2.9000000000000E-01  9.1043298347645E-01  4.1760888434079E-01  1.8726497644653E-01 -1.1837465950261E+00
31  3.0000000000000E-01  9.5597534370469E-01  4.5047453768481E-01  1.9840202080457E-01 -1.1931116428698E+00
32  3.1000000000000E-01  1.0008725200145E+00  4.8249056892073E-01  2.0919481618989E-01 -1.1966357560507E+00
33  3.2000000000000E-01  1.0449653951218E+00  5.1322395391680E-01  2.1954332696451E-01 -1.1942758559735E+00
34  3.3000000000000E-01  1.0880975284201E+00  5.4223865019454E-01  2.2935124164850E-01 -1.1860324964423E+00
35  3.4000000000000E-01  1.1301156088959E+00  5.6910267831242E-01  2.3852790500959E-01 -1.1719472377202E+00
36  3.5000000000000E-01  1.1708698981476E+00  5.9339528331061E-01  2.4699023187827E-01 -1.1520996894581E+00
37  3.6000000000000E-01  1.2102146641960E+00  6.1471403831274E-01  2.5466456481975E-01 -1.1266043045799E+00
38  3.7000000000000E-01  1.2480086067662E+00  6.3268175193965E-01  2.6148843797725E-01 -1.0956070083014E+00
39  3.8000000000000E-01  1.2841152746493E+00  6.4695304350800E-01  2.6741221033138E-01 -1.0592817467083E+00
40  3.9000000000000E-01  1.3184034756357E+00  6.5722045504483E-01  2.7240053328791E-01 -1.0178270377121E+00
41  4.0000000000000E-01  1.3507476793473E+00  6.6321997687057E-01  2.7643361988966E-01 -9.7146260379445E-01
42  4.1000000000000E-01  1.3810284130806E+00  6.6473587375941E-01  2.7950828601047E-01 -9.2042616080715E-01
43  4.2000000000000E-01  1.4091326505245E+00  6.6160471129901E-01  2.8163873757843E-01 -8.6497043033871E-01
44  4.3000000000000E-01  1.4349541929303E+00  6.5371849681161E-01  2.8285708213101E-01 -8.0536043492377E-01
45  4.4000000000000E-01  1.4583940419980E+00  6.4102686579531E-01  2.8321354774839E-01 -7.4187112584976E-01
46  4.5000000000000E-01  1.4793607634115E+00  6.2353826298585E-01  2.8277639756004E-01 -6.7478538269844E-01
47  4.6000000000000E-01  1.4977708396111E+00  6.0132008648130E-01  2.8163153347806E-01 -6.0439241228530E-01
48  4.7000000000000E-01  1.5135490100457E+00  5.7449778354260E-01  2.7988178847815E-01 -5.3098656257466E-01
49  4.8000000000000E-01  1.5266285968072E+00  5.4325290729130E-01  2.7764591251853E-01 -4.5486655471116E-01
50  4.9000000000000E-01  1.5369518132249E+00  5.0782016416588E-01  2.7505726294944E-01 -3.7633512379866E-01
51  5.0000000000000E-01  1.5444700526990E+00  4.6848350226266E-01  2.7226221590975E-01 -2.9569904674636E-01
52  5.1000000000000E-01  1.5491441547871E+00  4.2557131016733E-01  2.6941832062382E-01 -2.1326952367035E-01
53  5.2000000000000E-01  1.5509446453323E+00  3.7945081418768E-01  2.6669222359340E-01 -1.2936286824822E-01
54  5.3000000000000E-01  1.5498519472510E+00  3.3052177864630E-01  2.6425739432554E-01 -4.4301452336590E-02
55  5.4000000000000E-01  1.5458565584813E+00  2.7920962873550E-01  2.6229168835467E-01  4.1585158681759E-02
56  5.5000000000000E-01  1.5389591935398E+00  2.2595812806325E-01  2.6097478681813E-01  1.2795895075562E-01
57  5.6000000000000E-01  1.5291708851516E+00  1.7122175314264E-01  2.6048555465829E-01  2.1447216290458E-01
58  5.7000000000000E-01  1.5165130425062E+00  1.1545791447962E-01  2.6099936158746E-01  3.0076602647259E-01
59  5.8000000000000E-01  1.5010174628537E+00  5.9119178404800E-02  2.6268541121605E-01  3.8646962455701E-01
60  5.9000000000000E-01  1.4827262933967E+00  2.6456452569395E-03  2.6570412417850E-01  4.7119895430224E-01
61  6.0000000000000E-01  1.4616919407425E+00 -5.3542362109840E-02  2.7020462067541E-01  5.5455627272982E-01
62  6.1000000000000E-01  1.4379769255730E+00 -1.0905115026443E-01  2.7632234658480E-01  6.3612980271051E-01
63  6.2000000000000E-01  1.4116536806404E+00 -1.6351990613932E-01  2.8417688519316E-01  7.1549386962134E-01
64  6.3000000000000E-01  1.3828042907228E+00 -2.1662621625465E-01  2.9386999369085E-01  7.9220953123999E-01
65  6.4000000000000E-01  1.3515201737509E+00 -2.6809073698743E-01  3.0548389991123E-01  8.6582575365601E-01
66  6.5000000000000E-01  1.3179017029481E+00 -3.1768091465876E-01  3.1907989043183E-01  9.3588117457380E-01
67  6.6000000000000E-01  1.2820577704987E+00 -3.6521367246686E-01  3.3469721617263E-01  1.0019064825595E+00
68  6.7000000000000E-01  1.2441052939600E+00 -4.1055700146098E-01  3.5235233611176E-01  1.0634274267760E+00
69  6.8000000000000E-01  1.2041686673624E+00 -4.5363041445954E-01  3.7203851378892E-01  1.1199684568262E+00
70  6.9000000000000E-01  1.1623791596667E+00 -4.9440424465467E-01  3.9372577499299E-01  1.1710569767758E+00
71  7.0000000000000E-01  1.1188742639836E+00 -5.3289779417642E-01  4.1736122854616E-01  1.2162281815667E+00
72  7.1000000000000E-01  1.0737970016685E+00 -5.6917636166302E-01  4.4286974552514E-01  1.2550304281843E+00
73  7.2000000000000E-01  1.0272951860867E+00 -6.0334720142282E-01  4.7015498572322E-01  1.2870310784415E+00
74  7.3000000000000E-01  9.7952065148901E-01 -6.3555448961680E-01  4.9910075378102E-01  1.3118227354254E+00
75  7.4000000000000E-01  9.3062845302148E-01 -6.6597339457154E-01  5.2957266131865E-01  1.3290297818444E+00
76  7.5000000000000E-01  8.8077604441443E-01 -6.9480336840526E-01  5.6142006570990E-01  1.3383151160373E+00
77  7.6000000000000E-01  8.3012244034256E-01 -7.2226079519148E-01  5.9447825095758E-01  1.3393869705578E+00
78  7.7000000000000E-01  7.7882737080368E-01 -7.4857114651204E-01  6.2857081156483E-01  1.3320056892976E+00
79  7.8000000000000E-01  7.2705043512835E-01 -7.7396080810788E-01  6.6351219643934E-01  1.3159903323189E+00
80  7.9000000000000E-01  6.7495026339335E-01 -7.9864875113596E-01  6.9911036679842E-01  1.2912249731173E+00
81  8.0000000000000E-01  6.2268369306591E-01 -8.2283822802790E-01  7.3516951982536E-01  1.2576645511163E+00
82  8.1000000000000E-01  5.7040496864823E-01 -8.4670867594997E-01  7.7149282851249E-01  1.2153401429188E+00
83  8.2000000000000E-01  5.1826497192117E-01 -8.7040801025897E-01  8.0788514774608E-01  1.1643635192767E+00
84  8.3000000000000E-01  4.6641049010270E-01 -8.9404548608827E-01  8.4415563725697E-01  1.1049308609269E+00
85  8.4000000000000E-01  4.1498352884173E-01 -9.1768529830728E-01  8.8012025357739E-01  1.0373255153280E+00
86  8.5000000000000E-01  3.6412067646626E-01 -9.4134107865967E-01  9.1560406558417E-01  9.6191968786049E-01
87  8.6000000000000E-01  3.1395252530182E-01 -9.6497143407302E-01  9.5044335153630E-01  8.7917497506058E-01
88  8.7000000000000E-01  2.6460315517909E-01 -9.8847665216557E-01  9.8448743966969E-01  7.8964166378629E-01
89  8.8000000000000E-01  2.1618968346944E-01 -1.0116966791567E+00  1.0176002593246E+00  6.9395673859987E-01
90  8.9000000000000E-01  1.6882188513305E-01 -1.0344104520656E+00  1.0496615751595E+00  5.9284055983830E-01
91  9.0000000000000E-01  1.2260188535050E-01 -1.0563366416693E+00  1.0805678831514E+00  4.8709219649093E-01
92  9.1000000000000E-01  7.7623926348481E-02 -1.0771358356413E+00  1.1102329536757E+00  3.7758342075926E-01
93  9.2000000000000E-01  3.3974209037652E-02 -1.0964141630959E+00  1.1385880138882E+00  2.6525139465866E-01
94  9.3000000000000E-01 -8.2691909264919E-03 -1.1137283329552E+00  1.1655815687443E+00  1.5109010280133E-01
95  9.4000000000000E-01 -4.9036334057200E-02 -1.1285920296668E+00  1.1911788671810E+00  3.6140609169281E-02
96  9.5000000000000E-01 -8.8265357312497E-02 -1.1404835813965E+00  1.2153610270812E+00 -7.8519761207268E-02
97  9.6000000000000E-01 -1.2590234707953E-01 -1.1488547884522E+00  1.2381238395325E+00 -1.9178919263933E-01
98  9.7000000000000E-01 -1.6190114912164E-01 -1.1531407739056E+00  1.2594762794232E+00 -3.0255395752458E-01
99  9.8000000000000E-01 -1.9622312058605E-01 -1.1527706946969E+00  1.2794387554723E+00 -4.0970164089612E-01
100  9.9000000000000E-01 -2.2883682993492E-01 -1.1471791304147E+00  1.2980411382352E+00 -5.1213483161089E-01