Ub    ONCVPSP-4.0.1  r_core=   1.50269   1.50269   1.50269
120.0000     28.0000      231012    zatom,zion,pspd
8 -116133   2     4   600     0    pspcod,pspxc,lmax,lloc,mmax,r2well
5.99000000  5.00000000  0.00000000    rchrg fchrg qchrg
3     3     3     0    nproj
3     1           extension_switch
3     3     0    nprojso
0                         2.0527941665292E+01 -3.4610120922177E+00 -2.5856229113139E-01
1  0.0000000000000E+00 -1.7849022260208E-09 -6.2490226881984E-10  2.5738377651408E-08
2  1.0000000000000E-02  1.3009628623864E-01  1.7426074534819E-02 -1.2062228422465E-01
3  2.0000000000000E-02  2.5954394747008E-01  3.4854239284404E-02 -2.3970401271400E-01
4  3.0000000000000E-02  3.8769868716258E-01  5.2286910011081E-02 -3.5572616333573E-01
5  4.0000000000000E-02  5.1392482738541E-01  6.9727145557356E-02 -4.6721242686796E-01
6  5.0000000000000E-02  6.3759952269922E-01  8.7178949513630E-02 -5.7274968450673E-01
7  6.0000000000000E-02  7.5811686084855E-01  1.0464754849740E-01 -6.7100744950844E-01
8  7.0000000000000E-02  8.7489181465806E-01  1.2213964000110E-01 -7.6075595869768E-01
9  8.0000000000000E-02  9.8736401131910E-01  1.3966360339061E-01 -8.4088262530957E-01
10  9.0000000000000E-02  1.0950012874294E+00  1.5722966839201E-01 -9.1040659576043E-01
11  1.0000000000000E-01  1.1973030006820E+00  1.7485003627404E-01 -9.6849118879824E-01
12  1.1000000000000E-01  1.2938030719478E+00  1.9253894990025E-01 -1.0144540353143E+00
13  1.2000000000000E-01  1.3840727346194E+00  2.1031270986555E-01 -1.0477747800574E+00
14  1.3000000000000E-01  1.4677229714235E+00  2.2818963502760E-01 -1.0681002516847E+00
15  1.4000000000000E-01  1.5444066224283E+00  2.4618996686791E-01 -1.0752470540661E+00
16  1.5000000000000E-01  1.6138201516024E+00  2.6433571825002E-01 -1.0692015785632E+00
17  1.6000000000000E-01  1.6757050629814E+00  2.8265046825690E-01 -1.0501174831730E+00
18  1.7000000000000E-01  1.7298489612024E+00  3.0115910586542E-01 -1.0183107290215E+00
19  1.8000000000000E-01  1.7760862548365E+00  3.1988752622902E-01 -9.7425230680720E-01
20  1.9000000000000E-01  1.8142985045174E+00  3.3886228427167E-01 -9.1855882461358E-01
21  2.0000000000000E-01  1.8444144212987E+00  3.5811021112695E-01 -8.5198116326020E-01
22  2.1000000000000E-01  1.8664095239210E+00  3.7765799967061E-01 -7.7539143540408E-01
23  2.2000000000000E-01  1.8803054666952E+00  3.9753176597956E-01 -6.8976850938648E-01
24  2.3000000000000E-01  1.8861690524774E+00  4.1775659399456E-01 -5.9618237792257E-01
25  2.4000000000000E-01  1.8841109476977E+00  4.3835607096041E-01 -4.9577766485577E-01
26  2.5000000000000E-01  1.8742841185806E+00  4.5935182136319E-01 -3.8975657020010E-01
27  2.6000000000000E-01  1.8568820095539E+00  4.8076304707752E-01 -2.7936155453625E-01
28  2.7000000000000E-01  1.8321364863643E+00  5.0260608128095E-01 -1.6585805863528E-01
29  2.8000000000000E-01  1.8003155676070E+00  5.2489396339425E-01 -5.0517543203096E-02
30  2.9000000000000E-01  1.7617209692331E+00  5.4763604187292E-01  6.5398882762199E-02
31  3.0000000000000E-01  1.7166854871284E+00  5.7083761112006E-01  1.8065599784837E-01
32  3.1000000000000E-01  1.6655702430806E+00  5.9449958812733E-01  2.9405894687318E-01
33  3.2000000000000E-01  1.6087618193771E+00  6.1861823369480E-01  4.0446647019924E-01
34  3.3000000000000E-01  1.5466693069400E+00  6.4318492225172E-01  5.1080272392255E-01
35  3.4000000000000E-01  1.4797212913161E+00  6.6818596341626E-01  6.1206756559888E-01
36  3.5000000000000E-01  1.4083628000445E+00  6.9360247751380E-01  7.0734521594199E-01
37  3.6000000000000E-01  1.3330522339420E+00  7.1941032634117E-01  7.9581124319905E-01
38  3.7000000000000E-01  1.2542583037115E+00  7.4558009953768E-01  8.7673785282786E-01
39  3.8000000000000E-01  1.1724569920240E+00  7.7207715602296E-01  9.4949749989014E-01
40  3.9000000000000E-01  1.0881285598870E+00  7.9886171910508E-01  1.0135648744515E+00
41  4.0000000000000E-01  1.0017546147065E+00  8.2588902306629E-01  1.0685173405773E+00
42  4.1000000000000E-01  9.1381525602819E-01  8.5310950831452E-01  1.1140339365901E+00
43  4.2000000000000E-01  8.2478631350947E-01  8.8046906155772E-01  1.1498930676006E+00
44  4.3000000000000E-01  7.3513669026671E-01  9.0790929692712E-01  1.1759690405103E+00
45  4.4000000000000E-01  6.4532582337503E-01  9.3536787355145E-01  1.1922276063865E+00
46  4.5000000000000E-01  5.5580127198854E-01  9.6277884477242E-01  1.1987206851483E+00
47  4.6000000000000E-01  4.6699644231066E-01  9.9007303399439E-01  1.1955804527768E+00
48  4.7000000000000E-01  3.7932845748551E-01  1.0171784320777E+00  1.1830129718249E+00
49  4.8000000000000E-01  2.9319617940729E-01  1.0440206112119E+00  1.1612915419856E+00
50  4.9000000000000E-01  2.0897838845539E-01  1.0705231503362E+00  1.1307499391823E+00
51  5.0000000000000E-01  1.2703212625878E-01  1.0966080674011E+00  1.0917756993682E+00
52  5.1000000000000E-01  4.7691205764477E-02  1.1221962540783E+00  1.0448035874990E+00
53  5.2000000000000E-01 -2.8735107872191E-02  1.1472079089098E+00  9.9030937342421E-01
54  5.3000000000000E-01 -1.0196324275855E-01  1.1715629653322E+00  9.2880401538332E-01
55  5.4000000000000E-01 -1.7173628993229E-01  1.1951815114997E+00  8.6082832898797E-01
56  5.5000000000000E-01 -2.3782479568378E-01  1.2179841993458E+00  7.8694819573184E-01
57  5.6000000000000E-01 -3.0002737559370E-01  1.2398926408520E+00  7.0775034083708E-01
58  5.7000000000000E-01 -3.5817114994704E-01  1.2608297900182E+00  6.2383868633579E-01
59  5.8000000000000E-01 -4.1211200079584E-01  1.2807203095335E+00  5.3583126234458E-01
60  5.9000000000000E-01 -4.6173465157681E-01  1.2994909216226E+00  4.4435763811187E-01
61  6.0000000000000E-01 -5.0695257085990E-01  1.3170707429676E+00  3.5005681522980E-01
62  6.1000000000000E-01 -5.4770770251707E-01  1.3333916039773E+00  2.5357550883215E-01
63  6.2000000000000E-01 -5.8397002536498E-01  1.3483883529781E+00  1.5556672913825E-01
64  6.3000000000000E-01 -6.1573694615464E-01  1.3619991461300E+00  5.6688565627794E-02
65  6.4000000000000E-01 -6.4303253065623E-01  1.3741657240210E+00 -4.2396930280897E-02
66  6.5000000000000E-01 -6.6590657851637E-01  1.3848336759624E+00 -1.4102487080283E-01
67  6.6000000000000E-01 -6.8443354854261E-01  1.3939526929928E+00 -2.3852877118325E-01
68  6.7000000000000E-01 -6.9871134208721E-01  1.4014768105064E+00 -3.3424200354455E-01
69  6.8000000000000E-01 -7.0885995324845E-01  1.4073646412525E+00 -4.2749955729748E-01
70  6.9000000000000E-01 -7.1501999566776E-01  1.4115795992179E+00 -5.1764018639730E-01
71  7.0000000000000E-01 -7.1735111675902E-01  1.4140901146098E+00 -6.0400900893221E-01
72  7.1000000000000E-01 -7.1603031124295E-01  1.4148698398113E+00 -6.8596060722058E-01
73  7.2000000000000E-01 -7.1125014685556E-01  1.4138978458046E+00 -7.6286265723056E-01
74  7.3000000000000E-01 -7.0321691603187E-01  1.4111588081554E+00 -8.3410009533171E-01
75  7.4000000000000E-01 -6.9214872821549E-01  1.4066431812378E+00 -8.9907980865636E-01
76  7.5000000000000E-01 -6.7827355818638E-01  1.4003473589801E+00 -9.5723581338822E-01
77  7.6000000000000E-01 -6.6182726641502E-01  1.3922738200220E+00 -1.0080348636585E+00
78  7.7000000000000E-01 -6.4305160791967E-01  1.3824312548297E+00 -1.0509824130718E+00
79  7.8000000000000E-01 -6.2219224640697E-01  1.3708346720094E+00 -1.0856288318034E+00
80  7.9000000000000E-01 -5.9949679060040E-01  1.3575054808242E+00 -1.1115757652127E+00
81  8.0000000000000E-01 -5.7521286959142E-01  1.3424715467466E+00 -1.1284825055720E+00
82  8.1000000000000E-01 -5.4958626377730E-01  1.3257672167943E+00 -1.1360722371922E+00
83  8.2000000000000E-01 -5.2285910747025E-01  1.3074333113951E+00 -1.1341380073441E+00
84  8.3000000000000E-01 -4.9526817857420E-01  1.2875170796201E+00 -1.1225482711652E+00
85  8.4000000000000E-01 -4.6704328982938E-01  1.2660721148158E+00 -1.1012518584213E+00
86  8.5000000000000E-01 -4.3840579502852E-01  1.2431582279480E+00 -1.0702822136216E+00
87  8.6000000000000E-01 -4.0956722232173E-01  1.2188412763520E+00 -1.0297607685738E+00
88  8.7000000000000E-01 -3.8072804526539E-01  1.1931929460501E+00 -9.7989931788463E-01
89  8.8000000000000E-01 -3.5207660065122E-01  1.1662904863488E+00 -9.2100128296379E-01
90  8.9000000000000E-01 -3.2378816039889E-01  1.1382163960508E+00 -8.5346176847844E-01
91  9.0000000000000E-01 -2.9602416293214E-01  1.1090580613028E+00 -7.7776633653056E-01
92  9.1000000000000E-01 -2.6893160751425E-01  1.0789073458305E+00 -6.9448844766585E-01
93  9.2000000000000E-01 -2.4264261302238E-01  1.0478601350837E+00 -6.0428554360329E-01
94  9.3000000000000E-01 -2.1727414062468E-01  1.0160158365959E+00 -5.0789377376826E-01
95  9.4000000000000E-01 -1.9292787781999E-01  9.8347683965189E-01 -4.0612139567136E-01
96  9.5000000000000E-01 -1.6969027934187E-01  9.5034793812959E-01 -2.9984090728746E-01
97  9.6000000000000E-01 -1.4763275854746E-01  9.1673572112011E-01 -1.8997999719001E-01
98  9.7000000000000E-01 -1.2681202113912E-01  8.8274793662375E-01 -7.7511424666608E-02
99  9.8000000000000E-01 -1.0727053143220E-01  8.4849283424488E-01  3.6558033256329E-02
100  9.9000000000000E-01 -8.9037099912743E-02  8.1407849335712E-01  1.5119940858252E-01
101  1.0000000000000E+00 -7.2127579548330E-02  7.7961214366510E-01  2.6537396411649E-01
102  1.0100000000000E+00 -5.6545657243729E-02  7.4519948544086E-01  3.7804601527427E-01
103  1.0200000000000E+00 -4.2283725989290E-02  7.1094401695033E-01  4.8819594456270E-01
104  1.0300000000000E+00 -2.9323822643566E-02  6.7694637670339E-01  5.9483319296680E-01
105  1.0400000000000E+00 -1.7638615932976E-02  6.4330370815264E-01  6.9700900838224E-01
106  1.0500000000000E+00 -7.1924291430683E-03  6.1010905433084E-01  7.9382873153467E-01
107  1.0600000000000E+00  2.0577178842299E-03  5.7745078965433E-01  8.8446340454859E-01
108  1.0700000000000E+00  1.0161062448923E-02  5.4541209573255E-01  9.6816049645064E-01
109  1.0800000000000E+00  1.7172062773387E-02  5.1407048751880E-01  1.0442535531940E+00
110  1.0900000000000E+00  2.3149385416888E-02  4.8349739551993E-01  1.1121705970947E+00
111  1.1000000000000E+00  2.8154928844187E-02  4.5375780906590E-01  1.1714411214692E+00
112  1.1100000000000E+00  3.2252894458386E-02  4.2490998483389E-01  1.2217015503972E+00
113  1.1200000000000E+00  3.5508915045670E-02  3.9700522393973E-01  1.2626990604264E+00
114  1.1300000000000E+00  3.7989249095673E-02  3.7008771997019E-01  1.2942936900851E+00
115  1.1400000000000E+00  3.9760047877215E-02  3.4419447934269E-01  1.3164586938448E+00
116  1.1500000000000E+00  4.0886700507452E-02  3.1935531437126E-01  1.3292791288693E+00
117  1.1600000000000E+00  4.1433260569354E-02  2.9559290839396E-01  1.3329486951388E+00
118  1.1700000000000E+00  4.1461956154801E-02  2.7292295130817E-01  1.3277648814499E+00
119  1.1800000000000E+00  4.1032783552878E-02  2.5135434287038E-01  1.3141225010456E+00
120  1.1900000000000E+00  4.0203183206017E-02  2.3088946017213E-01  1.2925057304138E+00
121  1.2000000000000E+00  3.9027795040690E-02  2.1152448481368E-01  1.2634787927199E+00
122  1.2100000000000E+00  3.7558288865854E-02  1.9324978447375E-01  1.2276754529383E+00
123  1.2200000000000E+00  3.5843264254192E-02  1.7605034283728E-01  1.1857875144183E+00
124  1.2300000000000E+00  3.3928213175659E-02  1.5990623119036E-01  1.1385525263571E+00
125  1.2400000000000E+00  3.1855537676203E-02  1.4479311444411E-01  1.0867409278047E+00
126  1.2500000000000E+00  2.9664614078254E-02  1.3068278390235E-01  1.0311428665226E+00
127  1.2600000000000E+00  2.7391894538634E-02  1.1754370874930E-01  9.7255493999723E-01
128  1.2700000000000E+00  2.5071036334215E-02  1.0534159800458E-01  9.1176711121445E-01
129  1.2800000000000E+00  2.2733048951121E-02  9.4039964569337E-02  8.4955005349178E-01
130  1.2900000000000E+00  2.0406448925771E-02  8.3600682969216E-02  7.8664317691047E-01
131  1.3000000000000E+00  1.8117412414670E-02  7.3984532478689E-02  7.2374358391577E-01
132  1.3100000000000E+00  1.5889915642491E-02  6.5151717481894E-02  6.6149619372934E-01
133  1.3200000000000E+00  1.3745853679057E-02  5.7062357177965E-02  6.0048526471469E-01
134  1.3300000000000E+00  1.1705128407589E-02  4.9676937063574E-02  5.4122753115175E-01
135  1.3400000000000E+00  9.7856970478244E-03  4.2956715009886E-02  4.8416715646946E-01
136  1.3500000000000E+00  8.0035731738426E-03  3.6864075187796E-02  4.2967268917865E-01
137  1.3600000000000E+00  6.3727727888538E-03  3.1362823566234E-02  3.7803619118289E-01
138  1.3700000000000E+00  4.9051986721569E-03  2.6418419205227E-02  3.2947469116641E-01
139  1.3800000000000E+00  3.6104568752360E-03  2.1998136075334E-02  2.8413409881502E-01
140  1.3900000000000E+00  2.4955998975075E-03  1.8071150648344E-02  2.4209569911451E-01
141  1.4000000000000E+00  1.5647955107642E-03  1.4608553676071E-02  2.0338527128016E-01
142  1.4100000000000E+00  8.1886507420591E-04  1.1583246733805E-02  1.6798571953322E-01
143  1.4200000000000E+00  2.5496485580934E-04  8.9699055422958E-03  1.3584907106935E-01
144  1.4300000000000E+00 -1.3575081038262E-04  6.7435526492756E-03  1.0694085362273E-01
145  1.4400000000000E+00 -3.8118193091544E-04  4.8702036337272E-03  8.1455264372832E-02
146  1.4500000000000E+00 -4.9611138595729E-04  3.3293529536295E-03  5.9329430448900E-02
147  1.4600000000000E+00 -4.9374266399620E-04  2.1069505103526E-03  4.0427158546429E-02
148  1.4700000000000E+00 -3.9966281920124E-04  1.1857331773828E-03  2.4770076991610E-02
149  1.4800000000000E+00 -2.5154251755373E-04  5.4551717033170E-04  1.2554324918152E-02
150  1.4900000000000E+00 -9.7967904941342E-05  1.6081792541405E-04  4.1208477410393E-03
151  1.5000000000000E+00 -8.3798939905936E-06  1.0370620562984E-05  3.0248624450891E-04
152  1.5100000000000E+00  1.3255369314650E-06 -1.4573989813731E-06 -4.5345838078050E-05
153  1.5200000000000E+00 -2.0783746656405E-07  2.5981709995952E-07  7.5594013636946E-06
154  1.53  0.  0.  0.
155  1.54  0.  0.  0.
156  1.55  0.  0.  0.
157  1.56  0.  0.  0.
158  1.57  0.  0.  0.
159  1.58  0.  0.  0.
160  1.59  0.  0.  0.
161  1.60  0.  0.  0.
162  1.61  0.  0.  0.
163  1.62  0.  0.  0.
164  1.63  0.  0.  0.
165  1.64  0.  0.  0.
166  1.65  0.  0.  0.
167  1.66  0.  0.  0.
168  1.67  0.  0.  0.
169  1.68  0.  0.  0.
170  1.69  0.  0.  0.
171  1.70  0.  0.  0.
172  1.71  0.  0.  0.
173  1.72  0.  0.  0.
174  1.73  0.  0.  0.
175  1.74  0.  0.  0.
176  1.75  0.  0.  0.
177  1.76  0.  0.  0.
178  1.77  0.  0.  0.
179  1.78  0.  0.  0.
180  1.79  0.  0.  0.
181  1.80  0.  0.  0.
182  1.81  0.  0.  0.
183  1.82  0.  0.  0.
184  1.83  0.  0.  0.
185  1.84  0.  0.  0.
186  1.85  0.  0.  0.
187  1.86  0.  0.  0.
188  1.87  0.  0.  0.
189  1.88  0.  0.  0.
190  1.89  0.  0.  0.
191  1.90  0.  0.  0.
192  1.91  0.  0.  0.
193  1.92  0.  0.  0.
194  1.93  0.  0.  0.
195  1.94  0.  0.  0.
196  1.95  0.  0.  0.
197  1.96  0.  0.  0.
198  1.97  0.  0.  0.
199  1.98  0.  0.  0.
200  1.99  0.  0.  0.
201  2.00  0.  0.  0.
202  2.01  0.  0.  0.
203  2.02  0.  0.  0.
204  2.03  0.  0.  0.
205  2.04  0.  0.  0.
206  2.05  0.  0.  0.
207  2.06  0.  0.  0.
208  2.07  0.  0.  0.
209  2.08  0.  0.  0.
210  2.09  0.  0.  0.
211  2.10  0.  0.  0.
212  2.11  0.  0.  0.
213  2.12  0.  0.  0.
214  2.13  0.  0.  0.
215  2.14  0.  0.  0.
216  2.15  0.  0.  0.
217  2.16  0.  0.  0.
218  2.17  0.  0.  0.
219  2.18  0.  0.  0.
220  2.19  0.  0.  0.
221  2.20  0.  0.  0.
222  2.21  0.  0.  0.
223  2.22  0.  0.  0.
224  2.23  0.  0.  0.
225  2.24  0.  0.  0.
226  2.25  0.  0.  0.
227  2.26  0.  0.  0.
228  2.27  0.  0.  0.
229  2.28  0.  0.  0.
230  2.29  0.  0.  0.
231  2.30  0.  0.  0.
232  2.31  0.  0.  0.
233  2.32  0.  0.  0.
234  2.33  0.  0.  0.
235  2.34  0.  0.  0.
236  2.35  0.  0.  0.
237  2.36  0.  0.  0.
238  2.37  0.  0.  0.
239  2.38  0.  0.  0.
240  2.39  0.  0.  0.
241  2.40  0.  0.  0.
242  2.41  0.  0.  0.
243  2.42  0.  0.  0.
244  2.43  0.  0.  0.
245  2.44  0.  0.  0.
246  2.45  0.  0.  0.
247  2.46  0.  0.  0.
248  2.47  0.  0.  0.
249  2.48  0.  0.  0.
250  2.49  0.  0.  0.
251  2.50  0.  0.  0.
252  2.51  0.  0.  0.
253  2.52  0.  0.  0.
254  2.53  0.  0.  0.
255  2.54  0.  0.  0.
256  2.55  0.  0.  0.
257  2.56  0.  0.  0.
258  2.57  0.  0.  0.
259  2.58  0.  0.  0.
260  2.59  0.  0.  0.
261  2.60  0.  0.  0.
262  2.61  0.  0.  0.
263  2.62  0.  0.  0.
264  2.63  0.  0.  0.
265  2.64  0.  0.  0.
266  2.65  0.  0.  0.
267  2.66  0.  0.  0.
268  2.67  0.  0.  0.
269  2.68  0.  0.  0.
270  2.69  0.  0.  0.
271  2.70  0.  0.  0.
272  2.71  0.  0.  0.
273  2.72  0.  0.  0.
274  2.73  0.  0.  0.
275  2.74  0.  0.  0.
276  2.75  0.  0.  0.
277  2.76  0.  0.  0.
278  2.77  0.  0.  0.
279  2.78  0.  0.  0.
280  2.79  0.  0.  0.
281  2.80  0.  0.  0.
282  2.81  0.  0.  0.
283  2.82  0.  0.  0.
284  2.83  0.  0.  0.
285  2.84  0.  0.  0.
286  2.85  0.  0.  0.
287  2.86  0.  0.  0.
288  2.87  0.  0.  0.
289  2.88  0.  0.  0.
290  2.89  0.  0.  0.
291  2.90  0.  0.  0.
292  2.91  0.  0.  0.
293  2.92  0.  0.  0.
294  2.93  0.  0.  0.
295  2.94  0.  0.  0.
296  2.95  0.  0.  0.
297  2.96  0.  0.  0.
298  2.97  0.  0.  0.
299  2.98  0.  0.  0.
300  2.99  0.  0.  0.
301  3.00  0.  0.  0.
302  3.01  0.  0.  0.
303  3.02  0.  0.  0.
304  3.03  0.  0.  0.
305  3.04  0.  0.  0.
306  3.05  0.  0.  0.
307  3.06  0.  0.  0.
308  3.07  0.  0.  0.
309  3.08  0.  0.  0.
310  3.09  0.  0.  0.
311  3.10  0.  0.  0.
312  3.11  0.  0.  0.
313  3.12  0.  0.  0.
314  3.13  0.  0.  0.
315  3.14  0.  0.  0.
316  3.15  0.  0.  0.
317  3.16  0.  0.  0.
318  3.17  0.  0.  0.
319  3.18  0.  0.  0.
320  3.19  0.  0.  0.
321  3.20  0.  0.  0.
322  3.21  0.  0.  0.
323  3.22  0.  0.  0.
324  3.23  0.  0.  0.
325  3.24  0.  0.  0.
326  3.25  0.  0.  0.
327  3.26  0.  0.  0.
328  3.27  0.  0.  0.
329  3.28  0.  0.  0.
330  3.29  0.  0.  0.
331  3.30  0.  0.  0.
332  3.31  0.  0.  0.
333  3.32  0.  0.  0.
334  3.33  0.  0.  0.
335  3.34  0.  0.  0.
336  3.35  0.  0.  0.
337  3.36  0.  0.  0.
338  3.37  0.  0.  0.
339  3.38  0.  0.  0.
340  3.39  0.  0.  0.
341  3.40  0.  0.  0.
342  3.41  0.  0.  0.
343  3.42  0.  0.  0.
344  3.43  0.  0.  0.
345  3.44  0.  0.  0.
346  3.45  0.  0.  0.
347  3.46  0.  0.  0.
348  3.47  0.  0.  0.
349  3.48  0.  0.  0.
350  3.49  0.  0.  0.
351  3.50  0.  0.  0.
352  3.51  0.  0.  0.
353  3.52  0.  0.  0.
354  3.53  0.  0.  0.
355  3.54  0.  0.  0.
356  3.55  0.  0.  0.
357  3.56  0.  0.  0.
358  3.57  0.  0.  0.
359  3.58  0.  0.  0.
360  3.59  0.  0.  0.
361  3.60  0.  0.  0.
362  3.61  0.  0.  0.
363  3.62  0.  0.  0.
364  3.63  0.  0.  0.
365  3.64  0.  0.  0.
366  3.65  0.  0.  0.
367  3.66  0.  0.  0.
368  3.67  0.  0.  0.
369  3.68  0.  0.  0.
370  3.69  0.  0.  0.
371  3.70  0.  0.  0.
372  3.71  0.  0.  0.
373  3.72  0.  0.  0.
374  3.73  0.  0.  0.
375  3.74  0.  0.  0.
376  3.75  0.  0.  0.
377  3.76  0.  0.  0.
378  3.77  0.  0.  0.
379  3.78  0.  0.  0.
380  3.79  0.  0.  0.
381  3.80  0.  0.  0.
382  3.81  0.  0.  0.
383  3.82  0.  0.  0.
384  3.83  0.  0.  0.
385  3.84  0.  0.  0.
386  3.85  0.  0.  0.
387  3.86  0.  0.  0.
388  3.87  0.  0.  0.
389  3.88  0.  0.  0.
390  3.89  0.  0.  0.
391  3.90  0.  0.  0.
392  3.91  0.  0.  0.
393  3.92  0.  0.  0.
394  3.93  0.  0.  0.
395  3.94  0.  0.  0.
396  3.95  0.  0.  0.
397  3.96  0.  0.  0.
398  3.97  0.  0.  0.
399  3.98  0.  0.  0.
400  3.99  0.  0.  0.
401  4.00  0.  0.  0.
402  4.01  0.  0.  0.
403  4.02  0.  0.  0.
404  4.03  0.  0.  0.
405  4.04  0.  0.  0.
406  4.05  0.  0.  0.
407  4.06  0.  0.  0.
408  4.07  0.  0.  0.
409  4.08  0.  0.  0.
410  4.09  0.  0.  0.
411  4.10  0.  0.  0.
412  4.11  0.  0.  0.
413  4.12  0.  0.  0.
414  4.13  0.  0.  0.
415  4.14  0.  0.  0.
416  4.15  0.  0.  0.
417  4.16  0.  0.  0.
418  4.17  0.  0.  0.
419  4.18  0.  0.  0.
420  4.19  0.  0.  0.
421  4.20  0.  0.  0.
422  4.21  0.  0.  0.
423  4.22  0.  0.  0.
424  4.23  0.  0.  0.
425  4.24  0.  0.  0.
426  4.25  0.  0.  0.
427  4.26  0.  0.  0.
428  4.27  0.  0.  0.
429  4.28  0.  0.  0.
430  4.29  0.  0.  0.
431  4.30  0.  0.  0.
432  4.31  0.  0.  0.
433  4.32  0.  0.  0.
434  4.33  0.  0.  0.
435  4.34  0.  0.  0.
436  4.35  0.  0.  0.
437  4.36  0.  0.  0.
438  4.37  0.  0.  0.
439  4.38  0.  0.  0.
440  4.39  0.  0.  0.
441  4.40  0.  0.  0.
442  4.41  0.  0.  0.
443  4.42  0.  0.  0.
444  4.43  0.  0.  0.
445  4.44  0.  0.  0.
446  4.45  0.  0.  0.
447  4.46  0.  0.  0.
448  4.47  0.  0.  0.
449  4.48  0.  0.  0.
450  4.49  0.  0.  0.
451  4.50  0.  0.  0.
452  4.51  0.  0.  0.
453  4.52  0.  0.  0.
454  4.53  0.  0.  0.
455  4.54  0.  0.  0.
456  4.55  0.  0.  0.
457  4.56  0.  0.  0.
458  4.57  0.  0.  0.
459  4.58  0.  0.  0.
460  4.59  0.  0.  0.
461  4.60  0.  0.  0.
462  4.61  0.  0.  0.
463  4.62  0.  0.  0.
464  4.63  0.  0.  0.
465  4.64  0.  0.  0.
466  4.65  0.  0.  0.
467  4.66  0.  0.  0.
468  4.67  0.  0.  0.
469  4.68  0.  0.  0.
470  4.69  0.  0.  0.
471  4.70  0.  0.  0.
472  4.71  0.  0.  0.
473  4.72  0.  0.  0.
474  4.73  0.  0.  0.
475  4.74  0.  0.  0.
476  4.75  0.  0.  0.
477  4.76  0.  0.  0.
478  4.77  0.  0.  0.
479  4.78  0.  0.  0.
480  4.79  0.  0.  0.
481  4.80  0.  0.  0.
482  4.81  0.  0.  0.
483  4.82  0.  0.  0.
484  4.83  0.  0.  0.
485  4.84  0.  0.  0.
486  4.85  0.  0.  0.
487  4.86  0.  0.  0.
488  4.87  0.  0.  0.
489  4.88  0.  0.  0.
490  4.89  0.  0.  0.
491  4.90  0.  0.  0.
492  4.91  0.  0.  0.
493  4.92  0.  0.  0.
494  4.93  0.  0.  0.
495  4.94  0.  0.  0.
496  4.95  0.  0.  0.
497  4.96  0.  0.  0.
498  4.97  0.  0.  0.
499  4.98  0.  0.  0.
500  4.99  0.  0.  0.
501  5.00  0.  0.  0.
502  5.01  0.  0.  0.
503  5.02  0.  0.  0.
504  5.03  0.  0.  0.
505  5.04  0.  0.  0.
506  5.05  0.  0.  0.
507  5.06  0.  0.  0.
508  5.07  0.  0.  0.
509  5.08  0.  0.  0.
510  5.09  0.  0.  0.
511  5.10  0.  0.  0.
512  5.11  0.  0.  0.
513  5.12  0.  0.  0.
514  5.13  0.  0.  0.
515  5.14  0.  0.  0.
516  5.15  0.  0.  0.
517  5.16  0.  0.  0.
518  5.17  0.  0.  0.
519  5.18  0.  0.  0.
520  5.19  0.  0.  0.
521  5.20  0.  0.  0.
522  5.21  0.  0.  0.
523  5.22  0.  0.  0.
524  5.23  0.  0.  0.
525  5.24  0.  0.  0.
526  5.25  0.  0.  0.
527  5.26  0.  0.  0.
528  5.27  0.  0.  0.
529  5.28  0.  0.  0.
530  5.29  0.  0.  0.
531  5.30  0.  0.  0.
532  5.31  0.  0.  0.
533  5.32  0.  0.  0.
534  5.33  0.  0.  0.
535  5.34  0.  0.  0.
536  5.35  0.  0.  0.
537  5.36  0.  0.  0.
538  5.37  0.  0.  0.
539  5.38  0.  0.  0.
540  5.39  0.  0.  0.
541  5.40  0.  0.  0.
542  5.41  0.  0.  0.
543  5.42  0.  0.  0.
544  5.43  0.  0.  0.
545  5.44  0.  0.  0.
546  5.45  0.  0.  0.
547  5.46  0.  0.  0.
548  5.47  0.  0.  0.
549  5.48  0.  0.  0.
550  5.49  0.  0.  0.
551  5.50  0.  0.  0.
552  5.51  0.  0.  0.
553  5.52  0.  0.  0.
554  5.53  0.  0.  0.
555  5.54  0.  0.  0.
556  5.55  0.  0.  0.
557  5.56  0.  0.  0.
558  5.57  0.  0.  0.
559  5.58  0.  0.  0.
560  5.59  0.  0.  0.
561  5.60  0.  0.  0.
562  5.61  0.  0.  0.
563  5.62  0.  0.  0.
564  5.63  0.  0.  0.
565  5.64  0.  0.  0.
566  5.65  0.  0.  0.
567  5.66  0.  0.  0.
568  5.67  0.  0.  0.
569  5.68  0.  0.  0.
570  5.69  0.  0.  0.
571  5.70  0.  0.  0.
572  5.71  0.  0.  0.
573  5.72  0.  0.  0.
574  5.73  0.  0.  0.
575  5.74  0.  0.  0.
576  5.75  0.  0.  0.
577  5.76  0.  0.  0.
578  5.77  0.  0.  0.
579  5.78  0.  0.  0.
580  5.79  0.  0.  0.
581  5.80  0.  0.  0.
582  5.81  0.  0.  0.
583  5.82  0.  0.  0.
584  5.83  0.  0.  0.
585  5.84  0.  0.  0.
586  5.85  0.  0.  0.
587  5.86  0.  0.  0.
588  5.87  0.  0.  0.
589  5.88  0.  0.  0.
590  5.89  0.  0.  0.
591  5.90  0.  0.  0.
592  5.91  0.  0.  0.
593  5.92  0.  0.  0.
594  5.93  0.  0.  0.
595  5.94  0.  0.  0.
596  5.95  0.  0.  0.
597  5.96  0.  0.  0.
598  5.97  0.  0.  0.
599  5.98  0.  0.  0.
600  5.99  0.  0.  0.
1                         6.3043956487060E+00 -1.8449969330482E+00 -6.4251151109448E-01
1  0.0000000000000E+00  1.2778406111025E-09 -1.2504769025812E-09  5.0229634340759E-10
2  1.0000000000000E-02  2.6178350194267E-03 -1.4400547577733E-03  2.0541310373359E-03
3  2.0000000000000E-02  1.0455260249486E-02 -5.7451019592037E-03  8.1974078130648E-03
4  3.0000000000000E-02  2.3464139601261E-02 -1.2869904614000E-02  1.8372611981611E-02
5  4.0000000000000E-02  4.1564590251595E-02 -2.2739447890958E-02  3.2484815127737E-02
6  5.0000000000000E-02  6.4645496319989E-02 -3.5249507249246E-02  5.0402031808149E-02
7  6.0000000000000E-02  9.2565223404862E-02 -5.0267439613685E-02  7.1956133316604E-02
8  7.0000000000000E-02  1.2515252939053E-01 -6.7633193356610E-02  9.6944021464540E-02
9  8.0000000000000E-02  1.6220766565849E-01 -8.7160531598389E-02  1.2512906116696E-01
10  9.0000000000000E-02  2.0350366158384E-01 -1.0863846206294E-01  1.5624276991060E-01
11  1.0000000000000E-01  2.4878778397720E-01 -1.3183286542098E-01  1.8998676122509E-01
12  1.1000000000000E-01  2.9778316194967E-01 -1.5648831272375E-01  2.2603493805522E-01
13  1.2000000000000E-01  3.5019056654168E-01 -1.8233006117627E-01  2.6403593042720E-01
14  1.3000000000000E-01  4.0569033337200E-01 -2.0906621612747E-01  3.0361577001114E-01
15  1.4000000000000E-01  4.6394441553963E-01 -2.3639004577433E-01  3.4438079211010E-01
16  1.5000000000000E-01  5.2459855305544E-01 -2.6398243369867E-01  3.8592075327055E-01
17  1.6000000000000E-01  5.8728454420238E-01 -2.9151445299353E-01  4.2781215013560E-01
18  1.7000000000000E-01  6.5162260342880E-01 -3.1865004440725E-01  4.6962172238922E-01
19  1.8000000000000E-01  7.1722378967991E-01 -3.4504877965642E-01  5.1091011971282E-01
20  1.9000000000000E-01  7.8369248847371E-01 -3.7036868985470E-01  5.5123570965009E-01
21  2.0000000000000E-01  8.5062893053978E-01 -3.9426913789515E-01  5.9015850021495E-01
22  2.1000000000000E-01  9.1763172946860E-01 -4.1641371263299E-01  6.2724414804965E-01
23  2.2000000000000E-01  9.8430042057333E-01 -4.3647312186642E-01  6.6206802001802E-01
24  2.3000000000000E-01  1.0502379830520E+00 -4.5412806043072E-01  6.9421927337956E-01
25  2.4000000000000E-01  1.1150533275607E+00 -4.6907202922605E-01  7.2330491720986E-01
26  2.5000000000000E-01  1.1783637314716E+00 -4.8101408071656E-01  7.4895381558784E-01
27  2.6000000000000E-01  1.2397972044020E+00 -4.8968146638518E-01  7.7082059133410E-01
28  2.7000000000000E-01  1.2989947670510E+00 -4.9482216182385E-01  7.8858938782531E-01
29  2.8000000000000E-01  1.3556126269900E+00 -4.9620724559624E-01  8.0197744568893E-01
30  2.9000000000000E-01  1.4093242357976E+00 -4.9363310874084E-01  8.1073845105399E-01
31  3.0000000000000E-01  1.4598222128245E+00 -4.8692347279257E-01  8.1466561254170E-01
32  3.1000000000000E-01  1.5068201219051E+00 -4.7593119549409E-01  8.1359442535470E-01
33  3.2000000000000E-01  1.5500540884935E+00 -4.6053984494070E-01  8.0740508268784E-01
34  3.3000000000000E-01  1.5892842459924E+00 -4.4066502474823E-01  7.9602449724123E-01
35  3.4000000000000E-01  1.6242960014386E+00 -4.1625543493959E-01  7.7942789886186E-01
36  3.5000000000000E-01  1.6549011122164E+00 -3.8729365559493E-01  7.5763997825026E-01
37  3.6000000000000E-01  1.6809385670550E+00 -3.5379664288146E-01  7.3073555120930E-01
38  3.7000000000000E-01  1.7022752662340E+00 -3.1581592984359E-01  6.9883972303112E-01
39  3.8000000000000E-01  1.7188064976371E+00 -2.7343752726319E-01  6.6212753825438E-01
40  3.9000000000000E-01  1.7304562070561E+00 -2.2678152295614E-01  6.2082310710036E-01
41  4.0000000000000E-01  1.7371770629236E+00 -1.7600138101792E-01  5.7519820632622E-01
42  4.1000000000000E-01  1.7389503174365E+00 -1.2128294572603E-01  5.2557035892141E-01
43  4.2000000000000E-01  1.7357854677931E+00 -6.2843158006960E-02  4.7230040391326E-01
44  4.3000000000000E-01  1.7277197229899E+00 -9.2849553545745E-04  4.1578957442987E-01
45  4.4000000000000E-01  1.7148172832931E+00  6.4186849391233E-02  3.5647610897851E-01
46  4.5000000000000E-01  1.6971684410851E+00  1.3220303711745E-01  2.9483142751927E-01
47  4.6000000000000E-01  1.6748885132830E+00  2.0279687317538E-01  2.3135591023041E-01
48  4.7000000000000E-01  1.6481166169050E+00  2.7562430370540E-01  1.6657432276191E-01
49  4.8000000000000E-01  1.6170143006100E+00  3.5032308904723E-01  1.0103093714800E-01
50  4.9000000000000E-01  1.5817640461458E+00  4.2651562879703E-01  3.5284402298976E-02
51  5.0000000000000E-01  1.5425676545896E+00  5.0381190994938E-01 -3.0097577975859E-02
52  5.1000000000000E-01  1.4996445330477E+00  5.8181254841972E-01 -9.4543698225894E-02
53  5.2000000000000E-01  1.4532298980894E+00  6.6011189329481E-01 -1.5748457233752E-01
54  5.3000000000000E-01  1.4035729126146E+00  7.3830116260106E-01 -2.1835825721550E-01
55  5.4000000000000E-01  1.3509347730959E+00  8.1597157922563E-01 -2.7661571364556E-01
56  5.5000000000000E-01  1.2955867641864E+00  8.9271747587281E-01 -3.3172613928237E-01
57  5.6000000000000E-01  1.2378082975566E+00  9.6813933858984E-01 -3.8318211014878E-01
58  5.7000000000000E-01  1.1778849515073E+00  1.0418467594385E+00 -4.3050446943293E-01
59  5.8000000000000E-01  1.1161065274217E+00  1.1134612703079E+00 -4.7324690569759E-01
60  5.9000000000000E-01  1.0527651384667E+00  1.1826190316362E+00 -5.1100016682308E-01
61  6.0000000000000E-01  9.8815334514782E-01  1.2489733519086E+00 -5.4339586102432E-01
62  6.1000000000000E-01  9.2256235137635E-01  1.3121970161876E+00 -5.7010980203571E-01
63  6.2000000000000E-01  8.5628027363728E-01  1.3719844045785E+00 -5.9086486194950E-01
64  6.3000000000000E-01  7.8959049466668E-01  1.4280533843863E+00 -6.0543330211930E-01
65  6.4000000000000E-01  7.2277011177903E-01  1.4801469627443E+00 -6.1363855988491E-01
66  6.5000000000000E-01  6.5608848864606E-01  1.5280346896313E+00 -6.1535647651385E-01
67  6.6000000000000E-01  5.8980591793866E-01  1.5715138044028E+00 -6.1051595956170E-01
68  6.7000000000000E-01  5.2417240082409E-01  1.6104101221801E+00 -5.9909908069307E-01
69  6.8000000000000E-01  4.5942654788103E-01  1.6445786596355E+00 -5.8114061774907E-01
70  6.9000000000000E-01  3.9579460457613E-01  1.6739040028104E+00 -5.5672705736161E-01
71  7.0000000000000E-01  3.3348960305638E-01  1.6983004225805E+00 -5.2599508157680E-01
72  7.1000000000000E-01  2.7271064067062E-01  1.7177117461807E+00 -4.8912956863756E-01