Ub    ONCVPSP-4.0.1  r_core=   1.50269   1.50269   1.50269
120.0000     28.0000      231012    zatom,zion,pspd
8 -116133   2     4   600     0    pspcod,pspxc,lmax,lloc,mmax,r2well
5.99000000  5.00000000  0.00000000    rchrg fchrg qchrg
3     2     2     0     0    nproj
1     1           extension_switch
0                         1.9889527950136E+01 -3.5635834370386E+00 -2.4453010919205E-01
1  0.0000000000000E+00 -1.7429857557261E-09 -5.3116017140198E-10  2.3869071275051E-08
2  1.0000000000000E-02  1.3037404256419E-01  1.7901627841469E-02 -1.1797085505844E-01
3  2.0000000000000E-02  2.6009483745013E-01  3.5808949557109E-02 -2.3444616223518E-01
4  3.0000000000000E-02  3.8851349036050E-01  5.3727912972558E-02 -3.4795103057813E-01
5  4.0000000000000E-02  5.1498977557955E-01  7.1664967043081E-02 -4.5705154891071E-01
6  5.0000000000000E-02  6.3889637526677E-01  8.9627295625259E-02 -5.6037444680365E-01
7  6.0000000000000E-02  7.5962300601649E-01  1.0762303148637E-01 -6.5662577833639E-01
8  7.0000000000000E-02  8.7658039718861E-01  1.2566144460416E-01 -7.4460833166286E-01
9  8.0000000000000E-02  9.8920408725787E-01  1.4375309934079E-01 -8.2323749126562E-01
10  9.0000000000000E-02  1.0969580065562E+00  1.6190997571713E-01 -8.9155530865771E-01
11  1.0000000000000E-01  1.1993378172590E+00  1.8014555075347E-01 -9.4874257058445E-01
12  1.1000000000000E-01  1.2958739842542E+00  1.9847483666458E-01 -9.9412869077806E-01
13  1.2000000000000E-01  1.3861345535926E+00  2.1691437358358E-01 -1.0271992912726E+00
14  1.3000000000000E-01  1.4697276184947E+00  2.3548217542145E-01 -1.0476013813570E+00
15  1.4000000000000E-01  1.5463034563449E+00  2.5419762842794E-01 -1.0551460855778E+00
16  1.5000000000000E-01  1.6155563236785E+00  2.7308134298491E-01 -1.0498089159024E+00
17  1.6000000000000E-01  1.6772258998106E+00  2.9215496011500E-01 -1.0317276263485E+00
18  1.7000000000000E-01  1.7310983734214E+00  3.1144091510772E-01 -1.0011977302005E+00
19  1.8000000000000E-01  1.7770071700425E+00  3.3096216153182E-01 -9.5866579954223E-01
20  1.9000000000000E-01  1.8148333219362E+00  3.5074185970173E-01 -9.0472070347780E-01
21  2.0000000000000E-01  1.8445054852849E+00  3.7080303437906E-01 -8.4008297437331E-01
22  2.1000000000000E-01  1.8659996128553E+00  3.9116820710537E-01 -7.6559252013451E-01
23  2.2000000000000E-01  1.8793382933471E+00  4.1185900906788E-01 -6.8219492442055E-01
24  2.3000000000000E-01  1.8845897714351E+00  4.3289578078563E-01 -5.9092659538622E-01
25  2.4000000000000E-01  1.8818666650440E+00  4.5429716516497E-01 -4.9289903674922E-01
26  2.5000000000000E-01  1.8713243986317E+00  4.7607970060518E-01 -3.8928252255204E-01
27  2.6000000000000E-01  1.8531593731830E+00  4.9825742083752E-01 -2.8128945887824E-01
28  2.7000000000000E-01  1.8276068952237E+00  5.2084146805596E-01 -1.7015771208048E-01
29  2.8000000000000E-01  1.7949388884410E+00  5.4383972565017E-01 -5.7134174003597E-02
30  2.9000000000000E-01  1.7554614124558E+00  5.6725647648759E-01  5.6541179468025E-02
31  3.0000000000000E-01  1.7095120139253E+00  5.9109209222267E-01  1.6965049897797E-01
32  3.1000000000000E-01  1.6574569354843E+00  6.1534275854756E-01  2.8101232672382E-01
33  3.2000000000000E-01  1.5996882080714E+00  6.4000024065548E-01  3.8949472769452E-01
34  3.3000000000000E-01  1.5366206519517E+00  6.6505169247828E-01  4.9402712813984E-01
35  3.4000000000000E-01  1.4686888112660E+00  6.9047951250176E-01  5.9361073369823E-01
36  3.5000000000000E-01  1.3963438462344E+00  7.1626124817141E-01  6.8732743240973E-01
37  3.6000000000000E-01  1.3200504062435E+00  7.4236955009550E-01  7.7434712126797E-01
38  3.7000000000000E-01  1.2402835059891E+00  7.6877217644806E-01  8.5393342828546E-01
39  3.8000000000000E-01  1.1575254256504E+00  7.9543204718952E-01  9.2544783449103E-01
40  3.9000000000000E-01  1.0722626547770E+00  8.2230734697081E-01  9.8835223118279E-01
41  4.0000000000000E-01  9.8498289819804E-01  8.4935167488524E-01  1.0422099764604E+00
42  4.1000000000000E-01  8.9617216084637E-01  8.7651423859176E-01  1.0866855409808E+00
43  4.2000000000000E-01  8.0631192695392E-01  9.0374008976602E-01  1.1215428555467E+00
44  4.3000000000000E-01  7.1587644763967E-01  9.3097039735161E-01  1.1466424920958E+00
45  4.4000000000000E-01  6.2533014950133E-01  9.5814275468826E-01  1.1619378246583E+00
46  4.5000000000000E-01  5.3512517545199E-01  9.8519151629323E-01  1.1674703276352E+00
47  4.6000000000000E-01  4.4569906772813E-01  1.0120481598686E+00  1.1633641752354E+00
48  4.7000000000000E-01  3.5747260174458E-01  1.0386416689991E+00  1.1498203081323E+00
49  4.8000000000000E-01  2.7084777829441E-01  1.0648989319936E+00  1.1271101314065E+00
50  4.9000000000000E-01  1.8620598048770E-01  1.0907451523989E+00  1.0955690019081E+00
51  5.0000000000000E-01  1.0390630079593E-01  1.1161042668777E+00  1.0555896535514E+00
52  5.1000000000000E-01  2.4284042612112E-02  1.1408993663756E+00  1.0076156961598E+00
53  5.2000000000000E-01 -5.2350600151336E-02  1.1650531168051E+00  9.5213530775115E-01
54  5.3000000000000E-01 -1.2571368273606E-01  1.1884881758290E+00  8.8967522212598E-01
55  5.4000000000000E-01 -1.9554846657191E-01  1.2111276027215E+00  8.2079509383134E-01
56  5.5000000000000E-01 -2.6162619250428E-01  1.2328952587100E+00  7.4608230164287E-01
57  5.6000000000000E-01 -3.2374666976352E-01  1.2537161956456E+00  6.6614723022775E-01
58  5.7000000000000E-01 -3.8173868092659E-01  1.2735170312870E+00  5.8161904822230E-01
59  5.8000000000000E-01 -4.3546020382119E-01  1.2922263099218E+00  4.9314198021235E-01
60  5.9000000000000E-01 -4.8479845202885E-01  1.3097748474571E+00  4.0137205054405E-01
61  6.0000000000000E-01 -5.2966973637000E-01  1.3260960604876E+00  3.0697425910434E-01
62  6.1000000000000E-01 -5.7001915050450E-01  1.3411262791861E+00  2.1062013359966E-01
63  6.2000000000000E-01 -6.0582008456547E-01  1.3548050441425E+00  1.1298558986224E-01
64  6.3000000000000E-01 -6.3707357156328E-01  1.3670753875004E+00  1.4749021636840E-02
65  6.4000000000000E-01 -6.6380747215297E-01  1.3778840989058E+00 -8.3410465639661E-02
66  6.5000000000000E-01 -6.8607550425039E-01  1.3871819768752E+00 -1.8081476616874E-01
67  6.6000000000000E-01 -7.0395612490542E-01  1.3949240662229E+00 -2.7678851959765E-01
68  6.7000000000000E-01 -7.1755127278736E-01  1.4010698821512E+00 -3.7066097762305E-01
69  6.8000000000000E-01 -7.2698498060001E-01  1.4055836215119E+00 -4.6176807142777E-01
70  6.9000000000000E-01 -7.3240186770717E-01  1.4084343615941E+00 -5.4945475076078E-01
71  7.0000000000000E-01 -7.3396552420224E-01  1.4095962465911E+00 -6.3307765349921E-01
72  7.1000000000000E-01 -7.3185679857999E-01  1.4090486616541E+00 -7.1200815025225E-01
73  7.2000000000000E-01 -7.2627200204752E-01  1.4067763941669E+00 -7.8563579235624E-01
74  7.3000000000000E-01 -7.1742104332738E-01  1.4027697815750E+00 -8.5337217395888E-01
75  7.4000000000000E-01 -7.0552550853876E-01  1.3970248447996E+00 -9.1465520031617E-01
76  7.5000000000000E-01 -6.9081670137431E-01  1.3895434059576E+00 -9.6895373543852E-01
77  7.6000000000000E-01 -6.7353365930204E-01  1.3803331888194E+00 -1.0157725834152E+00
78  7.7000000000000E-01 -6.5392116189732E-01  1.3694079001688E+00 -1.0546577395966E+00
79  7.8000000000000E-01 -6.3222774763206E-01  1.3567872899976E+00 -1.0852018309282E+00
80  7.9000000000000E-01 -6.0870375550541E-01  1.3424971882859E+00 -1.1070496495321E+00
81  8.0000000000000E-01 -5.8359940777939E-01  1.3265695159875E+00 -1.1199036706258E+00
82  8.1000000000000E-01 -5.5716294977789E-01  1.3090422677774E+00 -1.1235294354273E+00
83  8.2000000000000E-01 -5.2963886221119E-01  1.2899594641212E+00 -1.1177606721725E+00
84  8.3000000000000E-01 -5.0126616080154E-01  1.2693710703051E+00 -1.1025040240157E+00
85  8.4000000000000E-01 -4.7227679710822E-01  1.2473328802204E+00 -1.0777432515843E+00
86  8.5000000000000E-01 -4.4289417339084E-01  1.2239063629295E+00 -1.0435427804298E+00
87  8.6000000000000E-01 -4.1333178311515E-01  1.1991584703476E+00 -1.0000504695443E+00
88  8.7000000000000E-01 -3.8379198731136E-01  1.1731614047555E+00 -9.4749948645321E-01
89  8.8000000000000E-01 -3.5446493545603E-01  1.1459923453079E+00 -8.8620918696856E-01
90  8.9000000000000E-01 -3.2552763788580E-01  1.1177331332080E+00 -8.1658491326855E-01
91  9.0000000000000E-01 -2.9714319498704E-01  1.0884699157791E+00 -7.3911664224067E-01
92  9.1000000000000E-01 -2.6946018656518E-01  1.0582927502650E+00 -6.5437643659209E-01
93  9.2000000000000E-01 -2.4261222290755E-01  1.0272951688179E+00 -5.6301467367394E-01
94  9.3000000000000E-01 -2.1671765714418E-01  9.9557370677979E-01 -4.6575505076253E-01
95  9.4000000000000E-01 -1.9187945660922E-01  9.6322739701322E-01 -3.6338839019749E-01
96  9.5000000000000E-01 -1.6818522904436E-01  9.3035723367357E-01 -2.5676529270173E-01
97  9.6000000000000E-01 -1.4570739769098E-01  8.9706560943159E-01 -1.4678771187882E-01
98  9.7000000000000E-01 -1.2450351762149E-01  8.6345573073039E-01 -3.4399546693192E-02
99  9.8000000000000E-01 -1.0461672408702E-01  8.2963101618640E-01  7.9423628818511E-02
100  9.9000000000000E-01 -8.6076302235789E-02  7.9569448370633E-01  1.9368555884618E-01
101  1.0000000000000E+00 -6.8898366303993E-02  7.6174813227952E-01  3.0738086421448E-01
102  1.0100000000000E+00 -5.3086635321048E-02  7.2789232470844E-01  4.1950699269179E-01
103  1.0200000000000E+00 -3.8633291518039E-02  6.9422517775090E-01  5.2907637587656E-01
104  1.0300000000000E+00 -2.5519906995179E-02  6.6084196625946E-01  6.3512859870938E-01
105  1.0400000000000E+00 -1.3718423799066E-02  6.2783454791217E-01  7.3674238275295E-01
106  1.0500000000000E+00 -3.1921723888104E-03  5.9529081503070E-01  8.3304718335050E-01
107  1.0600000000000E+00  6.1030864701743E-03  5.6329417977909E-01  9.2323420365139E-01
108  1.0700000000000E+00  1.4218111056393E-02  5.3192309872710E-01  1.0065666353025E+00
109  1.0800000000000E+00  2.1209133449853E-02  5.0125064235384E-01  1.0823889461914E+00
110  1.0900000000000E+00  2.7136833142820E-02  4.7134411456256E-01  1.1501350498473E+00
111  1.1000000000000E+00  3.2065342040153E-02  4.4226472668636E-01  1.2093352086880E+00
112  1.1100000000000E+00  3.6061292303757E-02  4.1406732979497E-01  1.2596215438748E+00
113  1.1200000000000E+00  3.9192917259800E-02  3.8680020837502E-01  1.3007320478180E+00
114  1.1300000000000E+00  4.1529214228384E-02  3.6050493766513E-01  1.3325130207567E+00
115  1.1400000000000E+00  4.3139176669350E-02  3.3521630609072E-01  1.3549198800477E+00
116  1.1500000000000E+00  4.4091101504663E-02  3.1096230338170E-01  1.3680163190833E+00
117  1.1600000000000E+00  4.4451975890792E-02  2.8776417407641E-01  1.3719718218580E+00
118  1.1700000000000E+00  4.4286946116692E-02  2.6563653523782E-01  1.3670575683091E+00
119  1.1800000000000E+00  4.3658869708369E-02  2.4458755634173E-01  1.3536407943912E+00
120  1.1900000000000E+00  4.2627950265300E-02  2.2461919845853E-01  1.3321776987193E+00
121  1.2000000000000E+00  4.1251453059490E-02  2.0572750905187E-01  1.3032050141194E+00
122  1.2100000000000E+00  3.9583498010596E-02  1.8790296796741E-01  1.2673303872185E+00
123  1.2200000000000E+00  3.7674925347799E-02  1.7113087950204E-01  1.2252217316119E+00
124  1.2300000000000E+00  3.5573228072676E-02  1.5539180482394E-01  1.1775957402811E+00
125  1.2400000000000E+00  3.3322544288832E-02  1.4066202847870E-01  1.1252057600451E+00
126  1.2500000000000E+00  3.0963701553266E-02  1.2691405226044E-01  1.0688292450950E+00
127  1.2600000000000E+00  2.8534304648318E-02  1.1411710935933E-01  1.0092550177668E+00
128  1.2700000000000E+00  2.6068857576285E-02  1.0223769141908E-01  9.4727057261195E-01
129  1.2800000000000E+00  2.3598910135217E-02  9.1240080948637E-02  8.8364966461988E-01
130  1.2900000000000E+00  2.1153219147995E-02  8.1086881431990E-02  8.1914042410969E-01
131  1.3000000000000E+00  1.8757914276624E-02  7.1739537464098E-02  7.5445423958565E-01
132  1.3100000000000E+00  1.6436658353086E-02  6.3158837305473E-02  6.9025564586324E-01
133  1.3200000000000E+00  1.4210792285126E-02  5.5305390387603E-02  6.2715344831319E-01
134  1.3300000000000E+00  1.2099454836078E-02  4.8140072507924E-02  5.6569330544459E-01
135  1.3400000000000E+00  1.0119667916204E-02  4.1624431718800E-02  5.0635198157383E-01
136  1.3500000000000E+00  8.2863784463113E-03  3.5721048233578E-02  4.4953346930044E-01
137  1.3600000000000E+00  6.6124483403024E-03  3.0393842031731E-02  3.9556716839298E-01
138  1.3700000000000E+00  5.1085846878578E-03  2.5608322237633E-02  3.4470829379230E-01
139  1.3800000000000E+00  3.7832027835784E-03  2.1331772763817E-02  2.9714067110610E-01
140  1.3900000000000E+00  2.6422152306643E-03  1.7533369142638E-02  2.5298206353051E-01
141  1.4000000000000E+00  1.6887445513016E-03  1.4184224320642E-02  2.1229210504730E-01
142  1.4100000000000E+00  9.2270419552422E-04  1.1257326957417E-02  1.7508370059494E-01
143  1.4200000000000E+00  3.4050843852387E-04  8.7275363392157E-03  1.4133404107206E-01
144  1.4300000000000E+00 -6.7157547119191E-05  6.5703134555005E-03  1.1102615801035E-01
145  1.4400000000000E+00 -3.2766922179740E-04  4.7532988947379E-03  8.4348272551698E-02
146  1.4500000000000E+00 -4.5587178595678E-04  3.2566564199911E-03  6.1242152819252E-02
147  1.4600000000000E+00 -4.6531221876742E-04  2.0666881675470E-03  4.1578366519498E-02
148  1.4700000000000E+00 -3.8157892264100E-04  1.1670886257335E-03  2.5373016657465E-02
149  1.4800000000000E+00 -2.4203979183752E-04  5.3922332430149E-04  1.2804836371063E-02
150  1.4900000000000E+00 -9.4739825023938E-05  1.5978105211952E-04  4.1847465672924E-03
151  1.5000000000000E+00 -8.1162054936275E-06  1.0377193720884E-05  3.0561243805842E-04
152  1.5100000000000E+00  1.2921390621285E-06 -1.4628773068999E-06 -4.5758962369738E-05
153  1.5200000000000E+00 -2.0221526396632E-07  2.5981449140668E-07  7.6443865053919E-06
154  1.53 -0. -0.  0.
155  1.54  0.  0.  0.
156  1.55  0.  0.  0.
157  1.56  0.  0.  0.
158  1.57  0.  0.  0.
159  1.58  0.  0.  0.
160  1.59  0.  0.  0.
161  1.60  0.  0.  0.
162  1.61  0.  0.  0.
163  1.62  0.  0.  0.
164  1.63  0.  0.  0.
165  1.64  0.  0.  0.
166  1.65  0.  0.  0.
167  1.66  0.  0.  0.
168  1.67  0.  0.  0.
169  1.68  0.  0.  0.
170  1.69  0.  0.  0.
171  1.70  0.  0.  0.
172  1.71  0.  0.  0.
173  1.72  0.  0.  0.
174  1.73  0.  0.  0.
175  1.74  0.  0.  0.
176  1.75  0.  0.  0.
177  1.76  0.  0.  0.
178  1.77  0.  0.  0.
179  1.78  0.  0.  0.
180  1.79  0.  0.  0.
181  1.80  0.  0.  0.
182  1.81  0.  0.  0.
183  1.82  0.  0.  0.
184  1.83  0.  0.  0.
185  1.84  0.  0.  0.
186  1.85  0.  0.  0.
187  1.86  0.  0.  0.
188  1.87  0.  0.  0.
189  1.88  0.  0.  0.
190  1.89  0.  0.  0.
191  1.90  0.  0.  0.
192  1.91  0.  0.  0.
193  1.92  0.  0.  0.
194  1.93  0.  0.  0.
195  1.94  0.  0.  0.
196  1.95  0.  0.  0.
197  1.96  0.  0.  0.
198  1.97  0.  0.  0.
199  1.98  0.  0.  0.
200  1.99  0.  0.  0.
201  2.00  0.  0.  0.
202  2.01  0.  0.  0.
203  2.02  0.  0.  0.
204  2.03  0.  0.  0.
205  2.04  0.  0.  0.
206  2.05  0.  0.  0.
207  2.06  0.  0.  0.
208  2.07  0.  0.  0.
209  2.08  0.  0.  0.
210  2.09  0.  0.  0.
211  2.10  0.  0.  0.
212  2.11  0.  0.  0.
213  2.12  0.  0.  0.
214  2.13  0.  0.  0.
215  2.14  0.  0.  0.
216  2.15  0.  0.  0.
217  2.16  0.  0.  0.
218  2.17  0.  0.  0.
219  2.18  0.  0.  0.
220  2.19  0.  0.  0.
221  2.20  0.  0.  0.
222  2.21  0.  0.  0.
223  2.22  0.  0.  0.
224  2.23  0.  0.  0.
225  2.24  0.  0.  0.
226  2.25  0.  0.  0.
227  2.26  0.  0.  0.
228  2.27  0.  0.  0.
229  2.28  0.  0.  0.
230  2.29  0.  0.  0.
231  2.30  0.  0.  0.
232  2.31  0.  0.  0.
233  2.32  0.  0.  0.
234  2.33  0.  0.  0.
235  2.34  0.  0.  0.
236  2.35  0.  0.  0.
237  2.36  0.  0.  0.
238  2.37  0.  0.  0.
239  2.38  0.  0.  0.
240  2.39  0.  0.  0.
241  2.40  0.  0.  0.
242  2.41  0.  0.  0.
243  2.42  0.  0.  0.
244  2.43  0.  0.  0.
245  2.44  0.  0.  0.
246  2.45  0.  0.  0.
247  2.46  0.  0.  0.
248  2.47  0.  0.  0.
249  2.48  0.  0.  0.
250  2.49  0.  0.  0.
251  2.50  0.  0.  0.
252  2.51  0.  0.  0.
253  2.52  0.  0.  0.
254  2.53  0.  0.  0.
255  2.54  0.  0.  0.
256  2.55  0.  0.  0.
257  2.56  0.  0.  0.
258  2.57  0.  0.  0.
259  2.58  0.  0.  0.
260  2.59  0.  0.  0.
261  2.60  0.  0.  0.
262  2.61  0.  0.  0.
263  2.62  0.  0.  0.
264  2.63  0.  0.  0.
265  2.64  0.  0.  0.
266  2.65  0.  0.  0.
267  2.66  0.  0.  0.
268  2.67  0.  0.  0.
269  2.68  0.  0.  0.
270  2.69  0.  0.  0.
271  2.70  0.  0.  0.
272  2.71  0.  0.  0.
273  2.72  0.  0.  0.
274  2.73  0.  0.  0.
275  2.74  0.  0.  0.
276  2.75  0.  0.  0.
277  2.76  0.  0.  0.
278  2.77  0.  0.  0.
279  2.78  0.  0.  0.
280  2.79  0.  0.  0.
281  2.80  0.  0.  0.
282  2.81  0.  0.  0.
283  2.82  0.  0.  0.
284  2.83  0.  0.  0.
285  2.84  0.  0.  0.
286  2.85  0.  0.  0.
287  2.86  0.  0.  0.
288  2.87  0.  0.  0.
289  2.88  0.  0.  0.
290  2.89  0.  0.  0.
291  2.90  0.  0.  0.
292  2.91  0.  0.  0.
293  2.92  0.  0.  0.
294  2.93  0.  0.  0.
295  2.94  0.  0.  0.
296  2.95  0.  0.  0.
297  2.96  0.  0.  0.
298  2.97  0.  0.  0.
299  2.98  0.  0.  0.
300  2.99  0.  0.  0.
301  3.00  0.  0.  0.
302  3.01  0.  0.  0.
303  3.02  0.  0.  0.
304  3.03  0.  0.  0.
305  3.04  0.  0.  0.
306  3.05  0.  0.  0.
307  3.06  0.  0.  0.
308  3.07  0.  0.  0.
309  3.08  0.  0.  0.
310  3.09  0.  0.  0.
311  3.10  0.  0.  0.
312  3.11  0.  0.  0.
313  3.12  0.  0.  0.
314  3.13  0.  0.  0.
315  3.14  0.  0.  0.
316  3.15  0.  0.  0.
317  3.16  0.  0.  0.
318  3.17  0.  0.  0.
319  3.18  0.  0.  0.
320  3.19  0.  0.  0.
321  3.20  0.  0.  0.
322  3.21  0.  0.  0.
323  3.22  0.  0.  0.
324  3.23  0.  0.  0.
325  3.24  0.  0.  0.
326  3.25  0.  0.  0.
327  3.26  0.  0.  0.
328  3.27  0.  0.  0.
329  3.28  0.  0.  0.
330  3.29  0.  0.  0.
331  3.30  0.  0.  0.
332  3.31  0.  0.  0.
333  3.32  0.  0.  0.
334  3.33  0.  0.  0.
335  3.34  0.  0.  0.
336  3.35  0.  0.  0.
337  3.36  0.  0.  0.
338  3.37  0.  0.  0.
339  3.38  0.  0.  0.
340  3.39  0.  0.  0.
341  3.40  0.  0.  0.
342  3.41  0.  0.  0.
343  3.42  0.  0.  0.
344  3.43  0.  0.  0.
345  3.44  0.  0.  0.
346  3.45  0.  0.  0.
347  3.46  0.  0.  0.
348  3.47  0.  0.  0.
349  3.48  0.  0.  0.
350  3.49  0.  0.  0.
351  3.50  0.  0.  0.
352  3.51  0.  0.  0.
353  3.52  0.  0.  0.
354  3.53  0.  0.  0.
355  3.54  0.  0.  0.
356  3.55  0.  0.  0.
357  3.56  0.  0.  0.
358  3.57  0.  0.  0.
359  3.58  0.  0.  0.
360  3.59  0.  0.  0.
361  3.60  0.  0.  0.
362  3.61  0.  0.  0.
363  3.62  0.  0.  0.
364  3.63  0.  0.  0.
365  3.64  0.  0.  0.
366  3.65  0.  0.  0.
367  3.66  0.  0.  0.
368  3.67  0.  0.  0.
369  3.68  0.  0.  0.
370  3.69  0.  0.  0.
371  3.70  0.  0.  0.
372  3.71  0.  0.  0.
373  3.72  0.  0.  0.
374  3.73  0.  0.  0.
375  3.74  0.  0.  0.
376  3.75  0.  0.  0.
377  3.76  0.  0.  0.
378  3.77  0.  0.  0.
379  3.78  0.  0.  0.
380  3.79  0.  0.  0.
381  3.80  0.  0.  0.
382  3.81  0.  0.  0.
383  3.82  0.  0.  0.
384  3.83  0.  0.  0.
385  3.84  0.  0.  0.
386  3.85  0.  0.  0.
387  3.86  0.  0.  0.
388  3.87  0.  0.  0.
389  3.88  0.  0.  0.
390  3.89  0.  0.  0.
391  3.90  0.  0.  0.
392  3.91  0.  0.  0.
393  3.92  0.  0.  0.
394  3.93  0.  0.  0.
395  3.94  0.  0.  0.
396  3.95  0.  0.  0.
397  3.96  0.  0.  0.
398  3.97  0.  0.  0.
399  3.98  0.  0.  0.
400  3.99  0.  0.  0.
401  4.00  0.  0.  0.
402  4.01  0.  0.  0.
403  4.02  0.  0.  0.
404  4.03  0.  0.  0.
405  4.04  0.  0.  0.
406  4.05  0.  0.  0.
407  4.06  0.  0.  0.
408  4.07  0.  0.  0.
409  4.08  0.  0.  0.
410  4.09  0.  0.  0.
411  4.10  0.  0.  0.
412  4.11  0.  0.  0.
413  4.12  0.  0.  0.
414  4.13  0.  0.  0.
415  4.14  0.  0.  0.
416  4.15  0.  0.  0.
417  4.16  0.  0.  0.
418  4.17  0.  0.  0.
419  4.18  0.  0.  0.
420  4.19  0.  0.  0.
421  4.20  0.  0.  0.
422  4.21  0.  0.  0.
423  4.22  0.  0.  0.
424  4.23  0.  0.  0.
425  4.24  0.  0.  0.
426  4.25  0.  0.  0.
427  4.26  0.  0.  0.
428  4.27  0.  0.  0.
429  4.28  0.  0.  0.
430  4.29  0.  0.  0.
431  4.30  0.  0.  0.
432  4.31  0.  0.  0.
433  4.32  0.  0.  0.
434  4.33  0.  0.  0.
435  4.34  0.  0.  0.
436  4.35  0.  0.  0.
437  4.36  0.  0.  0.
438  4.37  0.  0.  0.
439  4.38  0.  0.  0.
440  4.39  0.  0.  0.
441  4.40  0.  0.  0.
442  4.41  0.  0.  0.
443  4.42  0.  0.  0.
444  4.43  0.  0.  0.
445  4.44  0.  0.  0.
446  4.45  0.  0.  0.
447  4.46  0.  0.  0.
448  4.47  0.  0.  0.
449  4.48  0.  0.  0.
450  4.49  0.  0.  0.
451  4.50  0.  0.  0.
452  4.51  0.  0.  0.
453  4.52  0.  0.  0.
454  4.53  0.  0.  0.
455  4.54  0.  0.  0.
456  4.55  0.  0.  0.
457  4.56  0.  0.  0.
458  4.57  0.  0.  0.
459  4.58  0.  0.  0.
460  4.59  0.  0.  0.
461  4.60  0.  0.  0.
462  4.61  0.  0.  0.
463  4.62  0.  0.  0.
464  4.63  0.  0.  0.
465  4.64  0.  0.  0.
466  4.65  0.  0.  0.
467  4.66  0.  0.  0.
468  4.67  0.  0.  0.
469  4.68  0.  0.  0.
470  4.69  0.  0.  0.
471  4.70  0.  0.  0.
472  4.71  0.  0.  0.
473  4.72  0.  0.  0.
474  4.73  0.  0.  0.
475  4.74  0.  0.  0.
476  4.75  0.  0.  0.
477  4.76  0.  0.  0.
478  4.77  0.  0.  0.
479  4.78  0.  0.  0.
480  4.79  0.  0.  0.
481  4.80  0.  0.  0.
482  4.81  0.  0.  0.
483  4.82  0.  0.  0.
484  4.83  0.  0.  0.
485  4.84  0.  0.  0.
486  4.85  0.  0.  0.
487  4.86  0.  0.  0.
488  4.87  0.  0.  0.
489  4.88  0.  0.  0.
490  4.89  0.  0.  0.
491  4.90  0.  0.  0.
492  4.91  0.  0.  0.
493  4.92  0.  0.  0.
494  4.93  0.  0.  0.
495  4.94  0.  0.  0.
496  4.95  0.  0.  0.
497  4.96  0.  0.  0.
498  4.97  0.  0.  0.
499  4.98  0.  0.  0.
500  4.99  0.  0.  0.
501  5.00  0.  0.  0.
502  5.01  0.  0.  0.
503  5.02  0.  0.  0.
504  5.03  0.  0.  0.
505  5.04  0.  0.  0.
506  5.05  0.  0.  0.
507  5.06  0.  0.  0.
508  5.07  0.  0.  0.
509  5.08  0.  0.  0.
510  5.09  0.  0.  0.
511  5.10  0.  0.  0.
512  5.11  0.  0.  0.
513  5.12  0.  0.  0.
514  5.13  0.  0.  0.
515  5.14  0.  0.  0.
516  5.15  0.  0.  0.
517  5.16  0.  0.  0.
518  5.17  0.  0.  0.
519  5.18  0.  0.  0.
520  5.19  0.  0.  0.
521  5.20  0.  0.  0.
522  5.21  0.  0.  0.
523  5.22  0.  0.  0.
524  5.23  0.  0.  0.
525  5.24  0.  0.  0.
526  5.25  0.  0.  0.
527  5.26  0.  0.  0.
528  5.27  0.  0.  0.
529  5.28  0.  0.  0.
530  5.29  0.  0.  0.
531  5.30  0.  0.  0.
532  5.31  0.  0.  0.
533  5.32  0.  0.  0.
534  5.33  0.  0.  0.
535  5.34  0.  0.  0.
536  5.35  0.  0.  0.
537  5.36  0.  0.  0.
538  5.37  0.  0.  0.
539  5.38  0.  0.  0.
540  5.39  0.  0.  0.
541  5.40  0.  0.  0.
542  5.41  0.  0.  0.
543  5.42  0.  0.  0.
544  5.43  0.  0.  0.
545  5.44  0.  0.  0.
546  5.45  0.  0.  0.
547  5.46  0.  0.  0.
548  5.47  0.  0.  0.
549  5.48  0.  0.  0.
550  5.49  0.  0.  0.
551  5.50  0.  0.  0.
552  5.51  0.  0.  0.
553  5.52  0.  0.  0.
554  5.53  0.  0.  0.
555  5.54  0.  0.  0.
556  5.55  0.  0.  0.
557  5.56  0.  0.  0.
558  5.57  0.  0.  0.
559  5.58  0.  0.  0.
560  5.59  0.  0.  0.
561  5.60  0.  0.  0.
562  5.61  0.  0.  0.
563  5.62  0.  0.  0.
564  5.63  0.  0.  0.
565  5.64  0.  0.  0.
566  5.65  0.  0.  0.
567  5.66  0.  0.  0.
568  5.67  0.  0.  0.
569  5.68  0.  0.  0.
570  5.69  0.  0.  0.
571  5.70  0.  0.  0.
572  5.71  0.  0.  0.
573  5.72  0.  0.  0.
574  5.73  0.  0.  0.
575  5.74  0.  0.  0.
576  5.75  0.  0.  0.
577  5.76  0.  0.  0.
578  5.77  0.  0.  0.
579  5.78  0.  0.  0.
580  5.79  0.  0.  0.
581  5.80  0.  0.  0.
582  5.81  0.  0.  0.
583  5.82  0.  0.  0.
584  5.83  0.  0.  0.
585  5.84  0.  0.  0.
586  5.85  0.  0.  0.
587  5.86  0.  0.  0.
588  5.87  0.  0.  0.
589  5.88  0.  0.  0.
590  5.89  0.  0.  0.
591  5.90  0.  0.  0.
592  5.91  0.  0.  0.
593  5.92  0.  0.  0.
594  5.93  0.  0.  0.
595  5.94  0.  0.  0.
596  5.95  0.  0.  0.
597  5.96  0.  0.  0.
598  5.97  0.  0.  0.
599  5.98  0.  0.  0.
600  5.99  0.  0.  0.
1                         9.7012860669302E+00 -1.2248336963686E+00
1  0.0000000000000E+00  1.5119253626850E-09 -7.1432261196597E-10
2  1.0000000000000E-02  2.9891091654916E-03 -4.6495990822138E-06
3  2.0000000000000E-02  1.1936532306629E-02 -1.6592624154498E-05
4  3.0000000000000E-02  2.6782687994050E-02 -2.9834803050689E-05
5  4.0000000000000E-02  4.7428711877434E-02 -3.4462060527005E-05
6  5.0000000000000E-02  7.3737111083912E-02 -1.6753569614791E-05
7  6.0000000000000E-02  1.0553267507687E-01  4.0662972607528E-05
8  7.0000000000000E-02  1.4260363767637E-01  1.5861675682633E-04
9  8.0000000000000E-02  1.8470308343037E-01  3.6116358721416E-04
10  9.0000000000000E-02  2.3155059001770E-01  6.7532417698910E-04
11  1.0000000000000E-01  2.8283409686216E-01  1.1307958002604E-03
12  1.1000000000000E-01  3.3821198864809E-01  1.7596425055847E-03
13  1.2000000000000E-01  3.9731538095615E-01  2.5959693945139E-03
14  1.3000000000000E-01  4.5975059379277E-01  3.6755866380299E-03
15  1.4000000000000E-01  5.2510179737722E-01  5.0356689418403E-03
16  1.5000000000000E-01  5.9293381318689E-01  6.7144160767602E-03
17  1.6000000000000E-01  6.6279505195798E-01  8.7507198656667E-03
18  1.7000000000000E-01  7.3422056910829E-01  1.1183842669269E-02
19  1.8000000000000E-01  8.0673521690789E-01  1.4053111947443E-02
20  1.9000000000000E-01  8.7985687168637E-01  1.7397634902891E-02
21  2.0000000000000E-01  9.5309971345117E-01  2.1256036552670E-02
22  2.1000000000000E-01  1.0259775345155E+00  2.5666223837279E-02
23  2.2000000000000E-01  1.0980070531147E+00  3.0665177583964E-02
24  2.3000000000000E-01  1.1687112075419E+00  3.6288773310283E-02
25  2.4000000000000E-01  1.2376224060765E+00  4.2571631006054E-02
26  2.5000000000000E-01  1.3042857079195E+00  4.9546993187332E-02
27  2.6000000000000E-01  1.3682619105098E+00  5.7246629696193E-02
28  2.7000000000000E-01  1.4291305189799E+00  6.5700766945018E-02
29  2.8000000000000E-01  1.4864925741226E+00  7.4938038593537E-02
30  2.9000000000000E-01  1.5399733160999E+00  8.4985454019036E-02
31  3.0000000000000E-01  1.5892246622151E+00  9.5868380411507E-02
32  3.1000000000000E-01  1.6339274784076E+00  1.0761053391000E-01
33  3.2000000000000E-01  1.6737936256899E+00  1.2023397490610E-01
34  3.3000000000000E-01  1.7085677645421E+00  1.3375910248368E-01
35  3.4000000000000E-01  1.7380289022770E+00  1.4820464294703E-01
36  3.5000000000000E-01  1.7619916705868E+00  1.6358762751455E-01
37  3.6000000000000E-01  1.7803073228536E+00  1.7992335452155E-01
38  3.7000000000000E-01  1.7928644433290E+00  1.9722533187985E-01
39  3.8000000000000E-01  1.7995893629356E+00  2.1550519607560E-01
40  3.9000000000000E-01  1.8004462791853E+00  2.3477260464073E-01
41  4.0000000000000E-01  1.7954370805186E+00  2.5503509979371E-01
42  4.1000000000000E-01  1.7846008782023E+00  2.7629794179580E-01
43  4.2000000000000E-01  1.7680132517575E+00  2.9856391149211E-01
44  4.3000000000000E-01  1.7457852166758E+00  3.2183308248199E-01
45  4.4000000000000E-01  1.7180619258978E+00  3.4610256436817E-01
46  4.5000000000000E-01  1.6850211191216E+00  3.7136621954765E-01
47  4.6000000000000E-01  1.6468713364615E+00  3.9761435700437E-01
48  4.7000000000000E-01  1.6038499152409E+00  4.2483340752217E-01
49  4.8000000000000E-01  1.5562207907596E+00  4.5300558563298E-01
50  4.9000000000000E-01  1.5042721236815E+00  4.8210854442801E-01
51  5.0000000000000E-01  1.4483137782363E+00  5.1211503006815E-01
52  5.1000000000000E-01  1.3886746766771E+00  5.4299254341541E-01
53  5.2000000000000E-01  1.3257000563869E+00  5.7470301665388E-01
54  5.3000000000000E-01  1.2597486566492E+00  6.0720251306288E-01
55  5.4000000000000E-01  1.1911898624005E+00  6.4044095823585E-01
56  5.5000000000000E-01  1.1204008322468E+00  6.7436191099906E-01
57  5.6000000000000E-01  1.0477636376676E+00  7.0890238207107E-01
58  5.7000000000000E-01  9.7366243964434E-01  7.4399270811569E-01
59  5.8000000000000E-01  8.9848072795927E-01  7.7955648828272E-01
60  5.9000000000000E-01  8.2259864711934E-01  8.1551058960787E-01
61  6.0000000000000E-01  7.4639043130325E-01  8.5176522676742E-01
62  6.1000000000000E-01  6.7022196892088E-01  8.8822412066724E-01
63  6.2000000000000E-01  5.9444851535028E-01  9.2478473920725E-01
64  6.3000000000000E-01  5.1941257020801E-01  9.6133862232064E-01
65  6.4000000000000E-01  4.4544193314835E-01  9.9777179206399E-01
66  6.5000000000000E-01  3.7284794971433E-01  1.0339652471539E+00
67  6.6000000000000E-01  3.0192395621628E-01  1.0697955399329E+00
68  6.7000000000000E-01  2.3294393003141E-01  1.1051354323294E+00
69  6.8000000000000E-01  1.6616134914031E-01  1.1398546259777E+00
70  6.9000000000000E-01  1.0180826218092E-01  1.1738205603170E+00
71  7.0000000000000E-01  4.0094567847161E-02  1.2068992712089E+00
72  7.1000000000000E-01 -1.8792499880206E-02  1.2389563014385E+00
73  7.2000000000000E-01 -7.4688686372118E-02  1.2698576534083E+00
74  7.3000000000000E-01 -1.2745283857276E-01  1.2994707734206E+00
75  7.4000000000000E-01 -1.7696684432562E-01  1.3276655561982E+00
76  7.5000000000000E-01 -2.2313539990693E-01  1.3543153577162E+00
77  7.6000000000000E-01 -2.6588561820854E-01  1.3792980040390E+00
78  7.7000000000000E-01 -3.0516649109442E-01  1.4024967836734E+00
79  7.8000000000000E-01 -3.4094822027503E-01  1.4238014109684E+00
80  7.9000000000000E-01 -3.7322143159622E-01  1.4431089483218E+00
81  8.0000000000000E-01 -4.0199628792939E-01  1.4603246753839E+00
82  8.1000000000000E-01 -4.2730151588173E-01  1.4753628940755E+00
83  8.2000000000000E-01 -4.4918336133333E-01  1.4881476590534E+00
84  8.3000000000000E-01 -4.6770448836702E-01  1.4986134242457E+00
85  8.4000000000000E-01 -4.8294283550722E-01  1.5067055972230E+00
86  8.5000000000000E-01 -4.9499044234976E-01  1.5123809944542E+00
87  8.6000000000000E-01 -5.0395225867206E-01  1.5156081918932E+00
88  8.7000000000000E-01 -5.0994494699136E-01  1.5163677668264E+00
89  8.8000000000000E-01 -5.1309568831896E-01  1.5146524284640E+00
90  8.9000000000000E-01 -5.1354099957201E-01  1.5104670363402E+00
91  9.0000000000000E-01 -5.1142556978470E-01  1.5038285071844E+00
92  9.1000000000000E-01 -5.0690112093914E-01  1.4947656124952E+00
93  9.2000000000000E-01 -5.0012529794432E-01  1.4833186705770E+00
94  9.3000000000000E-01 -4.9126059105903E-01  1.4695391382470E+00
95  9.4000000000000E-01 -4.8047329290917E-01  1.4534891087701E+00
96  9.5000000000000E-01 -4.6793249121586E-01  1.4352407238071E+00