Ds    ONCVPSP-4.0.1  r_core=   1.10457   1.10457   1.10457   1.14493
110.0000     50.0000      231012    zatom,zion,pspd
8   -1012   3     4   600     0    pspcod,pspxc,lmax,lloc,mmax,r2well
5.99000000  3.80000000  0.00000000    rchrg fchrg qchrg
3     4     2     2    nproj
3     1           extension_switch
4     4     3    nprojso
0                         1.3459794468007E+01 -1.1401863965572E+01  1.5716778278476E+00
1  0.0000000000000E+00  6.9669858770993E-08 -2.5037173445597E-09  1.2878794478088E-07
2  1.0000000000000E-02  1.6501836843053E-01  7.9795707217669E-02  2.6895711392346E-02
3  2.0000000000000E-02  3.2859104264667E-01  1.5937366525327E-01  5.3148962615476E-02
4  3.0000000000000E-02  4.8928154196930E-01  2.3851730080977E-01  7.8120251742932E-02
5  4.0000000000000E-02  6.4567202906281E-01  3.1701237375665E-01  1.0117646353328E-01
6  5.0000000000000E-02  7.9637315197153E-01  3.9464809791390E-01  1.2169520059878E-01
7  6.0000000000000E-02  9.4003445490293E-01  4.7121820883008E-01  1.3907037674628E-01
8  7.0000000000000E-02  1.0753554580520E+00  5.4652196403852E-01  1.5271932785060E-01
9  8.0000000000000E-02  1.2010974370913E+00  6.2036506377967E-01  1.6209156683231E-01
10  9.0000000000000E-02  1.3160958540063E+00  6.9256048307061E-01  1.6667916367499E-01
11  1.0000000000000E-01  1.4192733075110E+00  7.6292920914527E-01  1.6602857790205E-01
12  1.1000000000000E-01  1.5096527884597E+00  8.3130088152916E-01  1.5975361913345E-01
13  1.2000000000000E-01  1.5863709486671E+00  8.9751433519637E-01  1.4754907093605E-01
14  1.3000000000000E-01  1.6486910253368E+00  9.6141805023133E-01  1.2920439339014E-01
15  1.4000000000000E-01  1.6960150123755E+00  1.0228705140466E+00  1.0461682885668E-01
16  1.5000000000000E-01  1.7278946379684E+00  1.0817405043674E+00  7.3803180129005E-02
17  1.6000000000000E-01  1.7440406977207E+00  1.1379073027898E+00  3.6909515408406E-02
18  1.7000000000000E-01  1.7443303060898E+00  1.1912608496867E+00 -5.7819168932091E-03
19  1.8000000000000E-01  1.7288116661912E+00  1.2417018515380E+00 -5.3849208256727E-02
20  1.9000000000000E-01  1.6977060185155E+00  1.2891418514047E+00 -1.0673127588833E-01
21  2.0000000000000E-01  1.6514065105551E+00  1.3335032722816E+00 -1.6373269396298E-01
22  2.1000000000000E-01  1.5904738285357E+00  1.3747194415261E+00 -2.2403306821915E-01
23  2.2000000000000E-01  1.5156285450842E+00  1.4127346025629E+00 -2.8670094799885E-01
24  2.3000000000000E-01  1.4277402576277E+00  1.4475039177295E+00 -3.5071205387779E-01
25  2.4000000000000E-01  1.3278137159029E+00  1.4789934636049E+00 -4.1497138194385E-01
26  2.5000000000000E-01  1.2169722571731E+00  1.5071802175897E+00 -4.7833853898439E-01
27  2.6000000000000E-01  1.0964389785998E+00  1.5320520320493E+00 -5.3965547757436E-01
28  2.7000000000000E-01  9.6751617201577E-01  1.5536075901340E+00 -5.9777564685256E-01
29  2.8000000000000E-01  8.3156362199212E-01  1.5718563355914E+00 -6.5159346282077E-01
30  2.9000000000000E-01  6.8997641937429E-01  1.5868183676025E+00 -7.0007293869892E-01
31  3.0000000000000E-01  5.4416296622924E-01  1.5985242909955E+00 -7.4227430636383E-01
32  3.1000000000000E-01  3.9552384255885E-01  1.6070150121811E+00 -7.7737750675864E-01
33  3.2000000000000E-01  2.4543216971167E-01  1.6123414718320E+00 -8.0470153020862E-01
34  3.3000000000000E-01  9.5216041152270E-02  1.6145643066901E+00 -8.2371874378095E-01
35  3.4000000000000E-01 -5.3856499479727E-02  1.6137534348746E+00 -8.3406354641451E-01
36  3.5000000000000E-01 -2.0058956652779E-01  1.6099875616035E+00 -8.3553493518132E-01
37  3.6000000000000E-01 -3.4386839143101E-01  1.6033536052158E+00 -8.2809283720048E-01
38  3.7000000000000E-01 -4.8266504066043E-01  1.5939460466480E+00 -8.1184834912712E-01
39  3.8000000000000E-01 -6.1604094878706E-01  1.5818662089202E+00 -7.8704831631434E-01
40  3.9000000000000E-01 -7.4314646974336E-01  1.5672214765504E+00 -7.5405496266309E-01
41  4.0000000000000E-01 -8.6321778733660E-01  1.5501244679649E+00 -7.1332153588767E-01
42  4.1000000000000E-01 -9.7557164851643E-01  1.5306921767378E+00 -6.6536514828649E-01
43  4.2000000000000E-01 -1.0795984835752E+00  1.5090450997095E+00 -6.1073815837923E-01
44  4.3000000000000E-01 -1.1747545510671E+00  1.4853063715790E+00 -5.4999954426838E-01
45  4.4000000000000E-01 -1.2605537876364E+00  1.4596009263122E+00 -4.8368775816678E-01
46  4.5000000000000E-01 -1.3365600514163E+00  1.4320547055994E+00 -4.1229651903900E-01
47  4.6000000000000E-01 -1.4023804210037E+00  1.4027939335849E+00 -3.3625489581060E-01
48  4.7000000000000E-01 -1.4576601507173E+00  1.3719444751889E+00 -2.5591285958569E-01
49  4.8000000000000E-01 -1.5020797890077E+00  1.3396312925983E+00 -1.7153324561370E-01
50  4.9000000000000E-01 -1.5353548442519E+00  1.3059780110021E+00 -8.3290773397281E-02
51  5.0000000000000E-01 -1.5572382359092E+00  1.2711066005222E+00  8.7215617600814E-03
52  5.1000000000000E-01 -1.5675256055832E+00  1.2351371766982E+00  1.0447877601296E-01
53  5.2000000000000E-01 -1.5660633893525E+00  1.1981879170203E+00  2.0400328917374E-01
54  5.3000000000000E-01 -1.5527593779034E+00  1.1603750860613E+00  3.0733821899631E-01
55  5.4000000000000E-01 -1.5275953229062E+00  1.1218131569703E+00  4.1451572324086E-01
56  5.5000000000000E-01 -1.4906409950749E+00  1.0826150126614E+00  5.2552184416897E-01
57  5.6000000000000E-01 -1.4420689692879E+00  1.0428922061752E+00  6.4025956356463E-01
58  5.7000000000000E-01 -1.3821693120921E+00  1.0027552565963E+00  7.5851196040278E-01
59  5.8000000000000E-01 -1.3113632827160E+00  9.6231395473805E-01  8.7990746667577E-01
60  5.9000000000000E-01 -1.2302151347876E+00  9.2167765168462E-01  1.0038892316976E+00
61  6.0000000000000E-01 -1.1394411249693E+00  8.8095550329034E-01  1.1296905272445E+00
62  6.1000000000000E-01 -1.0399148974868E+00  8.4025664491417E-01  1.2563179550113E+00
63  6.2000000000000E-01 -9.3266851887533E-01  7.9969027300533E-01  1.3825439581028E+00
64  6.3000000000000E-01 -8.1888858204985E-01  7.5936561358279E-01  1.5069097978160E+00
65  6.4000000000000E-01 -6.9990697799658E-01  7.1939176206056E-01  1.6277397478676E+00
66  6.5000000000000E-01 -5.7718614024336E-01  6.7987738410120E-01  1.7431667960445E+00
67  6.6000000000000E-01 -4.5229879357837E-01  6.4093027303517E-01  1.8511696464711E+00
68  6.7000000000000E-01 -3.2690247492040E-01  6.0265676563435E-01  1.9496203049166E+00
69  6.8000000000000E-01 -2.0270933070117E-01  5.6516102442180E-01  2.0363410267865E+00
70  6.9000000000000E-01 -8.1451921172630E-02  5.2854420097205E-01  2.1091689350318E+00
71  7.0000000000000E-01  3.5154032558235E-02  4.9290350054162E-01  2.1660261949013E+00
72  7.1000000000000E-01  1.4544884796993E-01  4.5833117361212E-01  2.2049932845588E+00
73  7.2000000000000E-01  2.4786878026066E-01  4.2491346429459E-01  2.2243826427220E+00
74  7.3000000000000E-01  3.4098528464687E-01  3.9272954883185E-01  2.2228098210746E+00
75  7.4000000000000E-01  4.2354226715308E-01  3.6185049948559E-01  2.1992592304529E+00
76  7.5000000000000E-01  4.9448996596047E-01  3.3233830979554E-01  2.1531416513014E+00
77  7.6000000000000E-01  5.5301417797063E-01  3.0424501649445E-01  2.0843408810785E+00
78  7.7000000000000E-01  5.9855967220387E-01  2.7761195125778E-01  1.9932472093583E+00
79  7.8000000000000E-01  6.3084680912499E-01  2.5246915202426E-01  1.8807758353559E+00
80  7.9000000000000E-01  6.4988060672797E-01  2.2883495896440E-01  1.7483688574402E+00
81  8.0000000000000E-01  6.5595175190390E-01  2.0671581447489E-01  1.5979800505456E+00
82  8.1000000000000E-01  6.4962933911718E-01  1.8610628006071E-01  1.4320422820595E+00
83  8.2000000000000E-01  6.3174541615951E-01  1.6698927589588E-01  1.2534180737570E+00
84  8.3000000000000E-01  6.0337171627062E-01  1.4933654151954E-01  1.0653344689582E+00
85  8.4000000000000E-01  5.6578924427261E-01  1.3310930883092E-01  8.7130398185255E-01
86  8.5000000000000E-01  5.2045164882183E-01  1.1825917160612E-01  6.7503396216519E-01
87  8.6000000000000E-01  4.6894354137705E-01  1.0472912946755E-01  4.8032717709001E-01
88  8.7000000000000E-01  4.1293510423614E-01  9.2454778868629E-02  2.9097677081912E-01
89  8.8000000000000E-01  3.5413445599733E-01  8.1365619449883E-02  1.1065899134900E-01
90  8.9000000000000E-01  2.9423930626255E-01  7.1386441265958E-02 -5.7172839139249E-02
91  9.0000000000000E-01  2.3488942810489E-01  6.2438757011744E-02 -2.0938969795977E-01
92  9.1000000000000E-01  1.7762140539608E-01  5.4442243556528E-02 -3.4328038324944E-01
93  9.2000000000000E-01  1.2382697407061E-01  4.7316158831719E-02 -4.5663434952456E-01
94  9.3000000000000E-01  7.4716076341949E-02  4.0980703341685E-02 -5.4781152242106E-01
95  9.4000000000000E-01  3.1285492105928E-02  3.5358300145728E-02 -6.1579737364374E-01
96  9.5000000000000E-01 -5.7063878232313E-03  3.0374772896658E-02 -6.6024224759015E-01
97  9.6000000000000E-01 -3.5758414374165E-02  2.5960408170052E-02 -6.8148470809621E-01
98  9.7000000000000E-01 -5.8639277770160E-02  2.2050895583404E-02 -6.8055948544965E-01
99  9.8000000000000E-01 -7.4394324557126E-02  1.8588146769871E-02 -6.5919141719924E-01
100  9.9000000000000E-01 -8.3347414973505E-02  1.5521001827385E-02 -6.1977756235836E-01
101  1.0000000000000E+00 -8.6098887843568E-02  1.2805837758259E-02 -5.6536015548983E-01
102  1.0100000000000E+00 -8.3520321929932E-02  1.0407088419083E-02 -4.9959162623167E-01
103  1.0200000000000E+00 -7.6699182223596E-02  8.2968598289059E-03 -4.2654579986725E-01
104  1.0300000000000E+00 -6.6805419183070E-02  6.4531550957263E-03 -3.5030407257580E-01
105  1.0400000000000E+00 -5.5018941560510E-02  4.8590632359923E-03 -2.7475393806711E-01
106  1.0500000000000E+00 -4.2482003438676E-02  3.5021263389160E-03 -2.0347083592641E-01
107  1.0600000000000E+00 -3.0202630906215E-02  2.3632843477547E-03 -1.3954262088788E-01
108  1.0700000000000E+00 -1.9103188592176E-02  1.4375418293537E-03 -8.5584759103418E-02
109  1.0800000000000E+00 -1.0019867108914E-02  7.3382892171595E-04 -4.3713906371968E-02
110  1.0900000000000E+00 -3.6175114532086E-03  2.6070075604998E-04 -1.5421685463591E-02
111  1.1000000000000E+00 -3.8453355200704E-04  2.7554798680090E-05 -1.6056906459757E-03
112  1.1100000000000E+00  1.4340735111071E-05 -1.0235563805874E-06  5.9130038819393E-05
113  1.1200000000000E+00  1.7598595458028E-06 -1.2593618979259E-07  7.3825201702697E-06
114  1.13  0.  0.  0.
115  1.14  0.  0.  0.
116  1.15  0.  0.  0.
117  1.16  0.  0.  0.
118  1.17  0.  0.  0.
119  1.18  0.  0.  0.
120  1.19  0.  0.  0.
121  1.20  0.  0.  0.
122  1.21  0.  0.  0.
123  1.22  0.  0.  0.
124  1.23  0.  0.  0.
125  1.24  0.  0.  0.
126  1.25  0.  0.  0.
127  1.26  0.  0.  0.
128  1.27  0.  0.  0.
129  1.28  0.  0.  0.
130  1.29  0.  0.  0.
131  1.30  0.  0.  0.
132  1.31  0.  0.  0.
133  1.32  0.  0.  0.
134  1.33  0.  0.  0.
135  1.34  0.  0.  0.
136  1.35  0.  0.  0.
137  1.36  0.  0.  0.
138  1.37  0.  0.  0.
139  1.38  0.  0.  0.
140  1.39  0.  0.  0.
141  1.40  0.  0.  0.
142  1.41  0.  0.  0.
143  1.42  0.  0.  0.
144  1.43  0.  0.  0.
145  1.44  0.  0.  0.
146  1.45  0.  0.  0.
147  1.46  0.  0.  0.
148  1.47  0.  0.  0.
149  1.48  0.  0.  0.
150  1.49  0.  0.  0.
151  1.50  0.  0.  0.
152  1.51  0.  0.  0.
153  1.52  0.  0.  0.
154  1.53  0.  0.  0.
155  1.54  0.  0.  0.
156  1.55  0.  0.  0.
157  1.56  0.  0.  0.
158  1.57  0.  0.  0.
159  1.58  0.  0.  0.
160  1.59  0.  0.  0.
161  1.60  0.  0.  0.
162  1.61  0.  0.  0.
163  1.62  0.  0.  0.
164  1.63  0.  0.  0.
165  1.64  0.  0.  0.
166  1.65  0.  0.  0.
167  1.66  0.  0.  0.
168  1.67  0.  0.  0.
169  1.68  0.  0.  0.
170  1.69  0.  0.  0.
171  1.70  0.  0.  0.
172  1.71  0.  0.  0.
173  1.72  0.  0.  0.
174  1.73  0.  0.  0.
175  1.74  0.  0.  0.
176  1.75  0.  0.  0.
177  1.76  0.  0.  0.
178  1.77  0.  0.  0.
179  1.78  0.  0.  0.
180  1.79  0.  0.  0.
181  1.80  0.  0.  0.
182  1.81  0.  0.  0.
183  1.82  0.  0.  0.
184  1.83  0.  0.  0.
185  1.84  0.  0.  0.
186  1.85  0.  0.  0.
187  1.86  0.  0.  0.
188  1.87  0.  0.  0.
189  1.88  0.  0.  0.
190  1.89  0.  0.  0.
191  1.90  0.  0.  0.
192  1.91  0.  0.  0.
193  1.92  0.  0.  0.
194  1.93  0.  0.  0.
195  1.94  0.  0.  0.
196  1.95  0.  0.  0.
197  1.96  0.  0.  0.
198  1.97  0.  0.  0.
199  1.98  0.  0.  0.
200  1.99  0.  0.  0.
201  2.00  0.  0.  0.
202  2.01  0.  0.  0.
203  2.02  0.  0.  0.
204  2.03  0.  0.  0.
205  2.04  0.  0.  0.
206  2.05  0.  0.  0.
207  2.06  0.  0.  0.
208  2.07  0.  0.  0.
209  2.08  0.  0.  0.
210  2.09  0.  0.  0.
211  2.10  0.  0.  0.
212  2.11  0.  0.  0.
213  2.12  0.  0.  0.
214  2.13  0.  0.  0.
215  2.14  0.  0.  0.
216  2.15  0.  0.  0.
217  2.16  0.  0.  0.
218  2.17  0.  0.  0.
219  2.18  0.  0.  0.
220  2.19  0.  0.  0.
221  2.20  0.  0.  0.
222  2.21  0.  0.  0.
223  2.22  0.  0.  0.
224  2.23  0.  0.  0.
225  2.24  0.  0.  0.
226  2.25  0.  0.  0.
227  2.26  0.  0.  0.
228  2.27  0.  0.  0.
229  2.28  0.  0.  0.
230  2.29  0.  0.  0.
231  2.30  0.  0.  0.
232  2.31  0.  0.  0.
233  2.32  0.  0.  0.
234  2.33  0.  0.  0.
235  2.34  0.  0.  0.
236  2.35  0.  0.  0.
237  2.36  0.  0.  0.
238  2.37  0.  0.  0.
239  2.38  0.  0.  0.
240  2.39  0.  0.  0.
241  2.40  0.  0.  0.
242  2.41  0.  0.  0.
243  2.42  0.  0.  0.
244  2.43  0.  0.  0.
245  2.44  0.  0.  0.
246  2.45  0.  0.  0.
247  2.46  0.  0.  0.
248  2.47  0.  0.  0.
249  2.48  0.  0.  0.
250  2.49  0.  0.  0.
251  2.50  0.  0.  0.
252  2.51  0.  0.  0.
253  2.52  0.  0.  0.
254  2.53  0.  0.  0.
255  2.54  0.  0.  0.
256  2.55  0.  0.  0.
257  2.56  0.  0.  0.
258  2.57  0.  0.  0.
259  2.58  0.  0.  0.
260  2.59  0.  0.  0.
261  2.60  0.  0.  0.
262  2.61  0.  0.  0.
263  2.62  0.  0.  0.
264  2.63  0.  0.  0.
265  2.64  0.  0.  0.
266  2.65  0.  0.  0.
267  2.66  0.  0.  0.
268  2.67  0.  0.  0.
269  2.68  0.  0.  0.
270  2.69  0.  0.  0.
271  2.70  0.  0.  0.
272  2.71  0.  0.  0.
273  2.72  0.  0.  0.
274  2.73  0.  0.  0.
275  2.74  0.  0.  0.
276  2.75  0.  0.  0.
277  2.76  0.  0.  0.
278  2.77  0.  0.  0.
279  2.78  0.  0.  0.
280  2.79  0.  0.  0.
281  2.80  0.  0.  0.
282  2.81  0.  0.  0.
283  2.82  0.  0.  0.
284  2.83  0.  0.  0.
285  2.84  0.  0.  0.
286  2.85  0.  0.  0.
287  2.86  0.  0.  0.
288  2.87  0.  0.  0.
289  2.88  0.  0.  0.
290  2.89  0.  0.  0.
291  2.90  0.  0.  0.
292  2.91  0.  0.  0.
293  2.92  0.  0.  0.
294  2.93  0.  0.  0.
295  2.94  0.  0.  0.
296  2.95  0.  0.  0.
297  2.96  0.  0.  0.
298  2.97  0.  0.  0.
299  2.98  0.  0.  0.
300  2.99  0.  0.  0.
301  3.00  0.  0.  0.
302  3.01  0.  0.  0.
303  3.02  0.  0.  0.
304  3.03  0.  0.  0.
305  3.04  0.  0.  0.
306  3.05  0.  0.  0.
307  3.06  0.  0.  0.
308  3.07  0.  0.  0.
309  3.08  0.  0.  0.
310  3.09  0.  0.  0.
311  3.10  0.  0.  0.
312  3.11  0.  0.  0.
313  3.12  0.  0.  0.
314  3.13  0.  0.  0.
315  3.14  0.  0.  0.
316  3.15  0.  0.  0.
317  3.16  0.  0.  0.
318  3.17  0.  0.  0.
319  3.18  0.  0.  0.
320  3.19  0.  0.  0.
321  3.20  0.  0.  0.
322  3.21  0.  0.  0.
323  3.22  0.  0.  0.
324  3.23  0.  0.  0.
325  3.24  0.  0.  0.
326  3.25  0.  0.  0.
327  3.26  0.  0.  0.
328  3.27  0.  0.  0.
329  3.28  0.  0.  0.
330  3.29  0.  0.  0.
331  3.30  0.  0.  0.
332  3.31  0.  0.  0.
333  3.32  0.  0.  0.
334  3.33  0.  0.  0.
335  3.34  0.  0.  0.
336  3.35  0.  0.  0.
337  3.36  0.  0.  0.
338  3.37  0.  0.  0.
339  3.38  0.  0.  0.
340  3.39  0.  0.  0.
341  3.40  0.  0.  0.
342  3.41  0.  0.  0.
343  3.42  0.  0.  0.
344  3.43  0.  0.  0.
345  3.44  0.  0.  0.
346  3.45  0.  0.  0.
347  3.46  0.  0.  0.
348  3.47  0.  0.  0.
349  3.48  0.  0.  0.
350  3.49  0.  0.  0.
351  3.50  0.  0.  0.
352  3.51  0.  0.  0.
353  3.52  0.  0.  0.
354  3.53  0.  0.  0.
355  3.54  0.  0.  0.
356  3.55  0.  0.  0.
357  3.56  0.  0.  0.
358  3.57  0.  0.  0.
359  3.58  0.  0.  0.
360  3.59  0.  0.  0.
361  3.60  0.  0.  0.
362  3.61  0.  0.  0.
363  3.62  0.  0.  0.
364  3.63  0.  0.  0.
365  3.64  0.  0.  0.
366  3.65  0.  0.  0.
367  3.66  0.  0.  0.
368  3.67  0.  0.  0.
369  3.68  0.  0.  0.
370  3.69  0.  0.  0.
371  3.70  0.  0.  0.
372  3.71  0.  0.  0.
373  3.72  0.  0.  0.
374  3.73  0.  0.  0.
375  3.74  0.  0.  0.
376  3.75  0.  0.  0.
377  3.76  0.  0.  0.
378  3.77  0.  0.  0.
379  3.78  0.  0.  0.
380  3.79  0.  0.  0.
381  3.80  0.  0.  0.
382  3.81  0.  0.  0.
383  3.82  0.  0.  0.
384  3.83  0.  0.  0.
385  3.84  0.  0.  0.
386  3.85  0.  0.  0.
387  3.86  0.  0.  0.
388  3.87  0.  0.  0.
389  3.88  0.  0.  0.
390  3.89  0.  0.  0.
391  3.90  0.  0.  0.
392  3.91  0.  0.  0.
393  3.92  0.  0.  0.
394  3.93  0.  0.  0.
395  3.94  0.  0.  0.
396  3.95  0.  0.  0.
397  3.96  0.  0.  0.
398  3.97  0.  0.  0.
399  3.98  0.  0.  0.
400  3.99  0.  0.  0.
401  4.00  0.  0.  0.
402  4.01  0.  0.  0.
403  4.02  0.  0.  0.
404  4.03  0.  0.  0.
405  4.04  0.  0.  0.
406  4.05  0.  0.  0.
407  4.06  0.  0.  0.
408  4.07  0.  0.  0.
409  4.08  0.  0.  0.
410  4.09  0.  0.  0.
411  4.10  0.  0.  0.
412  4.11  0.  0.  0.
413  4.12  0.  0.  0.
414  4.13  0.  0.  0.
415  4.14  0.  0.  0.
416  4.15  0.  0.  0.
417  4.16  0.  0.  0.
418  4.17  0.  0.  0.
419  4.18  0.  0.  0.
420  4.19  0.  0.  0.
421  4.20  0.  0.  0.
422  4.21  0.  0.  0.
423  4.22  0.  0.  0.
424  4.23  0.  0.  0.
425  4.24  0.  0.  0.
426  4.25  0.  0.  0.
427  4.26  0.  0.  0.
428  4.27  0.  0.  0.
429  4.28  0.  0.  0.
430  4.29  0.  0.  0.
431  4.30  0.  0.  0.
432  4.31  0.  0.  0.
433  4.32  0.  0.  0.
434  4.33  0.  0.  0.
435  4.34  0.  0.  0.
436  4.35  0.  0.  0.
437  4.36  0.  0.  0.
438  4.37  0.  0.  0.
439  4.38  0.  0.  0.
440  4.39  0.  0.  0.
441  4.40  0.  0.  0.
442  4.41  0.  0.  0.
443  4.42  0.  0.  0.
444  4.43  0.  0.  0.
445  4.44  0.  0.  0.
446  4.45  0.  0.  0.
447  4.46  0.  0.  0.
448  4.47  0.  0.  0.
449  4.48  0.  0.  0.
450  4.49  0.  0.  0.
451  4.50  0.  0.  0.
452  4.51  0.  0.  0.
453  4.52  0.  0.  0.
454  4.53  0.  0.  0.
455  4.54  0.  0.  0.
456  4.55  0.  0.  0.
457  4.56  0.  0.  0.
458  4.57  0.  0.  0.
459  4.58  0.  0.  0.
460  4.59  0.  0.  0.
461  4.60  0.  0.  0.
462  4.61  0.  0.  0.
463  4.62  0.  0.  0.
464  4.63  0.  0.  0.
465  4.64  0.  0.  0.
466  4.65  0.  0.  0.
467  4.66  0.  0.  0.
468  4.67  0.  0.  0.
469  4.68  0.  0.  0.
470  4.69  0.  0.  0.
471  4.70  0.  0.  0.
472  4.71  0.  0.  0.
473  4.72  0.  0.  0.
474  4.73  0.  0.  0.
475  4.74  0.  0.  0.
476  4.75  0.  0.  0.
477  4.76  0.  0.  0.
478  4.77  0.  0.  0.
479  4.78  0.  0.  0.
480  4.79  0.  0.  0.
481  4.80  0.  0.  0.
482  4.81  0.  0.  0.
483  4.82  0.  0.  0.
484  4.83  0.  0.  0.
485  4.84  0.  0.  0.
486  4.85  0.  0.  0.
487  4.86  0.  0.  0.
488  4.87  0.  0.  0.
489  4.88  0.  0.  0.
490  4.89  0.  0.  0.
491  4.90  0.  0.  0.
492  4.91  0.  0.  0.
493  4.92  0.  0.  0.
494  4.93  0.  0.  0.
495  4.94  0.  0.  0.
496  4.95  0.  0.  0.
497  4.96  0.  0.  0.
498  4.97  0.  0.  0.
499  4.98  0.  0.  0.
500  4.99  0.  0.  0.
501  5.00  0.  0.  0.
502  5.01  0.  0.  0.
503  5.02  0.  0.  0.
504  5.03  0.  0.  0.
505  5.04  0.  0.  0.
506  5.05  0.  0.  0.
507  5.06  0.  0.  0.
508  5.07  0.  0.  0.
509  5.08  0.  0.  0.
510  5.09  0.  0.  0.
511  5.10  0.  0.  0.
512  5.11  0.  0.  0.
513  5.12  0.  0.  0.
514  5.13  0.  0.  0.
515  5.14  0.  0.  0.
516  5.15  0.  0.  0.
517  5.16  0.  0.  0.
518  5.17  0.  0.  0.
519  5.18  0.  0.  0.
520  5.19  0.  0.  0.
521  5.20  0.  0.  0.
522  5.21  0.  0.  0.
523  5.22  0.  0.  0.
524  5.23  0.  0.  0.
525  5.24  0.  0.  0.
526  5.25  0.  0.  0.
527  5.26  0.  0.  0.
528  5.27  0.  0.  0.
529  5.28  0.  0.  0.
530  5.29  0.  0.  0.
531  5.30  0.  0.  0.
532  5.31  0.  0.  0.
533  5.32  0.  0.  0.
534  5.33  0.  0.  0.
535  5.34  0.  0.  0.
536  5.35  0.  0.  0.
537  5.36  0.  0.  0.
538  5.37  0.  0.  0.
539  5.38  0.  0.  0.
540  5.39  0.  0.  0.
541  5.40  0.  0.  0.
542  5.41  0.  0.  0.
543  5.42  0.  0.  0.
544  5.43  0.  0.  0.
545  5.44  0.  0.  0.
546  5.45  0.  0.  0.
547  5.46  0.  0.  0.
548  5.47  0.  0.  0.
549  5.48  0.  0.  0.
550  5.49  0.  0.  0.
551  5.50  0.  0.  0.
552  5.51  0.  0.  0.
553  5.52  0.  0.  0.
554  5.53  0.  0.  0.
555  5.54  0.  0.  0.
556  5.55  0.  0.  0.
557  5.56  0.  0.  0.
558  5.57  0.  0.  0.
559  5.58  0.  0.  0.
560  5.59  0.  0.  0.
561  5.60  0.  0.  0.
562  5.61  0.  0.  0.
563  5.62  0.  0.  0.
564  5.63  0.  0.  0.
565  5.64  0.  0.  0.
566  5.65  0.  0.  0.
567  5.66  0.  0.  0.
568  5.67  0.  0.  0.
569  5.68  0.  0.  0.
570  5.69  0.  0.  0.
571  5.70  0.  0.  0.
572  5.71  0.  0.  0.
573  5.72  0.  0.  0.
574  5.73  0.  0.  0.
575  5.74  0.  0.  0.
576  5.75  0.  0.  0.
577  5.76  0.  0.  0.
578  5.77  0.  0.  0.
579  5.78  0.  0.  0.
580  5.79  0.  0.  0.
581  5.80  0.  0.  0.
582  5.81  0.  0.  0.
583  5.82  0.  0.  0.
584  5.83  0.  0.  0.
585  5.84  0.  0.  0.
586  5.85  0.  0.  0.
587  5.86  0.  0.  0.
588  5.87  0.  0.  0.
589  5.88  0.  0.  0.
590  5.89  0.  0.  0.
591  5.90  0.  0.  0.
592  5.91  0.  0.  0.
593  5.92  0.  0.  0.
594  5.93  0.  0.  0.
595  5.94  0.  0.  0.
596  5.95  0.  0.  0.
597  5.96  0.  0.  0.
598  5.97  0.  0.  0.
599  5.98  0.  0.  0.
600  5.99  0.  0.  0.
1                        -9.9168616937950E+00  6.9685616962551E-01 -3.0227964689537E-01 -1.1950316348199E-02
1  0.0000000000000E+00  1.1217880790948E-08  2.3798550322085E-07  2.2672268951140E-07 -1.4941737827567E-07
2  1.0000000000000E-02  3.1677947941179E-03  2.8043128532590E-03  9.6773273050768E-03  1.6538812296092E-03
3  2.0000000000000E-02  1.2643769639894E-02  1.1089429070928E-02  3.8496203466500E-02  6.6278758131588E-03
4  3.0000000000000E-02  2.8346048140162E-02  2.4476465194423E-02  8.5822511774072E-02  1.4956946531848E-02
5  4.0000000000000E-02  5.0139336391390E-02  4.2349057596880E-02  1.5061657183987E-01  2.6692513720067E-02
6  5.0000000000000E-02  7.7836647848455E-02  6.3875438228445E-02  2.3145837586075E-01  4.1892577253488E-02
7  6.0000000000000E-02  1.1120166837079E-01  8.8038189518383E-02  3.2658186868855E-01  6.0608665097381E-02
8  7.0000000000000E-02  1.4995171347901E-01  1.1367058178836E-01  4.3391726497906E-01  8.2870342442298E-02
9  8.0000000000000E-02  1.9376121863305E-01  1.3949815854575E-01  5.5114016996813E-01  1.0866816487165E-01
10  9.0000000000000E-02  2.4226569386497E-01  1.6418404927135E-01  6.7572608615071E-01  1.3793606690323E-01
11  1.0000000000000E-01  2.9506606661296E-01  1.8637636286988E-01  8.0500875231385E-01  1.7053423831694E-01
12  1.1000000000000E-01  3.5173333128975E-01  2.0475595247730E-01  9.3624067815952E-01  2.0623355169711E-01
13  1.2000000000000E-01  4.1181342108025E-01  2.1808284587938E-01  1.0666542093192E+00  2.4470256458287E-01
14  1.3000000000000E-01  4.7483221672195E-01  2.2523970478150E-01  1.1935214840310E+00  2.8549802981325E-01
15  1.4000000000000E-01  5.4030060852059E-01  2.2527080732926E-01  1.3142117221960E+00  3.2805971159187E-01
16  1.5000000000000E-01  6.0771953145750E-01  2.1741523587429E-01  1.4262444160990E+00  3.7171012807263E-01
17  1.6000000000000E-01  6.7658489875007E-01  2.0113318802148E-01  1.5273371641166E+00  4.1565963133855E-01
18  1.7000000000000E-01  7.4639236636818E-01  1.7612460359419E-01  1.6154470970941E+00  4.5901700148477E-01
19  1.8000000000000E-01  8.1664186947303E-01  1.4233960193255E-01  1.6888050833348E+00  5.0080548326041E-01
20  1.9000000000000E-01  8.8684188117989E-01  9.9980540512682E-02  1.7459421530314E+00  5.3998394221166E-01
21  2.0000000000000E-01  9.5651335408196E-01  4.9495824356774E-02  1.7857078466798E+00  5.7547257359547E-01
22  2.1000000000000E-01  1.0251933152298E+00 -8.4340967429895E-03  1.8072804546420E+00  6.0618237235875E-01
23  2.2000000000000E-01  1.0924380953706E+00 -7.2917821811690E-02  1.8101693669107E+00  6.3104737636132E-01
24  2.3000000000000E-01  1.1578261828662E+00 -1.4288021176372E-01  1.7942099843121E+00  6.4905853678399E-01
25  2.4000000000000E-01  1.2209607015186E+00 -2.1709454475317E-01  1.7595518468490E+00  6.5929795678408E-01
26  2.5000000000000E-01  1.2814715192735E+00 -2.9421828254421E-01  1.7066408049572E+00  6.6097217755880E-01
27  2.6000000000000E-01  1.3390170012389E+00 -3.7283101995019E-01  1.6361961899668E+00  6.5344318355278E-01
28  2.7000000000000E-01  1.3932854255049E+00 -4.5147315315431E-01  1.5491840275880E+00  6.3625584681356E-01
29  2.8000000000000E-01  1.4439960838091E+00 -5.2868382749314E-01  1.4467873811757E+00  6.0916063333693E-01
30  2.9000000000000E-01  1.4909000911501E+00 -6.0303680905647E-01  1.3303749101053E+00  5.7213054819693E-01
31  3.0000000000000E-01  1.5337809290705E+00 -6.7317306278068E-01  1.2014686848674E+00  5.2537149569820E-01
32  3.1000000000000E-01  1.5724547466355E+00 -7.3782900588883E-01  1.0617122181947E+00  4.6932546810884E-01
33  3.2000000000000E-01  1.6067704412962E+00 -7.9585963090550E-01  9.1283955591357E-01  4.0466624246607E-01
34  3.3000000000000E-01  1.6366095390750E+00 -8.4625594681827E-01  7.5664612875145E-01  3.3228754892876E-01
35  3.4000000000000E-01  1.6618858900988E+00 -8.8815645889286E-01  5.9496190448284E-01  2.5328396475423E-01
36  3.5000000000000E-01  1.6825451917132E+00 -9.2085268514303E-01  4.2962720664362E-01  1.6892507337518E-01
37  3.6000000000000E-01  1.6985643475270E+00 -9.4378897832051E-01  2.6247138994242E-01  8.0623696501647E-02
38  3.7000000000000E-01  1.7099506670383E+00 -9.5655717469574E-01  9.5294391729185E-02 -1.0100752497223E-02
39  3.8000000000000E-01  1.7167409072552E+00 -9.5888681387465E-01 -7.0148978712669E-02 -1.0166254361662E-01
40  3.9000000000000E-01  1.7190001551704E+00 -9.5063185777626E-01 -2.3216228861599E-01 -1.9245212822737E-01
41  4.0000000000000E-01  1.7168205482792E+00 -9.3175497374104E-01 -3.8911865453718E-01 -2.8087935339363E-01
42  4.1000000000000E-01  1.7103198296885E+00 -9.0231053065023E-01 -5.3947030618008E-01 -3.6541584314992E-01
43  4.2000000000000E-01  1.6996397348363E+00 -8.6242748431847E-01 -6.8175705371503E-01 -4.4463501576798E-01
44  4.3000000000000E-01  1.6849442084528E+00 -8.1229329812626E-01 -8.1461418106869E-01 -5.1724828546393E-01
45  4.4000000000000E-01  1.6664174531178E+00 -7.5213995823987E-01 -9.3678026192576E-01 -5.8213613499607E-01
46  4.5000000000000E-01  1.6442618144976E+00 -6.8223300363804E-01 -1.0471053354819E+00 -6.3837293733107E-01
47  4.6000000000000E-01  1.6186955129358E+00 -6.0286430563981E-01 -1.1445597886782E+00 -6.8524464294821E-01
48  4.7000000000000E-01  1.5899502363195E+00 -5.1434910788175E-01 -1.2282441755311E+00 -7.2225872538474E-01
49  4.8000000000000E-01  1.5582686147961E+00 -4.1702758563759E-01 -1.2974000683007E+00 -7.4914608066127E-01
50  4.9000000000000E-01  1.5239016037085E+00 -3.1127091424271E-01 -1.3514218866305E+00 -7.6585489442441E-01
51  5.0000000000000E-01  1.4871058067424E+00 -1.9749156229595E-01 -1.3898694971503E+00 -7.7253681140055E-01
52  5.1000000000000E-01  1.4481407764454E+00 -7.6157258748588E-02 -1.4124812254106E+00 -7.6952605221961E-01
53  5.2000000000000E-01  1.4072663336814E+00  5.2192163688684E-02 -1.4191867824687E+00 -7.5731241022020E-01
54  5.3000000000000E-01  1.3647399509532E+00  1.8692606149448E-01 -1.4101194876673E+00 -7.3650931363081E-01
55  5.4000000000000E-01  1.3208142466205E+00  3.2730359528197E-01 -1.3856270741672E+00 -7.0781834588877E-01
56  5.5000000000000E-01  1.2757346376641E+00  4.7245497426602E-01 -1.3462803006254E+00 -6.7199176983059E-01
57  5.6000000000000E-01  1.2297371976488E+00  6.2136470161567E-01 -1.2928785657856E+00 -6.2979469312128E-01
58  5.7000000000000E-01  1.1830467638559E+00  7.7285819320316E-01 -1.2264517359195E+00 -5.8196853797551E-01
59  5.8000000000000E-01  1.1358753331587E+00  9.2559307862202E-01 -1.1482574495603E+00 -5.2919743591078E-01
60  5.9000000000000E-01  1.0884207801825E+00  1.0780563655054E+00 -1.0597732596102E+00 -4.7207905857704E-01
61  6.0000000000000E-01  1.0408659237372E+00  1.2285684594319E+00 -9.6268310762291E-01 -4.1110122194101E-01
62  6.1000000000000E-01  9.9337795865587E-01  1.3752947879986E+00 -8.5885779506460E-01 -3.4662536917970E-01
63  6.2000000000000E-01  9.4610826025512E-01  1.5162654873524E+00 -7.5032931615712E-01 -2.7887775588455E-01
64  6.3000000000000E-01  8.9919255799931E-01  1.6494032831892E+00 -6.3925913954801E-01 -2.0794884006686E-01
65  6.4000000000000E-01  8.5275146393361E-01  1.7725593482861E+00 -5.2790076332769E-01 -1.3380103119817E-01
66  6.5000000000000E-01  8.0689133046450E-01  1.8835565587771E+00 -4.1855711067936E-01 -5.6284590668591E-02
67  6.6000000000000E-01  7.6170540150569E-01  1.9802392161297E+00 -3.1353357195868E-01  2.4838885053158E-02
68  6.7000000000000E-01  7.1727521128740E-01  2.0605279659559E+00 -2.1508772329563E-01  1.0986631301463E-01
69  6.8000000000000E-01  6.7367217663969E-01  2.1224783428944E+00 -1.2537695210056E-01  1.9911753465217E-01
70  6.9000000000000E-01  6.3095932166809E-01  2.1643411164355E+00 -4.6405386921187E-02  2.9289579241373E-01
71  7.0000000000000E-01  5.8919306875749E-01  2.1846224178378E+00  2.0028345301111E-02  3.9144599344085E-01
72  7.1000000000000E-01  5.4842502702282E-01  2.1821415033812E+00  7.2380934329824E-02  4.9491263421243E-01
73  7.2000000000000E-01  5.0870370885416E-01  2.1560839617677E+00  1.0941015031515E-01  6.0329933969574E-01
74  7.3000000000000E-01  4.7007610717732E-01  2.1060482084153E+00  1.3021496581353E-01  7.1643197220783E-01
75  7.4000000000000E-01  4.3258907047949E-01  2.0320832284202E+00  1.3426853772925E-01  8.3392718684015E-01
76  7.5000000000000E-01  3.9629041944863E-01  1.9347157316158E+00  1.2144269994800E-01  9.5516815302392E-01
77  7.6000000000000E-01  3.6122975806805E-01  1.8149651625994E+00  9.2022820722079E-02  1.0792889298932E+00
78  7.7000000000000E-01  3.2745894292802E-01  1.6743453577929E+00  4.6712130816074E-02  1.2051686838793E+00
79  7.8000000000000E-01  2.9503218701639E-01  1.5148520495900E+00 -1.3375078464345E-02  1.3314365806094E+00
80  7.9000000000000E-01  2.6400578790763E-01  1.3389358706575E+00 -8.6731663382024E-02  1.4564877824814E+00
81  8.0000000000000E-01  2.3443748460841E-01  1.1494609937073E+00 -1.7148717231425E-01  1.5785105530106E+00
82  8.1000000000000E-01  2.0638546181683E-01  9.4965003598640E-01 -2.6544830255019E-01  1.6955240256211E+00