Ds    ONCVPSP-4.0.1  r_core=   1.10457   1.10457   1.10457   1.14493
110.0000     50.0000      231012    zatom,zion,pspd
8   -1012   3     4   600     0    pspcod,pspxc,lmax,lloc,mmax,r2well
5.99000000  3.80000000  0.00000000    rchrg fchrg qchrg
3     2     2     2     0    nproj
1     1           extension_switch
0                         1.3460826996273E+01 -1.1648539507412E+01  1.5866480753549E+00
1  0.0000000000000E+00  7.5684428502143E-08 -2.7604202257336E-09  1.3653895458710E-07
2  1.0000000000000E-02  1.6475055589154E-01  8.0665747642226E-02  2.5507321731387E-02
3  2.0000000000000E-02  3.2805867627919E-01  1.6110749878534E-01  5.0398136045431E-02
4  3.0000000000000E-02  4.8849062566260E-01  2.4110250096679E-01  7.4057945755762E-02
5  4.0000000000000E-02  6.4463031713451E-01  3.2043046947410E-01  9.5876789601222E-02
6  5.0000000000000E-02  7.9508873611098E-01  3.9887477119502E-01  1.1525275900123E-01
7  6.0000000000000E-02  9.3851402297917E-01  4.7622355059083E-01  1.3159690410773E-01
8  7.0000000000000E-02  1.0736023374167E+00  5.5227078197645E-01  1.4433981714142E-01
9  8.0000000000000E-02  1.1991095514528E+00  6.2681723505154E-01  1.5294004446110E-01
10  9.0000000000000E-02  1.3138637324722E+00  6.9967134381640E-01  1.5689432421590E-01
11  1.0000000000000E-01  1.4167782864377E+00  7.7064997247140E-01  1.5574948316592E-01
12  1.1000000000000E-01  1.5068655411264E+00  8.3957907547213E-01  1.4911566439600E-01
13  1.2000000000000E-01  1.5832504647238E+00  9.0629425242262E-01  1.3668040734444E-01
14  1.3000000000000E-01  1.6451841420630E+00  9.7064120177060E-01  1.1822297252740E-01
15  1.4000000000000E-01  1.6920565739594E+00  1.0324760801667E+00  9.3628204240110E-02
16  1.5000000000000E-01  1.7234083285547E+00  1.0916657767317E+00  6.2899162537609E-02
17  1.6000000000000E-01  1.7389405603572E+00  1.1480881132360E+00  2.6167736180233E-02
18  1.7000000000000E-01  1.7385229246181E+00  1.2016319822591E+00 -1.6297526032640E-02
19  1.8000000000000E-01  1.7221989523287E+00  1.2521974357314E+00 -6.4087056501219E-02
20  1.9000000000000E-01  1.6901885136288E+00  1.2996957358587E+00 -1.1664995810858E-01
21  2.0000000000000E-01  1.6428870826118E+00  1.3440493793422E+00 -1.7329816215601E-01
22  2.1000000000000E-01  1.5808616209376E+00  1.3851921041001E+00 -2.3321528811025E-01
23  2.2000000000000E-01  1.5048430168075E+00  1.4230688854789E+00 -2.9547022705773E-01
24  2.3000000000000E-01  1.4157151442566E+00  1.4576359263603E+00 -3.5903524602803E-01
25  2.4000000000000E-01  1.3145007393507E+00  1.4888606427558E+00 -4.2280818352255E-01
26  2.5000000000000E-01  1.2023444183250E+00  1.5167216436284E+00 -4.8563808954903E-01
27  2.6000000000000E-01  1.0804932815921E+00  1.5412087009340E+00 -5.4635346794646E-01
28  2.7000000000000E-01  9.5027565077490E-01  1.5623227034233E+00 -6.0379211579187E-01
29  2.8000000000000E-01  8.1307856803701E-01  1.5800755857171E+00 -6.5683143387395E-01
30  2.9000000000000E-01  6.7032474342306E-01  1.5944902227134E+00 -7.0441801140859E-01
31  3.0000000000000E-01  5.2344966330338E-01  1.6056002785898E+00 -7.4559527285509E-01
32  3.1000000000000E-01  3.7387956927745E-01  1.6134499996027E+00 -7.7952801772400E-01
33  3.2000000000000E-01  2.2301098146568E-01  1.6180939405854E+00 -8.0552278564553E-01
34  3.3000000000000E-01  7.2192373962800E-02  1.6195966164945E+00 -8.2304313574736E-01
35  3.4000000000000E-01 -7.7291484184884E-02  1.6180320725005E+00 -8.3171913577627E-01
36  3.5000000000000E-01 -2.2423212788105E-01  1.6134833688706E+00 -8.3135060393237E-01
37  3.6000000000000E-01 -3.6750667811813E-01  1.6060419801298E+00 -8.2190392431741E-01
38  3.7000000000000E-01 -5.0608370165449E-01  1.5958071115502E+00 -8.0350255263964E-01
39  3.8000000000000E-01 -6.3902569950111E-01  1.5828849397442E+00 -7.7641162851914E-01
40  3.9000000000000E-01 -7.6548843108445E-01  1.5673877878224E+00 -7.4101739992310E-01
41  4.0000000000000E-01 -8.8471742768269E-01  1.5494332490416E+00 -6.9780242952471E-01
42  4.1000000000000E-01 -9.9604217937013E-01  1.5291432759198E+00 -6.4731777847484E-01
43  4.2000000000000E-01 -1.0988685876401E+00  1.5066432542532E+00 -5.9015353800485E-01
44  4.3000000000000E-01 -1.1926703554404E+00  1.4820610831991E+00 -5.2690919330087E-01
45  4.4000000000000E-01 -1.2769800331156E+00  1.4555262834548E+00 -4.5816534968397E-01
46  4.5000000000000E-01 -1.3513804497371E+00  1.4271691554904E+00 -3.8445832380328E-01
47  4.6000000000000E-01 -1.4154972331930E+00  1.3971200087437E+00 -3.0625900115349E-01
48  4.7000000000000E-01 -1.4689930596145E+00  1.3655084806612E+00 -2.2395718808733E-01
49  4.8000000000000E-01 -1.5115641754004E+00  1.3324629615231E+00 -1.3785244742012E-01
50  4.9000000000000E-01 -1.5429396071408E+00  1.2981101372187E+00 -4.8152110809161E-02
51  5.0000000000000E-01 -1.5628833215360E+00  1.2625746576844E+00  4.5023179590127E-02
52  5.1000000000000E-01 -1.5711994257223E+00  1.2259789337431E+00  1.4162641858028E-01
53  5.2000000000000E-01 -1.5677403160530E+00  1.1884430598154E+00  2.4166407753133E-01
54  5.3000000000000E-01 -1.5524174988613E+00  1.1500848546098E+00  3.4516961997067E-01
55  5.4000000000000E-01 -1.5252146289125E+00  1.1110200067029E+00  4.5217183586058E-01
56  5.5000000000000E-01 -1.4862021489418E+00  1.0713623071053E+00  5.6265945662594E-01
57  5.6000000000000E-01 -1.4355527751908E+00  1.0312239467211E+00  6.7654377642591E-01
58  5.7000000000000E-01 -1.3735569666798E+00  9.9071585323898E-01  7.9362119829532E-01
59  5.8000000000000E-01 -1.3006374463205E+00  9.4994803962743E-01  9.1353773496121E-01
60  5.9000000000000E-01 -1.2173618145809E+00  9.0902993518046E-01  1.0357575150669E+00
61  6.0000000000000E-01 -1.1244523141624E+00  8.6807067005838E-01  1.1595372717172E+00
62  6.1000000000000E-01 -1.0227918679483E+00  8.2717928554135E-01  1.2839086213539E+00
63  6.2000000000000E-01 -9.1342562118215E-01  7.8646484473729E-01  1.4076696809178E+00
64  6.3000000000000E-01 -7.9755736918566E-01  7.4603642219683E-01  1.5293872282331E+00
65  6.4000000000000E-01 -6.7654043870020E-01  7.0600295566045E-01  1.6474101967442E+00
66  6.5000000000000E-01 -5.5186280708869E-01  6.6647294882596E-01  1.7598948269278E+00
67  6.6000000000000E-01 -4.2512648056426E-01  6.2755402036177E-01  1.8648412916587E+00
68  6.7000000000000E-01 -2.9802140052671E-01  5.8935230115324E-01  1.9601410925513E+00
69  6.8000000000000E-01 -1.7229439537802E-01  5.5197168868119E-01  2.0436340112478E+00
70  6.9000000000000E-01 -4.9713932891371E-02  5.1551297420462E-01  2.1131729166526E+00
71  7.0000000000000E-01  6.7968355483959E-02  4.8007286476602E-01  2.1666942984718E+00
72  7.1000000000000E-01  1.7905822233772E-01  4.4574292767787E-01  2.2022920399049E+00
73  7.2000000000000E-01  2.8196012407020E-01  4.1260848983072E-01  2.2182916760787E+00
74  7.3000000000000E-01  3.7521791722216E-01  3.8074752766735E-01  2.2133222246531E+00
75  7.4000000000000E-01  4.5755349440036E-01  3.5022958582043E-01  2.1863826315251E+00
76  7.5000000000000E-01  5.2790193895019E-01  3.2111476309533E-01  2.1368999535501E+00
77  7.6000000000000E-01  5.8544185228081E-01  2.9345280363585E-01  2.0647766023276E+00
78  7.7000000000000E-01  6.2961963964966E-01  2.6728232874503E-01  1.9704242935762E+00
79  7.8000000000000E-01  6.6016672525156E-01  2.4263024101774E-01  1.8547827754294E+00
80  7.9000000000000E-01  6.7710889911286E-01  2.1951132731090E-01  1.7193219308863E+00
81  8.0000000000000E-01  6.8076726787409E-01  1.9792808082591E-01  1.5660264450010E+00
82  8.1000000000000E-01  6.7175057841842E-01  1.7787075545181E-01  1.3973628726189E+00
83  8.2000000000000E-01  6.5093899534794E-01  1.5931765780534E-01  1.2162296111121E+00
84  8.3000000000000E-01  6.1945972743219E-01  1.4223567442360E-01  1.0258909463719E+00
85  8.4000000000000E-01  5.7865520077435E-01  1.2658102365189E-01  8.2989697028977E-01
86  8.5000000000000E-01  5.3004475416936E-01  1.1230021426167E-01  6.3199173580675E-01
87  8.6000000000000E-01  4.7528107228580E-01  9.9331186055868E-02  4.3601249483688E-01
88  8.7000000000000E-01  4.1610276355312E-01  8.7604601970721E-02  2.4578323161088E-01
89  8.8000000000000E-01  3.5428462248798E-01  7.7045256721392E-02  6.5005940050813E-02
90  8.9000000000000E-01  2.9158718349497E-01  6.7573564068771E-02 -1.0284681531844E-01
91  9.0000000000000E-01  2.2970717046744E-01  5.9107083449074E-02 -2.5463457779010E-01
92  9.1000000000000E-01  1.7023037232774E-01  5.1562047077910E-02 -3.8764365631212E-01
93  9.2000000000000E-01  1.1458833056721E-01  4.4854850714866E-02 -4.9967086990414E-01
94  9.3000000000000E-01  6.4020015629983E-02  3.8903474975114E-02 -5.8909399095945E-01
95  9.4000000000000E-01  1.9539402297082E-02  3.3628809250536E-02 -6.5492712498969E-01
96  9.5000000000000E-01 -1.8090459544459E-02  2.8955856736269E-02 -6.9685998601905E-01
97  9.6000000000000E-01 -4.8376630608326E-02  2.4814806473828E-02 -7.1528081656306E-01
98  9.7000000000000E-01 -7.1108844393826E-02  2.1141966392335E-02 -7.1128352654339E-01
99  9.8000000000000E-01 -8.6365938606802E-02  1.7880559705677E-02 -6.8666045293836E-01
100  9.9000000000000E-01 -9.4517011619290E-02  1.4981395363386E-02 -6.4388294186547E-01
101  1.0000000000000E+00 -9.6218418382206E-02  1.2403429729611E-02 -5.8607245225349E-01
102  1.0100000000000E+00 -9.2407326883697E-02  1.0114231065150E-02 -5.1696343057492E-01
103  1.0200000000000E+00 -8.4242927898449E-02  8.0894438622514E-03 -4.4071075119837E-01
104  1.0300000000000E+00 -7.2966519761756E-02  6.3107160106566E-03 -3.6147051367750E-01
105  1.0400000000000E+00 -5.9825529136342E-02  4.7647055141092E-03 -2.8319599111148E-01
106  1.0500000000000E+00 -4.6023602213760E-02  3.4423177008947E-03 -2.0951783517653E-01
107  1.0600000000000E+00 -3.2618105700460E-02  2.3275222908999E-03 -1.4356423271296E-01
108  1.0700000000000E+00 -2.0574629328454E-02  1.4179282397782E-03 -8.7981299452414E-02
109  1.0800000000000E+00 -1.0765381725118E-02  7.2457542548339E-04 -4.4905122321368E-02
110  1.0900000000000E+00 -3.8780221733823E-03  2.5756542530657E-04 -1.5831133834025E-02
111  1.1000000000000E+00 -4.1130880903012E-04  2.7224919087478E-05 -1.6472023365559E-03
112  1.1100000000000E+00  1.5329436507316E-05 -1.0119698929674E-06  6.0642696330492E-05
113  1.1200000000000E+00  1.8845949813075E-06 -1.2450963514053E-07  7.5756619183222E-06
114  1.13 -0. -0. -0.
115  1.14  0.  0.  0.
116  1.15  0.  0.  0.
117  1.16  0.  0.  0.
118  1.17  0.  0.  0.
119  1.18  0.  0.  0.
120  1.19  0.  0.  0.
121  1.20  0.  0.  0.
122  1.21  0.  0.  0.
123  1.22  0.  0.  0.
124  1.23  0.  0.  0.
125  1.24  0.  0.  0.
126  1.25  0.  0.  0.
127  1.26  0.  0.  0.
128  1.27  0.  0.  0.
129  1.28  0.  0.  0.
130  1.29  0.  0.  0.
131  1.30  0.  0.  0.
132  1.31  0.  0.  0.
133  1.32  0.  0.  0.
134  1.33  0.  0.  0.
135  1.34  0.  0.  0.
136  1.35  0.  0.  0.
137  1.36  0.  0.  0.
138  1.37  0.  0.  0.
139  1.38  0.  0.  0.
140  1.39  0.  0.  0.
141  1.40  0.  0.  0.
142  1.41  0.  0.  0.
143  1.42  0.  0.  0.
144  1.43  0.  0.  0.
145  1.44  0.  0.  0.
146  1.45  0.  0.  0.
147  1.46  0.  0.  0.
148  1.47  0.  0.  0.
149  1.48  0.  0.  0.
150  1.49  0.  0.  0.
151  1.50  0.  0.  0.
152  1.51  0.  0.  0.
153  1.52  0.  0.  0.
154  1.53  0.  0.  0.
155  1.54  0.  0.  0.
156  1.55  0.  0.  0.
157  1.56  0.  0.  0.
158  1.57  0.  0.  0.
159  1.58  0.  0.  0.
160  1.59  0.  0.  0.
161  1.60  0.  0.  0.
162  1.61  0.  0.  0.
163  1.62  0.  0.  0.
164  1.63  0.  0.  0.
165  1.64  0.  0.  0.
166  1.65  0.  0.  0.
167  1.66  0.  0.  0.
168  1.67  0.  0.  0.
169  1.68  0.  0.  0.
170  1.69  0.  0.  0.
171  1.70  0.  0.  0.
172  1.71  0.  0.  0.
173  1.72  0.  0.  0.
174  1.73  0.  0.  0.
175  1.74  0.  0.  0.
176  1.75  0.  0.  0.
177  1.76  0.  0.  0.
178  1.77  0.  0.  0.
179  1.78  0.  0.  0.
180  1.79  0.  0.  0.
181  1.80  0.  0.  0.
182  1.81  0.  0.  0.
183  1.82  0.  0.  0.
184  1.83  0.  0.  0.
185  1.84  0.  0.  0.
186  1.85  0.  0.  0.
187  1.86  0.  0.  0.
188  1.87  0.  0.  0.
189  1.88  0.  0.  0.
190  1.89  0.  0.  0.
191  1.90  0.  0.  0.
192  1.91  0.  0.  0.
193  1.92  0.  0.  0.
194  1.93  0.  0.  0.
195  1.94  0.  0.  0.
196  1.95  0.  0.  0.
197  1.96  0.  0.  0.
198  1.97  0.  0.  0.
199  1.98  0.  0.  0.
200  1.99  0.  0.  0.
201  2.00  0.  0.  0.
202  2.01  0.  0.  0.
203  2.02  0.  0.  0.
204  2.03  0.  0.  0.
205  2.04  0.  0.  0.
206  2.05  0.  0.  0.
207  2.06  0.  0.  0.
208  2.07  0.  0.  0.
209  2.08  0.  0.  0.
210  2.09  0.  0.  0.
211  2.10  0.  0.  0.
212  2.11  0.  0.  0.
213  2.12  0.  0.  0.
214  2.13  0.  0.  0.
215  2.14  0.  0.  0.
216  2.15  0.  0.  0.
217  2.16  0.  0.  0.
218  2.17  0.  0.  0.
219  2.18  0.  0.  0.
220  2.19  0.  0.  0.
221  2.20  0.  0.  0.
222  2.21  0.  0.  0.
223  2.22  0.  0.  0.
224  2.23  0.  0.  0.
225  2.24  0.  0.  0.
226  2.25  0.  0.  0.
227  2.26  0.  0.  0.
228  2.27  0.  0.  0.
229  2.28  0.  0.  0.
230  2.29  0.  0.  0.
231  2.30  0.  0.  0.
232  2.31  0.  0.  0.
233  2.32  0.  0.  0.
234  2.33  0.  0.  0.
235  2.34  0.  0.  0.
236  2.35  0.  0.  0.
237  2.36  0.  0.  0.
238  2.37  0.  0.  0.
239  2.38  0.  0.  0.
240  2.39  0.  0.  0.
241  2.40  0.  0.  0.
242  2.41  0.  0.  0.
243  2.42  0.  0.  0.
244  2.43  0.  0.  0.
245  2.44  0.  0.  0.
246  2.45  0.  0.  0.
247  2.46  0.  0.  0.
248  2.47  0.  0.  0.
249  2.48  0.  0.  0.
250  2.49  0.  0.  0.
251  2.50  0.  0.  0.
252  2.51  0.  0.  0.
253  2.52  0.  0.  0.
254  2.53  0.  0.  0.
255  2.54  0.  0.  0.
256  2.55  0.  0.  0.
257  2.56  0.  0.  0.
258  2.57  0.  0.  0.
259  2.58  0.  0.  0.
260  2.59  0.  0.  0.
261  2.60  0.  0.  0.
262  2.61  0.  0.  0.
263  2.62  0.  0.  0.
264  2.63  0.  0.  0.
265  2.64  0.  0.  0.
266  2.65  0.  0.  0.
267  2.66  0.  0.  0.
268  2.67  0.  0.  0.
269  2.68  0.  0.  0.
270  2.69  0.  0.  0.
271  2.70  0.  0.  0.
272  2.71  0.  0.  0.
273  2.72  0.  0.  0.
274  2.73  0.  0.  0.
275  2.74  0.  0.  0.
276  2.75  0.  0.  0.
277  2.76  0.  0.  0.
278  2.77  0.  0.  0.
279  2.78  0.  0.  0.
280  2.79  0.  0.  0.
281  2.80  0.  0.  0.
282  2.81  0.  0.  0.
283  2.82  0.  0.  0.
284  2.83  0.  0.  0.
285  2.84  0.  0.  0.
286  2.85  0.  0.  0.
287  2.86  0.  0.  0.
288  2.87  0.  0.  0.
289  2.88  0.  0.  0.
290  2.89  0.  0.  0.
291  2.90  0.  0.  0.
292  2.91  0.  0.  0.
293  2.92  0.  0.  0.
294  2.93  0.  0.  0.
295  2.94  0.  0.  0.
296  2.95  0.  0.  0.
297  2.96  0.  0.  0.
298  2.97  0.  0.  0.
299  2.98  0.  0.  0.
300  2.99  0.  0.  0.
301  3.00  0.  0.  0.
302  3.01  0.  0.  0.
303  3.02  0.  0.  0.
304  3.03  0.  0.  0.
305  3.04  0.  0.  0.
306  3.05  0.  0.  0.
307  3.06  0.  0.  0.
308  3.07  0.  0.  0.
309  3.08  0.  0.  0.
310  3.09  0.  0.  0.
311  3.10  0.  0.  0.
312  3.11  0.  0.  0.
313  3.12  0.  0.  0.
314  3.13  0.  0.  0.
315  3.14  0.  0.  0.
316  3.15  0.  0.  0.
317  3.16  0.  0.  0.
318  3.17  0.  0.  0.
319  3.18  0.  0.  0.
320  3.19  0.  0.  0.
321  3.20  0.  0.  0.
322  3.21  0.  0.  0.
323  3.22  0.  0.  0.
324  3.23  0.  0.  0.
325  3.24  0.  0.  0.
326  3.25  0.  0.  0.
327  3.26  0.  0.  0.
328  3.27  0.  0.  0.
329  3.28  0.  0.  0.
330  3.29  0.  0.  0.
331  3.30  0.  0.  0.
332  3.31  0.  0.  0.
333  3.32  0.  0.  0.
334  3.33  0.  0.  0.
335  3.34  0.  0.  0.
336  3.35  0.  0.  0.
337  3.36  0.  0.  0.
338  3.37  0.  0.  0.
339  3.38  0.  0.  0.
340  3.39  0.  0.  0.
341  3.40  0.  0.  0.
342  3.41  0.  0.  0.
343  3.42  0.  0.  0.
344  3.43  0.  0.  0.
345  3.44  0.  0.  0.
346  3.45  0.  0.  0.
347  3.46  0.  0.  0.
348  3.47  0.  0.  0.
349  3.48  0.  0.  0.
350  3.49  0.  0.  0.
351  3.50  0.  0.  0.
352  3.51  0.  0.  0.
353  3.52  0.  0.  0.
354  3.53  0.  0.  0.
355  3.54  0.  0.  0.
356  3.55  0.  0.  0.
357  3.56  0.  0.  0.
358  3.57  0.  0.  0.
359  3.58  0.  0.  0.
360  3.59  0.  0.  0.
361  3.60  0.  0.  0.
362  3.61  0.  0.  0.
363  3.62  0.  0.  0.
364  3.63  0.  0.  0.
365  3.64  0.  0.  0.
366  3.65  0.  0.  0.
367  3.66  0.  0.  0.
368  3.67  0.  0.  0.
369  3.68  0.  0.  0.
370  3.69  0.  0.  0.
371  3.70  0.  0.  0.
372  3.71  0.  0.  0.
373  3.72  0.  0.  0.
374  3.73  0.  0.  0.
375  3.74  0.  0.  0.
376  3.75  0.  0.  0.
377  3.76  0.  0.  0.
378  3.77  0.  0.  0.
379  3.78  0.  0.  0.
380  3.79  0.  0.  0.
381  3.80  0.  0.  0.
382  3.81  0.  0.  0.
383  3.82  0.  0.  0.
384  3.83  0.  0.  0.
385  3.84  0.  0.  0.
386  3.85  0.  0.  0.
387  3.86  0.  0.  0.
388  3.87  0.  0.  0.
389  3.88  0.  0.  0.
390  3.89  0.  0.  0.
391  3.90  0.  0.  0.
392  3.91  0.  0.  0.
393  3.92  0.  0.  0.
394  3.93  0.  0.  0.
395  3.94  0.  0.  0.
396  3.95  0.  0.  0.
397  3.96  0.  0.  0.
398  3.97  0.  0.  0.
399  3.98  0.  0.  0.
400  3.99  0.  0.  0.
401  4.00  0.  0.  0.
402  4.01  0.  0.  0.
403  4.02  0.  0.  0.
404  4.03  0.  0.  0.
405  4.04  0.  0.  0.
406  4.05  0.  0.  0.
407  4.06  0.  0.  0.
408  4.07  0.  0.  0.
409  4.08  0.  0.  0.
410  4.09  0.  0.  0.
411  4.10  0.  0.  0.
412  4.11  0.  0.  0.
413  4.12  0.  0.  0.
414  4.13  0.  0.  0.
415  4.14  0.  0.  0.
416  4.15  0.  0.  0.
417  4.16  0.  0.  0.
418  4.17  0.  0.  0.
419  4.18  0.  0.  0.
420  4.19  0.  0.  0.
421  4.20  0.  0.  0.
422  4.21  0.  0.  0.
423  4.22  0.  0.  0.
424  4.23  0.  0.  0.
425  4.24  0.  0.  0.
426  4.25  0.  0.  0.
427  4.26  0.  0.  0.
428  4.27  0.  0.  0.
429  4.28  0.  0.  0.
430  4.29  0.  0.  0.
431  4.30  0.  0.  0.
432  4.31  0.  0.  0.
433  4.32  0.  0.  0.
434  4.33  0.  0.  0.
435  4.34  0.  0.  0.
436  4.35  0.  0.  0.
437  4.36  0.  0.  0.
438  4.37  0.  0.  0.
439  4.38  0.  0.  0.
440  4.39  0.  0.  0.
441  4.40  0.  0.  0.
442  4.41  0.  0.  0.
443  4.42  0.  0.  0.
444  4.43  0.  0.  0.
445  4.44  0.  0.  0.
446  4.45  0.  0.  0.
447  4.46  0.  0.  0.
448  4.47  0.  0.  0.
449  4.48  0.  0.  0.
450  4.49  0.  0.  0.
451  4.50  0.  0.  0.
452  4.51  0.  0.  0.
453  4.52  0.  0.  0.
454  4.53  0.  0.  0.
455  4.54  0.  0.  0.
456  4.55  0.  0.  0.
457  4.56  0.  0.  0.
458  4.57  0.  0.  0.
459  4.58  0.  0.  0.
460  4.59  0.  0.  0.
461  4.60  0.  0.  0.
462  4.61  0.  0.  0.
463  4.62  0.  0.  0.
464  4.63  0.  0.  0.
465  4.64  0.  0.  0.
466  4.65  0.  0.  0.
467  4.66  0.  0.  0.
468  4.67  0.  0.  0.
469  4.68  0.  0.  0.
470  4.69  0.  0.  0.
471  4.70  0.  0.  0.
472  4.71  0.  0.  0.
473  4.72  0.  0.  0.
474  4.73  0.  0.  0.
475  4.74  0.  0.  0.
476  4.75  0.  0.  0.
477  4.76  0.  0.  0.
478  4.77  0.  0.  0.
479  4.78  0.  0.  0.
480  4.79  0.  0.  0.
481  4.80  0.  0.  0.
482  4.81  0.  0.  0.
483  4.82  0.  0.  0.
484  4.83  0.  0.  0.
485  4.84  0.  0.  0.
486  4.85  0.  0.  0.
487  4.86  0.  0.  0.
488  4.87  0.  0.  0.
489  4.88  0.  0.  0.
490  4.89  0.  0.  0.
491  4.90  0.  0.  0.
492  4.91  0.  0.  0.
493  4.92  0.  0.  0.
494  4.93  0.  0.  0.
495  4.94  0.  0.  0.
496  4.95  0.  0.  0.
497  4.96  0.  0.  0.
498  4.97  0.  0.  0.
499  4.98  0.  0.  0.
500  4.99  0.  0.  0.
501  5.00  0.  0.  0.
502  5.01  0.  0.  0.
503  5.02  0.  0.  0.
504  5.03  0.  0.  0.
505  5.04  0.  0.  0.
506  5.05  0.  0.  0.
507  5.06  0.  0.  0.
508  5.07  0.  0.  0.
509  5.08  0.  0.  0.
510  5.09  0.  0.  0.
511  5.10  0.  0.  0.
512  5.11  0.  0.  0.
513  5.12  0.  0.  0.
514  5.13  0.  0.  0.
515  5.14  0.  0.  0.
516  5.15  0.  0.  0.
517  5.16  0.  0.  0.
518  5.17  0.  0.  0.
519  5.18  0.  0.  0.
520  5.19  0.  0.  0.
521  5.20  0.  0.  0.
522  5.21  0.  0.  0.
523  5.22  0.  0.  0.
524  5.23  0.  0.  0.
525  5.24  0.  0.  0.
526  5.25  0.  0.  0.
527  5.26  0.  0.  0.
528  5.27  0.  0.  0.
529  5.28  0.  0.  0.
530  5.29  0.  0.  0.
531  5.30  0.  0.  0.
532  5.31  0.  0.  0.
533  5.32  0.  0.  0.
534  5.33  0.  0.  0.
535  5.34  0.  0.  0.
536  5.35  0.  0.  0.
537  5.36  0.  0.  0.
538  5.37  0.  0.  0.
539  5.38  0.  0.  0.
540  5.39  0.  0.  0.
541  5.40  0.  0.  0.
542  5.41  0.  0.  0.
543  5.42  0.  0.  0.
544  5.43  0.  0.  0.
545  5.44  0.  0.  0.
546  5.45  0.  0.  0.
547  5.46  0.  0.  0.
548  5.47  0.  0.  0.
549  5.48  0.  0.  0.
550  5.49  0.  0.  0.
551  5.50  0.  0.  0.
552  5.51  0.  0.  0.
553  5.52  0.  0.  0.
554  5.53  0.  0.  0.
555  5.54  0.  0.  0.
556  5.55  0.  0.  0.
557  5.56  0.  0.  0.
558  5.57  0.  0.  0.
559  5.58  0.  0.  0.
560  5.59  0.  0.  0.
561  5.60  0.  0.  0.
562  5.61  0.  0.  0.
563  5.62  0.  0.  0.
564  5.63  0.  0.  0.
565  5.64  0.  0.  0.
566  5.65  0.  0.  0.
567  5.66  0.  0.  0.
568  5.67  0.  0.  0.
569  5.68  0.  0.  0.
570  5.69  0.  0.  0.
571  5.70  0.  0.  0.
572  5.71  0.  0.  0.
573  5.72  0.  0.  0.
574  5.73  0.  0.  0.
575  5.74  0.  0.  0.
576  5.75  0.  0.  0.
577  5.76  0.  0.  0.
578  5.77  0.  0.  0.
579  5.78  0.  0.  0.
580  5.79  0.  0.  0.
581  5.80  0.  0.  0.
582  5.81  0.  0.  0.
583  5.82  0.  0.  0.
584  5.83  0.  0.  0.
585  5.84  0.  0.  0.
586  5.85  0.  0.  0.
587  5.86  0.  0.  0.
588  5.87  0.  0.  0.
589  5.88  0.  0.  0.
590  5.89  0.  0.  0.
591  5.90  0.  0.  0.
592  5.91  0.  0.  0.
593  5.92  0.  0.  0.
594  5.93  0.  0.  0.
595  5.94  0.  0.  0.
596  5.95  0.  0.  0.
597  5.96  0.  0.  0.
598  5.97  0.  0.  0.
599  5.98  0.  0.  0.
600  5.99  0.  0.  0.
1                        -9.1292526904146E+00  2.0294900591244E+00
1  0.0000000000000E+00  1.3484004163233E-08  2.3606276479404E-07
2  1.0000000000000E-02  3.1263378084371E-03  2.0522383056610E-03
3  2.0000000000000E-02  1.2477404036399E-02  8.0924647754587E-03
4  3.0000000000000E-02  2.7969748358544E-02  1.7775661212715E-02
5  4.0000000000000E-02  4.9465582203150E-02  3.0541451819793E-02
6  5.0000000000000E-02  7.6774690778517E-02  4.5635499245518E-02
7  6.0000000000000E-02  1.0965704906762E-01  6.2138311572002E-02
8  7.0000000000000E-02  1.4782608328127E-01  7.9000367791931E-02
9  8.0000000000000E-02  1.9095250577608E-01  9.5082233264635E-02
10  9.0000000000000E-02  2.3866864021540E-01  1.0919815327951E-01
11  1.0000000000000E-01  2.9057314510138E-01  1.2016148931128E-01
12  1.1000000000000E-01  3.4623603795962E-01  1.2683030347776E-01
13  1.2000000000000E-01  4.0520391953882E-01  1.2815140413037E-01
14  1.3000000000000E-01  4.6700529740904E-01  1.2320123872205E-01
15  1.4000000000000E-01  5.3115591121588E-01  1.1122215574194E-01
16  1.5000000000000E-01  5.9716396737937E-01  9.1652749683932E-02
17  1.6000000000000E-01  6.6453519893333E-01  6.4151243566619E-02
18  1.7000000000000E-01  7.3277767611808E-01  2.8611142354753E-02
19  1.8000000000000E-01  8.0140630484063E-01 -1.4831303831521E-02
20  1.9000000000000E-01  8.6994696272621E-01 -6.5797968188999E-02
21  2.0000000000000E-01  9.3794023570519E-01 -1.2367786817540E-01
22  2.1000000000000E-01  1.0049447314024E+00 -1.8764385101496E-01
23  2.2000000000000E-01  1.0705399585312E+00 -2.5667617155001E-01
24  2.3000000000000E-01  1.1343287735843E+00 -3.2959194161466E-01
25  2.4000000000000E-01  1.1959394069485E+00 -4.0507922692980E-01
26  2.5000000000000E-01  1.2550270898169E+00 -4.8173441753765E-01
27  2.6000000000000E-01  1.3112753106632E+00 -5.5810140650143E-01
28  2.7000000000000E-01  1.3643967354053E+00 -6.3271108199277E-01
29  2.8000000000000E-01  1.4141338286503E+00 -7.0411967037916E-01
30  2.9000000000000E-01  1.4602592145765E+00 -7.7094456031441E-01
31  3.0000000000000E-01  1.5025758151897E+00 -8.3189638543837E-01
32  3.1000000000000E-01  1.5409168010746E+00 -8.8580633914723E-01
33  3.2000000000000E-01  1.5751453856103E+00 -9.3164793005808E-01
34  3.3000000000000E-01  1.6051544882555E+00 -9.6855265073154E-01
35  3.4000000000000E-01  1.6308662863117E+00 -9.9581931325584E-01
36  3.5000000000000E-01  1.6522316679249E+00 -1.0129170911131E+00
37  3.6000000000000E-01  1.6692295924151E+00 -1.0194825848870E+00
38  3.7000000000000E-01  1.6818663577099E+00 -1.0153114877721E+00
39  3.8000000000000E-01  1.6901747690900E+00 -1.0003456543388E+00
40  3.9000000000000E-01  1.6942131989549E+00 -9.7465656280446E-01
41  4.0000000000000E-01  1.6940645241572E+00 -9.3842629912301E-01
42  4.1000000000000E-01  1.6898349258400E+00 -8.9192727462304E-01
43  4.2000000000000E-01  1.6816525367664E+00 -8.3550191413689E-01
44  4.3000000000000E-01  1.6696659228865E+00 -7.6954351752247E-01
45  4.4000000000000E-01  1.6540423893063E+00 -6.9447940569482E-01
46  4.5000000000000E-01  1.6349661057632E+00 -6.1075731677663E-01
47  4.6000000000000E-01  1.6126360529708E+00 -5.1883582510257E-01
48  4.7000000000000E-01  1.5872637984794E+00 -4.1917932403045E-01
49  4.8000000000000E-01  1.5590711186766E+00 -3.1225785302825E-01
50  4.9000000000000E-01  1.5282874918340E+00 -1.9855177186426E-01
51  5.0000000000000E-01  1.4951474952773E+00 -7.8561002346858E-02
52  5.1000000000000E-01  1.4598881474047E+00  4.7181716289801E-02
53  5.2000000000000E-01  1.4227462419737E+00  1.7809436596373E-01
54  5.3000000000000E-01  1.3839557274551E+00  3.1352701104493E-01
55  5.4000000000000E-01  1.3437451879480E+00  4.5274218900290E-01
56  5.5000000000000E-01  1.3023354839060E+00  5.9489566254598E-01
57  5.6000000000000E-01  1.2599376105155E+00  7.3901893154967E-01
58  5.7000000000000E-01  1.2167508288890E+00  8.8400490522565E-01
59  5.8000000000000E-01  1.1729611202472E+00  1.0285980710994E+00
60  5.9000000000000E-01  1.1287400060462E+00  1.1713903681620E+00
61  6.0000000000000E-01  1.0842437677192E+00  1.3108237805065E+00
62  6.1000000000000E-01  1.0396130886078E+00  1.4452004210108E+00
63  6.2000000000000E-01  9.9497312810974E-01  1.5727005808279E+00
64  6.3000000000000E-01  9.5043402447429E-01  1.6914088904295E+00
65  6.4000000000000E-01  9.0609180853279E-01  1.7993483843627E+00
66  6.5000000000000E-01  8.6202969646677E-01  1.8945218987043E+00
67  6.6000000000000E-01  8.1831971604760E-01  1.9749598722441E+00
68  6.7000000000000E-01  7.7502460817117E-01  2.0387732847097E+00
69  6.8000000000000E-01  7.3219993449059E-01  2.0842101625565E+00
70  6.9000000000000E-01  6.8989631300330E-01  2.1097138287121E+00
71  7.0000000000000E-01  6.4816169700218E-01  2.1139808793576E+00
72  7.1000000000000E-01  6.0704360919448E-01  2.0960167485211E+00
73  7.2000000000000E-01  5.6659124227393E-01  2.0551866775333E+00
74  7.3000000000000E-01  5.2685733993408E-01  1.9912599460150E+00
75  7.4000000000000E-01  4.8789977824926E-01  1.9044453455517E+00
76  7.5000000000000E-01  4.4978277641473E-01  1.7954160848415E+00
77  7.6000000000000E-01  4.1257767779392E-01  1.6653226007375E+00
78  7.7000000000000E-01  3.7636325671513E-01  1.5157921048890E+00
79  7.8000000000000E-01  3.4122552302937E-01  1.3489141092854E+00
80  7.9000000000000E-01  3.0725701452387E-01  1.1672116318401E+00
81  8.0000000000000E-01  2.7455558624840E-01  9.7359826905338E-01
82  8.1000000000000E-01  2.4322272496116E-01  7.7132181894592E-01
83  8.2000000000000E-01  2.1336143551702E-01  5.6389562507918E-01
84  8.3000000000000E-01  1.8507376338243E-01  3.5501927261436E-01
85  8.4000000000000E-01  1.5845803286802E-01  1.4849068148128E-01
86  8.5000000000000E-01  1.3360589348051E-01 -5.1888007373777E-02
87  8.6000000000000E-01  1.1059927644636E-01 -2.4240808429248E-01
88  8.7000000000000E-01  8.9507369493239E-02 -4.1955261211190E-01
89  8.8000000000000E-01  7.0383720059385E-02 -5.8009252588873E-01
90  8.9000000000000E-01  5.3263575049524E-02 -7.2117758630100E-01
91  9.0000000000000E-01  3.8161559032310E-02 -8.4041941548152E-01
92  9.1000000000000E-01  2.5069782509982E-02 -9.3596408319326E-01
93  9.2000000000000E-01  1.3956457868776E-02 -1.0065520494275E+00
94  9.3000000000000E-01  4.7650832832014E-03 -1.0515636959424E+00
95  9.4000000000000E-01 -2.5857652225253E-03 -1.0710491796359E+00
96  9.5000000000000E-01 -8.2020154548497E-03 -1.0657418973266E+00
97  9.6000000000000E-01 -1.2213059711756E-02 -1.0370554443657E+00
98  9.7000000000000E-01 -1.4770123367281E-02 -9.8706455622514E-01
99  9.8000000000000E-01 -1.6044093513003E-02 -9.1847112021419E-01
100  9.9000000000000E-01 -1.6222881728525E-02 -8.3455691605441E-01
101  1.0000000000000E+00 -1.5508408042522E-02 -7.3912503855518E-01
102  1.0100000000000E+00 -1.4113250747022E-02 -6.3643043394612E-01
103  1.0200000000000E+00 -1.2252820107151E-02 -5.3096229495416E-01
104  1.0300000000000E+00 -1.0131282378920E-02 -4.2703025349190E-01
105  1.0400000000000E+00 -7.9339404888887E-03 -3.2857483874124E-01
106  1.0500000000000E+00 -5.8221936287264E-03 -2.3905764136197E-01
107  1.0600000000000E+00 -3.9244676204165E-03 -1.6110946323841E-01
108  1.0700000000000E+00 -2.3449963404751E-03 -9.7027215369463E-02
109  1.0800000000000E+00 -1.1562370696398E-03 -4.8620720830457E-02
110  1.0900000000000E+00 -3.8969931063957E-04 -1.6809565531703E-02
111  1.1000000000000E+00 -3.8254057043943E-05 -1.7123547125335E-03
112  1.1100000000000E+00  1.3486633085834E-06  6.2058555744761E-05
113  1.1200000000000E+00  1.7818588687330E-07  7.9032755783225E-06
114  1.13  0.  0.
115  1.14  0.  0.
116  1.15  0.  0.
117  1.16  0.  0.
118  1.17  0.  0.
119  1.18  0.  0.
120  1.19  0.  0.
121  1.20  0.  0.
122  1.21  0.  0.
123  1.22  0.  0.
124  1.23  0.  0.
125  1.24  0.  0.
126  1.25  0.  0.
127  1.26  0.  0.
128  1.27  0.  0.
129  1.28  0.  0.
130  1.29  0.  0.
131  1.30  0.  0.
132  1.31  0.  0.
133  1.32  0.  0.
134  1.33  0.  0.
135  1.34  0.  0.
136  1.35  0.  0.
137  1.36  0.  0.
138  1.37  0.  0.
139  1.38  0.  0.
140  1.39  0.  0.
141  1.40  0.  0.
142  1.41  0.  0.
143  1.42  0.  0.
144  1.43  0.  0.
145  1.44  0.  0.
146  1.45  0.  0.
147  1.46  0.  0.
148  1.47  0.  0.
149  1.48  0.  0.
150  1.49  0.  0.
151  1.50  0.  0.
152  1.51  0.  0.
153  1.52  0.  0.
154  1.53  0.  0.
155  1.54  0.  0.
156  1.55  0.  0.
157  1.56  0.  0.
158  1.57  0.  0.
159  1.58  0.  0.
160  1.59  0.  0.
161  1.60  0.  0.
162  1.61  0.  0.
163  1.62  0.  0.
164  1.63  0.  0.
165  1.64  0.  0.
166  1.65  0.  0.
167  1.66  0.  0.
168  1.67  0.  0.
169  1.68  0.  0.
170  1.69  0.  0.
171  1.70  0.  0.
172  1.71  0.  0.
173  1.72  0.  0.
174  1.73  0.  0.
175  1.74  0.  0.
176  1.75  0.  0.
177  1.76  0.  0.
178  1.77  0.  0.
179  1.78  0.  0.
180  1.79  0.  0.
181  1.80  0.  0.
182  1.81  0.  0.
183  1.82  0.  0.
184  1.83  0.  0.
185  1.84  0.  0.
186  1.85  0.  0.
187  1.86  0.  0.
188  1.87  0.  0.
189  1.88  0.  0.
190  1.89  0.  0.
191  1.90  0.  0.
192  1.91  0.  0.
193  1.92  0.  0.
194  1.93  0.  0.
195  1.94  0.  0.
196  1.95  0.  0.
197  1.96  0.  0.