Cn    ONCVPSP-4.0.1  r_core=   1.10449   1.10449   1.10449   1.10449
112.0000     52.0000      220206    zatom,zion,pspd
8      11   3     4   600     0    pspcod,pspxc,lmax,lloc,mmax,r2well
5.99000000  5.00000000  0.00000000    rchrg fchrg qchrg
3     2     2     2     0    nproj
1     1           extension_switch
0                        -1.8737693098191E+01  6.7715265045119E+00 -9.9671864335734E-01
1  0.0000000000000E+00 -2.9667635015329E-09  1.4047128571448E-07 -2.6510481171416E-08
2  1.0000000000000E-02  9.0917642917949E-02  1.6797454041806E-01 -1.6041734646983E-02
3  2.0000000000000E-02  1.8154822489904E-01  3.3443828008366E-01 -3.2197245710737E-02
4  3.0000000000000E-02  2.7160629860990E-01  4.9788473402847E-01 -4.8576261602863E-02
5  4.0000000000000E-02  3.6080962060050E-01  6.5681664369640E-01 -6.5280557550660E-02
6  5.0000000000000E-02  4.4888069577374E-01  8.0975203688151E-01 -8.2400328360378E-02
7  6.0000000000000E-02  5.3554825519273E-01  9.5523191285543E-01 -1.0001095926757E-01
8  7.0000000000000E-02  6.2054864872954E-01  1.0918299159980E+00 -1.1817029365583E-01
9  8.0000000000000E-02  7.0362713702591E-01  1.2181642207731E+00 -1.3691646991487E-01
10  9.0000000000000E-02  7.8453907067581E-01  1.3329116901265E+00 -1.5626636960011E-01
11  1.0000000000000E-01  8.6305094829165E-01  1.4348241970829E+00 -1.7621468711658E-01
12  1.1000000000000E-01  9.3894134900681E-01  1.5227468249515E+00 -1.9673359926396E-01
13  1.2000000000000E-01  1.0120017388178E+00  1.5956374948020E+00 -2.1777298304479E-01
14  1.3000000000000E-01  1.0820371538047E+00  1.6525874191514E+00 -2.3926110395248E-01
15  1.4000000000000E-01  1.1488667665244E+00  1.6928416567578E+00 -2.6110567612079E-01
16  1.5000000000000E-01  1.2123243446023E+00  1.7158189524986E+00 -2.8319518153337E-01
17  1.6000000000000E-01  1.2722586126432E+00  1.7211299943414E+00 -3.0540032889363E-01
18  1.7000000000000E-01  1.3285335299456E+00  1.7085932103407E+00 -3.2757553423753E-01
19  1.8000000000000E-01  1.3810284971032E+00  1.6782472641938E+00 -3.4956031496533E-01
20  1.9000000000000E-01  1.4296385043858E+00  1.6303594877166E+00 -3.7118050622059E-01
21  2.0000000000000E-01  1.4742742338579E+00  1.5654296099559E+00 -3.9224923254255E-01
22  2.1000000000000E-01  1.5148621255689E+00  1.4841883006884E+00 -4.1256759712223E-01
23  2.2000000000000E-01  1.5513444159467E+00  1.3875902340032E+00 -4.3192508410771E-01
24  2.3000000000000E-01  1.5836791538766E+00  1.2768015871483E+00 -4.5009970426300E-01
25  2.4000000000000E-01  1.6118401969976E+00  1.1531821112340E+00 -4.6685794874927E-01
26  2.5000000000000E-01  1.6358171876793E+00  1.0182621333805E+00 -4.8195464767654E-01
27  2.6000000000000E-01  1.6556155051204E+00  8.7371506385700E-01 -4.9513285724045E-01
28  2.7000000000000E-01  1.6712561872168E+00  7.2132617632124E-01 -5.0612391976854E-01
29  2.8000000000000E-01  1.6827758134433E+00  5.6295859485176E-01 -5.1464785321103E-01
30  2.9000000000000E-01  1.6902263381204E+00  4.0051754971489E-01 -5.2041422926952E-01
31  3.0000000000000E-01  1.6936748622265E+00  2.3591404804539E-01 -5.2312369169726E-01
32  3.1000000000000E-01  1.6932033314367E+00  7.1029141160643E-02 -5.2247024809146E-01
33  3.2000000000000E-01  1.6889081483845E+00 -9.2320045342214E-02 -5.1814444007145E-01
34  3.3000000000000E-01  1.6808996882582E+00 -2.5241141927072E-01 -5.0983745900606E-01
35  3.4000000000000E-01  1.6693017087276E+00 -4.0764518331560E-01 -4.9724622888117E-01
36  3.5000000000000E-01  1.6542506477796E+00 -5.5656642577879E-01 -4.8007942643520E-01
37  3.6000000000000E-01  1.6358948062220E+00 -6.9788241256273E-01 -4.5806435370331E-01
38  3.7000000000000E-01  1.6143934152462E+00 -8.3047417738384E-01 -4.3095452226975E-01
39  3.8000000000000E-01  1.5899155933665E+00 -9.5340225036983E-01 -3.9853775468871E-01
40  3.9000000000000E-01  1.5626392010951E+00 -1.0659066155107E+00 -3.6064455959505E-01
41  4.0000000000000E-01  1.5327496056672E+00 -1.1674012332820E+00 -3.1715649579008E-01
42  4.1000000000000E-01  1.5004383718247E+00 -1.2574636946555E+00 -2.6801420961349E-01
43  4.2000000000000E-01  1.4659018979056E+00 -1.3358207758024E+00 -2.1322481138210E-01
44  4.3000000000000E-01  1.4293400191117E+00 -1.4023308293862E+00 -1.5286825226918E-01
45  4.4000000000000E-01  1.3909546016991E+00 -1.4569640703625E+00 -8.7102373793533E-02
46  4.5000000000000E-01  1.3509481528475E+00 -1.4997818856119E+00 -1.6166328483357E-02
47  4.6000000000000E-01  1.3095224710528E+00 -1.5309163138152E+00  5.9617888049364E-02
48  4.7000000000000E-01  1.2668773610155E+00 -1.5505508035701E+00  1.3984599750735E-01
49  4.8000000000000E-01  1.2232094351971E+00 -1.5589032652709E+00  2.2403422735068E-01
50  4.9000000000000E-01  1.1787110215347E+00 -1.5562122897596E+00  3.1162438455333E-01
51  5.0000000000000E-01  1.1335691933489E+00 -1.5427272206345E+00  4.0199118666002E-01
52  5.1000000000000E-01  1.0879649333912E+00 -1.5187025459592E+00  4.9445173333033E-01
53  5.2000000000000E-01  1.0420724394159E+00 -1.4843968292916E+00  5.8827691300856E-01
54  5.3000000000000E-01  9.9605857382978E-01 -1.4400761410966E+00  6.8270445497928E-01
55  5.4000000000000E-01  9.5008245507117E-01 -1.3860216921491E+00  7.7695326074656E-01
56  5.5000000000000E-01  9.0429518361382E-01 -1.3225411230737E+00  8.7023858409110E-01
57  5.6000000000000E-01  8.5883969109042E-01 -1.2499826809488E+00  9.6178757961443E-01
58  5.7000000000000E-01  8.1385069717846E-01 -1.1687513261798E+00  1.0508547078301E+00
59  5.8000000000000E-01  7.6945475576096E-01 -1.0793256703624E+00  1.1367364729777E+00
60  5.9000000000000E-01  7.2577036960813E-01 -9.8227455638840E-01  1.2187849789892E+00
61  6.0000000000000E-01  6.8290815152633E-01 -8.7827206097205E-01  1.2964198198040E+00
62  6.1000000000000E-01  6.4097100964866E-01 -7.6810972981136E-01  1.3691378719750E+00
63  6.2000000000000E-01  6.0005433531221E-01 -6.5270494664314E-01  1.4365206287297E+00
64  6.3000000000000E-01  5.6024617374732E-01 -5.3310448649556E-01  1.4982388029782E+00
65  6.4000000000000E-01  5.2162736051536E-01 -4.1048250472884E-01  1.5540540289748E+00
66  6.5000000000000E-01  4.8427161015111E-01 -2.8613245863382E-01  1.6038176045216E+00
67  6.6000000000000E-01  4.4824554763312E-01 -1.6145273687073E-01  1.6474663332794E+00
68  6.7000000000000E-01  4.1360867792883E-01 -3.7926071541545E-02  1.6850156450629E+00
69  6.8000000000000E-01  3.8041329372563E-01  8.2906885370921E-02  1.7165502859147E+00
70  6.9000000000000E-01  3.4870432633591E-01  1.9947913932594E-01  1.7422129742686E+00
71  7.0000000000000E-01  3.1851914942255E-01  3.1023312326695E-01  1.7621915099082E+00
72  7.1000000000000E-01  2.8988734940628E-01  4.1365945473860E-01  1.7767048943979E+00
73  7.2000000000000E-01  2.6283047998197E-01  5.0833727660585E-01  1.7859890716443E+00
74  7.3000000000000E-01  2.3736182090688E-01  5.9297463728256E-01  1.7902829224469E+00
75  7.4000000000000E-01  2.1348616298836E-01  6.6644729093431E-01  1.7898151455657E+00
76  7.5000000000000E-01  1.9119964188838E-01  7.2783429308269E-01  1.7847926292860E+00
77  7.6000000000000E-01  1.7048964292711E-01  7.7644883452125E-01  1.7753908621656E+00
78  7.7000000000000E-01  1.5133479750501E-01  8.1186289532382E-01  1.7617468512595E+00
79  7.8000000000000E-01  1.3370508912197E-01  8.3392450662740E-01  1.7439549133693E+00
80  7.9000000000000E-01  1.1756208335546E-01  8.4276667326652E-01  1.7220655835815E+00
81  8.0000000000000E-01  1.0285929171290E-01  8.3880732488611E-01  1.6960877502353E+00
82  8.1000000000000E-01  8.9542674184914E-02  8.2274001406388E-01  1.6659939819050E+00
83  8.2000000000000E-01  7.7551279815998E-02  7.9551545250227E-01  1.6317288659600E+00
84  8.3000000000000E-01  6.6818018920773E-02  7.5831435453200E-01  1.5932200359511E+00
85  8.4000000000000E-01  5.7270554962828E-02  7.1251242436033E-01  1.5503914327035E+00
86  8.5000000000000E-01  4.8832298836596E-02  6.5963866325169E-01  1.5031782275226E+00
87  8.6000000000000E-01  4.1423483596246E-02  6.0132846953314E-01  1.4515427407895E+00
88  8.7000000000000E-01  3.4962293783874E-02  5.3927324395325E-01  1.3954906201178E+00
89  8.8000000000000E-01  2.9366020613928E-02  4.7516838371720E-01  1.3350865028670E+00
90  8.9000000000000E-01  2.4552212522091E-02  4.1066164149853E-01  1.2704683806943E+00
91  9.0000000000000E-01  2.0439790085993E-02  3.4730383517818E-01  1.2018599102222E+00
92  9.1000000000000E-01  1.6950095118846E-02  2.8650381786183E-01  1.1295799736480E+00
93  9.2000000000000E-01  1.4007845815120E-02  2.2948945745367E-01  1.0540488846789E+00
94  9.3000000000000E-01  1.1541973121708E-02  1.7727613606451E-01  9.7579075559756E-01
95  9.4000000000000E-01  9.4863178947972E-03  1.3064397068834E-01  8.9543168633979E-01
96  9.5000000000000E-01  7.7801737081352E-03  9.0124590008592E-02  8.1369360082530E-01
97  9.6000000000000E-01  6.3686661851897E-03  5.5997892704172E-02  7.3138373317732E-01
98  9.7000000000000E-01  5.2029661815322E-03  2.8298777370008E-02  6.4937994982744E-01
99  9.8000000000000E-01  4.2403407738365E-03  6.8333912244831E-03  5.6861227559303E-01
100  9.9000000000000E-01  3.4440525263472E-03 -8.7959864973807E-03  4.9004116499261E-01
101  1.0000000000000E+00  2.7831236230797E-03 -1.9158711636830E-02  4.1463321716203E-01
102  1.0100000000000E+00  2.2319868991136E-03 -2.4957830708136E-02  3.4333516688712E-01
103  1.0200000000000E+00  1.7700503407281E-03 -2.6988352253690E-02  2.7704708971700E-01
104  1.0300000000000E+00  1.3812071911149E-03 -2.6093902667568E-02  2.1659582641371E-01
105  1.0400000000000E+00  1.0533064146969E-03 -2.3123791777646E-02  1.6270970573331E-01
106  1.0500000000000E+00  7.7749775567666E-04 -1.8891285355438E-02  1.1599584526351E-01
107  1.0600000000000E+00  5.3984538689756E-04 -1.4023339262069E-02  7.6936190947819E-02
108  1.0700000000000E+00  3.3717723079839E-04 -9.1487086404912E-03  4.5838587573014E-02
109  1.0800000000000E+00  1.7640291399250E-04 -4.9069030206608E-03  2.2827956941568E-02
110  1.0900000000000E+00  6.4037737487040E-05 -1.7980351732327E-03  7.8658306577140E-03
111  1.1000000000000E+00  6.8185902909828E-06 -1.9064032054400E-04  7.9084463221141E-04
112  1.1100000000000E+00 -2.4700241885528E-07  6.9009738437405E-06 -2.7718458264276E-05
113  1.1200000000000E+00 -3.2479986197057E-08  9.1307316725880E-07 -3.8322421386985E-06
114  1.13 -0. -0.  0.
115  1.14  0.  0.  0.
116  1.15  0.  0.  0.
117  1.16  0.  0.  0.
118  1.17  0.  0.  0.
119  1.18  0.  0.  0.
120  1.19  0.  0.  0.
121  1.20  0.  0.  0.
122  1.21  0.  0.  0.
123  1.22  0.  0.  0.
124  1.23  0.  0.  0.
125  1.24  0.  0.  0.
126  1.25  0.  0.  0.
127  1.26  0.  0.  0.
128  1.27  0.  0.  0.
129  1.28  0.  0.  0.
130  1.29  0.  0.  0.
131  1.30  0.  0.  0.
132  1.31  0.  0.  0.
133  1.32  0.  0.  0.
134  1.33  0.  0.  0.
135  1.34  0.  0.  0.
136  1.35  0.  0.  0.
137  1.36  0.  0.  0.
138  1.37  0.  0.  0.
139  1.38  0.  0.  0.
140  1.39  0.  0.  0.
141  1.40  0.  0.  0.
142  1.41  0.  0.  0.
143  1.42  0.  0.  0.
144  1.43  0.  0.  0.
145  1.44  0.  0.  0.
146  1.45  0.  0.  0.
147  1.46  0.  0.  0.
148  1.47  0.  0.  0.
149  1.48  0.  0.  0.
150  1.49  0.  0.  0.
151  1.50  0.  0.  0.
152  1.51  0.  0.  0.
153  1.52  0.  0.  0.
154  1.53  0.  0.  0.
155  1.54  0.  0.  0.
156  1.55  0.  0.  0.
157  1.56  0.  0.  0.
158  1.57  0.  0.  0.
159  1.58  0.  0.  0.
160  1.59  0.  0.  0.
161  1.60  0.  0.  0.
162  1.61  0.  0.  0.
163  1.62  0.  0.  0.
164  1.63  0.  0.  0.
165  1.64  0.  0.  0.
166  1.65  0.  0.  0.
167  1.66  0.  0.  0.
168  1.67  0.  0.  0.
169  1.68  0.  0.  0.
170  1.69  0.  0.  0.
171  1.70  0.  0.  0.
172  1.71  0.  0.  0.
173  1.72  0.  0.  0.
174  1.73  0.  0.  0.
175  1.74  0.  0.  0.
176  1.75  0.  0.  0.
177  1.76  0.  0.  0.
178  1.77  0.  0.  0.
179  1.78  0.  0.  0.
180  1.79  0.  0.  0.
181  1.80  0.  0.  0.
182  1.81  0.  0.  0.
183  1.82  0.  0.  0.
184  1.83  0.  0.  0.
185  1.84  0.  0.  0.
186  1.85  0.  0.  0.
187  1.86  0.  0.  0.
188  1.87  0.  0.  0.
189  1.88  0.  0.  0.
190  1.89  0.  0.  0.
191  1.90  0.  0.  0.
192  1.91  0.  0.  0.
193  1.92  0.  0.  0.
194  1.93  0.  0.  0.
195  1.94  0.  0.  0.
196  1.95  0.  0.  0.
197  1.96  0.  0.  0.
198  1.97  0.  0.  0.
199  1.98  0.  0.  0.
200  1.99  0.  0.  0.
201  2.00  0.  0.  0.
202  2.01  0.  0.  0.
203  2.02  0.  0.  0.
204  2.03  0.  0.  0.
205  2.04  0.  0.  0.
206  2.05  0.  0.  0.
207  2.06  0.  0.  0.
208  2.07  0.  0.  0.
209  2.08  0.  0.  0.
210  2.09  0.  0.  0.
211  2.10  0.  0.  0.
212  2.11  0.  0.  0.
213  2.12  0.  0.  0.
214  2.13  0.  0.  0.
215  2.14  0.  0.  0.
216  2.15  0.  0.  0.
217  2.16  0.  0.  0.
218  2.17  0.  0.  0.
219  2.18  0.  0.  0.
220  2.19  0.  0.  0.
221  2.20  0.  0.  0.
222  2.21  0.  0.  0.
223  2.22  0.  0.  0.
224  2.23  0.  0.  0.
225  2.24  0.  0.  0.
226  2.25  0.  0.  0.
227  2.26  0.  0.  0.
228  2.27  0.  0.  0.
229  2.28  0.  0.  0.
230  2.29  0.  0.  0.
231  2.30  0.  0.  0.
232  2.31  0.  0.  0.
233  2.32  0.  0.  0.
234  2.33  0.  0.  0.
235  2.34  0.  0.  0.
236  2.35  0.  0.  0.
237  2.36  0.  0.  0.
238  2.37  0.  0.  0.
239  2.38  0.  0.  0.
240  2.39  0.  0.  0.
241  2.40  0.  0.  0.
242  2.41  0.  0.  0.
243  2.42  0.  0.  0.
244  2.43  0.  0.  0.
245  2.44  0.  0.  0.
246  2.45  0.  0.  0.
247  2.46  0.  0.  0.
248  2.47  0.  0.  0.
249  2.48  0.  0.  0.
250  2.49  0.  0.  0.
251  2.50  0.  0.  0.
252  2.51  0.  0.  0.
253  2.52  0.  0.  0.
254  2.53  0.  0.  0.
255  2.54  0.  0.  0.
256  2.55  0.  0.  0.
257  2.56  0.  0.  0.
258  2.57  0.  0.  0.
259  2.58  0.  0.  0.
260  2.59  0.  0.  0.
261  2.60  0.  0.  0.
262  2.61  0.  0.  0.
263  2.62  0.  0.  0.
264  2.63  0.  0.  0.
265  2.64  0.  0.  0.
266  2.65  0.  0.  0.
267  2.66  0.  0.  0.
268  2.67  0.  0.  0.
269  2.68  0.  0.  0.
270  2.69  0.  0.  0.
271  2.70  0.  0.  0.
272  2.71  0.  0.  0.
273  2.72  0.  0.  0.
274  2.73  0.  0.  0.
275  2.74  0.  0.  0.
276  2.75  0.  0.  0.
277  2.76  0.  0.  0.
278  2.77  0.  0.  0.
279  2.78  0.  0.  0.
280  2.79  0.  0.  0.
281  2.80  0.  0.  0.
282  2.81  0.  0.  0.
283  2.82  0.  0.  0.
284  2.83  0.  0.  0.
285  2.84  0.  0.  0.
286  2.85  0.  0.  0.
287  2.86  0.  0.  0.
288  2.87  0.  0.  0.
289  2.88  0.  0.  0.
290  2.89  0.  0.  0.
291  2.90  0.  0.  0.
292  2.91  0.  0.  0.
293  2.92  0.  0.  0.
294  2.93  0.  0.  0.
295  2.94  0.  0.  0.
296  2.95  0.  0.  0.
297  2.96  0.  0.  0.
298  2.97  0.  0.  0.
299  2.98  0.  0.  0.
300  2.99  0.  0.  0.
301  3.00  0.  0.  0.
302  3.01  0.  0.  0.
303  3.02  0.  0.  0.
304  3.03  0.  0.  0.
305  3.04  0.  0.  0.
306  3.05  0.  0.  0.
307  3.06  0.  0.  0.
308  3.07  0.  0.  0.
309  3.08  0.  0.  0.
310  3.09  0.  0.  0.
311  3.10  0.  0.  0.
312  3.11  0.  0.  0.
313  3.12  0.  0.  0.
314  3.13  0.  0.  0.
315  3.14  0.  0.  0.
316  3.15  0.  0.  0.
317  3.16  0.  0.  0.
318  3.17  0.  0.  0.
319  3.18  0.  0.  0.
320  3.19  0.  0.  0.
321  3.20  0.  0.  0.
322  3.21  0.  0.  0.
323  3.22  0.  0.  0.
324  3.23  0.  0.  0.
325  3.24  0.  0.  0.
326  3.25  0.  0.  0.
327  3.26  0.  0.  0.
328  3.27  0.  0.  0.
329  3.28  0.  0.  0.
330  3.29  0.  0.  0.
331  3.30  0.  0.  0.
332  3.31  0.  0.  0.
333  3.32  0.  0.  0.
334  3.33  0.  0.  0.
335  3.34  0.  0.  0.
336  3.35  0.  0.  0.
337  3.36  0.  0.  0.
338  3.37  0.  0.  0.
339  3.38  0.  0.  0.
340  3.39  0.  0.  0.
341  3.40  0.  0.  0.
342  3.41  0.  0.  0.
343  3.42  0.  0.  0.
344  3.43  0.  0.  0.
345  3.44  0.  0.  0.
346  3.45  0.  0.  0.
347  3.46  0.  0.  0.
348  3.47  0.  0.  0.
349  3.48  0.  0.  0.
350  3.49  0.  0.  0.
351  3.50  0.  0.  0.
352  3.51  0.  0.  0.
353  3.52  0.  0.  0.
354  3.53  0.  0.  0.
355  3.54  0.  0.  0.
356  3.55  0.  0.  0.
357  3.56  0.  0.  0.
358  3.57  0.  0.  0.
359  3.58  0.  0.  0.
360  3.59  0.  0.  0.
361  3.60  0.  0.  0.
362  3.61  0.  0.  0.
363  3.62  0.  0.  0.
364  3.63  0.  0.  0.
365  3.64  0.  0.  0.
366  3.65  0.  0.  0.
367  3.66  0.  0.  0.
368  3.67  0.  0.  0.
369  3.68  0.  0.  0.
370  3.69  0.  0.  0.
371  3.70  0.  0.  0.
372  3.71  0.  0.  0.
373  3.72  0.  0.  0.
374  3.73  0.  0.  0.
375  3.74  0.  0.  0.
376  3.75  0.  0.  0.
377  3.76  0.  0.  0.
378  3.77  0.  0.  0.
379  3.78  0.  0.  0.
380  3.79  0.  0.  0.
381  3.80  0.  0.  0.
382  3.81  0.  0.  0.
383  3.82  0.  0.  0.
384  3.83  0.  0.  0.
385  3.84  0.  0.  0.
386  3.85  0.  0.  0.
387  3.86  0.  0.  0.
388  3.87  0.  0.  0.
389  3.88  0.  0.  0.
390  3.89  0.  0.  0.
391  3.90  0.  0.  0.
392  3.91  0.  0.  0.
393  3.92  0.  0.  0.
394  3.93  0.  0.  0.
395  3.94  0.  0.  0.
396  3.95  0.  0.  0.
397  3.96  0.  0.  0.
398  3.97  0.  0.  0.
399  3.98  0.  0.  0.
400  3.99  0.  0.  0.
401  4.00  0.  0.  0.
402  4.01  0.  0.  0.
403  4.02  0.  0.  0.
404  4.03  0.  0.  0.
405  4.04  0.  0.  0.
406  4.05  0.  0.  0.
407  4.06  0.  0.  0.
408  4.07  0.  0.  0.
409  4.08  0.  0.  0.
410  4.09  0.  0.  0.
411  4.10  0.  0.  0.
412  4.11  0.  0.  0.
413  4.12  0.  0.  0.
414  4.13  0.  0.  0.
415  4.14  0.  0.  0.
416  4.15  0.  0.  0.
417  4.16  0.  0.  0.
418  4.17  0.  0.  0.
419  4.18  0.  0.  0.
420  4.19  0.  0.  0.
421  4.20  0.  0.  0.
422  4.21  0.  0.  0.
423  4.22  0.  0.  0.
424  4.23  0.  0.  0.
425  4.24  0.  0.  0.
426  4.25  0.  0.  0.
427  4.26  0.  0.  0.
428  4.27  0.  0.  0.
429  4.28  0.  0.  0.
430  4.29  0.  0.  0.
431  4.30  0.  0.  0.
432  4.31  0.  0.  0.
433  4.32  0.  0.  0.
434  4.33  0.  0.  0.
435  4.34  0.  0.  0.
436  4.35  0.  0.  0.
437  4.36  0.  0.  0.
438  4.37  0.  0.  0.
439  4.38  0.  0.  0.
440  4.39  0.  0.  0.
441  4.40  0.  0.  0.
442  4.41  0.  0.  0.
443  4.42  0.  0.  0.
444  4.43  0.  0.  0.
445  4.44  0.  0.  0.
446  4.45  0.  0.  0.
447  4.46  0.  0.  0.
448  4.47  0.  0.  0.
449  4.48  0.  0.  0.
450  4.49  0.  0.  0.
451  4.50  0.  0.  0.
452  4.51  0.  0.  0.
453  4.52  0.  0.  0.
454  4.53  0.  0.  0.
455  4.54  0.  0.  0.
456  4.55  0.  0.  0.
457  4.56  0.  0.  0.
458  4.57  0.  0.  0.
459  4.58  0.  0.  0.
460  4.59  0.  0.  0.
461  4.60  0.  0.  0.
462  4.61  0.  0.  0.
463  4.62  0.  0.  0.
464  4.63  0.  0.  0.
465  4.64  0.  0.  0.
466  4.65  0.  0.  0.
467  4.66  0.  0.  0.
468  4.67  0.  0.  0.
469  4.68  0.  0.  0.
470  4.69  0.  0.  0.
471  4.70  0.  0.  0.
472  4.71  0.  0.  0.
473  4.72  0.  0.  0.
474  4.73  0.  0.  0.
475  4.74  0.  0.  0.
476  4.75  0.  0.  0.
477  4.76  0.  0.  0.
478  4.77  0.  0.  0.
479  4.78  0.  0.  0.
480  4.79  0.  0.  0.
481  4.80  0.  0.  0.
482  4.81  0.  0.  0.
483  4.82  0.  0.  0.
484  4.83  0.  0.  0.
485  4.84  0.  0.  0.
486  4.85  0.  0.  0.
487  4.86  0.  0.  0.
488  4.87  0.  0.  0.
489  4.88  0.  0.  0.
490  4.89  0.  0.  0.
491  4.90  0.  0.  0.
492  4.91  0.  0.  0.
493  4.92  0.  0.  0.
494  4.93  0.  0.  0.
495  4.94  0.  0.  0.
496  4.95  0.  0.  0.
497  4.96  0.  0.  0.
498  4.97  0.  0.  0.
499  4.98  0.  0.  0.
500  4.99  0.  0.  0.
501  5.00  0.  0.  0.
502  5.01  0.  0.  0.
503  5.02  0.  0.  0.
504  5.03  0.  0.  0.
505  5.04  0.  0.  0.
506  5.05  0.  0.  0.
507  5.06  0.  0.  0.
508  5.07  0.  0.  0.
509  5.08  0.  0.  0.
510  5.09  0.  0.  0.
511  5.10  0.  0.  0.
512  5.11  0.  0.  0.
513  5.12  0.  0.  0.
514  5.13  0.  0.  0.
515  5.14  0.  0.  0.
516  5.15  0.  0.  0.
517  5.16  0.  0.  0.
518  5.17  0.  0.  0.
519  5.18  0.  0.  0.
520  5.19  0.  0.  0.
521  5.20  0.  0.  0.
522  5.21  0.  0.  0.
523  5.22  0.  0.  0.
524  5.23  0.  0.  0.
525  5.24  0.  0.  0.
526  5.25  0.  0.  0.
527  5.26  0.  0.  0.
528  5.27  0.  0.  0.
529  5.28  0.  0.  0.
530  5.29  0.  0.  0.
531  5.30  0.  0.  0.
532  5.31  0.  0.  0.
533  5.32  0.  0.  0.
534  5.33  0.  0.  0.
535  5.34  0.  0.  0.
536  5.35  0.  0.  0.
537  5.36  0.  0.  0.
538  5.37  0.  0.  0.
539  5.38  0.  0.  0.
540  5.39  0.  0.  0.
541  5.40  0.  0.  0.
542  5.41  0.  0.  0.
543  5.42  0.  0.  0.
544  5.43  0.  0.  0.
545  5.44  0.  0.  0.
546  5.45  0.  0.  0.
547  5.46  0.  0.  0.
548  5.47  0.  0.  0.
549  5.48  0.  0.  0.
550  5.49  0.  0.  0.
551  5.50  0.  0.  0.
552  5.51  0.  0.  0.
553  5.52  0.  0.  0.
554  5.53  0.  0.  0.
555  5.54  0.  0.  0.
556  5.55  0.  0.  0.
557  5.56  0.  0.  0.
558  5.57  0.  0.  0.
559  5.58  0.  0.  0.
560  5.59  0.  0.  0.
561  5.60  0.  0.  0.
562  5.61  0.  0.  0.
563  5.62  0.  0.  0.
564  5.63  0.  0.  0.
565  5.64  0.  0.  0.
566  5.65  0.  0.  0.
567  5.66  0.  0.  0.
568  5.67  0.  0.  0.
569  5.68  0.  0.  0.
570  5.69  0.  0.  0.
571  5.70  0.  0.  0.
572  5.71  0.  0.  0.
573  5.72  0.  0.  0.
574  5.73  0.  0.  0.
575  5.74  0.  0.  0.
576  5.75  0.  0.  0.
577  5.76  0.  0.  0.
578  5.77  0.  0.  0.
579  5.78  0.  0.  0.
580  5.79  0.  0.  0.
581  5.80  0.  0.  0.
582  5.81  0.  0.  0.
583  5.82  0.  0.  0.
584  5.83  0.  0.  0.
585  5.84  0.  0.  0.
586  5.85  0.  0.  0.
587  5.86  0.  0.  0.
588  5.87  0.  0.  0.
589  5.88  0.  0.  0.
590  5.89  0.  0.  0.
591  5.90  0.  0.  0.
592  5.91  0.  0.  0.
593  5.92  0.  0.  0.
594  5.93  0.  0.  0.
595  5.94  0.  0.  0.
596  5.95  0.  0.  0.
597  5.96  0.  0.  0.
598  5.97  0.  0.  0.
599  5.98  0.  0.  0.
600  5.99  0.  0.  0.
1                        -1.4845569949073E+01 -2.0589339042770E+00
1  0.0000000000000E+00  3.7718521639363E-09 -3.4976776613904E-08
2  1.0000000000000E-02  3.0117853071238E-03 -3.9738076341695E-03
3  2.0000000000000E-02  1.2025136989522E-02 -1.5837750568594E-02
4  3.0000000000000E-02  2.6974234462677E-02 -3.5420352923120E-02
5  4.0000000000000E-02  4.7750015016616E-02 -6.2439011761273E-02
6  5.0000000000000E-02  7.4201123630096E-02 -9.6504701878405E-02
7  6.0000000000000E-02  1.0613522768096E-01 -1.3712840416457E-01
8  7.0000000000000E-02  1.4332068183374E-01 -1.8372910533995E-01
9  8.0000000000000E-02  1.8548852461365E-01 -2.3564318188390E-01
10  9.0000000000000E-02  2.3233478471228E-01 -2.9213495194261E-01
11  1.0000000000000E-01  2.8352307196425E-01 -3.5240815675491E-01
12  1.1000000000000E-01  3.3868742522674E-01 -4.1561811828056E-01
13  1.2000000000000E-01  3.9743538711392E-01 -4.8088431257715E-01
14  1.3000000000000E-01  4.5935127370563E-01 -5.4730309909470E-01
15  1.4000000000000E-01  5.2399960597050E-01 -6.1396035420738E-01
16  1.5000000000000E-01  5.9092866871595E-01 -6.7994377247432E-01
17  1.6000000000000E-01  6.5967416238780E-01 -7.4435462057006E-01
18  1.7000000000000E-01  7.2976291296912E-01 -8.0631875558827E-01
19  1.8000000000000E-01  8.0071660554265E-01 -8.6499675036822E-01
20  1.9000000000000E-01  8.7205550774929E-01 -9.1959300236471E-01
21  2.0000000000000E-01  9.4330215035843E-01 -9.6936373804780E-01
22  2.1000000000000E-01  1.0139849334239E+00 -1.0136238605287E+00
23  2.2000000000000E-01  1.0836416279924E+00 -1.0517526227441E+00
24  2.3000000000000E-01  1.1518227450177E+00 -1.0831981408622E+00
25  2.4000000000000E-01  1.2180947449830E+00 -1.1074807915051E+00
26  2.5000000000000E-01  1.2820430637049E+00 -1.1241955609791E+00
27  2.6000000000000E-01  1.3432749318697E+00 -1.1330134342704E+00
28  2.7000000000000E-01  1.4014219680009E+00 -1.1336819255958E+00
29  2.8000000000000E-01  1.4561425267759E+00 -1.1260248605794E+00
30  2.9000000000000E-01  1.5071237868753E+00 -1.1099415226664E+00
31  3.0000000000000E-01  1.5540835648649E+00 -1.0854052734545E+00
32  3.1000000000000E-01  1.5967718439716E+00 -1.0524617487132E+00
33  3.2000000000000E-01  1.6349720090280E+00 -1.0112267196788E+00
34  3.3000000000000E-01  1.6685017813234E+00 -9.6188369362158E-01
35  3.4000000000000E-01  1.6972138496209E+00 -9.0468130968628E-01
36  3.5000000000000E-01  1.7209961961834E+00 -8.3993056669444E-01
37  3.6000000000000E-01  1.7397721192923E+00 -7.6800190008002E-01
38  3.7000000000000E-01  1.7534999564408E+00 -6.8932210652129E-01
39  3.8000000000000E-01  1.7621725151282E+00 -6.0437109816648E-01
40  3.9000000000000E-01  1.7658162209552E+00 -5.1367845456365E-01
41  4.0000000000000E-01  1.7644899955022E+00 -4.1781973027495E-01
42  4.1000000000000E-01  1.7582838792269E+00 -3.1741247027984E-01
43  4.2000000000000E-01  1.7473174173152E+00 -2.1311188403513E-01
44  4.3000000000000E-01  1.7317378290092E+00 -1.0560613261940E-01
45  4.4000000000000E-01  1.7117179833653E+00  4.3888083308157E-03
46  4.5000000000000E-01  1.6874542066243E+00  1.1613473449727E-01
47  4.6000000000000E-01  1.6591639483282E+00  2.2887725560284E-01
48  4.7000000000000E-01  1.6270833349517E+00  3.4185228329053E-01
49  4.8000000000000E-01  1.5914646410722E+00  4.5429293048063E-01
50  4.9000000000000E-01  1.5525737089236E+00  5.6543676529793E-01
51  5.0000000000000E-01  1.5106873475307E+00  6.7453333929275E-01
52  5.1000000000000E-01  1.4660907424584E+00  7.8085188731584E-01
53  5.2000000000000E-01  1.4190749065173E+00  8.8368907617630E-01
54  5.3000000000000E-01  1.3699342005251E+00  9.8237666218190E-01
55  5.4000000000000E-01  1.3189639514402E+00  1.0762889047896E+00
56  5.5000000000000E-01  1.2664581928768E+00  1.1648495756875E+00
57  5.6000000000000E-01  1.2127075502131E+00  1.2475384003015E+00
58  5.7000000000000E-01  1.1579972892686E+00  1.3238967723717E+00
59  5.8000000000000E-01  1.1026055439155E+00  1.3935325920193E+00
60  5.9000000000000E-01  1.0468017340911E+00  1.4561240935439E+00
61  6.0000000000000E-01  9.9084518157117E-01  1.5114225506804E+00
62  6.1000000000000E-01  9.3498392666603E-01  1.5592537736263E+00
63  6.2000000000000E-01  8.7945374481352E-01  1.5995183429931E+00
64  6.3000000000000E-01  8.2447735797508E-01  1.6321905599111E+00
65  6.4000000000000E-01  7.7026383191829E-01  1.6573161276648E+00
66  6.5000000000000E-01  7.1700814698903E-01  1.6750086171355E+00
67  6.6000000000000E-01  6.6489092695024E-01  1.6854448046336E+00
68  6.7000000000000E-01  6.1407830797881E-01  1.6888590050219E+00
69  6.8000000000000E-01  5.6472192804699E-01  1.6855365540410E+00
70  6.9000000000000E-01  5.1695901572857E-01  1.6758066201877E+00
71  7.0000000000000E-01  4.7091255700185E-01  1.6600345472897E+00
72  7.1000000000000E-01  4.2669151888880E-01  1.6386139431406E+00
73  7.2000000000000E-01  3.8439110976456E-01  1.6119587365514E+00
74  7.3000000000000E-01  3.4409305786435E-01  1.5804954245141E+00
75  7.4000000000000E-01  3.0586589184812E-01  1.5446557227458E+00
76  7.5000000000000E-01  2.6976521018147E-01  1.5048698168458E+00
77  7.6000000000000E-01  2.3583392945277E-01  1.4615603881252E+00
78  7.7000000000000E-01  2.0410250545515E-01  1.4151375586064E+00
79  7.8000000000000E-01  1.7458912478459E-01  1.3659948647347E+00
80  7.9000000000000E-01  1.4729986869940E-01  1.3145063302391E+00
81  8.0000000000000E-01  1.2222885490124E-01  1.2610246667347E+00
82  8.1000000000000E-01  9.9358366584903E-02  1.2058805876151E+00
83  8.2000000000000E-01  7.8658981414677E-02  1.1493831781699E+00
84  8.3000000000000E-01  6.0089715883871E-02  1.0918212242987E+00
85  8.4000000000000E-01  4.3598202677031E-02  1.0334653652765E+00
86  8.5000000000000E-01  2.9120920078189E-02  9.7457090420933E-01
87  8.6000000000000E-01  1.6583493072582E-02  9.1538108441784E-01
88  8.7000000000000E-01  5.9010855201889E-03  8.5613062206389E-01
89  8.8000000000000E-01 -3.0210983870824E-03  7.9704927569979E-01
90  8.9000000000000E-01 -1.0287187229076E-02  7.3836523257026E-01
91  9.0000000000000E-01 -1.6009876773679E-02  6.8030809959919E-01
92  9.1000000000000E-01 -2.0309516144092E-02  6.2311130387138E-01
93  9.2000000000000E-01 -2.3313040541142E-02  5.6701373255600E-01
94  9.3000000000000E-01 -2.5152750240337E-02  5.1226047476696E-01
95  9.4000000000000E-01 -2.5964940897074E-02  4.5910256666720E-01
96  9.5000000000000E-01 -2.5888395733603E-02  4.0779568479031E-01
97  9.6000000000000E-01 -2.5062755763794E-02  3.5859777946048E-01
98  9.7000000000000E-01 -2.3626789641487E-02  3.1176568854755E-01
99  9.8000000000000E-01 -2.1716589805870E-02  2.6755081978010E-01
100  9.9000000000000E-01 -1.9463726150318E-02  2.2619403554431E-01
101  1.0000000000000E+00 -1.6993392287280E-02  1.8791991574054E-01
102  1.0100000000000E+00 -1.4422582462314E-02  1.5293061014137E-01
103  1.0200000000000E+00 -1.1858339157121E-02  1.2139952036363E-01
104  1.0300000000000E+00 -9.3961121305679E-03  9.3465086653095E-02
105  1.0400000000000E+00 -7.1182708562594E-03  6.9224829215387E-02
106  1.0500000000000E+00 -5.0928107830488E-03  4.8728999507603E-02
107  1.0600000000000E+00 -3.3732847561188E-03  3.1925482444850E-02
108  1.0700000000000E+00 -1.9971438104554E-03  1.8774518572937E-02
109  1.0800000000000E+00 -9.8334902781195E-04  9.2225928336720E-03
110  1.0900000000000E+00 -3.3321036938686E-04  3.1326803743318E-03
111  1.1000000000000E+00 -3.2741980165524E-05  3.1027332896914E-04
112  1.1100000000000E+00  1.1283472593277E-06 -1.0751555197707E-05
113  1.1200000000000E+00  1.5950137754457E-07 -1.5070160556179E-06
114  1.13 -0. -0.
115  1.14  0.  0.
116  1.15  0.  0.
117  1.16  0.  0.
118  1.17  0.  0.
119  1.18  0.  0.
120  1.19  0.  0.
121  1.20  0.  0.
122  1.21  0.  0.
123  1.22  0.  0.
124  1.23  0.  0.
125  1.24  0.  0.
126  1.25  0.  0.
127  1.26  0.  0.
128  1.27  0.  0.
129  1.28  0.  0.
130  1.29  0.  0.
131  1.30  0.  0.
132  1.31  0.  0.
133  1.32  0.  0.
134  1.33  0.  0.
135  1.34  0.  0.
136  1.35  0.  0.
137  1.36  0.  0.
138  1.37  0.  0.
139  1.38  0.  0.
140  1.39  0.  0.
141  1.40  0.  0.
142  1.41  0.  0.
143  1.42  0.  0.
144  1.43  0.  0.
145  1.44  0.  0.
146  1.45  0.  0.
147  1.46  0.  0.
148  1.47  0.  0.
149  1.48  0.  0.
150  1.49  0.  0.
151  1.50  0.  0.
152  1.51  0.  0.
153  1.52  0.  0.
154  1.53  0.  0.
155  1.54  0.  0.
156  1.55  0.  0.
157  1.56  0.  0.
158  1.57  0.  0.
159  1.58  0.  0.
160  1.59  0.  0.
161  1.60  0.  0.
162  1.61  0.  0.
163  1.62  0.  0.
164  1.63  0.  0.
165  1.64  0.  0.
166  1.65  0.  0.
167  1.66  0.  0.
168  1.67  0.  0.
169  1.68  0.  0.
170  1.69  0.  0.
171  1.70  0.  0.
172  1.71  0.  0.
173  1.72  0.  0.
174  1.73  0.  0.
175  1.74  0.  0.
176  1.75  0.  0.
177  1.76  0.  0.
178  1.77  0.  0.
179  1.78  0.  0.
180  1.79  0.  0.
181  1.80  0.  0.
182  1.81  0.  0.
183  1.82  0.  0.
184  1.83  0.  0.
185  1.84  0.  0.
186  1.85  0.  0.
187  1.86  0.  0.
188  1.87  0.  0.
189  1.88  0.  0.
190  1.89  0.  0.
191  1.90  0.  0.
192  1.91  0.  0.
193  1.92  0.  0.
194  1.93  0.  0.
195  1.94  0.  0.
196  1.95  0.  0.
197  1.96  0.  0.