Cn    ONCVPSP-4.0.1  r_core=   1.10449   1.30588   1.20097   1.10449
    112.0000     52.0000      211120    zatom,zion,pspd
     8      11   3     4   600     0    pspcod,pspxc,lmax,lloc,mmax,r2well
  5.99000000  5.00000000  0.00000000    rchrg fchrg qchrg
     3     2     2     2     0    nproj
     1     1           extension_switch
   0                        -1.8669941826272E+01  1.1287709009618E+01 -1.1931528834821E+00
     1  0.0000000000000E+00 -1.7764700821488E-10  1.5400695829726E-08 -3.6121364857533E-08
     2  1.0000000000000E-02  8.6514318729758E-02  2.1034726884294E-01 -9.1009380130056E-03
     3  2.0000000000000E-02  1.7279981246517E-01  4.1825787335485E-01 -1.8501030071342E-02
     4  3.0000000000000E-02  2.5862829213793E-01  6.2132388060212E-01 -2.8490871906889E-02
     5  4.0000000000000E-02  3.4377284038489E-01  8.1719457902571E-01 -3.9344196126037E-02
     6  5.0000000000000E-02  4.2800844709459E-01  1.0036044804583E+00 -5.1310064208392E-02
     7  6.0000000000000E-02  5.1111264475145E-01  1.1784005779280E+00 -6.4605778720137E-02
     8  7.0000000000000E-02  5.9286614376405E-01  1.3395685897098E+00 -7.9410710460597E-02
     9  8.0000000000000E-02  6.7305346814161E-01  1.4852579046852E+00 -9.5861199139256E-02
    10  9.0000000000000E-02  7.5146359205786E-01  1.6138049283607E+00 -1.1404664430957E-01
    11  1.0000000000000E-01  8.2789057798652E-01  1.7237545149294E+00 -1.3400685761462E-01
    12  1.1000000000000E-01  9.0213421718067E-01  1.8138791607033E+00 -1.5573070004242E-01
    13  1.2000000000000E-01  9.7400067327003E-01  1.8831956302542E+00 -1.7915598102312E-01
    14  1.3000000000000E-01  1.0433031296429E+00  1.9309786906913E+00 -2.0417055196093E-01
    15  1.4000000000000E-01  1.1098624410399E+00  1.9567716433989E+00 -2.3061448716754E-01
    16  1.5000000000000E-01  1.1735077894046E+00  1.9603933675962E+00 -2.5828321189436E-01
    17  1.6000000000000E-01  1.2340773434961E+00  1.9419416270993E+00 -2.8693141166220E-01
    18  1.7000000000000E-01  1.2914189210858E+00  1.9017924409283E+00 -3.1627754037899E-01
    19  1.8000000000000E-01  1.3453906517270E+00  1.8405953795495E+00 -3.4600873738990E-01
    20  1.9000000000000E-01  1.3958616371399E+00  1.7592647205727E+00 -3.7578596572247E-01
    21  2.0000000000000E-01  1.4427126052073E+00  1.6589664790228E+00 -4.0524919499760E-01
    22  2.1000000000000E-01  1.4858365524779E+00  1.5411014156577E+00 -4.3402247194843E-01
    23  2.2000000000000E-01  1.5251393689559E+00  1.4072842195263E+00 -4.6171874798177E-01
    24  2.3000000000000E-01  1.5605404378723E+00  1.2593191549470E+00 -4.8794436514439E-01
    25  2.4000000000000E-01  1.5919732021339E+00  1.0991725549909E+00 -5.1230313736215E-01
    26  2.5000000000000E-01  1.6193856882789E+00  9.2894262989443E-01 -5.3440000087583E-01
    27  2.6000000000000E-01  1.6427409780863E+00  7.5082713616957E-01 -5.5384424430401E-01
    28  2.7000000000000E-01  1.6620176175332E+00  5.6708951728308E-01 -5.7025236265704E-01
    29  2.8000000000000E-01  1.6772099526097E+00  3.8002417674859E-01 -5.8325060898871E-01
    30  2.9000000000000E-01  1.6883283816171E+00  1.9192157691451E-01 -5.9247734052118E-01
    31  3.0000000000000E-01  1.6953995140078E+00  5.0338698500817E-03 -5.9758527166294E-01
    32  3.1000000000000E-01  1.6984662265909E+00 -1.7845824054734E-01 -5.9824375340640E-01
    33  3.2000000000000E-01  1.6975876090159E+00 -3.5647673408049E-01 -5.9414119663744E-01
    34  3.3000000000000E-01  1.6928387918446E+00 -5.2707498444612E-01 -5.8498774589326E-01
    35  3.4000000000000E-01  1.6843106522023E+00 -6.8846338817958E-01 -5.7051829053094E-01
    36  3.5000000000000E-01  1.6721093939174E+00 -8.3903144029325E-01 -5.5049587305131E-01
    37  3.6000000000000E-01  1.6563560011705E+00 -9.7736588244405E-01 -5.2471552082112E-01
    38  3.7000000000000E-01  1.6371855669107E+00 -1.1022646580392E+00 -4.9300848937408E-01
    39  3.8000000000000E-01  1.6147464996015E+00 -1.2127465241370E+00 -4.5524686485737E-01
    40  3.9000000000000E-01  1.5891996141577E+00 -1.3080562882271E+00 -4.1134843221218E-01
    41  4.0000000000000E-01  1.5607171151520E+00 -1.3876657547505E+00 -3.6128167661018E-01
    42  4.1000000000000E-01  1.5294814824468E+00 -1.4512705773826E+00 -3.0507075074554E-01
    43  4.2000000000000E-01  1.4956842712643E+00 -1.4987833146976E+00 -2.4280021189818E-01
    44  4.3000000000000E-01  1.4595248403023E+00 -1.5303230753303E+00 -1.7461931207603E-01
    45  4.4000000000000E-01  1.4212090227718E+00 -1.5462022111420E+00 -1.0074561350496E-01
    46  4.5000000000000E-01  1.3809477561480E+00 -1.5469105708714E+00 -2.1467701324561E-02
    47  4.6000000000000E-01  1.3389556869586E+00 -1.5330978607606E+00  6.2853223859001E-02
    48  4.7000000000000E-01  1.2954497670741E+00 -1.5055546719869E+00  1.5178306887372E-01
    49  4.8000000000000E-01  1.2506478577139E+00 -1.4651927275682E+00  2.4481604886298E-01
    50  4.9000000000000E-01  1.2047673567644E+00 -1.4130248747585E+00  3.4137748617561E-01
    51  5.0000000000000E-01  1.1580238640402E+00 -1.3501453046436E+00  4.4082827660732E-01
    52  5.1000000000000E-01  1.1106298978637E+00 -1.2777104212273E+00  5.4247103542294E-01
    53  5.2000000000000E-01  1.0627936748295E+00 -1.1969207109226E+00  6.4555787476347E-01
    54  5.3000000000000E-01  1.0147179629311E+00 -1.1090038836424E+00  7.4929970186820E-01
    55  5.4000000000000E-01  9.6659901641646E-01 -1.0151994725248E+00  8.5287686672676E-01
    56  5.5000000000000E-01  9.1862559887540E-01 -9.1674499474880E-01  9.5545093103924E-01
    57  5.6000000000000E-01  8.7097809921405E-01 -8.1486369485736E-01  1.0561772803201E+00
    58  5.7000000000000E-01  8.2382774340090E-01 -7.1075381818963E-01  1.1542182600170E+00
    59  5.8000000000000E-01  7.7733590323438E-01 -6.0557929873545E-01  1.2487564866703E+00
    60  5.9000000000000E-01  7.3165350193125E-01 -5.0046169565193E-01  1.3390079680091E+00
    61  6.0000000000000E-01  6.8692051510616E-01 -3.9647317785267E-01  1.4242346625436E+00
    62  6.1000000000000E-01  6.4326556473240E-01 -2.9463033771264E-01  1.5037561201510E+00
    63  6.2000000000000E-01  6.0080560295407E-01 -1.9588861341286E-01  1.5769598702448E+00
    64  6.3000000000000E-01  5.5964568216122E-01 -1.0113711429800E-01  1.6433102626122E+00
    65  6.4000000000000E-01  5.1987880752760E-01 -1.1193673522823E-02  1.7023555165397E+00
    66  6.5000000000000E-01  4.8158586822063E-01  7.3200004870386E-02  1.7537327945370E+00
    67  6.6000000000000E-01  4.4483564368867E-01  1.5138318423412E-01  1.7971711854113E+00
    68  6.7000000000000E-01  4.0968488176625E-01  2.2278093878680E-01  1.8324925548983E+00
    69  6.8000000000000E-01  3.7617844576353E-01  2.8690895892960E-01  1.8596102974838E+00
    70  6.9000000000000E-01  3.4434952816570E-01  3.4337821257777E-01  1.8785260973034E+00
    71  7.0000000000000E-01  3.1421992900734E-01  3.9189929876269E-01  1.8893248759380E+00
    72  7.1000000000000E-01  2.8580039735168E-01  4.3228628015394E-01  1.8921681675190E+00
    73  7.2000000000000E-01  2.5909103454783E-01  4.6445974318486E-01  1.8872862140983E+00
    74  7.3000000000000E-01  2.3408175801960E-01  4.8844881095358E-01  1.8749691144162E+00
    75  7.4000000000000E-01  2.1075282422768E-01  5.0439182711657E-01  1.8555573851945E+00
    76  7.5000000000000E-01  1.8907540912346E-01  5.1253543989473E-01  1.8294323047253E+00
    77  7.6000000000000E-01  1.6901224387308E-01  5.1323184446609E-01  1.7970064032572E+00
    78  7.7000000000000E-01  1.5051830288175E-01  5.0693398888352E-01  1.7587144437026E+00
    79  7.8000000000000E-01  1.3354154021352E-01  4.9418861175370E-01  1.7150052003518E+00
    80  7.9000000000000E-01  1.1802366941515E-01  4.7562705686369E-01  1.6663342941483E+00
    81  8.0000000000000E-01  1.0390098056096E-01  4.5195389757181E-01  1.6131582828183E+00
    82  8.1000000000000E-01  9.1105187094876E-02  4.2393349823492E-01  1.5559301354491E+00
    83  8.2000000000000E-01  7.9564293819276E-02  3.9237473685594E-01  1.4950961470921E+00
    84  8.3000000000000E-01  6.9203476235396E-02  3.5811420782803E-01  1.4310942730190E+00
    85  8.4000000000000E-01  5.9945960445672E-02  3.2199831132391E-01  1.3643537879244E+00
    86  8.5000000000000E-01  5.1713892050080E-02  2.8486471185979E-01  1.2952961061415E+00
    87  8.6000000000000E-01  4.4429181967423E-02  2.4752370851424E-01  1.2243365381700E+00
    88  8.7000000000000E-01  3.8014316939784E-02  2.1074009941900E-01  1.1518867094896E+00
    89  8.8000000000000E-01  3.2393122673851E-02  1.7521614042076E-01  1.0783573322924E+00
    90  8.9000000000000E-01  2.7491468162197E-02  1.4157619012133E-01  1.0041610013388E+00
    91  9.0000000000000E-01  2.3237900720154E-02  1.1035359974593E-01  9.2971468287140E-01
    92  9.1000000000000E-01  1.9564202661713E-02  8.1980346526070E-02  8.5544158089692E-01
    93  9.2000000000000E-01  1.6405862295593E-02  5.6779824700629E-02  7.8177209785730E-01
    94  9.3000000000000E-01  1.3702454006914E-02  3.4963101208782E-02  7.0914365565582E-01
    95  9.4000000000000E-01  1.1397924541830E-02  1.6628817098916E-02  6.3799920632521E-01
    96  9.5000000000000E-01  9.4407851583719E-03  1.7667750091996E-03  5.6878433676979E-01
    97  9.6000000000000E-01  7.7842119619104E-03 -9.7348970291625E-03  5.0194295586062E-01
    98  9.7000000000000E-01  6.3860594132802E-03 -1.8079268905999E-02  4.3791164108746E-01
    99  9.8000000000000E-01  5.2087945856354E-03 -2.3547233536942E-02  3.7711281214440E-01
   100  9.9000000000000E-01  4.2193621511825E-03 -2.6481790833293E-02  3.1994698615199E-01
   101  1.0000000000000E+00  3.3889922073905E-03 -2.7270675176378E-02  2.6678444976198E-01
   102  1.0100000000000E+00  2.6929648147669E-03 -2.6328118030567E-02  2.1795675333925E-01
   103  1.0200000000000E+00  2.1103464410861E-03 -2.4076618923064E-02  1.7374848849049E-01
   104  1.0300000000000E+00  1.6237164086696E-03 -2.0929676409932E-02  1.3438985609828E-01
   105  1.0400000000000E+00  1.2188828508006E-03 -1.7276212500849E-02  1.0005049304441E-01
   106  1.0500000000000E+00  8.8448916242126E-04 -1.3466293414391E-02  7.0834766226190E-02
   107  1.0600000000000E+00  6.0416268136350E-04 -9.6996383439238E-03  4.6753085383110E-02
   108  1.0700000000000E+00  3.7206865943774E-04 -6.2123739575993E-03  2.7768799523683E-02
   109  1.0800000000000E+00  1.9234777164097E-04 -3.3023350844341E-03  1.3813438263011E-02
   110  1.0900000000000E+00  6.9135362633164E-05 -1.2093135322522E-03  4.7649785242039E-03
   111  1.1000000000000E+00  7.3000772445906E-06 -1.2912787144465E-04  4.8082870606570E-04
   112  1.1100000000000E+00 -2.6320625138226E-07  4.7015565709361E-06 -1.6906607969157E-05
   113  1.1200000000000E+00 -3.4842426699534E-08  6.1728704576469E-07 -2.3282968431538E-06
   114  1.13 -0. -0.  0.
   115  1.14  0.  0.  0.
   116  1.15  0.  0.  0.
   117  1.16  0.  0.  0.
   118  1.17  0.  0.  0.
   119  1.18  0.  0.  0.
   120  1.19  0.  0.  0.
   121  1.20  0.  0.  0.
   122  1.21  0.  0.  0.
   123  1.22  0.  0.  0.
   124  1.23  0.  0.  0.
   125  1.24  0.  0.  0.
   126  1.25  0.  0.  0.
   127  1.26  0.  0.  0.
   128  1.27  0.  0.  0.
   129  1.28  0.  0.  0.
   130  1.29  0.  0.  0.
   131  1.30  0.  0.  0.
   132  1.31  0.  0.  0.
   133  1.32  0.  0.  0.
   134  1.33  0.  0.  0.
   135  1.34  0.  0.  0.
   136  1.35  0.  0.  0.
   137  1.36  0.  0.  0.
   138  1.37  0.  0.  0.
   139  1.38  0.  0.  0.
   140  1.39  0.  0.  0.
   141  1.40  0.  0.  0.
   142  1.41  0.  0.  0.
   143  1.42  0.  0.  0.
   144  1.43  0.  0.  0.
   145  1.44  0.  0.  0.
   146  1.45  0.  0.  0.
   147  1.46  0.  0.  0.
   148  1.47  0.  0.  0.
   149  1.48  0.  0.  0.
   150  1.49  0.  0.  0.
   151  1.50  0.  0.  0.
   152  1.51  0.  0.  0.
   153  1.52  0.  0.  0.
   154  1.53  0.  0.  0.
   155  1.54  0.  0.  0.
   156  1.55  0.  0.  0.
   157  1.56  0.  0.  0.
   158  1.57  0.  0.  0.
   159  1.58  0.  0.  0.
   160  1.59  0.  0.  0.
   161  1.60  0.  0.  0.
   162  1.61  0.  0.  0.
   163  1.62  0.  0.  0.
   164  1.63  0.  0.  0.
   165  1.64  0.  0.  0.
   166  1.65  0.  0.  0.
   167  1.66  0.  0.  0.
   168  1.67  0.  0.  0.
   169  1.68  0.  0.  0.
   170  1.69  0.  0.  0.
   171  1.70  0.  0.  0.
   172  1.71  0.  0.  0.
   173  1.72  0.  0.  0.
   174  1.73  0.  0.  0.
   175  1.74  0.  0.  0.
   176  1.75  0.  0.  0.
   177  1.76  0.  0.  0.
   178  1.77  0.  0.  0.
   179  1.78  0.  0.  0.
   180  1.79  0.  0.  0.
   181  1.80  0.  0.  0.
   182  1.81  0.  0.  0.
   183  1.82  0.  0.  0.
   184  1.83  0.  0.  0.
   185  1.84  0.  0.  0.
   186  1.85  0.  0.  0.
   187  1.86  0.  0.  0.
   188  1.87  0.  0.  0.
   189  1.88  0.  0.  0.
   190  1.89  0.  0.  0.
   191  1.90  0.  0.  0.
   192  1.91  0.  0.  0.
   193  1.92  0.  0.  0.
   194  1.93  0.  0.  0.
   195  1.94  0.  0.  0.
   196  1.95  0.  0.  0.
   197  1.96  0.  0.  0.
   198  1.97  0.  0.  0.
   199  1.98  0.  0.  0.
   200  1.99  0.  0.  0.
   201  2.00  0.  0.  0.
   202  2.01  0.  0.  0.
   203  2.02  0.  0.  0.
   204  2.03  0.  0.  0.
   205  2.04  0.  0.  0.
   206  2.05  0.  0.  0.
   207  2.06  0.  0.  0.
   208  2.07  0.  0.  0.
   209  2.08  0.  0.  0.
   210  2.09  0.  0.  0.
   211  2.10  0.  0.  0.
   212  2.11  0.  0.  0.
   213  2.12  0.  0.  0.
   214  2.13  0.  0.  0.
   215  2.14  0.  0.  0.
   216  2.15  0.  0.  0.
   217  2.16  0.  0.  0.
   218  2.17  0.  0.  0.
   219  2.18  0.  0.  0.
   220  2.19  0.  0.  0.
   221  2.20  0.  0.  0.
   222  2.21  0.  0.  0.
   223  2.22  0.  0.  0.
   224  2.23  0.  0.  0.
   225  2.24  0.  0.  0.
   226  2.25  0.  0.  0.
   227  2.26  0.  0.  0.
   228  2.27  0.  0.  0.
   229  2.28  0.  0.  0.
   230  2.29  0.  0.  0.
   231  2.30  0.  0.  0.
   232  2.31  0.  0.  0.
   233  2.32  0.  0.  0.
   234  2.33  0.  0.  0.
   235  2.34  0.  0.  0.
   236  2.35  0.  0.  0.
   237  2.36  0.  0.  0.
   238  2.37  0.  0.  0.
   239  2.38  0.  0.  0.
   240  2.39  0.  0.  0.
   241  2.40  0.  0.  0.
   242  2.41  0.  0.  0.
   243  2.42  0.  0.  0.
   244  2.43  0.  0.  0.
   245  2.44  0.  0.  0.
   246  2.45  0.  0.  0.
   247  2.46  0.  0.  0.
   248  2.47  0.  0.  0.
   249  2.48  0.  0.  0.
   250  2.49  0.  0.  0.
   251  2.50  0.  0.  0.
   252  2.51  0.  0.  0.
   253  2.52  0.  0.  0.
   254  2.53  0.  0.  0.
   255  2.54  0.  0.  0.
   256  2.55  0.  0.  0.
   257  2.56  0.  0.  0.
   258  2.57  0.  0.  0.
   259  2.58  0.  0.  0.
   260  2.59  0.  0.  0.
   261  2.60  0.  0.  0.
   262  2.61  0.  0.  0.
   263  2.62  0.  0.  0.
   264  2.63  0.  0.  0.
   265  2.64  0.  0.  0.
   266  2.65  0.  0.  0.
   267  2.66  0.  0.  0.
   268  2.67  0.  0.  0.
   269  2.68  0.  0.  0.
   270  2.69  0.  0.  0.
   271  2.70  0.  0.  0.
   272  2.71  0.  0.  0.
   273  2.72  0.  0.  0.
   274  2.73  0.  0.  0.
   275  2.74  0.  0.  0.
   276  2.75  0.  0.  0.
   277  2.76  0.  0.  0.
   278  2.77  0.  0.  0.
   279  2.78  0.  0.  0.
   280  2.79  0.  0.  0.
   281  2.80  0.  0.  0.
   282  2.81  0.  0.  0.
   283  2.82  0.  0.  0.
   284  2.83  0.  0.  0.
   285  2.84  0.  0.  0.
   286  2.85  0.  0.  0.
   287  2.86  0.  0.  0.
   288  2.87  0.  0.  0.
   289  2.88  0.  0.  0.
   290  2.89  0.  0.  0.
   291  2.90  0.  0.  0.
   292  2.91  0.  0.  0.
   293  2.92  0.  0.  0.
   294  2.93  0.  0.  0.
   295  2.94  0.  0.  0.
   296  2.95  0.  0.  0.
   297  2.96  0.  0.  0.
   298  2.97  0.  0.  0.
   299  2.98  0.  0.  0.
   300  2.99  0.  0.  0.
   301  3.00  0.  0.  0.
   302  3.01  0.  0.  0.
   303  3.02  0.  0.  0.
   304  3.03  0.  0.  0.
   305  3.04  0.  0.  0.
   306  3.05  0.  0.  0.
   307  3.06  0.  0.  0.
   308  3.07  0.  0.  0.
   309  3.08  0.  0.  0.
   310  3.09  0.  0.  0.
   311  3.10  0.  0.  0.
   312  3.11  0.  0.  0.
   313  3.12  0.  0.  0.
   314  3.13  0.  0.  0.
   315  3.14  0.  0.  0.
   316  3.15  0.  0.  0.
   317  3.16  0.  0.  0.
   318  3.17  0.  0.  0.
   319  3.18  0.  0.  0.
   320  3.19  0.  0.  0.
   321  3.20  0.  0.  0.
   322  3.21  0.  0.  0.
   323  3.22  0.  0.  0.
   324  3.23  0.  0.  0.
   325  3.24  0.  0.  0.
   326  3.25  0.  0.  0.
   327  3.26  0.  0.  0.
   328  3.27  0.  0.  0.
   329  3.28  0.  0.  0.
   330  3.29  0.  0.  0.
   331  3.30  0.  0.  0.
   332  3.31  0.  0.  0.
   333  3.32  0.  0.  0.
   334  3.33  0.  0.  0.
   335  3.34  0.  0.  0.
   336  3.35  0.  0.  0.
   337  3.36  0.  0.  0.
   338  3.37  0.  0.  0.
   339  3.38  0.  0.  0.
   340  3.39  0.  0.  0.
   341  3.40  0.  0.  0.
   342  3.41  0.  0.  0.
   343  3.42  0.  0.  0.
   344  3.43  0.  0.  0.
   345  3.44  0.  0.  0.
   346  3.45  0.  0.  0.
   347  3.46  0.  0.  0.
   348  3.47  0.  0.  0.
   349  3.48  0.  0.  0.
   350  3.49  0.  0.  0.
   351  3.50  0.  0.  0.
   352  3.51  0.  0.  0.
   353  3.52  0.  0.  0.
   354  3.53  0.  0.  0.
   355  3.54  0.  0.  0.
   356  3.55  0.  0.  0.
   357  3.56  0.  0.  0.
   358  3.57  0.  0.  0.
   359  3.58  0.  0.  0.
   360  3.59  0.  0.  0.
   361  3.60  0.  0.  0.
   362  3.61  0.  0.  0.
   363  3.62  0.  0.  0.
   364  3.63  0.  0.  0.
   365  3.64  0.  0.  0.
   366  3.65  0.  0.  0.
   367  3.66  0.  0.  0.
   368  3.67  0.  0.  0.
   369  3.68  0.  0.  0.
   370  3.69  0.  0.  0.
   371  3.70  0.  0.  0.
   372  3.71  0.  0.  0.
   373  3.72  0.  0.  0.
   374  3.73  0.  0.  0.
   375  3.74  0.  0.  0.
   376  3.75  0.  0.  0.
   377  3.76  0.  0.  0.
   378  3.77  0.  0.  0.
   379  3.78  0.  0.  0.
   380  3.79  0.  0.  0.
   381  3.80  0.  0.  0.
   382  3.81  0.  0.  0.
   383  3.82  0.  0.  0.
   384  3.83  0.  0.  0.
   385  3.84  0.  0.  0.
   386  3.85  0.  0.  0.
   387  3.86  0.  0.  0.
   388  3.87  0.  0.  0.
   389  3.88  0.  0.  0.
   390  3.89  0.  0.  0.
   391  3.90  0.  0.  0.
   392  3.91  0.  0.  0.
   393  3.92  0.  0.  0.
   394  3.93  0.  0.  0.
   395  3.94  0.  0.  0.
   396  3.95  0.  0.  0.
   397  3.96  0.  0.  0.
   398  3.97  0.  0.  0.
   399  3.98  0.  0.  0.
   400  3.99  0.  0.  0.
   401  4.00  0.  0.  0.
   402  4.01  0.  0.  0.
   403  4.02  0.  0.  0.
   404  4.03  0.  0.  0.
   405  4.04  0.  0.  0.
   406  4.05  0.  0.  0.
   407  4.06  0.  0.  0.
   408  4.07  0.  0.  0.
   409  4.08  0.  0.  0.
   410  4.09  0.  0.  0.
   411  4.10  0.  0.  0.
   412  4.11  0.  0.  0.
   413  4.12  0.  0.  0.
   414  4.13  0.  0.  0.
   415  4.14  0.  0.  0.
   416  4.15  0.  0.  0.
   417  4.16  0.  0.  0.
   418  4.17  0.  0.  0.
   419  4.18  0.  0.  0.
   420  4.19  0.  0.  0.
   421  4.20  0.  0.  0.
   422  4.21  0.  0.  0.
   423  4.22  0.  0.  0.
   424  4.23  0.  0.  0.
   425  4.24  0.  0.  0.
   426  4.25  0.  0.  0.
   427  4.26  0.  0.  0.
   428  4.27  0.  0.  0.
   429  4.28  0.  0.  0.
   430  4.29  0.  0.  0.
   431  4.30  0.  0.  0.
   432  4.31  0.  0.  0.
   433  4.32  0.  0.  0.
   434  4.33  0.  0.  0.
   435  4.34  0.  0.  0.
   436  4.35  0.  0.  0.
   437  4.36  0.  0.  0.
   438  4.37  0.  0.  0.
   439  4.38  0.  0.  0.
   440  4.39  0.  0.  0.
   441  4.40  0.  0.  0.
   442  4.41  0.  0.  0.
   443  4.42  0.  0.  0.
   444  4.43  0.  0.  0.
   445  4.44  0.  0.  0.
   446  4.45  0.  0.  0.
   447  4.46  0.  0.  0.
   448  4.47  0.  0.  0.
   449  4.48  0.  0.  0.
   450  4.49  0.  0.  0.
   451  4.50  0.  0.  0.
   452  4.51  0.  0.  0.
   453  4.52  0.  0.  0.
   454  4.53  0.  0.  0.
   455  4.54  0.  0.  0.
   456  4.55  0.  0.  0.
   457  4.56  0.  0.  0.
   458  4.57  0.  0.  0.
   459  4.58  0.  0.  0.
   460  4.59  0.  0.  0.
   461  4.60  0.  0.  0.
   462  4.61  0.  0.  0.
   463  4.62  0.  0.  0.
   464  4.63  0.  0.  0.
   465  4.64  0.  0.  0.
   466  4.65  0.  0.  0.
   467  4.66  0.  0.  0.
   468  4.67  0.  0.  0.
   469  4.68  0.  0.  0.
   470  4.69  0.  0.  0.
   471  4.70  0.  0.  0.
   472  4.71  0.  0.  0.
   473  4.72  0.  0.  0.
   474  4.73  0.  0.  0.
   475  4.74  0.  0.  0.
   476  4.75  0.  0.  0.
   477  4.76  0.  0.  0.
   478  4.77  0.  0.  0.
   479  4.78  0.  0.  0.
   480  4.79  0.  0.  0.
   481  4.80  0.  0.  0.
   482  4.81  0.  0.  0.
   483  4.82  0.  0.  0.
   484  4.83  0.  0.  0.
   485  4.84  0.  0.  0.
   486  4.85  0.  0.  0.
   487  4.86  0.  0.  0.
   488  4.87  0.  0.  0.
   489  4.88  0.  0.  0.
   490  4.89  0.  0.  0.
   491  4.90  0.  0.  0.
   492  4.91  0.  0.  0.
   493  4.92  0.  0.  0.
   494  4.93  0.  0.  0.
   495  4.94  0.  0.  0.
   496  4.95  0.  0.  0.
   497  4.96  0.  0.  0.
   498  4.97  0.  0.  0.
   499  4.98  0.  0.  0.
   500  4.99  0.  0.  0.
   501  5.00  0.  0.  0.
   502  5.01  0.  0.  0.
   503  5.02  0.  0.  0.
   504  5.03  0.  0.  0.
   505  5.04  0.  0.  0.
   506  5.05  0.  0.  0.
   507  5.06  0.  0.  0.
   508  5.07  0.  0.  0.
   509  5.08  0.  0.  0.
   510  5.09  0.  0.  0.
   511  5.10  0.  0.  0.
   512  5.11  0.  0.  0.
   513  5.12  0.  0.  0.
   514  5.13  0.  0.  0.
   515  5.14  0.  0.  0.
   516  5.15  0.  0.  0.
   517  5.16  0.  0.  0.
   518  5.17  0.  0.  0.
   519  5.18  0.  0.  0.
   520  5.19  0.  0.  0.
   521  5.20  0.  0.  0.
   522  5.21  0.  0.  0.
   523  5.22  0.  0.  0.
   524  5.23  0.  0.  0.
   525  5.24  0.  0.  0.
   526  5.25  0.  0.  0.
   527  5.26  0.  0.  0.
   528  5.27  0.  0.  0.
   529  5.28  0.  0.  0.
   530  5.29  0.  0.  0.
   531  5.30  0.  0.  0.
   532  5.31  0.  0.  0.
   533  5.32  0.  0.  0.
   534  5.33  0.  0.  0.
   535  5.34  0.  0.  0.
   536  5.35  0.  0.  0.
   537  5.36  0.  0.  0.
   538  5.37  0.  0.  0.
   539  5.38  0.  0.  0.
   540  5.39  0.  0.  0.
   541  5.40  0.  0.  0.
   542  5.41  0.  0.  0.
   543  5.42  0.  0.  0.
   544  5.43  0.  0.  0.
   545  5.44  0.  0.  0.
   546  5.45  0.  0.  0.
   547  5.46  0.  0.  0.
   548  5.47  0.  0.  0.
   549  5.48  0.  0.  0.
   550  5.49  0.  0.  0.
   551  5.50  0.  0.  0.
   552  5.51  0.  0.  0.
   553  5.52  0.  0.  0.
   554  5.53  0.  0.  0.
   555  5.54  0.  0.  0.
   556  5.55  0.  0.  0.
   557  5.56  0.  0.  0.
   558  5.57  0.  0.  0.
   559  5.58  0.  0.  0.
   560  5.59  0.  0.  0.
   561  5.60  0.  0.  0.
   562  5.61  0.  0.  0.
   563  5.62  0.  0.  0.
   564  5.63  0.  0.  0.
   565  5.64  0.  0.  0.
   566  5.65  0.  0.  0.
   567  5.66  0.  0.  0.
   568  5.67  0.  0.  0.
   569  5.68  0.  0.  0.
   570  5.69  0.  0.  0.
   571  5.70  0.  0.  0.
   572  5.71  0.  0.  0.
   573  5.72  0.  0.  0.
   574  5.73  0.  0.  0.
   575  5.74  0.  0.  0.
   576  5.75  0.  0.  0.
   577  5.76  0.  0.  0.
   578  5.77  0.  0.  0.
   579  5.78  0.  0.  0.
   580  5.79  0.  0.  0.
   581  5.80  0.  0.  0.
   582  5.81  0.  0.  0.
   583  5.82  0.  0.  0.
   584  5.83  0.  0.  0.
   585  5.84  0.  0.  0.
   586  5.85  0.  0.  0.
   587  5.86  0.  0.  0.
   588  5.87  0.  0.  0.
   589  5.88  0.  0.  0.
   590  5.89  0.  0.  0.
   591  5.90  0.  0.  0.
   592  5.91  0.  0.  0.
   593  5.92  0.  0.  0.
   594  5.93  0.  0.  0.
   595  5.94  0.  0.  0.
   596  5.95  0.  0.  0.
   597  5.96  0.  0.  0.
   598  5.97  0.  0.  0.
   599  5.98  0.  0.  0.
   600  5.99  0.  0.  0.
   1                        -1.4992718411332E+01 -2.4311651474004E+00
     1  0.0000000000000E+00  5.1442488879783E-09 -2.0939285250154E-08
     2  1.0000000000000E-02  3.2633507686609E-03 -4.5183729600058E-03
     3  2.0000000000000E-02  1.3027460349210E-02 -1.8010658565807E-02
     4  3.0000000000000E-02  2.9214748865146E-02 -4.0289189619192E-02
     5  4.0000000000000E-02  5.1696741305273E-02 -7.1043950918537E-02
     6  5.0000000000000E-02  8.0295294647302E-02 -1.0984668280698E-01
     7  6.0000000000000E-02  1.1478429587124E-01 -1.5615654352886E-01
     8  7.0000000000000E-02  1.5489181123209E-01 -2.0932724935536E-01
     9  8.0000000000000E-02  2.0030266201724E-01 -2.6861559050100E-01
    10  9.0000000000000E-02  2.5066139720765E-01 -3.3319120152128E-01
    11  1.0000000000000E-01  3.0557562905834E-01 -4.0214744745699E-01
    12  1.1000000000000E-01  3.6461969366987E-01 -4.7451327173993E-01
    13  1.2000000000000E-01  4.2733859518932E-01 -5.4926583902488E-01
    14  1.3000000000000E-01  4.9325218939975E-01 -6.2534379585314E-01
    15  1.4000000000000E-01  5.6185956016426E-01 -7.0166096452464E-01
    16  1.5000000000000E-01  6.3264354051110E-01 -7.7712028085712E-01
    17  1.6000000000000E-01  7.0507532909425E-01 -8.5062778468916E-01
    18  1.7000000000000E-01  7.7861915234628E-01 -9.2110647304093E-01
    19  1.8000000000000E-01  8.5273692285443E-01 -9.8750982973438E-01
    20  1.9000000000000E-01  9.2689284532315E-01 -1.0488348518998E+00
    21  2.0000000000000E-01  1.0005579229163E+00 -1.1041344030210E+00
    22  2.1000000000000E-01  1.0732143187704E+00 -1.1525287338179E+00
    23  2.2000000000000E-01  1.1443595299963E+00 -1.1932160261124E+00
    24  2.3000000000000E-01  1.2135103345010E+00 -1.2254818306325E+00
    25  2.4000000000000E-01  1.2802064744065E+00 -1.2487072871832E+00
    26  2.5000000000000E-01  1.3440140436664E+00 -1.2623760344715E+00
    27  2.6000000000000E-01  1.4045285516227E+00 -1.2660797367783E+00
    28  2.7000000000000E-01  1.4613776386371E+00 -1.2595221753057E+00
    29  2.8000000000000E-01  1.5142234245146E+00 -1.2425218730473E+00
    30  2.9000000000000E-01  1.5627644751303E+00 -1.2150132431034E+00
    31  3.0000000000000E-01  1.6067373774297E+00 -1.1770462711579E+00
    32  3.1000000000000E-01  1.6459179177025E+00 -1.1287847630326E+00
    33  3.2000000000000E-01  1.6801218626946E+00 -1.0705032075358E+00
    34  3.3000000000000E-01  1.7092053476400E+00 -1.0025823229470E+00
    35  3.4000000000000E-01  1.7330648796184E+00 -9.2550337217653E-01
    36  3.5000000000000E-01  1.7516369687229E+00 -8.3984134667874E-01
    37  3.6000000000000E-01  1.7648974032962E+00 -7.4625713240033E-01
    38  3.7000000000000E-01  1.7728601889471E+00 -6.4548878224681E-01
    39  3.8000000000000E-01  1.7755761741226E+00 -5.3834202863967E-01
    40  3.9000000000000E-01  1.7731313876970E+00 -4.2568017663139E-01
    41  4.0000000000000E-01  1.7656451162877E+00 -3.0841352270738E-01
    42  4.1000000000000E-01  1.7532677508391E+00 -1.8748844682740E-01
    43  4.2000000000000E-01  1.7361784333962E+00 -6.3876325480432E-02
    44  4.3000000000000E-01  1.7145825359410E+00  6.1437588385915E-02
    45  4.4000000000000E-01  1.6887090036736E+00  1.8746517664663E-01
    46  4.5000000000000E-01  1.6588075952205E+00  3.1322622242337E-01
    47  4.6000000000000E-01  1.6251460519393E+00  4.3775880317593E-01
    48  4.7000000000000E-01  1.5880072278086E+00  5.6012919114230E-01
    49  4.8000000000000E-01  1.5476862103535E+00  6.7944115233155E-01
    50  4.9000000000000E-01  1.5044874617045E+00  7.9484454695072E-01
    51  5.0000000000000E-01  1.4587220072483E+00  9.0554314675510E-01
    52  5.1000000000000E-01  1.4107046974442E+00  1.0108015981224E+00
    53  5.2000000000000E-01  1.3607515662852E+00  1.1099514734356E+00
    54  5.3000000000000E-01  1.3091773076217E+00  1.2023963673898E+00
    55  5.4000000000000E-01  1.2562928881710E+00  1.2876160088942E+00
    56  5.5000000000000E-01  1.2024033135564E+00  1.3651693731121E+00
    57  5.6000000000000E-01  1.1478055611843E+00  1.4346967916690E+00
    58  5.7000000000000E-01  1.0927866912173E+00  1.4959210719861E+00
    59  5.8000000000000E-01  1.0376221443733E+00  1.5486476488930E+00
    60  5.9000000000000E-01  9.8257423279922E-01  1.5927638030034E+00
    61  6.0000000000000E-01  9.2789082786719E-01  1.6282369906778E+00
    62  6.1000000000000E-01  8.7380424644948E-01  1.6551123396461E+00
    63  6.2000000000000E-01  8.2053033505733E-01  1.6735093724512E+00
    64  6.3000000000000E-01  7.6826774921135E-01  1.6836180267435E+00
    65  6.4000000000000E-01  7.1719742355023E-01  1.6856940470813E+00
    66  6.5000000000000E-01  6.6748222649948E-01  1.6800538272605E+00
    67  6.6000000000000E-01  6.1926679181721E-01  1.6670687853242E+00
    68  6.7000000000000E-01  5.7267751801626E-01  1.6471593553165E+00
    69  6.8000000000000E-01  5.2782272553226E-01  1.6207886805979E+00
    70  6.9000000000000E-01  4.8479296056496E-01  1.5884560931878E+00
    71  7.0000000000000E-01  4.4366143376116E-01  1.5506904622249E+00
    72  7.1000000000000E-01  4.0448458132694E-01  1.5080434923226E+00
    73  7.2000000000000E-01  3.6730273574579E-01  1.4610830494371E+00
    74  7.3000000000000E-01  3.3214089302849E-01  1.4103865879612E+00
    75  7.4000000000000E-01  2.9900956332030E-01  1.3565347482131E+00
    76  7.5000000000000E-01  2.6790569172819E-01  1.3001051884108E+00
    77  7.6000000000000E-01  2.3881363639371E-01  1.2416667097095E+00
    78  7.7000000000000E-01  2.1170619111383E-01  1.1817737270434E+00
    79  7.8000000000000E-01  1.8654564018784E-01  1.1209611324449E+00
    80  7.9000000000000E-01  1.6328483363274E-01  1.0597395913067E+00
    81  8.0000000000000E-01  1.4186827144863E-01  9.9859130580245E-01
    82  8.1000000000000E-01  1.2223318621840E-01  9.3796627345145E-01
    83  8.2000000000000E-01  1.0431061398084E-01  8.7827906269138E-01
    84  8.3000000000000E-01  8.8026444013677E-02  8.1990612135788E-01
    85  8.4000000000000E-01  7.3302438892220E-02  7.6318362822596E-01
    86  8.5000000000000E-01  6.0057216942824E-02  7.0840589228253E-01
    87  8.6000000000000E-01  4.8207189979499E-02  6.5582429921370E-01
    88  8.7000000000000E-01  3.7667449990395E-02  6.0564679973043E-01
    89  8.8000000000000E-01  2.8352599222215E-02  5.5803792984330E-01
    90  8.9000000000000E-01  2.0177518889453E-02  5.1311934904562E-01
    91  9.0000000000000E-01  1.3058072507195E-02  4.7097087858004E-01
    92  9.1000000000000E-01  6.9117406068932E-03  4.3163201855109E-01
    93  9.2000000000000E-01  1.6581843405720E-03  3.9510391959983E-01
    94  9.3000000000000E-01 -2.7802637929049E-03  3.6135178217159E-01
    95  9.4000000000000E-01 -6.4781831581665E-03  3.3030765407403E-01
    96  9.5000000000000E-01 -9.5067225044046E-03  3.0187359502731E-01
    97  9.6000000000000E-01 -1.1933331512105E-02  2.7592517523807E-01
    98  9.7000000000000E-01 -1.3821565448928E-02  2.5231527366999E-01
    99  9.8000000000000E-01 -1.5230961416424E-02  2.3087814061885E-01
   100  9.9000000000000E-01 -1.6216984099388E-02  2.1143368841684E-01