Cn    ONCVPSP-4.0.1  r_core=   1.15172   1.15172   1.15172   1.15172
112.0000     52.0000      221107    zatom,zion,pspd
8      11   3     4   600     0    pspcod,pspxc,lmax,lloc,mmax,r2well
5.99000000  2.50000000  0.00000000    rchrg fchrg qchrg
3     2     2     2     0    nproj
1     1           extension_switch
0                        -1.8745560445494E+01  8.0967161954311E+00 -1.0458130614606E+00
1  0.0000000000000E+00 -1.8775880850086E-10 -8.0873507890544E-10 -1.8573700424906E-08
2  1.0000000000000E-02  8.9386524109738E-02  1.9813090112419E-01 -5.6195562758804E-03
3  2.0000000000000E-02  1.7851338475042E-01  3.9403484970777E-01 -1.1571564705450E-02
4  3.0000000000000E-02  2.6712191233689E-01  5.8551101228631E-01 -1.8180408407894E-02
5  4.0000000000000E-02  3.5495542109344E-01  7.7041052337927E-01 -2.5754511498785E-02
6  5.0000000000000E-02  4.4176019111785E-01  9.4666179377124E-01 -3.4578802161013E-02
7  6.0000000000000E-02  5.2728643878840E-01  1.1122950073333E+00 -4.4907692732253E-02
8  7.0000000000000E-02  6.1128927187044E-01  1.2654655354866E+00 -5.6958726239226E-02
9  8.0000000000000E-02  6.9352962586705E-01  1.4044759992178E+00 -7.0907020235296E-02
10  9.0000000000000E-02  7.7377517836928E-01  1.5277967109371E+00 -8.6880616857230E-02
11  1.0000000000000E-01  8.5180123838184E-01  1.6340842331982E+00 -1.0495682348340E-01
12  1.1000000000000E-01  9.2739160781564E-01  1.7221977992157E+00 -1.2515960210495E-01
13  1.2000000000000E-01  1.0003394125340E+00  1.7912133520087E+00 -1.4745803841748E-01
14  1.3000000000000E-01  1.0704479005020E+00  1.8404349756239E+00 -1.7176589461813E-01
15  1.4000000000000E-01  1.1375312047042E+00  1.8694035138408E+00 -1.9794222384219E-01
16  1.5000000000000E-01  1.2014150685604E+00  1.8779021994888E+00 -2.2579299992609E-01
17  1.6000000000000E-01  1.2619375315674E+00  1.8659591512082E+00 -2.5507369447703E-01
18  1.7000000000000E-01  1.3189495728368E+00  1.8338466341470E+00 -2.8549271468706E-01
19  1.8000000000000E-01  1.3723157100722E+00  1.7820770263759E+00 -3.1671560042564E-01
20  1.9000000000000E-01  1.4219145513551E+00  1.7113954831427E+00 -3.4836986820448E-01
21  2.0000000000000E-01  1.4676392968841E+00  1.6227693455914E+00 -3.8005038278080E-01
22  2.1000000000000E-01  1.5093981875582E+00  1.5173743981042E+00 -4.1132513443894E-01
23  2.2000000000000E-01  1.5471148970333E+00  1.3965781376190E+00 -4.4174130118244E-01
24  2.3000000000000E-01  1.5807288636178E+00  1.2619202775669E+00 -4.7083147984970E-01
25  2.4000000000000E-01  1.6101955581514E+00  1.1150907667743E+00 -4.9811997807119E-01
26  2.5000000000000E-01  1.6354866838321E+00  9.5790565800907E-01 -5.2312906943976E-01
27  2.6000000000000E-01  1.6565903038628E+00  7.9228121006037E-01 -5.4538512661342E-01
28  2.7000000000000E-01  1.6735108927878E+00  6.2020664960604E-01 -5.6442456060612E-01
29  2.8000000000000E-01  1.6862693075106E+00  4.4371605308783E-01 -5.7979950852482E-01
30  2.9000000000000E-01  1.6949026742363E+00  2.6485983301214E-01 -5.9108322577438E-01
31  3.0000000000000E-01  1.6994641879821E+00  8.5676326431680E-02 -5.9787515161946E-01
32  3.1000000000000E-01  1.7000228218523E+00 -9.1836014933191E-02 -5.9980562838414E-01
33  3.2000000000000E-01  1.6966629439792E+00 -2.6574534382122E-01 -5.9654026401117E-01
34  3.3000000000000E-01  1.6894838408854E+00 -4.3421157911215E-01 -5.8778393483849E-01
35  3.4000000000000E-01  1.6785991470178E+00 -5.9550957748844E-01 -5.7328443006990E-01
36  3.5000000000000E-01  1.6641361813111E+00 -7.4804992754168E-01 -5.5283574144898E-01
37  3.6000000000000E-01  1.6462351928550E+00 -8.9039703359951E-01 -5.2628100116920E-01
38  3.7000000000000E-01  1.6250485190110E+00 -1.0212842196297E+00 -4.9351506829161E-01
39  3.8000000000000E-01  1.6007396606494E+00 -1.1396256531351E+00 -4.5448675924032E-01
40  3.9000000000000E-01  1.5734822804913E+00 -1.2445249629545E+00 -4.0920071176963E-01
41  4.0000000000000E-01  1.5434591318305E+00 -1.3352805011368E+00 -3.5771886469052E-01
42  4.1000000000000E-01  1.5108609261218E+00 -1.4113872752737E+00 -3.0016152821902E-01
43  4.2000000000000E-01  1.4758851490310E+00 -1.4725356515787E+00 -2.3670801270134E-01
44  4.3000000000000E-01  1.4387348355069E+00 -1.5186069983780E+00 -1.6759677732001E-01
45  4.4000000000000E-01  1.3996173152267E+00 -1.5496665024897E+00 -9.3125055791256E-02
46  4.5000000000000E-01  1.3587429403594E+00 -1.5659534454034E+00 -1.3647913569878E-02
47  4.6000000000000E-01  1.3163238079673E+00 -1.5678692707247E+00  7.0423308874378E-02
48  4.7000000000000E-01  1.2725724895055E+00 -1.5559638078718E+00  1.5862320921885E-01
49  4.8000000000000E-01  1.2277007797817E+00 -1.5309200387614E+00  2.5043522940244E-01
50  4.9000000000000E-01  1.1819184774013E+00 -1.4935378038625E+00  3.4529528208924E-01
51  5.0000000000000E-01  1.1354322081552E+00 -1.4447168416561E+00  4.4259611274582E-01
52  5.1000000000000E-01  1.0884443020261E+00 -1.3854395417391E+00  5.4169239771020E-01
53  5.2000000000000E-01  1.0411517335153E+00 -1.3167537675058E+00  6.4190656139396E-01
54  5.3000000000000E-01  9.9374513385094E-01 -1.2397560708153E+00  7.4253527671342E-01
55  5.4000000000000E-01  9.4640788237159E-01 -1.1555755799320E+00  8.4285659264180E-01
56  5.5000000000000E-01  8.9931528301342E-01 -1.0653587951503E+00  9.4213761215239E-01
57  5.6000000000000E-01  8.5263383041075E-01 -9.7025547589401E-01  1.0396426235807E+00
58  5.7000000000000E-01  8.0652056868515E-01 -8.7140575082449E-01  1.1346415693938E+00
59  5.8000000000000E-01  7.6112254458914E-01 -7.6992853068176E-01  1.2264187193354E+00
60  5.9000000000000E-01  7.1657635532184E-01 -6.6691125423602E-01  1.3142814006821E+00
61  6.0000000000000E-01  6.7300779008216E-01 -5.6340095267893E-01  1.3975686276003E+00
62  6.1000000000000E-01  6.3053156329798E-01 -4.6039657863813E-01  1.4756594649186E+00
63  6.2000000000000E-01  5.8925113649139E-01 -3.5884251404989E-01  1.5479809594779E+00
64  6.3000000000000E-01  5.4925862492780E-01 -2.5962314731736E-01  1.6140154748924E+00
65  6.4000000000000E-01  5.1063478456095E-01 -1.6355839507003E-01  1.6733072731666E+00
66  6.5000000000000E-01  4.7344907432859E-01 -7.1400037572137E-02  1.7254681991106E+00
67  6.6000000000000E-01  4.3775978857170E-01  1.6171260858188E-02  1.7701823406411E+00
68  6.7000000000000E-01  4.0361425423152E-01  9.8548364813668E-02  1.8072095594120E+00
69  6.8000000000000E-01  3.7104908750647E-01  1.7519961538009E-01  1.8363878112257E+00
70  6.9000000000000E-01  3.4009050480226E-01  2.4567039081788E-01  1.8576342035702E+00
71  7.0000000000000E-01  3.1075468305632E-01  3.0958433204890E-01  1.8709447675874E+00
72  7.1000000000000E-01  2.8304816483189E-01  3.6664425561112E-01  1.8763929528277E+00
73  7.2000000000000E-01  2.5696830392717E-01  4.1663274726875E-01  1.8741268843181E+00
74  7.3000000000000E-01  2.3250374759813E-01  4.5941240141788E-01  1.8643654517244E+00
75  7.4000000000000E-01  2.0963495182145E-01  4.9492564658080E-01  1.8473933287424E+00
76  7.5000000000000E-01  1.8833472629864E-01  5.2319407724997E-01  1.8235550463651E+00
77  7.6000000000000E-01  1.6856880610114E-01  5.4431719850301E-01  1.7932482655075E+00
78  7.7000000000000E-01  1.5029644696240E-01  5.5847048323184E-01  1.7569164119052E+00
79  7.8000000000000E-01  1.3347104122417E-01  5.6590264321432E-01  1.7150408486994E+00
80  7.9000000000000E-01  1.1804075133783E-01  5.6693202491923E-01  1.6681327692792E+00
81  8.0000000000000E-01  1.0394915760897E-01  5.6194205874476E-01  1.6167249946161E+00
82  8.1000000000000E-01  9.1135916566096E-02  5.5137571580714E-01  1.5613638554899E+00
83  8.2000000000000E-01  7.9537425948013E-02  5.3572895844989E-01  1.5026013309141E+00
84  8.3000000000000E-01  6.9087491863717E-02  5.1554320800068E-01  1.4409876001179E+00
85  8.4000000000000E-01  5.9717993210318E-02  4.9139689428363E-01  1.3770641472470E+00
86  8.5000000000000E-01  5.1359537972509E-02  4.6389619407448E-01  1.3113575362335E+00
87  8.6000000000000E-01  4.3942105605292E-02  4.3366510794979E-01  1.2443739489490E+00
88  8.7000000000000E-01  3.7395669356451E-02  4.0133506462797E-01  1.1765945537508E+00
89  8.8000000000000E-01  3.1650792151556E-02  3.6753427673807E-01  1.1084717448794E+00
90  8.9000000000000E-01  2.6639189574663E-02  3.3287709989336E-01  1.0404262669001E+00
91  9.0000000000000E-01  2.2294253560791E-02  2.9795366611431E-01  9.7284521349734E-01
92  9.1000000000000E-01  1.8551530694254E-02  2.6332007145325E-01  9.0608086736813E-01
93  9.2000000000000E-01  1.5349149495547E-02  2.2948939492361E-01  8.4045032853583E-01
94  9.3000000000000E-01  1.2628191786046E-02  1.9692381076649E-01  7.7623586281134E-01
95  9.4000000000000E-01  1.0333004142420E-02  1.6602802844846E-01  7.1368589087722E-01
96  9.5000000000000E-01  8.4114465803420E-03  1.3714425484148E-01  6.5301653189296E-01
97  9.6000000000000E-01  6.8150769191315E-03  1.1054882159497E-01  5.9441361374806E-01
98  9.7000000000000E-01  5.4992707452285E-03  8.6450559132375E-02  5.3803506504032E-01
99  9.8000000000000E-01  4.4232784755014E-03  6.4990928766422E-02  4.8401361126320E-01
100  9.9000000000000E-01  3.5502226751878E-03  4.6245848433189E-02  4.3245970907531E-01
101  1.0000000000000E+00  2.8470404593791E-03  3.0229068060034E-02  3.8346466727446E-01
102  1.0100000000000E+00  2.2843774450938E-03  1.6896870547682E-02  3.3710392041885E-01
103  1.0200000000000E+00  1.8364412689065E-03  6.1537966419156E-03  2.9344044008808E-01
104  1.0300000000000E+00  1.4808240829558E-03 -2.1409801982318E-03  2.5252828858176E-01
105  1.0400000000000E+00  1.1983046374771E-03 -8.1670665726626E-03  2.1441633945029E-01
106  1.0500000000000E+00  9.7264150239977E-04 -1.2136539833751E-02  1.7915220773075E-01
107  1.0600000000000E+00  7.9036962835944E-04 -1.4288445948322E-02  1.4678644917479E-01
108  1.0700000000000E+00  6.4061276785491E-04 -1.4884657234514E-02  1.1737710135316E-01
109  1.0800000000000E+00  5.1491926473919E-04 -1.4207572461335E-02  9.0994649886263E-02
110  1.0900000000000E+00  4.0717640498101E-04 -1.2560851064407E-02  6.7727503139788E-02
111  1.1000000000000E+00  3.1112230335011E-04 -1.0232735827729E-02  4.7687432006000E-02
112  1.1100000000000E+00  2.1818529325334E-04 -7.4568337844562E-03  3.1012749025594E-02
113  1.1200000000000E+00  1.3449146700427E-04 -4.6884765449223E-03  1.7853735821331E-02
114  1.1300000000000E+00  6.6645368710215E-05 -2.3349892107263E-03  8.3064228390220E-03
115  1.1400000000000E+00  2.0285729948674E-05 -7.0522108823089E-04  2.3826899352101E-03
116  1.1500000000000E+00  7.8217697718883E-07 -2.6509927027169E-05  8.5755498341076E-05
117  1.1600000000000E+00  7.4072844059869E-08 -2.5473343315707E-06  8.2866960342874E-06
118  1.1700000000000E+00 -1.6566330848380E-08  5.7387961764229E-07 -1.9031399978210E-06
119  1.18  0.  0.  0.
120  1.19  0.  0.  0.
121  1.20  0.  0.  0.
122  1.21  0.  0.  0.
123  1.22  0.  0.  0.
124  1.23  0.  0.  0.
125  1.24  0.  0.  0.
126  1.25  0.  0.  0.
127  1.26  0.  0.  0.
128  1.27  0.  0.  0.
129  1.28  0.  0.  0.
130  1.29  0.  0.  0.
131  1.30  0.  0.  0.
132  1.31  0.  0.  0.
133  1.32  0.  0.  0.
134  1.33  0.  0.  0.
135  1.34  0.  0.  0.
136  1.35  0.  0.  0.
137  1.36  0.  0.  0.
138  1.37  0.  0.  0.
139  1.38  0.  0.  0.
140  1.39  0.  0.  0.
141  1.40  0.  0.  0.
142  1.41  0.  0.  0.
143  1.42  0.  0.  0.
144  1.43  0.  0.  0.
145  1.44  0.  0.  0.
146  1.45  0.  0.  0.
147  1.46  0.  0.  0.
148  1.47  0.  0.  0.
149  1.48  0.  0.  0.
150  1.49  0.  0.  0.
151  1.50  0.  0.  0.
152  1.51  0.  0.  0.
153  1.52  0.  0.  0.
154  1.53  0.  0.  0.
155  1.54  0.  0.  0.
156  1.55  0.  0.  0.
157  1.56  0.  0.  0.
158  1.57  0.  0.  0.
159  1.58  0.  0.  0.
160  1.59  0.  0.  0.
161  1.60  0.  0.  0.
162  1.61  0.  0.  0.
163  1.62  0.  0.  0.
164  1.63  0.  0.  0.
165  1.64  0.  0.  0.
166  1.65  0.  0.  0.
167  1.66  0.  0.  0.
168  1.67  0.  0.  0.
169  1.68  0.  0.  0.
170  1.69  0.  0.  0.
171  1.70  0.  0.  0.
172  1.71  0.  0.  0.
173  1.72  0.  0.  0.
174  1.73  0.  0.  0.
175  1.74  0.  0.  0.
176  1.75  0.  0.  0.
177  1.76  0.  0.  0.
178  1.77  0.  0.  0.
179  1.78  0.  0.  0.
180  1.79  0.  0.  0.
181  1.80  0.  0.  0.
182  1.81  0.  0.  0.
183  1.82  0.  0.  0.
184  1.83  0.  0.  0.
185  1.84  0.  0.  0.
186  1.85  0.  0.  0.
187  1.86  0.  0.  0.
188  1.87  0.  0.  0.
189  1.88  0.  0.  0.
190  1.89  0.  0.  0.
191  1.90  0.  0.  0.
192  1.91  0.  0.  0.
193  1.92  0.  0.  0.
194  1.93  0.  0.  0.
195  1.94  0.  0.  0.
196  1.95  0.  0.  0.
197  1.96  0.  0.  0.
198  1.97  0.  0.  0.
199  1.98  0.  0.  0.
200  1.99  0.  0.  0.
201  2.00  0.  0.  0.
202  2.01  0.  0.  0.
203  2.02  0.  0.  0.
204  2.03  0.  0.  0.
205  2.04  0.  0.  0.
206  2.05  0.  0.  0.
207  2.06  0.  0.  0.
208  2.07  0.  0.  0.
209  2.08  0.  0.  0.
210  2.09  0.  0.  0.
211  2.10  0.  0.  0.
212  2.11  0.  0.  0.
213  2.12  0.  0.  0.
214  2.13  0.  0.  0.
215  2.14  0.  0.  0.
216  2.15  0.  0.  0.
217  2.16  0.  0.  0.
218  2.17  0.  0.  0.
219  2.18  0.  0.  0.
220  2.19  0.  0.  0.
221  2.20  0.  0.  0.
222  2.21  0.  0.  0.
223  2.22  0.  0.  0.
224  2.23  0.  0.  0.
225  2.24  0.  0.  0.
226  2.25  0.  0.  0.
227  2.26  0.  0.  0.
228  2.27  0.  0.  0.
229  2.28  0.  0.  0.
230  2.29  0.  0.  0.
231  2.30  0.  0.  0.
232  2.31  0.  0.  0.
233  2.32  0.  0.  0.
234  2.33  0.  0.  0.
235  2.34  0.  0.  0.
236  2.35  0.  0.  0.
237  2.36  0.  0.  0.
238  2.37  0.  0.  0.
239  2.38  0.  0.  0.
240  2.39  0.  0.  0.
241  2.40  0.  0.  0.
242  2.41  0.  0.  0.
243  2.42  0.  0.  0.
244  2.43  0.  0.  0.
245  2.44  0.  0.  0.
246  2.45  0.  0.  0.
247  2.46  0.  0.  0.
248  2.47  0.  0.  0.
249  2.48  0.  0.  0.
250  2.49  0.  0.  0.
251  2.50  0.  0.  0.
252  2.51  0.  0.  0.
253  2.52  0.  0.  0.
254  2.53  0.  0.  0.
255  2.54  0.  0.  0.
256  2.55  0.  0.  0.
257  2.56  0.  0.  0.
258  2.57  0.  0.  0.
259  2.58  0.  0.  0.
260  2.59  0.  0.  0.
261  2.60  0.  0.  0.
262  2.61  0.  0.  0.
263  2.62  0.  0.  0.
264  2.63  0.  0.  0.
265  2.64  0.  0.  0.
266  2.65  0.  0.  0.
267  2.66  0.  0.  0.
268  2.67  0.  0.  0.
269  2.68  0.  0.  0.
270  2.69  0.  0.  0.
271  2.70  0.  0.  0.
272  2.71  0.  0.  0.
273  2.72  0.  0.  0.
274  2.73  0.  0.  0.
275  2.74  0.  0.  0.
276  2.75  0.  0.  0.
277  2.76  0.  0.  0.
278  2.77  0.  0.  0.
279  2.78  0.  0.  0.
280  2.79  0.  0.  0.
281  2.80  0.  0.  0.
282  2.81  0.  0.  0.
283  2.82  0.  0.  0.
284  2.83  0.  0.  0.
285  2.84  0.  0.  0.
286  2.85  0.  0.  0.
287  2.86  0.  0.  0.
288  2.87  0.  0.  0.
289  2.88  0.  0.  0.
290  2.89  0.  0.  0.
291  2.90  0.  0.  0.
292  2.91  0.  0.  0.
293  2.92  0.  0.  0.
294  2.93  0.  0.  0.
295  2.94  0.  0.  0.
296  2.95  0.  0.  0.
297  2.96  0.  0.  0.
298  2.97  0.  0.  0.
299  2.98  0.  0.  0.
300  2.99  0.  0.  0.
301  3.00  0.  0.  0.
302  3.01  0.  0.  0.
303  3.02  0.  0.  0.
304  3.03  0.  0.  0.
305  3.04  0.  0.  0.
306  3.05  0.  0.  0.
307  3.06  0.  0.  0.
308  3.07  0.  0.  0.
309  3.08  0.  0.  0.
310  3.09  0.  0.  0.
311  3.10  0.  0.  0.
312  3.11  0.  0.  0.
313  3.12  0.  0.  0.
314  3.13  0.  0.  0.
315  3.14  0.  0.  0.
316  3.15  0.  0.  0.
317  3.16  0.  0.  0.
318  3.17  0.  0.  0.
319  3.18  0.  0.  0.
320  3.19  0.  0.  0.
321  3.20  0.  0.  0.
322  3.21  0.  0.  0.
323  3.22  0.  0.  0.
324  3.23  0.  0.  0.
325  3.24  0.  0.  0.
326  3.25  0.  0.  0.
327  3.26  0.  0.  0.
328  3.27  0.  0.  0.
329  3.28  0.  0.  0.
330  3.29  0.  0.  0.
331  3.30  0.  0.  0.
332  3.31  0.  0.  0.
333  3.32  0.  0.  0.
334  3.33  0.  0.  0.
335  3.34  0.  0.  0.
336  3.35  0.  0.  0.
337  3.36  0.  0.  0.
338  3.37  0.  0.  0.
339  3.38  0.  0.  0.
340  3.39  0.  0.  0.
341  3.40  0.  0.  0.
342  3.41  0.  0.  0.
343  3.42  0.  0.  0.
344  3.43  0.  0.  0.
345  3.44  0.  0.  0.
346  3.45  0.  0.  0.
347  3.46  0.  0.  0.
348  3.47  0.  0.  0.
349  3.48  0.  0.  0.
350  3.49  0.  0.  0.
351  3.50  0.  0.  0.
352  3.51  0.  0.  0.
353  3.52  0.  0.  0.
354  3.53  0.  0.  0.
355  3.54  0.  0.  0.
356  3.55  0.  0.  0.
357  3.56  0.  0.  0.
358  3.57  0.  0.  0.
359  3.58  0.  0.  0.
360  3.59  0.  0.  0.
361  3.60  0.  0.  0.
362  3.61  0.  0.  0.
363  3.62  0.  0.  0.
364  3.63  0.  0.  0.
365  3.64  0.  0.  0.
366  3.65  0.  0.  0.
367  3.66  0.  0.  0.
368  3.67  0.  0.  0.
369  3.68  0.  0.  0.
370  3.69  0.  0.  0.
371  3.70  0.  0.  0.
372  3.71  0.  0.  0.
373  3.72  0.  0.  0.
374  3.73  0.  0.  0.
375  3.74  0.  0.  0.
376  3.75  0.  0.  0.
377  3.76  0.  0.  0.
378  3.77  0.  0.  0.
379  3.78  0.  0.  0.
380  3.79  0.  0.  0.
381  3.80  0.  0.  0.
382  3.81  0.  0.  0.
383  3.82  0.  0.  0.
384  3.83  0.  0.  0.
385  3.84  0.  0.  0.
386  3.85  0.  0.  0.
387  3.86  0.  0.  0.
388  3.87  0.  0.  0.
389  3.88  0.  0.  0.
390  3.89  0.  0.  0.
391  3.90  0.  0.  0.
392  3.91  0.  0.  0.
393  3.92  0.  0.  0.
394  3.93  0.  0.  0.
395  3.94  0.  0.  0.
396  3.95  0.  0.  0.
397  3.96  0.  0.  0.
398  3.97  0.  0.  0.
399  3.98  0.  0.  0.
400  3.99  0.  0.  0.
401  4.00  0.  0.  0.
402  4.01  0.  0.  0.
403  4.02  0.  0.  0.
404  4.03  0.  0.  0.
405  4.04  0.  0.  0.
406  4.05  0.  0.  0.
407  4.06  0.  0.  0.
408  4.07  0.  0.  0.
409  4.08  0.  0.  0.
410  4.09  0.  0.  0.
411  4.10  0.  0.  0.
412  4.11  0.  0.  0.
413  4.12  0.  0.  0.
414  4.13  0.  0.  0.
415  4.14  0.  0.  0.
416  4.15  0.  0.  0.
417  4.16  0.  0.  0.
418  4.17  0.  0.  0.
419  4.18  0.  0.  0.
420  4.19  0.  0.  0.
421  4.20  0.  0.  0.
422  4.21  0.  0.  0.
423  4.22  0.  0.  0.
424  4.23  0.  0.  0.
425  4.24  0.  0.  0.
426  4.25  0.  0.  0.
427  4.26  0.  0.  0.
428  4.27  0.  0.  0.
429  4.28  0.  0.  0.
430  4.29  0.  0.  0.
431  4.30  0.  0.  0.
432  4.31  0.  0.  0.
433  4.32  0.  0.  0.
434  4.33  0.  0.  0.
435  4.34  0.  0.  0.
436  4.35  0.  0.  0.
437  4.36  0.  0.  0.
438  4.37  0.  0.  0.
439  4.38  0.  0.  0.
440  4.39  0.  0.  0.
441  4.40  0.  0.  0.
442  4.41  0.  0.  0.
443  4.42  0.  0.  0.
444  4.43  0.  0.  0.
445  4.44  0.  0.  0.
446  4.45  0.  0.  0.
447  4.46  0.  0.  0.
448  4.47  0.  0.  0.
449  4.48  0.  0.  0.
450  4.49  0.  0.  0.
451  4.50  0.  0.  0.
452  4.51  0.  0.  0.
453  4.52  0.  0.  0.
454  4.53  0.  0.  0.
455  4.54  0.  0.  0.
456  4.55  0.  0.  0.
457  4.56  0.  0.  0.
458  4.57  0.  0.  0.
459  4.58  0.  0.  0.
460  4.59  0.  0.  0.
461  4.60  0.  0.  0.
462  4.61  0.  0.  0.
463  4.62  0.  0.  0.
464  4.63  0.  0.  0.
465  4.64  0.  0.  0.
466  4.65  0.  0.  0.
467  4.66  0.  0.  0.
468  4.67  0.  0.  0.
469  4.68  0.  0.  0.
470  4.69  0.  0.  0.
471  4.70  0.  0.  0.
472  4.71  0.  0.  0.
473  4.72  0.  0.  0.
474  4.73  0.  0.  0.
475  4.74  0.  0.  0.
476  4.75  0.  0.  0.
477  4.76  0.  0.  0.
478  4.77  0.  0.  0.
479  4.78  0.  0.  0.
480  4.79  0.  0.  0.
481  4.80  0.  0.  0.
482  4.81  0.  0.  0.
483  4.82  0.  0.  0.
484  4.83  0.  0.  0.
485  4.84  0.  0.  0.
486  4.85  0.  0.  0.
487  4.86  0.  0.  0.
488  4.87  0.  0.  0.
489  4.88  0.  0.  0.
490  4.89  0.  0.  0.
491  4.90  0.  0.  0.
492  4.91  0.  0.  0.
493  4.92  0.  0.  0.
494  4.93  0.  0.  0.
495  4.94  0.  0.  0.
496  4.95  0.  0.  0.
497  4.96  0.  0.  0.
498  4.97  0.  0.  0.
499  4.98  0.  0.  0.
500  4.99  0.  0.  0.
501  5.00  0.  0.  0.
502  5.01  0.  0.  0.
503  5.02  0.  0.  0.
504  5.03  0.  0.  0.
505  5.04  0.  0.  0.
506  5.05  0.  0.  0.
507  5.06  0.  0.  0.
508  5.07  0.  0.  0.
509  5.08  0.  0.  0.
510  5.09  0.  0.  0.
511  5.10  0.  0.  0.
512  5.11  0.  0.  0.
513  5.12  0.  0.  0.
514  5.13  0.  0.  0.
515  5.14  0.  0.  0.
516  5.15  0.  0.  0.
517  5.16  0.  0.  0.
518  5.17  0.  0.  0.
519  5.18  0.  0.  0.
520  5.19  0.  0.  0.
521  5.20  0.  0.  0.
522  5.21  0.  0.  0.
523  5.22  0.  0.  0.
524  5.23  0.  0.  0.
525  5.24  0.  0.  0.
526  5.25  0.  0.  0.
527  5.26  0.  0.  0.
528  5.27  0.  0.  0.
529  5.28  0.  0.  0.
530  5.29  0.  0.  0.
531  5.30  0.  0.  0.
532  5.31  0.  0.  0.
533  5.32  0.  0.  0.
534  5.33  0.  0.  0.
535  5.34  0.  0.  0.
536  5.35  0.  0.  0.
537  5.36  0.  0.  0.
538  5.37  0.  0.  0.
539  5.38  0.  0.  0.
540  5.39  0.  0.  0.
541  5.40  0.  0.  0.
542  5.41  0.  0.  0.
543  5.42  0.  0.  0.
544  5.43  0.  0.  0.
545  5.44  0.  0.  0.
546  5.45  0.  0.  0.
547  5.46  0.  0.  0.
548  5.47  0.  0.  0.
549  5.48  0.  0.  0.
550  5.49  0.  0.  0.
551  5.50  0.  0.  0.
552  5.51  0.  0.  0.
553  5.52  0.  0.  0.
554  5.53  0.  0.  0.
555  5.54  0.  0.  0.
556  5.55  0.  0.  0.
557  5.56  0.  0.  0.
558  5.57  0.  0.  0.
559  5.58  0.  0.  0.
560  5.59  0.  0.  0.
561  5.60  0.  0.  0.
562  5.61  0.  0.  0.
563  5.62  0.  0.  0.
564  5.63  0.  0.  0.
565  5.64  0.  0.  0.
566  5.65  0.  0.  0.
567  5.66  0.  0.  0.
568  5.67  0.  0.  0.
569  5.68  0.  0.  0.
570  5.69  0.  0.  0.
571  5.70  0.  0.  0.
572  5.71  0.  0.  0.
573  5.72  0.  0.  0.
574  5.73  0.  0.  0.
575  5.74  0.  0.  0.
576  5.75  0.  0.  0.
577  5.76  0.  0.  0.
578  5.77  0.  0.  0.
579  5.78  0.  0.  0.
580  5.79  0.  0.  0.
581  5.80  0.  0.  0.
582  5.81  0.  0.  0.
583  5.82  0.  0.  0.
584  5.83  0.  0.  0.
585  5.84  0.  0.  0.
586  5.85  0.  0.  0.
587  5.86  0.  0.  0.
588  5.87  0.  0.  0.
589  5.88  0.  0.  0.
590  5.89  0.  0.  0.
591  5.90  0.  0.  0.
592  5.91  0.  0.  0.
593  5.92  0.  0.  0.
594  5.93  0.  0.  0.
595  5.94  0.  0.  0.
596  5.95  0.  0.  0.
597  5.96  0.  0.  0.
598  5.97  0.  0.  0.
599  5.98  0.  0.  0.
600  5.99  0.  0.  0.
1                        -1.5317273848319E+01 -1.6568270149552E+00
1  0.0000000000000E+00  5.4835206375614E-09 -1.5092393529370E-08
2  1.0000000000000E-02  3.3561569696158E-03 -3.4752745995646E-03
3  2.0000000000000E-02  1.3397527236168E-02 -1.3855862524194E-02
4  3.0000000000000E-02  3.0043070867742E-02 -3.1006633076773E-02
5  4.0000000000000E-02  5.3158591538335E-02 -5.4704282533548E-02
6  5.0000000000000E-02  8.2558031100282E-02 -8.4640174061683E-02
7  6.0000000000000E-02  1.1800526060808E-01 -1.2042425178594E-01
8  7.0000000000000E-02  1.5921634678448E-01 -1.6158996871216E-01
9  8.0000000000000E-02  2.0586226743623E-01 -2.0760015312280E-01
10  9.0000000000000E-02  2.5757204422004E-01 -2.5785372448901E-01
11  1.0000000000000E-01  3.1393625649935E-01 -3.1169315814964E-01
12  1.1000000000000E-01  3.7451089588156E-01 -3.6841258819819E-01
13  1.2000000000000E-01  4.3882151743748E-01 -4.2726643035047E-01
14  1.3000000000000E-01  5.0636764062313E-01 -4.8747840114287E-01
15  1.4000000000000E-01  5.7662735058385E-01 -5.4825080668015E-01
16  1.5000000000000E-01  6.4906204884371E-01 -6.0877397330352E-01
17  1.6000000000000E-01  7.2312130138377E-01 -6.6823569392436E-01
18  1.7000000000000E-01  7.9824773179055E-01 -7.2583056725036E-01
19  1.8000000000000E-01  8.7388190750462E-01 -7.8076911256317E-01
20  1.9000000000000E-01  9.4946716819731E-01 -8.3228654988967E-01
21  2.0000000000000E-01  1.0244543469249E+00 -8.7965114411247E-01
22  2.1000000000000E-01  1.0983063369147E+00 -9.2217202153173E-01
23  2.2000000000000E-01  1.1705024595846E+00 -9.5920637834868E-01
24  2.3000000000000E-01  1.2405425926282E+00 -9.9016601220788E-01
25  2.4000000000000E-01  1.3079510206662E+00 -1.0145231200313E+00
26  2.5000000000000E-01  1.3722799749909E+00 -1.0318153176281E+00
27  2.6000000000000E-01  1.4331128332691E+00 -1.0416498487136E+00
28  2.7000000000000E-01  1.4900669546340E+00 -1.0437069627847E+00
29  2.8000000000000E-01  1.5427961303329E+00 -1.0377424525671E+00
30  2.9000000000000E-01  1.5909926349285E+00 -1.0235893523019E+00
31  3.0000000000000E-01  1.6343888679112E+00 -1.0011588078323E+00
32  3.1000000000000E-01  1.6727585804106E+00 -9.7044013818495E-01
33  3.2000000000000E-01  1.7059176864211E+00 -9.3150011604665E-01
34  3.3000000000000E-01  1.7337246625370E+00 -8.8448150119381E-01
35  3.4000000000000E-01  1.7560805445606E+00 -8.2960086653838E-01
36  3.5000000000000E-01  1.7729285334662E+00 -7.6714576105012E-01
37  3.6000000000000E-01  1.7842532270238E+00 -6.9747125746493E-01
38  3.7000000000000E-01  1.7900794968777E+00 -6.2099593547785E-01
39  3.8000000000000E-01  1.7904710340058E+00 -5.3819735314862E-01
40  3.9000000000000E-01  1.7855285882361E+00 -4.4960706063074E-01
41  4.0000000000000E-01  1.7753879298403E+00 -3.5580521118861E-01
42  4.1000000000000E-01  1.7602175631688E+00 -2.5741482490758E-01
43  4.2000000000000E-01  1.7402162238071E+00 -1.5509576063821E-01
44  4.3000000000000E-01  1.7156101918458E+00 -4.9538451646320E-02
45  4.4000000000000E-01  1.6866504545546E+00  5.8542539751322E-02
46  4.5000000000000E-01  1.6536097520480E+00  1.6841509353802E-01
47  4.6000000000000E-01  1.6167795394514E+00  2.7933617457352E-01
48  4.7000000000000E-01  1.5764668986242E+00  3.9055849189680E-01
49  4.8000000000000E-01  1.5329914317072E+00  5.0133712051450E-01
50  4.9000000000000E-01  1.4866821676496E+00  6.1093603171081E-01
51  5.0000000000000E-01  1.4378745114687E+00  7.1863447825340E-01
52  5.1000000000000E-01  1.3869072643315E+00  8.2373318132856E-01
53  5.2000000000000E-01  1.3341197406458E+00  9.2556026669103E-01
54  5.3000000000000E-01  1.2798490062508E+00  1.0234768984415E+00
55  5.4000000000000E-01  1.2244272595258E+00  1.1168825601335E+00
56  5.5000000000000E-01  1.1681793748244E+00  1.2052199346515E+00
57  5.6000000000000E-01  1.1114206251304E+00  1.2879793365679E+00
58  5.7000000000000E-01  1.0544545982361E+00  1.3647026535619E+00
59  5.8000000000000E-01  9.9757131811235E-01  1.4349867570144E+00
60  5.9000000000000E-01  9.4104558048969E-01  1.4984863461280E+00
61  6.0000000000000E-01  8.8513550903397E-01  1.5549161948794E+00
62  6.1000000000000E-01  8.3008133590904E-01  1.6040527767827E+00
63  6.2000000000000E-01  7.7610440799362E-01  1.6457352488021E+00
64  6.3000000000000E-01  7.2340641758785E-01  1.6798657827466E+00
65  6.4000000000000E-01  6.7216885412876E-01  1.7064092400196E+00
66  6.5000000000000E-01  6.2255267125298E-01  1.7253921935844E+00
67  6.6000000000000E-01  5.7469816151998E-01  1.7369013093120E+00
68  6.7000000000000E-01  5.2872502925448E-01  1.7410811073517E+00
69  6.8000000000000E-01  4.8473265029853E-01  1.7381311326520E+00
70  6.9000000000000E-01  4.4280050599278E-01  1.7283025720756E+00
71  7.0000000000000E-01  4.0298877744303E-01  1.7118943635353E+00
72  7.1000000000000E-01  3.6533908507865E-01  1.6892488500319E+00
73  7.2000000000000E-01  3.2987535767846E-01  1.6607470382409E+00
74  7.3000000000000E-01  2.9660481442918E-01  1.6268035272018E+00
75  7.4000000000000E-01  2.6551904319039E-01  1.5878611775658E+00
76  7.5000000000000E-01  2.3659515796469E-01  1.5443855956309E+00
77  7.6000000000000E-01  2.0979701860671E-01  1.4968595089353E+00
78  7.7000000000000E-01  1.8507649604080E-01  1.4457771114126E+00
79  7.8000000000000E-01  1.6237476668448E-01  1.3916384560037E+00
80  7.9000000000000E-01  1.4162362037902E-01  1.3349439711489E+00
81  8.0000000000000E-01  1.2274676689591E-01  1.2761891747827E+00
82  8.1000000000000E-01  1.0566112700058E-01  1.2158596553778E+00
83  8.2000000000000E-01  9.0278095095053E-02  1.1544263843200E+00
84  8.3000000000000E-01  7.6504761608558E-02  1.0923414175633E+00
85  8.4000000000000E-01  6.4245084540327E-02  1.0300340372622E+00
86  8.5000000000000E-01  5.3401000858972E-02  9.6790737606480E-01
87  8.6000000000000E-01  4.3873469808119E-02  9.0633555816712E-01
88  8.7000000000000E-01  3.5563441535890E-02  8.4566138227119E-01
89  8.8000000000000E-01  2.8372745836151E-02  7.8619456245401E-01
90  8.9000000000000E-01  2.2204897141701E-02  7.2821053385197E-01
91  9.0000000000000E-01  1.6965813225046E-02  6.7194982118713E-01
92  9.1000000000000E-01  1.2564446323382E-02  6.1761795969827E-01
93  9.2000000000000E-01  8.9133265951554E-03  5.6538595015945E-01
94  9.3000000000000E-01  5.9290189222408E-03  5.1539122252178E-01
95  9.4000000000000E-01  3.5324950822479E-03  4.6773907642792E-01
96  9.5000000000000E-01  1.6494242207520E-03  4.2250456151708E-01
97  9.6000000000000E-01  2.1038534560747E-04  3.7973475613379E-01
98  9.7000000000000E-01 -8.4899375973076E-04  3.3945139981099E-01
99  9.8000000000000E-01 -1.5879662520817E-03  3.0165383272608E-01
100  9.9000000000000E-01 -2.0606591875768E-03  2.6632219420421E-01
101  1.0000000000000E+00 -2.3161240221563E-03  2.3342083221991E-01
102  1.0100000000000E+00 -2.3984387510991E-03  2.0290187664753E-01
103  1.0200000000000E+00 -2.3468556938958E-03  1.7470893064413E-01
104  1.0300000000000E+00 -2.1959889425448E-03  1.4878083690355E-01
105  1.0400000000000E+00 -1.9760355976551E-03  1.2505547847096E-01
106  1.0500000000000E+00 -1.7130251094328E-03  1.0347357723644E-01
107  1.0600000000000E+00 -1.4290913101988E-03  8.3982456994984E-02
108  1.0700000000000E+00 -1.1427620616022E-03  6.6539741946347E-02
109  1.0800000000000E+00 -8.6926288893328E-04  5.1116933681532E-02
110  1.0900000000000E+00 -6.2082238413443E-04  3.7703138558823E-02
111  1.1000000000000E+00 -4.0763625320676E-04  2.6294832857839E-02
112  1.1100000000000E+00 -2.3928839336952E-04  1.6894492339759E-02
113  1.1200000000000E+00 -1.1908274458332E-04  9.5826957020001E-03
114  1.1300000000000E+00 -4.4912096213099E-05  4.3807179915366E-03
115  1.1400000000000E+00 -9.3516324250147E-06  1.2314224652065E-03
116  1.1500000000000E+00 -1.7367748621461E-07  4.3273166920170E-05
117  1.1600000000000E+00 -1.9656420598521E-08  4.1867963003061E-06
118  1.1700000000000E+00  5.9549166187500E-09 -9.7144975553335E-07
119  1.18  0.  0.
120  1.19  0.  0.
121  1.20  0.  0.
122  1.21  0.  0.
123  1.22  0.  0.
124  1.23  0.  0.
125  1.24  0.  0.
126  1.25  0.  0.
127  1.26  0.  0.
128  1.27  0.  0.
129  1.28  0.  0.
130  1.29  0.  0.
131  1.30  0.  0.
132  1.31  0.  0.
133  1.32  0.  0.
134  1.33  0.  0.
135  1.34  0.  0.
136  1.35  0.  0.
137  1.36  0.  0.
138  1.37  0.  0.
139  1.38  0.  0.
140  1.39  0.  0.
141  1.40  0.  0.
142  1.41  0.  0.
143  1.42  0.  0.
144  1.43  0.  0.
145  1.44  0.  0.
146  1.45  0.  0.
147  1.46  0.  0.
148  1.47  0.  0.
149  1.48  0.  0.
150  1.49  0.  0.
151  1.50  0.  0.
152  1.51  0.  0.
153  1.52  0.  0.
154  1.53  0.  0.
155  1.54  0.  0.
156  1.55  0.  0.
157  1.56  0.  0.
158  1.57  0.  0.
159  1.58  0.  0.
160  1.59  0.  0.
161  1.60  0.  0.
162  1.61  0.  0.
163  1.62  0.  0.
164  1.63  0.  0.
165  1.64  0.  0.