Cn    ONCVPSP-4.0.1  r_core=   1.10449   1.10449   1.10449   1.10449
112.0000     52.0000      220326    zatom,zion,pspd
8      11   3     4   600     0    pspcod,pspxc,lmax,lloc,mmax,r2well
5.99000000  5.00000000  0.00000000    rchrg fchrg qchrg
3     2     2     2     0    nproj
1     1           extension_switch
0                        -1.8669941827494E+01  1.1287709485127E+01 -1.1931528767815E+00
1  0.0000000000000E+00 -1.7761270232342E-10  1.5400886121952E-08 -3.6121612992379E-08
2  1.0000000000000E-02  8.6514318683443E-02  2.1034726917353E-01 -9.1009393078739E-03
3  2.0000000000000E-02  1.7279981237316E-01  4.1825787400935E-01 -1.8501032645139E-02
4  3.0000000000000E-02  2.5862829200147E-01  6.2132388156720E-01 -2.8490875727864E-02
5  4.0000000000000E-02  3.4377284020581E-01  8.1719458028139E-01 -3.9344201146875E-02
6  5.0000000000000E-02  4.2800844687532E-01  1.0036044819780E+00 -5.1310070366636E-02
7  6.0000000000000E-02  5.1111264449496E-01  1.1784005796788E+00 -6.4605785938705E-02
8  7.0000000000000E-02  5.9286614347385E-01  1.3395685916523E+00 -7.9410718648498E-02
9  8.0000000000000E-02  6.7305346782170E-01  1.4852579067740E+00 -9.5861208192468E-02
10  9.0000000000000E-02  7.5146359171264E-01  1.6138049305447E+00 -1.1404665411205E-01
11  1.0000000000000E-01  8.2789057762081E-01  1.7237545171524E+00 -1.3400686803958E-01
12  1.1000000000000E-01  9.0213421679959E-01  1.8138791629043E+00 -1.5573071095376E-01
13  1.2000000000000E-01  9.7400067287897E-01  1.8831956323683E+00 -1.7915599227699E-01
14  1.3000000000000E-01  1.0433031292474E+00  1.9309786926509E+00 -2.0417056340757E-01
15  1.4000000000000E-01  1.1098624406457E+00  1.9567716451346E+00 -2.3061449865330E-01
16  1.5000000000000E-01  1.1735077890173E+00  1.9603933690379E+00 -2.5828322326376E-01
17  1.6000000000000E-01  1.2340773431215E+00  1.9419416281779E+00 -2.8693142276021E-01
18  1.7000000000000E-01  1.2914189207292E+00  1.9017924415773E+00 -3.1627755105340E-01
19  1.8000000000000E-01  1.3453906513938E+00  1.8405953797060E+00 -3.4600874749370E-01
20  1.9000000000000E-01  1.3958616368349E+00  1.7592647201798E+00 -3.7578597511627E-01
21  2.0000000000000E-01  1.4427126049351E+00  1.6589664780309E+00 -4.0524920355200E-01
22  2.1000000000000E-01  1.4858365522426E+00  1.5411014140261E+00 -4.3402247954621E-01
23  2.2000000000000E-01  1.5251393687609E+00  1.4072842172250E+00 -4.6171875452007E-01
24  2.3000000000000E-01  1.5605404377205E+00  1.2593191519576E+00 -4.8794437053651E-01
25  2.4000000000000E-01  1.5919732020276E+00  1.0991725513084E+00 -5.1230314153921E-01
26  2.5000000000000E-01  1.6193856882195E+00  9.2894262552770E-01 -5.3440000378807E-01
27  2.6000000000000E-01  1.6427409780747E+00  7.5082713114206E-01 -5.5384424592168E-01
28  2.7000000000000E-01  1.6620176175694E+00  5.6708951163326E-01 -5.7025236297096E-01
29  2.8000000000000E-01  1.6772099526929E+00  3.8002417052983E-01 -5.8325060801042E-01
30  2.9000000000000E-01  1.6883283817459E+00  1.9192157019474E-01 -5.9247733828270E-01
31  3.0000000000000E-01  1.6953995141799E+00  5.0338627109376E-03 -5.9758526821594E-01
32  3.1000000000000E-01  1.6984662268035E+00 -1.7845824801158E-01 -5.9824374882117E-01
33  3.2000000000000E-01  1.6975876092656E+00 -3.5647674176442E-01 -5.9414119100133E-01
34  3.3000000000000E-01  1.6928387921274E+00 -5.2707499223496E-01 -5.8498773930887E-01
35  3.4000000000000E-01  1.6843106525135E+00 -6.8846339595125E-01 -5.7051828311396E-01
36  3.5000000000000E-01  1.6721093942523E+00 -8.3903144792056E-01 -5.5049586492807E-01
37  3.6000000000000E-01  1.6563560015239E+00 -9.7736588979717E-01 -5.2471551212604E-01
38  3.7000000000000E-01  1.6371855672771E+00 -1.1022646649881E+00 -4.9300848024703E-01
39  3.8000000000000E-01  1.6147464999755E+00 -1.2127465305539E+00 -4.5524685544084E-01
40  3.9000000000000E-01  1.5891996145336E+00 -1.3080562939891E+00 -4.1134842264864E-01
41  4.0000000000000E-01  1.5607171155245E+00 -1.3876657597418E+00 -3.6128166703945E-01
42  4.1000000000000E-01  1.5294814828105E+00 -1.4512705814965E+00 -3.0507074130238E-01
43  4.2000000000000E-01  1.4956842716142E+00 -1.4987833178388E+00 -2.4280020270995E-01
44  4.3000000000000E-01  1.4595248406336E+00 -1.5303230774162E+00 -1.7461930326083E-01
45  4.4000000000000E-01  1.4212090230802E+00 -1.5462022121042E+00 -1.0074560516993E-01
46  4.5000000000000E-01  1.3809477564294E+00 -1.5469105706567E+00 -2.1467693564516E-02
47  4.6000000000000E-01  1.3389556872097E+00 -1.5330978593314E+00  6.2853230962521E-02
48  4.7000000000000E-01  1.2954497672919E+00 -1.5055546693219E+00  1.5178307525317E-01
49  4.8000000000000E-01  1.2506478578961E+00 -1.4651927236619E+00  2.4481605446504E-01
50  4.9000000000000E-01  1.2047673569089E+00 -1.4130248696211E+00  3.4137749096129E-01
51  5.0000000000000E-01  1.1580238641458E+00 -1.3501452983003E+00  4.4082828055159E-01
52  5.1000000000000E-01  1.1106298979295E+00 -1.2777104137173E+00  5.4247103851424E-01
53  5.2000000000000E-01  1.0627936748551E+00 -1.1969207022982E+00  6.4555787700295E-01
54  5.3000000000000E-01  1.0147179629168E+00 -1.1090038739676E+00  7.4929970326888E-01
55  5.4000000000000E-01  9.6659901636279E-01 -1.0151994618737E+00  8.5287686731246E-01
56  5.5000000000000E-01  9.1862559878342E-01 -9.1674498320470E-01  9.5545093084350E-01
57  5.6000000000000E-01  8.7097809908520E-01 -8.1486368251091E-01  1.0561772793851E+00
58  5.7000000000000E-01  8.2382774323695E-01 -7.1075380513769E-01  1.1542182583926E+00
59  5.8000000000000E-01  7.7733590303745E-01 -6.0557928507972E-01  1.2487564844127E+00
60  5.9000000000000E-01  7.3165350170372E-01 -5.0046168149777E-01  1.3390079651802E+00
61  6.0000000000000E-01  6.8692051485069E-01 -3.9647316330796E-01  1.4242346592100E+00
62  6.1000000000000E-01  6.4326556445183E-01 -2.9463032288688E-01  1.5037561163830E+00
63  6.2000000000000E-01  6.0080560265145E-01 -1.9588859841632E-01  1.5769598661162E+00
64  6.3000000000000E-01  5.5964568183976E-01 -1.0113709924099E-01  1.6433102581992E+00
65  6.4000000000000E-01  5.1987880719062E-01 -1.1193658515075E-02  1.7023555119208E+00
66  6.5000000000000E-01  4.8158586787158E-01  7.3200019720304E-02  1.7537327897919E+00
67  6.6000000000000E-01  4.4483564333103E-01  1.5138319881934E-01  1.7971711806211E+00
68  6.7000000000000E-01  4.0968488140358E-01  2.2278095300254E-01  1.8324925501446E+00
69  6.8000000000000E-01  3.7617844539939E-01  2.8690897267381E-01  1.8596102928482E+00
70  6.9000000000000E-01  3.4434952780364E-01  3.4337822575167E-01  1.8785260928669E+00
71  7.0000000000000E-01  3.1421992865086E-01  3.9189931127136E-01  1.8893248717805E+00
72  7.1000000000000E-01  2.8580039700420E-01  4.3228629190714E-01  1.8921681637180E+00
73  7.2000000000000E-01  2.5909103421266E-01  4.6445975409782E-01  1.8872862107289E+00
74  7.3000000000000E-01  2.3408175769988E-01  4.8844882094793E-01  1.8749691115490E+00
75  7.4000000000000E-01  2.1075282392636E-01  5.0439183612141E-01  1.8555573828955E+00
76  7.5000000000000E-01  1.8907540884324E-01  5.1253544784771E-01  1.8294323030538E+00
77  7.6000000000000E-01  1.6901224361638E-01  5.1323185131464E-01  1.7970064022651E+00
78  7.7000000000000E-01  1.5051830265068E-01  5.0693399458600E-01  1.7587144434333E+00
79  7.8000000000000E-01  1.3354154000982E-01  4.9418861628058E-01  1.7150052008384E+00
80  7.9000000000000E-01  1.1802366924016E-01  4.7562706019857E-01  1.6663342954128E+00
81  8.0000000000000E-01  1.0390098041560E-01  4.5195389971244E-01  1.6131582848708E+00
82  8.1000000000000E-01  9.1105186979611E-02  4.2393349919395E-01  1.5559301382866E+00
83  8.2000000000000E-01  7.9564293734108E-02  3.9237473666133E-01  1.4950961506981E+00
84  8.3000000000000E-01  6.9203476179854E-02  3.5811420652341E-01  1.4310942773632E+00
85  8.4000000000000E-01  5.9945960418818E-02  3.2199830896842E-01  1.3643537929627E+00
86  8.5000000000000E-01  5.1713892050520E-02  2.8486470852757E-01  1.2952961118166E+00
87  8.6000000000000E-01  4.4429181993337E-02  2.4752370429361E-01  1.2243365444118E+00
88  8.7000000000000E-01  3.8014316988959E-02  2.1074009441110E-01  1.1518867162168E+00
89  8.8000000000000E-01  3.2393122743731E-02  1.7521613473805E-01  1.0783573394136E+00
90  8.9000000000000E-01  2.7491468249940E-02  1.4157618388538E-01  1.0041610087546E+00
91  9.0000000000000E-01  2.3237900822695E-02  1.1035359308514E-01  9.2971469047652E-01
92  9.1000000000000E-01  1.9564202775843E-02  8.1980339572990E-02  8.5544158858269E-01
93  9.2000000000000E-01  1.6405862418031E-02  5.6779817589091E-02  7.8177210551422E-01
94  9.3000000000000E-01  1.3702454134391E-02  3.4963094070886E-02  7.0914366317624E-01
95  9.4000000000000E-01  1.1397924671169E-02  1.6628810061942E-02  6.3799921360621E-01
96  9.5000000000000E-01  9.4407852865691E-03  1.7667681925610E-03  5.6878434371577E-01
97  9.6000000000000E-01  7.7842120862059E-03 -9.7349035167918E-03  5.0194296238592E-01
98  9.7000000000000E-01  6.3860595312289E-03 -1.8079274969357E-02  4.3791164711859E-01
99  9.8000000000000E-01  5.2087946951611E-03 -2.3547239096596E-02  3.7711281762217E-01
100  9.9000000000000E-01  4.2193622506267E-03 -2.6481795827493E-02  3.1994699103296E-01
101  1.0000000000000E+00  3.3889922955423E-03 -2.7270679562518E-02  2.6678445401958E-01
102  1.0100000000000E+00  2.6929648908826E-03 -2.6328121786115E-02  2.1795675696448E-01
103  1.0200000000000E+00  2.1103465048930E-03 -2.4076622045810E-02  1.7374849149186E-01
104  1.0300000000000E+00  1.6237164603500E-03 -2.0929678917652E-02  1.3438985850141E-01
105  1.0400000000000E+00  1.2188828909699E-03 -1.7276214430225E-02  1.0005049489080E-01
106  1.0500000000000E+00  8.8448919208020E-04 -1.3466294819496E-02  7.0834767571798E-02
107  1.0600000000000E+00  6.0416270184022E-04 -9.6996392954013E-03  4.6753086296567E-02
108  1.0700000000000E+00  3.7206867232734E-04 -6.2123745384904E-03  2.7768800083421E-02
109  1.0800000000000E+00  1.9234777874109E-04 -3.3023353848518E-03  1.3813438553668E-02
110  1.0900000000000E+00  6.9135365879479E-05 -1.2093136462402E-03  4.7649786339237E-03
111  1.1000000000000E+00  7.3000786807034E-06 -1.2912789176005E-04  4.8082872204777E-04
112  1.1100000000000E+00 -2.6320609502663E-07  4.7015561612357E-06 -1.6906608360344E-05
113  1.1200000000000E+00 -3.4842404110810E-08  6.1728697021688E-07 -2.3282968769552E-06
114  1.13 -0. -0.  0.
115  1.14  0.  0.  0.
116  1.15  0.  0.  0.
117  1.16  0.  0.  0.
118  1.17  0.  0.  0.
119  1.18  0.  0.  0.
120  1.19  0.  0.  0.
121  1.20  0.  0.  0.
122  1.21  0.  0.  0.
123  1.22  0.  0.  0.
124  1.23  0.  0.  0.
125  1.24  0.  0.  0.
126  1.25  0.  0.  0.
127  1.26  0.  0.  0.
128  1.27  0.  0.  0.
129  1.28  0.  0.  0.
130  1.29  0.  0.  0.
131  1.30  0.  0.  0.
132  1.31  0.  0.  0.
133  1.32  0.  0.  0.
134  1.33  0.  0.  0.
135  1.34  0.  0.  0.
136  1.35  0.  0.  0.
137  1.36  0.  0.  0.
138  1.37  0.  0.  0.
139  1.38  0.  0.  0.
140  1.39  0.  0.  0.
141  1.40  0.  0.  0.
142  1.41  0.  0.  0.
143  1.42  0.  0.  0.
144  1.43  0.  0.  0.
145  1.44  0.  0.  0.
146  1.45  0.  0.  0.
147  1.46  0.  0.  0.
148  1.47  0.  0.  0.
149  1.48  0.  0.  0.
150  1.49  0.  0.  0.
151  1.50  0.  0.  0.
152  1.51  0.  0.  0.
153  1.52  0.  0.  0.
154  1.53  0.  0.  0.
155  1.54  0.  0.  0.
156  1.55  0.  0.  0.
157  1.56  0.  0.  0.
158  1.57  0.  0.  0.
159  1.58  0.  0.  0.
160  1.59  0.  0.  0.
161  1.60  0.  0.  0.
162  1.61  0.  0.  0.
163  1.62  0.  0.  0.
164  1.63  0.  0.  0.
165  1.64  0.  0.  0.
166  1.65  0.  0.  0.
167  1.66  0.  0.  0.
168  1.67  0.  0.  0.
169  1.68  0.  0.  0.
170  1.69  0.  0.  0.
171  1.70  0.  0.  0.
172  1.71  0.  0.  0.
173  1.72  0.  0.  0.
174  1.73  0.  0.  0.
175  1.74  0.  0.  0.
176  1.75  0.  0.  0.
177  1.76  0.  0.  0.
178  1.77  0.  0.  0.
179  1.78  0.  0.  0.
180  1.79  0.  0.  0.
181  1.80  0.  0.  0.
182  1.81  0.  0.  0.
183  1.82  0.  0.  0.
184  1.83  0.  0.  0.
185  1.84  0.  0.  0.
186  1.85  0.  0.  0.
187  1.86  0.  0.  0.
188  1.87  0.  0.  0.
189  1.88  0.  0.  0.
190  1.89  0.  0.  0.
191  1.90  0.  0.  0.
192  1.91  0.  0.  0.
193  1.92  0.  0.  0.
194  1.93  0.  0.  0.
195  1.94  0.  0.  0.
196  1.95  0.  0.  0.
197  1.96  0.  0.  0.
198  1.97  0.  0.  0.
199  1.98  0.  0.  0.
200  1.99  0.  0.  0.
201  2.00  0.  0.  0.
202  2.01  0.  0.  0.
203  2.02  0.  0.  0.
204  2.03  0.  0.  0.
205  2.04  0.  0.  0.
206  2.05  0.  0.  0.
207  2.06  0.  0.  0.
208  2.07  0.  0.  0.
209  2.08  0.  0.  0.
210  2.09  0.  0.  0.
211  2.10  0.  0.  0.
212  2.11  0.  0.  0.
213  2.12  0.  0.  0.
214  2.13  0.  0.  0.
215  2.14  0.  0.  0.
216  2.15  0.  0.  0.
217  2.16  0.  0.  0.
218  2.17  0.  0.  0.
219  2.18  0.  0.  0.
220  2.19  0.  0.  0.
221  2.20  0.  0.  0.
222  2.21  0.  0.  0.
223  2.22  0.  0.  0.
224  2.23  0.  0.  0.
225  2.24  0.  0.  0.
226  2.25  0.  0.  0.
227  2.26  0.  0.  0.
228  2.27  0.  0.  0.
229  2.28  0.  0.  0.
230  2.29  0.  0.  0.
231  2.30  0.  0.  0.
232  2.31  0.  0.  0.
233  2.32  0.  0.  0.
234  2.33  0.  0.  0.
235  2.34  0.  0.  0.
236  2.35  0.  0.  0.
237  2.36  0.  0.  0.
238  2.37  0.  0.  0.
239  2.38  0.  0.  0.
240  2.39  0.  0.  0.
241  2.40  0.  0.  0.
242  2.41  0.  0.  0.
243  2.42  0.  0.  0.
244  2.43  0.  0.  0.
245  2.44  0.  0.  0.
246  2.45  0.  0.  0.
247  2.46  0.  0.  0.
248  2.47  0.  0.  0.
249  2.48  0.  0.  0.
250  2.49  0.  0.  0.
251  2.50  0.  0.  0.
252  2.51  0.  0.  0.
253  2.52  0.  0.  0.
254  2.53  0.  0.  0.
255  2.54  0.  0.  0.
256  2.55  0.  0.  0.
257  2.56  0.  0.  0.
258  2.57  0.  0.  0.
259  2.58  0.  0.  0.
260  2.59  0.  0.  0.
261  2.60  0.  0.  0.
262  2.61  0.  0.  0.
263  2.62  0.  0.  0.
264  2.63  0.  0.  0.
265  2.64  0.  0.  0.
266  2.65  0.  0.  0.
267  2.66  0.  0.  0.
268  2.67  0.  0.  0.
269  2.68  0.  0.  0.
270  2.69  0.  0.  0.
271  2.70  0.  0.  0.
272  2.71  0.  0.  0.
273  2.72  0.  0.  0.
274  2.73  0.  0.  0.
275  2.74  0.  0.  0.
276  2.75  0.  0.  0.
277  2.76  0.  0.  0.
278  2.77  0.  0.  0.
279  2.78  0.  0.  0.
280  2.79  0.  0.  0.
281  2.80  0.  0.  0.
282  2.81  0.  0.  0.
283  2.82  0.  0.  0.
284  2.83  0.  0.  0.
285  2.84  0.  0.  0.
286  2.85  0.  0.  0.
287  2.86  0.  0.  0.
288  2.87  0.  0.  0.
289  2.88  0.  0.  0.
290  2.89  0.  0.  0.
291  2.90  0.  0.  0.
292  2.91  0.  0.  0.
293  2.92  0.  0.  0.
294  2.93  0.  0.  0.
295  2.94  0.  0.  0.
296  2.95  0.  0.  0.
297  2.96  0.  0.  0.
298  2.97  0.  0.  0.
299  2.98  0.  0.  0.
300  2.99  0.  0.  0.
301  3.00  0.  0.  0.
302  3.01  0.  0.  0.
303  3.02  0.  0.  0.
304  3.03  0.  0.  0.
305  3.04  0.  0.  0.
306  3.05  0.  0.  0.
307  3.06  0.  0.  0.
308  3.07  0.  0.  0.
309  3.08  0.  0.  0.
310  3.09  0.  0.  0.
311  3.10  0.  0.  0.
312  3.11  0.  0.  0.
313  3.12  0.  0.  0.
314  3.13  0.  0.  0.
315  3.14  0.  0.  0.
316  3.15  0.  0.  0.
317  3.16  0.  0.  0.
318  3.17  0.  0.  0.
319  3.18  0.  0.  0.
320  3.19  0.  0.  0.
321  3.20  0.  0.  0.
322  3.21  0.  0.  0.
323  3.22  0.  0.  0.
324  3.23  0.  0.  0.
325  3.24  0.  0.  0.
326  3.25  0.  0.  0.
327  3.26  0.  0.  0.
328  3.27  0.  0.  0.
329  3.28  0.  0.  0.
330  3.29  0.  0.  0.
331  3.30  0.  0.  0.
332  3.31  0.  0.  0.
333  3.32  0.  0.  0.
334  3.33  0.  0.  0.
335  3.34  0.  0.  0.
336  3.35  0.  0.  0.
337  3.36  0.  0.  0.
338  3.37  0.  0.  0.
339  3.38  0.  0.  0.
340  3.39  0.  0.  0.
341  3.40  0.  0.  0.
342  3.41  0.  0.  0.
343  3.42  0.  0.  0.
344  3.43  0.  0.  0.
345  3.44  0.  0.  0.
346  3.45  0.  0.  0.
347  3.46  0.  0.  0.
348  3.47  0.  0.  0.
349  3.48  0.  0.  0.
350  3.49  0.  0.  0.
351  3.50  0.  0.  0.
352  3.51  0.  0.  0.
353  3.52  0.  0.  0.
354  3.53  0.  0.  0.
355  3.54  0.  0.  0.
356  3.55  0.  0.  0.
357  3.56  0.  0.  0.
358  3.57  0.  0.  0.
359  3.58  0.  0.  0.
360  3.59  0.  0.  0.
361  3.60  0.  0.  0.
362  3.61  0.  0.  0.
363  3.62  0.  0.  0.
364  3.63  0.  0.  0.
365  3.64  0.  0.  0.
366  3.65  0.  0.  0.
367  3.66  0.  0.  0.
368  3.67  0.  0.  0.
369  3.68  0.  0.  0.
370  3.69  0.  0.  0.
371  3.70  0.  0.  0.
372  3.71  0.  0.  0.
373  3.72  0.  0.  0.
374  3.73  0.  0.  0.
375  3.74  0.  0.  0.
376  3.75  0.  0.  0.
377  3.76  0.  0.  0.
378  3.77  0.  0.  0.
379  3.78  0.  0.  0.
380  3.79  0.  0.  0.
381  3.80  0.  0.  0.
382  3.81  0.  0.  0.
383  3.82  0.  0.  0.
384  3.83  0.  0.  0.
385  3.84  0.  0.  0.
386  3.85  0.  0.  0.
387  3.86  0.  0.  0.
388  3.87  0.  0.  0.
389  3.88  0.  0.  0.
390  3.89  0.  0.  0.
391  3.90  0.  0.  0.
392  3.91  0.  0.  0.
393  3.92  0.  0.  0.
394  3.93  0.  0.  0.
395  3.94  0.  0.  0.
396  3.95  0.  0.  0.
397  3.96  0.  0.  0.
398  3.97  0.  0.  0.
399  3.98  0.  0.  0.
400  3.99  0.  0.  0.
401  4.00  0.  0.  0.
402  4.01  0.  0.  0.
403  4.02  0.  0.  0.
404  4.03  0.  0.  0.
405  4.04  0.  0.  0.
406  4.05  0.  0.  0.
407  4.06  0.  0.  0.
408  4.07  0.  0.  0.
409  4.08  0.  0.  0.
410  4.09  0.  0.  0.
411  4.10  0.  0.  0.
412  4.11  0.  0.  0.
413  4.12  0.  0.  0.
414  4.13  0.  0.  0.
415  4.14  0.  0.  0.
416  4.15  0.  0.  0.
417  4.16  0.  0.  0.
418  4.17  0.  0.  0.
419  4.18  0.  0.  0.
420  4.19  0.  0.  0.
421  4.20  0.  0.  0.
422  4.21  0.  0.  0.
423  4.22  0.  0.  0.
424  4.23  0.  0.  0.
425  4.24  0.  0.  0.
426  4.25  0.  0.  0.
427  4.26  0.  0.  0.
428  4.27  0.  0.  0.
429  4.28  0.  0.  0.
430  4.29  0.  0.  0.
431  4.30  0.  0.  0.
432  4.31  0.  0.  0.
433  4.32  0.  0.  0.
434  4.33  0.  0.  0.
435  4.34  0.  0.  0.
436  4.35  0.  0.  0.
437  4.36  0.  0.  0.
438  4.37  0.  0.  0.
439  4.38  0.  0.  0.
440  4.39  0.  0.  0.
441  4.40  0.  0.  0.
442  4.41  0.  0.  0.
443  4.42  0.  0.  0.
444  4.43  0.  0.  0.
445  4.44  0.  0.  0.
446  4.45  0.  0.  0.
447  4.46  0.  0.  0.
448  4.47  0.  0.  0.
449  4.48  0.  0.  0.
450  4.49  0.  0.  0.
451  4.50  0.  0.  0.
452  4.51  0.  0.  0.
453  4.52  0.  0.  0.
454  4.53  0.  0.  0.
455  4.54  0.  0.  0.
456  4.55  0.  0.  0.
457  4.56  0.  0.  0.
458  4.57  0.  0.  0.
459  4.58  0.  0.  0.
460  4.59  0.  0.  0.
461  4.60  0.  0.  0.
462  4.61  0.  0.  0.
463  4.62  0.  0.  0.
464  4.63  0.  0.  0.
465  4.64  0.  0.  0.
466  4.65  0.  0.  0.
467  4.66  0.  0.  0.
468  4.67  0.  0.  0.
469  4.68  0.  0.  0.
470  4.69  0.  0.  0.
471  4.70  0.  0.  0.
472  4.71  0.  0.  0.
473  4.72  0.  0.  0.
474  4.73  0.  0.  0.
475  4.74  0.  0.  0.
476  4.75  0.  0.  0.
477  4.76  0.  0.  0.
478  4.77  0.  0.  0.
479  4.78  0.  0.  0.
480  4.79  0.  0.  0.
481  4.80  0.  0.  0.
482  4.81  0.  0.  0.
483  4.82  0.  0.  0.
484  4.83  0.  0.  0.
485  4.84  0.  0.  0.
486  4.85  0.  0.  0.
487  4.86  0.  0.  0.
488  4.87  0.  0.  0.
489  4.88  0.  0.  0.
490  4.89  0.  0.  0.
491  4.90  0.  0.  0.
492  4.91  0.  0.  0.
493  4.92  0.  0.  0.
494  4.93  0.  0.  0.
495  4.94  0.  0.  0.
496  4.95  0.  0.  0.
497  4.96  0.  0.  0.
498  4.97  0.  0.  0.
499  4.98  0.  0.  0.
500  4.99  0.  0.  0.
501  5.00  0.  0.  0.
502  5.01  0.  0.  0.
503  5.02  0.  0.  0.
504  5.03  0.  0.  0.
505  5.04  0.  0.  0.
506  5.05  0.  0.  0.
507  5.06  0.  0.  0.
508  5.07  0.  0.  0.
509  5.08  0.  0.  0.
510  5.09  0.  0.  0.
511  5.10  0.  0.  0.
512  5.11  0.  0.  0.
513  5.12  0.  0.  0.
514  5.13  0.  0.  0.
515  5.14  0.  0.  0.
516  5.15  0.  0.  0.
517  5.16  0.  0.  0.
518  5.17  0.  0.  0.
519  5.18  0.  0.  0.
520  5.19  0.  0.  0.
521  5.20  0.  0.  0.
522  5.21  0.  0.  0.
523  5.22  0.  0.  0.
524  5.23  0.  0.  0.
525  5.24  0.  0.  0.
526  5.25  0.  0.  0.
527  5.26  0.  0.  0.
528  5.27  0.  0.  0.
529  5.28  0.  0.  0.
530  5.29  0.  0.  0.
531  5.30  0.  0.  0.
532  5.31  0.  0.  0.
533  5.32  0.  0.  0.
534  5.33  0.  0.  0.
535  5.34  0.  0.  0.
536  5.35  0.  0.  0.
537  5.36  0.  0.  0.
538  5.37  0.  0.  0.
539  5.38  0.  0.  0.
540  5.39  0.  0.  0.
541  5.40  0.  0.  0.
542  5.41  0.  0.  0.
543  5.42  0.  0.  0.
544  5.43  0.  0.  0.
545  5.44  0.  0.  0.
546  5.45  0.  0.  0.
547  5.46  0.  0.  0.
548  5.47  0.  0.  0.
549  5.48  0.  0.  0.
550  5.49  0.  0.  0.
551  5.50  0.  0.  0.
552  5.51  0.  0.  0.
553  5.52  0.  0.  0.
554  5.53  0.  0.  0.
555  5.54  0.  0.  0.
556  5.55  0.  0.  0.
557  5.56  0.  0.  0.
558  5.57  0.  0.  0.
559  5.58  0.  0.  0.
560  5.59  0.  0.  0.
561  5.60  0.  0.  0.
562  5.61  0.  0.  0.
563  5.62  0.  0.  0.
564  5.63  0.  0.  0.
565  5.64  0.  0.  0.
566  5.65  0.  0.  0.
567  5.66  0.  0.  0.
568  5.67  0.  0.  0.
569  5.68  0.  0.  0.
570  5.69  0.  0.  0.
571  5.70  0.  0.  0.
572  5.71  0.  0.  0.
573  5.72  0.  0.  0.
574  5.73  0.  0.  0.
575  5.74  0.  0.  0.
576  5.75  0.  0.  0.
577  5.76  0.  0.  0.
578  5.77  0.  0.  0.
579  5.78  0.  0.  0.
580  5.79  0.  0.  0.
581  5.80  0.  0.  0.
582  5.81  0.  0.  0.
583  5.82  0.  0.  0.
584  5.83  0.  0.  0.
585  5.84  0.  0.  0.
586  5.85  0.  0.  0.
587  5.86  0.  0.  0.
588  5.87  0.  0.  0.
589  5.88  0.  0.  0.
590  5.89  0.  0.  0.
591  5.90  0.  0.  0.
592  5.91  0.  0.  0.
593  5.92  0.  0.  0.
594  5.93  0.  0.  0.
595  5.94  0.  0.  0.
596  5.95  0.  0.  0.
597  5.96  0.  0.  0.
598  5.97  0.  0.  0.
599  5.98  0.  0.  0.
600  5.99  0.  0.  0.
1                        -1.5278818074386E+01 -1.5437823529523E+00
1  0.0000000000000E+00  5.3961359824939E-09 -1.5477320758350E-08
2  1.0000000000000E-02  3.3002729337482E-03 -2.6499285317973E-03
3  2.0000000000000E-02  1.3174848984697E-02 -1.0568179884949E-02
4  3.0000000000000E-02  2.9545252175132E-02 -2.3660586839741E-02
5  4.0000000000000E-02  5.2281527014912E-02 -4.1771644938431E-02
6  5.0000000000000E-02  8.1203484397108E-02 -6.4686636512568E-02
7  6.0000000000000E-02  1.1608242441225E-01 -9.2134531077395E-02
8  7.0000000000000E-02  1.5664331507389E-01 -1.2379159211754E-01
9  8.0000000000000E-02  2.0256740055203E-01 -1.5928560481085E-01
10  9.0000000000000E-02  2.5349520754948E-01 -1.9820062688615E-01
11  1.0000000000000E-01  3.0902991400440E-01 -2.4008215600378E-01
12  1.1000000000000E-01  3.6874104042381E-01 -2.8444260205793E-01
13  1.2000000000000E-01  4.3216842089796E-01 -3.3076695173888E-01
14  1.3000000000000E-01  4.9882640825105E-01 -3.7851851551501E-01
15  1.4000000000000E-01  5.6820826587213E-01 -4.2714465368794E-01
16  1.5000000000000E-01  6.3979069754939E-01 -4.7608238798375E-01
17  1.6000000000000E-01  7.1303846609593E-01 -5.2476381777327E-01
18  1.7000000000000E-01  7.8740905168631E-01 -5.7262127486149E-01
19  1.8000000000000E-01  8.6235730159105E-01 -6.1909216715432E-01
20  1.9000000000000E-01  9.3734002435881E-01 -6.6362347865294E-01
21  2.0000000000000E-01  1.0118204834033E+00 -7.0567591036472E-01
22  2.1000000000000E-01  1.0852727473480E+00 -7.4472766309013E-01
23  2.2000000000000E-01  1.1571858573027E+00 -7.8027787792104E-01
24  2.3000000000000E-01  1.2270677744273E+00 -8.1184976301636E-01
25  2.4000000000000E-01  1.2944490746149E+00 -8.3899344525277E-01
26  2.5000000000000E-01  1.3588863608269E+00 -8.6128859225559E-01
27  2.6000000000000E-01  1.4199653674787E+00 -8.7834685381305E-01
28  2.7000000000000E-01  1.4773037352450E+00 -8.8981417163773E-01
29  2.8000000000000E-01  1.5305534386635E+00 -8.9537300289613E-01
30  2.9000000000000E-01  1.5794028529283E+00 -8.9474449607393E-01
31  3.0000000000000E-01  1.6235784502255E+00 -8.8769064792820E-01
32  3.1000000000000E-01  1.6628461198325E+00 -8.7401645798481E-01
33  3.2000000000000E-01  1.6970121099628E+00 -8.5357208287248E-01
34  3.3000000000000E-01  1.7259235929414E+00 -8.2625497744289E-01
35  3.4000000000000E-01  1.7494688587453E+00 -7.9201199387106E-01
36  3.5000000000000E-01  1.7675771452037E+00 -7.5084139455320E-01
37  3.6000000000000E-01  1.7802181162264E+00 -7.0279472041372E-01
38  3.7000000000000E-01  1.7874010023032E+00 -6.4797844395322E-01
39  3.8000000000000E-01  1.7891734201793E+00 -5.8655532670259E-01
40  3.9000000000000E-01  1.7856198910748E+00 -5.1874539428237E-01
41  4.0000000000000E-01  1.7768600790540E+00 -4.4482643946529E-01
42  4.1000000000000E-01  1.7630467731758E+00 -3.6513396482067E-01
43  4.2000000000000E-01  1.7443636388554E+00 -2.8006048183691E-01
44  4.3000000000000E-01  1.7210227654346E+00 -1.9005409285839E-01
45  4.4000000000000E-01  1.6932620382862E+00 -9.5616295547011E-02
46  4.5000000000000E-01  1.6613423648551E+00  2.7010334693284E-03
47  4.6000000000000E-01  1.6255447848575E+00  1.0429949908249E-01
48  4.7000000000000E-01  1.5861674954001E+00  2.0853889321391E-01
49  4.8000000000000E-01  1.5435228220414E+00  3.1474272215950E-01
50  4.9000000000000E-01  1.4979341667774E+00  4.2220450770527E-01
51  5.0000000000000E-01  1.4497329635819E+00  5.3019478918313E-01
52  5.1000000000000E-01  1.3992556714720E+00  6.3796872990502E-01
53  5.2000000000000E-01  1.3468408340780E+00  7.4477420962309E-01
54  5.3000000000000E-01  1.2928262333906E+00  8.4986026567128E-01
55  5.4000000000000E-01  1.2375461637287E+00  9.5248573001723E-01
56  5.5000000000000E-01  1.1813288500385E+00  1.0519278982445E+00
57  5.6000000000000E-01  1.1244940324052E+00  1.1474910600016E+00
58  5.7000000000000E-01  1.0673507361638E+00  1.2385147190394E+00
59  5.8000000000000E-01  1.0101952442641E+00  1.3243813347699E+00
60  5.9000000000000E-01  9.5330928560568E-01  1.4045234262956E+00
61  6.0000000000000E-01  8.9695844996781E-01  1.4784298938573E+00
62  6.1000000000000E-01  8.4139083695352E-01  1.5456514312249E+00
63  6.2000000000000E-01  7.8683594310461E-01  1.6058049251465E+00
64  6.3000000000000E-01  7.3350378808275E-01  1.6585767638377E+00
65  6.4000000000000E-01  6.8158427760670E-01  1.7037250047941E+00
66  6.5000000000000E-01  6.3124679774781E-01  1.7410803819946E+00
67  6.6000000000000E-01  5.8264003227326E-01  1.7705461628241E+00
68  6.7000000000000E-01  5.3589199204406E-01  1.7920968947508E+00
69  6.8000000000000E-01  4.9111024307368E-01  1.8057761099314E+00
70  6.9000000000000E-01  4.4838231777788E-01  1.8116930815176E+00
71  7.0000000000000E-01  4.0777629223506E-01  1.8100187476320E+00
72  7.1000000000000E-01  3.6934151095684E-01  1.8009809370160E+00
73  7.2000000000000E-01  3.3310943976072E-01  1.7848590436234E+00
74  7.3000000000000E-01  2.9909462684798E-01  1.7619783055220E+00
75  7.4000000000000E-01  2.6729575211864E-01  1.7327038461342E+00
76  7.5000000000000E-01  2.3769674508751E-01  1.6974346330660E+00
77  7.6000000000000E-01  2.1026795247724E-01  1.6565975017148E+00
78  7.7000000000000E-01  1.8496733762069E-01  1.6106413778834E+00
79  7.8000000000000E-01  1.6174169516401E-01  1.5600318163116E+00
80  7.9000000000000E-01  1.4052786617071E-01  1.5052459510997E+00
81  8.0000000000000E-01  1.2125394052965E-01  1.4467679302861E+00
82  8.1000000000000E-01  1.0384043550343E-01  1.3850848813348E+00
83  8.2000000000000E-01  8.8201441254909E-02  1.3206834280118E+00
84  8.3000000000000E-01  7.4245726193003E-02  1.2540467531506E+00
85  8.4000000000000E-01  6.1877796921915E-02  1.1856521771795E+00
86  8.5000000000000E-01  5.0998909402104E-02  1.1159692000027E+00
87  8.6000000000000E-01  4.1508029582231E-02  1.0454579348059E+00
88  8.7000000000000E-01  3.3302743194287E-02  9.7456784736618E-01
89  8.8000000000000E-01  2.6280115581811E-02  9.0373670410852E-01
90  8.9000000000000E-01  2.0337503327334E-02  8.3338962689691E-01
91  9.0000000000000E-01  1.5373320044538E-02  7.6393815260574E-01
92  9.1000000000000E-01  1.1287758999050E-02  6.9577920089666E-01
93  9.2000000000000E-01  7.9834752271950E-03  6.2929386412548E-01
94  9.3000000000000E-01  5.3662295530501E-03  5.6484594850569E-01
95  9.4000000000000E-01  3.3454963898662E-03  5.0278021494709E-01
96  9.5000000000000E-01  1.8350364908247E-03  4.4342029058350E-01
97  9.6000000000000E-01  7.5343493159917E-04  3.8706624697677E-01
98  9.7000000000000E-01  2.4603615697745E-05  3.3399186728429E-01
99  9.8000000000000E-01 -4.2175345280292E-04  2.8444165122190E-01
100  9.9000000000000E-01 -6.4971492777490E-04  2.3862763228986E-01
101  1.0000000000000E+00 -7.1676069441133E-04  1.9672610536886E-01
102  1.0100000000000E+00 -6.7343891400498E-04  1.5887438337863E-01
103  1.0200000000000E+00 -5.6308691112324E-04  1.2516771832277E-01
104  1.0300000000000E+00 -4.2161161777344E-04  9.5656552610599E-02
105  1.0400000000000E+00 -2.7733699728212E-04  7.0344102058988E-02
106  1.0500000000000E+00 -1.5092567654762E-04  4.9183274576323E-02
107  1.0600000000000E+00 -5.6344779312276E-05  3.2012090112197E-02
108  1.0700000000000E+00 -1.3697238385633E-07  1.8701653142339E-02
109  1.0800000000000E+00  2.0245220486706E-05  9.1266252145662E-03
110  1.0900000000000E+00  1.5273491284754E-05  3.0799883640213E-03
111  1.1000000000000E+00  2.5240862503772E-06  3.0308037121246E-04
112  1.1100000000000E+00 -1.1193867772303E-07 -1.0454585907685E-05
113  1.1200000000000E+00 -1.1063945548514E-08 -1.4739979288251E-06
114  1.13 -0. -0.
115  1.14  0.  0.
116  1.15  0.  0.
117  1.16  0.  0.
118  1.17  0.  0.
119  1.18  0.  0.
120  1.19  0.  0.
121  1.20  0.  0.
122  1.21  0.  0.
123  1.22  0.  0.
124  1.23  0.  0.
125  1.24  0.  0.
126  1.25  0.  0.
127  1.26  0.  0.
128  1.27  0.  0.
129  1.28  0.  0.
130  1.29  0.  0.
131  1.30  0.  0.
132  1.31  0.  0.
133  1.32  0.  0.
134  1.33  0.  0.
135  1.34  0.  0.
136  1.35  0.  0.
137  1.36  0.  0.
138  1.37  0.  0.
139  1.38  0.  0.
140  1.39  0.  0.
141  1.40  0.  0.
142  1.41  0.  0.
143  1.42  0.  0.
144  1.43  0.  0.
145  1.44  0.  0.
146  1.45  0.  0.
147  1.46  0.  0.
148  1.47  0.  0.
149  1.48  0.  0.
150  1.49  0.  0.
151  1.50  0.  0.
152  1.51  0.  0.
153  1.52  0.  0.
154  1.53  0.  0.
155  1.54  0.  0.
156  1.55  0.  0.
157  1.56  0.  0.
158  1.57  0.  0.
159  1.58  0.  0.
160  1.59  0.  0.
161  1.60  0.  0.
162  1.61  0.  0.
163  1.62  0.  0.
164  1.63  0.  0.
165  1.64  0.  0.
166  1.65  0.  0.
167  1.66  0.  0.
168  1.67  0.  0.
169  1.68  0.  0.
170  1.69  0.  0.
171  1.70  0.  0.
172  1.71  0.  0.
173  1.72  0.  0.
174  1.73  0.  0.
175  1.74  0.  0.
176  1.75  0.  0.
177  1.76  0.  0.
178  1.77  0.  0.
179  1.78  0.  0.
180  1.79  0.  0.
181  1.80  0.  0.
182  1.81  0.  0.
183  1.82  0.  0.
184  1.83  0.  0.
185  1.84  0.  0.
186  1.85  0.  0.
187  1.86  0.  0.
188  1.87  0.  0.
189  1.88  0.  0.
190  1.89  0.  0.
191  1.90  0.  0.
192  1.91  0.  0.
193  1.92  0.  0.
194  1.93  0.  0.
195  1.94  0.  0.
196  1.95  0.  0.
197  1.96  0.  0.