Cn    ONCVPSP-4.0.1  r_core=   1.10449   1.10449   1.10449   1.10449
112.0000     52.0000      230613    zatom,zion,pspd
8      11   3     4   600     0    pspcod,pspxc,lmax,lloc,mmax,r2well
5.99000000  5.00000000  0.00000000    rchrg fchrg qchrg
3     2     2     2     0    nproj
1     1           extension_switch
0                         2.5946757964892E+01 -7.3182204257018E+00  2.6520876348155E+00
1  0.0000000000000E+00 -5.8194360441632E-10  1.8438158777556E-09  2.0407839695924E-08
2  1.0000000000000E-02  2.1800333845704E-01  6.1968981655133E-02  5.9730862249116E-02
3  2.0000000000000E-02  4.3368440739554E-01  1.2381454712038E-01  1.1784262286247E-01
4  3.0000000000000E-02  6.4474735969359E-01  1.8541383681636E-01  1.7274153917843E-01
5  4.0000000000000E-02  8.4894893319387E-01  2.4664510699435E-01  2.2288437643847E-01
6  5.0000000000000E-02  1.0441240933611E+00  3.0738829364068E-01  2.6680313022884E-01
7  6.0000000000000E-02  1.2282108956060E+00  3.6752558209956E-01  3.0312909373301E-01
8  7.0000000000000E-02  1.3992743067442E+00  4.2694198196410E-01  3.3061602401120E-01
9  8.0000000000000E-02  1.5555287256397E+00  4.8552590494095E-01  3.4816214111490E-01
10  9.0000000000000E-02  1.6953589449261E+00  5.4316974130013E-01  3.5483067198280E-01
11  1.0000000000000E-01  1.8173392994564E+00  5.9977042830229E-01  3.4986862990484E-01
12  1.1000000000000E-01  1.9202507534961E+00  6.5523000178901E-01  3.3272350220762E-01
13  1.2000000000000E-01  2.0030956883433E+00  7.0945612006866E-01  3.0305750608241E-01
14  1.3000000000000E-01  2.0651101656879E+00  7.6236254747124E-01  2.6075906743427E-01
15  1.4000000000000E-01  2.1057734601821E+00  8.1386958361029E-01  2.0595118236326E-01
16  1.5000000000000E-01  2.1248146778391E+00  8.6390442359497E-01  1.3899633716028E-01
17  1.6000000000000E-01  2.1222163052887E+00  9.1240143427331E-01  6.0497691816119E-02
18  1.7000000000000E-01  2.0982145687066E+00  9.5930233212706E-01 -2.8703725184828E-02
19  1.8000000000000E-01  2.0532965202849E+00  1.0045562497160E+00 -1.2753600639742E-01
20  1.9000000000000E-01  1.9881938140813E+00  1.0481196795889E+00 -2.3470766486677E-01
21  2.0000000000000E-01  1.9038731814180E+00  1.0899562873083E+00 -3.4872328675144E-01
22  2.1000000000000E-01  1.8015236678949E+00  1.1300365886161E+00 -4.6790348746972E-01
23  2.2000000000000E-01  1.6825407485378E+00  1.1683374896910E+00 -5.9040902057413E-01
24  2.3000000000000E-01  1.5485074934378E+00  1.2048416938009E+00 -7.1426878204511E-01
25  2.4000000000000E-01  1.4011730121034E+00  1.2395369822748E+00 -8.3741134410331E-01
26  2.5000000000000E-01  1.2424284592166E+00  1.2724153824413E+00 -9.5769954557916E-01
27  2.6000000000000E-01  1.0742809360264E+00  1.3034722398238E+00 -1.0729675641427E+00
28  2.7000000000000E-01  8.9882566873495E-01  1.3327052162513E+00 -1.1810598030959E+00
29  2.8000000000000E-01  7.1821688644801E-01  1.3601132394665E+00 -1.2798708456550E+00
30  2.9000000000000E-01  5.3463785520903E-01  1.3856954330941E+00 -1.3673856661300E+00
31  3.0000000000000E-01  3.5027055009880E-01  1.4094500583369E+00 -1.4417192431179E+00
32  3.1000000000000E-01  1.6726546334161E-01  1.4313735003434E+00 -1.5011546972147E+00
33  3.2000000000000E-01 -1.2287947951441E-02  1.4514593327508E+00 -1.5441790765768E+00
34  3.3000000000000E-01 -1.8638967584994E-01  1.4696974933735E+00 -1.5695159389339E+00
35  3.4000000000000E-01 -3.5315595496179E-01  1.4860736023603E+00 -1.5761539285563E+00
36  3.5000000000000E-01 -5.1084397942090E-01  1.5005684513921E+00 -1.5633706205361E+00
37  3.6000000000000E-01 -6.5787412508676E-01  1.5131576886912E+00 -1.5307510010568E+00
38  3.7000000000000E-01 -7.9284930540049E-01  1.5238117198594E+00 -1.4782000687433E+00
39  3.8000000000000E-01 -9.1457114477742E-01  1.5324958389851E+00 -1.4059491756673E+00
40  3.9000000000000E-01 -1.0220527161124E+00  1.5391705982215E+00 -1.3145558733970E+00
41  4.0000000000000E-01 -1.1145276573991E+00  1.5437924173376E+00 -1.2048971854126E+00
42  4.1000000000000E-01 -1.1914555549143E+00  1.5463144277776E+00 -1.0781563876514E+00
43  4.2000000000000E-01 -1.2525235550716E+00  1.5466875387715E+00 -9.3580353911424E-01
44  4.3000000000000E-01 -1.2976442420212E+00  1.5448617062316E+00 -7.7957015950112E-01
45  4.4000000000000E-01 -1.3269498914923E+00  1.5407873787819E+00 -6.1141859607327E-01
46  4.5000000000000E-01 -1.3407832814072E+00  1.5344170894968E+00 -4.3350675296832E-01
47  4.6000000000000E-01 -1.3396853047622E+00  1.5257071569698E+00 -2.4814896910817E-01
48  4.7000000000000E-01 -1.3243796886207E+00  1.5146194553521E+00 -5.7773922335333E-02
49  4.8000000000000E-01 -1.2957551734978E+00  1.5011232101170E+00  1.3511949510071E-01
50  4.9000000000000E-01 -1.2548455488712E+00  1.4851967746165E+00  3.2800734287507E-01
51  5.0000000000000E-01 -1.2028079722440E+00  1.4668293420521E+00  5.1838583889188E-01
52  5.1000000000000E-01 -1.1409000206358E+00  1.4460225482788E+00  7.0381561542064E-01
53  5.2000000000000E-01 -1.0704559344040E+00  1.4227919228876E+00  8.8196407250232E-01
54  5.3000000000000E-01 -9.9286251400504E-01  1.3971681491709E+00  1.0506449378651E+00
55  5.4000000000000E-01 -9.0953512109610E-01  1.3691980977805E+00  1.2078542261995E+00
56  5.5000000000000E-01 -8.2189421688829E-01  1.3389456039839E+00  1.3518018930394E+00
57  5.6000000000000E-01 -7.3134284375795E-01  1.3064919642608E+00  1.4809385961393E+00
58  5.7000000000000E-01 -6.3924542184219E-01  1.2719361343636E+00  1.5939771062439E+00
59  5.8000000000000E-01 -5.4690819186079E-01  1.2353946177159E+00  1.6899080454357E+00
60  5.9000000000000E-01 -4.5556158997546E-01  1.1970010399299E+00  1.7680097706937E+00
61  6.0000000000000E-01 -3.6634479141328E-01  1.1569054121148E+00  1.8278523589215E+00
62  6.1000000000000E-01 -2.8029260812986E-01  1.1152730923275E+00  1.8692957837575E+00
63  6.2000000000000E-01 -1.9832487320220E-01  1.0722834608379E+00  1.8924825006468E+00
64  6.3000000000000E-01 -1.2123839207163E-01  1.0281283306917E+00  1.8978247720868E+00
65  6.4000000000000E-01 -4.9701489234394E-02  9.8301012025358E-01  1.8859871673871E+00
66  6.5000000000000E-01  1.5748870604996E-02  9.3713981891047E-01  1.8578647590916E+00
67  6.6000000000000E-01  7.4707454794129E-02  8.9073478085553E-01  1.8145576103601E+00
68  6.7000000000000E-01  1.2689873989646E-01  8.4401638483945E-01  1.7573422037338E+00
69  6.8000000000000E-01  1.7217264513282E-01  7.9720759995809E-01  1.6876405019939E+00
70  6.9000000000000E-01  2.1049820931763E-01  7.5053049897697E-01  1.6069873569184E+00
71  7.0000000000000E-01  2.4195543011615E-01  7.0420376141316E-01  1.5169969927571E+00
72  7.1000000000000E-01  2.6672551170402E-01  6.5844020866060E-01  1.4193292894822E+00
73  7.2000000000000E-01  2.8507978977112E-01  6.1344441292110E-01  1.3156565778630E+00
74  7.3000000000000E-01  2.9736762124396E-01  5.6941042065333E-01  1.2076316356188E+00
75  7.4000000000000E-01  3.0400354008232E-01  5.2651962973704E-01  1.0968575427412E+00
76  7.5000000000000E-01  3.0545398996713E-01  4.8493885761654E-01  9.8486001562158E-01
77  7.6000000000000E-01  3.0222394951192E-01  4.4481863536940E-01  8.7306279465808E-01
78  7.7000000000000E-01  2.9484376558418E-01  4.0629175995218E-01  7.6276660880668E-01
79  7.8000000000000E-01  2.8385650509607E-01  3.6947213379222E-01  6.5513218282768E-01
80  7.9000000000000E-01  2.6980612478277E-01  3.3445391738088E-01  5.5116768790911E-01
81  8.0000000000000E-01  2.5322674147221E-01  3.0131101651050E-01  4.5172096243783E-01
82  8.1000000000000E-01  2.3463326148947E-01  2.7009692118690E-01  3.5747674485272E-01
83  8.2000000000000E-01  2.1451359633871E-01  2.4084490791681E-01  2.6895906206004E-01
84  8.3000000000000E-01  1.9332265177860E-01  2.1356861086684E-01  1.8653880159652E-01
85  8.4000000000000E-01  1.7147822787763E-01  1.8826296014482E-01  1.1044635988896E-01
86  8.5000000000000E-01  1.4935890756452E-01  1.6490547697889E-01  4.0789098484463E-02
87  8.6000000000000E-01  1.2730393949399E-01  1.4345790565902E-01 -2.2426849383630E-02
88  8.7000000000000E-01  1.0561503662256E-01  1.2386815054915E-01 -7.9271102673667E-02
89  8.8000000000000E-01  8.4559913623892E-02  1.0607247305658E-01 -1.2986082914366E-01
90  8.9000000000000E-01  6.4377273073484E-02  8.9997887938840E-02 -1.7433106158025E-01
91  9.0000000000000E-01  4.5282821121507E-02  7.5564680518245E-02 -2.1280513297234E-01
92  9.1000000000000E-01  2.7475747133898E-02  6.2688946048896E-02 -2.4536723475304E-01
93  9.2000000000000E-01  1.1144937485959E-02  5.1285029427561E-02 -2.7203956394142E-01
94  9.3000000000000E-01 -3.5259895937778E-03  4.1267717461950E-02 -2.9276704782868E-01
95  9.4000000000000E-01 -1.6355944465451E-02  3.2554006810010E-02 -3.0741322293780E-01
96  9.5000000000000E-01 -2.7167262243413E-02  2.5064238294475E-02 -3.1577150228854E-01
97  9.6000000000000E-01 -3.5791821062626E-02  1.8722352387724E-02 -3.1759679548302E-01
98  9.7000000000000E-01 -4.2084237461814E-02  1.3454981084602E-02 -3.1266325327768E-01
99  9.8000000000000E-01 -4.5944286464610E-02  9.1890479185933E-03 -3.0085479655912E-01
100  9.9000000000000E-01 -4.7351014880164E-02  5.8474998893290E-03 -2.8229607541347E-01
101  1.0000000000000E+00 -4.6411228729347E-02  3.3427609365353E-03 -2.5753207873858E-01
102  1.0100000000000E+00 -4.3424111722125E-02  1.5676151642075E-03 -2.2776097886197E-01
103  1.0200000000000E+00 -3.8872756237632E-02  3.9561629156846E-04 -1.9479024203768E-01
104  1.0300000000000E+00 -3.3272429949275E-02 -2.9865336020373E-04 -1.6047266313517E-01
105  1.0400000000000E+00 -2.7117238322788E-02 -6.3190664355218E-04 -1.2652197923055E-01
106  1.0500000000000E+00 -2.0867378186257E-02 -7.1016399016254E-04 -9.4481687064348E-02
107  1.0600000000000E+00 -1.4848588240496E-02 -6.2561583442424E-04 -6.5468689478623E-02
108  1.0700000000000E+00 -9.4116337497042E-03 -4.5430330725003E-04 -4.0577707192561E-02
109  1.0800000000000E+00 -4.9511323408299E-03 -2.6137992614229E-04 -2.0943384633835E-02
110  1.0900000000000E+00 -1.7912284989979E-03 -1.0019752117165E-04 -7.4538945005017E-03
111  1.1000000000000E+00 -1.8823781798027E-04 -1.0893257137375E-05 -7.7205439053941E-04
112  1.1100000000000E+00  6.7873339221176E-06  4.0214503774470E-07  2.7598693980073E-05
113  1.1200000000000E+00  9.0398812244638E-07  5.2287169200086E-08  3.7199484008613E-06
114  1.13 -0. -0. -0.
115  1.14  0.  0.  0.
116  1.15  0.  0.  0.
117  1.16  0.  0.  0.
118  1.17  0.  0.  0.
119  1.18  0.  0.  0.
120  1.19  0.  0.  0.
121  1.20  0.  0.  0.
122  1.21  0.  0.  0.
123  1.22  0.  0.  0.
124  1.23  0.  0.  0.
125  1.24  0.  0.  0.
126  1.25  0.  0.  0.
127  1.26  0.  0.  0.
128  1.27  0.  0.  0.
129  1.28  0.  0.  0.
130  1.29  0.  0.  0.
131  1.30  0.  0.  0.
132  1.31  0.  0.  0.
133  1.32  0.  0.  0.
134  1.33  0.  0.  0.
135  1.34  0.  0.  0.
136  1.35  0.  0.  0.
137  1.36  0.  0.  0.
138  1.37  0.  0.  0.
139  1.38  0.  0.  0.
140  1.39  0.  0.  0.
141  1.40  0.  0.  0.
142  1.41  0.  0.  0.
143  1.42  0.  0.  0.
144  1.43  0.  0.  0.
145  1.44  0.  0.  0.
146  1.45  0.  0.  0.
147  1.46  0.  0.  0.
148  1.47  0.  0.  0.
149  1.48  0.  0.  0.
150  1.49  0.  0.  0.
151  1.50  0.  0.  0.
152  1.51  0.  0.  0.
153  1.52  0.  0.  0.
154  1.53  0.  0.  0.
155  1.54  0.  0.  0.
156  1.55  0.  0.  0.
157  1.56  0.  0.  0.
158  1.57  0.  0.  0.
159  1.58  0.  0.  0.
160  1.59  0.  0.  0.
161  1.60  0.  0.  0.
162  1.61  0.  0.  0.
163  1.62  0.  0.  0.
164  1.63  0.  0.  0.
165  1.64  0.  0.  0.
166  1.65  0.  0.  0.
167  1.66  0.  0.  0.
168  1.67  0.  0.  0.
169  1.68  0.  0.  0.
170  1.69  0.  0.  0.
171  1.70  0.  0.  0.
172  1.71  0.  0.  0.
173  1.72  0.  0.  0.
174  1.73  0.  0.  0.
175  1.74  0.  0.  0.
176  1.75  0.  0.  0.
177  1.76  0.  0.  0.
178  1.77  0.  0.  0.
179  1.78  0.  0.  0.
180  1.79  0.  0.  0.
181  1.80  0.  0.  0.
182  1.81  0.  0.  0.
183  1.82  0.  0.  0.
184  1.83  0.  0.  0.
185  1.84  0.  0.  0.
186  1.85  0.  0.  0.
187  1.86  0.  0.  0.
188  1.87  0.  0.  0.
189  1.88  0.  0.  0.
190  1.89  0.  0.  0.
191  1.90  0.  0.  0.
192  1.91  0.  0.  0.
193  1.92  0.  0.  0.
194  1.93  0.  0.  0.
195  1.94  0.  0.  0.
196  1.95  0.  0.  0.
197  1.96  0.  0.  0.
198  1.97  0.  0.  0.
199  1.98  0.  0.  0.
200  1.99  0.  0.  0.
201  2.00  0.  0.  0.
202  2.01  0.  0.  0.
203  2.02  0.  0.  0.
204  2.03  0.  0.  0.
205  2.04  0.  0.  0.
206  2.05  0.  0.  0.
207  2.06  0.  0.  0.
208  2.07  0.  0.  0.
209  2.08  0.  0.  0.
210  2.09  0.  0.  0.
211  2.10  0.  0.  0.
212  2.11  0.  0.  0.
213  2.12  0.  0.  0.
214  2.13  0.  0.  0.
215  2.14  0.  0.  0.
216  2.15  0.  0.  0.
217  2.16  0.  0.  0.
218  2.17  0.  0.  0.
219  2.18  0.  0.  0.
220  2.19  0.  0.  0.
221  2.20  0.  0.  0.
222  2.21  0.  0.  0.
223  2.22  0.  0.  0.
224  2.23  0.  0.  0.
225  2.24  0.  0.  0.
226  2.25  0.  0.  0.
227  2.26  0.  0.  0.
228  2.27  0.  0.  0.
229  2.28  0.  0.  0.
230  2.29  0.  0.  0.
231  2.30  0.  0.  0.
232  2.31  0.  0.  0.
233  2.32  0.  0.  0.
234  2.33  0.  0.  0.
235  2.34  0.  0.  0.
236  2.35  0.  0.  0.
237  2.36  0.  0.  0.
238  2.37  0.  0.  0.
239  2.38  0.  0.  0.
240  2.39  0.  0.  0.
241  2.40  0.  0.  0.
242  2.41  0.  0.  0.
243  2.42  0.  0.  0.
244  2.43  0.  0.  0.
245  2.44  0.  0.  0.
246  2.45  0.  0.  0.
247  2.46  0.  0.  0.
248  2.47  0.  0.  0.
249  2.48  0.  0.  0.
250  2.49  0.  0.  0.
251  2.50  0.  0.  0.
252  2.51  0.  0.  0.
253  2.52  0.  0.  0.
254  2.53  0.  0.  0.
255  2.54  0.  0.  0.
256  2.55  0.  0.  0.
257  2.56  0.  0.  0.
258  2.57  0.  0.  0.
259  2.58  0.  0.  0.
260  2.59  0.  0.  0.
261  2.60  0.  0.  0.
262  2.61  0.  0.  0.
263  2.62  0.  0.  0.
264  2.63  0.  0.  0.
265  2.64  0.  0.  0.
266  2.65  0.  0.  0.
267  2.66  0.  0.  0.
268  2.67  0.  0.  0.
269  2.68  0.  0.  0.
270  2.69  0.  0.  0.
271  2.70  0.  0.  0.
272  2.71  0.  0.  0.
273  2.72  0.  0.  0.
274  2.73  0.  0.  0.
275  2.74  0.  0.  0.
276  2.75  0.  0.  0.
277  2.76  0.  0.  0.
278  2.77  0.  0.  0.
279  2.78  0.  0.  0.
280  2.79  0.  0.  0.
281  2.80  0.  0.  0.
282  2.81  0.  0.  0.
283  2.82  0.  0.  0.
284  2.83  0.  0.  0.
285  2.84  0.  0.  0.
286  2.85  0.  0.  0.
287  2.86  0.  0.  0.
288  2.87  0.  0.  0.
289  2.88  0.  0.  0.
290  2.89  0.  0.  0.
291  2.90  0.  0.  0.
292  2.91  0.  0.  0.
293  2.92  0.  0.  0.
294  2.93  0.  0.  0.
295  2.94  0.  0.  0.
296  2.95  0.  0.  0.
297  2.96  0.  0.  0.
298  2.97  0.  0.  0.
299  2.98  0.  0.  0.
300  2.99  0.  0.  0.
301  3.00  0.  0.  0.
302  3.01  0.  0.  0.
303  3.02  0.  0.  0.
304  3.03  0.  0.  0.
305  3.04  0.  0.  0.
306  3.05  0.  0.  0.
307  3.06  0.  0.  0.
308  3.07  0.  0.  0.
309  3.08  0.  0.  0.
310  3.09  0.  0.  0.
311  3.10  0.  0.  0.
312  3.11  0.  0.  0.
313  3.12  0.  0.  0.
314  3.13  0.  0.  0.
315  3.14  0.  0.  0.
316  3.15  0.  0.  0.
317  3.16  0.  0.  0.
318  3.17  0.  0.  0.
319  3.18  0.  0.  0.
320  3.19  0.  0.  0.
321  3.20  0.  0.  0.
322  3.21  0.  0.  0.
323  3.22  0.  0.  0.
324  3.23  0.  0.  0.
325  3.24  0.  0.  0.
326  3.25  0.  0.  0.
327  3.26  0.  0.  0.
328  3.27  0.  0.  0.
329  3.28  0.  0.  0.
330  3.29  0.  0.  0.
331  3.30  0.  0.  0.
332  3.31  0.  0.  0.
333  3.32  0.  0.  0.
334  3.33  0.  0.  0.
335  3.34  0.  0.  0.
336  3.35  0.  0.  0.
337  3.36  0.  0.  0.
338  3.37  0.  0.  0.
339  3.38  0.  0.  0.
340  3.39  0.  0.  0.
341  3.40  0.  0.  0.
342  3.41  0.  0.  0.
343  3.42  0.  0.  0.
344  3.43  0.  0.  0.
345  3.44  0.  0.  0.
346  3.45  0.  0.  0.
347  3.46  0.  0.  0.
348  3.47  0.  0.  0.
349  3.48  0.  0.  0.
350  3.49  0.  0.  0.
351  3.50  0.  0.  0.
352  3.51  0.  0.  0.
353  3.52  0.  0.  0.
354  3.53  0.  0.  0.
355  3.54  0.  0.  0.
356  3.55  0.  0.  0.
357  3.56  0.  0.  0.
358  3.57  0.  0.  0.
359  3.58  0.  0.  0.
360  3.59  0.  0.  0.
361  3.60  0.  0.  0.
362  3.61  0.  0.  0.
363  3.62  0.  0.  0.
364  3.63  0.  0.  0.
365  3.64  0.  0.  0.
366  3.65  0.  0.  0.
367  3.66  0.  0.  0.
368  3.67  0.  0.  0.
369  3.68  0.  0.  0.
370  3.69  0.  0.  0.
371  3.70  0.  0.  0.
372  3.71  0.  0.  0.
373  3.72  0.  0.  0.
374  3.73  0.  0.  0.
375  3.74  0.  0.  0.
376  3.75  0.  0.  0.
377  3.76  0.  0.  0.
378  3.77  0.  0.  0.
379  3.78  0.  0.  0.
380  3.79  0.  0.  0.
381  3.80  0.  0.  0.
382  3.81  0.  0.  0.
383  3.82  0.  0.  0.
384  3.83  0.  0.  0.
385  3.84  0.  0.  0.
386  3.85  0.  0.  0.
387  3.86  0.  0.  0.
388  3.87  0.  0.  0.
389  3.88  0.  0.  0.
390  3.89  0.  0.  0.
391  3.90  0.  0.  0.
392  3.91  0.  0.  0.
393  3.92  0.  0.  0.
394  3.93  0.  0.  0.
395  3.94  0.  0.  0.
396  3.95  0.  0.  0.
397  3.96  0.  0.  0.
398  3.97  0.  0.  0.
399  3.98  0.  0.  0.
400  3.99  0.  0.  0.
401  4.00  0.  0.  0.
402  4.01  0.  0.  0.
403  4.02  0.  0.  0.
404  4.03  0.  0.  0.
405  4.04  0.  0.  0.
406  4.05  0.  0.  0.
407  4.06  0.  0.  0.
408  4.07  0.  0.  0.
409  4.08  0.  0.  0.
410  4.09  0.  0.  0.
411  4.10  0.  0.  0.
412  4.11  0.  0.  0.
413  4.12  0.  0.  0.
414  4.13  0.  0.  0.
415  4.14  0.  0.  0.
416  4.15  0.  0.  0.
417  4.16  0.  0.  0.
418  4.17  0.  0.  0.
419  4.18  0.  0.  0.
420  4.19  0.  0.  0.
421  4.20  0.  0.  0.
422  4.21  0.  0.  0.
423  4.22  0.  0.  0.
424  4.23  0.  0.  0.
425  4.24  0.  0.  0.
426  4.25  0.  0.  0.
427  4.26  0.  0.  0.
428  4.27  0.  0.  0.
429  4.28  0.  0.  0.
430  4.29  0.  0.  0.
431  4.30  0.  0.  0.
432  4.31  0.  0.  0.
433  4.32  0.  0.  0.
434  4.33  0.  0.  0.
435  4.34  0.  0.  0.
436  4.35  0.  0.  0.
437  4.36  0.  0.  0.
438  4.37  0.  0.  0.
439  4.38  0.  0.  0.
440  4.39  0.  0.  0.
441  4.40  0.  0.  0.
442  4.41  0.  0.  0.
443  4.42  0.  0.  0.
444  4.43  0.  0.  0.
445  4.44  0.  0.  0.
446  4.45  0.  0.  0.
447  4.46  0.  0.  0.
448  4.47  0.  0.  0.
449  4.48  0.  0.  0.
450  4.49  0.  0.  0.
451  4.50  0.  0.  0.
452  4.51  0.  0.  0.
453  4.52  0.  0.  0.
454  4.53  0.  0.  0.
455  4.54  0.  0.  0.
456  4.55  0.  0.  0.
457  4.56  0.  0.  0.
458  4.57  0.  0.  0.
459  4.58  0.  0.  0.
460  4.59  0.  0.  0.
461  4.60  0.  0.  0.
462  4.61  0.  0.  0.
463  4.62  0.  0.  0.
464  4.63  0.  0.  0.
465  4.64  0.  0.  0.
466  4.65  0.  0.  0.
467  4.66  0.  0.  0.
468  4.67  0.  0.  0.
469  4.68  0.  0.  0.
470  4.69  0.  0.  0.
471  4.70  0.  0.  0.
472  4.71  0.  0.  0.
473  4.72  0.  0.  0.
474  4.73  0.  0.  0.
475  4.74  0.  0.  0.
476  4.75  0.  0.  0.
477  4.76  0.  0.  0.
478  4.77  0.  0.  0.
479  4.78  0.  0.  0.
480  4.79  0.  0.  0.
481  4.80  0.  0.  0.
482  4.81  0.  0.  0.
483  4.82  0.  0.  0.
484  4.83  0.  0.  0.
485  4.84  0.  0.  0.
486  4.85  0.  0.  0.
487  4.86  0.  0.  0.
488  4.87  0.  0.  0.
489  4.88  0.  0.  0.
490  4.89  0.  0.  0.
491  4.90  0.  0.  0.
492  4.91  0.  0.  0.
493  4.92  0.  0.  0.
494  4.93  0.  0.  0.
495  4.94  0.  0.  0.
496  4.95  0.  0.  0.
497  4.96  0.  0.  0.
498  4.97  0.  0.  0.
499  4.98  0.  0.  0.
500  4.99  0.  0.  0.
501  5.00  0.  0.  0.
502  5.01  0.  0.  0.
503  5.02  0.  0.  0.
504  5.03  0.  0.  0.
505  5.04  0.  0.  0.
506  5.05  0.  0.  0.
507  5.06  0.  0.  0.
508  5.07  0.  0.  0.
509  5.08  0.  0.  0.
510  5.09  0.  0.  0.
511  5.10  0.  0.  0.
512  5.11  0.  0.  0.
513  5.12  0.  0.  0.
514  5.13  0.  0.  0.
515  5.14  0.  0.  0.
516  5.15  0.  0.  0.
517  5.16  0.  0.  0.
518  5.17  0.  0.  0.
519  5.18  0.  0.  0.
520  5.19  0.  0.  0.
521  5.20  0.  0.  0.
522  5.21  0.  0.  0.
523  5.22  0.  0.  0.
524  5.23  0.  0.  0.
525  5.24  0.  0.  0.
526  5.25  0.  0.  0.
527  5.26  0.  0.  0.
528  5.27  0.  0.  0.
529  5.28  0.  0.  0.
530  5.29  0.  0.  0.
531  5.30  0.  0.  0.
532  5.31  0.  0.  0.
533  5.32  0.  0.  0.
534  5.33  0.  0.  0.
535  5.34  0.  0.  0.
536  5.35  0.  0.  0.
537  5.36  0.  0.  0.
538  5.37  0.  0.  0.
539  5.38  0.  0.  0.
540  5.39  0.  0.  0.
541  5.40  0.  0.  0.
542  5.41  0.  0.  0.
543  5.42  0.  0.  0.
544  5.43  0.  0.  0.
545  5.44  0.  0.  0.
546  5.45  0.  0.  0.
547  5.46  0.  0.  0.
548  5.47  0.  0.  0.
549  5.48  0.  0.  0.
550  5.49  0.  0.  0.
551  5.50  0.  0.  0.
552  5.51  0.  0.  0.
553  5.52  0.  0.  0.
554  5.53  0.  0.  0.
555  5.54  0.  0.  0.
556  5.55  0.  0.  0.
557  5.56  0.  0.  0.
558  5.57  0.  0.  0.
559  5.58  0.  0.  0.
560  5.59  0.  0.  0.
561  5.60  0.  0.  0.
562  5.61  0.  0.  0.
563  5.62  0.  0.  0.
564  5.63  0.  0.  0.
565  5.64  0.  0.  0.
566  5.65  0.  0.  0.
567  5.66  0.  0.  0.
568  5.67  0.  0.  0.
569  5.68  0.  0.  0.
570  5.69  0.  0.  0.
571  5.70  0.  0.  0.
572  5.71  0.  0.  0.
573  5.72  0.  0.  0.
574  5.73  0.  0.  0.
575  5.74  0.  0.  0.
576  5.75  0.  0.  0.
577  5.76  0.  0.  0.
578  5.77  0.  0.  0.
579  5.78  0.  0.  0.
580  5.79  0.  0.  0.
581  5.80  0.  0.  0.
582  5.81  0.  0.  0.
583  5.82  0.  0.  0.
584  5.83  0.  0.  0.
585  5.84  0.  0.  0.
586  5.85  0.  0.  0.
587  5.86  0.  0.  0.
588  5.87  0.  0.  0.
589  5.88  0.  0.  0.
590  5.89  0.  0.  0.
591  5.90  0.  0.  0.
592  5.91  0.  0.  0.
593  5.92  0.  0.  0.
594  5.93  0.  0.  0.
595  5.94  0.  0.  0.
596  5.95  0.  0.  0.
597  5.96  0.  0.  0.
598  5.97  0.  0.  0.
599  5.98  0.  0.  0.
600  5.99  0.  0.  0.
1                         9.9111576233974E+00 -5.6920985709224E+00
1  0.0000000000000E+00  5.5253106034936E-08 -6.3507184372424E-09
2  1.0000000000000E-02  8.4105417326627E-03  1.2805091689687E-03
3  2.0000000000000E-02  3.3508384390759E-02  5.1254713148562E-03
4  3.0000000000000E-02  7.4894225092833E-02  1.1545012269199E-02
5  4.0000000000000E-02  1.3190934368336E-01  2.0555418517194E-02
6  5.0000000000000E-02  2.0364567113424E-01  3.2178265287932E-02
7  6.0000000000000E-02  2.8895966977069E-01  4.6439221515079E-02
8  7.0000000000000E-02  3.8648981350418E-01  6.3366556727631E-02
9  8.0000000000000E-02  4.9467740100180E-01  8.2989381281040E-02
10  9.0000000000000E-02  6.1179038333586E-01  1.0533565710311E-01
11  1.0000000000000E-01  7.3594984090962E-01  1.3043002119816E-01
12  1.1000000000000E-01  8.6515870305673E-01  1.5829146843190E-01
13  1.2000000000000E-01  9.9733226831666E-01  1.8893094352643E-01
14  1.3000000000000E-01  1.1303300545686E+00  2.2234889466545E-01
15  1.4000000000000E-01  1.2619884864571E+00  2.5853284259468E-01
16  1.5000000000000E-01  1.3901539132646E+00  2.9745501957282E-01
17  1.6000000000000E-01  1.5127154438727E+00  3.3907013197160E-01
18  1.7000000000000E-01  1.6276370869099E+00  3.8331329874707E-01
19  1.8000000000000E-01  1.7329886936658E+00  4.3009821543423E-01
20  1.9000000000000E-01  1.8269752188331E+00  4.7931558979749E-01
21  2.0000000000000E-01  1.9079638394464E+00  5.3083189086198E-01
22  2.1000000000000E-01  1.9745085052136E+00  5.8448844783318E-01
23  2.2000000000000E-01  2.0253715333863E+00  6.4010092947804E-01
24  2.3000000000000E-01  2.0595419078149E+00  6.9745922799555E-01
25  2.4000000000000E-01  2.0762499942417E+00  7.5632776436663E-01
26  2.5000000000000E-01  2.0749784414021E+00  8.1644622476877E-01
27  2.6000000000000E-01  2.0554690992561E+00  8.7753073000367E-01
28  2.7000000000000E-01  2.0177258506776E+00  9.3927543215522E-01
29  2.8000000000000E-01  1.9620133201275E+00  1.0013545250089E+00
30  2.9000000000000E-01  1.8888514911112E+00  1.0634246472641E+00
31  3.0000000000000E-01  1.7990063323990E+00  1.1251276503905E+00
32  3.1000000000000E-01  1.6934765998861E+00  1.1860936962548E+00
33  3.2000000000000E-01  1.5734770453796E+00  1.2459446434870E+00
34  3.3000000000000E-01  1.4404183243630E+00  1.3042976760942E+00
35  3.4000000000000E-01  1.2958839507542E+00  1.3607691231415E+00
36  3.5000000000000E-01  1.1416046967881E+00  1.4149784145155E+00
37  3.6000000000000E-01  9.7943087942801E-01  1.4665521149091E+00
38  3.7000000000000E-01  8.1130301028957E-01  1.5151279762898E+00
39  3.8000000000000E-01  6.3922131319179E-01  1.5603589482594E+00
40  3.9000000000000E-01  4.6521463156910E-01  1.6019170858981E+00
41  4.0000000000000E-01  2.9130925664764E-01  1.6394972959115E+00
42  4.1000000000000E-01  1.1949820628286E-01  1.6728208641337E+00
43  4.2000000000000E-01 -4.8288526386012E-02  1.7016387106506E+00
44  4.3000000000000E-01 -2.1021225563957E-01  1.7257343229303E+00
45  4.4000000000000E-01 -3.6455194799920E-01  1.7449263223048E+00
46  4.5000000000000E-01 -5.0972819823459E-01  1.7590706248586E+00
47  4.6000000000000E-01 -6.4432445194942E-01  1.7680621641255E+00
48  4.7000000000000E-01 -7.6710514358998E-01  1.7718361498733E+00
49  4.8000000000000E-01 -8.7703047826391E-01  1.7703688445355E+00
50  4.9000000000000E-01 -9.7326765021682E-01  1.7636778464000E+00
51  5.0000000000000E-01 -1.0551983589059E+00  1.7518218763480E+00
52  5.1000000000000E-01 -1.1224225539643E+00  1.7349000726241E+00
53  5.2000000000000E-01 -1.1747584115429E+00  1.7130508056606E+00
54  5.3000000000000E-01 -1.2122386151033E+00  1.6864500322545E+00
55  5.4000000000000E-01 -1.2351030822731E+00  1.6553092152737E+00
56  5.5000000000000E-01 -1.2437883444739E+00  1.6198728414257E+00
57  5.6000000000000E-01 -1.2389138463643E+00  1.5804155753619E+00
58  5.7000000000000E-01 -1.2212654864867E+00  1.5372390934082E+00
59  5.8000000000000E-01 -1.1917767677867E+00  1.4906686444314E+00
60  5.9000000000000E-01 -1.1515079659522E+00  1.4410493887124E+00
61  6.0000000000000E-01 -1.1016237540523E+00  1.3887425681410E+00
62  6.1000000000000E-01 -1.0433697431870E+00  1.3341215625635E+00
63  6.2000000000000E-01 -9.7804841045182E-01  1.2775678876727E+00
64  6.3000000000000E-01 -9.0699488733921E-01  1.2194671894537E+00
65  6.4000000000000E-01 -8.3155307384860E-01  1.1602052889087E+00
66  6.5000000000000E-01 -7.5305252634666E-01  1.1001643286217E+00
67  6.6000000000000E-01 -6.7278654113946E-01  1.0397190697540E+00
68  6.7000000000000E-01 -5.9199182147568E-01  9.7923338435814E-01
69  6.8000000000000E-01 -5.1183007417624E-01  9.1905698355013E-01
70  6.9000000000000E-01 -4.3337183429959E-01  8.5952241718605E-01
71  7.0000000000000E-01 -3.5758276333848E-01  8.0094237536606E-01
72  7.1000000000000E-01 -2.8531260964025E-01  7.4360731644478E-01
73  7.2000000000000E-01 -2.1728696032214E-01  6.8778344038970E-01
74  7.3000000000000E-01 -1.5410185323173E-01  6.3371102041998E-01
75  7.4000000000000E-01 -9.6221256769345E-02  5.8160309999860E-01
76  7.5000000000000E-01 -4.3977365891548E-02  5.3164455656193E-01
77  7.6000000000000E-01  2.4263944716741E-03  4.8399152796539E-01
78  7.7000000000000E-01  4.2909820967524E-02  4.3877119260741E-01
79  7.8000000000000E-01  7.7508049931969E-02  3.9608188966222E-01
80  7.9000000000000E-01  1.0636159768069E-01  3.5599356188818E-01
81  8.0000000000000E-01  1.2970461683531E-01  3.1854850015230E-01
82  8.1000000000000E-01  1.4785169456333E-01  2.8376236617865E-01
83  8.2000000000000E-01  1.6118354418246E-01  2.5162546812778E-01
84  8.3000000000000E-01  1.7013196065954E-01  2.2210426246976E-01
85  8.4000000000000E-01  1.7516442325770E-01  1.9514305523207E-01
86  8.5000000000000E-01  1.7676873527386E-01  1.7066587607756E-01
87  8.6000000000000E-01  1.7543809193825E-01  1.4857849977241E-01
88  8.7000000000000E-01  1.7165696374248E-01  1.2877059140341E-01
89  8.8000000000000E-01  1.6588817446661E-01  1.1111795414661E-01
90  8.9000000000000E-01  1.5856154183104E-01  9.5484861414978E-02
91  9.0000000000000E-01  1.5006443491773E-01  8.1726458752014E-02
92  9.1000000000000E-01  1.4073458724641E-01  6.9691224812943E-02
93  9.2000000000000E-01  1.3085548862350E-01  5.9223485106252E-02
94  9.3000000000000E-01  1.2065466357157E-01  5.0165976771198E-02
95  9.4000000000000E-01  1.1030513021757E-01  4.2362467459407E-02
96  9.5000000000000E-01  9.9930321837622E-02  3.5660436290493E-02
97  9.6000000000000E-01  8.9612744611205E-02  2.9913829787559E-02
98  9.7000000000000E-01  7.9406640215595E-02  2.4985910598194E-02
99  9.8000000000000E-01  6.9354921269385E-02  2.0752221612405E-02
100  9.9000000000000E-01  5.9510653677687E-02  1.7103692993597E-02
101  1.0000000000000E+00  4.9963297582701E-02  1.3949914828230E-02
102  1.0100000000000E+00  4.0869236880444E-02  1.1222512558394E-02
103  1.0200000000000E+00  3.2438474615059E-02  8.8725351791142E-03
104  1.0300000000000E+00  2.4850471415872E-02  6.8592583153082E-03
105  1.0400000000000E+00  1.8233058701979E-02  5.1478033085404E-03
106  1.0500000000000E+00  1.2664254532380E-02  3.7095211716664E-03
107  1.0600000000000E+00  8.1375149882595E-03  2.5096742154257E-03
108  1.0700000000000E+00  4.6536029117437E-03  1.5339961959857E-03
109  1.0800000000000E+00  2.2024425957718E-03  7.8830043925592E-04
110  1.0900000000000E+00  7.1301078280741E-04  2.8192666401039E-04
111  1.1000000000000E+00  6.6359675513976E-05  2.9622499293635E-05
112  1.1100000000000E+00 -2.1918381573594E-06 -1.0665065489094E-06
113  1.1200000000000E+00 -3.2684571276947E-07 -1.4174599386003E-07
114  1.13 -0. -0.
115  1.14  0.  0.
116  1.15  0.  0.
117  1.16  0.  0.
118  1.17  0.  0.
119  1.18  0.  0.
120  1.19  0.  0.
121  1.20  0.  0.
122  1.21  0.  0.
123  1.22  0.  0.
124  1.23  0.  0.
125  1.24  0.  0.
126  1.25  0.  0.
127  1.26  0.  0.
128  1.27  0.  0.
129  1.28  0.  0.
130  1.29  0.  0.
131  1.30  0.  0.
132  1.31  0.  0.
133  1.32  0.  0.
134  1.33  0.  0.
135  1.34  0.  0.
136  1.35  0.  0.
137  1.36  0.  0.
138  1.37  0.  0.
139  1.38  0.  0.
140  1.39  0.  0.
141  1.40  0.  0.
142  1.41  0.  0.
143  1.42  0.  0.
144  1.43  0.  0.
145  1.44  0.  0.
146  1.45  0.  0.
147  1.46  0.  0.
148  1.47  0.  0.
149  1.48  0.  0.
150  1.49  0.  0.
151  1.50  0.  0.
152  1.51  0.  0.
153  1.52  0.  0.
154  1.53  0.  0.
155  1.54  0.  0.
156  1.55  0.  0.
157  1.56  0.  0.
158  1.57  0.  0.
159  1.58  0.  0.
160  1.59  0.  0.
161  1.60  0.  0.
162  1.61  0.  0.
163  1.62  0.  0.
164  1.63  0.  0.
165  1.64  0.  0.
166  1.65  0.  0.
167  1.66  0.  0.
168  1.67  0.  0.
169  1.68  0.  0.
170  1.69  0.  0.
171  1.70  0.  0.
172  1.71  0.  0.
173  1.72  0.  0.
174  1.73  0.  0.
175  1.74  0.  0.
176  1.75  0.  0.
177  1.76  0.  0.
178  1.77  0.  0.
179  1.78  0.  0.
180  1.79  0.  0.
181  1.80  0.  0.
182  1.81  0.  0.
183  1.82  0.  0.
184  1.83  0.  0.
185  1.84  0.  0.
186  1.85  0.  0.
187  1.86  0.  0.
188  1.87  0.  0.
189  1.88  0.  0.
190  1.89  0.  0.
191  1.90  0.  0.
192  1.91  0.  0.
193  1.92  0.  0.
194  1.93  0.  0.
195  1.94  0.  0.
196  1.95  0.  0.
197  1.96  0.  0.