Cn    ONCVPSP-4.0.1  r_core=   1.10449   1.10449   1.10449   1.10449
112.0000     52.0000      220208    zatom,zion,pspd
8      11   3     4   600     0    pspcod,pspxc,lmax,lloc,mmax,r2well
5.99000000  5.00000000  0.00000000    rchrg fchrg qchrg
3     3     2     2    nproj
3     1           extension_switch
4     3     3    nprojso
0                        -1.8417473787633E+01  6.9718327759897E+00 -9.3930990246649E-01
1  0.0000000000000E+00 -2.8640064764218E-09  1.3239358076511E-07 -3.4311186447589E-08
2  1.0000000000000E-02  9.0060706793204E-02  1.6884311236284E-01 -1.4552593023829E-02
3  2.0000000000000E-02  1.7984139487957E-01  3.3616009583311E-01 -2.9239925900946E-02
4  3.0000000000000E-02  2.6906359031709E-01  5.0042999223793E-01 -4.4191985757527E-02
5  4.0000000000000E-02  3.5745188641991E-01  6.6014273412700E-01 -5.9529436548935E-02
6  5.0000000000000E-02  4.4473542251114E-01  8.1380592525718E-01 -7.5359403228206E-02
7  6.0000000000000E-02  5.3064929905107E-01  9.5995311864531E-01 -9.1771763515687E-02
8  7.0000000000000E-02  6.1493591152993E-01  1.0971539231446E+00 -1.0883607264100E-01
9  8.0000000000000E-02  6.9734618837792E-01  1.2240261371058E+00 -1.2659921211732E-01
10  9.0000000000000E-02  7.7764072146437E-01  1.3392499562431E+00 -1.4508381457778E-01
11  1.0000000000000E-01  8.5559078137509E-01  1.4415841406331E+00 -1.6428747520921E-01
12  1.1000000000000E-01  9.3097921340586E-01  1.5298838618039E+00 -1.8418271877079E-01
13  1.2000000000000E-01  1.0036012139149E+00  1.6031197942892E+00 -2.0471765201498E-01
14  1.3000000000000E-01  1.0732649901694E+00  1.6603978757360E+00 -2.2581719685346E-01
15  1.4000000000000E-01  1.1397923099398E+00  1.7009790438459E+00 -2.4738477189824E-01
16  1.5000000000000E-01  1.2030189497047E+00  1.7242981741265E+00 -2.6930427076436E-01
17  1.6000000000000E-01  1.2627950523120E+00  1.7299813951400E+00 -2.9144217597834E-01
18  1.7000000000000E-01  1.3189854062194E+00  1.7178609513426E+00 -3.1364964819270E-01
19  1.8000000000000E-01  1.3714696589628E+00  1.6879868193789E+00 -3.3576444176281E-01
20  1.9000000000000E-01  1.4201424772666E+00  1.6406343613553E+00 -3.5761251909507E-01
21  2.0000000000000E-01  1.4649136652481E+00  1.5763074155508E+00 -3.7900926643323E-01
22  2.1000000000000E-01  1.5057082505391E+00  1.4957363766048E+00 -3.9976025127623E-01
23  2.2000000000000E-01  1.5424665459631E+00  1.3998709969788E+00 -4.1966150432254E-01
24  2.3000000000000E-01  1.5751441917836E+00  1.2898678414285E+00 -4.3849935425771E-01
25  2.4000000000000E-01  1.6037121806377E+00  1.1670725372186E+00 -4.5604988916266E-01
26  2.5000000000000E-01  1.6281568642522E+00  1.0329971749935E+00 -4.7207816104664E-01
27  2.6000000000000E-01  1.6484799380739E+00  8.8929341850828E-01 -4.8633728729222E-01
28  2.7000000000000E-01  1.6646983972159E+00  7.3772206597943E-01 -4.9856763213740E-01
29  2.8000000000000E-01  1.6768444547691E+00  5.8011996253329E-01 -5.0849627056432E-01
30  2.9000000000000E-01  1.6849654117104E+00  4.1836528421181E-01 -5.1583694444480E-01
31  3.0000000000000E-01  1.6891234664594E+00  2.5434229290492E-01 -5.2029071542282E-01
32  3.1000000000000E-01  1.6893954516885E+00  8.9906694019092E-02 -5.2154750036615E-01
33  3.2000000000000E-01  1.6858724863147E+00 -7.3147287599701E-02 -5.1928864357298E-01
34  3.3000000000000E-01  1.6786595317137E+00 -2.3311706296756E-01 -5.1319063626651E-01
35  3.4000000000000E-01  1.6678748430616E+00 -3.8841812633206E-01 -5.0293003993075E-01
36  3.5000000000000E-01  1.6536493092618E+00 -5.3760600862568E-01 -4.8818960804111E-01
37  3.6000000000000E-01  1.6361256780461E+00 -6.7939313940425E-01 -4.6866553355361E-01
38  3.7000000000000E-01  1.6154576664223E+00 -8.1266023493619E-01 -4.4407568037508E-01
39  3.8000000000000E-01  1.5918089605041E+00 -9.3646206255176E-01 -4.1416858942813E-01
40  3.9000000000000E-01  1.5653521127368E+00 -1.0500276703701E+00 -3.7873298742482E-01
41  4.0000000000000E-01  1.5362673484334E+00 -1.1527554060536E+00 -3.3760747255180E-01
42  4.1000000000000E-01  1.5047412971702E+00 -1.2442032673512E+00 -2.9069000916576E-01
43  4.2000000000000E-01  1.4709656677874E+00 -1.3240753205549E+00 -2.3794683607687E-01
44  4.3000000000000E-01  1.4351358883364E+00 -1.3922050813829E+00 -1.7942038225297E-01
45  4.4000000000000E-01  1.3974497341716E+00 -1.4485368685649E+00 -1.1523579127823E-01
46  4.5000000000000E-01  1.3581059684017E+00 -1.4931062078014E+00 -4.5605682305365E-02
47  4.6000000000000E-01  1.3173030190265E+00 -1.5260203793136E+00  2.9167179671693E-02
48  4.7000000000000E-01  1.2752377162632E+00 -1.5474401648042E+00  1.0868956874635E-01
49  4.8000000000000E-01  1.2321041118246E+00 -1.5575637607297E+00  1.9248002453336E-01
50  4.9000000000000E-01  1.1880923993192E+00 -1.5566136882149E+00  2.7997371544191E-01
51  5.0000000000000E-01  1.1433879515836E+00 -1.5448273518871E+00  3.7052993392362E-01
52  5.1000000000000E-01  1.0981704867823E+00 -1.5224516886009E+00  4.6344211350137E-01
53  5.2000000000000E-01  1.0526133706693E+00 -1.4897421123394E+00  5.5795015142522E-01
54  5.3000000000000E-01  1.0068830577002E+00 -1.4469657146587E+00  6.5325471891548E-01
55  5.4000000000000E-01  9.6113866890166E-01 -1.3944084327368E+00  7.4853314784775E-01
56  5.5000000000000E-01  9.1553169977320E-01 -1.3323856614402E+00  8.4295640289451E-01
57  5.6000000000000E-01  8.7020584719783E-01 -1.2612555734809E+00  9.3570658561957E-01
58  5.7000000000000E-01  8.2529694058160E-01 -1.1814342334440E+00  1.0259943752540E+00
59  5.8000000000000E-01  7.8093295938481E-01 -1.0934114564856E+00  1.1130757924857E+00
60  5.9000000000000E-01  7.3723411699279E-01 -9.9776627822938E-01  1.1962676792458E+00
61  6.0000000000000E-01  6.9431298960213E-01 -8.9518087391421E-01  1.2749613197928E+00
62  6.1000000000000E-01  6.5227466852800E-01 -7.8645179474050E-01  1.3486336858855E+00
63  6.2000000000000E-01  6.1121691508558E-01 -6.7249747746435E-01  1.4168558698704E+00
64  6.3000000000000E-01  5.7123029893077E-01 -5.5436112670797E-01  1.4792983713850E+00
65  6.4000000000000E-01  5.3239830338606E-01 -4.3320826264016E-01  1.5357330223644E+00
66  6.5000000000000E-01  4.9479738470735E-01 -3.1031846163322E-01  1.5860314665638E+00
67  6.6000000000000E-01  4.5849697630955E-01 -1.8707108410391E-01  1.6301602485844E+00
68  6.7000000000000E-01  4.2355943347671E-01 -6.4925070198725E-02  1.6681727076662E+00
69  6.8000000000000E-01  3.9003991882508E-01  5.4606822696848E-02  1.7001980072870E+00
70  6.9000000000000E-01  3.5798623354372E-01  1.6998868005081E-01  1.7264277568969E+00
71  7.0000000000000E-01  3.2743860397915E-01  2.7969606097713E-01  1.7471007912297E+00
72  7.1000000000000E-01  2.9842943724070E-01  3.8225343974424E-01  1.7624867603843E+00
73  7.2000000000000E-01  2.7098306297835E-01  4.7627310983246E-01  1.7728692458857E+00
74  7.3000000000000E-01  2.4511548115097E-01  5.6049406903193E-01  1.7785291508029E+00
75  7.4000000000000E-01  2.2083413731852E-01  6.3381933316640E-01  1.7797291134953E+00
76  7.5000000000000E-01  1.9813774765908E-01  6.9535012251745E-01  1.7766996637379E+00
77  7.6000000000000E-01  1.7701619547834E-01  7.4441543090174E-01  1.7696277772673E+00
78  7.7000000000000E-01  1.5745051944395E-01  7.8059562149532E-01  1.7586483920347E+00
79  7.8000000000000E-01  1.3941301118821E-01  8.0373889171095E-01  1.7438393297931E+00
80  7.9000000000000E-01  1.2286743637832E-01  8.1396970447090E-01  1.7252199245404E+00
81  8.0000000000000E-01  1.0776938899723E-01  8.1168858516664E-01  1.7027535002709E+00
82  8.1000000000000E-01  9.4066783592690E-02  7.9756302018978E-01  1.6763536708626E+00
83  8.2000000000000E-01  8.1700484853011E-02  7.7250955004498E-01  1.6458942617716E+00
84  8.3000000000000E-01  7.0605068292220E-02  7.3766751242784E-01  1.6112224838743E+00
85  8.4000000000000E-01  6.0709700325015E-02  6.9436524233339E-01  1.5721748317052E+00
86  8.5000000000000E-01  5.1939120833998E-02  6.4407986151806E-01  1.5285950385967E+00
87  8.6000000000000E-01  4.4214706718535E-02  5.8839207353428E-01  1.4803533063701E+00
88  8.7000000000000E-01  3.7455591085797E-02  5.2893760968244E-01  1.4273659428749E+00
89  8.8000000000000E-01  3.1579809887716E-02  4.6735713432323E-01  1.3696144913356E+00
90  8.9000000000000E-01  2.6505446070067E-02  4.0524650648963E-01  1.3071634242185E+00
91  9.0000000000000E-01  2.2151740781122E-02  3.4410930317802E-01  1.2401755027792E+00
92  9.1000000000000E-01  1.8440141933575E-02  2.8531343607000E-01  1.1689239714909E+00
93  9.2000000000000E-01  1.5295262415615E-02  2.3005353926008E-01  1.0938008624557E+00
94  9.3000000000000E-01  1.2645723439173E-02  1.7932057597708E-01  1.0153208252580E+00
95  9.4000000000000E-01  1.0424862775608E-02  1.3387981580343E-01  9.3412006759685E-01
96  9.5000000000000E-01  8.5712927921937E-03  9.4257982130548E-02  8.5095018514847E-01
97  9.6000000000000E-01  7.0292990552693E-03  6.0739976730158E-02  7.6666686805792E-01
98  9.7000000000000E-01  5.7490765600188E-03  3.3375170804813E-02  6.8221368791789E-01
99  9.8000000000000E-01  4.6868071184775E-03  1.1992827026935E-02  5.9860138446648E-01
100  9.9000000000000E-01  3.8045878019293E-03 -3.7741965765326E-03  5.1688327647316E-01
101  1.0000000000000E+00  3.0702263167346E-03 -1.4458694728837E-02  4.3812760785681E-01
102  1.0100000000000E+00  2.4569245249088E-03 -2.0722887299302E-02  3.6338779982503E-01
103  1.0200000000000E+00  1.9428757715212E-03 -2.3318565792093E-02  2.9367170587193E-01
104  1.0300000000000E+00  1.5108072006831E-03 -2.3045694956368E-02  2.2991104974120E-01
105  1.0400000000000E+00  1.1474807844214E-03 -2.0711417754066E-02  1.7293229583582E-01
106  1.0500000000000E+00  8.4306609395754E-04 -1.7090261971627E-02  1.2343034504308E-01
107  1.0600000000000E+00  5.8275164982789E-04 -1.2781861611413E-02  8.1956250413935E-02
108  1.0700000000000E+00  3.6265608508974E-04 -8.3875633895246E-03  4.8875811604341E-02
109  1.0800000000000E+00  1.8918189376501E-04 -4.5203267685036E-03  2.4360442374094E-02
110  1.0900000000000E+00  6.8520249460183E-05 -1.6633798053557E-03  8.3997891200874E-03
111  1.1000000000000E+00  7.2838497723264E-06 -1.7710694817728E-04  8.4503242409136E-04
112  1.1100000000000E+00 -2.6327707959735E-07  6.4139064593947E-06 -2.9632305073491E-05
113  1.1200000000000E+00 -3.4668386610054E-08  8.4582967627167E-07 -4.0947332777116E-06
114  1.13  0.  0.  0.
115  1.14  0.  0.  0.
116  1.15  0.  0.  0.
117  1.16  0.  0.  0.
118  1.17  0.  0.  0.
119  1.18  0.  0.  0.
120  1.19  0.  0.  0.
121  1.20  0.  0.  0.
122  1.21  0.  0.  0.
123  1.22  0.  0.  0.
124  1.23  0.  0.  0.
125  1.24  0.  0.  0.
126  1.25  0.  0.  0.
127  1.26  0.  0.  0.
128  1.27  0.  0.  0.
129  1.28  0.  0.  0.
130  1.29  0.  0.  0.
131  1.30  0.  0.  0.
132  1.31  0.  0.  0.
133  1.32  0.  0.  0.
134  1.33  0.  0.  0.
135  1.34  0.  0.  0.
136  1.35  0.  0.  0.
137  1.36  0.  0.  0.
138  1.37  0.  0.  0.
139  1.38  0.  0.  0.
140  1.39  0.  0.  0.
141  1.40  0.  0.  0.
142  1.41  0.  0.  0.
143  1.42  0.  0.  0.
144  1.43  0.  0.  0.
145  1.44  0.  0.  0.
146  1.45  0.  0.  0.
147  1.46  0.  0.  0.
148  1.47  0.  0.  0.
149  1.48  0.  0.  0.
150  1.49  0.  0.  0.
151  1.50  0.  0.  0.
152  1.51  0.  0.  0.
153  1.52  0.  0.  0.
154  1.53  0.  0.  0.
155  1.54  0.  0.  0.
156  1.55  0.  0.  0.
157  1.56  0.  0.  0.
158  1.57  0.  0.  0.
159  1.58  0.  0.  0.
160  1.59  0.  0.  0.
161  1.60  0.  0.  0.
162  1.61  0.  0.  0.
163  1.62  0.  0.  0.
164  1.63  0.  0.  0.
165  1.64  0.  0.  0.
166  1.65  0.  0.  0.
167  1.66  0.  0.  0.
168  1.67  0.  0.  0.
169  1.68  0.  0.  0.
170  1.69  0.  0.  0.
171  1.70  0.  0.  0.
172  1.71  0.  0.  0.
173  1.72  0.  0.  0.
174  1.73  0.  0.  0.
175  1.74  0.  0.  0.
176  1.75  0.  0.  0.
177  1.76  0.  0.  0.
178  1.77  0.  0.  0.
179  1.78  0.  0.  0.
180  1.79  0.  0.  0.
181  1.80  0.  0.  0.
182  1.81  0.  0.  0.
183  1.82  0.  0.  0.
184  1.83  0.  0.  0.
185  1.84  0.  0.  0.
186  1.85  0.  0.  0.
187  1.86  0.  0.  0.
188  1.87  0.  0.  0.
189  1.88  0.  0.  0.
190  1.89  0.  0.  0.
191  1.90  0.  0.  0.
192  1.91  0.  0.  0.
193  1.92  0.  0.  0.
194  1.93  0.  0.  0.
195  1.94  0.  0.  0.
196  1.95  0.  0.  0.
197  1.96  0.  0.  0.
198  1.97  0.  0.  0.
199  1.98  0.  0.  0.
200  1.99  0.  0.  0.
201  2.00  0.  0.  0.
202  2.01  0.  0.  0.
203  2.02  0.  0.  0.
204  2.03  0.  0.  0.
205  2.04  0.  0.  0.
206  2.05  0.  0.  0.
207  2.06  0.  0.  0.
208  2.07  0.  0.  0.
209  2.08  0.  0.  0.
210  2.09  0.  0.  0.
211  2.10  0.  0.  0.
212  2.11  0.  0.  0.
213  2.12  0.  0.  0.
214  2.13  0.  0.  0.
215  2.14  0.  0.  0.
216  2.15  0.  0.  0.
217  2.16  0.  0.  0.
218  2.17  0.  0.  0.
219  2.18  0.  0.  0.
220  2.19  0.  0.  0.
221  2.20  0.  0.  0.
222  2.21  0.  0.  0.
223  2.22  0.  0.  0.
224  2.23  0.  0.  0.
225  2.24  0.  0.  0.
226  2.25  0.  0.  0.
227  2.26  0.  0.  0.
228  2.27  0.  0.  0.
229  2.28  0.  0.  0.
230  2.29  0.  0.  0.
231  2.30  0.  0.  0.
232  2.31  0.  0.  0.
233  2.32  0.  0.  0.
234  2.33  0.  0.  0.
235  2.34  0.  0.  0.
236  2.35  0.  0.  0.
237  2.36  0.  0.  0.
238  2.37  0.  0.  0.
239  2.38  0.  0.  0.
240  2.39  0.  0.  0.
241  2.40  0.  0.  0.
242  2.41  0.  0.  0.
243  2.42  0.  0.  0.
244  2.43  0.  0.  0.
245  2.44  0.  0.  0.
246  2.45  0.  0.  0.
247  2.46  0.  0.  0.
248  2.47  0.  0.  0.
249  2.48  0.  0.  0.
250  2.49  0.  0.  0.
251  2.50  0.  0.  0.
252  2.51  0.  0.  0.
253  2.52  0.  0.  0.
254  2.53  0.  0.  0.
255  2.54  0.  0.  0.
256  2.55  0.  0.  0.
257  2.56  0.  0.  0.
258  2.57  0.  0.  0.
259  2.58  0.  0.  0.
260  2.59  0.  0.  0.
261  2.60  0.  0.  0.
262  2.61  0.  0.  0.
263  2.62  0.  0.  0.
264  2.63  0.  0.  0.
265  2.64  0.  0.  0.
266  2.65  0.  0.  0.
267  2.66  0.  0.  0.
268  2.67  0.  0.  0.
269  2.68  0.  0.  0.
270  2.69  0.  0.  0.
271  2.70  0.  0.  0.
272  2.71  0.  0.  0.
273  2.72  0.  0.  0.
274  2.73  0.  0.  0.
275  2.74  0.  0.  0.
276  2.75  0.  0.  0.
277  2.76  0.  0.  0.
278  2.77  0.  0.  0.
279  2.78  0.  0.  0.
280  2.79  0.  0.  0.
281  2.80  0.  0.  0.
282  2.81  0.  0.  0.
283  2.82  0.  0.  0.
284  2.83  0.  0.  0.
285  2.84  0.  0.  0.
286  2.85  0.  0.  0.
287  2.86  0.  0.  0.
288  2.87  0.  0.  0.
289  2.88  0.  0.  0.
290  2.89  0.  0.  0.
291  2.90  0.  0.  0.
292  2.91  0.  0.  0.
293  2.92  0.  0.  0.
294  2.93  0.  0.  0.
295  2.94  0.  0.  0.
296  2.95  0.  0.  0.
297  2.96  0.  0.  0.
298  2.97  0.  0.  0.
299  2.98  0.  0.  0.
300  2.99  0.  0.  0.
301  3.00  0.  0.  0.
302  3.01  0.  0.  0.
303  3.02  0.  0.  0.
304  3.03  0.  0.  0.
305  3.04  0.  0.  0.
306  3.05  0.  0.  0.
307  3.06  0.  0.  0.
308  3.07  0.  0.  0.
309  3.08  0.  0.  0.
310  3.09  0.  0.  0.
311  3.10  0.  0.  0.
312  3.11  0.  0.  0.
313  3.12  0.  0.  0.
314  3.13  0.  0.  0.
315  3.14  0.  0.  0.
316  3.15  0.  0.  0.
317  3.16  0.  0.  0.
318  3.17  0.  0.  0.
319  3.18  0.  0.  0.
320  3.19  0.  0.  0.
321  3.20  0.  0.  0.
322  3.21  0.  0.  0.
323  3.22  0.  0.  0.
324  3.23  0.  0.  0.
325  3.24  0.  0.  0.
326  3.25  0.  0.  0.
327  3.26  0.  0.  0.
328  3.27  0.  0.  0.
329  3.28  0.  0.  0.
330  3.29  0.  0.  0.
331  3.30  0.  0.  0.
332  3.31  0.  0.  0.
333  3.32  0.  0.  0.
334  3.33  0.  0.  0.
335  3.34  0.  0.  0.
336  3.35  0.  0.  0.
337  3.36  0.  0.  0.
338  3.37  0.  0.  0.
339  3.38  0.  0.  0.
340  3.39  0.  0.  0.
341  3.40  0.  0.  0.
342  3.41  0.  0.  0.
343  3.42  0.  0.  0.
344  3.43  0.  0.  0.
345  3.44  0.  0.  0.
346  3.45  0.  0.  0.
347  3.46  0.  0.  0.
348  3.47  0.  0.  0.
349  3.48  0.  0.  0.
350  3.49  0.  0.  0.
351  3.50  0.  0.  0.
352  3.51  0.  0.  0.
353  3.52  0.  0.  0.
354  3.53  0.  0.  0.
355  3.54  0.  0.  0.
356  3.55  0.  0.  0.
357  3.56  0.  0.  0.
358  3.57  0.  0.  0.
359  3.58  0.  0.  0.
360  3.59  0.  0.  0.
361  3.60  0.  0.  0.
362  3.61  0.  0.  0.
363  3.62  0.  0.  0.
364  3.63  0.  0.  0.
365  3.64  0.  0.  0.
366  3.65  0.  0.  0.
367  3.66  0.  0.  0.
368  3.67  0.  0.  0.
369  3.68  0.  0.  0.
370  3.69  0.  0.  0.
371  3.70  0.  0.  0.
372  3.71  0.  0.  0.
373  3.72  0.  0.  0.
374  3.73  0.  0.  0.
375  3.74  0.  0.  0.
376  3.75  0.  0.  0.
377  3.76  0.  0.  0.
378  3.77  0.  0.  0.
379  3.78  0.  0.  0.
380  3.79  0.  0.  0.
381  3.80  0.  0.  0.
382  3.81  0.  0.  0.
383  3.82  0.  0.  0.
384  3.83  0.  0.  0.
385  3.84  0.  0.  0.
386  3.85  0.  0.  0.
387  3.86  0.  0.  0.
388  3.87  0.  0.  0.
389  3.88  0.  0.  0.
390  3.89  0.  0.  0.
391  3.90  0.  0.  0.
392  3.91  0.  0.  0.
393  3.92  0.  0.  0.
394  3.93  0.  0.  0.
395  3.94  0.  0.  0.
396  3.95  0.  0.  0.
397  3.96  0.  0.  0.
398  3.97  0.  0.  0.
399  3.98  0.  0.  0.
400  3.99  0.  0.  0.
401  4.00  0.  0.  0.
402  4.01  0.  0.  0.
403  4.02  0.  0.  0.
404  4.03  0.  0.  0.
405  4.04  0.  0.  0.
406  4.05  0.  0.  0.
407  4.06  0.  0.  0.
408  4.07  0.  0.  0.
409  4.08  0.  0.  0.
410  4.09  0.  0.  0.
411  4.10  0.  0.  0.
412  4.11  0.  0.  0.
413  4.12  0.  0.  0.
414  4.13  0.  0.  0.
415  4.14  0.  0.  0.
416  4.15  0.  0.  0.
417  4.16  0.  0.  0.
418  4.17  0.  0.  0.
419  4.18  0.  0.  0.
420  4.19  0.  0.  0.
421  4.20  0.  0.  0.
422  4.21  0.  0.  0.
423  4.22  0.  0.  0.
424  4.23  0.  0.  0.
425  4.24  0.  0.  0.
426  4.25  0.  0.  0.
427  4.26  0.  0.  0.
428  4.27  0.  0.  0.
429  4.28  0.  0.  0.
430  4.29  0.  0.  0.
431  4.30  0.  0.  0.
432  4.31  0.  0.  0.
433  4.32  0.  0.  0.
434  4.33  0.  0.  0.
435  4.34  0.  0.  0.
436  4.35  0.  0.  0.
437  4.36  0.  0.  0.
438  4.37  0.  0.  0.
439  4.38  0.  0.  0.
440  4.39  0.  0.  0.
441  4.40  0.  0.  0.
442  4.41  0.  0.  0.
443  4.42  0.  0.  0.
444  4.43  0.  0.  0.
445  4.44  0.  0.  0.
446  4.45  0.  0.  0.
447  4.46  0.  0.  0.
448  4.47  0.  0.  0.
449  4.48  0.  0.  0.
450  4.49  0.  0.  0.
451  4.50  0.  0.  0.
452  4.51  0.  0.  0.
453  4.52  0.  0.  0.
454  4.53  0.  0.  0.
455  4.54  0.  0.  0.
456  4.55  0.  0.  0.
457  4.56  0.  0.  0.
458  4.57  0.  0.  0.
459  4.58  0.  0.  0.
460  4.59  0.  0.  0.
461  4.60  0.  0.  0.
462  4.61  0.  0.  0.
463  4.62  0.  0.  0.
464  4.63  0.  0.  0.
465  4.64  0.  0.  0.
466  4.65  0.  0.  0.
467  4.66  0.  0.  0.
468  4.67  0.  0.  0.
469  4.68  0.  0.  0.
470  4.69  0.  0.  0.
471  4.70  0.  0.  0.
472  4.71  0.  0.  0.
473  4.72  0.  0.  0.
474  4.73  0.  0.  0.
475  4.74  0.  0.  0.
476  4.75  0.  0.  0.
477  4.76  0.  0.  0.
478  4.77  0.  0.  0.
479  4.78  0.  0.  0.
480  4.79  0.  0.  0.
481  4.80  0.  0.  0.
482  4.81  0.  0.  0.
483  4.82  0.  0.  0.
484  4.83  0.  0.  0.
485  4.84  0.  0.  0.
486  4.85  0.  0.  0.
487  4.86  0.  0.  0.
488  4.87  0.  0.  0.
489  4.88  0.  0.  0.
490  4.89  0.  0.  0.
491  4.90  0.  0.  0.
492  4.91  0.  0.  0.
493  4.92  0.  0.  0.
494  4.93  0.  0.  0.
495  4.94  0.  0.  0.
496  4.95  0.  0.  0.
497  4.96  0.  0.  0.
498  4.97  0.  0.  0.
499  4.98  0.  0.  0.
500  4.99  0.  0.  0.
501  5.00  0.  0.  0.
502  5.01  0.  0.  0.
503  5.02  0.  0.  0.
504  5.03  0.  0.  0.
505  5.04  0.  0.  0.
506  5.05  0.  0.  0.
507  5.06  0.  0.  0.
508  5.07  0.  0.  0.
509  5.08  0.  0.  0.
510  5.09  0.  0.  0.
511  5.10  0.  0.  0.
512  5.11  0.  0.  0.
513  5.12  0.  0.  0.
514  5.13  0.  0.  0.
515  5.14  0.  0.  0.
516  5.15  0.  0.  0.
517  5.16  0.  0.  0.
518  5.17  0.  0.  0.
519  5.18  0.  0.  0.
520  5.19  0.  0.  0.
521  5.20  0.  0.  0.
522  5.21  0.  0.  0.
523  5.22  0.  0.  0.
524  5.23  0.  0.  0.
525  5.24  0.  0.  0.
526  5.25  0.  0.  0.
527  5.26  0.  0.  0.
528  5.27  0.  0.  0.
529  5.28  0.  0.  0.
530  5.29  0.  0.  0.
531  5.30  0.  0.  0.
532  5.31  0.  0.  0.
533  5.32  0.  0.  0.
534  5.33  0.  0.  0.
535  5.34  0.  0.  0.
536  5.35  0.  0.  0.
537  5.36  0.  0.  0.
538  5.37  0.  0.  0.
539  5.38  0.  0.  0.
540  5.39  0.  0.  0.
541  5.40  0.  0.  0.
542  5.41  0.  0.  0.
543  5.42  0.  0.  0.
544  5.43  0.  0.  0.
545  5.44  0.  0.  0.
546  5.45  0.  0.  0.
547  5.46  0.  0.  0.
548  5.47  0.  0.  0.
549  5.48  0.  0.  0.
550  5.49  0.  0.  0.
551  5.50  0.  0.  0.
552  5.51  0.  0.  0.
553  5.52  0.  0.  0.
554  5.53  0.  0.  0.
555  5.54  0.  0.  0.
556  5.55  0.  0.  0.
557  5.56  0.  0.  0.
558  5.57  0.  0.  0.
559  5.58  0.  0.  0.
560  5.59  0.  0.  0.
561  5.60  0.  0.  0.
562  5.61  0.  0.  0.
563  5.62  0.  0.  0.
564  5.63  0.  0.  0.
565  5.64  0.  0.  0.
566  5.65  0.  0.  0.
567  5.66  0.  0.  0.
568  5.67  0.  0.  0.
569  5.68  0.  0.  0.
570  5.69  0.  0.  0.
571  5.70  0.  0.  0.
572  5.71  0.  0.  0.
573  5.72  0.  0.  0.
574  5.73  0.  0.  0.
575  5.74  0.  0.  0.
576  5.75  0.  0.  0.
577  5.76  0.  0.  0.
578  5.77  0.  0.  0.
579  5.78  0.  0.  0.
580  5.79  0.  0.  0.
581  5.80  0.  0.  0.
582  5.81  0.  0.  0.
583  5.82  0.  0.  0.
584  5.83  0.  0.  0.
585  5.84  0.  0.  0.
586  5.85  0.  0.  0.
587  5.86  0.  0.  0.
588  5.87  0.  0.  0.
589  5.88  0.  0.  0.
590  5.89  0.  0.  0.
591  5.90  0.  0.  0.
592  5.91  0.  0.  0.
593  5.92  0.  0.  0.
594  5.93  0.  0.  0.
595  5.94  0.  0.  0.
596  5.95  0.  0.  0.
597  5.96  0.  0.  0.
598  5.97  0.  0.  0.
599  5.98  0.  0.  0.
600  5.99  0.  0.  0.
1                        -1.5770408941621E+01 -2.7444334837293E+00 -7.0603788341133E-02
1  0.0000000000000E+00  2.1409862216437E-09  2.6253515444941E-08 -6.8351028692515E-07
2  1.0000000000000E-02  3.0405135045394E-03 -3.5407631842199E-03 -5.1442828003983E-03
3  2.0000000000000E-02  1.2140255887486E-02 -1.4128183078192E-02 -2.0316839479628E-02
4  3.0000000000000E-02  2.7233999897584E-02 -3.1657578980591E-02 -4.4748441909772E-02
5  4.0000000000000E-02  4.8213589628680E-02 -5.5954266280125E-02 -7.7195359693271E-02
6  5.0000000000000E-02  7.4928771424876E-02 -8.6773308155055E-02 -1.1599508226181E-01
7  6.0000000000000E-02  1.0718835036491E-01 -1.2379931735548E-01 -1.5914090209573E-01
8  7.0000000000000E-02  1.4476166541817E-01 -1.6664644758651E-01 -2.0437210888377E-01
9  8.0000000000000E-02  1.8738037422369E-01 -2.1485874026388E-01 -2.4927586093276E-01
10  9.0000000000000E-02  2.3474053619540E-01 -2.6791100933306E-01 -2.9139628595432E-01
11  1.0000000000000E-01  2.8650498029715E-01 -3.2521045327491E-01 -3.2834604077698E-01
12  1.1000000000000E-01  3.4230594136581E-01 -3.8609917870275E-01 -3.5791544265727E-01
13  1.2000000000000E-01  4.0174794630677E-01 -4.4985780394449E-01 -3.7817437900552E-01
14  1.3000000000000E-01  4.6441092887101E-01 -5.1571028409332E-01 -3.8756250380191E-01
15  1.4000000000000E-01  5.2985354908634E-01 -5.8283006211393E-01 -3.8496372518376E-01
16  1.5000000000000E-01  5.9761669080413E-01 -6.5034760510930E-01 -3.6976165872231E-01
17  1.6000000000000E-01  6.6722710829620E-01 -7.1735933261298E-01 -3.4187353639645E-01
18  1.7000000000000E-01  7.3820119045623E-01 -7.8293788695357E-01 -3.0176098756768E-01
19  1.8000000000000E-01  8.1004880899572E-01 -8.4614363678113E-01 -2.5041710591112E-01
20  1.9000000000000E-01  8.8227721514618E-01 -9.0603724634279E-01 -1.8933024267469E-01
21  2.0000000000000E-01  9.5439494785618E-01 -9.6169308768343E-01 -1.2042597789746E-01
22  2.1000000000000E-01  1.0259157153718E+00 -1.0122132231892E+00 -4.5989673922965E-02
23  2.2000000000000E-01  1.0963622114706E+00 -1.0567416441662E+00  3.1427131339220E-02
24  2.3000000000000E-01  1.1652698275366E+00 -1.0944784195376E+00  1.0911251733911E-01
25  2.4000000000000E-01  1.2321902221533E+00 -1.1246933889542E+00  1.8430763706685E-01
26  2.5000000000000E-01  1.2966947109880E+00 -1.1467390278758E+00  2.5432295664995E-01
27  2.6000000000000E-01  1.3583774414492E+00 -1.1600621192151E+00  3.1665224973977E-01
28  2.7000000000000E-01  1.4168583189181E+00 -1.1642138870809E+00  3.6907938477126E-01
29  2.8000000000000E-01  1.4717856542744E+00 -1.1588582825982E+00  4.0977322367261E-01
30  2.9000000000000E-01  1.5228385059008E+00 -1.1437781587219E+00  4.3736643408171E-01
31  3.0000000000000E-01  1.5697286933312E+00 -1.1188791288711E+00  4.5101468415999E-01
32  3.1000000000000E-01  1.6122024641130E+00 -1.0841909710981E+00  4.5043351238088E-01
33  3.2000000000000E-01  1.6500418002251E+00 -1.0398665129628E+00  4.3591111016362E-01
34  3.3000000000000E-01  1.6830653554199E+00 -9.8617800960583E-01  4.0829628352515E-01
35  3.4000000000000E-01  1.7111290200528E+00 -9.2351110579897E-01  3.6896192791273E-01
36  3.5000000000000E-01  1.7341261152090E+00 -8.5235654900672E-01  3.1974541299690E-01
37  3.6000000000000E-01  1.7519872231297E+00 -7.7329989178155E-01  2.6286828632212E-01
38  3.7000000000000E-01  1.7646796659700E+00 -6.8700948533867E-01  2.0083862301967E-01
39  3.8000000000000E-01  1.7722066496740E+00 -5.9422311940952E-01  1.3634013360127E-01
40  3.9000000000000E-01  1.7746060941377E+00 -4.9573370431804E-01  7.2112758788870E-02
41  4.0000000000000E-01  1.7719491747508E+00 -3.9237441799529E-01  1.0829901774652E-02
42  4.1000000000000E-01  1.7643386037854E+00 -2.8500375222039E-01 -4.5022345430057E-02
43  4.2000000000000E-01  1.7519066828721E+00 -1.7449088821258E-01 -9.3258644667380E-02
44  4.3000000000000E-01  1.7348131599145E+00 -6.1701811881356E-02 -1.3209543377773E-01
45  4.4000000000000E-01  1.7132429252221E+00  5.2513455732526E-02 -1.6023490565327E-01
46  4.5000000000000E-01  1.6874035823612E+00  1.6733218572871E-01 -1.7692799115201E-01
47  4.6000000000000E-01  1.6575229292496E+00  2.8196855949145E-01 -1.8201323917576E-01
48  4.7000000000000E-01  1.6238463843668E+00  3.9568138062212E-01 -1.7592947712723E-01
49  4.8000000000000E-01  1.5866343916640E+00  5.0777976012078E-01 -1.5970122887720E-01
50  4.9000000000000E-01  1.5461598358809E+00  6.1762673461835E-01 -1.3489702100326E-01
51  5.0000000000000E-01  1.5027054975892E+00  7.2464085843524E-01 -1.0356187417013E-01
52  5.1000000000000E-01  1.4565615744557E+00  8.2829588864897E-01 -6.8126406808222E-02
53  5.2000000000000E-01  1.4080232920408E+00  9.2811875507451E-01 -3.1296025295327E-02
54  5.3000000000000E-01  1.3573886240192E+00  1.0236860711898E+00  4.0754059064524E-03
55  5.4000000000000E-01  1.3049561381208E+00  1.1146194949976E+00  3.5122269190130E-02
56  5.5000000000000E-01  1.2510229804391E+00  1.2005802884555E+00  5.9108578633294E-02
57  5.6000000000000E-01  1.1958830071452E+00  1.2812634488071E+00  7.3568026446572E-02
58  5.7000000000000E-01  1.1398250691499E+00  1.3563917938741E+00  7.6436593745560E-02
59  5.8000000000000E-01  1.0831314519803E+00  1.4257103757194E+00  6.6171800655918E-02
60  5.9000000000000E-01  1.0260764701331E+00  1.4889815733377E+00  4.1853091567484E-02
61  6.0000000000000E-01  9.6892521250521E-01  1.5459811760652E+00  3.2585077452250E-03
62  6.1000000000000E-01  9.1193243323683E-01  1.5964957167770E+00 -4.9086331140769E-02
63  6.2000000000000E-01  8.5534158045289E-01  1.6403212497424E+00 -1.1388986424311E-01
64  6.3000000000000E-01  7.9938395399507E-01  1.6772636948332E+00 -1.8910858038621E-01
65  6.4000000000000E-01  7.4427798229022E-01  1.7071407905926E+00 -2.7199380818004E-01
66  6.5000000000000E-01  6.9022860800424E-01  1.7297856167312E+00 -3.5917041571320E-01
67  6.6000000000000E-01  6.3742677206035E-01  1.7450515653049E+00 -4.4674520163749E-01
68  6.7000000000000E-01  5.8604898592618E-01  1.7528185625733E+00 -5.3044149129835E-01
69  6.8000000000000E-01  5.3625698275378E-01  1.7530002735957E+00 -6.0575529580763E-01
70  6.9000000000000E-01  4.8819743894077E-01  1.7455519620549E+00 -6.6812739706557E-01
71  7.0000000000000E-01  4.4200175891174E-01  1.7304786312259E+00 -7.1312493052441E-01
72  7.1000000000000E-01  3.9778591733573E-01  1.7078430406110E+00 -7.3662548560209E-01
73  7.2000000000000E-01  3.5565035453376E-01  1.6777731781010E+00 -7.3499645768020E-01
74  7.3000000000000E-01  3.1567992242505E-01  1.6404687705305E+00 -7.0526238227388E-01
75  7.4000000000000E-01  2.7794387994788E-01  1.5962064363869E+00 -6.4525326693971E-01
76  7.5000000000000E-01  2.4249593841110E-01  1.5453431227190E+00 -5.5372750434713E-01
77  7.6000000000000E-01  2.0937435862792E-01  1.4883175227564E+00 -4.3046378386010E-01
78  7.7000000000000E-01  1.7860210290632E-01  1.4256492395340E+00 -2.7631749140936E-01
79  7.8000000000000E-01  1.5018704597580E-01  1.3579355414190E+00 -9.3238361081161E-02
80  7.9000000000000E-01  1.2412224968447E-01  1.2858456448669E+00  1.1575242949071E-01
81  8.0000000000000E-01  1.0038630677678E-01  1.2101125545762E+00  3.4662599694540E-01
82  8.1000000000000E-01  7.8943759242910E-02  1.1315225877915E+00  5.9444902508749E-01
83  8.2000000000000E-01  5.9745596607671E-02  1.0509028039813E+00  8.5352371604731E-01
84  8.3000000000000E-01  4.2729839099630E-02  9.6910664970994E-01  1.1175600817899E+00
85  8.4000000000000E-01  2.7822209918377E-02  8.8699820756487E-01  1.3798748939185E+00
86  8.5000000000000E-01  1.4936899815742E-02  8.0543550417435E-01  1.6336104574422E+00
87  8.6000000000000E-01  3.9774259483820E-03  7.2525338277774E-01  1.8719654623338E+00
88  8.7000000000000E-01 -5.1624145261274E-03  6.4724647817454E-01  2.0884295352861E+00
89  8.8000000000000E-01 -1.2597497315186E-02  5.7215284455017E-01  2.2770127929009E+00
90  8.9000000000000E-01 -1.8450233355445E-02  5.0063877876613E-01  2.4324617048409E+00
91  9.0000000000000E-01 -2.2849345653980E-02  4.3328535311659E-01  2.5504529170723E+00
92  9.1000000000000E-01 -2.5928567593124E-02  3.7057712302284E-01  2.6277573539834E+00
93  9.2000000000000E-01 -2.7825271714398E-02  3.1289340816717E-01  2.6623678940851E+00
94  9.3000000000000E-01 -2.8679039998843E-02  2.6050246244228E-01  2.6535851647680E+00
95  9.4000000000000E-01 -2.8630188589683E-02  2.1355875174588E-01  2.6020574838082E+00
96  9.5000000000000E-01 -2.7818261712961E-02  1.7210345259449E-01  2.5097726357654E+00
97  9.6000000000000E-01 -2.6380511198742E-02  1.3606817270009E-01  2.3800009493241E+00
98  9.7000000000000E-01 -2.4450379447500E-02  1.0528178131837E-01  2.2171909698382E+00
99  9.8000000000000E-01 -2.2156004885779E-02  7.9480126614679E-02  2.0268208316631E+00
100  9.9000000000000E-01 -1.9618769875766E-02  5.8318313892659E-02  1.8152101561212E+00
101  1.0000000000000E+00 -1.6951911655021E-02  4.1385126313071E-02  1.5892988668277E+00
102  1.0100000000000E+00 -1.4259217158657E-02  2.8219092449654E-02  1.3564006613349E+00