Ds    ONCVPSP-4.0.1  r_core=   1.10457   1.10457   1.10457   1.14493
110.0000     50.0000      231012    zatom,zion,pspd
8 -116133   3     4   600     0    pspcod,pspxc,lmax,lloc,mmax,r2well
5.99000000  3.80000000  0.00000000    rchrg fchrg qchrg
3     2     2     2     0    nproj
1     1           extension_switch
0                         1.3477048260353E+01 -1.1659482189066E+01  1.5909009531196E+00
1  0.0000000000000E+00  7.5361589857437E-08 -2.7404808422560E-09  1.3517635602533E-07
2  1.0000000000000E-02  1.6478896077580E-01  8.0626090784491E-02  2.5342274453499E-02
3  2.0000000000000E-02  3.2813387329008E-01  1.6102845739995E-01  5.0066350978931E-02
4  3.0000000000000E-02  4.8859944688706E-01  2.4098461615363E-01  7.3556196223934E-02
5  4.0000000000000E-02  6.4476815247753E-01  3.2027454410397E-01  9.5200613476243E-02
6  5.0000000000000E-02  7.9524969726784E-01  3.9868185970966E-01  1.1439689022491E-01
7  6.0000000000000E-02  9.3869115206769E-01  4.7599494594436E-01  1.3055581261595E-01
8  7.0000000000000E-02  1.0737878522181E+00  5.5200800014998E-01  1.4310832903436E-01
9  8.0000000000000E-02  1.1992951178202E+00  6.2652199764186E-01  1.5151400986799E-01
10  9.0000000000000E-02  1.3140407534530E+00  6.9934555924576E-01  1.5527129748428E-01
11  1.0000000000000E-01  1.4169381970640E+00  7.7029571638676E-01  1.5392937890426E-01
12  1.1000000000000E-01  1.5070000976734E+00  8.3919857089722E-01  1.4710135356691E-01
13  1.2000000000000E-01  1.5833520175355E+00  9.0588985019618E-01  1.3447822002318E-01
14  1.3000000000000E-01  1.6452458817720E+00  9.7021536174997E-01  1.1584307798981E-01
15  1.4000000000000E-01  1.6920727420692E+00  1.0320313536009E+00  9.1084844542889E-02
16  1.5000000000000E-01  1.7233743848463E+00  1.0912047901157E+00  6.0210722439648E-02
17  1.6000000000000E-01  1.7388533013811E+00  1.1476135538528E+00  2.3356639816014E-02
18  1.7000000000000E-01  1.7383805495566E+00  1.2011465855041E+00 -1.9205093238584E-02
19  1.8000000000000E-01  1.7220010746822E+00  1.2517039741986E+00 -6.7061593974177E-02
20  1.9000000000000E-01  1.6899361194111E+00  1.2991970100585E+00 -1.1965924965127E-01
21  2.0000000000000E-01  1.6425824379341E+00  1.3435482098189E+00 -1.7630800686688E-01
22  2.1000000000000E-01  1.5805081339433E+00  1.3846913246295E+00 -2.3619033434356E-01
23  2.2000000000000E-01  1.5044450607911E+00  1.4225713369612E+00 -2.9837487600881E-01
24  2.3000000000000E-01  1.4152778504023E+00  1.4571444509730E+00 -3.6183458798331E-01
25  2.4000000000000E-01  1.3140297687767E+00  1.4883780779149E+00 -4.2546892796977E-01
26  2.5000000000000E-01  1.2018457239819E+00  1.5162508153058E+00 -4.8812945028811E-01
27  2.6000000000000E-01  1.0799728709925E+00  1.5407524159135E+00 -5.4864796608489E-01
28  2.7000000000000E-01  9.4973936051524E-01  1.5618837401292E+00 -6.0586626697504E-01
29  2.8000000000000E-01  8.1253186060296E-01  1.5796566833283E+00 -6.5866629113316E-01
30  2.9000000000000E-01  6.6977253587188E-01  1.5940940683696E+00 -7.0599954137682E-01
31  3.0000000000000E-01  5.2289619611417E-01  1.6052294926078E+00 -7.4691455051253E-01
32  3.1000000000000E-01  3.7332832201114E-01  1.6131071187371E+00 -7.8058123294646E-01
33  3.2000000000000E-01  2.2246463993716E-01  1.6177813994922E+00 -8.0631106326655E-01
34  3.3000000000000E-01  7.1652851474691E-02  1.6193167276731E+00 -8.2357217921781E-01
35  3.4000000000000E-01 -7.7822971282114E-02  1.6177870051022E+00 -8.3199871242410E-01
36  3.5000000000000E-01 -2.2475493236782E-01  1.6132751268589E+00 -8.3139389692498E-01
37  3.6000000000000E-01 -3.6802054617298E-01  1.6058723803550E+00 -8.2172678237555E-01
38  3.7000000000000E-01 -5.0658855571217E-01  1.5956777623601E+00 -8.0312267307366E-01
39  3.8000000000000E-01 -6.3952138814055E-01  1.5827972207794E+00 -7.7584771204002E-01
40  3.9000000000000E-01 -7.6597445603155E-01  1.5673428316515E+00 -7.4028831678901E-01
41  4.0000000000000E-01 -8.8519265930294E-01  1.5494319252638E+00 -6.9692643586422E-01
42  4.1000000000000E-01 -9.9650457290952E-01  1.5291861783113E+00 -6.4631181911416E-01
43  4.2000000000000E-01 -1.0993149129113E+00  1.5067306914553E+00 -5.8903266792854E-01
44  4.3000000000000E-01 -1.1930959526240E+00  1.4821930733452E+00 -5.2568614418782E-01
45  4.4000000000000E-01 -1.2773786068507E+00  1.4557025530136E+00 -4.5685026104485E-01
46  4.5000000000000E-01 -1.3517439127209E+00  1.4273891424717E+00 -3.8305865041585E-01
47  4.6000000000000E-01 -1.4158156091265E+00  1.3973828702705E+00 -3.0477960011239E-01
48  4.7000000000000E-01 -1.4692544535643E+00  1.3658131047710E+00 -2.2240058023848E-01
49  4.8000000000000E-01 -1.5117548175507E+00  1.3328079829215E+00 -1.3621923963091E-01
50  4.9000000000000E-01 -1.5430439735556E+00  1.2984939565814E+00 -4.6441557817840E-02
51  5.0000000000000E-01 -1.5628843330134E+00  1.2629954639890E+00  4.6812501742453E-02
52  5.1000000000000E-01 -1.5710787231905E+00  1.2264347290218E+00  1.4349586099364E-01
53  5.2000000000000E-01 -1.5674786083114E+00  1.1889316856495E+00  2.4361412615469E-01
54  5.3000000000000E-01 -1.5519949758999E+00  1.1506040196471E+00  3.4719910217589E-01
55  5.4000000000000E-01 -1.5246114316398E+00  1.1115673144652E+00  4.5427716588006E-01
56  5.5000000000000E-01 -1.4853988839824E+00  1.0719352833720E+00  5.6483395840581E-01
57  5.6000000000000E-01 -1.4345310615635E+00  1.0318200658175E+00  6.7877711922652E-01
58  5.7000000000000E-01 -1.3722999996899E+00  9.9133256263012E-01  7.9589897551831E-01
59  5.8000000000000E-01 -1.2991305629467E+00  9.5058278231282E-01  9.1584121042324E-01
60  5.9000000000000E-01 -1.2155930440446E+00  9.0968016949399E-01  1.0380635535566E+00
61  6.0000000000000E-01 -1.1224128972570E+00  8.6873388660600E-01  1.1618184625068E+00
62  6.1000000000000E-01 -1.0204767290840E+00  8.2785302113987E-01  1.2861335947637E+00
63  6.2000000000000E-01 -9.1083377795785E-01  7.8714669335227E-01  1.4098036094442E+00
64  6.3000000000000E-01 -7.9469226561175E-01  7.4672404300668E-01  1.5313924955523E+00
65  6.4000000000000E-01 -6.7341018992710E-01  7.0669407849281E-01  1.6492472104667E+00
66  6.5000000000000E-01 -5.4848034559353E-01  6.6716537731524E-01  1.7615229446507E+00
67  6.6000000000000E-01 -4.2150959615318E-01  6.2824563325926E-01  1.8662198249431E+00
68  6.7000000000000E-01 -2.9419266915286E-01  5.9004105227962E-01  1.9612303501624E+00
69  6.8000000000000E-01 -1.6828099457766E-01  5.5265560604282E-01  2.0443963414958E+00
70  6.9000000000000E-01 -4.5547344523550E-02  5.1619015879928E-01  2.1135737090301E+00
71  7.0000000000000E-01  7.2252751627653E-02  4.8074148957952E-01  2.1667029069816E+00
72  7.1000000000000E-01  1.8342165768870E-01  4.4640123732302E-01  2.2018825944024E+00
73  7.2000000000000E-01  2.8636104420157E-01  4.1325480120625E-01  2.2174437534350E+00
74  7.3000000000000E-01  3.7961266712048E-01  3.8138023192032E-01  2.2120213583000E+00
75  7.4000000000000E-01  4.6189707256864E-01  3.5084715178722E-01  2.1846206456558E+00
76  7.5000000000000E-01  5.3214880505125E-01  3.2171574227766E-01  2.1346751165289E+00
77  7.6000000000000E-01  5.8954677164837E-01  2.9403583664655E-01  2.0620936023041E+00
78  7.7000000000000E-01  6.3353854702324E-01  2.6784615303967E-01  1.9672940474696E+00
79  7.8000000000000E-01  6.6385758954259E-01  2.4317369961828E-01  1.8512220899316E+00
80  7.9000000000000E-01  6.8053257088009E-01  2.2003337813318E-01  1.7153530405263E+00
81  8.0000000000000E-01  6.8388829145722E-01  1.9842780614864E-01  1.5616764572636E+00
82  8.1000000000000E-01  6.7453795131764E-01  1.7834737101544E-01  1.3926631533271E+00
83  8.2000000000000E-01  6.5336685839598E-01  1.5977052100810E-01  1.2112151445425E+00
84  8.3000000000000E-01  6.2150797052767E-01  1.4266429109095E-01  1.0205997037447E+00
85  8.4000000000000E-01  5.8030997036137E-01  1.2698505289578E-01  8.2436931732125E-01
86  8.5000000000000E-01  5.3129885018124E-01  1.1267947101589E-01  6.2626990498573E-01
87  8.6000000000000E-01  4.7613422384262E-01  9.9685640971866E-02  4.3014014115047E-01
88  8.7000000000000E-01  4.1656177422717E-01  8.7934378480557E-02  2.3980508183485E-01
89  8.8000000000000E-01  3.5436337734802E-01  7.7350625216540E-02  5.8967535772375E-02
90  8.9000000000000E-01  2.9130651133019E-01  6.7854933299573E-02 -1.0889929167793E-01
91  9.0000000000000E-01  2.2909455550665E-01  5.9364989412987E-02 -2.6065441607684E-01
92  9.1000000000000E-01  1.6931951034387E-01  5.1797139828815E-02 -3.9358370441096E-01
93  9.2000000000000E-01  1.1341852444779E-01  4.5067879683106E-02 -5.0548363666557E-01
94  9.3000000000000E-01  6.2635405262386E-02  3.9095273531985E-02 -5.9473182076688E-01
95  9.4000000000000E-01  1.7988022949594E-02  3.3800279375090E-02 -6.6034250704118E-01
96  9.5000000000000E-01 -1.9757797272690E-02  2.9107954740909E-02 -7.0200606819950E-01
97  9.6000000000000E-01 -5.0107647723932E-02  2.4948530813711E-02 -7.2011219845863E-01
98  9.7000000000000E-01 -7.2851297704626E-02  2.1258348618833E-02 -7.1575740847174E-01
99  9.8000000000000E-01 -8.8069334802299E-02  1.7980659624064E-02 -6.9073821769321E-01
100  9.9000000000000E-01 -9.6134546422725E-02  1.5066301419995E-02 -6.4753224324101E-01
101  1.0000000000000E+00 -9.7709157522875E-02  1.2474265566453E-02 -5.8926987682228E-01
102  1.0100000000000E+00 -9.3738636304290E-02  1.0172168895282E-02 -5.1969776616901E-01
103  1.0200000000000E+00 -8.5392369182946E-02  8.1357133656929E-03 -4.4298524749048E-01
104  1.0300000000000E+00 -7.3922023262081E-02  6.3465920851117E-03 -3.6330184599958E-01
105  1.0400000000000E+00 -6.0584965343395E-02  4.7914926539038E-03 -2.8461248799341E-01
106  1.0500000000000E+00 -4.6594188633495E-02  3.4613374007293E-03 -2.1055790691963E-01
107  1.0600000000000E+00 -3.3015895366129E-02  2.3401206511687E-03 -1.4427562819147E-01
108  1.0700000000000E+00 -2.0823346890740E-02  1.4254528201256E-03 -8.8419389667472E-02
109  1.0800000000000E+00 -1.0895279063512E-02  7.2834862977712E-04 -4.5131323875871E-02
110  1.0900000000000E+00 -3.9250307120088E-03  2.5888278533533E-04 -1.5912361370691E-02
111  1.1000000000000E+00 -4.1634714373067E-04  2.7361631499941E-05 -1.6558739602158E-03
112  1.1100000000000E+00  1.5519064712902E-05 -1.0170245650198E-06  6.0967543767098E-05
113  1.1200000000000E+00  1.9076623661341E-06 -1.2514095485026E-07  7.6152876266435E-06
114  1.13 -0. -0. -0.
115  1.14  0.  0.  0.
116  1.15  0.  0.  0.
117  1.16  0.  0.  0.
118  1.17  0.  0.  0.
119  1.18  0.  0.  0.
120  1.19  0.  0.  0.
121  1.20  0.  0.  0.
122  1.21  0.  0.  0.
123  1.22  0.  0.  0.
124  1.23  0.  0.  0.
125  1.24  0.  0.  0.
126  1.25  0.  0.  0.
127  1.26  0.  0.  0.
128  1.27  0.  0.  0.
129  1.28  0.  0.  0.
130  1.29  0.  0.  0.
131  1.30  0.  0.  0.
132  1.31  0.  0.  0.
133  1.32  0.  0.  0.
134  1.33  0.  0.  0.
135  1.34  0.  0.  0.
136  1.35  0.  0.  0.
137  1.36  0.  0.  0.
138  1.37  0.  0.  0.
139  1.38  0.  0.  0.
140  1.39  0.  0.  0.
141  1.40  0.  0.  0.
142  1.41  0.  0.  0.
143  1.42  0.  0.  0.
144  1.43  0.  0.  0.
145  1.44  0.  0.  0.
146  1.45  0.  0.  0.
147  1.46  0.  0.  0.
148  1.47  0.  0.  0.
149  1.48  0.  0.  0.
150  1.49  0.  0.  0.
151  1.50  0.  0.  0.
152  1.51  0.  0.  0.
153  1.52  0.  0.  0.
154  1.53  0.  0.  0.
155  1.54  0.  0.  0.
156  1.55  0.  0.  0.
157  1.56  0.  0.  0.
158  1.57  0.  0.  0.
159  1.58  0.  0.  0.
160  1.59  0.  0.  0.
161  1.60  0.  0.  0.
162  1.61  0.  0.  0.
163  1.62  0.  0.  0.
164  1.63  0.  0.  0.
165  1.64  0.  0.  0.
166  1.65  0.  0.  0.
167  1.66  0.  0.  0.
168  1.67  0.  0.  0.
169  1.68  0.  0.  0.
170  1.69  0.  0.  0.
171  1.70  0.  0.  0.
172  1.71  0.  0.  0.
173  1.72  0.  0.  0.
174  1.73  0.  0.  0.
175  1.74  0.  0.  0.
176  1.75  0.  0.  0.
177  1.76  0.  0.  0.
178  1.77  0.  0.  0.
179  1.78  0.  0.  0.
180  1.79  0.  0.  0.
181  1.80  0.  0.  0.
182  1.81  0.  0.  0.
183  1.82  0.  0.  0.
184  1.83  0.  0.  0.
185  1.84  0.  0.  0.
186  1.85  0.  0.  0.
187  1.86  0.  0.  0.
188  1.87  0.  0.  0.
189  1.88  0.  0.  0.
190  1.89  0.  0.  0.
191  1.90  0.  0.  0.
192  1.91  0.  0.  0.
193  1.92  0.  0.  0.
194  1.93  0.  0.  0.
195  1.94  0.  0.  0.
196  1.95  0.  0.  0.
197  1.96  0.  0.  0.
198  1.97  0.  0.  0.
199  1.98  0.  0.  0.
200  1.99  0.  0.  0.
201  2.00  0.  0.  0.
202  2.01  0.  0.  0.
203  2.02  0.  0.  0.
204  2.03  0.  0.  0.
205  2.04  0.  0.  0.
206  2.05  0.  0.  0.
207  2.06  0.  0.  0.
208  2.07  0.  0.  0.
209  2.08  0.  0.  0.
210  2.09  0.  0.  0.
211  2.10  0.  0.  0.
212  2.11  0.  0.  0.
213  2.12  0.  0.  0.
214  2.13  0.  0.  0.
215  2.14  0.  0.  0.
216  2.15  0.  0.  0.
217  2.16  0.  0.  0.
218  2.17  0.  0.  0.
219  2.18  0.  0.  0.
220  2.19  0.  0.  0.
221  2.20  0.  0.  0.
222  2.21  0.  0.  0.
223  2.22  0.  0.  0.
224  2.23  0.  0.  0.
225  2.24  0.  0.  0.
226  2.25  0.  0.  0.
227  2.26  0.  0.  0.
228  2.27  0.  0.  0.
229  2.28  0.  0.  0.
230  2.29  0.  0.  0.
231  2.30  0.  0.  0.
232  2.31  0.  0.  0.
233  2.32  0.  0.  0.
234  2.33  0.  0.  0.
235  2.34  0.  0.  0.
236  2.35  0.  0.  0.
237  2.36  0.  0.  0.
238  2.37  0.  0.  0.
239  2.38  0.  0.  0.
240  2.39  0.  0.  0.
241  2.40  0.  0.  0.
242  2.41  0.  0.  0.
243  2.42  0.  0.  0.
244  2.43  0.  0.  0.
245  2.44  0.  0.  0.
246  2.45  0.  0.  0.
247  2.46  0.  0.  0.
248  2.47  0.  0.  0.
249  2.48  0.  0.  0.
250  2.49  0.  0.  0.
251  2.50  0.  0.  0.
252  2.51  0.  0.  0.
253  2.52  0.  0.  0.
254  2.53  0.  0.  0.
255  2.54  0.  0.  0.
256  2.55  0.  0.  0.
257  2.56  0.  0.  0.
258  2.57  0.  0.  0.
259  2.58  0.  0.  0.
260  2.59  0.  0.  0.
261  2.60  0.  0.  0.
262  2.61  0.  0.  0.
263  2.62  0.  0.  0.
264  2.63  0.  0.  0.
265  2.64  0.  0.  0.
266  2.65  0.  0.  0.
267  2.66  0.  0.  0.
268  2.67  0.  0.  0.
269  2.68  0.  0.  0.
270  2.69  0.  0.  0.
271  2.70  0.  0.  0.
272  2.71  0.  0.  0.
273  2.72  0.  0.  0.
274  2.73  0.  0.  0.
275  2.74  0.  0.  0.
276  2.75  0.  0.  0.
277  2.76  0.  0.  0.
278  2.77  0.  0.  0.
279  2.78  0.  0.  0.
280  2.79  0.  0.  0.
281  2.80  0.  0.  0.
282  2.81  0.  0.  0.
283  2.82  0.  0.  0.
284  2.83  0.  0.  0.
285  2.84  0.  0.  0.
286  2.85  0.  0.  0.
287  2.86  0.  0.  0.
288  2.87  0.  0.  0.
289  2.88  0.  0.  0.
290  2.89  0.  0.  0.
291  2.90  0.  0.  0.
292  2.91  0.  0.  0.
293  2.92  0.  0.  0.
294  2.93  0.  0.  0.
295  2.94  0.  0.  0.
296  2.95  0.  0.  0.
297  2.96  0.  0.  0.
298  2.97  0.  0.  0.
299  2.98  0.  0.  0.
300  2.99  0.  0.  0.
301  3.00  0.  0.  0.
302  3.01  0.  0.  0.
303  3.02  0.  0.  0.
304  3.03  0.  0.  0.
305  3.04  0.  0.  0.
306  3.05  0.  0.  0.
307  3.06  0.  0.  0.
308  3.07  0.  0.  0.
309  3.08  0.  0.  0.
310  3.09  0.  0.  0.
311  3.10  0.  0.  0.
312  3.11  0.  0.  0.
313  3.12  0.  0.  0.
314  3.13  0.  0.  0.
315  3.14  0.  0.  0.
316  3.15  0.  0.  0.
317  3.16  0.  0.  0.
318  3.17  0.  0.  0.
319  3.18  0.  0.  0.
320  3.19  0.  0.  0.
321  3.20  0.  0.  0.
322  3.21  0.  0.  0.
323  3.22  0.  0.  0.
324  3.23  0.  0.  0.
325  3.24  0.  0.  0.
326  3.25  0.  0.  0.
327  3.26  0.  0.  0.
328  3.27  0.  0.  0.
329  3.28  0.  0.  0.
330  3.29  0.  0.  0.
331  3.30  0.  0.  0.
332  3.31  0.  0.  0.
333  3.32  0.  0.  0.
334  3.33  0.  0.  0.
335  3.34  0.  0.  0.
336  3.35  0.  0.  0.
337  3.36  0.  0.  0.
338  3.37  0.  0.  0.
339  3.38  0.  0.  0.
340  3.39  0.  0.  0.
341  3.40  0.  0.  0.
342  3.41  0.  0.  0.
343  3.42  0.  0.  0.
344  3.43  0.  0.  0.
345  3.44  0.  0.  0.
346  3.45  0.  0.  0.
347  3.46  0.  0.  0.
348  3.47  0.  0.  0.
349  3.48  0.  0.  0.
350  3.49  0.  0.  0.
351  3.50  0.  0.  0.
352  3.51  0.  0.  0.
353  3.52  0.  0.  0.
354  3.53  0.  0.  0.
355  3.54  0.  0.  0.
356  3.55  0.  0.  0.
357  3.56  0.  0.  0.
358  3.57  0.  0.  0.
359  3.58  0.  0.  0.
360  3.59  0.  0.  0.
361  3.60  0.  0.  0.
362  3.61  0.  0.  0.
363  3.62  0.  0.  0.
364  3.63  0.  0.  0.
365  3.64  0.  0.  0.
366  3.65  0.  0.  0.
367  3.66  0.  0.  0.
368  3.67  0.  0.  0.
369  3.68  0.  0.  0.
370  3.69  0.  0.  0.
371  3.70  0.  0.  0.
372  3.71  0.  0.  0.
373  3.72  0.  0.  0.
374  3.73  0.  0.  0.
375  3.74  0.  0.  0.
376  3.75  0.  0.  0.
377  3.76  0.  0.  0.
378  3.77  0.  0.  0.
379  3.78  0.  0.  0.
380  3.79  0.  0.  0.
381  3.80  0.  0.  0.
382  3.81  0.  0.  0.
383  3.82  0.  0.  0.
384  3.83  0.  0.  0.
385  3.84  0.  0.  0.
386  3.85  0.  0.  0.
387  3.86  0.  0.  0.
388  3.87  0.  0.  0.
389  3.88  0.  0.  0.
390  3.89  0.  0.  0.
391  3.90  0.  0.  0.
392  3.91  0.  0.  0.
393  3.92  0.  0.  0.
394  3.93  0.  0.  0.
395  3.94  0.  0.  0.
396  3.95  0.  0.  0.
397  3.96  0.  0.  0.
398  3.97  0.  0.  0.
399  3.98  0.  0.  0.
400  3.99  0.  0.  0.
401  4.00  0.  0.  0.
402  4.01  0.  0.  0.
403  4.02  0.  0.  0.
404  4.03  0.  0.  0.
405  4.04  0.  0.  0.
406  4.05  0.  0.  0.
407  4.06  0.  0.  0.
408  4.07  0.  0.  0.
409  4.08  0.  0.  0.
410  4.09  0.  0.  0.
411  4.10  0.  0.  0.
412  4.11  0.  0.  0.
413  4.12  0.  0.  0.
414  4.13  0.  0.  0.
415  4.14  0.  0.  0.
416  4.15  0.  0.  0.
417  4.16  0.  0.  0.
418  4.17  0.  0.  0.
419  4.18  0.  0.  0.
420  4.19  0.  0.  0.
421  4.20  0.  0.  0.
422  4.21  0.  0.  0.
423  4.22  0.  0.  0.
424  4.23  0.  0.  0.
425  4.24  0.  0.  0.
426  4.25  0.  0.  0.
427  4.26  0.  0.  0.
428  4.27  0.  0.  0.
429  4.28  0.  0.  0.
430  4.29  0.  0.  0.
431  4.30  0.  0.  0.
432  4.31  0.  0.  0.
433  4.32  0.  0.  0.
434  4.33  0.  0.  0.
435  4.34  0.  0.  0.
436  4.35  0.  0.  0.
437  4.36  0.  0.  0.
438  4.37  0.  0.  0.
439  4.38  0.  0.  0.
440  4.39  0.  0.  0.
441  4.40  0.  0.  0.
442  4.41  0.  0.  0.
443  4.42  0.  0.  0.
444  4.43  0.  0.  0.
445  4.44  0.  0.  0.
446  4.45  0.  0.  0.
447  4.46  0.  0.  0.
448  4.47  0.  0.  0.
449  4.48  0.  0.  0.
450  4.49  0.  0.  0.
451  4.50  0.  0.  0.
452  4.51  0.  0.  0.
453  4.52  0.  0.  0.
454  4.53  0.  0.  0.
455  4.54  0.  0.  0.
456  4.55  0.  0.  0.
457  4.56  0.  0.  0.
458  4.57  0.  0.  0.
459  4.58  0.  0.  0.
460  4.59  0.  0.  0.
461  4.60  0.  0.  0.
462  4.61  0.  0.  0.
463  4.62  0.  0.  0.
464  4.63  0.  0.  0.
465  4.64  0.  0.  0.
466  4.65  0.  0.  0.
467  4.66  0.  0.  0.
468  4.67  0.  0.  0.
469  4.68  0.  0.  0.
470  4.69  0.  0.  0.
471  4.70  0.  0.  0.
472  4.71  0.  0.  0.
473  4.72  0.  0.  0.
474  4.73  0.  0.  0.
475  4.74  0.  0.  0.
476  4.75  0.  0.  0.
477  4.76  0.  0.  0.
478  4.77  0.  0.  0.
479  4.78  0.  0.  0.
480  4.79  0.  0.  0.
481  4.80  0.  0.  0.
482  4.81  0.  0.  0.
483  4.82  0.  0.  0.
484  4.83  0.  0.  0.
485  4.84  0.  0.  0.
486  4.85  0.  0.  0.
487  4.86  0.  0.  0.
488  4.87  0.  0.  0.
489  4.88  0.  0.  0.
490  4.89  0.  0.  0.
491  4.90  0.  0.  0.
492  4.91  0.  0.  0.
493  4.92  0.  0.  0.
494  4.93  0.  0.  0.
495  4.94  0.  0.  0.
496  4.95  0.  0.  0.
497  4.96  0.  0.  0.
498  4.97  0.  0.  0.
499  4.98  0.  0.  0.
500  4.99  0.  0.  0.
501  5.00  0.  0.  0.
502  5.01  0.  0.  0.
503  5.02  0.  0.  0.
504  5.03  0.  0.  0.
505  5.04  0.  0.  0.
506  5.05  0.  0.  0.
507  5.06  0.  0.  0.
508  5.07  0.  0.  0.
509  5.08  0.  0.  0.
510  5.09  0.  0.  0.
511  5.10  0.  0.  0.
512  5.11  0.  0.  0.
513  5.12  0.  0.  0.
514  5.13  0.  0.  0.
515  5.14  0.  0.  0.
516  5.15  0.  0.  0.
517  5.16  0.  0.  0.
518  5.17  0.  0.  0.
519  5.18  0.  0.  0.
520  5.19  0.  0.  0.
521  5.20  0.  0.  0.
522  5.21  0.  0.  0.
523  5.22  0.  0.  0.
524  5.23  0.  0.  0.
525  5.24  0.  0.  0.
526  5.25  0.  0.  0.
527  5.26  0.  0.  0.
528  5.27  0.  0.  0.
529  5.28  0.  0.  0.
530  5.29  0.  0.  0.
531  5.30  0.  0.  0.
532  5.31  0.  0.  0.
533  5.32  0.  0.  0.
534  5.33  0.  0.  0.
535  5.34  0.  0.  0.
536  5.35  0.  0.  0.
537  5.36  0.  0.  0.
538  5.37  0.  0.  0.
539  5.38  0.  0.  0.
540  5.39  0.  0.  0.
541  5.40  0.  0.  0.
542  5.41  0.  0.  0.
543  5.42  0.  0.  0.
544  5.43  0.  0.  0.
545  5.44  0.  0.  0.
546  5.45  0.  0.  0.
547  5.46  0.  0.  0.
548  5.47  0.  0.  0.
549  5.48  0.  0.  0.
550  5.49  0.  0.  0.
551  5.50  0.  0.  0.
552  5.51  0.  0.  0.
553  5.52  0.  0.  0.
554  5.53  0.  0.  0.
555  5.54  0.  0.  0.
556  5.55  0.  0.  0.
557  5.56  0.  0.  0.
558  5.57  0.  0.  0.
559  5.58  0.  0.  0.
560  5.59  0.  0.  0.
561  5.60  0.  0.  0.
562  5.61  0.  0.  0.
563  5.62  0.  0.  0.
564  5.63  0.  0.  0.
565  5.64  0.  0.  0.
566  5.65  0.  0.  0.
567  5.66  0.  0.  0.
568  5.67  0.  0.  0.
569  5.68  0.  0.  0.
570  5.69  0.  0.  0.
571  5.70  0.  0.  0.
572  5.71  0.  0.  0.
573  5.72  0.  0.  0.
574  5.73  0.  0.  0.
575  5.74  0.  0.  0.
576  5.75  0.  0.  0.
577  5.76  0.  0.  0.
578  5.77  0.  0.  0.
579  5.78  0.  0.  0.
580  5.79  0.  0.  0.
581  5.80  0.  0.  0.
582  5.81  0.  0.  0.
583  5.82  0.  0.  0.
584  5.83  0.  0.  0.
585  5.84  0.  0.  0.
586  5.85  0.  0.  0.
587  5.86  0.  0.  0.
588  5.87  0.  0.  0.
589  5.88  0.  0.  0.
590  5.89  0.  0.  0.
591  5.90  0.  0.  0.
592  5.91  0.  0.  0.
593  5.92  0.  0.  0.
594  5.93  0.  0.  0.
595  5.94  0.  0.  0.
596  5.95  0.  0.  0.
597  5.96  0.  0.  0.
598  5.97  0.  0.  0.
599  5.98  0.  0.  0.
600  5.99  0.  0.  0.
1                        -9.1523390887177E+00  2.0527016115501E+00
1  0.0000000000000E+00  1.3483379968093E-08  2.3688883046824E-07
2  1.0000000000000E-02  3.1253095497321E-03  2.0966077340997E-03
3  2.0000000000000E-02  1.2473298445981E-02  8.2690101413899E-03
4  3.0000000000000E-02  2.7960538667974E-02  1.8169412594593E-02
5  4.0000000000000E-02  4.9449278723776E-02  3.1232880076424E-02
6  5.0000000000000E-02  7.6749355538222E-02  4.6698833580053E-02
7  6.0000000000000E-02  1.0962081025996E-01  6.3639993864695E-02
8  7.0000000000000E-02  1.4777714948339E-01  8.0997676535340E-02
9  8.0000000000000E-02  1.9088917989789E-01  9.7622105526838E-02
10  9.0000000000000E-02  2.3858933314868E-01  1.1231622802754E-01
11  1.0000000000000E-01  2.9047638904253E-01  1.2388138980482E-01
12  1.1000000000000E-01  3.4612049938406E-01  1.3116317046763E-01
13  1.2000000000000E-01  4.0506841180617E-01  1.3309568544752E-01
14  1.3000000000000E-01  4.6684879297760E-01  1.2874273470423E-01
15  1.4000000000000E-01  5.3097755344012E-01  1.1733431399574E-01
16  1.5000000000000E-01  5.9696308185658E-01  9.8297197087696E-02
17  1.6000000000000E-01  6.6431130435353E-01  7.1278538334405E-02
18  1.7000000000000E-01  7.3253049455646E-01  3.6161724536413E-02
19  1.8000000000000E-01  8.0113577141295E-01 -6.9259887423576E-03
20  1.9000000000000E-01  8.6965323450668E-01 -5.7614200749894E-02
21  2.0000000000000E-01  9.3762369978322E-01 -1.1529827182000E-01
22  2.1000000000000E-01  1.0046060119307E+00 -1.7915592556912E-01
23  2.2000000000000E-01  1.0701799225948E+00 -2.4817077506600E-01
24  2.3000000000000E-01  1.1339485356964E+00 -3.2116175159193E-01
25  2.4000000000000E-01  1.1955403319635E+00 -3.9681721067541E-01
26  2.5000000000000E-01  1.2546107940333E+00 -4.7373233943909E-01
27  2.6000000000000E-01  1.3108436608816E+00 -5.5044839744787E-01
28  2.7000000000000E-01  1.3639518457075E+00 -6.2549229320935E-01
29  2.8000000000000E-01  1.4136780546681E+00 -6.9741503066177E-01
30  2.9000000000000E-01  1.4597951450372E+00 -7.6482765220133E-01
31  3.0000000000000E-01  1.5021062605504E+00 -8.2643345235911E-01
32  3.1000000000000E-01  1.5404447790900E+00 -8.8105543216698E-01
33  3.2000000000000E-01  1.5746741037247E+00 -9.2765819959742E-01
34  3.3000000000000E-01  1.6046873227626E+00 -9.6536378567619E-01
35  3.4000000000000E-01  1.6304067582856E+00 -9.9346112725261E-01
36  3.5000000000000E-01  1.6517834159954E+00 -1.0114092536264E+00
37  3.6000000000000E-01  1.6687963425314E+00 -1.0188344927937E+00
38  3.7000000000000E-01  1.6814518901133E+00 -1.0155222719046E+00
39  3.8000000000000E-01  1.6897828827944E+00 -1.0014043144360E+00
40  3.9000000000000E-01  1.6938476741064E+00 -9.7654222375407E-01
41  4.0000000000000E-01  1.6937290827175E+00 -9.4110858112894E-01
42  4.1000000000000E-01  1.6895331911034E+00 -8.9536676994052E-01
43  4.2000000000000E-01  1.6813879922757E+00 -8.3965076320488E-01
44  4.3000000000000E-01  1.6694418713588E+00 -7.7434607760824E-01
45  4.4000000000000E-01  1.6538619122134E+00 -6.9987300546582E-01
46  4.5000000000000E-01  1.6348320242291E+00 -6.1667309044707E-01
47  4.6000000000000E-01  1.6125508906517E+00 -5.2519961989542E-01
48  4.7000000000000E-01  1.5872297470799E+00 -4.2591267458949E-01
49  4.8000000000000E-01  1.5590900067256E+00 -3.1927901606081E-01
50  4.9000000000000E-01  1.5283607572979E+00 -2.0577681366845E-01
51  5.0000000000000E-01  1.4952761625313E+00 -8.5904930965776E-02
52  5.1000000000000E-01  1.4600728090047E+00  3.9803783725800E-02
53  5.2000000000000E-01  1.4229870455898E+00  1.7076601156632E-01
54  5.3000000000000E-01  1.3842523682309E+00  3.0632931263494E-01
55  5.4000000000000E-01  1.3440969064479E+00  4.4575251890331E-01
56  5.5000000000000E-01  1.3027410697074E+00  5.8818650464092E-01
57  5.6000000000000E-01  1.2603954113961E+00  7.3265673423593E-01
58  5.7000000000000E-01  1.2172587654534E+00  8.7804898939483E-01
59  5.8000000000000E-01  1.1735167057381E+00  1.0230996135239E+00
60  5.9000000000000E-01  1.1293403709928E+00  1.1663914815048E+00
61  6.0000000000000E-01  1.0848856889941E+00  1.3063567115395E+00
62  6.1000000000000E-01  1.0402930223945E+00  1.4412868884189E+00
63  6.2000000000000E-01  9.9568724622708E-01  1.5693512731263E+00
64  6.3000000000000E-01  9.5117825346776E-01  1.6886231429841E+00
65  6.4000000000000E-01  9.0686187091649E-01  1.7971140522465E+00
66  6.5000000000000E-01  8.6282115349628E-01  1.8928154391547E+00
67  6.6000000000000E-01  8.1912801141231E-01  1.9737466468295E+00
68  6.7000000000000E-01  7.7584511201993E-01  2.0380080870331E+00
69  6.8000000000000E-01  7.3302798724257E-01  2.0838379725058E+00
70  6.9000000000000E-01  6.9072726844556E-01  2.1096707890159E+00
71  7.0000000000000E-01  6.4899096423386E-01  2.1141954846706E+00
72  7.1000000000000E-01  6.0786669304211E-01  2.0964112315847E+00
73  7.2000000000000E-01  5.6740378187021E-01  2.0556785713195E+00
74  7.3000000000000E-01  5.2765514521994E-01  1.9917637953229E+00
75  7.4000000000000E-01  4.8867886422384E-01  1.9048745364841E+00
76  7.5000000000000E-01  4.5053939501596E-01  1.7956847560967E+00
77  7.6000000000000E-01  4.1330834734223E-01  1.6653475968866E+00
78  7.7000000000000E-01  3.7706478889048E-01  1.5154949288968E+00
79  7.8000000000000E-01  3.4189504737632E-01  1.3482228296046E+00
80  7.9000000000000E-01  3.0789200048916E-01  1.1660626985341E+00
81  8.0000000000000E-01  2.7515386274874E-01  9.7193819364412E-01
82  8.1000000000000E-01  2.4378249745604E-01  7.6910867404688E-01
83  8.2000000000000E-01  2.1388130052273E-01  5.6110032233090E-01
84  8.3000000000000E-01  1.8555272030911E-01  3.5162658092531E-01
85  8.4000000000000E-01  1.5889549299423E-01  1.4449995198207E-01
86  8.5000000000000E-01  1.3400168580085E-01 -5.6462438072643E-02
87  8.6000000000000E-01  1.1095365004047E-01 -2.4753683515782E-01
88  8.7000000000000E-01  8.9820991971386E-02 -4.2519155948436E-01
89  8.8000000000000E-01  7.0657671545954E-02 -5.8618347604902E-01
90  8.9000000000000E-01  5.3499337072899E-02 -7.2764932247535E-01
91  9.0000000000000E-01  3.8360997604091E-02 -8.4718911684386E-01
92  9.1000000000000E-01  2.5235124600627E-02 -9.4293910777514E-01
93  9.2000000000000E-01  1.4090260425416E-02 -1.0136320678622E+00
94  9.3000000000000E-01  4.8701938923148E-03 -1.0586431588101E+00
95  9.4000000000000E-01 -2.5062569467484E-03 -1.0780200979815E+00
96  9.5000000000000E-01 -8.1448366729566E-03 -1.0724969137798E+00
97  9.6000000000000E-01 -1.2174824239445E-02 -1.0434911712566E+00
98  9.7000000000000E-01 -1.4747413463607E-02 -9.9308515715229E-01
99  9.8000000000000E-01 -1.6033554319788E-02 -9.2399211264321E-01
100  9.9000000000000E-01 -1.6221328991782E-02 -8.3950917469436E-01
101  1.0000000000000E+00 -1.5512949520681E-02 -7.4345897911157E-01
102  1.0100000000000E+00 -1.4121420671763E-02 -6.4012032859395E-01
103  1.0200000000000E+00 -1.2262670286771E-02 -5.3400865308976E-01
104  1.0300000000000E+00 -1.0141353265074E-02 -4.2945753998031E-01
105  1.0400000000000E+00 -7.9432021527288E-03 -3.3042788351105E-01
106  1.0500000000000E+00 -5.8299890579277E-03 -2.4039790521295E-01
107  1.0600000000000E+00 -3.9304178518113E-03 -1.6200905215635E-01
108  1.0700000000000E+00 -2.3489921418429E-03 -9.7567613991829E-02
109  1.0800000000000E+00 -1.1584491552806E-03 -4.8891305077115E-02
110  1.0900000000000E+00 -3.9054023772039E-04 -1.6903234680821E-02
111  1.1000000000000E+00 -3.8348473647797E-05 -1.7219393082830E-03
112  1.1100000000000E+00  1.3522454495668E-06  6.2405285654735E-05
113  1.1200000000000E+00  1.7860613670738E-07  7.9472571320692E-06
114  1.13  0.  0.
115  1.14  0.  0.
116  1.15  0.  0.
117  1.16  0.  0.
118  1.17  0.  0.
119  1.18  0.  0.
120  1.19  0.  0.
121  1.20  0.  0.
122  1.21  0.  0.
123  1.22  0.  0.
124  1.23  0.  0.
125  1.24  0.  0.
126  1.25  0.  0.
127  1.26  0.  0.
128  1.27  0.  0.
129  1.28  0.  0.
130  1.29  0.  0.
131  1.30  0.  0.
132  1.31  0.  0.
133  1.32  0.  0.
134  1.33  0.  0.
135  1.34  0.  0.
136  1.35  0.  0.
137  1.36  0.  0.
138  1.37  0.  0.
139  1.38  0.  0.
140  1.39  0.  0.
141  1.40  0.  0.
142  1.41  0.  0.
143  1.42  0.  0.
144  1.43  0.  0.
145  1.44  0.  0.
146  1.45  0.  0.
147  1.46  0.  0.
148  1.47  0.  0.
149  1.48  0.  0.
150  1.49  0.  0.
151  1.50  0.  0.
152  1.51  0.  0.
153  1.52  0.  0.
154  1.53  0.  0.
155  1.54  0.  0.
156  1.55  0.  0.
157  1.56  0.  0.
158  1.57  0.  0.
159  1.58  0.  0.
160  1.59  0.  0.
161  1.60  0.  0.
162  1.61  0.  0.
163  1.62  0.  0.
164  1.63  0.  0.
165  1.64  0.  0.
166  1.65  0.  0.
167  1.66  0.  0.
168  1.67  0.  0.
169  1.68  0.  0.
170  1.69  0.  0.
171  1.70  0.  0.
172  1.71  0.  0.
173  1.72  0.  0.
174  1.73  0.  0.
175  1.74  0.  0.
176  1.75  0.  0.
177  1.76  0.  0.
178  1.77  0.  0.
179  1.78  0.  0.
180  1.79  0.  0.
181  1.80  0.  0.
182  1.81  0.  0.
183  1.82  0.  0.
184  1.83  0.  0.
185  1.84  0.  0.
186  1.85  0.  0.
187  1.86  0.  0.
188  1.87  0.  0.
189  1.88  0.  0.
190  1.89  0.  0.
191  1.90  0.  0.
192  1.91  0.  0.
193  1.92  0.  0.
194  1.93  0.  0.
195  1.94  0.  0.
196  1.95  0.  0.
197  1.96  0.  0.