Ds    ONCVPSP-4.0.1  r_core=   1.10457   1.10457   1.10457   1.14493
110.0000     50.0000      231012    zatom,zion,pspd
8 -116133   3     4   600     0    pspcod,pspxc,lmax,lloc,mmax,r2well
5.99000000  3.80000000  0.00000000    rchrg fchrg qchrg
3     4     2     2    nproj
3     1           extension_switch
4     4     3    nprojso
0                         1.3462229224492E+01 -1.1403460902805E+01  1.5741585826512E+00
1  0.0000000000000E+00  6.9406464797694E-08 -2.4869603043598E-09  1.2783296460261E-07
2  1.0000000000000E-02  1.6502342379117E-01  7.9754229174217E-02  2.6806946871644E-02
3  2.0000000000000E-02  3.2860060473702E-01  1.5929095521966E-01  5.2970167526644E-02
4  3.0000000000000E-02  4.8929454650537E-01  2.3839384824267E-01  7.7848998547927E-02
5  4.0000000000000E-02  6.4568696044441E-01  3.1684890631140E-01  1.0080936681606E-01
6  5.0000000000000E-02  7.9638813581467E-01  3.9444557387098E-01  1.2122820900225E-01
7  6.0000000000000E-02  9.4004737420347E-01  4.7097780741945E-01  1.3849913779961E-01
8  7.0000000000000E-02  1.0753640872245E+00  5.4624507399664E-01  1.5203960631032E-01
9  8.0000000000000E-02  1.2010995871980E+00  6.2005327052501E-01  1.6129969417328E-01
10  9.0000000000000E-02  1.3160895218702E+00  6.9221555491492E-01  1.6577249448433E-01
11  1.0000000000000E-01  1.4192568211205E+00  7.6255308296896E-01  1.6500592824599E-01
12  1.1000000000000E-01  1.5096249411386E+00  8.3089564833832E-01  1.5861566252236E-01
13  1.2000000000000E-01  1.5863311148985E+00  8.9708222594737E-01  1.4629866928275E-01
14  1.3000000000000E-01  1.6486392518809E+00  9.6096142225835E-01  1.2784684326219E-01
15  1.4000000000000E-01  1.6959520793714E+00  1.0223918383596E+00  1.0316000722612E-01
16  1.5000000000000E-01  1.7278220860211E+00  1.0812423540075E+00  7.2257578539389E-02
17  1.6000000000000E-01  1.7439608184846E+00  1.1373923423395E+00  3.5288156784306E-02
18  1.7000000000000E-01  1.7442460955083E+00  1.1907318259379E+00 -7.4636789297307E-03
19  1.8000000000000E-01  1.7287267412611E+00  1.2411615852267E+00 -5.5574001994494E-02
20  1.9000000000000E-01  1.6976245001463E+00  1.2885932298332E+00 -1.0848012499931E-01
21  2.0000000000000E-01  1.6513328767070E+00  1.3329492425718E+00 -1.6548551576249E-01
22  2.1000000000000E-01  1.5904127432759E+00  1.3741630041813E+00 -2.2576923634277E-01
23  2.2000000000000E-01  1.5155846704375E+00  1.4121788049709E+00 -2.8839989576221E-01
24  2.3000000000000E-01  1.4277180560520E+00  1.4469518472151E+00 -3.5235389231869E-01
25  2.4000000000000E-01  1.3278172518547E+00  1.4784482396346E+00 -4.1653750549670E-01
26  2.5000000000000E-01  1.2170050065083E+00  1.5066449827527E+00 -4.7981219195242E-01
27  2.6000000000000E-01  1.0965036544689E+00  1.5315299414819E+00 -5.4102225605653E-01
28  2.7000000000000E-01  9.6761457545230E-01  1.5531017991156E+00 -5.9902391347303E-01
29  2.8000000000000E-01  8.3169652458780E-01  1.5713699851241E+00 -6.5271465538882E-01
30  2.9000000000000E-01  6.9014348429504E-01  1.5863545678807E+00 -7.0106175862239E-01
31  3.0000000000000E-01  5.4436271241713E-01  1.5980861027797E+00 -7.4312877802897E-01
32  3.1000000000000E-01  3.9575365532582E-01  1.6066054262009E+00 -7.7809890493143E-01
33  3.2000000000000E-01  2.4568835913563E-01  1.6119633864564E+00 -8.0529417852825E-01
34  3.3000000000000E-01  9.5493947801681E-02  1.6142205042092E+00 -8.2418969333195E-01
35  3.4000000000000E-01 -5.3562353861439E-02  1.6134465568335E+00 -8.3442214889361E-01
36  3.5000000000000E-01 -2.0028528757865E-01  1.6097200837111E+00 -8.3579233006571E-01
37  3.6000000000000E-01 -3.4356048586380E-01  1.6031278124129E+00 -8.2826137634108E-01
38  3.7000000000000E-01 -4.8236016247866E-01  1.5937640089578E+00 -8.1194098514190E-01
39  3.8000000000000E-01 -6.1574562663625E-01  1.5817297587199E+00 -7.8707798290225E-01
40  3.9000000000000E-01 -7.4286682492303E-01  1.5671321878910E+00 -7.5403397540952E-01
41  4.0000000000000E-01 -8.6295925256410E-01  1.5500836385283E+00 -7.1326104126583E-01
42  4.1000000000000E-01 -9.7533869772593E-01  1.5307008129569E+00 -6.6527464640343E-01
43  4.2000000000000E-01 -1.0793943828502E+00  1.5091039054942E+00 -6.1062512167245E-01
44  4.3000000000000E-01 -1.1745811402470E+00  1.4854157409849E+00 -5.4986914997493E-01
45  4.4000000000000E-01 -1.2604113012296E+00  1.4597609403701E+00 -4.8354274716141E-01
46  4.5000000000000E-01 -1.3364469862267E+00  1.4322651333951E+00 -4.1213718781026E-01
47  4.6000000000000E-01 -1.4022934563859E+00  1.4030542375450E+00 -3.3607922218211E-01
48  4.7000000000000E-01 -1.4575941256653E+00  1.3722538203973E+00 -2.5571675657585E-01
49  4.8000000000000E-01 -1.5020277384247E+00  1.3399885598418E+00 -1.7131093184798E-01
50  4.9000000000000E-01 -1.5353080948083E+00  1.3063818131319E+00 -8.3035243021689E-02
51  5.0000000000000E-01 -1.5571865599416E+00  1.2715553016234E+00  9.0179914167837E-03
52  5.1000000000000E-01 -1.5674574295904E+00  1.2356289134858E+00  1.0482386449732E-01
53  5.2000000000000E-01 -1.5659660518721E+00  1.1987206218303E+00  2.0440424871125E-01
54  5.3000000000000E-01 -1.5526194299584E+00  1.1609465107849E+00  3.0780109534405E-01
55  5.4000000000000E-01 -1.5273988628558E+00  1.1224208972841E+00  4.1504481082876E-01
56  5.5000000000000E-01 -1.4903740286214E+00  1.0832565319389E+00  5.2611916336263E-01
57  5.6000000000000E-01 -1.4417177846193E+00  1.0435648585235E+00  6.4092442519792E-01
58  5.7000000000000E-01 -1.3817208596937E+00  1.0034563085421E+00  7.5924063888418E-01
59  5.8000000000000E-01 -1.3108055492694E+00  9.6304060518766E-01  8.8069299814563E-01
60  5.9000000000000E-01 -1.2295375007930E+00  9.2242704989528E-01  1.0047213481259E+00
61  6.0000000000000E-01 -1.1386346962520E+00  8.8172476471234E-01  1.1305557312670E+00
62  6.1000000000000E-01 -1.0389728015604E+00  8.4104286488872E-01  1.2571997339899E+00
63  6.2000000000000E-01 -9.3158615819352E-01  8.0049053842375E-01  1.3834231296525E+00
64  6.3000000000000E-01 -8.1766383744105E-01  7.6017701272518E-01  1.5077649731642E+00
65  6.4000000000000E-01 -6.9854035699794E-01  7.2021139292936E-01  1.6285478941677E+00
66  6.5000000000000E-01 -5.7568086657300E-01  6.8070236164285E-01  1.7439038744096E+00
67  6.6000000000000E-01 -4.5066083556086E-01  6.4175773569760E-01  1.8518112992245E+00
68  6.7000000000000E-01 -3.2514051225587E-01  6.0348388173580E-01  1.9501425635347E+00
69  6.8000000000000E-01 -2.0083466049216E-01  5.6598499880674E-01  2.0367210113309E+00
70  6.9000000000000E-01 -7.9478305555180E-02  5.2936228240165E-01  2.1093855165655E+00
71  7.0000000000000E-01  3.7210573534671E-02  4.9371299021108E-01  2.1660605944343E+00
72  7.1000000000000E-01  1.4757029343380E-01  4.5912943510707E-01  2.2048295853668E+00
73  7.2000000000000E-01  2.5003540984928E-01  4.2569793519784E-01  2.2240081972795E+00
74  7.3000000000000E-01  3.4317601759670E-01  3.9349775407439E-01  2.2222155391298E+00
75  7.4000000000000E-01  4.2573503212078E-01  3.6260006640770E-01  2.1984397406858E+00
76  7.5000000000000E-01  4.9666209420189E-01  3.3306698475149E-01  2.1520953352663E+00
77  7.6000000000000E-01  5.5514281234802E-01  3.0495068270409E-01  2.0830697844193E+00
78  7.7000000000000E-01  6.0062218450529E-01  2.7829264748682E-01  1.9917568412884E+00
79  7.8000000000000E-01  6.3282121833817E-01  2.5312309156911E-01  1.8790748727984E+00
80  7.9000000000000E-01  6.5174599118369E-01  2.2946054833250E-01  1.7464687747432E+00
81  8.0000000000000E-01  6.5768864855772E-01  2.0731167109265E-01  1.5958946990653E+00
82  8.1000000000000E-01  6.5122012363620E-01  1.8667124831231E-01  1.4297874459379E+00
83  8.2000000000000E-01  6.3317465788721E-01  1.6752244080048E-01  1.2510110287599E+00
84  8.3000000000000E-01  6.0462650252071E-01  1.4983723939152E-01  1.0627935702007E+00
85  8.4000000000000E-01  5.6685946872058E-01  1.3357713433958E-01  8.6864830361443E-01
86  8.5000000000000E-01  5.2133025898696E-01  1.1869398075333E-01  6.7228300884187E-01
87  8.6000000000000E-01  4.6962674029656E-01  1.0513103813263E-01  4.7750067876993E-01
88  8.7000000000000E-01  4.1342250140274E-01  9.2824156723607E-02  2.8809457022400E-01
89  8.8000000000000E-01  3.5442916245068E-01  8.1703079218991E-02  1.0774102116938E-01
90  8.9000000000000E-01  2.9434796838422E-01  7.1692823484617E-02 -6.0106497824721E-02
91  9.0000000000000E-01  2.3482219416520E-01  6.2715110623839E-02 -2.1231869414267E-01
92  9.1000000000000E-01  1.7739181824616E-01  5.4689802867274E-02 -3.4618393788178E-01
93  9.2000000000000E-01  1.2345178257424E-01  4.7536317498517E-02 -4.5949109556699E-01
94  9.3000000000000E-01  7.4214957219136E-02  4.1174986229753E-02 -5.5059938517154E-01
95  9.4000000000000E-01  3.0680672835232E-02  3.5528333992206E-02 -6.1849353976138E-01
96  9.5000000000000E-01 -6.3906154973725E-03  3.0522256810492E-02 -6.6282327613467E-01
97  9.6000000000000E-01 -3.6496301927590E-02  2.6087085041020E-02 -6.8392684018618E-01
98  9.7000000000000E-01 -5.9404361136217E-02  2.2158525479264E-02 -6.8283921064339E-01
99  9.8000000000000E-01 -7.5160313012330E-02  1.8678483364703E-02 -6.6128635432721E-01
100  9.9000000000000E-01 -8.4089242677459E-02  1.5595772827624E-02 -6.2166771031924E-01
101  1.0000000000000E+00 -8.6793943377283E-02  1.2866730170722E-02 -5.6702956393430E-01
102  1.0100000000000E+00 -8.4149864999048E-02  1.0455739280089E-02 -5.0103051428758E-01
103  1.0200000000000E+00 -7.7249495791934E-02  8.3348480870096E-03 -4.2775212061495E-01
104  1.0300000000000E+00 -6.7267998765891E-02  6.4819885422842E-03 -3.5128307683001E-01
105  1.0400000000000E+00 -5.5390357571274E-02  4.8801682560970E-03 -2.7551730568793E-01
106  1.0500000000000E+00 -4.2763685913235E-02  3.5168428472579E-03 -2.0403595047036E-01
107  1.0600000000000E+00 -3.0400759908840E-02  2.3728721250592E-03 -1.3993242067029E-01
108  1.0700000000000E+00 -1.9228153373236E-02  1.4431813379077E-03 -8.5826931709268E-02
109  1.0800000000000E+00 -1.0085700234585E-02  7.3661825738307E-04 -4.3840108272688E-02
110  1.0900000000000E+00 -3.6415439188880E-03  2.6166306212704E-04 -1.5467442679012E-02
111  1.1000000000000E+00 -3.8713266231089E-04  2.7653679153128E-05 -1.6106264799841E-03
112  1.1100000000000E+00  1.4439044367659E-05 -1.0271850300259E-06  5.9315881826982E-05
113  1.1200000000000E+00  1.7717281311291E-06 -1.2639317136253E-07  7.4049923385181E-06
114  1.13  0.  0.  0.
115  1.14  0.  0.  0.
116  1.15  0.  0.  0.
117  1.16  0.  0.  0.
118  1.17  0.  0.  0.
119  1.18  0.  0.  0.
120  1.19  0.  0.  0.
121  1.20  0.  0.  0.
122  1.21  0.  0.  0.
123  1.22  0.  0.  0.
124  1.23  0.  0.  0.
125  1.24  0.  0.  0.
126  1.25  0.  0.  0.
127  1.26  0.  0.  0.
128  1.27  0.  0.  0.
129  1.28  0.  0.  0.
130  1.29  0.  0.  0.
131  1.30  0.  0.  0.
132  1.31  0.  0.  0.
133  1.32  0.  0.  0.
134  1.33  0.  0.  0.
135  1.34  0.  0.  0.
136  1.35  0.  0.  0.
137  1.36  0.  0.  0.
138  1.37  0.  0.  0.
139  1.38  0.  0.  0.
140  1.39  0.  0.  0.
141  1.40  0.  0.  0.
142  1.41  0.  0.  0.
143  1.42  0.  0.  0.
144  1.43  0.  0.  0.
145  1.44  0.  0.  0.
146  1.45  0.  0.  0.
147  1.46  0.  0.  0.
148  1.47  0.  0.  0.
149  1.48  0.  0.  0.
150  1.49  0.  0.  0.
151  1.50  0.  0.  0.
152  1.51  0.  0.  0.
153  1.52  0.  0.  0.
154  1.53  0.  0.  0.
155  1.54  0.  0.  0.
156  1.55  0.  0.  0.
157  1.56  0.  0.  0.
158  1.57  0.  0.  0.
159  1.58  0.  0.  0.
160  1.59  0.  0.  0.
161  1.60  0.  0.  0.
162  1.61  0.  0.  0.
163  1.62  0.  0.  0.
164  1.63  0.  0.  0.
165  1.64  0.  0.  0.
166  1.65  0.  0.  0.
167  1.66  0.  0.  0.
168  1.67  0.  0.  0.
169  1.68  0.  0.  0.
170  1.69  0.  0.  0.
171  1.70  0.  0.  0.
172  1.71  0.  0.  0.
173  1.72  0.  0.  0.
174  1.73  0.  0.  0.
175  1.74  0.  0.  0.
176  1.75  0.  0.  0.
177  1.76  0.  0.  0.
178  1.77  0.  0.  0.
179  1.78  0.  0.  0.
180  1.79  0.  0.  0.
181  1.80  0.  0.  0.
182  1.81  0.  0.  0.
183  1.82  0.  0.  0.
184  1.83  0.  0.  0.
185  1.84  0.  0.  0.
186  1.85  0.  0.  0.
187  1.86  0.  0.  0.
188  1.87  0.  0.  0.
189  1.88  0.  0.  0.
190  1.89  0.  0.  0.
191  1.90  0.  0.  0.
192  1.91  0.  0.  0.
193  1.92  0.  0.  0.
194  1.93  0.  0.  0.
195  1.94  0.  0.  0.
196  1.95  0.  0.  0.
197  1.96  0.  0.  0.
198  1.97  0.  0.  0.
199  1.98  0.  0.  0.
200  1.99  0.  0.  0.
201  2.00  0.  0.  0.
202  2.01  0.  0.  0.
203  2.02  0.  0.  0.
204  2.03  0.  0.  0.
205  2.04  0.  0.  0.
206  2.05  0.  0.  0.
207  2.06  0.  0.  0.
208  2.07  0.  0.  0.
209  2.08  0.  0.  0.
210  2.09  0.  0.  0.
211  2.10  0.  0.  0.
212  2.11  0.  0.  0.
213  2.12  0.  0.  0.
214  2.13  0.  0.  0.
215  2.14  0.  0.  0.
216  2.15  0.  0.  0.
217  2.16  0.  0.  0.
218  2.17  0.  0.  0.
219  2.18  0.  0.  0.
220  2.19  0.  0.  0.
221  2.20  0.  0.  0.
222  2.21  0.  0.  0.
223  2.22  0.  0.  0.
224  2.23  0.  0.  0.
225  2.24  0.  0.  0.
226  2.25  0.  0.  0.
227  2.26  0.  0.  0.
228  2.27  0.  0.  0.
229  2.28  0.  0.  0.
230  2.29  0.  0.  0.
231  2.30  0.  0.  0.
232  2.31  0.  0.  0.
233  2.32  0.  0.  0.
234  2.33  0.  0.  0.
235  2.34  0.  0.  0.
236  2.35  0.  0.  0.
237  2.36  0.  0.  0.
238  2.37  0.  0.  0.
239  2.38  0.  0.  0.
240  2.39  0.  0.  0.
241  2.40  0.  0.  0.
242  2.41  0.  0.  0.
243  2.42  0.  0.  0.
244  2.43  0.  0.  0.
245  2.44  0.  0.  0.
246  2.45  0.  0.  0.
247  2.46  0.  0.  0.
248  2.47  0.  0.  0.
249  2.48  0.  0.  0.
250  2.49  0.  0.  0.
251  2.50  0.  0.  0.
252  2.51  0.  0.  0.
253  2.52  0.  0.  0.
254  2.53  0.  0.  0.
255  2.54  0.  0.  0.
256  2.55  0.  0.  0.
257  2.56  0.  0.  0.
258  2.57  0.  0.  0.
259  2.58  0.  0.  0.
260  2.59  0.  0.  0.
261  2.60  0.  0.  0.
262  2.61  0.  0.  0.
263  2.62  0.  0.  0.
264  2.63  0.  0.  0.
265  2.64  0.  0.  0.
266  2.65  0.  0.  0.
267  2.66  0.  0.  0.
268  2.67  0.  0.  0.
269  2.68  0.  0.  0.
270  2.69  0.  0.  0.
271  2.70  0.  0.  0.
272  2.71  0.  0.  0.
273  2.72  0.  0.  0.
274  2.73  0.  0.  0.
275  2.74  0.  0.  0.
276  2.75  0.  0.  0.
277  2.76  0.  0.  0.
278  2.77  0.  0.  0.
279  2.78  0.  0.  0.
280  2.79  0.  0.  0.
281  2.80  0.  0.  0.
282  2.81  0.  0.  0.
283  2.82  0.  0.  0.
284  2.83  0.  0.  0.
285  2.84  0.  0.  0.
286  2.85  0.  0.  0.
287  2.86  0.  0.  0.
288  2.87  0.  0.  0.
289  2.88  0.  0.  0.
290  2.89  0.  0.  0.
291  2.90  0.  0.  0.
292  2.91  0.  0.  0.
293  2.92  0.  0.  0.
294  2.93  0.  0.  0.
295  2.94  0.  0.  0.
296  2.95  0.  0.  0.
297  2.96  0.  0.  0.
298  2.97  0.  0.  0.
299  2.98  0.  0.  0.
300  2.99  0.  0.  0.
301  3.00  0.  0.  0.
302  3.01  0.  0.  0.
303  3.02  0.  0.  0.
304  3.03  0.  0.  0.
305  3.04  0.  0.  0.
306  3.05  0.  0.  0.
307  3.06  0.  0.  0.
308  3.07  0.  0.  0.
309  3.08  0.  0.  0.
310  3.09  0.  0.  0.
311  3.10  0.  0.  0.
312  3.11  0.  0.  0.
313  3.12  0.  0.  0.
314  3.13  0.  0.  0.
315  3.14  0.  0.  0.
316  3.15  0.  0.  0.
317  3.16  0.  0.  0.
318  3.17  0.  0.  0.
319  3.18  0.  0.  0.
320  3.19  0.  0.  0.
321  3.20  0.  0.  0.
322  3.21  0.  0.  0.
323  3.22  0.  0.  0.
324  3.23  0.  0.  0.
325  3.24  0.  0.  0.
326  3.25  0.  0.  0.
327  3.26  0.  0.  0.
328  3.27  0.  0.  0.
329  3.28  0.  0.  0.
330  3.29  0.  0.  0.
331  3.30  0.  0.  0.
332  3.31  0.  0.  0.
333  3.32  0.  0.  0.
334  3.33  0.  0.  0.
335  3.34  0.  0.  0.
336  3.35  0.  0.  0.
337  3.36  0.  0.  0.
338  3.37  0.  0.  0.
339  3.38  0.  0.  0.
340  3.39  0.  0.  0.
341  3.40  0.  0.  0.
342  3.41  0.  0.  0.
343  3.42  0.  0.  0.
344  3.43  0.  0.  0.
345  3.44  0.  0.  0.
346  3.45  0.  0.  0.
347  3.46  0.  0.  0.
348  3.47  0.  0.  0.
349  3.48  0.  0.  0.
350  3.49  0.  0.  0.
351  3.50  0.  0.  0.
352  3.51  0.  0.  0.
353  3.52  0.  0.  0.
354  3.53  0.  0.  0.
355  3.54  0.  0.  0.
356  3.55  0.  0.  0.
357  3.56  0.  0.  0.
358  3.57  0.  0.  0.
359  3.58  0.  0.  0.
360  3.59  0.  0.  0.
361  3.60  0.  0.  0.
362  3.61  0.  0.  0.
363  3.62  0.  0.  0.
364  3.63  0.  0.  0.
365  3.64  0.  0.  0.
366  3.65  0.  0.  0.
367  3.66  0.  0.  0.
368  3.67  0.  0.  0.
369  3.68  0.  0.  0.
370  3.69  0.  0.  0.
371  3.70  0.  0.  0.
372  3.71  0.  0.  0.
373  3.72  0.  0.  0.
374  3.73  0.  0.  0.
375  3.74  0.  0.  0.
376  3.75  0.  0.  0.
377  3.76  0.  0.  0.
378  3.77  0.  0.  0.
379  3.78  0.  0.  0.
380  3.79  0.  0.  0.
381  3.80  0.  0.  0.
382  3.81  0.  0.  0.
383  3.82  0.  0.  0.
384  3.83  0.  0.  0.
385  3.84  0.  0.  0.
386  3.85  0.  0.  0.
387  3.86  0.  0.  0.
388  3.87  0.  0.  0.
389  3.88  0.  0.  0.
390  3.89  0.  0.  0.
391  3.90  0.  0.  0.
392  3.91  0.  0.  0.
393  3.92  0.  0.  0.
394  3.93  0.  0.  0.
395  3.94  0.  0.  0.
396  3.95  0.  0.  0.
397  3.96  0.  0.  0.
398  3.97  0.  0.  0.
399  3.98  0.  0.  0.
400  3.99  0.  0.  0.
401  4.00  0.  0.  0.
402  4.01  0.  0.  0.
403  4.02  0.  0.  0.
404  4.03  0.  0.  0.
405  4.04  0.  0.  0.
406  4.05  0.  0.  0.
407  4.06  0.  0.  0.
408  4.07  0.  0.  0.
409  4.08  0.  0.  0.
410  4.09  0.  0.  0.
411  4.10  0.  0.  0.
412  4.11  0.  0.  0.
413  4.12  0.  0.  0.
414  4.13  0.  0.  0.
415  4.14  0.  0.  0.
416  4.15  0.  0.  0.
417  4.16  0.  0.  0.
418  4.17  0.  0.  0.
419  4.18  0.  0.  0.
420  4.19  0.  0.  0.
421  4.20  0.  0.  0.
422  4.21  0.  0.  0.
423  4.22  0.  0.  0.
424  4.23  0.  0.  0.
425  4.24  0.  0.  0.
426  4.25  0.  0.  0.
427  4.26  0.  0.  0.
428  4.27  0.  0.  0.
429  4.28  0.  0.  0.
430  4.29  0.  0.  0.
431  4.30  0.  0.  0.
432  4.31  0.  0.  0.
433  4.32  0.  0.  0.
434  4.33  0.  0.  0.
435  4.34  0.  0.  0.
436  4.35  0.  0.  0.
437  4.36  0.  0.  0.
438  4.37  0.  0.  0.
439  4.38  0.  0.  0.
440  4.39  0.  0.  0.
441  4.40  0.  0.  0.
442  4.41  0.  0.  0.
443  4.42  0.  0.  0.
444  4.43  0.  0.  0.
445  4.44  0.  0.  0.
446  4.45  0.  0.  0.
447  4.46  0.  0.  0.
448  4.47  0.  0.  0.
449  4.48  0.  0.  0.
450  4.49  0.  0.  0.
451  4.50  0.  0.  0.
452  4.51  0.  0.  0.
453  4.52  0.  0.  0.
454  4.53  0.  0.  0.
455  4.54  0.  0.  0.
456  4.55  0.  0.  0.
457  4.56  0.  0.  0.
458  4.57  0.  0.  0.
459  4.58  0.  0.  0.
460  4.59  0.  0.  0.
461  4.60  0.  0.  0.
462  4.61  0.  0.  0.
463  4.62  0.  0.  0.
464  4.63  0.  0.  0.
465  4.64  0.  0.  0.
466  4.65  0.  0.  0.
467  4.66  0.  0.  0.
468  4.67  0.  0.  0.
469  4.68  0.  0.  0.
470  4.69  0.  0.  0.
471  4.70  0.  0.  0.
472  4.71  0.  0.  0.
473  4.72  0.  0.  0.
474  4.73  0.  0.  0.
475  4.74  0.  0.  0.
476  4.75  0.  0.  0.
477  4.76  0.  0.  0.
478  4.77  0.  0.  0.
479  4.78  0.  0.  0.
480  4.79  0.  0.  0.
481  4.80  0.  0.  0.
482  4.81  0.  0.  0.
483  4.82  0.  0.  0.
484  4.83  0.  0.  0.
485  4.84  0.  0.  0.
486  4.85  0.  0.  0.
487  4.86  0.  0.  0.
488  4.87  0.  0.  0.
489  4.88  0.  0.  0.
490  4.89  0.  0.  0.
491  4.90  0.  0.  0.
492  4.91  0.  0.  0.
493  4.92  0.  0.  0.
494  4.93  0.  0.  0.
495  4.94  0.  0.  0.
496  4.95  0.  0.  0.
497  4.96  0.  0.  0.
498  4.97  0.  0.  0.
499  4.98  0.  0.  0.
500  4.99  0.  0.  0.
501  5.00  0.  0.  0.
502  5.01  0.  0.  0.
503  5.02  0.  0.  0.
504  5.03  0.  0.  0.
505  5.04  0.  0.  0.
506  5.05  0.  0.  0.
507  5.06  0.  0.  0.
508  5.07  0.  0.  0.
509  5.08  0.  0.  0.
510  5.09  0.  0.  0.
511  5.10  0.  0.  0.
512  5.11  0.  0.  0.
513  5.12  0.  0.  0.
514  5.13  0.  0.  0.
515  5.14  0.  0.  0.
516  5.15  0.  0.  0.
517  5.16  0.  0.  0.
518  5.17  0.  0.  0.
519  5.18  0.  0.  0.
520  5.19  0.  0.  0.
521  5.20  0.  0.  0.
522  5.21  0.  0.  0.
523  5.22  0.  0.  0.
524  5.23  0.  0.  0.
525  5.24  0.  0.  0.
526  5.25  0.  0.  0.
527  5.26  0.  0.  0.
528  5.27  0.  0.  0.
529  5.28  0.  0.  0.
530  5.29  0.  0.  0.
531  5.30  0.  0.  0.
532  5.31  0.  0.  0.
533  5.32  0.  0.  0.
534  5.33  0.  0.  0.
535  5.34  0.  0.  0.
536  5.35  0.  0.  0.
537  5.36  0.  0.  0.
538  5.37  0.  0.  0.
539  5.38  0.  0.  0.
540  5.39  0.  0.  0.
541  5.40  0.  0.  0.
542  5.41  0.  0.  0.
543  5.42  0.  0.  0.
544  5.43  0.  0.  0.
545  5.44  0.  0.  0.
546  5.45  0.  0.  0.
547  5.46  0.  0.  0.
548  5.47  0.  0.  0.
549  5.48  0.  0.  0.
550  5.49  0.  0.  0.
551  5.50  0.  0.  0.
552  5.51  0.  0.  0.
553  5.52  0.  0.  0.
554  5.53  0.  0.  0.
555  5.54  0.  0.  0.
556  5.55  0.  0.  0.
557  5.56  0.  0.  0.
558  5.57  0.  0.  0.
559  5.58  0.  0.  0.
560  5.59  0.  0.  0.
561  5.60  0.  0.  0.
562  5.61  0.  0.  0.
563  5.62  0.  0.  0.
564  5.63  0.  0.  0.
565  5.64  0.  0.  0.
566  5.65  0.  0.  0.
567  5.66  0.  0.  0.
568  5.67  0.  0.  0.
569  5.68  0.  0.  0.
570  5.69  0.  0.  0.
571  5.70  0.  0.  0.
572  5.71  0.  0.  0.
573  5.72  0.  0.  0.
574  5.73  0.  0.  0.
575  5.74  0.  0.  0.
576  5.75  0.  0.  0.
577  5.76  0.  0.  0.
578  5.77  0.  0.  0.
579  5.78  0.  0.  0.
580  5.79  0.  0.  0.
581  5.80  0.  0.  0.
582  5.81  0.  0.  0.
583  5.82  0.  0.  0.
584  5.83  0.  0.  0.
585  5.84  0.  0.  0.
586  5.85  0.  0.  0.
587  5.86  0.  0.  0.
588  5.87  0.  0.  0.
589  5.88  0.  0.  0.
590  5.89  0.  0.  0.
591  5.90  0.  0.  0.
592  5.91  0.  0.  0.
593  5.92  0.  0.  0.
594  5.93  0.  0.  0.
595  5.94  0.  0.  0.
596  5.95  0.  0.  0.
597  5.96  0.  0.  0.
598  5.97  0.  0.  0.
599  5.98  0.  0.  0.
600  5.99  0.  0.  0.
1                        -9.9265429024466E+00  6.9766054388514E-01 -3.0317415990627E-01 -1.1909717322832E-02
1  0.0000000000000E+00  1.1193620225169E-08  2.3773158483453E-07  2.2611089123270E-07 -1.4931492260672E-07
2  1.0000000000000E-02  3.1661961255083E-03  2.8084653748252E-03  9.6725745559654E-03  1.6578025673668E-03
3  2.0000000000000E-02  1.2637398419767E-02  1.1106027469941E-02  3.8477446208945E-02  6.6434636816263E-03
4  3.0000000000000E-02  2.8331800339090E-02  2.4513764633043E-02  8.5781248744691E-02  1.4991656096622E-02
5  4.0000000000000E-02  5.0114222721840E-02  4.2415239339903E-02  1.5054551731450E-01  2.6753324770843E-02
6  5.0000000000000E-02  7.7797836193210E-02  6.3978559263965E-02  2.3135187331720E-01  4.1985820634353E-02
7  6.0000000000000E-02  1.1114652288656E-01  8.8186112971092E-02  3.2643623557113E-01  6.0739865181752E-02
8  7.0000000000000E-02  1.4987782962363E-01  1.1387088485365E-01  4.3373105392704E-01  8.3044079488825E-02
9  8.0000000000000E-02  1.9366645350220E-01  1.3975801618655E-01  5.5091433536221E-01  1.0888796056539E-01
10  9.0000000000000E-02  2.4214819138017E-01  1.6451009361138E-01  6.7546404878639E-01  1.3820429576844E-01
11  1.0000000000000E-01  2.9492427727106E-01  1.8677452000416E-01  8.0471635926336E-01  1.7085206700022E-01
12  1.1000000000000E-01  3.5156602635744E-01  2.0523126021487E-01  9.3592605925566E-01  2.0660090738357E-01
13  1.2000000000000E-01  4.1161970128903E-01  2.1863925764230E-01  1.0663275360017E+00  2.4511813304232E-01
14  1.3000000000000E-01  4.7461151568226E-01  2.2587988642029E-01  1.1931946403564E+00  2.8595928280172E-01
15  1.4000000000000E-01  5.4005269122209E-01  2.2599593489614E-01  1.3138979014579E+00  3.2856296257571E-01
16  1.5000000000000E-01  6.0744448834961E-01  2.1822480334980E-01  1.4259576595792E+00  3.7225061452217E-01
17  1.6000000000000E-01  6.7628313599872E-01  2.0202483455869E-01  1.5270918608677E+00  4.1623162117193E-01
18  1.7000000000000E-01  7.4606459295693E-01  1.7709396998524E-01  1.6152574652319E+00  4.5961392065310E-01
19  1.8000000000000E-01  8.1628908185707E-01  1.4338022569261E-01  1.6886846540351E+00  5.0142006096394E-01
20  1.9000000000000E-01  8.8646534620910E-01  1.0108379820955E-01  1.7459032782495E+00  5.4060836984142E-01
21  2.0000000000000E-01  9.5611459088465E-01  5.0650928610352E-02  1.7857612505515E+00  5.7609867321104E-01
22  2.1000000000000E-01  1.0247740766932E+00 -7.2400397759073E-03  1.8074348466195E+00  6.0680177035072E-01
23  2.2000000000000E-01  1.0920003497722E+00 -7.1699690607323E-02  1.8104311320333E+00  6.3165167790766E-01
24  2.3000000000000E-01  1.1573720961039E+00 -1.4165468162961E-01  1.7945829627047E+00  6.4963949679235E-01
25  2.4000000000000E-01  1.2204926202655E+00 -2.1587983485263E-01  1.7600372107330E+00  6.5984764321175E-01
26  2.5000000000000E-01  1.2809919552493E+00 -2.9303384106549E-01  1.7072370373079E+00  6.6148312331327E-01
27  2.6000000000000E-01  1.3385286166489E+00 -3.7169715325291E-01  1.6368991646320E+00  6.5390852358198E-01
28  2.7000000000000E-01  1.3927910195643E+00 -4.5041060712962E-01  1.5499871863798E+00  6.3666943748868E-01
29  2.8000000000000E-01  1.4434985801403E+00 -5.2771333156338E-01  1.4476819993498E+00  6.0951715178793E-01
30  2.9000000000000E-01  1.4904025257293E+00 -6.0217859512164E-01  1.3313504379111E+00  5.7242556987119E-01
31  3.0000000000000E-01  1.5332864383092E+00 -6.7244637290402E-01  1.2025131496628E+00  5.2560154904938E-01
32  3.1000000000000E-01  1.5719665551169E+00 -7.3725160353294E-01  1.0628126690997E+00  4.6948806597191E-01
33  3.2000000000000E-01  1.6062918486515E+00 -7.9544733102863E-01  9.1398253123424E-01  4.0475989031234E-01
34  3.3000000000000E-01  1.6361439054801E+00 -8.4602218008445E-01  7.5781812552563E-01  3.3231173080436E-01
35  3.4000000000000E-01  1.6614366199018E+00 -8.8811188462538E-01  5.9614982951089E-01  2.5323910826943E-01
36  3.5000000000000E-01  1.6821157147630E+00 -9.2100486647064E-01  4.3081878928203E-01  1.6881249561370E-01
37  3.6000000000000E-01  1.6981580978658E+00 -9.4414213125976E-01  2.6365553871453E-01  8.0445533148337E-02
38  3.7000000000000E-01  1.7095710587366E+00 -9.5711200073733E-01  9.6461479374589E-02 -1.0341632168696E-02
39  3.8000000000000E-01  1.7163913073092E+00 -9.5964042306707E-01 -6.9006913875608E-02 -1.0196263300126E-01
40  3.9000000000000E-01  1.7186838535353E+00 -9.5157778642087E-01 -2.3105143334118E-01 -1.9280738783875E-01
41  4.0000000000000E-01  1.7165407252769E+00 -9.3288329772806E-01 -3.8804340745337E-01 -2.8128532039065E-01
42  4.1000000000000E-01  1.7100795211952E+00 -9.0360807229259E-01 -5.3843336048596E-01 -3.6586774285611E-01
43  4.2000000000000E-01  1.6994417958140E+00 -8.6387810739594E-01 -6.8075957108803E-01 -4.4512787221658E-01
44  4.3000000000000E-01  1.6847912755398E+00 -8.1387828285590E-01 -8.1365604785929E-01 -5.1777702820059E-01
45  4.4000000000000E-01  1.6663119071170E+00 -7.5383844515419E-01 -9.3586041481194E-01 -5.8269569963825E-01
46  4.5000000000000E-01  1.6442057437031E+00 -6.8402249298762E-01 -1.0462221403905E+00 -6.3895835770875E-01
47  4.6000000000000E-01  1.6186906783085E+00 -6.0472119702989E-01 -1.1437114540854E+00 -6.8585113302250E-01
48  4.7000000000000E-01  1.5899980395499E+00 -5.1624926348611E-01 -1.2274291793684E+00 -7.2288174954144E-01
49  4.8000000000000E-01  1.5583700702886E+00 -4.1894689955486E-01 -1.2966175766951E+00 -7.4978141139715E-01
50  4.9000000000000E-01  1.5240573154697E+00 -3.1318587040892E-01 -1.3506721426653E+00 -7.6649865686797E-01
51  5.0000000000000E-01  1.4873159510688E+00 -1.9937976385000E-01 -1.3891541587542E+00 -7.7318551452341E-01
52  5.1000000000000E-01  1.4484050911753E+00 -7.7997912848621E-02 -1.4118036333507E+00 -7.7017660698907E-01
53  5.2000000000000E-01  1.4075841146156E+00  5.0417819920817E-02 -1.4185521421631E+00 -7.5796213530741E-01
54  5.3000000000000E-01  1.3651100558532E+00  1.8523440602561E-01 -1.4095349520593E+00 -7.3715592961108E-01
55  5.4000000000000E-01  1.3212351069800E+00  3.2570834671244E-01 -1.3851017190622E+00 -7.0845995914750E-01
56  5.5000000000000E-01  1.2762042782126E+00  4.7096700439825E-01 -1.3458249885309E+00 -6.7262684761120E-01
57  5.6000000000000E-01  1.2302532633112E+00  6.1999193839498E-01 -1.2925056992233E+00 -6.3042203131883E-01
58  5.7000000000000E-01  1.1836065536505E+00  7.7160561409922E-01 -1.2261749061878E+00 -5.8258722338940E-01
59  5.8000000000000E-01  1.1364758402889E+00  9.2446279126994E-01 -1.1480909918152E+00 -5.2980680471957E-01
60  5.9000000000000E-01  1.0890587373694E+00  1.0770477693344E+00 -1.0597317296805E+00 -4.7267865279431E-01
61  6.0000000000000E-01  1.0415378526615E+00  1.2276784791957E+00 -9.6278069999442E-01 -4.1169074554974E-01
62  6.1000000000000E-01  9.9408022222863E-01  1.3745181676972E+00 -8.5910772476578E-01 -3.4720464553316E-01
63  6.2000000000000E-01  9.4683711633862E-01  1.5155951310964E+00 -7.5074318970415E-01 -2.7944668780676E-01
64  6.3000000000000E-01  8.9994421313930E-01  1.6488306281770E+00 -6.3984634153604E-01 -2.0850737389063E-01
65  6.4000000000000E-01  8.5352212565969E-01  1.7720747543054E+00 -5.2866788559824E-01 -1.3434912575398E-01
66  6.5000000000000E-01  8.0767725675930E-01  1.8831496985216E+00 -4.1950745021383E-01 -5.6822191985840E-02
67  6.6000000000000E-01  7.6250294613939E-01  1.9798994511590E+00 -3.1466672173949E-01  2.4311862837627E-02
68  6.7000000000000E-01  7.1808086385762E-01  2.0602446942874E+00 -2.1639927739473E-01  1.0935000032073E-01
69  6.8000000000000E-01  6.7448259634405E-01  2.1222413059578E+00 -1.2685834228631E-01  1.9861211274679E-01
70  6.9000000000000E-01  6.3177136406156E-01  2.1641406553708E+00 -4.8043863260319E-02  2.9240149364470E-01
71  7.0000000000000E-01  5.9000380500098E-01  2.1844496717827E+00  1.8249582859795E-02  3.9096309597676E-01
72  7.1000000000000E-01  5.4923175540457E-01  2.1819885453571E+00  7.0482452360612E-02  4.9444145206641E-01
73  7.2000000000000E-01  5.0950395865036E-01  2.1559438709179E+00  1.0741585147429E-01  6.0284020899407E-01
74  7.3000000000000E-01  4.7086763520391E-01  2.1059150805250E+00  1.2815152289995E-01  7.1598523480001E-01
75  7.4000000000000E-01  4.3336985096007E-01  2.0319521297302E+00  1.3216470951321E-01  8.3349317243694E-01
76  7.5000000000000E-01  3.9705862807525E-01  1.9345826037801E+00  1.1932855143360E-01  9.5474716108302E-01
77  7.6000000000000E-01  3.6198375135041E-01  1.8148266891027E+00  8.9928875153353E-02  1.0788812124493E+00
78  7.7000000000000E-01  3.2819723410435E-01  1.6741988041196E+00  4.4668484405175E-02  1.2047744304347E+00
79  7.8000000000000E-01  2.9575341992695E-01  1.5146950908113E+00 -1.5339645598017E-02  1.3310559060649E+00
80  7.9000000000000E-01  2.6470871030477E-01  1.3387664208037E+00 -8.8590545367835E-02  1.4561207188975E+00
81  8.0000000000000E-01  2.3512092238986E-01  1.1492770512485E+00 -1.7321673028823E-01  1.5781570457585E+00
82  8.1000000000000E-01  2.0704829562033E-01  9.4944955894262E-01 -2.6702855917285E-01  1.6951839342147E+00