Bk    ONCVPSP-4.0.1  r_core=   1.15197   1.15197   1.15197   1.35390
97.0000     37.0000      231012    zatom,zion,pspd
8 -116133   3     4   600     0    pspcod,pspxc,lmax,lloc,mmax,r2well
5.99000000  5.00000000  0.00000000    rchrg fchrg qchrg
3     2     2     2     0    nproj
1     1           extension_switch
0                         2.7158356658340E+01  3.1555447431069E+00 -1.1496091240729E+00
1  0.0000000000000E+00 -9.7328340054048E-08  3.2807987543348E-07  1.1515858405753E-08
2  1.0000000000000E-02  1.6077061636333E-01 -8.0162623758291E-02  2.8264664090036E-02
3  2.0000000000000E-02  3.2023574598505E-01 -1.5808218797665E-01  5.6473585534555E-02
4  3.0000000000000E-02  4.7711296428064E-01 -2.3158261192595E-01  8.4569272051233E-02
5  4.0000000000000E-02  6.3016525128133E-01 -2.9861938274385E-01  1.1249082427684E-01
6  5.0000000000000E-02  7.7822192156305E-01 -3.5733945549222E-01  1.4017245960329E-01
7  6.0000000000000E-02  9.2019750150973E-01 -4.0613434251887E-01  1.6754230026303E-01
8  7.0000000000000E-02  1.0551079902649E+00 -4.4368452818879E-01  1.9452149968269E-01
9  8.0000000000000E-02  1.1820840380530E+00 -4.6899367312992E-01  2.2102376960805E-01
10  9.0000000000000E-02  1.3003806899622E+00 -4.8141145793710E-01  2.4695535676492E-01
11  1.0000000000000E-01  1.4093834703487E+00 -4.8064434498084E-01  2.7221550226992E-01
12  1.1000000000000E-01  1.5086107178561E+00 -4.6675399211843E-01  2.9669740011043E-01
13  1.2000000000000E-01  1.5977122184256E+00 -4.4014351623218E-01  3.2028965328378E-01
14  1.3000000000000E-01  1.6764643183183E+00 -4.0153225981726E-01  3.4287820816213E-01
15  1.4000000000000E-01  1.7447618258835E+00 -3.5192014284403E-01  3.6434872988501E-01
16  1.5000000000000E-01  1.8026071247208E+00 -2.9254306839393E-01  3.8458936462663E-01
17  1.6000000000000E-01  1.8500970176107E+00 -2.2482117931762E-01  4.0349381897498E-01
18  1.7000000000000E-01  1.8874078964403E+00 -1.5030202183219E-01  4.2096467289236E-01
19  1.8000000000000E-01  1.9147798854311E+00 -7.0600850706644E-02  4.3691683125696E-01
20  1.9000000000000E-01  1.9325006313252E+00  1.2659597285479E-02  4.5128101019970E-01
21  2.0000000000000E-01  1.9408894138600E+00  9.7907533047104E-02  4.6400714866793E-01
22  2.1000000000000E-01  1.9402822229349E+00  1.8367650749851E-01  4.7506763309811E-01
23  2.2000000000000E-01  1.9310183964853E+00  2.6865370071501E-01  4.8446022390353E-01
24  2.3000000000000E-01  1.9134293373517E+00  3.5172029620106E-01  4.9221057672181E-01
25  2.4000000000000E-01  1.8878297313972E+00  4.3198245246053E-01  4.9837425896165E-01
26  2.5000000000000E-01  1.8545115766284E+00  5.0879176479056E-01  5.0303817298046E-01
27  2.6000000000000E-01  1.8137412085843E+00  5.8175453307597E-01  5.0632131095647E-01
28  2.7000000000000E-01  1.7657593757329E+00  6.5072959979353E-01  5.0837478284327E-01
29  2.8000000000000E-01  1.7107842852840E+00  7.1581497897887E-01  5.0938107727995E-01
30  2.9000000000000E-01  1.6490174099878E+00  7.7732394377038E-01  5.0955253547260E-01
31  3.0000000000000E-01  1.5806517253206E+00  8.3575165992161E-01  5.0912903930278E-01
32  3.1000000000000E-01  1.5058819387813E+00  8.9173382903151E-01  5.0837493665061E-01
33  3.2000000000000E-01  1.4249161831470E+00  9.4599912352579E-01  5.0757524851671E-01
34  3.3000000000000E-01  1.3379885770714E+00  9.9931744325664E-01  5.0703122335049E-01
35  3.4000000000000E-01  1.2453720121120E+00  1.0524461913460E+00  5.0705532341963E-01
36  3.5000000000000E-01  1.1473905069812E+00  1.1060768480559E+00  5.0796574549218E-01
37  3.6000000000000E-01  1.0444304783071E+00  1.1607841129118E+00  5.1008059300485E-01
38  3.7000000000000E-01  9.3695031222496E-01  1.2169797873909E+00  5.1371182878138E-01
39  3.8000000000000E-01  8.2548768138860E-01  1.2748733870499E+00  5.1915914584796E-01
40  3.9000000000000E-01  7.1066413520154E-01  1.3344412102132E+00  5.2670389866946E-01
41  4.0000000000000E-01  5.9318659401765E-01  1.3954052604584E+00  5.3660323800863E-01
42  4.1000000000000E-01  4.7384549677110E-01  1.4572230350324E+00  5.4908458951271E-01
43  4.2000000000000E-01  3.5350948136023E-01  1.5190887659825E+00  5.6434060909946E-01
44  4.3000000000000E-01  2.3311661308137E-01  1.5799462517825E+00  5.8252473740958E-01
45  4.4000000000000E-01  1.1366231319169E-01  1.6385129620224E+00  6.0374746129293E-01
46  4.5000000000000E-01 -3.8157280499061E-03  1.6933146539906E+00  6.2807337289059E-01
47  4.6000000000000E-01 -1.1825524692298E-01  1.7427293249190E+00  6.5551909685329E-01
48  4.7000000000000E-01 -2.2858919528661E-01  1.7850389533300E+00  6.8605213417335E-01
49  4.8000000000000E-01 -3.3376701857727E-01  1.8184871715919E+00  7.1959064764731E-01
50  4.9000000000000E-01 -4.3277675092157E-01  1.8413407714106E+00  7.5600418982357E-01
51  5.0000000000000E-01 -5.2466721301153E-01  1.8519527836927E+00  7.9511535014833E-01
52  5.1000000000000E-01 -6.0856958233351E-01  1.8488248000273E+00  8.3670227463169E-01
53  5.2000000000000E-01 -6.8371761636384E-01  1.8306662175816E+00  8.8050198942629E-01
54  5.3000000000000E-01 -7.4946584702755E-01  1.7964481916586E+00  9.2621443991422E-01
55  5.4000000000000E-01 -8.0530512760889E-01  1.7454502663026E+00  9.7350713984137E-01
56  5.5000000000000E-01 -8.5087499898206E-01  1.6772979156854E+00  1.0220203112452E+00
57  5.6000000000000E-01 -8.8597244720596E-01  1.5919895571843E+00  1.0713723858143E+00
58  5.7000000000000E-01 -9.1055674516872E-01  1.4899119782027E+00  1.1211657321968E+00
59  5.8000000000000E-01 -9.2475020247512E-01  1.3718435380399E+00  1.1709924718203E+00
60  5.9000000000000E-01 -9.2883478514954E-01  1.2389449472707E+00  1.2204402480248E+00
61  6.0000000000000E-01 -9.2324470480154E-01  1.0927378732225E+00  1.2690978196548E+00
62  6.1000000000000E-01 -9.0855521050262E-01  9.3507205425126E-01  1.3165603604567E+00
63  6.2000000000000E-01 -8.8546794081107E-01  7.6808201125507E-01  1.3624343593133E+00
64  6.3000000000000E-01 -8.5479330362422E-01  5.9413480714614E-01  1.4063420330393E+00
65  6.4000000000000E-01 -8.1743044389479E-01  4.1577061057471E-01  1.4479251825474E+00
66  6.5000000000000E-01 -7.7434543051527E-01  2.3563805817483E-01  1.4868484440133E+00
67  6.6000000000000E-01 -7.2654834150578E-01  5.6426571848944E-02  1.5228019084646E+00
68  6.7000000000000E-01 -6.7506994963018E-01 -1.1920213095879E-01  1.5555031052242E+00
69  6.8000000000000E-01 -6.2093870828383E-01 -2.8868109732210E-01  1.5846983660619E+00
70  6.9000000000000E-01 -5.6515871050768E-01 -4.4960161515612E-01  1.6101636069829E+00
71  7.0000000000000E-01 -5.0868924378660E-01 -5.9977111121554E-01  1.6317045825845E+00
72  7.1000000000000E-01 -4.5242649227132E-01 -7.3726370511172E-01  1.6491566831928E+00
73  7.2000000000000E-01 -3.9718784934573E-01 -8.6046194217365E-01  1.6623843569979E+00
74  7.3000000000000E-01 -3.4369920081342E-01 -9.6808856390759E-01  1.6712802477072E+00
75  7.4000000000000E-01 -2.9258542660481E-01 -1.0592275445571E+00  1.6757641425213E+00
76  7.5000000000000E-01 -2.4436425129007E-01 -1.1333340111903E+00  1.6757818253747E+00
77  7.6000000000000E-01 -1.9944345541206E-01 -1.1902330577474E+00  1.6713039263554E+00
78  7.7000000000000E-01 -1.5812134519452E-01 -1.2301078457520E+00  1.6623248502106E+00
79  7.8000000000000E-01 -1.2059027172361E-01 -1.2534777419104E+00  1.6488618551565E+00
80  7.9000000000000E-01 -8.6942896013283E-02 -1.2611675628731E+00  1.6309543383189E+00
81  8.0000000000000E-01 -5.7180816597540E-02 -1.2542692692036E+00  1.6086633666234E+00
82  8.1000000000000E-01 -3.1225113922353E-02 -1.2340976654464E+00  1.5820714725364E+00
83  8.2000000000000E-01 -8.9283225230458E-03 -1.2021418149768E+00  1.5512827135359E+00
84  8.3000000000000E-01  9.9126813628279E-03 -1.1600139635875E+00  1.5164229734046E+00
85  8.4000000000000E-01  2.5543392443201E-02 -1.1093977837601E+00  1.4776404632982E+00
86  8.5000000000000E-01  3.8238489094036E-02 -1.0519977041553E+00  1.4351063619201E+00
87  8.6000000000000E-01  4.8289212357555E-02 -9.8949098037256E-01  1.3890155179141E+00
88  8.7000000000000E-01  5.5991728202403E-02 -9.2348399993966E-01  1.3395871245510E+00
89  8.8000000000000E-01  6.1636827865448E-02 -8.5547410504736E-01  1.2870652676742E+00
90  8.9000000000000E-01  6.5501248990853E-02 -7.8681797030742E-01  1.2317192432667E+00
91  9.0000000000000E-01  6.7840821468165E-02 -7.1870730015080E-01  1.1738435413929E+00
92  9.1000000000000E-01  6.8885559626148E-02 -6.5215232207345E-01  1.1137573989624E+00
93  9.2000000000000E-01  6.8836739908053E-02 -5.8797325815030E-01  1.0518038349249E+00
94  9.3000000000000E-01  6.7865923231859E-02 -5.2679966777130E-01  9.8834809811289E-01
95  9.4000000000000E-01  6.6115806379356E-02 -4.6907727779295E-01  9.2377547982429E-01
96  9.5000000000000E-01  6.3702718890995E-02 -4.1508165905168E-01  8.5848847003382E-01
97  9.6000000000000E-01  6.0720522354394E-02 -3.6493787526002E-01  7.9290326732695E-01
98  9.7000000000000E-01  5.7245618267727E-02 -3.1864502441306E-01  7.2744568761653E-01
99  9.8000000000000E-01  5.3342728647420E-02 -2.7610441411779E-01  6.6254655468280E-01
100  9.9000000000000E-01  4.9071079383142E-02 -2.3714995885096E-01  5.9863669567048E-01
101  1.0000000000000E+00  4.4490588370224E-02 -2.0157925451547E-01  5.3614170597327E-01
102  1.0100000000000E+00  3.9667636427093E-02 -1.6918366742594E-01  4.7547668940141E-01
103  1.0200000000000E+00  3.4679976045479E-02 -1.3977566242358E-01  4.1704122021827E-01
104  1.0300000000000E+00  2.9620307812223E-02 -1.1321147832286E-01  3.6121481246427E-01
105  1.0400000000000E+00  2.4598023221281E-02 -8.9407127154118E-02  3.0835321801259E-01
106  1.0500000000000E+00  1.9738571545816E-02 -6.8345534271165E-02  2.5878590715931E-01
107  1.0600000000000E+00  1.5179853531937E-02 -5.0072437234961E-02  2.1281511329324E-01
108  1.0700000000000E+00  1.1064971982123E-02 -3.4678410095217E-02  1.7071684566538E-01
109  1.0800000000000E+00  7.5305171965705E-03 -2.2263898112363E-02  1.3274424641843E-01
110  1.0900000000000E+00  4.6900241199655E-03 -1.2885408198108E-02  9.9134121453426E-02
111  1.1000000000000E+00  2.5823434755624E-03 -6.3944226432181E-03  7.0093704622561E-02
112  1.1100000000000E+00  1.1126161246859E-03 -2.2450541715201E-03  4.5788017754840E-02
113  1.1200000000000E+00  2.5535827012423E-04 -8.9952274062282E-05  2.6503007585492E-02
114  1.1300000000000E+00 -9.0134972022148E-05  5.7189863849242E-04  1.2434887626384E-02
115  1.1400000000000E+00 -9.6108307216631E-05  3.6139163083236E-04  3.6417112804706E-03
116  1.1500000000000E+00 -7.5121155969903E-06  2.4431492193231E-05  1.5194827446243E-04
117  1.1600000000000E+00 -4.8928444616788E-07  1.6109124863525E-06  1.0371627819207E-05
118  1.1700000000000E+00  1.1035273536753E-07 -3.7972453329163E-07 -2.9280365144244E-06
119  1.18  0.  0.  0.
120  1.19  0.  0.  0.
121  1.20  0.  0.  0.
122  1.21  0.  0.  0.
123  1.22  0.  0.  0.
124  1.23  0.  0.  0.
125  1.24  0.  0.  0.
126  1.25  0.  0.  0.
127  1.26  0.  0.  0.
128  1.27  0.  0.  0.
129  1.28  0.  0.  0.
130  1.29  0.  0.  0.
131  1.30  0.  0.  0.
132  1.31  0.  0.  0.
133  1.32  0.  0.  0.
134  1.33  0.  0.  0.
135  1.34  0.  0.  0.
136  1.35  0.  0.  0.
137  1.36  0.  0.  0.
138  1.37  0.  0.  0.
139  1.38  0.  0.  0.
140  1.39  0.  0.  0.
141  1.40  0.  0.  0.
142  1.41  0.  0.  0.
143  1.42  0.  0.  0.
144  1.43  0.  0.  0.
145  1.44  0.  0.  0.
146  1.45  0.  0.  0.
147  1.46  0.  0.  0.
148  1.47  0.  0.  0.
149  1.48  0.  0.  0.
150  1.49  0.  0.  0.
151  1.50  0.  0.  0.
152  1.51  0.  0.  0.
153  1.52  0.  0.  0.
154  1.53  0.  0.  0.
155  1.54  0.  0.  0.
156  1.55  0.  0.  0.
157  1.56  0.  0.  0.
158  1.57  0.  0.  0.
159  1.58  0.  0.  0.
160  1.59  0.  0.  0.
161  1.60  0.  0.  0.
162  1.61  0.  0.  0.
163  1.62  0.  0.  0.
164  1.63  0.  0.  0.
165  1.64  0.  0.  0.
166  1.65  0.  0.  0.
167  1.66  0.  0.  0.
168  1.67  0.  0.  0.
169  1.68  0.  0.  0.
170  1.69  0.  0.  0.
171  1.70  0.  0.  0.
172  1.71  0.  0.  0.
173  1.72  0.  0.  0.
174  1.73  0.  0.  0.
175  1.74  0.  0.  0.
176  1.75  0.  0.  0.
177  1.76  0.  0.  0.
178  1.77  0.  0.  0.
179  1.78  0.  0.  0.
180  1.79  0.  0.  0.
181  1.80  0.  0.  0.
182  1.81  0.  0.  0.
183  1.82  0.  0.  0.
184  1.83  0.  0.  0.
185  1.84  0.  0.  0.
186  1.85  0.  0.  0.
187  1.86  0.  0.  0.
188  1.87  0.  0.  0.
189  1.88  0.  0.  0.
190  1.89  0.  0.  0.
191  1.90  0.  0.  0.
192  1.91  0.  0.  0.
193  1.92  0.  0.  0.
194  1.93  0.  0.  0.
195  1.94  0.  0.  0.
196  1.95  0.  0.  0.
197  1.96  0.  0.  0.
198  1.97  0.  0.  0.
199  1.98  0.  0.  0.
200  1.99  0.  0.  0.
201  2.00  0.  0.  0.
202  2.01  0.  0.  0.
203  2.02  0.  0.  0.
204  2.03  0.  0.  0.
205  2.04  0.  0.  0.
206  2.05  0.  0.  0.
207  2.06  0.  0.  0.
208  2.07  0.  0.  0.
209  2.08  0.  0.  0.
210  2.09  0.  0.  0.
211  2.10  0.  0.  0.
212  2.11  0.  0.  0.
213  2.12  0.  0.  0.
214  2.13  0.  0.  0.
215  2.14  0.  0.  0.
216  2.15  0.  0.  0.
217  2.16  0.  0.  0.
218  2.17  0.  0.  0.
219  2.18  0.  0.  0.
220  2.19  0.  0.  0.
221  2.20  0.  0.  0.
222  2.21  0.  0.  0.
223  2.22  0.  0.  0.
224  2.23  0.  0.  0.
225  2.24  0.  0.  0.
226  2.25  0.  0.  0.
227  2.26  0.  0.  0.
228  2.27  0.  0.  0.
229  2.28  0.  0.  0.
230  2.29  0.  0.  0.
231  2.30  0.  0.  0.
232  2.31  0.  0.  0.
233  2.32  0.  0.  0.
234  2.33  0.  0.  0.
235  2.34  0.  0.  0.
236  2.35  0.  0.  0.
237  2.36  0.  0.  0.
238  2.37  0.  0.  0.
239  2.38  0.  0.  0.
240  2.39  0.  0.  0.
241  2.40  0.  0.  0.
242  2.41  0.  0.  0.
243  2.42  0.  0.  0.
244  2.43  0.  0.  0.
245  2.44  0.  0.  0.
246  2.45  0.  0.  0.
247  2.46  0.  0.  0.
248  2.47  0.  0.  0.
249  2.48  0.  0.  0.
250  2.49  0.  0.  0.
251  2.50  0.  0.  0.
252  2.51  0.  0.  0.
253  2.52  0.  0.  0.
254  2.53  0.  0.  0.
255  2.54  0.  0.  0.
256  2.55  0.  0.  0.
257  2.56  0.  0.  0.
258  2.57  0.  0.  0.
259  2.58  0.  0.  0.
260  2.59  0.  0.  0.
261  2.60  0.  0.  0.
262  2.61  0.  0.  0.
263  2.62  0.  0.  0.
264  2.63  0.  0.  0.
265  2.64  0.  0.  0.
266  2.65  0.  0.  0.
267  2.66  0.  0.  0.
268  2.67  0.  0.  0.
269  2.68  0.  0.  0.
270  2.69  0.  0.  0.
271  2.70  0.  0.  0.
272  2.71  0.  0.  0.
273  2.72  0.  0.  0.
274  2.73  0.  0.  0.
275  2.74  0.  0.  0.
276  2.75  0.  0.  0.
277  2.76  0.  0.  0.
278  2.77  0.  0.  0.
279  2.78  0.  0.  0.
280  2.79  0.  0.  0.
281  2.80  0.  0.  0.
282  2.81  0.  0.  0.
283  2.82  0.  0.  0.
284  2.83  0.  0.  0.
285  2.84  0.  0.  0.
286  2.85  0.  0.  0.
287  2.86  0.  0.  0.
288  2.87  0.  0.  0.
289  2.88  0.  0.  0.
290  2.89  0.  0.  0.
291  2.90  0.  0.  0.
292  2.91  0.  0.  0.
293  2.92  0.  0.  0.
294  2.93  0.  0.  0.
295  2.94  0.  0.  0.
296  2.95  0.  0.  0.
297  2.96  0.  0.  0.
298  2.97  0.  0.  0.
299  2.98  0.  0.  0.
300  2.99  0.  0.  0.
301  3.00  0.  0.  0.
302  3.01  0.  0.  0.
303  3.02  0.  0.  0.
304  3.03  0.  0.  0.
305  3.04  0.  0.  0.
306  3.05  0.  0.  0.
307  3.06  0.  0.  0.
308  3.07  0.  0.  0.
309  3.08  0.  0.  0.
310  3.09  0.  0.  0.
311  3.10  0.  0.  0.
312  3.11  0.  0.  0.
313  3.12  0.  0.  0.
314  3.13  0.  0.  0.
315  3.14  0.  0.  0.
316  3.15  0.  0.  0.
317  3.16  0.  0.  0.
318  3.17  0.  0.  0.
319  3.18  0.  0.  0.
320  3.19  0.  0.  0.
321  3.20  0.  0.  0.
322  3.21  0.  0.  0.
323  3.22  0.  0.  0.
324  3.23  0.  0.  0.
325  3.24  0.  0.  0.
326  3.25  0.  0.  0.
327  3.26  0.  0.  0.
328  3.27  0.  0.  0.
329  3.28  0.  0.  0.
330  3.29  0.  0.  0.
331  3.30  0.  0.  0.
332  3.31  0.  0.  0.
333  3.32  0.  0.  0.
334  3.33  0.  0.  0.
335  3.34  0.  0.  0.
336  3.35  0.  0.  0.
337  3.36  0.  0.  0.
338  3.37  0.  0.  0.
339  3.38  0.  0.  0.
340  3.39  0.  0.  0.
341  3.40  0.  0.  0.
342  3.41  0.  0.  0.
343  3.42  0.  0.  0.
344  3.43  0.  0.  0.
345  3.44  0.  0.  0.
346  3.45  0.  0.  0.
347  3.46  0.  0.  0.
348  3.47  0.  0.  0.
349  3.48  0.  0.  0.
350  3.49  0.  0.  0.
351  3.50  0.  0.  0.
352  3.51  0.  0.  0.
353  3.52  0.  0.  0.
354  3.53  0.  0.  0.
355  3.54  0.  0.  0.
356  3.55  0.  0.  0.
357  3.56  0.  0.  0.
358  3.57  0.  0.  0.
359  3.58  0.  0.  0.
360  3.59  0.  0.  0.
361  3.60  0.  0.  0.
362  3.61  0.  0.  0.
363  3.62  0.  0.  0.
364  3.63  0.  0.  0.
365  3.64  0.  0.  0.
366  3.65  0.  0.  0.
367  3.66  0.  0.  0.
368  3.67  0.  0.  0.
369  3.68  0.  0.  0.
370  3.69  0.  0.  0.
371  3.70  0.  0.  0.
372  3.71  0.  0.  0.
373  3.72  0.  0.  0.
374  3.73  0.  0.  0.
375  3.74  0.  0.  0.
376  3.75  0.  0.  0.
377  3.76  0.  0.  0.
378  3.77  0.  0.  0.
379  3.78  0.  0.  0.
380  3.79  0.  0.  0.
381  3.80  0.  0.  0.
382  3.81  0.  0.  0.
383  3.82  0.  0.  0.
384  3.83  0.  0.  0.
385  3.84  0.  0.  0.
386  3.85  0.  0.  0.
387  3.86  0.  0.  0.
388  3.87  0.  0.  0.
389  3.88  0.  0.  0.
390  3.89  0.  0.  0.
391  3.90  0.  0.  0.
392  3.91  0.  0.  0.
393  3.92  0.  0.  0.
394  3.93  0.  0.  0.
395  3.94  0.  0.  0.
396  3.95  0.  0.  0.
397  3.96  0.  0.  0.
398  3.97  0.  0.  0.
399  3.98  0.  0.  0.
400  3.99  0.  0.  0.
401  4.00  0.  0.  0.
402  4.01  0.  0.  0.
403  4.02  0.  0.  0.
404  4.03  0.  0.  0.
405  4.04  0.  0.  0.
406  4.05  0.  0.  0.
407  4.06  0.  0.  0.
408  4.07  0.  0.  0.
409  4.08  0.  0.  0.
410  4.09  0.  0.  0.
411  4.10  0.  0.  0.
412  4.11  0.  0.  0.
413  4.12  0.  0.  0.
414  4.13  0.  0.  0.
415  4.14  0.  0.  0.
416  4.15  0.  0.  0.
417  4.16  0.  0.  0.
418  4.17  0.  0.  0.
419  4.18  0.  0.  0.
420  4.19  0.  0.  0.
421  4.20  0.  0.  0.
422  4.21  0.  0.  0.
423  4.22  0.  0.  0.
424  4.23  0.  0.  0.
425  4.24  0.  0.  0.
426  4.25  0.  0.  0.
427  4.26  0.  0.  0.
428  4.27  0.  0.  0.
429  4.28  0.  0.  0.
430  4.29  0.  0.  0.
431  4.30  0.  0.  0.
432  4.31  0.  0.  0.
433  4.32  0.  0.  0.
434  4.33  0.  0.  0.
435  4.34  0.  0.  0.
436  4.35  0.  0.  0.
437  4.36  0.  0.  0.
438  4.37  0.  0.  0.
439  4.38  0.  0.  0.
440  4.39  0.  0.  0.
441  4.40  0.  0.  0.
442  4.41  0.  0.  0.
443  4.42  0.  0.  0.
444  4.43  0.  0.  0.
445  4.44  0.  0.  0.
446  4.45  0.  0.  0.
447  4.46  0.  0.  0.
448  4.47  0.  0.  0.
449  4.48  0.  0.  0.
450  4.49  0.  0.  0.
451  4.50  0.  0.  0.
452  4.51  0.  0.  0.
453  4.52  0.  0.  0.
454  4.53  0.  0.  0.
455  4.54  0.  0.  0.
456  4.55  0.  0.  0.
457  4.56  0.  0.  0.
458  4.57  0.  0.  0.
459  4.58  0.  0.  0.
460  4.59  0.  0.  0.
461  4.60  0.  0.  0.
462  4.61  0.  0.  0.
463  4.62  0.  0.  0.
464  4.63  0.  0.  0.
465  4.64  0.  0.  0.
466  4.65  0.  0.  0.
467  4.66  0.  0.  0.
468  4.67  0.  0.  0.
469  4.68  0.  0.  0.
470  4.69  0.  0.  0.
471  4.70  0.  0.  0.
472  4.71  0.  0.  0.
473  4.72  0.  0.  0.
474  4.73  0.  0.  0.
475  4.74  0.  0.  0.
476  4.75  0.  0.  0.
477  4.76  0.  0.  0.
478  4.77  0.  0.  0.
479  4.78  0.  0.  0.
480  4.79  0.  0.  0.
481  4.80  0.  0.  0.
482  4.81  0.  0.  0.
483  4.82  0.  0.  0.
484  4.83  0.  0.  0.
485  4.84  0.  0.  0.
486  4.85  0.  0.  0.
487  4.86  0.  0.  0.
488  4.87  0.  0.  0.
489  4.88  0.  0.  0.
490  4.89  0.  0.  0.
491  4.90  0.  0.  0.
492  4.91  0.  0.  0.
493  4.92  0.  0.  0.
494  4.93  0.  0.  0.
495  4.94  0.  0.  0.
496  4.95  0.  0.  0.
497  4.96  0.  0.  0.
498  4.97  0.  0.  0.
499  4.98  0.  0.  0.
500  4.99  0.  0.  0.
501  5.00  0.  0.  0.
502  5.01  0.  0.  0.
503  5.02  0.  0.  0.
504  5.03  0.  0.  0.
505  5.04  0.  0.  0.
506  5.05  0.  0.  0.
507  5.06  0.  0.  0.
508  5.07  0.  0.  0.
509  5.08  0.  0.  0.
510  5.09  0.  0.  0.
511  5.10  0.  0.  0.
512  5.11  0.  0.  0.
513  5.12  0.  0.  0.
514  5.13  0.  0.  0.
515  5.14  0.  0.  0.
516  5.15  0.  0.  0.
517  5.16  0.  0.  0.
518  5.17  0.  0.  0.
519  5.18  0.  0.  0.
520  5.19  0.  0.  0.
521  5.20  0.  0.  0.
522  5.21  0.  0.  0.
523  5.22  0.  0.  0.
524  5.23  0.  0.  0.
525  5.24  0.  0.  0.
526  5.25  0.  0.  0.
527  5.26  0.  0.  0.
528  5.27  0.  0.  0.
529  5.28  0.  0.  0.
530  5.29  0.  0.  0.
531  5.30  0.  0.  0.
532  5.31  0.  0.  0.
533  5.32  0.  0.  0.
534  5.33  0.  0.  0.
535  5.34  0.  0.  0.
536  5.35  0.  0.  0.
537  5.36  0.  0.  0.
538  5.37  0.  0.  0.
539  5.38  0.  0.  0.
540  5.39  0.  0.  0.
541  5.40  0.  0.  0.
542  5.41  0.  0.  0.
543  5.42  0.  0.  0.
544  5.43  0.  0.  0.
545  5.44  0.  0.  0.
546  5.45  0.  0.  0.
547  5.46  0.  0.  0.
548  5.47  0.  0.  0.
549  5.48  0.  0.  0.
550  5.49  0.  0.  0.
551  5.50  0.  0.  0.
552  5.51  0.  0.  0.
553  5.52  0.  0.  0.
554  5.53  0.  0.  0.
555  5.54  0.  0.  0.
556  5.55  0.  0.  0.
557  5.56  0.  0.  0.
558  5.57  0.  0.  0.
559  5.58  0.  0.  0.
560  5.59  0.  0.  0.
561  5.60  0.  0.  0.
562  5.61  0.  0.  0.
563  5.62  0.  0.  0.
564  5.63  0.  0.  0.
565  5.64  0.  0.  0.
566  5.65  0.  0.  0.
567  5.66  0.  0.  0.
568  5.67  0.  0.  0.
569  5.68  0.  0.  0.
570  5.69  0.  0.  0.
571  5.70  0.  0.  0.
572  5.71  0.  0.  0.
573  5.72  0.  0.  0.
574  5.73  0.  0.  0.
575  5.74  0.  0.  0.
576  5.75  0.  0.  0.
577  5.76  0.  0.  0.
578  5.77  0.  0.  0.
579  5.78  0.  0.  0.
580  5.79  0.  0.  0.
581  5.80  0.  0.  0.
582  5.81  0.  0.  0.
583  5.82  0.  0.  0.
584  5.83  0.  0.  0.
585  5.84  0.  0.  0.
586  5.85  0.  0.  0.
587  5.86  0.  0.  0.
588  5.87  0.  0.  0.
589  5.88  0.  0.  0.
590  5.89  0.  0.  0.
591  5.90  0.  0.  0.
592  5.91  0.  0.  0.
593  5.92  0.  0.  0.
594  5.93  0.  0.  0.
595  5.94  0.  0.  0.
596  5.95  0.  0.  0.
597  5.96  0.  0.  0.
598  5.97  0.  0.  0.
599  5.98  0.  0.  0.
600  5.99  0.  0.  0.
1                         8.8299010250234E+00 -9.2527968238428E-01
1  0.0000000000000E+00 -1.5989546575668E-08 -4.1075988881090E-08
2  1.0000000000000E-02  4.0985439709306E-03  1.0674111242199E-04
3  2.0000000000000E-02  1.6365299721578E-02  4.4338849334993E-04
4  3.0000000000000E-02  3.6713587577343E-02  1.0584946696129E-03
5  4.0000000000000E-02  6.4998782999838E-02  2.0306110203025E-03
6  5.0000000000000E-02  1.0101812115839E-01  3.4648345309763E-03
7  6.0000000000000E-02  1.4451050574370E-01  5.4881712192994E-03
8  7.0000000000000E-02  1.9515639991437E-01  8.2439049400041E-03
9  8.0000000000000E-02  2.5257789325632E-01  1.1885201353036E-02
10  9.0000000000000E-02  3.1633905026226E-01  1.6568208952806E-02
11  1.0000000000000E-01  3.8594665249032E-01  2.2444940929243E-02
12  1.1000000000000E-01  4.6085144782178E-01  2.9656232370711E-02
13  1.2000000000000E-01  5.4045001589995E-01  3.8325066452419E-02
14  1.3000000000000E-01  6.2408734891161E-01  4.8550550751931E-02
15  1.4000000000000E-01  7.1106023160570E-01  6.0402801108151E-02
16  1.5000000000000E-01  8.0062148428438E-01  7.3918956336048E-02
17  1.6000000000000E-01  8.9198510810224E-01  8.9100503871421E-02
18  1.7000000000000E-01  9.8433234420273E-01  1.0591204565116E-01
19  1.8000000000000E-01  1.0768186279859E+00  1.2428157713620E-01
20  1.9000000000000E-01  1.1685813882333E+00  1.4410229248952E-01
21  2.0000000000000E-01  1.2587486090808E+00  1.6523586781368E-01
22  2.1000000000000E-01  1.3464480421277E+00  1.8751711438260E-01
23  2.2000000000000E-01  1.4308169274859E+00  2.1075983730173E-01
24  2.3000000000000E-01  1.5110120574300E+00  2.3476368422060E-01
25  2.4000000000000E-01  1.5862199955398E+00  2.5932172563149E-01
26  2.5000000000000E-01  1.6556672487112E+00  2.8422847467466E-01
27  2.6000000000000E-01  1.7186301798601E+00  3.0928803165149E-01
28  2.7000000000000E-01  1.7744444460687E+00  3.3432202763992E-01
29  2.8000000000000E-01  1.8225137505944E+00  3.5917704329236E-01
30  2.9000000000000E-01  1.8623177076286E+00  3.8373119318342E-01
31  3.0000000000000E-01  1.8934186357433E+00  4.0789959259808E-01
32  3.1000000000000E-01  1.9154671191615E+00  4.3163846157294E-01
33  3.2000000000000E-01  1.9282062046463E+00  4.5494766904326E-01
34  3.3000000000000E-01  1.9314741350664E+00  4.7787157642275E-01
35  3.4000000000000E-01  1.9252055574778E+00  5.0049810282472E-01
36  3.5000000000000E-01  1.9094311826964E+00  5.2295600112085E-01
37  3.6000000000000E-01  1.8842759135042E+00  5.4541040263932E-01
38  3.7000000000000E-01  1.8499554984996E+00  5.6805675593626E-01
39  3.8000000000000E-01  1.8067718068132E+00  5.9111334914462E-01
40  3.9000000000000E-01  1.7551068541584E+00  6.1481266341447E-01
41  4.0000000000000E-01  1.6954157417620E+00  6.3939185460492E-01
42  4.1000000000000E-01  1.6282186955454E+00  6.6508269964485E-01
43  4.2000000000000E-01  1.5540924126206E+00  6.9210137118532E-01
44  4.3000000000000E-01  1.4736609350418E+00  7.2063841808825E-01
45  4.4000000000000E-01  1.3875862763828E+00  7.5084932918498E-01
46  4.5000000000000E-01  1.2965590249268E+00  7.8284604336562E-01
47  4.6000000000000E-01  1.2012891381466E+00  8.1668974073271E-01
48  4.7000000000000E-01  1.1024971270984E+00  8.5238520811393E-01
49  4.8000000000000E-01  1.0009058069703E+00  8.8987701902901E-01
50  4.9000000000000E-01  8.9723276218190E-01  9.2904770506820E-01
51  5.0000000000000E-01  7.9218364219817E-01  9.6971802478953E-01
52  5.1000000000000E-01  6.8644636883031E-01  1.0116493602372E+00
53  5.2000000000000E-01  5.8068629861339E-01  1.0545481928181E+00
54  5.3000000000000E-01  4.7554234630745E-01  1.0980725324771E+00
55  5.4000000000000E-01  3.7162403911361E-01  1.1418400998383E+00
56  5.5000000000000E-01  2.6950943724317E-01  1.1854379931067E+00
57  5.6000000000000E-01  1.6974382634437E-01  1.2284335127158E+00
58  5.7000000000000E-01  7.2839062152545E-02  1.2703857693451E+00
59  5.8000000000000E-01 -2.0726571432681E-02  1.3108576669905E+00
60  5.9000000000000E-01 -1.1050814207661E-01  1.3494278337409E+00
61  6.0000000000000E-01 -1.9609364300467E-01  1.3857020697634E+00
62  6.1000000000000E-01 -2.7710351554228E-01  1.4193238950785E+00
63  6.2000000000000E-01 -3.5319026498967E-01  1.4499838087738E+00
64  6.3000000000000E-01 -4.2403829822575E-01  1.4774269154952E+00
65  6.4000000000000E-01 -4.8936408881522E-01  1.5014586329164E+00
66  6.5000000000000E-01 -5.4891674749823E-01  1.5219482634180E+00
67  6.6000000000000E-01 -6.0247904394859E-01  1.5388302919318E+00
68  6.7000000000000E-01 -6.4986889095731E-01  1.5521033569592E+00
69  6.8000000000000E-01 -6.9094126622834E-01  1.5618269299932E+00
70  6.9000000000000E-01 -7.2559051133816E-01  1.5681158266381E+00
71  7.0000000000000E-01 -7.5375291369208E-01  1.5711327572630E+00
72  7.1000000000000E-01 -7.7540944705212E-01  1.5710792027345E+00
73  7.2000000000000E-01 -7.9058852083506E-01  1.5681849685909E+00
74  7.3000000000000E-01 -7.9936856914534E-01  1.5626968261738E+00
75  7.4000000000000E-01 -8.0188029844591E-01  1.5548666894177E+00
76  7.5000000000000E-01 -7.9830840864412E-01  1.5449397994414E+00
77  7.6000000000000E-01 -7.8889260663764E-01  1.5331433946126E+00
78  7.7000000000000E-01 -7.7392774415121E-01  1.5196763308852E+00
79  7.8000000000000E-01 -7.5376293278800E-01  1.5047000861164E+00
80  7.9000000000000E-01 -7.2879951805871E-01  1.4883315336735E+00
81  8.0000000000000E-01 -6.9948782985577E-01  1.4706378064936E+00
82  8.1000000000000E-01 -6.6632266822579E-01  1.4516334950725E+00
83  8.2000000000000E-01 -6.2983752891335E-01  1.4312803343797E+00
84  8.3000000000000E-01 -5.9059762134953E-01  1.4094894386345E+00
85  8.4000000000000E-01 -5.4919178072732E-01  1.3861260427962E+00
86  8.5000000000000E-01 -5.0622342364403E-01  1.3610166092970E+00
87  8.6000000000000E-01 -4.6230074158094E-01  1.3339580618326E+00
88  8.7000000000000E-01 -4.1802636636349E-01  1.3047288187480E+00
89  8.8000000000000E-01 -3.7398677495432E-01  1.2731012203080E+00
90  8.9000000000000E-01 -3.3074172591299E-01  1.2388548802289E+00
91  9.0000000000000E-01 -2.8881403529375E-01  1.2017904451034E+00
92  9.1000000000000E-01 -2.4868000462315E-01  1.1617432180725E+00
93  9.2000000000000E-01 -2.1076080721574E-01  1.1185960969457E+00
94  9.3000000000000E-01 -1.7541512112559E-01  1.0722912929113E+00
95  9.4000000000000E-01 -1.4293326755045E-01  1.0228403342410E+00
96  9.5000000000000E-01 -1.1353307294143E-01  9.7033191947547E-01
97  9.6000000000000E-01 -8.7357622222120E-02  9.1493726525453E-01
98  9.7000000000000E-01 -6.4475010571850E-02  8.5691269326569E-01
99  9.8000000000000E-01 -4.4880133575372E-02  7.9659931628781E-01
100  9.9000000000000E-01 -2.8498481980871E-02  7.3441981182650E-01
101  1.0000000000000E+00 -1.5191829703852E-02  6.7087240998146E-01
102  1.0100000000000E+00 -4.7656242146954E-03  6.0652236601280E-01
103  1.0200000000000E+00  3.0221909266354E-03  5.4199133382774E-01
104  1.0300000000000E+00  8.4512685850124E-03  4.7794520000382E-01
105  1.0400000000000E+00  1.1828285305683E-02  4.1508107510305E-01
106  1.0500000000000E+00  1.3476189203258E-02  3.5411426641320E-01
107  1.0600000000000E+00  1.3723812303164E-02  2.9576617003716E-01
108  1.0700000000000E+00  1.2896439477503E-02  2.4075411777840E-01
109  1.0800000000000E+00  1.1307930985601E-02  1.8978424956680E-01
110  1.0900000000000E+00  9.2553481851172E-03  1.4354896533687E-01
111  1.1000000000000E+00  6.9997536461984E-03  1.0270628008125E-01
112  1.1100000000000E+00  4.7490382530129E-03  6.7858411967554E-02
113  1.1200000000000E+00  2.7761713561707E-03  3.9710565068698E-02
114  1.1300000000000E+00  1.2797238112107E-03  1.8829921068674E-02
115  1.1400000000000E+00  3.5749898851252E-04  5.5710812478152E-03
116  1.1500000000000E+00  1.3672577945592E-05  2.3490217616286E-04
117  1.1600000000000E+00  9.4673896320226E-07  1.6025417210150E-05
118  1.1700000000000E+00 -2.7631917371723E-07 -4.5037825533979E-06
119  1.18  0.  0.
120  1.19  0.  0.
121  1.20  0.  0.
122  1.21  0.  0.
123  1.22  0.  0.
124  1.23  0.  0.
125  1.24  0.  0.
126  1.25  0.  0.
127  1.26  0.  0.
128  1.27  0.  0.
129  1.28  0.  0.
130  1.29  0.  0.
131  1.30  0.  0.
132  1.31  0.  0.
133  1.32  0.  0.
134  1.33  0.  0.
135  1.34  0.  0.
136  1.35  0.  0.
137  1.36  0.  0.
138  1.37  0.  0.
139  1.38  0.  0.
140  1.39  0.  0.
141  1.40  0.  0.
142  1.41  0.  0.
143  1.42  0.  0.
144  1.43  0.  0.
145  1.44  0.  0.
146  1.45  0.  0.
147  1.46  0.  0.
148  1.47  0.  0.
149  1.48  0.  0.
150  1.49  0.  0.
151  1.50  0.  0.
152  1.51  0.  0.
153  1.52  0.  0.
154  1.53  0.  0.
155  1.54  0.  0.
156  1.55  0.  0.
157  1.56  0.  0.
158  1.57  0.  0.
159  1.58  0.  0.
160  1.59  0.  0.
161  1.60  0.  0.
162  1.61  0.  0.
163  1.62  0.  0.
164  1.63  0.  0.
165  1.64  0.  0.