Bk    ONCVPSP-4.0.1  r_core=   1.15197   1.15197   1.15197   1.35390
97.0000     37.0000      231012    zatom,zion,pspd
8 -116133   3     4   600     0    pspcod,pspxc,lmax,lloc,mmax,r2well
5.99000000  5.00000000  0.00000000    rchrg fchrg qchrg
3     3     3     2    nproj
3     1           extension_switch
4     4     4    nprojso
0                         2.7342207092814E+01  3.1741424727849E+00 -1.1300649524721E+00
1  0.0000000000000E+00 -9.8704589390763E-08  3.3249724606943E-07  1.3139555637975E-08
2  1.0000000000000E-02  1.6068226297989E-01 -8.0795111257351E-02  2.7868097655430E-02
3  2.0000000000000E-02  3.2005785939114E-01 -1.5933071735278E-01  5.5688124474137E-02
4  3.0000000000000E-02  4.7684336411188E-01 -2.3341497261756E-01  8.3409943199768E-02
5  4.0000000000000E-02  6.2980110632015E-01 -3.0098893139662E-01  1.1097938797322E-01
6  5.0000000000000E-02  7.7776025240970E-01 -3.6018704236352E-01  1.3833650707096E-01
7  6.0000000000000E-02  9.1963581107001E-01 -4.0939074934983E-01  1.6541410425538E-01
8  7.0000000000000E-02  1.0544449902076E+00 -4.4727331265638E-01  1.9213666220388E-01
9  8.0000000000000E-02  1.1813204340899E+00 -4.7283429731144E-01  2.1841971834420E-01
10  9.0000000000000E-02  1.2995199851122E+00 -4.8542256570678E-01  2.4416974777099E-01
11  1.0000000000000E-01  1.4084327434356E+00 -4.8474704645136E-01  2.6928459023533E-01
12  1.1000000000000E-01  1.5075813344426E+00 -4.7087501243293E-01  2.9365443903103E-01
13  1.2000000000000E-01  1.5966204332262E+00 -4.4421807125819E-01  3.1716338954269E-01
14  1.3000000000000E-01  1.6753317317918E+00 -4.0550653238415E-01  3.3969152489808E-01
15  1.4000000000000E-01  1.7436156630422E+00 -3.5575324965721E-01  3.6111749621771E-01
16  1.5000000000000E-01  1.8014803109972E+00 -2.9620842897394E-01  3.8132153601155E-01
17  1.6000000000000E-01  1.8490280346196E+00 -2.2830722337818E-01  4.0018882594189E-01
18  1.7000000000000E-01  1.8864404093401E+00 -1.5361219939354E-01  4.1761312501743E-01
19  1.8000000000000E-01  1.9139621429593E+00 -7.3752938781305E-02  4.3350055180768E-01
20  1.9000000000000E-01  1.9318846490748E+00  9.6348676290498E-03  4.4777340489798E-01
21  2.0000000000000E-01  1.9405299605804E+00  9.4968476290963E-02  4.6037389987796E-01
22  2.1000000000000E-01  1.9402356382020E+00  1.8077302989928E-01  4.7126769890912E-01
23  2.2000000000000E-01  1.9313412756317E+00  2.6573028917902E-01  4.8044711047659E-01
24  2.3000000000000E-01  1.9141771257511E+00  3.4871932613092E-01  4.8793384230971E-01
25  2.4000000000000E-01  1.8890552748077E+00  4.2884767622428E-01  4.9378119955586E-01
26  2.5000000000000E-01  1.8562636770944E+00  5.0547183347604E-01  4.9807563289460E-01
27  2.6000000000000E-01  1.8160632362679E+00  5.7820640128582E-01  5.0093755706136E-01
28  2.7000000000000E-01  1.7686879859227E+00  6.4692166656959E-01  5.0252137878761E-01
29  2.8000000000000E-01  1.7143482867576E+00  7.1172982740662E-01  5.0301469394325E-01
30  2.9000000000000E-01  1.6532368259858E+00  7.7296055704083E-01  5.0263663609966E-01
31  3.0000000000000E-01  1.5855370818124E+00  8.3112701203252E-01  5.0163538217286E-01
32  3.1000000000000E-01  1.5114338067205E+00  8.8688377305069E-01  5.0028484457050E-01
33  3.2000000000000E-01  1.4311249923463E+00  9.4097852843318E-01  4.9888060265103E-01
34  3.3000000000000E-01  1.3448347095154E+00  9.9419956067354E-01  4.9773514860674E-01
35  3.4000000000000E-01  1.2528261723860E+00  1.0473212647036E+00  4.9717254342768E-01
36  3.5000000000000E-01  1.1554143574032E+00  1.1010500076738E+00  4.9752259675626E-01
37  3.6000000000000E-01  1.0529775167335E+00  1.1559726297668E+00  4.9911469963661E-01
38  3.7000000000000E-01  9.4596696173379E-01  1.2125097848286E+00  5.0227145090928E-01
39  3.8000000000000E-01  8.3491455347859E-01  1.2708761322523E+00  5.0730222591729E-01
40  3.9000000000000E-01  7.2043742209032E-01  1.3310491248962E+00  5.1449683999474E-01
41  4.0000000000000E-01  6.0323954131386E-01  1.3927478023322E+00  5.2411945875429E-01
42  4.1000000000000E-01  4.8410990541021E-01  1.4554226074572E+00  5.3640290244578E-01
43  4.2000000000000E-01  3.6391718731854E-01  1.5182568127662E+00  5.5154348273374E-01
44  4.3000000000000E-01  2.4360089503335E-01  1.5801796871709E+00  5.6969649736724E-01
45  4.4000000000000E-01  1.2415918187552E-01  1.6398910729105E+00  5.9097249175096E-01
46  4.5000000000000E-01  6.6336004031842E-03  1.6958965927528E+00  6.1543437684013E-01
47  4.6000000000000E-01 -1.0790878612997E-01  1.7465522877864E+00  6.4309547064616E-01
48  4.7000000000000E-01 -2.1839541144202E-01  1.7901171118788E+00  6.7391850660611E-01
49  4.8000000000000E-01 -3.2376971929391E-01  1.8248113948021E+00  7.0781562685651E-01
50  4.9000000000000E-01 -4.2301350038859E-01  1.8488791441288E+00  7.4464935281689E-01
51  5.0000000000000E-01 -5.1516932886918E-01  1.8606518955145E+00  7.8423450020734E-01
52  5.1000000000000E-01 -5.9936235839108E-01  1.8586117479223E+00  8.2634098146606E-01
53  5.2000000000000E-01 -6.7482074942733E-01  1.8414512372850E+00  8.7069741623312E-01
54  5.3000000000000E-01 -7.4089403818069E-01  1.8081278081379E+00  9.1699545080634E-01
55  5.4000000000000E-01 -7.9706882172532E-01  1.7579108334995E+00  9.6489467085554E-01
56  5.5000000000000E-01 -8.4298122130452E-01  1.6904194010643E+00  1.0140279787054E+00
57  5.6000000000000E-01 -8.7842569270928E-01  1.6056494180068E+00  1.0640072975498E+00
58  5.7000000000000E-01 -9.0335987524762E-01  1.5039889742364E+00  1.1144294602965E+00
59  5.8000000000000E-01 -9.1790530430335E-01  1.3862213296893E+00  1.1648821404801E+00
60  5.9000000000000E-01 -9.2234395179713E-01  1.2535153386891E+00  1.2149496867861E+00
61  6.0000000000000E-01 -9.1711069874204E-01  1.1074035763774E+00  1.2642187310321E+00
62  6.1000000000000E-01 -9.0278197928712E-01  9.4974887145040E-01  1.3122834516381E+00
63  6.2000000000000E-01 -8.8006096115645E-01  7.8270035939221E-01  1.3587503902305E+00
64  6.3000000000000E-01 -8.4975973862609E-01  6.0864053576501E-01  1.4032427375190E+00
65  6.4000000000000E-01 -8.1277910716275E-01  4.3012509656506E-01  1.4454040252801E+00
66  6.5000000000000E-01 -7.7008656033468E-01  2.4981759117005E-01  1.4849011834573E+00
67  6.6000000000000E-01 -7.2269319725317E-01  7.0421074866812E-02  1.5214269442393E+00
68  6.7000000000000E-01 -6.7163025120551E-01 -1.0539097271744E-01  1.5547015977066E+00
69  6.8000000000000E-01 -6.1792594689993E-01 -2.7504220153562E-01  1.5844741254220E+00
70  6.9000000000000E-01 -5.6258336546445E-01 -4.3611724263456E-01  1.6105227584078E+00
71  7.0000000000000E-01 -5.0655994457749E-01 -5.8641984724957E-01  1.6326550235941E+00
72  7.1000000000000E-01 -4.5074916831860E-01 -7.2402353830932E-01  1.6507073573892E+00
73  7.2000000000000E-01 -3.9596491070749E-01 -8.4731329397842E-01  1.6645443760135E+00
74  7.3000000000000E-01 -3.4292879230349E-01 -9.5501712523180E-01  1.6740578992494E+00
75  7.4000000000000E-01 -2.9226079495729E-01 -1.0462267854817E+00  1.6791658270429E+00
76  7.5000000000000E-01 -2.4447326040337E-01 -1.1204072450625E+00  1.6798109668687E+00
77  7.6000000000000E-01 -1.9996827852460E-01 -1.1773949615575E+00  1.6759599039908E+00
78  7.7000000000000E-01 -1.5903835534653E-01 -1.2173853634901E+00  1.6676019969653E+00
79  7.8000000000000E-01 -1.2187014337276E-01 -1.2409103256024E+00  1.6547485673009E+00
80  7.9000000000000E-01 -8.8550921567749E-02 -1.2488067359407E+00  1.6374323356666E+00
81  8.0000000000000E-01 -5.9077432307616E-02 -1.2421775273783E+00  1.6157071380471E+00
82  8.1000000000000E-01 -3.3366620436405E-02 -1.2223467603445E+00  1.5896479345629E+00
83  8.2000000000000E-01 -1.1267776867407E-02 -1.1908104933143E+00  1.5593511021303E+00
84  8.3000000000000E-01  7.4244332062027E-03 -1.1491852596540E+00  1.5249349806208E+00
85  8.4000000000000E-01  2.2956579478021E-02 -1.0991559831018E+00  1.4865406216039E+00
86  8.5000000000000E-01  3.5603217610953E-02 -1.0424251115654E+00  1.4443326700259E+00
87  8.6000000000000E-01  4.5654251382792E-02 -9.8066463457573E-01  1.3985002931463E+00
88  8.7000000000000E-01  5.3403323926224E-02 -9.1547248040016E-01  1.3492580585216E+00
89  8.8000000000000E-01  5.9137591977751E-02 -8.4833457299720E-01  1.2968466544866E+00
90  8.9000000000000E-01  6.3129163036080E-02 -7.8059357653036E-01  1.2415333430137E+00
91  9.0000000000000E-01  6.5628394732225E-02 -7.1342507670899E-01  1.1836120364633E+00
92  9.1000000000000E-01  6.6859171883316E-02 -6.4782165470003E-01  1.1234028968642E+00
93  9.2000000000000E-01  6.7016192856802E-02 -5.8458501136144E-01  1.0612513690818E+00
94  9.3000000000000E-01  6.6264215963730E-02 -5.2432600696973E-01  9.9752657750579E-01
95  9.4000000000000E-01  6.4739141122626E-02 -4.6747220296261E-01  9.3261903948415E-01
96  9.5000000000000E-01  6.2550733946888E-02 -4.1428223438720E-01  8.6693767726774E-01
97  9.6000000000000E-01  5.9786740001834E-02 -3.6486610956406E-01  8.0090614317736E-01
98  9.7000000000000E-01  5.6518086844285E-02 -3.1921032961162E-01  7.3495850937465E-01
99  9.8000000000000E-01  5.2804830383759E-02 -2.7720654497796E-01  6.6953441326212E-01
100  9.9000000000000E-01  4.8702469193999E-02 -2.3868231696950E-01  6.0507379123757E-01
101  1.0000000000000E+00  4.4268223942110E-02 -2.0343242470210E-01  5.4201137637653E-01
102  1.0100000000000E+00  3.9566856772062E-02 -1.7124904530288E-01  4.8077117858947E-01
103  1.0200000000000E+00  3.4675584309706E-02 -1.4194902870072E-01  4.2176120796618E-01
104  1.0300000000000E+00  2.9687614538248E-02 -1.1539637775804E-01  3.6536874232195E-01
105  1.0400000000000E+00  2.4713808370279E-02 -9.1517918331612E-02  3.1195647747367E-01
106  1.0500000000000E+00  1.9881927204263E-02 -7.0309989380990E-02  2.6185993267638E-01
107  1.0600000000000E+00  1.5332874066285E-02 -5.1833788023858E-02  2.1538651302540E-01
108  1.0700000000000E+00  1.1213264099876E-02 -3.6196755849597E-02  1.7281665486263E-01
109  1.0800000000000E+00  7.6635076106441E-03 -2.3516909941191E-02  1.3440745401080E-01
110  1.0900000000000E+00  4.8010560394009E-03 -1.3868305779337E-02  1.0039963500869E-01
111  1.1000000000000E+00  2.6680925258091E-03 -7.1178859439250E-03  7.1004785603572E-02
112  1.1100000000000E+00  1.1716936399471E-03 -2.7307019412564E-03  4.6393338766528E-02
113  1.1200000000000E+00  2.9026683011853E-04 -3.7516925265873E-04  2.6858900589196E-02
114  1.1300000000000E+00 -7.3938867544180E-05  4.3781405030300E-04  1.2604304078206E-02
115  1.1400000000000E+00 -9.1579617294019E-05  3.2254872930248E-04  3.6919941942524E-03
116  1.1500000000000E+00 -7.3522746328376E-06  2.2855682512478E-05  1.5406867916929E-04
117  1.1600000000000E+00 -4.7643833888622E-07  1.5022881916863E-06  1.0517057727389E-05
118  1.1700000000000E+00  1.0658435558225E-07 -3.4876850913402E-07 -2.9688684588640E-06
119  1.18  0.  0.  0.
120  1.19  0.  0.  0.
121  1.20  0.  0.  0.
122  1.21  0.  0.  0.
123  1.22  0.  0.  0.
124  1.23  0.  0.  0.
125  1.24  0.  0.  0.
126  1.25  0.  0.  0.
127  1.26  0.  0.  0.
128  1.27  0.  0.  0.
129  1.28  0.  0.  0.
130  1.29  0.  0.  0.
131  1.30  0.  0.  0.
132  1.31  0.  0.  0.
133  1.32  0.  0.  0.
134  1.33  0.  0.  0.
135  1.34  0.  0.  0.
136  1.35  0.  0.  0.
137  1.36  0.  0.  0.
138  1.37  0.  0.  0.
139  1.38  0.  0.  0.
140  1.39  0.  0.  0.
141  1.40  0.  0.  0.
142  1.41  0.  0.  0.
143  1.42  0.  0.  0.
144  1.43  0.  0.  0.
145  1.44  0.  0.  0.
146  1.45  0.  0.  0.
147  1.46  0.  0.  0.
148  1.47  0.  0.  0.
149  1.48  0.  0.  0.
150  1.49  0.  0.  0.
151  1.50  0.  0.  0.
152  1.51  0.  0.  0.
153  1.52  0.  0.  0.
154  1.53  0.  0.  0.
155  1.54  0.  0.  0.
156  1.55  0.  0.  0.
157  1.56  0.  0.  0.
158  1.57  0.  0.  0.
159  1.58  0.  0.  0.
160  1.59  0.  0.  0.
161  1.60  0.  0.  0.
162  1.61  0.  0.  0.
163  1.62  0.  0.  0.
164  1.63  0.  0.  0.
165  1.64  0.  0.  0.
166  1.65  0.  0.  0.
167  1.66  0.  0.  0.
168  1.67  0.  0.  0.
169  1.68  0.  0.  0.
170  1.69  0.  0.  0.
171  1.70  0.  0.  0.
172  1.71  0.  0.  0.
173  1.72  0.  0.  0.
174  1.73  0.  0.  0.
175  1.74  0.  0.  0.
176  1.75  0.  0.  0.
177  1.76  0.  0.  0.
178  1.77  0.  0.  0.
179  1.78  0.  0.  0.
180  1.79  0.  0.  0.
181  1.80  0.  0.  0.
182  1.81  0.  0.  0.
183  1.82  0.  0.  0.
184  1.83  0.  0.  0.
185  1.84  0.  0.  0.
186  1.85  0.  0.  0.
187  1.86  0.  0.  0.
188  1.87  0.  0.  0.
189  1.88  0.  0.  0.
190  1.89  0.  0.  0.
191  1.90  0.  0.  0.
192  1.91  0.  0.  0.
193  1.92  0.  0.  0.
194  1.93  0.  0.  0.
195  1.94  0.  0.  0.
196  1.95  0.  0.  0.
197  1.96  0.  0.  0.
198  1.97  0.  0.  0.
199  1.98  0.  0.  0.
200  1.99  0.  0.  0.
201  2.00  0.  0.  0.
202  2.01  0.  0.  0.
203  2.02  0.  0.  0.
204  2.03  0.  0.  0.
205  2.04  0.  0.  0.
206  2.05  0.  0.  0.
207  2.06  0.  0.  0.
208  2.07  0.  0.  0.
209  2.08  0.  0.  0.
210  2.09  0.  0.  0.
211  2.10  0.  0.  0.
212  2.11  0.  0.  0.
213  2.12  0.  0.  0.
214  2.13  0.  0.  0.
215  2.14  0.  0.  0.
216  2.15  0.  0.  0.
217  2.16  0.  0.  0.
218  2.17  0.  0.  0.
219  2.18  0.  0.  0.
220  2.19  0.  0.  0.
221  2.20  0.  0.  0.
222  2.21  0.  0.  0.
223  2.22  0.  0.  0.
224  2.23  0.  0.  0.
225  2.24  0.  0.  0.
226  2.25  0.  0.  0.
227  2.26  0.  0.  0.
228  2.27  0.  0.  0.
229  2.28  0.  0.  0.
230  2.29  0.  0.  0.
231  2.30  0.  0.  0.
232  2.31  0.  0.  0.
233  2.32  0.  0.  0.
234  2.33  0.  0.  0.
235  2.34  0.  0.  0.
236  2.35  0.  0.  0.
237  2.36  0.  0.  0.
238  2.37  0.  0.  0.
239  2.38  0.  0.  0.
240  2.39  0.  0.  0.
241  2.40  0.  0.  0.
242  2.41  0.  0.  0.
243  2.42  0.  0.  0.
244  2.43  0.  0.  0.
245  2.44  0.  0.  0.
246  2.45  0.  0.  0.
247  2.46  0.  0.  0.
248  2.47  0.  0.  0.
249  2.48  0.  0.  0.
250  2.49  0.  0.  0.
251  2.50  0.  0.  0.
252  2.51  0.  0.  0.
253  2.52  0.  0.  0.
254  2.53  0.  0.  0.
255  2.54  0.  0.  0.
256  2.55  0.  0.  0.
257  2.56  0.  0.  0.
258  2.57  0.  0.  0.
259  2.58  0.  0.  0.
260  2.59  0.  0.  0.
261  2.60  0.  0.  0.
262  2.61  0.  0.  0.
263  2.62  0.  0.  0.
264  2.63  0.  0.  0.
265  2.64  0.  0.  0.
266  2.65  0.  0.  0.
267  2.66  0.  0.  0.
268  2.67  0.  0.  0.
269  2.68  0.  0.  0.
270  2.69  0.  0.  0.
271  2.70  0.  0.  0.
272  2.71  0.  0.  0.
273  2.72  0.  0.  0.
274  2.73  0.  0.  0.
275  2.74  0.  0.  0.
276  2.75  0.  0.  0.
277  2.76  0.  0.  0.
278  2.77  0.  0.  0.
279  2.78  0.  0.  0.
280  2.79  0.  0.  0.
281  2.80  0.  0.  0.
282  2.81  0.  0.  0.
283  2.82  0.  0.  0.
284  2.83  0.  0.  0.
285  2.84  0.  0.  0.
286  2.85  0.  0.  0.
287  2.86  0.  0.  0.
288  2.87  0.  0.  0.
289  2.88  0.  0.  0.
290  2.89  0.  0.  0.
291  2.90  0.  0.  0.
292  2.91  0.  0.  0.
293  2.92  0.  0.  0.
294  2.93  0.  0.  0.
295  2.94  0.  0.  0.
296  2.95  0.  0.  0.
297  2.96  0.  0.  0.
298  2.97  0.  0.  0.
299  2.98  0.  0.  0.
300  2.99  0.  0.  0.
301  3.00  0.  0.  0.
302  3.01  0.  0.  0.
303  3.02  0.  0.  0.
304  3.03  0.  0.  0.
305  3.04  0.  0.  0.
306  3.05  0.  0.  0.
307  3.06  0.  0.  0.
308  3.07  0.  0.  0.
309  3.08  0.  0.  0.
310  3.09  0.  0.  0.
311  3.10  0.  0.  0.
312  3.11  0.  0.  0.
313  3.12  0.  0.  0.
314  3.13  0.  0.  0.
315  3.14  0.  0.  0.
316  3.15  0.  0.  0.
317  3.16  0.  0.  0.
318  3.17  0.  0.  0.
319  3.18  0.  0.  0.
320  3.19  0.  0.  0.
321  3.20  0.  0.  0.
322  3.21  0.  0.  0.
323  3.22  0.  0.  0.
324  3.23  0.  0.  0.
325  3.24  0.  0.  0.
326  3.25  0.  0.  0.
327  3.26  0.  0.  0.
328  3.27  0.  0.  0.
329  3.28  0.  0.  0.
330  3.29  0.  0.  0.
331  3.30  0.  0.  0.
332  3.31  0.  0.  0.
333  3.32  0.  0.  0.
334  3.33  0.  0.  0.
335  3.34  0.  0.  0.
336  3.35  0.  0.  0.
337  3.36  0.  0.  0.
338  3.37  0.  0.  0.
339  3.38  0.  0.  0.
340  3.39  0.  0.  0.
341  3.40  0.  0.  0.
342  3.41  0.  0.  0.
343  3.42  0.  0.  0.
344  3.43  0.  0.  0.
345  3.44  0.  0.  0.
346  3.45  0.  0.  0.
347  3.46  0.  0.  0.
348  3.47  0.  0.  0.
349  3.48  0.  0.  0.
350  3.49  0.  0.  0.
351  3.50  0.  0.  0.
352  3.51  0.  0.  0.
353  3.52  0.  0.  0.
354  3.53  0.  0.  0.
355  3.54  0.  0.  0.
356  3.55  0.  0.  0.
357  3.56  0.  0.  0.
358  3.57  0.  0.  0.
359  3.58  0.  0.  0.
360  3.59  0.  0.  0.
361  3.60  0.  0.  0.
362  3.61  0.  0.  0.
363  3.62  0.  0.  0.
364  3.63  0.  0.  0.
365  3.64  0.  0.  0.
366  3.65  0.  0.  0.
367  3.66  0.  0.  0.
368  3.67  0.  0.  0.
369  3.68  0.  0.  0.
370  3.69  0.  0.  0.
371  3.70  0.  0.  0.
372  3.71  0.  0.  0.
373  3.72  0.  0.  0.
374  3.73  0.  0.  0.
375  3.74  0.  0.  0.
376  3.75  0.  0.  0.
377  3.76  0.  0.  0.
378  3.77  0.  0.  0.
379  3.78  0.  0.  0.
380  3.79  0.  0.  0.
381  3.80  0.  0.  0.
382  3.81  0.  0.  0.
383  3.82  0.  0.  0.
384  3.83  0.  0.  0.
385  3.84  0.  0.  0.
386  3.85  0.  0.  0.
387  3.86  0.  0.  0.
388  3.87  0.  0.  0.
389  3.88  0.  0.  0.
390  3.89  0.  0.  0.
391  3.90  0.  0.  0.
392  3.91  0.  0.  0.
393  3.92  0.  0.  0.
394  3.93  0.  0.  0.
395  3.94  0.  0.  0.
396  3.95  0.  0.  0.
397  3.96  0.  0.  0.
398  3.97  0.  0.  0.
399  3.98  0.  0.  0.
400  3.99  0.  0.  0.
401  4.00  0.  0.  0.
402  4.01  0.  0.  0.
403  4.02  0.  0.  0.
404  4.03  0.  0.  0.
405  4.04  0.  0.  0.
406  4.05  0.  0.  0.
407  4.06  0.  0.  0.
408  4.07  0.  0.  0.
409  4.08  0.  0.  0.
410  4.09  0.  0.  0.
411  4.10  0.  0.  0.
412  4.11  0.  0.  0.
413  4.12  0.  0.  0.
414  4.13  0.  0.  0.
415  4.14  0.  0.  0.
416  4.15  0.  0.  0.
417  4.16  0.  0.  0.
418  4.17  0.  0.  0.
419  4.18  0.  0.  0.
420  4.19  0.  0.  0.
421  4.20  0.  0.  0.
422  4.21  0.  0.  0.
423  4.22  0.  0.  0.
424  4.23  0.  0.  0.
425  4.24  0.  0.  0.
426  4.25  0.  0.  0.
427  4.26  0.  0.  0.
428  4.27  0.  0.  0.
429  4.28  0.  0.  0.
430  4.29  0.  0.  0.
431  4.30  0.  0.  0.
432  4.31  0.  0.  0.
433  4.32  0.  0.  0.
434  4.33  0.  0.  0.
435  4.34  0.  0.  0.
436  4.35  0.  0.  0.
437  4.36  0.  0.  0.
438  4.37  0.  0.  0.
439  4.38  0.  0.  0.
440  4.39  0.  0.  0.
441  4.40  0.  0.  0.
442  4.41  0.  0.  0.
443  4.42  0.  0.  0.
444  4.43  0.  0.  0.
445  4.44  0.  0.  0.
446  4.45  0.  0.  0.
447  4.46  0.  0.  0.
448  4.47  0.  0.  0.
449  4.48  0.  0.  0.
450  4.49  0.  0.  0.
451  4.50  0.  0.  0.
452  4.51  0.  0.  0.
453  4.52  0.  0.  0.
454  4.53  0.  0.  0.
455  4.54  0.  0.  0.
456  4.55  0.  0.  0.
457  4.56  0.  0.  0.
458  4.57  0.  0.  0.
459  4.58  0.  0.  0.
460  4.59  0.  0.  0.
461  4.60  0.  0.  0.
462  4.61  0.  0.  0.
463  4.62  0.  0.  0.
464  4.63  0.  0.  0.
465  4.64  0.  0.  0.
466  4.65  0.  0.  0.
467  4.66  0.  0.  0.
468  4.67  0.  0.  0.
469  4.68  0.  0.  0.
470  4.69  0.  0.  0.
471  4.70  0.  0.  0.
472  4.71  0.  0.  0.
473  4.72  0.  0.  0.
474  4.73  0.  0.  0.
475  4.74  0.  0.  0.
476  4.75  0.  0.  0.
477  4.76  0.  0.  0.
478  4.77  0.  0.  0.
479  4.78  0.  0.  0.
480  4.79  0.  0.  0.
481  4.80  0.  0.  0.
482  4.81  0.  0.  0.
483  4.82  0.  0.  0.
484  4.83  0.  0.  0.
485  4.84  0.  0.  0.
486  4.85  0.  0.  0.
487  4.86  0.  0.  0.
488  4.87  0.  0.  0.
489  4.88  0.  0.  0.
490  4.89  0.  0.  0.
491  4.90  0.  0.  0.
492  4.91  0.  0.  0.
493  4.92  0.  0.  0.
494  4.93  0.  0.  0.
495  4.94  0.  0.  0.
496  4.95  0.  0.  0.
497  4.96  0.  0.  0.
498  4.97  0.  0.  0.
499  4.98  0.  0.  0.
500  4.99  0.  0.  0.
501  5.00  0.  0.  0.
502  5.01  0.  0.  0.
503  5.02  0.  0.  0.
504  5.03  0.  0.  0.
505  5.04  0.  0.  0.
506  5.05  0.  0.  0.
507  5.06  0.  0.  0.
508  5.07  0.  0.  0.
509  5.08  0.  0.  0.
510  5.09  0.  0.  0.
511  5.10  0.  0.  0.
512  5.11  0.  0.  0.
513  5.12  0.  0.  0.
514  5.13  0.  0.  0.
515  5.14  0.  0.  0.
516  5.15  0.  0.  0.
517  5.16  0.  0.  0.
518  5.17  0.  0.  0.
519  5.18  0.  0.  0.
520  5.19  0.  0.  0.
521  5.20  0.  0.  0.
522  5.21  0.  0.  0.
523  5.22  0.  0.  0.
524  5.23  0.  0.  0.
525  5.24  0.  0.  0.
526  5.25  0.  0.  0.
527  5.26  0.  0.  0.
528  5.27  0.  0.  0.
529  5.28  0.  0.  0.
530  5.29  0.  0.  0.
531  5.30  0.  0.  0.
532  5.31  0.  0.  0.
533  5.32  0.  0.  0.
534  5.33  0.  0.  0.
535  5.34  0.  0.  0.
536  5.35  0.  0.  0.
537  5.36  0.  0.  0.
538  5.37  0.  0.  0.
539  5.38  0.  0.  0.
540  5.39  0.  0.  0.
541  5.40  0.  0.  0.
542  5.41  0.  0.  0.
543  5.42  0.  0.  0.
544  5.43  0.  0.  0.
545  5.44  0.  0.  0.
546  5.45  0.  0.  0.
547  5.46  0.  0.  0.
548  5.47  0.  0.  0.
549  5.48  0.  0.  0.
550  5.49  0.  0.  0.
551  5.50  0.  0.  0.
552  5.51  0.  0.  0.
553  5.52  0.  0.  0.
554  5.53  0.  0.  0.
555  5.54  0.  0.  0.
556  5.55  0.  0.  0.
557  5.56  0.  0.  0.
558  5.57  0.  0.  0.
559  5.58  0.  0.  0.
560  5.59  0.  0.  0.
561  5.60  0.  0.  0.
562  5.61  0.  0.  0.
563  5.62  0.  0.  0.
564  5.63  0.  0.  0.
565  5.64  0.  0.  0.
566  5.65  0.  0.  0.
567  5.66  0.  0.  0.
568  5.67  0.  0.  0.
569  5.68  0.  0.  0.
570  5.69  0.  0.  0.
571  5.70  0.  0.  0.
572  5.71  0.  0.  0.
573  5.72  0.  0.  0.
574  5.73  0.  0.  0.
575  5.74  0.  0.  0.
576  5.75  0.  0.  0.
577  5.76  0.  0.  0.
578  5.77  0.  0.  0.
579  5.78  0.  0.  0.
580  5.79  0.  0.  0.
581  5.80  0.  0.  0.
582  5.81  0.  0.  0.
583  5.82  0.  0.  0.
584  5.83  0.  0.  0.
585  5.84  0.  0.  0.
586  5.85  0.  0.  0.
587  5.86  0.  0.  0.
588  5.87  0.  0.  0.
589  5.88  0.  0.  0.
590  5.89  0.  0.  0.
591  5.90  0.  0.  0.
592  5.91  0.  0.  0.
593  5.92  0.  0.  0.
594  5.93  0.  0.  0.
595  5.94  0.  0.  0.
596  5.95  0.  0.  0.
597  5.96  0.  0.  0.
598  5.97  0.  0.  0.
599  5.98  0.  0.  0.
600  5.99  0.  0.  0.
1                         8.3198307528136E+00 -9.9313649446343E-01  5.2883155184663E-02
1  0.0000000000000E+00 -1.5705866884819E-08 -3.4983095469066E-08 -5.0472110935118E-09
2  1.0000000000000E-02  4.1504255061273E-03  1.9518160720498E-04 -5.1374478612620E-03
3  2.0000000000000E-02  1.6571893333460E-02  7.9405145629611E-04 -2.0468328189301E-02
4  3.0000000000000E-02  3.7174939178971E-02  1.8359799809442E-03 -4.5749118125618E-02
5  4.0000000000000E-02  6.5810340507174E-02  3.3845940208478E-03 -8.0576838003202E-02
6  5.0000000000000E-02  1.0226898519309E-01  5.5248773315443E-03 -1.2439339562126E-01
7  6.0000000000000E-02  1.4628176902882E-01  8.3592804860066E-03 -1.7649167931332E-01
8  7.0000000000000E-02  1.9751959897920E-01  1.2003001367395E-02 -2.3602340593775E-01
9  8.0000000000000E-02  2.5559359477815E-01  1.6578632435430E-02 -3.0200872487258E-01
10  9.0000000000000E-02  3.2005559280391E-01  2.2210398206112E-02 -3.7334756944387E-01
11  1.0000000000000E-01  3.9039906255052E-01  2.9018224815831E-02 -4.4883273244237E-01
12  1.1000000000000E-01  4.6606054700738E-01  3.7111892381603E-02 -5.2716462226013E-01
13  1.2000000000000E-01  5.4642173366840E-01  4.6585519718740E-02 -6.0696763076648E-01
14  1.3000000000000E-01  6.3081225273330E-01  5.7512619817306E-02 -6.8680801371560E-01
15  1.4000000000000E-01  7.1851328357992E-01  6.9941943674455E-02 -7.6521314990434E-01
16  1.5000000000000E-01  8.0876203023453E-01  8.3894300369107E-02 -8.4069200743601E-01
17  1.6000000000000E-01  9.0075710200605E-01  9.9360503733696E-02 -9.1175660550356E-01
18  1.7000000000000E-01  9.9366480751720E-01  1.1630055201782E-01 -9.7694421950669E-01
19  1.8000000000000E-01  1.0866263400457E+00  1.3464409820274E-01 -1.0348400376462E+00
20  1.9000000000000E-01  1.1787658004811E+00  1.5429221696263E-01 -1.0840999400791E+00
21  2.0000000000000E-01  1.2691989724803E+00  1.7512042165852E-01 -1.1234730389952E+00
22  2.1000000000000E-01  1.3570427337674E+00  1.9698283322841E-01 -1.1518235912685E+00
23  2.2000000000000E-01  1.4414249591619E+00  2.1971735441941E-01 -1.1681518762381E+00
24  2.3000000000000E-01  1.5214947459615E+00  2.4315165941301E-01 -1.1716136210753E+00
25  2.4000000000000E-01  1.5964327717743E+00  2.6710977227400E-01 -1.1615375562863E+00
26  2.5000000000000E-01  1.6654615796822E+00  2.9141897931917E-01 -1.1374406950351E+00
27  2.6000000000000E-01  1.7278555764224E+00  3.1591680166955E-01 -1.0990409526984E+00
28  2.7000000000000E-01  1.7829505266033E+00  3.4045774578830E-01 -1.0462667575240E+00
29  2.8000000000000E-01  1.8301523300989E+00  3.6491955220128E-01 -9.7926334920380E-01
30  2.9000000000000E-01  1.8689448807213E+00  3.8920867592714E-01 -8.9839551893368E-01
31  3.0000000000000E-01  1.8988968218471E+00  4.1326475607268E-01 -8.0424661103832E-01
32  3.1000000000000E-01  1.9196670384069E+00  4.3706386583244E-01 -6.9761368103923E-01
33  3.2000000000000E-01  1.9310087538654E+00  4.6062037664032E-01 -5.7949878633508E-01
34  3.3000000000000E-01  1.9327721346199E+00  4.8398731997598E-01 -4.5109647134430E-01
35  3.4000000000000E-01  1.9249053415685E+00  5.0725518555627E-01 -3.1377759670119E-01
36  3.5000000000000E-01  1.9074540082348E+00  5.3054915332842E-01 -1.6906974939511E-01
37  3.6000000000000E-01  1.8805591654717E+00  5.5402481665630E-01 -1.8634555030036E-02
38  3.7000000000000E-01  1.8444536730524E+00  5.7786251309366E-01  1.3575770792079E-01
39  3.8000000000000E-01  1.7994572570210E+00  6.0226043491411E-01  2.9225572135097E-01
40  3.9000000000000E-01  1.7459702872102E+00  6.2742674194296E-01  4.4895643745721E-01
41  4.0000000000000E-01  1.6844664606166E+00  6.5357094220909E-01  6.0393550669463E-01
42  4.1000000000000E-01  1.6154845822764E+00  6.8089483974798E-01  7.5527821126497E-01
43  4.2000000000000E-01  1.5396196550137E+00  7.0958337210006E-01  9.0111027321056E-01
44  4.3000000000000E-01  1.4575135022637E+00  7.3979567159874E-01  1.0396279039478E+00
45  4.4000000000000E-01  1.3698451536640E+00  7.7165668378721E-01  1.1691264763596E+00
46  4.5000000000000E-01  1.2773212211032E+00  8.0524966305587E-01  1.2880272312044E+00
47  4.6000000000000E-01  1.1806664835076E+00  8.4060984013347E-01  1.3949014758839E+00
48  4.7000000000000E-01  1.0806148822217E+00  8.7771951913985E-01  1.4884917943287E+00
49  4.8000000000000E-01  9.7790110602202E-01  9.1650481470907E-01  1.5677298602591E+00
50  4.9000000000000E-01  8.7325291647616E-01  9.5683418381563E-01  1.6317505302241E+00
51  5.0000000000000E-01  7.6738433160141E-01  9.9851884433739E-01  1.6799019851982E+00
52  5.1000000000000E-01  6.6098974983742E-01  1.0413151053040E+00  1.7117517873728E+00
53  5.2000000000000E-01  5.5473905860437E-01  1.0849285646545E+00  1.7270888192133E+00
54  5.3000000000000E-01  4.4927373361322E-01  1.1290200617248E+00  1.7259211718575E+00
55  5.4000000000000E-01  3.4520389809511E-01  1.1732132061866E+00  1.7084701465247E+00
56  5.5000000000000E-01  2.4310627664517E-01  1.2171032452787E+00  1.6751606229019E+00
57  5.6000000000000E-01  1.4352294776439E-01  1.2602669792367E+00  1.6266081298331E+00
58  5.7000000000000E-01  4.6960773614976E-02  1.3022733929244E+00  1.5636030236814E+00
59  5.8000000000000E-01 -4.6108634028840E-02  1.3426946415172E+00  1.4870922365279E+00
60  5.9000000000000E-01 -1.3524856539603E-01  1.3811170109995E+00  1.3981590983731E+00
61  6.0000000000000E-01 -2.2005664112588E-01  1.4171514710521E+00  1.2980017637404E+00
62  6.1000000000000E-01 -3.0016417467827E-01  1.4504434489409E+00  1.1879107830700E+00
63  6.2000000000000E-01 -3.7523561656547E-01  1.4806814780662E+00  1.0692463531326E+00
64  6.3000000000000E-01 -4.4496821185377E-01  1.5076044131451E+00  9.4341575903518E-01
65  6.4000000000000E-01 -5.0909197972440E-01  1.5310069543166E+00  8.1185148438737E-01
66  6.5000000000000E-01 -5.6737009589028E-01  1.5507432830437E+00  6.7599041749798E-01
67  6.6000000000000E-01 -6.1959972652174E-01  1.5667286813880E+00  5.3725452213085E-01
68  6.7000000000000E-01 -6.6561332741187E-01  1.5789390805538E+00  3.9703327374337E-01
69  6.8000000000000E-01 -7.0528038591521E-01  1.5874085617963E+00  2.5666808890454E-01
70  6.9000000000000E-01 -7.3850954730689E-01  1.5922249099742E+00  1.1743889950406E-01
71  7.0000000000000E-01 -7.6525103322556E-01  1.5935233942515E+00 -1.9447052769398E-02
72  7.1000000000000E-01 -7.8549922933534E-01  1.5914790188662E+00 -1.5286419964656E-01
73  7.2000000000000E-01 -7.9929529370079E-01  1.5862975467833E+00 -2.8177547334380E-01
74  7.3000000000000E-01 -8.0672961788152E-01  1.5782056480494E+00 -4.0523710426813E-01
75  7.4000000000000E-01 -8.0794396045767E-01  1.5674405607301E+00 -5.2240156729806E-01
76  7.5000000000000E-01 -8.0313306836127E-01  1.5542396739073E+00 -6.3251889472145E-01
77  7.6000000000000E-01 -7.9254560547376E-01  1.5388304482892E+00 -7.3493660201608E-01
78  7.7000000000000E-01 -7.7648422058222E-01  1.5214210801183E+00 -8.2909848820374E-01
79  7.8000000000000E-01 -7.5530460775562E-01  1.5021922883906E+00 -9.1454257550331E-01
80  7.9000000000000E-01 -7.2941344094436E-01  1.4812905646898E+00 -9.9089844397875E-01
81  8.0000000000000E-01 -6.9926510023780E-01  1.4588231705414E+00 -1.0578841968417E+00
82  8.1000000000000E-01 -6.6535714854647E-01  1.4348551009852E+00 -1.1153032624909E+00
83  8.2000000000000E-01 -6.2822456305512E-01  1.4094081574307E+00 -1.1630412020845E+00
84  8.3000000000000E-01 -5.8843277396040E-01  1.3824621905551E+00 -1.2010626485838E+00
85  8.4000000000000E-01 -5.4656961194193E-01  1.3539584881062E+00 -1.2294084571038E+00
86  8.5000000000000E-01 -5.0323631361341E-01  1.3238051962332E+00 -1.2481930994944E+00
87  8.6000000000000E-01 -4.5903777893561E-01  1.2918845797278E+00 -1.2576022907718E+00
88  8.7000000000000E-01 -4.1457231437104E-01  1.2580618495954E+00 -1.2578907936354E+00
89  8.8000000000000E-01 -3.7042112866717E-01  1.2221952188153E+00 -1.2493803119289E+00
90  8.9000000000000E-01 -3.2713787300536E-01  1.1841467918288E+00 -1.2324573563169E+00
91  9.0000000000000E-01 -2.8523853252318E-01  1.1437938526625E+00 -1.2075709470485E+00
92  9.1000000000000E-01 -2.4519198088818E-01  1.1010400926415E+00 -1.1752300103861E+00
93  9.2000000000000E-01 -2.0741150298046E-01  1.0558263127942E+00 -1.1360003275312E+00
94  9.3000000000000E-01 -1.7224757251095E-01  1.0081401491396E+00 -1.0905009075683E+00
95  9.4000000000000E-01 -1.3998214162082E-01  9.5802440127519E-01 -1.0393996784174E+00
96  9.5000000000000E-01 -1.1082465861701E-01  9.0558359560597E-01 -9.8340842086041E-01
97  9.6000000000000E-01 -8.4909978803802E-02  8.5098848313373E-01 -9.2327690870325E-01
98  9.7000000000000E-01 -6.2298273062393E-02  7.9447825624127E-01 -8.5978626091251E-01
99  9.8000000000000E-01 -4.2976970814708E-02  7.3636036728098E-01 -7.9374155663771E-01