U     ONCVPSP-4.0.1  r_core=   1.10371   1.10371   1.15091   1.15091
92.0000     32.0000      220329    zatom,zion,pspd
8      11   3     4   600     0    pspcod,pspxc,lmax,lloc,mmax,r2well
5.99000000  5.00000000  0.00000000    rchrg fchrg qchrg
3     2     2     2     0    nproj
1     1           extension_switch
0                         5.0874575232152E+01  9.8267854731600E+00  1.7365343711851E+00
1  0.0000000000000E+00 -6.3682440853974E-07  1.2867476906209E-06 -1.4534492476237E-06
2  1.0000000000000E-02  1.6755441763744E-01 -1.1159599971964E-01  1.2694691190535E-01
3  2.0000000000000E-02  3.3244581401290E-01 -2.1837200770440E-01  2.4842102446121E-01
4  3.0000000000000E-02  4.9210923522158E-01 -3.1570765369278E-01  3.5918093639319E-01
5  4.0000000000000E-02  6.4417169725541E-01 -3.9937334141692E-01  4.5443836193332E-01
6  5.0000000000000E-02  7.8653793642891E-01 -4.6570482172904E-01  5.3006089150243E-01
7  6.0000000000000E-02  9.1746436792591E-01 -5.1175377781251E-01  5.8274731172762E-01
8  7.0000000000000E-02  1.0356181155253E+00 -5.3540802969687E-01  6.1016814764026E-01
9  8.0000000000000E-02  1.1401186123876E+00 -5.3547625204339E-01  6.1106554334890E-01
10  9.0000000000000E-02  1.2305600166336E+00 -5.1173360266840E-01  5.8530829691835E-01
11  1.0000000000000E-01  1.3070135047922E+00 -4.6492631611526E-01  5.3389973963143E-01
12  1.1000000000000E-01  1.3700093662926E+00 -3.9673505684371E-01  4.5893812093215E-01
13  1.2000000000000E-01  1.4204996865304E+00 -3.0969857683556E-01  3.6353114581346E-01
14  1.3000000000000E-01  1.4598032379226E+00 -2.0710090864291E-01  2.5166822818643E-01
15  1.4000000000000E-01  1.4895349624094E+00 -9.2826875853626E-02  1.2805579173263E-01
16  1.5000000000000E-01  1.5115230925176E+00  2.8807947038639E-02 -2.0775050636360E-03
17  1.6000000000000E-01  1.5277174930196E+00  1.5324560153342E-01 -1.3319748524788E-01
18  1.7000000000000E-01  1.5400931885123E+00  2.7588442766887E-01 -2.5969405895056E-01
19  1.8000000000000E-01  1.5505532573452E+00  3.9227960193741E-01 -3.7611412687362E-01
20  1.9000000000000E-01  1.5608353098570E+00  4.9833697859854E-01 -4.7738805238991E-01
21  2.0000000000000E-01  1.5724256269038E+00  5.9049195243544E-01 -5.5904024184553E-01
22  2.1000000000000E-01  1.5864847188881E+00  6.6586568173968E-01 -6.1737503728481E-01
23  2.2000000000000E-01  1.6037875890115E+00  7.2239195586580E-01 -6.4963015828537E-01
24  2.3000000000000E-01  1.6246813671641E+00  7.5890922252688E-01 -6.5409128669860E-01
25  2.4000000000000E-01  1.6490622486852E+00  7.7521375432365E-01 -6.3016301286683E-01
26  2.5000000000000E-01  1.6763728559766E+00  7.7207157023220E-01 -5.7839318625573E-01
27  2.6000000000000E-01  1.7056202750970E+00  7.5118846690329E-01 -5.0044966081923E-01
28  2.7000000000000E-01  1.7354141406059E+00  7.1513928326573E-01 -3.9905041411089E-01
29  2.8000000000000E-01  1.7640232872693E+00  6.6725924539453E-01 -2.7784996575811E-01
30  2.9000000000000E-01  1.7894486930136E+00  6.1150184401915E-01 -1.4128684373497E-01
31  3.0000000000000E-01  1.8095097374571E+00  5.5226911652577E-01  5.6015304939538E-03
32  3.1000000000000E-01  1.8219402241708E+00  4.9422137882217E-01  1.5738881236332E-01
33  3.2000000000000E-01  1.8244901870982E+00  4.4207433027311E-01  3.0848580481039E-01
34  3.3000000000000E-01  1.8150292404855E+00  4.0039200004231E-01  4.5337321163358E-01
35  3.4000000000000E-01  1.7916471484499E+00  3.7338419249276E-01  5.8683138903698E-01
36  3.5000000000000E-01  1.7527473885266E+00  3.6471691500693E-01  7.0415754921284E-01
37  3.6000000000000E-01  1.6971297591200E+00  3.7734374112120E-01  8.0136140737965E-01
38  3.7000000000000E-01  1.6240585220724E+00  4.1336519802997E-01  8.7533117686532E-01
39  3.8000000000000E-01  1.5333131598927E+00  4.7392210702339E-01  9.2396306649185E-01
40  3.9000000000000E-01  1.4252195376112E+00  5.5912739777918E-01  9.4624896716129E-01
41  4.0000000000000E-01  1.3006600616350E+00  6.6803932246981E-01  9.4231876490838E-01
42  4.1000000000000E-01  1.1610622883911E+00  7.9867728111651E-01  9.1343561140898E-01
43  4.2000000000000E-01  1.0083663175349E+00  9.4807970827069E-01  8.6194443972593E-01
44  4.3000000000000E-01  8.4497217081471E-01  1.1124017374577E+00  7.9117595026873E-01
45  4.4000000000000E-01  6.7366917182702E-01  1.2870487270556E+00  7.0531012794824E-01
46  4.5000000000000E-01  4.9755006966836E-01  1.4668402680510E+00  6.0920500933181E-01
47  4.6000000000000E-01  3.1991326055036E-01  1.6461980615658E+00  5.0819782917594E-01
48  4.7000000000000E-01  1.4415693049682E-01  1.8193501032448E+00  4.0788678077513E-01
49  4.8000000000000E-01 -2.6330749774761E-02  1.9805429812935E+00  3.1390237919442E-01
50  4.9000000000000E-01 -1.8828111185588E-01  2.1242538099912E+00  2.3167779092483E-01
51  5.0000000000000E-01 -3.3864993552574E-01  2.2453933907782E+00  1.6622747447026E-01
52  5.1000000000000E-01 -4.7471384807524E-01  2.3394926130582E+00  1.2194306748446E-01
53  5.2000000000000E-01 -5.9415455329908E-01  2.4028648562001E+00  1.0241467759701E-01
54  5.3000000000000E-01 -6.9512779452484E-01  2.4327381983566E+00  1.1028462198646E-01
55  5.4000000000000E-01 -7.7631460688555E-01  2.4273525296054E+00  1.4713926515698E-01
56  5.5000000000000E-01 -8.3695315866260E-01  2.3860181492000E+00  2.1344298709605E-01
57  5.6000000000000E-01 -8.7685028720332E-01  2.3091340342880E+00  3.0851654588025E-01
58  5.7000000000000E-01 -8.9637266653705E-01  2.1981656302614E+00  4.3056025663633E-01
59  5.8000000000000E-01 -8.9641836550704E-01  2.0555836592409E+00  5.7672057170505E-01
60  5.9000000000000E-01 -8.7837033190135E-01  1.8847670027331E+00  7.4319689308975E-01
61  6.0000000000000E-01 -8.4403403697097E-01  1.6898741214502E+00  9.2538385149739E-01
62  6.1000000000000E-01 -7.9556210689514E-01  1.4756886712604E+00  1.1180429125841E+00
63  6.2000000000000E-01 -7.3536922928628E-01  1.2474459108200E+00  1.3154960759373E+00
64  6.3000000000000E-01 -6.6604093584658E-01  1.0106471371557E+00  1.5118336586158E+00
65  6.4000000000000E-01 -5.9024001574435E-01  7.7086970740964E-01  1.7011277308436E+00
66  6.5000000000000E-01 -5.1061430434352E-01  5.3358019959132E-01  1.8776427091429E+00
67  6.6000000000000E-01 -4.2970942207953E-01  3.0395793857951E-01  2.0360349082329E+00
68  6.7000000000000E-01 -3.4988971914305E-01  8.6735486120972E-02  2.1715334880161E+00
69  6.8000000000000E-01 -2.7327023027302E-01 -1.1393820151070E-01  2.2800961721116E+00
70  6.9000000000000E-01 -2.0166188324034E-01 -2.9460736220585E-01  2.3585343126151E+00
71  7.0000000000000E-01 -1.3653156174218E-01 -4.5258846348901E-01  2.4046032748644E+00
72  7.1000000000000E-01 -7.8977929211943E-02 -5.8601677922320E-01  2.4170556501871E+00
73  7.2000000000000E-01 -2.9723206666235E-02 -6.9386003950681E-01  2.3956564041959E+00
74  7.3000000000000E-01  1.0879601898125E-02 -7.7590010083761E-01  2.3411606609131E+00
75  7.4000000000000E-01  4.2825197611964E-02 -8.3268491362492E-01  2.2552563392849E+00
76  7.5000000000000E-01  6.6421929979206E-02 -8.6545425069750E-01  2.1404752330851E+00
77  7.6000000000000E-01  8.2247418688882E-02 -8.7604365334951E-01  2.0000773005752E+00
78  7.7000000000000E-01  9.1096440688363E-02 -8.6677181033970E-01  1.8379138596222E+00
79  7.8000000000000E-01  9.3923900067680E-02 -8.4031708131107E-01  1.6582760324236E+00
80  7.9000000000000E-01  9.1785789402499E-02 -7.9958909345133E-01  1.4657351304896E+00
81  8.0000000000000E-01  8.5781001915608E-02 -7.4760127632563E-01  1.2649817083299E+00
82  8.1000000000000E-01  7.6996670171031E-02 -6.8734986538408E-01  1.0606697510447E+00
83  8.2000000000000E-01  6.6459401264102E-02 -6.2170432283195E-01  8.5727191802963E-01
84  8.3000000000000E-01  5.5094368503926E-02 -5.5331332981350E-01  6.5895097615096E-01
85  8.4000000000000E-01  4.3693727845845E-02 -4.8452953988486E-01  4.6945156535010E-01
86  8.5000000000000E-01  3.2895279769141E-02 -4.1735520137519E-01  2.9201530031575E-01
87  8.6000000000000E-01  2.3171721979681E-02 -3.5340961074563E-01  1.2932098173032E-01
88  8.7000000000000E-01  1.4830264085701E-02 -2.9391820751383E-01 -1.6549569580405E-02
89  8.8000000000000E-01  8.0218303890918E-03 -2.3972201966345E-01 -1.4412077214267E-01
90  8.9000000000000E-01  2.7585872730939E-03 -1.9130516890502E-01 -2.5250949599693E-01
91  9.0000000000000E-01 -1.0618798397411E-03 -1.4883729359037E-01 -3.4139109054215E-01
92  9.1000000000000E-01 -3.6277298877812E-03 -1.1222708099528E-01 -4.1094891385258E-01
93  9.2000000000000E-01 -5.1815649097210E-03 -8.1182647459752E-02 -4.6181165828201E-01
94  9.3000000000000E-01 -5.9889468771057E-03 -5.5274280528537E-02 -4.9498314165574E-01
95  9.4000000000000E-01 -6.3089844349837E-03 -3.3995066052914E-02 -5.1176936463078E-01
96  9.5000000000000E-01 -6.3690963954848E-03 -1.6815157439325E-02 -5.1370752693441E-01
97  9.6000000000000E-01 -6.3458101443372E-03 -3.2258849805372E-03 -5.0250136400629E-01
98  9.7000000000000E-01 -6.3531161729228E-03  7.2294785855393E-03 -4.7996663785364E-01
99  9.8000000000000E-01 -6.4394944776181E-03  1.4940722098469E-02 -4.4798992780760E-01
100  9.9000000000000E-01 -6.5942776694487E-03  2.0233042090268E-02 -4.0850306301659E-01
101  1.0000000000000E+00 -6.7635155754289E-03  2.3387335841074E-02 -3.6347455327183E-01
102  1.0100000000000E+00 -6.8745371781326E-03  2.4676972124161E-02 -3.1491650883006E-01
103  1.0200000000000E+00 -6.8473120552021E-03  2.4370684958740E-02 -2.6482532610706E-01
104  1.0300000000000E+00 -6.5850254592656E-03  2.2686641371714E-02 -2.1504205125059E-01
105  1.0400000000000E+00 -5.9931764182252E-03  1.9813774160684E-02 -1.6722912137672E-01
106  1.0500000000000E+00 -5.0208103789002E-03  1.5978564258813E-02 -1.2290394148107E-01
107  1.0600000000000E+00 -4.0386500707265E-03  1.2122104105227E-02 -8.3968541906216E-02
108  1.0700000000000E+00 -3.0596214942616E-03  8.4903284250151E-03 -5.1560582800925E-02
109  1.0800000000000E+00 -1.9532460528031E-03  5.0124536337026E-03 -2.6350954103093E-02
110  1.0900000000000E+00 -8.3828755963592E-04  2.0075728384621E-03 -9.1097885562524E-03
111  1.1000000000000E+00 -8.8608272792859E-05  2.0005046092379E-04 -7.8303334474846E-04
112  1.1100000000000E+00  1.4348369362180E-06 -3.1527594980100E-06  1.1453542344157E-05
113  1.1200000000000E+00  5.9991250888026E-07 -1.3764095888803E-06  5.6444076645103E-06
114  1.13  0. -0.  0.
115  1.14  0.  0.  0.
116  1.15  0.  0.  0.
117  1.16  0.  0.  0.
118  1.17  0.  0.  0.
119  1.18  0.  0.  0.
120  1.19  0.  0.  0.
121  1.20  0.  0.  0.
122  1.21  0.  0.  0.
123  1.22  0.  0.  0.
124  1.23  0.  0.  0.
125  1.24  0.  0.  0.
126  1.25  0.  0.  0.
127  1.26  0.  0.  0.
128  1.27  0.  0.  0.
129  1.28  0.  0.  0.
130  1.29  0.  0.  0.
131  1.30  0.  0.  0.
132  1.31  0.  0.  0.
133  1.32  0.  0.  0.
134  1.33  0.  0.  0.
135  1.34  0.  0.  0.
136  1.35  0.  0.  0.
137  1.36  0.  0.  0.
138  1.37  0.  0.  0.
139  1.38  0.  0.  0.
140  1.39  0.  0.  0.
141  1.40  0.  0.  0.
142  1.41  0.  0.  0.
143  1.42  0.  0.  0.
144  1.43  0.  0.  0.
145  1.44  0.  0.  0.
146  1.45  0.  0.  0.
147  1.46  0.  0.  0.
148  1.47  0.  0.  0.
149  1.48  0.  0.  0.
150  1.49  0.  0.  0.
151  1.50  0.  0.  0.
152  1.51  0.  0.  0.
153  1.52  0.  0.  0.
154  1.53  0.  0.  0.
155  1.54  0.  0.  0.
156  1.55  0.  0.  0.
157  1.56  0.  0.  0.
158  1.57  0.  0.  0.
159  1.58  0.  0.  0.
160  1.59  0.  0.  0.
161  1.60  0.  0.  0.
162  1.61  0.  0.  0.
163  1.62  0.  0.  0.
164  1.63  0.  0.  0.
165  1.64  0.  0.  0.
166  1.65  0.  0.  0.
167  1.66  0.  0.  0.
168  1.67  0.  0.  0.
169  1.68  0.  0.  0.
170  1.69  0.  0.  0.
171  1.70  0.  0.  0.
172  1.71  0.  0.  0.
173  1.72  0.  0.  0.
174  1.73  0.  0.  0.
175  1.74  0.  0.  0.
176  1.75  0.  0.  0.
177  1.76  0.  0.  0.
178  1.77  0.  0.  0.
179  1.78  0.  0.  0.
180  1.79  0.  0.  0.
181  1.80  0.  0.  0.
182  1.81  0.  0.  0.
183  1.82  0.  0.  0.
184  1.83  0.  0.  0.
185  1.84  0.  0.  0.
186  1.85  0.  0.  0.
187  1.86  0.  0.  0.
188  1.87  0.  0.  0.
189  1.88  0.  0.  0.
190  1.89  0.  0.  0.
191  1.90  0.  0.  0.
192  1.91  0.  0.  0.
193  1.92  0.  0.  0.
194  1.93  0.  0.  0.
195  1.94  0.  0.  0.
196  1.95  0.  0.  0.
197  1.96  0.  0.  0.
198  1.97  0.  0.  0.
199  1.98  0.  0.  0.
200  1.99  0.  0.  0.
201  2.00  0.  0.  0.
202  2.01  0.  0.  0.
203  2.02  0.  0.  0.
204  2.03  0.  0.  0.
205  2.04  0.  0.  0.
206  2.05  0.  0.  0.
207  2.06  0.  0.  0.
208  2.07  0.  0.  0.
209  2.08  0.  0.  0.
210  2.09  0.  0.  0.
211  2.10  0.  0.  0.
212  2.11  0.  0.  0.
213  2.12  0.  0.  0.
214  2.13  0.  0.  0.
215  2.14  0.  0.  0.
216  2.15  0.  0.  0.
217  2.16  0.  0.  0.
218  2.17  0.  0.  0.
219  2.18  0.  0.  0.
220  2.19  0.  0.  0.
221  2.20  0.  0.  0.
222  2.21  0.  0.  0.
223  2.22  0.  0.  0.
224  2.23  0.  0.  0.
225  2.24  0.  0.  0.
226  2.25  0.  0.  0.
227  2.26  0.  0.  0.
228  2.27  0.  0.  0.
229  2.28  0.  0.  0.
230  2.29  0.  0.  0.
231  2.30  0.  0.  0.
232  2.31  0.  0.  0.
233  2.32  0.  0.  0.
234  2.33  0.  0.  0.
235  2.34  0.  0.  0.
236  2.35  0.  0.  0.
237  2.36  0.  0.  0.
238  2.37  0.  0.  0.
239  2.38  0.  0.  0.
240  2.39  0.  0.  0.
241  2.40  0.  0.  0.
242  2.41  0.  0.  0.
243  2.42  0.  0.  0.
244  2.43  0.  0.  0.
245  2.44  0.  0.  0.
246  2.45  0.  0.  0.
247  2.46  0.  0.  0.
248  2.47  0.  0.  0.
249  2.48  0.  0.  0.
250  2.49  0.  0.  0.
251  2.50  0.  0.  0.
252  2.51  0.  0.  0.
253  2.52  0.  0.  0.
254  2.53  0.  0.  0.
255  2.54  0.  0.  0.
256  2.55  0.  0.  0.
257  2.56  0.  0.  0.
258  2.57  0.  0.  0.
259  2.58  0.  0.  0.
260  2.59  0.  0.  0.
261  2.60  0.  0.  0.
262  2.61  0.  0.  0.
263  2.62  0.  0.  0.
264  2.63  0.  0.  0.
265  2.64  0.  0.  0.
266  2.65  0.  0.  0.
267  2.66  0.  0.  0.
268  2.67  0.  0.  0.
269  2.68  0.  0.  0.
270  2.69  0.  0.  0.
271  2.70  0.  0.  0.
272  2.71  0.  0.  0.
273  2.72  0.  0.  0.
274  2.73  0.  0.  0.
275  2.74  0.  0.  0.
276  2.75  0.  0.  0.
277  2.76  0.  0.  0.
278  2.77  0.  0.  0.
279  2.78  0.  0.  0.
280  2.79  0.  0.  0.
281  2.80  0.  0.  0.
282  2.81  0.  0.  0.
283  2.82  0.  0.  0.
284  2.83  0.  0.  0.
285  2.84  0.  0.  0.
286  2.85  0.  0.  0.
287  2.86  0.  0.  0.
288  2.87  0.  0.  0.
289  2.88  0.  0.  0.
290  2.89  0.  0.  0.
291  2.90  0.  0.  0.
292  2.91  0.  0.  0.
293  2.92  0.  0.  0.
294  2.93  0.  0.  0.
295  2.94  0.  0.  0.
296  2.95  0.  0.  0.
297  2.96  0.  0.  0.
298  2.97  0.  0.  0.
299  2.98  0.  0.  0.
300  2.99  0.  0.  0.
301  3.00  0.  0.  0.
302  3.01  0.  0.  0.
303  3.02  0.  0.  0.
304  3.03  0.  0.  0.
305  3.04  0.  0.  0.
306  3.05  0.  0.  0.
307  3.06  0.  0.  0.
308  3.07  0.  0.  0.
309  3.08  0.  0.  0.
310  3.09  0.  0.  0.
311  3.10  0.  0.  0.
312  3.11  0.  0.  0.
313  3.12  0.  0.  0.
314  3.13  0.  0.  0.
315  3.14  0.  0.  0.
316  3.15  0.  0.  0.
317  3.16  0.  0.  0.
318  3.17  0.  0.  0.
319  3.18  0.  0.  0.
320  3.19  0.  0.  0.
321  3.20  0.  0.  0.
322  3.21  0.  0.  0.
323  3.22  0.  0.  0.
324  3.23  0.  0.  0.
325  3.24  0.  0.  0.
326  3.25  0.  0.  0.
327  3.26  0.  0.  0.
328  3.27  0.  0.  0.
329  3.28  0.  0.  0.
330  3.29  0.  0.  0.
331  3.30  0.  0.  0.
332  3.31  0.  0.  0.
333  3.32  0.  0.  0.
334  3.33  0.  0.  0.
335  3.34  0.  0.  0.
336  3.35  0.  0.  0.
337  3.36  0.  0.  0.
338  3.37  0.  0.  0.
339  3.38  0.  0.  0.
340  3.39  0.  0.  0.
341  3.40  0.  0.  0.
342  3.41  0.  0.  0.
343  3.42  0.  0.  0.
344  3.43  0.  0.  0.
345  3.44  0.  0.  0.
346  3.45  0.  0.  0.
347  3.46  0.  0.  0.
348  3.47  0.  0.  0.
349  3.48  0.  0.  0.
350  3.49  0.  0.  0.
351  3.50  0.  0.  0.
352  3.51  0.  0.  0.
353  3.52  0.  0.  0.
354  3.53  0.  0.  0.
355  3.54  0.  0.  0.
356  3.55  0.  0.  0.
357  3.56  0.  0.  0.
358  3.57  0.  0.  0.
359  3.58  0.  0.  0.
360  3.59  0.  0.  0.
361  3.60  0.  0.  0.
362  3.61  0.  0.  0.
363  3.62  0.  0.  0.
364  3.63  0.  0.  0.
365  3.64  0.  0.  0.
366  3.65  0.  0.  0.
367  3.66  0.  0.  0.
368  3.67  0.  0.  0.
369  3.68  0.  0.  0.
370  3.69  0.  0.  0.
371  3.70  0.  0.  0.
372  3.71  0.  0.  0.
373  3.72  0.  0.  0.
374  3.73  0.  0.  0.
375  3.74  0.  0.  0.
376  3.75  0.  0.  0.
377  3.76  0.  0.  0.
378  3.77  0.  0.  0.
379  3.78  0.  0.  0.
380  3.79  0.  0.  0.
381  3.80  0.  0.  0.
382  3.81  0.  0.  0.
383  3.82  0.  0.  0.
384  3.83  0.  0.  0.
385  3.84  0.  0.  0.
386  3.85  0.  0.  0.
387  3.86  0.  0.  0.
388  3.87  0.  0.  0.
389  3.88  0.  0.  0.
390  3.89  0.  0.  0.
391  3.90  0.  0.  0.
392  3.91  0.  0.  0.
393  3.92  0.  0.  0.
394  3.93  0.  0.  0.
395  3.94  0.  0.  0.
396  3.95  0.  0.  0.
397  3.96  0.  0.  0.
398  3.97  0.  0.  0.
399  3.98  0.  0.  0.
400  3.99  0.  0.  0.
401  4.00  0.  0.  0.
402  4.01  0.  0.  0.
403  4.02  0.  0.  0.
404  4.03  0.  0.  0.
405  4.04  0.  0.  0.
406  4.05  0.  0.  0.
407  4.06  0.  0.  0.
408  4.07  0.  0.  0.
409  4.08  0.  0.  0.
410  4.09  0.  0.  0.
411  4.10  0.  0.  0.
412  4.11  0.  0.  0.
413  4.12  0.  0.  0.
414  4.13  0.  0.  0.
415  4.14  0.  0.  0.
416  4.15  0.  0.  0.
417  4.16  0.  0.  0.
418  4.17  0.  0.  0.
419  4.18  0.  0.  0.
420  4.19  0.  0.  0.
421  4.20  0.  0.  0.
422  4.21  0.  0.  0.
423  4.22  0.  0.  0.
424  4.23  0.  0.  0.
425  4.24  0.  0.  0.
426  4.25  0.  0.  0.
427  4.26  0.  0.  0.
428  4.27  0.  0.  0.
429  4.28  0.  0.  0.
430  4.29  0.  0.  0.
431  4.30  0.  0.  0.
432  4.31  0.  0.  0.
433  4.32  0.  0.  0.
434  4.33  0.  0.  0.
435  4.34  0.  0.  0.
436  4.35  0.  0.  0.
437  4.36  0.  0.  0.
438  4.37  0.  0.  0.
439  4.38  0.  0.  0.
440  4.39  0.  0.  0.
441  4.40  0.  0.  0.
442  4.41  0.  0.  0.
443  4.42  0.  0.  0.
444  4.43  0.  0.  0.
445  4.44  0.  0.  0.
446  4.45  0.  0.  0.
447  4.46  0.  0.  0.
448  4.47  0.  0.  0.
449  4.48  0.  0.  0.
450  4.49  0.  0.  0.
451  4.50  0.  0.  0.
452  4.51  0.  0.  0.
453  4.52  0.  0.  0.
454  4.53  0.  0.  0.
455  4.54  0.  0.  0.
456  4.55  0.  0.  0.
457  4.56  0.  0.  0.
458  4.57  0.  0.  0.
459  4.58  0.  0.  0.
460  4.59  0.  0.  0.
461  4.60  0.  0.  0.
462  4.61  0.  0.  0.
463  4.62  0.  0.  0.
464  4.63  0.  0.  0.
465  4.64  0.  0.  0.
466  4.65  0.  0.  0.
467  4.66  0.  0.  0.
468  4.67  0.  0.  0.
469  4.68  0.  0.  0.
470  4.69  0.  0.  0.
471  4.70  0.  0.  0.
472  4.71  0.  0.  0.
473  4.72  0.  0.  0.
474  4.73  0.  0.  0.
475  4.74  0.  0.  0.
476  4.75  0.  0.  0.
477  4.76  0.  0.  0.
478  4.77  0.  0.  0.
479  4.78  0.  0.  0.
480  4.79  0.  0.  0.
481  4.80  0.  0.  0.
482  4.81  0.  0.  0.
483  4.82  0.  0.  0.
484  4.83  0.  0.  0.
485  4.84  0.  0.  0.
486  4.85  0.  0.  0.
487  4.86  0.  0.  0.
488  4.87  0.  0.  0.
489  4.88  0.  0.  0.
490  4.89  0.  0.  0.
491  4.90  0.  0.  0.
492  4.91  0.  0.  0.
493  4.92  0.  0.  0.
494  4.93  0.  0.  0.
495  4.94  0.  0.  0.
496  4.95  0.  0.  0.
497  4.96  0.  0.  0.
498  4.97  0.  0.  0.
499  4.98  0.  0.  0.
500  4.99  0.  0.  0.
501  5.00  0.  0.  0.
502  5.01  0.  0.  0.
503  5.02  0.  0.  0.
504  5.03  0.  0.  0.
505  5.04  0.  0.  0.
506  5.05  0.  0.  0.
507  5.06  0.  0.  0.
508  5.07  0.  0.  0.
509  5.08  0.  0.  0.
510  5.09  0.  0.  0.
511  5.10  0.  0.  0.
512  5.11  0.  0.  0.
513  5.12  0.  0.  0.
514  5.13  0.  0.  0.
515  5.14  0.  0.  0.
516  5.15  0.  0.  0.
517  5.16  0.  0.  0.
518  5.17  0.  0.  0.
519  5.18  0.  0.  0.
520  5.19  0.  0.  0.
521  5.20  0.  0.  0.
522  5.21  0.  0.  0.
523  5.22  0.  0.  0.
524  5.23  0.  0.  0.
525  5.24  0.  0.  0.
526  5.25  0.  0.  0.
527  5.26  0.  0.  0.
528  5.27  0.  0.  0.
529  5.28  0.  0.  0.
530  5.29  0.  0.  0.
531  5.30  0.  0.  0.
532  5.31  0.  0.  0.
533  5.32  0.  0.  0.
534  5.33  0.  0.  0.
535  5.34  0.  0.  0.
536  5.35  0.  0.  0.
537  5.36  0.  0.  0.
538  5.37  0.  0.  0.
539  5.38  0.  0.  0.
540  5.39  0.  0.  0.
541  5.40  0.  0.  0.
542  5.41  0.  0.  0.
543  5.42  0.  0.  0.
544  5.43  0.  0.  0.
545  5.44  0.  0.  0.
546  5.45  0.  0.  0.
547  5.46  0.  0.  0.
548  5.47  0.  0.  0.
549  5.48  0.  0.  0.
550  5.49  0.  0.  0.
551  5.50  0.  0.  0.
552  5.51  0.  0.  0.
553  5.52  0.  0.  0.
554  5.53  0.  0.  0.
555  5.54  0.  0.  0.
556  5.55  0.  0.  0.
557  5.56  0.  0.  0.
558  5.57  0.  0.  0.
559  5.58  0.  0.  0.
560  5.59  0.  0.  0.
561  5.60  0.  0.  0.
562  5.61  0.  0.  0.
563  5.62  0.  0.  0.
564  5.63  0.  0.  0.
565  5.64  0.  0.  0.
566  5.65  0.  0.  0.
567  5.66  0.  0.  0.
568  5.67  0.  0.  0.
569  5.68  0.  0.  0.
570  5.69  0.  0.  0.
571  5.70  0.  0.  0.
572  5.71  0.  0.  0.
573  5.72  0.  0.  0.
574  5.73  0.  0.  0.
575  5.74  0.  0.  0.
576  5.75  0.  0.  0.
577  5.76  0.  0.  0.
578  5.77  0.  0.  0.
579  5.78  0.  0.  0.
580  5.79  0.  0.  0.
581  5.80  0.  0.  0.
582  5.81  0.  0.  0.
583  5.82  0.  0.  0.
584  5.83  0.  0.  0.
585  5.84  0.  0.  0.
586  5.85  0.  0.  0.
587  5.86  0.  0.  0.
588  5.87  0.  0.  0.
589  5.88  0.  0.  0.
590  5.89  0.  0.  0.
591  5.90  0.  0.  0.
592  5.91  0.  0.  0.
593  5.92  0.  0.  0.
594  5.93  0.  0.  0.
595  5.94  0.  0.  0.
596  5.95  0.  0.  0.
597  5.96  0.  0.  0.
598  5.97  0.  0.  0.
599  5.98  0.  0.  0.
600  5.99  0.  0.  0.
1                         1.9173144613432E+01  2.8070369934431E+00
1  0.0000000000000E+00 -3.0062080241811E-08  8.2354474142954E-08
2  1.0000000000000E-02  3.3098717905458E-03 -1.1457824724236E-03
3  2.0000000000000E-02  1.3226297208533E-02 -4.5920471380129E-03
4  3.0000000000000E-02  2.9709326484117E-02 -1.0364303092622E-02
5  4.0000000000000E-02  5.2691132542805E-02 -1.8500984155029E-02
6  5.0000000000000E-02  8.2074221704506E-02 -2.9047537150586E-02
7  6.0000000000000E-02  1.1772907906103E-01 -4.2048556899501E-02
8  7.0000000000000E-02  1.5949139119711E-01 -5.7538358215884E-02
9  8.0000000000000E-02  2.0715901898225E-01 -7.5530457578204E-02
10  9.0000000000000E-02  2.6048891579397E-01 -9.6006499254684E-02
11  1.0000000000000E-01  3.1919420072071E-01 -1.1890519980462E-01
12  1.1000000000000E-01  3.8294160135711E-01 -1.4411189921134E-01
13  1.2000000000000E-01  4.5134947643928E-01 -1.7144929563288E-01
14  1.3000000000000E-01  5.2398661484940E-01 -2.0066990413199E-01
15  1.4000000000000E-01  6.0037198490610E-01 -2.3145071906711E-01
16  1.5000000000000E-01  6.7997557717475E-01 -2.6339047738991E-01
17  1.6000000000000E-01  7.6222044644139E-01 -2.9600981912060E-01
18  1.7000000000000E-01  8.4648601544648E-01 -3.2875452576768E-01
19  1.8000000000000E-01  9.3211265615736E-01 -3.6100189206971E-01
20  1.9000000000000E-01  1.0184075156279E+00 -3.9207015626116E-01
21  2.0000000000000E-01  1.1046515048010E+00 -4.2123078445245E-01
22  2.1000000000000E-01  1.1901073219281E+00 -4.4772328104955E-01
23  2.2000000000000E-01  1.2740283395136E+00 -4.7077208462459E-01
24  2.3000000000000E-01  1.3556681466236E+00 -4.8960501209129E-01
25  2.4000000000000E-01  1.4342905085756E+00 -5.0347263764864E-01
26  2.5000000000000E-01  1.5091794847486E+00 -5.1166794016897E-01
27  2.6000000000000E-01  1.5796494334657E+00 -5.1354552603522E-01
28  2.7000000000000E-01  1.6450546311950E+00 -5.0853973535147E-01
29  2.8000000000000E-01  1.7047982418684E+00 -4.9618096832456E-01
30  2.9000000000000E-01  1.7583403907045E+00 -4.7610962466436E-01
31  3.0000000000000E-01  1.8052051249080E+00 -4.4808713017389E-01
32  3.1000000000000E-01  1.8449860799725E+00 -4.1200362833019E-01
33  3.2000000000000E-01  1.8773507136820E+00 -3.6788203666848E-01
34  3.3000000000000E-01  1.9020430185945E+00 -3.1587830343835E-01
35  3.4000000000000E-01  1.9188846759204E+00 -2.5627784393434E-01
36  3.5000000000000E-01  1.9277746671942E+00 -1.8948828232805E-01
37  3.6000000000000E-01  1.9286874128563E+00 -1.1602876776498E-01
38  3.7000000000000E-01  1.9216695566713E+00 -3.6516267015120E-02
39  3.8000000000000E-01  1.9068355597795E+00  4.8350645548124E-02
40  3.9000000000000E-01  1.8843623062638E+00  1.3780988151510E-01
41  4.0000000000000E-01  1.8544829518064E+00  2.3105512255188E-01
42  4.1000000000000E-01  1.8174802670720E+00  3.2725555605590E-01
43  4.2000000000000E-01  1.7736797369861E+00  4.2557530752572E-01
44  4.3000000000000E-01  1.7234426756509E+00  5.2519183024015E-01
45  4.4000000000000E-01  1.6671596042573E+00  6.2531255931990E-01
46  4.5000000000000E-01  1.6052441164793E+00  7.2518921327710E-01
47  4.6000000000000E-01  1.5381274233926E+00  8.2412922898501E-01
48  4.7000000000000E-01  1.4662537292789E+00  9.2150394169622E-01
49  4.8000000000000E-01  1.3900765424607E+00  1.0167532653434E+00
50  4.9000000000000E-01  1.3100559735668E+00  1.1093867840738E+00
51  5.0000000000000E-01  1.2266570195835E+00  1.1989813273799E+00
52  5.1000000000000E-01  1.1403487780689E+00  1.2851752615067E+00
53  5.2000000000000E-01  1.0516044843954E+00  1.3676598821809E+00
54  5.3000000000000E-01  9.6090221818233E-01  1.4461684314264E+00
55  5.4000000000000E-01  8.6872608535626E-01  1.5204633781319E+00
56  5.5000000000000E-01  7.7556765145107E-01  1.5903226926416E+00
57  5.6000000000000E-01  6.8192738140450E-01  1.6555259055192E+00
58  5.7000000000000E-01  5.8831583237075E-01  1.7158407665031E+00
59  5.8000000000000E-01  4.9525434962914E-01  1.7710113096450E+00
60  5.9000000000000E-01  4.0327503168205E-01  1.8207480842657E+00
61  6.0000000000000E-01  3.1291975872672E-01  1.8647212297638E+00
62  6.1000000000000E-01  2.2473811794682E-01  1.9025569580852E+00
63  6.2000000000000E-01  1.3928410808863E-01  1.9338378648301E+00
64  6.3000000000000E-01  5.7111562692607E-02  1.9581073238912E+00
65  6.4000000000000E-01 -2.1231706116239E-02  1.9748780376292E+00
66  6.5000000000000E-01 -9.5210975780613E-02  1.9836446222106E+00
67  6.6000000000000E-01 -1.6431276001809E-01  1.9838999137701E+00
68  6.7000000000000E-01 -2.2805383737422E-01  1.9751544936760E+00
69  6.8000000000000E-01 -2.8599090699143E-01  1.9569587584831E+00
70  6.9000000000000E-01 -3.3773056714175E-01  1.9289267098674E+00
71  7.0000000000000E-01 -3.8293927276979E-01  1.8907605189159E+00
72  7.1000000000000E-01 -4.2135290158552E-01  1.8422748335592E+00
73  7.2000000000000E-01 -4.5278554572468E-01  1.7834197523109E+00
74  7.3000000000000E-01 -4.7713714872245E-01  1.7143013849541E+00
75  7.4000000000000E-01 -4.9439962597965E-01  1.6351989628111E+00
76  7.5000000000000E-01 -5.0466114086932E-01  1.5465775474117E+00
77  7.6000000000000E-01 -5.0810825731474E-01  1.4490955145598E+00
78  7.7000000000000E-01 -5.0502575163397E-01  1.3436061570772E+00
79  7.8000000000000E-01 -4.9579393966617E-01  1.2311529482931E+00
80  7.9000000000000E-01 -4.8088345713779E-01  1.1129582326296E+00
81  8.0000000000000E-01 -4.6084751893913E-01  9.9040535117716E-01
82  8.1000000000000E-01 -4.3631177319204E-01  8.6501445983407E-01
83  8.2000000000000E-01 -4.0796195524906E-01  7.3841254574793E-01
84  8.3000000000000E-01 -3.7652963155759E-01  6.1229838459100E-01
85  8.4000000000000E-01 -3.4277640023505E-01  4.8840339703025E-01
86  8.5000000000000E-01 -3.0747698103606E-01  3.6844954861795E-01
87  8.6000000000000E-01 -2.7140167931542E-01  2.5410558522221E-01
88  8.7000000000000E-01 -2.3529874424370E-01  1.4694299935740E-01
89  8.8000000000000E-01 -1.9987715914179E-01  4.8393176293961E-02
90  8.9000000000000E-01 -1.6579040025507E-01 -4.0292830590609E-02
91  9.0000000000000E-01 -1.3362167919669E-01 -1.1808049932987E-01
92  9.1000000000000E-01 -1.0387114400525E-01 -1.8418272472375E-01
93  9.2000000000000E-01 -7.6945455400931E-02 -2.3808425765501E-01
94  9.3000000000000E-01 -5.3150080185373E-02 -2.7955876902915E-01
95  9.4000000000000E-01 -3.2684555308088E-02 -3.0867785007488E-01
96  9.5000000000000E-01 -1.5640876949426E-02 -3.2581153198273E-01
97  9.6000000000000E-01 -2.0050625467631E-03 -3.3162019958739E-01
98  9.7000000000000E-01  8.3381761491104E-03 -3.2703807539239E-01
99  9.8000000000000E-01  1.5597820138405E-02 -3.1324875054312E-01
100  9.9000000000000E-01  2.0066266287068E-02 -2.9165352778401E-01
101  1.0000000000000E+00  2.2106751042408E-02 -2.6383357844884E-01
102  1.0100000000000E+00  2.2138790259265E-02 -2.3150665747072E-01
103  1.0200000000000E+00  2.0616723072072E-02 -1.9646009437822E-01
104  1.0300000000000E+00  1.8001484709257E-02 -1.6046155768395E-01
105  1.0400000000000E+00  1.4739532875186E-02 -1.2519818861777E-01
106  1.0500000000000E+00  1.1242524119956E-02 -9.2221157570894E-02
107  1.0600000000000E+00  7.8154868409799E-03 -6.2777863069780E-02
108  1.0700000000000E+00  4.7657497777956E-03 -3.8037605151593E-02
109  1.0800000000000E+00  2.3637157689319E-03 -1.9004594325334E-02
110  1.0900000000000E+00  7.7495675562931E-04 -6.3648793326896E-03
111  1.1000000000000E+00  6.1528458861750E-05 -5.2457159639766E-04
112  1.1100000000000E+00 -8.5604116174230E-07  7.4911826124871E-06
113  1.1200000000000E+00 -4.5571106395015E-07  3.8388067923171E-06
114  1.13 -0.  0.
115  1.14  0.  0.
116  1.15  0.  0.
117  1.16  0.  0.
118  1.17  0.  0.
119  1.18  0.  0.
120  1.19  0.  0.
121  1.20  0.  0.
122  1.21  0.  0.
123  1.22  0.  0.
124  1.23  0.  0.
125  1.24  0.  0.
126  1.25  0.  0.
127  1.26  0.  0.
128  1.27  0.  0.
129  1.28  0.  0.
130  1.29  0.  0.
131  1.30  0.  0.
132  1.31  0.  0.
133  1.32  0.  0.
134  1.33  0.  0.
135  1.34  0.  0.
136  1.35  0.  0.
137  1.36  0.  0.
138  1.37  0.  0.
139  1.38  0.  0.
140  1.39  0.  0.
141  1.40  0.  0.
142  1.41  0.  0.
143  1.42  0.  0.
144  1.43  0.  0.
145  1.44  0.  0.
146  1.45  0.  0.
147  1.46  0.  0.
148  1.47  0.  0.
149  1.48  0.  0.
150  1.49  0.  0.
151  1.50  0.  0.
152  1.51  0.  0.
153  1.52  0.  0.
154  1.53  0.  0.
155  1.54  0.  0.
156  1.55  0.  0.
157  1.56  0.  0.
158  1.57  0.  0.
159  1.58  0.  0.
160  1.59  0.  0.
161  1.60  0.  0.
162  1.61  0.  0.
163  1.62  0.  0.
164  1.63  0.  0.
165  1.64  0.  0.
166  1.65  0.  0.
167  1.66  0.  0.
168  1.67  0.  0.
169  1.68  0.  0.
170  1.69  0.  0.
171  1.70  0.  0.
172  1.71  0.  0.
173  1.72  0.  0.
174  1.73  0.  0.
175  1.74  0.  0.
176  1.75  0.  0.
177  1.76  0.  0.
178  1.77  0.  0.
179  1.78  0.  0.
180  1.79  0.  0.
181  1.80  0.  0.
182  1.81  0.  0.
183  1.82  0.  0.
184  1.83  0.  0.
185  1.84  0.  0.
186  1.85  0.  0.
187  1.86  0.  0.
188  1.87  0.  0.
189  1.88  0.  0.
190  1.89  0.  0.
191  1.90  0.  0.
192  1.91  0.  0.
193  1.92  0.  0.
194  1.93  0.  0.
195  1.94  0.  0.
196  1.95  0.  0.
197  1.96  0.  0.