U     ONCVPSP-4.0.1  r_core=   1.40209   1.40209   1.40209   1.40209
92.0000     32.0000      220329    zatom,zion,pspd
8      11   3     4   600     0    pspcod,pspxc,lmax,lloc,mmax,r2well
5.99000000  2.70000000  0.00000000    rchrg fchrg qchrg
3     2     2     2     0    nproj
1     1           extension_switch
0                         2.8353728703695E+01  6.7353956532673E+00  1.0034137724209E+00
1  0.0000000000000E+00  1.8128752943269E-09 -2.2918352493573E-09  4.7591519614087E-10
2  1.0000000000000E-02  1.1131625977238E-01 -2.2913058209219E-02  5.2472712413705E-02
3  2.0000000000000E-02  2.2226840721333E-01 -4.5594580126922E-02  1.0457887530765E-01
4  3.0000000000000E-02  3.3249256007166E-01 -6.7812887823539E-02  1.5595389315367E-01
5  4.0000000000000E-02  4.4162531903303E-01 -8.9336049818566E-02  2.0623707932498E-01
6  5.0000000000000E-02  5.4930406565833E-01 -1.0993182802446E-01  2.5507361272874E-01
7  6.0000000000000E-02  6.5516732677424E-01 -1.2936771149975E-01  3.0211649673539E-01
8  7.0000000000000E-02  7.5885522530205E-01 -1.4741106321612E-01  3.4702852062881E-01
9  8.0000000000000E-02  8.6001003569794E-01 -1.6382940375258E-01  3.8948422332565E-01
10  9.0000000000000E-02  9.5827685996392E-01 -1.7839085302490E-01  4.2917185850035E-01
11  1.0000000000000E-01  1.0533044376088E+00 -1.9086474788477E-01  4.6579535950596E-01
12  1.1000000000000E-01  1.1447461000305E+00 -2.0102244972065E-01  4.9907630157865E-01
13  1.2000000000000E-01  1.2322608766023E+00 -2.0863835212095E-01  5.2875585776129E-01
14  1.3000000000000E-01  1.3155147563250E+00 -2.1349109427695E-01  5.5459674377068E-01
15  1.4000000000000E-01  1.3941821053051E+00 -2.1536498117052E-01  5.7638514565392E-01
16  1.5000000000000E-01  1.4679472366022E+00 -2.1405160678429E-01  5.9393262254753E-01
17  1.6000000000000E-01  1.5365061252046E+00 -2.0935167165952E-01  6.0707797516272E-01
18  1.7000000000000E-01  1.5995682571106E+00 -2.0107698118781E-01  6.1568906879103E-01
19  1.8000000000000E-01  1.6568585977768E+00 -1.8905260613436E-01  6.1966459766726E-01
20  1.9000000000000E-01  1.7081196615985E+00 -1.7311918213658E-01  6.1893577547876E-01
21  2.0000000000000E-01  1.7531136606853E+00 -1.5313532037824E-01  6.1346793468760E-01
22  2.1000000000000E-01  1.7916247080349E+00 -1.2898009739038E-01  6.0326201519137E-01
23  2.2000000000000E-01  1.8234610473566E+00 -1.0055558805238E-01  5.8835592072643E-01
24  2.3000000000000E-01  1.8484572793066E+00 -6.7789402435387E-02  5.6882571937457E-01
25  2.4000000000000E-01  1.8664765518144E+00 -3.0637184220709E-02  5.4478666263674E-01
26  2.5000000000000E-01  1.8774126805575E+00  1.0914973900678E-02  5.1639399584250E-01
27  2.6000000000000E-01  1.8811921645130E+00  5.6848244115934E-02  4.8384353126308E-01
28  2.7000000000000E-01  1.8777760609183E+00  1.0710895391082E-01  4.4737195424719E-01
29  2.8000000000000E-01  1.8671616839334E+00  1.6160670049309E-01  4.0725683210180E-01
30  2.9000000000000E-01  1.8493840918300E+00  2.2021273613426E-01  3.6381629535315E-01
31  3.0000000000000E-01  1.8245173286581E+00  2.8275866997453E-01  3.1740836154493E-01
32  3.1000000000000E-01  1.7926753880494E+00  3.4903552964493E-01  2.6842987290946E-01
33  3.2000000000000E-01  1.7540128691111E+00  4.1879322303615E-01  2.1731502117019E-01
34  3.3000000000000E-01  1.7087252972261E+00  4.9174043670272E-01  1.6453343543612E-01
35  3.4000000000000E-01  1.6570490859785E+00  5.6754500275456E-01  1.1058781267825E-01
36  3.5000000000000E-01  1.5992611203359E+00  6.4583476068926E-01  5.6011074666831E-02
37  3.6000000000000E-01  1.5356779456009E+00  7.2619893451707E-01  1.3630404814465E-03
38  3.7000000000000E-01  1.4666545514374E+00  8.0819003878054E-01 -5.2773390202230E-02
39  3.8000000000000E-01  1.3925827454274E+00  8.9132631976016E-01 -1.0579654095194E-01
40  3.9000000000000E-01  1.3138891160546E+00  9.7509473037502E-01 -1.5709073980813E-01
41  4.0000000000000E-01  1.2310325906606E+00  1.0589544291362E+00 -2.0603155985432E-01
42  4.1000000000000E-01  1.1445015997089E+00  1.1423407851100E+00 -2.5199149221574E-01
43  4.2000000000000E-01  1.0548108645281E+00  1.2246698623242E+00 -2.9434601528735E-01
44  4.3000000000000E-01  9.6249783150013E-01  1.3053433485365E+00 -3.3248001443114E-01
45  4.4000000000000E-01  8.6811878132508E-01  1.3837538849253E+00 -3.6579449673795E-01
46  4.5000000000000E-01  7.7224464743532E-01  1.4592907452006E+00 -3.9371353590048E-01
47  4.6000000000000E-01  6.7545658275408E-01  1.5313458050226E+00 -4.1569137301609E-01
48  4.7000000000000E-01  5.7834131871167E-01  1.5993197355982E+00 -4.3121959044003E-01
49  4.8000000000000E-01  4.8148636465493E-01  1.6626283490483E+00 -4.3983426787702E-01
50  4.9000000000000E-01  3.8547509943206E-01  1.7207090177461E+00 -4.4112302296204E-01
51  5.0000000000000E-01  2.9088180993106E-01  1.7730270854336E+00 -4.3473183285341E-01
52  5.1000000000000E-01  1.9826673362798E-01  1.8190821846614E+00 -4.2037152906807E-01
53  5.2000000000000E-01  1.0817116370215E-01  1.8584143730653E+00 -3.9782385513496E-01
54  5.3000000000000E-01  2.1112675959689E-02  1.8906100002601E+00 -3.6694697576812E-01
55  5.4000000000000E-01 -6.2419463369656E-02  1.9153072177934E+00 -3.2768032737491E-01
56  5.5000000000000E-01 -1.4196865094208E-01  1.9322010466618E+00 -2.8004870285727E-01
57  5.6000000000000E-01 -2.1711500462681E-01  1.9410479204044E+00 -2.2416546898512E-01
58  5.7000000000000E-01 -2.8747907356060E-01  1.9416696267169E+00 -1.6023482209230E-01
59  5.8000000000000E-01 -3.5272515028830E-01  1.9339565768523E+00 -8.8552997491389E-02
60  5.9000000000000E-01 -4.1256413980584E-01  1.9178703397368E+00 -9.5083597587520E-03
61  6.0000000000000E-01 -4.6675594553320E-01  1.8934453866203E+00  7.6419685222156E-02
62  6.1000000000000E-01 -5.1511133814434E-01  1.8607900021165E+00  1.6866299998381E-01
63  6.2000000000000E-01 -5.5749327968409E-01  1.8200863284991E+00  2.6656827328278E-01
64  6.3000000000000E-01 -5.9381768241844E-01  1.7715895219752E+00  3.6940183371131E-01
65  6.4000000000000E-01 -6.2405358928632E-01  1.7156260121488E+00  4.7635570715448E-01
66  6.5000000000000E-01 -6.4822277053900E-01  1.6525908688402E+00  5.8655488567988E-01
67  6.6000000000000E-01 -6.6639873904424E-01  1.5829442936118E+00  6.9906575459458E-01
68  6.7000000000000E-01 -6.7870519467386E-01  1.5072072665675E+00  8.1290560350892E-01
69  6.8000000000000E-01 -6.8531391605810E-01  1.4259563919967E+00  9.2705312671621E-01
70  6.9000000000000E-01 -6.8644212565061E-01  1.3398179990189E+00  1.0404597984135E+00
71  7.0000000000000E-01 -6.8234936138263E-01  1.2494615653205E+00  1.1520619896407E+00
72  7.1000000000000E-01 -6.7333389507079E-01  1.1555925431560E+00  1.2607936766921E+00
73  7.2000000000000E-01 -6.5972874407476E-01  1.0589446768176E+00  1.3655995754793E+00
74  7.3000000000000E-01 -6.4189732837174E-01  9.6027190957808E-01  1.4654485232419E+00
75  7.4000000000000E-01 -6.2022883013904E-01  8.6033998553400E-01  1.5593469183728E+00
76  7.5000000000000E-01 -5.9513331703815E-01  7.5991785768636E-01  1.6463520211697E+00
77  7.6000000000000E-01 -5.6703669361289E-01  6.5976901790228E-01  1.7255849132259E+00
78  7.7000000000000E-01 -5.3637554750814E-01  5.6064286702841E-01  1.7962429110382E+00
79  7.8000000000000E-01 -5.0359195856122E-01  4.6326624435315E-01  1.8576112302655E+00
80  7.9000000000000E-01 -4.6912833920492E-01  3.6833523483226E-01  1.9090737009227E+00
81  8.0000000000000E-01 -4.3342237406521E-01  2.7650737004593E-01  1.9501223405225E+00
82  8.1000000000000E-01 -3.9690212516331E-01  1.8839433480732E-01  1.9803656016508E+00
83  8.2000000000000E-01 -3.5998136679297E-01  1.0455528580601E-01  1.9995351224415E+00
84  8.3000000000000E-01 -3.2305521099687E-01  2.5490881766267E-02  2.0074908226400E+00
85  8.4000000000000E-01 -2.8649608069530E-01 -4.8361883499748E-02  2.0042242040797E+00
86  8.5000000000000E-01 -2.5065008301088E-01 -1.1663396288355E-01  1.9898597320670E+00
87  8.6000000000000E-01 -2.1583383029012E-01 -1.7902758029219E-01  1.9646541929823E+00
88  8.7000000000000E-01 -1.8233175085443E-01 -2.3531853568981E-01  1.9289939429218E+00
89  8.8000000000000E-01 -1.5039392573546E-01 -2.8535743998858E-01  1.8833899819839E+00
90  8.9000000000000E-01 -1.2023448168041E-01 -3.2906983996577E-01  1.8284708084133E+00
91  9.0000000000000E-01 -9.2030564672823E-02 -3.6645520436042E-01  1.7649730258095E+00
92  9.1000000000000E-01 -6.5921912217051E-02 -3.9758475298319E-01  1.6937296945796E+00
93  9.2000000000000E-01 -4.2011036794119E-02 -4.2259812084897E-01  1.6156564353939E+00
94  9.3000000000000E-01 -2.0364027315786E-02 -4.4169885882480E-01  1.5317353072321E+00
95  9.4000000000000E-01 -1.0119701754486E-03 -4.5514878091269E-01  1.4429964954301E+00
96  9.5000000000000E-01  1.6047013295261E-02 -4.6326117590971E-01  1.3504978556876E+00
97  9.6000000000000E-01  3.0845120441731E-02 -4.6639290770344E-01  1.2553023681474E+00
98  9.7000000000000E-01  4.3441623175433E-02 -4.6493543377769E-01  1.1584535612800E+00
99  9.8000000000000E-01  5.3919040465000E-02 -4.5930477558059E-01  1.0609489683972E+00
100  9.9000000000000E-01  6.2378744192294E-02 -4.4993047701543E-01  9.6371167907321E-01
101  1.0000000000000E+00  6.8936020727740E-02 -4.3724360005415E-01  8.6756010749180E-01
102  1.0100000000000E+00  7.3714679625085E-02 -4.2166400957642E-01  7.7317720006399E-01
103  1.0200000000000E+00  7.6844197548084E-02 -4.0359575373213E-01  6.8112498218817E-01
104  1.0300000000000E+00  7.8460953099756E-02 -3.8343442070556E-01  5.9191316038074E-01
105  1.0400000000000E+00  7.8706920216054E-02 -3.6156637865986E-01  5.0601143205357E-01
106  1.0500000000000E+00  7.7727570321904E-02 -3.3836555397423E-01  4.2384596645900E-01
107  1.0600000000000E+00  7.5669909149829E-02 -3.1419055572306E-01  3.4579658595306E-01
108  1.0700000000000E+00  7.2680659972937E-02 -2.8938215656737E-01  2.7219464569465E-01
109  1.0800000000000E+00  6.8904601047566E-02 -2.6426113181778E-01  2.0332158376472E-01
110  1.0900000000000E+00  6.4483061747606E-02 -2.3912645215181E-01  1.3940810308010E-01
111  1.1000000000000E+00  5.9552579156462E-02 -2.1425382080172E-01  8.0633941702974E-02
112  1.1100000000000E+00  5.4243714175291E-02 -1.8989454123165E-01  2.7128180764152E-02
113  1.1200000000000E+00  4.8680025729297E-02 -1.6627470244100E-01 -2.1029945510337E-02
114  1.1300000000000E+00  4.2977195437781E-02 -1.4359465423180E-01 -6.3809825887817E-02
115  1.1400000000000E+00  3.7242302347012E-02 -1.2202876653680E-01 -1.0122782551670E-01
116  1.1500000000000E+00  3.1573235941415E-02 -1.0172543750622E-01 -1.3334532448971E-01
117  1.1600000000000E+00  2.6058243303388E-02 -8.2807337505684E-02 -1.6026645267201E-01
118  1.1700000000000E+00  2.0775601093242E-02 -6.5371863299945E-02 -1.8213558245356E-01
119  1.1800000000000E+00  1.5793404058168E-02 -4.9491780699782E-02 -1.9913462259935E-01
120  1.1900000000000E+00  1.1169460934514E-02 -3.5216032695236E-02 -2.1148016001300E-01
121  1.2000000000000E+00  6.9512881599564E-03 -2.2570689830224E-02 -2.1942049604440E-01
122  1.2100000000000E+00  3.1761914062389E-03 -1.1560019340797E-02 -2.2323262381600E-01
123  1.2200000000000E+00 -1.2857555193956E-04 -2.1676490620755E-03 -2.2321919394074E-01
124  1.2300000000000E+00 -2.9455853374830E-03  5.6421977478145E-03 -2.1970551452764E-01
125  1.2400000000000E+00 -5.2669558612716E-03  1.1923420661704E-02 -2.1303663098968E-01
126  1.2500000000000E+00 -7.0940245674365E-03  1.6746736658202E-02 -2.0357452774628E-01
127  1.2600000000000E+00 -8.4369888829112E-03  2.0198373422514E-02 -1.9169549046175E-01
128  1.2700000000000E+00 -9.3145233050417E-03  2.2378782251635E-02 -1.7778766194876E-01
129  1.2800000000000E+00 -9.7533828845155E-03  2.3401389353531E-02 -1.6224881790027E-01
130  1.2900000000000E+00 -9.7880020253324E-03  2.3391401943393E-02 -1.4548438114290E-01
131  1.3000000000000E+00 -9.4600964218705E-03  2.2484682599962E-02 -1.2790568433712E-01
132  1.3100000000000E+00 -8.8182674448414E-03  2.0826686113489E-02 -1.0992845547032E-01
133  1.3200000000000E+00 -7.9176756346590E-03  1.8571601418087E-02 -9.1971743593744E-02
134  1.3300000000000E+00 -6.8195522702975E-03  1.5881180947841E-02 -7.4456413256645E-02
135  1.3400000000000E+00 -5.6004062484374E-03  1.2945109526645E-02 -5.7839100534929E-02
136  1.3500000000000E+00 -4.3424881131176E-03  9.9603814777720E-03 -4.2576885651836E-02
137  1.3600000000000E+00 -3.1085158881730E-03  7.0748204048741E-03 -2.9036386630065E-02
138  1.3700000000000E+00 -1.9719718156696E-03  4.4536185163609E-03 -1.7606259100940E-02
139  1.3800000000000E+00 -1.0156789979145E-03  2.2765278364615E-03 -8.6938139011421E-03
140  1.3900000000000E+00 -3.2661226918293E-04  7.2672562363517E-04 -2.6891411755490E-03
141  1.4000000000000E+00 -1.8076143029807E-05  3.9906621395700E-05 -1.4315106189131E-04
142  1.4100000000000E+00  1.0797482276886E-06 -2.3769853113187E-06  8.4006848159036E-06
143  1.4200000000000E+00  1.8374276353808E-07 -4.0766314703458E-07  1.4886525498944E-06
144  1.43 -0.  0. -0.
145  1.44  0.  0.  0.
146  1.45  0.  0.  0.
147  1.46  0.  0.  0.
148  1.47  0.  0.  0.
149  1.48  0.  0.  0.
150  1.49  0.  0.  0.
151  1.50  0.  0.  0.
152  1.51  0.  0.  0.
153  1.52  0.  0.  0.
154  1.53  0.  0.  0.
155  1.54  0.  0.  0.
156  1.55  0.  0.  0.
157  1.56  0.  0.  0.
158  1.57  0.  0.  0.
159  1.58  0.  0.  0.
160  1.59  0.  0.  0.
161  1.60  0.  0.  0.
162  1.61  0.  0.  0.
163  1.62  0.  0.  0.
164  1.63  0.  0.  0.
165  1.64  0.  0.  0.
166  1.65  0.  0.  0.
167  1.66  0.  0.  0.
168  1.67  0.  0.  0.
169  1.68  0.  0.  0.
170  1.69  0.  0.  0.
171  1.70  0.  0.  0.
172  1.71  0.  0.  0.
173  1.72  0.  0.  0.
174  1.73  0.  0.  0.
175  1.74  0.  0.  0.
176  1.75  0.  0.  0.
177  1.76  0.  0.  0.
178  1.77  0.  0.  0.
179  1.78  0.  0.  0.
180  1.79  0.  0.  0.
181  1.80  0.  0.  0.
182  1.81  0.  0.  0.
183  1.82  0.  0.  0.
184  1.83  0.  0.  0.
185  1.84  0.  0.  0.
186  1.85  0.  0.  0.
187  1.86  0.  0.  0.
188  1.87  0.  0.  0.
189  1.88  0.  0.  0.
190  1.89  0.  0.  0.
191  1.90  0.  0.  0.
192  1.91  0.  0.  0.
193  1.92  0.  0.  0.
194  1.93  0.  0.  0.
195  1.94  0.  0.  0.
196  1.95  0.  0.  0.
197  1.96  0.  0.  0.
198  1.97  0.  0.  0.
199  1.98  0.  0.  0.
200  1.99  0.  0.  0.
201  2.00  0.  0.  0.
202  2.01  0.  0.  0.
203  2.02  0.  0.  0.
204  2.03  0.  0.  0.
205  2.04  0.  0.  0.
206  2.05  0.  0.  0.
207  2.06  0.  0.  0.
208  2.07  0.  0.  0.
209  2.08  0.  0.  0.
210  2.09  0.  0.  0.
211  2.10  0.  0.  0.
212  2.11  0.  0.  0.
213  2.12  0.  0.  0.
214  2.13  0.  0.  0.
215  2.14  0.  0.  0.
216  2.15  0.  0.  0.
217  2.16  0.  0.  0.
218  2.17  0.  0.  0.
219  2.18  0.  0.  0.
220  2.19  0.  0.  0.
221  2.20  0.  0.  0.
222  2.21  0.  0.  0.
223  2.22  0.  0.  0.
224  2.23  0.  0.  0.
225  2.24  0.  0.  0.
226  2.25  0.  0.  0.
227  2.26  0.  0.  0.
228  2.27  0.  0.  0.
229  2.28  0.  0.  0.
230  2.29  0.  0.  0.
231  2.30  0.  0.  0.
232  2.31  0.  0.  0.
233  2.32  0.  0.  0.
234  2.33  0.  0.  0.
235  2.34  0.  0.  0.
236  2.35  0.  0.  0.
237  2.36  0.  0.  0.
238  2.37  0.  0.  0.
239  2.38  0.  0.  0.
240  2.39  0.  0.  0.
241  2.40  0.  0.  0.
242  2.41  0.  0.  0.
243  2.42  0.  0.  0.
244  2.43  0.  0.  0.
245  2.44  0.  0.  0.
246  2.45  0.  0.  0.
247  2.46  0.  0.  0.
248  2.47  0.  0.  0.
249  2.48  0.  0.  0.
250  2.49  0.  0.  0.
251  2.50  0.  0.  0.
252  2.51  0.  0.  0.
253  2.52  0.  0.  0.
254  2.53  0.  0.  0.
255  2.54  0.  0.  0.
256  2.55  0.  0.  0.
257  2.56  0.  0.  0.
258  2.57  0.  0.  0.
259  2.58  0.  0.  0.
260  2.59  0.  0.  0.
261  2.60  0.  0.  0.
262  2.61  0.  0.  0.
263  2.62  0.  0.  0.
264  2.63  0.  0.  0.
265  2.64  0.  0.  0.
266  2.65  0.  0.  0.
267  2.66  0.  0.  0.
268  2.67  0.  0.  0.
269  2.68  0.  0.  0.
270  2.69  0.  0.  0.
271  2.70  0.  0.  0.
272  2.71  0.  0.  0.
273  2.72  0.  0.  0.
274  2.73  0.  0.  0.
275  2.74  0.  0.  0.
276  2.75  0.  0.  0.
277  2.76  0.  0.  0.
278  2.77  0.  0.  0.
279  2.78  0.  0.  0.
280  2.79  0.  0.  0.
281  2.80  0.  0.  0.
282  2.81  0.  0.  0.
283  2.82  0.  0.  0.
284  2.83  0.  0.  0.
285  2.84  0.  0.  0.
286  2.85  0.  0.  0.
287  2.86  0.  0.  0.
288  2.87  0.  0.  0.
289  2.88  0.  0.  0.
290  2.89  0.  0.  0.
291  2.90  0.  0.  0.
292  2.91  0.  0.  0.
293  2.92  0.  0.  0.
294  2.93  0.  0.  0.
295  2.94  0.  0.  0.
296  2.95  0.  0.  0.
297  2.96  0.  0.  0.
298  2.97  0.  0.  0.
299  2.98  0.  0.  0.
300  2.99  0.  0.  0.
301  3.00  0.  0.  0.
302  3.01  0.  0.  0.
303  3.02  0.  0.  0.
304  3.03  0.  0.  0.
305  3.04  0.  0.  0.
306  3.05  0.  0.  0.
307  3.06  0.  0.  0.
308  3.07  0.  0.  0.
309  3.08  0.  0.  0.
310  3.09  0.  0.  0.
311  3.10  0.  0.  0.
312  3.11  0.  0.  0.
313  3.12  0.  0.  0.
314  3.13  0.  0.  0.
315  3.14  0.  0.  0.
316  3.15  0.  0.  0.
317  3.16  0.  0.  0.
318  3.17  0.  0.  0.
319  3.18  0.  0.  0.
320  3.19  0.  0.  0.
321  3.20  0.  0.  0.
322  3.21  0.  0.  0.
323  3.22  0.  0.  0.
324  3.23  0.  0.  0.
325  3.24  0.  0.  0.
326  3.25  0.  0.  0.
327  3.26  0.  0.  0.
328  3.27  0.  0.  0.
329  3.28  0.  0.  0.
330  3.29  0.  0.  0.
331  3.30  0.  0.  0.
332  3.31  0.  0.  0.
333  3.32  0.  0.  0.
334  3.33  0.  0.  0.
335  3.34  0.  0.  0.
336  3.35  0.  0.  0.
337  3.36  0.  0.  0.
338  3.37  0.  0.  0.
339  3.38  0.  0.  0.
340  3.39  0.  0.  0.
341  3.40  0.  0.  0.
342  3.41  0.  0.  0.
343  3.42  0.  0.  0.
344  3.43  0.  0.  0.
345  3.44  0.  0.  0.
346  3.45  0.  0.  0.
347  3.46  0.  0.  0.
348  3.47  0.  0.  0.
349  3.48  0.  0.  0.
350  3.49  0.  0.  0.
351  3.50  0.  0.  0.
352  3.51  0.  0.  0.
353  3.52  0.  0.  0.
354  3.53  0.  0.  0.
355  3.54  0.  0.  0.
356  3.55  0.  0.  0.
357  3.56  0.  0.  0.
358  3.57  0.  0.  0.
359  3.58  0.  0.  0.
360  3.59  0.  0.  0.
361  3.60  0.  0.  0.
362  3.61  0.  0.  0.
363  3.62  0.  0.  0.
364  3.63  0.  0.  0.
365  3.64  0.  0.  0.
366  3.65  0.  0.  0.
367  3.66  0.  0.  0.
368  3.67  0.  0.  0.
369  3.68  0.  0.  0.
370  3.69  0.  0.  0.
371  3.70  0.  0.  0.
372  3.71  0.  0.  0.
373  3.72  0.  0.  0.
374  3.73  0.  0.  0.
375  3.74  0.  0.  0.
376  3.75  0.  0.  0.
377  3.76  0.  0.  0.
378  3.77  0.  0.  0.
379  3.78  0.  0.  0.
380  3.79  0.  0.  0.
381  3.80  0.  0.  0.
382  3.81  0.  0.  0.
383  3.82  0.  0.  0.
384  3.83  0.  0.  0.
385  3.84  0.  0.  0.
386  3.85  0.  0.  0.
387  3.86  0.  0.  0.
388  3.87  0.  0.  0.
389  3.88  0.  0.  0.
390  3.89  0.  0.  0.
391  3.90  0.  0.  0.
392  3.91  0.  0.  0.
393  3.92  0.  0.  0.
394  3.93  0.  0.  0.
395  3.94  0.  0.  0.
396  3.95  0.  0.  0.
397  3.96  0.  0.  0.
398  3.97  0.  0.  0.
399  3.98  0.  0.  0.
400  3.99  0.  0.  0.
401  4.00  0.  0.  0.
402  4.01  0.  0.  0.
403  4.02  0.  0.  0.
404  4.03  0.  0.  0.
405  4.04  0.  0.  0.
406  4.05  0.  0.  0.
407  4.06  0.  0.  0.
408  4.07  0.  0.  0.
409  4.08  0.  0.  0.
410  4.09  0.  0.  0.
411  4.10  0.  0.  0.
412  4.11  0.  0.  0.
413  4.12  0.  0.  0.
414  4.13  0.  0.  0.
415  4.14  0.  0.  0.
416  4.15  0.  0.  0.
417  4.16  0.  0.  0.
418  4.17  0.  0.  0.
419  4.18  0.  0.  0.
420  4.19  0.  0.  0.
421  4.20  0.  0.  0.
422  4.21  0.  0.  0.
423  4.22  0.  0.  0.
424  4.23  0.  0.  0.
425  4.24  0.  0.  0.
426  4.25  0.  0.  0.
427  4.26  0.  0.  0.
428  4.27  0.  0.  0.
429  4.28  0.  0.  0.
430  4.29  0.  0.  0.
431  4.30  0.  0.  0.
432  4.31  0.  0.  0.
433  4.32  0.  0.  0.
434  4.33  0.  0.  0.
435  4.34  0.  0.  0.
436  4.35  0.  0.  0.
437  4.36  0.  0.  0.
438  4.37  0.  0.  0.
439  4.38  0.  0.  0.
440  4.39  0.  0.  0.
441  4.40  0.  0.  0.
442  4.41  0.  0.  0.
443  4.42  0.  0.  0.
444  4.43  0.  0.  0.
445  4.44  0.  0.  0.
446  4.45  0.  0.  0.
447  4.46  0.  0.  0.
448  4.47  0.  0.  0.
449  4.48  0.  0.  0.
450  4.49  0.  0.  0.
451  4.50  0.  0.  0.
452  4.51  0.  0.  0.
453  4.52  0.  0.  0.
454  4.53  0.  0.  0.
455  4.54  0.  0.  0.
456  4.55  0.  0.  0.
457  4.56  0.  0.  0.
458  4.57  0.  0.  0.
459  4.58  0.  0.  0.
460  4.59  0.  0.  0.
461  4.60  0.  0.  0.
462  4.61  0.  0.  0.
463  4.62  0.  0.  0.
464  4.63  0.  0.  0.
465  4.64  0.  0.  0.
466  4.65  0.  0.  0.
467  4.66  0.  0.  0.
468  4.67  0.  0.  0.
469  4.68  0.  0.  0.
470  4.69  0.  0.  0.
471  4.70  0.  0.  0.
472  4.71  0.  0.  0.
473  4.72  0.  0.  0.
474  4.73  0.  0.  0.
475  4.74  0.  0.  0.
476  4.75  0.  0.  0.
477  4.76  0.  0.  0.
478  4.77  0.  0.  0.
479  4.78  0.  0.  0.
480  4.79  0.  0.  0.
481  4.80  0.  0.  0.
482  4.81  0.  0.  0.
483  4.82  0.  0.  0.
484  4.83  0.  0.  0.
485  4.84  0.  0.  0.
486  4.85  0.  0.  0.
487  4.86  0.  0.  0.
488  4.87  0.  0.  0.
489  4.88  0.  0.  0.
490  4.89  0.  0.  0.
491  4.90  0.  0.  0.
492  4.91  0.  0.  0.
493  4.92  0.  0.  0.
494  4.93  0.  0.  0.
495  4.94  0.  0.  0.
496  4.95  0.  0.  0.
497  4.96  0.  0.  0.
498  4.97  0.  0.  0.
499  4.98  0.  0.  0.
500  4.99  0.  0.  0.
501  5.00  0.  0.  0.
502  5.01  0.  0.  0.
503  5.02  0.  0.  0.
504  5.03  0.  0.  0.
505  5.04  0.  0.  0.
506  5.05  0.  0.  0.
507  5.06  0.  0.  0.
508  5.07  0.  0.  0.
509  5.08  0.  0.  0.
510  5.09  0.  0.  0.
511  5.10  0.  0.  0.
512  5.11  0.  0.  0.
513  5.12  0.  0.  0.
514  5.13  0.  0.  0.
515  5.14  0.  0.  0.
516  5.15  0.  0.  0.
517  5.16  0.  0.  0.
518  5.17  0.  0.  0.
519  5.18  0.  0.  0.
520  5.19  0.  0.  0.
521  5.20  0.  0.  0.
522  5.21  0.  0.  0.
523  5.22  0.  0.  0.
524  5.23  0.  0.  0.
525  5.24  0.  0.  0.
526  5.25  0.  0.  0.
527  5.26  0.  0.  0.
528  5.27  0.  0.  0.
529  5.28  0.  0.  0.
530  5.29  0.  0.  0.
531  5.30  0.  0.  0.
532  5.31  0.  0.  0.
533  5.32  0.  0.  0.
534  5.33  0.  0.  0.
535  5.34  0.  0.  0.
536  5.35  0.  0.  0.
537  5.36  0.  0.  0.
538  5.37  0.  0.  0.
539  5.38  0.  0.  0.
540  5.39  0.  0.  0.
541  5.40  0.  0.  0.
542  5.41  0.  0.  0.
543  5.42  0.  0.  0.
544  5.43  0.  0.  0.
545  5.44  0.  0.  0.
546  5.45  0.  0.  0.
547  5.46  0.  0.  0.
548  5.47  0.  0.  0.
549  5.48  0.  0.  0.
550  5.49  0.  0.  0.
551  5.50  0.  0.  0.
552  5.51  0.  0.  0.
553  5.52  0.  0.  0.
554  5.53  0.  0.  0.
555  5.54  0.  0.  0.
556  5.55  0.  0.  0.
557  5.56  0.  0.  0.
558  5.57  0.  0.  0.
559  5.58  0.  0.  0.
560  5.59  0.  0.  0.
561  5.60  0.  0.  0.
562  5.61  0.  0.  0.
563  5.62  0.  0.  0.
564  5.63  0.  0.  0.
565  5.64  0.  0.  0.
566  5.65  0.  0.  0.
567  5.66  0.  0.  0.
568  5.67  0.  0.  0.
569  5.68  0.  0.  0.
570  5.69  0.  0.  0.
571  5.70  0.  0.  0.
572  5.71  0.  0.  0.
573  5.72  0.  0.  0.
574  5.73  0.  0.  0.
575  5.74  0.  0.  0.
576  5.75  0.  0.  0.
577  5.76  0.  0.  0.
578  5.77  0.  0.  0.
579  5.78  0.  0.  0.
580  5.79  0.  0.  0.
581  5.80  0.  0.  0.
582  5.81  0.  0.  0.
583  5.82  0.  0.  0.
584  5.83  0.  0.  0.
585  5.84  0.  0.  0.
586  5.85  0.  0.  0.
587  5.86  0.  0.  0.
588  5.87  0.  0.  0.
589  5.88  0.  0.  0.
590  5.89  0.  0.  0.
591  5.90  0.  0.  0.
592  5.91  0.  0.  0.
593  5.92  0.  0.  0.
594  5.93  0.  0.  0.
595  5.94  0.  0.  0.
596  5.95  0.  0.  0.
597  5.96  0.  0.  0.
598  5.97  0.  0.  0.
599  5.98  0.  0.  0.
600  5.99  0.  0.  0.
1                         1.4078497924039E+01  2.6909558558433E+00
1  0.0000000000000E+00  8.2038656423755E-10  1.0693982921417E-09
2  1.0000000000000E-02  3.1081644622853E-03 -1.1225086986673E-03
3  2.0000000000000E-02  1.2412401695269E-02 -4.4782820832098E-03
4  3.0000000000000E-02  2.7852060044717E-02 -1.0032108993327E-02
5  4.0000000000000E-02  4.9326442420337E-02 -1.7725461494008E-02
6  5.0000000000000E-02  7.6695388536651E-02 -2.7476733477383E-02
7  6.0000000000000E-02  1.0978008750732E-01 -3.9181579812698E-02
8  7.0000000000000E-02  1.4836411819402E-01 -5.2713360920816E-02
9  8.0000000000000E-02  1.9219471389047E-01 -6.7923698719039E-02
10  9.0000000000000E-02  2.4098424704724E-01 -8.4643150718389E-02
11  1.0000000000000E-01  2.9441192880485E-01 -1.0268200961828E-01
12  1.1000000000000E-01  3.5212571709582E-01 -1.2183123599827E-01
13  1.2000000000000E-01  4.1374442599783E-01 -1.4186353162558E-01
14  1.3000000000000E-01  4.7886002786835E-01 -1.6253456046149E-01
15  1.4000000000000E-01  5.4704013856975E-01 -1.8358432364731E-01
16  1.5000000000000E-01  6.1783067480750E-01 -2.0473869358031E-01
17  1.6000000000000E-01  6.9075867126200E-01 -2.2571111065689E-01
18  1.7000000000000E-01  7.6533524380780E-01 -2.4620444438094E-01
19  1.8000000000000E-01  8.4105868369787E-01 -2.6591301833432E-01
20  1.9000000000000E-01  9.1741766616250E-01 -2.8452479601506E-01
21  2.0000000000000E-01  9.9389455545138E-01 -3.0172372181066E-01
22  2.1000000000000E-01  1.0699687869577E+00 -3.1719220843443E-01
23  2.2000000000000E-01  1.1451203057262E+00 -3.3061375906876E-01
24  2.3000000000000E-01  1.2188330393913E+00 -3.4167570928983E-01
25  2.4000000000000E-01  1.2905983824402E+00 -3.5007207065773E-01
26  2.5000000000000E-01  1.3599186676774E+00 -3.5550645471323E-01
27  2.6000000000000E-01  1.4263105999116E+00 -3.5769505309481E-01
28  2.7000000000000E-01  1.4893086262090E+00 -3.5636964664890E-01
29  2.8000000000000E-01  1.5484682165966E+00 -3.5128061381925E-01
30  2.9000000000000E-01  1.6033690288680E+00 -3.4219990633561E-01
31  3.0000000000000E-01  1.6536179311670E+00 -3.2892395833895E-01
32  3.1000000000000E-01  1.6988518563157E+00 -3.1127649363688E-01
33  3.2000000000000E-01  1.7387404624327E+00 -2.8911119482995E-01
34  3.3000000000000E-01  1.7729885752567E+00 -2.6231419762901E-01
35  3.4000000000000E-01  1.8013383887612E+00 -2.3080637382936E-01
36  3.5000000000000E-01  1.8235714021182E+00 -1.9454536714384E-01
37  3.6000000000000E-01  1.8395100728371E+00 -1.5352734743650E-01
38  3.7000000000000E-01  1.8490191679622E+00 -1.0778845084480E-01
39  3.8000000000000E-01  1.8520067975421E+00 -5.7405875821517E-02
40  3.9000000000000E-01  1.8484251171760E+00 -2.4986082485267E-03
41  4.0000000000000E-01  1.8382706892579E+00  5.6772247559809E-02
42  4.1000000000000E-01  1.8215844955680E+00  1.2020355097617E-01
43  4.2000000000000E-01  1.7984515970569E+00  1.8755063469629E-01
44  4.3000000000000E-01  1.7690004400024E+00  2.5852825127768E-01
45  4.4000000000000E-01  1.7334018111496E+00  3.3281196064347E-01
46  4.5000000000000E-01  1.6918674479295E+00  4.1003995705171E-01
47  4.6000000000000E-01  1.6446483133509E+00  4.8981532831405E-01
48  4.7000000000000E-01  1.5920325486179E+00  5.7170873426674E-01
49  4.8000000000000E-01  1.5343431199081E+00  6.5526148574179E-01
50  4.9000000000000E-01  1.4719351790004E+00  7.3998899965204E-01
51  5.0000000000000E-01  1.4051931605205E+00  8.2538460038073E-01
52  5.1000000000000E-01  1.3345276414395E+00  9.1092363254659E-01
53  5.2000000000000E-01  1.2603719910689E+00  9.9606784548403E-01
54  5.3000000000000E-01  1.1831788421107E+00  1.0802700055166E+00
55  5.4000000000000E-01  1.1034164153059E+00  1.1629786883826E+00
56  5.5000000000000E-01  1.0215647318562E+00  1.2436432010618E+00
57  5.6000000000000E-01  9.3811174903770E-01  1.3217185798024E+00
58  5.7000000000000E-01  8.5354945527195E-01  1.3966706094067E+00
59  5.8000000000000E-01  7.6836996135183E-01  1.4679808078324E+00
60  5.9000000000000E-01  6.8306162452942E-01  1.5351513199180E+00
61  6.0000000000000E-01  5.9810524176218E-01  1.5977096645680E+00
62  6.1000000000000E-01  5.1397034758596E-01  1.6552132810077E+00
63  6.2000000000000E-01  4.3111165085090E-01  1.7072538217416E+00
64  6.3000000000000E-01  3.4996564293684E-01  1.7534611425765E+00
65  6.4000000000000E-01  2.7094740808137E-01  1.7935069434652E+00
66  6.5000000000000E-01  1.9444766413477E-01  1.8271080179301E+00
67  6.6000000000000E-01  1.2083005943513E-01  1.8540290733792E+00
68  6.7000000000000E-01  5.0428748611289E-02  1.8740850896491E+00
69  6.8000000000000E-01 -1.6453732988801E-02  1.8871431885299E+00
70  6.9000000000000E-01 -7.9548279836150E-02  1.8931239927502E+00
71  7.0000000000000E-01 -1.3862069874208E-01  1.8920024588438E+00
72  7.1000000000000E-01 -1.9347285389154E-01  1.8838081743877E+00
73  7.2000000000000E-01 -2.4394346846990E-01  1.8686251162011E+00
74  7.3000000000000E-01 -2.8990858051058E-01  1.8465908721357E+00
75  7.4000000000000E-01 -3.3128165408421E-01  1.8178953349806E+00
76  7.5000000000000E-01 -3.6801335034739E-01  1.7827788826682E+00
77  7.6000000000000E-01 -4.0009096622784E-01  1.7415300643124E+00
78  7.7000000000000E-01 -4.2753755160604E-01  1.6944828165849E+00
79  7.8000000000000E-01 -4.5041071872527E-01  1.6420132394502E+00
80  7.9000000000000E-01 -4.6880116019351E-01  1.5845359643121E+00
81  8.0000000000000E-01 -4.8283089430416E-01  1.5225001510977E+00
82  8.1000000000000E-01 -4.9265125847897E-01  1.4563851537178E+00
83  8.2000000000000E-01 -4.9844067340813E-01  1.3866958956455E+00
84  8.3000000000000E-01 -5.0040220191951E-01  1.3139579990556E+00
85  8.4000000000000E-01 -4.9876092774432E-01  1.2387127120548E+00
86  8.5000000000000E-01 -4.9376118016067E-01  1.1615116790203E+00
87  8.6000000000000E-01 -4.8566363099113E-01  1.0829115989691E+00
88  8.7000000000000E-01 -4.7474229061571E-01  1.0034688162339E+00
89  8.8000000000000E-01 -4.6128142954876E-01  9.2373388655259E-01
90  8.9000000000000E-01 -4.4557245173292E-01  8.4424616004116E-01
91  9.0000000000000E-01 -4.2791074504542E-01  7.6552842045196E-01
92  9.1000000000000E-01 -4.0859253361292E-01  6.8808161767949E-01
93  9.2000000000000E-01 -3.8791175541498E-01  6.1237972772356E-01
94  9.3000000000000E-01 -3.6615698734867E-01  5.3886477130648E-01
95  9.4000000000000E-01 -3.4360843845551E-01  4.6794201913303E-01
96  9.5000000000000E-01 -3.2053503040286E-01  3.9997540843478E-01
97  9.6000000000000E-01 -2.9719158259445E-01  3.3528319201365E-01
98  9.7000000000000E-01 -2.7381611748509E-01  2.7413383754737E-01
99  9.8000000000000E-01 -2.5062729981990E-01  2.1674219149537E-01
100  9.9000000000000E-01 -2.2782202154485E-01  1.6326591825874E-01
101  1.0000000000000E+00 -2.0557314711612E-01  1.1380224032707E-01
102  1.0100000000000E+00 -1.8402751914229E-01  6.8385328092853E-02
103  1.0200000000000E+00 -1.6330781512976E-01  2.6997494500260E-02
104  1.0300000000000E+00 -1.4351870759659E-01 -1.0405711011380E-02
105  1.0400000000000E+00 -1.2474850510887E-01 -4.3889307378851E-02
106  1.0500000000000E+00 -1.0706956546811E-01 -7.3537736753983E-02