U     ONCVPSP-4.0.1  r_core=   1.10371   1.10371   1.10371   1.10371
92.0000     32.0000      220309    zatom,zion,pspd
8      11   3     4   600     0    pspcod,pspxc,lmax,lloc,mmax,r2well
5.99000000  5.00000000  0.00000000    rchrg fchrg qchrg
3     2     2     2     0    nproj
1     1           extension_switch
0                         3.9781413773024E+01  5.2853026341193E+00 -6.2291506042854E-01
1  0.0000000000000E+00 -5.9834692511807E-07  1.6225483614463E-06  3.3628326826223E-07
2  1.0000000000000E-02  1.8196558841476E-01 -1.5781047438285E-01 -1.2258028085552E-02
3  2.0000000000000E-02  3.6116604345052E-01 -3.0935325211784E-01 -2.3237471446798E-02
4  3.0000000000000E-02  5.3493114762123E-01 -4.4861441568411E-01 -3.1716159347117E-02
5  4.0000000000000E-02  7.0077658696140E-01 -5.7007693532954E-01 -3.6582438282760E-02
6  5.0000000000000E-02  8.5648724907113E-01 -6.6894288929655E-01 -3.6884747017656E-02
7  6.0000000000000E-02  1.0001893970317E+00 -7.4132546355456E-01 -3.1874628716455E-02
8  7.0000000000000E-02  1.1304087572890E+00 -7.8440268042040E-01 -2.1041410369688E-02
9  8.0000000000000E-02  1.2461121579495E+00 -7.9652642799633E-01 -4.1371159882338E-03
10  9.0000000000000E-02  1.3467310524432E+00 -7.7728225696152E-01  1.8809425871192E-02
11  1.0000000000000E-01  1.4321660323802E+00 -7.2749749733865E-01  4.7489883727405E-02
12  1.1000000000000E-01  1.5027722398453E+00 -6.4919743669768E-01  8.1325277198244E-02
13  1.2000000000000E-01  1.5593263989521E+00 -5.4551149980606E-01  1.1948606077475E-01
14  1.3000000000000E-01  1.6029769646732E+00 -4.2053348453992E-01  1.6092266190260E-01
15  1.4000000000000E-01  1.6351796006182E+00 -2.7914185010833E-01  2.0440527649681E-01
16  1.5000000000000E-01  1.6576208161252E+00 -1.2678773890771E-01  2.4857135191037E-01
17  1.6000000000000E-01  1.6721330904476E+00  3.0740228836709E-02  2.9197887758419E-01
18  1.7000000000000E-01  1.6806051667948E+00  1.8756437554443E-01  3.3316336953688E-01
19  1.8000000000000E-01  1.6848913964985E+00  3.3796904275401E-01  3.7069628583556E-01
20  1.9000000000000E-01  1.6867240453087E+00  4.7664366626253E-01  4.0324255210289E-01
21  2.0000000000000E-01  1.6876323385687E+00  5.9890754687555E-01  4.2961491115027E-01
22  2.1000000000000E-01  1.6888717257066E+00  7.0090680492999E-01  4.4882293740418E-01
23  2.2000000000000E-01  1.6913663999212E+00  7.7977520071919E-01  4.6011476963348E-01
24  2.3000000000000E-01  1.6956675352797E+00  8.3375204835504E-01  4.6300990584073E-01
25  2.4000000000000E-01  1.7019290253254E+00  8.6225228119850E-01  4.5732176017898E-01
26  2.5000000000000E-01  1.7099017538242E+00  8.6588576444647E-01  4.4316908890609E-01
27  2.6000000000000E-01  1.7189466317227E+00  8.4642510775971E-01  4.2097583417524E-01
28  2.7000000000000E-01  1.7280658288667E+00  8.0672341590873E-01  3.9145939300286E-01
29  2.8000000000000E-01  1.7359508489415E+00  7.5058553526742E-01  3.5560777556586E-01
30  2.9000000000000E-01  1.7410453747544E+00  6.8259831849486E-01  3.1464655369210E-01
31  3.0000000000000E-01  1.7416201790884E+00  6.0792715562640E-01  2.6999689953881E-01
32  3.1000000000000E-01  1.7358568807526E+00  5.3208743415874E-01  2.2322636011013E-01
33  3.2000000000000E-01  1.7219369479290E+00  4.6070063411719E-01  1.7599429177256E-01
34  3.3000000000000E-01  1.6981321272925E+00  3.9924539316616E-01  1.2999407940534E-01
35  3.4000000000000E-01  1.6628924168415E+00  3.5281406599332E-01  8.6894379581662E-02
36  3.5000000000000E-01  1.6149278050943E+00  3.2588504482767E-01  4.8281652049157E-02
37  3.6000000000000E-01  1.5532802643246E+00  3.2212041655119E-01  1.5606178254520E-02
38  3.7000000000000E-01  1.4773828990357E+00  3.4419743750293E-01 -9.8663871053386E-03
39  3.8000000000000E-01  1.3871036947345E+00  3.9368085797702E-01 -2.7096118849036E-02
40  3.9000000000000E-01  1.2827719625753E+00  4.7094138788586E-01 -3.5301069717422E-02
41  4.0000000000000E-01  1.1651863043937E+00  5.7512363860613E-01 -3.3979517673754E-02
42  4.1000000000000E-01  1.0356036985742E+00  7.0416478815086E-01 -2.2921470242174E-02
43  4.2000000000000E-01  8.9571009674472E-01  8.5486308725312E-01 -2.2091152638080E-03
44  4.3000000000000E-01  7.4757369066580E-01  1.0229932438097E+00  2.7793652554254E-02
45  4.4000000000000E-01  5.9358272513092E-01  1.2034637809059E+00  6.6462068965177E-02
46  4.5000000000000E-01  4.3637036591534E-01  1.3905097413965E+00  1.1294073644079E-01
47  4.6000000000000E-01  2.7872965526701E-01  1.5779126818350E+00  1.6618193224372E-01
48  4.7000000000000E-01  1.2352197949155E-01  1.7592388194555E+00  2.2499035569250E-01
49  4.8000000000000E-01 -2.6417281961893E-02  1.9280855113903E+00  2.8807244497616E-01
50  4.9000000000000E-01 -1.6837216818831E-01  2.0783259814543E+00  3.5408823425348E-01
51  5.0000000000000E-01 -2.9983492223782E-01  2.2043423743108E+00  4.2170364523363E-01
52  5.1000000000000E-01 -4.1858668842658E-01  2.3012377987255E+00  4.8964111623555E-01
53  5.2000000000000E-01 -5.2276702836277E-01  2.3650189919474E+00  5.5672656462200E-01
54  5.3000000000000E-01 -6.1092965726565E-01  2.3927425503885E+00  6.2193085084791E-01
55  5.4000000000000E-01 -6.8208240042031E-01  2.3826192676358E+00  6.8440415632403E-01
56  5.5000000000000E-01 -7.3571004444423E-01  2.3340729275370E+00  7.4350199222287E-01
57  5.6000000000000E-01 -7.7177947943031E-01  2.2477518373177E+00  7.9880190923317E-01
58  5.7000000000000E-01 -7.9072726424329E-01  2.1254933682215E+00  8.5011036430655E-01
59  5.8000000000000E-01 -7.9343046624565E-01  1.9702437127729E+00  8.9745960367734E-01
60  5.9000000000000E-01 -7.8116229760471E-01  1.7859368849869E+00  9.4109482542444E-01
61  6.0000000000000E-01 -7.5553466467933E-01  1.5773386057428E+00  9.8145227333612E-01
62  6.1000000000000E-01 -7.1843024012334E-01  1.3498620629518E+00  1.0191292714379E+00
63  6.2000000000000E-01 -6.7192703941708E-01  1.1093635607075E+00  1.0548475213438E+00
64  6.3000000000000E-01 -6.1821872032781E-01  8.6192673394941E-01  1.0894112407058E+00
65  6.4000000000000E-01 -5.5953391731646E-01  6.1364428255592E-01  1.1236619110693E+00
66  6.5000000000000E-01 -4.9805787167575E-01  3.7040606594692E-01  1.1584315208233E+00
67  6.6000000000000E-01 -4.3585942722414E-01  1.3770190838726E-01  1.1944962301322E+00
68  6.7000000000000E-01 -3.7482614192996E-01 -7.9553374813651E-02  1.2325323493732E+00
69  6.8000000000000E-01 -3.1660983467910E-01 -2.7716636516686E-01  1.2730764133554E+00
70  6.9000000000000E-01 -2.6258436519162E-01 -4.5177787098239E-01  1.3164909561065E+00
71  7.0000000000000E-01 -2.1381685901049E-01 -6.0093880165102E-01  1.3629373534588E+00
72  7.1000000000000E-01 -1.7105296646939E-01 -7.2314736904808E-01  1.4123568135705E+00
73  7.2000000000000E-01 -1.3471611337453E-01 -8.1784760889428E-01  1.4644602709871E+00
74  7.3000000000000E-01 -1.0492009078076E-01 -8.8539087637650E-01  1.5187275913635E+00
75  7.4000000000000E-01 -8.1493768805543E-02 -9.2696351003496E-01  1.5744161354563E+00
76  7.5000000000000E-01 -6.4016229527518E-02 -9.4448520899101E-01  1.6305783765476E+00
77  7.6000000000000E-01 -5.1860217271960E-02 -9.4048377462294E-01  1.6860879285570E+00
78  7.7000000000000E-01 -4.4241516861587E-02 -9.1795268488337E-01  1.7396730351311E+00
79  7.8000000000000E-01 -4.0271702195112E-02 -8.8019846789948E-01  1.7899563038495E+00
80  7.9000000000000E-01 -3.9011653401726E-02 -8.3068500727523E-01  1.8354992532832E+00
81  8.0000000000000E-01 -3.9523319477748E-02 -7.7288174639000E-01  1.8748500806538E+00
82  8.1000000000000E-01 -4.0917397601164E-02 -7.1012228028533E-01  1.9065929585732E+00
83  8.2000000000000E-01 -4.2394897796410E-02 -6.4547906304729E-01  1.9293971325622E+00
84  8.3000000000000E-01 -4.3280945132879E-02 -5.8165896025597E-01  1.9420641160931E+00
85  8.4000000000000E-01 -4.3049620332514E-02 -5.2092319452326E-01  1.9435713638019E+00
86  8.5000000000000E-01 -4.1339129999481E-02 -4.6503392923790E-01  1.9331109412064E+00
87  8.6000000000000E-01 -3.7957104662041E-02 -4.1522837748137E-01  1.9101218939573E+00
88  8.7000000000000E-01 -3.2876321203539E-02 -3.7221997669919E-01  1.8743152431437E+00
89  8.8000000000000E-01 -2.6221611855179E-02 -3.3622489974503E-01  1.8256907863624E+00
90  8.9000000000000E-01 -1.8249132727212E-02 -3.0701103847452E-01  1.7645451574871E+00
91  9.0000000000000E-01 -9.3195021346662E-03 -2.8396564789287E-01  1.6914708816686E+00
92  9.1000000000000E-01  1.3343184472761E-04 -2.6617711691359E-01  1.6073464467341E+00
93  9.2000000000000E-01  9.6362838084711E-03 -2.5252586345543E-01  1.5133176892232E+00
94  9.3000000000000E-01  1.8710323644437E-02 -2.4177915033564E-01  1.4107710553831E+00
95  9.4000000000000E-01  2.6904261799679E-02 -2.3268468351553E-01  1.3012995382918E+00
96  9.5000000000000E-01  3.3823866918267E-02 -2.2405817058986E-01  1.1866623073170E+00
97  9.6000000000000E-01  3.9156886402543E-02 -2.1486055675228E-01  1.0687392322754E+00
98  9.7000000000000E-01  4.2692039036324E-02 -2.0426137756301E-01  9.4948166054208E-01
99  9.8000000000000E-01  4.4331195595308E-02 -1.9168552255776E-01  8.3086093110989E-01
100  9.9000000000000E-01  4.4094236337054E-02 -1.7684163417672E-01  7.1481620682157E-01
101  1.0000000000000E+00  4.2116449284063E-02 -1.5973131005854E-01  6.0320327742307E-01
102  1.0100000000000E+00  3.8638685993916E-02 -1.4063917009617E-01  4.9774603554517E-01
103  1.0200000000000E+00  3.3990798414338E-02 -1.2010463095837E-01  3.9999235968089E-01
104  1.0300000000000E+00  2.8569194109458E-02 -9.8877021413996E-02  3.1127619318662E-01
105  1.0400000000000E+00  2.2808856389294E-02 -7.7854518170747E-02  2.3268731424790E-01
106  1.0500000000000E+00  1.7142760095130E-02 -5.7989651047539E-02  1.6504678578867E-01
107  1.0600000000000E+00  1.1727556771709E-02 -3.9628354522330E-02  1.0878340813606E-01
108  1.0700000000000E+00  6.9605420857409E-03 -2.3744507453657E-02  6.4200699180345E-02
109  1.0800000000000E+00  3.3094537859403E-03 -1.1530584459957E-02  3.1438548842627E-02
110  1.0900000000000E+00  1.0159863049535E-03 -3.6716693857807E-03  1.0389890096860E-02
111  1.1000000000000E+00  7.2362554536158E-05 -2.7844234098996E-04  8.5118187204656E-04
112  1.1100000000000E+00 -9.3143566618452E-07  3.7634710786683E-06 -1.2114637719030E-05
113  1.1200000000000E+00 -5.5810163202415E-07  2.1005858631589E-06 -6.2332431781292E-06
114  1.13  0. -0. -0.
115  1.14  0.  0.  0.
116  1.15  0.  0.  0.
117  1.16  0.  0.  0.
118  1.17  0.  0.  0.
119  1.18  0.  0.  0.
120  1.19  0.  0.  0.
121  1.20  0.  0.  0.
122  1.21  0.  0.  0.
123  1.22  0.  0.  0.
124  1.23  0.  0.  0.
125  1.24  0.  0.  0.
126  1.25  0.  0.  0.
127  1.26  0.  0.  0.
128  1.27  0.  0.  0.
129  1.28  0.  0.  0.
130  1.29  0.  0.  0.
131  1.30  0.  0.  0.
132  1.31  0.  0.  0.
133  1.32  0.  0.  0.
134  1.33  0.  0.  0.
135  1.34  0.  0.  0.
136  1.35  0.  0.  0.
137  1.36  0.  0.  0.
138  1.37  0.  0.  0.
139  1.38  0.  0.  0.
140  1.39  0.  0.  0.
141  1.40  0.  0.  0.
142  1.41  0.  0.  0.
143  1.42  0.  0.  0.
144  1.43  0.  0.  0.
145  1.44  0.  0.  0.
146  1.45  0.  0.  0.
147  1.46  0.  0.  0.
148  1.47  0.  0.  0.
149  1.48  0.  0.  0.
150  1.49  0.  0.  0.
151  1.50  0.  0.  0.
152  1.51  0.  0.  0.
153  1.52  0.  0.  0.
154  1.53  0.  0.  0.
155  1.54  0.  0.  0.
156  1.55  0.  0.  0.
157  1.56  0.  0.  0.
158  1.57  0.  0.  0.
159  1.58  0.  0.  0.
160  1.59  0.  0.  0.
161  1.60  0.  0.  0.
162  1.61  0.  0.  0.
163  1.62  0.  0.  0.
164  1.63  0.  0.  0.
165  1.64  0.  0.  0.
166  1.65  0.  0.  0.
167  1.66  0.  0.  0.
168  1.67  0.  0.  0.
169  1.68  0.  0.  0.
170  1.69  0.  0.  0.
171  1.70  0.  0.  0.
172  1.71  0.  0.  0.
173  1.72  0.  0.  0.
174  1.73  0.  0.  0.
175  1.74  0.  0.  0.
176  1.75  0.  0.  0.
177  1.76  0.  0.  0.
178  1.77  0.  0.  0.
179  1.78  0.  0.  0.
180  1.79  0.  0.  0.
181  1.80  0.  0.  0.
182  1.81  0.  0.  0.
183  1.82  0.  0.  0.
184  1.83  0.  0.  0.
185  1.84  0.  0.  0.
186  1.85  0.  0.  0.
187  1.86  0.  0.  0.
188  1.87  0.  0.  0.
189  1.88  0.  0.  0.
190  1.89  0.  0.  0.
191  1.90  0.  0.  0.
192  1.91  0.  0.  0.
193  1.92  0.  0.  0.
194  1.93  0.  0.  0.
195  1.94  0.  0.  0.
196  1.95  0.  0.  0.
197  1.96  0.  0.  0.
198  1.97  0.  0.  0.
199  1.98  0.  0.  0.
200  1.99  0.  0.  0.
201  2.00  0.  0.  0.
202  2.01  0.  0.  0.
203  2.02  0.  0.  0.
204  2.03  0.  0.  0.
205  2.04  0.  0.  0.
206  2.05  0.  0.  0.
207  2.06  0.  0.  0.
208  2.07  0.  0.  0.
209  2.08  0.  0.  0.
210  2.09  0.  0.  0.
211  2.10  0.  0.  0.
212  2.11  0.  0.  0.
213  2.12  0.  0.  0.
214  2.13  0.  0.  0.
215  2.14  0.  0.  0.
216  2.15  0.  0.  0.
217  2.16  0.  0.  0.
218  2.17  0.  0.  0.
219  2.18  0.  0.  0.
220  2.19  0.  0.  0.
221  2.20  0.  0.  0.
222  2.21  0.  0.  0.
223  2.22  0.  0.  0.
224  2.23  0.  0.  0.
225  2.24  0.  0.  0.
226  2.25  0.  0.  0.
227  2.26  0.  0.  0.
228  2.27  0.  0.  0.
229  2.28  0.  0.  0.
230  2.29  0.  0.  0.
231  2.30  0.  0.  0.
232  2.31  0.  0.  0.
233  2.32  0.  0.  0.
234  2.33  0.  0.  0.
235  2.34  0.  0.  0.
236  2.35  0.  0.  0.
237  2.36  0.  0.  0.
238  2.37  0.  0.  0.
239  2.38  0.  0.  0.
240  2.39  0.  0.  0.
241  2.40  0.  0.  0.
242  2.41  0.  0.  0.
243  2.42  0.  0.  0.
244  2.43  0.  0.  0.
245  2.44  0.  0.  0.
246  2.45  0.  0.  0.
247  2.46  0.  0.  0.
248  2.47  0.  0.  0.
249  2.48  0.  0.  0.
250  2.49  0.  0.  0.
251  2.50  0.  0.  0.
252  2.51  0.  0.  0.
253  2.52  0.  0.  0.
254  2.53  0.  0.  0.
255  2.54  0.  0.  0.
256  2.55  0.  0.  0.
257  2.56  0.  0.  0.
258  2.57  0.  0.  0.
259  2.58  0.  0.  0.
260  2.59  0.  0.  0.
261  2.60  0.  0.  0.
262  2.61  0.  0.  0.
263  2.62  0.  0.  0.
264  2.63  0.  0.  0.
265  2.64  0.  0.  0.
266  2.65  0.  0.  0.
267  2.66  0.  0.  0.
268  2.67  0.  0.  0.
269  2.68  0.  0.  0.
270  2.69  0.  0.  0.
271  2.70  0.  0.  0.
272  2.71  0.  0.  0.
273  2.72  0.  0.  0.
274  2.73  0.  0.  0.
275  2.74  0.  0.  0.
276  2.75  0.  0.  0.
277  2.76  0.  0.  0.
278  2.77  0.  0.  0.
279  2.78  0.  0.  0.
280  2.79  0.  0.  0.
281  2.80  0.  0.  0.
282  2.81  0.  0.  0.
283  2.82  0.  0.  0.
284  2.83  0.  0.  0.
285  2.84  0.  0.  0.
286  2.85  0.  0.  0.
287  2.86  0.  0.  0.
288  2.87  0.  0.  0.
289  2.88  0.  0.  0.
290  2.89  0.  0.  0.
291  2.90  0.  0.  0.
292  2.91  0.  0.  0.
293  2.92  0.  0.  0.
294  2.93  0.  0.  0.
295  2.94  0.  0.  0.
296  2.95  0.  0.  0.
297  2.96  0.  0.  0.
298  2.97  0.  0.  0.
299  2.98  0.  0.  0.
300  2.99  0.  0.  0.
301  3.00  0.  0.  0.
302  3.01  0.  0.  0.
303  3.02  0.  0.  0.
304  3.03  0.  0.  0.
305  3.04  0.  0.  0.
306  3.05  0.  0.  0.
307  3.06  0.  0.  0.
308  3.07  0.  0.  0.
309  3.08  0.  0.  0.
310  3.09  0.  0.  0.
311  3.10  0.  0.  0.
312  3.11  0.  0.  0.
313  3.12  0.  0.  0.
314  3.13  0.  0.  0.
315  3.14  0.  0.  0.
316  3.15  0.  0.  0.
317  3.16  0.  0.  0.
318  3.17  0.  0.  0.
319  3.18  0.  0.  0.
320  3.19  0.  0.  0.
321  3.20  0.  0.  0.
322  3.21  0.  0.  0.
323  3.22  0.  0.  0.
324  3.23  0.  0.  0.
325  3.24  0.  0.  0.
326  3.25  0.  0.  0.
327  3.26  0.  0.  0.
328  3.27  0.  0.  0.
329  3.28  0.  0.  0.
330  3.29  0.  0.  0.
331  3.30  0.  0.  0.
332  3.31  0.  0.  0.
333  3.32  0.  0.  0.
334  3.33  0.  0.  0.
335  3.34  0.  0.  0.
336  3.35  0.  0.  0.
337  3.36  0.  0.  0.
338  3.37  0.  0.  0.
339  3.38  0.  0.  0.
340  3.39  0.  0.  0.
341  3.40  0.  0.  0.
342  3.41  0.  0.  0.
343  3.42  0.  0.  0.
344  3.43  0.  0.  0.
345  3.44  0.  0.  0.
346  3.45  0.  0.  0.
347  3.46  0.  0.  0.
348  3.47  0.  0.  0.
349  3.48  0.  0.  0.
350  3.49  0.  0.  0.
351  3.50  0.  0.  0.
352  3.51  0.  0.  0.
353  3.52  0.  0.  0.
354  3.53  0.  0.  0.
355  3.54  0.  0.  0.
356  3.55  0.  0.  0.
357  3.56  0.  0.  0.
358  3.57  0.  0.  0.
359  3.58  0.  0.  0.
360  3.59  0.  0.  0.
361  3.60  0.  0.  0.
362  3.61  0.  0.  0.
363  3.62  0.  0.  0.
364  3.63  0.  0.  0.
365  3.64  0.  0.  0.
366  3.65  0.  0.  0.
367  3.66  0.  0.  0.
368  3.67  0.  0.  0.
369  3.68  0.  0.  0.
370  3.69  0.  0.  0.
371  3.70  0.  0.  0.
372  3.71  0.  0.  0.
373  3.72  0.  0.  0.
374  3.73  0.  0.  0.
375  3.74  0.  0.  0.
376  3.75  0.  0.  0.
377  3.76  0.  0.  0.
378  3.77  0.  0.  0.
379  3.78  0.  0.  0.
380  3.79  0.  0.  0.
381  3.80  0.  0.  0.
382  3.81  0.  0.  0.
383  3.82  0.  0.  0.
384  3.83  0.  0.  0.
385  3.84  0.  0.  0.
386  3.85  0.  0.  0.
387  3.86  0.  0.  0.
388  3.87  0.  0.  0.
389  3.88  0.  0.  0.
390  3.89  0.  0.  0.
391  3.90  0.  0.  0.
392  3.91  0.  0.  0.
393  3.92  0.  0.  0.
394  3.93  0.  0.  0.
395  3.94  0.  0.  0.
396  3.95  0.  0.  0.
397  3.96  0.  0.  0.
398  3.97  0.  0.  0.
399  3.98  0.  0.  0.
400  3.99  0.  0.  0.
401  4.00  0.  0.  0.
402  4.01  0.  0.  0.
403  4.02  0.  0.  0.
404  4.03  0.  0.  0.
405  4.04  0.  0.  0.
406  4.05  0.  0.  0.
407  4.06  0.  0.  0.
408  4.07  0.  0.  0.
409  4.08  0.  0.  0.
410  4.09  0.  0.  0.
411  4.10  0.  0.  0.
412  4.11  0.  0.  0.
413  4.12  0.  0.  0.
414  4.13  0.  0.  0.
415  4.14  0.  0.  0.
416  4.15  0.  0.  0.
417  4.16  0.  0.  0.
418  4.17  0.  0.  0.
419  4.18  0.  0.  0.
420  4.19  0.  0.  0.
421  4.20  0.  0.  0.
422  4.21  0.  0.  0.
423  4.22  0.  0.  0.
424  4.23  0.  0.  0.
425  4.24  0.  0.  0.
426  4.25  0.  0.  0.
427  4.26  0.  0.  0.
428  4.27  0.  0.  0.
429  4.28  0.  0.  0.
430  4.29  0.  0.  0.
431  4.30  0.  0.  0.
432  4.31  0.  0.  0.
433  4.32  0.  0.  0.
434  4.33  0.  0.  0.
435  4.34  0.  0.  0.
436  4.35  0.  0.  0.
437  4.36  0.  0.  0.
438  4.37  0.  0.  0.
439  4.38  0.  0.  0.
440  4.39  0.  0.  0.
441  4.40  0.  0.  0.
442  4.41  0.  0.  0.
443  4.42  0.  0.  0.
444  4.43  0.  0.  0.
445  4.44  0.  0.  0.
446  4.45  0.  0.  0.
447  4.46  0.  0.  0.
448  4.47  0.  0.  0.
449  4.48  0.  0.  0.
450  4.49  0.  0.  0.
451  4.50  0.  0.  0.
452  4.51  0.  0.  0.
453  4.52  0.  0.  0.
454  4.53  0.  0.  0.
455  4.54  0.  0.  0.
456  4.55  0.  0.  0.
457  4.56  0.  0.  0.
458  4.57  0.  0.  0.
459  4.58  0.  0.  0.
460  4.59  0.  0.  0.
461  4.60  0.  0.  0.
462  4.61  0.  0.  0.
463  4.62  0.  0.  0.
464  4.63  0.  0.  0.
465  4.64  0.  0.  0.
466  4.65  0.  0.  0.
467  4.66  0.  0.  0.
468  4.67  0.  0.  0.
469  4.68  0.  0.  0.
470  4.69  0.  0.  0.
471  4.70  0.  0.  0.
472  4.71  0.  0.  0.
473  4.72  0.  0.  0.
474  4.73  0.  0.  0.
475  4.74  0.  0.  0.
476  4.75  0.  0.  0.
477  4.76  0.  0.  0.
478  4.77  0.  0.  0.
479  4.78  0.  0.  0.
480  4.79  0.  0.  0.
481  4.80  0.  0.  0.
482  4.81  0.  0.  0.
483  4.82  0.  0.  0.
484  4.83  0.  0.  0.
485  4.84  0.  0.  0.
486  4.85  0.  0.  0.
487  4.86  0.  0.  0.
488  4.87  0.  0.  0.
489  4.88  0.  0.  0.
490  4.89  0.  0.  0.
491  4.90  0.  0.  0.
492  4.91  0.  0.  0.
493  4.92  0.  0.  0.
494  4.93  0.  0.  0.
495  4.94  0.  0.  0.
496  4.95  0.  0.  0.
497  4.96  0.  0.  0.
498  4.97  0.  0.  0.
499  4.98  0.  0.  0.
500  4.99  0.  0.  0.
501  5.00  0.  0.  0.
502  5.01  0.  0.  0.
503  5.02  0.  0.  0.
504  5.03  0.  0.  0.
505  5.04  0.  0.  0.
506  5.05  0.  0.  0.
507  5.06  0.  0.  0.
508  5.07  0.  0.  0.
509  5.08  0.  0.  0.
510  5.09  0.  0.  0.
511  5.10  0.  0.  0.
512  5.11  0.  0.  0.
513  5.12  0.  0.  0.
514  5.13  0.  0.  0.
515  5.14  0.  0.  0.
516  5.15  0.  0.  0.
517  5.16  0.  0.  0.
518  5.17  0.  0.  0.
519  5.18  0.  0.  0.
520  5.19  0.  0.  0.
521  5.20  0.  0.  0.
522  5.21  0.  0.  0.
523  5.22  0.  0.  0.
524  5.23  0.  0.  0.
525  5.24  0.  0.  0.
526  5.25  0.  0.  0.
527  5.26  0.  0.  0.
528  5.27  0.  0.  0.
529  5.28  0.  0.  0.
530  5.29  0.  0.  0.
531  5.30  0.  0.  0.
532  5.31  0.  0.  0.
533  5.32  0.  0.  0.
534  5.33  0.  0.  0.
535  5.34  0.  0.  0.
536  5.35  0.  0.  0.
537  5.36  0.  0.  0.
538  5.37  0.  0.  0.
539  5.38  0.  0.  0.
540  5.39  0.  0.  0.
541  5.40  0.  0.  0.
542  5.41  0.  0.  0.
543  5.42  0.  0.  0.
544  5.43  0.  0.  0.
545  5.44  0.  0.  0.
546  5.45  0.  0.  0.
547  5.46  0.  0.  0.
548  5.47  0.  0.  0.
549  5.48  0.  0.  0.
550  5.49  0.  0.  0.
551  5.50  0.  0.  0.
552  5.51  0.  0.  0.
553  5.52  0.  0.  0.
554  5.53  0.  0.  0.
555  5.54  0.  0.  0.
556  5.55  0.  0.  0.
557  5.56  0.  0.  0.
558  5.57  0.  0.  0.
559  5.58  0.  0.  0.
560  5.59  0.  0.  0.
561  5.60  0.  0.  0.
562  5.61  0.  0.  0.
563  5.62  0.  0.  0.
564  5.63  0.  0.  0.
565  5.64  0.  0.  0.
566  5.65  0.  0.  0.
567  5.66  0.  0.  0.
568  5.67  0.  0.  0.
569  5.68  0.  0.  0.
570  5.69  0.  0.  0.
571  5.70  0.  0.  0.
572  5.71  0.  0.  0.
573  5.72  0.  0.  0.
574  5.73  0.  0.  0.
575  5.74  0.  0.  0.
576  5.75  0.  0.  0.
577  5.76  0.  0.  0.
578  5.77  0.  0.  0.
579  5.78  0.  0.  0.
580  5.79  0.  0.  0.
581  5.80  0.  0.  0.
582  5.81  0.  0.  0.
583  5.82  0.  0.  0.
584  5.83  0.  0.  0.
585  5.84  0.  0.  0.
586  5.85  0.  0.  0.
587  5.86  0.  0.  0.
588  5.87  0.  0.  0.
589  5.88  0.  0.  0.
590  5.89  0.  0.  0.
591  5.90  0.  0.  0.
592  5.91  0.  0.  0.
593  5.92  0.  0.  0.
594  5.93  0.  0.  0.
595  5.94  0.  0.  0.
596  5.95  0.  0.  0.
597  5.96  0.  0.  0.
598  5.97  0.  0.  0.
599  5.98  0.  0.  0.
600  5.99  0.  0.  0.
1                         1.2908294104993E+01 -4.4236047057100E-01
1  0.0000000000000E+00 -1.6210680631179E-08 -2.3767889203996E-07
2  1.0000000000000E-02  3.5972856694011E-03  1.0965431238900E-03
3  2.0000000000000E-02  1.4367649513257E-02  4.4364851379913E-03
4  3.0000000000000E-02  3.2246499822120E-02  1.0167088960762E-02
5  4.0000000000000E-02  5.7125822114741E-02  1.8521720077543E-02
6  5.0000000000000E-02  8.8853679600182E-02  2.9802350380324E-02
7  6.0000000000000E-02  1.2723359762268E-01  4.4356261948218E-02
8  7.0000000000000E-02  1.7202391125201E-01  6.2548086374389E-02
9  8.0000000000000E-02  2.2293717139270E-01  8.4728552924050E-02
10  9.0000000000000E-02  2.7963971655717E-01  1.1120149640800E-01
11  1.0000000000000E-01  3.4175152418223E-01  1.4219078513707E-01
12  1.1000000000000E-01  4.0884645667683E-01  1.7780886549127E-01
13  1.2000000000000E-01  4.8045301310824E-01  2.1802858037480E-01
14  1.3000000000000E-01  5.5605568763289E-01  2.6265980519145E-01
15  1.4000000000000E-01  6.3509702076075E-01  3.1133226117108E-01
16  1.5000000000000E-01  7.1698040983021E-01  3.6348561910589E-01
17  1.6000000000000E-01  8.0107372138914E-01  4.1836770673025E-01
18  1.7000000000000E-01  8.8671372142579E-01  4.7504129233423E-01
19  1.8000000000000E-01  9.7321131060528E-01  5.3239954980845E-01
20  1.9000000000000E-01  1.0598575219789E+00  5.8918993150723E-01
21  2.0000000000000E-01  1.1459302092276E+00  6.4404580106324E-01
22  2.1000000000000E-01  1.2307013255706E+00  6.9552482454413E-01
23  2.2000000000000E-01  1.3134446681574E+00  7.4215280039351E-01
24  2.3000000000000E-01  1.3934439411283E+00  7.8247134040836E-01
25  2.4000000000000E-01  1.4700009734901E+00  8.1508760763186E-01
26  2.5000000000000E-01  1.5424439162679E+00  8.3872418211544E-01
27  2.6000000000000E-01  1.6101352375991E+00  8.5226706880530E-01
28  2.7000000000000E-01  1.6724793348549E+00  8.5480988694838E-01
29  2.8000000000000E-01  1.7289295895860E+00  8.4569238764844E-01
30  2.9000000000000E-01  1.7789947039074E+00  8.2453163238273E-01
31  3.0000000000000E-01  1.8222441754650E+00  7.9124442394162E-01
32  3.1000000000000E-01  1.8583127916995E+00  7.4605990280548E-01
33  3.2000000000000E-01  1.8869040519082E+00  6.8952159410576E-01
34  3.3000000000000E-01  1.9077924565647E+00  6.2247859843446E-01
35  3.4000000000000E-01  1.9208246363452E+00  5.4606604756502E-01
36  3.5000000000000E-01  1.9259193270831E+00  4.6167537626232E-01
37  3.6000000000000E-01  1.9230662301414E+00  3.7091537606521E-01
38  3.7000000000000E-01  1.9123238291994E+00  2.7556537886045E-01
39  3.8000000000000E-01  1.8938162629846E+00  1.7752225095603E-01
40  3.9000000000000E-01  1.8677293779558E+00  7.8743147698641E-02
41  4.0000000000000E-01  1.8343061044333E+00 -1.8813827638854E-02
42  4.1000000000000E-01  1.7938413134396E+00 -1.1324880812534E-01
43  4.2000000000000E-01  1.7466763190661E+00 -2.0277691981420E-01
44  4.3000000000000E-01  1.6931931922648E+00 -2.8578041458009E-01
45  4.4000000000000E-01  1.6338090465961E+00 -3.6085414873103E-01
46  4.5000000000000E-01  1.5689704449337E+00 -4.2684262846682E-01
47  4.6000000000000E-01  1.4991480589641E+00 -4.8286717139509E-01
48  4.7000000000000E-01  1.4248316913120E+00 -5.2834212571368E-01
49  4.8000000000000E-01  1.3465257442454E+00 -5.6297953005729E-01
50  4.9000000000000E-01  1.2647451903222E+00 -5.8678206983848E-01
51  5.0000000000000E-01  1.1800120703039E+00 -6.0002467103760E-01
52  5.1000000000000E-01  1.0928525135194E+00 -6.0322554982375E-01
53  5.2000000000000E-01  1.0037942469625E+00 -5.9710798610653E-01
54  5.3000000000000E-01  9.1336453306602E-01 -5.8255449191322E-01
55  5.4000000000000E-01  8.2208845350309E-01 -5.6055538375379E-01
56  5.5000000000000E-01  7.3048743859234E-01 -5.3215402664294E-01
57  5.6000000000000E-01  6.3907792976184E-01 -4.9839118400046E-01
58  5.7000000000000E-01  5.4837005668040E-01 -4.6025097365375E-01
59  5.8000000000000E-01  4.5886621142577E-01 -4.1861089105174E-01
60  5.9000000000000E-01  3.7105940948281E-01 -3.7419821628656E-01
61  6.0000000000000E-01  2.8543134120401E-01 -3.2755487570293E-01
62  6.1000000000000E-01  2.0245003708471E-01 -2.7901249014819E-01
63  6.2000000000000E-01  1.2256709499654E-01 -2.2867892268692E-01
64  6.3000000000000E-01  4.6214446332798E-02 -1.7643715488578E-01
65  6.4000000000000E-01 -2.6199330406517E-02 -1.2195679155399E-01
66  6.5000000000000E-01 -9.4293107132683E-02 -6.4717940373389E-02
67  6.6000000000000E-01 -1.5771764055139E-01 -4.0466578664810E-03
68  6.7000000000000E-01 -2.1616023807892E-01  6.0839380144105E-02
69  6.8000000000000E-01 -2.6934952205636E-01  1.3077681426506E-01
70  6.9000000000000E-01 -3.1706013572671E-01  2.0659639702614E-01
71  7.0000000000000E-01 -3.5911721698907E-01  2.8905923959772E-01
72  7.1000000000000E-01 -3.9540045538078E-01  3.7879233794754E-01
73  7.2000000000000E-01 -4.2584754482940E-01  4.7622633013584E-01
74  7.3000000000000E-01 -4.5045684992881E-01  5.8153843879592E-01
75  7.4000000000000E-01 -4.6928911696309E-01  6.9460343107000E-01
76  7.5000000000000E-01 -4.8246808241978E-01  8.1495518433913E-01
77  7.6000000000000E-01 -4.9017986074571E-01  9.4176108705467E-01
78  7.7000000000000E-01 -4.9267102872540E-01  1.0738110416486E+00
79  7.8000000000000E-01 -4.9024536491737E-01  1.2095222871873E+00
80  7.9000000000000E-01 -4.8325924762546E-01  1.3469606432859E+00
81  8.0000000000000E-01 -4.7211576226051E-01  1.4838781170623E+00
82  8.1000000000000E-01 -4.5725761686367E-01  1.6177661371288E+00
83  8.2000000000000E-01 -4.3915901114733E-01  1.7459230095216E+00
84  8.3000000000000E-01 -4.1831664778206E-01  1.8655335571095E+00
85  8.4000000000000E-01 -3.9524011301420E-01  1.9737583325393E+00
86  8.5000000000000E-01 -3.7044188537531E-01  2.0678293094804E+00
87  8.6000000000000E-01 -3.4442725478797E-01  2.1451485792660E+00
88  8.7000000000000E-01 -3.1768444860013E-01  2.2033863277641E+00
89  8.8000000000000E-01 -2.9067526513165E-01  2.2405742537294E+00
90  8.9000000000000E-01 -2.6382650868805E-01  2.2551906233230E+00
91  9.0000000000000E-01 -2.3752250256808E-01  2.2462333388854E+00
92  9.1000000000000E-01 -2.1209892863460E-01  2.2132777308812E+00
93  9.2000000000000E-01 -1.8783820419719E-01  2.1565162521148E+00
94  9.3000000000000E-01 -1.6496656028458E-01  2.0767778497749E+00
95  9.4000000000000E-01 -1.4365293123216E-01  1.9755254955776E+00
96  9.5000000000000E-01 -1.2400970550930E-01  1.8548311453281E+00
97  9.6000000000000E-01 -1.0609532372570E-01  1.7173282514110E+00
98  9.7000000000000E-01 -8.9918643812448E-02  1.5661428374569E+00
99  9.8000000000000E-01 -7.5444927580688E-02  1.4048050348086E+00
100  9.9000000000000E-01 -6.2603239304753E-02  1.2371438467307E+00
101  1.0000000000000E+00 -5.1294987737045E-02  1.0671687197835E+00
102  1.0100000000000E+00 -4.1403289913012E-02  8.9894223635853E-01
103  1.0200000000000E+00 -3.2802789904436E-02  7.3644887479388E-01
104  1.0300000000000E+00 -2.5369516769722E-02  5.8346538988474E-01
105  1.0400000000000E+00 -1.8990451600468E-02  4.4343790539030E-01
106  1.0500000000000E+00 -1.3573747571074E-02  3.1936172954786E-01
107  1.0600000000000E+00 -9.0977114435297E-03  2.1337537152709E-01
108  1.0700000000000E+00 -5.5206077333623E-03  1.2740027342271E-01
109  1.0800000000000E+00 -2.8064084102139E-03  6.2980688801376E-02
110  1.0900000000000E+00 -9.7031063497158E-04  2.0961981164414E-02
111  1.1000000000000E+00 -8.3722355053852E-05  1.7250072088625E-03
112  1.1100000000000E+00  1.2313057180381E-06 -2.4626257514141E-05
113  1.1200000000000E+00  6.0411413141142E-07 -1.2624598190864E-05
114  1.13 -0.  0.
115  1.14  0.  0.
116  1.15  0.  0.
117  1.16  0.  0.
118  1.17  0.  0.
119  1.18  0.  0.
120  1.19  0.  0.
121  1.20  0.  0.
122  1.21  0.  0.
123  1.22  0.  0.
124  1.23  0.  0.
125  1.24  0.  0.
126  1.25  0.  0.
127  1.26  0.  0.
128  1.27  0.  0.
129  1.28  0.  0.
130  1.29  0.  0.
131  1.30  0.  0.
132  1.31  0.  0.
133  1.32  0.  0.
134  1.33  0.  0.
135  1.34  0.  0.
136  1.35  0.  0.
137  1.36  0.  0.
138  1.37  0.  0.
139  1.38  0.  0.
140  1.39  0.  0.
141  1.40  0.  0.
142  1.41  0.  0.
143  1.42  0.  0.
144  1.43  0.  0.
145  1.44  0.  0.
146  1.45  0.  0.
147  1.46  0.  0.
148  1.47  0.  0.
149  1.48  0.  0.
150  1.49  0.  0.
151  1.50  0.  0.
152  1.51  0.  0.
153  1.52  0.  0.
154  1.53  0.  0.
155  1.54  0.  0.
156  1.55  0.  0.
157  1.56  0.  0.
158  1.57  0.  0.
159  1.58  0.  0.
160  1.59  0.  0.
161  1.60  0.  0.
162  1.61  0.  0.
163  1.62  0.  0.
164  1.63  0.  0.
165  1.64  0.  0.
166  1.65  0.  0.
167  1.66  0.  0.
168  1.67  0.  0.
169  1.68  0.  0.
170  1.69  0.  0.
171  1.70  0.  0.
172  1.71  0.  0.
173  1.72  0.  0.
174  1.73  0.  0.
175  1.74  0.  0.
176  1.75  0.  0.
177  1.76  0.  0.
178  1.77  0.  0.
179  1.78  0.  0.
180  1.79  0.  0.
181  1.80  0.  0.
182  1.81  0.  0.
183  1.82  0.  0.
184  1.83  0.  0.
185  1.84  0.  0.
186  1.85  0.  0.
187  1.86  0.  0.
188  1.87  0.  0.
189  1.88  0.  0.
190  1.89  0.  0.
191  1.90  0.  0.
192  1.91  0.  0.
193  1.92  0.  0.
194  1.93  0.  0.
195  1.94  0.  0.
196  1.95  0.  0.
197  1.96  0.  0.