U     ONCVPSP-4.0.1  r_core=   1.25145   1.30497   1.45333   1.45333
92.0000     32.0000      220205    zatom,zion,pspd
8      11   3     4   600     0    pspcod,pspxc,lmax,lloc,mmax,r2well
5.99000000  5.00000000  0.00000000    rchrg fchrg qchrg
3     2     2     2     0    nproj
1     1           extension_switch
0                         2.1180551920414E+01  3.3989634397314E+00 -6.0098210692487E-01
1  0.0000000000000E+00 -4.5478379506747E-08  1.0306035094776E-07  5.6409715087913E-07
2  1.0000000000000E-02  1.2213431474630E-01 -4.0967345672752E-02 -1.6906921561952E-01
3  2.0000000000000E-02  2.4350917282455E-01 -8.0904003690027E-02 -3.3317455023799E-01
4  3.0000000000000E-02  3.6337795174318E-01 -1.1880631446942E-01 -4.8750631257583E-01
5  4.0000000000000E-02  4.8101931952876E-01 -1.5372382055151E-01 -6.2755834103845E-01
6  5.0000000000000E-02  5.9574894776530E-01 -1.8478376062192E-01 -7.4926779698337E-01
7  6.0000000000000E-02  7.0693014019133E-01 -2.1121311261792E-01 -8.4914101518449E-01
8  7.0000000000000E-02  8.1398307120217E-01 -2.3235749544068E-01 -9.2436145476486E-01
9  8.0000000000000E-02  9.1639237408317E-01 -2.4769634185424E-01 -9.7287635796666E-01
10  9.0000000000000E-02  1.0137128727711E+00 -2.5685387748139E-01 -9.9345939518817E-01
11  1.0000000000000E-01  1.1055733116273E+00 -2.5960557838752E-01 -9.8574733161967E-01
12  1.1000000000000E-01  1.1916780031062E+00 -2.5587992805359E-01 -9.5024956970774E-01
13  1.2000000000000E-01  1.2718063811568E+00 -2.4575544870503E-01 -8.8833027678567E-01
14  1.3000000000000E-01  1.3458105164645E+00 -2.2945313690832E-01 -8.0216367156424E-01
15  1.4000000000000E-01  1.4136107159544E+00 -2.0732458396889E-01 -6.9466388953230E-01
16  1.5000000000000E-01  1.4751893911622E+00 -1.7983620299732E-01 -5.6939164897444E-01
17  1.6000000000000E-01  1.5305834360446E+00 -1.4755011188439E-01 -4.3044067095226E-01
18  1.7000000000000E-01  1.5798754027148E+00 -1.1110233062959E-01 -2.8230744511366E-01
19  1.8000000000000E-01  1.6231838018290E+00 -7.1179038878249E-02 -1.2974845839536E-01
20  1.9000000000000E-01  1.6606528816581E+00 -2.8491702231595E-02  2.2370601059718E-02
21  2.0000000000000E-01  1.6924422553135E+00  1.6248088196711E-02  1.6922889967021E-01
22  2.1000000000000E-01  1.7187167486456E+00  6.2353210613981E-02  3.0620290650491E-01
23  2.2000000000000E-01  1.7396368318632E+00  1.0918420983243E-01  4.2901241786857E-01
24  2.3000000000000E-01  1.7553499762364E+00  1.5617031316362E-01  5.3385554632165E-01
25  2.4000000000000E-01  1.7659832440330E+00  2.0282755530428E-01  6.1752841165844E-01
26  2.5000000000000E-01  1.7716373761986E+00  2.4877340051322E-01  6.7752575574940E-01
27  2.6000000000000E-01  1.7723825896369E+00  2.9373736878781E-01  7.1211930703841E-01
28  2.7000000000000E-01  1.7682562360351E+00  3.3756730774645E-01  7.2041142474116E-01
29  2.8000000000000E-01  1.7592624089780E+00  3.8023109906246E-01  7.0236233514685E-01
30  2.9000000000000E-01  1.7453735177755E+00  4.2181374270247E-01  6.5879010804640E-01
31  3.0000000000000E-01  1.7265337772636E+00  4.6250991878235E-01  5.9134338370672E-01
32  3.1000000000000E-01  1.7026644951375E+00  5.0261228036714E-01  5.0244772261378E-01
33  3.2000000000000E-01  1.6736709744098E+00  5.4249587588946E-01  3.9522728402650E-01
34  3.3000000000000E-01  1.6394507904997E+00  5.8259923219906E-01  2.7340431876415E-01
35  3.4000000000000E-01  1.5999031522207E+00  6.2340274414953E-01  1.4117966181377E-01
36  3.5000000000000E-01  1.5549390152450E+00  6.6540511021856E-01  3.0980090657189E-03
37  3.6000000000000E-01  1.5044915868781E+00  7.0909862279117E-01 -1.3609775922224E-01
38  3.7000000000000E-01  1.4485268432074E+00  7.5494416405934E-01 -2.7161860291361E-01
39  3.8000000000000E-01  1.3870536745328E+00  8.0334677254902E-01 -3.9878289278359E-01
40  3.9000000000000E-01  1.3201332826550E+00  8.5463263056129E-01 -5.1316668209321E-01
41  4.0000000000000E-01  1.2478874738869E+00  9.0902827974832E-01 -6.1074594328153E-01
42  4.1000000000000E-01  1.1705055239207E+00  9.6664280203307E-01 -6.8802629393571E-01
43  4.2000000000000E-01  1.0882493339028E+00  1.0274536084159E+00 -7.4215613749253E-01
44  4.3000000000000E-01  1.0014566498289E+00  1.0912963620223E+00 -7.7101967380562E-01
45  4.4000000000000E-01  9.1054217794903E-01  1.1578594278762E+00 -7.7330687561996E-01
46  4.5000000000000E-01  8.1599649528189E-01  1.2266830947891E+00 -7.4855825837347E-01
47  4.6000000000000E-01  7.1838272437908E-01  1.2971636593242E+00 -6.9718306900566E-01
48  4.7000000000000E-01  6.1833101285052E-01  1.3685623032033E+00 -6.2045035885783E-01
49  4.8000000000000E-01  5.1653092849562E-01  1.4400185390701E+00 -5.2045325931374E-01
50  4.9000000000000E-01  4.1372194785494E-01  1.5105678503968E+00 -4.0004761917978E-01
51  5.0000000000000E-01  3.1068227739004E-01  1.5791630145118E+00 -2.6276696306798E-01
52  5.1000000000000E-01  2.0821630028524E-01  1.6446984777598E+00 -1.1271646474303E-01
53  5.2000000000000E-01  1.0714098627504E-01  1.7060370526633E+00  4.5550724728379E-02
54  5.3000000000000E-01  8.2716354777592E-03  1.7620381319011E+00  2.0717091743429E-01
55  5.4000000000000E-01 -8.7592651125669E-02  1.8115865653903E+00  3.6711681008275E-01
56  5.5000000000000E-01 -1.7968337287623E-01  1.8536213262938E+00  5.2034932612260E-01
57  5.6000000000000E-01 -2.6727650440314E-01  1.8871630999630E+00  6.6196969155951E-01
58  5.7000000000000E-01 -3.4970546298609E-01  1.9113399662589E+00  7.8736708014185E-01
59  5.8000000000000E-01 -4.2637281550637E-01  1.9254104090368E+00  8.9235733370016E-01
60  5.9000000000000E-01 -4.9676041182812E-01  1.9287829745484E+00  9.7330857436753E-01
61  6.0000000000000E-01 -5.6043768079076E-01  1.9210320100339E+00  1.0272499660678E+00
62  6.1000000000000E-01 -6.1706788231948E-01  1.9019090410096E+00  1.0519604376640E+00
63  6.2000000000000E-01 -6.6641217251162E-01  1.8713494863219E+00  1.0460348305829E+00
64  6.3000000000000E-01 -7.0833140577387E-01  1.8294745590842E+00  1.0089256576193E+00
65  6.4000000000000E-01 -7.4278566689904E-01  1.7765883540640E+00  9.4095943285715E-01
66  6.5000000000000E-01 -7.6983159407126E-01  1.7131702727588E+00  8.4332732966190E-01
67  6.6000000000000E-01 -7.8961761891124E-01  1.6398630812219E+00  7.1805071846223E-01
68  6.7000000000000E-01 -8.0237730967630E-01  1.5574570278816E+00  5.6792290283113E-01
69  6.8000000000000E-01 -8.0842105667382E-01  1.4668705647895E+00  3.9642908675372E-01
70  6.9000000000000E-01 -8.0812638314490E-01  1.3691283121787E+00  2.0764724541534E-01
71  7.0000000000000E-01 -8.0192719897951E-01  1.2653369798898E+00  6.1331167779030E-03
72  7.1000000000000E-01 -7.9030233763385E-01  1.1566600079179E+00 -2.0320703475615E-01
73  7.2000000000000E-01 -7.7376372794966E-01  1.0442917107465E+00 -4.1525192042781E-01
74  7.3000000000000E-01 -7.5284455204102E-01  9.2943170588754E-01 -6.2480485325912E-01
75  7.4000000000000E-01 -7.2808772825698E-01  8.1326037670502E-01 -8.2673331189134E-01
76  7.5000000000000E-01 -7.0003503508891E-01  6.9691606463354E-01 -1.0161043450652E+00
77  7.6000000000000E-01 -6.6921715878990E-01  5.8147460863764E-01 -1.1883119374713E+00
78  7.7000000000000E-01 -6.3614490575661E-01  4.6793175325112E-01 -1.3391927944134E+00
79  7.8000000000000E-01 -6.0130177202794E-01  3.5718883449704E-01 -1.4651274449153E+00
80  7.9000000000000E-01 -5.6513800842802E-01  2.5004202960804E-01 -1.5631240938953E+00
81  8.0000000000000E-01 -5.2806626292076E-01  1.4717532626350E-01 -1.6308832544665E+00
82  8.1000000000000E-01 -4.9045882372222E-01  4.9157234728451E-02 -1.6668418400081E+00
83  8.2000000000000E-01 -4.5264642969977E-01 -4.3558863513660E-02 -1.6701960699446E+00
84  8.3000000000000E-01 -4.1491856056662E-01 -1.3063095978122E-01 -1.6409032202428E+00
85  8.4000000000000E-01 -3.7752507019541E-01 -2.1182159554543E-01 -1.5796629070348E+00
86  8.5000000000000E-01 -3.4067898365252E-01 -2.8698841042593E-01 -1.4878792081066E+00
87  8.6000000000000E-01 -3.0456024365729E-01 -3.5607257680870E-01 -1.3676054826886E+00
88  8.7000000000000E-01 -2.6932016614508E-01 -4.1908569538149E-01 -1.2214742278859E+00
89  8.8000000000000E-01 -2.3508634816887E-01 -4.7609576225091E-01 -1.0526146958963E+00
90  8.9000000000000E-01 -2.0196776485980E-01 -5.2721283193342E-01 -8.6456127887000E-01
91  9.0000000000000E-01 -1.7005979557106E-01 -5.7257499142766E-01 -6.6115584031971E-01
92  9.1000000000000E-01 -1.3944893229381E-01 -6.1233522958637E-01 -4.4644722940520E-01
93  9.2000000000000E-01 -1.1021694527006E-01 -6.4664973467448E-01 -2.2459115678994E-01
94  9.3000000000000E-01 -8.2444310474867E-02 -6.7566808350227E-01  2.4655906934346E-04
95  9.4000000000000E-01 -5.6212740086412E-02 -6.9952570061078E-01  2.2398064242825E-01
96  9.5000000000000E-01 -3.1606698828543E-02 -7.1833886879182E-01  4.4268854862911E-01
97  9.6000000000000E-01 -8.7138346580287E-03 -7.3220246615166E-01  6.5268229241925E-01
98  9.7000000000000E-01  1.2375699865574E-02 -7.4119049349101E-01  8.5056855433087E-01
99  9.8000000000000E-01  3.1571010570626E-02 -7.4535934244753E-01  1.0332963012170E+00
100  9.9000000000000E-01  4.8783236097499E-02 -7.4475364283636E-01  1.1981918040647E+00
101  1.0000000000000E+00  6.3929214803855E-02 -7.3941441989961E-01  1.3429816190579E+00
102  1.0100000000000E+00  7.6935882150289E-02 -7.2938919111618E-01  1.4658048048500E+00
103  1.0200000000000E+00  8.7745197255273E-02 -7.1474353959965E-01  1.5652163701684E+00
104  1.0300000000000E+00  9.6319362210866E-02 -6.9557361805384E-01  1.6401846729648E+00
105  1.0400000000000E+00  1.0264606699189E-01 -6.7201896411053E-01  1.6900862191316E+00
106  1.0500000000000E+00  1.0674346607903E-01 -6.4427494404020E-01  1.7147020332628E+00
107  1.0600000000000E+00  1.0866456963736E-01 -6.1260408598572E-01  1.7142204960227E+00
108  1.0700000000000E+00  1.0850071126885E-01 -5.7734551388292E-01  1.6892522638432E+00
109  1.0800000000000E+00  1.0638373453858E-01 -5.3892164587262E-01  1.6408636162780E+00
110  1.0900000000000E+00  1.0248652012032E-01 -4.9784127299402E-01  1.5706353255033E+00
111  1.1000000000000E+00  9.7021445305854E-02 -4.5469805360974E-01  1.4807544014454E+00
112  1.1100000000000E+00  9.0236311883564E-02 -4.1016328600319E-01  1.3741445918143E+00
113  1.1200000000000E+00  8.2404379630496E-02 -3.6496020370793E-01  1.2543773756966E+00
114  1.1300000000000E+00  7.3810188185355E-02 -3.1982240571297E-01  1.1251837534124E+00
115  1.1400000000000E+00  6.4741917798474E-02 -2.7547558631886E-01  9.9026468109648E-01
116  1.1500000000000E+00  5.5485259564785E-02 -2.3262556016621E-01  8.5322965497112E-01
117  1.1600000000000E+00  4.6316812161083E-02 -1.9194516896148E-01  7.1753986806562E-01
118  1.1700000000000E+00  3.7497219973809E-02 -1.5406054384053E-01  5.8645717203895E-01
119  1.1800000000000E+00  2.9264160061839E-02 -1.1953692031761E-01  4.6299928750220E-01
120  1.1900000000000E+00  2.1824350635831E-02 -8.8862042081744E-02  3.4990394421229E-01
121  1.2000000000000E+00  1.5309661961692E-02 -6.2343121316408E-02  2.4968020099434E-01
122  1.2100000000000E+00  9.8525857445461E-03 -4.0287312274673E-02  1.6439806712794E-01
123  1.2200000000000E+00  5.5714341115867E-03 -2.2971884080868E-02  9.5694904196508E-02
124  1.2300000000000E+00  2.5209085283835E-03 -1.0528503790164E-02  4.4869164120816E-02
125  1.2400000000000E+00  6.8765108681917E-04 -2.9232844641785E-03  1.2772136109869E-02
126  1.2500000000000E+00  2.1222677181179E-05 -9.2523503366985E-05  4.1629092932943E-04
127  1.2600000000000E+00  2.1611001693623E-06 -9.3727306267660E-06  4.1979676445099E-05
128  1.2700000000000E+00 -7.5851602573434E-07  3.2553044341591E-06 -1.4393063741476E-05
129  1.28 -0.  0.  0.
130  1.29  0.  0.  0.
131  1.30  0.  0.  0.
132  1.31  0.  0.  0.
133  1.32  0.  0.  0.
134  1.33  0.  0.  0.
135  1.34  0.  0.  0.
136  1.35  0.  0.  0.
137  1.36  0.  0.  0.
138  1.37  0.  0.  0.
139  1.38  0.  0.  0.
140  1.39  0.  0.  0.
141  1.40  0.  0.  0.
142  1.41  0.  0.  0.
143  1.42  0.  0.  0.
144  1.43  0.  0.  0.
145  1.44  0.  0.  0.
146  1.45  0.  0.  0.
147  1.46  0.  0.  0.
148  1.47  0.  0.  0.
149  1.48  0.  0.  0.
150  1.49  0.  0.  0.
151  1.50  0.  0.  0.
152  1.51  0.  0.  0.
153  1.52  0.  0.  0.
154  1.53  0.  0.  0.
155  1.54  0.  0.  0.
156  1.55  0.  0.  0.
157  1.56  0.  0.  0.
158  1.57  0.  0.  0.
159  1.58  0.  0.  0.
160  1.59  0.  0.  0.
161  1.60  0.  0.  0.
162  1.61  0.  0.  0.
163  1.62  0.  0.  0.
164  1.63  0.  0.  0.
165  1.64  0.  0.  0.
166  1.65  0.  0.  0.
167  1.66  0.  0.  0.
168  1.67  0.  0.  0.
169  1.68  0.  0.  0.
170  1.69  0.  0.  0.
171  1.70  0.  0.  0.
172  1.71  0.  0.  0.
173  1.72  0.  0.  0.
174  1.73  0.  0.  0.
175  1.74  0.  0.  0.
176  1.75  0.  0.  0.
177  1.76  0.  0.  0.
178  1.77  0.  0.  0.
179  1.78  0.  0.  0.
180  1.79  0.  0.  0.
181  1.80  0.  0.  0.
182  1.81  0.  0.  0.
183  1.82  0.  0.  0.
184  1.83  0.  0.  0.
185  1.84  0.  0.  0.
186  1.85  0.  0.  0.
187  1.86  0.  0.  0.
188  1.87  0.  0.  0.
189  1.88  0.  0.  0.
190  1.89  0.  0.  0.
191  1.90  0.  0.  0.
192  1.91  0.  0.  0.
193  1.92  0.  0.  0.
194  1.93  0.  0.  0.
195  1.94  0.  0.  0.
196  1.95  0.  0.  0.
197  1.96  0.  0.  0.
198  1.97  0.  0.  0.
199  1.98  0.  0.  0.
200  1.99  0.  0.  0.
201  2.00  0.  0.  0.
202  2.01  0.  0.  0.
203  2.02  0.  0.  0.
204  2.03  0.  0.  0.
205  2.04  0.  0.  0.
206  2.05  0.  0.  0.
207  2.06  0.  0.  0.
208  2.07  0.  0.  0.
209  2.08  0.  0.  0.
210  2.09  0.  0.  0.
211  2.10  0.  0.  0.
212  2.11  0.  0.  0.
213  2.12  0.  0.  0.
214  2.13  0.  0.  0.
215  2.14  0.  0.  0.
216  2.15  0.  0.  0.
217  2.16  0.  0.  0.
218  2.17  0.  0.  0.
219  2.18  0.  0.  0.
220  2.19  0.  0.  0.
221  2.20  0.  0.  0.
222  2.21  0.  0.  0.
223  2.22  0.  0.  0.
224  2.23  0.  0.  0.
225  2.24  0.  0.  0.
226  2.25  0.  0.  0.
227  2.26  0.  0.  0.
228  2.27  0.  0.  0.
229  2.28  0.  0.  0.
230  2.29  0.  0.  0.
231  2.30  0.  0.  0.
232  2.31  0.  0.  0.
233  2.32  0.  0.  0.
234  2.33  0.  0.  0.
235  2.34  0.  0.  0.
236  2.35  0.  0.  0.
237  2.36  0.  0.  0.
238  2.37  0.  0.  0.
239  2.38  0.  0.  0.
240  2.39  0.  0.  0.
241  2.40  0.  0.  0.
242  2.41  0.  0.  0.
243  2.42  0.  0.  0.
244  2.43  0.  0.  0.
245  2.44  0.  0.  0.
246  2.45  0.  0.  0.
247  2.46  0.  0.  0.
248  2.47  0.  0.  0.
249  2.48  0.  0.  0.
250  2.49  0.  0.  0.
251  2.50  0.  0.  0.
252  2.51  0.  0.  0.
253  2.52  0.  0.  0.
254  2.53  0.  0.  0.
255  2.54  0.  0.  0.
256  2.55  0.  0.  0.
257  2.56  0.  0.  0.
258  2.57  0.  0.  0.
259  2.58  0.  0.  0.
260  2.59  0.  0.  0.
261  2.60  0.  0.  0.
262  2.61  0.  0.  0.
263  2.62  0.  0.  0.
264  2.63  0.  0.  0.
265  2.64  0.  0.  0.
266  2.65  0.  0.  0.
267  2.66  0.  0.  0.
268  2.67  0.  0.  0.
269  2.68  0.  0.  0.
270  2.69  0.  0.  0.
271  2.70  0.  0.  0.
272  2.71  0.  0.  0.
273  2.72  0.  0.  0.
274  2.73  0.  0.  0.
275  2.74  0.  0.  0.
276  2.75  0.  0.  0.
277  2.76  0.  0.  0.
278  2.77  0.  0.  0.
279  2.78  0.  0.  0.
280  2.79  0.  0.  0.
281  2.80  0.  0.  0.
282  2.81  0.  0.  0.
283  2.82  0.  0.  0.
284  2.83  0.  0.  0.
285  2.84  0.  0.  0.
286  2.85  0.  0.  0.
287  2.86  0.  0.  0.
288  2.87  0.  0.  0.
289  2.88  0.  0.  0.
290  2.89  0.  0.  0.
291  2.90  0.  0.  0.
292  2.91  0.  0.  0.
293  2.92  0.  0.  0.
294  2.93  0.  0.  0.
295  2.94  0.  0.  0.
296  2.95  0.  0.  0.
297  2.96  0.  0.  0.
298  2.97  0.  0.  0.
299  2.98  0.  0.  0.
300  2.99  0.  0.  0.
301  3.00  0.  0.  0.
302  3.01  0.  0.  0.
303  3.02  0.  0.  0.
304  3.03  0.  0.  0.
305  3.04  0.  0.  0.
306  3.05  0.  0.  0.
307  3.06  0.  0.  0.
308  3.07  0.  0.  0.
309  3.08  0.  0.  0.
310  3.09  0.  0.  0.
311  3.10  0.  0.  0.
312  3.11  0.  0.  0.
313  3.12  0.  0.  0.
314  3.13  0.  0.  0.
315  3.14  0.  0.  0.
316  3.15  0.  0.  0.
317  3.16  0.  0.  0.
318  3.17  0.  0.  0.
319  3.18  0.  0.  0.
320  3.19  0.  0.  0.
321  3.20  0.  0.  0.
322  3.21  0.  0.  0.
323  3.22  0.  0.  0.
324  3.23  0.  0.  0.
325  3.24  0.  0.  0.
326  3.25  0.  0.  0.
327  3.26  0.  0.  0.
328  3.27  0.  0.  0.
329  3.28  0.  0.  0.
330  3.29  0.  0.  0.
331  3.30  0.  0.  0.
332  3.31  0.  0.  0.
333  3.32  0.  0.  0.
334  3.33  0.  0.  0.
335  3.34  0.  0.  0.
336  3.35  0.  0.  0.
337  3.36  0.  0.  0.
338  3.37  0.  0.  0.
339  3.38  0.  0.  0.
340  3.39  0.  0.  0.
341  3.40  0.  0.  0.
342  3.41  0.  0.  0.
343  3.42  0.  0.  0.
344  3.43  0.  0.  0.
345  3.44  0.  0.  0.
346  3.45  0.  0.  0.
347  3.46  0.  0.  0.
348  3.47  0.  0.  0.
349  3.48  0.  0.  0.
350  3.49  0.  0.  0.
351  3.50  0.  0.  0.
352  3.51  0.  0.  0.
353  3.52  0.  0.  0.
354  3.53  0.  0.  0.
355  3.54  0.  0.  0.
356  3.55  0.  0.  0.
357  3.56  0.  0.  0.
358  3.57  0.  0.  0.
359  3.58  0.  0.  0.
360  3.59  0.  0.  0.
361  3.60  0.  0.  0.
362  3.61  0.  0.  0.
363  3.62  0.  0.  0.
364  3.63  0.  0.  0.
365  3.64  0.  0.  0.
366  3.65  0.  0.  0.
367  3.66  0.  0.  0.
368  3.67  0.  0.  0.
369  3.68  0.  0.  0.
370  3.69  0.  0.  0.
371  3.70  0.  0.  0.
372  3.71  0.  0.  0.
373  3.72  0.  0.  0.
374  3.73  0.  0.  0.
375  3.74  0.  0.  0.
376  3.75  0.  0.  0.
377  3.76  0.  0.  0.
378  3.77  0.  0.  0.
379  3.78  0.  0.  0.
380  3.79  0.  0.  0.
381  3.80  0.  0.  0.
382  3.81  0.  0.  0.
383  3.82  0.  0.  0.
384  3.83  0.  0.  0.
385  3.84  0.  0.  0.
386  3.85  0.  0.  0.
387  3.86  0.  0.  0.
388  3.87  0.  0.  0.
389  3.88  0.  0.  0.
390  3.89  0.  0.  0.
391  3.90  0.  0.  0.
392  3.91  0.  0.  0.
393  3.92  0.  0.  0.
394  3.93  0.  0.  0.
395  3.94  0.  0.  0.
396  3.95  0.  0.  0.
397  3.96  0.  0.  0.
398  3.97  0.  0.  0.
399  3.98  0.  0.  0.
400  3.99  0.  0.  0.
401  4.00  0.  0.  0.
402  4.01  0.  0.  0.
403  4.02  0.  0.  0.
404  4.03  0.  0.  0.
405  4.04  0.  0.  0.
406  4.05  0.  0.  0.
407  4.06  0.  0.  0.
408  4.07  0.  0.  0.
409  4.08  0.  0.  0.
410  4.09  0.  0.  0.
411  4.10  0.  0.  0.
412  4.11  0.  0.  0.
413  4.12  0.  0.  0.
414  4.13  0.  0.  0.
415  4.14  0.  0.  0.
416  4.15  0.  0.  0.
417  4.16  0.  0.  0.
418  4.17  0.  0.  0.
419  4.18  0.  0.  0.
420  4.19  0.  0.  0.
421  4.20  0.  0.  0.
422  4.21  0.  0.  0.
423  4.22  0.  0.  0.
424  4.23  0.  0.  0.
425  4.24  0.  0.  0.
426  4.25  0.  0.  0.
427  4.26  0.  0.  0.
428  4.27  0.  0.  0.
429  4.28  0.  0.  0.
430  4.29  0.  0.  0.
431  4.30  0.  0.  0.
432  4.31  0.  0.  0.
433  4.32  0.  0.  0.
434  4.33  0.  0.  0.
435  4.34  0.  0.  0.
436  4.35  0.  0.  0.
437  4.36  0.  0.  0.
438  4.37  0.  0.  0.
439  4.38  0.  0.  0.
440  4.39  0.  0.  0.
441  4.40  0.  0.  0.
442  4.41  0.  0.  0.
443  4.42  0.  0.  0.
444  4.43  0.  0.  0.
445  4.44  0.  0.  0.
446  4.45  0.  0.  0.
447  4.46  0.  0.  0.
448  4.47  0.  0.  0.
449  4.48  0.  0.  0.
450  4.49  0.  0.  0.
451  4.50  0.  0.  0.
452  4.51  0.  0.  0.
453  4.52  0.  0.  0.
454  4.53  0.  0.  0.
455  4.54  0.  0.  0.
456  4.55  0.  0.  0.
457  4.56  0.  0.  0.
458  4.57  0.  0.  0.
459  4.58  0.  0.  0.
460  4.59  0.  0.  0.
461  4.60  0.  0.  0.
462  4.61  0.  0.  0.
463  4.62  0.  0.  0.
464  4.63  0.  0.  0.
465  4.64  0.  0.  0.
466  4.65  0.  0.  0.
467  4.66  0.  0.  0.
468  4.67  0.  0.  0.
469  4.68  0.  0.  0.
470  4.69  0.  0.  0.
471  4.70  0.  0.  0.
472  4.71  0.  0.  0.
473  4.72  0.  0.  0.
474  4.73  0.  0.  0.
475  4.74  0.  0.  0.
476  4.75  0.  0.  0.
477  4.76  0.  0.  0.
478  4.77  0.  0.  0.
479  4.78  0.  0.  0.
480  4.79  0.  0.  0.
481  4.80  0.  0.  0.
482  4.81  0.  0.  0.
483  4.82  0.  0.  0.
484  4.83  0.  0.  0.
485  4.84  0.  0.  0.
486  4.85  0.  0.  0.
487  4.86  0.  0.  0.
488  4.87  0.  0.  0.
489  4.88  0.  0.  0.
490  4.89  0.  0.  0.
491  4.90  0.  0.  0.
492  4.91  0.  0.  0.
493  4.92  0.  0.  0.
494  4.93  0.  0.  0.
495  4.94  0.  0.  0.
496  4.95  0.  0.  0.
497  4.96  0.  0.  0.
498  4.97  0.  0.  0.
499  4.98  0.  0.  0.
500  4.99  0.  0.  0.
501  5.00  0.  0.  0.
502  5.01  0.  0.  0.
503  5.02  0.  0.  0.
504  5.03  0.  0.  0.
505  5.04  0.  0.  0.
506  5.05  0.  0.  0.
507  5.06  0.  0.  0.
508  5.07  0.  0.  0.
509  5.08  0.  0.  0.
510  5.09  0.  0.  0.
511  5.10  0.  0.  0.
512  5.11  0.  0.  0.
513  5.12  0.  0.  0.
514  5.13  0.  0.  0.
515  5.14  0.  0.  0.
516  5.15  0.  0.  0.
517  5.16  0.  0.  0.
518  5.17  0.  0.  0.
519  5.18  0.  0.  0.
520  5.19  0.  0.  0.
521  5.20  0.  0.  0.
522  5.21  0.  0.  0.
523  5.22  0.  0.  0.
524  5.23  0.  0.  0.
525  5.24  0.  0.  0.
526  5.25  0.  0.  0.
527  5.26  0.  0.  0.
528  5.27  0.  0.  0.
529  5.28  0.  0.  0.
530  5.29  0.  0.  0.
531  5.30  0.  0.  0.
532  5.31  0.  0.  0.
533  5.32  0.  0.  0.
534  5.33  0.  0.  0.
535  5.34  0.  0.  0.
536  5.35  0.  0.  0.
537  5.36  0.  0.  0.
538  5.37  0.  0.  0.
539  5.38  0.  0.  0.
540  5.39  0.  0.  0.
541  5.40  0.  0.  0.
542  5.41  0.  0.  0.
543  5.42  0.  0.  0.
544  5.43  0.  0.  0.
545  5.44  0.  0.  0.
546  5.45  0.  0.  0.
547  5.46  0.  0.  0.
548  5.47  0.  0.  0.
549  5.48  0.  0.  0.
550  5.49  0.  0.  0.
551  5.50  0.  0.  0.
552  5.51  0.  0.  0.
553  5.52  0.  0.  0.
554  5.53  0.  0.  0.
555  5.54  0.  0.  0.
556  5.55  0.  0.  0.
557  5.56  0.  0.  0.
558  5.57  0.  0.  0.
559  5.58  0.  0.  0.
560  5.59  0.  0.  0.
561  5.60  0.  0.  0.
562  5.61  0.  0.  0.
563  5.62  0.  0.  0.
564  5.63  0.  0.  0.
565  5.64  0.  0.  0.
566  5.65  0.  0.  0.
567  5.66  0.  0.  0.
568  5.67  0.  0.  0.
569  5.68  0.  0.  0.
570  5.69  0.  0.  0.
571  5.70  0.  0.  0.
572  5.71  0.  0.  0.
573  5.72  0.  0.  0.
574  5.73  0.  0.  0.
575  5.74  0.  0.  0.
576  5.75  0.  0.  0.
577  5.76  0.  0.  0.
578  5.77  0.  0.  0.
579  5.78  0.  0.  0.
580  5.79  0.  0.  0.
581  5.80  0.  0.  0.
582  5.81  0.  0.  0.
583  5.82  0.  0.  0.
584  5.83  0.  0.  0.
585  5.84  0.  0.  0.
586  5.85  0.  0.  0.
587  5.86  0.  0.  0.
588  5.87  0.  0.  0.
589  5.88  0.  0.  0.
590  5.89  0.  0.  0.
591  5.90  0.  0.  0.
592  5.91  0.  0.  0.
593  5.92  0.  0.  0.
594  5.93  0.  0.  0.
595  5.94  0.  0.  0.
596  5.95  0.  0.  0.
597  5.96  0.  0.  0.
598  5.97  0.  0.  0.
599  5.98  0.  0.  0.
600  5.99  0.  0.  0.
1                         1.5287927632801E+01  2.0514604894097E+00
1  0.0000000000000E+00 -1.6540397135278E-08  3.3652781217947E-08
2  1.0000000000000E-02  2.9836865417077E-03  5.4661704968393E-04
3  2.0000000000000E-02  1.1922654884020E-02  2.1696247018574E-03
4  3.0000000000000E-02  2.6780404033806E-02  4.8191683857568E-03
5  4.0000000000000E-02  4.7495352789522E-02  8.4143884175457E-03
6  5.0000000000000E-02  7.3979758352436E-02  1.2846691249002E-02
7  6.0000000000000E-02  1.0611827701014E-01  1.7984180211019E-02
8  7.0000000000000E-02  1.4376623867807E-01  2.3677102046812E-02
9  8.0000000000000E-02  1.8674772362528E-01  2.9764131876970E-02
10  9.0000000000000E-02  2.3485354343115E-01  3.6079290849601E-02
11  1.0000000000000E-01  2.8783923866162E-01  4.2459268467171E-02
12  1.1000000000000E-01  3.4542321255347E-01  4.8750906131605E-02
13  1.2000000000000E-01  4.0728512289391E-01  5.4818590306688E-02
14  1.3000000000000E-01  4.7306465313527E-01  6.0551303145584E-02
15  1.4000000000000E-01  5.4236077856252E-01  6.5869085542968E-02
16  1.5000000000000E-01  6.1473163412730E-01  7.0728682191713E-02
17  1.6000000000000E-01  6.8969507758587E-01  7.5128159986301E-02
18  1.7000000000000E-01  7.6673002515368E-01  7.9110319440653E-02
19  1.8000000000000E-01  8.4527861744416E-01  8.2764752905624E-02
20  1.9000000000000E-01  9.2474925151769E-01  8.6228442334768E-02
21  2.0000000000000E-01  1.0045204910297E+00  8.9684832063133E-02
22  2.1000000000000E-01  1.0839458414044E+00  9.3361357317940E-02
23  2.2000000000000E-01  1.1623593513814E+00  9.7525455674541E-02
24  2.3000000000000E-01  1.2390819769337E+00  1.0247913505493E-01
25  2.4000000000000E-01  1.3134286191700E+00  1.0855221677978E-01
26  2.5000000000000E-01  1.3847157251538E+00  1.1609441429232E-01
27  2.6000000000000E-01  1.4522693202847E+00  1.2546644620361E-01
28  2.7000000000000E-01  1.5154333236210E+00  1.3703041509601E-01
29  2.8000000000000E-01  1.5735779838562E+00  1.5113971003277E-01
30  2.9000000000000E-01  1.6261082640447E+00  1.6812871009306E-01
31  3.0000000000000E-01  1.6724719979726E+00  1.8830257781449E-01
32  3.1000000000000E-01  1.7121676405295E+00  2.1192743472770E-01
33  3.2000000000000E-01  1.7447514386652E+00  2.3922120599117E-01
34  3.3000000000000E-01  1.7698438584872E+00  2.7034540750209E-01
35  3.4000000000000E-01  1.7871351176223E+00  3.0539812704296E-01
36  3.5000000000000E-01  1.7963896898290E+00  3.4440842153292E-01
37  3.6000000000000E-01  1.7974496705949E+00  3.8733231603300E-01
38  3.7000000000000E-01  1.7902369175508E+00  4.3405054775855E-01
39  3.8000000000000E-01  1.7747539073358E+00  4.8436815112806E-01
40  3.9000000000000E-01  1.7510832803431E+00  5.3801592912550E-01
41  4.0000000000000E-01  1.7193860757514E+00  5.9465380340352E-01
42  4.1000000000000E-01  1.6798986905815E+00  6.5387598211460E-01
43  4.2000000000000E-01  1.6329286273328E+00  7.1521783198273E-01
44  4.3000000000000E-01  1.5788491241989E+00  7.7816429116438E-01
45  4.4000000000000E-01  1.5180927890899E+00  8.4215961349642E-01
46  4.5000000000000E-01  1.4511443829304E+00  9.0661819419707E-01
47  4.6000000000000E-01  1.3785329182293E+00  9.7093619324101E-01
48  4.7000000000000E-01  1.3008232551336E+00  1.0345036465671E+00
49  4.8000000000000E-01  1.2186073885731E+00  1.0967167378776E+00
50  4.9000000000000E-01  1.1324956263160E+00  1.1569898956912E+00
51  5.0000000000000E-01  1.0431078585675E+00  1.2147673818940E+00
52  5.1000000000000E-01  9.5106511507866E-01  1.2695340493892E+00
53  5.2000000000000E-01  8.5698159569299E-01  1.3208249673878E+00
54  5.3000000000000E-01  7.6145734507897E-01  1.3682336429204E+00
55  5.4000000000000E-01  6.6507172248836E-01  1.4114186055447E+00
56  5.5000000000000E-01  5.6837779327668E-01  1.4501081679381E+00
57  5.6000000000000E-01  4.7189774130074E-01  1.4841032268690E+00
58  5.7000000000000E-01  3.7611937094725E-01  1.5132780254729E+00
59  5.8000000000000E-01  2.8149373531593E-01  1.5375788572168E+00
60  5.9000000000000E-01  1.8843389391456E-01  1.5570207526973E+00
61  6.0000000000000E-01  9.7314770090483E-02  1.5716822506962E+00
62  6.1000000000000E-01  8.4740462998663E-03  1.5816984129214E+00
63  6.2000000000000E-01 -7.7785994842666E-02  1.5872522958377E+00
64  6.3000000000000E-01 -1.6119580308204E-01  1.5885651412883E+00
65  6.4000000000000E-01 -2.4151520955676E-01  1.5858855887234E+00
66  6.5000000000000E-01 -3.1852955448654E-01  1.5794782444800E+00
67  6.6000000000000E-01 -3.9204546984192E-01  1.5696119666237E+00
68  6.7000000000000E-01 -4.6188650207280E-01  1.5565482365949E+00
69  6.8000000000000E-01 -5.2788876299996E-01  1.5405299907848E+00
70  6.9000000000000E-01 -5.8989679417485E-01  1.5217712760609E+00
71  7.0000000000000E-01 -6.4775982145499E-01  1.5004480733013E+00
72  7.1000000000000E-01 -7.0132856247936E-01  1.4766906027001E+00
73  7.2000000000000E-01 -7.5045273056825E-01  1.4505773847473E+00
74  7.3000000000000E-01 -7.9497935490136E-01  1.4221312824899E+00
75  7.4000000000000E-01 -8.3475200935138E-01  1.3913176952873E+00
76  7.5000000000000E-01 -8.6961101190888E-01  1.3580450133647E+00
77  7.6000000000000E-01 -8.9939462415133E-01  1.3221673778018E+00
78  7.7000000000000E-01 -9.2394124667180E-01  1.2834897240184E+00
79  7.8000000000000E-01 -9.4309257281156E-01  1.2417750202736E+00
80  7.9000000000000E-01 -9.5669763045214E-01  1.1967535480899E+00
81  8.0000000000000E-01 -9.6461761099424E-01  1.1481340106999E+00
82  8.1000000000000E-01 -9.6673135689771E-01  1.0956162003282E+00
83  8.2000000000000E-01 -9.6294135508432E-01  1.0389049068810E+00
84  8.3000000000000E-01 -9.5318006380249E-01  9.7772471075167E-01
85  8.4000000000000E-01 -9.3741638574495E-01  9.1183527196139E-01
86  8.5000000000000E-01 -9.1566209065802E-01  8.4104670744424E-01
87  8.6000000000000E-01 -8.8797798655481E-01  7.6523463831816E-01
88  8.7000000000000E-01 -8.5447963991895E-01  6.8435448942984E-01
89  8.8000000000000E-01 -8.1534245173749E-01  5.9845463395194E-01
90  8.9000000000000E-01 -7.7080590741193E-01  5.0768799558996E-01
91  9.0000000000000E-01 -7.2117683395686E-01  4.1232174892533E-01
92  9.1000000000000E-01 -6.6683151662893E-01  3.1274479315891E-01
93  9.2000000000000E-01 -6.0821654829645E-01  2.0947271430247E-01
94  9.3000000000000E-01 -5.4584830740400E-01  1.0314999374565E-01
95  9.4000000000000E-01 -4.8031098313133E-01 -5.4507350717721E-03
96  9.5000000000000E-01 -4.1225308805286E-01 -1.1543253772700E-01
97  9.6000000000000E-01 -3.4238241798445E-01 -2.2578125480798E-01
98  9.7000000000000E-01 -2.7145943445533E-01 -3.3537588756754E-01
99  9.8000000000000E-01 -2.0028905608751E-01 -4.4300235410440E-01
100  9.9000000000000E-01 -1.2971084986531E-01 -5.4737066398176E-01
101  1.0000000000000E+00 -6.0587610669463E-02 -6.4713555933993E-01
102  1.0100000000000E+00  6.2076935124206E-03 -7.4092068578848E-01
103  1.0200000000000E+00  6.9806653547605E-02 -8.2734638846571E-01
104  1.0300000000000E+00  1.2936190151457E-01 -9.0506127919295E-01
105  1.0400000000000E+00  1.8406545775242E-01 -9.7277779077907E-01
106  1.0500000000000E+00  2.3316910918971E-01 -1.0293120252439E+00
107  1.0600000000000E+00  2.7600704939455E-01 -1.0736283147483E+00
108  1.0700000000000E+00  3.1202108609086E-01 -1.1048890472008E+00
109  1.0800000000000E+00  3.4078880896226E-01 -1.1225104634990E+00
110  1.0900000000000E+00  3.6205521005362E-01 -1.1262253117554E+00
111  1.1000000000000E+00  3.7576824172880E-01 -1.1161531954033E+00
112  1.1100000000000E+00  3.8211840170416E-01 -1.0928785892307E+00
113  1.1200000000000E+00  3.8152334690750E-01 -1.0574131622467E+00
114  1.1300000000000E+00  3.7452183382755E-01 -1.0109718407867E+00
115  1.1400000000000E+00  3.6173702438631E-01 -9.5489920065963E-01
116  1.1500000000000E+00  3.4386655281977E-01 -8.9065321614488E-01
117  1.1600000000000E+00  3.2167063819962E-01 -8.1978547304967E-01
118  1.1700000000000E+00  2.9595860534482E-01 -7.4391852224998E-01
119  1.1800000000000E+00  2.6757403020420E-01 -6.6472072912270E-01
120  1.1900000000000E+00  2.3737881653897E-01 -5.8387915498416E-01