U     ONCVPSP-4.0.1  r_core=   1.20013   1.20013   1.20013   1.20013
92.0000     32.0000      220329    zatom,zion,pspd
8      11   3     4   600     0    pspcod,pspxc,lmax,lloc,mmax,r2well
5.99000000  2.70000000  0.00000000    rchrg fchrg qchrg
3     2     2     2     0    nproj
1     1           extension_switch
0                         3.7608842108649E+01  7.4287094024898E+00  1.1515543522684E+00
1  0.0000000000000E+00 -5.6497594713711E-08  1.3337022541915E-07 -2.8834195087146E-07
2  1.0000000000000E-02  1.2447586461673E-01 -4.3792444836133E-02  8.0012993081845E-02
3  2.0000000000000E-02  2.4824862025323E-01 -8.6577980913981E-02  1.5809165558835E-01
4  3.0000000000000E-02  3.7062703126735E-01 -1.2737756668773E-01  2.3236464157174E-01
5  4.0000000000000E-02  4.9094319772743E-01 -1.6526689971857E-01  3.0108435717050E-01
6  5.0000000000000E-02  6.0856321136899E-01 -1.9940133449732E-01  3.6268337261800E-01
7  6.0000000000000E-02  7.2289664014846E-01 -2.2903795925360E-01  4.1582449551847E-01
8  7.0000000000000E-02  8.3340452069957E-01 -2.5355404928334E-01  4.5944274775313E-01
9  8.0000000000000E-02  9.3960559449551E-01 -2.7246124769664E-01  4.9277777672171E-01
10  9.0000000000000E-02  1.0410805901461E+00 -2.8541498194363E-01  5.1539557249234E-01
11  1.0000000000000E-01  1.1374744285579E+00 -2.9221880032330E-01  5.2719874378375E-01
12  1.1000000000000E-01  1.2284963069151E+00 -2.9282350055883E-01  5.2842501406642E-01
13  1.2000000000000E-01  1.3139176986662E+00 -2.8732111561181E-01  5.1963401998018E-01
14  1.3000000000000E-01  1.3935683868941E+00 -2.7593401317165E-01  5.0168291277924E-01
15  1.4000000000000E-01  1.4673307246212E+00 -2.5899954772089E-01  4.7569166477982E-01
16  1.5000000000000E-01  1.5351323848716E+00 -2.3695087102596E-01  4.4299935245788E-01
17  1.6000000000000E-01  1.5969379230522E+00 -2.1029465217433E-01  4.0511301270891E-01
18  1.7000000000000E-01  1.6527395221177E+00 -1.7958657644998E-01  3.6365093714182E-01
19  1.8000000000000E-01  1.7025473251674E+00 -1.4540557894583E-01  3.2028247141713E-01
20  1.9000000000000E-01  1.7463797791777E+00 -1.0832782048840E-01  2.7666651511746E-01
21  2.0000000000000E-01  1.7842544166557E+00 -6.8901428096117E-02  2.3439096765049E-01
22  2.1000000000000E-01  1.8161794888209E+00 -2.7622999011309E-02  1.9491533514644E-01
23  2.2000000000000E-01  1.8421468347958E+00  1.5083193089851E-02  1.5951860300783E-01
24  2.3000000000000E-01  1.8621263271155E+00  5.8882446869330E-02  1.2925429232747E-01
25  2.4000000000000E-01  1.8760621761035E+00  1.0354262211981E-01  1.0491436215489E-01
26  2.5000000000000E-01  1.8838713062766E+00  1.4894230921889E-01  8.7003302403614E-02
27  2.6000000000000E-01  1.8854439393544E+00  1.9507379775343E-01  7.5723395170821E-02
28  2.7000000000000E-01  1.8806464334235E+00  2.4204065670901E-01  7.0971718211774E-02
29  2.8000000000000E-01  1.8693263393991E+00  2.9004994155890E-01  7.2349037666341E-02
30  2.9000000000000E-01  1.8513195473280E+00  3.3939924832205E-01  7.9180302955976E-02
31  3.0000000000000E-01  1.8264593095335E+00  3.9045903372881E-01  9.0546030643066E-02
32  3.1000000000000E-01  1.7945868482954E+00  4.4365080675296E-01  1.0532346127816E-01
33  3.2000000000000E-01  1.7555631856558E+00  4.9942196305736E-01  1.2223600840651E-01
34  3.3000000000000E-01  1.7092817747596E+00  5.5821817409309E-01  1.3990920532544E-01
35  3.4000000000000E-01  1.6556814681294E+00  6.2045435137673E-01  1.5693110432954E-01
36  3.5000000000000E-01  1.5947593302926E+00  6.8648527952781E-01  1.7191490452012E-01
37  3.6000000000000E-01  1.5265827914251E+00  7.5657704600354E-01  1.8356148451899E-01
38  3.7000000000000E-01  1.4513006458452E+00  8.3088038942607E-01  1.9071949973633E-01
39  3.8000000000000E-01  1.3691524242526E+00  9.0940704177970E-01  1.9244077120843E-01
40  3.9000000000000E-01  1.2804757109625E+00  9.9201005376975E-01  1.8802884258846E-01
41  4.0000000000000E-01  1.1857110357545E+00  1.0783689699752E+00  1.7707880870617E-01
42  4.1000000000000E-01  1.0854040425081E+00  1.1679805650969E+00  1.5950681554212E-01
43  4.2000000000000E-01  9.8020472115616E-01  1.2601556698034E+00  1.3556798729116E-01
44  4.3000000000000E-01  8.7086358284327E-01  1.3540224106830E+00  1.0586193896309E-01
45  4.4000000000000E-01  7.5822475735936E-01  1.4485359706361E+00  7.1325468587480E-02
46  4.5000000000000E-01  6.4321609353671E-01  1.5424947513408E+00  3.3212476117804E-02
47  4.6000000000000E-01  5.2683644382756E-01  1.6345625960605E+00 -6.9383894928398E-03
48  4.7000000000000E-01  4.1014041021749E-01  1.7232965169715E+00 -4.7347414067657E-02
49  4.8000000000000E-01  2.9422091660556E-01  1.8071791739687E+00 -8.6047482921044E-02
50  4.9000000000000E-01  1.8019004967901E-01  1.8846551786389E+00 -1.2094601294777E-01
51  5.0000000000000E-01  6.9158673392762E-02  1.9541701540055E+00 -1.4989313321079E-01
52  5.1000000000000E-01 -3.7784630837768E-02  2.0142113729444E+00 -1.7075385923083E-01
53  5.2000000000000E-01 -1.3959471691814E-01  2.0633487297894E+00 -1.8148184819694E-01
54  5.3000000000000E-01 -2.3529052819735E-01  2.1002747731643E+00 -1.8019224804365E-01
55  5.4000000000000E-01 -3.2397467028323E-01  2.1238425445366E+00 -1.6523116551801E-01
56  5.5000000000000E-01 -4.0485134794218E-01  2.1331000259548E+00 -1.3523937666160E-01
57  5.6000000000000E-01 -4.7724215763874E-01  2.1273200999047E+00 -8.9208084090797E-02
58  5.7000000000000E-01 -5.4059928998849E-01  2.1060250607729E+00 -2.6524782643608E-02
59  5.8000000000000E-01 -5.9451577352518E-01  2.0690048863081E+00  5.2992380760352E-02
60  5.9000000000000E-01 -6.3873248004730E-01  2.0163286727732E+00  1.4907298746192E-01
61  6.0000000000000E-01 -6.7314170936157E-01  1.9483488524033E+00  2.6098628027285E-01
62  6.1000000000000E-01 -6.9778727410051E-01  1.8656980387530E+00  3.8754701356060E-01
63  6.2000000000000E-01 -7.1286110993472E-01  1.7692785766476E+00  5.2713512449333E-01
64  6.3000000000000E-01 -7.1869653933817E-01  1.6602451006798E+00  6.7772867525799E-01
65  6.4000000000000E-01 -7.1575841461596E-01  1.5399806216910E+00  8.3694908274623E-01
66  6.5000000000000E-01 -7.0463045488369E-01  1.4100668570423E+00  1.0021172551968E+00
67  6.6000000000000E-01 -6.8600016916472E-01  1.2722496910988E+00  1.1703189082161E+00
68  6.7000000000000E-01 -6.6064182124552E-01  1.1284007915666E+00  1.3384770472433E+00
69  6.8000000000000E-01 -6.2939793943805E-01  9.8047651068328E-01  1.5034293892635E+00
70  6.9000000000000E-01 -5.9315990457376E-01  8.3047526465924E-01  1.6620083601251E+00
71  7.0000000000000E-01 -5.5284816168316E-01  6.8039460854563E-01  1.8111212489622E+00
72  7.1000000000000E-01 -5.0939259484301E-01  5.3218920672460E-01  1.9478281287301E+00
73  7.2000000000000E-01 -4.6371358121278E-01  3.8773084280885E-01  2.0694152594499E+00
74  7.3000000000000E-01 -4.1670420057862E-01  2.4877151970161E-01  2.1734618732187E+00
75  7.4000000000000E-01 -3.6921402259105E-01  1.1691057496747E-01  2.2578984895102E+00
76  7.5000000000000E-01 -3.2203482765018E-01 -6.4334162514163E-03  2.3210552154752E+00
77  7.6000000000000E-01 -2.7588854178594E-01 -1.2004535261962E-01  2.3616988366704E+00
78  7.7000000000000E-01 -2.3141758391995E-01 -2.2293052255555E-01  2.3790578852375E+00
79  7.8000000000000E-01 -1.8917773878771E-01 -3.1432551049096E-01  2.3728352704277E+00
80  7.9000000000000E-01 -1.4963358379018E-01 -3.9370307438661E-01  2.3432084555978E+00
81  8.0000000000000E-01 -1.1315641630560E-01 -4.6077116313377E-01  2.2908175517158E+00
82  8.1000000000000E-01 -8.0024552503270E-02 -5.1546641586273E-01  2.2167420560684E+00
83  8.2000000000000E-01 -5.0425802115560E-02 -5.5794263821028E-01  2.1224672837317E+00
84  8.3000000000000E-01 -2.4461868204930E-02 -5.8855487807807E-01  2.0098418075923E+00
85  8.4000000000000E-01 -2.1543784556494E-03 -6.0783982131079E-01  1.8810274317209E+00
86  8.5000000000000E-01  1.6547773855662E-02 -6.1649329319557E-01  1.7384433664993E+00
87  8.6000000000000E-01  3.1760114694724E-02 -6.1534568327264E-01  1.5847063486327E+00
88  8.7000000000000E-01  4.3653634272606E-02 -6.0533610851754E-01  1.4225684542672E+00
89  8.8000000000000E-01  5.2445511282664E-02 -5.8748609474513E-01  1.2548542908728E+00
90  8.9000000000000E-01  5.8389807093362E-02 -5.6287349058164E-01  1.0843991278960E+00
91  9.0000000000000E-01  6.1768380861266E-02 -5.3260723618635E-01  9.1398934433887E-01
92  9.1000000000000E-01  6.2882227406006E-02 -4.9780349467482E-01  7.4630634229687E-01
93  9.2000000000000E-01  6.2043383588982E-02 -4.5956352327879E-01  5.8387480966226E-01
94  9.3000000000000E-01  5.9567488443326E-02 -4.1895351951776E-01  4.2901592426079E-01
95  9.4000000000000E-01  5.5767020142446E-02 -3.7698653125106E-01  2.8380578806214E-01
96  9.5000000000000E-01  5.0945171757707E-02 -3.3460637455870E-01  1.5003907616771E-01
97  9.6000000000000E-01  4.5390270229939E-02 -2.9267336589428E-01  2.9197593120000E-02
98  9.7000000000000E-01  3.9370591420750E-02 -2.5195155029199E-01 -7.7576840121133E-02
99  9.8000000000000E-01  3.3129380557204E-02 -2.1309700033208E-01 -1.6950598152892E-01
100  9.9000000000000E-01  2.6879853231869E-02 -1.7664667426389E-01 -2.4619625605474E-01
101  1.0000000000000E+00  2.0799941353044E-02 -1.4300729389833E-01 -3.0765838628671E-01
102  1.0100000000000E+00  1.5026759870709E-02 -1.1244427426777E-01 -3.5432476486285E-01
103  1.0200000000000E+00  9.6600614187558E-03 -8.5095827122201E-02 -3.8698497752730E-01
104  1.0300000000000E+00  4.7779081002164E-03 -6.1019871445659E-02 -4.0662531212345E-01
105  1.0400000000000E+00  4.4219932273118E-04 -4.0212706867309E-02 -4.1436821898661E-01
106  1.0500000000000E+00 -3.2993069232615E-03 -2.2618382055550E-02 -4.1144169797690E-01
107  1.0600000000000E+00 -6.4114859727851E-03 -8.1370372950847E-03 -3.9915046784028E-01
108  1.0700000000000E+00 -8.8709710510642E-03  3.3681109954883E-03 -3.7884971328247E-01
109  1.0800000000000E+00 -1.0665986335879E-02  1.2065381287924E-02 -3.5192203850113E-01
110  1.0900000000000E+00 -1.1796917087972E-02  1.8150965623180E-02 -3.1975805301215E-01
111  1.1000000000000E+00 -1.2277597706443E-02  2.1847020326570E-02 -2.8374080280995E-01
112  1.1100000000000E+00 -1.2137254548892E-02  2.3401433081641E-02 -2.4523406196779E-01
113  1.1200000000000E+00 -1.1422949853099E-02  2.3088991057159E-02 -2.0557412774847E-01
114  1.1300000000000E+00 -1.0202769883624E-02  2.1214498221605E-02 -1.6606608320133E-01
115  1.1400000000000E+00 -8.5695203590795E-03  1.8117357554454E-02 -1.2798373772161E-01
116  1.1500000000000E+00 -6.7544427956711E-03  1.4406118369271E-02 -9.2939096487611E-02
117  1.1600000000000E+00 -4.9355795985763E-03  1.0558247920081E-02 -6.2236072143449E-02
118  1.1700000000000E+00 -3.1756453464426E-03  6.7864024539090E-03 -3.6653900233266E-02
119  1.1800000000000E+00 -1.6154111095449E-03  3.4395365105025E-03 -1.7089348383678E-02
120  1.1900000000000E+00 -4.6062294766028E-04  9.7564866774933E-04 -4.4834150530008E-03
121  1.2000000000000E+00 -1.3707530648788E-06  2.8917972019251E-06 -1.2535562992120E-05
122  1.2100000000000E+00 -3.6889189046194E-06  7.7790764898297E-06 -3.3716158681351E-05
123  1.2200000000000E+00  4.3364927161252E-07 -9.1668809899482E-07  4.1102826457118E-06
124  1.23  0.  0.  0.
125  1.24  0.  0.  0.
126  1.25  0.  0.  0.
127  1.26  0.  0.  0.
128  1.27  0.  0.  0.
129  1.28  0.  0.  0.
130  1.29  0.  0.  0.
131  1.30  0.  0.  0.
132  1.31  0.  0.  0.
133  1.32  0.  0.  0.
134  1.33  0.  0.  0.
135  1.34  0.  0.  0.
136  1.35  0.  0.  0.
137  1.36  0.  0.  0.
138  1.37  0.  0.  0.
139  1.38  0.  0.  0.
140  1.39  0.  0.  0.
141  1.40  0.  0.  0.
142  1.41  0.  0.  0.
143  1.42  0.  0.  0.
144  1.43  0.  0.  0.
145  1.44  0.  0.  0.
146  1.45  0.  0.  0.
147  1.46  0.  0.  0.
148  1.47  0.  0.  0.
149  1.48  0.  0.  0.
150  1.49  0.  0.  0.
151  1.50  0.  0.  0.
152  1.51  0.  0.  0.
153  1.52  0.  0.  0.
154  1.53  0.  0.  0.
155  1.54  0.  0.  0.
156  1.55  0.  0.  0.
157  1.56  0.  0.  0.
158  1.57  0.  0.  0.
159  1.58  0.  0.  0.
160  1.59  0.  0.  0.
161  1.60  0.  0.  0.
162  1.61  0.  0.  0.
163  1.62  0.  0.  0.
164  1.63  0.  0.  0.
165  1.64  0.  0.  0.
166  1.65  0.  0.  0.
167  1.66  0.  0.  0.
168  1.67  0.  0.  0.
169  1.68  0.  0.  0.
170  1.69  0.  0.  0.
171  1.70  0.  0.  0.
172  1.71  0.  0.  0.
173  1.72  0.  0.  0.
174  1.73  0.  0.  0.
175  1.74  0.  0.  0.
176  1.75  0.  0.  0.
177  1.76  0.  0.  0.
178  1.77  0.  0.  0.
179  1.78  0.  0.  0.
180  1.79  0.  0.  0.
181  1.80  0.  0.  0.
182  1.81  0.  0.  0.
183  1.82  0.  0.  0.
184  1.83  0.  0.  0.
185  1.84  0.  0.  0.
186  1.85  0.  0.  0.
187  1.86  0.  0.  0.
188  1.87  0.  0.  0.
189  1.88  0.  0.  0.
190  1.89  0.  0.  0.
191  1.90  0.  0.  0.
192  1.91  0.  0.  0.
193  1.92  0.  0.  0.
194  1.93  0.  0.  0.
195  1.94  0.  0.  0.
196  1.95  0.  0.  0.
197  1.96  0.  0.  0.
198  1.97  0.  0.  0.
199  1.98  0.  0.  0.
200  1.99  0.  0.  0.
201  2.00  0.  0.  0.
202  2.01  0.  0.  0.
203  2.02  0.  0.  0.
204  2.03  0.  0.  0.
205  2.04  0.  0.  0.
206  2.05  0.  0.  0.
207  2.06  0.  0.  0.
208  2.07  0.  0.  0.
209  2.08  0.  0.  0.
210  2.09  0.  0.  0.
211  2.10  0.  0.  0.
212  2.11  0.  0.  0.
213  2.12  0.  0.  0.
214  2.13  0.  0.  0.
215  2.14  0.  0.  0.
216  2.15  0.  0.  0.
217  2.16  0.  0.  0.
218  2.17  0.  0.  0.
219  2.18  0.  0.  0.
220  2.19  0.  0.  0.
221  2.20  0.  0.  0.
222  2.21  0.  0.  0.
223  2.22  0.  0.  0.
224  2.23  0.  0.  0.
225  2.24  0.  0.  0.
226  2.25  0.  0.  0.
227  2.26  0.  0.  0.
228  2.27  0.  0.  0.
229  2.28  0.  0.  0.
230  2.29  0.  0.  0.
231  2.30  0.  0.  0.
232  2.31  0.  0.  0.
233  2.32  0.  0.  0.
234  2.33  0.  0.  0.
235  2.34  0.  0.  0.
236  2.35  0.  0.  0.
237  2.36  0.  0.  0.
238  2.37  0.  0.  0.
239  2.38  0.  0.  0.
240  2.39  0.  0.  0.
241  2.40  0.  0.  0.
242  2.41  0.  0.  0.
243  2.42  0.  0.  0.
244  2.43  0.  0.  0.
245  2.44  0.  0.  0.
246  2.45  0.  0.  0.
247  2.46  0.  0.  0.
248  2.47  0.  0.  0.
249  2.48  0.  0.  0.
250  2.49  0.  0.  0.
251  2.50  0.  0.  0.
252  2.51  0.  0.  0.
253  2.52  0.  0.  0.
254  2.53  0.  0.  0.
255  2.54  0.  0.  0.
256  2.55  0.  0.  0.
257  2.56  0.  0.  0.
258  2.57  0.  0.  0.
259  2.58  0.  0.  0.
260  2.59  0.  0.  0.
261  2.60  0.  0.  0.
262  2.61  0.  0.  0.
263  2.62  0.  0.  0.
264  2.63  0.  0.  0.
265  2.64  0.  0.  0.
266  2.65  0.  0.  0.
267  2.66  0.  0.  0.
268  2.67  0.  0.  0.
269  2.68  0.  0.  0.
270  2.69  0.  0.  0.
271  2.70  0.  0.  0.
272  2.71  0.  0.  0.
273  2.72  0.  0.  0.
274  2.73  0.  0.  0.
275  2.74  0.  0.  0.
276  2.75  0.  0.  0.
277  2.76  0.  0.  0.
278  2.77  0.  0.  0.
279  2.78  0.  0.  0.
280  2.79  0.  0.  0.
281  2.80  0.  0.  0.
282  2.81  0.  0.  0.
283  2.82  0.  0.  0.
284  2.83  0.  0.  0.
285  2.84  0.  0.  0.
286  2.85  0.  0.  0.
287  2.86  0.  0.  0.
288  2.87  0.  0.  0.
289  2.88  0.  0.  0.
290  2.89  0.  0.  0.
291  2.90  0.  0.  0.
292  2.91  0.  0.  0.
293  2.92  0.  0.  0.
294  2.93  0.  0.  0.
295  2.94  0.  0.  0.
296  2.95  0.  0.  0.
297  2.96  0.  0.  0.
298  2.97  0.  0.  0.
299  2.98  0.  0.  0.
300  2.99  0.  0.  0.
301  3.00  0.  0.  0.
302  3.01  0.  0.  0.
303  3.02  0.  0.  0.
304  3.03  0.  0.  0.
305  3.04  0.  0.  0.
306  3.05  0.  0.  0.
307  3.06  0.  0.  0.
308  3.07  0.  0.  0.
309  3.08  0.  0.  0.
310  3.09  0.  0.  0.
311  3.10  0.  0.  0.
312  3.11  0.  0.  0.
313  3.12  0.  0.  0.
314  3.13  0.  0.  0.
315  3.14  0.  0.  0.
316  3.15  0.  0.  0.
317  3.16  0.  0.  0.
318  3.17  0.  0.  0.
319  3.18  0.  0.  0.
320  3.19  0.  0.  0.
321  3.20  0.  0.  0.
322  3.21  0.  0.  0.
323  3.22  0.  0.  0.
324  3.23  0.  0.  0.
325  3.24  0.  0.  0.
326  3.25  0.  0.  0.
327  3.26  0.  0.  0.
328  3.27  0.  0.  0.
329  3.28  0.  0.  0.
330  3.29  0.  0.  0.
331  3.30  0.  0.  0.
332  3.31  0.  0.  0.
333  3.32  0.  0.  0.
334  3.33  0.  0.  0.
335  3.34  0.  0.  0.
336  3.35  0.  0.  0.
337  3.36  0.  0.  0.
338  3.37  0.  0.  0.
339  3.38  0.  0.  0.
340  3.39  0.  0.  0.
341  3.40  0.  0.  0.
342  3.41  0.  0.  0.
343  3.42  0.  0.  0.
344  3.43  0.  0.  0.
345  3.44  0.  0.  0.
346  3.45  0.  0.  0.
347  3.46  0.  0.  0.
348  3.47  0.  0.  0.
349  3.48  0.  0.  0.
350  3.49  0.  0.  0.
351  3.50  0.  0.  0.
352  3.51  0.  0.  0.
353  3.52  0.  0.  0.
354  3.53  0.  0.  0.
355  3.54  0.  0.  0.
356  3.55  0.  0.  0.
357  3.56  0.  0.  0.
358  3.57  0.  0.  0.
359  3.58  0.  0.  0.
360  3.59  0.  0.  0.
361  3.60  0.  0.  0.
362  3.61  0.  0.  0.
363  3.62  0.  0.  0.
364  3.63  0.  0.  0.
365  3.64  0.  0.  0.
366  3.65  0.  0.  0.
367  3.66  0.  0.  0.
368  3.67  0.  0.  0.
369  3.68  0.  0.  0.
370  3.69  0.  0.  0.
371  3.70  0.  0.  0.
372  3.71  0.  0.  0.
373  3.72  0.  0.  0.
374  3.73  0.  0.  0.
375  3.74  0.  0.  0.
376  3.75  0.  0.  0.
377  3.76  0.  0.  0.
378  3.77  0.  0.  0.
379  3.78  0.  0.  0.
380  3.79  0.  0.  0.
381  3.80  0.  0.  0.
382  3.81  0.  0.  0.
383  3.82  0.  0.  0.
384  3.83  0.  0.  0.
385  3.84  0.  0.  0.
386  3.85  0.  0.  0.
387  3.86  0.  0.  0.
388  3.87  0.  0.  0.
389  3.88  0.  0.  0.
390  3.89  0.  0.  0.
391  3.90  0.  0.  0.
392  3.91  0.  0.  0.
393  3.92  0.  0.  0.
394  3.93  0.  0.  0.
395  3.94  0.  0.  0.
396  3.95  0.  0.  0.
397  3.96  0.  0.  0.
398  3.97  0.  0.  0.
399  3.98  0.  0.  0.
400  3.99  0.  0.  0.
401  4.00  0.  0.  0.
402  4.01  0.  0.  0.
403  4.02  0.  0.  0.
404  4.03  0.  0.  0.
405  4.04  0.  0.  0.
406  4.05  0.  0.  0.
407  4.06  0.  0.  0.
408  4.07  0.  0.  0.
409  4.08  0.  0.  0.
410  4.09  0.  0.  0.
411  4.10  0.  0.  0.
412  4.11  0.  0.  0.
413  4.12  0.  0.  0.
414  4.13  0.  0.  0.
415  4.14  0.  0.  0.
416  4.15  0.  0.  0.
417  4.16  0.  0.  0.
418  4.17  0.  0.  0.
419  4.18  0.  0.  0.
420  4.19  0.  0.  0.
421  4.20  0.  0.  0.
422  4.21  0.  0.  0.
423  4.22  0.  0.  0.
424  4.23  0.  0.  0.
425  4.24  0.  0.  0.
426  4.25  0.  0.  0.
427  4.26  0.  0.  0.
428  4.27  0.  0.  0.
429  4.28  0.  0.  0.
430  4.29  0.  0.  0.
431  4.30  0.  0.  0.
432  4.31  0.  0.  0.
433  4.32  0.  0.  0.
434  4.33  0.  0.  0.
435  4.34  0.  0.  0.
436  4.35  0.  0.  0.
437  4.36  0.  0.  0.
438  4.37  0.  0.  0.
439  4.38  0.  0.  0.
440  4.39  0.  0.  0.
441  4.40  0.  0.  0.
442  4.41  0.  0.  0.
443  4.42  0.  0.  0.
444  4.43  0.  0.  0.
445  4.44  0.  0.  0.
446  4.45  0.  0.  0.
447  4.46  0.  0.  0.
448  4.47  0.  0.  0.
449  4.48  0.  0.  0.
450  4.49  0.  0.  0.
451  4.50  0.  0.  0.
452  4.51  0.  0.  0.
453  4.52  0.  0.  0.
454  4.53  0.  0.  0.
455  4.54  0.  0.  0.
456  4.55  0.  0.  0.
457  4.56  0.  0.  0.
458  4.57  0.  0.  0.
459  4.58  0.  0.  0.
460  4.59  0.  0.  0.
461  4.60  0.  0.  0.
462  4.61  0.  0.  0.
463  4.62  0.  0.  0.
464  4.63  0.  0.  0.
465  4.64  0.  0.  0.
466  4.65  0.  0.  0.
467  4.66  0.  0.  0.
468  4.67  0.  0.  0.
469  4.68  0.  0.  0.
470  4.69  0.  0.  0.
471  4.70  0.  0.  0.
472  4.71  0.  0.  0.
473  4.72  0.  0.  0.
474  4.73  0.  0.  0.
475  4.74  0.  0.  0.
476  4.75  0.  0.  0.
477  4.76  0.  0.  0.
478  4.77  0.  0.  0.
479  4.78  0.  0.  0.
480  4.79  0.  0.  0.
481  4.80  0.  0.  0.
482  4.81  0.  0.  0.
483  4.82  0.  0.  0.
484  4.83  0.  0.  0.
485  4.84  0.  0.  0.
486  4.85  0.  0.  0.
487  4.86  0.  0.  0.
488  4.87  0.  0.  0.
489  4.88  0.  0.  0.
490  4.89  0.  0.  0.
491  4.90  0.  0.  0.
492  4.91  0.  0.  0.
493  4.92  0.  0.  0.
494  4.93  0.  0.  0.
495  4.94  0.  0.  0.
496  4.95  0.  0.  0.
497  4.96  0.  0.  0.
498  4.97  0.  0.  0.
499  4.98  0.  0.  0.
500  4.99  0.  0.  0.
501  5.00  0.  0.  0.
502  5.01  0.  0.  0.
503  5.02  0.  0.  0.
504  5.03  0.  0.  0.
505  5.04  0.  0.  0.
506  5.05  0.  0.  0.
507  5.06  0.  0.  0.
508  5.07  0.  0.  0.
509  5.08  0.  0.  0.
510  5.09  0.  0.  0.
511  5.10  0.  0.  0.
512  5.11  0.  0.  0.
513  5.12  0.  0.  0.
514  5.13  0.  0.  0.
515  5.14  0.  0.  0.
516  5.15  0.  0.  0.
517  5.16  0.  0.  0.
518  5.17  0.  0.  0.
519  5.18  0.  0.  0.
520  5.19  0.  0.  0.
521  5.20  0.  0.  0.
522  5.21  0.  0.  0.
523  5.22  0.  0.  0.
524  5.23  0.  0.  0.
525  5.24  0.  0.  0.
526  5.25  0.  0.  0.
527  5.26  0.  0.  0.
528  5.27  0.  0.  0.
529  5.28  0.  0.  0.
530  5.29  0.  0.  0.
531  5.30  0.  0.  0.
532  5.31  0.  0.  0.
533  5.32  0.  0.  0.
534  5.33  0.  0.  0.
535  5.34  0.  0.  0.
536  5.35  0.  0.  0.
537  5.36  0.  0.  0.
538  5.37  0.  0.  0.
539  5.38  0.  0.  0.
540  5.39  0.  0.  0.
541  5.40  0.  0.  0.
542  5.41  0.  0.  0.
543  5.42  0.  0.  0.
544  5.43  0.  0.  0.
545  5.44  0.  0.  0.
546  5.45  0.  0.  0.
547  5.46  0.  0.  0.
548  5.47  0.  0.  0.
549  5.48  0.  0.  0.
550  5.49  0.  0.  0.
551  5.50  0.  0.  0.
552  5.51  0.  0.  0.
553  5.52  0.  0.  0.
554  5.53  0.  0.  0.
555  5.54  0.  0.  0.
556  5.55  0.  0.  0.
557  5.56  0.  0.  0.
558  5.57  0.  0.  0.
559  5.58  0.  0.  0.
560  5.59  0.  0.  0.
561  5.60  0.  0.  0.
562  5.61  0.  0.  0.
563  5.62  0.  0.  0.
564  5.63  0.  0.  0.
565  5.64  0.  0.  0.
566  5.65  0.  0.  0.
567  5.66  0.  0.  0.
568  5.67  0.  0.  0.
569  5.68  0.  0.  0.
570  5.69  0.  0.  0.
571  5.70  0.  0.  0.
572  5.71  0.  0.  0.
573  5.72  0.  0.  0.
574  5.73  0.  0.  0.
575  5.74  0.  0.  0.
576  5.75  0.  0.  0.
577  5.76  0.  0.  0.
578  5.77  0.  0.  0.
579  5.78  0.  0.  0.
580  5.79  0.  0.  0.
581  5.80  0.  0.  0.
582  5.81  0.  0.  0.
583  5.82  0.  0.  0.
584  5.83  0.  0.  0.
585  5.84  0.  0.  0.
586  5.85  0.  0.  0.
587  5.86  0.  0.  0.
588  5.87  0.  0.  0.
589  5.88  0.  0.  0.
590  5.89  0.  0.  0.
591  5.90  0.  0.  0.
592  5.91  0.  0.  0.
593  5.92  0.  0.  0.
594  5.93  0.  0.  0.
595  5.94  0.  0.  0.
596  5.95  0.  0.  0.
597  5.96  0.  0.  0.
598  5.97  0.  0.  0.
599  5.98  0.  0.  0.
600  5.99  0.  0.  0.
1                         1.7166708577968E+01  2.8595512125476E+00
1  0.0000000000000E+00 -6.9600483987298E-09  1.9309899804143E-08
2  1.0000000000000E-02  3.2853370443700E-03 -1.2846947884709E-03
3  2.0000000000000E-02  1.3122261144304E-02 -5.1306072963469E-03
4  3.0000000000000E-02  2.9453496333968E-02 -1.1512969394289E-02
5  4.0000000000000E-02  5.2183538049474E-02 -2.0389672330778E-02
6  5.0000000000000E-02  8.1178603275577E-02 -3.1700070070015E-02
7  6.0000000000000E-02  1.1626659423154E-01 -4.5363394545751E-02
8  7.0000000000000E-02  1.5723710752327E-01 -6.1276869495032E-02
9  8.0000000000000E-02  2.0384152764877E-01 -7.9313628845789E-02
10  9.0000000000000E-02  2.5579324918071E-01 -9.9320561100947E-02
11  1.0000000000000E-01  3.1276807562988E-01 -1.2111621220132E-01
12  1.1000000000000E-01  3.7440484474132E-01 -1.4448888551753E-01
13  1.2000000000000E-01  4.4030632968008E-01 -1.6919507863690E-01
14  1.3000000000000E-01  5.1004046318254E-01 -1.9495839236582E-01
15  1.4000000000000E-01  5.8314192730896E-01 -2.2146903792777E-01
16  1.5000000000000E-01  6.5911414503109E-01 -2.4838405394502E-01
17  1.6000000000000E-01  7.3743170168818E-01 -2.7532832585940E-01
18  1.7000000000000E-01  8.1754321457338E-01 -3.0189647754137E-01
19  1.8000000000000E-01  8.9887465785248E-01 -3.2765567866658E-01
20  1.9000000000000E-01  9.8083313799803E-01 -3.5214938282889E-01
21  2.0000000000000E-01  1.0628111023114E+00 -3.7490198122787E-01
22  2.1000000000000E-01  1.1441909502964E+00 -3.9542432609674E-01
23  2.2000000000000E-01  1.2243500050447E+00 -4.1322004783584E-01
24  2.3000000000000E-01  1.3026657898061E+00 -4.2779256109871E-01
25  2.4000000000000E-01  1.3785215439345E+00 -4.3865262881766E-01
26  2.5000000000000E-01  1.4513119027913E+00 -4.4532633026368E-01
27  2.6000000000000E-01  1.5204486582903E+00 -4.4736326052228E-01
28  2.7000000000000E-01  1.5853665108453E+00 -4.4434477491809E-01
29  2.8000000000000E-01  1.6455287197792E+00 -4.3589208347262E-01
30  2.9000000000000E-01  1.7004325579011E+00 -4.2167399779680E-01
31  3.0000000000000E-01  1.7496144770635E+00 -4.0141413608502E-01
32  3.1000000000000E-01  1.7926548950635E+00 -3.7489740107982E-01
33  3.2000000000000E-01  1.8291825201895E+00 -3.4197556080995E-01
34  3.3000000000000E-01  1.8588781378936E+00 -3.0257178217485E-01
35  3.4000000000000E-01  1.8814777942630E+00 -2.5668399247828E-01
36  3.5000000000000E-01  1.8967753229045E+00 -2.0438697306479E-01
37  3.6000000000000E-01  1.9046241751859E+00 -1.4583312140535E-01
38  3.7000000000000E-01  1.9049385281317E+00 -8.1251852319196E-02
39  3.8000000000000E-01  1.8976936592095E+00 -1.0947644434647E-02
40  3.9000000000000E-01  1.8829255923431E+00  6.4703226639284E-02
41  4.0000000000000E-01  1.8607300342949E+00  1.4525719276456E-01
42  4.1000000000000E-01  1.8312606346371E+00  2.3020902776615E-01
43  4.2000000000000E-01  1.7947266154693E+00  3.1899847577459E-01
44  4.3000000000000E-01  1.7513898284593E+00  4.1101771286440E-01
45  4.4000000000000E-01  1.7015613063600E+00  5.0561946210734E-01
46  4.5000000000000E-01  1.6455973836277E+00  6.0212556850190E-01
47  4.6000000000000E-01  1.5838954659358E+00  6.9983583269596E-01
48  4.7000000000000E-01  1.5168895311395E+00  7.9803690122492E-01
49  4.8000000000000E-01  1.4450454445574E+00  8.9601101616319E-01
50  4.9000000000000E-01  1.3688561693600E+00  9.9304443843558E-01
51  5.0000000000000E-01  1.2888369485129E+00  1.0884353761405E+00
52  5.1000000000000E-01  1.2055205283438E+00  1.1815012714829E+00
53  5.2000000000000E-01  1.1194524856548E+00  1.2715853264978E+00
54  5.3000000000000E-01  1.0311867107405E+00  1.3580621777100E+00
55  5.4000000000000E-01  9.4128108808884E-01  1.4403426621284E+00
56  5.5000000000000E-01  8.5029340536262E-01  1.5178776503496E+00
57  5.6000000000000E-01  7.5877750993424E-01  1.5901609558194E+00
58  5.7000000000000E-01  6.6727972122738E-01  1.6567313612421E+00
59  5.8000000000000E-01  5.7633549683992E-01  1.7171738325641E+00
60  5.9000000000000E-01  4.8646634129239E-01  1.7711200167732E+00
61  6.0000000000000E-01  3.9817693862445E-01  1.8182481409810E+00
62  6.1000000000000E-01  3.1195248424790E-01  1.8582824460803E+00
63  6.2000000000000E-01  2.2825618768785E-01  1.8909922980619E+00
64  6.3000000000000E-01  1.4752691624749E-01  1.9161911234546E+00
65  6.4000000000000E-01  7.0176950274678E-02  1.9337353121388E+00
66  6.5000000000000E-01 -3.4101764463424E-03  1.9435232210844E+00
67  6.6000000000000E-01 -7.2881772734968E-02  1.9454943967039E+00
68  6.7000000000000E-01 -1.3791803726581E-01  1.9396291120770E+00
69  6.8000000000000E-01 -1.9823406347636E-01  1.9259482890914E+00
70  6.9000000000000E-01 -2.5358179905441E-01  1.9045138455660E+00
71  7.0000000000000E-01 -3.0375194665142E-01  1.8754294748310E+00
72  7.1000000000000E-01 -3.4857578191120E-01  1.8388418313379E+00
73  7.2000000000000E-01 -3.8792685456407E-01  1.7949420620119E+00
74  7.3000000000000E-01 -4.2172252872659E-01  1.7439675906590E+00
75  7.4000000000000E-01 -4.4992531015777E-01  1.6862040331514E+00
76  7.5000000000000E-01 -4.7254390152003E-01  1.6219870956538E+00
77  7.6000000000000E-01 -4.8963392208746E-01  1.5517042879871E+00
78  7.7000000000000E-01 -5.0129822617928E-01  1.4757962703614E+00
79  7.8000000000000E-01 -5.0768675513242E-01  1.3947576449322E+00
80  7.9000000000000E-01 -5.0899586102683E-01  1.3091370044972E+00
81  8.0000000000000E-01 -5.0546704669865E-01  1.2195360594138E+00
82  8.1000000000000E-01 -4.9738507576490E-01  1.1266076804698E+00
83  8.2000000000000E-01 -4.8507541827432E-01  1.0310527196640E+00
84  8.3000000000000E-01 -4.6890101191433E-01  9.3361550204339E-01
85  8.4000000000000E-01 -4.4925833506425E-01  8.3507791901904E-01
86  8.5000000000000E-01 -4.2657280591755E-01  7.3625209580593E-01
87  8.6000000000000E-01 -4.0129354084975E-01  6.3797165146391E-01
88  8.7000000000000E-01 -3.7388752457169E-01  5.4108161792694E-01
89  8.8000000000000E-01 -3.4483326372903E-01  4.4642713276290E-01
90  8.9000000000000E-01 -3.1461401381722E-01  3.5484106749737E-01
91  9.0000000000000E-01 -2.8371068591272E-01  2.6713079745249E-01
92  9.1000000000000E-01 -2.5259455414089E-01  1.8406435854242E-01
93  9.2000000000000E-01 -2.2171989642526E-01  1.0635626978945E-01
94  9.3000000000000E-01 -1.9151670938586E-01  3.4653326120359E-02
95  9.4000000000000E-01 -1.6238364286114E-01 -3.0479316874616E-02
96  9.5000000000000E-01 -1.3468130011773E-01 -8.8571436952984E-02
97  9.6000000000000E-01 -1.0872604620937E-01 -1.3926009125072E-01
98  9.7000000000000E-01 -8.4784459105684E-02 -1.8230070043356E-01
99  9.8000000000000E-01 -6.3068546235949E-02 -2.1757658013013E-01
100  9.9000000000000E-01 -4.3731833088291E-02 -2.4510666205317E-01
101  1.0000000000000E+00 -2.6866417579505E-02 -2.6505116610418E-01
102  1.0100000000000E+00 -1.2501177421659E-02 -2.7771462696390E-01
103  1.0200000000000E+00 -6.0592158556756E-04 -2.8352973199775E-01
104  1.0300000000000E+00  8.8980408604059E-03 -2.8302182722195E-01
105  1.0400000000000E+00  1.6132668238160E-02 -2.7679509499824E-01
106  1.0500000000000E+00  2.1258822279630E-02 -2.6552315095948E-01
107  1.0600000000000E+00  2.4471071203089E-02 -2.4993777572509E-01
108  1.0700000000000E+00  2.5991756905025E-02 -2.3081597531765E-01
109  1.0800000000000E+00  2.6064446457268E-02 -2.0896562374714E-01
110  1.0900000000000E+00  2.4946906866097E-02 -1.8520998813756E-01
111  1.1000000000000E+00  2.2903757163491E-02 -1.6037147495149E-01
112  1.1100000000000E+00  2.0198963644720E-02 -1.3525496669674E-01
113  1.1200000000000E+00  1.7088361959066E-02 -1.1063115972533E-01
114  1.1300000000000E+00  1.3812286753387E-02 -8.7220101996078E-02
115  1.1400000000000E+00  1.0588501754806E-02 -6.5675379057350E-02
116  1.1500000000000E+00  7.5762159351259E-03 -4.6505895168504E-02
117  1.1600000000000E+00  4.9212350191106E-03 -3.0170522410723E-02
118  1.1700000000000E+00  2.7701291097259E-03 -1.7111220309088E-02
119  1.1800000000000E+00  1.2162477007588E-03 -7.6383040900639E-03
120  1.1900000000000E+00  2.9617878451812E-04 -1.9089887528485E-03
121  1.2000000000000E+00  7.6467190902141E-07 -5.0849140815206E-06
122  1.2100000000000E+00  2.0815896725934E-06 -1.3773515363793E-05
123  1.2200000000000E+00 -2.6417099149190E-07  1.7209798560097E-06
124  1.23  0.  0.
125  1.24  0.  0.
126  1.25  0.  0.
127  1.26  0.  0.
128  1.27  0.  0.
129  1.28  0.  0.
130  1.29  0.  0.
131  1.30  0.  0.
132  1.31  0.  0.
133  1.32  0.  0.