U     ONCVPSP-4.0.1  r_core=   1.10371   1.10371   1.25145   1.25145
92.0000     32.0000      220325    zatom,zion,pspd
8      11   3     4   600     0    pspcod,pspxc,lmax,lloc,mmax,r2well
5.99000000  5.00000000  0.00000000    rchrg fchrg qchrg
3     2     2     2     0    nproj
1     1           extension_switch
0                         8.5874041003045E+01  5.7562551796459E+00 -9.0210889839698E-01
1  0.0000000000000E+00 -3.3246334041337E-07  8.5009631245470E-07  1.2404691863976E-07
2  1.0000000000000E-02  1.8567343400872E-01 -1.1559369748000E-01  9.8940780912379E-03
3  2.0000000000000E-02  3.6925971502090E-01 -2.2747060887931E-01  2.0085684857035E-02
4  3.0000000000000E-02  5.4872731329640E-01 -3.3204803981985E-01  3.0854121300019E-02
5  4.0000000000000E-02  7.2215376947795E-01 -4.2600594134329E-01  4.2443056590146E-02
6  5.0000000000000E-02  8.8777488237060E-01 -5.0640462517389E-01  5.5044736432244E-02
7  6.0000000000000E-02  1.0440277359602E+00 -5.7078680483105E-01  6.8786525419000E-02
8  7.0000000000000E-02  1.1895859270791E+00 -6.1725979884424E-01  8.3720406998019E-02
9  8.0000000000000E-02  1.3233856875913E+00 -6.4455458241921E-01  9.9815940634626E-02
10  9.0000000000000E-02  1.4446419826771E+00 -6.5205936541795E-01  1.1695703062148E-01
11  1.0000000000000E-01  1.5528540929715E+00 -6.3982646461677E-01  1.3494270077708E-01
12  1.1000000000000E-01  1.6478006344897E+00 -6.0855237978938E-01  1.5349190061820E-01
13  1.2000000000000E-01  1.7295244171547E+00 -5.5953212692046E-01  1.7225219845857E-01
14  1.3000000000000E-01  1.7983079709674E+00 -4.9458997836849E-01  1.9081205231442E-01
15  1.4000000000000E-01  1.8546409599165E+00 -4.1598976171424E-01  2.0871619728294E-01
16  1.5000000000000E-01  1.8991810406708E+00 -3.2632873307738E-01  2.2548355448999E-01
17  1.6000000000000E-01  1.9327099913897E+00 -2.2841972957196E-01  2.4062695728512E-01
18  1.7000000000000E-01  1.9560871240305E+00 -1.2516678960313E-01  2.5367390960263E-01
19  1.8000000000000E-01  1.9702020932215E+00 -1.9439688022958E-02  2.6418754262790E-01
20  1.9000000000000E-01  1.9759292218805E+00  8.6047145231254E-02  2.7178692109785E-01
21  2.0000000000000E-01  1.9740853780278E+00  1.8884607034527E-01  2.7616587032235E-01
22  2.1000000000000E-01  1.9653932625226E+00  2.8687323793454E-01  2.7710954849352E-01
23  2.2000000000000E-01  1.9504517114028E+00  3.7848698822920E-01  2.7450807383727E-01
24  2.3000000000000E-01  1.9297142903956E+00  4.6254432555594E-01  2.6836662913231E-01
25  2.4000000000000E-01  1.9034770772716E+00  5.3843312097646E-01  2.5881160241457E-01
26  2.5000000000000E-01  1.8718761067756E+00  6.0607877367534E-01  2.4609247669321E-01
27  2.6000000000000E-01  1.8348945113436E+00  6.6592519370624E-01  2.3057934689964E-01
28  2.7000000000000E-01  1.7923789480490E+00  7.1889110573471E-01  2.1275611230963E-01
29  2.8000000000000E-01  1.7440644776415E+00  7.6630376587366E-01  1.9320956038230E-01
30  2.9000000000000E-01  1.6896066737998E+00  8.0981318399169E-01  1.7261471653971E-01
31  3.0000000000000E-01  1.6286194068397E+00  8.5129080838771E-01  1.5171697746620E-01
32  3.1000000000000E-01  1.5607164808377E+00  8.9271732073034E-01  1.3131166730259E-01
33  3.2000000000000E-01  1.4855551181375E+00  9.3606467654495E-01  1.1222175182980E-01
34  3.3000000000000E-01  1.4028791887514E+00  9.8317778896863E-01  9.5274511654642E-02
35  3.4000000000000E-01  1.3125600785878E+00  1.0356612795393E+00  8.1278009071489E-02
36  3.5000000000000E-01  1.2146331800603E+00  1.0947765081952E+00  7.0998183552606E-02
37  3.6000000000000E-01  1.1093281676603E+00  1.1613536546990E+00  6.5137378006841E-02
38  3.7000000000000E-01  9.9709148186680E-01  1.2357229743921E+00  6.4315033671385E-02
39  3.8000000000000E-01  8.7859977603700E-01  1.3176685208702E+00  6.9051198710950E-02
40  3.9000000000000E-01  7.5476346834052E-01  1.4064066529548E+00  7.9753378386740E-02
41  4.0000000000000E-01  6.2671996757541E-01  1.5005905656557E+00  9.6707118094385E-02
42  4.1000000000000E-01  4.9581658929034E-01  1.5983409516130E+00  1.2007056049692E-01
43  4.2000000000000E-01  3.6358362761166E-01  1.6973017600224E+00  1.4987306072989E-01
44  4.3000000000000E-01  2.3169847901992E-01  1.7947189238409E+00  1.8601778580818E-01
45  4.4000000000000E-01  1.0194210833422E-01  1.8875389207115E+00  2.2828807244641E-01
46  4.5000000000000E-01 -2.3850512764860E-02  1.9725231621280E+00  2.7635717772514E-01
47  4.6000000000000E-01 -1.4384409293620E-01  2.0463735064943E+00  3.2980093501392E-01
48  4.7000000000000E-01 -2.5625874137866E-01  2.1058636950366E+00  3.8811272811341E-01
49  4.8000000000000E-01 -3.5942552594146E-01  2.1479712361665E+00  4.5072012348990E-01
50  4.9000000000000E-01 -4.5183966466483E-01  2.1700042252930E+00  5.1700245637981E-01
51  5.0000000000000E-01 -5.3220923013998E-01  2.1697177843642E+00  5.8630865279601E-01
52  5.1000000000000E-01 -5.9949741944948E-01  2.1454152294608E+00  6.5797458613065E-01
53  5.2000000000000E-01 -6.5295669763724E-01  2.0960297064686E+00  7.3133931286014E-01
54  5.3000000000000E-01 -6.9215344851215E-01  2.0211828463071E+00  8.0575960435073E-01
55  5.4000000000000E-01 -7.1698214884742E-01  1.9212179465434E+00  8.8062228733659E-01
56  5.5000000000000E-01 -7.2766850410586E-01  1.7972062436769E+00  9.5535401977083E-01
57  5.6000000000000E-01 -7.2476142743029E-01  1.6509259538203E+00  1.0294282561689E+00
58  5.7000000000000E-01 -7.0911418967002E-01  1.4848148806038E+00  1.1023692915035E+00
59  5.8000000000000E-01 -6.8185549760242E-01  1.3018984696230E+00  1.1737534091789E+00
60  5.9000000000000E-01 -6.4435165200346E-01  1.1056961823685E+00  1.2432072906212E+00
61  6.0000000000000E-01 -5.9816128026961E-01  9.0010992728991E-01  1.3104039658878E+00
62  6.1000000000000E-01 -5.4498441570891E-01  6.8929898535771E-01  1.3750566912545E+00
63  6.2000000000000E-01 -4.8660789621907E-01  4.7754637366797E-01  1.4369112265705E+00
64  6.3000000000000E-01 -4.2484917116376E-01  2.6912188355376E-01  1.4957370487974E+00
65  6.4000000000000E-01 -3.6150063292080E-01  6.8147099122718E-02  1.5513180761610E+00
66  6.5000000000000E-01 -2.9827652882793E-01 -1.2153245210031E-01  1.6034434884832E+00
67  6.6000000000000E-01 -2.3676436401409E-01 -2.9646323302076E-01  1.6518992134784E+00
68  6.7000000000000E-01 -1.7838248346454E-01 -4.5368349525309E-01  1.6964606072256E+00
69  6.8000000000000E-01 -1.2434523349985E-01 -5.9080345286942E-01  1.7368867918863E+00
70  6.9000000000000E-01 -7.5636762345978E-02 -7.0606320699667E-01  1.7729170282809E+00
71  7.0000000000000E-01 -3.2994142344422E-02 -7.9836675455518E-01  1.8042693992087E+00
72  7.1000000000000E-01  3.0999001738556E-03 -8.6729142234006E-01  1.8306419661167E+00
73  7.2000000000000E-01  3.2414759633400E-02 -9.1307308091669E-01  1.8517164419959E+00
74  7.3000000000000E-01  5.4960725361713E-02 -9.3656846680432E-01  1.8671643025301E+00
75  7.4000000000000E-01  7.0969600291510E-02 -9.3919683464647E-01  1.8766551407708E+00
76  7.5000000000000E-01  8.0868312879305E-02 -9.2286393598563E-01  1.8798669629312E+00
77  7.6000000000000E-01  8.5246915366624E-02 -8.8987194672342E-01  1.8764980287501E+00
78  7.7000000000000E-01  8.4822537669662E-02 -8.4281941756120E-01  1.8662797630206E+00
79  7.8000000000000E-01  8.0400968100508E-02 -7.8449558526418E-01  1.8489902082741E+00
80  7.9000000000000E-01  7.2837557437326E-02 -7.1777345109161E-01  1.8244674542371E+00
81  8.0000000000000E-01  6.2999092811615E-02 -6.4550590891373E-01  1.7926224685286E+00
82  8.1000000000000E-01  5.1728167174742E-02 -5.7042890090926E-01  1.7534507651226E+00
83  8.2000000000000E-01  3.9811386636579E-02 -4.9507511291816E-01  1.7070423813586E+00
84  8.3000000000000E-01  2.7952522370572E-02 -4.2170112110834E-01  1.6535896888452E+00
85  8.4000000000000E-01  1.6751438859602E-02 -3.5223019876183E-01  1.5933926357934E+00
86  8.5000000000000E-01  6.6893303087645E-03 -2.8821222268607E-01  1.5268611048614E+00
87  8.6000000000000E-01 -1.8795128586571E-03 -2.3080132104374E-01  1.4545141677599E+00
88  8.7000000000000E-01 -8.7294903259642E-03 -1.8075111635618E-01  1.3769761217119E+00
89  8.8000000000000E-01 -1.3759399384030E-02 -1.3842667529670E-01  1.2949692994186E+00
90  8.9000000000000E-01 -1.6982685255402E-02 -1.0383161321107E-01  1.2093037496400E+00
91  9.0000000000000E-01 -1.8513066380466E-02 -7.6648243286065E-02  1.1208639864542E+00
92  9.1000000000000E-01 -1.8546526519152E-02 -5.6288228491163E-02  1.0305930988216E+00
93  9.2000000000000E-01 -1.7340769596739E-02 -4.1950901594973E-02  9.3947459604326E-01
94  9.3000000000000E-01 -1.5193280138730E-02 -3.2686269055391E-02  8.4851243767527E-01
95  9.4000000000000E-01 -1.2419123829841E-02 -2.7459704081242E-02  7.5870975785179E-01
96  9.5000000000000E-01 -9.3295645798506E-03 -2.5215449630069E-02  6.7104684410974E-01
97  9.6000000000000E-01 -6.2124750107720E-03 -2.4936272582662E-02  5.8645897085280E-01
98  9.7000000000000E-01 -3.3153879426758E-03 -2.5696907467383E-02  5.0581471950953E-01
99  9.8000000000000E-01 -8.3189103735866E-04 -2.6709267605348E-02  4.2989544388739E-01
100  9.9000000000000E-01  1.1080792023322E-03 -2.7357744642270E-02  3.5937656345800E-01
101  1.0000000000000E+00  2.4436175041290E-03 -2.7223221935355E-02  2.9481139299508E-01
102  1.0100000000000E+00  3.1835734935352E-03 -2.6094650107738E-02  2.3661824807570E-01
103  1.0200000000000E+00  3.4023340471632E-03 -2.3967131592474E-02  1.8507160649954E-01
104  1.0300000000000E+00  3.2305095940875E-03 -2.1025755117766E-02  1.4029816858103E-01
105  1.0400000000000E+00  2.8389691625659E-03 -1.7611057108618E-02  1.0227865421669E-01
106  1.0500000000000E+00  2.3993952911187E-03 -1.4125604336145E-02  7.0855394171894E-02
107  1.0600000000000E+00  1.5714329329302E-03 -9.8069307301219E-03  4.5720220884957E-02
108  1.0700000000000E+00  5.8569881796358E-04 -5.3003994329268E-03  2.6505511819703E-02
109  1.0800000000000E+00 -6.6743165585853E-05 -1.9155093653535E-03  1.2806439091508E-02
110  1.0900000000000E+00 -2.1045464923483E-04 -2.3544000077250E-04  4.1997805909647E-03
111  1.1000000000000E+00 -4.0101649021584E-05  3.1426583756626E-05  3.4387458185831E-04
112  1.1100000000000E+00  7.7499249279366E-07 -8.9731139782004E-07 -4.8924681612051E-06
113  1.1200000000000E+00  2.3596257067999E-07 -9.8577452947105E-08 -2.5151946345830E-06
114  1.13  0. -0. -0.
115  1.14  0.  0.  0.
116  1.15  0.  0.  0.
117  1.16  0.  0.  0.
118  1.17  0.  0.  0.
119  1.18  0.  0.  0.
120  1.19  0.  0.  0.
121  1.20  0.  0.  0.
122  1.21  0.  0.  0.
123  1.22  0.  0.  0.
124  1.23  0.  0.  0.
125  1.24  0.  0.  0.
126  1.25  0.  0.  0.
127  1.26  0.  0.  0.
128  1.27  0.  0.  0.
129  1.28  0.  0.  0.
130  1.29  0.  0.  0.
131  1.30  0.  0.  0.
132  1.31  0.  0.  0.
133  1.32  0.  0.  0.
134  1.33  0.  0.  0.
135  1.34  0.  0.  0.
136  1.35  0.  0.  0.
137  1.36  0.  0.  0.
138  1.37  0.  0.  0.
139  1.38  0.  0.  0.
140  1.39  0.  0.  0.
141  1.40  0.  0.  0.
142  1.41  0.  0.  0.
143  1.42  0.  0.  0.
144  1.43  0.  0.  0.
145  1.44  0.  0.  0.
146  1.45  0.  0.  0.
147  1.46  0.  0.  0.
148  1.47  0.  0.  0.
149  1.48  0.  0.  0.
150  1.49  0.  0.  0.
151  1.50  0.  0.  0.
152  1.51  0.  0.  0.
153  1.52  0.  0.  0.
154  1.53  0.  0.  0.
155  1.54  0.  0.  0.
156  1.55  0.  0.  0.
157  1.56  0.  0.  0.
158  1.57  0.  0.  0.
159  1.58  0.  0.  0.
160  1.59  0.  0.  0.
161  1.60  0.  0.  0.
162  1.61  0.  0.  0.
163  1.62  0.  0.  0.
164  1.63  0.  0.  0.
165  1.64  0.  0.  0.
166  1.65  0.  0.  0.
167  1.66  0.  0.  0.
168  1.67  0.  0.  0.
169  1.68  0.  0.  0.
170  1.69  0.  0.  0.
171  1.70  0.  0.  0.
172  1.71  0.  0.  0.
173  1.72  0.  0.  0.
174  1.73  0.  0.  0.
175  1.74  0.  0.  0.
176  1.75  0.  0.  0.
177  1.76  0.  0.  0.
178  1.77  0.  0.  0.
179  1.78  0.  0.  0.
180  1.79  0.  0.  0.
181  1.80  0.  0.  0.
182  1.81  0.  0.  0.
183  1.82  0.  0.  0.
184  1.83  0.  0.  0.
185  1.84  0.  0.  0.
186  1.85  0.  0.  0.
187  1.86  0.  0.  0.
188  1.87  0.  0.  0.
189  1.88  0.  0.  0.
190  1.89  0.  0.  0.
191  1.90  0.  0.  0.
192  1.91  0.  0.  0.
193  1.92  0.  0.  0.
194  1.93  0.  0.  0.
195  1.94  0.  0.  0.
196  1.95  0.  0.  0.
197  1.96  0.  0.  0.
198  1.97  0.  0.  0.
199  1.98  0.  0.  0.
200  1.99  0.  0.  0.
201  2.00  0.  0.  0.
202  2.01  0.  0.  0.
203  2.02  0.  0.  0.
204  2.03  0.  0.  0.
205  2.04  0.  0.  0.
206  2.05  0.  0.  0.
207  2.06  0.  0.  0.
208  2.07  0.  0.  0.
209  2.08  0.  0.  0.
210  2.09  0.  0.  0.
211  2.10  0.  0.  0.
212  2.11  0.  0.  0.
213  2.12  0.  0.  0.
214  2.13  0.  0.  0.
215  2.14  0.  0.  0.
216  2.15  0.  0.  0.
217  2.16  0.  0.  0.
218  2.17  0.  0.  0.
219  2.18  0.  0.  0.
220  2.19  0.  0.  0.
221  2.20  0.  0.  0.
222  2.21  0.  0.  0.
223  2.22  0.  0.  0.
224  2.23  0.  0.  0.
225  2.24  0.  0.  0.
226  2.25  0.  0.  0.
227  2.26  0.  0.  0.
228  2.27  0.  0.  0.
229  2.28  0.  0.  0.
230  2.29  0.  0.  0.
231  2.30  0.  0.  0.
232  2.31  0.  0.  0.
233  2.32  0.  0.  0.
234  2.33  0.  0.  0.
235  2.34  0.  0.  0.
236  2.35  0.  0.  0.
237  2.36  0.  0.  0.
238  2.37  0.  0.  0.
239  2.38  0.  0.  0.
240  2.39  0.  0.  0.
241  2.40  0.  0.  0.
242  2.41  0.  0.  0.
243  2.42  0.  0.  0.
244  2.43  0.  0.  0.
245  2.44  0.  0.  0.
246  2.45  0.  0.  0.
247  2.46  0.  0.  0.
248  2.47  0.  0.  0.
249  2.48  0.  0.  0.
250  2.49  0.  0.  0.
251  2.50  0.  0.  0.
252  2.51  0.  0.  0.
253  2.52  0.  0.  0.
254  2.53  0.  0.  0.
255  2.54  0.  0.  0.
256  2.55  0.  0.  0.
257  2.56  0.  0.  0.
258  2.57  0.  0.  0.
259  2.58  0.  0.  0.
260  2.59  0.  0.  0.
261  2.60  0.  0.  0.
262  2.61  0.  0.  0.
263  2.62  0.  0.  0.
264  2.63  0.  0.  0.
265  2.64  0.  0.  0.
266  2.65  0.  0.  0.
267  2.66  0.  0.  0.
268  2.67  0.  0.  0.
269  2.68  0.  0.  0.
270  2.69  0.  0.  0.
271  2.70  0.  0.  0.
272  2.71  0.  0.  0.
273  2.72  0.  0.  0.
274  2.73  0.  0.  0.
275  2.74  0.  0.  0.
276  2.75  0.  0.  0.
277  2.76  0.  0.  0.
278  2.77  0.  0.  0.
279  2.78  0.  0.  0.
280  2.79  0.  0.  0.
281  2.80  0.  0.  0.
282  2.81  0.  0.  0.
283  2.82  0.  0.  0.
284  2.83  0.  0.  0.
285  2.84  0.  0.  0.
286  2.85  0.  0.  0.
287  2.86  0.  0.  0.
288  2.87  0.  0.  0.
289  2.88  0.  0.  0.
290  2.89  0.  0.  0.
291  2.90  0.  0.  0.
292  2.91  0.  0.  0.
293  2.92  0.  0.  0.
294  2.93  0.  0.  0.
295  2.94  0.  0.  0.
296  2.95  0.  0.  0.
297  2.96  0.  0.  0.
298  2.97  0.  0.  0.
299  2.98  0.  0.  0.
300  2.99  0.  0.  0.
301  3.00  0.  0.  0.
302  3.01  0.  0.  0.
303  3.02  0.  0.  0.
304  3.03  0.  0.  0.
305  3.04  0.  0.  0.
306  3.05  0.  0.  0.
307  3.06  0.  0.  0.
308  3.07  0.  0.  0.
309  3.08  0.  0.  0.
310  3.09  0.  0.  0.
311  3.10  0.  0.  0.
312  3.11  0.  0.  0.
313  3.12  0.  0.  0.
314  3.13  0.  0.  0.
315  3.14  0.  0.  0.
316  3.15  0.  0.  0.
317  3.16  0.  0.  0.
318  3.17  0.  0.  0.
319  3.18  0.  0.  0.
320  3.19  0.  0.  0.
321  3.20  0.  0.  0.
322  3.21  0.  0.  0.
323  3.22  0.  0.  0.
324  3.23  0.  0.  0.
325  3.24  0.  0.  0.
326  3.25  0.  0.  0.
327  3.26  0.  0.  0.
328  3.27  0.  0.  0.
329  3.28  0.  0.  0.
330  3.29  0.  0.  0.
331  3.30  0.  0.  0.
332  3.31  0.  0.  0.
333  3.32  0.  0.  0.
334  3.33  0.  0.  0.
335  3.34  0.  0.  0.
336  3.35  0.  0.  0.
337  3.36  0.  0.  0.
338  3.37  0.  0.  0.
339  3.38  0.  0.  0.
340  3.39  0.  0.  0.
341  3.40  0.  0.  0.
342  3.41  0.  0.  0.
343  3.42  0.  0.  0.
344  3.43  0.  0.  0.
345  3.44  0.  0.  0.
346  3.45  0.  0.  0.
347  3.46  0.  0.  0.
348  3.47  0.  0.  0.
349  3.48  0.  0.  0.
350  3.49  0.  0.  0.
351  3.50  0.  0.  0.
352  3.51  0.  0.  0.
353  3.52  0.  0.  0.
354  3.53  0.  0.  0.
355  3.54  0.  0.  0.
356  3.55  0.  0.  0.
357  3.56  0.  0.  0.
358  3.57  0.  0.  0.
359  3.58  0.  0.  0.
360  3.59  0.  0.  0.
361  3.60  0.  0.  0.
362  3.61  0.  0.  0.
363  3.62  0.  0.  0.
364  3.63  0.  0.  0.
365  3.64  0.  0.  0.
366  3.65  0.  0.  0.
367  3.66  0.  0.  0.
368  3.67  0.  0.  0.
369  3.68  0.  0.  0.
370  3.69  0.  0.  0.
371  3.70  0.  0.  0.
372  3.71  0.  0.  0.
373  3.72  0.  0.  0.
374  3.73  0.  0.  0.
375  3.74  0.  0.  0.
376  3.75  0.  0.  0.
377  3.76  0.  0.  0.
378  3.77  0.  0.  0.
379  3.78  0.  0.  0.
380  3.79  0.  0.  0.
381  3.80  0.  0.  0.
382  3.81  0.  0.  0.
383  3.82  0.  0.  0.
384  3.83  0.  0.  0.
385  3.84  0.  0.  0.
386  3.85  0.  0.  0.
387  3.86  0.  0.  0.
388  3.87  0.  0.  0.
389  3.88  0.  0.  0.
390  3.89  0.  0.  0.
391  3.90  0.  0.  0.
392  3.91  0.  0.  0.
393  3.92  0.  0.  0.
394  3.93  0.  0.  0.
395  3.94  0.  0.  0.
396  3.95  0.  0.  0.
397  3.96  0.  0.  0.
398  3.97  0.  0.  0.
399  3.98  0.  0.  0.
400  3.99  0.  0.  0.
401  4.00  0.  0.  0.
402  4.01  0.  0.  0.
403  4.02  0.  0.  0.
404  4.03  0.  0.  0.
405  4.04  0.  0.  0.
406  4.05  0.  0.  0.
407  4.06  0.  0.  0.
408  4.07  0.  0.  0.
409  4.08  0.  0.  0.
410  4.09  0.  0.  0.
411  4.10  0.  0.  0.
412  4.11  0.  0.  0.
413  4.12  0.  0.  0.
414  4.13  0.  0.  0.
415  4.14  0.  0.  0.
416  4.15  0.  0.  0.
417  4.16  0.  0.  0.
418  4.17  0.  0.  0.
419  4.18  0.  0.  0.
420  4.19  0.  0.  0.
421  4.20  0.  0.  0.
422  4.21  0.  0.  0.
423  4.22  0.  0.  0.
424  4.23  0.  0.  0.
425  4.24  0.  0.  0.
426  4.25  0.  0.  0.
427  4.26  0.  0.  0.
428  4.27  0.  0.  0.
429  4.28  0.  0.  0.
430  4.29  0.  0.  0.
431  4.30  0.  0.  0.
432  4.31  0.  0.  0.
433  4.32  0.  0.  0.
434  4.33  0.  0.  0.
435  4.34  0.  0.  0.
436  4.35  0.  0.  0.
437  4.36  0.  0.  0.
438  4.37  0.  0.  0.
439  4.38  0.  0.  0.
440  4.39  0.  0.  0.
441  4.40  0.  0.  0.
442  4.41  0.  0.  0.
443  4.42  0.  0.  0.
444  4.43  0.  0.  0.
445  4.44  0.  0.  0.
446  4.45  0.  0.  0.
447  4.46  0.  0.  0.
448  4.47  0.  0.  0.
449  4.48  0.  0.  0.
450  4.49  0.  0.  0.
451  4.50  0.  0.  0.
452  4.51  0.  0.  0.
453  4.52  0.  0.  0.
454  4.53  0.  0.  0.
455  4.54  0.  0.  0.
456  4.55  0.  0.  0.
457  4.56  0.  0.  0.
458  4.57  0.  0.  0.
459  4.58  0.  0.  0.
460  4.59  0.  0.  0.
461  4.60  0.  0.  0.
462  4.61  0.  0.  0.
463  4.62  0.  0.  0.
464  4.63  0.  0.  0.
465  4.64  0.  0.  0.
466  4.65  0.  0.  0.
467  4.66  0.  0.  0.
468  4.67  0.  0.  0.
469  4.68  0.  0.  0.
470  4.69  0.  0.  0.
471  4.70  0.  0.  0.
472  4.71  0.  0.  0.
473  4.72  0.  0.  0.
474  4.73  0.  0.  0.
475  4.74  0.  0.  0.
476  4.75  0.  0.  0.
477  4.76  0.  0.  0.
478  4.77  0.  0.  0.
479  4.78  0.  0.  0.
480  4.79  0.  0.  0.
481  4.80  0.  0.  0.
482  4.81  0.  0.  0.
483  4.82  0.  0.  0.
484  4.83  0.  0.  0.
485  4.84  0.  0.  0.
486  4.85  0.  0.  0.
487  4.86  0.  0.  0.
488  4.87  0.  0.  0.
489  4.88  0.  0.  0.
490  4.89  0.  0.  0.
491  4.90  0.  0.  0.
492  4.91  0.  0.  0.
493  4.92  0.  0.  0.
494  4.93  0.  0.  0.
495  4.94  0.  0.  0.
496  4.95  0.  0.  0.
497  4.96  0.  0.  0.
498  4.97  0.  0.  0.
499  4.98  0.  0.  0.
500  4.99  0.  0.  0.
501  5.00  0.  0.  0.
502  5.01  0.  0.  0.
503  5.02  0.  0.  0.
504  5.03  0.  0.  0.
505  5.04  0.  0.  0.
506  5.05  0.  0.  0.
507  5.06  0.  0.  0.
508  5.07  0.  0.  0.
509  5.08  0.  0.  0.
510  5.09  0.  0.  0.
511  5.10  0.  0.  0.
512  5.11  0.  0.  0.
513  5.12  0.  0.  0.
514  5.13  0.  0.  0.
515  5.14  0.  0.  0.
516  5.15  0.  0.  0.
517  5.16  0.  0.  0.
518  5.17  0.  0.  0.
519  5.18  0.  0.  0.
520  5.19  0.  0.  0.
521  5.20  0.  0.  0.
522  5.21  0.  0.  0.
523  5.22  0.  0.  0.
524  5.23  0.  0.  0.
525  5.24  0.  0.  0.
526  5.25  0.  0.  0.
527  5.26  0.  0.  0.
528  5.27  0.  0.  0.
529  5.28  0.  0.  0.
530  5.29  0.  0.  0.
531  5.30  0.  0.  0.
532  5.31  0.  0.  0.
533  5.32  0.  0.  0.
534  5.33  0.  0.  0.
535  5.34  0.  0.  0.
536  5.35  0.  0.  0.
537  5.36  0.  0.  0.
538  5.37  0.  0.  0.
539  5.38  0.  0.  0.
540  5.39  0.  0.  0.
541  5.40  0.  0.  0.
542  5.41  0.  0.  0.
543  5.42  0.  0.  0.
544  5.43  0.  0.  0.
545  5.44  0.  0.  0.
546  5.45  0.  0.  0.
547  5.46  0.  0.  0.
548  5.47  0.  0.  0.
549  5.48  0.  0.  0.
550  5.49  0.  0.  0.
551  5.50  0.  0.  0.
552  5.51  0.  0.  0.
553  5.52  0.  0.  0.
554  5.53  0.  0.  0.
555  5.54  0.  0.  0.
556  5.55  0.  0.  0.
557  5.56  0.  0.  0.
558  5.57  0.  0.  0.
559  5.58  0.  0.  0.
560  5.59  0.  0.  0.
561  5.60  0.  0.  0.
562  5.61  0.  0.  0.
563  5.62  0.  0.  0.
564  5.63  0.  0.  0.
565  5.64  0.  0.  0.
566  5.65  0.  0.  0.
567  5.66  0.  0.  0.
568  5.67  0.  0.  0.
569  5.68  0.  0.  0.
570  5.69  0.  0.  0.
571  5.70  0.  0.  0.
572  5.71  0.  0.  0.
573  5.72  0.  0.  0.
574  5.73  0.  0.  0.
575  5.74  0.  0.  0.
576  5.75  0.  0.  0.
577  5.76  0.  0.  0.
578  5.77  0.  0.  0.
579  5.78  0.  0.  0.
580  5.79  0.  0.  0.
581  5.80  0.  0.  0.
582  5.81  0.  0.  0.
583  5.82  0.  0.  0.
584  5.83  0.  0.  0.
585  5.84  0.  0.  0.
586  5.85  0.  0.  0.
587  5.86  0.  0.  0.
588  5.87  0.  0.  0.
589  5.88  0.  0.  0.
590  5.89  0.  0.  0.
591  5.90  0.  0.  0.
592  5.91  0.  0.  0.
593  5.92  0.  0.  0.
594  5.93  0.  0.  0.
595  5.94  0.  0.  0.
596  5.95  0.  0.  0.
597  5.96  0.  0.  0.
598  5.97  0.  0.  0.
599  5.98  0.  0.  0.
600  5.99  0.  0.  0.
1                         1.4909873656753E+01 -4.9222431349198E-01
1  0.0000000000000E+00 -5.6339544696193E-09 -1.0221045210201E-07
2  1.0000000000000E-02  4.0980293250890E-03  2.1734871270614E-03
3  2.0000000000000E-02  1.6360599624849E-02  8.6911011132684E-03
4  3.0000000000000E-02  3.6693280601173E-02  1.9542947054327E-02
5  4.0000000000000E-02  6.4939102545377E-02  3.4708101710052E-02
6  5.0000000000000E-02  1.0087919482270E-01  5.4148233110818E-02
7  6.0000000000000E-02  1.4423371331796E-01  7.7799190126099E-02
8  7.0000000000000E-02  1.9466308803521E-01  1.0556105595187E-01
9  8.0000000000000E-02  2.5176962767793E-01  1.3728726168412E-01
10  9.0000000000000E-02  3.1509952140693E-01  1.7277343140874E-01
11  1.0000000000000E-01  3.8414527878320E-01  2.1174667494313E-01
12  1.1000000000000E-01  4.5834864696828E-01  2.5385605617944E-01
13  1.2000000000000E-01  5.3710403950940E-01  2.9866494295003E-01
14  1.3000000000000E-01  6.1976250353933E-01  3.4564588893497E-01
15  1.4000000000000E-01  7.0563624215338E-01  3.9417861124891E-01
16  1.5000000000000E-01  7.9400369638675E-01  4.4355151221809E-01
17  1.6000000000000E-01  8.8411517700920E-01  4.9296705495006E-01
18  1.7000000000000E-01  9.7519902077734E-01  5.4155114512482E-01
19  1.8000000000000E-01  1.0664682294052E+00  5.8836650234514E-01
20  1.9000000000000E-01  1.1571275329501E+00  6.3242983030754E-01
21  2.0000000000000E-01  1.2463808032058E+00  6.7273242322828E-01
22  2.1000000000000E-01  1.3334387276955E+00  7.0826368362590E-01
23  2.2000000000000E-01  1.4175266415774E+00  7.3803688068245E-01
24  2.3000000000000E-01  1.4978924037882E+00  7.6111635536528E-01
25  2.4000000000000E-01  1.5738141955440E+00  7.7664528383781E-01
26  2.5000000000000E-01  1.6446081142967E+00  7.8387304888949E-01
27  2.6000000000000E-01  1.7096354346898E+00  7.8218124337435E-01
28  2.7000000000000E-01  1.7683094101377E+00  7.7110734174699E-01
29  2.8000000000000E-01  1.8201014943941E+00  7.5036512600312E-01
30  2.9000000000000E-01  1.8645468717740E+00  7.1986103941170E-01
31  3.0000000000000E-01  1.9012491973090E+00  6.7970576260217E-01
32  3.1000000000000E-01  1.9298844636902E+00  6.3022045767003E-01
33  3.2000000000000E-01  1.9502039299051E+00  5.7193730154653E-01
34  3.3000000000000E-01  1.9620360664347E+00  5.0559412344809E-01
35  3.4000000000000E-01  1.9652874931091E+00  4.3212316546790E-01
36  3.5000000000000E-01  1.9599429075153E+00  3.5263419246171E-01
37  3.6000000000000E-01  1.9460640235157E+00  2.6839237925677E-01
38  3.7000000000000E-01  1.9237875602357E+00  1.8079159192758E-01
39  3.8000000000000E-01  1.8933223411567E+00  9.1323847905860E-02
40  3.9000000000000E-01  1.8549455800773E+00  1.5458802343397E-03
41  4.0000000000000E-01  1.8089984451445E+00 -8.6956161446784E-02
42  4.1000000000000E-01  1.7558810034880E+00 -1.7260277109069E-01
43  4.2000000000000E-01  1.6960466568923E+00 -2.5385677685850E-01
44  4.3000000000000E-01  1.6299961832502E+00 -3.2925754503767E-01
45  4.4000000000000E-01  1.5582714992165E+00 -3.9745263585709E-01
46  4.5000000000000E-01  1.4814492566328E+00 -4.5722594567642E-01
47  4.6000000000000E-01  1.4001343791652E+00 -5.0752150254737E-01
48  4.7000000000000E-01  1.3149536365641E+00 -5.4746224625392E-01
49  4.8000000000000E-01  1.2265493424950E+00 -5.7636331327509E-01
50  4.9000000000000E-01  1.1355732485765E+00 -5.9373955423646E-01
51  5.0000000000000E-01  1.0426806927409E+00 -5.9930722810424E-01
52  5.1000000000000E-01  9.4852504497364E-01 -5.9298003494421E-01
53  5.2000000000000E-01  8.5375247858587E-01 -5.7485985873081E-01
54  5.3000000000000E-01  7.5899708109508E-01 -5.4522278491018E-01
55  5.4000000000000E-01  6.6487630614992E-01 -5.0450112626758E-01
56  5.5000000000000E-01  5.7198675728323E-01 -4.5326232812671E-01
57  5.6000000000000E-01  4.8090028605017E-01 -3.9218572427334E-01
58  5.7000000000000E-01  3.9216038162979E-01 -3.2203817397825E-01
59  5.8000000000000E-01  3.0627882642249E-01 -2.4364962553273E-01
60  5.9000000000000E-01  2.2373259260160E-01 -1.5788962203865E-01
61  6.0000000000000E-01  1.4496095786691E-01 -6.5645691932438E-02
62  6.1000000000000E-01  7.0362824545506E-02  3.2195547176878E-02
63  6.2000000000000E-01  2.9423430271762E-04  1.3476389260179E-01
64  6.3000000000000E-01 -6.4933919447734E-02  2.4121716931981E-01
65  6.4000000000000E-01 -1.2505796841552E-01  3.5074865359052E-01
66  6.5000000000000E-01 -1.7986331121543E-01  4.6259022456220E-01
67  6.6000000000000E-01 -2.2918598463020E-01  5.7601137993683E-01
68  6.7000000000000E-01 -2.7291391889470E-01  6.9031446513847E-01
69  6.8000000000000E-01 -3.1098782324236E-01  8.0482666371515E-01
70  6.9000000000000E-01 -3.4340164203335E-01  9.1888947084352E-01
71  7.0000000000000E-01 -3.7020251879980E-01  1.0318465136932E+00
72  7.1000000000000E-01 -3.9149020593541E-01  1.1430306851205E+00
73  7.2000000000000E-01 -4.0741586182491E-01  1.2517516153935E+00
74  7.3000000000000E-01 -4.1818018508985E-01  1.3572845168599E+00
75  7.4000000000000E-01 -4.2403084728828E-01  1.4588613971295E+00
76  7.5000000000000E-01 -4.2525920063562E-01  1.5556655480043E+00
77  7.6000000000000E-01 -4.2219625572516E-01  1.6468300827177E+00
78  7.7000000000000E-01 -4.1520794527058E-01  1.7314411177161E+00
79  7.8000000000000E-01 -4.0468971287059E-01  1.8085459838123E+00
80  7.9000000000000E-01 -3.9106048988494E-01  1.8771666132773E+00
81  8.0000000000000E-01 -3.7475614779785E-01  1.9363179938415E+00
82  8.1000000000000E-01 -3.5622253695255E-01  1.9850313182116E+00
83  8.2000000000000E-01 -3.3590824427360E-01  2.0223811996231E+00
84  8.3000000000000E-01 -3.1425722157041E-01  2.0475160814037E+00
85  8.4000000000000E-01 -2.9170145131364E-01  2.0596907524215E+00
86  8.5000000000000E-01 -2.6865382756749E-01  2.0582997007900E+00
87  8.6000000000000E-01 -2.4550143534608E-01  2.0429099043367E+00
88  8.7000000000000E-01 -2.2259941150391E-01  2.0132915755741E+00
89  8.8000000000000E-01 -2.0026556401438E-01  1.9694453569249E+00
90  8.9000000000000E-01 -1.7877591398788E-01  1.9116245023112E+00
91  9.0000000000000E-01 -1.5836130609394E-01  1.8403506853116E+00
92  9.1000000000000E-01 -1.3920520845909E-01  1.7564222409731E+00
93  9.2000000000000E-01 -1.2144279310505E-01  1.6609138748289E+00
94  9.3000000000000E-01 -1.0516135324673E-01  1.5551671533921E+00
95  9.4000000000000E-01 -9.0402075151754E-02  1.4407714179940E+00
96  9.5000000000000E-01 -7.7163140770454E-02  1.3195351293013E+00
97  9.6000000000000E-01 -6.5404094091424E-02  1.1934480428095E+00
98  9.7000000000000E-01 -5.5051360352063E-02  1.0646350246667E+00
99  9.8000000000000E-01 -4.6004764056511E-02  9.3530273040301E-01
100  9.9000000000000E-01 -3.8144850414701E-02  8.0768077467391E-01
101  1.0000000000000E+00 -3.1340776493183E-02  6.8395940606113E-01
102  1.0100000000000E+00 -2.5458504103560E-02  5.6622605653860E-01
103  1.0200000000000E+00 -2.0368997158206E-02  4.5640345082769E-01
104  1.0300000000000E+00 -1.5956088854519E-02  3.5619231893115E-01
105  1.0400000000000E+00 -1.2123785228828E-02  2.6702118281065E-01
106  1.0500000000000E+00 -8.8041289030350E-03  1.8999706147623E-01
107  1.0600000000000E+00 -6.0063864758498E-03  1.2558334329479E-01
108  1.0700000000000E+00 -3.7182755671381E-03  7.4256667198575E-02
109  1.0800000000000E+00 -1.9302358264230E-03  3.6399545345892E-02
110  1.0900000000000E+00 -6.8141470868143E-04  1.2031257224960E-02
111  1.1000000000000E+00 -5.9995224861204E-05  9.8490522240680E-04
112  1.1100000000000E+00  8.9267673062901E-07 -1.4018613931509E-05
113  1.1200000000000E+00  4.3047216895735E-07 -7.2183513220481E-06
114  1.13 -0.  0.
115  1.14  0.  0.
116  1.15  0.  0.
117  1.16  0.  0.
118  1.17  0.  0.
119  1.18  0.  0.
120  1.19  0.  0.
121  1.20  0.  0.
122  1.21  0.  0.
123  1.22  0.  0.
124  1.23  0.  0.
125  1.24  0.  0.
126  1.25  0.  0.
127  1.26  0.  0.
128  1.27  0.  0.
129  1.28  0.  0.
130  1.29  0.  0.
131  1.30  0.  0.
132  1.31  0.  0.
133  1.32  0.  0.
134  1.33  0.  0.
135  1.34  0.  0.
136  1.35  0.  0.
137  1.36  0.  0.
138  1.37  0.  0.
139  1.38  0.  0.
140  1.39  0.  0.
141  1.40  0.  0.
142  1.41  0.  0.
143  1.42  0.  0.
144  1.43  0.  0.
145  1.44  0.  0.
146  1.45  0.  0.
147  1.46  0.  0.
148  1.47  0.  0.
149  1.48  0.  0.
150  1.49  0.  0.
151  1.50  0.  0.
152  1.51  0.  0.
153  1.52  0.  0.
154  1.53  0.  0.
155  1.54  0.  0.
156  1.55  0.  0.
157  1.56  0.  0.
158  1.57  0.  0.
159  1.58  0.  0.
160  1.59  0.  0.
161  1.60  0.  0.
162  1.61  0.  0.
163  1.62  0.  0.
164  1.63  0.  0.
165  1.64  0.  0.
166  1.65  0.  0.
167  1.66  0.  0.
168  1.67  0.  0.
169  1.68  0.  0.
170  1.69  0.  0.
171  1.70  0.  0.
172  1.71  0.  0.
173  1.72  0.  0.
174  1.73  0.  0.
175  1.74  0.  0.
176  1.75  0.  0.
177  1.76  0.  0.
178  1.77  0.  0.
179  1.78  0.  0.
180  1.79  0.  0.
181  1.80  0.  0.
182  1.81  0.  0.
183  1.82  0.  0.
184  1.83  0.  0.
185  1.84  0.  0.
186  1.85  0.  0.
187  1.86  0.  0.
188  1.87  0.  0.
189  1.88  0.  0.
190  1.89  0.  0.
191  1.90  0.  0.
192  1.91  0.  0.
193  1.92  0.  0.
194  1.93  0.  0.
195  1.94  0.  0.
196  1.95  0.  0.
197  1.96  0.  0.