U     ONCVPSP-4.0.1  r_core=   1.30497   1.30497   1.60890   1.55218
     92.0000     32.0000      220116    zatom,zion,pspd
     8      11   3     4   600     0    pspcod,pspxc,lmax,lloc,mmax,r2well
  5.99000000  5.00000000  0.00000000    rchrg fchrg qchrg
     3     2     2     2     0    nproj
     1     1           extension_switch
   0                         1.5759587893853E+01 -5.9840770587707E+00 -2.0211475048007E+00
     1  0.0000000000000E+00  9.1576891625422E-09  4.0313830051986E-08  7.3997376281998E-10
     2  1.0000000000000E-02  1.0164888842833E-01 -1.5329700917261E-01  1.4835747684819E-02
     3  2.0000000000000E-02  2.0303514226758E-01 -3.0484690249688E-01  2.9671043395083E-02
     4  3.0000000000000E-02  3.0389454302687E-01 -4.5292602118012E-01  4.4505543652388E-02
     5  4.0000000000000E-02  4.0395978364638E-01 -5.9585718697912E-01  5.9339125571949E-02
     6  5.0000000000000E-02  5.0295911982266E-01 -7.3203186943465E-01  7.4172005961531E-02
     7  6.0000000000000E-02  6.0061524920577E-01 -8.5993109556051E-01  8.9004870426177E-02
     8  7.0000000000000E-02  6.9664448322018E-01 -9.7814473202299E-01  1.0383901490569E-01
     9  8.0000000000000E-02  7.9075626710343E-01 -1.0853888101603E+00  1.1867650133184E-01
    10  9.0000000000000E-02  8.8265309285236E-01 -1.1805206123108E+00  1.3352032821425E-01
    11  1.0000000000000E-01  9.7203083745102E-01 -1.2625512924332E+00  1.4837461597695E-01
    12  1.1000000000000E-01  1.0585795454093E+00 -1.3306558633196E+00  1.6324480580496E-01
    13  1.2000000000000E-01  1.1419846606747E+00 -1.3841804451019E+00  1.7813786965798E-01
    14  1.3000000000000E-01  1.2219286988248E+00 -1.4226467334296E+00  1.9306252800402E-01
    15  1.4000000000000E-01  1.2980933365344E+00 -1.4457537088292E+00  2.0802947075890E-01
    16  1.5000000000000E-01  1.3701618820724E+00 -1.4533766695570E+00  2.2305157592493E-01
    17  1.6000000000000E-01  1.4378220784139E+00 -1.4455637270231E+00  2.3814411954235E-01
    18  1.7000000000000E-01  1.5007691798314E+00 -1.4225299540410E+00  2.5332496983238E-01
    19  1.8000000000000E-01  1.5587092338736E+00 -1.3846494203789E+00  2.6861475785272E-01
    20  1.9000000000000E-01  1.6113624937210E+00 -1.3324453862207E+00  2.8403701663069E-01
    21  2.0000000000000E-01  1.6584668812259E+00 -1.2665789513125E+00  2.9961828060566E-01
    22  2.1000000000000E-01  1.6997814186372E+00 -1.1878364752113E+00  3.1538813731629E-01
    23  2.2000000000000E-01  1.7350895471299E+00 -1.0971160918811E+00  3.3137922361696E-01
    24  2.3000000000000E-01  1.7642022527923E+00 -9.9541363996052E-01  3.4762715930237E-01
    25  2.4000000000000E-01  1.7869609255728E+00 -8.8380831870532E-01  3.6417041185439E-01
    26  2.5000000000000E-01  1.8032398836934E+00 -7.6344835953938E-01  3.8105008708819E-01
    27  2.6000000000000E-01  1.8129485049545E+00 -6.3553697527807E-01  3.9830964174521E-01
    28  2.7000000000000E-01  1.8160329169034E+00 -5.0131881456278E-01  4.1599451553538E-01
    29  2.8000000000000E-01  1.8124772096735E+00 -3.6206710925829E-01  4.3415168173696E-01
    30  2.9000000000000E-01  1.8023041480300E+00 -2.1907165904718E-01  4.5282911718642E-01
    31  3.0000000000000E-01  1.7855753723952E+00 -7.3627751820157E-02  4.7207519429127E-01
    32  3.1000000000000E-01  1.7623910919257E+00  7.2973927583039E-02  4.9193799953626E-01
    33  3.2000000000000E-01  1.7328892856808E+00  2.1945639252821E-01  5.1246458478164E-01
    34  3.3000000000000E-01  1.6972444401252E+00  3.6456448780542E-01  5.3370015942938E-01
    35  3.4000000000000E-01  1.6556658622915E+00  5.0707213265707E-01  5.5568723321379E-01
    36  3.5000000000000E-01  1.6083956175345E+00  6.4578877724346E-01  5.7846472091695E-01
    37  3.6000000000000E-01  1.5557061486566E+00  7.7956520127083E-01  6.0206702167615E-01
    38  3.7000000000000E-01  1.4978976390418E+00  9.0729880093495E-01  6.2652308670578E-01
    39  3.8000000000000E-01  1.4352951861416E+00  1.0279385195564E+00  6.5185549017021E-01
    40  3.9000000000000E-01  1.3682458531185E+00  1.1404895779616E+00  6.7807951859005E-01
    41  4.0000000000000E-01  1.2971156656564E+00  1.2440181529077E+00  7.0520229452572E-01
    42  4.1000000000000E-01  1.2222866179620E+00  1.3376561359411E+00  7.3322195034539E-01
    43  4.2000000000000E-01  1.1441537469239E+00  1.4206060817137E+00  7.6212686764426E-01
    44  4.3000000000000E-01  1.0631223264933E+00  1.4921464248635E+00  7.9189499734117E-01
    45  4.4000000000000E-01  9.7960522584965E-01  1.5516370092922E+00  8.2249327464376E-01
    46  4.5000000000000E-01  8.9402046515083E-01  1.5985249344251E+00  8.5387714196118E-01
    47  4.6000000000000E-01  8.0678899199137E-01  1.6323506813819E+00  8.8599019147412E-01
    48  4.7000000000000E-01  7.1833269051155E-01  1.6527544395830E+00  9.1876393747229E-01
    49  4.8000000000000E-01  6.2907262381431E-01  1.6594825129021E+00  9.5211772677142E-01
    50  4.9000000000000E-01  5.3942749937879E-01  1.6523936457559E+00  9.8595879356104E-01
    51  5.0000000000000E-01  4.4981233691141E-01  1.6314650751727E+00  1.0201824629477E+00
    52  5.1000000000000E-01  3.6063730893041E-01  1.5967980864280E+00  1.0546725052892E+00
    53  5.2000000000000E-01  2.7230671667508E-01  1.5486228286290E+00  1.0893016412034E+00
    54  5.3000000000000E-01  1.8521805797242E-01  1.4873021338358E+00  1.1239321949209E+00
    55  5.4000000000000E-01  9.9761139703115E-02  1.4133340797454E+00  1.1584168914814E+00
    56  5.5000000000000E-01  1.6317185661803E-02  1.3273530422297E+00  1.1925997911760E+00
    57  5.6000000000000E-01 -6.4742109006056E-02  1.2301290003373E+00  1.2263173526636E+00
    58  5.7000000000000E-01 -1.4305562297652E-01  1.1225648826168E+00  1.2593996143548E+00
    59  5.8000000000000E-01 -2.1827399489501E-01  1.0056917793691E+00  1.2916714820071E+00
    60  5.9000000000000E-01 -2.9006098500965E-01  8.8066188987324E-01  1.3229541090155E+00
    61  6.0000000000000E-01 -3.5809503811486E-01  7.4873912568120E-01  1.3530663546539E+00
    62  6.1000000000000E-01 -4.2207106340584E-01  6.1128734931820E-01  1.3818263045148E+00
    63  6.2000000000000E-01 -4.8170243542039E-01  4.6975629054875E-01  1.4090528366386E+00
    64  6.3000000000000E-01 -5.3672320800626E-01  3.2566524794042E-01  1.4345672163047E+00
    65  6.4000000000000E-01 -5.8689052063134E-01  1.8058474979015E-01  1.4581947021830E+00
    66  6.5000000000000E-01 -6.3198716378894E-01  3.6116413543110E-02  1.4797661465103E+00
    67  6.6000000000000E-01 -6.7182425819420E-01 -1.0612869543291E-01  1.4991195721431E+00
    68  6.7000000000000E-01 -7.0624399136893E-01 -2.4455284848801E-01  1.5161017097400E+00
    69  6.8000000000000E-01 -7.3512234548115E-01 -3.7759517536939E-01  1.5305694789252E+00
    70  6.9000000000000E-01 -7.5837174233426E-01 -5.0375547639039E-01  1.5423913980565E+00
    71  7.0000000000000E-01 -7.7594352551534E-01 -6.2161784879800E-01  1.5514489081479E+00
    72  7.1000000000000E-01 -7.8783019618334E-01 -7.2987363292953E-01  1.5576375975578E+00
    73  7.2000000000000E-01 -7.9406731800662E-01 -8.2734317813737E-01  1.5608683152241E+00
    74  7.3000000000000E-01 -7.9473500846171E-01 -9.1299593584368E-01  1.5610681614857E+00
    75  7.4000000000000E-01 -7.8995893811997E-01 -9.8596840761227E-01  1.5581813468534E+00
    76  7.5000000000000E-01 -7.7991076662635E-01 -1.0455795095322E+00  1.5521699104676E+00
    77  7.6000000000000E-01 -7.6480795367780E-01 -1.0913429598527E+00  1.5430142913749E+00
    78  7.7000000000000E-01 -7.4491289522906E-01 -1.1229763537137E+00  1.5307137471697E+00
    79  7.8000000000000E-01 -7.2053134909365E-01 -1.1404066556167E+00  1.5152866159493E+00
    80  7.9000000000000E-01 -6.9201012971830E-01 -1.1437719153662E+00  1.4967704189247E+00
    81  8.0000000000000E-01 -6.5973406877405E-01 -1.1334190946847E+00  1.4752218023882E+00
    82  8.1000000000000E-01 -6.2412225587691E-01 -1.1098979774937E+00  1.4507163190718E+00
    83  8.2000000000000E-01 -5.8562359174034E-01 -1.0739512247554E+00  1.4233480502136E+00
    84  8.3000000000000E-01 -5.4471170387941E-01 -1.0265007225179E+00  1.3932290708911E+00
    85  8.4000000000000E-01 -5.0187929213440E-01 -9.6863045712303E-01  1.3604887623728E+00
    86  8.5000000000000E-01 -4.5763198728913E-01 -9.0156623225372E-01  1.3252729763756E+00
    87  8.6000000000000E-01 -4.1248182047885E-01 -8.2665261653890E-01  1.2877430572049E+00
    88  8.7000000000000E-01 -3.6694041351737E-01 -7.4532757596210E-01  1.2480747287822E+00
    89  8.8000000000000E-01 -3.2151201038190E-01 -6.5909530071663E-01  1.2064568545459E+00
    90  8.9000000000000E-01 -2.7668647760118E-01 -5.6949778011137E-01  1.1630900791315E+00
    91  9.0000000000000E-01 -2.3293240600101E-01 -4.7808571067777E-01  1.1181853616042E+00
    92  9.1000000000000E-01 -1.9069044804507E-01 -3.8638934111162E-01  1.0719624108300E+00
    93  9.2000000000000E-01 -1.5036702383359E-01 -2.9588986285084E-01  1.0246480343254E+00
    94  9.3000000000000E-01 -1.1232852472145E-01 -2.0799194700089E-01  9.7647441262660E-01
    95  9.4000000000000E-01 -7.6896136611087E-02 -1.2399800741682E-01  9.2767731185995E-01
    96  9.5000000000000E-01 -4.4341395443027E-02 -4.5084736744633E-02  8.7849424778402E-01
    97  9.6000000000000E-01 -1.4882575493963E-02  2.7717581863139E-02  8.2916261510265E-01
    98  9.7000000000000E-01  1.1318002911534E-02  9.3542538600460E-02  7.7991779632896E-01
    99  9.8000000000000E-01  3.4155675435331E-02  1.5170145008519E-01  7.3099126490837E-01
   100  9.9000000000000E-01  5.3584091860975E-02  2.0169328474987E-01  6.8260869769579E-01
   101  1.0000000000000E+00  6.9614794949479E-02  2.4321041851388E-01  6.3498811223258E-01
   102  1.0100000000000E+00  8.2315703641122E-02  2.7614005757447E-01  5.8833804459706E-01
   103  1.0200000000000E+00  9.1808503679418E-02  3.0056124668189E-01  5.4285578391912E-01
   104  1.0300000000000E+00  9.8264968370084E-02  3.1673746426483E-01  4.9872567997682E-01
   105  1.0400000000000E+00  1.0190225180109E-01  3.2510488926097E-01  4.5611754064823E-01
   106  1.0500000000000E+00  1.0297721634126E-01  3.2625650796109E-01  4.1518513640528E-01
   107  1.0600000000000E+00  1.0177987556881E-01  3.2092231233578E-01  3.7606482953551E-01
   108  1.0700000000000E+00  9.8626052973729E-02  3.0994592413215E-01  3.3887434639712E-01
   109  1.0800000000000E+00  9.3849376079093E-02  2.9425806246130E-01  3.0371171179306E-01
   110  1.0900000000000E+00  8.7792745207063E-02  2.7484735724969E-01  2.7065436553061E-01
   111  1.1000000000000E+00  8.0799436414771E-02  2.5272909856612E-01  2.3975848246175E-01
   112  1.1100000000000E+00  7.3204019634408E-02  2.2891260443922E-01  2.1105851882806E-01
   113  1.1200000000000E+00  6.5323296253164E-02  2.0436798930491E-01  1.8456700960509E-01
   114  1.1300000000000E+00  5.7447486147958E-02  1.7999322535012E-01  1.6027464382665E-01
   115  1.1400000000000E+00  4.9831922997337E-02  1.5658251158672E-01  1.3815064759672E-01
   116  1.1500000000000E+00  4.2689549810484E-02  1.3479710588337E-01  1.1814350776203E-01
   117  1.1600000000000E+00  3.6184544392581E-02  1.1513993485930E-01  1.0018207302486E-01
   118  1.1700000000000E+00  3.0427448539822E-02  9.7935482395294E-02  8.4177073743935E-02
   119  1.1800000000000E+00  2.5472225384863E-02  8.3316670650999E-02  7.0023106781917E-02
   120  1.1900000000000E+00  2.1315728269303E-02  7.1220695409963E-02  5.7601137636509E-02
   121  1.2000000000000E+00  1.7900132241713E-02  6.1396062205028E-02  4.6781578726967E-02
   122  1.2100000000000E+00  1.5118957064269E-02  5.3423396538956E-02  3.7428010170624E-02
   123  1.2200000000000E+00  1.2827375993613E-02  4.6752865052679E-02  2.9401622772962E-02
   124  1.2300000000000E+00  1.0857817927323E-02  4.0762457653725E-02  2.2566426658645E-02
   125  1.2400000000000E+00  9.0424228752676E-03  3.4843978461289E-02  1.6795200297304E-02
   126  1.2500000000000E+00  7.3035483034169E-03  2.8801105035264E-02  1.1963437926966E-02
   127  1.2600000000000E+00  5.5760458157536E-03  2.2454977202427E-02  7.9812715826137E-03
   128  1.2700000000000E+00  3.8302136210957E-03  1.5720149080148E-02  4.8090936444308E-03
   129  1.2800000000000E+00  2.1964886992606E-03  9.1738902385494E-03  2.4391679910300E-03
   130  1.2900000000000E+00  8.7942231157831E-04  3.7325291604600E-03  8.7010918606708E-04
   131  1.3000000000000E+00  1.1705124639587E-04  5.0439804088908E-04  1.0361755105284E-04
   132  1.3100000000000E+00 -1.0316626449649E-05 -4.4836731411981E-05 -8.4894535997472E-06
   133  1.3200000000000E+00  9.3366368625875E-07  4.0373339660410E-06  7.9974970224143E-07
   134  1.33  0.  0. -0.
   135  1.34  0.  0.  0.
   136  1.35  0.  0.  0.
   137  1.36  0.  0.  0.
   138  1.37  0.  0.  0.
   139  1.38  0.  0.  0.
   140  1.39  0.  0.  0.
   141  1.40  0.  0.  0.
   142  1.41  0.  0.  0.
   143  1.42  0.  0.  0.
   144  1.43  0.  0.  0.
   145  1.44  0.  0.  0.
   146  1.45  0.  0.  0.
   147  1.46  0.  0.  0.
   148  1.47  0.  0.  0.
   149  1.48  0.  0.  0.
   150  1.49  0.  0.  0.
   151  1.50  0.  0.  0.
   152  1.51  0.  0.  0.
   153  1.52  0.  0.  0.
   154  1.53  0.  0.  0.
   155  1.54  0.  0.  0.
   156  1.55  0.  0.  0.
   157  1.56  0.  0.  0.
   158  1.57  0.  0.  0.
   159  1.58  0.  0.  0.
   160  1.59  0.  0.  0.
   161  1.60  0.  0.  0.
   162  1.61  0.  0.  0.
   163  1.62  0.  0.  0.
   164  1.63  0.  0.  0.
   165  1.64  0.  0.  0.
   166  1.65  0.  0.  0.
   167  1.66  0.  0.  0.
   168  1.67  0.  0.  0.
   169  1.68  0.  0.  0.
   170  1.69  0.  0.  0.
   171  1.70  0.  0.  0.
   172  1.71  0.  0.  0.
   173  1.72  0.  0.  0.
   174  1.73  0.  0.  0.
   175  1.74  0.  0.  0.
   176  1.75  0.  0.  0.
   177  1.76  0.  0.  0.
   178  1.77  0.  0.  0.
   179  1.78  0.  0.  0.
   180  1.79  0.  0.  0.
   181  1.80  0.  0.  0.
   182  1.81  0.  0.  0.
   183  1.82  0.  0.  0.
   184  1.83  0.  0.  0.
   185  1.84  0.  0.  0.
   186  1.85  0.  0.  0.
   187  1.86  0.  0.  0.
   188  1.87  0.  0.  0.
   189  1.88  0.  0.  0.
   190  1.89  0.  0.  0.
   191  1.90  0.  0.  0.
   192  1.91  0.  0.  0.
   193  1.92  0.  0.  0.
   194  1.93  0.  0.  0.
   195  1.94  0.  0.  0.
   196  1.95  0.  0.  0.
   197  1.96  0.  0.  0.
   198  1.97  0.  0.  0.
   199  1.98  0.  0.  0.
   200  1.99  0.  0.  0.
   201  2.00  0.  0.  0.
   202  2.01  0.  0.  0.
   203  2.02  0.  0.  0.
   204  2.03  0.  0.  0.
   205  2.04  0.  0.  0.
   206  2.05  0.  0.  0.
   207  2.06  0.  0.  0.
   208  2.07  0.  0.  0.
   209  2.08  0.  0.  0.
   210  2.09  0.  0.  0.
   211  2.10  0.  0.  0.
   212  2.11  0.  0.  0.
   213  2.12  0.  0.  0.
   214  2.13  0.  0.  0.
   215  2.14  0.  0.  0.
   216  2.15  0.  0.  0.
   217  2.16  0.  0.  0.
   218  2.17  0.  0.  0.
   219  2.18  0.  0.  0.
   220  2.19  0.  0.  0.
   221  2.20  0.  0.  0.
   222  2.21  0.  0.  0.
   223  2.22  0.  0.  0.
   224  2.23  0.  0.  0.
   225  2.24  0.  0.  0.
   226  2.25  0.  0.  0.
   227  2.26  0.  0.  0.
   228  2.27  0.  0.  0.
   229  2.28  0.  0.  0.
   230  2.29  0.  0.  0.
   231  2.30  0.  0.  0.
   232  2.31  0.  0.  0.
   233  2.32  0.  0.  0.
   234  2.33  0.  0.  0.
   235  2.34  0.  0.  0.
   236  2.35  0.  0.  0.
   237  2.36  0.  0.  0.
   238  2.37  0.  0.  0.
   239  2.38  0.  0.  0.
   240  2.39  0.  0.  0.
   241  2.40  0.  0.  0.
   242  2.41  0.  0.  0.
   243  2.42  0.  0.  0.
   244  2.43  0.  0.  0.
   245  2.44  0.  0.  0.
   246  2.45  0.  0.  0.
   247  2.46  0.  0.  0.
   248  2.47  0.  0.  0.
   249  2.48  0.  0.  0.
   250  2.49  0.  0.  0.
   251  2.50  0.  0.  0.
   252  2.51  0.  0.  0.
   253  2.52  0.  0.  0.
   254  2.53  0.  0.  0.
   255  2.54  0.  0.  0.
   256  2.55  0.  0.  0.
   257  2.56  0.  0.  0.
   258  2.57  0.  0.  0.
   259  2.58  0.  0.  0.
   260  2.59  0.  0.  0.
   261  2.60  0.  0.  0.
   262  2.61  0.  0.  0.
   263  2.62  0.  0.  0.
   264  2.63  0.  0.  0.
   265  2.64  0.  0.  0.
   266  2.65  0.  0.  0.
   267  2.66  0.  0.  0.
   268  2.67  0.  0.  0.
   269  2.68  0.  0.  0.
   270  2.69  0.  0.  0.
   271  2.70  0.  0.  0.
   272  2.71  0.  0.  0.
   273  2.72  0.  0.  0.
   274  2.73  0.  0.  0.
   275  2.74  0.  0.  0.
   276  2.75  0.  0.  0.
   277  2.76  0.  0.  0.
   278  2.77  0.  0.  0.
   279  2.78  0.  0.  0.
   280  2.79  0.  0.  0.
   281  2.80  0.  0.  0.
   282  2.81  0.  0.  0.
   283  2.82  0.  0.  0.
   284  2.83  0.  0.  0.
   285  2.84  0.  0.  0.
   286  2.85  0.  0.  0.
   287  2.86  0.  0.  0.
   288  2.87  0.  0.  0.
   289  2.88  0.  0.  0.
   290  2.89  0.  0.  0.
   291  2.90  0.  0.  0.
   292  2.91  0.  0.  0.
   293  2.92  0.  0.  0.
   294  2.93  0.  0.  0.
   295  2.94  0.  0.  0.
   296  2.95  0.  0.  0.
   297  2.96  0.  0.  0.
   298  2.97  0.  0.  0.
   299  2.98  0.  0.  0.
   300  2.99  0.  0.  0.
   301  3.00  0.  0.  0.
   302  3.01  0.  0.  0.
   303  3.02  0.  0.  0.
   304  3.03  0.  0.  0.
   305  3.04  0.  0.  0.
   306  3.05  0.  0.  0.
   307  3.06  0.  0.  0.
   308  3.07  0.  0.  0.
   309  3.08  0.  0.  0.
   310  3.09  0.  0.  0.
   311  3.10  0.  0.  0.
   312  3.11  0.  0.  0.
   313  3.12  0.  0.  0.
   314  3.13  0.  0.  0.
   315  3.14  0.  0.  0.
   316  3.15  0.  0.  0.
   317  3.16  0.  0.  0.
   318  3.17  0.  0.  0.
   319  3.18  0.  0.  0.
   320  3.19  0.  0.  0.
   321  3.20  0.  0.  0.
   322  3.21  0.  0.  0.
   323  3.22  0.  0.  0.
   324  3.23  0.  0.  0.
   325  3.24  0.  0.  0.
   326  3.25  0.  0.  0.
   327  3.26  0.  0.  0.
   328  3.27  0.  0.  0.
   329  3.28  0.  0.  0.
   330  3.29  0.  0.  0.
   331  3.30  0.  0.  0.
   332  3.31  0.  0.  0.
   333  3.32  0.  0.  0.
   334  3.33  0.  0.  0.
   335  3.34  0.  0.  0.
   336  3.35  0.  0.  0.
   337  3.36  0.  0.  0.
   338  3.37  0.  0.  0.
   339  3.38  0.  0.  0.
   340  3.39  0.  0.  0.
   341  3.40  0.  0.  0.
   342  3.41  0.  0.  0.
   343  3.42  0.  0.  0.
   344  3.43  0.  0.  0.
   345  3.44  0.  0.  0.
   346  3.45  0.  0.  0.
   347  3.46  0.  0.  0.
   348  3.47  0.  0.  0.
   349  3.48  0.  0.  0.
   350  3.49  0.  0.  0.
   351  3.50  0.  0.  0.
   352  3.51  0.  0.  0.
   353  3.52  0.  0.  0.
   354  3.53  0.  0.  0.
   355  3.54  0.  0.  0.
   356  3.55  0.  0.  0.
   357  3.56  0.  0.  0.
   358  3.57  0.  0.  0.
   359  3.58  0.  0.  0.
   360  3.59  0.  0.  0.
   361  3.60  0.  0.  0.
   362  3.61  0.  0.  0.
   363  3.62  0.  0.  0.
   364  3.63  0.  0.  0.
   365  3.64  0.  0.  0.
   366  3.65  0.  0.  0.
   367  3.66  0.  0.  0.
   368  3.67  0.  0.  0.
   369  3.68  0.  0.  0.
   370  3.69  0.  0.  0.
   371  3.70  0.  0.  0.
   372  3.71  0.  0.  0.
   373  3.72  0.  0.  0.
   374  3.73  0.  0.  0.
   375  3.74  0.  0.  0.
   376  3.75  0.  0.  0.
   377  3.76  0.  0.  0.
   378  3.77  0.  0.  0.
   379  3.78  0.  0.  0.
   380  3.79  0.  0.  0.
   381  3.80  0.  0.  0.
   382  3.81  0.  0.  0.
   383  3.82  0.  0.  0.
   384  3.83  0.  0.  0.
   385  3.84  0.  0.  0.
   386  3.85  0.  0.  0.
   387  3.86  0.  0.  0.
   388  3.87  0.  0.  0.
   389  3.88  0.  0.  0.
   390  3.89  0.  0.  0.
   391  3.90  0.  0.  0.
   392  3.91  0.  0.  0.
   393  3.92  0.  0.  0.
   394  3.93  0.  0.  0.
   395  3.94  0.  0.  0.
   396  3.95  0.  0.  0.
   397  3.96  0.  0.  0.
   398  3.97  0.  0.  0.
   399  3.98  0.  0.  0.
   400  3.99  0.  0.  0.
   401  4.00  0.  0.  0.
   402  4.01  0.  0.  0.
   403  4.02  0.  0.  0.
   404  4.03  0.  0.  0.
   405  4.04  0.  0.  0.
   406  4.05  0.  0.  0.
   407  4.06  0.  0.  0.
   408  4.07  0.  0.  0.
   409  4.08  0.  0.  0.
   410  4.09  0.  0.  0.
   411  4.10  0.  0.  0.
   412  4.11  0.  0.  0.
   413  4.12  0.  0.  0.
   414  4.13  0.  0.  0.
   415  4.14  0.  0.  0.
   416  4.15  0.  0.  0.
   417  4.16  0.  0.  0.
   418  4.17  0.  0.  0.
   419  4.18  0.  0.  0.
   420  4.19  0.  0.  0.
   421  4.20  0.  0.  0.
   422  4.21  0.  0.  0.
   423  4.22  0.  0.  0.
   424  4.23  0.  0.  0.
   425  4.24  0.  0.  0.
   426  4.25  0.  0.  0.
   427  4.26  0.  0.  0.
   428  4.27  0.  0.  0.
   429  4.28  0.  0.  0.
   430  4.29  0.  0.  0.
   431  4.30  0.  0.  0.
   432  4.31  0.  0.  0.
   433  4.32  0.  0.  0.
   434  4.33  0.  0.  0.
   435  4.34  0.  0.  0.
   436  4.35  0.  0.  0.
   437  4.36  0.  0.  0.
   438  4.37  0.  0.  0.
   439  4.38  0.  0.  0.
   440  4.39  0.  0.  0.
   441  4.40  0.  0.  0.
   442  4.41  0.  0.  0.
   443  4.42  0.  0.  0.
   444  4.43  0.  0.  0.
   445  4.44  0.  0.  0.
   446  4.45  0.  0.  0.
   447  4.46  0.  0.  0.
   448  4.47  0.  0.  0.
   449  4.48  0.  0.  0.
   450  4.49  0.  0.  0.
   451  4.50  0.  0.  0.
   452  4.51  0.  0.  0.
   453  4.52  0.  0.  0.
   454  4.53  0.  0.  0.
   455  4.54  0.  0.  0.
   456  4.55  0.  0.  0.
   457  4.56  0.  0.  0.
   458  4.57  0.  0.  0.
   459  4.58  0.  0.  0.
   460  4.59  0.  0.  0.
   461  4.60  0.  0.  0.
   462  4.61  0.  0.  0.
   463  4.62  0.  0.  0.
   464  4.63  0.  0.  0.
   465  4.64  0.  0.  0.
   466  4.65  0.  0.  0.
   467  4.66  0.  0.  0.
   468  4.67  0.  0.  0.
   469  4.68  0.  0.  0.
   470  4.69  0.  0.  0.
   471  4.70  0.  0.  0.
   472  4.71  0.  0.  0.
   473  4.72  0.  0.  0.
   474  4.73  0.  0.  0.
   475  4.74  0.  0.  0.
   476  4.75  0.  0.  0.
   477  4.76  0.  0.  0.
   478  4.77  0.  0.  0.
   479  4.78  0.  0.  0.
   480  4.79  0.  0.  0.
   481  4.80  0.  0.  0.
   482  4.81  0.  0.  0.
   483  4.82  0.  0.  0.
   484  4.83  0.  0.  0.
   485  4.84  0.  0.  0.
   486  4.85  0.  0.  0.
   487  4.86  0.  0.  0.
   488  4.87  0.  0.  0.
   489  4.88  0.  0.  0.
   490  4.89  0.  0.  0.
   491  4.90  0.  0.  0.
   492  4.91  0.  0.  0.
   493  4.92  0.  0.  0.
   494  4.93  0.  0.  0.
   495  4.94  0.  0.  0.
   496  4.95  0.  0.  0.
   497  4.96  0.  0.  0.
   498  4.97  0.  0.  0.
   499  4.98  0.  0.  0.
   500  4.99  0.  0.  0.
   501  5.00  0.  0.  0.
   502  5.01  0.  0.  0.
   503  5.02  0.  0.  0.
   504  5.03  0.  0.  0.
   505  5.04  0.  0.  0.
   506  5.05  0.  0.  0.
   507  5.06  0.  0.  0.
   508  5.07  0.  0.  0.
   509  5.08  0.  0.  0.
   510  5.09  0.  0.  0.
   511  5.10  0.  0.  0.
   512  5.11  0.  0.  0.
   513  5.12  0.  0.  0.
   514  5.13  0.  0.  0.
   515  5.14  0.  0.  0.
   516  5.15  0.  0.  0.
   517  5.16  0.  0.  0.
   518  5.17  0.  0.  0.
   519  5.18  0.  0.  0.
   520  5.19  0.  0.  0.
   521  5.20  0.  0.  0.
   522  5.21  0.  0.  0.
   523  5.22  0.  0.  0.
   524  5.23  0.  0.  0.
   525  5.24  0.  0.  0.
   526  5.25  0.  0.  0.
   527  5.26  0.  0.  0.
   528  5.27  0.  0.  0.
   529  5.28  0.  0.  0.
   530  5.29  0.  0.  0.
   531  5.30  0.  0.  0.
   532  5.31  0.  0.  0.
   533  5.32  0.  0.  0.
   534  5.33  0.  0.  0.
   535  5.34  0.  0.  0.
   536  5.35  0.  0.  0.
   537  5.36  0.  0.  0.
   538  5.37  0.  0.  0.
   539  5.38  0.  0.  0.
   540  5.39  0.  0.  0.
   541  5.40  0.  0.  0.
   542  5.41  0.  0.  0.
   543  5.42  0.  0.  0.
   544  5.43  0.  0.  0.
   545  5.44  0.  0.  0.
   546  5.45  0.  0.  0.
   547  5.46  0.  0.  0.
   548  5.47  0.  0.  0.
   549  5.48  0.  0.  0.
   550  5.49  0.  0.  0.
   551  5.50  0.  0.  0.
   552  5.51  0.  0.  0.
   553  5.52  0.  0.  0.
   554  5.53  0.  0.  0.
   555  5.54  0.  0.  0.
   556  5.55  0.  0.  0.
   557  5.56  0.  0.  0.
   558  5.57  0.  0.  0.
   559  5.58  0.  0.  0.
   560  5.59  0.  0.  0.
   561  5.60  0.  0.  0.
   562  5.61  0.  0.  0.
   563  5.62  0.  0.  0.
   564  5.63  0.  0.  0.
   565  5.64  0.  0.  0.
   566  5.65  0.  0.  0.
   567  5.66  0.  0.  0.
   568  5.67  0.  0.  0.
   569  5.68  0.  0.  0.
   570  5.69  0.  0.  0.
   571  5.70  0.  0.  0.
   572  5.71  0.  0.  0.
   573  5.72  0.  0.  0.
   574  5.73  0.  0.  0.
   575  5.74  0.  0.  0.
   576  5.75  0.  0.  0.
   577  5.76  0.  0.  0.
   578  5.77  0.  0.  0.
   579  5.78  0.  0.  0.
   580  5.79  0.  0.  0.
   581  5.80  0.  0.  0.
   582  5.81  0.  0.  0.
   583  5.82  0.  0.  0.
   584  5.83  0.  0.  0.
   585  5.84  0.  0.  0.
   586  5.85  0.  0.  0.
   587  5.86  0.  0.  0.
   588  5.87  0.  0.  0.
   589  5.88  0.  0.  0.
   590  5.89  0.  0.  0.
   591  5.90  0.  0.  0.
   592  5.91  0.  0.  0.
   593  5.92  0.  0.  0.
   594  5.93  0.  0.  0.
   595  5.94  0.  0.  0.
   596  5.95  0.  0.  0.
   597  5.96  0.  0.  0.
   598  5.97  0.  0.  0.
   599  5.98  0.  0.  0.
   600  5.99  0.  0.  0.
   1                         8.6203206499731E+00 -1.7006302036220E+00
     1  0.0000000000000E+00  3.3905477314633E-09 -8.9354930399299E-10
     2  1.0000000000000E-02  4.2043634447325E-03  4.2409714129906E-04
     3  2.0000000000000E-02  1.6781363774537E-02  1.6966765917281E-03
     4  3.0000000000000E-02  3.7623014365572E-02  3.8185856548995E-03
     5  4.0000000000000E-02  6.6550280532899E-02  6.7911811886230E-03
     6  5.0000000000000E-02  1.0331448841699E-01  1.0616248729669E-02
     7  6.0000000000000E-02  1.4759928609208E-01  1.5295893389216E-02
     8  7.0000000000000E-02  1.9902314547000E-01  2.0832406471025E-02
     9  8.0000000000000E-02  2.5714239018267E-01  2.7228112657922E-02
    10  9.0000000000000E-02  3.2145473115429E-01  3.4485203339288E-02
    11  1.0000000000000E-01  3.9140328801760E-01  4.2605562186266E-02
    12  1.1000000000000E-01  4.6638107088981E-01  5.1590589401806E-02
    13  1.2000000000000E-01  5.4573589331694E-01  6.1441031165992E-02
    14  1.3000000000000E-01  6.2877568343979E-01  7.2156820656105E-02
    15  1.4000000000000E-01  7.1477415666308E-01  8.3736936646460E-02
    16  1.5000000000000E-01  8.0297680935916E-01  9.6179285092944E-02
    17  1.6000000000000E-01  8.9260718945886E-01  1.0948060829681E-01
    18  1.7000000000000E-01  9.8287339622835E-01  1.2363642524345E-01
    19  1.8000000000000E-01  1.0729747581672E+00  1.3864100555319E-01
    20  1.9000000000000E-01  1.1621086348543E+00  1.5448737819672E-01
    21  2.0000000000000E-01  1.2494772857891E+00  1.7116737475567E-01
    22  2.1000000000000E-01  1.3342947468955E+00  1.8867170559202E-01
    23  2.2000000000000E-01  1.4157936534523E+00  2.0699006587266E-01
    24  2.3000000000000E-01  1.4932319468539E+00  2.2611126702268E-01
    25  2.4000000000000E-01  1.5658994018587E+00  2.4602338790014E-01
    26  2.5000000000000E-01  1.6331239109036E+00  2.6671393883742E-01
    27  2.6000000000000E-01  1.6942774627174E+00  2.8817003072408E-01
    28  2.7000000000000E-01  1.7487817538720E+00  3.1037854054736E-01
    29  2.8000000000000E-01  1.7961133741247E+00  3.3332626429377E-01
    30  2.9000000000000E-01  1.8358085094191E+00  3.5700004787164E-01
    31  3.0000000000000E-01  1.8674671102409E+00  3.8138688676057E-01
    32  3.1000000000000E-01  1.8907564776548E+00  4.0647398543804E-01
    33  3.2000000000000E-01  1.9054142247338E+00  4.3224876828021E-01
    34  3.3000000000000E-01  1.9112505772076E+00  4.5869883457486E-01
    35  3.4000000000000E-01  1.9081499839188E+00  4.8581185150662E-01
    36  3.5000000000000E-01  1.8960720150212E+00  5.1357538045266E-01
    37  3.6000000000000E-01  1.8750515336815E+00  5.4197663363181E-01
    38  3.7000000000000E-01  1.8451981352541E+00  5.7100216004158E-01
    39  3.8000000000000E-01  1.8066948563722E+00  6.0063746165127E-01
    40  3.9000000000000E-01  1.7597961650072E+00  6.3086654294621E-01
    41  4.0000000000000E-01  1.7048252511717E+00  6.6167139908204E-01
    42  4.1000000000000E-01  1.6421706464274E+00  6.9303145005385E-01
    43  4.2000000000000E-01  1.5722822085940E+00  7.2492293035348E-01
    44  4.3000000000000E-01  1.4956665158785E+00  7.5731824552224E-01
    45  4.4000000000000E-01  1.4128817219526E+00  7.9018530874990E-01
    46  4.5000000000000E-01  1.3245319301521E+00  8.2348687217041E-01
    47  4.6000000000000E-01  1.2312611508641E+00  8.5717986871468E-01
    48  4.7000000000000E-01  1.1337469111909E+00  8.9121478125742E-01
    49  4.8000000000000E-01  1.0326935900566E+00  9.2553505630555E-01
    50  4.9000000000000E-01  9.2882555498186E-01  9.6007657959463E-01
    51  5.0000000000000E-01  8.2288017874483E-01  9.9476723066992E-01
    52  5.1000000000000E-01  7.1560081503652E-01  1.0295265328247E+00
    53  5.2000000000000E-01  6.0772981200521E-01  1.0642654136537E+00
    54  5.3000000000000E-01  5.0000164126442E-01  1.0988860899672E+00
    55  5.4000000000000E-01  3.9313621755062E-01  1.1332820889308E+00
    56  5.5000000000000E-01  2.8783248080477E-01  1.1673384150699E+00
    57  5.6000000000000E-01  1.8476230808425E-01  1.2009318702658E+00
    58  5.7000000000000E-01  8.4564817472088E-02  1.2339315311080E+00
    59  5.8000000000000E-01 -1.2158879861980E-02  1.2661993850207E+00
    60  5.9000000000000E-01 -1.0485042996875E-01  1.2975911235142E+00
    61  6.0000000000000E-01 -1.9299844653001E-01  1.3279570877852E+00
    62  6.1000000000000E-01 -2.7614214673333E-01  1.3571433587836E+00
    63  6.2000000000000E-01 -3.5387438587715E-01  1.3849929808339E+00
    64  6.3000000000000E-01 -4.2584407201981E-01  1.4113473050310E+00
    65  6.4000000000000E-01 -4.9175795004383E-01  1.4360474359749E+00
    66  6.5000000000000E-01 -5.5138175244482E-01  1.4589357630378E+00
    67  6.6000000000000E-01 -6.0454072185056E-01  1.4798575553230E+00
    68  6.7000000000000E-01 -6.5111951761658E-01  1.4986625978198E+00
    69  6.8000000000000E-01 -6.9106152572937E-01  1.5152068450322E+00
    70  6.9000000000000E-01 -7.2436759758804E-01  1.5293540675799E+00
    71  7.0000000000000E-01 -7.5109424895781E-01  1.5409774669617E+00
    72  7.1000000000000E-01 -7.7135135543530E-01  1.5499612338437E+00
    73  7.2000000000000E-01 -7.8529938509764E-01  1.5562020258736E+00
    74  7.3000000000000E-01 -7.9314621259856E-01  1.5596103421291E+00
    75  7.4000000000000E-01 -7.9514356181859E-01  1.5601117728415E+00
    76  7.5000000000000E-01 -7.9158312628143E-01  1.5576481049669E+00
    77  7.6000000000000E-01 -7.8279241793585E-01  1.5521782664691E+00
    78  7.7000000000000E-01 -7.6913039560913E-01  1.5436790947573E+00
    79  7.8000000000000E-01 -7.5098292451044E-01  1.5321459175569E+00
    80  7.9000000000000E-01 -7.2875811765697E-01  1.5175929374928E+00
    81  8.0000000000000E-01 -7.0288160907619E-01  1.5000534147835E+00