U     ONCVPSP-4.0.1  r_core=   1.25145   1.30497   1.40209   1.20013
92.0000     32.0000      221107    zatom,zion,pspd
8      11   3     4   600     0    pspcod,pspxc,lmax,lloc,mmax,r2well
5.99000000  2.70000000  0.00000000    rchrg fchrg qchrg
3     2     2     2     0    nproj
1     1           extension_switch
0                         3.6195410316736E+01  6.2445103192224E+00  8.3326704924714E-01
1  0.0000000000000E+00 -5.6968273431934E-09  1.9481416285716E-08 -6.1627264014152E-08
2  1.0000000000000E-02  1.1730636196184E-01 -3.2503927903982E-02  5.5459827141493E-02
3  2.0000000000000E-02  2.3419535928537E-01 -6.4639014026266E-02  1.1023313243531E-01
4  3.0000000000000E-02  3.5025093479450E-01 -9.6040055967434E-02  1.6364809582662E-01
5  4.0000000000000E-02  4.6505962169165E-01 -1.2634900960364E-01  2.1506183062748E-01
6  5.0000000000000E-02  5.7821177898780E-01 -1.5521827239824E-01  2.6387369151919E-01
7  6.0000000000000E-02  6.8930275964237E-01 -1.8231362661581E-01  3.0953723876340E-01
8  7.0000000000000E-02  7.9793399613214E-01 -2.0731675326024E-01  3.5157048663979E-01
9  8.0000000000000E-02  9.0371399386492E-01 -2.2992724704006E-01  3.8956412575548E-01
10  9.0000000000000E-02  1.0062592294571E+00 -2.4986408550898E-01  4.2318748171251E-01
11  1.0000000000000E-01  1.1051949580864E+00 -2.6686653081101E-01  4.5219205408602E-01
12  1.1000000000000E-01  1.2001559415612E+00 -2.8069446914440E-01  4.7641256685162E-01
13  1.2000000000000E-01  1.2907871160436E+00 -2.9112822004339E-01  4.9576555118888E-01
14  1.3000000000000E-01  1.3767442251446E+00 -2.9796787373112E-01  5.1024557075645E-01
15  1.4000000000000E-01  1.4576944500073E+00 -3.0103223899653E-01  5.1991928484425E-01
16  1.5000000000000E-01  1.5333170726567E+00 -3.0015750522778E-01  5.2491762315370E-01
17  1.6000000000000E-01  1.6033042120228E+00 -2.9519573943357E-01  5.2542641446494E-01
18  1.7000000000000E-01  1.6673616733657E+00 -2.8601335144251E-01  5.2167586750893E-01
19  1.8000000000000E-01  1.7252099511770E+00 -2.7248966735488E-01  5.1392934390523E-01
20  1.9000000000000E-01  1.7765854228531E+00 -2.5451575221605E-01  5.0247188831063E-01
21  2.0000000000000E-01  1.8212417655233E+00 -2.3199361757375E-01  4.8759898896329E-01
22  2.1000000000000E-01  1.8589516213963E+00 -2.0483593800475E-01  4.6960603201299E-01
23  2.2000000000000E-01  1.8895085280028E+00 -1.7296638311099E-01  4.4877888565800E-01
24  2.3000000000000E-01  1.9127291189853E+00 -1.3632064829900E-01  4.2538600583223E-01
25  2.4000000000000E-01  1.9284555889049E+00 -9.4848239585312E-02  3.9967239548448E-01
26  2.5000000000000E-01  1.9365584022873E+00 -4.8515035576727E-02  3.7185567626979E-01
27  2.6000000000000E-01  1.9369392132354E+00  2.6933852625369E-03  3.4212444723470E-01
28  2.7000000000000E-01  1.9295339478904E+00  5.8767700706048E-02  3.1063901274100E-01
29  2.8000000000000E-01  1.9143159883273E+00  1.1967017004785E-01  2.7753446464764E-01
30  2.9000000000000E-01  1.8912993836739E+00  1.8532945057309E-01  2.4292600520552E-01
31  3.0000000000000E-01  1.8605420028495E+00  2.5563506102131E-01  2.0691630071927E-01
32  3.1000000000000E-01  1.8221485338601E+00  3.3043167787513E-01  1.6960456546056E-01
33  3.2000000000000E-01  1.7762732275058E+00  4.0951347530245E-01  1.3109699394387E-01
34  3.3000000000000E-01  1.7231222790732E+00  4.9261873836422E-01  9.1518090735122E-02
35  3.4000000000000E-01  1.6629557404194E+00  5.7942499071775E-01  5.1022393202325E-02
36  3.5000000000000E-01  1.5960888570584E+00  6.6954488171544E-01  9.8060464024696E-03
37  3.6000000000000E-01  1.5228927305533E+00  7.6252307303246E-01 -3.1882327675939E-02
38  3.7000000000000E-01  1.4437942157435E+00  8.5783435150983E-01 -7.3732020910876E-02
39  3.8000000000000E-01  1.3592749749943E+00  9.5488317283416E-01 -1.1536242014284E-01
40  3.9000000000000E-01  1.2698696275326E+00  1.0530048103628E+00 -1.5631746428750E-01
41  4.0000000000000E-01  1.1761629507213E+00  1.1514682454887E+00 -1.9606279927358E-01
42  4.1000000000000E-01  1.0787861113667E+00  1.2494808913795E+00 -2.3398597112711E-01
43  4.2000000000000E-01  9.7841192834097E-01  1.3461951919086E+00 -2.6939990086412E-01
44  4.3000000000000E-01  8.7574919230046E-01  1.4407170835610E+00 -3.0154977603742E-01
45  4.4000000000000E-01  7.7153609341480E-01  1.5321162516528E+00 -3.2962337633120E-01
46  4.5000000000000E-01  6.6653283306622E-01  1.6194380550793E+00 -3.5276472834095E-01
47  4.6000000000000E-01  5.6151351966419E-01  1.7017169378653E+00 -3.7009086183680E-01
48  4.7000000000000E-01  4.5725747131590E-01  1.7779910928173E+00 -3.8071132051564E-01
49  4.8000000000000E-01  3.5454006834709E-01  1.8473180944256E+00 -3.8374996883005E-01
50  4.9000000000000E-01  2.5412331591832E-01  1.9087911764859E+00 -3.7836853687218E-01
51  5.0000000000000E-01  1.5674629061047E-01  1.9615557962539E+00 -3.6379126125923E-01
52  5.1000000000000E-01  6.3115654355328E-02  2.0048261026094E+00 -3.3932991470609E-01
53  5.2000000000000E-01 -2.6103575939234E-02  2.0379009117256E+00 -3.0440847316360E-01
54  5.3000000000000E-01 -1.1029681454717E-01  2.0601787908490E+00 -2.5858664903177E-01
55  5.4000000000000E-01 -1.8890806509183E-01  2.0711718593633E+00 -2.0158152319469E-01
56  5.5000000000000E-01 -2.6144727660788E-01  2.0705179363721E+00 -1.3328653789461E-01
57  5.6000000000000E-01 -3.2749673777762E-01  2.0579906952424E+00 -5.3787166299138E-02
58  5.7000000000000E-01 -3.8671636843078E-01  2.0335075271748E+00  3.6627348309664E-02
59  5.8000000000000E-01 -4.3884779017128E-01  1.9971348668762E+00  1.3745669254093E-01
60  5.9000000000000E-01 -4.8371708413394E-01  1.9490907923912E+00  2.4798701440896E-01
61  6.0000000000000E-01 -5.2123617269503E-01  1.8897447764841E+00  3.6729354735553E-01
62  6.1000000000000E-01 -5.5140279266252E-01  1.8196145367378E+00  4.9424844579498E-01
63  6.2000000000000E-01 -5.7429905920987E-01  1.7393600037289E+00  6.2753380295672E-01
64  6.3000000000000E-01 -5.9008865169484E-01  1.6497744990901E+00  7.6565967206307E-01
65  6.4000000000000E-01 -5.9901268362024E-01  1.5517732858135E+00  9.0698676546514E-01
66  6.5000000000000E-01 -6.0138434846396E-01  1.4463797196516E+00  1.0497533680136E+00
67  6.6000000000000E-01 -5.9758246009339E-01  1.3347092909157E+00  1.1921058751967E+00
68  6.7000000000000E-01 -5.8804403022881E-01  1.2179518985502E+00  1.3321322575102E+00
69  6.8000000000000E-01 -5.7325604526583E-01  1.0973527414535E+00  1.4678976637551E+00
70  6.9000000000000E-01 -5.5374662018063E-01  9.7419224440204E-01  1.5974813103146E+00
71  7.0000000000000E-01 -5.3007571781973E-01  8.4976545662575E-01  1.7190137631051E+00
72  7.1000000000000E-01 -5.0282562738840E-01  7.2536136959569E-01  1.8307137050147E+00
73  7.2000000000000E-01 -4.7259139630799E-01  6.0224259671577E-01  1.9309232946257E+00
74  7.3000000000000E-01 -4.3997140491251E-01  4.8162584167468E-01  2.0181412612052E+00
75  7.4000000000000E-01 -4.0555826393725E-01  3.6466355484066E-01  2.0910529448892E+00
76  7.5000000000000E-01 -3.6993020082461E-01  2.5242713932701E-01  2.1485565772739E+00
77  7.6000000000000E-01 -3.3364308307605E-01  1.4589202160573E-01  2.1897852031292E+00
78  7.7000000000000E-01 -2.9722320587027E-01  4.5924847460882E-02  2.2141237648642E+00
79  7.8000000000000E-01 -2.6116094771123E-01 -4.6726995414616E-02  2.2212210033222E+00
80  7.9000000000000E-01 -2.2590537278752E-01 -1.3144338970698E-01  2.2109959667783E+00
81  8.0000000000000E-01 -1.9185983289009E-01 -2.0773696116919E-01  2.1836390596907E+00
82  8.1000000000000E-01 -1.5937859602815E-01 -2.7525600017863E-01  2.1396076988724E+00
83  8.2000000000000E-01 -1.2876450415970E-01 -3.3378488043408E-01  2.0796167725049E+00
84  8.3000000000000E-01 -1.0026763953089E-01 -3.8324207768891E-01  2.0046242122848E+00
85  8.4000000000000E-01 -7.4084958721917E-02 -4.2367593910003E-01  1.9158120870229E+00
86  8.5000000000000E-01 -5.0360836261572E-02 -4.5525839297126E-01  1.8145637038123E+00
87  8.6000000000000E-01 -2.9188446099763E-02 -4.7827681818650E-01  1.7024372578385E+00
88  8.7000000000000E-01 -1.0611899682472E-02 -4.9312431161901E-01  1.5811366022664E+00
89  8.8000000000000E-01  5.3709459331730E-03 -5.0028859981700E-01  1.4524797145614E+00
90  8.9000000000000E-01  1.8805097497908E-02 -5.0033983824532E-01  1.3183654151476E+00
91  9.0000000000000E-01  2.9774536924201E-02 -4.9391752767055E-01  1.1807388495432E+00
92  9.1000000000000E-01  3.8397911869065E-02 -4.8171675363778E-01  1.0415561779156E+00
93  9.2000000000000E-01  4.4823872202127E-02 -4.6447392250387E-01  9.0274882914692E-01
94  9.3000000000000E-01  4.9226105363770E-02 -4.4295212755525E-01  7.6618757340136E-01
95  9.4000000000000E-01  5.1798107582063E-02 -4.1792623301907E-01  6.3364655190843E-01
96  9.5000000000000E-01  5.2747710198012E-02 -3.9016771412128E-01  5.0676727967004E-01
97  9.6000000000000E-01  5.2291361700660E-02 -3.6042923972910E-01  3.8702251078193E-01
98  9.7000000000000E-01  5.0648147273338E-02 -3.2942893255934E-01  2.7567973184048E-01
99  9.8000000000000E-01  4.8033509474186E-02 -2.9783419244739E-01  1.7376393123304E-01
100  9.9000000000000E-01  4.4652616647488E-02 -2.6624492202193E-01  8.2019182960146E-02
101  1.0000000000000E+00  4.0693321071660E-02 -2.3517598596895E-01  8.6862045610110E-04
102  1.0100000000000E+00  3.6318821796259E-02 -2.0503927549428E-01 -6.9625389072909E-02
103  1.0200000000000E+00  3.1667883882632E-02 -1.7614953185475E-01 -1.2970558381242E-01
104  1.0300000000000E+00  2.6865620386335E-02 -1.4876208685724E-01 -1.7975048108171E-01
105  1.0400000000000E+00  2.2026391659343E-02 -1.2308516524969E-01 -2.2022286677481E-01
106  1.0500000000000E+00  1.7254237439845E-02 -9.9284308325099E-02 -2.5165290971236E-01
107  1.0600000000000E+00  1.2643343008451E-02 -7.7486798304377E-02 -2.7462209379910E-01
108  1.0700000000000E+00  8.2784502899939E-03 -5.7785832880169E-02 -2.8974854284553E-01
109  1.0800000000000E+00  4.2351328889341E-03 -4.0244222042890E-02 -2.9767426172978E-01
110  1.0900000000000E+00  5.7986683119238E-04 -2.4897415256327E-02 -2.9905472030054E-01
111  1.1000000000000E+00 -2.6301551208491E-03 -1.1755711695416E-02 -2.9455108686070E-01
112  1.1100000000000E+00 -5.3475005857190E-03 -8.0555299159234E-04 -2.8482529849551E-01
113  1.1200000000000E+00 -7.5352785315399E-03  7.9901399625512E-03 -2.7053798806848E-01
114  1.1300000000000E+00 -9.1682281702809E-03  1.4692604754895E-02 -2.5234926725707E-01
115  1.1400000000000E+00 -1.0234080847398E-02  1.9388758597177E-02 -2.3092203846264E-01
116  1.1500000000000E+00 -1.0735167463438E-02  2.2193538298516E-02 -2.0692764494246E-01
117  1.1600000000000E+00 -1.0690208732001E-02  2.3252895272584E-02 -1.8105337258997E-01
118  1.1700000000000E+00 -1.0136197148714E-02  2.2747216101305E-02 -1.5401122840115E-01
119  1.1800000000000E+00 -9.1305147601463E-03  2.0895503828305E-02 -1.2654846092651E-01
120  1.1900000000000E+00 -7.7554844031527E-03  1.7965565676720E-02 -9.9469581925198E-02
121  1.2000000000000E+00 -6.2020664975361E-03  1.4475480038375E-02 -7.4018812732994E-02
122  1.2100000000000E+00 -4.5943675604488E-03  1.0771085096527E-02 -5.1084950591205E-02
123  1.2200000000000E+00 -3.0116737247407E-03  7.0765507047428E-03 -3.1300818805433E-02
124  1.2300000000000E+00 -1.5891519807046E-03  3.7366968192501E-03 -1.5503518781475E-02
125  1.2400000000000E+00 -5.0765304871341E-04  1.1932708955288E-03 -4.6730993357109E-03
126  1.2500000000000E+00 -1.8664399884051E-05  4.3813022209688E-05 -1.6230615698138E-04
127  1.2600000000000E+00 -1.8474812836194E-06  4.3402312276468E-06 -1.6204638751209E-05
128  1.2700000000000E+00  6.0166252671002E-07 -1.4139601760606E-06  5.4061584865918E-06
129  1.28 -0.  0. -0.
130  1.29  0.  0.  0.
131  1.30  0.  0.  0.
132  1.31  0.  0.  0.
133  1.32  0.  0.  0.
134  1.33  0.  0.  0.
135  1.34  0.  0.  0.
136  1.35  0.  0.  0.
137  1.36  0.  0.  0.
138  1.37  0.  0.  0.
139  1.38  0.  0.  0.
140  1.39  0.  0.  0.
141  1.40  0.  0.  0.
142  1.41  0.  0.  0.
143  1.42  0.  0.  0.
144  1.43  0.  0.  0.
145  1.44  0.  0.  0.
146  1.45  0.  0.  0.
147  1.46  0.  0.  0.
148  1.47  0.  0.  0.
149  1.48  0.  0.  0.
150  1.49  0.  0.  0.
151  1.50  0.  0.  0.
152  1.51  0.  0.  0.
153  1.52  0.  0.  0.
154  1.53  0.  0.  0.
155  1.54  0.  0.  0.
156  1.55  0.  0.  0.
157  1.56  0.  0.  0.
158  1.57  0.  0.  0.
159  1.58  0.  0.  0.
160  1.59  0.  0.  0.
161  1.60  0.  0.  0.
162  1.61  0.  0.  0.
163  1.62  0.  0.  0.
164  1.63  0.  0.  0.
165  1.64  0.  0.  0.
166  1.65  0.  0.  0.
167  1.66  0.  0.  0.
168  1.67  0.  0.  0.
169  1.68  0.  0.  0.
170  1.69  0.  0.  0.
171  1.70  0.  0.  0.
172  1.71  0.  0.  0.
173  1.72  0.  0.  0.
174  1.73  0.  0.  0.
175  1.74  0.  0.  0.
176  1.75  0.  0.  0.
177  1.76  0.  0.  0.
178  1.77  0.  0.  0.
179  1.78  0.  0.  0.
180  1.79  0.  0.  0.
181  1.80  0.  0.  0.
182  1.81  0.  0.  0.
183  1.82  0.  0.  0.
184  1.83  0.  0.  0.
185  1.84  0.  0.  0.
186  1.85  0.  0.  0.
187  1.86  0.  0.  0.
188  1.87  0.  0.  0.
189  1.88  0.  0.  0.
190  1.89  0.  0.  0.
191  1.90  0.  0.  0.
192  1.91  0.  0.  0.
193  1.92  0.  0.  0.
194  1.93  0.  0.  0.
195  1.94  0.  0.  0.
196  1.95  0.  0.  0.
197  1.96  0.  0.  0.
198  1.97  0.  0.  0.
199  1.98  0.  0.  0.
200  1.99  0.  0.  0.
201  2.00  0.  0.  0.
202  2.01  0.  0.  0.
203  2.02  0.  0.  0.
204  2.03  0.  0.  0.
205  2.04  0.  0.  0.
206  2.05  0.  0.  0.
207  2.06  0.  0.  0.
208  2.07  0.  0.  0.
209  2.08  0.  0.  0.
210  2.09  0.  0.  0.
211  2.10  0.  0.  0.
212  2.11  0.  0.  0.
213  2.12  0.  0.  0.
214  2.13  0.  0.  0.
215  2.14  0.  0.  0.
216  2.15  0.  0.  0.
217  2.16  0.  0.  0.
218  2.17  0.  0.  0.
219  2.18  0.  0.  0.
220  2.19  0.  0.  0.
221  2.20  0.  0.  0.
222  2.21  0.  0.  0.
223  2.22  0.  0.  0.
224  2.23  0.  0.  0.
225  2.24  0.  0.  0.
226  2.25  0.  0.  0.
227  2.26  0.  0.  0.
228  2.27  0.  0.  0.
229  2.28  0.  0.  0.
230  2.29  0.  0.  0.
231  2.30  0.  0.  0.
232  2.31  0.  0.  0.
233  2.32  0.  0.  0.
234  2.33  0.  0.  0.
235  2.34  0.  0.  0.
236  2.35  0.  0.  0.
237  2.36  0.  0.  0.
238  2.37  0.  0.  0.
239  2.38  0.  0.  0.
240  2.39  0.  0.  0.
241  2.40  0.  0.  0.
242  2.41  0.  0.  0.
243  2.42  0.  0.  0.
244  2.43  0.  0.  0.
245  2.44  0.  0.  0.
246  2.45  0.  0.  0.
247  2.46  0.  0.  0.
248  2.47  0.  0.  0.
249  2.48  0.  0.  0.
250  2.49  0.  0.  0.
251  2.50  0.  0.  0.
252  2.51  0.  0.  0.
253  2.52  0.  0.  0.
254  2.53  0.  0.  0.
255  2.54  0.  0.  0.
256  2.55  0.  0.  0.
257  2.56  0.  0.  0.
258  2.57  0.  0.  0.
259  2.58  0.  0.  0.
260  2.59  0.  0.  0.
261  2.60  0.  0.  0.
262  2.61  0.  0.  0.
263  2.62  0.  0.  0.
264  2.63  0.  0.  0.
265  2.64  0.  0.  0.
266  2.65  0.  0.  0.
267  2.66  0.  0.  0.
268  2.67  0.  0.  0.
269  2.68  0.  0.  0.
270  2.69  0.  0.  0.
271  2.70  0.  0.  0.
272  2.71  0.  0.  0.
273  2.72  0.  0.  0.
274  2.73  0.  0.  0.
275  2.74  0.  0.  0.
276  2.75  0.  0.  0.
277  2.76  0.  0.  0.
278  2.77  0.  0.  0.
279  2.78  0.  0.  0.
280  2.79  0.  0.  0.
281  2.80  0.  0.  0.
282  2.81  0.  0.  0.
283  2.82  0.  0.  0.
284  2.83  0.  0.  0.
285  2.84  0.  0.  0.
286  2.85  0.  0.  0.
287  2.86  0.  0.  0.
288  2.87  0.  0.  0.
289  2.88  0.  0.  0.
290  2.89  0.  0.  0.
291  2.90  0.  0.  0.
292  2.91  0.  0.  0.
293  2.92  0.  0.  0.
294  2.93  0.  0.  0.
295  2.94  0.  0.  0.
296  2.95  0.  0.  0.
297  2.96  0.  0.  0.
298  2.97  0.  0.  0.
299  2.98  0.  0.  0.
300  2.99  0.  0.  0.
301  3.00  0.  0.  0.
302  3.01  0.  0.  0.
303  3.02  0.  0.  0.
304  3.03  0.  0.  0.
305  3.04  0.  0.  0.
306  3.05  0.  0.  0.
307  3.06  0.  0.  0.
308  3.07  0.  0.  0.
309  3.08  0.  0.  0.
310  3.09  0.  0.  0.
311  3.10  0.  0.  0.
312  3.11  0.  0.  0.
313  3.12  0.  0.  0.
314  3.13  0.  0.  0.
315  3.14  0.  0.  0.
316  3.15  0.  0.  0.
317  3.16  0.  0.  0.
318  3.17  0.  0.  0.
319  3.18  0.  0.  0.
320  3.19  0.  0.  0.
321  3.20  0.  0.  0.
322  3.21  0.  0.  0.
323  3.22  0.  0.  0.
324  3.23  0.  0.  0.
325  3.24  0.  0.  0.
326  3.25  0.  0.  0.
327  3.26  0.  0.  0.
328  3.27  0.  0.  0.
329  3.28  0.  0.  0.
330  3.29  0.  0.  0.
331  3.30  0.  0.  0.
332  3.31  0.  0.  0.
333  3.32  0.  0.  0.
334  3.33  0.  0.  0.
335  3.34  0.  0.  0.
336  3.35  0.  0.  0.
337  3.36  0.  0.  0.
338  3.37  0.  0.  0.
339  3.38  0.  0.  0.
340  3.39  0.  0.  0.
341  3.40  0.  0.  0.
342  3.41  0.  0.  0.
343  3.42  0.  0.  0.
344  3.43  0.  0.  0.
345  3.44  0.  0.  0.
346  3.45  0.  0.  0.
347  3.46  0.  0.  0.
348  3.47  0.  0.  0.
349  3.48  0.  0.  0.
350  3.49  0.  0.  0.
351  3.50  0.  0.  0.
352  3.51  0.  0.  0.
353  3.52  0.  0.  0.
354  3.53  0.  0.  0.
355  3.54  0.  0.  0.
356  3.55  0.  0.  0.
357  3.56  0.  0.  0.
358  3.57  0.  0.  0.
359  3.58  0.  0.  0.
360  3.59  0.  0.  0.
361  3.60  0.  0.  0.
362  3.61  0.  0.  0.
363  3.62  0.  0.  0.
364  3.63  0.  0.  0.
365  3.64  0.  0.  0.
366  3.65  0.  0.  0.
367  3.66  0.  0.  0.
368  3.67  0.  0.  0.
369  3.68  0.  0.  0.
370  3.69  0.  0.  0.
371  3.70  0.  0.  0.
372  3.71  0.  0.  0.
373  3.72  0.  0.  0.
374  3.73  0.  0.  0.
375  3.74  0.  0.  0.
376  3.75  0.  0.  0.
377  3.76  0.  0.  0.
378  3.77  0.  0.  0.
379  3.78  0.  0.  0.
380  3.79  0.  0.  0.
381  3.80  0.  0.  0.
382  3.81  0.  0.  0.
383  3.82  0.  0.  0.
384  3.83  0.  0.  0.
385  3.84  0.  0.  0.
386  3.85  0.  0.  0.
387  3.86  0.  0.  0.
388  3.87  0.  0.  0.
389  3.88  0.  0.  0.
390  3.89  0.  0.  0.
391  3.90  0.  0.  0.
392  3.91  0.  0.  0.
393  3.92  0.  0.  0.
394  3.93  0.  0.  0.
395  3.94  0.  0.  0.
396  3.95  0.  0.  0.
397  3.96  0.  0.  0.
398  3.97  0.  0.  0.
399  3.98  0.  0.  0.
400  3.99  0.  0.  0.
401  4.00  0.  0.  0.
402  4.01  0.  0.  0.
403  4.02  0.  0.  0.
404  4.03  0.  0.  0.
405  4.04  0.  0.  0.
406  4.05  0.  0.  0.
407  4.06  0.  0.  0.
408  4.07  0.  0.  0.
409  4.08  0.  0.  0.
410  4.09  0.  0.  0.
411  4.10  0.  0.  0.
412  4.11  0.  0.  0.
413  4.12  0.  0.  0.
414  4.13  0.  0.  0.
415  4.14  0.  0.  0.
416  4.15  0.  0.  0.
417  4.16  0.  0.  0.
418  4.17  0.  0.  0.
419  4.18  0.  0.  0.
420  4.19  0.  0.  0.
421  4.20  0.  0.  0.
422  4.21  0.  0.  0.
423  4.22  0.  0.  0.
424  4.23  0.  0.  0.
425  4.24  0.  0.  0.
426  4.25  0.  0.  0.
427  4.26  0.  0.  0.
428  4.27  0.  0.  0.
429  4.28  0.  0.  0.
430  4.29  0.  0.  0.
431  4.30  0.  0.  0.
432  4.31  0.  0.  0.
433  4.32  0.  0.  0.
434  4.33  0.  0.  0.
435  4.34  0.  0.  0.
436  4.35  0.  0.  0.
437  4.36  0.  0.  0.
438  4.37  0.  0.  0.
439  4.38  0.  0.  0.
440  4.39  0.  0.  0.
441  4.40  0.  0.  0.
442  4.41  0.  0.  0.
443  4.42  0.  0.  0.
444  4.43  0.  0.  0.
445  4.44  0.  0.  0.
446  4.45  0.  0.  0.
447  4.46  0.  0.  0.
448  4.47  0.  0.  0.
449  4.48  0.  0.  0.
450  4.49  0.  0.  0.
451  4.50  0.  0.  0.
452  4.51  0.  0.  0.
453  4.52  0.  0.  0.
454  4.53  0.  0.  0.
455  4.54  0.  0.  0.
456  4.55  0.  0.  0.
457  4.56  0.  0.  0.
458  4.57  0.  0.  0.
459  4.58  0.  0.  0.
460  4.59  0.  0.  0.
461  4.60  0.  0.  0.
462  4.61  0.  0.  0.
463  4.62  0.  0.  0.
464  4.63  0.  0.  0.
465  4.64  0.  0.  0.
466  4.65  0.  0.  0.
467  4.66  0.  0.  0.
468  4.67  0.  0.  0.
469  4.68  0.  0.  0.
470  4.69  0.  0.  0.
471  4.70  0.  0.  0.
472  4.71  0.  0.  0.
473  4.72  0.  0.  0.
474  4.73  0.  0.  0.
475  4.74  0.  0.  0.
476  4.75  0.  0.  0.
477  4.76  0.  0.  0.
478  4.77  0.  0.  0.
479  4.78  0.  0.  0.
480  4.79  0.  0.  0.
481  4.80  0.  0.  0.
482  4.81  0.  0.  0.
483  4.82  0.  0.  0.
484  4.83  0.  0.  0.
485  4.84  0.  0.  0.
486  4.85  0.  0.  0.
487  4.86  0.  0.  0.
488  4.87  0.  0.  0.
489  4.88  0.  0.  0.
490  4.89  0.  0.  0.
491  4.90  0.  0.  0.
492  4.91  0.  0.  0.
493  4.92  0.  0.  0.
494  4.93  0.  0.  0.
495  4.94  0.  0.  0.
496  4.95  0.  0.  0.
497  4.96  0.  0.  0.
498  4.97  0.  0.  0.
499  4.98  0.  0.  0.
500  4.99  0.  0.  0.
501  5.00  0.  0.  0.
502  5.01  0.  0.  0.
503  5.02  0.  0.  0.
504  5.03  0.  0.  0.
505  5.04  0.  0.  0.
506  5.05  0.  0.  0.
507  5.06  0.  0.  0.
508  5.07  0.  0.  0.
509  5.08  0.  0.  0.
510  5.09  0.  0.  0.
511  5.10  0.  0.  0.
512  5.11  0.  0.  0.
513  5.12  0.  0.  0.
514  5.13  0.  0.  0.
515  5.14  0.  0.  0.
516  5.15  0.  0.  0.
517  5.16  0.  0.  0.
518  5.17  0.  0.  0.
519  5.18  0.  0.  0.
520  5.19  0.  0.  0.
521  5.20  0.  0.  0.
522  5.21  0.  0.  0.
523  5.22  0.  0.  0.
524  5.23  0.  0.  0.
525  5.24  0.  0.  0.
526  5.25  0.  0.  0.
527  5.26  0.  0.  0.
528  5.27  0.  0.  0.
529  5.28  0.  0.  0.
530  5.29  0.  0.  0.
531  5.30  0.  0.  0.
532  5.31  0.  0.  0.
533  5.32  0.  0.  0.
534  5.33  0.  0.  0.
535  5.34  0.  0.  0.
536  5.35  0.  0.  0.
537  5.36  0.  0.  0.
538  5.37  0.  0.  0.
539  5.38  0.  0.  0.
540  5.39  0.  0.  0.
541  5.40  0.  0.  0.
542  5.41  0.  0.  0.
543  5.42  0.  0.  0.
544  5.43  0.  0.  0.
545  5.44  0.  0.  0.
546  5.45  0.  0.  0.
547  5.46  0.  0.  0.
548  5.47  0.  0.  0.
549  5.48  0.  0.  0.
550  5.49  0.  0.  0.
551  5.50  0.  0.  0.
552  5.51  0.  0.  0.
553  5.52  0.  0.  0.
554  5.53  0.  0.  0.
555  5.54  0.  0.  0.
556  5.55  0.  0.  0.
557  5.56  0.  0.  0.
558  5.57  0.  0.  0.
559  5.58  0.  0.  0.
560  5.59  0.  0.  0.
561  5.60  0.  0.  0.
562  5.61  0.  0.  0.
563  5.62  0.  0.  0.
564  5.63  0.  0.  0.
565  5.64  0.  0.  0.
566  5.65  0.  0.  0.
567  5.66  0.  0.  0.
568  5.67  0.  0.  0.
569  5.68  0.  0.  0.
570  5.69  0.  0.  0.
571  5.70  0.  0.  0.
572  5.71  0.  0.  0.
573  5.72  0.  0.  0.
574  5.73  0.  0.  0.
575  5.74  0.  0.  0.
576  5.75  0.  0.  0.
577  5.76  0.  0.  0.
578  5.77  0.  0.  0.
579  5.78  0.  0.  0.
580  5.79  0.  0.  0.
581  5.80  0.  0.  0.
582  5.81  0.  0.  0.
583  5.82  0.  0.  0.
584  5.83  0.  0.  0.
585  5.84  0.  0.  0.
586  5.85  0.  0.  0.
587  5.86  0.  0.  0.
588  5.87  0.  0.  0.
589  5.88  0.  0.  0.
590  5.89  0.  0.  0.
591  5.90  0.  0.  0.
592  5.91  0.  0.  0.
593  5.92  0.  0.  0.
594  5.93  0.  0.  0.
595  5.94  0.  0.  0.
596  5.95  0.  0.  0.
597  5.96  0.  0.  0.
598  5.97  0.  0.  0.
599  5.98  0.  0.  0.
600  5.99  0.  0.  0.
1                         1.6250144510347E+01  2.8557981474446E+00
1  0.0000000000000E+00  2.7149754666667E-11  1.9402277978697E-09
2  1.0000000000000E-02  3.3710106817089E-03 -1.4500499164125E-03
3  2.0000000000000E-02  1.3461266101226E-02 -5.7840166507423E-03
4  3.0000000000000E-02  3.0202556621754E-02 -1.2953420644682E-02
5  4.0000000000000E-02  5.3481600505168E-02 -2.2877695691757E-02
6  5.0000000000000E-02  8.3140646034614E-02 -3.5444543489125E-02
7  6.0000000000000E-02  1.1897831566761E-01 -5.0510439726333E-02
8  7.0000000000000E-02  1.6075069318420E-01 -6.7901300931032E-02
9  8.0000000000000E-02  2.0817265476764E-01 -8.7413323231836E-02
10  9.0000000000000E-02  2.6091944471272E-01 -1.0881400564346E-01
11  1.0000000000000E-01  3.1862849596511E-01 -1.3184337134692E-01
12  1.1000000000000E-01  3.8090149492615E-01 -1.5621540066072E-01
13  1.2000000000000E-01  4.4730668889266E-01 -1.8161968892862E-01
14  1.3000000000000E-01  5.1738143313030E-01 -2.0772334135494E-01
15  1.4000000000000E-01  5.9063497290146E-01 -2.3417311489024E-01
16  1.5000000000000E-01  6.6655145379375E-01 -2.6059781461773E-01
17  1.6000000000000E-01  7.4459315144179E-01 -2.8661094874675E-01
18  1.7000000000000E-01  8.2420390923219E-01 -3.1181364233525E-01
19  1.8000000000000E-01  9.0481276986651E-01 -3.3579780530913E-01
20  1.9000000000000E-01  9.8583778377669E-01 -3.5814954531432E-01
21  2.0000000000000E-01  1.0666899743949E+00 -3.7845281052988E-01
22  2.1000000000000E-01  1.1467774372360E+00 -3.9629324191131E-01
23  2.2000000000000E-01  1.2255095467197E+00 -4.1126220854968E-01
24  2.3000000000000E-01  1.3023012417147E+00 -4.2296099406748E-01
25  2.4000000000000E-01  1.3765773579916E+00 -4.3100509636847E-01
26  2.5000000000000E-01  1.4477769732074E+00 -4.3502859776455E-01
27  2.6000000000000E-01  1.5153577277730E+00 -4.3468855766152E-01
28  2.7000000000000E-01  1.5788000830545E+00 -4.2966937573878E-01
29  2.8000000000000E-01  1.6376114768775E+00 -4.1968707003418E-01
30  2.9000000000000E-01  1.6913303353198E+00 -4.0449341166544E-01
31  3.0000000000000E-01  1.7395298993178E+00 -3.8387985618582E-01
32  3.1000000000000E-01  1.7818218247341E+00 -3.5768121086982E-01
33  3.2000000000000E-01  1.8178595152606E+00 -3.2577897762035E-01
34  3.3000000000000E-01  1.8473411488816E+00 -2.8810431272292E-01
35  3.4000000000000E-01  1.8700123606065E+00 -2.4464054736507E-01
36  3.5000000000000E-01  1.8856685467901E+00 -1.9542521668235E-01
37  3.6000000000000E-01  1.8941567595809E+00 -1.4055155005426E-01
38  3.7000000000000E-01  1.8953771638321E+00 -8.0169381396944E-02
39  3.8000000000000E-01  1.8892840331494E+00 -1.4485445202198E-02
40  3.9000000000000E-01  1.8758862665580E+00  5.6236968050672E-02
41  4.0000000000000E-01  1.8552474125086E+00  1.3167901485928E-01
42  4.1000000000000E-01  1.8274851925106E+00  2.1146796856076E-01
43  4.2000000000000E-01  1.7927705225148E+00  2.9517955494650E-01
44  4.3000000000000E-01  1.7513260361623E+00  3.8234094254722E-01
45  4.4000000000000E-01  1.7034241200972E+00  4.7243436648636E-01
46  4.5000000000000E-01  1.6493844775797E+00  5.6490135488254E-01
47  4.6000000000000E-01  1.5895712425731E+00  6.5914751715620E-01
48  4.7000000000000E-01  1.5243896721735E+00  7.5454784444683E-01
49  4.8000000000000E-01  1.4542824506490E+00  8.5045246385430E-01
50  4.9000000000000E-01  1.3797256433295E+00  9.4619278054580E-01
51  5.0000000000000E-01  1.3012243430877E+00  1.0410879350731E+00
52  5.1000000000000E-01  1.2193080560720E+00  1.1344514976533E+00
53  5.2000000000000E-01  1.1345258766524E+00  1.2255983167957E+00
54  5.3000000000000E-01  1.0474415041446E+00  1.3138514365904E+00
55  5.4000000000000E-01  9.5862815576400E-01  1.3985489952788E+00
56  5.5000000000000E-01  8.6866343138230E-01  1.4790510174312E+00
57  5.6000000000000E-01  7.7812418601520E-01  1.5547460131707E+00
58  5.7000000000000E-01  6.8758146554678E-01  1.6250573003837E+00
59  5.8000000000000E-01  5.9759556001642E-01  1.6894489696973E+00
60  5.9000000000000E-01  5.0871122687583E-01  1.7474314170987E+00
61  6.0000000000000E-01  4.2145313401043E-01  1.7985663753358E+00
62  6.1000000000000E-01  3.3632156905826E-01  1.8424713825284E+00
63  6.2000000000000E-01  2.5378845771397E-01  1.8788236346117E+00
64  6.3000000000000E-01  1.7429372934386E-01  1.9073631771575E+00
65  6.4000000000000E-01  9.8242063439043E-02  1.9278954016067E+00
66  6.5000000000000E-01  2.6000045282373E-02  1.9402928208177E+00
67  6.6000000000000E-01 -4.2106246212655E-02  1.9444961089116E+00
68  6.7000000000000E-01 -1.0579320112369E-01  1.9405144004772E+00
69  6.8000000000000E-01 -1.6482117990948E-01  1.9284248541260E+00
70  6.9000000000000E-01 -2.1899554754305E-01  1.9083714949654E+00
71  7.0000000000000E-01 -2.6816723993796E-01  1.8805633596444E+00
72  7.1000000000000E-01 -3.1223286761598E-01  1.8452719760540E+00
73  7.2000000000000E-01 -3.5113436671208E-01  1.8028282174222E+00
74  7.3000000000000E-01 -3.8485821223939E-01  1.7536185773048E+00
75  7.4000000000000E-01 -4.1343421298352E-01  1.6980809177609E+00
76  7.5000000000000E-01 -4.3693391141094E-01  1.6366997477434E+00
77  7.6000000000000E-01 -4.5546861551899E-01  1.5700010923928E+00
78  7.7000000000000E-01 -4.6918709259539E-01  1.4985470164744E+00
79  7.8000000000000E-01 -4.7827295737160E-01  1.4229298666541E+00
80  7.9000000000000E-01 -4.8294178903750E-01  1.3437662976908E+00
81  8.0000000000000E-01 -4.8343801303346E-01  1.2616911469841E+00
82  8.1000000000000E-01 -4.8003158446008E-01  1.1773512203199E+00
83  8.2000000000000E-01 -4.7301451036098E-01  1.0913990491863E+00
84  8.3000000000000E-01 -4.6269724806710E-01  1.0044866767902E+00
85  8.4000000000000E-01 -4.4940501627150E-01  9.1725952598859E-01
86  8.5000000000000E-01 -4.3347405457019E-01  8.3035039788171E-01
87  8.6000000000000E-01 -4.1524786589642E-01  7.4437364491657E-01
88  8.7000000000000E-01 -3.9507347463903E-01  6.5991955713153E-01
89  8.8000000000000E-01 -3.7329773131487E-01  5.7754899476769E-01
90  8.9000000000000E-01 -3.5026369250819E-01  4.9778829498472E-01
91  9.0000000000000E-01 -3.2630710244318E-01  4.2112447496272E-01
92  9.1000000000000E-01 -3.0175300006475E-01  3.4800074834291E-01
93  9.2000000000000E-01 -2.7691247291115E-01  2.7881236684995E-01
94  9.3000000000000E-01 -2.5207957641014E-01  2.1390279412081E-01
95  9.4000000000000E-01 -2.2752843455709E-01  1.5356021430481E-01
96  9.5000000000000E-01 -2.0351053527120E-01  9.8014373945298E-02
97  9.6000000000000E-01 -1.8025223110687E-01  4.7433752041269E-02
98  9.7000000000000E-01 -1.5795245344538E-01  1.9230500392900E-03
99  9.8000000000000E-01 -1.3678064583232E-01 -3.8479009166934E-02
100  9.9000000000000E-01 -1.1687491966538E-01 -7.3801586732585E-02
101  1.0000000000000E+00 -9.8340439163365E-02 -1.0414333239737E-01
102  1.0100000000000E+00 -8.1248146795103E-02 -1.2967331535585E-01
103  1.0200000000000E+00 -6.5638188346124E-02 -1.5061643242006E-01
104  1.0300000000000E+00 -5.1528487927798E-02 -1.6722322546345E-01
105  1.0400000000000E+00 -3.8917699059823E-02 -1.7976120382663E-01
106  1.0500000000000E+00 -2.7786628331005E-02 -1.8851200947103E-01
107  1.0600000000000E+00 -1.8099740560238E-02 -1.9376863162917E-01
108  1.0700000000000E+00 -9.8067312325816E-03 -1.9583268372549E-01
109  1.0800000000000E+00 -2.8441512861929E-03 -1.9501175790439E-01
110  1.0900000000000E+00  2.8629298828229E-03 -1.9161686935419E-01
111  1.1000000000000E+00  7.3992361801346E-03 -1.8595999855568E-01
112  1.1100000000000E+00  1.0857583618390E-02 -1.7835173722208E-01
113  1.1200000000000E+00  1.3337176076032E-02 -1.6909903639885E-01
114  1.1300000000000E+00  1.4941911541559E-02 -1.5850306660974E-01
115  1.1400000000000E+00  1.5778703606151E-02 -1.4685717326454E-01
116  1.1500000000000E+00  1.5955832475436E-02 -1.3444494041552E-01
117  1.1600000000000E+00  1.5581331460104E-02 -1.2153835094583E-01
118  1.1700000000000E+00  1.4761419180940E-02 -1.0839604519218E-01
119  1.1800000000000E+00  1.3598986285773E-02 -9.5261676387749E-02
120  1.1900000000000E+00  1.2192145954866E-02 -8.2362363693182E-02