U     ONCVPSP-4.0.1  r_core=   1.10371   1.10371   1.15091   1.15091
92.0000     32.0000      220329    zatom,zion,pspd
8      11   3     4   600     0    pspcod,pspxc,lmax,lloc,mmax,r2well
5.99000000  5.00000000  0.00000000    rchrg fchrg qchrg
3     2     2     2     0    nproj
1     1           extension_switch
0                         5.0032720962518E+01  6.8532905321138E+00  1.0397299865864E+00
1  0.0000000000000E+00 -2.9121955313904E-07  8.1768400372884E-07 -1.4477144837377E-06
2  1.0000000000000E-02  1.3789494835537E-01 -7.4409547350316E-02  1.0910833068865E-01
3  2.0000000000000E-02  2.7447238519295E-01 -1.4599828042403E-01  2.1329039722058E-01
4  3.0000000000000E-02  4.0845685091282E-01 -2.1206390258393E-01  3.0783796546698E-01
5  4.0000000000000E-02  5.3865514506503E-01 -2.7013591695097E-01  3.8846942564654E-01
6  5.0000000000000E-02  6.6399292560402E-01 -3.1807866582319E-01  4.5151991893908E-01
7  6.0000000000000E-02  7.8354609613705E-01 -3.5417956708261E-01  4.9410475467592E-01
8  7.0000000000000E-02  8.9656560736974E-01 -3.7721863345420E-01  5.1424901967370E-01
9  8.0000000000000E-02  1.0024945901719E+00 -3.8651617816469E-01  5.1097772899304E-01
10  9.0000000000000E-02  1.1009770772602E+00 -3.8195656454539E-01  4.8436255802882E-01
11  1.0000000000000E-01  1.1918579436787E+00 -3.6398690633818E-01  4.3552305750287E-01
12  1.1000000000000E-01  1.2751740868110E+00 -3.3359072462621E-01  3.6658220639190E-01
13  1.2000000000000E-01  1.3511372575845E+00 -2.9223766898925E-01  2.8057811997354E-01
14  1.3000000000000E-01  1.4201093287303E+00 -2.4181146697660E-01  1.8133561731705E-01
15  1.4000000000000E-01  1.4825711270707E+00 -1.8451923151573E-01  7.3303084206532E-02
16  1.5000000000000E-01  1.5390862497928E+00 -1.2278608841003E-01 -3.8638430392053E-02
17  1.6000000000000E-01  1.5902615165689E+00 -5.9139749247459E-02 -1.4938573796806E-01
18  1.7000000000000E-01  1.6367058698213E+00  3.9098803441044E-03 -2.5383464543577E-01
19  1.8000000000000E-01  1.6789896170786E+00  6.3990721872175E-02 -3.4710221344838E-01
20  1.9000000000000E-01  1.7176059082886E+00  1.1898282471302E-01 -4.2474057502868E-01
21  2.0000000000000E-01  1.7529362567562E+00  1.6712181409791E-01 -4.8293308470151E-01
22  2.1000000000000E-01  1.7852217482692E+00  2.0708679524539E-01 -5.1866429614927E-01
23  2.2000000000000E-01  1.8145413456296E+00  2.3806866933473E-01 -5.2985635877025E-01
24  2.3000000000000E-01  1.8407983950862E+00  2.5981564234731E-01 -5.1546583445875E-01
25  2.4000000000000E-01  1.8637160897097E+00  2.7265367690099E-01 -4.7553660598392E-01
26  2.5000000000000E-01  1.8828422574569E+00  2.7748070900586E-01 -4.1120640691581E-01
27  2.6000000000000E-01  1.8975634350381E+00  2.7573458052341E-01 -3.2466647129874E-01
28  2.7000000000000E-01  1.9071277801581E+00  2.6933577579149E-01 -2.1907579564062E-01
29  2.8000000000000E-01  1.9106759818325E+00  2.6060714858132E-01 -9.8433441390488E-02
30  2.9000000000000E-01  1.9072789682860E+00  2.5217383601768E-01  3.2585899596320E-02
31  3.0000000000000E-01  1.8959809000923E+00  2.4684743568022E-01  1.6882627760584E-01
32  3.1000000000000E-01  1.8758456864007E+00  2.4749923254451E-01  3.0486670548719E-01
33  3.2000000000000E-01  1.8460050853713E+00  2.5692777269851E-01  4.3525018626970E-01
34  3.3000000000000E-01  1.8057063543069E+00  2.7772636823391E-01  5.5471593833598E-01
35  3.4000000000000E-01  1.7543574049639E+00  3.1215616928124E-01  6.5842504570970E-01
36  3.5000000000000E-01  1.6915674960494E+00  3.6203025174164E-01  7.4217001178272E-01
37  3.6000000000000E-01  1.6171816551330E+00  4.2861375015155E-01  8.0255934863943E-01
38  3.7000000000000E-01  1.5313072597459E+00  5.1254443131630E-01  8.3716936367093E-01
39  3.8000000000000E-01  1.4343315125459E+00  6.1377728235883E-01  8.4465666655857E-01
40  3.9000000000000E-01  1.3269289054431E+00  7.3155571108537E-01  8.2482655518473E-01
41  4.0000000000000E-01  1.2100581674862E+00  8.6441086821723E-01  7.7865427901043E-01
42  4.1000000000000E-01  1.0849486142895E+00  1.0101894461441E+00  7.0825814453802E-01
43  4.2000000000000E-01  9.5307624508159E-01  1.1661091362904E+00  6.1682543606407E-01
44  4.3000000000000E-01  8.1613034898534E-01  1.3288397867206E+00  5.0849409049405E-01
45  4.4000000000000E-01  6.7597176740853E-01  1.4946072415449E+00  3.8819490412910E-01
46  4.5000000000000E-01  5.3458429817553E-01  1.6593159089658E+00  2.6146068403317E-01
47  4.6000000000000E-01  3.9402100503424E-01  1.8186853348584E+00  1.3421011793208E-01
48  4.7000000000000E-01  2.5634740177972E-01  1.9683954860273E+00  1.2515167403818E-02
49  4.8000000000000E-01  1.2358360493101E-01  2.1042350955306E+00 -9.7638553265133E-02
50  4.9000000000000E-01 -2.3524123676386E-03  2.2222473060280E+00 -1.9058869232124E-01
51  5.0000000000000E-01 -1.1969838111052E-01  2.3188669700804E+00 -2.6122080067075E-01
52  5.1000000000000E-01 -2.2689616122283E-01  2.3910443225786E+00 -3.0517167923277E-01
53  5.2000000000000E-01 -3.2263329205046E-01  2.4363503136569E+00 -3.1900334199890E-01
54  5.3000000000000E-01 -4.0587621198966E-01  2.4530596551486E+00 -3.0034076242170E-01
55  5.4000000000000E-01 -4.7589402954384E-01  2.4402085560578E+00 -2.4796810668848E-01
56  5.5000000000000E-01 -5.3227210928786E-01  2.3976251623828E+00 -1.6187990260187E-01
57  5.6000000000000E-01 -5.7491514327592E-01  2.3259318287361E+00 -4.3285470868615E-02
58  5.7000000000000E-01 -6.0403979384158E-01  2.2265194854946E+00  1.0543312506621E-01
59  5.8000000000000E-01 -6.2015739981364E-01  2.1014954770066E+00  2.8080745696965E-01
60  5.9000000000000E-01 -6.2404761772663E-01  1.9536072863366E+00  4.7840949938861E-01
61  6.0000000000000E-01 -6.1672420680906E-01  1.7861454864657E+00  6.9301325258211E-01
62  6.1000000000000E-01 -5.9939444752958E-01  1.6028300284493E+00  9.1878434548548E-01
63  6.2000000000000E-01 -5.7341389704137E-01  1.4076845626287E+00  1.1494897119617E+00
64  6.3000000000000E-01 -5.4023832285669E-01  1.2049038669352E+00  1.3787187522847E+00
65  6.4000000000000E-01 -5.0137471378004E-01  9.9871961330534E-01  1.6001070852718E+00
66  6.5000000000000E-01 -4.5833324344250E-01  7.9326963592849E-01  1.8075540724380E+00
67  6.6000000000000E-01 -4.1258195924377E-01  5.9247558014306E-01  1.9954257447159E+00
68  6.7000000000000E-01 -3.6550579414379E-01  3.9993332457109E-01  2.1587355588720E+00
69  6.8000000000000E-01 -3.1837125972874E-01  2.1881990654741E-01  2.2932965139679E+00
70  6.9000000000000E-01 -2.7229788826605E-01  5.1819874788361E-02  2.3958395138289E+00
71  7.0000000000000E-01 -2.2823716308012E-01 -9.8926917975507E-02  2.4640944051993E+00
72  7.1000000000000E-01 -1.8695932616237E-01 -2.3185504300420E-01  2.4968317806632E+00
73  7.2000000000000E-01 -1.4904809571078E-01 -3.4598069549814E-01  2.4938653347255E+00
74  7.3000000000000E-01 -1.1490298069086E-01 -4.4088728056774E-01  2.4560162234519E+00
75  7.4000000000000E-01 -8.4748559990216E-02 -5.1669119132890E-01  2.3850424293670E+00
76  7.5000000000000E-01 -5.8649814463965E-02 -5.7399036724159E-01  2.2835375060605E+00
77  7.6000000000000E-01 -3.6532373092504E-02 -6.1379885951147E-01  2.1548042130761E+00
78  7.7000000000000E-01 -1.8206368940400E-02 -6.3747109960435E-01  2.0027094048683E+00
79  7.8000000000000E-01 -3.3925029313931E-03 -6.4661984879709E-01  1.8315270753826E+00
80  7.9000000000000E-01  8.2511133631399E-03 -6.4303189242810E-01  1.6457766648965E+00
81  8.0000000000000E-01  1.7102721082693E-02 -6.2858543266659E-01  1.4500636066529E+00
82  8.1000000000000E-01  2.3552558362208E-02 -6.0517283790199E-01  1.2489286415271E+00
83  8.2000000000000E-01  2.7981490034355E-02 -5.7463194357316E-01  1.0467116882227E+00
84  8.3000000000000E-01  3.0743506615749E-02 -5.3868849430166E-01  8.4743506603624E-01
85  8.4000000000000E-01  3.2152717300540E-02 -4.9891160273155E-01  6.5470967975115E-01
86  8.5000000000000E-01  3.2475177464782E-02 -4.5668331322598E-01  4.7166645245935E-01
87  8.6000000000000E-01  3.1925596316190E-02 -4.1318253807611E-01  3.0091389805230E-01
88  8.7000000000000E-01  3.0668679476362E-02 -3.6938282047461E-01  1.4452132853144E-01
89  8.8000000000000E-01  2.8824588666257E-02 -3.2606261139210E-01  4.0258585334299E-03
90  8.9000000000000E-01  2.6477759344995E-02 -2.8382606284966E-01 -1.1953983769606E-01
91  9.0000000000000E-01  2.3688118403609E-02 -2.4313176929608E-01 -2.2560308905310E-01
92  9.1000000000000E-01  2.0503596830369E-02 -2.0432645710117E-01 -3.1399498566720E-01
93  9.2000000000000E-01  1.6972742895523E-02 -1.6768034737776E-01 -3.8488775533462E-01
94  9.3000000000000E-01  1.3156213126331E-02 -1.3342080914938E-01 -4.3873145388982E-01
95  9.4000000000000E-01  9.1359513385005E-03 -1.0176097957114E-01 -4.7619565811214E-01
96  9.5000000000000E-01  5.0209573153434E-03 -7.2920248217542E-02 -4.9812157264954E-01
97  9.6000000000000E-01  9.4869062099803E-04 -4.7133868386949E-02 -5.0548943761661E-01
98  9.7000000000000E-01 -2.9186569021909E-03 -2.4649447683036E-02 -4.9940538567919E-01
99  9.8000000000000E-01 -6.4035646447901E-03 -5.7086548305840E-03 -4.8111099103377E-01
100  9.9000000000000E-01 -9.3285644824362E-03  9.4868740529868E-03 -4.5201773354127E-01
101  1.0000000000000E+00 -1.1537617486878E-02  2.0825670940896E-02 -4.1376728081257E-01
102  1.0100000000000E+00 -1.2922682908895E-02  2.8350395505250E-02 -3.6831315127246E-01
103  1.0200000000000E+00 -1.3430810917376E-02  3.2259309892176E-02 -3.1784616632686E-01
104  1.0300000000000E+00 -1.3043621329062E-02  3.2822782149888E-02 -2.6452812236256E-01
105  1.0400000000000E+00 -1.1786408744153E-02  3.0393955999973E-02 -2.1045994793970E-01
106  1.0500000000000E+00 -9.7609384304593E-03  2.5485969640251E-02 -1.5777409640462E-01
107  1.0600000000000E+00 -7.5715087839099E-03  1.9855028521150E-02 -1.1013808688681E-01
108  1.0700000000000E+00 -5.3961519630011E-03  1.4128540978579E-02 -6.9427210687126E-02
109  1.0800000000000E+00 -3.2235491054694E-03  8.3997607767981E-03 -3.6551637430242E-02
110  1.0900000000000E+00 -1.3001204396868E-03  3.3668738922901E-03 -1.3049217416182E-02
111  1.1000000000000E+00 -1.2996895216777E-04  3.3441111365733E-04 -1.1613350235931E-03
112  1.1100000000000E+00  2.0538243920748E-06 -5.2632008306099E-06  1.7309901811240E-05
113  1.1200000000000E+00  8.9484371460498E-07 -2.3047862009461E-06  8.2765448257122E-06
114  1.13  0. -0.  0.
115  1.14  0.  0.  0.
116  1.15  0.  0.  0.
117  1.16  0.  0.  0.
118  1.17  0.  0.  0.
119  1.18  0.  0.  0.
120  1.19  0.  0.  0.
121  1.20  0.  0.  0.
122  1.21  0.  0.  0.
123  1.22  0.  0.  0.
124  1.23  0.  0.  0.
125  1.24  0.  0.  0.
126  1.25  0.  0.  0.
127  1.26  0.  0.  0.
128  1.27  0.  0.  0.
129  1.28  0.  0.  0.
130  1.29  0.  0.  0.
131  1.30  0.  0.  0.
132  1.31  0.  0.  0.
133  1.32  0.  0.  0.
134  1.33  0.  0.  0.
135  1.34  0.  0.  0.
136  1.35  0.  0.  0.
137  1.36  0.  0.  0.
138  1.37  0.  0.  0.
139  1.38  0.  0.  0.
140  1.39  0.  0.  0.
141  1.40  0.  0.  0.
142  1.41  0.  0.  0.
143  1.42  0.  0.  0.
144  1.43  0.  0.  0.
145  1.44  0.  0.  0.
146  1.45  0.  0.  0.
147  1.46  0.  0.  0.
148  1.47  0.  0.  0.
149  1.48  0.  0.  0.
150  1.49  0.  0.  0.
151  1.50  0.  0.  0.
152  1.51  0.  0.  0.
153  1.52  0.  0.  0.
154  1.53  0.  0.  0.
155  1.54  0.  0.  0.
156  1.55  0.  0.  0.
157  1.56  0.  0.  0.
158  1.57  0.  0.  0.
159  1.58  0.  0.  0.
160  1.59  0.  0.  0.
161  1.60  0.  0.  0.
162  1.61  0.  0.  0.
163  1.62  0.  0.  0.
164  1.63  0.  0.  0.
165  1.64  0.  0.  0.
166  1.65  0.  0.  0.
167  1.66  0.  0.  0.
168  1.67  0.  0.  0.
169  1.68  0.  0.  0.
170  1.69  0.  0.  0.
171  1.70  0.  0.  0.
172  1.71  0.  0.  0.
173  1.72  0.  0.  0.
174  1.73  0.  0.  0.
175  1.74  0.  0.  0.
176  1.75  0.  0.  0.
177  1.76  0.  0.  0.
178  1.77  0.  0.  0.
179  1.78  0.  0.  0.
180  1.79  0.  0.  0.
181  1.80  0.  0.  0.
182  1.81  0.  0.  0.
183  1.82  0.  0.  0.
184  1.83  0.  0.  0.
185  1.84  0.  0.  0.
186  1.85  0.  0.  0.
187  1.86  0.  0.  0.
188  1.87  0.  0.  0.
189  1.88  0.  0.  0.
190  1.89  0.  0.  0.
191  1.90  0.  0.  0.
192  1.91  0.  0.  0.
193  1.92  0.  0.  0.
194  1.93  0.  0.  0.
195  1.94  0.  0.  0.
196  1.95  0.  0.  0.
197  1.96  0.  0.  0.
198  1.97  0.  0.  0.
199  1.98  0.  0.  0.
200  1.99  0.  0.  0.
201  2.00  0.  0.  0.
202  2.01  0.  0.  0.
203  2.02  0.  0.  0.
204  2.03  0.  0.  0.
205  2.04  0.  0.  0.
206  2.05  0.  0.  0.
207  2.06  0.  0.  0.
208  2.07  0.  0.  0.
209  2.08  0.  0.  0.
210  2.09  0.  0.  0.
211  2.10  0.  0.  0.
212  2.11  0.  0.  0.
213  2.12  0.  0.  0.
214  2.13  0.  0.  0.
215  2.14  0.  0.  0.
216  2.15  0.  0.  0.
217  2.16  0.  0.  0.
218  2.17  0.  0.  0.
219  2.18  0.  0.  0.
220  2.19  0.  0.  0.
221  2.20  0.  0.  0.
222  2.21  0.  0.  0.
223  2.22  0.  0.  0.
224  2.23  0.  0.  0.
225  2.24  0.  0.  0.
226  2.25  0.  0.  0.
227  2.26  0.  0.  0.
228  2.27  0.  0.  0.
229  2.28  0.  0.  0.
230  2.29  0.  0.  0.
231  2.30  0.  0.  0.
232  2.31  0.  0.  0.
233  2.32  0.  0.  0.
234  2.33  0.  0.  0.
235  2.34  0.  0.  0.
236  2.35  0.  0.  0.
237  2.36  0.  0.  0.
238  2.37  0.  0.  0.
239  2.38  0.  0.  0.
240  2.39  0.  0.  0.
241  2.40  0.  0.  0.
242  2.41  0.  0.  0.
243  2.42  0.  0.  0.
244  2.43  0.  0.  0.
245  2.44  0.  0.  0.
246  2.45  0.  0.  0.
247  2.46  0.  0.  0.
248  2.47  0.  0.  0.
249  2.48  0.  0.  0.
250  2.49  0.  0.  0.
251  2.50  0.  0.  0.
252  2.51  0.  0.  0.
253  2.52  0.  0.  0.
254  2.53  0.  0.  0.
255  2.54  0.  0.  0.
256  2.55  0.  0.  0.
257  2.56  0.  0.  0.
258  2.57  0.  0.  0.
259  2.58  0.  0.  0.
260  2.59  0.  0.  0.
261  2.60  0.  0.  0.
262  2.61  0.  0.  0.
263  2.62  0.  0.  0.
264  2.63  0.  0.  0.
265  2.64  0.  0.  0.
266  2.65  0.  0.  0.
267  2.66  0.  0.  0.
268  2.67  0.  0.  0.
269  2.68  0.  0.  0.
270  2.69  0.  0.  0.
271  2.70  0.  0.  0.
272  2.71  0.  0.  0.
273  2.72  0.  0.  0.
274  2.73  0.  0.  0.
275  2.74  0.  0.  0.
276  2.75  0.  0.  0.
277  2.76  0.  0.  0.
278  2.77  0.  0.  0.
279  2.78  0.  0.  0.
280  2.79  0.  0.  0.
281  2.80  0.  0.  0.
282  2.81  0.  0.  0.
283  2.82  0.  0.  0.
284  2.83  0.  0.  0.
285  2.84  0.  0.  0.
286  2.85  0.  0.  0.
287  2.86  0.  0.  0.
288  2.87  0.  0.  0.
289  2.88  0.  0.  0.
290  2.89  0.  0.  0.
291  2.90  0.  0.  0.
292  2.91  0.  0.  0.
293  2.92  0.  0.  0.
294  2.93  0.  0.  0.
295  2.94  0.  0.  0.
296  2.95  0.  0.  0.
297  2.96  0.  0.  0.
298  2.97  0.  0.  0.
299  2.98  0.  0.  0.
300  2.99  0.  0.  0.
301  3.00  0.  0.  0.
302  3.01  0.  0.  0.
303  3.02  0.  0.  0.
304  3.03  0.  0.  0.
305  3.04  0.  0.  0.
306  3.05  0.  0.  0.
307  3.06  0.  0.  0.
308  3.07  0.  0.  0.
309  3.08  0.  0.  0.
310  3.09  0.  0.  0.
311  3.10  0.  0.  0.
312  3.11  0.  0.  0.
313  3.12  0.  0.  0.
314  3.13  0.  0.  0.
315  3.14  0.  0.  0.
316  3.15  0.  0.  0.
317  3.16  0.  0.  0.
318  3.17  0.  0.  0.
319  3.18  0.  0.  0.
320  3.19  0.  0.  0.
321  3.20  0.  0.  0.
322  3.21  0.  0.  0.
323  3.22  0.  0.  0.
324  3.23  0.  0.  0.
325  3.24  0.  0.  0.
326  3.25  0.  0.  0.
327  3.26  0.  0.  0.
328  3.27  0.  0.  0.
329  3.28  0.  0.  0.
330  3.29  0.  0.  0.
331  3.30  0.  0.  0.
332  3.31  0.  0.  0.
333  3.32  0.  0.  0.
334  3.33  0.  0.  0.
335  3.34  0.  0.  0.
336  3.35  0.  0.  0.
337  3.36  0.  0.  0.
338  3.37  0.  0.  0.
339  3.38  0.  0.  0.
340  3.39  0.  0.  0.
341  3.40  0.  0.  0.
342  3.41  0.  0.  0.
343  3.42  0.  0.  0.
344  3.43  0.  0.  0.
345  3.44  0.  0.  0.
346  3.45  0.  0.  0.
347  3.46  0.  0.  0.
348  3.47  0.  0.  0.
349  3.48  0.  0.  0.
350  3.49  0.  0.  0.
351  3.50  0.  0.  0.
352  3.51  0.  0.  0.
353  3.52  0.  0.  0.
354  3.53  0.  0.  0.
355  3.54  0.  0.  0.
356  3.55  0.  0.  0.
357  3.56  0.  0.  0.
358  3.57  0.  0.  0.
359  3.58  0.  0.  0.
360  3.59  0.  0.  0.
361  3.60  0.  0.  0.
362  3.61  0.  0.  0.
363  3.62  0.  0.  0.
364  3.63  0.  0.  0.
365  3.64  0.  0.  0.
366  3.65  0.  0.  0.
367  3.66  0.  0.  0.
368  3.67  0.  0.  0.
369  3.68  0.  0.  0.
370  3.69  0.  0.  0.
371  3.70  0.  0.  0.
372  3.71  0.  0.  0.
373  3.72  0.  0.  0.
374  3.73  0.  0.  0.
375  3.74  0.  0.  0.
376  3.75  0.  0.  0.
377  3.76  0.  0.  0.
378  3.77  0.  0.  0.
379  3.78  0.  0.  0.
380  3.79  0.  0.  0.
381  3.80  0.  0.  0.
382  3.81  0.  0.  0.
383  3.82  0.  0.  0.
384  3.83  0.  0.  0.
385  3.84  0.  0.  0.
386  3.85  0.  0.  0.
387  3.86  0.  0.  0.
388  3.87  0.  0.  0.
389  3.88  0.  0.  0.
390  3.89  0.  0.  0.
391  3.90  0.  0.  0.
392  3.91  0.  0.  0.
393  3.92  0.  0.  0.
394  3.93  0.  0.  0.
395  3.94  0.  0.  0.
396  3.95  0.  0.  0.
397  3.96  0.  0.  0.
398  3.97  0.  0.  0.
399  3.98  0.  0.  0.
400  3.99  0.  0.  0.
401  4.00  0.  0.  0.
402  4.01  0.  0.  0.
403  4.02  0.  0.  0.
404  4.03  0.  0.  0.
405  4.04  0.  0.  0.
406  4.05  0.  0.  0.
407  4.06  0.  0.  0.
408  4.07  0.  0.  0.
409  4.08  0.  0.  0.
410  4.09  0.  0.  0.
411  4.10  0.  0.  0.
412  4.11  0.  0.  0.
413  4.12  0.  0.  0.
414  4.13  0.  0.  0.
415  4.14  0.  0.  0.
416  4.15  0.  0.  0.
417  4.16  0.  0.  0.
418  4.17  0.  0.  0.
419  4.18  0.  0.  0.
420  4.19  0.  0.  0.
421  4.20  0.  0.  0.
422  4.21  0.  0.  0.
423  4.22  0.  0.  0.
424  4.23  0.  0.  0.
425  4.24  0.  0.  0.
426  4.25  0.  0.  0.
427  4.26  0.  0.  0.
428  4.27  0.  0.  0.
429  4.28  0.  0.  0.
430  4.29  0.  0.  0.
431  4.30  0.  0.  0.
432  4.31  0.  0.  0.
433  4.32  0.  0.  0.
434  4.33  0.  0.  0.
435  4.34  0.  0.  0.
436  4.35  0.  0.  0.
437  4.36  0.  0.  0.
438  4.37  0.  0.  0.
439  4.38  0.  0.  0.
440  4.39  0.  0.  0.
441  4.40  0.  0.  0.
442  4.41  0.  0.  0.
443  4.42  0.  0.  0.
444  4.43  0.  0.  0.
445  4.44  0.  0.  0.
446  4.45  0.  0.  0.
447  4.46  0.  0.  0.
448  4.47  0.  0.  0.
449  4.48  0.  0.  0.
450  4.49  0.  0.  0.
451  4.50  0.  0.  0.
452  4.51  0.  0.  0.
453  4.52  0.  0.  0.
454  4.53  0.  0.  0.
455  4.54  0.  0.  0.
456  4.55  0.  0.  0.
457  4.56  0.  0.  0.
458  4.57  0.  0.  0.
459  4.58  0.  0.  0.
460  4.59  0.  0.  0.
461  4.60  0.  0.  0.
462  4.61  0.  0.  0.
463  4.62  0.  0.  0.
464  4.63  0.  0.  0.
465  4.64  0.  0.  0.
466  4.65  0.  0.  0.
467  4.66  0.  0.  0.
468  4.67  0.  0.  0.
469  4.68  0.  0.  0.
470  4.69  0.  0.  0.
471  4.70  0.  0.  0.
472  4.71  0.  0.  0.
473  4.72  0.  0.  0.
474  4.73  0.  0.  0.
475  4.74  0.  0.  0.
476  4.75  0.  0.  0.
477  4.76  0.  0.  0.
478  4.77  0.  0.  0.
479  4.78  0.  0.  0.
480  4.79  0.  0.  0.
481  4.80  0.  0.  0.
482  4.81  0.  0.  0.
483  4.82  0.  0.  0.
484  4.83  0.  0.  0.
485  4.84  0.  0.  0.
486  4.85  0.  0.  0.
487  4.86  0.  0.  0.
488  4.87  0.  0.  0.
489  4.88  0.  0.  0.
490  4.89  0.  0.  0.
491  4.90  0.  0.  0.
492  4.91  0.  0.  0.
493  4.92  0.  0.  0.
494  4.93  0.  0.  0.
495  4.94  0.  0.  0.
496  4.95  0.  0.  0.
497  4.96  0.  0.  0.
498  4.97  0.  0.  0.
499  4.98  0.  0.  0.
500  4.99  0.  0.  0.
501  5.00  0.  0.  0.
502  5.01  0.  0.  0.
503  5.02  0.  0.  0.
504  5.03  0.  0.  0.
505  5.04  0.  0.  0.
506  5.05  0.  0.  0.
507  5.06  0.  0.  0.
508  5.07  0.  0.  0.
509  5.08  0.  0.  0.
510  5.09  0.  0.  0.
511  5.10  0.  0.  0.
512  5.11  0.  0.  0.
513  5.12  0.  0.  0.
514  5.13  0.  0.  0.
515  5.14  0.  0.  0.
516  5.15  0.  0.  0.
517  5.16  0.  0.  0.
518  5.17  0.  0.  0.
519  5.18  0.  0.  0.
520  5.19  0.  0.  0.
521  5.20  0.  0.  0.
522  5.21  0.  0.  0.
523  5.22  0.  0.  0.
524  5.23  0.  0.  0.
525  5.24  0.  0.  0.
526  5.25  0.  0.  0.
527  5.26  0.  0.  0.
528  5.27  0.  0.  0.
529  5.28  0.  0.  0.
530  5.29  0.  0.  0.
531  5.30  0.  0.  0.
532  5.31  0.  0.  0.
533  5.32  0.  0.  0.
534  5.33  0.  0.  0.
535  5.34  0.  0.  0.
536  5.35  0.  0.  0.
537  5.36  0.  0.  0.
538  5.37  0.  0.  0.
539  5.38  0.  0.  0.
540  5.39  0.  0.  0.
541  5.40  0.  0.  0.
542  5.41  0.  0.  0.
543  5.42  0.  0.  0.
544  5.43  0.  0.  0.
545  5.44  0.  0.  0.
546  5.45  0.  0.  0.
547  5.46  0.  0.  0.
548  5.47  0.  0.  0.
549  5.48  0.  0.  0.
550  5.49  0.  0.  0.
551  5.50  0.  0.  0.
552  5.51  0.  0.  0.
553  5.52  0.  0.  0.
554  5.53  0.  0.  0.
555  5.54  0.  0.  0.
556  5.55  0.  0.  0.
557  5.56  0.  0.  0.
558  5.57  0.  0.  0.
559  5.58  0.  0.  0.
560  5.59  0.  0.  0.
561  5.60  0.  0.  0.
562  5.61  0.  0.  0.
563  5.62  0.  0.  0.
564  5.63  0.  0.  0.
565  5.64  0.  0.  0.
566  5.65  0.  0.  0.
567  5.66  0.  0.  0.
568  5.67  0.  0.  0.
569  5.68  0.  0.  0.
570  5.69  0.  0.  0.
571  5.70  0.  0.  0.
572  5.71  0.  0.  0.
573  5.72  0.  0.  0.
574  5.73  0.  0.  0.
575  5.74  0.  0.  0.
576  5.75  0.  0.  0.
577  5.76  0.  0.  0.
578  5.77  0.  0.  0.
579  5.78  0.  0.  0.
580  5.79  0.  0.  0.
581  5.80  0.  0.  0.
582  5.81  0.  0.  0.
583  5.82  0.  0.  0.
584  5.83  0.  0.  0.
585  5.84  0.  0.  0.
586  5.85  0.  0.  0.
587  5.86  0.  0.  0.
588  5.87  0.  0.  0.
589  5.88  0.  0.  0.
590  5.89  0.  0.  0.
591  5.90  0.  0.  0.
592  5.91  0.  0.  0.
593  5.92  0.  0.  0.
594  5.93  0.  0.  0.
595  5.94  0.  0.  0.
596  5.95  0.  0.  0.
597  5.96  0.  0.  0.
598  5.97  0.  0.  0.
599  5.98  0.  0.  0.
600  5.99  0.  0.  0.
1                         2.0483745958450E+01  2.6856093103984E+00
1  0.0000000000000E+00 -1.4688216060099E-08  4.5230741804736E-08
2  1.0000000000000E-02  3.7027637975126E-03 -1.7652041604017E-03
3  2.0000000000000E-02  1.4788386701896E-02 -7.0509669542787E-03
4  3.0000000000000E-02  3.3188775178477E-02 -1.5827165368774E-02
5  4.0000000000000E-02  5.8790157532480E-02 -2.8041714814414E-02
6  5.0000000000000E-02  9.1432698550043E-02 -4.3617865934096E-02
7  6.0000000000000E-02  1.3091003493264E-01 -6.2450647315976E-02
8  7.0000000000000E-02  1.7696880243579E-01 -8.4402669502750E-02
9  8.0000000000000E-02  2.2930824031112E-01 -1.0929955092057E-01
10  9.0000000000000E-02  2.8757996946749E-01 -1.3692526025534E-01
11  1.0000000000000E-01  3.5138804717750E-01 -1.6701769082765E-01
12  1.1000000000000E-01  4.2028940280365E-01 -1.9926478962520E-01
13  1.2000000000000E-01  4.9379475573586E-01 -2.3330155636982E-01
14  1.3000000000000E-01  5.7137010855254E-01 -2.6870820643753E-01
15  1.4000000000000E-01  6.5243889557028E-01 -3.0500975630803E-01
16  1.5000000000000E-01  7.3638484985538E-01 -3.4167724274979E-01
17  1.6000000000000E-01  8.2255563102986E-01 -3.7813072891573E-01
18  1.7000000000000E-01  9.1026723256581E-01 -4.1374418414603E-01
19  1.8000000000000E-01  9.9880916160073E-01 -4.4785225212575E-01
20  1.9000000000000E-01  1.0874503575877E+00 -4.7975884696390E-01
21  2.0000000000000E-01  1.1754457893412E+00 -5.0874744173803E-01
22  2.1000000000000E-01  1.2620436442847E+00 -5.3409284210852E-01
23  2.2000000000000E-01  1.3464929999619E+00 -5.5507417168864E-01
24  2.3000000000000E-01  1.4280518470817E+00 -5.7098873869358E-01
25  2.4000000000000E-01  1.5059953163710E+00 -5.8116640740526E-01
26  2.5000000000000E-01  1.5796239490073E+00 -5.8498406518398E-01
27  2.6000000000000E-01  1.6482718429437E+00 -5.8187975763993E-01
28  2.7000000000000E-01  1.7113145053560E+00 -5.7136606208896E-01
29  2.8000000000000E-01  1.7681762449008E+00 -5.5304228289328E-01
30  2.9000000000000E-01  1.8183369463893E+00 -5.2660508143202E-01
31  3.0000000000000E-01  1.8613380846013E+00 -4.9185719734428E-01
32  3.1000000000000E-01  1.8967878527878E+00 -4.4871397482229E-01
33  3.2000000000000E-01  1.9243653043053E+00 -3.9720747605451E-01
34  3.3000000000000E-01  1.9438234319486E+00 -3.3748804090650E-01
35  3.4000000000000E-01  1.9549911379697E+00 -2.6982323469482E-01
36  3.5000000000000E-01  1.9577740774528E+00 -1.9459421130727E-01
37  3.6000000000000E-01  1.9521543875522E+00 -1.1228960367044E-01
38  3.7000000000000E-01  1.9381893440279E+00 -2.3497134373281E-02
39  3.8000000000000E-01  1.9160090134399E+00  7.1106787035636E-02
40  3.9000000000000E-01  1.8858129933323E+00  1.7076914985537E-01
41  4.0000000000000E-01  1.8478663528800E+00  2.7467372975181E-01
42  4.1000000000000E-01  1.8024949020754E+00  3.8195536000389E-01
43  4.2000000000000E-01  1.7500799280865E+00  4.9171464795238E-01
44  4.3000000000000E-01  1.6910525425987E+00  6.0303269447621E-01
45  4.4000000000000E-01  1.6258877836644E+00  7.1498538771522E-01
46  4.5000000000000E-01  1.5550986099621E+00  8.2665687215757E-01
47  4.6000000000000E-01  1.4792299147598E+00  9.3715183939750E-01
48  4.7000000000000E-01  1.3988526718402E+00  1.0456063454850E+00
49  4.8000000000000E-01  1.3145583069389E+00  1.1511969294065E+00
50  4.9000000000000E-01  1.2269533667501E+00  1.2531478849515E+00
51  5.0000000000000E-01  1.1366545343130E+00  1.3507366207638E+00
52  5.1000000000000E-01  1.0442840156777E+00  1.4432971272580E+00
53  5.2000000000000E-01  9.5046529930551E-01  1.5302216507055E+00
54  5.3000000000000E-01  8.5581926778116E-01  1.6109607506477E+00
55  5.4000000000000E-01  7.6096062214108E-01  1.6850219835517E+00
56  5.5000000000000E-01  6.6649456338386E-01  1.7519675103297E+00
57  5.6000000000000E-01  5.7301366428761E-01  1.8114109655192E+00
58  5.7000000000000E-01  4.8109485809471E-01  1.8630139496723E+00
59  5.8000000000000E-01  3.9129646929262E-01  1.9064825126489E+00
60  5.9000000000000E-01  3.0415521573548E-01  1.9415639835734E+00
61  6.0000000000000E-01  2.2018312058323E-01  1.9680444735472E+00
62  6.1000000000000E-01  1.3986428660006E-01  1.9857473308978E+00
63  6.2000000000000E-01  6.3651503634938E-02  1.9945327676574E+00
64  6.3000000000000E-01 -8.0373182296312E-03  1.9942988026146E+00
65  6.4000000000000E-01 -7.4822873342139E-02  1.9849835838135E+00
66  6.5000000000000E-01 -1.3636830119738E-01  1.9665690653531E+00
67  6.6000000000000E-01 -1.9238307623301E-01  1.9390859236791E+00
68  6.7000000000000E-01 -2.4262685586015E-01  1.9026195113349E+00
69  6.8000000000000E-01 -2.8691317460507E-01  1.8573165653946E+00
70  6.9000000000000E-01 -3.2511285477289E-01  1.8033923174304E+00
71  7.0000000000000E-01 -3.5715699145980E-01  1.7411375953875E+00
72  7.1000000000000E-01 -3.8303936293985E-01  1.6709254681719E+00
73  7.2000000000000E-01 -4.0281811710956E-01  1.5932169634717E+00
74  7.3000000000000E-01 -4.1661659120537E-01  1.5085653899274E+00
75  7.4000000000000E-01 -4.2462313554719E-01  1.4176188170039E+00
76  7.5000000000000E-01 -4.2708983243595E-01  1.3211203096337E+00
77  7.6000000000000E-01 -4.2433002807127E-01  1.2199055788381E+00
78  7.7000000000000E-01 -4.1671462769286E-01  1.1148977921105E+00
79  7.8000000000000E-01 -4.0466714105042E-01  1.0070993855792E+00
80  7.9000000000000E-01 -3.8865750549962E-01  8.9758083028815E-01
81  8.0000000000000E-01 -3.6919475604611E-01  7.8746642320530E-01
82  8.1000000000000E-01 -3.4681865391838E-01  6.7791729517321E-01
83  8.2000000000000E-01 -3.2209042607396E-01  5.7011194807229E-01
84  8.3000000000000E-01 -2.9558280575264E-01  4.6522474700673E-01
85  8.4000000000000E-01 -2.6786959716782E-01  3.6440289550655E-01
86  8.5000000000000E-01 -2.3951501418405E-01  2.6874250804243E-01
87  8.6000000000000E-01 -2.1106306206709E-01  1.7926446056734E-01
88  8.7000000000000E-01 -1.8302724206456E-01  9.6890743007668E-02
89  8.8000000000000E-01 -1.5588085993202E-01  2.2422055147140E-02
90  8.9000000000000E-01 -1.3004821114694E-01 -4.3482622351467E-02
91  9.0000000000000E-01 -1.0589689740191E-01 -1.0032378744549E-01
92  9.1000000000000E-01 -8.3731501357295E-02 -1.4777587691972E-01
93  9.2000000000000E-01 -6.3788810259641E-02 -1.8569788746162E-01
94  9.3000000000000E-01 -4.6234734927503E-02 -2.1413973051355E-01
95  9.4000000000000E-01 -3.1163020140882E-02 -2.3334402567362E-01
96  9.5000000000000E-01 -1.8595787272245E-02 -2.4374318395176E-01
97  9.6000000000000E-01 -8.4858919127290E-03 -2.4595178829009E-01
98  9.7000000000000E-01 -7.2102027682320E-04 -2.4075443884200E-01
99  9.8000000000000E-01  4.8706096147581E-03 -2.2908938873634E-01
100  9.9000000000000E-01  8.5131306697254E-03 -2.1202844719226E-01
101  1.0000000000000E+00  1.0474723552607E-02 -1.9075373368942E-01
102  1.0100000000000E+00  1.1058260400875E-02 -1.6653144525524E-01
103  1.0200000000000E+00  1.0585503379127E-02 -1.4066166930045E-01
104  1.0300000000000E+00  9.3747457786681E-03 -1.1440502328510E-01
105  1.0400000000000E+00  7.7262330150575E-03 -8.8941090457281E-02
106  1.0500000000000E+00  5.9083348330919E-03 -6.5332286992603E-02
107  1.0600000000000E+00  4.0896166606097E-03 -4.4359156468424E-02
108  1.0700000000000E+00  2.4589784824806E-03 -2.6798793951076E-02
109  1.0800000000000E+00  1.1903286395587E-03 -1.3345627748508E-02
110  1.0900000000000E+00  3.7614003975799E-04 -4.4533899085343E-03
111  1.1000000000000E+00  2.8254036372281E-05 -3.6550742807068E-04
112  1.1100000000000E+00 -3.7744563439895E-07  5.2060407237910E-06
113  1.1200000000000E+00 -2.1303934118150E-07  2.6782151434269E-06
114  1.13 -0.  0.
115  1.14  0.  0.
116  1.15  0.  0.
117  1.16  0.  0.
118  1.17  0.  0.
119  1.18  0.  0.
120  1.19  0.  0.
121  1.20  0.  0.
122  1.21  0.  0.
123  1.22  0.  0.
124  1.23  0.  0.
125  1.24  0.  0.
126  1.25  0.  0.
127  1.26  0.  0.
128  1.27  0.  0.
129  1.28  0.  0.
130  1.29  0.  0.
131  1.30  0.  0.
132  1.31  0.  0.
133  1.32  0.  0.
134  1.33  0.  0.
135  1.34  0.  0.
136  1.35  0.  0.
137  1.36  0.  0.
138  1.37  0.  0.
139  1.38  0.  0.
140  1.39  0.  0.
141  1.40  0.  0.
142  1.41  0.  0.
143  1.42  0.  0.
144  1.43  0.  0.
145  1.44  0.  0.
146  1.45  0.  0.
147  1.46  0.  0.
148  1.47  0.  0.
149  1.48  0.  0.
150  1.49  0.  0.
151  1.50  0.  0.
152  1.51  0.  0.
153  1.52  0.  0.
154  1.53  0.  0.
155  1.54  0.  0.
156  1.55  0.  0.
157  1.56  0.  0.
158  1.57  0.  0.
159  1.58  0.  0.
160  1.59  0.  0.
161  1.60  0.  0.
162  1.61  0.  0.
163  1.62  0.  0.
164  1.63  0.  0.
165  1.64  0.  0.
166  1.65  0.  0.
167  1.66  0.  0.
168  1.67  0.  0.
169  1.68  0.  0.
170  1.69  0.  0.
171  1.70  0.  0.
172  1.71  0.  0.
173  1.72  0.  0.
174  1.73  0.  0.
175  1.74  0.  0.
176  1.75  0.  0.
177  1.76  0.  0.
178  1.77  0.  0.
179  1.78  0.  0.
180  1.79  0.  0.
181  1.80  0.  0.
182  1.81  0.  0.
183  1.82  0.  0.
184  1.83  0.  0.
185  1.84  0.  0.
186  1.85  0.  0.
187  1.86  0.  0.
188  1.87  0.  0.
189  1.88  0.  0.
190  1.89  0.  0.
191  1.90  0.  0.
192  1.91  0.  0.
193  1.92  0.  0.
194  1.93  0.  0.
195  1.94  0.  0.
196  1.95  0.  0.
197  1.96  0.  0.