U     ONCVPSP-4.0.1  r_core=   1.30497   1.30497   1.60890   1.55218
92.0000     32.0000      220307    zatom,zion,pspd
8      11   3     4   600     0    pspcod,pspxc,lmax,lloc,mmax,r2well
5.99000000  5.00000000  0.00000000    rchrg fchrg qchrg
3     2     2     2     0    nproj
1     1           extension_switch
0                         1.5759589165835E+01 -5.9840752477884E+00 -2.0211475023854E+00
1  0.0000000000000E+00  9.1579752670157E-09  4.0315035532146E-08  7.4002858008182E-10
2  1.0000000000000E-02  1.0164889856046E-01 -1.5329700645641E-01  1.4835744424216E-02
3  2.0000000000000E-02  2.0303516242976E-01 -3.0484689697440E-01  2.9671036914688E-02
4  3.0000000000000E-02  3.0389457301585E-01 -4.5292601267466E-01  4.4505534033233E-02
5  4.0000000000000E-02  4.0395982315966E-01 -5.9585717523398E-01  5.9339112934117E-02
6  5.0000000000000E-02  5.0295916846129E-01 -7.3203185412285E-01  7.4171990462440E-02
7  6.0000000000000E-02  6.0061530647808E-01 -8.5993107629739E-01  8.9004852258330E-02
8  7.0000000000000E-02  6.9664454854637E-01 -9.7814470838082E-01  1.0383899429396E-01
9  8.0000000000000E-02  7.9075633982099E-01 -1.0853887816852E+00  1.1867647853032E-01
10  9.0000000000000E-02  8.8265317222226E-01 -1.1805205785407E+00  1.3352030350274E-01
11  1.0000000000000E-01  9.7203092266483E-01 -1.2625512529163E+00  1.4837458965717E-01
12  1.1000000000000E-01  1.0585796355967E+00 -1.3306558176336E+00  1.6324477819648E-01
13  1.2000000000000E-01  1.1419847549119E+00 -1.3841803928722E+00  1.7813784109402E-01
14  1.3000000000000E-01  1.2219287961431E+00 -1.4226466743463E+00  1.9306249882722E-01
15  1.4000000000000E-01  1.2980934359300E+00 -1.4457536426632E+00  2.0802944131697E-01
16  1.5000000000000E-01  1.3701619825156E+00 -1.4533765961734E+00  2.2305154656646E-01
17  1.6000000000000E-01  1.4378221788594E+00 -1.4455636463916E+00  2.3814409061269E-01
18  1.7000000000000E-01  1.5007692792286E+00 -1.4225298662442E+00  2.5332494166968E-01
19  1.8000000000000E-01  1.5587093311767E+00 -1.3846493256172E+00  2.6861473078426E-01
20  1.9000000000000E-01  1.6113625878993E+00 -1.3324452848133E+00  2.8403699096948E-01
21  2.0000000000000E-01  1.6584669712743E+00 -1.2665788436957E+00  2.9961825664732E-01
22  2.1000000000000E-01  1.6997815035860E+00 -1.1878363619333E+00  3.1538811533630E-01
23  2.2000000000000E-01  1.7350896260549E+00 -1.0971159735934E+00  3.3137920386828E-01
24  2.3000000000000E-01  1.7642023248234E+00 -9.9541351740698E-01  3.4762714201336E-01
25  2.4000000000000E-01  1.7869609899035E+00 -8.8380819270754E-01  3.6417039722723E-01
26  2.5000000000000E-01  1.8032399395888E+00 -7.6344823098186E-01  3.8105007529754E-01
27  2.6000000000000E-01  1.8129485517583E+00 -6.3553684509106E-01  3.9830963293729E-01
28  2.7000000000000E-01  1.8160329540454E+00 -5.0131868370293E-01  4.1599450982733E-01
29  2.8000000000000E-01  1.8124772366747E+00 -3.6206697869104E-01  4.3415167921657E-01
30  2.9000000000000E-01  1.8023041645079E+00 -2.1907152972761E-01  4.5282911791203E-01
31  3.0000000000000E-01  1.7855753780672E+00 -7.3627624676265E-02  4.7207519829205E-01
32  3.1000000000000E-01  1.7623910866125E+00  7.2974051667713E-02  4.9193800681257E-01
33  3.2000000000000E-01  1.7328892693077E+00  2.1945651272828E-01  5.1246459530568E-01
34  3.3000000000000E-01  1.6972444127227E+00  3.6456460336594E-01  5.3370017314591E-01
35  3.4000000000000E-01  1.6556658239952E+00  5.0707224290317E-01  5.5568725004101E-01
36  3.5000000000000E-01  1.6083955685833E+00  6.4578888158767E-01  5.7846474074753E-01
37  3.6000000000000E-01  1.5557060893896E+00  7.7956529921490E-01  6.0206704437822E-01
38  3.7000000000000E-01  1.4978975698952E+00  9.0729889207294E-01  6.2652311212414E-01
39  3.8000000000000E-01  1.4352951076437E+00  1.0279386035705E+00  6.5185551812751E-01
40  3.9000000000000E-01  1.3682457658838E+00  1.1404896546179E+00  6.7807954888807E-01
41  4.0000000000000E-01  1.2971155703791E+00  1.2440182220478E+00  7.0520232694668E-01
42  4.1000000000000E-01  1.2222865154089E+00  1.3376561974735E+00  7.3322198465340E-01
43  4.2000000000000E-01  1.1441536379260E+00  1.4206061356014E+00  7.6212690358677E-01
44  4.3000000000000E-01  1.0631222119371E+00  1.4921464711116E+00  7.9189503465060E-01
45  4.4000000000000E-01  9.7960510666808E-01  1.5516370479346E+00  8.2249331303914E-01
46  4.5000000000000E-01  8.9402034231339E-01  1.5985249655109E+00  8.5387718115003E-01
47  4.6000000000000E-01  8.0678886649454E-01  1.6323507049632E+00  8.8599023115442E-01
48  4.7000000000000E-01  7.1833256336859E-01  1.6527544557030E+00  9.1876397733454E-01
49  4.8000000000000E-01  6.2907249604507E-01  1.6594825215847E+00  9.5211776650101E-01
50  4.9000000000000E-01  5.3942737199977E-01  1.6523936469984E+00  9.8595883284064E-01
51  5.0000000000000E-01  4.4981221092592E-01  1.6314650689404E+00  1.0201825014599E+00
52  5.1000000000000E-01  3.6063718531873E-01  1.5967980726508E+00  1.0546725427195E+00
53  5.2000000000000E-01  2.7230659638552E-01  1.5486228072029E+00  1.0893016772427E+00
54  5.3000000000000E-01  1.8521794191241E-01  1.4873021046261E+00  1.1239322292692E+00
55  5.4000000000000E-01  9.9761028731026E-02  1.4133340425934E+00  1.1584169238503E+00
56  5.5000000000000E-01  1.6317080579304E-02  1.3273529969621E+00  1.1925998212925E+00
57  5.6000000000000E-01 -6.4742207460903E-02  1.2301289467782E+00  1.2263173802728E+00
58  5.7000000000000E-01 -1.4305571413519E-01  1.1225648206036E+00  1.2593996392239E+00
59  5.8000000000000E-01 -2.1827407816419E-01  1.0056917087667E+00  1.2916715039276E+00
60  5.9000000000000E-01 -2.9006105987544E-01  8.8066181059381E-01  1.3229541278070E+00
61  6.0000000000000E-01 -3.5809510414665E-01  7.4873903770074E-01  1.3530663701663E+00
62  6.1000000000000E-01 -4.2207112025902E-01  6.1128725269533E-01  1.3818263166312E+00
63  6.2000000000000E-01 -4.8170248283821E-01  4.6975618544203E-01  1.4090528452773E+00
64  6.3000000000000E-01 -5.3672324582087E-01  3.2566513462417E-01  1.4345672214208E+00
65  6.4000000000000E-01 -5.8689054876406E-01  1.8058462866748E-01  1.4581947037699E+00
66  6.5000000000000E-01 -6.3198718224923E-01  3.6116285157998E-02  1.4797661446006E+00
67  6.6000000000000E-01 -6.7182426707851E-01 -1.0612883038969E-01  1.4991195668086E+00
68  6.7000000000000E-01 -7.0624399085800E-01 -2.4455298917414E-01  1.5161017010915E+00
69  6.8000000000000E-01 -7.3512233583707E-01 -3.7759532079227E-01  1.5305694671117E+00
70  6.9000000000000E-01 -7.5837172389660E-01 -5.0375562541268E-01  1.5423913832634E+00
71  7.0000000000000E-01 -7.7594349869642E-01 -6.2161800014646E-01  1.5514488905949E+00
72  7.1000000000000E-01 -7.8783016146336E-01 -7.2987378521091E-01  1.5576375774963E+00
73  7.2000000000000E-01 -7.9406727592757E-01 -8.2734332985602E-01  1.5608682929339E+00
74  7.3000000000000E-01 -7.9473495962121E-01 -9.1299608542517E-01  1.5610681372707E+00
75  7.4000000000000E-01 -7.8995888316449E-01 -9.8596855343012E-01  1.5581813210381E+00
76  7.5000000000000E-01 -7.7991070624394E-01 -1.0455796499373E+00  1.5521698833916E+00
77  7.6000000000000E-01 -7.6480788859062E-01 -1.0913430932058E+00  1.5430142633884E+00
78  7.7000000000000E-01 -7.4491282618556E-01 -1.1229764784191E+00  1.5307137186281E+00
79  7.8000000000000E-01 -7.2053127686052E-01 -1.1404067701565E+00  1.5152865872079E+00
80  7.9000000000000E-01 -6.9201005507232E-01 -1.1437720183347E+00  1.4967703903331E+00
81  8.0000000000000E-01 -6.5973399249396E-01 -1.1334191848219E+00  1.4752217742852E+00
82  8.1000000000000E-01 -6.2412217873512E-01 -1.1098980537156E+00  1.4507162917802E+00
83  8.2000000000000E-01 -5.8562351449496E-01 -1.0739512861831E+00  1.4233480240352E+00
84  8.3000000000000E-01 -5.4471162726639E-01 -1.0265007685014E+00  1.3932290461024E+00
85  8.4000000000000E-01 -5.0187921685985E-01 -9.6863048726088E-01  1.3604887392208E+00
86  8.5000000000000E-01 -4.5763191402224E-01 -9.0156624640807E-01  1.3252729550745E+00
87  8.6000000000000E-01 -4.1248174984499E-01 -8.2665261484393E-01  1.2877430379331E+00
88  8.7000000000000E-01 -3.6694034609200E-01 -7.4532755882701E-01  1.2480747116802E+00
89  8.8000000000000E-01 -3.2151194668479E-01 -6.5909526882131E-01  1.2064568397149E+00
90  8.9000000000000E-01 -2.7668641809159E-01 -5.6949773439681E-01  1.1630900666327E+00
91  9.0000000000000E-01 -2.3293235107357E-01 -4.7808565232947E-01  1.1181853514588E+00
92  9.1000000000000E-01 -1.9069039802643E-01 -3.8638927153716E-01  1.0719624030203E+00
93  9.2000000000000E-01 -1.5036697897995E-01 -2.9588978365145E-01  1.0246480287961E+00
94  9.3000000000000E-01 -1.1232848521702E-01 -2.0799185993815E-01  9.7647440928716E-01
95  9.4000000000000E-01 -7.6896102567813E-02 -1.2399791437619E-01  9.2767731058790E-01
96  9.5000000000000E-01 -4.4341366900806E-02 -4.5084639693607E-02  8.7849424842820E-01
97  9.6000000000000E-01 -1.4882552422200E-02  2.7717680918092E-02  8.2916261748740E-01
98  9.7000000000000E-01  1.1318020611433E-02  9.3542637658510E-02  7.7991780025863E-01
99  9.8000000000000E-01  3.4155687926572E-02  1.5170154719648E-01  7.3099127017218E-01
100  9.9000000000000E-01  5.3584099366957E-02  2.0169337805958E-01  6.8260870407283E-01
101  1.0000000000000E+00  6.9614797748601E-02  2.4321050630475E-01  6.3498811949703E-01
102  1.0100000000000E+00  8.2315702060763E-02  2.7614013830622E-01  5.8833805252327E-01
103  1.0200000000000E+00  9.1808498089216E-02  3.0056131902647E-01  5.4285579228669E-01
104  1.0300000000000E+00  9.8264959174660E-02  3.1673752713675E-01  4.9872568857528E-01
105  1.0400000000000E+00  1.0190223943228E-01  3.2510494184159E-01  4.5611754928150E-01
106  1.0500000000000E+00  1.0297720125010E-01  3.2625654971641E-01  4.1518514489554E-01
107  1.0600000000000E+00  1.0177985821723E-01  3.2092234302638E-01  3.7606483772659E-01
108  1.0700000000000E+00  9.8626033826334E-02  3.0994594381575E-01  3.3887435415715E-01
109  1.0800000000000E+00  9.3849355595163E-02  2.9425807148726E-01  3.0371171901642E-01
110  1.0900000000000E+00  8.7792723832739E-02  2.7484735624468E-01  2.7065437213906E-01
111  1.1000000000000E+00  8.0799414575733E-02  2.5272908841141E-01  2.3975848840472E-01
112  1.1100000000000E+00  7.3203997729538E-02  2.2891258624137E-01  2.1105852408206E-01
113  1.1200000000000E+00  6.5323274648531E-02  2.0436796435681E-01  1.8456701417220E-01
114  1.1300000000000E+00  5.7447465171999E-02  1.7999319508612E-01  1.6027464773213E-01
115  1.1400000000000E+00  4.9831902937043E-02  1.5658247753165E-01  1.3815065088586E-01
116  1.1500000000000E+00  4.2689530908693E-02  1.3479706959657E-01  1.1814351049617E-01
117  1.1600000000000E+00  3.6184526846613E-02  1.1513989787595E-01  1.0018207527684E-01
118  1.1700000000000E+00  3.0427432500806E-02  9.7935446164097E-02  8.4177075592939E-02
119  1.1800000000000E+00  2.5472210958781E-02  8.3316636474795E-02  7.0023108308153E-02
120  1.1900000000000E+00  2.1315715518651E-02  7.1220664387666E-02  5.7601138915739E-02
121  1.2000000000000E+00  1.7900121188259E-02  6.1396035180520E-02  4.6781579825337E-02
122  1.2100000000000E+00  1.5118947692345E-02  5.3423374059211E-02  3.7428011140117E-02
123  1.2200000000000E+00  1.2827368253822E-02  4.6752847340003E-02  2.9401623647933E-02
124  1.2300000000000E+00  1.0857811740167E-02  4.0762444596986E-02  2.2566427454002E-02
125  1.2400000000000E+00  9.0424181341223E-03  3.4843969632756E-02  1.6795201009079E-02
126  1.2500000000000E+00  7.3035448715298E-03  2.8801099812837E-02  1.1963438543719E-02
127  1.2600000000000E+00  5.5760435306292E-03  2.2454974794394E-02  7.9812720862445E-03
128  1.2700000000000E+00  3.8302122982802E-03  1.5720148572596E-02  4.8090940131384E-03
129  1.2800000000000E+00  2.1964881270674E-03  9.1738907909001E-03  2.4391682177583E-03
130  1.2900000000000E+00  8.7942224956512E-04  3.7325301107826E-03  8.7010928766999E-04
131  1.3000000000000E+00  1.1705144440701E-04  5.0439904946800E-04  1.0361757455988E-04
132  1.3100000000000E+00 -1.0316554111324E-05 -4.4836436537432E-05 -8.4894518118274E-06
133  1.3200000000000E+00  9.3365904476081E-07  4.0373154241777E-06  7.9974961978165E-07
134  1.33  0.  0. -0.
135  1.34  0.  0.  0.
136  1.35  0.  0.  0.
137  1.36  0.  0.  0.
138  1.37  0.  0.  0.
139  1.38  0.  0.  0.
140  1.39  0.  0.  0.
141  1.40  0.  0.  0.
142  1.41  0.  0.  0.
143  1.42  0.  0.  0.
144  1.43  0.  0.  0.
145  1.44  0.  0.  0.
146  1.45  0.  0.  0.
147  1.46  0.  0.  0.
148  1.47  0.  0.  0.
149  1.48  0.  0.  0.
150  1.49  0.  0.  0.
151  1.50  0.  0.  0.
152  1.51  0.  0.  0.
153  1.52  0.  0.  0.
154  1.53  0.  0.  0.
155  1.54  0.  0.  0.
156  1.55  0.  0.  0.
157  1.56  0.  0.  0.
158  1.57  0.  0.  0.
159  1.58  0.  0.  0.
160  1.59  0.  0.  0.
161  1.60  0.  0.  0.
162  1.61  0.  0.  0.
163  1.62  0.  0.  0.
164  1.63  0.  0.  0.
165  1.64  0.  0.  0.
166  1.65  0.  0.  0.
167  1.66  0.  0.  0.
168  1.67  0.  0.  0.
169  1.68  0.  0.  0.
170  1.69  0.  0.  0.
171  1.70  0.  0.  0.
172  1.71  0.  0.  0.
173  1.72  0.  0.  0.
174  1.73  0.  0.  0.
175  1.74  0.  0.  0.
176  1.75  0.  0.  0.
177  1.76  0.  0.  0.
178  1.77  0.  0.  0.
179  1.78  0.  0.  0.
180  1.79  0.  0.  0.
181  1.80  0.  0.  0.
182  1.81  0.  0.  0.
183  1.82  0.  0.  0.
184  1.83  0.  0.  0.
185  1.84  0.  0.  0.
186  1.85  0.  0.  0.
187  1.86  0.  0.  0.
188  1.87  0.  0.  0.
189  1.88  0.  0.  0.
190  1.89  0.  0.  0.
191  1.90  0.  0.  0.
192  1.91  0.  0.  0.
193  1.92  0.  0.  0.
194  1.93  0.  0.  0.
195  1.94  0.  0.  0.
196  1.95  0.  0.  0.
197  1.96  0.  0.  0.
198  1.97  0.  0.  0.
199  1.98  0.  0.  0.
200  1.99  0.  0.  0.
201  2.00  0.  0.  0.
202  2.01  0.  0.  0.
203  2.02  0.  0.  0.
204  2.03  0.  0.  0.
205  2.04  0.  0.  0.
206  2.05  0.  0.  0.
207  2.06  0.  0.  0.
208  2.07  0.  0.  0.
209  2.08  0.  0.  0.
210  2.09  0.  0.  0.
211  2.10  0.  0.  0.
212  2.11  0.  0.  0.
213  2.12  0.  0.  0.
214  2.13  0.  0.  0.
215  2.14  0.  0.  0.
216  2.15  0.  0.  0.
217  2.16  0.  0.  0.
218  2.17  0.  0.  0.
219  2.18  0.  0.  0.
220  2.19  0.  0.  0.
221  2.20  0.  0.  0.
222  2.21  0.  0.  0.
223  2.22  0.  0.  0.
224  2.23  0.  0.  0.
225  2.24  0.  0.  0.
226  2.25  0.  0.  0.
227  2.26  0.  0.  0.
228  2.27  0.  0.  0.
229  2.28  0.  0.  0.
230  2.29  0.  0.  0.
231  2.30  0.  0.  0.
232  2.31  0.  0.  0.
233  2.32  0.  0.  0.
234  2.33  0.  0.  0.
235  2.34  0.  0.  0.
236  2.35  0.  0.  0.
237  2.36  0.  0.  0.
238  2.37  0.  0.  0.
239  2.38  0.  0.  0.
240  2.39  0.  0.  0.
241  2.40  0.  0.  0.
242  2.41  0.  0.  0.
243  2.42  0.  0.  0.
244  2.43  0.  0.  0.
245  2.44  0.  0.  0.
246  2.45  0.  0.  0.
247  2.46  0.  0.  0.
248  2.47  0.  0.  0.
249  2.48  0.  0.  0.
250  2.49  0.  0.  0.
251  2.50  0.  0.  0.
252  2.51  0.  0.  0.
253  2.52  0.  0.  0.
254  2.53  0.  0.  0.
255  2.54  0.  0.  0.
256  2.55  0.  0.  0.
257  2.56  0.  0.  0.
258  2.57  0.  0.  0.
259  2.58  0.  0.  0.
260  2.59  0.  0.  0.
261  2.60  0.  0.  0.
262  2.61  0.  0.  0.
263  2.62  0.  0.  0.
264  2.63  0.  0.  0.
265  2.64  0.  0.  0.
266  2.65  0.  0.  0.
267  2.66  0.  0.  0.
268  2.67  0.  0.  0.
269  2.68  0.  0.  0.
270  2.69  0.  0.  0.
271  2.70  0.  0.  0.
272  2.71  0.  0.  0.
273  2.72  0.  0.  0.
274  2.73  0.  0.  0.
275  2.74  0.  0.  0.
276  2.75  0.  0.  0.
277  2.76  0.  0.  0.
278  2.77  0.  0.  0.
279  2.78  0.  0.  0.
280  2.79  0.  0.  0.
281  2.80  0.  0.  0.
282  2.81  0.  0.  0.
283  2.82  0.  0.  0.
284  2.83  0.  0.  0.
285  2.84  0.  0.  0.
286  2.85  0.  0.  0.
287  2.86  0.  0.  0.
288  2.87  0.  0.  0.
289  2.88  0.  0.  0.
290  2.89  0.  0.  0.
291  2.90  0.  0.  0.
292  2.91  0.  0.  0.
293  2.92  0.  0.  0.
294  2.93  0.  0.  0.
295  2.94  0.  0.  0.
296  2.95  0.  0.  0.
297  2.96  0.  0.  0.
298  2.97  0.  0.  0.
299  2.98  0.  0.  0.
300  2.99  0.  0.  0.
301  3.00  0.  0.  0.
302  3.01  0.  0.  0.
303  3.02  0.  0.  0.
304  3.03  0.  0.  0.
305  3.04  0.  0.  0.
306  3.05  0.  0.  0.
307  3.06  0.  0.  0.
308  3.07  0.  0.  0.
309  3.08  0.  0.  0.
310  3.09  0.  0.  0.
311  3.10  0.  0.  0.
312  3.11  0.  0.  0.
313  3.12  0.  0.  0.
314  3.13  0.  0.  0.
315  3.14  0.  0.  0.
316  3.15  0.  0.  0.
317  3.16  0.  0.  0.
318  3.17  0.  0.  0.
319  3.18  0.  0.  0.
320  3.19  0.  0.  0.
321  3.20  0.  0.  0.
322  3.21  0.  0.  0.
323  3.22  0.  0.  0.
324  3.23  0.  0.  0.
325  3.24  0.  0.  0.
326  3.25  0.  0.  0.
327  3.26  0.  0.  0.
328  3.27  0.  0.  0.
329  3.28  0.  0.  0.
330  3.29  0.  0.  0.
331  3.30  0.  0.  0.
332  3.31  0.  0.  0.
333  3.32  0.  0.  0.
334  3.33  0.  0.  0.
335  3.34  0.  0.  0.
336  3.35  0.  0.  0.
337  3.36  0.  0.  0.
338  3.37  0.  0.  0.
339  3.38  0.  0.  0.
340  3.39  0.  0.  0.
341  3.40  0.  0.  0.
342  3.41  0.  0.  0.
343  3.42  0.  0.  0.
344  3.43  0.  0.  0.
345  3.44  0.  0.  0.
346  3.45  0.  0.  0.
347  3.46  0.  0.  0.
348  3.47  0.  0.  0.
349  3.48  0.  0.  0.
350  3.49  0.  0.  0.
351  3.50  0.  0.  0.
352  3.51  0.  0.  0.
353  3.52  0.  0.  0.
354  3.53  0.  0.  0.
355  3.54  0.  0.  0.
356  3.55  0.  0.  0.
357  3.56  0.  0.  0.
358  3.57  0.  0.  0.
359  3.58  0.  0.  0.
360  3.59  0.  0.  0.
361  3.60  0.  0.  0.
362  3.61  0.  0.  0.
363  3.62  0.  0.  0.
364  3.63  0.  0.  0.
365  3.64  0.  0.  0.
366  3.65  0.  0.  0.
367  3.66  0.  0.  0.
368  3.67  0.  0.  0.
369  3.68  0.  0.  0.
370  3.69  0.  0.  0.
371  3.70  0.  0.  0.
372  3.71  0.  0.  0.
373  3.72  0.  0.  0.
374  3.73  0.  0.  0.
375  3.74  0.  0.  0.
376  3.75  0.  0.  0.
377  3.76  0.  0.  0.
378  3.77  0.  0.  0.
379  3.78  0.  0.  0.
380  3.79  0.  0.  0.
381  3.80  0.  0.  0.
382  3.81  0.  0.  0.
383  3.82  0.  0.  0.
384  3.83  0.  0.  0.
385  3.84  0.  0.  0.
386  3.85  0.  0.  0.
387  3.86  0.  0.  0.
388  3.87  0.  0.  0.
389  3.88  0.  0.  0.
390  3.89  0.  0.  0.
391  3.90  0.  0.  0.
392  3.91  0.  0.  0.
393  3.92  0.  0.  0.
394  3.93  0.  0.  0.
395  3.94  0.  0.  0.
396  3.95  0.  0.  0.
397  3.96  0.  0.  0.
398  3.97  0.  0.  0.
399  3.98  0.  0.  0.
400  3.99  0.  0.  0.
401  4.00  0.  0.  0.
402  4.01  0.  0.  0.
403  4.02  0.  0.  0.
404  4.03  0.  0.  0.
405  4.04  0.  0.  0.
406  4.05  0.  0.  0.
407  4.06  0.  0.  0.
408  4.07  0.  0.  0.
409  4.08  0.  0.  0.
410  4.09  0.  0.  0.
411  4.10  0.  0.  0.
412  4.11  0.  0.  0.
413  4.12  0.  0.  0.
414  4.13  0.  0.  0.
415  4.14  0.  0.  0.
416  4.15  0.  0.  0.
417  4.16  0.  0.  0.
418  4.17  0.  0.  0.
419  4.18  0.  0.  0.
420  4.19  0.  0.  0.
421  4.20  0.  0.  0.
422  4.21  0.  0.  0.
423  4.22  0.  0.  0.
424  4.23  0.  0.  0.
425  4.24  0.  0.  0.
426  4.25  0.  0.  0.
427  4.26  0.  0.  0.
428  4.27  0.  0.  0.
429  4.28  0.  0.  0.
430  4.29  0.  0.  0.
431  4.30  0.  0.  0.
432  4.31  0.  0.  0.
433  4.32  0.  0.  0.
434  4.33  0.  0.  0.
435  4.34  0.  0.  0.
436  4.35  0.  0.  0.
437  4.36  0.  0.  0.
438  4.37  0.  0.  0.
439  4.38  0.  0.  0.
440  4.39  0.  0.  0.
441  4.40  0.  0.  0.
442  4.41  0.  0.  0.
443  4.42  0.  0.  0.
444  4.43  0.  0.  0.
445  4.44  0.  0.  0.
446  4.45  0.  0.  0.
447  4.46  0.  0.  0.
448  4.47  0.  0.  0.
449  4.48  0.  0.  0.
450  4.49  0.  0.  0.
451  4.50  0.  0.  0.
452  4.51  0.  0.  0.
453  4.52  0.  0.  0.
454  4.53  0.  0.  0.
455  4.54  0.  0.  0.
456  4.55  0.  0.  0.
457  4.56  0.  0.  0.
458  4.57  0.  0.  0.
459  4.58  0.  0.  0.
460  4.59  0.  0.  0.
461  4.60  0.  0.  0.
462  4.61  0.  0.  0.
463  4.62  0.  0.  0.
464  4.63  0.  0.  0.
465  4.64  0.  0.  0.
466  4.65  0.  0.  0.
467  4.66  0.  0.  0.
468  4.67  0.  0.  0.
469  4.68  0.  0.  0.
470  4.69  0.  0.  0.
471  4.70  0.  0.  0.
472  4.71  0.  0.  0.
473  4.72  0.  0.  0.
474  4.73  0.  0.  0.
475  4.74  0.  0.  0.
476  4.75  0.  0.  0.
477  4.76  0.  0.  0.
478  4.77  0.  0.  0.
479  4.78  0.  0.  0.
480  4.79  0.  0.  0.
481  4.80  0.  0.  0.
482  4.81  0.  0.  0.
483  4.82  0.  0.  0.
484  4.83  0.  0.  0.
485  4.84  0.  0.  0.
486  4.85  0.  0.  0.
487  4.86  0.  0.  0.
488  4.87  0.  0.  0.
489  4.88  0.  0.  0.
490  4.89  0.  0.  0.
491  4.90  0.  0.  0.
492  4.91  0.  0.  0.
493  4.92  0.  0.  0.
494  4.93  0.  0.  0.
495  4.94  0.  0.  0.
496  4.95  0.  0.  0.
497  4.96  0.  0.  0.
498  4.97  0.  0.  0.
499  4.98  0.  0.  0.
500  4.99  0.  0.  0.
501  5.00  0.  0.  0.
502  5.01  0.  0.  0.
503  5.02  0.  0.  0.
504  5.03  0.  0.  0.
505  5.04  0.  0.  0.
506  5.05  0.  0.  0.
507  5.06  0.  0.  0.
508  5.07  0.  0.  0.
509  5.08  0.  0.  0.
510  5.09  0.  0.  0.
511  5.10  0.  0.  0.
512  5.11  0.  0.  0.
513  5.12  0.  0.  0.
514  5.13  0.  0.  0.
515  5.14  0.  0.  0.
516  5.15  0.  0.  0.
517  5.16  0.  0.  0.
518  5.17  0.  0.  0.
519  5.18  0.  0.  0.
520  5.19  0.  0.  0.
521  5.20  0.  0.  0.
522  5.21  0.  0.  0.
523  5.22  0.  0.  0.
524  5.23  0.  0.  0.
525  5.24  0.  0.  0.
526  5.25  0.  0.  0.
527  5.26  0.  0.  0.
528  5.27  0.  0.  0.
529  5.28  0.  0.  0.
530  5.29  0.  0.  0.
531  5.30  0.  0.  0.
532  5.31  0.  0.  0.
533  5.32  0.  0.  0.
534  5.33  0.  0.  0.
535  5.34  0.  0.  0.
536  5.35  0.  0.  0.
537  5.36  0.  0.  0.
538  5.37  0.  0.  0.
539  5.38  0.  0.  0.
540  5.39  0.  0.  0.
541  5.40  0.  0.  0.
542  5.41  0.  0.  0.
543  5.42  0.  0.  0.
544  5.43  0.  0.  0.
545  5.44  0.  0.  0.
546  5.45  0.  0.  0.
547  5.46  0.  0.  0.
548  5.47  0.  0.  0.
549  5.48  0.  0.  0.
550  5.49  0.  0.  0.
551  5.50  0.  0.  0.
552  5.51  0.  0.  0.
553  5.52  0.  0.  0.
554  5.53  0.  0.  0.
555  5.54  0.  0.  0.
556  5.55  0.  0.  0.
557  5.56  0.  0.  0.
558  5.57  0.  0.  0.
559  5.58  0.  0.  0.
560  5.59  0.  0.  0.
561  5.60  0.  0.  0.
562  5.61  0.  0.  0.
563  5.62  0.  0.  0.
564  5.63  0.  0.  0.
565  5.64  0.  0.  0.
566  5.65  0.  0.  0.
567  5.66  0.  0.  0.
568  5.67  0.  0.  0.
569  5.68  0.  0.  0.
570  5.69  0.  0.  0.
571  5.70  0.  0.  0.
572  5.71  0.  0.  0.
573  5.72  0.  0.  0.
574  5.73  0.  0.  0.
575  5.74  0.  0.  0.
576  5.75  0.  0.  0.
577  5.76  0.  0.  0.
578  5.77  0.  0.  0.
579  5.78  0.  0.  0.
580  5.79  0.  0.  0.
581  5.80  0.  0.  0.
582  5.81  0.  0.  0.
583  5.82  0.  0.  0.
584  5.83  0.  0.  0.
585  5.84  0.  0.  0.
586  5.85  0.  0.  0.
587  5.86  0.  0.  0.
588  5.87  0.  0.  0.
589  5.88  0.  0.  0.
590  5.89  0.  0.  0.
591  5.90  0.  0.  0.
592  5.91  0.  0.  0.
593  5.92  0.  0.  0.
594  5.93  0.  0.  0.
595  5.94  0.  0.  0.
596  5.95  0.  0.  0.
597  5.96  0.  0.  0.
598  5.97  0.  0.  0.
599  5.98  0.  0.  0.
600  5.99  0.  0.  0.
1                         8.6203206479735E+00 -1.7006302016174E+00
1  0.0000000000000E+00  3.3905247498467E-09 -8.9369762631963E-10
2  1.0000000000000E-02  4.2043634431160E-03  4.2409714105515E-04
3  2.0000000000000E-02  1.6781363768093E-02  1.6966765907501E-03
4  3.0000000000000E-02  3.7623014351173E-02  3.8185856527088E-03
5  4.0000000000000E-02  6.6550280507549E-02  6.7911811847544E-03
6  5.0000000000000E-02  1.0331448837787E-01  1.0616248723665E-02
7  6.0000000000000E-02  1.4759928603661E-01  1.5295893380646E-02
8  7.0000000000000E-02  1.9902314539587E-01  2.0832406459480E-02
9  8.0000000000000E-02  2.5714239008789E-01  2.7228112643014E-02
10  9.0000000000000E-02  3.2145473103721E-01  3.4485203320661E-02
11  1.0000000000000E-01  3.9140328787696E-01  4.2605562163586E-02
12  1.1000000000000E-01  4.6638107072477E-01  5.1590589374769E-02
13  1.2000000000000E-01  5.4573589312708E-01  6.1441031134318E-02
14  1.3000000000000E-01  6.2877568322514E-01  7.2156820619541E-02
15  1.4000000000000E-01  7.1477415642411E-01  8.3736936604768E-02
16  1.5000000000000E-01  8.0297680909682E-01  9.6179285045909E-02
17  1.6000000000000E-01  8.9260718917452E-01  1.0948060824423E-01
18  1.7000000000000E-01  9.8287339592385E-01  1.2363642518513E-01
19  1.8000000000000E-01  1.0729747578448E+00  1.3864100548895E-01
20  1.9000000000000E-01  1.1621086345167E+00  1.5448737812637E-01
21  2.0000000000000E-01  1.2494772854393E+00  1.7116737467901E-01
22  2.1000000000000E-01  1.3342947465369E+00  1.8867170550887E-01
23  2.2000000000000E-01  1.4157936530885E+00  2.0699006578280E-01
24  2.3000000000000E-01  1.4932319464890E+00  2.2611126692590E-01
25  2.4000000000000E-01  1.5658994014968E+00  2.4602338779619E-01
26  2.5000000000000E-01  1.6331239105492E+00  2.6671393872606E-01
27  2.6000000000000E-01  1.6942774623748E+00  2.8817003060502E-01
28  2.7000000000000E-01  1.7487817535458E+00  3.1037854042032E-01
29  2.8000000000000E-01  1.7961133738196E+00  3.3332626415843E-01
30  2.9000000000000E-01  1.8358085091394E+00  3.5700004772770E-01
31  3.0000000000000E-01  1.8674671099912E+00  3.8138688660769E-01
32  3.1000000000000E-01  1.8907564774393E+00  4.0647398527592E-01
33  3.2000000000000E-01  1.9054142245567E+00  4.3224876810851E-01
34  3.3000000000000E-01  1.9112505770727E+00  4.5869883439328E-01
35  3.4000000000000E-01  1.9081499838296E+00  4.8581185131488E-01
36  3.5000000000000E-01  1.8960720149809E+00  5.1357538025049E-01
37  3.6000000000000E-01  1.8750515336928E+00  5.4197663341901E-01
38  3.7000000000000E-01  1.8451981353196E+00  5.7100215981798E-01
39  3.8000000000000E-01  1.8066948564936E+00  6.0063746141676E-01
40  3.9000000000000E-01  1.7597961651861E+00  6.3086654270075E-01
41  4.0000000000000E-01  1.7048252514089E+00  6.6167139882568E-01
42  4.1000000000000E-01  1.6421706467234E+00  6.9303144978671E-01
43  4.2000000000000E-01  1.5722822089485E+00  7.2492293007577E-01
44  4.3000000000000E-01  1.4956665162908E+00  7.5731824523430E-01
45  4.4000000000000E-01  1.4128817224215E+00  7.9018530845215E-01
46  4.5000000000000E-01  1.3245319306758E+00  8.2348687186338E-01
47  4.6000000000000E-01  1.2312611514403E+00  8.5717986839903E-01
48  4.7000000000000E-01  1.1337469118166E+00  8.9121478093391E-01
49  4.8000000000000E-01  1.0326935907284E+00  9.2553505597505E-01
50  4.9000000000000E-01  9.2882555569594E-01  9.6007657925812E-01
51  5.0000000000000E-01  8.2288017949687E-01  9.9476723032850E-01
52  5.1000000000000E-01  7.1560081582181E-01  1.0295265324796E+00
53  5.2000000000000E-01  6.0772981281865E-01  1.0642654133061E+00
54  5.3000000000000E-01  5.0000164210061E-01  1.0988860896185E+00
55  5.4000000000000E-01  3.9313621840389E-01  1.1332820885825E+00
56  5.5000000000000E-01  2.8783248166924E-01  1.1673384147235E+00
57  5.6000000000000E-01  1.8476230895387E-01  1.2009318699228E+00
58  5.7000000000000E-01  8.4564818340700E-02  1.2339315307700E+00
59  5.8000000000000E-01 -1.2158879000552E-02  1.2661993846894E+00
60  5.9000000000000E-01 -1.0485042912068E-01  1.2975911231912E+00
61  6.0000000000000E-01 -1.9299844570138E-01  1.3279570874722E+00
62  6.1000000000000E-01 -2.7614214593007E-01  1.3571433584822E+00
63  6.2000000000000E-01 -3.5387438510499E-01  1.3849929805458E+00
64  6.3000000000000E-01 -4.2584407128421E-01  1.4113473047578E+00
65  6.4000000000000E-01 -4.9175794934994E-01  1.4360474357180E+00
66  6.5000000000000E-01 -5.5138175179739E-01  1.4589357627988E+00
67  6.6000000000000E-01 -6.0454072125394E-01  1.4798575551034E+00
68  6.7000000000000E-01 -6.5111951707462E-01  1.4986625976208E+00
69  6.8000000000000E-01 -6.9106152524540E-01  1.5152068448552E+00
70  6.9000000000000E-01 -7.2436759716488E-01  1.5293540674260E+00
71  7.0000000000000E-01 -7.5109424859765E-01  1.5409774668320E+00
72  7.1000000000000E-01 -7.7135135513976E-01  1.5499612337393E+00
73  7.2000000000000E-01 -7.8529938486771E-01  1.5562020257953E+00
74  7.3000000000000E-01 -7.9314621243460E-01  1.5596103420778E+00
75  7.4000000000000E-01 -7.9514356172033E-01  1.5601117728178E+00
76  7.5000000000000E-01 -7.9158312624798E-01  1.5576481049714E+00
77  7.6000000000000E-01 -7.8279241796571E-01  1.5521782665022E+00
78  7.7000000000000E-01 -7.6913039570020E-01  1.5436790948193E+00
79  7.8000000000000E-01 -7.5098292466006E-01  1.5321459176481E+00
80  7.9000000000000E-01 -7.2875811786198E-01  1.5175929376132E+00
81  8.0000000000000E-01 -7.0288160933292E-01  1.5000534149330E+00
82  8.1000000000000E-01 -6.7379180747569E-01  1.4795796457808E+00
83  8.2000000000000E-01 -6.4193517514374E-01  1.4562427370014E+00
84  8.3000000000000E-01 -6.0776158082488E-01  1.4301321809133E+00
85  8.4000000000000E-01 -5.7171976295077E-01  1.4013552368109E+00
86  8.5000000000000E-01 -5.3425294679395E-01  1.3700361284572E+00
87  8.6000000000000E-01 -4.9579465074461E-01  1.3363150692713E+00
88  8.7000000000000E-01 -4.5676471602570E-01  1.3003471290265E+00
89  8.8000000000000E-01 -4.1756559114793E-01  1.2623009576493E+00
90  8.9000000000000E-01 -3.7857889965776E-01  1.2223573831309E+00
91  9.0000000000000E-01 -3.4016231701165E-01  1.1807079016047E+00
92  9.1000000000000E-01 -3.0264677972822E-01  1.1375530783245E+00
93  9.2000000000000E-01 -2.6633404732759E-01  1.0931008785873E+00
94  9.3000000000000E-01 -2.3149463495105E-01  1.0475649476104E+00
95  9.4000000000000E-01 -1.9836613194657E-01  1.0011628580301E+00
96  9.5000000000000E-01 -1.6715191907776E-01  9.5411434305762E-01
97  9.6000000000000E-01 -1.3802029433118E-01  9.0663953247057E-01
98  9.7000000000000E-01 -1.1110401452051E-01  8.5895720757601E-01
99  9.8000000000000E-01 -8.6500256972544E-02  8.1128309011323E-01
100  9.9000000000000E-01 -6.4271002484785E-02  7.6382817883029E-01
101  1.0000000000000E+00 -4.4443837422832E-02  7.1679714623133E-01
102  1.0100000000000E+00 -2.7013169237250E-02  6.7038680681285E-01
103  1.0200000000000E+00 -1.1941845781960E-02  6.2478466704815E-01
104  1.0300000000000E+00  8.3683542379935E-04  5.8016756650037E-01
105  1.0400000000000E+00  1.1416746454628E-02  5.3670041879990E-01
106  1.0500000000000E+00  1.9916200223137E-02  4.9453506086368E-01
107  1.0600000000000E+00  2.6474902579021E-02  4.5380921870569E-01
108  1.0700000000000E+00  3.1250619935093E-02  4.1464559852897E-01
109  1.0800000000000E+00  3.4415603313799E-02  3.7715111253141E-01
110  1.0900000000000E+00  3.6152816304602E-02  3.4141625002373E-01
111  1.1000000000000E+00  3.6652021393324E-02  3.0751460606367E-01
112  1.1100000000000E+00  3.6105786442439E-02  2.7550258187093E-01
113  1.1200000000000E+00  3.4705480698197E-02  2.4541927379013E-01
114  1.1300000000000E+00  3.2637337595473E-02  2.1728657053443E-01
115  1.1400000000000E+00  3.0078669687049E-02  1.9110948182169E-01