U     ONCVPSP-4.0.1  r_core=   1.20013   1.20013   1.20013   1.20013
92.0000     32.0000      220329    zatom,zion,pspd
8      11   3     4   600     0    pspcod,pspxc,lmax,lloc,mmax,r2well
5.99000000  5.00000000  0.00000000    rchrg fchrg qchrg
3     2     2     2     0    nproj
1     1           extension_switch
0                         3.0764655083493E+01  3.0689555180377E+00 -5.0042338609518E-01
1  0.0000000000000E+00 -5.1545326673619E-08  1.8188547890041E-07  6.9153212378659E-08
2  1.0000000000000E-02  1.4596420957313E-01 -7.7396635966812E-02  1.4461140585523E-02
3  2.0000000000000E-02  2.9094916042653E-01 -1.5312377453526E-01  2.9186931076553E-02
4  3.0000000000000E-02  4.3399011867190E-01 -2.2555469734677E-01  4.4428029395743E-02
5  4.0000000000000E-02  5.7415099318242E-01 -2.9314684111726E-01  6.0407643017000E-02
6  5.0000000000000E-02  7.1053765386237E-01 -3.5448041755495E-01  7.7309118626134E-02
7  6.0000000000000E-02  8.4231008526723E-01 -4.0829302202920E-01  9.5265057364140E-02
8  7.0000000000000E-02  9.6869305097659E-01 -4.5350911837193E-01  1.1434837900976E-01
9  8.0000000000000E-02  1.0889849956669E+00 -4.8926346907838E-01  1.3456568930482E-01
10  9.0000000000000E-02  1.2025649726613E+00 -5.1491779484351E-01  1.5585322283723E-01
11  1.0000000000000E-01  1.3088974526408E+00 -5.3007018704224E-01  1.7807554233532E-01
12  1.1000000000000E-01  1.4075349417245E+00 -5.3455705276825E-01  2.0102707709189E-01
13  1.2000000000000E-01  1.4981184116397E+00 -5.2844763511129E-01  2.2443648196186E-01
14  1.3000000000000E-01  1.5803756185074E+00 -5.1203141196562E-01  2.4797369750275E-01
15  1.4000000000000E-01  1.6541174572005E+00 -4.8579892540287E-01  2.7125949487780E-01
16  1.5000000000000E-01  1.7192325627428E+00 -4.5041682152389E-01  2.9387719950694E-01
17  1.6000000000000E-01  1.7756804264996E+00 -4.0669807951305E-01  3.1538620826204E-01
18  1.7000000000000E-01  1.8234833409282E+00 -3.5556857119852E-01  3.3533684902544E-01
19  1.8000000000000E-01  1.8627175207901E+00 -2.9803121294924E-01  3.5328608096950E-01
20  1.9000000000000E-01  1.8935037697629E+00 -2.3512904590987E-01  3.6881350073237E-01
21  2.0000000000000E-01  1.9159980686108E+00 -1.6790860580413E-01  3.8153710491770E-01
22  2.1000000000000E-01  1.9303824542788E+00 -9.7384918996222E-02  3.9112826355267E-01
23  2.2000000000000E-01  1.9368565387534E+00 -2.4509388197028E-02  3.9732538215367E-01
24  2.3000000000000E-01  1.9356299831125E+00  4.9858288078529E-02  3.9994577107369E-01
25  2.4000000000000E-01  1.9269161971392E+00  1.2497317900756E-01  3.9889529841821E-01
26  2.5000000000000E-01  1.9109274799154E+00  2.0022238097733E-01  3.9417547502014E-01
27  2.6000000000000E-01  1.8878717540217E+00  2.7513591084062E-01  3.8588770425367E-01
28  2.7000000000000E-01  1.8579509777067E+00  3.4939091528142E-01  3.7423452293700E-01
29  2.8000000000000E-01  1.8213612482297E+00  4.2280913428103E-01  3.5951775898393E-01
30  2.9000000000000E-01  1.7782945381798E+00  4.9534781386631E-01  3.4213363340012E-01
31  3.0000000000000E-01  1.7289419376361E+00  5.6708451261176E-01  3.2256493517379E-01
32  3.1000000000000E-01  1.6734982111220E+00  6.3819647857943E-01  3.0137049411934E-01
33  3.2000000000000E-01  1.6121674218477E+00  7.0893548000466E-01  2.7917226551388E-01
34  3.3000000000000E-01  1.5451693288393E+00  7.7959914644436E-01  2.5664041839259E-01
35  3.4000000000000E-01  1.4727462270072E+00  8.5050001097067E-01  2.3447688402659E-01
36  3.5000000000000E-01  1.3951698773559E+00  9.2193353336677E-01  2.1339787022903E-01
37  3.6000000000000E-01  1.3127481652808E+00  9.9414642590612E-01  1.9411587912319E-01
38  3.7000000000000E-01  1.2258311295959E+00  1.0673065956457E+00  1.7732177985636E-01
39  3.8000000000000E-01  1.1348160234822E+00  1.1414759605189E+00  1.6366748308343E-01
40  3.9000000000000E-01  1.0401511002689E+00  1.2165872929585E+00  1.5374974114987E-01
41  4.0000000000000E-01  9.4233786073919E-01  1.2924260981278E+00  1.4809555768180E-01
42  4.1000000000000E-01  8.4193155289873E-01  1.3686183494582E+00  1.4714963423985E-01
43  4.2000000000000E-01  7.3953977788863E-01  1.4446246888621E+00  1.5126421185529E-01
44  4.3000000000000E-01  6.3581912467827E-01  1.5197414605912E+00  1.6069158414294E-01
45  4.4000000000000E-01  5.3146982881706E-01  1.5931086949886E+00  1.7557946915406E-01
46  4.5000000000000E-01  4.2722852419807E-01  1.6637249005747E+00  1.9596933234004E-01
47  4.6000000000000E-01  3.2385922879150E-01  1.7304682694511E+00  2.2179765624132E-01
48  4.7000000000000E-01  2.2214277299983E-01  1.7921236611529E+00  2.5290005714383E-01
49  4.8000000000000E-01  1.2286494018537E-01  1.8474145125666E+00  2.8901805820685E-01
50  4.9000000000000E-01  2.6803640781473E-02  1.8950386342972E+00  3.2980824554233E-01
51  5.0000000000000E-01 -6.5284517681662E-02  1.9337067036711E+00  3.7485346116645E-01
52  5.1000000000000E-01 -1.5267787384227E-01  1.9621821568649E+00  4.2367562703215E-01
53  5.2000000000000E-01 -2.3470316331326E-01  1.9793211212839E+00  4.7574974937216E-01
54  5.3000000000000E-01 -3.1074837039651E-01  1.9841110164624E+00  5.3051862369512E-01
55  5.4000000000000E-01 -3.8027458730792E-01  1.9757064877808E+00  5.8740774875131E-01
56  5.5000000000000E-01 -4.4282651441289E-01  1.9534614208116E+00  6.4583996279764E-01
57  5.6000000000000E-01 -4.9804127456565E-01  1.9169559119714E+00  7.0524933710481E-01
58  5.7000000000000E-01 -5.4565526552367E-01  1.8660172386389E+00  7.6509389885705E-01
59  5.8000000000000E-01 -5.8550883475099E-01  1.8007340728559E+00  8.2486680685019E-01
60  5.9000000000000E-01 -6.1754862856744E-01  1.7214634097821E+00  8.8410566666570E-01
61  6.0000000000000E-01 -6.4182754014414E-01  1.6288299270005E+00  9.4239974487913E-01
62  6.1000000000000E-01 -6.5850225569996E-01  1.5237177446679E+00  9.9939492161574E-01
63  6.2000000000000E-01 -6.6782847278432E-01  1.4072548102745E+00  1.0547963044739E+00
64  6.3000000000000E-01 -6.7015393611083E-01  1.2807903763086E+00  1.1083685114697E+00
65  6.4000000000000E-01 -6.6590950255273E-01  1.1458662657947E+00  1.1599337132119E+00
66  6.5000000000000E-01 -6.5559850534048E-01  1.0041828214972E+00  1.2093676021086E+00
67  6.6000000000000E-01 -6.3978473624462E-01  8.5756060265624E-01  1.2565935263725E+00
68  6.7000000000000E-01 -6.1907940197484E-01  7.0789902274694E-01  1.3015750865979E+00
69  6.8000000000000E-01 -5.9412743600195E-01  5.5713320873023E-01  1.3443075407850E+00
70  6.9000000000000E-01 -5.6559355880012E-01  4.0719040396853E-01  1.3848083983943E+00
71  7.0000000000000E-01 -5.3414847789090E-01  2.5994723249688E-01  1.4231076043707E+00
72  7.1000000000000E-01 -5.0045560431939E-01  1.1718909245155E-01  1.4592377196288E+00
73  7.2000000000000E-01 -4.6515863505051E-01 -1.9427146405593E-02  1.4932244953490E+00
74  7.3000000000000E-01 -4.2887031243863E-01 -1.4840609795620E-01  1.5250782152230E+00
75  7.4000000000000E-01 -3.9216262397510E-01 -2.6844159012257E-01  1.5547861436370E+00
76  7.5000000000000E-01 -3.5555864987952E-01 -3.7843848522799E-01  1.5823063702485E+00
77  7.6000000000000E-01 -3.1952620494077E-01 -4.7752811727369E-01  1.6075632844600E+00
78  7.7000000000000E-01 -2.8447335666723E-01 -5.6507709678037E-01  1.6304448491457E+00
79  7.8000000000000E-01 -2.5074583669655E-01 -6.4068946073489E-01  1.6508017741135E+00
80  7.9000000000000E-01 -2.1862629893747E-01 -7.0420236695520E-01  1.6684486187499E+00
81  8.0000000000000E-01 -1.8833531836644E-01 -7.5567574083913E-01  1.6831667826809E+00
82  8.1000000000000E-01 -1.6003397088009E-01 -7.9537647063068E-01  1.6947092756070E+00
83  8.2000000000000E-01 -1.3382778893560E-01 -8.2375790858818E-01  1.7028070950695E+00
84  8.3000000000000E-01 -1.0977185139280E-01 -8.4143556444386E-01  1.7071769858683E+00
85  8.4000000000000E-01 -8.7876740096586E-02 -8.4915997035146E-01  1.7075303089466E+00
86  8.5000000000000E-01 -6.8115080989384E-02 -8.4778775058800E-01  1.7035827121771E+00
87  8.6000000000000E-01 -5.0428384142229E-02 -8.3825194364128E-01  1.6950642715846E+00
88  8.7000000000000E-01 -3.4733904827746E-02 -8.2153259952305E-01  1.6817297596537E+00
89  8.8000000000000E-01 -2.0931265976358E-02 -7.9862861326096E-01  1.6633686975604E+00
90  8.9000000000000E-01 -8.9086100150707E-03 -7.7053165997819E-01  1.6398148600612E+00
91  9.0000000000000E-01  1.4519162090178E-03 -7.3820297243459E-01  1.6109549245984E+00
92  9.1000000000000E-01  1.0269497650457E-02 -7.0255355405766E-01  1.5767359887628E+00
93  9.2000000000000E-01  1.7660916130484E-02 -6.6442825581383E-01  1.5371717211427E+00
94  9.3000000000000E-01  2.3737802964315E-02 -6.2459397067325E-01  1.4923469580547E+00
95  9.4000000000000E-01  2.8604888535216E-02 -5.8373202212181E-01  1.4424206108065E+00
96  9.5000000000000E-01  3.2359210542885E-02 -5.4243465022701E-01  1.3876268030013E+00
97  9.6000000000000E-01  3.5090198600358E-02 -5.0120533690129E-01  1.3282742129578E+00
98  9.7000000000000E-01  3.6880514131607E-02 -4.6046256731924E-01  1.2647436506485E+00
99  9.8000000000000E-01  3.7807492596432E-02 -4.2054650216422E-01  1.1974839498479E+00
100  9.9000000000000E-01  3.7945011074984E-02 -3.8172793962503E-01  1.1270063028509E+00
101  1.0000000000000E+00  3.7365588985704E-02 -3.4421887986549E-01  1.0538772057945E+00
102  1.0100000000000E+00  3.6142523561050E-02 -3.0818396960978E-01  9.7871021626029E-01
103  1.0200000000000E+00  3.4351864674022E-02 -2.7375210084912E-01  9.0215675074002E-01
104  1.0300000000000E+00  3.2074045315335E-02 -2.4102746448385E-01  8.2489616729905E-01
105  1.0400000000000E+00  2.9395003678784E-02 -2.1009941458357E-01  7.4762538834017E-01
106  1.0500000000000E+00  2.6406659356401E-02 -1.8105057850284E-01  6.7104832003279E-01
107  1.0600000000000E+00  2.3206638235817E-02 -1.5396274802556E-01  5.9586531926253E-01
108  1.0700000000000E+00  1.9897176646693E-02 -1.2892020152246E-01  5.2276294674870E-01
109  1.0800000000000E+00  1.6583173584779E-02 -1.0601023171652E-01  4.5240422720954E-01
110  1.0900000000000E+00  1.3369398460742E-02 -8.5320781462983E-02  3.8541961537923E-01
111  1.1000000000000E+00  1.0356899153423E-02 -6.6935215509699E-02  3.2239884149444E-01
112  1.1100000000000E+00  7.6386894756847E-03 -5.0924373745733E-02  2.6388378282357E-01
113  1.1200000000000E+00  5.2948658310042E-03 -3.7336282998353E-02  2.1036248914303E-01
114  1.1300000000000E+00  3.3869564312972E-03 -2.6182838431565E-02  1.6226438296634E-01
115  1.1400000000000E+00  1.9517042770794E-03 -1.7424043739894E-02  1.1995672917187E-01
116  1.1500000000000E+00  8.9720639975387E-04 -1.0646540906921E-02  8.3720743229627E-02
117  1.1600000000000E+00  1.6982716991656E-04 -5.5830877881830E-03  5.3786838045739E-02
118  1.1700000000000E+00 -1.9424166640571E-04 -2.2800953132060E-03  3.0351253033637E-02
119  1.1800000000000E+00 -2.4374972504517E-04 -5.5473941024291E-04  1.3543946582254E-02
120  1.1900000000000E+00 -1.0714427253017E-04 -5.4135044285967E-06  3.3998605893618E-03
121  1.2000000000000E+00 -3.9850325284114E-07  3.0517044500555E-07  9.1718365292552E-06
122  1.2100000000000E+00 -1.0740732748138E-06  8.2069541868245E-07  2.4666643243335E-05
123  1.2200000000000E+00  1.1184201032124E-07 -3.8601101723401E-08 -3.0719196298692E-06
124  1.23  0.  0.  0.
125  1.24  0.  0.  0.
126  1.25  0.  0.  0.
127  1.26  0.  0.  0.
128  1.27  0.  0.  0.
129  1.28  0.  0.  0.
130  1.29  0.  0.  0.
131  1.30  0.  0.  0.
132  1.31  0.  0.  0.
133  1.32  0.  0.  0.
134  1.33  0.  0.  0.
135  1.34  0.  0.  0.
136  1.35  0.  0.  0.
137  1.36  0.  0.  0.
138  1.37  0.  0.  0.
139  1.38  0.  0.  0.
140  1.39  0.  0.  0.
141  1.40  0.  0.  0.
142  1.41  0.  0.  0.
143  1.42  0.  0.  0.
144  1.43  0.  0.  0.
145  1.44  0.  0.  0.
146  1.45  0.  0.  0.
147  1.46  0.  0.  0.
148  1.47  0.  0.  0.
149  1.48  0.  0.  0.
150  1.49  0.  0.  0.
151  1.50  0.  0.  0.
152  1.51  0.  0.  0.
153  1.52  0.  0.  0.
154  1.53  0.  0.  0.
155  1.54  0.  0.  0.
156  1.55  0.  0.  0.
157  1.56  0.  0.  0.
158  1.57  0.  0.  0.
159  1.58  0.  0.  0.
160  1.59  0.  0.  0.
161  1.60  0.  0.  0.
162  1.61  0.  0.  0.
163  1.62  0.  0.  0.
164  1.63  0.  0.  0.
165  1.64  0.  0.  0.
166  1.65  0.  0.  0.
167  1.66  0.  0.  0.
168  1.67  0.  0.  0.
169  1.68  0.  0.  0.
170  1.69  0.  0.  0.
171  1.70  0.  0.  0.
172  1.71  0.  0.  0.
173  1.72  0.  0.  0.
174  1.73  0.  0.  0.
175  1.74  0.  0.  0.
176  1.75  0.  0.  0.
177  1.76  0.  0.  0.
178  1.77  0.  0.  0.
179  1.78  0.  0.  0.
180  1.79  0.  0.  0.
181  1.80  0.  0.  0.
182  1.81  0.  0.  0.
183  1.82  0.  0.  0.
184  1.83  0.  0.  0.
185  1.84  0.  0.  0.
186  1.85  0.  0.  0.
187  1.86  0.  0.  0.
188  1.87  0.  0.  0.
189  1.88  0.  0.  0.
190  1.89  0.  0.  0.
191  1.90  0.  0.  0.
192  1.91  0.  0.  0.
193  1.92  0.  0.  0.
194  1.93  0.  0.  0.
195  1.94  0.  0.  0.
196  1.95  0.  0.  0.
197  1.96  0.  0.  0.
198  1.97  0.  0.  0.
199  1.98  0.  0.  0.
200  1.99  0.  0.  0.
201  2.00  0.  0.  0.
202  2.01  0.  0.  0.
203  2.02  0.  0.  0.
204  2.03  0.  0.  0.
205  2.04  0.  0.  0.
206  2.05  0.  0.  0.
207  2.06  0.  0.  0.
208  2.07  0.  0.  0.
209  2.08  0.  0.  0.
210  2.09  0.  0.  0.
211  2.10  0.  0.  0.
212  2.11  0.  0.  0.
213  2.12  0.  0.  0.
214  2.13  0.  0.  0.
215  2.14  0.  0.  0.
216  2.15  0.  0.  0.
217  2.16  0.  0.  0.
218  2.17  0.  0.  0.
219  2.18  0.  0.  0.
220  2.19  0.  0.  0.
221  2.20  0.  0.  0.
222  2.21  0.  0.  0.
223  2.22  0.  0.  0.
224  2.23  0.  0.  0.
225  2.24  0.  0.  0.
226  2.25  0.  0.  0.
227  2.26  0.  0.  0.
228  2.27  0.  0.  0.
229  2.28  0.  0.  0.
230  2.29  0.  0.  0.
231  2.30  0.  0.  0.
232  2.31  0.  0.  0.
233  2.32  0.  0.  0.
234  2.33  0.  0.  0.
235  2.34  0.  0.  0.
236  2.35  0.  0.  0.
237  2.36  0.  0.  0.
238  2.37  0.  0.  0.
239  2.38  0.  0.  0.
240  2.39  0.  0.  0.
241  2.40  0.  0.  0.
242  2.41  0.  0.  0.
243  2.42  0.  0.  0.
244  2.43  0.  0.  0.
245  2.44  0.  0.  0.
246  2.45  0.  0.  0.
247  2.46  0.  0.  0.
248  2.47  0.  0.  0.
249  2.48  0.  0.  0.
250  2.49  0.  0.  0.
251  2.50  0.  0.  0.
252  2.51  0.  0.  0.
253  2.52  0.  0.  0.
254  2.53  0.  0.  0.
255  2.54  0.  0.  0.
256  2.55  0.  0.  0.
257  2.56  0.  0.  0.
258  2.57  0.  0.  0.
259  2.58  0.  0.  0.
260  2.59  0.  0.  0.
261  2.60  0.  0.  0.
262  2.61  0.  0.  0.
263  2.62  0.  0.  0.
264  2.63  0.  0.  0.
265  2.64  0.  0.  0.
266  2.65  0.  0.  0.
267  2.66  0.  0.  0.
268  2.67  0.  0.  0.
269  2.68  0.  0.  0.
270  2.69  0.  0.  0.
271  2.70  0.  0.  0.
272  2.71  0.  0.  0.
273  2.72  0.  0.  0.
274  2.73  0.  0.  0.
275  2.74  0.  0.  0.
276  2.75  0.  0.  0.
277  2.76  0.  0.  0.
278  2.77  0.  0.  0.
279  2.78  0.  0.  0.
280  2.79  0.  0.  0.
281  2.80  0.  0.  0.
282  2.81  0.  0.  0.
283  2.82  0.  0.  0.
284  2.83  0.  0.  0.
285  2.84  0.  0.  0.
286  2.85  0.  0.  0.
287  2.86  0.  0.  0.
288  2.87  0.  0.  0.
289  2.88  0.  0.  0.
290  2.89  0.  0.  0.
291  2.90  0.  0.  0.
292  2.91  0.  0.  0.
293  2.92  0.  0.  0.
294  2.93  0.  0.  0.
295  2.94  0.  0.  0.
296  2.95  0.  0.  0.
297  2.96  0.  0.  0.
298  2.97  0.  0.  0.
299  2.98  0.  0.  0.
300  2.99  0.  0.  0.
301  3.00  0.  0.  0.
302  3.01  0.  0.  0.
303  3.02  0.  0.  0.
304  3.03  0.  0.  0.
305  3.04  0.  0.  0.
306  3.05  0.  0.  0.
307  3.06  0.  0.  0.
308  3.07  0.  0.  0.
309  3.08  0.  0.  0.
310  3.09  0.  0.  0.
311  3.10  0.  0.  0.
312  3.11  0.  0.  0.
313  3.12  0.  0.  0.
314  3.13  0.  0.  0.
315  3.14  0.  0.  0.
316  3.15  0.  0.  0.
317  3.16  0.  0.  0.
318  3.17  0.  0.  0.
319  3.18  0.  0.  0.
320  3.19  0.  0.  0.
321  3.20  0.  0.  0.
322  3.21  0.  0.  0.
323  3.22  0.  0.  0.
324  3.23  0.  0.  0.
325  3.24  0.  0.  0.
326  3.25  0.  0.  0.
327  3.26  0.  0.  0.
328  3.27  0.  0.  0.
329  3.28  0.  0.  0.
330  3.29  0.  0.  0.
331  3.30  0.  0.  0.
332  3.31  0.  0.  0.
333  3.32  0.  0.  0.
334  3.33  0.  0.  0.
335  3.34  0.  0.  0.
336  3.35  0.  0.  0.
337  3.36  0.  0.  0.
338  3.37  0.  0.  0.
339  3.38  0.  0.  0.
340  3.39  0.  0.  0.
341  3.40  0.  0.  0.
342  3.41  0.  0.  0.
343  3.42  0.  0.  0.
344  3.43  0.  0.  0.
345  3.44  0.  0.  0.
346  3.45  0.  0.  0.
347  3.46  0.  0.  0.
348  3.47  0.  0.  0.
349  3.48  0.  0.  0.
350  3.49  0.  0.  0.
351  3.50  0.  0.  0.
352  3.51  0.  0.  0.
353  3.52  0.  0.  0.
354  3.53  0.  0.  0.
355  3.54  0.  0.  0.
356  3.55  0.  0.  0.
357  3.56  0.  0.  0.
358  3.57  0.  0.  0.
359  3.58  0.  0.  0.
360  3.59  0.  0.  0.
361  3.60  0.  0.  0.
362  3.61  0.  0.  0.
363  3.62  0.  0.  0.
364  3.63  0.  0.  0.
365  3.64  0.  0.  0.
366  3.65  0.  0.  0.
367  3.66  0.  0.  0.
368  3.67  0.  0.  0.
369  3.68  0.  0.  0.
370  3.69  0.  0.  0.
371  3.70  0.  0.  0.
372  3.71  0.  0.  0.
373  3.72  0.  0.  0.
374  3.73  0.  0.  0.
375  3.74  0.  0.  0.
376  3.75  0.  0.  0.
377  3.76  0.  0.  0.
378  3.77  0.  0.  0.
379  3.78  0.  0.  0.
380  3.79  0.  0.  0.
381  3.80  0.  0.  0.
382  3.81  0.  0.  0.
383  3.82  0.  0.  0.
384  3.83  0.  0.  0.
385  3.84  0.  0.  0.
386  3.85  0.  0.  0.
387  3.86  0.  0.  0.
388  3.87  0.  0.  0.
389  3.88  0.  0.  0.
390  3.89  0.  0.  0.
391  3.90  0.  0.  0.
392  3.91  0.  0.  0.
393  3.92  0.  0.  0.
394  3.93  0.  0.  0.
395  3.94  0.  0.  0.
396  3.95  0.  0.  0.
397  3.96  0.  0.  0.
398  3.97  0.  0.  0.
399  3.98  0.  0.  0.
400  3.99  0.  0.  0.
401  4.00  0.  0.  0.
402  4.01  0.  0.  0.
403  4.02  0.  0.  0.
404  4.03  0.  0.  0.
405  4.04  0.  0.  0.
406  4.05  0.  0.  0.
407  4.06  0.  0.  0.
408  4.07  0.  0.  0.
409  4.08  0.  0.  0.
410  4.09  0.  0.  0.
411  4.10  0.  0.  0.
412  4.11  0.  0.  0.
413  4.12  0.  0.  0.
414  4.13  0.  0.  0.
415  4.14  0.  0.  0.
416  4.15  0.  0.  0.
417  4.16  0.  0.  0.
418  4.17  0.  0.  0.
419  4.18  0.  0.  0.
420  4.19  0.  0.  0.
421  4.20  0.  0.  0.
422  4.21  0.  0.  0.
423  4.22  0.  0.  0.
424  4.23  0.  0.  0.
425  4.24  0.  0.  0.
426  4.25  0.  0.  0.
427  4.26  0.  0.  0.
428  4.27  0.  0.  0.
429  4.28  0.  0.  0.
430  4.29  0.  0.  0.
431  4.30  0.  0.  0.
432  4.31  0.  0.  0.
433  4.32  0.  0.  0.
434  4.33  0.  0.  0.
435  4.34  0.  0.  0.
436  4.35  0.  0.  0.
437  4.36  0.  0.  0.
438  4.37  0.  0.  0.
439  4.38  0.  0.  0.
440  4.39  0.  0.  0.
441  4.40  0.  0.  0.
442  4.41  0.  0.  0.
443  4.42  0.  0.  0.
444  4.43  0.  0.  0.
445  4.44  0.  0.  0.
446  4.45  0.  0.  0.
447  4.46  0.  0.  0.
448  4.47  0.  0.  0.
449  4.48  0.  0.  0.
450  4.49  0.  0.  0.
451  4.50  0.  0.  0.
452  4.51  0.  0.  0.
453  4.52  0.  0.  0.
454  4.53  0.  0.  0.
455  4.54  0.  0.  0.
456  4.55  0.  0.  0.
457  4.56  0.  0.  0.
458  4.57  0.  0.  0.
459  4.58  0.  0.  0.
460  4.59  0.  0.  0.
461  4.60  0.  0.  0.
462  4.61  0.  0.  0.
463  4.62  0.  0.  0.
464  4.63  0.  0.  0.
465  4.64  0.  0.  0.
466  4.65  0.  0.  0.
467  4.66  0.  0.  0.
468  4.67  0.  0.  0.
469  4.68  0.  0.  0.
470  4.69  0.  0.  0.
471  4.70  0.  0.  0.
472  4.71  0.  0.  0.
473  4.72  0.  0.  0.
474  4.73  0.  0.  0.
475  4.74  0.  0.  0.
476  4.75  0.  0.  0.
477  4.76  0.  0.  0.
478  4.77  0.  0.  0.
479  4.78  0.  0.  0.
480  4.79  0.  0.  0.
481  4.80  0.  0.  0.
482  4.81  0.  0.  0.
483  4.82  0.  0.  0.
484  4.83  0.  0.  0.
485  4.84  0.  0.  0.
486  4.85  0.  0.  0.
487  4.86  0.  0.  0.
488  4.87  0.  0.  0.
489  4.88  0.  0.  0.
490  4.89  0.  0.  0.
491  4.90  0.  0.  0.
492  4.91  0.  0.  0.
493  4.92  0.  0.  0.
494  4.93  0.  0.  0.
495  4.94  0.  0.  0.
496  4.95  0.  0.  0.
497  4.96  0.  0.  0.
498  4.97  0.  0.  0.
499  4.98  0.  0.  0.
500  4.99  0.  0.  0.
501  5.00  0.  0.  0.
502  5.01  0.  0.  0.
503  5.02  0.  0.  0.
504  5.03  0.  0.  0.
505  5.04  0.  0.  0.
506  5.05  0.  0.  0.
507  5.06  0.  0.  0.
508  5.07  0.  0.  0.
509  5.08  0.  0.  0.
510  5.09  0.  0.  0.
511  5.10  0.  0.  0.
512  5.11  0.  0.  0.
513  5.12  0.  0.  0.
514  5.13  0.  0.  0.
515  5.14  0.  0.  0.
516  5.15  0.  0.  0.
517  5.16  0.  0.  0.
518  5.17  0.  0.  0.
519  5.18  0.  0.  0.
520  5.19  0.  0.  0.
521  5.20  0.  0.  0.
522  5.21  0.  0.  0.
523  5.22  0.  0.  0.
524  5.23  0.  0.  0.
525  5.24  0.  0.  0.
526  5.25  0.  0.  0.
527  5.26  0.  0.  0.
528  5.27  0.  0.  0.
529  5.28  0.  0.  0.
530  5.29  0.  0.  0.
531  5.30  0.  0.  0.
532  5.31  0.  0.  0.
533  5.32  0.  0.  0.
534  5.33  0.  0.  0.
535  5.34  0.  0.  0.
536  5.35  0.  0.  0.
537  5.36  0.  0.  0.
538  5.37  0.  0.  0.
539  5.38  0.  0.  0.
540  5.39  0.  0.  0.
541  5.40  0.  0.  0.
542  5.41  0.  0.  0.
543  5.42  0.  0.  0.
544  5.43  0.  0.  0.
545  5.44  0.  0.  0.
546  5.45  0.  0.  0.
547  5.46  0.  0.  0.
548  5.47  0.  0.  0.
549  5.48  0.  0.  0.
550  5.49  0.  0.  0.
551  5.50  0.  0.  0.
552  5.51  0.  0.  0.
553  5.52  0.  0.  0.
554  5.53  0.  0.  0.
555  5.54  0.  0.  0.
556  5.55  0.  0.  0.
557  5.56  0.  0.  0.
558  5.57  0.  0.  0.
559  5.58  0.  0.  0.
560  5.59  0.  0.  0.
561  5.60  0.  0.  0.
562  5.61  0.  0.  0.
563  5.62  0.  0.  0.
564  5.63  0.  0.  0.
565  5.64  0.  0.  0.
566  5.65  0.  0.  0.
567  5.66  0.  0.  0.
568  5.67  0.  0.  0.
569  5.68  0.  0.  0.
570  5.69  0.  0.  0.
571  5.70  0.  0.  0.
572  5.71  0.  0.  0.
573  5.72  0.  0.  0.
574  5.73  0.  0.  0.
575  5.74  0.  0.  0.
576  5.75  0.  0.  0.
577  5.76  0.  0.  0.
578  5.77  0.  0.  0.
579  5.78  0.  0.  0.
580  5.79  0.  0.  0.
581  5.80  0.  0.  0.
582  5.81  0.  0.  0.
583  5.82  0.  0.  0.
584  5.83  0.  0.  0.
585  5.84  0.  0.  0.
586  5.85  0.  0.  0.
587  5.86  0.  0.  0.
588  5.87  0.  0.  0.
589  5.88  0.  0.  0.
590  5.89  0.  0.  0.
591  5.90  0.  0.  0.
592  5.91  0.  0.  0.
593  5.92  0.  0.  0.
594  5.93  0.  0.  0.
595  5.94  0.  0.  0.
596  5.95  0.  0.  0.
597  5.96  0.  0.  0.
598  5.97  0.  0.  0.
599  5.98  0.  0.  0.
600  5.99  0.  0.  0.
1                         9.5603314469726E+00 -3.6597084076499E-01
1  0.0000000000000E+00 -2.5302126782645E-09 -5.8969336136361E-08
2  1.0000000000000E-02  3.4730247766790E-03  1.7508322295223E-03
3  2.0000000000000E-02  1.3868158811211E-02  7.0039855288448E-03
4  3.0000000000000E-02  3.1113679721980E-02  1.5760547309885E-02
5  4.0000000000000E-02  5.5090380737916E-02  2.8019429962428E-02
6  5.0000000000000E-02  8.5632074012537E-02  4.3773164379148E-02
7  6.0000000000000E-02  1.2252630986891E-01  6.3002292263213E-02
8  7.0000000000000E-02  1.6551532559845E-01  8.5668625799422E-02
9  8.0000000000000E-02  2.1429723996661E-01  1.1170770223913E-01
10  9.0000000000000E-02  2.6852751115795E-01  1.4102080745939E-01
11  1.0000000000000E-01  3.2782067638514E-01  1.7346697476590E-01
12  1.1000000000000E-01  3.9175239069799E-01  2.0885538178037E-01
13  1.2000000000000E-01  4.5986178060793E-01  2.4693856840592E-01
14  1.3000000000000E-01  5.3165412499072E-01  2.8740688240246E-01
15  1.4000000000000E-01  6.0660387138940E-01  3.2988452642701E-01
16  1.5000000000000E-01  6.8415799040561E-01  3.7392753248457E-01
17  1.6000000000000E-01  7.6373966447676E-01  4.1902392813263E-01
18  1.7000000000000E-01  8.4475230016884E-01  4.6459628552548E-01
19  1.8000000000000E-01  9.2658384538105E-01  5.1000676195366E-01
20  1.9000000000000E-01  1.0086113848009E+00  5.5456465175797E-01
21  2.0000000000000E-01  1.0902059788266E+00  5.9753637746604E-01
22  2.1000000000000E-01  1.1707377032586E+00  6.3815775595350E-01
23  2.2000000000000E-01  1.2495808396292E+00  6.7564828665245E-01
24  2.3000000000000E-01  1.3261191593484E+00  7.0922712652597E-01
25  2.4000000000000E-01  1.3997512391547E+00  7.3813034372506E-01
26  2.5000000000000E-01  1.4698957408804E+00  7.6162898127313E-01
27  2.6000000000000E-01  1.5359965854749E+00  7.7904741613081E-01
28  2.7000000000000E-01  1.5975279497187E+00  7.8978146944618E-01
29  2.8000000000000E-01  1.6539990142049E+00  7.9331571202081E-01
30  2.9000000000000E-01  1.7049583930272E+00  7.8923941574804E-01
31  3.0000000000000E-01  1.7499981791784E+00  7.7726062711001E-01
32  3.1000000000000E-01  1.7887575448888E+00  7.5721788221545E-01
33  3.2000000000000E-01  1.8209258429035E+00  7.2908914315929E-01
34  3.3000000000000E-01  1.8462451628630E+00  6.9299761092563E-01
35  3.4000000000000E-01  1.8645123062960E+00  6.4921415833880E-01
36  3.5000000000000E-01  1.8755801540331E+00  5.9815622492012E-01
37  3.6000000000000E-01  1.8793584108128E+00  5.4038312078177E-01
38  3.7000000000000E-01  1.8758137231944E+00  4.7658779545365E-01
39  3.8000000000000E-01  1.8649691782953E+00  4.0758523620421E-01
40  3.9000000000000E-01  1.8469032020221E+00  3.3429776534833E-01
41  4.0000000000000E-01  1.8217478860609E+00  2.5773760368012E-01
42  4.1000000000000E-01  1.7896867826300E+00  1.7898715417821E-01
43  4.2000000000000E-01  1.7509522146304E+00  9.9177533475314E-02
44  4.3000000000000E-01  1.7058221561031E+00  1.9465935662237E-02
45  4.4000000000000E-01  1.6546167436574E+00 -5.8987548274227E-02
46  4.5000000000000E-01  1.5976944836041E+00 -1.3504301317787E-01
47  4.6000000000000E-01  1.5354482218550E+00 -2.0760308416660E-01
48  4.7000000000000E-01  1.4683009441863E+00 -2.7563390488741E-01
49  4.8000000000000E-01  1.3967014732579E+00 -3.3818419443439E-01
50  4.9000000000000E-01  1.3211201259006E+00 -3.9440185949123E-01
51  5.0000000000000E-01  1.2420443897931E+00 -4.4354772699441E-01
52  5.1000000000000E-01  1.1599746729180E+00 -4.8500605585162E-01
53  5.2000000000000E-01  1.0754201723660E+00 -5.1829159094244E-01
54  5.3000000000000E-01  9.8889490139531E-01 -5.4305303531180E-01
55  5.4000000000000E-01  9.0091390546270E-01 -5.5907293335765E-01
56  5.5000000000000E-01  8.1198968951535E-01 -5.6626407495969E-01
57  5.6000000000000E-01  7.2262887048798E-01 -5.6466264388285E-01
58  5.7000000000000E-01  6.3332906099075E-01 -5.5441843950190E-01
59  5.8000000000000E-01  5.4457598288443E-01 -5.3578259523606E-01
60  5.9000000000000E-01  4.5684080308069E-01 -5.0909329671835E-01
61  6.0000000000000E-01  3.7057767869497E-01 -4.7476006478729E-01
62  6.1000000000000E-01  2.8622149479209E-01 -4.3324721059718E-01
63  6.2000000000000E-01  2.0418577552172E-01 -3.8505709087781E-01
64  6.3000000000000E-01  1.2486074850409E-01 -3.3071378974694E-01
65  6.4000000000000E-01  4.8611542901302E-02 -2.7074782937410E-01
66  6.5000000000000E-01 -2.4223496364387E-02 -2.0568246587699E-01
67  6.6000000000000E-01 -9.3334392421361E-02 -1.3602206053976E-01
68  6.7000000000000E-01 -1.5844102794088E-01 -6.2242931950634E-02
69  6.8000000000000E-01 -2.1929454849917E-01  1.5213005209866E-02
70  6.9000000000000E-01 -2.7567867586006E-01  9.5941620810965E-02
71  7.0000000000000E-01 -3.2741092271316E-01  1.7957689532805E-01
72  7.1000000000000E-01 -3.7434369383057E-01  2.6578824104963E-01
73  7.2000000000000E-01 -4.1636525230407E-01  3.5427499139337E-01
74  7.3000000000000E-01 -4.5340052382415E-01  4.4475834949898E-01
75  7.4000000000000E-01 -4.8541170717342E-01  5.3697119614304E-01
76  7.5000000000000E-01 -5.1239865551657E-01  6.3064625247399E-01
77  7.6000000000000E-01 -5.3439899092422E-01  7.2550317142423E-01
78  7.7000000000000E-01 -5.5148791406688E-01  8.2123518980312E-01
79  7.8000000000000E-01 -5.6377767229949E-01  9.1749600853392E-01
80  7.9000000000000E-01 -5.7141665250234E-01  1.0138875795668E+00
81  8.0000000000000E-01 -5.7458807005714E-01  1.1099494637953E+00
82  8.1000000000000E-01 -5.7350823215377E-01  1.2051503848223E+00
83  8.2000000000000E-01 -5.6842436210552E-01  1.2988825395323E+00
84  8.3000000000000E-01 -5.5961198129405E-01  1.3904591398895E+00
85  8.4000000000000E-01 -5.4737185649885E-01  1.4791155537628E+00
86  8.5000000000000E-01 -5.3202653236506E-01  1.5640142892022E+00
87  8.6000000000000E-01 -5.1391648125348E-01  1.6442539304303E+00
88  8.7000000000000E-01 -4.9339591529250E-01  1.7188819893507E+00
89  8.8000000000000E-01 -4.7082831768164E-01  1.7869114884867E+00
90  8.9000000000000E-01 -4.4658176174550E-01  1.8473409450183E+00
91  9.0000000000000E-01 -4.2102409647510E-01  1.8991772861176E+00
92  9.1000000000000E-01 -3.9451808591363E-01  1.9414610980734E+00
93  9.2000000000000E-01 -3.6741659637647E-01  1.9732935004525E+00
94  9.3000000000000E-01 -3.4005792982161E-01  1.9938638459649E+00
95  9.4000000000000E-01 -3.1276140345043E-01  2.0024773804062E+00
96  9.5000000000000E-01 -2.8582327463838E-01  1.9985819578924E+00
97  9.6000000000000E-01 -2.5951310646996E-01  1.9817928965544E+00
98  9.7000000000000E-01 -2.3407066247072E-01  1.9519150800014E+00
99  9.8000000000000E-01 -2.0970340967107E-01  1.9089614602092E+00
100  9.9000000000000E-01 -1.8658469706552E-01  1.8531671971581E+00
101  1.0000000000000E+00 -1.6485266210963E-01  1.7849987775489E+00
102  1.0100000000000E+00 -1.4460990146525E-01  1.7051575863661E+00
103  1.0200000000000E+00 -1.2592392416588E-01  1.6145775572601E+00
104  1.0300000000000E+00 -1.0882838620167E-01  1.5144166962140E+00
105  1.0400000000000E+00 -9.3325085757356E-02  1.4060424524812E+00
106  1.0500000000000E+00 -7.9386678501133E-02  1.2910110960240E+00
107  1.0600000000000E+00 -6.6960052996406E-02  1.1710414458193E+00
108  1.0700000000000E+00 -5.5970288093671E-02  1.0479834721398E+00
109  1.0800000000000E+00 -4.6325097527077E-02  9.2378246329088E-01
110  1.0900000000000E+00 -3.7919652491794E-02  8.0043959690013E-01
111  1.1000000000000E+00 -3.0641661098939E-02  6.7996988343114E-01
112  1.1100000000000E+00 -2.4376574718986E-02  5.6435855049426E-01
113  1.1200000000000E+00 -1.9012775080241E-02  4.5551707996168E-01
114  1.1300000000000E+00 -1.4446689356323E-02  3.5523949211887E-01
115  1.1400000000000E+00 -1.0587683402834E-02  2.6516027680801E-01
116  1.1500000000000E+00 -7.3876809595070E-03  1.8653788539865E-01
117  1.1600000000000E+00 -4.8005047807978E-03  1.2051673066148E-01
118  1.1700000000000E+00 -2.7701812970529E-03  6.8226957139911E-02
119  1.1800000000000E+00 -1.2771235174501E-03  3.0469910897743E-02
120  1.1900000000000E+00 -3.3406688098919E-04  7.6357240876927E-03
121  1.2000000000000E+00 -9.3537649875909E-07  2.0421091662501E-05
122  1.2100000000000E+00 -2.5146451723717E-06  5.5271140884699E-05
123  1.2200000000000E+00  3.0649698656721E-07 -6.8932457082165E-06
124  1.23  0.  0.
125  1.24  0.  0.
126  1.25  0.  0.
127  1.26  0.  0.
128  1.27  0.  0.
129  1.28  0.  0.
130  1.29  0.  0.
131  1.30  0.  0.
132  1.31  0.  0.
133  1.32  0.  0.