U     ONCVPSP-4.0.1  r_core=   1.25145   1.24399   1.25145   1.25145
92.0000     32.0000      220329    zatom,zion,pspd
8      11   3     4   600     0    pspcod,pspxc,lmax,lloc,mmax,r2well
5.99000000  5.00000000  0.00000000    rchrg fchrg qchrg
3     2     2     2     0    nproj
1     1           extension_switch
0                         3.1870036289584E+01  2.5617228080757E+00 -5.1450311323337E-01
1  0.0000000000000E+00 -1.0629030544607E-08  4.4065230686563E-08  8.8970090184048E-09
2  1.0000000000000E-02  1.4512166200336E-01 -7.1050768124008E-02  2.8300143870269E-02
3  2.0000000000000E-02  2.8942309594738E-01 -1.4102148470649E-01  5.6440663938743E-02
4  3.0000000000000E-02  4.3209110015109E-01 -2.0884879979597E-01  8.4261782504218E-02
5  4.0000000000000E-02  5.7232641692267E-01 -2.7350237679476E-01  1.1160347528132E-01
6  5.0000000000000E-02  7.0935043552726E-01 -3.3400043658483E-01  1.3830549872488E-01
7  6.0000000000000E-02  8.4241158032433E-01 -3.8942417982487E-01  1.6420759139760E-01
8  7.0000000000000E-02  9.7079129218316E-01 -4.3893076765455E-01  1.8914989647201E-01
9  8.0000000000000E-02  1.0938095219140E+00 -4.8176458510689E-01  2.1297364356054E-01
10  9.0000000000000E-02  1.2108296670631E+00 -5.1726656373943E-01  2.3552211751204E-01
11  1.0000000000000E-01  1.3212628975984E+00 -5.4488139858479E-01  2.5664192994786E-01
12  1.1000000000000E-01  1.4245718312913E+00 -5.6416255750981E-01  2.7618459653148E-01
13  1.2000000000000E-01  1.5202735354815E+00 -5.7477504633703E-01  2.9400840969706E-01
14  1.3000000000000E-01  1.6079418478837E+00 -5.7649595842790E-01  3.0998058325047E-01
15  1.4000000000000E-01  1.6872090246349E+00 -5.6921290066734E-01  3.2397963234703E-01
16  1.5000000000000E-01  1.7577667384051E+00 -5.5292044680996E-01  3.3589794028326E-01
17  1.6000000000000E-01  1.8193664626377E+00 -5.2771482200369E-01  3.4564445272723E-01
18  1.7000000000000E-01  1.8718192894470E+00 -4.9378706725802E-01  3.5314743082918E-01
19  1.8000000000000E-01  1.9149952380344E+00 -4.5141496822712E-01  3.5835718742827E-01
20  1.9000000000000E-01  1.9488221174439E+00 -4.0095405781165E-01  3.6124872556607E-01
21  2.0000000000000E-01  1.9732840118709E+00 -3.4282801600604E-01  3.6182419593193E-01
22  2.1000000000000E-01  1.9884194585034E+00 -2.7751879277423E-01  3.6011508982113E-01
23  2.2000000000000E-01  1.9943193870125E+00 -2.0555677059726E-01  3.5618408672598E-01
24  2.3000000000000E-01  1.9911248864412E+00 -1.2751126315763E-01  3.5012648076725E-01
25  2.4000000000000E-01  1.9790248595587E+00 -4.3981616270485E-02  3.4207111769117E-01
26  2.5000000000000E-01  1.9582536170488E+00  4.4410862137756E-02  3.3218078391292E-01
27  2.6000000000000E-01  1.9290884545247E+00  1.3702996294879E-01  3.2065200082221E-01
28  2.7000000000000E-01  1.8918472447496E+00  2.3323049997584E-01  3.0771419095164E-01
29  2.8000000000000E-01  1.8468860660350E+00  3.3236302560136E-01  2.9362819727587E-01
30  2.9000000000000E-01  1.7945968760859E+00  4.3377732375510E-01  2.7868415244059E-01
31  3.0000000000000E-01  1.7354052290689E+00  5.3682472289271E-01  2.6319871067234E-01
32  3.1000000000000E-01  1.6697680228744E+00  6.4085932568450E-01  2.4751167104791E-01
33  3.2000000000000E-01  1.5981712539059E+00  7.4523830127635E-01  2.3198203623804E-01
34  3.3000000000000E-01  1.5211277486700E+00  8.4932142843885E-01  2.1698356536120E-01
35  3.4000000000000E-01  1.4391748353220E+00  9.5247011199740E-01  2.0289989276787E-01
36  3.5000000000000E-01  1.3528719144391E+00  1.0540461193481E+00  1.9011929606074E-01
37  3.6000000000000E-01  1.2627978868322E+00  1.1534102976268E+00  1.7902920612109E-01
38  3.7000000000000E-01  1.1695483972972E+00  1.2499215346494E+00  1.7001055910310E-01
39  3.8000000000000E-01  1.0737328568373E+00  1.3429362178988E+00  1.6343209508262E-01
40  3.9000000000000E-01  9.7597121198930E-01  1.4318084258763E+00  1.5964471019583E-01
41  4.0000000000000E-01  8.7689043825647E-01  1.5158910557195E+00  1.5897596863365E-01
42  4.1000000000000E-01  7.7712074501915E-01  1.5945380511887E+00  1.6172487780857E-01
43  4.2000000000000E-01  6.7729149130034E-01  1.6671078473652E+00  1.6815702449494E-01
44  4.3000000000000E-01  5.7802682496662E-01  1.7329680944222E+00  1.7850016194159E-01
45  4.4000000000000E-01  4.7994107186957E-01  1.7915016645948E+00  1.9294032811123E-01
46  4.5000000000000E-01  3.8363391554068E-01  1.8421138861751E+00  2.1161856361567E-01
47  4.6000000000000E-01  2.8968542180575E-01  1.8842408882302E+00  2.3462828493006E-01
48  4.7000000000000E-01  1.9865097553028E-01  1.9173588821004E+00  2.6201335445945E-01
49  4.8000000000000E-01  1.1105620811949E-01  1.9409941527877E+00  2.9376687439407E-01
50  4.9000000000000E-01  2.7392003885255E-02  1.9547334871986E+00  3.2983071642800E-01
51  5.0000000000000E-01 -5.1890319473256E-02  1.9582347287093E+00  3.7009578472788E-01
52  5.1000000000000E-01 -1.2638355661138E-01  1.9512371202863E+00  4.1440299540581E-01
53  5.2000000000000E-01 -1.9572878540405E-01  1.9335710826271E+00  4.6254494252298E-01
54  5.3000000000000E-01 -2.5961906356067E-01  1.9051670703480E+00  5.1426820864182E-01
55  5.4000000000000E-01 -3.1780255656419E-01  1.8660631585452E+00  5.6927626741690E-01
56  5.5000000000000E-01 -3.7008501063564E-01  1.8164110340463E+00  6.2723291687857E-01
57  5.6000000000000E-01 -4.1633149557434E-01  1.7564800998698E+00  6.8776617506432E-01
58  5.7000000000000E-01 -4.5646735623165E-01  1.6866594468852E+00  7.5047256458056E-01
59  5.8000000000000E-01 -4.9047832767844E-01  1.6074575020768E+00  8.1492170954982E-01
60  5.9000000000000E-01 -5.1840978736979E-01  1.5194992264321E+00  8.8066116718070E-01
61  6.0000000000000E-01 -5.4036513726770E-01  1.4235208052934E+00  9.4722141678823E-01
62  6.1000000000000E-01 -5.5650332936816E-01  1.3203618477392E+00  1.0141209313464E+00
63  6.2000000000000E-01 -5.6703556876690E-01  1.2109551867642E+00  1.0808712603738E+00
64  6.3000000000000E-01 -5.7222124865033E-01  1.0963144461864E+00  1.1469820579111E+00
65  6.4000000000000E-01 -5.7236319077213E-01  9.7751961078621E-01  1.2119659952900E+00
66  6.5000000000000E-01 -5.6780228246402E-01  8.5570090076707E-01  1.2753435050392E+00
67  6.6000000000000E-01 -5.5891161646284E-01  7.3202130795005E-01  1.3366473093588E+00
68  6.7000000000000E-01 -5.4609025231993E-01  6.0765819719634E-01  1.3954266938419E+00
69  6.8000000000000E-01 -5.2975672747446E-01  4.8378441070988E-01  1.4512514942737E+00
70  6.9000000000000E-01 -5.1034245190844E-01  3.6154933385342E-01  1.5037157711780E+00
71  7.0000000000000E-01 -4.8828512245007E-01  2.4206038806333E-01  1.5524411530963E+00
72  7.1000000000000E-01 -4.6402229116524E-01  1.2636540900520E-01  1.5970798352298E+00
73  7.2000000000000E-01 -4.3798521691527E-01  1.5436346413822E-02  1.6373172249315E+00
74  7.3000000000000E-01 -4.1059312020991E-01 -8.9845313320389E-02  1.6728742295369E+00
75  7.4000000000000E-01 -3.8224794923049E-01 -1.8870104871149E-01  1.7035091851548E+00
76  7.5000000000000E-01 -3.5332974971260E-01 -2.8046543483205E-01  1.7290194273226E+00
77  7.6000000000000E-01 -3.2419271374344E-01 -3.6459367924893E-01  1.7492425059382E+00
78  7.7000000000000E-01 -2.9516196299984E-01 -4.4066641166281E-01  1.7640570477257E+00
79  7.8000000000000E-01 -2.6653110114774E-01 -5.0839165644152E-01  1.7733832698033E+00
80  7.9000000000000E-01 -2.3856054870260E-01 -5.6760399892664E-01  1.7771831478723E+00
81  8.0000000000000E-01 -2.1147665228776E-01 -6.1826103732321E-01  1.7754602423120E+00
82  8.1000000000000E-01 -1.8547153959935E-01 -6.6043728948653E-01  1.7682591852290E+00
83  8.2000000000000E-01 -1.6070367213282E-01 -6.9431579546115E-01  1.7556648314548E+00
84  8.3000000000000E-01 -1.3729903044735E-01 -7.2017771985086E-01  1.7378010767816E+00
85  8.4000000000000E-01 -1.1535285196361E-01 -7.3839031095117E-01  1.7148293475144E+00
86  8.5000000000000E-01 -9.4931829448462E-02 -7.4939361434917E-01  1.6869467668283E+00
87  8.6000000000000E-01 -7.6076669772785E-02 -7.5368636610510E-01  1.6543840055176E+00
88  8.7000000000000E-01 -5.8804907462367E-02 -7.5181150383672E-01  1.6174028275698E+00
89  8.8000000000000E-01 -4.3113866100728E-02 -7.4434173268944E-01  1.5762933445729E+00
90  8.9000000000000E-01 -2.8983662767082E-02 -7.3186556745224E-01  1.5313709972395E+00
91  9.0000000000000E-01 -1.6380156267016E-02 -7.1497424260007E-01  1.4829732871979E+00
92  9.1000000000000E-01 -5.2577486798611E-03 -6.9424983992980E-01  1.4314562875444E+00
93  9.2000000000000E-01  4.4380386550917E-03 -6.7025493024613E-01  1.3771909662873E+00
94  9.3000000000000E-01  1.2768279610902E-02 -6.4352396313492E-01  1.3205593625554E+00
95  9.4000000000000E-01  1.9798697270616E-02 -6.1455656945985E-01  1.2619506610612E+00
96  9.5000000000000E-01  2.5598089418877E-02 -5.8381286725172E-01  1.2017572155666E+00
97  9.6000000000000E-01  3.0237139748767E-02 -5.5171078568547E-01  1.1403705767607E+00
98  9.7000000000000E-01  3.3787611243686E-02 -5.1862534647420E-01  1.0781775837806E+00
99  9.8000000000000E-01  3.6321901039843E-02 -4.8488976980186E-01  1.0155565813796E+00
100  9.9000000000000E-01  3.7912920113468E-02 -4.5079820525923E-01  9.5287382626593E-01
101  1.0000000000000E+00  3.8634246914564E-02 -4.1660982936677E-01  8.9048014625273E-01
102  1.0100000000000E+00  3.8560492047307E-02 -3.8255400202718E-01  8.2870791445299E-01
103  1.0200000000000E+00  3.7767801650554E-02 -3.4883613615208E-01  7.6786839775545E-01
104  1.0300000000000E+00  3.6334420545998E-02 -3.1564390888232E-01  7.0824953421827E-01
105  1.0400000000000E+00  3.4341232665301E-02 -2.8315342991126E-01  6.5011418785926E-01
106  1.0500000000000E+00  3.1872195786793E-02 -2.5153498256019E-01  5.9369892170636E-01
107  1.0600000000000E+00  2.9014590168937E-02 -2.2095796623177E-01  5.3921332104396E-01
108  1.0700000000000E+00  2.5859006061802E-02 -1.9159469378900E-01  4.8683988879102E-01
109  1.0800000000000E+00  2.2499003077781E-02 -1.6362273327403E-01  4.3673452407573E-01
110  1.0900000000000E+00  1.9030384605230E-02 -1.3722552845591E-01  3.8902758367906E-01
111  1.1000000000000E+00  1.5550042436289E-02 -1.1259108521197E-01  3.4382551438885E-01
112  1.1100000000000E+00  1.2154340070083E-02 -8.9908568658873E-02  3.0121303277927E-01
113  1.1200000000000E+00  8.9370171435649E-03 -6.9362716715343E-02  2.6125581789384E-01
114  1.1300000000000E+00  5.9866116919859E-03 -5.1126037551406E-02  2.2400367203236E-01
115  1.1400000000000E+00  3.3834107434631E-03 -3.5348818174063E-02  1.8949409574656E-01
116  1.1500000000000E+00  1.1959527625858E-03 -2.2147027797010E-02  1.5775621542501E-01
117  1.1600000000000E+00 -5.2288300016605E-04 -1.1588249780374E-02  1.2881499585909E-01
118  1.1700000000000E+00 -1.7401294907742E-03 -3.6759170994654E-03  1.0269568429621E-01
119  1.1800000000000E+00 -2.4474860233241E-03  1.6687466000409E-03  7.9428259677661E-02
120  1.1900000000000E+00 -2.6687056200472E-03  4.6350914957473E-03  5.9050332243021E-02
121  1.2000000000000E+00 -2.5430053430735E-03  5.8416750267744E-03  4.1555501195871E-02
122  1.2100000000000E+00 -2.1598782025878E-03  5.7104577195231E-03  2.7014261194981E-02
123  1.2200000000000E+00 -1.5761669071616E-03  4.5189219280989E-03  1.5542404862127E-02
124  1.2300000000000E+00 -9.0564628123458E-04  2.7313479203939E-03  7.2108876152508E-03
125  1.2400000000000E+00 -3.0962838544255E-04  9.6518395696077E-04  2.0334090355960E-03
126  1.2500000000000E+00 -1.2061780850734E-05  3.8476799796304E-05  6.5691056336985E-05
127  1.2600000000000E+00 -1.1856454266929E-06  3.7777885275416E-06  6.6288161848223E-06
128  1.2700000000000E+00  3.7681185180717E-07 -1.1885237201109E-06 -2.2824970696370E-06
129  1.28 -0.  0. -0.
130  1.29  0.  0.  0.
131  1.30  0.  0.  0.
132  1.31  0.  0.  0.
133  1.32  0.  0.  0.
134  1.33  0.  0.  0.
135  1.34  0.  0.  0.
136  1.35  0.  0.  0.
137  1.36  0.  0.  0.
138  1.37  0.  0.  0.
139  1.38  0.  0.  0.
140  1.39  0.  0.  0.
141  1.40  0.  0.  0.
142  1.41  0.  0.  0.
143  1.42  0.  0.  0.
144  1.43  0.  0.  0.
145  1.44  0.  0.  0.
146  1.45  0.  0.  0.
147  1.46  0.  0.  0.
148  1.47  0.  0.  0.
149  1.48  0.  0.  0.
150  1.49  0.  0.  0.
151  1.50  0.  0.  0.
152  1.51  0.  0.  0.
153  1.52  0.  0.  0.
154  1.53  0.  0.  0.
155  1.54  0.  0.  0.
156  1.55  0.  0.  0.
157  1.56  0.  0.  0.
158  1.57  0.  0.  0.
159  1.58  0.  0.  0.
160  1.59  0.  0.  0.
161  1.60  0.  0.  0.
162  1.61  0.  0.  0.
163  1.62  0.  0.  0.
164  1.63  0.  0.  0.
165  1.64  0.  0.  0.
166  1.65  0.  0.  0.
167  1.66  0.  0.  0.
168  1.67  0.  0.  0.
169  1.68  0.  0.  0.
170  1.69  0.  0.  0.
171  1.70  0.  0.  0.
172  1.71  0.  0.  0.
173  1.72  0.  0.  0.
174  1.73  0.  0.  0.
175  1.74  0.  0.  0.
176  1.75  0.  0.  0.
177  1.76  0.  0.  0.
178  1.77  0.  0.  0.
179  1.78  0.  0.  0.
180  1.79  0.  0.  0.
181  1.80  0.  0.  0.
182  1.81  0.  0.  0.
183  1.82  0.  0.  0.
184  1.83  0.  0.  0.
185  1.84  0.  0.  0.
186  1.85  0.  0.  0.
187  1.86  0.  0.  0.
188  1.87  0.  0.  0.
189  1.88  0.  0.  0.
190  1.89  0.  0.  0.
191  1.90  0.  0.  0.
192  1.91  0.  0.  0.
193  1.92  0.  0.  0.
194  1.93  0.  0.  0.
195  1.94  0.  0.  0.
196  1.95  0.  0.  0.
197  1.96  0.  0.  0.
198  1.97  0.  0.  0.
199  1.98  0.  0.  0.
200  1.99  0.  0.  0.
201  2.00  0.  0.  0.
202  2.01  0.  0.  0.
203  2.02  0.  0.  0.
204  2.03  0.  0.  0.
205  2.04  0.  0.  0.
206  2.05  0.  0.  0.
207  2.06  0.  0.  0.
208  2.07  0.  0.  0.
209  2.08  0.  0.  0.
210  2.09  0.  0.  0.
211  2.10  0.  0.  0.
212  2.11  0.  0.  0.
213  2.12  0.  0.  0.
214  2.13  0.  0.  0.
215  2.14  0.  0.  0.
216  2.15  0.  0.  0.
217  2.16  0.  0.  0.
218  2.17  0.  0.  0.
219  2.18  0.  0.  0.
220  2.19  0.  0.  0.
221  2.20  0.  0.  0.
222  2.21  0.  0.  0.
223  2.22  0.  0.  0.
224  2.23  0.  0.  0.
225  2.24  0.  0.  0.
226  2.25  0.  0.  0.
227  2.26  0.  0.  0.
228  2.27  0.  0.  0.
229  2.28  0.  0.  0.
230  2.29  0.  0.  0.
231  2.30  0.  0.  0.
232  2.31  0.  0.  0.
233  2.32  0.  0.  0.
234  2.33  0.  0.  0.
235  2.34  0.  0.  0.
236  2.35  0.  0.  0.
237  2.36  0.  0.  0.
238  2.37  0.  0.  0.
239  2.38  0.  0.  0.
240  2.39  0.  0.  0.
241  2.40  0.  0.  0.
242  2.41  0.  0.  0.
243  2.42  0.  0.  0.
244  2.43  0.  0.  0.
245  2.44  0.  0.  0.
246  2.45  0.  0.  0.
247  2.46  0.  0.  0.
248  2.47  0.  0.  0.
249  2.48  0.  0.  0.
250  2.49  0.  0.  0.
251  2.50  0.  0.  0.
252  2.51  0.  0.  0.
253  2.52  0.  0.  0.
254  2.53  0.  0.  0.
255  2.54  0.  0.  0.
256  2.55  0.  0.  0.
257  2.56  0.  0.  0.
258  2.57  0.  0.  0.
259  2.58  0.  0.  0.
260  2.59  0.  0.  0.
261  2.60  0.  0.  0.
262  2.61  0.  0.  0.
263  2.62  0.  0.  0.
264  2.63  0.  0.  0.
265  2.64  0.  0.  0.
266  2.65  0.  0.  0.
267  2.66  0.  0.  0.
268  2.67  0.  0.  0.
269  2.68  0.  0.  0.
270  2.69  0.  0.  0.
271  2.70  0.  0.  0.
272  2.71  0.  0.  0.
273  2.72  0.  0.  0.
274  2.73  0.  0.  0.
275  2.74  0.  0.  0.
276  2.75  0.  0.  0.
277  2.76  0.  0.  0.
278  2.77  0.  0.  0.
279  2.78  0.  0.  0.
280  2.79  0.  0.  0.
281  2.80  0.  0.  0.
282  2.81  0.  0.  0.
283  2.82  0.  0.  0.
284  2.83  0.  0.  0.
285  2.84  0.  0.  0.
286  2.85  0.  0.  0.
287  2.86  0.  0.  0.
288  2.87  0.  0.  0.
289  2.88  0.  0.  0.
290  2.89  0.  0.  0.
291  2.90  0.  0.  0.
292  2.91  0.  0.  0.
293  2.92  0.  0.  0.
294  2.93  0.  0.  0.
295  2.94  0.  0.  0.
296  2.95  0.  0.  0.
297  2.96  0.  0.  0.
298  2.97  0.  0.  0.
299  2.98  0.  0.  0.
300  2.99  0.  0.  0.
301  3.00  0.  0.  0.
302  3.01  0.  0.  0.
303  3.02  0.  0.  0.
304  3.03  0.  0.  0.
305  3.04  0.  0.  0.
306  3.05  0.  0.  0.
307  3.06  0.  0.  0.
308  3.07  0.  0.  0.
309  3.08  0.  0.  0.
310  3.09  0.  0.  0.
311  3.10  0.  0.  0.
312  3.11  0.  0.  0.
313  3.12  0.  0.  0.
314  3.13  0.  0.  0.
315  3.14  0.  0.  0.
316  3.15  0.  0.  0.
317  3.16  0.  0.  0.
318  3.17  0.  0.  0.
319  3.18  0.  0.  0.
320  3.19  0.  0.  0.
321  3.20  0.  0.  0.
322  3.21  0.  0.  0.
323  3.22  0.  0.  0.
324  3.23  0.  0.  0.
325  3.24  0.  0.  0.
326  3.25  0.  0.  0.
327  3.26  0.  0.  0.
328  3.27  0.  0.  0.
329  3.28  0.  0.  0.
330  3.29  0.  0.  0.
331  3.30  0.  0.  0.
332  3.31  0.  0.  0.
333  3.32  0.  0.  0.
334  3.33  0.  0.  0.
335  3.34  0.  0.  0.
336  3.35  0.  0.  0.
337  3.36  0.  0.  0.
338  3.37  0.  0.  0.
339  3.38  0.  0.  0.
340  3.39  0.  0.  0.
341  3.40  0.  0.  0.
342  3.41  0.  0.  0.
343  3.42  0.  0.  0.
344  3.43  0.  0.  0.
345  3.44  0.  0.  0.
346  3.45  0.  0.  0.
347  3.46  0.  0.  0.
348  3.47  0.  0.  0.
349  3.48  0.  0.  0.
350  3.49  0.  0.  0.
351  3.50  0.  0.  0.
352  3.51  0.  0.  0.
353  3.52  0.  0.  0.
354  3.53  0.  0.  0.
355  3.54  0.  0.  0.
356  3.55  0.  0.  0.
357  3.56  0.  0.  0.
358  3.57  0.  0.  0.
359  3.58  0.  0.  0.
360  3.59  0.  0.  0.
361  3.60  0.  0.  0.
362  3.61  0.  0.  0.
363  3.62  0.  0.  0.
364  3.63  0.  0.  0.
365  3.64  0.  0.  0.
366  3.65  0.  0.  0.
367  3.66  0.  0.  0.
368  3.67  0.  0.  0.
369  3.68  0.  0.  0.
370  3.69  0.  0.  0.
371  3.70  0.  0.  0.
372  3.71  0.  0.  0.
373  3.72  0.  0.  0.
374  3.73  0.  0.  0.
375  3.74  0.  0.  0.
376  3.75  0.  0.  0.
377  3.76  0.  0.  0.
378  3.77  0.  0.  0.
379  3.78  0.  0.  0.
380  3.79  0.  0.  0.
381  3.80  0.  0.  0.
382  3.81  0.  0.  0.
383  3.82  0.  0.  0.
384  3.83  0.  0.  0.
385  3.84  0.  0.  0.
386  3.85  0.  0.  0.
387  3.86  0.  0.  0.
388  3.87  0.  0.  0.
389  3.88  0.  0.  0.
390  3.89  0.  0.  0.
391  3.90  0.  0.  0.
392  3.91  0.  0.  0.
393  3.92  0.  0.  0.
394  3.93  0.  0.  0.
395  3.94  0.  0.  0.
396  3.95  0.  0.  0.
397  3.96  0.  0.  0.
398  3.97  0.  0.  0.
399  3.98  0.  0.  0.
400  3.99  0.  0.  0.
401  4.00  0.  0.  0.
402  4.01  0.  0.  0.
403  4.02  0.  0.  0.
404  4.03  0.  0.  0.
405  4.04  0.  0.  0.
406  4.05  0.  0.  0.
407  4.06  0.  0.  0.
408  4.07  0.  0.  0.
409  4.08  0.  0.  0.
410  4.09  0.  0.  0.
411  4.10  0.  0.  0.
412  4.11  0.  0.  0.
413  4.12  0.  0.  0.
414  4.13  0.  0.  0.
415  4.14  0.  0.  0.
416  4.15  0.  0.  0.
417  4.16  0.  0.  0.
418  4.17  0.  0.  0.
419  4.18  0.  0.  0.
420  4.19  0.  0.  0.
421  4.20  0.  0.  0.
422  4.21  0.  0.  0.
423  4.22  0.  0.  0.
424  4.23  0.  0.  0.
425  4.24  0.  0.  0.
426  4.25  0.  0.  0.
427  4.26  0.  0.  0.
428  4.27  0.  0.  0.
429  4.28  0.  0.  0.
430  4.29  0.  0.  0.
431  4.30  0.  0.  0.
432  4.31  0.  0.  0.
433  4.32  0.  0.  0.
434  4.33  0.  0.  0.
435  4.34  0.  0.  0.
436  4.35  0.  0.  0.
437  4.36  0.  0.  0.
438  4.37  0.  0.  0.
439  4.38  0.  0.  0.
440  4.39  0.  0.  0.
441  4.40  0.  0.  0.
442  4.41  0.  0.  0.
443  4.42  0.  0.  0.
444  4.43  0.  0.  0.
445  4.44  0.  0.  0.
446  4.45  0.  0.  0.
447  4.46  0.  0.  0.
448  4.47  0.  0.  0.
449  4.48  0.  0.  0.
450  4.49  0.  0.  0.
451  4.50  0.  0.  0.
452  4.51  0.  0.  0.
453  4.52  0.  0.  0.
454  4.53  0.  0.  0.
455  4.54  0.  0.  0.
456  4.55  0.  0.  0.
457  4.56  0.  0.  0.
458  4.57  0.  0.  0.
459  4.58  0.  0.  0.
460  4.59  0.  0.  0.
461  4.60  0.  0.  0.
462  4.61  0.  0.  0.
463  4.62  0.  0.  0.
464  4.63  0.  0.  0.
465  4.64  0.  0.  0.
466  4.65  0.  0.  0.
467  4.66  0.  0.  0.
468  4.67  0.  0.  0.
469  4.68  0.  0.  0.
470  4.69  0.  0.  0.
471  4.70  0.  0.  0.
472  4.71  0.  0.  0.
473  4.72  0.  0.  0.
474  4.73  0.  0.  0.
475  4.74  0.  0.  0.
476  4.75  0.  0.  0.
477  4.76  0.  0.  0.
478  4.77  0.  0.  0.
479  4.78  0.  0.  0.
480  4.79  0.  0.  0.
481  4.80  0.  0.  0.
482  4.81  0.  0.  0.
483  4.82  0.  0.  0.
484  4.83  0.  0.  0.
485  4.84  0.  0.  0.
486  4.85  0.  0.  0.
487  4.86  0.  0.  0.
488  4.87  0.  0.  0.
489  4.88  0.  0.  0.
490  4.89  0.  0.  0.
491  4.90  0.  0.  0.
492  4.91  0.  0.  0.
493  4.92  0.  0.  0.
494  4.93  0.  0.  0.
495  4.94  0.  0.  0.
496  4.95  0.  0.  0.
497  4.96  0.  0.  0.
498  4.97  0.  0.  0.
499  4.98  0.  0.  0.
500  4.99  0.  0.  0.
501  5.00  0.  0.  0.
502  5.01  0.  0.  0.
503  5.02  0.  0.  0.
504  5.03  0.  0.  0.
505  5.04  0.  0.  0.
506  5.05  0.  0.  0.
507  5.06  0.  0.  0.
508  5.07  0.  0.  0.
509  5.08  0.  0.  0.
510  5.09  0.  0.  0.
511  5.10  0.  0.  0.
512  5.11  0.  0.  0.
513  5.12  0.  0.  0.
514  5.13  0.  0.  0.
515  5.14  0.  0.  0.
516  5.15  0.  0.  0.
517  5.16  0.  0.  0.
518  5.17  0.  0.  0.
519  5.18  0.  0.  0.
520  5.19  0.  0.  0.
521  5.20  0.  0.  0.
522  5.21  0.  0.  0.
523  5.22  0.  0.  0.
524  5.23  0.  0.  0.
525  5.24  0.  0.  0.
526  5.25  0.  0.  0.
527  5.26  0.  0.  0.
528  5.27  0.  0.  0.
529  5.28  0.  0.  0.
530  5.29  0.  0.  0.
531  5.30  0.  0.  0.
532  5.31  0.  0.  0.
533  5.32  0.  0.  0.
534  5.33  0.  0.  0.
535  5.34  0.  0.  0.
536  5.35  0.  0.  0.
537  5.36  0.  0.  0.
538  5.37  0.  0.  0.
539  5.38  0.  0.  0.
540  5.39  0.  0.  0.
541  5.40  0.  0.  0.
542  5.41  0.  0.  0.
543  5.42  0.  0.  0.
544  5.43  0.  0.  0.
545  5.44  0.  0.  0.
546  5.45  0.  0.  0.
547  5.46  0.  0.  0.
548  5.47  0.  0.  0.
549  5.48  0.  0.  0.
550  5.49  0.  0.  0.
551  5.50  0.  0.  0.
552  5.51  0.  0.  0.
553  5.52  0.  0.  0.
554  5.53  0.  0.  0.
555  5.54  0.  0.  0.
556  5.55  0.  0.  0.
557  5.56  0.  0.  0.
558  5.57  0.  0.  0.
559  5.58  0.  0.  0.
560  5.59  0.  0.  0.
561  5.60  0.  0.  0.
562  5.61  0.  0.  0.
563  5.62  0.  0.  0.
564  5.63  0.  0.  0.
565  5.64  0.  0.  0.
566  5.65  0.  0.  0.
567  5.66  0.  0.  0.
568  5.67  0.  0.  0.
569  5.68  0.  0.  0.
570  5.69  0.  0.  0.
571  5.70  0.  0.  0.
572  5.71  0.  0.  0.
573  5.72  0.  0.  0.
574  5.73  0.  0.  0.
575  5.74  0.  0.  0.
576  5.75  0.  0.  0.
577  5.76  0.  0.  0.
578  5.77  0.  0.  0.
579  5.78  0.  0.  0.
580  5.79  0.  0.  0.
581  5.80  0.  0.  0.
582  5.81  0.  0.  0.
583  5.82  0.  0.  0.
584  5.83  0.  0.  0.
585  5.84  0.  0.  0.
586  5.85  0.  0.  0.
587  5.86  0.  0.  0.
588  5.87  0.  0.  0.
589  5.88  0.  0.  0.
590  5.89  0.  0.  0.
591  5.90  0.  0.  0.
592  5.91  0.  0.  0.
593  5.92  0.  0.  0.
594  5.93  0.  0.  0.
595  5.94  0.  0.  0.
596  5.95  0.  0.  0.
597  5.96  0.  0.  0.
598  5.97  0.  0.  0.
599  5.98  0.  0.  0.
600  5.99  0.  0.  0.
1                         9.6976701249899E+00 -4.0119646760153E-01
1  0.0000000000000E+00  2.5295885108800E-09 -5.4138332428177E-09
2  1.0000000000000E-02  3.6869468250658E-03  2.9870744827846E-03
3  2.0000000000000E-02  1.4719192868779E-02  1.1913845765297E-02
4  3.0000000000000E-02  3.3011167675008E-02  2.6677154596485E-02
5  4.0000000000000E-02  5.8420962073480E-02  4.7105731200782E-02
6  5.0000000000000E-02  9.0751386340709E-02  7.2961205339899E-02
7  6.0000000000000E-02  1.2975144314793E-01  1.0393955260923E-01
8  7.0000000000000E-02  1.7511820675239E-01  1.3967300691481E-01
9  8.0000000000000E-02  2.2649909735886E-01  1.7973247449061E-01
10  9.0000000000000E-02  2.8349453699214E-01  2.2363048802792E-01
11  1.0000000000000E-01  3.4566097057795E-01  2.7082474017880E-01
12  1.1000000000000E-01  4.1251423323265E-01  3.2072223363258E-01
13  1.2000000000000E-01  4.8353324202255E-01  3.7268408002169E-01
14  1.3000000000000E-01  5.5816398768977E-01  4.2603097206849E-01
15  1.4000000000000E-01  6.3582379907682E-01  4.8004934272975E-01
16  1.5000000000000E-01  7.1590585024876E-01  5.3399821182883E-01
17  1.6000000000000E-01  7.9778387764610E-01  5.8711670509255E-01
18  1.7000000000000E-01  8.8081707204768E-01  6.3863221303300E-01
19  1.8000000000000E-01  9.6435510772621E-01  6.8776913822246E-01
20  1.9000000000000E-01  1.0477432689918E+00  7.3375815976340E-01
21  2.0000000000000E-01  1.1303276323927E+00  7.7584592377166E-01
22  2.1000000000000E-01  1.2114602612317E+00  8.1330504912282E-01
23  2.2000000000000E-01  1.2905043678080E+00  8.4544431923029E-01
24  2.3000000000000E-01  1.3668393979703E+00  8.7161891389315E-01
25  2.4000000000000E-01  1.4398659921908E+00  8.9124052091529E-01
26  2.5000000000000E-01  1.5090107775068E+00  9.0378715584461E-01
27  2.6000000000000E-01  1.5737309453329E+00  9.0881251034294E-01
28  2.7000000000000E-01  1.6335185713689E+00  9.0595464581277E-01
29  2.8000000000000E-01  1.6879046356071E+00  8.9494384931951E-01
30  2.9000000000000E-01  1.7364627028040E+00  8.7560947378270E-01
31  3.0000000000000E-01  1.7788122266921E+00  8.4788559397165E-01
32  3.1000000000000E-01  1.8146214446698E+00  8.1181532400057E-01
33  3.2000000000000E-01  1.8436098336743E+00  7.6755366061534E-01
34  3.3000000000000E-01  1.8655501023733E+00  7.1536873930533E-01
35  3.4000000000000E-01  1.8802696996594E+00  6.5564141673865E-01
36  3.5000000000000E-01  1.8876518246218E+00  5.8886312267028E-01
37  3.6000000000000E-01  1.8876359286339E+00  5.1563195666734E-01
38  3.7000000000000E-01  1.8802177058581E+00  4.3664703900101E-01
39  3.8000000000000E-01  1.8654485742343E+00  3.5270116007129E-01
40  3.9000000000000E-01  1.8434346548014E+00  2.6467180790576E-01
41  4.0000000000000E-01  1.8143352629140E+00  1.7351068773377E-01
42  4.1000000000000E-01  1.7783609304561E+00  8.0231880504968E-02
43  4.2000000000000E-01  1.7357709834426E+00 -1.4101182356771E-02
44  4.3000000000000E-01  1.6868707043462E+00 -1.0838972350156E-01
45  4.4000000000000E-01  1.6320081130102E+00 -2.0151437585447E-01
46  4.5000000000000E-01  1.5715704040443E+00 -2.9235044425811E-01
47  4.6000000000000E-01  1.5059800820811E+00 -3.7978341293976E-01
48  4.7000000000000E-01  1.4356908391477E+00 -4.6272443133489E-01
49  4.8000000000000E-01  1.3611832206452E+00 -5.4012550876374E-01
50  4.9000000000000E-01  1.2829601279944E+00 -6.1099415234990E-01
51  5.0000000000000E-01  1.2015422068987E+00 -6.7440719234337E-01
52  5.1000000000000E-01  1.1174631703831E+00 -7.2952355446896E-01
53  5.2000000000000E-01  1.0312651053152E+00 -7.7559575971717E-01
54  5.3000000000000E-01  9.4349381002539E-01 -8.1197995763504E-01
55  5.4000000000000E-01  8.5469420895281E-01 -8.3814432904559E-01
56  5.5000000000000E-01  7.6540588800415E-01 -8.5367572749141E-01
57  5.6000000000000E-01  6.7615879158595E-01 -8.5828446474076E-01
58  5.7000000000000E-01  5.8746911911268E-01 -8.5180718351724E-01
59  5.8000000000000E-01  4.9983545528498E-01 -8.3420779928291E-01
60  5.9000000000000E-01  4.1373516464203E-01 -8.0557653145705E-01
61  6.0000000000000E-01  3.2962107689955E-01 -7.6612708194619E-01
62  6.1000000000000E-01  2.4791848546415E-01 -7.1619205437321E-01
63  6.2000000000000E-01  1.6902247734144E-01 -6.5621674007594E-01
64  6.3000000000000E-01  9.3295608496636E-02 -5.8675142602221E-01
65  6.4000000000000E-01  2.1065934649454E-02 -5.0844240459428E-01
66  6.5000000000000E-01 -4.7374596455763E-02 -4.2202188518931E-01
67  6.6000000000000E-01 -1.1177138901797E-01 -3.2829702235475E-01
68  6.7000000000000E-01 -1.7190808062691E-01 -2.2813828447620E-01
69  6.8000000000000E-01 -2.2760706570338E-01 -1.2246739075419E-01
70  6.9000000000000E-01 -2.7872966843991E-01 -1.2245042402637E-02
71  7.0000000000000E-01 -3.2517597545529E-01  1.0154133312099E-01
72  7.1000000000000E-01 -3.6688434079110E-01  2.1788961813076E-01
73  7.2000000000000E-01 -4.0383057800858E-01  3.3579463081908E-01
74  7.3000000000000E-01 -4.3602685600258E-01  4.5425917174762E-01
75  7.4000000000000E-01 -4.6352031675583E-01  5.7230434464246E-01
76  7.5000000000000E-01 -4.8639143463456E-01  6.8897903144427E-01
77  7.6000000000000E-01 -5.0475213800375E-01  8.0336842917306E-01
78  7.7000000000000E-01 -5.1874371494419E-01  9.1460158450430E-01
79  7.8000000000000E-01 -5.2853452571356E-01  1.0218578901673E+00
80  7.9000000000000E-01 -5.3431754533555E-01  1.1243725345464E+00
81  8.0000000000000E-01 -5.3630776034907E-01  1.2214409214181E+00
82  8.1000000000000E-01 -5.3473944432214E-01  1.3124220999041E+00
83  8.2000000000000E-01 -5.2986333724580E-01  1.3967412648511E+00
84  8.3000000000000E-01 -5.2194375438047E-01  1.4738914044924E+00
85  8.4000000000000E-01 -5.1125565052963E-01  1.5434341850316E+00
86  8.5000000000000E-01 -4.9808166605826E-01  1.6050001704980E+00
87  8.6000000000000E-01 -4.8270918124251E-01  1.6582884807783E+00
88  8.7000000000000E-01 -4.6542740571179E-01  1.7030659911798E+00
89  8.8000000000000E-01 -4.4652452980151E-01  1.7391661734336E+00
90  8.9000000000000E-01 -4.2628496454096E-01  1.7664876710128E+00
91  9.0000000000000E-01 -4.0498669672631E-01  1.7849926914790E+00
92  9.1000000000000E-01 -3.8289878503504E-01  1.7947052857898E+00
93  9.2000000000000E-01 -3.6027902239194E-01  1.7957095697502E+00
94  9.3000000000000E-01 -3.3737178876363E-01  1.7881479267114E+00
95  9.4000000000000E-01 -3.1440611720756E-01  1.7722192139417E+00
96  9.5000000000000E-01 -2.9159399430820E-01  1.7481769785158E+00
97  9.6000000000000E-01 -2.6912891407867E-01  1.7163276727851E+00
98  9.7000000000000E-01 -2.4718470197997E-01  1.6770288451721E+00
99  9.8000000000000E-01 -2.2591462291343E-01  1.6306872697455E+00
100  9.9000000000000E-01 -2.0545078388230E-01  1.5777569683024E+00
101  1.0000000000000E+00 -1.8590383851947E-01  1.5187370719103E+00
102  1.0100000000000E+00 -1.6736299687298E-01  1.4541694653354E+00
103  1.0200000000000E+00 -1.4989633977193E-01  1.3846361576632E+00
104  1.0300000000000E+00 -1.3355143281909E-01  1.3107563257571E+00
105  1.0400000000000E+00 -1.1835623064176E-01  1.2331829838857E+00
106  1.0500000000000E+00 -1.0432025754951E-01  1.1525992426628E+00
107  1.0600000000000E+00 -9.1436046278548E-02  1.0697141330741E+00
108  1.0700000000000E+00 -7.9680812145609E-02  9.8525798629386E-01
109  1.0800000000000E+00 -6.9018335760660E-02  8.9997737678655E-01
110  1.0900000000000E+00 -5.9401023572289E-02  8.1462965413143E-01
111  1.1000000000000E+00 -5.0772112015863E-02  7.2997710750919E-01
112  1.1100000000000E+00 -4.3067977994966E-02  6.4678082515744E-01
113  1.1200000000000E+00 -3.6220515936194E-02  5.6579432858265E-01
114  1.1300000000000E+00 -3.0159539774531E-02  4.8775707736808E-01
115  1.1400000000000E+00 -2.4815167025372E-02  4.1338795425137E-01
116  1.1500000000000E+00 -2.0120141614763E-02  3.4337885138726E-01
117  1.1600000000000E+00 -1.6012045644985E-02  2.7838854196636E-01
118  1.1700000000000E+00 -1.2435430914426E-02  2.1903638338229E-01
119  1.1800000000000E+00 -9.3434870297763E-03  1.6589879453283E-01
120  1.1900000000000E+00 -6.7138593403308E-03  1.1938714015033E-01