U     ONCVPSP-4.0.1  r_core=   1.30497   1.30497   1.40209   1.40209
92.0000     32.0000      220822    zatom,zion,pspd
8      11   3     4   600     0    pspcod,pspxc,lmax,lloc,mmax,r2well
5.99000000  2.70000000  0.00000000    rchrg fchrg qchrg
3     2     2     2     0    nproj
1     1           extension_switch
0                         3.3758441112966E+01  5.8644172837506E+00  8.0048937320563E-01
1  0.0000000000000E+00  7.4173600594918E-10  2.3531595283455E-09 -1.7098732929544E-08
2  1.0000000000000E-02  1.1467264045135E-01 -3.2074857606132E-02  5.6458886083056E-02
3  2.0000000000000E-02  2.2897129771430E-01 -6.3860218848948E-02  1.1239170419530E-01
4  3.0000000000000E-02  3.4252210260232E-01 -9.5067014214252E-02  1.6727887919524E-01
5  4.0000000000000E-02  4.5495143508141E-01 -1.2540703232322E-01  2.2061368005338E-01
6  5.0000000000000E-02  5.6588610155436E-01 -1.5459336079137E-01  2.7190829271405E-01
7  6.0000000000000E-02  6.7495357492648E-01 -1.8234084314654E-01  3.2069948684326E-01
8  7.0000000000000E-02  7.8178231757387E-01 -2.0836656020967E-01  3.6655376214476E-01
9  8.0000000000000E-02  8.8600220659373E-01 -2.3239034669531E-01  4.0907187702583E-01
10  9.0000000000000E-02  9.8724507973107E-01 -2.5413535642150E-01  4.4789268263342E-01
11  1.0000000000000E-01  1.0851454191109E+00 -2.7332869223326E-01  4.8269620793661E-01
12  1.1000000000000E-01  1.1793411883275E+00 -2.8970211934011E-01  5.1320596582718E-01
13  1.2000000000000E-01  1.2694748365137E+00 -3.0299288301719E-01  5.3919047527391E-01
14  1.3000000000000E-01  1.3551944807065E+00 -3.1294465330399E-01  5.6046401951322E-01
15  1.4000000000000E-01  1.4361552751127E+00 -3.1930862023939E-01  5.7688668419792E-01
16  1.5000000000000E-01  1.5120209727437E+00 -3.2184476309950E-01  5.8836374148060E-01
17  1.6000000000000E-01  1.5824656813318E+00 -3.2032331588787E-01  5.9484446537347E-01
18  1.7000000000000E-01  1.6471758114648E+00 -3.1452644883796E-01  5.9632047968059E-01
19  1.8000000000000E-01  1.7058522105109E+00 -3.0425018182804E-01  5.9282375170585E-01
20  1.9000000000000E-01  1.7582124711927E+00 -2.8930654035666E-01  5.8442435235173E-01
21  2.0000000000000E-01  1.8039933986638E+00 -2.6952595808613E-01  5.7122810577310E-01
22  2.1000000000000E-01  1.8429536147329E+00 -2.4475992202764E-01  5.5337424931969E-01
23  2.2000000000000E-01  1.8748762725435E+00 -2.1488384733229E-01  5.3103321705090E-01
24  2.3000000000000E-01  1.8995718496922E+00 -1.7980015858926E-01  5.0440464789407E-01
25  2.4000000000000E-01  1.9168809825521E+00 -1.3944154374438E-01  4.7371570284957E-01
26  2.5000000000000E-01  1.9266772996218E+00 -9.3774335561559E-02  4.3921975510883E-01
27  2.6000000000000E-01  1.9288702071803E+00 -4.2801964294579E-02  4.0119549321775E-01
28  2.7000000000000E-01  1.9234075765433E+00  1.3431585705436E-02  3.5994645130343E-01
29  2.8000000000000E-01  1.9102782789521E+00  7.4838392938757E-02  3.1580095285037E-01
30  2.9000000000000E-01  1.8895145117155E+00  1.4128337584630E-01  2.6911242654379E-01
31  3.0000000000000E-01  1.8611938578188E+00  2.1258132417036E-01  2.2026002538616E-01
32  3.1000000000000E-01  1.8254410209308E+00  2.8849428433775E-01  1.6964945469103E-01
33  3.2000000000000E-01  1.7824291786884E+00  3.6872940194512E-01  1.1771389172467E-01
34  3.3000000000000E-01  1.7323808993996E+00  4.5293732515448E-01  6.4914860689798E-02
35  3.4000000000000E-01  1.6755685709370E+00  5.4071127068260E-01  1.1742912308520E-02
36  3.5000000000000E-01  1.6123142956104E+00  6.3158684890123E-01 -4.1282051747493E-02
37  3.6000000000000E-01  1.5429892112058E+00  7.2504273627835E-01 -9.3610972370712E-02
38  3.7000000000000E-01  1.4680122060972E+00  8.2050227194189E-01 -1.4466650384173E-01
39  3.8000000000000E-01  1.3878480053047E+00  9.1733604066029E-01 -1.9384471132629E-01
40  3.9000000000000E-01  1.3030046144365E+00  1.0148654871669E+00 -2.4051772777701E-01
41  4.0000000000000E-01  1.2140301194855E+00  1.1123675867979E+00 -2.8403747997571E-01
42  4.1000000000000E-01  1.1215088522081E+00  1.2090805752670E+00 -3.2374056461883E-01
43  4.2000000000000E-01  1.0260569431119E+00  1.3042107164911E+00 -3.5895432127375E-01
44  4.3000000000000E-01  9.2831729662004E-01  1.3969400623011E+00 -3.8900411073370E-01
45  4.4000000000000E-01  8.2895403551347E-01  1.4864351322039E+00 -4.1322176577767E-01
46  4.5000000000000E-01  7.2864647396801E-01  1.5718564157783E+00 -4.3095513786425E-01
47  4.6000000000000E-01  6.2808269010523E-01  1.6523685754969E+00 -4.4157861924585E-01
48  4.7000000000000E-01  5.2795277966843E-01  1.7271512044505E+00 -4.4450447671501E-01
49  4.8000000000000E-01  4.2894188190907E-01  1.7954099723611E+00 -4.3919479231313E-01
50  4.9000000000000E-01  3.3172307677589E-01  1.8563879750196E+00 -4.2517376908660E-01
51  5.0000000000000E-01  2.3695025876358E-01  1.9093770875487E+00 -4.0204012793571E-01
52  5.1000000000000E-01  1.4525109709900E-01  1.9537291112122E+00 -3.6947929593869E-01
53  5.2000000000000E-01  5.7220194147451E-02  1.9888664972949E+00 -3.2727506835109E-01
54  5.3000000000000E-01 -2.6587446129764E-02  2.0142924302844E+00 -2.7532041677112E-01
55  5.4000000000000E-01 -1.0566253020623E-01  2.0296000563646E+00 -2.1362711533202E-01
56  5.5000000000000E-01 -1.7954706276488E-01  2.0344806522313E+00 -1.4233386568970E-01
57  5.6000000000000E-01 -2.4783931248770E-01  2.0287305433780E+00 -6.1712620127551E-02
58  5.7000000000000E-01 -3.1019806735467E-01  2.0122566001356E+00  2.7827169835372E-02
59  5.8000000000000E-01 -3.6634610221052E-01  1.9850801635080E+00  1.2573661487783E-01
60  5.9000000000000E-01 -4.1607279445424E-01  1.9473392807910E+00  2.3132794955666E-01
61  6.0000000000000E-01 -4.5923583836988E-01  1.8992891624914E+00  3.4377773186559E-01
62  6.1000000000000E-01 -4.9576202453077E-01  1.8413008064544E+00  4.6213275982360E-01
63  6.2000000000000E-01 -5.2564706753381E-01  1.7738577715773E+00  5.8531872130320E-01
64  6.3000000000000E-01 -5.4895448266889E-01  1.6975511211362E+00  7.1215152764523E-01
65  6.4000000000000E-01 -5.6581352960981E-01  1.6130725936658E+00  8.4135121498430E-01
66  6.5000000000000E-01 -5.7641625842034E-01  1.5212060965450E+00  9.7155823150827E-01
67  6.6000000000000E-01 -5.8101370969954E-01  1.4228176530158E+00  1.1013518659772E+00
68  6.7000000000000E-01 -5.7991133615672E-01  1.3188439663716E+00  1.2292705145533E+00
69  6.8000000000000E-01 -5.7346372694579E-01  1.2102797946517E+00  1.3538334310578E+00
70  6.9000000000000E-01 -5.6206872837345E-01  1.0981643545882E+00  1.4735635617224E+00
71  7.0000000000000E-01 -5.4616106484500E-01  9.8356699412590E-01  1.5870110306658E+00
72  7.1000000000000E-01 -5.2620557189647E-01  8.6757238803669E-01  1.6927768177623E+00
73  7.2000000000000E-01 -5.0269015871807E-01  7.5126552062021E-01  1.7895361570096E+00
74  7.3000000000000E-01 -4.7611862059549E-01  6.3571672298407E-01  1.8760611814069E+00
75  7.4000000000000E-01 -4.4700342215748E-01  5.2196702991821E-01  1.9512423497236E+00
76  7.5000000000000E-01 -4.1585857025005E-01  4.1101411302219E-01  2.0141082111482E+00
77  7.6000000000000E-01 -3.8319269077516E-01  3.0379903283519E-01  2.0638430949373E+00
78  7.7000000000000E-01 -3.4950241710156E-01  2.0119403370654E-01  2.0998023529043E+00
79  7.8000000000000E-01 -3.1526618891621E-01  1.0399158165039E-01  2.1215248315645E+00
80  7.9000000000000E-01 -2.8093854992143E-01  1.2894818191678E-02  2.1287423064424E+00
81  8.0000000000000E-01 -2.4694502093040E-01 -7.1490426915316E-02  2.1213856716502E+00
82  8.1000000000000E-01 -2.1367761203853E-01 -1.4866195329898E-01  2.0995877414336E+00
83  8.2000000000000E-01 -1.8149102404105E-01 -2.1822576017280E-01  2.0636825848784E+00
84  8.3000000000000E-01 -1.5069957553177E-01 -2.7989882441374E-01  2.0142013783313E+00
85  8.4000000000000E-01 -1.2157487855384E-01 -3.3351007379884E-01  1.9518648202313E+00
86  8.5000000000000E-01 -9.4344272669281E-02 -3.7899957270168E-01  1.8775722080639E+00
87  8.6000000000000E-01 -6.9190015232389E-02 -4.1641596470718E-01  1.7923873252501E+00
88  8.7000000000000E-01 -4.6249214817443E-02 -4.4591224012505E-01  1.6975213254311E+00
89  8.8000000000000E-01 -2.5614485445100E-02 -4.6773991560910E-01  1.5943128315525E+00
90  8.9000000000000E-01 -7.3352916972910E-03 -4.8224172751843E-01  1.4842054864499E+00
91  9.0000000000000E-01  8.5800508288148E-03 -4.8984294994329E-01  1.3687231997338E+00
92  9.1000000000000E-01  2.2161758901218E-02 -4.9104145228437E-01  1.2494433324479E+00
93  9.2000000000000E-01  3.3475389622333E-02 -4.8639660993100E-01  1.1279680464524E+00
94  9.3000000000000E-01  4.2618113317682E-02 -4.7651717511246E-01  1.0058940203325E+00
95  9.4000000000000E-01  4.9714489345949E-02 -4.6204820373735E-01  8.8478069877438E-01
96  9.5000000000000E-01  5.4911778769152E-02 -4.4365711851063E-01  7.6611719909168E-01
97  9.6000000000000E-01  5.8374822239229E-02 -4.2201896945682E-01  6.5128794846696E-01
98  9.7000000000000E-01  6.0280504625357E-02 -3.9780093095012E-01  5.4153707029931E-01
99  9.8000000000000E-01  6.0811820127664E-02 -3.7164605030651E-01  4.3793147981294E-01
100  9.9000000000000E-01  6.0151543089089E-02 -3.4415623737100E-01  3.4132258785132E-01
101  1.0000000000000E+00  5.8475508508111E-02 -3.1587448425977E-01  2.5230656246785E-01
102  1.0100000000000E+00  5.5945633020375E-02 -2.8726673315114E-01  1.7118499497705E-01
103  1.0200000000000E+00  5.2708487241506E-02 -2.5872267728655E-01  9.8006705637726E-02
104  1.0300000000000E+00  4.8901831591939E-02 -2.3058245745912E-01  3.2705442344593E-02
105  1.0400000000000E+00  4.4655696080691E-02 -2.0314401645326E-01 -2.4862042861103E-02
106  1.0500000000000E+00  4.0091868616811E-02 -1.7666476164944E-01 -7.4906251522621E-02
107  1.0600000000000E+00  3.5323625356443E-02 -1.5136378462563E-01 -1.1769467543618E-01
108  1.0700000000000E+00  3.0455651573291E-02 -1.2742447655746E-01 -1.5354138079452E-01
109  1.0800000000000E+00  2.5584098222711E-02 -1.0499737196410E-01 -1.8279682534901E-01
110  1.0900000000000E+00  2.0796719301289E-02 -8.4203056951556E-02 -2.0583827384786E-01
111  1.1000000000000E+00  1.6173037692982E-02 -6.5134989098285E-02 -2.2306113774473E-01
112  1.1100000000000E+00  1.1784491120404E-02 -4.7862090228385E-02 -2.3487152307713E-01
113  1.1200000000000E+00  7.6945187832924E-03 -3.2431002239475E-02 -2.4168018298382E-01
114  1.1300000000000E+00  3.9585486899483E-03 -1.8867894090533E-02 -2.4389809932875E-01
115  1.1400000000000E+00  6.2386972612228E-04 -7.1797826053290E-03 -2.4193368088128E-01
116  1.1500000000000E+00 -2.2706367964618E-03  2.6447013056069E-03 -2.3619170415574E-01
117  1.1600000000000E+00 -4.6949066490501E-03  1.0635093931486E-02 -2.2707388864831E-01
118  1.1700000000000E+00 -6.6282426298453E-03  1.6839419470285E-02 -2.1498102667906E-01
119  1.1800000000000E+00 -8.0599927954205E-03  2.1325008593130E-02 -2.0031650135923E-01
120  1.1900000000000E+00 -8.9903376803846E-03  2.4179753533679E-02 -1.8349098568822E-01
121  1.2000000000000E+00 -9.4311606573141E-03  2.5513720286050E-02 -1.6492807774666E-01
122  1.2100000000000E+00 -9.4069704312024E-03  2.5461024450112E-02 -1.4507059905799E-01
123  1.2200000000000E+00 -8.9558243776985E-03  2.4181825285471E-02 -1.2438719462517E-01
124  1.2300000000000E+00 -8.1303485905329E-03  2.1864668374577E-02 -1.0337951528597E-01
125  1.2400000000000E+00 -6.9992828762406E-03  1.8730232434230E-02 -8.2591713041909E-02
126  1.2500000000000E+00 -5.6917124092122E-03  1.5144147843601E-02 -6.2805650443784E-02
127  1.2600000000000E+00 -4.3160453682078E-03  1.1411202504552E-02 -4.4690562048223E-02
128  1.2700000000000E+00 -2.9450256008741E-03  7.7356710564166E-03 -2.8739744223919E-02
129  1.2800000000000E+00 -1.6862158311742E-03  4.4006335414961E-03 -1.5579570488560E-02
130  1.2900000000000E+00 -6.7651238522677E-04  1.7545550521786E-03 -5.9452190971935E-03
131  1.3000000000000E+00 -9.0482427404394E-05  2.3323864616112E-04 -7.5889758777219E-04
132  1.3100000000000E+00  7.9922350918914E-06 -2.0533894028788E-05  6.5163245521924E-05
133  1.3200000000000E+00 -7.2183400462584E-07  1.8583230365594E-06 -5.9793875648940E-06
134  1.33 -0.  0. -0.
135  1.34  0.  0.  0.
136  1.35  0.  0.  0.
137  1.36  0.  0.  0.
138  1.37  0.  0.  0.
139  1.38  0.  0.  0.
140  1.39  0.  0.  0.
141  1.40  0.  0.  0.
142  1.41  0.  0.  0.
143  1.42  0.  0.  0.
144  1.43  0.  0.  0.
145  1.44  0.  0.  0.
146  1.45  0.  0.  0.
147  1.46  0.  0.  0.
148  1.47  0.  0.  0.
149  1.48  0.  0.  0.
150  1.49  0.  0.  0.
151  1.50  0.  0.  0.
152  1.51  0.  0.  0.
153  1.52  0.  0.  0.
154  1.53  0.  0.  0.
155  1.54  0.  0.  0.
156  1.55  0.  0.  0.
157  1.56  0.  0.  0.
158  1.57  0.  0.  0.
159  1.58  0.  0.  0.
160  1.59  0.  0.  0.
161  1.60  0.  0.  0.
162  1.61  0.  0.  0.
163  1.62  0.  0.  0.
164  1.63  0.  0.  0.
165  1.64  0.  0.  0.
166  1.65  0.  0.  0.
167  1.66  0.  0.  0.
168  1.67  0.  0.  0.
169  1.68  0.  0.  0.
170  1.69  0.  0.  0.
171  1.70  0.  0.  0.
172  1.71  0.  0.  0.
173  1.72  0.  0.  0.
174  1.73  0.  0.  0.
175  1.74  0.  0.  0.
176  1.75  0.  0.  0.
177  1.76  0.  0.  0.
178  1.77  0.  0.  0.
179  1.78  0.  0.  0.
180  1.79  0.  0.  0.
181  1.80  0.  0.  0.
182  1.81  0.  0.  0.
183  1.82  0.  0.  0.
184  1.83  0.  0.  0.
185  1.84  0.  0.  0.
186  1.85  0.  0.  0.
187  1.86  0.  0.  0.
188  1.87  0.  0.  0.
189  1.88  0.  0.  0.
190  1.89  0.  0.  0.
191  1.90  0.  0.  0.
192  1.91  0.  0.  0.
193  1.92  0.  0.  0.
194  1.93  0.  0.  0.
195  1.94  0.  0.  0.
196  1.95  0.  0.  0.
197  1.96  0.  0.  0.
198  1.97  0.  0.  0.
199  1.98  0.  0.  0.
200  1.99  0.  0.  0.
201  2.00  0.  0.  0.
202  2.01  0.  0.  0.
203  2.02  0.  0.  0.
204  2.03  0.  0.  0.
205  2.04  0.  0.  0.
206  2.05  0.  0.  0.
207  2.06  0.  0.  0.
208  2.07  0.  0.  0.
209  2.08  0.  0.  0.
210  2.09  0.  0.  0.
211  2.10  0.  0.  0.
212  2.11  0.  0.  0.
213  2.12  0.  0.  0.
214  2.13  0.  0.  0.
215  2.14  0.  0.  0.
216  2.15  0.  0.  0.
217  2.16  0.  0.  0.
218  2.17  0.  0.  0.
219  2.18  0.  0.  0.
220  2.19  0.  0.  0.
221  2.20  0.  0.  0.
222  2.21  0.  0.  0.
223  2.22  0.  0.  0.
224  2.23  0.  0.  0.
225  2.24  0.  0.  0.
226  2.25  0.  0.  0.
227  2.26  0.  0.  0.
228  2.27  0.  0.  0.
229  2.28  0.  0.  0.
230  2.29  0.  0.  0.
231  2.30  0.  0.  0.
232  2.31  0.  0.  0.
233  2.32  0.  0.  0.
234  2.33  0.  0.  0.
235  2.34  0.  0.  0.
236  2.35  0.  0.  0.
237  2.36  0.  0.  0.
238  2.37  0.  0.  0.
239  2.38  0.  0.  0.
240  2.39  0.  0.  0.
241  2.40  0.  0.  0.
242  2.41  0.  0.  0.
243  2.42  0.  0.  0.
244  2.43  0.  0.  0.
245  2.44  0.  0.  0.
246  2.45  0.  0.  0.
247  2.46  0.  0.  0.
248  2.47  0.  0.  0.
249  2.48  0.  0.  0.
250  2.49  0.  0.  0.
251  2.50  0.  0.  0.
252  2.51  0.  0.  0.
253  2.52  0.  0.  0.
254  2.53  0.  0.  0.
255  2.54  0.  0.  0.
256  2.55  0.  0.  0.
257  2.56  0.  0.  0.
258  2.57  0.  0.  0.
259  2.58  0.  0.  0.
260  2.59  0.  0.  0.
261  2.60  0.  0.  0.
262  2.61  0.  0.  0.
263  2.62  0.  0.  0.
264  2.63  0.  0.  0.
265  2.64  0.  0.  0.
266  2.65  0.  0.  0.
267  2.66  0.  0.  0.
268  2.67  0.  0.  0.
269  2.68  0.  0.  0.
270  2.69  0.  0.  0.
271  2.70  0.  0.  0.
272  2.71  0.  0.  0.
273  2.72  0.  0.  0.
274  2.73  0.  0.  0.
275  2.74  0.  0.  0.
276  2.75  0.  0.  0.
277  2.76  0.  0.  0.
278  2.77  0.  0.  0.
279  2.78  0.  0.  0.
280  2.79  0.  0.  0.
281  2.80  0.  0.  0.
282  2.81  0.  0.  0.
283  2.82  0.  0.  0.
284  2.83  0.  0.  0.
285  2.84  0.  0.  0.
286  2.85  0.  0.  0.
287  2.86  0.  0.  0.
288  2.87  0.  0.  0.
289  2.88  0.  0.  0.
290  2.89  0.  0.  0.
291  2.90  0.  0.  0.
292  2.91  0.  0.  0.
293  2.92  0.  0.  0.
294  2.93  0.  0.  0.
295  2.94  0.  0.  0.
296  2.95  0.  0.  0.
297  2.96  0.  0.  0.
298  2.97  0.  0.  0.
299  2.98  0.  0.  0.
300  2.99  0.  0.  0.
301  3.00  0.  0.  0.
302  3.01  0.  0.  0.
303  3.02  0.  0.  0.
304  3.03  0.  0.  0.
305  3.04  0.  0.  0.
306  3.05  0.  0.  0.
307  3.06  0.  0.  0.
308  3.07  0.  0.  0.
309  3.08  0.  0.  0.
310  3.09  0.  0.  0.
311  3.10  0.  0.  0.
312  3.11  0.  0.  0.
313  3.12  0.  0.  0.
314  3.13  0.  0.  0.
315  3.14  0.  0.  0.
316  3.15  0.  0.  0.
317  3.16  0.  0.  0.
318  3.17  0.  0.  0.
319  3.18  0.  0.  0.
320  3.19  0.  0.  0.
321  3.20  0.  0.  0.
322  3.21  0.  0.  0.
323  3.22  0.  0.  0.
324  3.23  0.  0.  0.
325  3.24  0.  0.  0.
326  3.25  0.  0.  0.
327  3.26  0.  0.  0.
328  3.27  0.  0.  0.
329  3.28  0.  0.  0.
330  3.29  0.  0.  0.
331  3.30  0.  0.  0.
332  3.31  0.  0.  0.
333  3.32  0.  0.  0.
334  3.33  0.  0.  0.
335  3.34  0.  0.  0.
336  3.35  0.  0.  0.
337  3.36  0.  0.  0.
338  3.37  0.  0.  0.
339  3.38  0.  0.  0.
340  3.39  0.  0.  0.
341  3.40  0.  0.  0.
342  3.41  0.  0.  0.
343  3.42  0.  0.  0.
344  3.43  0.  0.  0.
345  3.44  0.  0.  0.
346  3.45  0.  0.  0.
347  3.46  0.  0.  0.
348  3.47  0.  0.  0.
349  3.48  0.  0.  0.
350  3.49  0.  0.  0.
351  3.50  0.  0.  0.
352  3.51  0.  0.  0.
353  3.52  0.  0.  0.
354  3.53  0.  0.  0.
355  3.54  0.  0.  0.
356  3.55  0.  0.  0.
357  3.56  0.  0.  0.
358  3.57  0.  0.  0.
359  3.58  0.  0.  0.
360  3.59  0.  0.  0.
361  3.60  0.  0.  0.
362  3.61  0.  0.  0.
363  3.62  0.  0.  0.
364  3.63  0.  0.  0.
365  3.64  0.  0.  0.
366  3.65  0.  0.  0.
367  3.66  0.  0.  0.
368  3.67  0.  0.  0.
369  3.68  0.  0.  0.
370  3.69  0.  0.  0.
371  3.70  0.  0.  0.
372  3.71  0.  0.  0.
373  3.72  0.  0.  0.
374  3.73  0.  0.  0.
375  3.74  0.  0.  0.
376  3.75  0.  0.  0.
377  3.76  0.  0.  0.
378  3.77  0.  0.  0.
379  3.78  0.  0.  0.
380  3.79  0.  0.  0.
381  3.80  0.  0.  0.
382  3.81  0.  0.  0.
383  3.82  0.  0.  0.
384  3.83  0.  0.  0.
385  3.84  0.  0.  0.
386  3.85  0.  0.  0.
387  3.86  0.  0.  0.
388  3.87  0.  0.  0.
389  3.88  0.  0.  0.
390  3.89  0.  0.  0.
391  3.90  0.  0.  0.
392  3.91  0.  0.  0.
393  3.92  0.  0.  0.
394  3.93  0.  0.  0.
395  3.94  0.  0.  0.
396  3.95  0.  0.  0.
397  3.96  0.  0.  0.
398  3.97  0.  0.  0.
399  3.98  0.  0.  0.
400  3.99  0.  0.  0.
401  4.00  0.  0.  0.
402  4.01  0.  0.  0.
403  4.02  0.  0.  0.
404  4.03  0.  0.  0.
405  4.04  0.  0.  0.
406  4.05  0.  0.  0.
407  4.06  0.  0.  0.
408  4.07  0.  0.  0.
409  4.08  0.  0.  0.
410  4.09  0.  0.  0.
411  4.10  0.  0.  0.
412  4.11  0.  0.  0.
413  4.12  0.  0.  0.
414  4.13  0.  0.  0.
415  4.14  0.  0.  0.
416  4.15  0.  0.  0.
417  4.16  0.  0.  0.
418  4.17  0.  0.  0.
419  4.18  0.  0.  0.
420  4.19  0.  0.  0.
421  4.20  0.  0.  0.
422  4.21  0.  0.  0.
423  4.22  0.  0.  0.
424  4.23  0.  0.  0.
425  4.24  0.  0.  0.
426  4.25  0.  0.  0.
427  4.26  0.  0.  0.
428  4.27  0.  0.  0.
429  4.28  0.  0.  0.
430  4.29  0.  0.  0.
431  4.30  0.  0.  0.
432  4.31  0.  0.  0.
433  4.32  0.  0.  0.
434  4.33  0.  0.  0.
435  4.34  0.  0.  0.
436  4.35  0.  0.  0.
437  4.36  0.  0.  0.
438  4.37  0.  0.  0.
439  4.38  0.  0.  0.
440  4.39  0.  0.  0.
441  4.40  0.  0.  0.
442  4.41  0.  0.  0.
443  4.42  0.  0.  0.
444  4.43  0.  0.  0.
445  4.44  0.  0.  0.
446  4.45  0.  0.  0.
447  4.46  0.  0.  0.
448  4.47  0.  0.  0.
449  4.48  0.  0.  0.
450  4.49  0.  0.  0.
451  4.50  0.  0.  0.
452  4.51  0.  0.  0.
453  4.52  0.  0.  0.
454  4.53  0.  0.  0.
455  4.54  0.  0.  0.
456  4.55  0.  0.  0.
457  4.56  0.  0.  0.
458  4.57  0.  0.  0.
459  4.58  0.  0.  0.
460  4.59  0.  0.  0.
461  4.60  0.  0.  0.
462  4.61  0.  0.  0.
463  4.62  0.  0.  0.
464  4.63  0.  0.  0.
465  4.64  0.  0.  0.
466  4.65  0.  0.  0.
467  4.66  0.  0.  0.
468  4.67  0.  0.  0.
469  4.68  0.  0.  0.
470  4.69  0.  0.  0.
471  4.70  0.  0.  0.
472  4.71  0.  0.  0.
473  4.72  0.  0.  0.
474  4.73  0.  0.  0.
475  4.74  0.  0.  0.
476  4.75  0.  0.  0.
477  4.76  0.  0.  0.
478  4.77  0.  0.  0.
479  4.78  0.  0.  0.
480  4.79  0.  0.  0.
481  4.80  0.  0.  0.
482  4.81  0.  0.  0.
483  4.82  0.  0.  0.
484  4.83  0.  0.  0.
485  4.84  0.  0.  0.
486  4.85  0.  0.  0.
487  4.86  0.  0.  0.
488  4.87  0.  0.  0.
489  4.88  0.  0.  0.
490  4.89  0.  0.  0.
491  4.90  0.  0.  0.
492  4.91  0.  0.  0.
493  4.92  0.  0.  0.
494  4.93  0.  0.  0.
495  4.94  0.  0.  0.
496  4.95  0.  0.  0.
497  4.96  0.  0.  0.
498  4.97  0.  0.  0.
499  4.98  0.  0.  0.
500  4.99  0.  0.  0.
501  5.00  0.  0.  0.
502  5.01  0.  0.  0.
503  5.02  0.  0.  0.
504  5.03  0.  0.  0.
505  5.04  0.  0.  0.
506  5.05  0.  0.  0.
507  5.06  0.  0.  0.
508  5.07  0.  0.  0.
509  5.08  0.  0.  0.
510  5.09  0.  0.  0.
511  5.10  0.  0.  0.
512  5.11  0.  0.  0.
513  5.12  0.  0.  0.
514  5.13  0.  0.  0.
515  5.14  0.  0.  0.
516  5.15  0.  0.  0.
517  5.16  0.  0.  0.
518  5.17  0.  0.  0.
519  5.18  0.  0.  0.
520  5.19  0.  0.  0.
521  5.20  0.  0.  0.
522  5.21  0.  0.  0.
523  5.22  0.  0.  0.
524  5.23  0.  0.  0.
525  5.24  0.  0.  0.
526  5.25  0.  0.  0.
527  5.26  0.  0.  0.
528  5.27  0.  0.  0.
529  5.28  0.  0.  0.
530  5.29  0.  0.  0.
531  5.30  0.  0.  0.
532  5.31  0.  0.  0.
533  5.32  0.  0.  0.
534  5.33  0.  0.  0.
535  5.34  0.  0.  0.
536  5.35  0.  0.  0.
537  5.36  0.  0.  0.
538  5.37  0.  0.  0.
539  5.38  0.  0.  0.
540  5.39  0.  0.  0.
541  5.40  0.  0.  0.
542  5.41  0.  0.  0.
543  5.42  0.  0.  0.
544  5.43  0.  0.  0.
545  5.44  0.  0.  0.
546  5.45  0.  0.  0.
547  5.46  0.  0.  0.
548  5.47  0.  0.  0.
549  5.48  0.  0.  0.
550  5.49  0.  0.  0.
551  5.50  0.  0.  0.
552  5.51  0.  0.  0.
553  5.52  0.  0.  0.
554  5.53  0.  0.  0.
555  5.54  0.  0.  0.
556  5.55  0.  0.  0.
557  5.56  0.  0.  0.
558  5.57  0.  0.  0.
559  5.58  0.  0.  0.
560  5.59  0.  0.  0.
561  5.60  0.  0.  0.
562  5.61  0.  0.  0.
563  5.62  0.  0.  0.
564  5.63  0.  0.  0.
565  5.64  0.  0.  0.
566  5.65  0.  0.  0.
567  5.66  0.  0.  0.
568  5.67  0.  0.  0.
569  5.68  0.  0.  0.
570  5.69  0.  0.  0.
571  5.70  0.  0.  0.
572  5.71  0.  0.  0.
573  5.72  0.  0.  0.
574  5.73  0.  0.  0.
575  5.74  0.  0.  0.
576  5.75  0.  0.  0.
577  5.76  0.  0.  0.
578  5.77  0.  0.  0.
579  5.78  0.  0.  0.
580  5.79  0.  0.  0.
581  5.80  0.  0.  0.
582  5.81  0.  0.  0.
583  5.82  0.  0.  0.
584  5.83  0.  0.  0.
585  5.84  0.  0.  0.
586  5.85  0.  0.  0.
587  5.86  0.  0.  0.
588  5.87  0.  0.  0.
589  5.88  0.  0.  0.
590  5.89  0.  0.  0.
591  5.90  0.  0.  0.
592  5.91  0.  0.  0.
593  5.92  0.  0.  0.
594  5.93  0.  0.  0.
595  5.94  0.  0.  0.
596  5.95  0.  0.  0.
597  5.96  0.  0.  0.
598  5.97  0.  0.  0.
599  5.98  0.  0.  0.
600  5.99  0.  0.  0.
1                         1.6250144510347E+01  2.8557981474446E+00
1  0.0000000000000E+00  2.7149754666667E-11  1.9402277978697E-09
2  1.0000000000000E-02  3.3710106817089E-03 -1.4500499164125E-03
3  2.0000000000000E-02  1.3461266101226E-02 -5.7840166507423E-03
4  3.0000000000000E-02  3.0202556621754E-02 -1.2953420644682E-02
5  4.0000000000000E-02  5.3481600505168E-02 -2.2877695691757E-02
6  5.0000000000000E-02  8.3140646034614E-02 -3.5444543489125E-02
7  6.0000000000000E-02  1.1897831566761E-01 -5.0510439726333E-02
8  7.0000000000000E-02  1.6075069318420E-01 -6.7901300931032E-02
9  8.0000000000000E-02  2.0817265476764E-01 -8.7413323231836E-02
10  9.0000000000000E-02  2.6091944471272E-01 -1.0881400564346E-01
11  1.0000000000000E-01  3.1862849596511E-01 -1.3184337134692E-01
12  1.1000000000000E-01  3.8090149492615E-01 -1.5621540066072E-01
13  1.2000000000000E-01  4.4730668889266E-01 -1.8161968892862E-01
14  1.3000000000000E-01  5.1738143313030E-01 -2.0772334135494E-01
15  1.4000000000000E-01  5.9063497290146E-01 -2.3417311489024E-01
16  1.5000000000000E-01  6.6655145379375E-01 -2.6059781461773E-01
17  1.6000000000000E-01  7.4459315144179E-01 -2.8661094874675E-01
18  1.7000000000000E-01  8.2420390923219E-01 -3.1181364233525E-01
19  1.8000000000000E-01  9.0481276986651E-01 -3.3579780530913E-01
20  1.9000000000000E-01  9.8583778377669E-01 -3.5814954531432E-01
21  2.0000000000000E-01  1.0666899743949E+00 -3.7845281052988E-01
22  2.1000000000000E-01  1.1467774372360E+00 -3.9629324191131E-01
23  2.2000000000000E-01  1.2255095467197E+00 -4.1126220854968E-01
24  2.3000000000000E-01  1.3023012417147E+00 -4.2296099406748E-01
25  2.4000000000000E-01  1.3765773579916E+00 -4.3100509636847E-01
26  2.5000000000000E-01  1.4477769732074E+00 -4.3502859776455E-01
27  2.6000000000000E-01  1.5153577277730E+00 -4.3468855766152E-01
28  2.7000000000000E-01  1.5788000830545E+00 -4.2966937573878E-01
29  2.8000000000000E-01  1.6376114768775E+00 -4.1968707003418E-01
30  2.9000000000000E-01  1.6913303353198E+00 -4.0449341166544E-01
31  3.0000000000000E-01  1.7395298993178E+00 -3.8387985618582E-01
32  3.1000000000000E-01  1.7818218247341E+00 -3.5768121086982E-01
33  3.2000000000000E-01  1.8178595152606E+00 -3.2577897762035E-01
34  3.3000000000000E-01  1.8473411488816E+00 -2.8810431272292E-01
35  3.4000000000000E-01  1.8700123606065E+00 -2.4464054736507E-01
36  3.5000000000000E-01  1.8856685467901E+00 -1.9542521668235E-01
37  3.6000000000000E-01  1.8941567595809E+00 -1.4055155005426E-01
38  3.7000000000000E-01  1.8953771638321E+00 -8.0169381396944E-02
39  3.8000000000000E-01  1.8892840331494E+00 -1.4485445202198E-02
40  3.9000000000000E-01  1.8758862665580E+00  5.6236968050672E-02
41  4.0000000000000E-01  1.8552474125086E+00  1.3167901485928E-01
42  4.1000000000000E-01  1.8274851925106E+00  2.1146796856076E-01
43  4.2000000000000E-01  1.7927705225148E+00  2.9517955494650E-01
44  4.3000000000000E-01  1.7513260361623E+00  3.8234094254722E-01
45  4.4000000000000E-01  1.7034241200972E+00  4.7243436648636E-01
46  4.5000000000000E-01  1.6493844775797E+00  5.6490135488254E-01
47  4.6000000000000E-01  1.5895712425731E+00  6.5914751715620E-01
48  4.7000000000000E-01  1.5243896721735E+00  7.5454784444683E-01
49  4.8000000000000E-01  1.4542824506490E+00  8.5045246385430E-01
50  4.9000000000000E-01  1.3797256433295E+00  9.4619278054580E-01
51  5.0000000000000E-01  1.3012243430877E+00  1.0410879350731E+00
52  5.1000000000000E-01  1.2193080560720E+00  1.1344514976533E+00
53  5.2000000000000E-01  1.1345258766524E+00  1.2255983167957E+00
54  5.3000000000000E-01  1.0474415041446E+00  1.3138514365904E+00
55  5.4000000000000E-01  9.5862815576400E-01  1.3985489952788E+00
56  5.5000000000000E-01  8.6866343138230E-01  1.4790510174312E+00
57  5.6000000000000E-01  7.7812418601520E-01  1.5547460131707E+00
58  5.7000000000000E-01  6.8758146554678E-01  1.6250573003837E+00
59  5.8000000000000E-01  5.9759556001642E-01  1.6894489696973E+00
60  5.9000000000000E-01  5.0871122687583E-01  1.7474314170987E+00
61  6.0000000000000E-01  4.2145313401043E-01  1.7985663753358E+00
62  6.1000000000000E-01  3.3632156905826E-01  1.8424713825284E+00
63  6.2000000000000E-01  2.5378845771397E-01  1.8788236346117E+00
64  6.3000000000000E-01  1.7429372934386E-01  1.9073631771575E+00
65  6.4000000000000E-01  9.8242063439043E-02  1.9278954016067E+00
66  6.5000000000000E-01  2.6000045282373E-02  1.9402928208177E+00
67  6.6000000000000E-01 -4.2106246212655E-02  1.9444961089116E+00
68  6.7000000000000E-01 -1.0579320112369E-01  1.9405144004772E+00
69  6.8000000000000E-01 -1.6482117990948E-01  1.9284248541260E+00
70  6.9000000000000E-01 -2.1899554754305E-01  1.9083714949654E+00
71  7.0000000000000E-01 -2.6816723993796E-01  1.8805633596444E+00
72  7.1000000000000E-01 -3.1223286761598E-01  1.8452719760540E+00
73  7.2000000000000E-01 -3.5113436671208E-01  1.8028282174222E+00
74  7.3000000000000E-01 -3.8485821223939E-01  1.7536185773048E+00
75  7.4000000000000E-01 -4.1343421298352E-01  1.6980809177609E+00
76  7.5000000000000E-01 -4.3693391141094E-01  1.6366997477434E+00
77  7.6000000000000E-01 -4.5546861551899E-01  1.5700010923928E+00
78  7.7000000000000E-01 -4.6918709259539E-01  1.4985470164744E+00
79  7.8000000000000E-01 -4.7827295737160E-01  1.4229298666541E+00
80  7.9000000000000E-01 -4.8294178903750E-01  1.3437662976908E+00
81  8.0000000000000E-01 -4.8343801303346E-01  1.2616911469841E+00
82  8.1000000000000E-01 -4.8003158446008E-01  1.1773512203199E+00
83  8.2000000000000E-01 -4.7301451036098E-01  1.0913990491863E+00
84  8.3000000000000E-01 -4.6269724806710E-01  1.0044866767902E+00
85  8.4000000000000E-01 -4.4940501627150E-01  9.1725952598859E-01
86  8.5000000000000E-01 -4.3347405457019E-01  8.3035039788171E-01
87  8.6000000000000E-01 -4.1524786589642E-01  7.4437364491657E-01
88  8.7000000000000E-01 -3.9507347463903E-01  6.5991955713153E-01
89  8.8000000000000E-01 -3.7329773131487E-01  5.7754899476769E-01
90  8.9000000000000E-01 -3.5026369250819E-01  4.9778829498472E-01
91  9.0000000000000E-01 -3.2630710244318E-01  4.2112447496272E-01
92  9.1000000000000E-01 -3.0175300006475E-01  3.4800074834291E-01
93  9.2000000000000E-01 -2.7691247291115E-01  2.7881236684995E-01
94  9.3000000000000E-01 -2.5207957641014E-01  2.1390279412081E-01
95  9.4000000000000E-01 -2.2752843455709E-01  1.5356021430481E-01
96  9.5000000000000E-01 -2.0351053527120E-01  9.8014373945298E-02
97  9.6000000000000E-01 -1.8025223110687E-01  4.7433752041269E-02
98  9.7000000000000E-01 -1.5795245344538E-01  1.9230500392900E-03
99  9.8000000000000E-01 -1.3678064583232E-01 -3.8479009166934E-02
100  9.9000000000000E-01 -1.1687491966538E-01 -7.3801586732585E-02
101  1.0000000000000E+00 -9.8340439163365E-02 -1.0414333239737E-01
102  1.0100000000000E+00 -8.1248146795103E-02 -1.2967331535585E-01
103  1.0200000000000E+00 -6.5638188346124E-02 -1.5061643242006E-01
104  1.0300000000000E+00 -5.1528487927798E-02 -1.6722322546345E-01
105  1.0400000000000E+00 -3.8917699059823E-02 -1.7976120382663E-01
106  1.0500000000000E+00 -2.7786628331005E-02 -1.8851200947103E-01
107  1.0600000000000E+00 -1.8099740560238E-02 -1.9376863162917E-01
108  1.0700000000000E+00 -9.8067312325816E-03 -1.9583268372549E-01
109  1.0800000000000E+00 -2.8441512861929E-03 -1.9501175790439E-01
110  1.0900000000000E+00  2.8629298828229E-03 -1.9161686935419E-01
111  1.1000000000000E+00  7.3992361801346E-03 -1.8595999855568E-01
112  1.1100000000000E+00  1.0857583618390E-02 -1.7835173722208E-01
113  1.1200000000000E+00  1.3337176076032E-02 -1.6909903639885E-01
114  1.1300000000000E+00  1.4941911541559E-02 -1.5850306660974E-01
115  1.1400000000000E+00  1.5778703606151E-02 -1.4685717326454E-01