U     ONCVPSP-4.0.1  r_core=   1.10371   1.00297   1.00297   1.10371
92.0000     32.0000      220329    zatom,zion,pspd
8      11   3     4   600     0    pspcod,pspxc,lmax,lloc,mmax,r2well
5.99000000  5.00000000  0.00000000    rchrg fchrg qchrg
3     2     2     2     0    nproj
1     1           extension_switch
0                         5.0565086541627E+01  6.9531002508968E+00  1.0568517596117E+00
1  0.0000000000000E+00 -3.0560312191952E-07  8.4525063481777E-07 -1.4690030827325E-06
2  1.0000000000000E-02  1.3927986013759E-01 -7.6482933409873E-02  1.1134499517422E-01
3  2.0000000000000E-02  2.7718984213829E-01 -1.5004438130946E-01  2.1767839091206E-01
4  3.0000000000000E-02  4.1240428531325E-01 -2.1788560273164E-01  3.1420997045938E-01
5  4.0000000000000E-02  5.4368402613605E-01 -2.7744793083349E-01  3.9658270796441E-01
6  5.0000000000000E-02  6.6991488790184E-01 -3.2651950859521E-01  4.6106583744232E-01
7  6.0000000000000E-02  7.9014069513443E-01 -3.6332671364959E-01  5.0472081961798E-01
8  7.0000000000000E-02  9.0358936914636E-01 -3.8660622322194E-01  5.2553300391120E-01
9  8.0000000000000E-02  1.0096909667597E+00 -3.9565451541120E-01  5.2250325183128E-01
10  9.0000000000000E-02  1.1080868805538E+00 -3.9035258921093E-01  4.9569550350511E-01
11  1.0000000000000E-01  1.1986298106405E+00 -3.7116477025339E-01  4.4623815798049E-01
12  1.1000000000000E-01  1.2813745278596E+00 -3.3911160549867E-01  3.7627911995277E-01
13  1.2000000000000E-01  1.3565598585827E+00 -2.9571798891739E-01  2.8889635624051E-01
14  1.3000000000000E-01  1.4245827141040E+00 -2.4293875236114E-01  1.8796771980403E-01
15  1.4000000000000E-01  1.4859653456842E+00 -1.8306495393697E-01  7.8005555656727E-02
16  1.5000000000000E-01  1.5413173139581E+00 -1.1861495689382E-01 -3.6036873439651E-02
17  1.6000000000000E-01  1.5912939049953E+00 -5.2215077667784E-02 -1.4897887840270E-01
18  1.7000000000000E-01  1.6365528939547E+00  1.3524937795744E-02 -2.5563661502367E-01
19  1.8000000000000E-01  1.6777116432868E+00  7.6136096520681E-02 -3.5104851220834E-01
20  1.9000000000000E-01  1.7153065217074E+00  1.3340847137161E-01 -4.3069215926610E-01
21  2.0000000000000E-01  1.7497565422587E+00  1.8349834035438E-01 -4.9068329311977E-01
22  2.1000000000000E-01  1.7813329460743E+00  2.2501930390519E-01 -5.2794826549421E-01
23  2.2000000000000E-01  1.8101362099573E+00  2.5711319962073E-01 -5.4036247892232E-01
24  2.3000000000000E-01  1.8360816408987E+00  2.7949748622486E-01 -5.2684871221945E-01
25  2.4000000000000E-01  1.8588943524912E+00  2.9248676934913E-01 -4.8743095039859E-01
26  2.5000000000000E-01  1.8781140124143E+00  2.9698724854369E-01 -4.2324121922811E-01
27  2.6000000000000E-01  1.8931093241070E+00  2.9446403061724E-01 -3.3647892069341E-01
28  2.7000000000000E-01  1.9031017776648E+00  2.8688242910236E-01 -2.3032418769502E-01
29  2.8000000000000E-01  1.9071977933295E+00  2.7662550294811E-01 -1.0880873830323E-01
30  2.9000000000000E-01  1.9044280035100E+00  2.6639113062901E-01  2.3350471928146E-02
31  3.0000000000000E-01  1.8937920924970E+00  2.5907282365988E-01  1.6094790432835E-01
32  3.1000000000000E-01  1.8743073512611E+00  2.5762921652098E-01  2.9850819600083E-01
33  3.2000000000000E-01  1.8450589195231E+00  2.6494769622338E-01  4.3051785999776E-01
34  3.3000000000000E-01  1.8052495870469E+00  2.8370793081861E-01  5.5166018972568E-01
35  3.4000000000000E-01  1.7542470155560E+00  3.1625110863174E-01  6.5704346878029E-01
36  3.5000000000000E-01  1.6916263227509E+00  3.6446050576475E-01  7.4241284502877E-01
37  3.6000000000000E-01  1.6172061376342E+00  4.2965856599177E-01  8.0433689405971E-01
38  3.7000000000000E-01  1.5310764850121E+00  5.1252502231069E-01  8.4036094396530E-01
39  3.8000000000000E-01  1.4336171764085E+00  6.1303974044773E-01  8.4912061634189E-01
40  3.9000000000000E-01  1.3255057614308E+00  7.3045295722127E-01  8.3041069853453E-01
41  4.0000000000000E-01  1.2077145120869E+00  8.6328446341303E-01  7.8520632876642E-01
42  4.1000000000000E-01  1.0814963550841E+00  1.0093520892319E+00  7.1563546933173E-01
43  4.2000000000000E-01  9.4836011508971E-01  1.1658286411579E+00  6.2490367850220E-01
44  4.3000000000000E-01  8.1003586638342E-01  1.3293252632693E+00  5.1717418250376E-01
45  4.4000000000000E-01  6.6843159294525E-01  1.4959981039705E+00  3.9740811023529E-01
46  4.5000000000000E-01  5.2558271078465E-01  1.6616742067421E+00  2.7117140625013E-01
47  4.6000000000000E-01  3.8359629634715E-01  1.8219917517536E+00  1.4441631213845E-01
48  4.7000000000000E-01  2.4459207895076E-01  1.9725491873358E+00  2.3246345000030E-02
49  4.8000000000000E-01  1.1064238452840E-01  2.1090574308535E+00 -8.6325638865936E-02
50  4.9000000000000E-01 -1.6286742766508E-02  2.2274892021200E+00 -1.7861645327862E-01
51  5.0000000000000E-01 -1.3439106665063E-01  2.3242196832453E+00 -2.4849898387494E-01
52  5.1000000000000E-01 -2.4207829900175E-01  2.3961530701559E+00 -2.9160686858196E-01
53  5.2000000000000E-01 -3.3801104425547E-01  2.4408301760769E+00 -3.0450928976458E-01
54  5.3000000000000E-01 -4.2114103372795E-01  2.4565130394087E+00 -2.8484899404932E-01
55  5.4000000000000E-01 -4.9073349117588E-01  2.4422434428597E+00 -2.3143821864405E-01
56  5.5000000000000E-01 -5.4638087041444E-01  2.3978733254646E+00 -1.4430897628960E-01
57  5.6000000000000E-01 -5.8800563210436E-01  2.3240662176205E+00 -2.4716057458880E-02
58  5.7000000000000E-01 -6.1585216148669E-01  2.2222700016873E+00  1.2490693512011E-01
59  5.8000000000000E-01 -6.3046835335184E-01  2.0946624467565E+00  3.0103628239666E-01
60  5.9000000000000E-01 -6.3267778689035E-01  1.9440720370403E+00  4.9918753269629E-01
61  6.0000000000000E-01 -6.2354376468739E-01  1.7738775638034E+00  7.1407991824865E-01
62  6.1000000000000E-01 -6.0432678253075E-01  1.5878907414537E+00  9.3982879785655E-01
63  6.2000000000000E-01 -5.7643721818054E-01  1.3902267072505E+00  1.1701580829998E+00
64  6.3000000000000E-01 -5.4138516931215E-01  1.1851676478103E+00  1.3986239252041E+00
65  6.4000000000000E-01 -5.0072942864023E-01  9.7702495068855E-01  1.6188406441175E+00
66  6.5000000000000E-01 -4.5602755668708E-01  7.7000520259149E-01  1.8246999658734E+00
67  6.6000000000000E-01 -4.0878890250609E-01  5.6808505430793E-01  2.0105751101316E+00
68  6.7000000000000E-01 -3.6043223632458E-01  3.7489946338930E-01  2.1715020849566E+00
69  6.8000000000000E-01 -3.1224940522137E-01  1.9364713498202E-01  2.3033316795880E+00
70  6.9000000000000E-01 -2.6537611623212E-01  2.7016143121080E-02  2.4028470306493E+00
71  7.0000000000000E-01 -2.2077060543476E-01 -1.2286823086103E-01  2.4678432118222E+00
72  7.1000000000000E-01 -1.7920058308488E-01 -2.5447241470546E-01  2.4971669865464E+00
73  7.2000000000000E-01 -1.4123847078849E-01 -3.6686021343116E-01  2.4907165908242E+00
74  7.3000000000000E-01 -1.0726458428129E-01 -4.5967622121428E-01  2.4494031000461E+00
75  7.4000000000000E-01 -7.7477580841255E-02 -5.3310888899901E-01  2.3750765054417E+00
76  7.5000000000000E-01 -5.1911198547594E-02 -5.8783596492443E-01  2.2704210133783E+00
77  7.6000000000000E-01 -3.0456078017341E-02 -6.2495568019148E-01  2.1388252255319E+00
78  7.7000000000000E-01 -1.2885285650988E-02 -6.4590753214092E-01  1.9842337131900E+00
79  7.8000000000000E-01  1.1179426303277E-03 -6.5238680074944E-01  1.8109870319236E+00
80  7.9000000000000E-01  1.1931743619139E-02 -6.4625701566818E-01  1.6236574165795E+00
81  8.0000000000000E-01  1.9967912819861E-02 -6.2946446910954E-01  1.4268872498917E+00
82  8.1000000000000E-01  2.5646273242186E-02 -6.0395855573028E-01  1.2252369258985E+00
83  8.2000000000000E-01  2.9372284408202E-02 -5.7162123330712E-01  1.0230479614028E+00
84  8.3000000000000E-01  3.1518814699470E-02 -5.3420826461418E-01  8.2432618805270E-01
85  8.4000000000000E-01  3.2412725672394E-02 -4.9330415496841E-01  6.3264863821980E-01
86  8.5000000000000E-01  3.2326616472085E-02 -4.5029187967916E-01  4.5109638198912E-01
87  8.6000000000000E-01  3.1475765192752E-02 -4.0633764224355E-01  2.8221414772132E-01
88  8.7000000000000E-01  3.0019997417955E-02 -3.6239005945063E-01  1.2799613397901E-01
89  8.8000000000000E-01  2.8069925195452E-02 -3.1919237429561E-01 -1.0103936142495E-02
90  8.9000000000000E-01  2.5696746082454E-02 -2.7730558921595E-01 -1.3114169325475E-01
91  9.0000000000000E-01  2.2944583499698E-02 -2.3713982318043E-01 -2.3463414759075E-01
92  9.1000000000000E-01  1.9844195857898E-02 -1.9899075257378E-01 -3.2049988724240E-01
93  9.2000000000000E-01  1.6426789319566E-02 -1.6307771599691E-01 -3.8899301982727E-01
94  9.3000000000000E-01  1.2736641007085E-02 -1.2957995688510E-01 -4.4063669344082E-01
95  9.4000000000000E-01  8.8412760871455E-03 -9.8667546347296E-02 -4.7616201133248E-01
96  9.5000000000000E-01  4.8380402975136E-03 -7.0523764110743E-02 -4.9645785725654E-01
97  9.6000000000000E-01  8.5606297017010E-04 -4.5356102052391E-02 -5.0253659836684E-01
98  9.7000000000000E-01 -2.9471944397766E-03 -2.3393569264575E-02 -4.9551986558720E-01
99  9.8000000000000E-01 -6.3953740153322E-03 -4.8685905816252E-03 -4.7664767356925E-01
100  9.9000000000000E-01 -9.3089534642205E-03  1.0017533204174E-02 -4.4731309078794E-01
101  1.0000000000000E+00 -1.1527287459260E-02  2.1145828807038E-02 -4.0912332076998E-01
102  1.0100000000000E+00 -1.2936123962279E-02  2.8545244743937E-02 -3.6398273305983E-01
103  1.0200000000000E+00 -1.3475388427812E-02  3.2395816567265E-02 -3.1402209165016E-01
104  1.0300000000000E+00 -1.3118905771545E-02  3.2946708968166E-02 -2.6133865946158E-01
105  1.0400000000000E+00 -1.1884448840900E-02  3.0529176466924E-02 -2.0796851332678E-01
106  1.0500000000000E+00 -9.8678570203578E-03  2.5636196859785E-02 -1.5598127356837E-01
107  1.0600000000000E+00 -7.6748651419665E-03  2.0005276559316E-02 -1.0895640338606E-01
108  1.0700000000000E+00 -5.4833303965474E-03  1.4256912696003E-02 -6.8732033352809E-02
109  1.0800000000000E+00 -3.2826587617359E-03  8.4873865406689E-03 -3.6214560609670E-02
110  1.0900000000000E+00 -1.3263620752478E-03  3.4059814691062E-03 -1.2940014050647E-02
111  1.1000000000000E+00 -1.3280180344639E-04  3.3865730967014E-04 -1.1526945108829E-03
112  1.1100000000000E+00  2.0998664671721E-06 -5.3322410108989E-06  1.7189416439506E-05
113  1.1200000000000E+00  9.1382587331236E-07 -2.3331276391268E-06  8.2123612169870E-06
114  1.13  0. -0.  0.
115  1.14  0.  0.  0.
116  1.15  0.  0.  0.
117  1.16  0.  0.  0.
118  1.17  0.  0.  0.
119  1.18  0.  0.  0.
120  1.19  0.  0.  0.
121  1.20  0.  0.  0.
122  1.21  0.  0.  0.
123  1.22  0.  0.  0.
124  1.23  0.  0.  0.
125  1.24  0.  0.  0.
126  1.25  0.  0.  0.
127  1.26  0.  0.  0.
128  1.27  0.  0.  0.
129  1.28  0.  0.  0.
130  1.29  0.  0.  0.
131  1.30  0.  0.  0.
132  1.31  0.  0.  0.
133  1.32  0.  0.  0.
134  1.33  0.  0.  0.
135  1.34  0.  0.  0.
136  1.35  0.  0.  0.
137  1.36  0.  0.  0.
138  1.37  0.  0.  0.
139  1.38  0.  0.  0.
140  1.39  0.  0.  0.
141  1.40  0.  0.  0.
142  1.41  0.  0.  0.
143  1.42  0.  0.  0.
144  1.43  0.  0.  0.
145  1.44  0.  0.  0.
146  1.45  0.  0.  0.
147  1.46  0.  0.  0.
148  1.47  0.  0.  0.
149  1.48  0.  0.  0.
150  1.49  0.  0.  0.
151  1.50  0.  0.  0.
152  1.51  0.  0.  0.
153  1.52  0.  0.  0.
154  1.53  0.  0.  0.
155  1.54  0.  0.  0.
156  1.55  0.  0.  0.
157  1.56  0.  0.  0.
158  1.57  0.  0.  0.
159  1.58  0.  0.  0.
160  1.59  0.  0.  0.
161  1.60  0.  0.  0.
162  1.61  0.  0.  0.
163  1.62  0.  0.  0.
164  1.63  0.  0.  0.
165  1.64  0.  0.  0.
166  1.65  0.  0.  0.
167  1.66  0.  0.  0.
168  1.67  0.  0.  0.
169  1.68  0.  0.  0.
170  1.69  0.  0.  0.
171  1.70  0.  0.  0.
172  1.71  0.  0.  0.
173  1.72  0.  0.  0.
174  1.73  0.  0.  0.
175  1.74  0.  0.  0.
176  1.75  0.  0.  0.
177  1.76  0.  0.  0.
178  1.77  0.  0.  0.
179  1.78  0.  0.  0.
180  1.79  0.  0.  0.
181  1.80  0.  0.  0.
182  1.81  0.  0.  0.
183  1.82  0.  0.  0.
184  1.83  0.  0.  0.
185  1.84  0.  0.  0.
186  1.85  0.  0.  0.
187  1.86  0.  0.  0.
188  1.87  0.  0.  0.
189  1.88  0.  0.  0.
190  1.89  0.  0.  0.
191  1.90  0.  0.  0.
192  1.91  0.  0.  0.
193  1.92  0.  0.  0.
194  1.93  0.  0.  0.
195  1.94  0.  0.  0.
196  1.95  0.  0.  0.
197  1.96  0.  0.  0.
198  1.97  0.  0.  0.
199  1.98  0.  0.  0.
200  1.99  0.  0.  0.
201  2.00  0.  0.  0.
202  2.01  0.  0.  0.
203  2.02  0.  0.  0.
204  2.03  0.  0.  0.
205  2.04  0.  0.  0.
206  2.05  0.  0.  0.
207  2.06  0.  0.  0.
208  2.07  0.  0.  0.
209  2.08  0.  0.  0.
210  2.09  0.  0.  0.
211  2.10  0.  0.  0.
212  2.11  0.  0.  0.
213  2.12  0.  0.  0.
214  2.13  0.  0.  0.
215  2.14  0.  0.  0.
216  2.15  0.  0.  0.
217  2.16  0.  0.  0.
218  2.17  0.  0.  0.
219  2.18  0.  0.  0.
220  2.19  0.  0.  0.
221  2.20  0.  0.  0.
222  2.21  0.  0.  0.
223  2.22  0.  0.  0.
224  2.23  0.  0.  0.
225  2.24  0.  0.  0.
226  2.25  0.  0.  0.
227  2.26  0.  0.  0.
228  2.27  0.  0.  0.
229  2.28  0.  0.  0.
230  2.29  0.  0.  0.
231  2.30  0.  0.  0.
232  2.31  0.  0.  0.
233  2.32  0.  0.  0.
234  2.33  0.  0.  0.
235  2.34  0.  0.  0.
236  2.35  0.  0.  0.
237  2.36  0.  0.  0.
238  2.37  0.  0.  0.
239  2.38  0.  0.  0.
240  2.39  0.  0.  0.
241  2.40  0.  0.  0.
242  2.41  0.  0.  0.
243  2.42  0.  0.  0.
244  2.43  0.  0.  0.
245  2.44  0.  0.  0.
246  2.45  0.  0.  0.
247  2.46  0.  0.  0.
248  2.47  0.  0.  0.
249  2.48  0.  0.  0.
250  2.49  0.  0.  0.
251  2.50  0.  0.  0.
252  2.51  0.  0.  0.
253  2.52  0.  0.  0.
254  2.53  0.  0.  0.
255  2.54  0.  0.  0.
256  2.55  0.  0.  0.
257  2.56  0.  0.  0.
258  2.57  0.  0.  0.
259  2.58  0.  0.  0.
260  2.59  0.  0.  0.
261  2.60  0.  0.  0.
262  2.61  0.  0.  0.
263  2.62  0.  0.  0.
264  2.63  0.  0.  0.
265  2.64  0.  0.  0.
266  2.65  0.  0.  0.
267  2.66  0.  0.  0.
268  2.67  0.  0.  0.
269  2.68  0.  0.  0.
270  2.69  0.  0.  0.
271  2.70  0.  0.  0.
272  2.71  0.  0.  0.
273  2.72  0.  0.  0.
274  2.73  0.  0.  0.
275  2.74  0.  0.  0.
276  2.75  0.  0.  0.
277  2.76  0.  0.  0.
278  2.77  0.  0.  0.
279  2.78  0.  0.  0.
280  2.79  0.  0.  0.
281  2.80  0.  0.  0.
282  2.81  0.  0.  0.
283  2.82  0.  0.  0.
284  2.83  0.  0.  0.
285  2.84  0.  0.  0.
286  2.85  0.  0.  0.
287  2.86  0.  0.  0.
288  2.87  0.  0.  0.
289  2.88  0.  0.  0.
290  2.89  0.  0.  0.
291  2.90  0.  0.  0.
292  2.91  0.  0.  0.
293  2.92  0.  0.  0.
294  2.93  0.  0.  0.
295  2.94  0.  0.  0.
296  2.95  0.  0.  0.
297  2.96  0.  0.  0.
298  2.97  0.  0.  0.
299  2.98  0.  0.  0.
300  2.99  0.  0.  0.
301  3.00  0.  0.  0.
302  3.01  0.  0.  0.
303  3.02  0.  0.  0.
304  3.03  0.  0.  0.
305  3.04  0.  0.  0.
306  3.05  0.  0.  0.
307  3.06  0.  0.  0.
308  3.07  0.  0.  0.
309  3.08  0.  0.  0.
310  3.09  0.  0.  0.
311  3.10  0.  0.  0.
312  3.11  0.  0.  0.
313  3.12  0.  0.  0.
314  3.13  0.  0.  0.
315  3.14  0.  0.  0.
316  3.15  0.  0.  0.
317  3.16  0.  0.  0.
318  3.17  0.  0.  0.
319  3.18  0.  0.  0.
320  3.19  0.  0.  0.
321  3.20  0.  0.  0.
322  3.21  0.  0.  0.
323  3.22  0.  0.  0.
324  3.23  0.  0.  0.
325  3.24  0.  0.  0.
326  3.25  0.  0.  0.
327  3.26  0.  0.  0.
328  3.27  0.  0.  0.
329  3.28  0.  0.  0.
330  3.29  0.  0.  0.
331  3.30  0.  0.  0.
332  3.31  0.  0.  0.
333  3.32  0.  0.  0.
334  3.33  0.  0.  0.
335  3.34  0.  0.  0.
336  3.35  0.  0.  0.
337  3.36  0.  0.  0.
338  3.37  0.  0.  0.
339  3.38  0.  0.  0.
340  3.39  0.  0.  0.
341  3.40  0.  0.  0.
342  3.41  0.  0.  0.
343  3.42  0.  0.  0.
344  3.43  0.  0.  0.
345  3.44  0.  0.  0.
346  3.45  0.  0.  0.
347  3.46  0.  0.  0.
348  3.47  0.  0.  0.
349  3.48  0.  0.  0.
350  3.49  0.  0.  0.
351  3.50  0.  0.  0.
352  3.51  0.  0.  0.
353  3.52  0.  0.  0.
354  3.53  0.  0.  0.
355  3.54  0.  0.  0.
356  3.55  0.  0.  0.
357  3.56  0.  0.  0.
358  3.57  0.  0.  0.
359  3.58  0.  0.  0.
360  3.59  0.  0.  0.
361  3.60  0.  0.  0.
362  3.61  0.  0.  0.
363  3.62  0.  0.  0.
364  3.63  0.  0.  0.
365  3.64  0.  0.  0.
366  3.65  0.  0.  0.
367  3.66  0.  0.  0.
368  3.67  0.  0.  0.
369  3.68  0.  0.  0.
370  3.69  0.  0.  0.
371  3.70  0.  0.  0.
372  3.71  0.  0.  0.
373  3.72  0.  0.  0.
374  3.73  0.  0.  0.
375  3.74  0.  0.  0.
376  3.75  0.  0.  0.
377  3.76  0.  0.  0.
378  3.77  0.  0.  0.
379  3.78  0.  0.  0.
380  3.79  0.  0.  0.
381  3.80  0.  0.  0.
382  3.81  0.  0.  0.
383  3.82  0.  0.  0.
384  3.83  0.  0.  0.
385  3.84  0.  0.  0.
386  3.85  0.  0.  0.
387  3.86  0.  0.  0.
388  3.87  0.  0.  0.
389  3.88  0.  0.  0.
390  3.89  0.  0.  0.
391  3.90  0.  0.  0.
392  3.91  0.  0.  0.
393  3.92  0.  0.  0.
394  3.93  0.  0.  0.
395  3.94  0.  0.  0.
396  3.95  0.  0.  0.
397  3.96  0.  0.  0.
398  3.97  0.  0.  0.
399  3.98  0.  0.  0.
400  3.99  0.  0.  0.
401  4.00  0.  0.  0.
402  4.01  0.  0.  0.
403  4.02  0.  0.  0.
404  4.03  0.  0.  0.
405  4.04  0.  0.  0.
406  4.05  0.  0.  0.
407  4.06  0.  0.  0.
408  4.07  0.  0.  0.
409  4.08  0.  0.  0.
410  4.09  0.  0.  0.
411  4.10  0.  0.  0.
412  4.11  0.  0.  0.
413  4.12  0.  0.  0.
414  4.13  0.  0.  0.
415  4.14  0.  0.  0.
416  4.15  0.  0.  0.
417  4.16  0.  0.  0.
418  4.17  0.  0.  0.
419  4.18  0.  0.  0.
420  4.19  0.  0.  0.
421  4.20  0.  0.  0.
422  4.21  0.  0.  0.
423  4.22  0.  0.  0.
424  4.23  0.  0.  0.
425  4.24  0.  0.  0.
426  4.25  0.  0.  0.
427  4.26  0.  0.  0.
428  4.27  0.  0.  0.
429  4.28  0.  0.  0.
430  4.29  0.  0.  0.
431  4.30  0.  0.  0.
432  4.31  0.  0.  0.
433  4.32  0.  0.  0.
434  4.33  0.  0.  0.
435  4.34  0.  0.  0.
436  4.35  0.  0.  0.
437  4.36  0.  0.  0.
438  4.37  0.  0.  0.
439  4.38  0.  0.  0.
440  4.39  0.  0.  0.
441  4.40  0.  0.  0.
442  4.41  0.  0.  0.
443  4.42  0.  0.  0.
444  4.43  0.  0.  0.
445  4.44  0.  0.  0.
446  4.45  0.  0.  0.
447  4.46  0.  0.  0.
448  4.47  0.  0.  0.
449  4.48  0.  0.  0.
450  4.49  0.  0.  0.
451  4.50  0.  0.  0.
452  4.51  0.  0.  0.
453  4.52  0.  0.  0.
454  4.53  0.  0.  0.
455  4.54  0.  0.  0.
456  4.55  0.  0.  0.
457  4.56  0.  0.  0.
458  4.57  0.  0.  0.
459  4.58  0.  0.  0.
460  4.59  0.  0.  0.
461  4.60  0.  0.  0.
462  4.61  0.  0.  0.
463  4.62  0.  0.  0.
464  4.63  0.  0.  0.
465  4.64  0.  0.  0.
466  4.65  0.  0.  0.
467  4.66  0.  0.  0.
468  4.67  0.  0.  0.
469  4.68  0.  0.  0.
470  4.69  0.  0.  0.
471  4.70  0.  0.  0.
472  4.71  0.  0.  0.
473  4.72  0.  0.  0.
474  4.73  0.  0.  0.
475  4.74  0.  0.  0.
476  4.75  0.  0.  0.
477  4.76  0.  0.  0.
478  4.77  0.  0.  0.
479  4.78  0.  0.  0.
480  4.79  0.  0.  0.
481  4.80  0.  0.  0.
482  4.81  0.  0.  0.
483  4.82  0.  0.  0.
484  4.83  0.  0.  0.
485  4.84  0.  0.  0.
486  4.85  0.  0.  0.
487  4.86  0.  0.  0.
488  4.87  0.  0.  0.
489  4.88  0.  0.  0.
490  4.89  0.  0.  0.
491  4.90  0.  0.  0.
492  4.91  0.  0.  0.
493  4.92  0.  0.  0.
494  4.93  0.  0.  0.
495  4.94  0.  0.  0.
496  4.95  0.  0.  0.
497  4.96  0.  0.  0.
498  4.97  0.  0.  0.
499  4.98  0.  0.  0.
500  4.99  0.  0.  0.
501  5.00  0.  0.  0.
502  5.01  0.  0.  0.
503  5.02  0.  0.  0.
504  5.03  0.  0.  0.
505  5.04  0.  0.  0.
506  5.05  0.  0.  0.
507  5.06  0.  0.  0.
508  5.07  0.  0.  0.
509  5.08  0.  0.  0.
510  5.09  0.  0.  0.
511  5.10  0.  0.  0.
512  5.11  0.  0.  0.
513  5.12  0.  0.  0.
514  5.13  0.  0.  0.
515  5.14  0.  0.  0.
516  5.15  0.  0.  0.
517  5.16  0.  0.  0.
518  5.17  0.  0.  0.
519  5.18  0.  0.  0.
520  5.19  0.  0.  0.
521  5.20  0.  0.  0.
522  5.21  0.  0.  0.
523  5.22  0.  0.  0.
524  5.23  0.  0.  0.
525  5.24  0.  0.  0.
526  5.25  0.  0.  0.
527  5.26  0.  0.  0.
528  5.27  0.  0.  0.
529  5.28  0.  0.  0.
530  5.29  0.  0.  0.
531  5.30  0.  0.  0.
532  5.31  0.  0.  0.
533  5.32  0.  0.  0.
534  5.33  0.  0.  0.
535  5.34  0.  0.  0.
536  5.35  0.  0.  0.
537  5.36  0.  0.  0.
538  5.37  0.  0.  0.
539  5.38  0.  0.  0.
540  5.39  0.  0.  0.
541  5.40  0.  0.  0.
542  5.41  0.  0.  0.
543  5.42  0.  0.  0.
544  5.43  0.  0.  0.
545  5.44  0.  0.  0.
546  5.45  0.  0.  0.
547  5.46  0.  0.  0.
548  5.47  0.  0.  0.
549  5.48  0.  0.  0.
550  5.49  0.  0.  0.
551  5.50  0.  0.  0.
552  5.51  0.  0.  0.
553  5.52  0.  0.  0.
554  5.53  0.  0.  0.
555  5.54  0.  0.  0.
556  5.55  0.  0.  0.
557  5.56  0.  0.  0.
558  5.57  0.  0.  0.
559  5.58  0.  0.  0.
560  5.59  0.  0.  0.
561  5.60  0.  0.  0.
562  5.61  0.  0.  0.
563  5.62  0.  0.  0.
564  5.63  0.  0.  0.
565  5.64  0.  0.  0.
566  5.65  0.  0.  0.
567  5.66  0.  0.  0.
568  5.67  0.  0.  0.
569  5.68  0.  0.  0.
570  5.69  0.  0.  0.
571  5.70  0.  0.  0.
572  5.71  0.  0.  0.
573  5.72  0.  0.  0.
574  5.73  0.  0.  0.
575  5.74  0.  0.  0.
576  5.75  0.  0.  0.
577  5.76  0.  0.  0.
578  5.77  0.  0.  0.
579  5.78  0.  0.  0.
580  5.79  0.  0.  0.
581  5.80  0.  0.  0.
582  5.81  0.  0.  0.
583  5.82  0.  0.  0.
584  5.83  0.  0.  0.
585  5.84  0.  0.  0.
586  5.85  0.  0.  0.
587  5.86  0.  0.  0.
588  5.87  0.  0.  0.
589  5.88  0.  0.  0.
590  5.89  0.  0.  0.
591  5.90  0.  0.  0.
592  5.91  0.  0.  0.
593  5.92  0.  0.  0.
594  5.93  0.  0.  0.
595  5.94  0.  0.  0.
596  5.95  0.  0.  0.
597  5.96  0.  0.  0.
598  5.97  0.  0.  0.
599  5.98  0.  0.  0.
600  5.99  0.  0.  0.
1                         2.2660298908453E+01  2.2651958966566E+00
1  0.0000000000000E+00 -4.6489455951537E-08  1.7119765553797E-07
2  1.0000000000000E-02  3.8032607425621E-03 -1.7000945772760E-03
3  2.0000000000000E-02  1.5194883489775E-02 -6.8138820178975E-03
4  3.0000000000000E-02  3.4119863669933E-02 -1.5379524135739E-02
5  4.0000000000000E-02  6.0484811671646E-02 -2.7452934651009E-02
6  5.0000000000000E-02  9.4155512381212E-02 -4.3096733841286E-02
7  6.0000000000000E-02  1.3495376640291E-01 -6.2365735713917E-02
8  7.0000000000000E-02  1.8265375443509E-01 -8.5289857774422E-02
9  8.0000000000000E-02  2.3697821276438E-01 -1.1185551466325E-01
10  9.0000000000000E-02  2.9759473901174E-01 -1.4198667163796E-01
11  1.0000000000000E-01  3.6411256135156E-01 -1.7552678566848E-01
12  1.1000000000000E-01  4.3608010051880E-01 -2.1222284756779E-01
13  1.2000000000000E-01  5.1298363201497E-01 -2.5171265825470E-01
14  1.3000000000000E-01  5.9424731692458E-01 -2.9351632948354E-01
15  1.4000000000000E-01  6.7923481543496E-01 -3.3703280095080E-01
16  1.5000000000000E-01  7.6725263007172E-01 -3.8154192128628E-01
17  1.6000000000000E-01  8.5755524904367E-01 -4.2621236218213E-01
18  1.7000000000000E-01  9.4935207766490E-01 -4.7011533678923E-01
19  1.8000000000000E-01  1.0418160616460E+00 -5.1224379065784E-01
20  1.9000000000000E-01  1.1340938243038E+00 -5.5153644147434E-01
21  2.0000000000000E-01  1.2253170645377E+00 -5.8690577783350E-01
22  2.1000000000000E-01  1.3146148975754E+00 -6.1726890133444E-01
23  2.2000000000000E-01  1.4011267693558E+00 -6.4157992258950E-01
24  2.3000000000000E-01  1.4840155406779E+00 -6.5886250998531E-01
25  2.4000000000000E-01  1.5624803208241E+00 -6.6824114692018E-01
26  2.5000000000000E-01  1.6357686332768E+00 -6.6896968205834E-01
27  2.6000000000000E-01  1.7031875184685E+00 -6.6045585758982E-01
28  2.7000000000000E-01  1.7641132193367E+00 -6.4228066862943E-01
29  2.8000000000000E-01  1.8179991529865E+00 -6.1421163531075E-01
30  2.9000000000000E-01  1.8643819433212E+00 -5.7620934724128E-01
31  3.0000000000000E-01  1.9028853716856E+00 -5.2842695451726E-01
32  3.1000000000000E-01  1.9332221914293E+00 -4.7120261512446E-01
33  3.2000000000000E-01  1.9551938434950E+00 -4.0504524862923E-01
34  3.3000000000000E-01  1.9686881991750E+00 -3.3061427344258E-01
35  3.4000000000000E-01  1.9736755386262E+00 -2.4869430281650E-01
36  3.5000000000000E-01  1.9702030454322E+00 -1.6016602750058E-01
37  3.6000000000000E-01  1.9583881547933E+00 -6.5974707047976E-02
38  3.7000000000000E-01  1.9384111328417E+00  3.2902183767487E-02
39  3.8000000000000E-01  1.9105072849887E+00  1.3548655963531E-01
40  3.9000000000000E-01  1.8749591909520E+00  2.4082902032693E-01
41  4.0000000000000E-01  1.8320893430560E+00  3.4803439142166E-01
42  4.1000000000000E-01  1.7822535234823E+00  4.5628225505319E-01
43  4.2000000000000E-01  1.7258351973335E+00  5.6484147445251E-01
44  4.3000000000000E-01  1.6632411245759E+00  6.7307803114844E-01
45  4.4000000000000E-01  1.5948983088736E+00  7.8045584999189E-01
46  4.5000000000000E-01  1.5212523093928E+00  8.8653066727782E-01
47  4.6000000000000E-01  1.4427668476509E+00  9.9093738213792E-01
48  4.7000000000000E-01  1.3599245504072E+00  1.0933717013822E+00
49  4.8000000000000E-01  1.2732285864092E+00  1.1935672236860E+00
50  4.9000000000000E-01  1.1832048841574E+00  1.2912693923338E+00
51  5.0000000000000E-01  1.0904045638444E+00  1.3862079607342E+00
52  5.1000000000000E-01  9.9540618259755E-01  1.4780697487536E+00
53  5.2000000000000E-01  8.9881738049196E-01  1.5664735115019E+00
54  5.3000000000000E-01  8.0127552679297E-01  1.6509486907660E+00
55  5.4000000000000E-01  7.0344700163796E-01  1.7309196727141E+00
56  5.5000000000000E-01  6.0602480675731E-01  1.8056969384454E+00
57  5.6000000000000E-01  5.0972427755189E-01  1.8744761757556E+00
58  5.7000000000000E-01  4.1527676446826E-01  1.9363460347761E+00
59  5.8000000000000E-01  3.2342125975706E-01  1.9903047742929E+00
60  5.9000000000000E-01  2.3489406120828E-01  2.0352855799517E+00
61  6.0000000000000E-01  1.5041668164098E-01  2.0701898626132E+00
62  6.1000000000000E-01  7.0682325830975E-02  2.0939273882728E+00
63  6.2000000000000E-01 -3.6586407362429E-03  2.1054616734970E+00
64  6.3000000000000E-01 -7.2013720006940E-02  2.1038587242863E+00
65  6.4000000000000E-01 -1.3386322902872E-01  2.0883369212889E+00
66  6.5000000000000E-01 -1.8877454863521E-01  2.0583156766142E+00
67  6.6000000000000E-01 -2.3641504145894E-01  2.0134604190803E+00
68  6.7000000000000E-01 -2.7656302414147E-01  1.9537215125660E+00
69  6.8000000000000E-01 -3.0911622526655E-01  1.8793648777903E+00
70  6.9000000000000E-01 -3.3409723620401E-01  1.7909923671791E+00
71  7.0000000000000E-01 -3.5165556421660E-01  1.6895503258869E+00
72  7.1000000000000E-01 -3.6206602195124E-01  1.5763252444634E+00
73  7.2000000000000E-01 -3.6572332977392E-01  1.4529259506241E+00
74  7.3000000000000E-01 -3.6313296121657E-01  1.3212523754811E+00
75  7.4000000000000E-01 -3.5489842034121E-01  1.1834515372837E+00
76  7.5000000000000E-01 -3.4170529587659E-01  1.0418619852441E+00
77  7.6000000000000E-01 -3.2430258326962E-01  8.9894850913989E-01
78  7.7000000000000E-01 -3.0348189531596E-01  7.5722941993661E-01
79  7.8000000000000E-01 -2.8005528835911E-01  6.1919911765291E-01
80  7.9000000000000E-01 -2.5483250868041E-01  4.8724896376263E-01
81  8.0000000000000E-01 -2.2859850833675E-01  3.6358964979546E-01
82  8.1000000000000E-01 -2.0209208845234E-01  2.5017829019679E-01
83  8.2000000000000E-01 -1.7598649953558E-01  1.4865336078412E-01
84  8.3000000000000E-01 -1.5087276315350E-01  6.0280355649031E-02
85  8.4000000000000E-01 -1.2724637932735E-01 -1.4089346995299E-02
86  8.5000000000000E-01 -1.0549795301527E-01 -7.4044421535615E-02
87  8.6000000000000E-01 -8.5908116208180E-02 -1.1962294748883E-01
88  8.7000000000000E-01 -6.8646945940756E-02 -1.5130446765048E-01
89  8.8000000000000E-01 -5.3777890361266E-02 -1.6998476437001E-01
90  8.9000000000000E-01 -4.1266023026171E-02 -1.7693410399728E-01
91  9.0000000000000E-01 -3.0990258204234E-02 -1.7374041945388E-01
92  9.1000000000000E-01 -2.2758985519612E-02 -1.6223957102322E-01
93  9.2000000000000E-01 -1.6328428617944E-02 -1.4443541539662E-01
94  9.3000000000000E-01 -1.1422906709176E-02 -1.2241289571538E-01
95  9.4000000000000E-01 -7.7561150376847E-03 -9.8247635925670E-02
96  9.5000000000000E-01 -5.0522072115277E-03 -7.3916507950678E-02
97  9.6000000000000E-01 -3.1085931302246E-03 -5.1090792481537E-02
98  9.7000000000000E-01 -1.7965000875709E-03 -3.1103496756331E-02
99  9.8000000000000E-01 -9.0417902563514E-04 -1.5380476152202E-02
100  9.9000000000000E-01 -3.1447119652606E-04 -4.9255817935057E-03
101  1.0000000000000E+00 -2.2244921255291E-05 -3.0341561648557E-04
102  1.0100000000000E+00 -6.8360533392923E-07 -9.3128110502319E-06
103  1.0200000000000E+00  9.9810141927621E-08  1.4271660866326E-06
104  1.03  0.  0.
105  1.04  0.  0.
106  1.05  0.  0.
107  1.06  0.  0.
108  1.07  0.  0.
109  1.08  0.  0.
110  1.09  0.  0.
111  1.10  0.  0.
112  1.11  0.  0.
113  1.12  0.  0.
114  1.13  0.  0.
115  1.14  0.  0.
116  1.15  0.  0.
117  1.16  0.  0.
118  1.17  0.  0.
119  1.18  0.  0.
120  1.19  0.  0.
121  1.20  0.  0.
122  1.21  0.  0.
123  1.22  0.  0.
124  1.23  0.  0.
125  1.24  0.  0.
126  1.25  0.  0.
127  1.26  0.  0.
128  1.27  0.  0.
129  1.28  0.  0.
130  1.29  0.  0.
131  1.30  0.  0.
132  1.31  0.  0.
133  1.32  0.  0.
134  1.33  0.  0.
135  1.34  0.  0.
136  1.35  0.  0.
137  1.36  0.  0.
138  1.37  0.  0.
139  1.38  0.  0.
140  1.39  0.  0.
141  1.40  0.  0.
142  1.41  0.  0.
143  1.42  0.  0.
144  1.43  0.  0.
145  1.44  0.  0.
146  1.45  0.  0.
147  1.46  0.  0.
148  1.47  0.  0.
149  1.48  0.  0.
150  1.49  0.  0.
151  1.50  0.  0.
152  1.51  0.  0.
153  1.52  0.  0.
154  1.53  0.  0.
155  1.54  0.  0.
156  1.55  0.  0.
157  1.56  0.  0.
158  1.57  0.  0.
159  1.58  0.  0.
160  1.59  0.  0.
161  1.60  0.  0.
162  1.61  0.  0.
163  1.62  0.  0.
164  1.63  0.  0.
165  1.64  0.  0.
166  1.65  0.  0.
167  1.66  0.  0.
168  1.67  0.  0.
169  1.68  0.  0.
170  1.69  0.  0.
171  1.70  0.  0.
172  1.71  0.  0.
173  1.72  0.  0.
174  1.73  0.  0.
175  1.74  0.  0.
176  1.75  0.  0.
177  1.76  0.  0.
178  1.77  0.  0.
179  1.78  0.  0.
180  1.79  0.  0.
181  1.80  0.  0.
182  1.81  0.  0.
183  1.82  0.  0.
184  1.83  0.  0.
185  1.84  0.  0.
186  1.85  0.  0.
187  1.86  0.  0.
188  1.87  0.  0.
189  1.88  0.  0.
190  1.89  0.  0.
191  1.90  0.  0.
192  1.91  0.  0.
193  1.92  0.  0.
194  1.93  0.  0.
195  1.94  0.  0.
196  1.95  0.  0.
197  1.96  0.  0.
198  1.97  0.  0.
199  1.98  0.  0.
200  1.99  0.  0.
201  2.00  0.  0.
202  2.01  0.  0.
203  2.02  0.  0.
204  2.03  0.  0.
205  2.04  0.  0.
206  2.05  0.  0.
207  2.06  0.  0.
208  2.07  0.  0.
209  2.08  0.  0.
210  2.09  0.  0.
211  2.10  0.  0.
212  2.11  0.  0.
213  2.12  0.  0.
214  2.13  0.  0.
215  2.14  0.  0.
216  2.15  0.  0.
217  2.16  0.  0.
218  2.17  0.  0.
219  2.18  0.  0.
220  2.19  0.  0.
221  2.20  0.  0.
222  2.21  0.  0.
223  2.22  0.  0.
224  2.23  0.  0.