U     ONCVPSP-4.0.1  r_core=   1.20013   1.20013   1.22186   1.15091
92.0000     32.0000      220329    zatom,zion,pspd
8      11   3     4   600     0    pspcod,pspxc,lmax,lloc,mmax,r2well
5.99000000  5.00000000  0.00000000    rchrg fchrg qchrg
3     2     2     2     0    nproj
1     1           extension_switch
0                         3.9474043303702E+01  6.3865089803173E+00  8.3082824012027E-01
1  0.0000000000000E+00 -2.6703795730221E-08  7.5236178953553E-08 -2.0191025096317E-07
2  1.0000000000000E-02  1.2074057748997E-01 -3.6976022793459E-02  5.9974447000652E-02
3  2.0000000000000E-02  2.4096914915176E-01 -7.3355503791176E-02  1.1873497649747E-01
4  3.0000000000000E-02  3.6017859265766E-01 -1.0855513756723E-01  1.7510689316539E-01
5  4.0000000000000E-02  4.7787138262474E-01 -1.4201758073454E-01  2.2799248011356E-01
6  5.0000000000000E-02  5.9356397135106E-01 -1.7322317698665E-01  2.7640587880059E-01
7  6.0000000000000E-02  7.0679068870391E-01 -2.0170023233316E-01  3.1950379115481E-01
8  7.0000000000000E-02  8.1710703405128E-01 -2.2703345048440E-01  3.5661086080841E-01
9  8.0000000000000E-02  9.2409225983137E-01 -2.4887021357711E-01  3.8723879226471E-01
10  9.0000000000000E-02  1.0273511776448E+00 -2.6692448183485E-01  4.1109850474996E-01
11  1.0000000000000E-01  1.1265151523563E+00 -2.8097818388031E-01  4.2810488261495E-01
12  1.1000000000000E-01  1.2212422861880E+00 -2.9088007341800E-01  4.3837396655587E-01
13  1.2000000000000E-01  1.3112168316703E+00 -2.9654213378850E-01  4.4221271905638E-01
14  1.3000000000000E-01  1.3961479080400E+00 -2.9793371526745E-01  4.4010178245959E-01
15  1.4000000000000E-01  1.4757676287431E+00 -2.9507368681515E-01  4.3267191822869E-01
16  1.5000000000000E-01  1.5498287766688E+00 -2.8802097035811E-01  4.2067506099867E-01
17  1.6000000000000E-01  1.6181021873466E+00 -2.7686389805780E-01  4.0495113160774E-01
18  1.7000000000000E-01  1.6803740174800E+00 -2.6170888835012E-01  3.8639192129893E-01
19  1.8000000000000E-01  1.7364430860295E+00 -2.4266897240208E-01  3.6590347809823E-01
20  1.9000000000000E-01  1.7861184770135E+00 -2.1985271733897E-01  3.4436849122576E-01
21  2.0000000000000E-01  1.8292175870013E+00 -1.9335408523432E-01  3.2261017742309E-01
22  2.1000000000000E-01  1.8655647859701E+00 -1.6324373737119E-01  3.0135912358435E-01
23  2.2000000000000E-01  1.8949908381476E+00 -1.2956224245217E-01  2.8122443444446E-01
24  2.3000000000000E-01  1.9173332003478E+00 -9.2315576880606E-02  2.6267037583633E-01
25  2.4000000000000E-01  1.9324372800828E+00 -5.1473217340750E-02  2.4599949865441E-01
26  2.5000000000000E-01  1.9401586956352E+00 -6.9690237853598E-03  2.3134298350665E-01
27  2.6000000000000E-01  1.9403665367414E+00  4.1295001733629E-02  2.1865866990804E-01
28  2.7000000000000E-01  1.9329475791725E+00  9.3442114012336E-02  2.0773693690096E-01
29  2.8000000000000E-01  1.9178113610318E+00  1.4961153601167E-01  1.9821429515082E-01
30  2.9000000000000E-01  1.8948959847794E+00  2.0994675541073E-01  1.8959424528171E-01
31  3.0000000000000E-01  1.8641744685878E+00  2.7458179021919E-01  1.8127466505362E-01
32  3.1000000000000E-01  1.8256614352923E+00  3.4362590651924E-01  1.7258072002720E-01
33  3.2000000000000E-01  1.7794198984388E+00  4.1714735487487E-01  1.6280205903595E-01
34  3.3000000000000E-01  1.7255678840452E+00  4.9515675612305E-01  1.5123286621809E-01
35  3.4000000000000E-01  1.6642846147311E+00  5.7759080924543E-01  1.3721320327902E-01
36  3.5000000000000E-01  1.5958159805536E+00  6.6429701174504E-01  1.2016999480477E-01
37  3.6000000000000E-01  1.5204790286304E+00  7.5502007514656E-01  9.9655989692405E-02
38  3.7000000000000E-01  1.4386652214407E+00  8.4939068464131E-01  7.5385074527490E-02
39  3.8000000000000E-01  1.3508422412580E+00  9.4691719311876E-01  4.7262419338004E-02
40  3.9000000000000E-01  1.2575541547704E+00  1.0469807574814E+00  1.5408099448513E-02
41  4.0000000000000E-01  1.1594197965360E+00  1.1488343217174E+00 -1.9826946138974E-02
42  4.1000000000000E-01  1.0571292811538E+00  1.2516057300138E+00 -5.7853496632511E-02
43  4.2000000000000E-01  9.5143861025178E-01  1.3543051182774E+00 -9.7845748714185E-02
44  4.3000000000000E-01  8.4316239977988E-01  1.4558365883771E+00 -1.3875238428420E-01
45  4.4000000000000E-01  7.3316481362513E-01  1.5550140212564E+00 -1.7931691717840E-01
46  4.5000000000000E-01  6.2234884917792E-01  1.6505807380331E+00 -2.1810688650588E-01
47  4.6000000000000E-01  5.1164417707174E-01  1.7412325775983E+00 -2.5355113177349E-01
48  4.7000000000000E-01  4.0199378888706E-01  1.8256438301799E+00 -2.8398407514606E-01
49  4.8000000000000E-01  2.9433975127028E-01  1.9024953536607E+00 -3.0769566070330E-01
50  4.9000000000000E-01  1.8960840102226E-01  1.9705041073754E+00 -3.2298536979203E-01
51  5.0000000000000E-01  8.8695341864385E-02  2.0284532702750E+00 -3.2821855450236E-01
52  5.1000000000000E-01 -7.5493812495256E-03  2.0752220694572E+00 -3.2188321487490E-01
53  5.2000000000000E-01 -9.8335550915709E-02  2.1098144329385E+00 -3.0264529447500E-01
54  5.3000000000000E-01 -1.8294611826005E-01  2.1313855979972E+00 -2.6940058595581E-01
55  5.4000000000000E-01 -2.6074926547781E-01  2.1392658531510E+00 -2.2132142303710E-01
56  5.5000000000000E-01 -3.3120887080614E-01  2.1329806665522E+00 -1.5789648545845E-01
57  5.6000000000000E-01 -3.9389309859532E-01  2.1122665539289E+00 -7.8962253897667E-02
58  5.7000000000000E-01 -4.4848088790349E-01  2.0770821619101E+00  1.5275084604479E-02
59  5.8000000000000E-01 -4.9476617110630E-01  2.0276141835259E+00  1.2422817277913E-01
60  5.9000000000000E-01 -5.3265971747495E-01  1.9642778770823E+00  2.4692801254041E-01
61  6.0000000000000E-01 -5.6218856342979E-01  1.8877121222021E+00  3.8203467816355E-01
62  6.1000000000000E-01 -5.8349305897896E-01  1.7987691119712E+00  5.2785903464709E-01
63  6.2000000000000E-01 -5.9682162644067E-01  1.6984989421286E+00  6.8239491895167E-01
64  6.3000000000000E-01 -6.0252339069330E-01  1.5881295114946E+00  8.4336089652622E-01
65  6.4000000000000E-01 -6.0103889779371E-01  1.4690422870229E+00  1.0082503911159E+00
66  6.5000000000000E-01 -5.9288918896224E-01  1.3427446072543E+00  1.1743887134707E+00
67  6.6000000000000E-01 -5.7866353801477E-01  1.2108392954042E+00  1.3389952939838E+00
68  6.7000000000000E-01 -5.5900619104456E-01  1.0749924246387E+00  1.4992492631226E+00
69  6.8000000000000E-01 -5.3460246660746E-01  9.3690012098874E-01  1.6523564272535E+00
70  6.9000000000000E-01 -5.0616458233663E-01  7.9825530259675E-01  1.7956156591439E+00
71  7.0000000000000E-01 -4.7441756975513E-01  6.6071523749149E-01  1.9264827624142E+00
72  7.1000000000000E-01 -4.4008562341928E-01  5.2587075679406E-01  2.0426299754227E+00
73  7.2000000000000E-01 -4.0387920420318E-01  3.9521788823727E-01  2.1419994478134E+00
74  7.3000000000000E-01 -3.6648318069201E-01  2.7013257915213E-01  2.2228492452665E+00
75  7.4000000000000E-01 -3.2854624878930E-01  1.5184906250800E-01  2.2837907059124E+00
76  7.5000000000000E-01 -2.9067181955492E-01  4.1442288806339E-02  2.3238162746557E+00
77  7.6000000000000E-01 -2.5341051096519E-01 -6.0185294268939E-02  2.3423172673935E+00
78  7.7000000000000E-01 -2.1725432284795E-01 -1.5231247810069E-01  2.3390913530825E+00
79  7.8000000000000E-01 -1.8263251787370E-01 -2.3440355357379E-01  2.3143398747344E+00
80  7.9000000000000E-01 -1.4990917730833E-01 -3.0610824223692E-01  2.2686554479401E+00
81  8.0000000000000E-01 -1.1938235027540E-01 -3.6725757143972E-01  2.2030005653520E+00
82  8.1000000000000E-01 -9.1284671358348E-02 -4.1785607720696E-01  2.1186781867730E+00
83  8.2000000000000E-01 -6.5785285044638E-02 -4.5807080898874E-01  2.0172954979114E+00
84  8.3000000000000E-01 -4.2992888014936E-02 -4.8821767752280E-01  1.9007221690901E+00
85  8.4000000000000E-01 -2.2959682461015E-02 -5.0874572873022E-01  1.7710445332997E+00
86  8.5000000000000E-01 -5.6860259500349E-03 -5.2021994167276E-01  1.6305171282614E+00
87  8.6000000000000E-01  8.8744341219283E-03 -5.2330313709467E-01  1.4815130096182E+00
88  8.7000000000000E-01  2.0809341082768E-02 -5.1873754592763E-01  1.3264741443713E+00
89  8.8000000000000E-01  3.0242102694044E-02 -5.0732652635705E-01  1.1678630400347E+00
90  8.9000000000000E-01  3.7326406752952E-02 -4.8991683656507E-01  1.0081165627141E+00
91  9.0000000000000E-01  4.2240891343498E-02 -4.6738177176634E-01  8.4960265521958E-01
92  9.1000000000000E-01  4.5184041615882E-02 -4.4060536298929E-01  6.9458039477050E-01
93  9.2000000000000E-01  4.6369341033486E-02 -4.1046771602614E-01  5.4516354028905E-01
94  9.3000000000000E-01  4.6020659941807E-02 -3.7783144707878E-01  4.0328742359645E-01
95  9.4000000000000E-01  4.4367820045006E-02 -3.4352905198169E-01  2.7067874922424E-01
96  9.5000000000000E-01  4.1642231796346E-02 -3.0835093337098E-01  1.4882759565271E-01
97  9.6000000000000E-01  3.8072464558944E-02 -2.7303370933240E-01  3.8960667404021E-02
98  9.7000000000000E-01  3.3879578203625E-02 -2.3824834189681E-01 -5.7985357940068E-02
99  9.8000000000000E-01  2.9272020836394E-02 -2.0458755754501E-01 -1.4139170323202E-01
100  9.9000000000000E-01  2.4439881251325E-02 -1.7255198626273E-01 -2.1098801206648E-01
101  1.0000000000000E+00  1.9548291927048E-02 -1.4253446733555E-01 -2.6688683235650E-01
102  1.0100000000000E+00  1.4730039306606E-02 -1.1480275731849E-01 -3.0962046005769E-01
103  1.0200000000000E+00  1.0088238280680E-02 -8.9513417484139E-02 -3.4006027112201E-01
104  1.0300000000000E+00  5.7128967159497E-03 -6.6767174707858E-02 -3.5919544904346E-01
105  1.0400000000000E+00  1.6854882448303E-03 -4.6627016481930E-02 -3.6806367937686E-01
106  1.0500000000000E+00 -1.9206414612336E-03 -2.9123682028672E-02 -3.6772924219889E-01
107  1.0600000000000E+00 -5.0404647869673E-03 -1.4259510807144E-02 -3.5926575084394E-01
108  1.0700000000000E+00 -7.6181181234545E-03 -2.0104582657027E-03 -3.4374398306508E-01
109  1.0800000000000E+00 -9.6084261996787E-03  7.6738151470985E-03 -3.2222503227999E-01
110  1.0900000000000E+00 -1.0979087819628E-02  1.4871771235449E-02 -2.9575875167645E-01
111  1.1000000000000E+00 -1.1713466872538E-02  1.9693623000903E-02 -2.6538720769353E-01
112  1.1100000000000E+00 -1.1813897598199E-02  2.2286557986619E-02 -2.3215263502726E-01
113  1.1200000000000E+00 -1.1305324063727E-02  2.2841123346684E-02 -1.9710888693034E-01
114  1.1300000000000E+00 -1.0239561662751E-02  2.1599467487203E-02 -1.6133759426170E-01
115  1.1400000000000E+00 -8.6999289655277E-03  1.8864798644332E-02 -1.2596752548591E-01
116  1.1500000000000E+00 -6.9317208858442E-03  1.5315031529773E-02 -9.2787171033864E-02
117  1.1600000000000E+00 -5.1228339970959E-03  1.1474052349973E-02 -6.3215982098588E-02
118  1.1700000000000E+00 -3.3324830536931E-03  7.5360514512506E-03 -3.7965247865853E-02
119  1.1800000000000E+00 -1.7125452995966E-03  3.8982148656121E-03 -1.8080192945267E-02
120  1.1900000000000E+00 -4.9279723390265E-04  1.1265691999471E-03 -4.8494352798517E-03
121  1.2000000000000E+00 -1.4763371303977E-06  3.3855082417023E-06 -1.3820553411528E-05
122  1.2100000000000E+00 -3.9720827142860E-06  9.1028806808578E-06 -3.7121650527483E-05
123  1.2200000000000E+00  4.6522785068868E-07 -1.0645958337886E-06  4.4787104289414E-06
124  1.23  0.  0.  0.
125  1.24  0.  0.  0.
126  1.25  0.  0.  0.
127  1.26  0.  0.  0.
128  1.27  0.  0.  0.
129  1.28  0.  0.  0.
130  1.29  0.  0.  0.
131  1.30  0.  0.  0.
132  1.31  0.  0.  0.
133  1.32  0.  0.  0.
134  1.33  0.  0.  0.
135  1.34  0.  0.  0.
136  1.35  0.  0.  0.
137  1.36  0.  0.  0.
138  1.37  0.  0.  0.
139  1.38  0.  0.  0.
140  1.39  0.  0.  0.
141  1.40  0.  0.  0.
142  1.41  0.  0.  0.
143  1.42  0.  0.  0.
144  1.43  0.  0.  0.
145  1.44  0.  0.  0.
146  1.45  0.  0.  0.
147  1.46  0.  0.  0.
148  1.47  0.  0.  0.
149  1.48  0.  0.  0.
150  1.49  0.  0.  0.
151  1.50  0.  0.  0.
152  1.51  0.  0.  0.
153  1.52  0.  0.  0.
154  1.53  0.  0.  0.
155  1.54  0.  0.  0.
156  1.55  0.  0.  0.
157  1.56  0.  0.  0.
158  1.57  0.  0.  0.
159  1.58  0.  0.  0.
160  1.59  0.  0.  0.
161  1.60  0.  0.  0.
162  1.61  0.  0.  0.
163  1.62  0.  0.  0.
164  1.63  0.  0.  0.
165  1.64  0.  0.  0.
166  1.65  0.  0.  0.
167  1.66  0.  0.  0.
168  1.67  0.  0.  0.
169  1.68  0.  0.  0.
170  1.69  0.  0.  0.
171  1.70  0.  0.  0.
172  1.71  0.  0.  0.
173  1.72  0.  0.  0.
174  1.73  0.  0.  0.
175  1.74  0.  0.  0.
176  1.75  0.  0.  0.
177  1.76  0.  0.  0.
178  1.77  0.  0.  0.
179  1.78  0.  0.  0.
180  1.79  0.  0.  0.
181  1.80  0.  0.  0.
182  1.81  0.  0.  0.
183  1.82  0.  0.  0.
184  1.83  0.  0.  0.
185  1.84  0.  0.  0.
186  1.85  0.  0.  0.
187  1.86  0.  0.  0.
188  1.87  0.  0.  0.
189  1.88  0.  0.  0.
190  1.89  0.  0.  0.
191  1.90  0.  0.  0.
192  1.91  0.  0.  0.
193  1.92  0.  0.  0.
194  1.93  0.  0.  0.
195  1.94  0.  0.  0.
196  1.95  0.  0.  0.
197  1.96  0.  0.  0.
198  1.97  0.  0.  0.
199  1.98  0.  0.  0.
200  1.99  0.  0.  0.
201  2.00  0.  0.  0.
202  2.01  0.  0.  0.
203  2.02  0.  0.  0.
204  2.03  0.  0.  0.
205  2.04  0.  0.  0.
206  2.05  0.  0.  0.
207  2.06  0.  0.  0.
208  2.07  0.  0.  0.
209  2.08  0.  0.  0.
210  2.09  0.  0.  0.
211  2.10  0.  0.  0.
212  2.11  0.  0.  0.
213  2.12  0.  0.  0.
214  2.13  0.  0.  0.
215  2.14  0.  0.  0.
216  2.15  0.  0.  0.
217  2.16  0.  0.  0.
218  2.17  0.  0.  0.
219  2.18  0.  0.  0.
220  2.19  0.  0.  0.
221  2.20  0.  0.  0.
222  2.21  0.  0.  0.
223  2.22  0.  0.  0.
224  2.23  0.  0.  0.
225  2.24  0.  0.  0.
226  2.25  0.  0.  0.
227  2.26  0.  0.  0.
228  2.27  0.  0.  0.
229  2.28  0.  0.  0.
230  2.29  0.  0.  0.
231  2.30  0.  0.  0.
232  2.31  0.  0.  0.
233  2.32  0.  0.  0.
234  2.33  0.  0.  0.
235  2.34  0.  0.  0.
236  2.35  0.  0.  0.
237  2.36  0.  0.  0.
238  2.37  0.  0.  0.
239  2.38  0.  0.  0.
240  2.39  0.  0.  0.
241  2.40  0.  0.  0.
242  2.41  0.  0.  0.
243  2.42  0.  0.  0.
244  2.43  0.  0.  0.
245  2.44  0.  0.  0.
246  2.45  0.  0.  0.
247  2.46  0.  0.  0.
248  2.47  0.  0.  0.
249  2.48  0.  0.  0.
250  2.49  0.  0.  0.
251  2.50  0.  0.  0.
252  2.51  0.  0.  0.
253  2.52  0.  0.  0.
254  2.53  0.  0.  0.
255  2.54  0.  0.  0.
256  2.55  0.  0.  0.
257  2.56  0.  0.  0.
258  2.57  0.  0.  0.
259  2.58  0.  0.  0.
260  2.59  0.  0.  0.
261  2.60  0.  0.  0.
262  2.61  0.  0.  0.
263  2.62  0.  0.  0.
264  2.63  0.  0.  0.
265  2.64  0.  0.  0.
266  2.65  0.  0.  0.
267  2.66  0.  0.  0.
268  2.67  0.  0.  0.
269  2.68  0.  0.  0.
270  2.69  0.  0.  0.
271  2.70  0.  0.  0.
272  2.71  0.  0.  0.
273  2.72  0.  0.  0.
274  2.73  0.  0.  0.
275  2.74  0.  0.  0.
276  2.75  0.  0.  0.
277  2.76  0.  0.  0.
278  2.77  0.  0.  0.
279  2.78  0.  0.  0.
280  2.79  0.  0.  0.
281  2.80  0.  0.  0.
282  2.81  0.  0.  0.
283  2.82  0.  0.  0.
284  2.83  0.  0.  0.
285  2.84  0.  0.  0.
286  2.85  0.  0.  0.
287  2.86  0.  0.  0.
288  2.87  0.  0.  0.
289  2.88  0.  0.  0.
290  2.89  0.  0.  0.
291  2.90  0.  0.  0.
292  2.91  0.  0.  0.
293  2.92  0.  0.  0.
294  2.93  0.  0.  0.
295  2.94  0.  0.  0.
296  2.95  0.  0.  0.
297  2.96  0.  0.  0.
298  2.97  0.  0.  0.
299  2.98  0.  0.  0.
300  2.99  0.  0.  0.
301  3.00  0.  0.  0.
302  3.01  0.  0.  0.
303  3.02  0.  0.  0.
304  3.03  0.  0.  0.
305  3.04  0.  0.  0.
306  3.05  0.  0.  0.
307  3.06  0.  0.  0.
308  3.07  0.  0.  0.
309  3.08  0.  0.  0.
310  3.09  0.  0.  0.
311  3.10  0.  0.  0.
312  3.11  0.  0.  0.
313  3.12  0.  0.  0.
314  3.13  0.  0.  0.
315  3.14  0.  0.  0.
316  3.15  0.  0.  0.
317  3.16  0.  0.  0.
318  3.17  0.  0.  0.
319  3.18  0.  0.  0.
320  3.19  0.  0.  0.
321  3.20  0.  0.  0.
322  3.21  0.  0.  0.
323  3.22  0.  0.  0.
324  3.23  0.  0.  0.
325  3.24  0.  0.  0.
326  3.25  0.  0.  0.
327  3.26  0.  0.  0.
328  3.27  0.  0.  0.
329  3.28  0.  0.  0.
330  3.29  0.  0.  0.
331  3.30  0.  0.  0.
332  3.31  0.  0.  0.
333  3.32  0.  0.  0.
334  3.33  0.  0.  0.
335  3.34  0.  0.  0.
336  3.35  0.  0.  0.
337  3.36  0.  0.  0.
338  3.37  0.  0.  0.
339  3.38  0.  0.  0.
340  3.39  0.  0.  0.
341  3.40  0.  0.  0.
342  3.41  0.  0.  0.
343  3.42  0.  0.  0.
344  3.43  0.  0.  0.
345  3.44  0.  0.  0.
346  3.45  0.  0.  0.
347  3.46  0.  0.  0.
348  3.47  0.  0.  0.
349  3.48  0.  0.  0.
350  3.49  0.  0.  0.
351  3.50  0.  0.  0.
352  3.51  0.  0.  0.
353  3.52  0.  0.  0.
354  3.53  0.  0.  0.
355  3.54  0.  0.  0.
356  3.55  0.  0.  0.
357  3.56  0.  0.  0.
358  3.57  0.  0.  0.
359  3.58  0.  0.  0.
360  3.59  0.  0.  0.
361  3.60  0.  0.  0.
362  3.61  0.  0.  0.
363  3.62  0.  0.  0.
364  3.63  0.  0.  0.
365  3.64  0.  0.  0.
366  3.65  0.  0.  0.
367  3.66  0.  0.  0.
368  3.67  0.  0.  0.
369  3.68  0.  0.  0.
370  3.69  0.  0.  0.
371  3.70  0.  0.  0.
372  3.71  0.  0.  0.
373  3.72  0.  0.  0.
374  3.73  0.  0.  0.
375  3.74  0.  0.  0.
376  3.75  0.  0.  0.
377  3.76  0.  0.  0.
378  3.77  0.  0.  0.
379  3.78  0.  0.  0.
380  3.79  0.  0.  0.
381  3.80  0.  0.  0.
382  3.81  0.  0.  0.
383  3.82  0.  0.  0.
384  3.83  0.  0.  0.
385  3.84  0.  0.  0.
386  3.85  0.  0.  0.
387  3.86  0.  0.  0.
388  3.87  0.  0.  0.
389  3.88  0.  0.  0.
390  3.89  0.  0.  0.
391  3.90  0.  0.  0.
392  3.91  0.  0.  0.
393  3.92  0.  0.  0.
394  3.93  0.  0.  0.
395  3.94  0.  0.  0.
396  3.95  0.  0.  0.
397  3.96  0.  0.  0.
398  3.97  0.  0.  0.
399  3.98  0.  0.  0.
400  3.99  0.  0.  0.
401  4.00  0.  0.  0.
402  4.01  0.  0.  0.
403  4.02  0.  0.  0.
404  4.03  0.  0.  0.
405  4.04  0.  0.  0.
406  4.05  0.  0.  0.
407  4.06  0.  0.  0.
408  4.07  0.  0.  0.
409  4.08  0.  0.  0.
410  4.09  0.  0.  0.
411  4.10  0.  0.  0.
412  4.11  0.  0.  0.
413  4.12  0.  0.  0.
414  4.13  0.  0.  0.
415  4.14  0.  0.  0.
416  4.15  0.  0.  0.
417  4.16  0.  0.  0.
418  4.17  0.  0.  0.
419  4.18  0.  0.  0.
420  4.19  0.  0.  0.
421  4.20  0.  0.  0.
422  4.21  0.  0.  0.
423  4.22  0.  0.  0.
424  4.23  0.  0.  0.
425  4.24  0.  0.  0.
426  4.25  0.  0.  0.
427  4.26  0.  0.  0.
428  4.27  0.  0.  0.
429  4.28  0.  0.  0.
430  4.29  0.  0.  0.
431  4.30  0.  0.  0.
432  4.31  0.  0.  0.
433  4.32  0.  0.  0.
434  4.33  0.  0.  0.
435  4.34  0.  0.  0.
436  4.35  0.  0.  0.
437  4.36  0.  0.  0.
438  4.37  0.  0.  0.
439  4.38  0.  0.  0.
440  4.39  0.  0.  0.
441  4.40  0.  0.  0.
442  4.41  0.  0.  0.
443  4.42  0.  0.  0.
444  4.43  0.  0.  0.
445  4.44  0.  0.  0.
446  4.45  0.  0.  0.
447  4.46  0.  0.  0.
448  4.47  0.  0.  0.
449  4.48  0.  0.  0.
450  4.49  0.  0.  0.
451  4.50  0.  0.  0.
452  4.51  0.  0.  0.
453  4.52  0.  0.  0.
454  4.53  0.  0.  0.
455  4.54  0.  0.  0.
456  4.55  0.  0.  0.
457  4.56  0.  0.  0.
458  4.57  0.  0.  0.
459  4.58  0.  0.  0.
460  4.59  0.  0.  0.
461  4.60  0.  0.  0.
462  4.61  0.  0.  0.
463  4.62  0.  0.  0.
464  4.63  0.  0.  0.
465  4.64  0.  0.  0.
466  4.65  0.  0.  0.
467  4.66  0.  0.  0.
468  4.67  0.  0.  0.
469  4.68  0.  0.  0.
470  4.69  0.  0.  0.
471  4.70  0.  0.  0.
472  4.71  0.  0.  0.
473  4.72  0.  0.  0.
474  4.73  0.  0.  0.
475  4.74  0.  0.  0.
476  4.75  0.  0.  0.
477  4.76  0.  0.  0.
478  4.77  0.  0.  0.
479  4.78  0.  0.  0.
480  4.79  0.  0.  0.
481  4.80  0.  0.  0.
482  4.81  0.  0.  0.
483  4.82  0.  0.  0.
484  4.83  0.  0.  0.
485  4.84  0.  0.  0.
486  4.85  0.  0.  0.
487  4.86  0.  0.  0.
488  4.87  0.  0.  0.
489  4.88  0.  0.  0.
490  4.89  0.  0.  0.
491  4.90  0.  0.  0.
492  4.91  0.  0.  0.
493  4.92  0.  0.  0.
494  4.93  0.  0.  0.
495  4.94  0.  0.  0.
496  4.95  0.  0.  0.
497  4.96  0.  0.  0.
498  4.97  0.  0.  0.
499  4.98  0.  0.  0.
500  4.99  0.  0.  0.
501  5.00  0.  0.  0.
502  5.01  0.  0.  0.
503  5.02  0.  0.  0.
504  5.03  0.  0.  0.
505  5.04  0.  0.  0.
506  5.05  0.  0.  0.
507  5.06  0.  0.  0.
508  5.07  0.  0.  0.
509  5.08  0.  0.  0.
510  5.09  0.  0.  0.
511  5.10  0.  0.  0.
512  5.11  0.  0.  0.
513  5.12  0.  0.  0.
514  5.13  0.  0.  0.
515  5.14  0.  0.  0.
516  5.15  0.  0.  0.
517  5.16  0.  0.  0.
518  5.17  0.  0.  0.
519  5.18  0.  0.  0.
520  5.19  0.  0.  0.
521  5.20  0.  0.  0.
522  5.21  0.  0.  0.
523  5.22  0.  0.  0.
524  5.23  0.  0.  0.
525  5.24  0.  0.  0.
526  5.25  0.  0.  0.
527  5.26  0.  0.  0.
528  5.27  0.  0.  0.
529  5.28  0.  0.  0.
530  5.29  0.  0.  0.
531  5.30  0.  0.  0.
532  5.31  0.  0.  0.
533  5.32  0.  0.  0.
534  5.33  0.  0.  0.
535  5.34  0.  0.  0.
536  5.35  0.  0.  0.
537  5.36  0.  0.  0.
538  5.37  0.  0.  0.
539  5.38  0.  0.  0.
540  5.39  0.  0.  0.
541  5.40  0.  0.  0.
542  5.41  0.  0.  0.
543  5.42  0.  0.  0.
544  5.43  0.  0.  0.
545  5.44  0.  0.  0.
546  5.45  0.  0.  0.
547  5.46  0.  0.  0.
548  5.47  0.  0.  0.
549  5.48  0.  0.  0.
550  5.49  0.  0.  0.
551  5.50  0.  0.  0.
552  5.51  0.  0.  0.
553  5.52  0.  0.  0.
554  5.53  0.  0.  0.
555  5.54  0.  0.  0.
556  5.55  0.  0.  0.
557  5.56  0.  0.  0.
558  5.57  0.  0.  0.
559  5.58  0.  0.  0.
560  5.59  0.  0.  0.
561  5.60  0.  0.  0.
562  5.61  0.  0.  0.
563  5.62  0.  0.  0.
564  5.63  0.  0.  0.
565  5.64  0.  0.  0.
566  5.65  0.  0.  0.
567  5.66  0.  0.  0.
568  5.67  0.  0.  0.
569  5.68  0.  0.  0.
570  5.69  0.  0.  0.
571  5.70  0.  0.  0.
572  5.71  0.  0.  0.
573  5.72  0.  0.  0.
574  5.73  0.  0.  0.
575  5.74  0.  0.  0.
576  5.75  0.  0.  0.
577  5.76  0.  0.  0.
578  5.77  0.  0.  0.
579  5.78  0.  0.  0.
580  5.79  0.  0.  0.
581  5.80  0.  0.  0.
582  5.81  0.  0.  0.
583  5.82  0.  0.  0.
584  5.83  0.  0.  0.
585  5.84  0.  0.  0.
586  5.85  0.  0.  0.
587  5.86  0.  0.  0.
588  5.87  0.  0.  0.
589  5.88  0.  0.  0.
590  5.89  0.  0.  0.
591  5.90  0.  0.  0.
592  5.91  0.  0.  0.
593  5.92  0.  0.  0.
594  5.93  0.  0.  0.
595  5.94  0.  0.  0.
596  5.95  0.  0.  0.
597  5.96  0.  0.  0.
598  5.97  0.  0.  0.
599  5.98  0.  0.  0.
600  5.99  0.  0.  0.
1                         1.8262080535188E+01  2.8756539827040E+00
1  0.0000000000000E+00 -2.9040907179034E-09  9.0063169283505E-09
2  1.0000000000000E-02  3.5557637848821E-03 -1.6727511325108E-03
3  2.0000000000000E-02  1.4199131339840E-02 -6.6736506478305E-03
4  3.0000000000000E-02  3.1858415317656E-02 -1.4950614700994E-02
5  4.0000000000000E-02  5.6414419219666E-02 -2.6416769317882E-02
6  5.0000000000000E-02  8.7700868754984E-02 -4.0950371295601E-02
7  6.0000000000000E-02  1.2550503085560E-01 -5.8394741067229E-02
8  7.0000000000000E-02  1.6956853461709E-01 -7.8558249078049E-02
9  8.0000000000000E-02  2.1958841133868E-01 -1.0121440622668E-01
10  9.0000000000000E-02  2.7521837291336E-01 -1.2610211591101E-01
11  1.0000000000000E-01  3.3607034894049E-01 -1.5292614987311E-01
12  1.1000000000000E-01  4.0171630300402E-01 -1.8135791212506E-01
13  1.2000000000000E-01  4.7169034751731E-01 -2.1103655460577E-01
14  1.3000000000000E-01  5.4549117435469E-01 -2.4157050480724E-01
15  1.4000000000000E-01  6.2258481518452E-01 -2.7253945944594E-01
16  1.5000000000000E-01  7.0240774103880E-01 -3.0349688946570E-01
17  1.6000000000000E-01  7.8437030528927E-01 -3.3397309045375E-01
18  1.7000000000000E-01  8.6786052797185E-01 -3.6347879922818E-01
19  1.8000000000000E-01  9.5224821246487E-01 -3.9150938228496E-01
20  1.9000000000000E-01  1.0368893780637E+00 -4.1754958541169E-01
21  2.0000000000000E-01  1.1211309842088E+00 -4.4107881657195E-01
22  2.1000000000000E-01  1.2043159142339E+00 -4.6157691666379E-01
23  2.2000000000000E-01  1.2857881787397E+00 -4.7853035550558E-01
24  2.3000000000000E-01  1.3648982912920E+00 -4.9143877395216E-01
25  2.4000000000000E-01  1.4410087623258E+00 -4.9982177793338E-01
26  2.5000000000000E-01  1.5134996511209E+00 -5.0322587694304E-01
27  2.6000000000000E-01  1.5817741107017E+00 -5.0123144855251E-01
28  2.7000000000000E-01  1.6452638566806E+00 -4.9345960228000E-01
29  2.8000000000000E-01  1.7034344885467E+00 -4.7957881094164E-01
30  2.9000000000000E-01  1.7557905908309E+00 -4.5931117568469E-01
31  3.0000000000000E-01  1.8018805420025E+00 -4.3243819240359E-01
32  3.1000000000000E-01  1.8413009609249E+00 -3.9880589221292E-01
33  3.2000000000000E-01  1.8737007242000E+00 -3.5832923704159E-01
34  3.3000000000000E-01  1.8987844927111E+00 -3.1099566306049E-01
35  3.4000000000000E-01  1.9163156920417E+00 -2.5686767930452E-01
36  3.5000000000000E-01  1.9261188990725E+00 -1.9608444614814E-01
37  3.6000000000000E-01  1.9280815957710E+00 -1.2886227781034E-01
38  3.7000000000000E-01  1.9221552607945E+00 -5.5494034296133E-02
39  3.8000000000000E-01  1.9083557798043E+00  2.3652609428597E-02
40  3.9000000000000E-01  1.8867631660963E+00  1.0813800628308E-01
41  4.0000000000000E-01  1.8575205940430E+00  1.9745445829738E-01
42  4.1000000000000E-01  1.8208327586510E+00  2.9103116035837E-01
43  4.2000000000000E-01  1.7769635850293E+00  3.8824008967150E-01
44  4.3000000000000E-01  1.7262333214755E+00  4.8840274503096E-01
45  4.4000000000000E-01  1.6690150590175E+00  5.9079762323843E-01
46  4.5000000000000E-01  1.6057307283853E+00  6.9466830605013E-01
47  4.6000000000000E-01  1.5368466323674E+00  7.9923202022135E-01
48  4.7000000000000E-01  1.4628685771957E+00  9.0368852581675E-01
49  4.8000000000000E-01  1.3843366709096E+00  1.0072291841229E+00
50  4.9000000000000E-01  1.3018198595112E+00  1.1090460562860E+00
51  5.0000000000000E-01  1.2159102731402E+00  1.2083408871408E+00
52  5.1000000000000E-01  1.1272174544861E+00  1.3043338354334E+00
53  5.2000000000000E-01  1.0363625402919E+00  1.3962718214899E+00
54  5.3000000000000E-01  9.4397246419285E-01  1.4834363760015E+00
55  5.4000000000000E-01  8.5067424541015E-01  1.5651508885189E+00
56  5.5000000000000E-01  7.5708942314960E-01  1.6407871709903E+00
57  5.6000000000000E-01  6.6382869112525E-01  1.7097712696647E+00
58  5.7000000000000E-01  5.7148678063324E-01  1.7715884773457E+00
59  5.8000000000000E-01  4.8063763425113E-01  1.8257875167174E+00
60  5.9000000000000E-01  3.9182990573562E-01  1.8719838837029E+00
61  6.0000000000000E-01  3.0558281523382E-01  1.9098623569986E+00
62  6.1000000000000E-01  2.2238238269282E-01  1.9391786955641E+00
63  6.2000000000000E-01  1.4267805650953E-01  1.9597605594983E+00
64  6.3000000000000E-01  6.6879749141558E-02  1.9715077010549E+00
65  6.4000000000000E-01 -4.6447132952350E-03  1.9743914812845E+00
66  6.5000000000000E-01 -7.1571724418044E-02  1.9684537737811E+00
67  6.6000000000000E-01 -1.3362361420426E-01  1.9538053202135E+00
68  6.7000000000000E-01 -1.9056995164697E-01  1.9306236027944E+00
69  6.8000000000000E-01 -2.4222843808685E-01  1.8991502967393E+00
70  6.9000000000000E-01 -2.8846539710284E-01  1.8596883613650E+00
71  7.0000000000000E-01 -3.2919586755612E-01  1.8125988221045E+00
72  7.1000000000000E-01 -3.6438330669065E-01  1.7582972877984E+00
73  7.2000000000000E-01 -3.9403891023937E-01  1.6972502386324E+00
74  7.3000000000000E-01 -4.1822055641562E-01  1.6299711105304E+00
75  7.4000000000000E-01 -4.3703138063796E-01  1.5570161922137E+00
76  7.5000000000000E-01 -4.5061798799149E-01  1.4789803420134E+00
77  7.6000000000000E-01 -4.5916831090816E-01  1.3964925233709E+00
78  7.7000000000000E-01 -4.6290912047109E-01  1.3102111512282E+00
79  7.8000000000000E-01 -4.6210320120963E-01  1.2208192365737E+00
80  7.9000000000000E-01 -4.5704620131740E-01  1.1290193135824E+00
81  8.0000000000000E-01 -4.4806317292725E-01  1.0355281332673E+00
82  8.1000000000000E-01 -4.3550482040917E-01  9.4107110945903E-01
83  8.2000000000000E-01 -4.1974347857850E-01  8.4637650724455E-01
84  8.3000000000000E-01 -4.0116884712986E-01  7.5216937060807E-01
85  8.4000000000000E-01 -3.8018351243299E-01  6.5916519471454E-01
86  8.5000000000000E-01 -3.5719829289027E-01  5.6806335873080E-01
87  8.6000000000000E-01 -3.3262744918724E-01  4.7954034688770E-01
88  8.7000000000000E-01 -3.0688380576943E-01  3.9424279816223E-01
89  8.8000000000000E-01 -2.8037383454032E-01  3.1278043796369E-01
90  8.9000000000000E-01 -2.5349275587935E-01  2.3571895796673E-01
91  9.0000000000000E-01 -2.2661971541130E-01  1.6357292215873E-01
92  9.1000000000000E-01 -2.0011309731614E-01  9.6798787679241E-02
93  9.2000000000000E-01 -1.7430603616915E-01  3.5788137579464E-02
94  9.3000000000000E-01 -1.4950218919033E-01 -1.9138771270982E-02
95  9.4000000000000E-01 -1.2597182924100E-01 -6.7739038672482E-02
96  9.5000000000000E-01 -1.0394831585802E-01 -1.0985262348062E-01
97  9.6000000000000E-01 -8.3624997031415E-02 -1.4540721475298E-01
98  9.7000000000000E-01 -6.5152588331160E-02 -1.7442237538516E-01
99  9.8000000000000E-01 -4.8637068445847E-02 -1.9701287228948E-01
100  9.9000000000000E-01 -3.4138121204289E-02 -2.1339112124800E-01
101  1.0000000000000E+00 -2.1668151045348E-02 -2.2386866706481E-01
102  1.0100000000000E+00 -1.1192011268389E-02 -2.2885620874116E-01
103  1.0200000000000E+00 -2.6324899321610E-03 -2.2884480271738E-01
104  1.0300000000000E+00  4.1179987946214E-03 -2.2436814976292E-01
105  1.0400000000000E+00  9.1920217670897E-03 -2.1598927589766E-01
106  1.0500000000000E+00  1.2743248500495E-02 -2.0429336261031E-01
107  1.0600000000000E+00  1.4942250067460E-02 -1.8988001906283E-01
108  1.0700000000000E+00  1.5972037100600E-02 -1.7335508800780E-01
109  1.0800000000000E+00  1.6023407904702E-02 -1.5532210149533E-01
110  1.0900000000000E+00  1.5290183857801E-02 -1.3637351770847E-01
111  1.1000000000000E+00  1.3964413605041E-02 -1.1708188148702E-01
112  1.1100000000000E+00  1.2231630718937E-02 -9.7991060725224E-02
113  1.1200000000000E+00  1.0266261669748E-02 -7.9607738480521E-02
114  1.1300000000000E+00  8.2271702270505E-03 -6.2393107143558E-02
115  1.1400000000000E+00  6.2534406280641E-03 -4.6754974724154E-02
116  1.1500000000000E+00  4.4298902321549E-03 -3.2973109738223E-02
117  1.1600000000000E+00  2.8367471487383E-03 -2.1307299939187E-02
118  1.1700000000000E+00  1.5668138425308E-03 -1.2039032181293E-02
119  1.1800000000000E+00  6.7115910023368E-04 -5.3547159522414E-03
120  1.1900000000000E+00  1.5833374350806E-04 -1.3336460597911E-03
121  1.2000000000000E+00  3.9267899535969E-07 -3.5354964779616E-06
122  1.2100000000000E+00  1.0787642386521E-06 -9.5962221072235E-06
123  1.2200000000000E+00 -1.3952830694509E-07  1.2010891755998E-06
124  1.23  0.  0.
125  1.24  0.  0.
126  1.25  0.  0.
127  1.26  0.  0.
128  1.27  0.  0.
129  1.28  0.  0.
130  1.29  0.  0.
131  1.30  0.  0.
132  1.31  0.  0.
133  1.32  0.  0.