U     ONCVPSP-4.0.1  r_core=   1.10371   1.10371   1.10371   1.10371
92.0000     32.0000      220309    zatom,zion,pspd
8      11   3     4   600     0    pspcod,pspxc,lmax,lloc,mmax,r2well
5.99000000  5.00000000  0.00000000    rchrg fchrg qchrg
3     2     2     2     0    nproj
1     1           extension_switch
0                         3.9424358374756E+01  5.1722857896889E+00 -6.2087311599798E-01
1  0.0000000000000E+00 -5.7385944884913E-07  1.5889052884521E-06  3.3715207285821E-07
2  1.0000000000000E-02  1.7983737591240E-01 -1.5613019421534E-01 -1.2410296867181E-02
3  2.0000000000000E-02  3.5699854334008E-01 -3.0610333092624E-01 -2.3536428992529E-02
4  3.0000000000000E-02  5.2889848292981E-01 -4.4401116820701E-01 -3.2150850567121E-02
5  4.0000000000000E-02  6.9313078445885E-01 -5.6443264083108E-01 -3.7136935784795E-02
6  5.0000000000000E-02  8.4754768867730E-01 -6.6265175561820E-01 -3.7538737695728E-02
7  6.0000000000000E-02  9.9032945535420E-01 -7.3484587713563E-01 -3.2604163729921E-02
8  7.0000000000000E-02  1.1200402151794E+00 -7.7823651473260E-01 -2.1819792338680E-02
9  8.0000000000000E-02  1.2356680370319E+00 -7.9119631079246E-01 -4.9358923542377E-03
10  9.0000000000000E-02  1.3366476120722E+00 -7.7330778548427E-01  1.8019398214132E-02
11  1.0000000000000E-01  1.4228646935715E+00 -7.2537143631663E-01  4.6737340102222E-02
12  1.1000000000000E-01  1.4946422049076E+00 -6.4936293460078E-01  8.0637452100911E-02
13  1.2000000000000E-01  1.5527087047487E+00 -5.4834131442468E-01  1.1888763920007E-01
14  1.3000000000000E-01  1.5981506450092E+00 -4.2631212145848E-01  1.6043481288897E-01
15  1.4000000000000E-01  1.6323505418865E+00 -2.8805139089450E-01  2.0404480420458E-01
16  1.5000000000000E-01  1.6569137740121E+00 -1.3889797539027E-01  2.4834999578470E-01
17  1.6000000000000E-01  1.6735871992137E+00  1.5476924959789E-02  2.9190278827545E-01
18  1.7000000000000E-01  1.6841731223051E+00  1.6931322414760E-01  3.3323278140784E-01
19  1.8000000000000E-01  1.6904423362546E+00  3.1700805929260E-01  3.7090540026311E-01
20  1.9000000000000E-01  1.6940499900469E+00  4.5335410510035E-01  4.0357963859172E-01
21  2.0000000000000E-01  1.6964579073668E+00  5.7375999663378E-01  4.3006262575374E-01
22  2.1000000000000E-01  1.6988666965546E+00  6.7444353622614E-01  4.4935885034013E-01
23  2.2000000000000E-01  1.7021605663746E+00  7.5258952787387E-01  4.6071208654762E-01
24  2.3000000000000E-01  1.7068672123247E+00  8.0646559437728E-01  4.6363836015897E-01
25  2.4000000000000E-01  1.7131344881247E+00  8.3549112407306E-01  4.5794864764786E-01
26  2.5000000000000E-01  1.7207248545082E+00  8.4025648861796E-01  4.4376040997446E-01
27  2.6000000000000E-01  1.7290278334795E+00  8.2249178578471E-01  4.2149750551833E-01
28  2.7000000000000E-01  1.7370899234316E+00  7.8498650156312E-01  3.9187848640221E-01
29  2.8000000000000E-01  1.7436606820018E+00  7.3146356293565E-01  3.5589374066080E-01
30  2.9000000000000E-01  1.7472529911549E+00  6.6641317830556E-01  3.1477238089714E-01
31  3.0000000000000E-01  1.7462149122346E+00  5.9489355510971E-01  2.6994018071035E-01
32  3.1000000000000E-01  1.7388100433321E+00  5.2230697222212E-01  2.2297020733122E-01
33  3.2000000000000E-01  1.7233029282303E+00  4.5416071005984E-01  1.7552807884215E-01
34  3.3000000000000E-01  1.6980458505979E+00  3.9582296124522E-01  1.2931397614855E-01
35  3.4000000000000E-01  1.6615632878765E+00  3.5228403409472E-01  8.6003655782090E-02
36  3.5000000000000E-01  1.6126303985593E+00  3.2793291340547E-01  4.7190735431342E-02
37  3.6000000000000E-01  1.5503421696029E+00  3.2635857010749E-01  1.4332459274880E-02
38  3.7000000000000E-01  1.4741702462847E+00  3.5018434353365E-01 -1.1299002144042E-02
39  3.8000000000000E-01  1.3840049875480E+00  4.0094230441086E-01 -2.8657895954546E-02
40  3.9000000000000E-01  1.2801809130975E+00  4.7899280497145E-01 -3.6957357513990E-02
41  4.0000000000000E-01  1.1634844072101E+00  5.8349250861878E-01 -3.5691852499669E-02
42  4.1000000000000E-01  1.0351432882831E+00  7.1241214795580E-01 -2.4648841225673E-02
43  4.2000000000000E-01  8.9679861058053E-01  8.6260317447916E-01 -3.9093481655459E-03
44  4.3000000000000E-01  7.5045980307762E-01  1.0299104249816E+00  2.6162439034228E-02
45  4.4000000000000E-01  5.9844493832782E-01  1.2093260253466E+00  6.4939984294611E-02
46  4.5000000000000E-01  4.4330853281090E-01  1.3951780623315E+00  1.1156466855520E-01
47  4.6000000000000E-01  2.8775978379944E-01  1.5813461487893E+00  1.6498417893511E-01
48  4.7000000000000E-01  1.3457452560237E-01  1.7614949455250E+00  2.2399738727457E-01
49  4.8000000000000E-01 -1.3495575092340E-02  1.9293160263210E+00  2.8730384489396E-01
50  4.9000000000000E-01 -1.5381297817409E-01  2.0787682074140E+00  3.5355585905987E-01
51  5.0000000000000E-01 -2.8393984229951E-01  2.2043066165943E+00  4.2141103852587E-01
52  5.1000000000000E-01 -4.0171588302603E-01  2.3010913397222E+00  4.8958320294265E-01
53  5.2000000000000E-01 -5.0532554101776E-01  2.3651674256995E+00  5.5688964270992E-01
54  5.3000000000000E-01 -5.9335195702939E-01  2.3936093104602E+00  6.2229288737736E-01
55  5.4000000000000E-01 -6.6481582249668E-01  2.3846242777598E+00  6.8493538419216E-01
56  5.5000000000000E-01 -7.1919782047695E-01  2.3376113393392E+00  7.4416579321359E-01
57  5.6000000000000E-01 -7.5644406268611E-01  2.2531738109980E+00  7.9955595857131E-01
58  5.7000000000000E-01 -7.7695463408156E-01  2.1330858009643E+00  8.5090800213695E-01
59  5.8000000000000E-01 -7.8155604616339E-01  1.9802147283880E+00  8.9825139013279E-01
60  5.9000000000000E-01 -7.7145904428993E-01  1.7984037711735E+00  9.4183022854692E-01
61  6.0000000000000E-01 -7.4820378557399E-01  1.5923197283193E+00  9.8208143336375E-01
62  6.1000000000000E-01 -7.1359487866241E-01  1.3672731066600E+00  1.0196047811102E+00
63  6.2000000000000E-01 -6.6962913581467E-01  1.1290182520061E+00  1.0551261600895E+00
64  6.3000000000000E-01 -6.1841911748160E-01  8.8354200140366E-01  1.0894556009677E+00
65  6.4000000000000E-01 -5.6211564230275E-01  6.3684961405627E-01  1.1234418576233E+00
66  6.5000000000000E-01 -5.0283238957316E-01  3.9475663788555E-01  1.1579254287124E+00
67  6.6000000000000E-01 -4.4257554148661E-01  1.6269489832156E-01  1.1936919536409E+00
68  6.7000000000000E-01 -3.8318110949049E-01 -5.4460016351998E-02  1.2314278831004E+00
69  6.8000000000000E-01 -3.2626217886919E-01 -2.5253351025777E-01  1.2716802166387E+00
70  6.9000000000000E-01 -2.7316780884866E-01 -4.2816406803548E-01  1.3148219234644E+00
71  7.0000000000000E-01 -2.2495476611609E-01 -5.7887930160207E-01  1.3610244259634E+00
72  7.1000000000000E-01 -1.8237267436302E-01 -7.0313422070911E-01  1.4102382387180E+00
73  7.2000000000000E-01 -1.4586255879307E-01 -8.0031166238049E-01  1.4621825312397E+00
74  7.3000000000000E-01 -1.1556818020219E-01 -8.7068643873793E-01  1.5163440336449E+00
75  7.4000000000000E-01 -9.1359014180241E-02 -9.1535627008824E-01  1.5719853450385E+00
76  7.5000000000000E-01 -7.2863260782168E-02 -9.3614389504578E-01  1.6281623485524E+00
77  7.6000000000000E-01 -5.9508888449434E-02 -9.3547583663370E-01  1.6837500983292E+00
78  7.7000000000000E-01 -5.0570438266146E-02 -9.1624410965679E-01  1.7374762346949E+00
79  7.8000000000000E-01 -4.5219150927434E-02 -8.8165765087998E-01  1.7879607152895E+00
80  7.9000000000000E-01 -4.2573933559404E-02 -8.3509042567743E-01  1.8337604310123E+00
81  8.0000000000000E-01 -4.1750755587116E-02 -7.7993301421860E-01  1.8734171130638E+00
82  8.1000000000000E-01 -4.1908245469292E-02 -7.1945402349310E-01  1.9055068355141E+00
83  8.2000000000000E-01 -4.2287541503660E-02 -6.5667693903996E-01  1.9286893785601E+00
84  8.3000000000000E-01 -4.2244813743853E-02 -5.9427706508512E-01  1.9417557403945E+00
85  8.4000000000000E-01 -4.1275300507282E-02 -5.3450205671990E-01  1.9436721674895E+00
86  8.5000000000000E-01 -3.9028169561042E-02 -4.7911828289669E-01  1.9336192091424E+00
87  8.6000000000000E-01 -3.5311997004716E-02 -4.2938393866119E-01  1.9110244855756E+00
88  8.7000000000000E-01 -3.0091132054455E-02 -3.8604851442436E-01  1.8755880816301E+00
89  8.8000000000000E-01 -2.3473660266489E-02 -3.4937699217144E-01  1.8272997310221E+00
90  8.9000000000000E-01 -1.5692070205110E-02 -3.1919603094795E-01  1.7664472296467E+00
91  9.0000000000000E-01 -7.0780512645936E-03 -2.9495847624718E-01  1.6936158008218E+00
92  9.1000000000000E-01  1.9669106544424E-03 -2.7582181912778E-01  1.6096784213252E+00
93  9.2000000000000E-01  1.1003326963775E-02 -2.6073576781321E-01  1.5157773959626E+00
94  9.3000000000000E-01  1.9586028426505E-02 -2.4853389045796E-01  1.4132977327196E+00
95  9.4000000000000E-01  2.7295201965371E-02 -2.3802434218664E-01  1.3038331140076E+00
96  9.5000000000000E-01  3.3764466997718E-02 -2.2807498788875E-01  1.1891454774361E+00
97  9.6000000000000E-01  3.8704533838060E-02 -2.1768874722951E-01  1.0711194088043E+00
98  9.7000000000000E-01  4.1921268965443E-02 -2.0606568089171E-01  9.5171270909068E-01
99  9.8000000000000E-01  4.3327320036613E-02 -1.9264915847615E-01  8.3290462620672E-01
100  9.9000000000000E-01  4.2946806425117E-02 -1.7715434345847E-01  7.1664334265769E-01
101  1.0000000000000E+00  4.0912935751442E-02 -1.5957813823406E-01  6.0479438468438E-01
102  1.0100000000000E+00  3.7458740130934E-02 -1.4019059090489E-01  4.9909167068739E-01
103  1.0200000000000E+00  3.2901415127461E-02 -1.1950851486136E-01  4.0109295116385E-01
104  1.0300000000000E+00  2.7621042894579E-02 -9.8252837815512E-02  3.1214144881047E-01
105  1.0400000000000E+00  2.2033982695429E-02 -7.7289999285589E-02  2.3333522069589E-01
106  1.0500000000000E+00  1.6553826523497E-02 -5.7539704096834E-02  1.6550232454999E-01
107  1.0600000000000E+00  1.1320019524956E-02 -3.9308408667507E-02  1.0907908279976E-01
108  1.0700000000000E+00  6.7134765379810E-03 -2.3545506995931E-02  6.4372048105303E-02
109  1.0800000000000E+00  3.1880717489454E-03 -1.1430280880635E-02  3.1520690833640E-02
110  1.0900000000000E+00  9.7682507889166E-04 -3.6383640139647E-03  1.0416389848720E-02
111  1.1000000000000E+00  6.9340750452440E-05 -2.7577402369016E-04  8.5329679089120E-04
112  1.1100000000000E+00 -8.8998555460987E-07  3.7257948513212E-06 -1.2144105379228E-05
113  1.1200000000000E+00 -5.3539267748082E-07  2.0807225134143E-06 -6.2487961738666E-06
114  1.13  0. -0. -0.
115  1.14  0.  0.  0.
116  1.15  0.  0.  0.
117  1.16  0.  0.  0.
118  1.17  0.  0.  0.
119  1.18  0.  0.  0.
120  1.19  0.  0.  0.
121  1.20  0.  0.  0.
122  1.21  0.  0.  0.
123  1.22  0.  0.  0.
124  1.23  0.  0.  0.
125  1.24  0.  0.  0.
126  1.25  0.  0.  0.
127  1.26  0.  0.  0.
128  1.27  0.  0.  0.
129  1.28  0.  0.  0.
130  1.29  0.  0.  0.
131  1.30  0.  0.  0.
132  1.31  0.  0.  0.
133  1.32  0.  0.  0.
134  1.33  0.  0.  0.
135  1.34  0.  0.  0.
136  1.35  0.  0.  0.
137  1.36  0.  0.  0.
138  1.37  0.  0.  0.
139  1.38  0.  0.  0.
140  1.39  0.  0.  0.
141  1.40  0.  0.  0.
142  1.41  0.  0.  0.
143  1.42  0.  0.  0.
144  1.43  0.  0.  0.
145  1.44  0.  0.  0.
146  1.45  0.  0.  0.
147  1.46  0.  0.  0.
148  1.47  0.  0.  0.
149  1.48  0.  0.  0.
150  1.49  0.  0.  0.
151  1.50  0.  0.  0.
152  1.51  0.  0.  0.
153  1.52  0.  0.  0.
154  1.53  0.  0.  0.
155  1.54  0.  0.  0.
156  1.55  0.  0.  0.
157  1.56  0.  0.  0.
158  1.57  0.  0.  0.
159  1.58  0.  0.  0.
160  1.59  0.  0.  0.
161  1.60  0.  0.  0.
162  1.61  0.  0.  0.
163  1.62  0.  0.  0.
164  1.63  0.  0.  0.
165  1.64  0.  0.  0.
166  1.65  0.  0.  0.
167  1.66  0.  0.  0.
168  1.67  0.  0.  0.
169  1.68  0.  0.  0.
170  1.69  0.  0.  0.
171  1.70  0.  0.  0.
172  1.71  0.  0.  0.
173  1.72  0.  0.  0.
174  1.73  0.  0.  0.
175  1.74  0.  0.  0.
176  1.75  0.  0.  0.
177  1.76  0.  0.  0.
178  1.77  0.  0.  0.
179  1.78  0.  0.  0.
180  1.79  0.  0.  0.
181  1.80  0.  0.  0.
182  1.81  0.  0.  0.
183  1.82  0.  0.  0.
184  1.83  0.  0.  0.
185  1.84  0.  0.  0.
186  1.85  0.  0.  0.
187  1.86  0.  0.  0.
188  1.87  0.  0.  0.
189  1.88  0.  0.  0.
190  1.89  0.  0.  0.
191  1.90  0.  0.  0.
192  1.91  0.  0.  0.
193  1.92  0.  0.  0.
194  1.93  0.  0.  0.
195  1.94  0.  0.  0.
196  1.95  0.  0.  0.
197  1.96  0.  0.  0.
198  1.97  0.  0.  0.
199  1.98  0.  0.  0.
200  1.99  0.  0.  0.
201  2.00  0.  0.  0.
202  2.01  0.  0.  0.
203  2.02  0.  0.  0.
204  2.03  0.  0.  0.
205  2.04  0.  0.  0.
206  2.05  0.  0.  0.
207  2.06  0.  0.  0.
208  2.07  0.  0.  0.
209  2.08  0.  0.  0.
210  2.09  0.  0.  0.
211  2.10  0.  0.  0.
212  2.11  0.  0.  0.
213  2.12  0.  0.  0.
214  2.13  0.  0.  0.
215  2.14  0.  0.  0.
216  2.15  0.  0.  0.
217  2.16  0.  0.  0.
218  2.17  0.  0.  0.
219  2.18  0.  0.  0.
220  2.19  0.  0.  0.
221  2.20  0.  0.  0.
222  2.21  0.  0.  0.
223  2.22  0.  0.  0.
224  2.23  0.  0.  0.
225  2.24  0.  0.  0.
226  2.25  0.  0.  0.
227  2.26  0.  0.  0.
228  2.27  0.  0.  0.
229  2.28  0.  0.  0.
230  2.29  0.  0.  0.
231  2.30  0.  0.  0.
232  2.31  0.  0.  0.
233  2.32  0.  0.  0.
234  2.33  0.  0.  0.
235  2.34  0.  0.  0.
236  2.35  0.  0.  0.
237  2.36  0.  0.  0.
238  2.37  0.  0.  0.
239  2.38  0.  0.  0.
240  2.39  0.  0.  0.
241  2.40  0.  0.  0.
242  2.41  0.  0.  0.
243  2.42  0.  0.  0.
244  2.43  0.  0.  0.
245  2.44  0.  0.  0.
246  2.45  0.  0.  0.
247  2.46  0.  0.  0.
248  2.47  0.  0.  0.
249  2.48  0.  0.  0.
250  2.49  0.  0.  0.
251  2.50  0.  0.  0.
252  2.51  0.  0.  0.
253  2.52  0.  0.  0.
254  2.53  0.  0.  0.
255  2.54  0.  0.  0.
256  2.55  0.  0.  0.
257  2.56  0.  0.  0.
258  2.57  0.  0.  0.
259  2.58  0.  0.  0.
260  2.59  0.  0.  0.
261  2.60  0.  0.  0.
262  2.61  0.  0.  0.
263  2.62  0.  0.  0.
264  2.63  0.  0.  0.
265  2.64  0.  0.  0.
266  2.65  0.  0.  0.
267  2.66  0.  0.  0.
268  2.67  0.  0.  0.
269  2.68  0.  0.  0.
270  2.69  0.  0.  0.
271  2.70  0.  0.  0.
272  2.71  0.  0.  0.
273  2.72  0.  0.  0.
274  2.73  0.  0.  0.
275  2.74  0.  0.  0.
276  2.75  0.  0.  0.
277  2.76  0.  0.  0.
278  2.77  0.  0.  0.
279  2.78  0.  0.  0.
280  2.79  0.  0.  0.
281  2.80  0.  0.  0.
282  2.81  0.  0.  0.
283  2.82  0.  0.  0.
284  2.83  0.  0.  0.
285  2.84  0.  0.  0.
286  2.85  0.  0.  0.
287  2.86  0.  0.  0.
288  2.87  0.  0.  0.
289  2.88  0.  0.  0.
290  2.89  0.  0.  0.
291  2.90  0.  0.  0.
292  2.91  0.  0.  0.
293  2.92  0.  0.  0.
294  2.93  0.  0.  0.
295  2.94  0.  0.  0.
296  2.95  0.  0.  0.
297  2.96  0.  0.  0.
298  2.97  0.  0.  0.
299  2.98  0.  0.  0.
300  2.99  0.  0.  0.
301  3.00  0.  0.  0.
302  3.01  0.  0.  0.
303  3.02  0.  0.  0.
304  3.03  0.  0.  0.
305  3.04  0.  0.  0.
306  3.05  0.  0.  0.
307  3.06  0.  0.  0.
308  3.07  0.  0.  0.
309  3.08  0.  0.  0.
310  3.09  0.  0.  0.
311  3.10  0.  0.  0.
312  3.11  0.  0.  0.
313  3.12  0.  0.  0.
314  3.13  0.  0.  0.
315  3.14  0.  0.  0.
316  3.15  0.  0.  0.
317  3.16  0.  0.  0.
318  3.17  0.  0.  0.
319  3.18  0.  0.  0.
320  3.19  0.  0.  0.
321  3.20  0.  0.  0.
322  3.21  0.  0.  0.
323  3.22  0.  0.  0.
324  3.23  0.  0.  0.
325  3.24  0.  0.  0.
326  3.25  0.  0.  0.
327  3.26  0.  0.  0.
328  3.27  0.  0.  0.
329  3.28  0.  0.  0.
330  3.29  0.  0.  0.
331  3.30  0.  0.  0.
332  3.31  0.  0.  0.
333  3.32  0.  0.  0.
334  3.33  0.  0.  0.
335  3.34  0.  0.  0.
336  3.35  0.  0.  0.
337  3.36  0.  0.  0.
338  3.37  0.  0.  0.
339  3.38  0.  0.  0.
340  3.39  0.  0.  0.
341  3.40  0.  0.  0.
342  3.41  0.  0.  0.
343  3.42  0.  0.  0.
344  3.43  0.  0.  0.
345  3.44  0.  0.  0.
346  3.45  0.  0.  0.
347  3.46  0.  0.  0.
348  3.47  0.  0.  0.
349  3.48  0.  0.  0.
350  3.49  0.  0.  0.
351  3.50  0.  0.  0.
352  3.51  0.  0.  0.
353  3.52  0.  0.  0.
354  3.53  0.  0.  0.
355  3.54  0.  0.  0.
356  3.55  0.  0.  0.
357  3.56  0.  0.  0.
358  3.57  0.  0.  0.
359  3.58  0.  0.  0.
360  3.59  0.  0.  0.
361  3.60  0.  0.  0.
362  3.61  0.  0.  0.
363  3.62  0.  0.  0.
364  3.63  0.  0.  0.
365  3.64  0.  0.  0.
366  3.65  0.  0.  0.
367  3.66  0.  0.  0.
368  3.67  0.  0.  0.
369  3.68  0.  0.  0.
370  3.69  0.  0.  0.
371  3.70  0.  0.  0.
372  3.71  0.  0.  0.
373  3.72  0.  0.  0.
374  3.73  0.  0.  0.
375  3.74  0.  0.  0.
376  3.75  0.  0.  0.
377  3.76  0.  0.  0.
378  3.77  0.  0.  0.
379  3.78  0.  0.  0.
380  3.79  0.  0.  0.
381  3.80  0.  0.  0.
382  3.81  0.  0.  0.
383  3.82  0.  0.  0.
384  3.83  0.  0.  0.
385  3.84  0.  0.  0.
386  3.85  0.  0.  0.
387  3.86  0.  0.  0.
388  3.87  0.  0.  0.
389  3.88  0.  0.  0.
390  3.89  0.  0.  0.
391  3.90  0.  0.  0.
392  3.91  0.  0.  0.
393  3.92  0.  0.  0.
394  3.93  0.  0.  0.
395  3.94  0.  0.  0.
396  3.95  0.  0.  0.
397  3.96  0.  0.  0.
398  3.97  0.  0.  0.
399  3.98  0.  0.  0.
400  3.99  0.  0.  0.
401  4.00  0.  0.  0.
402  4.01  0.  0.  0.
403  4.02  0.  0.  0.
404  4.03  0.  0.  0.
405  4.04  0.  0.  0.
406  4.05  0.  0.  0.
407  4.06  0.  0.  0.
408  4.07  0.  0.  0.
409  4.08  0.  0.  0.
410  4.09  0.  0.  0.
411  4.10  0.  0.  0.
412  4.11  0.  0.  0.
413  4.12  0.  0.  0.
414  4.13  0.  0.  0.
415  4.14  0.  0.  0.
416  4.15  0.  0.  0.
417  4.16  0.  0.  0.
418  4.17  0.  0.  0.
419  4.18  0.  0.  0.
420  4.19  0.  0.  0.
421  4.20  0.  0.  0.
422  4.21  0.  0.  0.
423  4.22  0.  0.  0.
424  4.23  0.  0.  0.
425  4.24  0.  0.  0.
426  4.25  0.  0.  0.
427  4.26  0.  0.  0.
428  4.27  0.  0.  0.
429  4.28  0.  0.  0.
430  4.29  0.  0.  0.
431  4.30  0.  0.  0.
432  4.31  0.  0.  0.
433  4.32  0.  0.  0.
434  4.33  0.  0.  0.
435  4.34  0.  0.  0.
436  4.35  0.  0.  0.
437  4.36  0.  0.  0.
438  4.37  0.  0.  0.
439  4.38  0.  0.  0.
440  4.39  0.  0.  0.
441  4.40  0.  0.  0.
442  4.41  0.  0.  0.
443  4.42  0.  0.  0.
444  4.43  0.  0.  0.
445  4.44  0.  0.  0.
446  4.45  0.  0.  0.
447  4.46  0.  0.  0.
448  4.47  0.  0.  0.
449  4.48  0.  0.  0.
450  4.49  0.  0.  0.
451  4.50  0.  0.  0.
452  4.51  0.  0.  0.
453  4.52  0.  0.  0.
454  4.53  0.  0.  0.
455  4.54  0.  0.  0.
456  4.55  0.  0.  0.
457  4.56  0.  0.  0.
458  4.57  0.  0.  0.
459  4.58  0.  0.  0.
460  4.59  0.  0.  0.
461  4.60  0.  0.  0.
462  4.61  0.  0.  0.
463  4.62  0.  0.  0.
464  4.63  0.  0.  0.
465  4.64  0.  0.  0.
466  4.65  0.  0.  0.
467  4.66  0.  0.  0.
468  4.67  0.  0.  0.
469  4.68  0.  0.  0.
470  4.69  0.  0.  0.
471  4.70  0.  0.  0.
472  4.71  0.  0.  0.
473  4.72  0.  0.  0.
474  4.73  0.  0.  0.
475  4.74  0.  0.  0.
476  4.75  0.  0.  0.
477  4.76  0.  0.  0.
478  4.77  0.  0.  0.
479  4.78  0.  0.  0.
480  4.79  0.  0.  0.
481  4.80  0.  0.  0.
482  4.81  0.  0.  0.
483  4.82  0.  0.  0.
484  4.83  0.  0.  0.
485  4.84  0.  0.  0.
486  4.85  0.  0.  0.
487  4.86  0.  0.  0.
488  4.87  0.  0.  0.
489  4.88  0.  0.  0.
490  4.89  0.  0.  0.
491  4.90  0.  0.  0.
492  4.91  0.  0.  0.
493  4.92  0.  0.  0.
494  4.93  0.  0.  0.
495  4.94  0.  0.  0.
496  4.95  0.  0.  0.
497  4.96  0.  0.  0.
498  4.97  0.  0.  0.
499  4.98  0.  0.  0.
500  4.99  0.  0.  0.
501  5.00  0.  0.  0.
502  5.01  0.  0.  0.
503  5.02  0.  0.  0.
504  5.03  0.  0.  0.
505  5.04  0.  0.  0.
506  5.05  0.  0.  0.
507  5.06  0.  0.  0.
508  5.07  0.  0.  0.
509  5.08  0.  0.  0.
510  5.09  0.  0.  0.
511  5.10  0.  0.  0.
512  5.11  0.  0.  0.
513  5.12  0.  0.  0.
514  5.13  0.  0.  0.
515  5.14  0.  0.  0.
516  5.15  0.  0.  0.
517  5.16  0.  0.  0.
518  5.17  0.  0.  0.
519  5.18  0.  0.  0.
520  5.19  0.  0.  0.
521  5.20  0.  0.  0.
522  5.21  0.  0.  0.
523  5.22  0.  0.  0.
524  5.23  0.  0.  0.
525  5.24  0.  0.  0.
526  5.25  0.  0.  0.
527  5.26  0.  0.  0.
528  5.27  0.  0.  0.
529  5.28  0.  0.  0.
530  5.29  0.  0.  0.
531  5.30  0.  0.  0.
532  5.31  0.  0.  0.
533  5.32  0.  0.  0.
534  5.33  0.  0.  0.
535  5.34  0.  0.  0.
536  5.35  0.  0.  0.
537  5.36  0.  0.  0.
538  5.37  0.  0.  0.
539  5.38  0.  0.  0.
540  5.39  0.  0.  0.
541  5.40  0.  0.  0.
542  5.41  0.  0.  0.
543  5.42  0.  0.  0.
544  5.43  0.  0.  0.
545  5.44  0.  0.  0.
546  5.45  0.  0.  0.
547  5.46  0.  0.  0.
548  5.47  0.  0.  0.
549  5.48  0.  0.  0.
550  5.49  0.  0.  0.
551  5.50  0.  0.  0.
552  5.51  0.  0.  0.
553  5.52  0.  0.  0.
554  5.53  0.  0.  0.
555  5.54  0.  0.  0.
556  5.55  0.  0.  0.
557  5.56  0.  0.  0.
558  5.57  0.  0.  0.
559  5.58  0.  0.  0.
560  5.59  0.  0.  0.
561  5.60  0.  0.  0.
562  5.61  0.  0.  0.
563  5.62  0.  0.  0.
564  5.63  0.  0.  0.
565  5.64  0.  0.  0.
566  5.65  0.  0.  0.
567  5.66  0.  0.  0.
568  5.67  0.  0.  0.
569  5.68  0.  0.  0.
570  5.69  0.  0.  0.
571  5.70  0.  0.  0.
572  5.71  0.  0.  0.
573  5.72  0.  0.  0.
574  5.73  0.  0.  0.
575  5.74  0.  0.  0.
576  5.75  0.  0.  0.
577  5.76  0.  0.  0.
578  5.77  0.  0.  0.
579  5.78  0.  0.  0.
580  5.79  0.  0.  0.
581  5.80  0.  0.  0.
582  5.81  0.  0.  0.
583  5.82  0.  0.  0.
584  5.83  0.  0.  0.
585  5.84  0.  0.  0.
586  5.85  0.  0.  0.
587  5.86  0.  0.  0.
588  5.87  0.  0.  0.
589  5.88  0.  0.  0.
590  5.89  0.  0.  0.
591  5.90  0.  0.  0.
592  5.91  0.  0.  0.
593  5.92  0.  0.  0.
594  5.93  0.  0.  0.
595  5.94  0.  0.  0.
596  5.95  0.  0.  0.
597  5.96  0.  0.  0.
598  5.97  0.  0.  0.
599  5.98  0.  0.  0.
600  5.99  0.  0.  0.
1                         1.2913900111524E+01 -4.4484457870698E-01
1  0.0000000000000E+00 -1.6156850579652E-08 -2.3874088349307E-07
2  1.0000000000000E-02  3.5957462424105E-03  1.1050562066676E-03
3  2.0000000000000E-02  1.4361498677121E-02  4.4707333328033E-03
4  3.0000000000000E-02  3.2232686883076E-02  1.0244865286600E-02
5  4.0000000000000E-02  5.7101334061314E-02  1.8661714647578E-02
6  5.0000000000000E-02  8.8815560656418E-02  3.0024397379295E-02
7  6.0000000000000E-02  1.2717897294502E-01  4.4681481126103E-02
8  7.0000000000000E-02  1.7195001549024E-01  6.2998897723693E-02
9  8.0000000000000E-02  2.2284138251762E-01  8.5328549294059E-02
10  9.0000000000000E-02  2.7951959500088E-01  1.1197516569855E-01
11  1.0000000000000E-01  3.4160485695766E-01  1.4316308111225E-01
12  1.1000000000000E-01  4.0867130576010E-01  1.7900463384339E-01
13  1.2000000000000E-01  4.8024776699811E-01  2.1947185412317E-01
14  1.3000000000000E-01  5.5581911466519E-01  2.6437299049613E-01
15  1.4000000000000E-01  6.3482832246848E-01  3.1333524087039E-01
16  1.5000000000000E-01  7.1667927241715E-01  3.6579480647220E-01
17  1.6000000000000E-01  8.0074036323971E-01  4.2099508584416E-01
18  1.7000000000000E-01  8.8634893451465E-01  4.7799348391852E-01
19  1.8000000000000E-01  9.7281649370375E-01  5.3567694221313E-01
20  1.9000000000000E-01  1.0594347036829E+00  5.9278591573645E-01
21  2.0000000000000E-01  1.1454820590516E+00  6.4794614628857E-01
22  2.1000000000000E-01  1.2302311516585E+00  6.9970722653331E-01
23  2.2000000000000E-01  1.3129564005417E+00  7.4658662983902E-01
24  2.3000000000000E-01  1.3929420999158E+00  7.8711761146694E-01
25  2.4000000000000E-01  1.4694906218407E+00  8.1989917933894E-01
26  2.5000000000000E-01  1.5419305985527E+00  8.4364619701274E-01
27  2.6000000000000E-01  1.6096249036480E+00  8.5723762444477E-01
28  2.7000000000000E-01  1.6719782517174E+00  8.5976092725612E-01
29  2.8000000000000E-01  1.7284442427015E+00  8.5055079279823E-01
30  2.9000000000000E-01  1.7785316900058E+00  8.2922047818083E-01
31  3.0000000000000E-01  1.8218100898637E+00  7.9568437507770E-01
32  3.1000000000000E-01  1.8579141129245E+00  7.5017069895789E-01
33  3.2000000000000E-01  1.8865470267206E+00  6.9322358403191E-01
34  3.3000000000000E-01  1.9074829885264E+00  6.2569427500076E-01
35  3.4000000000000E-01  1.9205681809893E+00  5.4872153627863E-01
36  3.5000000000000E-01  1.9257207965754E+00  4.6370183129301E-01
37  3.6000000000000E-01  1.9229299100335E+00  3.7225024094928E-01
38  3.7000000000000E-01  1.9122533094854E+00  2.7615347394655E-01
39  3.8000000000000E-01  1.8938143852046E+00  1.7731665600339E-01
40  3.9000000000000E-01  1.8677981995469E+00  7.7705855628629E-02
41  4.0000000000000E-01  1.8344468809448E+00 -2.0711501305148E-02
42  4.1000000000000E-01  1.7940544986156E+00 -1.1602606647317E-01
43  4.2000000000000E-01  1.7469615821872E+00 -2.0644357333827E-01
44  4.3000000000000E-01  1.6935494515518E+00 -2.9033720530056E-01
45  4.4000000000000E-01  1.6342345169374E+00 -3.6629328861751E-01
46  4.5000000000000E-01  1.5694626977256E+00 -4.3314852331740E-01
47  4.6000000000000E-01  1.4997040914729E+00 -4.9001729467096E-01
48  4.7000000000000E-01  1.4254480026882E+00 -5.3630800166232E-01
49  4.8000000000000E-01  1.3471984151634E+00 -5.7172778198937E-01
50  4.9000000000000E-01  1.2654699631848E+00 -5.9627548780936E-01
51  5.0000000000000E-01  1.1807844270445E+00 -6.1022325349883E-01
52  5.1000000000000E-01  1.0936677482551E+00 -6.1408747605105E-01
53  5.2000000000000E-01  1.0046475310870E+00 -6.0859048029637E-01
54  5.3000000000000E-01  9.1425097080782E-01 -5.9461454560676E-01
55  5.4000000000000E-01  8.2300312650214E-01 -5.7315031046386E-01
56  5.5000000000000E-01  7.3142543863332E-01 -5.4524183092789E-01
57  5.6000000000000E-01  6.4003437943161E-01 -5.1193073640084E-01
58  5.7000000000000E-01  5.4934011835525E-01 -4.7420199249521E-01
59  5.8000000000000E-01  4.5984508561783E-01 -4.3293374171376E-01
60  5.9000000000000E-01  3.7204232415472E-01 -3.8885354772319E-01
61  6.0000000000000E-01  2.8641353417062E-01 -3.4250312237853E-01
62  6.1000000000000E-01  2.0342673403617E-01 -2.9421327474143E-01
63  6.2000000000000E-01  1.2353348597751E-01 -2.4409040059223E-01
64  6.3000000000000E-01  4.7165663682515E-02 -1.9201534543042E-01
65  6.4000000000000E-01 -2.5268229620738E-02 -1.3765494275465E-01
66  6.5000000000000E-01 -9.3387151275261E-02 -8.0485973858441E-02
67  6.6000000000000E-01 -1.5684194352327E-01 -1.9830738259993E-02
68  6.7000000000000E-01 -2.1531998712311E-01  4.5097111484734E-02
69  6.8000000000000E-01 -2.6854995154921E-01  1.1513830759537E-01
70  6.9000000000000E-01 -3.1630648587558E-01  1.9112753910607E-01
71  7.0000000000000E-01 -3.5841467707495E-01  2.7382945899712E-01
72  7.1000000000000E-01 -3.9475409195604E-01  3.6387396505807E-01
73  7.2000000000000E-01 -4.2526221607511E-01  4.6169371719336E-01
74  7.3000000000000E-01 -4.4993710815901E-01  5.6746685636857E-01
75  7.4000000000000E-01 -4.6883910200158E-01  6.8106776828343E-01
76  7.5000000000000E-01 -4.8209140923477E-01  8.0202849013043E-01
77  7.6000000000000E-01 -4.8987950527777E-01  9.2951299852721E-01
78  7.7000000000000E-01 -4.9244921625728E-01  1.0623061527448E+00
79  7.8000000000000E-01 -4.9010346558666E-01  1.1988185160667E+00
80  7.9000000000000E-01 -4.8319768375589E-01  1.3371076597287E+00
81  8.0000000000000E-01 -4.7213393207358E-01  1.4749158917350E+00
82  8.1000000000000E-01 -4.5735383882540E-01  1.6097236725759E+00
83  8.2000000000000E-01 -4.3933049270946E-01  1.7388173082912E+00
84  8.3000000000000E-01 -4.1855948160331E-01  1.8593688756171E+00
85  8.4000000000000E-01 -3.9554930291467E-01  1.9685257603343E+00
86  8.5000000000000E-01 -3.7081140331037E-01  2.0635067028083E+00
87  8.6000000000000E-01 -3.4485012905874E-01  2.1417008656192E+00
88  8.7000000000000E-01 -3.1815288238285E-01  2.2007661849202E+00
89  8.8000000000000E-01 -2.9118078324739E-01  2.2387231531015E+00
90  8.9000000000000E-01 -2.6436012939113E-01  2.2540402138092E+00
91  9.0000000000000E-01 -2.3807493005041E-01  2.2457071343399E+00
92  9.1000000000000E-01 -2.1266076096733E-01  2.2132930523491E+00
93  9.2000000000000E-01 -1.8840015060374E-01  2.1569863655506E+00
94  9.3000000000000E-01 -1.6551966099873E-01  2.0776142315221E+00
95  9.4000000000000E-01 -1.4418877277735E-01  1.9766401517522E+00
96  9.5000000000000E-01 -1.2452062406976E-01  1.8561389076649E+00
97  9.6000000000000E-01 -1.0657458939068E-01  1.7187489712297E+00
98  9.7000000000000E-01 -9.0360618878891E-02  1.5676034011909E+00
99  9.8000000000000E-01 -7.5845192807147E-02  1.4062411288998E+00
100  9.9000000000000E-01 -6.2958683024353E-02  1.2385014063786E+00
101  1.0000000000000E+00 -5.1603854056460E-02  1.0684050046775E+00
102  1.0100000000000E+00 -4.1665183839004E-02  9.0002648662518E-01
103  1.0200000000000E+00 -3.3018639135854E-02  7.3736251134980E-01
104  1.0300000000000E+00 -2.5541492035919E-02  5.8420173531400E-01
105  1.0400000000000E+00 -1.9121849953932E-02  4.4400140584926E-01
106  1.0500000000000E+00 -1.3668847707286E-02  3.1976658030305E-01
107  1.0600000000000E+00 -9.1616567820271E-03  2.1364106949727E-01
108  1.0700000000000E+00 -5.5591472689970E-03  1.2755267529622E-01
109  1.0800000000000E+00 -2.8257059686131E-03  6.3051125010883E-02
110  1.0900000000000E+00 -9.7684221108509E-04  2.0983114556629E-02
111  1.1000000000000E+00 -8.4271440772429E-05  1.7264894063616E-03
112  1.1100000000000E+00  1.2392743591370E-06 -2.4644913236676E-05
113  1.1200000000000E+00  6.0811607975843E-07 -1.2635981375227E-05
114  1.13 -0.  0.
115  1.14  0.  0.
116  1.15  0.  0.
117  1.16  0.  0.
118  1.17  0.  0.
119  1.18  0.  0.
120  1.19  0.  0.
121  1.20  0.  0.
122  1.21  0.  0.
123  1.22  0.  0.
124  1.23  0.  0.
125  1.24  0.  0.
126  1.25  0.  0.
127  1.26  0.  0.
128  1.27  0.  0.
129  1.28  0.  0.
130  1.29  0.  0.
131  1.30  0.  0.
132  1.31  0.  0.
133  1.32  0.  0.
134  1.33  0.  0.
135  1.34  0.  0.
136  1.35  0.  0.
137  1.36  0.  0.
138  1.37  0.  0.
139  1.38  0.  0.
140  1.39  0.  0.
141  1.40  0.  0.
142  1.41  0.  0.
143  1.42  0.  0.
144  1.43  0.  0.
145  1.44  0.  0.
146  1.45  0.  0.
147  1.46  0.  0.
148  1.47  0.  0.
149  1.48  0.  0.
150  1.49  0.  0.
151  1.50  0.  0.
152  1.51  0.  0.
153  1.52  0.  0.
154  1.53  0.  0.
155  1.54  0.  0.
156  1.55  0.  0.
157  1.56  0.  0.
158  1.57  0.  0.
159  1.58  0.  0.
160  1.59  0.  0.
161  1.60  0.  0.
162  1.61  0.  0.
163  1.62  0.  0.
164  1.63  0.  0.
165  1.64  0.  0.
166  1.65  0.  0.
167  1.66  0.  0.
168  1.67  0.  0.
169  1.68  0.  0.
170  1.69  0.  0.
171  1.70  0.  0.
172  1.71  0.  0.
173  1.72  0.  0.
174  1.73  0.  0.
175  1.74  0.  0.
176  1.75  0.  0.
177  1.76  0.  0.
178  1.77  0.  0.
179  1.78  0.  0.
180  1.79  0.  0.
181  1.80  0.  0.
182  1.81  0.  0.
183  1.82  0.  0.
184  1.83  0.  0.
185  1.84  0.  0.
186  1.85  0.  0.
187  1.86  0.  0.
188  1.87  0.  0.
189  1.88  0.  0.
190  1.89  0.  0.
191  1.90  0.  0.
192  1.91  0.  0.
193  1.92  0.  0.
194  1.93  0.  0.
195  1.94  0.  0.
196  1.95  0.  0.
197  1.96  0.  0.