U     ONCVPSP-4.0.1  r_core=   1.26652   1.32068   2.00750   1.26652
92.0000     32.0000      230304    zatom,zion,pspd
8      11   3     4   600     0    pspcod,pspxc,lmax,lloc,mmax,r2well
5.99000000  1.40000000  0.00000000    rchrg fchrg qchrg
3     2     2     2     0    nproj
1     1           extension_switch
0                         1.9717226258930E+01  3.4351868957331E+00 -1.4935309599159E+00
1  0.0000000000000E+00 -1.9201242462685E-07  4.2151175139171E-07 -3.0915910942397E-08
2  1.0000000000000E-02  1.6728377111766E-01 -1.0874218733109E-01  3.0350392509353E-02
3  2.0000000000000E-02  3.3242087047696E-01 -2.1369159102473E-01  6.0435766889358E-02
4  3.0000000000000E-02  4.9331868759327E-01 -3.1117141579688E-01  8.9998964386987E-02
5  4.0000000000000E-02  6.4799108750249E-01 -3.9773322079548E-01  1.1879829123274E-01
6  5.0000000000000E-02  7.9460758303418E-01 -4.7026215540083E-01  1.4661462512918E-01
7  6.0000000000000E-02  9.3153777266291E-01 -5.2607178166183E-01  1.7325779382851E-01
8  7.0000000000000E-02  1.0573897011324E+00 -5.6298552870594E-01  1.9857202114758E-01
9  8.0000000000000E-02  1.1710409920597E+00 -5.7940224597208E-01  2.2244026668451E-01
10  9.0000000000000E-02  1.2716618299788E+00 -5.7434382334016E-01  2.4478732215729E-01
11  1.0000000000000E-01  1.3587291264920E+00 -5.4748341127141E-01  2.6558156845431E-01
12  1.1000000000000E-01  1.4320314831610E+00 -4.9915338501474E-01  2.8483534179182E-01
13  1.2000000000000E-01  1.4916648536202E+00 -4.3033283441051E-01  3.0260390333184E-01
14  1.3000000000000E-01  1.5380190999031E+00 -3.4261500464021E-01  3.1898305268808E-01
15  1.4000000000000E-01  1.5717559238123E+00 -2.3815574304572E-01  3.3410547039742E-01
16  1.5000000000000E-01  1.5937789242537E+00 -1.1960460295261E-01  3.4813591616707E-01
17  1.6000000000000E-01  1.6051967771969E+00  9.9792015457078E-03  3.6126544713065E-01
18  1.7000000000000E-01  1.6072807485339E+00  1.4722332279135E-01  3.7370485221085E-01
19  1.8000000000000E-01  1.6014179248122E+00  2.8854823341949E-01  3.8567752393208E-01
20  1.9000000000000E-01  1.5890616771156E+00  4.3027926026471E-01  3.9741200681567E-01
21  2.0000000000000E-01  1.5716809551661E+00  5.6876116652657E-01  4.0913447123641E-01
22  2.1000000000000E-01  1.5507100395002E+00  7.0047167702093E-01  4.2106136300705E-01
23  2.2000000000000E-01  1.5275003584412E+00  8.2213038190736E-01  4.3339247195299E-01
24  2.3000000000000E-01  1.5032759043165E+00  9.3079960730646E-01  4.4630464759138E-01
25  2.4000000000000E-01  1.4790936623632E+00  1.0239741016672E+00  4.5994636726049E-01
26  2.5000000000000E-01  1.4558102999984E+00  1.0996567461420E+00  4.7443333243586E-01
27  2.6000000000000E-01  1.4340561589794E+00  1.1564179439929E+00  4.8984523352985E-01
28  2.7000000000000E-01  1.4142173551074E+00  1.1934368638428E+00  5.0622378340573E-01
29  2.8000000000000E-01  1.3964265271959E+00  1.2105232877546E+00  5.2357207650850E-01
30  2.9000000000000E-01  1.3805624975153E+00  1.2081194292739E+00  5.4185528539218E-01
31  3.0000000000000E-01  1.3662588188065E+00  1.1872817191499E+00  5.6100266103642E-01
32  3.1000000000000E-01  1.3529208974416E+00  1.1496431873395E+00  5.8091075923188E-01
33  3.2000000000000E-01  1.3397511075219E+00  1.0973576791172E+00  6.0144777396544E-01
34  3.3000000000000E-01  1.3257810554088E+00  1.0330277114024E+00  6.2245882154975E-01
35  3.4000000000000E-01  1.3099099264928E+00  9.5961828488460E-01  6.4377198747067E-01
36  3.5000000000000E-01  1.2909476531196E+00  8.8035940222010E-01  6.6520492263930E-01
37  3.6000000000000E-01  1.2676614905808E+00  7.9864038896382E-01  6.8657175777745E-01
38  3.7000000000000E-01  1.2388244816534E+00  7.1789936132730E-01  7.0769009463342E-01
39  3.8000000000000E-01  1.2032642326054E+00  6.4151132585195E-01  7.2838783094132E-01
40  3.9000000000000E-01  1.1599104165174E+00  5.7267842662366E-01  7.4850958254480E-01
41  4.0000000000000E-01  1.1078394632479E+00  5.1432577522236E-01  7.6792248066356E-01
42  4.1000000000000E-01  1.0463149877963E+00  4.6900611026480E-01  7.8652114437023E-01
43  4.2000000000000E-01  9.7482264701863E-01  4.3881624363620E-01  8.0423165719466E-01
44  4.3000000000000E-01  8.9309829400974E-01  4.2532786902100E-01  8.2101441137464E-01
45  4.4000000000000E-01  8.0114851404584E-01  4.2953484772039E-01  8.3686572242868E-01
46  4.5000000000000E-01  6.9926286873567E-01  4.5181856203716E-01  8.5181815908060E-01
47  4.6000000000000E-01  5.8801743805218E-01  4.9193235474446E-01  8.6593957765503E-01
48  4.7000000000000E-01  4.6826952467398E-01  5.4900547276553E-01  8.7933089436803E-01
49  4.8000000000000E-01  3.4114366269929E-01  6.2156632342720E-01  8.9212267193142E-01
50  4.9000000000000E-01  2.0800934440318E-01  7.0758425193009E-01  9.0447063709933E-01
51  5.0000000000000E-01  7.0451135637502E-02  8.0452847798608E-01  9.1655028183177E-01
52  5.1000000000000E-01 -6.9767915398196E-02  9.0944230581745E-01  9.2855073140435E-01
53  5.2000000000000E-01 -2.1074846729049E-01  1.0190302611803E+00  9.4066808701612E-01
54  5.3000000000000E-01 -3.5050139616083E-01  1.1297554258844E+00  9.5309846742515E-01
55  5.4000000000000E-01 -4.8699722568123E-01  1.2379439459651E+00  9.6603098331495E-01
56  5.5000000000000E-01 -6.1821699314491E-01  1.3398934927953E+00  9.7964087917893E-01
57  5.6000000000000E-01 -7.4220303489715E-01  1.4319823623508E+00  9.9408307050347E-01
58  5.7000000000000E-01 -8.5710818896563E-01  1.5107759085787E+00  1.0094862892134E+00
59  5.8000000000000E-01 -9.6124197433732E-01  1.5731271209417E+00  1.0259480282734E+00
60  5.9000000000000E-01 -1.0531124125535E+00  1.6162683689963E+00  1.0435304478198E+00
61  6.0000000000000E-01 -1.1314623042406E+00  1.6378916404478E+00  1.0622573712692E+00
62  6.1000000000000E-01 -1.1952989556793E+00  1.6362149827555E+00  1.0821124617226E+00
63  6.2000000000000E-01 -1.2439165622550E+00  1.6100333088632E+00  1.1030386280374E+00
64  6.3000000000000E-01 -1.2769106894420E+00  1.5587522297601E+00  1.1249386676160E+00
65  6.4000000000000E-01 -1.2941845400524E+00  1.4824041136233E+00  1.1476771107870E+00
66  6.5000000000000E-01 -1.2959469506242E+00  1.3816461256285E+00  1.1710831911024E+00
67  6.6000000000000E-01 -1.2827023117564E+00  1.2577405561366E+00  1.1949548283952E+00
68  6.7000000000000E-01 -1.2552328488129E+00  1.1125182801758E+00  1.2190634783407E+00
69  6.8000000000000E-01 -1.2145739230686E+00  9.4832669108982E-01  1.2431596746971E+00
70  6.9000000000000E-01 -1.1619832120938E+00  7.6796390040384E-01  1.2669790693264E+00
71  7.0000000000000E-01 -1.0989047959703E+00  5.7460138086839E-01  1.2902487612172E+00
72  7.1000000000000E-01 -1.0269293078696E+00  3.7169753895662E-01  1.3126936995137E+00
73  7.2000000000000E-01 -9.4775140000287E-01  1.6290492829574E-01  1.3340429471538E+00
74  7.3000000000000E-01 -8.6312582668127E-01 -4.8026049113497E-02  1.3540356010418E+00
75  7.4000000000000E-01 -7.7482345440503E-01 -2.5734406406322E-01  1.3724261813146E+00
76  7.5000000000000E-01 -6.8458847512695E-01 -4.6139156283445E-01  1.3889893255608E+00
77  7.6000000000000E-01 -5.9409802513436E-01 -6.5669454792336E-01  1.4035236529030E+00
78  7.7000000000000E-01 -5.0492530167177E-01 -8.4004495267783E-01  1.4158546965606E+00
79  7.8000000000000E-01 -4.1850712697624E-01 -1.0085734181279E+00  1.4258368405722E+00
80  7.9000000000000E-01 -3.3611674031170E-01 -1.1598106344807E+00  1.4333542353961E+00
81  8.0000000000000E-01 -2.5884240913409E-01 -1.2917358126815E+00  1.4383207066303E+00
82  8.1000000000000E-01 -1.8757224755197E-01 -1.4028112886846E+00  1.4406787096309E+00
83  8.2000000000000E-01 -1.2298542089477E-01 -1.4920027194580E+00  1.4403974188998E+00
84  8.3000000000000E-01 -6.5549706697547E-02 -1.5587847896972E+00  1.4374700734095E+00
85  8.4000000000000E-01 -1.5525181751679E-02 -1.6031327965401E+00  1.4319107263203E+00
86  8.5000000000000E-01  2.7026381359150E-02 -1.6255009017582E+00  1.4237505687940E+00
87  8.6000000000000E-01  6.2226990709337E-02 -1.6267882237513E+00  1.4130340120250E+00
88  8.7000000000000E-01  9.0363507428288E-02 -1.6082942736649E+00  1.3998147186494E+00
89  8.8000000000000E-01  1.1186514805201E-01 -1.5716655116313E+00  1.3841517740798E+00
90  8.9000000000000E-01  1.2727832954067E-01 -1.5188350033761E+00  1.3661061800825E+00
91  9.0000000000000E-01  1.3723981435093E-01 -1.4519572896475E+00  1.3457378373612E+00
92  9.1000000000000E-01  1.4244912316817E-01 -1.3733406391456E+00  1.3231031616182E+00
93  9.2000000000000E-01  1.4364115947503E-01 -1.2853788405424E+00  1.2982534493864E+00
94  9.3000000000000E-01  1.4155993503766E-01 -1.1904846039769E+00  1.2712340768994E+00
95  9.4000000000000E-01  1.3693420170418E-01 -1.0910264926550E+00  1.2420845786732E+00
96  9.5000000000000E-01  1.3045568664684E-01 -9.8927109853198E-01  1.2108396136783E+00
97  9.6000000000000E-01  1.2276050011533E-01 -8.8733192189000E-01  1.1775307874851E+00
98  9.7000000000000E-01  1.1441414227186E-01 -7.8712612370927E-01  1.1421892600721E+00
99  9.8000000000000E-01  1.0590038449412E-01 -6.9034000378946E-01  1.1048490326091E+00
100  9.9000000000000E-01  9.7614146444610E-02 -5.9840372858274E-01  1.0655507738634E+00
101  1.0000000000000E+00  8.9858339095434E-02 -5.1247550299293E-01  1.0243460192541E+00
102  1.0100000000000E+00  8.2844501197625E-02 -4.3343506156913E-01  9.8130155408836E-01
103  1.0200000000000E+00  7.6696927311033E-02 -3.6188605723309E-01  9.3650377806573E-01
104  1.0300000000000E+00  7.1459873813852E-02 -2.9816665955592E-01  8.9006284138480E-01
105  1.0400000000000E+00  6.7107338767628E-02 -2.4236744763699E-01  8.4211634409544E-01
106  1.0500000000000E+00  6.3554844491478E-02 -1.9435550054806E-01  7.9283239978041E-01
107  1.0600000000000E+00  6.0672609806688E-02 -1.5380345534800E-01  7.4241188204361E-01
108  1.0700000000000E+00  5.8299482449038E-02 -1.2022222058836E-01  6.9108969702013E-01
109  1.0800000000000E+00  5.6257010469415E-02 -9.2996001492226E-02  6.3913495656004E-01
110  1.0900000000000E+00  5.4363062849549E-02 -7.1418309367472E-02  5.8684996367645E-01
111  1.1000000000000E+00  5.2444461322906E-02 -5.4727687513800E-02  5.3456796311753E-01
112  1.1100000000000E+00  5.0348154225651E-02 -4.2141983115862E-02  4.8264965411440E-01
113  1.1200000000000E+00  4.7950544481670E-02 -3.2890120872386E-02  4.3147850770783E-01
114  1.1300000000000E+00  4.5164673556133E-02 -2.6240481694841E-02  3.8145497626494E-01
115  1.1400000000000E+00  4.1945055315640E-02 -2.1525147268932E-02  3.3298972570404E-01
116  1.1500000000000E+00  3.8290044224117E-02 -1.8159430584394E-02  2.8649606046363E-01
117  1.1600000000000E+00  3.4241704662358E-02 -1.5656261133765E-02  2.4238174523007E-01
118  1.1700000000000E+00  2.9883218720042E-02 -1.3635123819291E-02  2.0104045497719E-01
119  1.1800000000000E+00  2.5333936815791E-02 -1.1825376697980E-02  1.6284311179901E-01
120  1.1900000000000E+00  2.0741991820148E-02 -1.0063447108338E-02  1.2812926162687E-01
121  1.2000000000000E+00  1.6275656832187E-02 -8.2856826987065E-03  9.7199312423056E-02
122  1.2100000000000E+00  1.2078878842048E-02 -6.4537516624088E-03  7.0289035300054E-02
123  1.2200000000000E+00  8.2605056749273E-03 -4.5366999935809E-03  4.7562919802661E-02
124  1.2300000000000E+00  5.0353604732665E-03 -2.7692897773023E-03  2.9195010871640E-02
125  1.2400000000000E+00  2.5641544379841E-03 -1.3606800492526E-03  1.5288986573144E-02
126  1.2500000000000E+00  9.3265873641798E-04 -4.4829414712594E-04  5.8754976566159E-03
127  1.2600000000000E+00  1.3311933574088E-04 -5.0567046050866E-05  9.1955411618034E-04
128  1.2700000000000E+00 -7.6458712392120E-06  2.0250423644771E-06 -5.7867658449295E-05
129  1.2800000000000E+00  1.4693198996926E-06 -4.7348408642248E-07  1.0645797610046E-05
130  1.29 -0.  0. -0.
131  1.30  0.  0.  0.
132  1.31  0.  0.  0.
133  1.32  0.  0.  0.
134  1.33  0.  0.  0.
135  1.34  0.  0.  0.
136  1.35  0.  0.  0.
137  1.36  0.  0.  0.
138  1.37  0.  0.  0.
139  1.38  0.  0.  0.
140  1.39  0.  0.  0.
141  1.40  0.  0.  0.
142  1.41  0.  0.  0.
143  1.42  0.  0.  0.
144  1.43  0.  0.  0.
145  1.44  0.  0.  0.
146  1.45  0.  0.  0.
147  1.46  0.  0.  0.
148  1.47  0.  0.  0.
149  1.48  0.  0.  0.
150  1.49  0.  0.  0.
151  1.50  0.  0.  0.
152  1.51  0.  0.  0.
153  1.52  0.  0.  0.
154  1.53  0.  0.  0.
155  1.54  0.  0.  0.
156  1.55  0.  0.  0.
157  1.56  0.  0.  0.
158  1.57  0.  0.  0.
159  1.58  0.  0.  0.
160  1.59  0.  0.  0.
161  1.60  0.  0.  0.
162  1.61  0.  0.  0.
163  1.62  0.  0.  0.
164  1.63  0.  0.  0.
165  1.64  0.  0.  0.
166  1.65  0.  0.  0.
167  1.66  0.  0.  0.
168  1.67  0.  0.  0.
169  1.68  0.  0.  0.
170  1.69  0.  0.  0.
171  1.70  0.  0.  0.
172  1.71  0.  0.  0.
173  1.72  0.  0.  0.
174  1.73  0.  0.  0.
175  1.74  0.  0.  0.
176  1.75  0.  0.  0.
177  1.76  0.  0.  0.
178  1.77  0.  0.  0.
179  1.78  0.  0.  0.
180  1.79  0.  0.  0.
181  1.80  0.  0.  0.
182  1.81  0.  0.  0.
183  1.82  0.  0.  0.
184  1.83  0.  0.  0.
185  1.84  0.  0.  0.
186  1.85  0.  0.  0.
187  1.86  0.  0.  0.
188  1.87  0.  0.  0.
189  1.88  0.  0.  0.
190  1.89  0.  0.  0.
191  1.90  0.  0.  0.
192  1.91  0.  0.  0.
193  1.92  0.  0.  0.
194  1.93  0.  0.  0.
195  1.94  0.  0.  0.
196  1.95  0.  0.  0.
197  1.96  0.  0.  0.
198  1.97  0.  0.  0.
199  1.98  0.  0.  0.
200  1.99  0.  0.  0.
201  2.00  0.  0.  0.
202  2.01  0.  0.  0.
203  2.02  0.  0.  0.
204  2.03  0.  0.  0.
205  2.04  0.  0.  0.
206  2.05  0.  0.  0.
207  2.06  0.  0.  0.
208  2.07  0.  0.  0.
209  2.08  0.  0.  0.
210  2.09  0.  0.  0.
211  2.10  0.  0.  0.
212  2.11  0.  0.  0.
213  2.12  0.  0.  0.
214  2.13  0.  0.  0.
215  2.14  0.  0.  0.
216  2.15  0.  0.  0.
217  2.16  0.  0.  0.
218  2.17  0.  0.  0.
219  2.18  0.  0.  0.
220  2.19  0.  0.  0.
221  2.20  0.  0.  0.
222  2.21  0.  0.  0.
223  2.22  0.  0.  0.
224  2.23  0.  0.  0.
225  2.24  0.  0.  0.
226  2.25  0.  0.  0.
227  2.26  0.  0.  0.
228  2.27  0.  0.  0.
229  2.28  0.  0.  0.
230  2.29  0.  0.  0.
231  2.30  0.  0.  0.
232  2.31  0.  0.  0.
233  2.32  0.  0.  0.
234  2.33  0.  0.  0.
235  2.34  0.  0.  0.
236  2.35  0.  0.  0.
237  2.36  0.  0.  0.
238  2.37  0.  0.  0.
239  2.38  0.  0.  0.
240  2.39  0.  0.  0.
241  2.40  0.  0.  0.
242  2.41  0.  0.  0.
243  2.42  0.  0.  0.
244  2.43  0.  0.  0.
245  2.44  0.  0.  0.
246  2.45  0.  0.  0.
247  2.46  0.  0.  0.
248  2.47  0.  0.  0.
249  2.48  0.  0.  0.
250  2.49  0.  0.  0.
251  2.50  0.  0.  0.
252  2.51  0.  0.  0.
253  2.52  0.  0.  0.
254  2.53  0.  0.  0.
255  2.54  0.  0.  0.
256  2.55  0.  0.  0.
257  2.56  0.  0.  0.
258  2.57  0.  0.  0.
259  2.58  0.  0.  0.
260  2.59  0.  0.  0.
261  2.60  0.  0.  0.
262  2.61  0.  0.  0.
263  2.62  0.  0.  0.
264  2.63  0.  0.  0.
265  2.64  0.  0.  0.
266  2.65  0.  0.  0.
267  2.66  0.  0.  0.
268  2.67  0.  0.  0.
269  2.68  0.  0.  0.
270  2.69  0.  0.  0.
271  2.70  0.  0.  0.
272  2.71  0.  0.  0.
273  2.72  0.  0.  0.
274  2.73  0.  0.  0.
275  2.74  0.  0.  0.
276  2.75  0.  0.  0.
277  2.76  0.  0.  0.
278  2.77  0.  0.  0.
279  2.78  0.  0.  0.
280  2.79  0.  0.  0.
281  2.80  0.  0.  0.
282  2.81  0.  0.  0.
283  2.82  0.  0.  0.
284  2.83  0.  0.  0.
285  2.84  0.  0.  0.
286  2.85  0.  0.  0.
287  2.86  0.  0.  0.
288  2.87  0.  0.  0.
289  2.88  0.  0.  0.
290  2.89  0.  0.  0.
291  2.90  0.  0.  0.
292  2.91  0.  0.  0.
293  2.92  0.  0.  0.
294  2.93  0.  0.  0.
295  2.94  0.  0.  0.
296  2.95  0.  0.  0.
297  2.96  0.  0.  0.
298  2.97  0.  0.  0.
299  2.98  0.  0.  0.
300  2.99  0.  0.  0.
301  3.00  0.  0.  0.
302  3.01  0.  0.  0.
303  3.02  0.  0.  0.
304  3.03  0.  0.  0.
305  3.04  0.  0.  0.
306  3.05  0.  0.  0.
307  3.06  0.  0.  0.
308  3.07  0.  0.  0.
309  3.08  0.  0.  0.
310  3.09  0.  0.  0.
311  3.10  0.  0.  0.
312  3.11  0.  0.  0.
313  3.12  0.  0.  0.
314  3.13  0.  0.  0.
315  3.14  0.  0.  0.
316  3.15  0.  0.  0.
317  3.16  0.  0.  0.
318  3.17  0.  0.  0.
319  3.18  0.  0.  0.
320  3.19  0.  0.  0.
321  3.20  0.  0.  0.
322  3.21  0.  0.  0.
323  3.22  0.  0.  0.
324  3.23  0.  0.  0.
325  3.24  0.  0.  0.
326  3.25  0.  0.  0.
327  3.26  0.  0.  0.
328  3.27  0.  0.  0.
329  3.28  0.  0.  0.
330  3.29  0.  0.  0.
331  3.30  0.  0.  0.
332  3.31  0.  0.  0.
333  3.32  0.  0.  0.
334  3.33  0.  0.  0.
335  3.34  0.  0.  0.
336  3.35  0.  0.  0.
337  3.36  0.  0.  0.
338  3.37  0.  0.  0.
339  3.38  0.  0.  0.
340  3.39  0.  0.  0.
341  3.40  0.  0.  0.
342  3.41  0.  0.  0.
343  3.42  0.  0.  0.
344  3.43  0.  0.  0.
345  3.44  0.  0.  0.
346  3.45  0.  0.  0.
347  3.46  0.  0.  0.
348  3.47  0.  0.  0.
349  3.48  0.  0.  0.
350  3.49  0.  0.  0.
351  3.50  0.  0.  0.
352  3.51  0.  0.  0.
353  3.52  0.  0.  0.
354  3.53  0.  0.  0.
355  3.54  0.  0.  0.
356  3.55  0.  0.  0.
357  3.56  0.  0.  0.
358  3.57  0.  0.  0.
359  3.58  0.  0.  0.
360  3.59  0.  0.  0.
361  3.60  0.  0.  0.
362  3.61  0.  0.  0.
363  3.62  0.  0.  0.
364  3.63  0.  0.  0.
365  3.64  0.  0.  0.
366  3.65  0.  0.  0.
367  3.66  0.  0.  0.
368  3.67  0.  0.  0.
369  3.68  0.  0.  0.
370  3.69  0.  0.  0.
371  3.70  0.  0.  0.
372  3.71  0.  0.  0.
373  3.72  0.  0.  0.
374  3.73  0.  0.  0.
375  3.74  0.  0.  0.
376  3.75  0.  0.  0.
377  3.76  0.  0.  0.
378  3.77  0.  0.  0.
379  3.78  0.  0.  0.
380  3.79  0.  0.  0.
381  3.80  0.  0.  0.
382  3.81  0.  0.  0.
383  3.82  0.  0.  0.
384  3.83  0.  0.  0.
385  3.84  0.  0.  0.
386  3.85  0.  0.  0.
387  3.86  0.  0.  0.
388  3.87  0.  0.  0.
389  3.88  0.  0.  0.
390  3.89  0.  0.  0.
391  3.90  0.  0.  0.
392  3.91  0.  0.  0.
393  3.92  0.  0.  0.
394  3.93  0.  0.  0.
395  3.94  0.  0.  0.
396  3.95  0.  0.  0.
397  3.96  0.  0.  0.
398  3.97  0.  0.  0.
399  3.98  0.  0.  0.
400  3.99  0.  0.  0.
401  4.00  0.  0.  0.
402  4.01  0.  0.  0.
403  4.02  0.  0.  0.
404  4.03  0.  0.  0.
405  4.04  0.  0.  0.
406  4.05  0.  0.  0.
407  4.06  0.  0.  0.
408  4.07  0.  0.  0.
409  4.08  0.  0.  0.
410  4.09  0.  0.  0.
411  4.10  0.  0.  0.
412  4.11  0.  0.  0.
413  4.12  0.  0.  0.
414  4.13  0.  0.  0.
415  4.14  0.  0.  0.
416  4.15  0.  0.  0.
417  4.16  0.  0.  0.
418  4.17  0.  0.  0.
419  4.18  0.  0.  0.
420  4.19  0.  0.  0.
421  4.20  0.  0.  0.
422  4.21  0.  0.  0.
423  4.22  0.  0.  0.
424  4.23  0.  0.  0.
425  4.24  0.  0.  0.
426  4.25  0.  0.  0.
427  4.26  0.  0.  0.
428  4.27  0.  0.  0.
429  4.28  0.  0.  0.
430  4.29  0.  0.  0.
431  4.30  0.  0.  0.
432  4.31  0.  0.  0.
433  4.32  0.  0.  0.
434  4.33  0.  0.  0.
435  4.34  0.  0.  0.
436  4.35  0.  0.  0.
437  4.36  0.  0.  0.
438  4.37  0.  0.  0.
439  4.38  0.  0.  0.
440  4.39  0.  0.  0.
441  4.40  0.  0.  0.
442  4.41  0.  0.  0.
443  4.42  0.  0.  0.
444  4.43  0.  0.  0.
445  4.44  0.  0.  0.
446  4.45  0.  0.  0.
447  4.46  0.  0.  0.
448  4.47  0.  0.  0.
449  4.48  0.  0.  0.
450  4.49  0.  0.  0.
451  4.50  0.  0.  0.
452  4.51  0.  0.  0.
453  4.52  0.  0.  0.
454  4.53  0.  0.  0.
455  4.54  0.  0.  0.
456  4.55  0.  0.  0.
457  4.56  0.  0.  0.
458  4.57  0.  0.  0.
459  4.58  0.  0.  0.
460  4.59  0.  0.  0.
461  4.60  0.  0.  0.
462  4.61  0.  0.  0.
463  4.62  0.  0.  0.
464  4.63  0.  0.  0.
465  4.64  0.  0.  0.
466  4.65  0.  0.  0.
467  4.66  0.  0.  0.
468  4.67  0.  0.  0.
469  4.68  0.  0.  0.
470  4.69  0.  0.  0.
471  4.70  0.  0.  0.
472  4.71  0.  0.  0.
473  4.72  0.  0.  0.
474  4.73  0.  0.  0.
475  4.74  0.  0.  0.
476  4.75  0.  0.  0.
477  4.76  0.  0.  0.
478  4.77  0.  0.  0.
479  4.78  0.  0.  0.
480  4.79  0.  0.  0.
481  4.80  0.  0.  0.
482  4.81  0.  0.  0.
483  4.82  0.  0.  0.
484  4.83  0.  0.  0.
485  4.84  0.  0.  0.
486  4.85  0.  0.  0.
487  4.86  0.  0.  0.
488  4.87  0.  0.  0.
489  4.88  0.  0.  0.
490  4.89  0.  0.  0.
491  4.90  0.  0.  0.
492  4.91  0.  0.  0.
493  4.92  0.  0.  0.
494  4.93  0.  0.  0.
495  4.94  0.  0.  0.
496  4.95  0.  0.  0.
497  4.96  0.  0.  0.
498  4.97  0.  0.  0.
499  4.98  0.  0.  0.
500  4.99  0.  0.  0.
501  5.00  0.  0.  0.
502  5.01  0.  0.  0.
503  5.02  0.  0.  0.
504  5.03  0.  0.  0.
505  5.04  0.  0.  0.
506  5.05  0.  0.  0.
507  5.06  0.  0.  0.
508  5.07  0.  0.  0.
509  5.08  0.  0.  0.
510  5.09  0.  0.  0.
511  5.10  0.  0.  0.
512  5.11  0.  0.  0.
513  5.12  0.  0.  0.
514  5.13  0.  0.  0.
515  5.14  0.  0.  0.
516  5.15  0.  0.  0.
517  5.16  0.  0.  0.
518  5.17  0.  0.  0.
519  5.18  0.  0.  0.
520  5.19  0.  0.  0.
521  5.20  0.  0.  0.
522  5.21  0.  0.  0.
523  5.22  0.  0.  0.
524  5.23  0.  0.  0.
525  5.24  0.  0.  0.
526  5.25  0.  0.  0.
527  5.26  0.  0.  0.
528  5.27  0.  0.  0.
529  5.28  0.  0.  0.
530  5.29  0.  0.  0.
531  5.30  0.  0.  0.
532  5.31  0.  0.  0.
533  5.32  0.  0.  0.
534  5.33  0.  0.  0.
535  5.34  0.  0.  0.
536  5.35  0.  0.  0.
537  5.36  0.  0.  0.
538  5.37  0.  0.  0.
539  5.38  0.  0.  0.
540  5.39  0.  0.  0.
541  5.40  0.  0.  0.
542  5.41  0.  0.  0.
543  5.42  0.  0.  0.
544  5.43  0.  0.  0.
545  5.44  0.  0.  0.
546  5.45  0.  0.  0.
547  5.46  0.  0.  0.
548  5.47  0.  0.  0.
549  5.48  0.  0.  0.
550  5.49  0.  0.  0.
551  5.50  0.  0.  0.
552  5.51  0.  0.  0.
553  5.52  0.  0.  0.
554  5.53  0.  0.  0.
555  5.54  0.  0.  0.
556  5.55  0.  0.  0.
557  5.56  0.  0.  0.
558  5.57  0.  0.  0.
559  5.58  0.  0.  0.
560  5.59  0.  0.  0.
561  5.60  0.  0.  0.
562  5.61  0.  0.  0.
563  5.62  0.  0.  0.
564  5.63  0.  0.  0.
565  5.64  0.  0.  0.
566  5.65  0.  0.  0.
567  5.66  0.  0.  0.
568  5.67  0.  0.  0.
569  5.68  0.  0.  0.
570  5.69  0.  0.  0.
571  5.70  0.  0.  0.
572  5.71  0.  0.  0.
573  5.72  0.  0.  0.
574  5.73  0.  0.  0.
575  5.74  0.  0.  0.
576  5.75  0.  0.  0.
577  5.76  0.  0.  0.
578  5.77  0.  0.  0.
579  5.78  0.  0.  0.
580  5.79  0.  0.  0.
581  5.80  0.  0.  0.
582  5.81  0.  0.  0.
583  5.82  0.  0.  0.
584  5.83  0.  0.  0.
585  5.84  0.  0.  0.
586  5.85  0.  0.  0.
587  5.86  0.  0.  0.
588  5.87  0.  0.  0.
589  5.88  0.  0.  0.
590  5.89  0.  0.  0.
591  5.90  0.  0.  0.
592  5.91  0.  0.  0.
593  5.92  0.  0.  0.
594  5.93  0.  0.  0.
595  5.94  0.  0.  0.
596  5.95  0.  0.  0.
597  5.96  0.  0.  0.
598  5.97  0.  0.  0.
599  5.98  0.  0.  0.
600  5.99  0.  0.  0.
1                         4.5556326382729E+00 -1.5726571667633E+00
1  0.0000000000000E+00 -2.0356508312336E-08 -7.9173457945975E-09
2  1.0000000000000E-02  2.7296087166270E-03  8.9724912650184E-05
3  2.0000000000000E-02  1.0910827180091E-02  3.6660215438241E-04
4  3.0000000000000E-02  2.4520512000301E-02  8.5355053581795E-04
5  4.0000000000000E-02  4.3519036496807E-02  1.5881441413099E-03
6  5.0000000000000E-02  6.7848755655598E-02  2.6216940269947E-03
7  6.0000000000000E-02  9.7431948578828E-02  4.0179972803830E-03
8  7.0000000000000E-02  1.3216832649553E-01  5.8517869398788E-03
9  8.0000000000000E-02  1.7193221475782E-01  8.2069241899608E-03
10  9.0000000000000E-02  2.1656953419215E-01  1.1174380989662E-02
11  1.0000000000000E-01  2.6589472015681E-01  1.4850066667217E-02
12  1.1000000000000E-01  3.1968772624104E-01  1.9332555869735E-02
13  1.2000000000000E-01  3.7769126341781E-01  2.4720777484052E-02
14  1.3000000000000E-01  4.3960842446465E-01  3.1111724681110E-02
15  1.4000000000000E-01  5.0510083756550E-01  3.8598245066045E-02
16  1.5000000000000E-01  5.7378748232144E-01  4.7266967074832E-02
17  1.6000000000000E-01  6.4524428618923E-01  5.7196414327351E-02
18  1.7000000000000E-01  7.1900460002914E-01  6.8455353754825E-02
19  1.8000000000000E-01  7.9456062850048E-01  8.1101416137102E-02
20  1.9000000000000E-01  8.7136586512458E-01  9.5180019420107E-02
21  2.0000000000000E-01  9.4883855366965E-01  1.1072361607638E-01
22  2.1000000000000E-01  1.0263661678968E+00  1.2775127608658E-01
23  2.2000000000000E-01  1.1033108714957E+00  1.4626860714036E-01
24  2.3000000000000E-01  1.1790158901071E+00  1.6626800367291E-01
25  2.4000000000000E-01  1.2528126985656E+00  1.8772920666318E-01
26  2.5000000000000E-01  1.3240288997457E+00  2.1062014700676E-01
27  2.6000000000000E-01  1.3919966474860E+00  2.3489803701308E-01
28  2.7000000000000E-01  1.4560614457239E+00  2.6051066740925E-01
29  2.8000000000000E-01  1.5155911398521E+00  2.8739786137979E-01
30  2.9000000000000E-01  1.5699849049435E+00  3.1549303281200E-01
31  3.0000000000000E-01  1.6186820292834E+00  3.4472479318834E-01
32  3.1000000000000E-01  1.6611702908647E+00  3.7501855055975E-01
33  3.2000000000000E-01  1.6969937292555E+00  4.0629804478842E-01
34  3.3000000000000E-01  1.7257596254923E+00  4.3848676575310E-01
35  3.4000000000000E-01  1.7471445181879E+00  4.7150920540146E-01
36  3.5000000000000E-01  1.7608991045214E+00  5.0529190029907E-01
37  3.6000000000000E-01  1.7668518996884E+00  5.3976422850138E-01
38  3.7000000000000E-01  1.7649115571214E+00  5.7485893295892E-01
39  3.8000000000000E-01  1.7550677835733E+00  6.1051235301352E-01
40  3.9000000000000E-01  1.7373908171737E+00  6.4666435558101E-01
41  4.0000000000000E-01  1.7120294718791E+00  6.8325796804400E-01
42  4.1000000000000E-01  1.6792077873946E+00  7.2023872538459E-01
43  4.2000000000000E-01  1.6392203586522E+00  7.5755375435019E-01
44  4.3000000000000E-01  1.5924264523142E+00  7.9515062714952E-01
45  4.4000000000000E-01  1.5392430485737E+00  8.3297602601396E-01
46  4.5000000000000E-01  1.4801369738764E+00  8.7097426764942E-01
47  4.6000000000000E-01  1.4156163132759E+00  9.0908574288980E-01
48  4.7000000000000E-01  1.3462213092840E+00  9.4724533153020E-01
49  4.8000000000000E-01  1.2725149667234E+00  9.8538085519308E-01
50  4.9000000000000E-01  1.1950735898376E+00  1.0234116320432E+00
51  5.0000000000000E-01  1.1144774785047E+00  1.0612471961491E+00
52  5.1000000000000E-01  1.0313020047874E+00  1.0987862412836E+00
53  5.2000000000000E-01  9.4610927931346E-01  1.1359158440070E+00
54  5.3000000000000E-01  8.5944059942309E-01  1.1725110141006E+00
55  5.4000000000000E-01  7.7180984807245E-01  1.2084346119679E+00
56  5.5000000000000E-01  6.8369798476967E-01  1.2435376627243E+00
57  5.6000000000000E-01  5.9554873808479E-01  1.2776600856015E+00
58  5.7000000000000E-01  5.0776557439747E-01  1.3106318453194E+00
59  5.8000000000000E-01  4.2070998050087E-01  1.3422745195460E+00
60  5.9000000000000E-01  3.3470105951378E-01  1.3724032638402E+00
61  6.0000000000000E-01  2.5001640136016E-01  1.4008291429214E+00
62  6.1000000000000E-01  1.6689415195680E-01  1.4273617851050E+00
63  6.2000000000000E-01  8.5536170294437E-02  1.4518123056473E+00
64  6.3000000000000E-01  6.1121308363092E-03  1.4739964348999E+00
65  6.4000000000000E-01 -7.1235598954683E-02  1.4937377789032E+00
66  6.5000000000000E-01 -1.4638649877193E-01  1.5108711336123E+00
67  6.6000000000000E-01 -2.1923606304320E-01  1.5252457695912E+00
68  6.7000000000000E-01 -2.8968981635362E-01  1.5367286018847E+00
69  6.8000000000000E-01 -3.5765740120661E-01  1.5452071600100E+00
70  6.9000000000000E-01 -4.2304695989049E-01  1.5505922756316E+00
71  7.0000000000000E-01 -4.8576002271452E-01  1.5528204104770E+00
72  7.1000000000000E-01 -5.4568709881162E-01  1.5518555543244E+00
73  7.2000000000000E-01 -6.0270414348498E-01  1.5476906322850E+00
74  7.3000000000000E-01 -6.5667004830349E-01  1.5403483718907E+00
75  7.4000000000000E-01 -7.0742526759130E-01  1.5298815933993E+00
76  7.5000000000000E-01 -7.5479165852995E-01  1.5163729009188E+00
77  7.6000000000000E-01 -7.9857357284506E-01  1.4999337670425E+00
78  7.7000000000000E-01 -8.3856019711946E-01  1.4807030192873E+00
79  7.8000000000000E-01 -8.7452909737031E-01  1.4588447522979E+00
80  7.9000000000000E-01 -9.0625088288397E-01  1.4345457050903E+00
81  8.0000000000000E-01 -9.3349486564490E-01  1.4080121571240E+00
82  8.1000000000000E-01 -9.5603555621411E-01  1.3794664103004E+00
83  8.2000000000000E-01 -9.7365980571201E-01  1.3491429356875E+00
84  8.3000000000000E-01 -9.8617437764080E-01  1.3172842735326E+00
85  8.4000000000000E-01 -9.9341371349446E-01  1.2841367826307E+00
86  8.5000000000000E-01 -9.9524764313638E-01  1.2499463401437E+00
87  8.6000000000000E-01 -9.9158878526940E-01  1.2149540953259E+00
88  8.7000000000000E-01 -9.8239938526659E-01  1.1793923802187E+00
89  8.8000000000000E-01 -9.6769734724061E-01  1.1434808771996E+00
90  8.9000000000000E-01 -9.4756123434731E-01  1.1074231373642E+00
91  9.0000000000000E-01 -9.2213403556791E-01  1.0714035352241E+00
92  9.1000000000000E-01 -8.9162552800136E-01  1.0355847343085E+00
93  9.2000000000000E-01 -8.5631310022988E-01  1.0001057252630E+00
94  9.3000000000000E-01 -8.1654094363394E-01  9.6508048325707E-01
95  9.4000000000000E-01 -7.7271756349846E-01  9.3059727535528E-01
96  9.5000000000000E-01 -7.2531160912892E-01  8.9671863139979E-01
97  9.6000000000000E-01 -6.7484607065372E-01  8.6348197436002E-01
98  9.7000000000000E-01 -6.2189093833899E-01  8.3090088851711E-01
99  9.8000000000000E-01 -5.6705446668677E-01  7.9896698675462E-01
100  9.9000000000000E-01 -5.1097322897234E-01  7.6765232209726E-01
101  1.0000000000000E+00 -4.5430118686867E-01  7.3691227394804E-01
102  1.0100000000000E+00 -3.9769803321547E-01  7.0668882663981E-01
103  1.0200000000000E+00 -3.4181709275617E-01  6.7691414731664E-01
104  1.0300000000000E+00 -2.8729308486258E-01  6.4751436212670E-01
105  1.0400000000000E+00 -2.3473006318379E-01  6.1841342449710E-01
106  1.0500000000000E+00 -1.8468984931040E-01  5.8953696705376E-01
107  1.0600000000000E+00 -1.3768127060502E-01  5.6081602967279E-01
108  1.0700000000000E+00 -9.4150496351928E-02  5.3219056021006E-01
109  1.0800000000000E+00 -5.4472741396381E-02  5.0361259163616E-01
110  1.0900000000000E+00 -1.8945573005311E-02  4.7504900944554E-01
111  1.1000000000000E+00  1.2215984627061E-02  4.4648383611977E-01
112  1.1100000000000E+00  3.8882402226395E-02  4.1791997486151E-01
113  1.1200000000000E+00  6.1010561883267E-02  3.8938037235368E-01
114  1.1300000000000E+00  7.8642605720070E-02  3.6090857970654E-01
115  1.1400000000000E+00  9.1902746921036E-02  3.3256871137053E-01
116  1.1500000000000E+00  1.0099213841170E-01  3.0444482344300E-01
117  1.1600000000000E+00  1.0618195978061E-01  2.7663975465409E-01
118  1.1700000000000E+00  1.0780494811383E-01  2.4927349525037E-01
119  1.1800000000000E+00  1.0624566075876E-01  2.2248117015520E-01