Rg    ONCVPSP-4.0.1  r_core=   1.10118   1.30197   1.20456   1.10118
    111.0000     51.0000      211119    zatom,zion,pspd
     8      11   3     4   600     0    pspcod,pspxc,lmax,lloc,mmax,r2well
  5.99000000  5.00000000  0.00000000    rchrg fchrg qchrg
     3     2     2     2     0    nproj
     1     1           extension_switch
   0                        -1.7044445408050E+01  1.2508117315267E+01 -9.3132025127810E-01
     1  0.0000000000000E+00  2.3932889003930E-10  7.9654274287577E-09 -4.6064028827453E-08
     2  1.0000000000000E-02  8.1001922158731E-02  2.1067759487727E-01 -7.5022237182320E-03
     3  2.0000000000000E-02  1.6182020646290E-01  4.1896761255773E-01 -1.5282456693886E-02
     4  3.0000000000000E-02  2.4227142852354E-01  6.2251084422009E-01 -2.3610597044598E-02
     5  4.0000000000000E-02  3.2217259613119E-01  8.1900454836735E-01 -3.2740602373911E-02
     6  5.0000000000000E-02  4.0134137841408E-01  1.0062300079403E+00 -4.2903210796994E-02
     7  6.0000000000000E-02  4.7959635052896E-01  1.1820792676336E+00 -5.4299455404725E-02
     8  7.0000000000000E-02  5.5675725880388E-01  1.3445807661256E+00 -6.7095178442270E-02
     9  8.0000000000000E-02  6.3264531101246E-01  1.4919235699694E+00 -8.1416705414223E-02
    10  9.0000000000000E-02  7.0708349614009E-01  1.6224799086865E+00 -9.7347786299144E-02
    11  1.0000000000000E-01  7.7989693759152E-01  1.7348257057560E+00 -1.1492785375055E-01
    12  1.1000000000000E-01  8.5091328327739E-01  1.8277587993399E+00 -1.3415158948432E-01
    13  1.2000000000000E-01  9.1996313539441E-01  1.9003145513912E+00 -1.5496973297451E-01
    14  1.3000000000000E-01  9.8688052197501E-01  1.9517785557358E+00 -1.7729101399084E-01
    15  1.4000000000000E-01  1.0515034114240E+00  1.9816961760747E+00 -2.0098504506287E-01
    16  1.5000000000000E-01  1.1136742702848E+00  1.9898786745352E+00 -2.2588597393842E-01
    17  1.6000000000000E-01  1.1732406633928E+00  1.9764057309253E+00 -2.5179667131218E-01
    18  1.7000000000000E-01  1.2300558943946E+00  1.9416242022454E+00 -2.7849321675350E-01
    19  1.8000000000000E-01  1.2839796833543E+00  1.8861430308126E+00 -3.0572944643326E-01
    20  1.9000000000000E-01  1.3348788768597E+00  1.8108242765598E+00 -3.3324133982744E-01
    21  2.0000000000000E-01  1.3826281847158E+00  1.7167703231894E+00 -3.6075104828324E-01
    22  2.1000000000000E-01  1.4271109359966E+00  1.6053073869268E+00 -3.8797040474255E-01
    23  2.2000000000000E-01  1.4682198459708E+00  1.4779655382885E+00 -4.1460379904216E-01
    24  2.3000000000000E-01  1.5058577842475E+00  1.3364555288983E+00 -4.4035035457881E-01
    25  2.4000000000000E-01  1.5399385334661E+00  1.1826427941239E+00 -4.6490539693125E-01
    26  2.5000000000000E-01  1.5703875269955E+00  1.0185190752450E+00 -4.8796126024644E-01
    27  2.6000000000000E-01  1.5971425534796E+00  8.4617216917217E-01 -5.0920752975104E-01
    28  2.7000000000000E-01  1.6201544156680E+00  6.6775436674918E-01 -5.2833086566852E-01
    29  2.8000000000000E-01  1.6393875308654E+00  4.8545018007005E-01 -5.4501459239515E-01
    30  2.9000000000000E-01  1.6548204605067E+00  3.0144398312425E-01 -5.5893826469682E-01
    31  3.0000000000000E-01  1.6664463568581E+00  1.1788819708840E-01 -5.6977743814602E-01
    32  3.1000000000000E-01  1.6742733156316E+00 -6.3127359040055E-02 -5.7720387284990E-01
    33  3.2000000000000E-01  1.6783246244013E+00 -2.3960436011520E-01 -5.8088638725131E-01
    34  3.3000000000000E-01  1.6786388980741E+00 -4.0966256194318E-01 -5.8049255265936E-01
    35  3.4000000000000E-01  1.6752700943031E+00 -5.7156359827363E-01 -5.7569138015885E-01
    36  3.5000000000000E-01  1.6682874035638E+00 -7.2373157745554E-01 -5.6615710131900E-01
    37  3.6000000000000E-01  1.6577750106308E+00 -8.6477015534707E-01 -5.5157408495287E-01
    38  3.7000000000000E-01  1.6438317263187E+00 -9.9347585645565E-01 -5.3164286686388E-01
    39  3.8000000000000E-01  1.6265704905449E+00 -1.1088475159514E+00 -5.0608720123642E-01
    40  3.9000000000000E-01  1.6061177499662E+00 -1.2100918176297E+00 -4.7466197450444E-01
    41  4.0000000000000E-01  1.5826127155830E+00 -1.2966250035134E+00 -4.3716175864995E-01
    42  4.1000000000000E-01  1.5562065077305E+00 -1.3680709260586E+00 -3.9342972434161E-01
    43  4.2000000000000E-01  1.5270611977362E+00 -1.4242557005775E+00 -3.4336658824374E-01
    44  4.3000000000000E-01  1.4953487571662E+00 -1.4651992905765E+00 -2.8693923591343E-01
    45  4.4000000000000E-01  1.4612499269681E+00 -1.4911044197843E+00 -2.2418864409858E-01
    46  4.5000000000000E-01  1.4249530199173E+00 -1.5023432498581E+00 -1.5523672541368E-01
    47  4.6000000000000E-01  1.3866526705569E+00 -1.4994422909101E+00 -8.0291735000037E-02
    48  4.7000000000000E-01  1.3465485472869E+00 -1.4830660226258E+00  3.4808723878156E-04
    49  4.8000000000000E-01  1.3048440413958E+00 -1.4539996970955E+00  8.6292914840574E-02
    50  4.9000000000000E-01  1.2617449476583E+00 -1.4131317715457E+00  1.7706198437007E-01
    51  5.0000000000000E-01  1.2174581506538E+00 -1.3614363815655E+00  2.7208663005494E-01
    52  5.1000000000000E-01  1.1721903302361E+00 -1.2999562154265E+00  3.7071575076582E-01
    53  5.2000000000000E-01  1.1261466986311E+00 -1.2297860904144E+00  4.7222366476348E-01
    54  5.3000000000000E-01  1.0795297805057E+00 -1.1520574658201E+00  5.7582021421982E-01
    55  5.4000000000000E-01  1.0325382460820E+00 -1.0679240576793E+00  6.8066289067052E-01
    56  5.5000000000000E-01  9.8536580602163E-01 -9.7854865088530E-01  7.8587066837517E-01
    57  5.6000000000000E-01  9.3820017541655E-01 -8.8509113821131E-01  8.9053915893014E-01
    58  5.7000000000000E-01  8.9122211284935E-01 -7.8869775611466E-01  9.9375664090117E-01
    59  5.8000000000000E-01  8.4460453917006E-01 -6.9049143661657E-01  1.0946204756476E+00
    60  5.9000000000000E-01  7.9851173941106E-01 -5.9156315522408E-01  1.1922533971400E+00
    61  6.0000000000000E-01  7.5309865016219E-01 -4.9296412833494E-01  1.2858191608317E+00
    62  6.1000000000000E-01  7.0851023377292E-01 -3.9569870072828E-01  1.3745370550586E+00
    63  6.2000000000000E-01  6.6488093995077E-01 -3.0071776475408E-01  1.4576948175737E+00
    64  6.3000000000000E-01  6.2233425468911E-01 -2.0891256713850E-01  1.5346595583308E+00
    65  6.4000000000000E-01  5.8098233597592E-01 -1.2110878566407E-01  1.6048863652436E+00
    66  6.5000000000000E-01  5.4092573539445E-01 -3.8060794478803E-02  1.6679243593244E+00
    67  6.6000000000000E-01  5.0225320450528E-01  3.9553918995111E-02  1.7234200656067E+00
    68  6.7000000000000E-01  4.6504158476870E-01  1.1114017349929E-01  1.7711180723131E+00
    69  6.8000000000000E-01  4.2935577969506E-01  1.7619028686123E-01  1.8108590582569E+00
    70  6.9000000000000E-01  3.9524880786384E-01  2.3428893027308E-01  1.8425753727191E+00
    71  7.0000000000000E-01  3.6276193539514E-01  2.8511748732085E-01  1.8662844483593E+00
    72  7.1000000000000E-01  3.3192488635667E-01  3.2845772450180E-01  1.8820804117413E+00
    73  7.2000000000000E-01  3.0275612941483E-01  3.6419455383061E-01  1.8901243238757E+00
    74  7.3000000000000E-01  2.7526323876737E-01  3.9231765470191E-01  1.8906335316224E+00
    75  7.4000000000000E-01  2.4944332700842E-01  4.1292172303202E-01  1.8838706374597E+00
    76  7.5000000000000E-01  2.2528354706624E-01  4.2620513170263E-01  1.8701325986081E+00
    77  7.6000000000000E-01  2.0276165971982E-01  4.3246681757262E-01  1.8497404464049E+00
    78  7.7000000000000E-01  1.8184666245034E-01  4.3210125609741E-01  1.8230300738525E+00
    79  7.8000000000000E-01  1.6249947453774E-01  4.2559144340407E-01  1.7903444751634E+00
    80  7.9000000000000E-01  1.4467367239608E-01  4.1349987527417E-01  1.7520277386435E+00
    81  8.0000000000000E-01  1.2831626819015E-01  3.9645759000314E-01  1.7084209970437E+00
    82  8.1000000000000E-01  1.1336852382933E-01  3.7515142409554E-01  1.6598604319623E+00
    83  8.2000000000000E-01  9.9766791538614E-02  3.5030971241486E-01  1.6066773159571E+00
    84  8.3000000000000E-01  8.7443371407453E-02  3.2268674369258E-01  1.5491999630198E+00
    85  8.4000000000000E-01  7.6327375661552E-02  2.9304635414658E-01  1.4877573504131E+00
    86  8.5000000000000E-01  6.6345588936041E-02  2.6214510244608E-01  1.4226840778429E+00
    87  8.6000000000000E-01  5.7423313588955E-02  2.3071551482002E-01  1.3543262484697E+00
    88  8.7000000000000E-01  4.9485189115377E-02  1.9944991669155E-01  1.2830477946582E+00
    89  8.8000000000000E-01  4.2455975027669E-02  1.6898537447079E-01  1.2092367331310E+00
    90  8.9000000000000E-01  3.6261287169515E-02  1.3989025650691E-01  1.1333108218554E+00
    91  9.0000000000000E-01  3.0828278331868E-02  1.1265288506277E-01  1.0557221059379E+00
    92  9.1000000000000E-01  2.6086255226394E-02  8.7672691880066E-02  9.7695988222547E-01
    93  9.2000000000000E-01  2.1967225322777E-02  6.5254209804450E-02  8.9755168116247E-01
    94  9.3000000000000E-01  1.8406368734495E-02  4.5604134351145E-02  8.1806195743707E-01
    95  9.4000000000000E-01  1.5342432196337E-02  2.8831575240700E-02  7.3908829466316E-01
    96  9.5000000000000E-01  1.2718044159271E-02  1.4951492840777E-02  6.6125505930386E-01
    97  9.6000000000000E-01  1.0479952070790E-02  3.8911827206576E-03  5.8520458002159E-01
    98  9.7000000000000E-01  8.5791849412422E-03 -4.5004616771204E-03  5.1158607464598E-01
    99  9.8000000000000E-01  6.9711462483643E-03 -1.0441307637435E-02  4.4104269177546E-01
   100  9.9000000000000E-01  5.6156440306953E-03 -1.4202482578889E-02  3.7419717118381E-01
   101  1.0000000000000E+00  4.4768666001219E-03 -1.6093639643906E-02  3.1163675060282E-01
   102  1.0100000000000E+00  3.5233136010817E-03 -1.6447701570302E-02  2.5389805020705E-01
   103  1.0200000000000E+00  2.7276931082031E-03 -1.5605858524053E-02  2.0145274525173E-01
   104  1.0300000000000E+00  2.0667975087077E-03 -1.3903646322716E-02  1.5469489577164E-01
   105  1.0400000000000E+00  1.5213589649347E-03 -1.1658784273244E-02  1.1393072122942E-01
   106  1.0500000000000E+00  1.0746649019172E-03 -9.1504897083193E-03  7.9365144348656E-02
   107  1.0600000000000E+00  7.0566395851021E-04 -6.5399710837732E-03  5.1053509384770E-02
   108  1.0700000000000E+00  4.1131366537467E-04 -4.0807944203076E-03  2.9030085519254E-02
   109  1.0800000000000E+00  1.9344813936362E-04 -2.0277300785313E-03  1.3265394154357E-02
   110  1.0900000000000E+00  5.4896943792058E-05 -6.0163134966751E-04  3.6436474098218E-03
   111  1.1000000000000E+00  1.3495029398868E-06 -1.5317785097199E-05  8.5669921302093E-05
   112  1.1100000000000E+00  2.7021982682617E-07 -3.0757752747293E-06  1.7411046557621E-05
   113  1.1200000000000E+00 -2.3905170129094E-08  2.6767493130725E-07 -1.5650084691394E-06
   114  1.13  0.  0.  0.
   115  1.14  0.  0.  0.
   116  1.15  0.  0.  0.
   117  1.16  0.  0.  0.
   118  1.17  0.  0.  0.
   119  1.18  0.  0.  0.
   120  1.19  0.  0.  0.
   121  1.20  0.  0.  0.
   122  1.21  0.  0.  0.
   123  1.22  0.  0.  0.
   124  1.23  0.  0.  0.
   125  1.24  0.  0.  0.
   126  1.25  0.  0.  0.
   127  1.26  0.  0.  0.
   128  1.27  0.  0.  0.
   129  1.28  0.  0.  0.
   130  1.29  0.  0.  0.
   131  1.30  0.  0.  0.
   132  1.31  0.  0.  0.
   133  1.32  0.  0.  0.
   134  1.33  0.  0.  0.
   135  1.34  0.  0.  0.
   136  1.35  0.  0.  0.
   137  1.36  0.  0.  0.
   138  1.37  0.  0.  0.
   139  1.38  0.  0.  0.
   140  1.39  0.  0.  0.
   141  1.40  0.  0.  0.
   142  1.41  0.  0.  0.
   143  1.42  0.  0.  0.
   144  1.43  0.  0.  0.
   145  1.44  0.  0.  0.
   146  1.45  0.  0.  0.
   147  1.46  0.  0.  0.
   148  1.47  0.  0.  0.
   149  1.48  0.  0.  0.
   150  1.49  0.  0.  0.
   151  1.50  0.  0.  0.
   152  1.51  0.  0.  0.
   153  1.52  0.  0.  0.
   154  1.53  0.  0.  0.
   155  1.54  0.  0.  0.
   156  1.55  0.  0.  0.
   157  1.56  0.  0.  0.
   158  1.57  0.  0.  0.
   159  1.58  0.  0.  0.
   160  1.59  0.  0.  0.
   161  1.60  0.  0.  0.
   162  1.61  0.  0.  0.
   163  1.62  0.  0.  0.
   164  1.63  0.  0.  0.
   165  1.64  0.  0.  0.
   166  1.65  0.  0.  0.
   167  1.66  0.  0.  0.
   168  1.67  0.  0.  0.
   169  1.68  0.  0.  0.
   170  1.69  0.  0.  0.
   171  1.70  0.  0.  0.
   172  1.71  0.  0.  0.
   173  1.72  0.  0.  0.
   174  1.73  0.  0.  0.
   175  1.74  0.  0.  0.
   176  1.75  0.  0.  0.
   177  1.76  0.  0.  0.
   178  1.77  0.  0.  0.
   179  1.78  0.  0.  0.
   180  1.79  0.  0.  0.
   181  1.80  0.  0.  0.
   182  1.81  0.  0.  0.
   183  1.82  0.  0.  0.
   184  1.83  0.  0.  0.
   185  1.84  0.  0.  0.
   186  1.85  0.  0.  0.
   187  1.86  0.  0.  0.
   188  1.87  0.  0.  0.
   189  1.88  0.  0.  0.
   190  1.89  0.  0.  0.
   191  1.90  0.  0.  0.
   192  1.91  0.  0.  0.
   193  1.92  0.  0.  0.
   194  1.93  0.  0.  0.
   195  1.94  0.  0.  0.
   196  1.95  0.  0.  0.
   197  1.96  0.  0.  0.
   198  1.97  0.  0.  0.
   199  1.98  0.  0.  0.
   200  1.99  0.  0.  0.
   201  2.00  0.  0.  0.
   202  2.01  0.  0.  0.
   203  2.02  0.  0.  0.
   204  2.03  0.  0.  0.
   205  2.04  0.  0.  0.
   206  2.05  0.  0.  0.
   207  2.06  0.  0.  0.
   208  2.07  0.  0.  0.
   209  2.08  0.  0.  0.
   210  2.09  0.  0.  0.
   211  2.10  0.  0.  0.
   212  2.11  0.  0.  0.
   213  2.12  0.  0.  0.
   214  2.13  0.  0.  0.
   215  2.14  0.  0.  0.
   216  2.15  0.  0.  0.
   217  2.16  0.  0.  0.
   218  2.17  0.  0.  0.
   219  2.18  0.  0.  0.
   220  2.19  0.  0.  0.
   221  2.20  0.  0.  0.
   222  2.21  0.  0.  0.
   223  2.22  0.  0.  0.
   224  2.23  0.  0.  0.
   225  2.24  0.  0.  0.
   226  2.25  0.  0.  0.
   227  2.26  0.  0.  0.
   228  2.27  0.  0.  0.
   229  2.28  0.  0.  0.
   230  2.29  0.  0.  0.
   231  2.30  0.  0.  0.
   232  2.31  0.  0.  0.
   233  2.32  0.  0.  0.
   234  2.33  0.  0.  0.
   235  2.34  0.  0.  0.
   236  2.35  0.  0.  0.
   237  2.36  0.  0.  0.
   238  2.37  0.  0.  0.
   239  2.38  0.  0.  0.
   240  2.39  0.  0.  0.
   241  2.40  0.  0.  0.
   242  2.41  0.  0.  0.
   243  2.42  0.  0.  0.
   244  2.43  0.  0.  0.
   245  2.44  0.  0.  0.
   246  2.45  0.  0.  0.
   247  2.46  0.  0.  0.
   248  2.47  0.  0.  0.
   249  2.48  0.  0.  0.
   250  2.49  0.  0.  0.
   251  2.50  0.  0.  0.
   252  2.51  0.  0.  0.
   253  2.52  0.  0.  0.
   254  2.53  0.  0.  0.
   255  2.54  0.  0.  0.
   256  2.55  0.  0.  0.
   257  2.56  0.  0.  0.
   258  2.57  0.  0.  0.
   259  2.58  0.  0.  0.
   260  2.59  0.  0.  0.
   261  2.60  0.  0.  0.
   262  2.61  0.  0.  0.
   263  2.62  0.  0.  0.
   264  2.63  0.  0.  0.
   265  2.64  0.  0.  0.
   266  2.65  0.  0.  0.
   267  2.66  0.  0.  0.
   268  2.67  0.  0.  0.
   269  2.68  0.  0.  0.
   270  2.69  0.  0.  0.
   271  2.70  0.  0.  0.
   272  2.71  0.  0.  0.
   273  2.72  0.  0.  0.
   274  2.73  0.  0.  0.
   275  2.74  0.  0.  0.
   276  2.75  0.  0.  0.
   277  2.76  0.  0.  0.
   278  2.77  0.  0.  0.
   279  2.78  0.  0.  0.
   280  2.79  0.  0.  0.
   281  2.80  0.  0.  0.
   282  2.81  0.  0.  0.
   283  2.82  0.  0.  0.
   284  2.83  0.  0.  0.
   285  2.84  0.  0.  0.
   286  2.85  0.  0.  0.
   287  2.86  0.  0.  0.
   288  2.87  0.  0.  0.
   289  2.88  0.  0.  0.
   290  2.89  0.  0.  0.
   291  2.90  0.  0.  0.
   292  2.91  0.  0.  0.
   293  2.92  0.  0.  0.
   294  2.93  0.  0.  0.
   295  2.94  0.  0.  0.
   296  2.95  0.  0.  0.
   297  2.96  0.  0.  0.
   298  2.97  0.  0.  0.
   299  2.98  0.  0.  0.
   300  2.99  0.  0.  0.
   301  3.00  0.  0.  0.
   302  3.01  0.  0.  0.
   303  3.02  0.  0.  0.
   304  3.03  0.  0.  0.
   305  3.04  0.  0.  0.
   306  3.05  0.  0.  0.
   307  3.06  0.  0.  0.
   308  3.07  0.  0.  0.
   309  3.08  0.  0.  0.
   310  3.09  0.  0.  0.
   311  3.10  0.  0.  0.
   312  3.11  0.  0.  0.
   313  3.12  0.  0.  0.
   314  3.13  0.  0.  0.
   315  3.14  0.  0.  0.
   316  3.15  0.  0.  0.
   317  3.16  0.  0.  0.
   318  3.17  0.  0.  0.
   319  3.18  0.  0.  0.
   320  3.19  0.  0.  0.
   321  3.20  0.  0.  0.
   322  3.21  0.  0.  0.
   323  3.22  0.  0.  0.
   324  3.23  0.  0.  0.
   325  3.24  0.  0.  0.
   326  3.25  0.  0.  0.
   327  3.26  0.  0.  0.
   328  3.27  0.  0.  0.
   329  3.28  0.  0.  0.
   330  3.29  0.  0.  0.
   331  3.30  0.  0.  0.
   332  3.31  0.  0.  0.
   333  3.32  0.  0.  0.
   334  3.33  0.  0.  0.
   335  3.34  0.  0.  0.
   336  3.35  0.  0.  0.
   337  3.36  0.  0.  0.
   338  3.37  0.  0.  0.
   339  3.38  0.  0.  0.
   340  3.39  0.  0.  0.
   341  3.40  0.  0.  0.
   342  3.41  0.  0.  0.
   343  3.42  0.  0.  0.
   344  3.43  0.  0.  0.
   345  3.44  0.  0.  0.
   346  3.45  0.  0.  0.
   347  3.46  0.  0.  0.
   348  3.47  0.  0.  0.
   349  3.48  0.  0.  0.
   350  3.49  0.  0.  0.
   351  3.50  0.  0.  0.
   352  3.51  0.  0.  0.
   353  3.52  0.  0.  0.
   354  3.53  0.  0.  0.
   355  3.54  0.  0.  0.
   356  3.55  0.  0.  0.
   357  3.56  0.  0.  0.
   358  3.57  0.  0.  0.
   359  3.58  0.  0.  0.
   360  3.59  0.  0.  0.
   361  3.60  0.  0.  0.
   362  3.61  0.  0.  0.
   363  3.62  0.  0.  0.
   364  3.63  0.  0.  0.
   365  3.64  0.  0.  0.
   366  3.65  0.  0.  0.
   367  3.66  0.  0.  0.
   368  3.67  0.  0.  0.
   369  3.68  0.  0.  0.
   370  3.69  0.  0.  0.
   371  3.70  0.  0.  0.
   372  3.71  0.  0.  0.
   373  3.72  0.  0.  0.
   374  3.73  0.  0.  0.
   375  3.74  0.  0.  0.
   376  3.75  0.  0.  0.
   377  3.76  0.  0.  0.
   378  3.77  0.  0.  0.
   379  3.78  0.  0.  0.
   380  3.79  0.  0.  0.
   381  3.80  0.  0.  0.
   382  3.81  0.  0.  0.
   383  3.82  0.  0.  0.
   384  3.83  0.  0.  0.
   385  3.84  0.  0.  0.
   386  3.85  0.  0.  0.
   387  3.86  0.  0.  0.
   388  3.87  0.  0.  0.
   389  3.88  0.  0.  0.
   390  3.89  0.  0.  0.
   391  3.90  0.  0.  0.
   392  3.91  0.  0.  0.
   393  3.92  0.  0.  0.
   394  3.93  0.  0.  0.
   395  3.94  0.  0.  0.
   396  3.95  0.  0.  0.
   397  3.96  0.  0.  0.
   398  3.97  0.  0.  0.
   399  3.98  0.  0.  0.
   400  3.99  0.  0.  0.
   401  4.00  0.  0.  0.
   402  4.01  0.  0.  0.
   403  4.02  0.  0.  0.
   404  4.03  0.  0.  0.
   405  4.04  0.  0.  0.
   406  4.05  0.  0.  0.
   407  4.06  0.  0.  0.
   408  4.07  0.  0.  0.
   409  4.08  0.  0.  0.
   410  4.09  0.  0.  0.
   411  4.10  0.  0.  0.
   412  4.11  0.  0.  0.
   413  4.12  0.  0.  0.
   414  4.13  0.  0.  0.
   415  4.14  0.  0.  0.
   416  4.15  0.  0.  0.
   417  4.16  0.  0.  0.
   418  4.17  0.  0.  0.
   419  4.18  0.  0.  0.
   420  4.19  0.  0.  0.
   421  4.20  0.  0.  0.
   422  4.21  0.  0.  0.
   423  4.22  0.  0.  0.
   424  4.23  0.  0.  0.
   425  4.24  0.  0.  0.
   426  4.25  0.  0.  0.
   427  4.26  0.  0.  0.
   428  4.27  0.  0.  0.
   429  4.28  0.  0.  0.
   430  4.29  0.  0.  0.
   431  4.30  0.  0.  0.
   432  4.31  0.  0.  0.
   433  4.32  0.  0.  0.
   434  4.33  0.  0.  0.
   435  4.34  0.  0.  0.
   436  4.35  0.  0.  0.
   437  4.36  0.  0.  0.
   438  4.37  0.  0.  0.
   439  4.38  0.  0.  0.
   440  4.39  0.  0.  0.
   441  4.40  0.  0.  0.
   442  4.41  0.  0.  0.
   443  4.42  0.  0.  0.
   444  4.43  0.  0.  0.
   445  4.44  0.  0.  0.
   446  4.45  0.  0.  0.
   447  4.46  0.  0.  0.
   448  4.47  0.  0.  0.
   449  4.48  0.  0.  0.
   450  4.49  0.  0.  0.
   451  4.50  0.  0.  0.
   452  4.51  0.  0.  0.
   453  4.52  0.  0.  0.
   454  4.53  0.  0.  0.
   455  4.54  0.  0.  0.
   456  4.55  0.  0.  0.
   457  4.56  0.  0.  0.
   458  4.57  0.  0.  0.
   459  4.58  0.  0.  0.
   460  4.59  0.  0.  0.
   461  4.60  0.  0.  0.
   462  4.61  0.  0.  0.
   463  4.62  0.  0.  0.
   464  4.63  0.  0.  0.
   465  4.64  0.  0.  0.
   466  4.65  0.  0.  0.
   467  4.66  0.  0.  0.
   468  4.67  0.  0.  0.
   469  4.68  0.  0.  0.
   470  4.69  0.  0.  0.
   471  4.70  0.  0.  0.
   472  4.71  0.  0.  0.
   473  4.72  0.  0.  0.
   474  4.73  0.  0.  0.
   475  4.74  0.  0.  0.
   476  4.75  0.  0.  0.
   477  4.76  0.  0.  0.
   478  4.77  0.  0.  0.
   479  4.78  0.  0.  0.
   480  4.79  0.  0.  0.
   481  4.80  0.  0.  0.
   482  4.81  0.  0.  0.
   483  4.82  0.  0.  0.
   484  4.83  0.  0.  0.
   485  4.84  0.  0.  0.
   486  4.85  0.  0.  0.
   487  4.86  0.  0.  0.
   488  4.87  0.  0.  0.
   489  4.88  0.  0.  0.
   490  4.89  0.  0.  0.
   491  4.90  0.  0.  0.
   492  4.91  0.  0.  0.
   493  4.92  0.  0.  0.
   494  4.93  0.  0.  0.
   495  4.94  0.  0.  0.
   496  4.95  0.  0.  0.
   497  4.96  0.  0.  0.
   498  4.97  0.  0.  0.
   499  4.98  0.  0.  0.
   500  4.99  0.  0.  0.
   501  5.00  0.  0.  0.
   502  5.01  0.  0.  0.
   503  5.02  0.  0.  0.
   504  5.03  0.  0.  0.
   505  5.04  0.  0.  0.
   506  5.05  0.  0.  0.
   507  5.06  0.  0.  0.
   508  5.07  0.  0.  0.
   509  5.08  0.  0.  0.
   510  5.09  0.  0.  0.
   511  5.10  0.  0.  0.
   512  5.11  0.  0.  0.
   513  5.12  0.  0.  0.
   514  5.13  0.  0.  0.
   515  5.14  0.  0.  0.
   516  5.15  0.  0.  0.
   517  5.16  0.  0.  0.
   518  5.17  0.  0.  0.
   519  5.18  0.  0.  0.
   520  5.19  0.  0.  0.
   521  5.20  0.  0.  0.
   522  5.21  0.  0.  0.
   523  5.22  0.  0.  0.
   524  5.23  0.  0.  0.
   525  5.24  0.  0.  0.
   526  5.25  0.  0.  0.
   527  5.26  0.  0.  0.
   528  5.27  0.  0.  0.
   529  5.28  0.  0.  0.
   530  5.29  0.  0.  0.
   531  5.30  0.  0.  0.
   532  5.31  0.  0.  0.
   533  5.32  0.  0.  0.
   534  5.33  0.  0.  0.
   535  5.34  0.  0.  0.
   536  5.35  0.  0.  0.
   537  5.36  0.  0.  0.
   538  5.37  0.  0.  0.
   539  5.38  0.  0.  0.
   540  5.39  0.  0.  0.
   541  5.40  0.  0.  0.
   542  5.41  0.  0.  0.
   543  5.42  0.  0.  0.
   544  5.43  0.  0.  0.
   545  5.44  0.  0.  0.
   546  5.45  0.  0.  0.
   547  5.46  0.  0.  0.
   548  5.47  0.  0.  0.
   549  5.48  0.  0.  0.
   550  5.49  0.  0.  0.
   551  5.50  0.  0.  0.
   552  5.51  0.  0.  0.
   553  5.52  0.  0.  0.
   554  5.53  0.  0.  0.
   555  5.54  0.  0.  0.
   556  5.55  0.  0.  0.
   557  5.56  0.  0.  0.
   558  5.57  0.  0.  0.
   559  5.58  0.  0.  0.
   560  5.59  0.  0.  0.
   561  5.60  0.  0.  0.
   562  5.61  0.  0.  0.
   563  5.62  0.  0.  0.
   564  5.63  0.  0.  0.
   565  5.64  0.  0.  0.
   566  5.65  0.  0.  0.
   567  5.66  0.  0.  0.
   568  5.67  0.  0.  0.
   569  5.68  0.  0.  0.
   570  5.69  0.  0.  0.
   571  5.70  0.  0.  0.
   572  5.71  0.  0.  0.
   573  5.72  0.  0.  0.
   574  5.73  0.  0.  0.
   575  5.74  0.  0.  0.
   576  5.75  0.  0.  0.
   577  5.76  0.  0.  0.
   578  5.77  0.  0.  0.
   579  5.78  0.  0.  0.
   580  5.79  0.  0.  0.
   581  5.80  0.  0.  0.
   582  5.81  0.  0.  0.
   583  5.82  0.  0.  0.
   584  5.83  0.  0.  0.
   585  5.84  0.  0.  0.
   586  5.85  0.  0.  0.
   587  5.86  0.  0.  0.
   588  5.87  0.  0.  0.
   589  5.88  0.  0.  0.
   590  5.89  0.  0.  0.
   591  5.90  0.  0.  0.
   592  5.91  0.  0.  0.
   593  5.92  0.  0.  0.
   594  5.93  0.  0.  0.
   595  5.94  0.  0.  0.
   596  5.95  0.  0.  0.
   597  5.96  0.  0.  0.
   598  5.97  0.  0.  0.
   599  5.98  0.  0.  0.
   600  5.99  0.  0.  0.
   1                        -1.3928760491338E+01 -1.9429405198658E+00
     1  0.0000000000000E+00  4.8920899831106E-09 -2.1580696840662E-08
     2  1.0000000000000E-02  3.1912747249778E-03 -4.6268752353973E-03
     3  2.0000000000000E-02  1.2740068255282E-02 -1.8443186811145E-02
     4  3.0000000000000E-02  2.8571526076277E-02 -4.1256847834983E-02
     5  4.0000000000000E-02  5.0561679320965E-02 -7.2750552830832E-02
     6  5.0000000000000E-02  7.8538618203383E-02 -1.1248599383394E-01
     7  6.0000000000000E-02  1.1228411585424E-01 -1.5990967778093E-01
     8  7.0000000000000E-02  1.5153568389917E-01 -2.1436026167151E-01
     9  8.0000000000000E-02  1.9598903622777E-01 -2.7507730039792E-01
    10  9.0000000000000E-02  2.4530093282971E-01 -3.4121128221426E-01
    11  1.0000000000000E-01  2.9909237138259E-01 -4.1183480886056E-01
    12  1.1000000000000E-01  3.5695209052023E-01 -4.8595476163981E-01
    13  1.2000000000000E-01  4.1844034543738E-01 -5.6252528150725E-01
    14  1.3000000000000E-01  4.8309291373809E-01 -6.4046138066257E-01
    15  1.4000000000000E-01  5.5042528724244E-01 -7.1865299538762E-01
    16  1.5000000000000E-01  6.1993700385398E-01 -7.9597928504258E-01
    17  1.6000000000000E-01  6.9111607257338E-01 -8.7132298027599E-01
    18  1.7000000000000E-01  7.6344344432867E-01 -9.4358458461885E-01
    19  1.8000000000000E-01  8.3639748147554E-01 -1.0116962376721E+00
    20  1.9000000000000E-01  9.0945837959250E-01 -1.0746350549662E+00
    21  2.0000000000000E-01  9.8211249653409E-01 -1.1314357691289E+00
    22  2.1000000000000E-01  1.0538565455827E+00 -1.1812025090563E+00
    23  2.2000000000000E-01  1.1242016119223E+00 -1.2231195681270E+00
    24  2.3000000000000E-01  1.1926769545007E+00 -1.2564610288621E+00
    25  2.4000000000000E-01  1.2588335586045E+00 -1.2805991295334E+00
    26  2.5000000000000E-01  1.3222474080903E+00 -1.2950112777493E+00
    27  2.6000000000000E-01  1.3825224501359E+00 -1.2992856366643E+00
    28  2.7000000000000E-01  1.4392932295398E+00 -1.2931252308268E+00
    29  2.8000000000000E-01  1.4922271739428E+00 -1.2763505404552E+00
    30  2.9000000000000E-01  1.5410265158039E+00 -1.2489005747533E+00
    31  3.0000000000000E-01  1.5854298414772E+00 -1.2108324364175E+00
    32  3.1000000000000E-01  1.6252132622400E+00 -1.1623194103990E+00
    33  3.2000000000000E-01  1.6601912065520E+00 -1.1036476299717E+00
    34  3.3000000000000E-01  1.6902168371303E+00 -1.0352113919081E+00
    35  3.4000000000000E-01  1.7151821005425E+00 -9.5750720983717E-01
    36  3.5000000000000E-01  1.7350174209081E+00 -8.7112671039892E-01
    37  3.6000000000000E-01  1.7496910529033E+00 -7.7674849043587E-01
    38  3.7000000000000E-01  1.7592081125594E+00 -6.7512906499807E-01
    39  3.8000000000000E-01  1.7636093072815E+00 -5.6709304527078E-01
    40  3.9000000000000E-01  1.7629693890810E+00 -4.5352269257404E-01
    41  4.0000000000000E-01  1.7573953571810E+00 -3.3534699928924E-01
    42  4.1000000000000E-01  1.7470244379128E+00 -2.1353044993701E-01
    43  4.2000000000000E-01  1.7320218711579E+00 -8.9061615695988E-02
    44  4.3000000000000E-01  1.7125785335186E+00  3.7058266511991E-02
    45  4.4000000000000E-01  1.6889084289066E+00  1.6382658353415E-01
    46  4.5000000000000E-01  1.6612460773564E+00  2.9025036353544E-01
    47  4.6000000000000E-01  1.6298438325961E+00  4.1535688911881E-01
    48  4.7000000000000E-01  1.5949691582828E+00  5.3820378327976E-01
    49  4.8000000000000E-01  1.5569018918432E+00  6.5788845660636E-01
    50  4.9000000000000E-01  1.5159315235920E+00  7.7355681648189E-01
    51  5.0000000000000E-01  1.4723545172662E+00  8.8441115235332E-01
    52  5.1000000000000E-01  1.4264716963337E+00  9.8971712515454E-01
    53  5.2000000000000E-01  1.3785857184658E+00  1.0888098034738E+00
    54  5.3000000000000E-01  1.3289986584273E+00  1.1810987037895E+00
    55  5.4000000000000E-01  1.2780097173789E+00  1.2660718068337E+00
    56  5.5000000000000E-01  1.2259130742451E+00  1.3432985366532E+00
    57  5.6000000000000E-01  1.1729958924061E+00  1.4124317030185E+00
    58  5.7000000000000E-01  1.1195364925659E+00  1.4732084212804E+00
    59  5.8000000000000E-01  1.0658027002564E+00  1.5254500364356E+00
    60  5.9000000000000E-01  1.0120503741014E+00  1.5690610898660E+00
    61  6.0000000000000E-01  9.5852211869407E-01  1.6040273778527E+00
    62  6.1000000000000E-01  9.0544618378068E-01  1.6304131604235E+00
    63  6.2000000000000E-01  8.5303554940064E-01  1.6483575872942E+00
    64  6.3000000000000E-01  8.0148719472764E-01  1.6580704145608E+00
    65  6.4000000000000E-01  7.5098154660966E-01  1.6598270913644E+00
    66  6.5000000000000E-01  7.0168210221936E-01  1.6539632999752E+00
    67  6.6000000000000E-01  6.5373521881408E-01  1.6408690356478E+00
    68  6.7000000000000E-01  6.0727006236839E-01  1.6209823142280E+00
    69  6.8000000000000E-01  5.6239870578333E-01  1.5947825958939E+00
    70  6.9000000000000E-01  5.1921636649415E-01  1.5627840126706E+00
    71  7.0000000000000E-01  4.7780177258830E-01  1.5255284855522E+00
    72  7.1000000000000E-01  4.3821764600123E-01  1.4835788142971E+00
    73  7.2000000000000E-01  4.0051129097228E-01  1.4375118193439E+00
    74  7.3000000000000E-01  3.6471527570511E-01  1.3879116109296E+00
    75  7.4000000000000E-01  3.3084819507869E-01  1.3353630555109E+00
    76  7.5000000000000E-01  2.9891550228139E-01  1.2804455040933E+00
    77  7.6000000000000E-01  2.6891039738280E-01  1.2237268411956E+00
    78  7.7000000000000E-01  2.4081476110062E-01  1.1657579070122E+00
    79  7.8000000000000E-01  2.1460012235343E-01  1.1070673390137E+00
    80  7.9000000000000E-01  1.9022864859985E-01  1.0481568728170E+00
    81  8.0000000000000E-01  1.6765414844107E-01  9.8949713578304E-01
    82  8.1000000000000E-01  1.4682307649436E-01  9.3152396051684E-01
    83  8.2000000000000E-01  1.2767553112070E-01  8.7463523934134E-01
    84  8.3000000000000E-01  1.1014623619997E-01  8.1918833494339E-01
    85  8.4000000000000E-01  9.4165498785107E-02  7.6549805680073E-01
    86  8.5000000000000E-01  7.9660135122783E-02  7.1383520773003E-01
    87  8.6000000000000E-01  6.6554358198181E-02  6.6442569997632E-01
    88  8.7000000000000E-01  5.4770620638320E-02  6.1745023571038E-01
    89  8.8000000000000E-01  4.4230407487913E-02  5.7304454262369E-01
    90  8.9000000000000E-01  3.4854974050187E-02  5.3130015150678E-01
    91  9.0000000000000E-01  2.6566024659031E-02  4.9226569926467E-01
    92  9.1000000000000E-01  1.9286328915904E-02  4.5594873774437E-01
    93  9.2000000000000E-01  1.2940272582735E-02  4.2231802601049E-01
    94  9.3000000000000E-01  7.4543409693427E-03  3.9130628128254E-01
    95  9.4000000000000E-01  2.7575332885866E-03  3.6281336161755E-01
    96  9.5000000000000E-01 -1.2182929261408E-03  3.3670985156125E-01
    97  9.6000000000000E-01 -4.5381476402615E-03  3.1284102037305E-01
    98  9.7000000000000E-01 -7.2637040830751E-03  2.9103112103084E-01
    99  9.8000000000000E-01 -9.4531635951135E-03  2.7108799702096E-01
   100  9.9000000000000E-01 -1.1161188141243E-02  2.5280796289241E-01