Rg    ONCVPSP-4.0.1  r_core=   1.10118   1.10118   1.10118   1.10118
111.0000     51.0000      220206    zatom,zion,pspd
8      11   3     4   600     0    pspcod,pspxc,lmax,lloc,mmax,r2well
5.99000000  5.00000000  0.00000000    rchrg fchrg qchrg
3     2     2     2     0    nproj
1     1           extension_switch
0                        -1.7128190909976E+01  7.8677708582235E+00 -7.1998583253160E-01
1  0.0000000000000E+00 -2.3691053563368E-09  1.0043302545171E-07 -6.3674573169692E-08
2  1.0000000000000E-02  8.6345488292611E-02  1.7266599564982E-01 -1.0146473909843E-02
3  2.0000000000000E-02  1.7244145697457E-01  3.4373406520081E-01 -2.0469658912712E-02
4  3.0000000000000E-02  2.5803962574205E-01  5.1161516654068E-01 -3.1139861550232E-02
5  4.0000000000000E-02  3.4289417553247E-01  6.7473838753101E-01 -4.2314890023815E-02
6  5.0000000000000E-02  4.2676293638616E-01  8.3156088694059E-01 -5.4134563411849E-02
7  6.0000000000000E-02  5.0940852584585E-01  9.8057880678751E-01 -6.6716080173426E-02
8  7.0000000000000E-02  5.9059942439077E-01  1.1203393518179E+00 -8.0150450903874E-02
9  8.0000000000000E-02  6.7011097677121E-01  1.2494541314162E+00 -9.4500136632819E-02
10  9.0000000000000E-02  7.4772631084603E-01  1.3666137448086E+00 -1.0979796164982E-01
11  1.0000000000000E-01  8.2323716849596E-01  1.4706034685352E+00 -1.2604729316341E-01
12  1.1000000000000E-01  8.9644464624628E-01  1.5603197828800E+00 -1.4322340359863E-01
13  1.2000000000000E-01  9.6715984623381E-01  1.6347873584527E+00 -1.6127585960350E-01
14  1.3000000000000E-01  1.0352044409511E+00  1.6931760223602E+00 -1.8013171923787E-01
15  1.4000000000000E-01  1.1004111576611E+00  1.7348171417385E+00 -1.9969926925831E-01
16  1.5000000000000E-01  1.1626241903798E+00  1.7592188062191E+00 -2.1987200109831E-01
17  1.6000000000000E-01  1.2216995487822E+00  1.7660791643462E+00 -2.4053250939769E-01
18  1.7000000000000E-01  1.2775053542264E+00  1.7552972747027E+00 -2.6155600205274E-01
19  1.8000000000000E-01  1.3299220932851E+00  1.7269808716113E+00 -2.8281313591780E-01
20  1.9000000000000E-01  1.3788428387156E+00  1.6814505170614E+00 -3.0417193651829E-01
21  2.0000000000000E-01  1.4241734467207E+00  1.6192397126277E+00 -3.2549862134255E-01
22  2.1000000000000E-01  1.4658327377224E+00  1.5410906735952E+00 -3.4665722135685E-01
23  2.2000000000000E-01  1.5037526657753E+00  1.4479456168936E+00 -3.6750798033644E-01
24  2.3000000000000E-01  1.5378784793034E+00  1.3409335781604E+00 -3.8790460176434E-01
25  2.4000000000000E-01  1.5681688731941E+00  1.2213529438536E+00 -4.0769050330572E-01
26  2.5000000000000E-01  1.5945961295640E+00  1.0906500538246E+00 -4.2669432394579E-01
27  2.6000000000000E-01  1.6171462418877E+00  9.5039439005944E-01 -4.4472500361117E-01
28  2.7000000000000E-01  1.6358190147837E+00  8.0225101055977E-01 -4.6156681470420E-01
29  2.8000000000000E-01  1.6506281297434E+00  6.4795100642239E-01 -4.7697476535168E-01
30  2.9000000000000E-01  1.6616011655666E+00  4.8926084894270E-01 -4.9067081208457E-01
31  3.0000000000000E-01  1.6687795613491E+00  3.2795154722988E-01 -5.0234131300526E-01
32  3.1000000000000E-01  1.6722185096079E+00  1.6576855218609E-01 -5.1163612038751E-01
33  3.2000000000000E-01  1.6719867675804E+00  4.4033183469676E-03 -5.1816965454007E-01
34  3.3000000000000E-01  1.6681663758798E+00 -1.5453262854351E-01 -5.2152422044549E-01
35  3.4000000000000E-01  1.6608522755162E+00 -3.0953037092044E-01 -5.2125572825841E-01
36  3.5000000000000E-01  1.6501518167244E+00 -4.5920241185382E-01 -5.1690186247968E-01
37  3.6000000000000E-01  1.6361841559752E+00 -6.0229716719970E-01 -5.0799261779374E-01
38  3.7000000000000E-01  1.6190795408782E+00 -7.3770886462655E-01 -4.9406298819934E-01
39  3.8000000000000E-01  1.5989784862452E+00 -8.6448276915283E-01 -4.7466746670074E-01
40  3.9000000000000E-01  1.5760308482318E+00 -9.8181585040502E-01 -4.4939589215233E-01
41  4.0000000000000E-01  1.5503948070332E+00 -1.0890531964510E+00 -4.1789007439670E-01
42  4.1000000000000E-01  1.5222357719182E+00 -1.1856806539111E+00 -3.7986054465780E-01
43  4.2000000000000E-01  1.4917252252819E+00 -1.2713143258253E+00 -3.3510272048727E-01
44  4.3000000000000E-01  1.4590395247459E+00 -1.3456876801898E+00 -2.8351174757452E-01
45  4.4000000000000E-01  1.4243586840119E+00 -1.4086371072403E+00 -2.2509528724467E-01
46  4.5000000000000E-01  1.3878651540957E+00 -1.4600868082017E+00 -1.5998355980277E-01
47  4.6000000000000E-01  1.3497426266784E+00 -1.5000338999418E+00 -8.8436029728165E-02
48  4.7000000000000E-01  1.3101748805839E+00 -1.5285345783921E+00 -1.0844227106698E-02
49  4.8000000000000E-01  1.2693446908589E+00 -1.5456921004086E+00  7.2269662990539E-02
50  4.9000000000000E-01  1.2274328176338E+00 -1.5516472226173E+00  1.6025865032385E-01
51  5.0000000000000E-01  1.1846170889854E+00 -1.5465715822690E+00  2.5236125709011E-01
52  5.1000000000000E-01  1.1410715885197E+00 -1.5306643263574E+00  3.4771614344526E-01
53  5.2000000000000E-01  1.0969659544954E+00 -1.5041520997001E+00  4.4538069092164E-01
54  5.3000000000000E-01  1.0524647931901E+00 -1.4672922997100E+00  5.4435301048586E-01
55  5.4000000000000E-01  1.0077272050412E+00 -1.4203793050660E+00  6.4359667427465E-01
56  5.5000000000000E-01  9.6290641807109E-01 -1.3637531973254E+00  7.4206732605585E-01
57  5.6000000000000E-01  9.1814951939469E-01 -1.2978103281713E+00  8.3874021259399E-01
58  5.7000000000000E-01  8.7359727238715E-01 -1.2230149490374E+00  9.3263760259333E-01
59  5.8000000000000E-01  8.2938400450042E-01 -1.1399110215874E+00  1.0228550265069E+00
60  5.9000000000000E-01  7.8563754887637E-01 -1.0491332725515E+00  1.1085852822529E+00
61  6.0000000000000E-01  7.4247922190144E-01 -9.5141654840915E-01  1.1891392098506E+00
62  6.1000000000000E-01  7.0002381872688E-01 -8.4760256585068E-01  1.2639623412118E+00
63  6.2000000000000E-01  6.5837960954877E-01 -7.3864324208211E-01  1.3326466767879E+00
64  6.3000000000000E-01  6.1764832106928E-01 -6.2559992182397E-01  1.3949370234581E+00
65  6.4000000000000E-01  5.7792508997201E-01 -5.0963799007635E-01  1.4507315411407E+00
66  6.5000000000000E-01  5.3929837832855E-01 -3.9201656419848E-01  1.5000763807066E+00
67  6.6000000000000E-01  5.0184984446978E-01 -2.7407318673025E-01  1.5431545432713E+00
68  6.7000000000000E-01  4.6565416683332E-01 -1.5720368149827E-01  1.5802693403386E+00
69  6.8000000000000E-01  4.3077882245210E-01 -4.2837578898994E-02  1.6118230747115E+00
70  6.9000000000000E-01  3.9728382587942E-01  6.7590249526581E-02  1.6382917827760E+00
71  7.0000000000000E-01  3.6522143825517E-01  1.7267089326092E-01  1.6601970694284E+00
72  7.1000000000000E-01  3.3463585971277E-01  2.7105460478303E-01  1.6780762183498E+00
73  7.2000000000000E-01  3.0556292123442E-01  3.6148472173243E-01  1.6924518647410E+00
74  7.3000000000000E-01  2.7802979423041E-01  4.4283103498880E-01  1.7038025690828E+00
75  7.4000000000000E-01  2.5205473743084E-01  5.1412128751665E-01  1.7125356251962E+00
76  7.5000000000000E-01  2.2764690105280E-01  5.7456950514362E-01  1.7189633724351E+00
77  7.6000000000000E-01  2.0480620760514E-01  6.2359993488429E-01  1.7232841613340E+00
78  7.7000000000000E-01  1.8352332712252E-01  6.6086549726872E-01  1.7255689480778E+00
79  7.8000000000000E-01  1.6377976212991E-01  6.8625984210509E-01  1.7257542718000E+00
80  7.9000000000000E-01  1.4554805432290E-01  6.9992232542592E-01  1.7236421082446E+00
81  8.0000000000000E-01  1.2879212093987E-01  7.0223549012665E-01  1.7189068039182E+00
82  8.1000000000000E-01  1.1346772426680E-01  6.9381492315967E-01  1.7111089883164E+00
83  8.2000000000000E-01  9.9523072847406E-02  6.7549166593813E-01  1.6997160508981E+00
84  8.3000000000000E-01  8.6899547983196E-02  6.4828765874167E-01  1.6841284675841E+00
85  8.4000000000000E-01  7.5532544219687E-02  6.1338499101613E-01  1.6637109819889E+00
86  8.5000000000000E-01  6.5352407948654E-02  5.7208999441267E-01  1.6378274020723E+00
87  8.6000000000000E-01  5.6285454219535E-02  5.2579344198290E-01  1.6058775749765E+00
88  8.7000000000000E-01  4.8255038536377E-02  4.7592829433214E-01  1.5673349613306E+00
89  8.8000000000000E-01  4.1182657979037E-02  4.2392655287667E-01  1.5217831529458E+00
90  8.9000000000000E-01  3.4989054551720E-02  3.7117683517248E-01  1.4689496697110E+00
91  9.0000000000000E-01  2.9595293308251E-02  3.1898427381529E-01  1.4087354349343E+00
92  9.1000000000000E-01  2.4923788563998E-02  2.6853425781782E-01  1.3412384626386E+00
93  9.2000000000000E-01  2.0899253362668E-02  2.2086138583642E-01  1.2667704916893E+00
94  9.3000000000000E-01  1.7449550256122E-02  1.7682478930855E-01  1.1858655633964E+00
95  9.4000000000000E-01  1.4506425264235E-02  1.3709071844814E-01  1.0992798520007E+00
96  9.5000000000000E-01  1.2006111453776E-02  1.0212297563815E-01  1.0079824093673E+00
97  9.6000000000000E-01  9.8897937211645E-03  7.2181441499844E-02  9.1313686268141E-01
98  9.7000000000000E-01  8.1039318625421E-03  4.7328583077662E-02  8.1607449168438E-01
99  9.8000000000000E-01  6.6004446319570E-03  2.7443476053461E-02  7.1825949432811E-01
100  9.9000000000000E-01  5.3367629769141E-03  1.2242529282793E-02  6.2124761047415E-01
101  1.0000000000000E+00  4.2757657644477E-03  1.3057849194456E-03  5.2663959736838E-01
102  1.0100000000000E+00  3.3856158389124E-03 -5.8926047639618E-03  4.3603132361835E-01
103  1.0200000000000E+00  2.6395179854628E-03 -9.9513398944827E-03  3.5096245819382E-01
104  1.0300000000000E+00  2.0154246890199E-03 -1.1508157805893E-02  2.7286586966826E-01
105  1.0400000000000E+00  1.4957041713593E-03 -1.1206932645660E-02  2.0301987772189E-01
106  1.0500000000000E+00  1.0655004629262E-03 -9.6554173644904E-03  1.4250402391302E-01
107  1.0600000000000E+00  7.0522148168507E-04 -7.3196609736927E-03  9.2150889756560E-02
108  1.0700000000000E+00  4.1400986108207E-04 -4.7371893140242E-03  5.2548652958784E-02
109  1.0800000000000E+00  1.9595733128453E-04 -2.4027998867867E-03  2.4018006423511E-02
110  1.0900000000000E+00  5.5918844759330E-05 -7.1886179699965E-04  6.5797764916785E-03
111  1.1000000000000E+00  1.3817293853001E-06 -1.8287881591188E-05  1.5383039359232E-04
112  1.1100000000000E+00  2.7654654335277E-07 -3.6781776973039E-06  3.1292609617212E-05
113  1.1200000000000E+00 -2.4410802352783E-08  3.1985959358230E-07 -2.8186029948711E-06
114  1.13  0.  0.  0.
115  1.14  0.  0.  0.
116  1.15  0.  0.  0.
117  1.16  0.  0.  0.
118  1.17  0.  0.  0.
119  1.18  0.  0.  0.
120  1.19  0.  0.  0.
121  1.20  0.  0.  0.
122  1.21  0.  0.  0.
123  1.22  0.  0.  0.
124  1.23  0.  0.  0.
125  1.24  0.  0.  0.
126  1.25  0.  0.  0.
127  1.26  0.  0.  0.
128  1.27  0.  0.  0.
129  1.28  0.  0.  0.
130  1.29  0.  0.  0.
131  1.30  0.  0.  0.
132  1.31  0.  0.  0.
133  1.32  0.  0.  0.
134  1.33  0.  0.  0.
135  1.34  0.  0.  0.
136  1.35  0.  0.  0.
137  1.36  0.  0.  0.
138  1.37  0.  0.  0.
139  1.38  0.  0.  0.
140  1.39  0.  0.  0.
141  1.40  0.  0.  0.
142  1.41  0.  0.  0.
143  1.42  0.  0.  0.
144  1.43  0.  0.  0.
145  1.44  0.  0.  0.
146  1.45  0.  0.  0.
147  1.46  0.  0.  0.
148  1.47  0.  0.  0.
149  1.48  0.  0.  0.
150  1.49  0.  0.  0.
151  1.50  0.  0.  0.
152  1.51  0.  0.  0.
153  1.52  0.  0.  0.
154  1.53  0.  0.  0.
155  1.54  0.  0.  0.
156  1.55  0.  0.  0.
157  1.56  0.  0.  0.
158  1.57  0.  0.  0.
159  1.58  0.  0.  0.
160  1.59  0.  0.  0.
161  1.60  0.  0.  0.
162  1.61  0.  0.  0.
163  1.62  0.  0.  0.
164  1.63  0.  0.  0.
165  1.64  0.  0.  0.
166  1.65  0.  0.  0.
167  1.66  0.  0.  0.
168  1.67  0.  0.  0.
169  1.68  0.  0.  0.
170  1.69  0.  0.  0.
171  1.70  0.  0.  0.
172  1.71  0.  0.  0.
173  1.72  0.  0.  0.
174  1.73  0.  0.  0.
175  1.74  0.  0.  0.
176  1.75  0.  0.  0.
177  1.76  0.  0.  0.
178  1.77  0.  0.  0.
179  1.78  0.  0.  0.
180  1.79  0.  0.  0.
181  1.80  0.  0.  0.
182  1.81  0.  0.  0.
183  1.82  0.  0.  0.
184  1.83  0.  0.  0.
185  1.84  0.  0.  0.
186  1.85  0.  0.  0.
187  1.86  0.  0.  0.
188  1.87  0.  0.  0.
189  1.88  0.  0.  0.
190  1.89  0.  0.  0.
191  1.90  0.  0.  0.
192  1.91  0.  0.  0.
193  1.92  0.  0.  0.
194  1.93  0.  0.  0.
195  1.94  0.  0.  0.
196  1.95  0.  0.  0.
197  1.96  0.  0.  0.
198  1.97  0.  0.  0.
199  1.98  0.  0.  0.
200  1.99  0.  0.  0.
201  2.00  0.  0.  0.
202  2.01  0.  0.  0.
203  2.02  0.  0.  0.
204  2.03  0.  0.  0.
205  2.04  0.  0.  0.
206  2.05  0.  0.  0.
207  2.06  0.  0.  0.
208  2.07  0.  0.  0.
209  2.08  0.  0.  0.
210  2.09  0.  0.  0.
211  2.10  0.  0.  0.
212  2.11  0.  0.  0.
213  2.12  0.  0.  0.
214  2.13  0.  0.  0.
215  2.14  0.  0.  0.
216  2.15  0.  0.  0.
217  2.16  0.  0.  0.
218  2.17  0.  0.  0.
219  2.18  0.  0.  0.
220  2.19  0.  0.  0.
221  2.20  0.  0.  0.
222  2.21  0.  0.  0.
223  2.22  0.  0.  0.
224  2.23  0.  0.  0.
225  2.24  0.  0.  0.
226  2.25  0.  0.  0.
227  2.26  0.  0.  0.
228  2.27  0.  0.  0.
229  2.28  0.  0.  0.
230  2.29  0.  0.  0.
231  2.30  0.  0.  0.
232  2.31  0.  0.  0.
233  2.32  0.  0.  0.
234  2.33  0.  0.  0.
235  2.34  0.  0.  0.
236  2.35  0.  0.  0.
237  2.36  0.  0.  0.
238  2.37  0.  0.  0.
239  2.38  0.  0.  0.
240  2.39  0.  0.  0.
241  2.40  0.  0.  0.
242  2.41  0.  0.  0.
243  2.42  0.  0.  0.
244  2.43  0.  0.  0.
245  2.44  0.  0.  0.
246  2.45  0.  0.  0.
247  2.46  0.  0.  0.
248  2.47  0.  0.  0.
249  2.48  0.  0.  0.
250  2.49  0.  0.  0.
251  2.50  0.  0.  0.
252  2.51  0.  0.  0.
253  2.52  0.  0.  0.
254  2.53  0.  0.  0.
255  2.54  0.  0.  0.
256  2.55  0.  0.  0.
257  2.56  0.  0.  0.
258  2.57  0.  0.  0.
259  2.58  0.  0.  0.
260  2.59  0.  0.  0.
261  2.60  0.  0.  0.
262  2.61  0.  0.  0.
263  2.62  0.  0.  0.
264  2.63  0.  0.  0.
265  2.64  0.  0.  0.
266  2.65  0.  0.  0.
267  2.66  0.  0.  0.
268  2.67  0.  0.  0.
269  2.68  0.  0.  0.
270  2.69  0.  0.  0.
271  2.70  0.  0.  0.
272  2.71  0.  0.  0.
273  2.72  0.  0.  0.
274  2.73  0.  0.  0.
275  2.74  0.  0.  0.
276  2.75  0.  0.  0.
277  2.76  0.  0.  0.
278  2.77  0.  0.  0.
279  2.78  0.  0.  0.
280  2.79  0.  0.  0.
281  2.80  0.  0.  0.
282  2.81  0.  0.  0.
283  2.82  0.  0.  0.
284  2.83  0.  0.  0.
285  2.84  0.  0.  0.
286  2.85  0.  0.  0.
287  2.86  0.  0.  0.
288  2.87  0.  0.  0.
289  2.88  0.  0.  0.
290  2.89  0.  0.  0.
291  2.90  0.  0.  0.
292  2.91  0.  0.  0.
293  2.92  0.  0.  0.
294  2.93  0.  0.  0.
295  2.94  0.  0.  0.
296  2.95  0.  0.  0.
297  2.96  0.  0.  0.
298  2.97  0.  0.  0.
299  2.98  0.  0.  0.
300  2.99  0.  0.  0.
301  3.00  0.  0.  0.
302  3.01  0.  0.  0.
303  3.02  0.  0.  0.
304  3.03  0.  0.  0.
305  3.04  0.  0.  0.
306  3.05  0.  0.  0.
307  3.06  0.  0.  0.
308  3.07  0.  0.  0.
309  3.08  0.  0.  0.
310  3.09  0.  0.  0.
311  3.10  0.  0.  0.
312  3.11  0.  0.  0.
313  3.12  0.  0.  0.
314  3.13  0.  0.  0.
315  3.14  0.  0.  0.
316  3.15  0.  0.  0.
317  3.16  0.  0.  0.
318  3.17  0.  0.  0.
319  3.18  0.  0.  0.
320  3.19  0.  0.  0.
321  3.20  0.  0.  0.
322  3.21  0.  0.  0.
323  3.22  0.  0.  0.
324  3.23  0.  0.  0.
325  3.24  0.  0.  0.
326  3.25  0.  0.  0.
327  3.26  0.  0.  0.
328  3.27  0.  0.  0.
329  3.28  0.  0.  0.
330  3.29  0.  0.  0.
331  3.30  0.  0.  0.
332  3.31  0.  0.  0.
333  3.32  0.  0.  0.
334  3.33  0.  0.  0.
335  3.34  0.  0.  0.
336  3.35  0.  0.  0.
337  3.36  0.  0.  0.
338  3.37  0.  0.  0.
339  3.38  0.  0.  0.
340  3.39  0.  0.  0.
341  3.40  0.  0.  0.
342  3.41  0.  0.  0.
343  3.42  0.  0.  0.
344  3.43  0.  0.  0.
345  3.44  0.  0.  0.
346  3.45  0.  0.  0.
347  3.46  0.  0.  0.
348  3.47  0.  0.  0.
349  3.48  0.  0.  0.
350  3.49  0.  0.  0.
351  3.50  0.  0.  0.
352  3.51  0.  0.  0.
353  3.52  0.  0.  0.
354  3.53  0.  0.  0.
355  3.54  0.  0.  0.
356  3.55  0.  0.  0.
357  3.56  0.  0.  0.
358  3.57  0.  0.  0.
359  3.58  0.  0.  0.
360  3.59  0.  0.  0.
361  3.60  0.  0.  0.
362  3.61  0.  0.  0.
363  3.62  0.  0.  0.
364  3.63  0.  0.  0.
365  3.64  0.  0.  0.
366  3.65  0.  0.  0.
367  3.66  0.  0.  0.
368  3.67  0.  0.  0.
369  3.68  0.  0.  0.
370  3.69  0.  0.  0.
371  3.70  0.  0.  0.
372  3.71  0.  0.  0.
373  3.72  0.  0.  0.
374  3.73  0.  0.  0.
375  3.74  0.  0.  0.
376  3.75  0.  0.  0.
377  3.76  0.  0.  0.
378  3.77  0.  0.  0.
379  3.78  0.  0.  0.
380  3.79  0.  0.  0.
381  3.80  0.  0.  0.
382  3.81  0.  0.  0.
383  3.82  0.  0.  0.
384  3.83  0.  0.  0.
385  3.84  0.  0.  0.
386  3.85  0.  0.  0.
387  3.86  0.  0.  0.
388  3.87  0.  0.  0.
389  3.88  0.  0.  0.
390  3.89  0.  0.  0.
391  3.90  0.  0.  0.
392  3.91  0.  0.  0.
393  3.92  0.  0.  0.
394  3.93  0.  0.  0.
395  3.94  0.  0.  0.
396  3.95  0.  0.  0.
397  3.96  0.  0.  0.
398  3.97  0.  0.  0.
399  3.98  0.  0.  0.
400  3.99  0.  0.  0.
401  4.00  0.  0.  0.
402  4.01  0.  0.  0.
403  4.02  0.  0.  0.
404  4.03  0.  0.  0.
405  4.04  0.  0.  0.
406  4.05  0.  0.  0.
407  4.06  0.  0.  0.
408  4.07  0.  0.  0.
409  4.08  0.  0.  0.
410  4.09  0.  0.  0.
411  4.10  0.  0.  0.
412  4.11  0.  0.  0.
413  4.12  0.  0.  0.
414  4.13  0.  0.  0.
415  4.14  0.  0.  0.
416  4.15  0.  0.  0.
417  4.16  0.  0.  0.
418  4.17  0.  0.  0.
419  4.18  0.  0.  0.
420  4.19  0.  0.  0.
421  4.20  0.  0.  0.
422  4.21  0.  0.  0.
423  4.22  0.  0.  0.
424  4.23  0.  0.  0.
425  4.24  0.  0.  0.
426  4.25  0.  0.  0.
427  4.26  0.  0.  0.
428  4.27  0.  0.  0.
429  4.28  0.  0.  0.
430  4.29  0.  0.  0.
431  4.30  0.  0.  0.
432  4.31  0.  0.  0.
433  4.32  0.  0.  0.
434  4.33  0.  0.  0.
435  4.34  0.  0.  0.
436  4.35  0.  0.  0.
437  4.36  0.  0.  0.
438  4.37  0.  0.  0.
439  4.38  0.  0.  0.
440  4.39  0.  0.  0.
441  4.40  0.  0.  0.
442  4.41  0.  0.  0.
443  4.42  0.  0.  0.
444  4.43  0.  0.  0.
445  4.44  0.  0.  0.
446  4.45  0.  0.  0.
447  4.46  0.  0.  0.
448  4.47  0.  0.  0.
449  4.48  0.  0.  0.
450  4.49  0.  0.  0.
451  4.50  0.  0.  0.
452  4.51  0.  0.  0.
453  4.52  0.  0.  0.
454  4.53  0.  0.  0.
455  4.54  0.  0.  0.
456  4.55  0.  0.  0.
457  4.56  0.  0.  0.
458  4.57  0.  0.  0.
459  4.58  0.  0.  0.
460  4.59  0.  0.  0.
461  4.60  0.  0.  0.
462  4.61  0.  0.  0.
463  4.62  0.  0.  0.
464  4.63  0.  0.  0.
465  4.64  0.  0.  0.
466  4.65  0.  0.  0.
467  4.66  0.  0.  0.
468  4.67  0.  0.  0.
469  4.68  0.  0.  0.
470  4.69  0.  0.  0.
471  4.70  0.  0.  0.
472  4.71  0.  0.  0.
473  4.72  0.  0.  0.
474  4.73  0.  0.  0.
475  4.74  0.  0.  0.
476  4.75  0.  0.  0.
477  4.76  0.  0.  0.
478  4.77  0.  0.  0.
479  4.78  0.  0.  0.
480  4.79  0.  0.  0.
481  4.80  0.  0.  0.
482  4.81  0.  0.  0.
483  4.82  0.  0.  0.
484  4.83  0.  0.  0.
485  4.84  0.  0.  0.
486  4.85  0.  0.  0.
487  4.86  0.  0.  0.
488  4.87  0.  0.  0.
489  4.88  0.  0.  0.
490  4.89  0.  0.  0.
491  4.90  0.  0.  0.
492  4.91  0.  0.  0.
493  4.92  0.  0.  0.
494  4.93  0.  0.  0.
495  4.94  0.  0.  0.
496  4.95  0.  0.  0.
497  4.96  0.  0.  0.
498  4.97  0.  0.  0.
499  4.98  0.  0.  0.
500  4.99  0.  0.  0.
501  5.00  0.  0.  0.
502  5.01  0.  0.  0.
503  5.02  0.  0.  0.
504  5.03  0.  0.  0.
505  5.04  0.  0.  0.
506  5.05  0.  0.  0.
507  5.06  0.  0.  0.
508  5.07  0.  0.  0.
509  5.08  0.  0.  0.
510  5.09  0.  0.  0.
511  5.10  0.  0.  0.
512  5.11  0.  0.  0.
513  5.12  0.  0.  0.
514  5.13  0.  0.  0.
515  5.14  0.  0.  0.
516  5.15  0.  0.  0.
517  5.16  0.  0.  0.
518  5.17  0.  0.  0.
519  5.18  0.  0.  0.
520  5.19  0.  0.  0.
521  5.20  0.  0.  0.
522  5.21  0.  0.  0.
523  5.22  0.  0.  0.
524  5.23  0.  0.  0.
525  5.24  0.  0.  0.
526  5.25  0.  0.  0.
527  5.26  0.  0.  0.
528  5.27  0.  0.  0.
529  5.28  0.  0.  0.
530  5.29  0.  0.  0.
531  5.30  0.  0.  0.
532  5.31  0.  0.  0.
533  5.32  0.  0.  0.
534  5.33  0.  0.  0.
535  5.34  0.  0.  0.
536  5.35  0.  0.  0.
537  5.36  0.  0.  0.
538  5.37  0.  0.  0.
539  5.38  0.  0.  0.
540  5.39  0.  0.  0.
541  5.40  0.  0.  0.
542  5.41  0.  0.  0.
543  5.42  0.  0.  0.
544  5.43  0.  0.  0.
545  5.44  0.  0.  0.
546  5.45  0.  0.  0.
547  5.46  0.  0.  0.
548  5.47  0.  0.  0.
549  5.48  0.  0.  0.
550  5.49  0.  0.  0.
551  5.50  0.  0.  0.
552  5.51  0.  0.  0.
553  5.52  0.  0.  0.
554  5.53  0.  0.  0.
555  5.54  0.  0.  0.
556  5.55  0.  0.  0.
557  5.56  0.  0.  0.
558  5.57  0.  0.  0.
559  5.58  0.  0.  0.
560  5.59  0.  0.  0.
561  5.60  0.  0.  0.
562  5.61  0.  0.  0.
563  5.62  0.  0.  0.
564  5.63  0.  0.  0.
565  5.64  0.  0.  0.
566  5.65  0.  0.  0.
567  5.66  0.  0.  0.
568  5.67  0.  0.  0.
569  5.68  0.  0.  0.
570  5.69  0.  0.  0.
571  5.70  0.  0.  0.
572  5.71  0.  0.  0.
573  5.72  0.  0.  0.
574  5.73  0.  0.  0.
575  5.74  0.  0.  0.
576  5.75  0.  0.  0.
577  5.76  0.  0.  0.
578  5.77  0.  0.  0.
579  5.78  0.  0.  0.
580  5.79  0.  0.  0.
581  5.80  0.  0.  0.
582  5.81  0.  0.  0.
583  5.82  0.  0.  0.
584  5.83  0.  0.  0.
585  5.84  0.  0.  0.
586  5.85  0.  0.  0.
587  5.86  0.  0.  0.
588  5.87  0.  0.  0.
589  5.88  0.  0.  0.
590  5.89  0.  0.  0.
591  5.90  0.  0.  0.
592  5.91  0.  0.  0.
593  5.92  0.  0.  0.
594  5.93  0.  0.  0.
595  5.94  0.  0.  0.
596  5.95  0.  0.  0.
597  5.96  0.  0.  0.
598  5.97  0.  0.  0.
599  5.98  0.  0.  0.
600  5.99  0.  0.  0.
1                        -1.3777495953952E+01 -1.6058589555364E+00
1  0.0000000000000E+00  5.5445391888842E-09 -7.7329051495489E-08
2  1.0000000000000E-02  2.9658601171978E-03 -4.3695995333235E-03
3  2.0000000000000E-02  1.1841387404114E-02 -1.7404145559994E-02
4  3.0000000000000E-02  2.6560640403802E-02 -3.8882570373700E-02
5  4.0000000000000E-02  4.7014438957973E-02 -6.8442006507036E-02
6  5.0000000000000E-02  7.3051435388881E-02 -1.0558596556098E-01
7  6.0000000000000E-02  1.0447959005717E-01 -1.4969541759372E-01
8  7.0000000000000E-02  1.4106802800063E-01 -2.0004241727811E-01
9  8.0000000000000E-02  1.8254924781418E-01 -2.5580584570799E-01
10  9.0000000000000E-02  2.2862164916255E-01 -3.1608877587130E-01
11  1.0000000000000E-01  2.7895234143407E-01 -3.7993692764248E-01
12  1.1000000000000E-01  3.3318019312606E-01 -4.4635765614657E-01
13  1.2000000000000E-01  3.9091907964104E-01 -5.1433891616093E-01
14  1.3000000000000E-01  4.5176128627612E-01 -5.8286766464973E-01
15  1.4000000000000E-01  5.1528102327570E-01 -6.5094720254450E-01
16  1.5000000000000E-01  5.8103801082649E-01 -7.1761301367307E-01
17  1.6000000000000E-01  6.4858109371133E-01 -7.8194673077656E-01
18  1.7000000000000E-01  7.1745184788364E-01 -8.4308794271411E-01
19  1.8000000000000E-01  7.8718814433793E-01 -9.0024364964654E-01
20  1.9000000000000E-01  8.5732763917965E-01 -9.5269527030292E-01
21  2.0000000000000E-01  9.2741116257820E-01 -9.9980320330872E-01
22  2.1000000000000E-01  9.9698598315905E-01 -1.0410090389462E+00
23  2.2000000000000E-01  1.0656089281997E+00 -1.0758356047724E+00
24  2.3000000000000E-01  1.1328493435986E+00 -1.1038851047263E+00
25  2.4000000000000E-01  1.1982918808648E+00 -1.1248356736970E+00
26  2.5000000000000E-01  1.2615391012300E+00 -1.1384367156006E+00
27  2.6000000000000E-01  1.3222138893444E+00 -1.1445034211309E+00
28  2.7000000000000E-01  1.3799616708485E+00 -1.1429108706098E+00
29  2.8000000000000E-01  1.4344524293937E+00 -1.1335881176710E+00
30  2.9000000000000E-01  1.4853825194603E+00 -1.1165126215939E+00
31  3.0000000000000E-01  1.5324762716196E+00 -1.0917053514737E+00
32  3.1000000000000E-01  1.5754873868091E+00 -1.0592268262847E+00
33  3.2000000000000E-01  1.6142001158164E+00 -1.0191742841202E+00
34  3.3000000000000E-01  1.6484302196357E+00 -9.7168009479774E-01
35  3.4000000000000E-01  1.6780257057751E+00 -9.1691144630360E-01
36  3.5000000000000E-01  1.7028673351061E+00 -8.5507125109295E-01
37  3.6000000000000E-01  1.7228688935689E+00 -7.8640013697561E-01
38  3.7000000000000E-01  1.7379772231045E+00 -7.1117931297593E-01
39  3.8000000000000E-01  1.7481720066792E+00 -6.2973403662900E-01
40  3.9000000000000E-01  1.7534653032700E+00 -5.4243735868938E-01
41  4.0000000000000E-01  1.7539008302539E+00 -4.4971378662340E-01
42  4.1000000000000E-01  1.7495529928043E+00 -3.5204249129011E-01
43  4.2000000000000E-01  1.7405256626390E+00 -2.4995968288047E-01
44  4.3000000000000E-01  1.7269507117429E+00 -1.4405980266293E-01
45  4.4000000000000E-01  1.7089863104266E+00 -3.4995215734157E-02
46  4.5000000000000E-01  1.6868150031814E+00  7.6525854642424E-02
47  4.6000000000000E-01  1.6606415801135E+00  1.8974334059917E-01
48  4.7000000000000E-01  1.6306907661396E+00  3.0385139898778E-01
49  4.8000000000000E-01  1.5972047544270E+00  4.1800655438635E-01
50  4.9000000000000E-01  1.5604406145979E+00  5.3133783926253E-01
51  5.0000000000000E-01  1.5206676098020E+00  6.4295875985444E-01
52  5.1000000000000E-01  1.4781644597315E+00  7.5198082509222E-01
53  5.2000000000000E-01  1.4332165888448E+00  8.5752829236586E-01
54  5.3000000000000E-01  1.3861134003524E+00  9.5875371193977E-01
55  5.4000000000000E-01  1.3371456167893E+00  1.0548537946982E+00
56  5.5000000000000E-01  1.2866027271801E+00  1.1450850884902E+00
57  5.6000000000000E-01  1.2347705788644E+00  1.2287789287559E+00
58  5.7000000000000E-01  1.1819291489997E+00  1.3053551307048E+00
59  5.8000000000000E-01  1.1283505266394E+00  1.3743339135746E+00
60  5.9000000000000E-01  1.0742971311951E+00  1.4353455920409E+00
61  6.0000000000000E-01  1.0200201871629E+00  1.4881376344109E+00
62  6.1000000000000E-01  9.6575846839515E-01  1.5325787697054E+00
63  6.2000000000000E-01  9.1173731813076E-01  1.5686599232416E+00
64  6.3000000000000E-01  8.5816794368172E-01  1.5964918693220E+00
65  6.4000000000000E-01  8.0524697736404E-01  1.6162996060482E+00
66  6.5000000000000E-01  7.5315628819322E-01  1.6284135766334E+00
67  6.6000000000000E-01  7.0206302230056E-01  1.6332579792443E+00
68  6.7000000000000E-01  6.5211984419826E-01  1.6313365186481E+00
69  6.8000000000000E-01  6.0346534615078E-01  1.6232160532607E+00
70  6.9000000000000E-01  5.5622458918547E-01  1.6095086764038E+00
71  7.0000000000000E-01  5.1050973685129E-01  1.5908528369995E+00
72  7.1000000000000E-01  4.6642074181826E-01  1.5678941495953E+00
73  7.2000000000000E-01  4.2404604586290E-01  1.5412665642913E+00
74  7.3000000000000E-01  3.8346325571174E-01  1.5115745625773E+00
75  7.4000000000000E-01  3.4473976056956E-01  1.4793770149262E+00
76  7.5000000000000E-01  3.0793326183725E-01  1.4451732809445E+00
77  7.6000000000000E-01  2.7309219137271E-01  1.4093920545751E+00
78  7.7000000000000E-01  2.4025600146432E-01  1.3723833579386E+00
79  7.8000000000000E-01  2.0945531722680E-01  1.3344139713101E+00
80  7.9000000000000E-01  1.8071195011608E-01  1.2956664577074E+00
81  8.0000000000000E-01  1.5403877939420E-01  1.2562418033513E+00
82  8.1000000000000E-01  1.2943951634134E-01  1.2161655550981E+00
83  8.2000000000000E-01  1.0690837349587E-01  1.1753971982078E+00
84  8.3000000000000E-01  8.6429667899464E-02  1.1338423879253E+00
85  8.4000000000000E-01  6.7977392949114E-02  1.0913675315228E+00
86  8.5000000000000E-01  5.1514797761878E-02  1.0478161184548E+00
87  8.6000000000000E-01  3.6994015734855E-02  1.0030261193007E+00
88  8.7000000000000E-01  2.4355785078109E-02  9.5684772259708E-01
89  8.8000000000000E-01  1.3529303417701E-02  9.0916065495447E-01
90  8.9000000000000E-01  4.4322560800250E-03  8.5989033543142E-01
91  9.0000000000000E-01 -3.0289465851512E-03  8.0902215028695E-01
92  9.1000000000000E-01 -8.9586934013810E-03  7.5661319811323E-01
93  9.2000000000000E-01 -1.3471436047495E-02  7.0280094596402E-01
94  9.3000000000000E-01 -1.6690678856712E-02  6.4780835138435E-01
95  9.4000000000000E-01 -1.8747691005213E-02  5.9194513917082E-01
96  9.5000000000000E-01 -1.9779947646341E-02  5.3560507036284E-01
97  9.6000000000000E-01 -1.9929317114730E-02  4.7925919890726E-01
98  9.7000000000000E-01 -1.9340021789917E-02  4.2344527260302E-01
99  9.8000000000000E-01 -1.8156410187703E-02  3.6875359320604E-01
100  9.9000000000000E-01 -1.6520586953597E-02  3.1580979968577E-01
101  1.0000000000000E+00 -1.4569955316656E-02  2.6525517280371E-01
102  1.0100000000000E+00 -1.2434732894224E-02  2.1772517288191E-01
103  1.0200000000000E+00 -1.0235506251217E-02  1.7382701122792E-01
104  1.0300000000000E+00 -8.0808921772618E-03  1.3411713124803E-01
105  1.0400000000000E+00 -6.0653766035947E-03  9.9079412775861E-02
106  1.0500000000000E+00 -4.2673148825391E-03  6.9091445346861E-02
107  1.0600000000000E+00 -2.7477838565931E-03  4.4343987194652E-02
108  1.0700000000000E+00 -1.5500200754961E-03  2.5063734347739E-02
109  1.0800000000000E+00 -6.9601298566193E-04  1.1338560323453E-02
110  1.0900000000000E+00 -1.8595294674107E-04  3.0699929452005E-03
111  1.1000000000000E+00 -4.1935577952395E-06  7.0827175034073E-05
112  1.1100000000000E+00 -8.5906603417584E-07  1.4415719311090E-05
113  1.1200000000000E+00  7.8471426408230E-08 -1.3059959632360E-06
114  1.13  0.  0.
115  1.14  0.  0.
116  1.15  0.  0.
117  1.16  0.  0.
118  1.17  0.  0.
119  1.18  0.  0.
120  1.19  0.  0.
121  1.20  0.  0.
122  1.21  0.  0.
123  1.22  0.  0.
124  1.23  0.  0.
125  1.24  0.  0.
126  1.25  0.  0.
127  1.26  0.  0.
128  1.27  0.  0.
129  1.28  0.  0.
130  1.29  0.  0.
131  1.30  0.  0.
132  1.31  0.  0.
133  1.32  0.  0.
134  1.33  0.  0.
135  1.34  0.  0.
136  1.35  0.  0.
137  1.36  0.  0.
138  1.37  0.  0.
139  1.38  0.  0.
140  1.39  0.  0.
141  1.40  0.  0.
142  1.41  0.  0.
143  1.42  0.  0.
144  1.43  0.  0.
145  1.44  0.  0.
146  1.45  0.  0.
147  1.46  0.  0.
148  1.47  0.  0.
149  1.48  0.  0.
150  1.49  0.  0.
151  1.50  0.  0.
152  1.51  0.  0.
153  1.52  0.  0.
154  1.53  0.  0.
155  1.54  0.  0.
156  1.55  0.  0.
157  1.56  0.  0.
158  1.57  0.  0.
159  1.58  0.  0.
160  1.59  0.  0.
161  1.60  0.  0.
162  1.61  0.  0.
163  1.62  0.  0.
164  1.63  0.  0.
165  1.64  0.  0.
166  1.65  0.  0.
167  1.66  0.  0.
168  1.67  0.  0.
169  1.68  0.  0.
170  1.69  0.  0.
171  1.70  0.  0.
172  1.71  0.  0.
173  1.72  0.  0.
174  1.73  0.  0.
175  1.74  0.  0.
176  1.75  0.  0.
177  1.76  0.  0.
178  1.77  0.  0.
179  1.78  0.  0.
180  1.79  0.  0.
181  1.80  0.  0.
182  1.81  0.  0.
183  1.82  0.  0.
184  1.83  0.  0.
185  1.84  0.  0.
186  1.85  0.  0.
187  1.86  0.  0.
188  1.87  0.  0.
189  1.88  0.  0.
190  1.89  0.  0.
191  1.90  0.  0.
192  1.91  0.  0.
193  1.92  0.  0.
194  1.93  0.  0.
195  1.94  0.  0.
196  1.95  0.  0.
197  1.96  0.  0.