Rg    ONCVPSP-4.0.1  r_core=   1.15516   1.15516   1.15516   1.20456
111.0000     51.0000      220328    zatom,zion,pspd
8      11   3     4   600     0    pspcod,pspxc,lmax,lloc,mmax,r2well
5.99000000  3.80000000  0.00000000    rchrg fchrg qchrg
3     2     2     2     0    nproj
1     1           extension_switch
0                        -1.2938297697553E+01  1.1848704352761E+01  1.4713497218500E+00
1  0.0000000000000E+00 -2.0425862112816E-09  3.6481379694919E-08  6.6650137464652E-08
2  1.0000000000000E-02  8.6919693908115E-02  1.6250114998040E-01  2.7974135645223E-02
3  2.0000000000000E-02  1.7356833186310E-01  3.2354578792065E-01  5.5346153528446E-02
4  3.0000000000000E-02  2.5967646634170E-01  4.8168780376044E-01  8.1517154860033E-02
5  4.0000000000000E-02  3.4497784590409E-01  6.3550198112326E-01  1.0589495350026E-01
6  5.0000000000000E-02  4.2921096185918E-01  7.8359465798176E-01  1.2789810002896E-01
7  6.0000000000000E-02  5.1212053483576E-01  9.2461461511156E-01  1.4696065482763E-01
8  7.0000000000000E-02  5.9345892375954E-01  1.0572642219242E+00  1.6253787557274E-01
9  8.0000000000000E-02  6.7298744177839E-01  1.1803108327881E+00  1.7411291788880E-01
10  9.0000000000000E-02  7.5047756607926E-01  1.2925983852106E+00  1.8120457126531E-01
11  1.0000000000000E-01  8.2571203120774E-01  1.3930591065551E+00  1.8337596967235E-01
12  1.1000000000000E-01  8.9848579833511E-01  1.4807251908188E+00  1.8024413194652E-01
13  1.2000000000000E-01  9.6860689581236E-01  1.5547402639603E+00  1.7149010542929E-01
14  1.3000000000000E-01  1.0358971292000E+00  1.6143704178917E+00  1.5686941192994E-01
15  1.4000000000000E-01  1.1001926616667E+00  1.6590145618844E+00  1.3622243198087E-01
16  1.5000000000000E-01  1.1613444681144E+00  1.6882138178756E+00  1.0948431519474E-01
17  1.6000000000000E-01  1.2192186685347E+00  1.7016596746647E+00  7.6693974311034E-02
18  1.7000000000000E-01  1.2736967478663E+00  1.6992006164917E+00  3.8001710411890E-02
19  1.8000000000000E-01  1.3246756709551E+00  1.6808469546324E+00 -6.3249719445707E-03
20  1.9000000000000E-01  1.3720679021039E+00  1.6467736165304E+00 -5.5897768010497E-02
21  2.0000000000000E-01  1.4158013391167E+00  1.5973206850909E+00 -1.1020654907110E-01
22  2.1000000000000E-01  1.4558191717188E+00  1.5329915299987E+00 -1.6862119313212E-01
23  2.2000000000000E-01  1.4920796738052E+00  1.4544484316517E+00 -2.3039646210361E-01
24  2.3000000000000E-01  1.5245559381777E+00  1.3625056644211E+00 -2.9468001498251E-01
25  2.4000000000000E-01  1.5532355613576E+00  1.2581200769557E+00 -3.6052353512321E-01
26  2.5000000000000E-01  1.5781202847714E+00  1.1423792803749E+00 -4.2689683401452E-01
27  2.6000000000000E-01  1.5992255972008E+00  1.0164876274988E+00 -4.9270467897826E-01
28  2.7000000000000E-01  1.6165803019446E+00  8.8175023478740E-01 -5.5680598285148E-01
29  2.8000000000000E-01  1.6302260507556E+00  7.3955536053495E-01 -6.1803489484365E-01
30  2.9000000000000E-01  1.6402168453697E+00  5.9135550544980E-01 -6.7522324784239E-01
31  3.0000000000000E-01  1.6466185064163E+00  4.3864764276284E-01 -7.2722375235161E-01
32  3.1000000000000E-01  1.6495081087425E+00  2.8295301259764E-01 -7.7293328414352E-01
33  3.2000000000000E-01  1.6489733817585E+00  1.2579692821013E-01 -8.1131559381138E-01
34  3.3000000000000E-01  1.6451120733293E+00 -3.1310960846139E-02 -8.4142277297778E-01
35  3.4000000000000E-01  1.6380312760227E+00 -1.8689552161379E-01 -8.6241484409348E-01
36  3.5000000000000E-01  1.6278467151570E+00 -3.3953371262401E-01 -8.7357689764014E-01
37  3.6000000000000E-01  1.6146819990444E+00 -4.8787053338662E-01 -8.7433328013333E-01
38  3.7000000000000E-01  1.5986678330533E+00 -6.3063305965580E-01 -8.6425843563697E-01
39  3.8000000000000E-01  1.5799412005483E+00 -7.6664234384718E-01 -8.4308411870799E-01
40  3.9000000000000E-01  1.5586445153371E+00 -8.9482303508158E-01 -8.1070282322331E-01
41  4.0000000000000E-01  1.5349247518689E+00 -1.0142106523119E+00 -7.6716740432668E-01
42  4.1000000000000E-01  1.5089325610041E+00 -1.1239565236494E+00 -7.1268700436551E-01
43  4.2000000000000E-01  1.4808213806131E+00 -1.2233304820990E+00 -6.4761952268497E-01
44  4.3000000000000E-01  1.4507465514811E+00 -1.3117214792867E+00 -5.7246098816614E-01
45  4.4000000000000E-01  1.4188644499032E+00 -1.3886363414908E+00 -4.8783229746967E-01
46  4.5000000000000E-01  1.3853316488994E+00 -1.4536969437982E+00 -3.9446386669221E-01
47  4.6000000000000E-01  1.3503041200879E+00 -1.5066361163965E+00 -2.9317880596194E-01
48  4.7000000000000E-01  1.3139364879079E+00 -1.5472926203270E+00 -1.8487526271974E-01
49  4.8000000000000E-01  1.2763813470558E+00 -1.5756055375573E+00 -7.0508588457805E-02
50  4.9000000000000E-01  1.2377886526982E+00 -1.5916084117339E+00  4.8926034951783E-02
51  5.0000000000000E-01  1.1983051912848E+00 -1.5954234519010E+00  1.7240991880050E-01
52  5.1000000000000E-01  1.1580741376425E+00 -1.5872560729514E+00  2.9891562110633E-01
53  5.2000000000000E-01  1.1172347015737E+00 -1.5673899953779E+00  4.2741970317138E-01
54  5.3000000000000E-01  1.0759218644732E+00 -1.5361830653612E+00  5.5691317314328E-01
55  5.4000000000000E-01  1.0342662036404E+00 -1.4940638871835E+00  6.8640942507814E-01
56  5.5000000000000E-01  9.9239379909222E-01 -1.4415292865795E+00  8.1494961455000E-01
57  5.6000000000000E-01  9.5042621489950E-01 -1.3791425493506E+00  9.4160554665045E-01
58  5.7000000000000E-01  9.0848054449562E-01 -1.3075323078795E+00  1.0654802832852E+00
59  5.8000000000000E-01  8.6666950714980E-01 -1.2273918825529E+00  1.1857067980842E+00
60  5.9000000000000E-01  8.2510158096594E-01 -1.1394788287728E+00  1.3014451134077E+00
61  6.0000000000000E-01  7.8388115645244E-01 -1.0446143961148E+00  1.4118784398209E+00
62  6.1000000000000E-01  7.4310869398216E-01 -9.4368257670606E-01  1.5162088997785E+00
63  6.2000000000000E-01  7.0288086837672E-01 -8.3762840686901E-01  1.6136534508439E+00
64  6.3000000000000E-01  6.6329068443307E-01 -7.2745519067506E-01  1.7034406274333E+00
65  6.4000000000000E-01  6.2442754846573E-01 -6.1422033667397E-01  1.7848086929325E+00
66  6.5000000000000E-01  5.8637728283800E-01 -4.9902953934519E-01  1.8570057365163E+00
67  6.6000000000000E-01  5.4922207294928E-01 -3.8302909360416E-01  1.9192921628359E+00
68  6.7000000000000E-01  5.1304033915456E-01 -2.6739620208589E-01  1.9709459109560E+00
69  6.8000000000000E-01  4.7790652951525E-01 -1.5332721832720E-01  2.0112706056987E+00
70  6.9000000000000E-01  4.4389083299747E-01 -4.2023861193844E-02  2.0396066951011E+00
71  7.0000000000000E-01  4.1105881660769E-01  6.5322466729126E-02  2.0553454680676E+00
72  7.1000000000000E-01  3.7947099383978E-01  1.6754802553193E-01  2.0579456831042E+00
73  7.2000000000000E-01  3.4918233555033E-01  2.6353542240893E-01  2.0469523792562E+00
74  7.3000000000000E-01  3.2024173782976E-01  3.5223321907426E-01  2.0220172909994E+00
75  7.4000000000000E-01  2.9269146445261E-01  4.3267597003709E-01  1.9829201566176E+00
76  7.5000000000000E-01  2.6656658394104E-01  5.0400413741116E-01  1.9295901007452E+00
77  7.6000000000000E-01  2.4189442305005E-01  5.6548328375786E-01  1.8621261916080E+00
78  7.7000000000000E-01  2.1869405949499E-01  6.1652192080882E-01  1.7808162263832E+00
79  7.8000000000000E-01  1.9697587693192E-01  6.5668739048306E-01  1.6861527870174E+00
80  7.9000000000000E-01  1.7674120454294E-01  6.8571917622769E-01  1.5788456353442E+00
81  8.0000000000000E-01  1.5798206207782E-01  7.0353908725968E-01  1.4598295804422E+00
82  8.1000000000000E-01  1.4068102889974E-01  7.1025782467760E-01  1.3302670512497E+00
83  8.2000000000000E-01  1.2481125255246E-01  7.0617752461781E-01  1.1915447403218E+00
84  8.3000000000000E-01  1.1033660871181E-01  6.9178997671867E-01  1.0452638455871E+00
85  8.4000000000000E-01  9.7212020241583E-02  6.6777033240440E-01  8.9322362002229E-01
86  8.5000000000000E-01  8.5383938597387E-02  6.3496624251470E-01  7.3739813714947E-01
87  8.6000000000000E-01  7.4790986187628E-02  5.9438249269417E-01  5.7990638518771E-01
88  8.7000000000000E-01  6.5364753691785E-02  5.4716133251543E-01  4.2297600601988E-01
89  8.8000000000000E-01  5.7030741942266E-02  4.9455881523442E-01  2.6890118813243E-01
90  8.9000000000000E-01  4.9709433980516E-02  4.3791757418872E-01  1.1999539682626E-01
91  9.0000000000000E-01  4.3317479473274E-02  3.7863655430372E-01 -2.1460227734197E-02
92  9.1000000000000E-01  3.7768970973604E-02  3.1813828868664E-01 -1.5327186074783E-01
93  9.2000000000000E-01  3.2976789659894E-02  2.5783435733622E-01 -2.7339035387854E-01
94  9.3000000000000E-01  2.8853997278679E-02  1.9908968496869E-01 -3.7996992045461E-01
95  9.4000000000000E-01  2.5315251111481E-02  1.4318632631447E-01 -4.7142711532685E-01
96  9.5000000000000E-01  2.2278219898166E-02  9.1287349600763E-02 -5.4649914464871E-01
97  9.6000000000000E-01  1.9664980756200E-02  4.4401363084767E-02 -6.0430065162976E-01
98  9.7000000000000E-01  1.7403380168326E-02  3.3481374996713E-03 -6.4437827779652E-01
99  9.8000000000000E-01  1.5428345965978E-02 -3.1274337772698E-02 -6.6676249034530E-01
100  9.9000000000000E-01  1.3683142020264E-02 -5.9121170320590E-02 -6.7201641286119E-01
101  1.0000000000000E+00  1.2120559665049E-02 -8.0130103047924E-02 -6.6128136892678E-01
102  1.0100000000000E+00  1.0703889631183E-02 -9.4543437366879E-02 -6.3630336405212E-01
103  1.0200000000000E+00  9.4055948139206E-03 -1.0284447862574E-01 -5.9923601560634E-01
104  1.0300000000000E+00  8.2048854474364E-03 -1.0565515391120E-01 -5.5236483285808E-01
105  1.0400000000000E+00  7.0870554692151E-03 -1.0370317156593E-01 -4.9803708204047E-01
106  1.0500000000000E+00  6.0429275781820E-03 -9.7796312575469E-02 -4.3861569670421E-01
107  1.0600000000000E+00  5.0681795401868E-03 -8.8794926861984E-02 -3.7643139401946E-01
108  1.0700000000000E+00  4.1625831024726E-03 -7.7583423891588E-02 -3.1373409672934E-01
109  1.0800000000000E+00  3.3291933286830E-03 -6.5041704255806E-02 -2.5264512366503E-01
110  1.0900000000000E+00  2.5735017777154E-03 -5.2017247480366E-02 -1.9511135284744E-01
111  1.1000000000000E+00  1.9018601147093E-03 -3.9292920273372E-02 -1.4285693820320E-01
112  1.1100000000000E+00  1.3112996890274E-03 -2.7478605191855E-02 -9.7257184848833E-02
113  1.1200000000000E+00  8.1346982994707E-04 -1.7196225955971E-02 -5.9514417787706E-02
114  1.1300000000000E+00  4.2428972699734E-04 -9.0020235573029E-03 -3.0580788483353E-02
115  1.1400000000000E+00  1.5626893055809E-04 -3.3112587754509E-03 -1.1078477975114E-02
116  1.1500000000000E+00  1.9134640513752E-05 -4.0284791788932E-04 -1.3311060135542E-03
117  1.1600000000000E+00 -1.0302662198176E-06  2.1621587130438E-05  7.0897043489196E-05
118  1.1700000000000E+00 -3.9844416767627E-08  8.4170755747934E-07  2.7876953911318E-06
119  1.18 -0. -0. -0.
120  1.19  0.  0.  0.
121  1.20  0.  0.  0.
122  1.21  0.  0.  0.
123  1.22  0.  0.  0.
124  1.23  0.  0.  0.
125  1.24  0.  0.  0.
126  1.25  0.  0.  0.
127  1.26  0.  0.  0.
128  1.27  0.  0.  0.
129  1.28  0.  0.  0.
130  1.29  0.  0.  0.
131  1.30  0.  0.  0.
132  1.31  0.  0.  0.
133  1.32  0.  0.  0.
134  1.33  0.  0.  0.
135  1.34  0.  0.  0.
136  1.35  0.  0.  0.
137  1.36  0.  0.  0.
138  1.37  0.  0.  0.
139  1.38  0.  0.  0.
140  1.39  0.  0.  0.
141  1.40  0.  0.  0.
142  1.41  0.  0.  0.
143  1.42  0.  0.  0.
144  1.43  0.  0.  0.
145  1.44  0.  0.  0.
146  1.45  0.  0.  0.
147  1.46  0.  0.  0.
148  1.47  0.  0.  0.
149  1.48  0.  0.  0.
150  1.49  0.  0.  0.
151  1.50  0.  0.  0.
152  1.51  0.  0.  0.
153  1.52  0.  0.  0.
154  1.53  0.  0.  0.
155  1.54  0.  0.  0.
156  1.55  0.  0.  0.
157  1.56  0.  0.  0.
158  1.57  0.  0.  0.
159  1.58  0.  0.  0.
160  1.59  0.  0.  0.
161  1.60  0.  0.  0.
162  1.61  0.  0.  0.
163  1.62  0.  0.  0.
164  1.63  0.  0.  0.
165  1.64  0.  0.  0.
166  1.65  0.  0.  0.
167  1.66  0.  0.  0.
168  1.67  0.  0.  0.
169  1.68  0.  0.  0.
170  1.69  0.  0.  0.
171  1.70  0.  0.  0.
172  1.71  0.  0.  0.
173  1.72  0.  0.  0.
174  1.73  0.  0.  0.
175  1.74  0.  0.  0.
176  1.75  0.  0.  0.
177  1.76  0.  0.  0.
178  1.77  0.  0.  0.
179  1.78  0.  0.  0.
180  1.79  0.  0.  0.
181  1.80  0.  0.  0.
182  1.81  0.  0.  0.
183  1.82  0.  0.  0.
184  1.83  0.  0.  0.
185  1.84  0.  0.  0.
186  1.85  0.  0.  0.
187  1.86  0.  0.  0.
188  1.87  0.  0.  0.
189  1.88  0.  0.  0.
190  1.89  0.  0.  0.
191  1.90  0.  0.  0.
192  1.91  0.  0.  0.
193  1.92  0.  0.  0.
194  1.93  0.  0.  0.
195  1.94  0.  0.  0.
196  1.95  0.  0.  0.
197  1.96  0.  0.  0.
198  1.97  0.  0.  0.
199  1.98  0.  0.  0.
200  1.99  0.  0.  0.
201  2.00  0.  0.  0.
202  2.01  0.  0.  0.
203  2.02  0.  0.  0.
204  2.03  0.  0.  0.
205  2.04  0.  0.  0.
206  2.05  0.  0.  0.
207  2.06  0.  0.  0.
208  2.07  0.  0.  0.
209  2.08  0.  0.  0.
210  2.09  0.  0.  0.
211  2.10  0.  0.  0.
212  2.11  0.  0.  0.
213  2.12  0.  0.  0.
214  2.13  0.  0.  0.
215  2.14  0.  0.  0.
216  2.15  0.  0.  0.
217  2.16  0.  0.  0.
218  2.17  0.  0.  0.
219  2.18  0.  0.  0.
220  2.19  0.  0.  0.
221  2.20  0.  0.  0.
222  2.21  0.  0.  0.
223  2.22  0.  0.  0.
224  2.23  0.  0.  0.
225  2.24  0.  0.  0.
226  2.25  0.  0.  0.
227  2.26  0.  0.  0.
228  2.27  0.  0.  0.
229  2.28  0.  0.  0.
230  2.29  0.  0.  0.
231  2.30  0.  0.  0.
232  2.31  0.  0.  0.
233  2.32  0.  0.  0.
234  2.33  0.  0.  0.
235  2.34  0.  0.  0.
236  2.35  0.  0.  0.
237  2.36  0.  0.  0.
238  2.37  0.  0.  0.
239  2.38  0.  0.  0.
240  2.39  0.  0.  0.
241  2.40  0.  0.  0.
242  2.41  0.  0.  0.
243  2.42  0.  0.  0.
244  2.43  0.  0.  0.
245  2.44  0.  0.  0.
246  2.45  0.  0.  0.
247  2.46  0.  0.  0.
248  2.47  0.  0.  0.
249  2.48  0.  0.  0.
250  2.49  0.  0.  0.
251  2.50  0.  0.  0.
252  2.51  0.  0.  0.
253  2.52  0.  0.  0.
254  2.53  0.  0.  0.
255  2.54  0.  0.  0.
256  2.55  0.  0.  0.
257  2.56  0.  0.  0.
258  2.57  0.  0.  0.
259  2.58  0.  0.  0.
260  2.59  0.  0.  0.
261  2.60  0.  0.  0.
262  2.61  0.  0.  0.
263  2.62  0.  0.  0.
264  2.63  0.  0.  0.
265  2.64  0.  0.  0.
266  2.65  0.  0.  0.
267  2.66  0.  0.  0.
268  2.67  0.  0.  0.
269  2.68  0.  0.  0.
270  2.69  0.  0.  0.
271  2.70  0.  0.  0.
272  2.71  0.  0.  0.
273  2.72  0.  0.  0.
274  2.73  0.  0.  0.
275  2.74  0.  0.  0.
276  2.75  0.  0.  0.
277  2.76  0.  0.  0.
278  2.77  0.  0.  0.
279  2.78  0.  0.  0.
280  2.79  0.  0.  0.
281  2.80  0.  0.  0.
282  2.81  0.  0.  0.
283  2.82  0.  0.  0.
284  2.83  0.  0.  0.
285  2.84  0.  0.  0.
286  2.85  0.  0.  0.
287  2.86  0.  0.  0.
288  2.87  0.  0.  0.
289  2.88  0.  0.  0.
290  2.89  0.  0.  0.
291  2.90  0.  0.  0.
292  2.91  0.  0.  0.
293  2.92  0.  0.  0.
294  2.93  0.  0.  0.
295  2.94  0.  0.  0.
296  2.95  0.  0.  0.
297  2.96  0.  0.  0.
298  2.97  0.  0.  0.
299  2.98  0.  0.  0.
300  2.99  0.  0.  0.
301  3.00  0.  0.  0.
302  3.01  0.  0.  0.
303  3.02  0.  0.  0.
304  3.03  0.  0.  0.
305  3.04  0.  0.  0.
306  3.05  0.  0.  0.
307  3.06  0.  0.  0.
308  3.07  0.  0.  0.
309  3.08  0.  0.  0.
310  3.09  0.  0.  0.
311  3.10  0.  0.  0.
312  3.11  0.  0.  0.
313  3.12  0.  0.  0.
314  3.13  0.  0.  0.
315  3.14  0.  0.  0.
316  3.15  0.  0.  0.
317  3.16  0.  0.  0.
318  3.17  0.  0.  0.
319  3.18  0.  0.  0.
320  3.19  0.  0.  0.
321  3.20  0.  0.  0.
322  3.21  0.  0.  0.
323  3.22  0.  0.  0.
324  3.23  0.  0.  0.
325  3.24  0.  0.  0.
326  3.25  0.  0.  0.
327  3.26  0.  0.  0.
328  3.27  0.  0.  0.
329  3.28  0.  0.  0.
330  3.29  0.  0.  0.
331  3.30  0.  0.  0.
332  3.31  0.  0.  0.
333  3.32  0.  0.  0.
334  3.33  0.  0.  0.
335  3.34  0.  0.  0.
336  3.35  0.  0.  0.
337  3.36  0.  0.  0.
338  3.37  0.  0.  0.
339  3.38  0.  0.  0.
340  3.39  0.  0.  0.
341  3.40  0.  0.  0.
342  3.41  0.  0.  0.
343  3.42  0.  0.  0.
344  3.43  0.  0.  0.
345  3.44  0.  0.  0.
346  3.45  0.  0.  0.
347  3.46  0.  0.  0.
348  3.47  0.  0.  0.
349  3.48  0.  0.  0.
350  3.49  0.  0.  0.
351  3.50  0.  0.  0.
352  3.51  0.  0.  0.
353  3.52  0.  0.  0.
354  3.53  0.  0.  0.
355  3.54  0.  0.  0.
356  3.55  0.  0.  0.
357  3.56  0.  0.  0.
358  3.57  0.  0.  0.
359  3.58  0.  0.  0.
360  3.59  0.  0.  0.
361  3.60  0.  0.  0.
362  3.61  0.  0.  0.
363  3.62  0.  0.  0.
364  3.63  0.  0.  0.
365  3.64  0.  0.  0.
366  3.65  0.  0.  0.
367  3.66  0.  0.  0.
368  3.67  0.  0.  0.
369  3.68  0.  0.  0.
370  3.69  0.  0.  0.
371  3.70  0.  0.  0.
372  3.71  0.  0.  0.
373  3.72  0.  0.  0.
374  3.73  0.  0.  0.
375  3.74  0.  0.  0.
376  3.75  0.  0.  0.
377  3.76  0.  0.  0.
378  3.77  0.  0.  0.
379  3.78  0.  0.  0.
380  3.79  0.  0.  0.
381  3.80  0.  0.  0.
382  3.81  0.  0.  0.
383  3.82  0.  0.  0.
384  3.83  0.  0.  0.
385  3.84  0.  0.  0.
386  3.85  0.  0.  0.
387  3.86  0.  0.  0.
388  3.87  0.  0.  0.
389  3.88  0.  0.  0.
390  3.89  0.  0.  0.
391  3.90  0.  0.  0.
392  3.91  0.  0.  0.
393  3.92  0.  0.  0.
394  3.93  0.  0.  0.
395  3.94  0.  0.  0.
396  3.95  0.  0.  0.
397  3.96  0.  0.  0.
398  3.97  0.  0.  0.
399  3.98  0.  0.  0.
400  3.99  0.  0.  0.
401  4.00  0.  0.  0.
402  4.01  0.  0.  0.
403  4.02  0.  0.  0.
404  4.03  0.  0.  0.
405  4.04  0.  0.  0.
406  4.05  0.  0.  0.
407  4.06  0.  0.  0.
408  4.07  0.  0.  0.
409  4.08  0.  0.  0.
410  4.09  0.  0.  0.
411  4.10  0.  0.  0.
412  4.11  0.  0.  0.
413  4.12  0.  0.  0.
414  4.13  0.  0.  0.
415  4.14  0.  0.  0.
416  4.15  0.  0.  0.
417  4.16  0.  0.  0.
418  4.17  0.  0.  0.
419  4.18  0.  0.  0.
420  4.19  0.  0.  0.
421  4.20  0.  0.  0.
422  4.21  0.  0.  0.
423  4.22  0.  0.  0.
424  4.23  0.  0.  0.
425  4.24  0.  0.  0.
426  4.25  0.  0.  0.
427  4.26  0.  0.  0.
428  4.27  0.  0.  0.
429  4.28  0.  0.  0.
430  4.29  0.  0.  0.
431  4.30  0.  0.  0.
432  4.31  0.  0.  0.
433  4.32  0.  0.  0.
434  4.33  0.  0.  0.
435  4.34  0.  0.  0.
436  4.35  0.  0.  0.
437  4.36  0.  0.  0.
438  4.37  0.  0.  0.
439  4.38  0.  0.  0.
440  4.39  0.  0.  0.
441  4.40  0.  0.  0.
442  4.41  0.  0.  0.
443  4.42  0.  0.  0.
444  4.43  0.  0.  0.
445  4.44  0.  0.  0.
446  4.45  0.  0.  0.
447  4.46  0.  0.  0.
448  4.47  0.  0.  0.
449  4.48  0.  0.  0.
450  4.49  0.  0.  0.
451  4.50  0.  0.  0.
452  4.51  0.  0.  0.
453  4.52  0.  0.  0.
454  4.53  0.  0.  0.
455  4.54  0.  0.  0.
456  4.55  0.  0.  0.
457  4.56  0.  0.  0.
458  4.57  0.  0.  0.
459  4.58  0.  0.  0.
460  4.59  0.  0.  0.
461  4.60  0.  0.  0.
462  4.61  0.  0.  0.
463  4.62  0.  0.  0.
464  4.63  0.  0.  0.
465  4.64  0.  0.  0.
466  4.65  0.  0.  0.
467  4.66  0.  0.  0.
468  4.67  0.  0.  0.
469  4.68  0.  0.  0.
470  4.69  0.  0.  0.
471  4.70  0.  0.  0.
472  4.71  0.  0.  0.
473  4.72  0.  0.  0.
474  4.73  0.  0.  0.
475  4.74  0.  0.  0.
476  4.75  0.  0.  0.
477  4.76  0.  0.  0.
478  4.77  0.  0.  0.
479  4.78  0.  0.  0.
480  4.79  0.  0.  0.
481  4.80  0.  0.  0.
482  4.81  0.  0.  0.
483  4.82  0.  0.  0.
484  4.83  0.  0.  0.
485  4.84  0.  0.  0.
486  4.85  0.  0.  0.
487  4.86  0.  0.  0.
488  4.87  0.  0.  0.
489  4.88  0.  0.  0.
490  4.89  0.  0.  0.
491  4.90  0.  0.  0.
492  4.91  0.  0.  0.
493  4.92  0.  0.  0.
494  4.93  0.  0.  0.
495  4.94  0.  0.  0.
496  4.95  0.  0.  0.
497  4.96  0.  0.  0.
498  4.97  0.  0.  0.
499  4.98  0.  0.  0.
500  4.99  0.  0.  0.
501  5.00  0.  0.  0.
502  5.01  0.  0.  0.
503  5.02  0.  0.  0.
504  5.03  0.  0.  0.
505  5.04  0.  0.  0.
506  5.05  0.  0.  0.
507  5.06  0.  0.  0.
508  5.07  0.  0.  0.
509  5.08  0.  0.  0.
510  5.09  0.  0.  0.
511  5.10  0.  0.  0.
512  5.11  0.  0.  0.
513  5.12  0.  0.  0.
514  5.13  0.  0.  0.
515  5.14  0.  0.  0.
516  5.15  0.  0.  0.
517  5.16  0.  0.  0.
518  5.17  0.  0.  0.
519  5.18  0.  0.  0.
520  5.19  0.  0.  0.
521  5.20  0.  0.  0.
522  5.21  0.  0.  0.
523  5.22  0.  0.  0.
524  5.23  0.  0.  0.
525  5.24  0.  0.  0.
526  5.25  0.  0.  0.
527  5.26  0.  0.  0.
528  5.27  0.  0.  0.
529  5.28  0.  0.  0.
530  5.29  0.  0.  0.
531  5.30  0.  0.  0.
532  5.31  0.  0.  0.
533  5.32  0.  0.  0.
534  5.33  0.  0.  0.
535  5.34  0.  0.  0.
536  5.35  0.  0.  0.
537  5.36  0.  0.  0.
538  5.37  0.  0.  0.
539  5.38  0.  0.  0.
540  5.39  0.  0.  0.
541  5.40  0.  0.  0.
542  5.41  0.  0.  0.
543  5.42  0.  0.  0.
544  5.43  0.  0.  0.
545  5.44  0.  0.  0.
546  5.45  0.  0.  0.
547  5.46  0.  0.  0.
548  5.47  0.  0.  0.
549  5.48  0.  0.  0.
550  5.49  0.  0.  0.
551  5.50  0.  0.  0.
552  5.51  0.  0.  0.
553  5.52  0.  0.  0.
554  5.53  0.  0.  0.
555  5.54  0.  0.  0.
556  5.55  0.  0.  0.
557  5.56  0.  0.  0.
558  5.57  0.  0.  0.
559  5.58  0.  0.  0.
560  5.59  0.  0.  0.
561  5.60  0.  0.  0.
562  5.61  0.  0.  0.
563  5.62  0.  0.  0.
564  5.63  0.  0.  0.
565  5.64  0.  0.  0.
566  5.65  0.  0.  0.
567  5.66  0.  0.  0.
568  5.67  0.  0.  0.
569  5.68  0.  0.  0.
570  5.69  0.  0.  0.
571  5.70  0.  0.  0.
572  5.71  0.  0.  0.
573  5.72  0.  0.  0.
574  5.73  0.  0.  0.
575  5.74  0.  0.  0.
576  5.75  0.  0.  0.
577  5.76  0.  0.  0.
578  5.77  0.  0.  0.
579  5.78  0.  0.  0.
580  5.79  0.  0.  0.
581  5.80  0.  0.  0.
582  5.81  0.  0.  0.
583  5.82  0.  0.  0.
584  5.83  0.  0.  0.
585  5.84  0.  0.  0.
586  5.85  0.  0.  0.
587  5.86  0.  0.  0.
588  5.87  0.  0.  0.
589  5.88  0.  0.  0.
590  5.89  0.  0.  0.
591  5.90  0.  0.  0.
592  5.91  0.  0.  0.
593  5.92  0.  0.  0.
594  5.93  0.  0.  0.
595  5.94  0.  0.  0.
596  5.95  0.  0.  0.
597  5.96  0.  0.  0.
598  5.97  0.  0.  0.
599  5.98  0.  0.  0.
600  5.99  0.  0.  0.
1                        -1.0068422424491E+01  3.5346867139938E+00
1  0.0000000000000E+00  9.6294003049113E-09  1.1547756686991E-07
2  1.0000000000000E-02  3.3644926118197E-03  4.2168126835784E-03
3  2.0000000000000E-02  1.3427821228451E-02  1.6745386446697E-02
4  3.0000000000000E-02  3.0099898905527E-02  3.7223086208624E-02
5  4.0000000000000E-02  5.3231777406316E-02  6.5055306543533E-02
6  5.0000000000000E-02  8.2617422360774E-02  9.9429898064608E-02
7  6.0000000000000E-02  1.1799615920432E-01  1.3933686503221E-01
8  7.0000000000000E-02  1.5905575155781E-01  1.8359285103583E-01
9  8.0000000000000E-02  2.0543606408066E-01  2.3086981412202E-01
10  9.0000000000000E-02  2.5673325314837E-01  2.7972719325011E-01
11  1.0000000000000E-01  3.1250442113557E-01  3.2864678699489E-01
12  1.1000000000000E-01  3.7227266376294E-01  3.7606950498533E-01
13  1.2000000000000E-01  4.3553243499636E-01  4.2043311405736E-01
14  1.3000000000000E-01  5.0175515044413E-01  4.6021008526064E-01
15  1.4000000000000E-01  5.7039494812428E-01  4.9394465479464E-01
16  1.5000000000000E-01  6.4089452487675E-01  5.2028824110712E-01
17  1.6000000000000E-01  7.1269096754956E-01  5.3803241060256E-01
18  1.7000000000000E-01  7.8522150033795E-01  5.4613865393644E-01
19  1.8000000000000E-01  8.5792907321518E-01  5.4376432146543E-01
20  1.9000000000000E-01  9.3026772115189E-01  5.3028416739906E-01
21  2.0000000000000E-01  1.0017076296431E+00  5.0530706453705E-01
22  2.1000000000000E-01  1.0717398487953E+00  4.6868757191752E-01
23  2.2000000000000E-01  1.1398806057049E+00  4.2053216284323E-01
24  2.3000000000000E-01  1.2056751729042E+00  3.6120004717659E-01
25  2.4000000000000E-01  1.2687012590842E+00  2.9129864614150E-01
26  2.5000000000000E-01  1.3285718969431E+00  2.1167389696788E-01
27  2.6000000000000E-01  1.3849378116736E+00  1.2339567564929E-01
28  2.7000000000000E-01  1.4374892621301E+00  2.7738726281853E-02
29  2.8000000000000E-01  1.4859573549457E+00 -7.3840427241746E-02
30  2.9000000000000E-01  1.5301148396607E+00 -1.7973003870768E-01
31  3.0000000000000E-01  1.5697764001535E+00 -2.8819256085721E-01
32  3.1000000000000E-01  1.6047984642311E+00 -3.9739628472184E-01
33  3.2000000000000E-01  1.6350785590546E+00 -5.0544852761651E-01
34  3.3000000000000E-01  1.6605542450839E+00 -6.1042969316091E-01
35  3.4000000000000E-01  1.6812016653944E+00 -7.1042753514911E-01
36  3.5000000000000E-01  1.6970337505149E+00 -8.0357098006823E-01
37  3.6000000000000E-01  1.7080981213794E+00 -8.8806289907321E-01
38  3.7000000000000E-01  1.7144747345844E+00 -9.6221126746414E-01
39  3.8000000000000E-01  1.7162733149398E+00 -1.0244582061955E+00
40  3.9000000000000E-01  1.7136306203503E+00 -1.0734064635325E+00
41  4.0000000000000E-01  1.7067075834180E+00 -1.1078429634849E+00
42  4.1000000000000E-01  1.6956863728990E+00 -1.1267591189162E+00
43  4.2000000000000E-01  1.6807674163470E+00 -1.1293676791866E+00
44  4.3000000000000E-01  1.6621664230160E+00 -1.1151159529207E+00
45  4.4000000000000E-01  1.6401114434558E+00 -1.0836953142940E+00
46  4.5000000000000E-01  1.6148399992997E+00 -1.0350469646741E+00
47  4.6000000000000E-01  1.5865963135814E+00 -9.6936397936410E-01
48  4.7000000000000E-01  1.5556286686102E+00 -8.8708972076070E-01
49  4.8000000000000E-01  1.5221869150342E+00 -7.8891274392460E-01
50  4.9000000000000E-01  1.4865201522900E+00 -6.7575835817506E-01
51  5.0000000000000E-01  1.4488745972290E+00 -5.4877703896339E-01
52  5.1000000000000E-01  1.4094916543528E+00 -4.0932990832135E-01
53  5.2000000000000E-01  1.3686061978260E+00 -2.5897152023484E-01
54  5.3000000000000E-01  1.3264450722836E+00 -9.9430200155998E-02
55  5.4000000000000E-01  1.2832258164278E+00  6.7413803520223E-02
56  5.5000000000000E-01  1.2391556105306E+00  2.3955209280080E-01
57  5.6000000000000E-01  1.1944304462276E+00  4.1487355183343E-01
58  5.7000000000000E-01  1.1492345144088E+00  5.9119116854772E-01
59  5.8000000000000E-01  1.1037398045864E+00  7.6626997585273E-01
60  5.9000000000000E-01  1.0581059068435E+00  9.3785583958545E-01
61  6.0000000000000E-01  1.0124800053474E+00  1.1037048167086E+00
62  6.1000000000000E-01  9.6699705044056E-01  1.2616128018861E+00
63  6.2000000000000E-01  9.2178009451570E-01  1.4094451733273E+00
64  6.3000000000000E-01  8.7694077523332E-01  1.5451661397279E+00
65  6.4000000000000E-01  8.3257992817120E-01  1.6668674795401E+00
66  6.5000000000000E-01  7.8878830971201E-01  1.7727963522131E+00
67  6.6000000000000E-01  7.4564740989728E-01  1.8613818491957E+00
68  6.7000000000000E-01  7.0323033412103E-01  1.9312599413351E+00
69  6.8000000000000E-01  6.6160273192612E-01  1.9812964699070E+00
70  6.9000000000000E-01  6.2082375082211E-01  2.0106078220644E+00
71  7.0000000000000E-01  5.8094699298681E-01  2.0185789292032E+00
72  7.1000000000000E-01  5.4202145296449E-01  2.0048782298265E+00
73  7.2000000000000E-01  5.0409241504865E-01  1.9694692480584E+00
74  7.3000000000000E-01  4.6720228994754E-01  1.9126184559971E+00
75  7.4000000000000E-01  4.3139137158391E-01  1.8348991133916E+00
76  7.5000000000000E-01  3.9669849647294E-01  1.7371908121866E+00
77  7.6000000000000E-01  3.6316159004690E-01  1.6206744965596E+00
78  7.7000000000000E-01  3.3081808652959E-01  1.4868227810356E+00
79  7.8000000000000E-01  2.9970521148241E-01  1.3373854496689E+00
80  7.9000000000000E-01  2.6986011890432E-01  1.1743700872744E+00
81  8.0000000000000E-01  2.4131987772468E-01  1.0000178680889E+00
82  8.1000000000000E-01  2.1412130562026E-01  8.1677460649640E-01
83  8.2000000000000E-01  1.8830065125142E-01  6.2725725670500E-01
84  8.3000000000000E-01  1.6389312917423E-01  4.3421613142167E-01
85  8.4000000000000E-01  1.4093231476851E-01  2.4049319130720E-01
86  8.5000000000000E-01  1.1944940944678E-01  4.8976834892751E-02
87  8.6000000000000E-01  9.9472389096518E-02 -1.3744630977618E-01
88  8.7000000000000E-01  8.1025051082369E-02 -3.1594202763877E-01
89  8.8000000000000E-01  6.4125977123641E-02 -4.8378097727119E-01
90  8.9000000000000E-01  4.8787430905245E-02 -6.3839231486583E-01
91  9.0000000000000E-01  3.5014210324329E-02 -7.7741780260219E-01
92  9.1000000000000E-01  2.2802474782966E-02 -8.9876571440365E-01
93  9.2000000000000E-01  1.2138567887497E-02 -1.0006638608331E+00
94  9.3000000000000E-01  2.9978553012778E-03 -1.0817110807841E+00
95  9.4000000000000E-01 -4.6564036665216E-03 -1.1409265903594E+00
96  9.5000000000000E-01 -1.0874133837121E-02 -1.1777966380462E+00
97  9.6000000000000E-01 -1.5719456558624E-02 -1.1923179885567E+00
98  9.7000000000000E-01 -1.9271624535183E-02 -1.1850378434740E+00
99  9.8000000000000E-01 -2.1625869781132E-02 -1.1570899026832E+00
100  9.9000000000000E-01 -2.2894159563242E-02 -1.1102264102359E+00
101  1.0000000000000E+00 -2.3205846906077E-02 -1.0468457366388E+00
102  1.0100000000000E+00 -2.2707533839198E-02 -9.6999176838062E-01
103  1.0200000000000E+00 -2.1553514357693E-02 -8.8302810934998E-01
104  1.0300000000000E+00 -1.9893411219715E-02 -7.8922925680344E-01
105  1.0400000000000E+00 -1.7869116503698E-02 -6.9170254725857E-01
106  1.0500000000000E+00 -1.5613058001403E-02 -5.9335340835458E-01
107  1.0600000000000E+00 -1.3246627711426E-02 -4.9685288099684E-01
108  1.0700000000000E+00 -1.0878767935103E-02 -4.0460737163946E-01
109  1.0800000000000E+00 -8.6047229398755E-03 -3.1873108496620E-01
110  1.0900000000000E+00 -6.5049623885180E-03 -2.4102112202127E-01
111  1.1000000000000E+00 -4.6441083233965E-03 -1.7291893554568E-01
112  1.1100000000000E+00 -3.0695241715009E-03 -1.1531783968623E-01
113  1.1200000000000E+00 -1.8152714529685E-03 -6.9076610632838E-02
114  1.1300000000000E+00 -8.9686961858801E-04 -3.4718664033198E-02
115  1.1400000000000E+00 -3.1054426014781E-04 -1.2291505572349E-02
116  1.1500000000000E+00 -3.5382524470042E-05 -1.4413621335745E-03
117  1.1600000000000E+00  1.8107305660318E-06  7.5356573512913E-05
118  1.1700000000000E+00  7.4827805680655E-08  3.0287799183767E-06
119  1.18 -0.  0.
120  1.19  0.  0.
121  1.20  0.  0.
122  1.21  0.  0.
123  1.22  0.  0.
124  1.23  0.  0.
125  1.24  0.  0.
126  1.25  0.  0.
127  1.26  0.  0.
128  1.27  0.  0.
129  1.28  0.  0.
130  1.29  0.  0.
131  1.30  0.  0.
132  1.31  0.  0.
133  1.32  0.  0.
134  1.33  0.  0.
135  1.34  0.  0.
136  1.35  0.  0.
137  1.36  0.  0.
138  1.37  0.  0.
139  1.38  0.  0.
140  1.39  0.  0.
141  1.40  0.  0.
142  1.41  0.  0.
143  1.42  0.  0.
144  1.43  0.  0.
145  1.44  0.  0.
146  1.45  0.  0.
147  1.46  0.  0.
148  1.47  0.  0.
149  1.48  0.  0.
150  1.49  0.  0.
151  1.50  0.  0.
152  1.51  0.  0.
153  1.52  0.  0.
154  1.53  0.  0.
155  1.54  0.  0.
156  1.55  0.  0.
157  1.56  0.  0.
158  1.57  0.  0.
159  1.58  0.  0.
160  1.59  0.  0.
161  1.60  0.  0.
162  1.61  0.  0.
163  1.62  0.  0.
164  1.63  0.  0.
165  1.64  0.  0.