Rg    ONCVPSP-4.0.1  r_core=   1.10118   1.10118   1.10118   1.10118
111.0000     51.0000      220308    zatom,zion,pspd
8      11   3     4   600     0    pspcod,pspxc,lmax,lloc,mmax,r2well
5.99000000  5.00000000  0.00000000    rchrg fchrg qchrg
3     3     2     2    nproj
3     1           extension_switch
4     3     3    nprojso
0                        -1.6830040022668E+01  8.0731378944527E+00 -6.7628897671165E-01
1  0.0000000000000E+00 -2.2434613056177E-09  9.4039291242964E-08 -7.0621971881568E-08
2  1.0000000000000E-02  8.5440810138111E-02  1.7332213042933E-01 -9.5620012416126E-03
3  2.0000000000000E-02  1.7063932260166E-01  3.4503624972131E-01 -1.9302992404288E-02
4  3.0000000000000E-02  2.5535440819637E-01  5.1354387293813E-01 -2.9395290881525E-02
5  4.0000000000000E-02  3.3934725847789E-01  6.7726589397492E-01 -3.9998208567164E-02
6  5.0000000000000E-02  4.2238250623707E-01  8.3465306382225E-01 -5.1252377444358E-02
7  6.0000000000000E-02  5.0422929986991E-01  9.8419734071598E-01 -6.3275012838790E-02
8  7.0000000000000E-02  5.8466231908779E-01  1.1244442827931E+00 -7.6156336511258E-02
9  8.0000000000000E-02  6.6346272166764E-01  1.2540065598332E+00 -8.9957311142793E-02
10  9.0000000000000E-02  7.4041901353081E-01  1.3715785536052E+00 -1.0470875759781E-01
11  1.0000000000000E-01  8.1532783724809E-01  1.4759519024382E+00 -1.2041184137690E-01
12  1.1000000000000E-01  8.8799467695803E-01  1.5660317315519E+00 -1.3703982995449E-01
13  1.2000000000000E-01  9.5823448051440E-01  1.6408532031844E+00 -1.5454094334439E-01
14  1.3000000000000E-01  1.0258722023093E+00  1.6995979262185E+00 -1.7284205111110E-01
15  1.4000000000000E-01  1.0907432725221E+00  1.7416096897644E+00 -1.9185291448394E-01
16  1.5000000000000E-01  1.1526940004099E+00  1.7664089341178E+00 -2.1147063580617E-01
17  1.6000000000000E-01  1.2115819205948E+00  1.7737053495261E+00 -2.3158396183828E-01
18  1.7000000000000E-01  1.2672760920531E+00  1.7634080007870E+00 -2.5207709387670E-01
19  1.8000000000000E-01  1.3196573596384E+00  1.7356324147974E+00 -2.7283268643473E-01
20  1.9000000000000E-01  1.3686185874818E+00  1.6907041380949E+00 -2.9373376627232E-01
21  2.0000000000000E-01  1.4140648725228E+00  1.6291583699039E+00 -3.1466437252735E-01
22  2.1000000000000E-01  1.4559137448179E+00  1.5517353994005E+00 -3.3550880311149E-01
23  2.2000000000000E-01  1.4940953592190E+00  1.4593717186822E+00 -3.5614944794124E-01
24  2.3000000000000E-01  1.5285526806366E+00  1.3531868389957E+00 -3.7646329076835E-01
25  2.4000000000000E-01  1.5592416625282E+00  1.2344660000411E+00 -3.9631726266006E-01
26  2.5000000000000E-01  1.5861314156223E+00  1.1046391230638E+00 -4.1556272566363E-01
27  2.6000000000000E-01  1.6092043613509E+00  9.6525651028266E-01 -4.3402944911103E-01
28  2.7000000000000E-01  1.6284563621584E+00  8.1796192858092E-01 -4.5151950804054E-01
29  2.8000000000000E-01  1.6438968189190E+00  6.6446382752900E-01 -4.6780157874054E-01
30  2.9000000000000E-01  1.6555487242436E+00  5.0650552493265E-01 -4.8260612685523E-01
31  3.0000000000000E-01  1.6634486595800E+00  3.4583524270094E-01 -4.9562197646279E-01
32  3.1000000000000E-01  1.6676467237853E+00  1.8417688891907E-01 -5.0649471304960E-01
33  3.2000000000000E-01  1.6682063812951E+00  2.3202457296192E-02 -5.1482730984896E-01
34  3.3000000000000E-01  1.6652042191489E+00 -1.3549314688081E-01 -5.2018327757933E-01
35  3.4000000000000E-01  1.6587296039134E+00 -2.9041414226188E-01 -5.2209252564189E-01
36  3.5000000000000E-01  1.6488842319132E+00 -4.4018218460700E-01 -5.2005999306815E-01
37  3.6000000000000E-01  1.6357815690415E+00 -5.8355052764977E-01 -5.1357696581827E-01
38  3.7000000000000E-01  1.6195461796550E+00 -7.1941377437842E-01 -5.0213485013594E-01
39  3.8000000000000E-01  1.6003129475255E+00 -8.4681314525787E-01 -4.8524102683585E-01
40  3.9000000000000E-01  1.5782261953625E+00 -9.6493737643621E-01 -4.6243627609210E-01
41  4.0000000000000E-01  1.5534387128850E+00 -1.0731195416146E+00 -4.3331314380313E-01
42  4.1000000000000E-01  1.5261107066396E+00 -1.1708302575752E+00 -3.9753452568023E-01
43  4.2000000000000E-01  1.4964086875853E+00 -1.2576678774994E+00 -3.5485167970771E-01
44  4.3000000000000E-01  1.4645043147631E+00 -1.3333463912740E+00 -3.0512084620305E-01
45  4.4000000000000E-01  1.4305732150176E+00 -1.3976818323678E+00 -2.4831766054705E-01
46  4.5000000000000E-01  1.3947937996602E+00 -1.4505780325536E+00 -1.8454858825407E-01
47  4.6000000000000E-01  1.3573460990990E+00 -1.4920125665072E+00 -1.1405869510165E-01
48  4.7000000000000E-01  1.3184106358000E+00 -1.5220236878413E+00 -3.7235184374526E-02
49  4.8000000000000E-01  1.2781673544892E+00 -1.5406989780503E+00  4.5393715071884E-02
50  4.9000000000000E-01  1.2367946263313E+00 -1.5481663137275E+00  1.3316474791799E-01
51  5.0000000000000E-01  1.1944683409923E+00 -1.5445876105623E+00  2.2529055880703E-01
52  5.1000000000000E-01  1.1513610971487E+00 -1.5301556318954E+00  3.2087537718065E-01
53  5.2000000000000E-01  1.1076414982717E+00 -1.5050939630786E+00  4.1893508045852E-01
54  5.3000000000000E-01  1.0634735565656E+00 -1.4696600595077E+00  5.1842105182631E-01
55  5.4000000000000E-01  1.0190162039398E+00 -1.4241510853830E+00  6.1824706226896E-01
56  5.5000000000000E-01  9.7442290502673E-01 -1.3689120814323E+00  7.1731824602793E-01
57  5.6000000000000E-01  9.2984136368866E-01 -1.3043458420220E+00  8.1456111261651E-01
58  5.7000000000000E-01  8.8541331135986E-01 -1.2309237534419E+00  9.0895345385544E-01
59  5.8000000000000E-01  8.4127436306737E-01 -1.1491967525912E+00  9.9955296641167E-01
60  5.9000000000000E-01  7.9755392519734E-01 -1.0598055141333E+00  1.0855234224172E+00
61  6.0000000000000E-01  7.5437513809412E-01 -9.6348896788479E-01  1.1661572841497E+00
62  6.1000000000000E-01  7.1185483644811E-01 -8.6109028812619E-01  1.2408937724359E+00
63  6.2000000000000E-01  6.7010351115142E-01 -7.5355958191849E-01  1.3093315590747E+00
64  6.3000000000000E-01  6.2922525784741E-01 -6.4195263140419E-01  1.3712354556322E+00
65  6.4000000000000E-01  5.8931769969970E-01 -5.2742521047566E-01  1.4265367068928E+00
66  6.5000000000000E-01  5.5047187485411E-01 -4.1122269219338E-01  1.4753267577456E+00
67  6.6000000000000E-01  5.1277208252663E-01 -2.9466488146414E-01  1.5178446366865E+00
68  6.7000000000000E-01  4.7629568545925E-01 -1.7912623801434E-01  1.5544583757839E+00
69  6.8000000000000E-01  4.4111287046474E-01 -6.6011887096321E-02  1.5856411538310E+00
70  6.9000000000000E-01  4.0728637274138E-01  4.3269961204562E-02  1.6119430944928E+00
71  7.0000000000000E-01  3.7487117338653E-01  1.4733835947303E-01  1.6339598631368E+00
72  7.1000000000000E-01  3.4391418289221E-01  2.4487173869497E-01  1.6522993744738E+00
73  7.2000000000000E-01  3.1445392619565E-01  3.3464065834523E-01  1.6675480394446E+00
74  7.3000000000000E-01  2.8652024694059E-01  4.1553996771884E-01  1.6802380373684E+00
75  7.4000000000000E-01  2.6013404986539E-01  4.8661911768028E-01  1.6908170939746E+00
76  7.5000000000000E-01  2.3530710059505E-01  5.4710937903760E-01  1.6996221759904E+00
77  7.6000000000000E-01  2.1204190153733E-01  5.9644679637757E-01  1.7068583796052E+00
78  7.7000000000000E-01  1.9033166107426E-01  6.3428983273540E-01  1.7125840973969E+00
79  7.8000000000000E-01  1.7016037084637E-01  6.6053083678950E-01  1.7167033028403E+00
80  7.9000000000000E-01  1.5150300273782E-01  6.7530068385422E-01  1.7189655025319E+00
81  8.0000000000000E-01  1.3432583331247E-01  6.7896619624280E-01  1.7189735850212E+00
82  8.1000000000000E-01  1.1858689908426E-01  6.7212022718904E-01  1.7161994547385E+00
83  8.2000000000000E-01  1.0423658131502E-01  6.5556458380731E-01  1.7100069941139E+00
84  8.3000000000000E-01  9.1218314222586E-02  6.3028625599760E-01  1.6996815614633E+00
85  8.4000000000000E-01  7.9469405763917E-02  5.9742769696039E-01  1.6844649213463E+00
86  8.5000000000000E-01  6.8921955743776E-02  5.5825215453364E-01  1.6635942320297E+00
87  8.6000000000000E-01  5.9503852090087E-02  5.1410526920050E-01  1.6363434942562E+00
88  8.7000000000000E-01  5.1139822915229E-02  4.6637432401690E-01  1.6020657076712E+00
89  8.8000000000000E-01  4.3752519601327E-02  4.1644664541387E-01  1.5602338945623E+00
90  8.9000000000000E-01  3.7263604726350E-02  3.6566870565701E-01  1.5104791407321E+00
91  9.0000000000000E-01  3.1594818263698E-02  3.1530746411025E-01  1.4526238729486E+00
92  9.1000000000000E-01  2.6668996173414E-02  2.6651540457294E-01  1.3867087407243E+00
93  9.2000000000000E-01  2.2411017243201E-02  2.2030058195350E-01  1.3130116930650E+00
94  9.3000000000000E-01  1.8748656770016E-02  1.7750278836890E-01  1.2320581308909E+00
95  9.4000000000000E-01  1.5613329291044E-02  1.3877669407207E-01  1.1446213626362E+00
96  9.5000000000000E-01  1.2940706928081E-02  1.0458252248437E-01  1.0517129809668E+00
97  9.6000000000000E-01  1.0671204821101E-02  7.5184492975175E-02  9.5456319751596E-01
98  9.7000000000000E-01  8.7503303840350E-03  5.0656923559227E-02  8.5459160308542E-01
99  9.8000000000000E-01  7.1288984946250E-03  3.0897542650984E-02  7.5336924546937E-01
100  9.9000000000000E-01  5.7631199938918E-03  1.5647229353397E-02  6.5257331797418E-01
101  1.0000000000000E+00  4.6145757933219E-03  4.5150995450371E-03  5.5393611208481E-01
102  1.0100000000000E+00  3.6500932478643E-03 -2.9924060646954E-03  4.5919019150615E-01
103  1.0200000000000E+00  2.8415450588017E-03 -7.4399840790769E-03  3.7001197852698E-01
104  1.0300000000000E+00  2.1655952086495E-03 -9.4311927649263E-03  2.8796609922022E-01
105  1.0400000000000E+00  1.6034049580157E-03 -9.5770653740764E-03  2.1445285698181E-01
106  1.0500000000000E+00  1.1390262420833E-03 -8.4560543864414E-03  1.5065900525534E-01
107  1.0600000000000E+00  7.5190622664331E-04 -6.5141635560503E-03  9.7500990357739E-02
108  1.0700000000000E+00  4.4040755232832E-04 -4.2646338017042E-03  5.5639057700016E-02
109  1.0800000000000E+00  2.0804123491815E-04 -2.1824859819377E-03  2.5446972154733E-02
110  1.0900000000000E+00  5.9268137125609E-05 -6.5780727318868E-04  6.9753928921041E-03
111  1.1000000000000E+00  1.4643058174867E-06 -1.6918768215170E-05  1.6317336593659E-04
112  1.1100000000000E+00  2.9248927949176E-07 -3.3791828145179E-06  3.3192461768060E-05
113  1.1200000000000E+00 -2.5832217846357E-08  2.9293338280791E-07 -2.9889567401576E-06
114  1.13  0.  0.  0.
115  1.14  0.  0.  0.
116  1.15  0.  0.  0.
117  1.16  0.  0.  0.
118  1.17  0.  0.  0.
119  1.18  0.  0.  0.
120  1.19  0.  0.  0.
121  1.20  0.  0.  0.
122  1.21  0.  0.  0.
123  1.22  0.  0.  0.
124  1.23  0.  0.  0.
125  1.24  0.  0.  0.
126  1.25  0.  0.  0.
127  1.26  0.  0.  0.
128  1.27  0.  0.  0.
129  1.28  0.  0.  0.
130  1.29  0.  0.  0.
131  1.30  0.  0.  0.
132  1.31  0.  0.  0.
133  1.32  0.  0.  0.
134  1.33  0.  0.  0.
135  1.34  0.  0.  0.
136  1.35  0.  0.  0.
137  1.36  0.  0.  0.
138  1.37  0.  0.  0.
139  1.38  0.  0.  0.
140  1.39  0.  0.  0.
141  1.40  0.  0.  0.
142  1.41  0.  0.  0.
143  1.42  0.  0.  0.
144  1.43  0.  0.  0.
145  1.44  0.  0.  0.
146  1.45  0.  0.  0.
147  1.46  0.  0.  0.
148  1.47  0.  0.  0.
149  1.48  0.  0.  0.
150  1.49  0.  0.  0.
151  1.50  0.  0.  0.
152  1.51  0.  0.  0.
153  1.52  0.  0.  0.
154  1.53  0.  0.  0.
155  1.54  0.  0.  0.
156  1.55  0.  0.  0.
157  1.56  0.  0.  0.
158  1.57  0.  0.  0.
159  1.58  0.  0.  0.
160  1.59  0.  0.  0.
161  1.60  0.  0.  0.
162  1.61  0.  0.  0.
163  1.62  0.  0.  0.
164  1.63  0.  0.  0.
165  1.64  0.  0.  0.
166  1.65  0.  0.  0.
167  1.66  0.  0.  0.
168  1.67  0.  0.  0.
169  1.68  0.  0.  0.
170  1.69  0.  0.  0.
171  1.70  0.  0.  0.
172  1.71  0.  0.  0.
173  1.72  0.  0.  0.
174  1.73  0.  0.  0.
175  1.74  0.  0.  0.
176  1.75  0.  0.  0.
177  1.76  0.  0.  0.
178  1.77  0.  0.  0.
179  1.78  0.  0.  0.
180  1.79  0.  0.  0.
181  1.80  0.  0.  0.
182  1.81  0.  0.  0.
183  1.82  0.  0.  0.
184  1.83  0.  0.  0.
185  1.84  0.  0.  0.
186  1.85  0.  0.  0.
187  1.86  0.  0.  0.
188  1.87  0.  0.  0.
189  1.88  0.  0.  0.
190  1.89  0.  0.  0.
191  1.90  0.  0.  0.
192  1.91  0.  0.  0.
193  1.92  0.  0.  0.
194  1.93  0.  0.  0.
195  1.94  0.  0.  0.
196  1.95  0.  0.  0.
197  1.96  0.  0.  0.
198  1.97  0.  0.  0.
199  1.98  0.  0.  0.
200  1.99  0.  0.  0.
201  2.00  0.  0.  0.
202  2.01  0.  0.  0.
203  2.02  0.  0.  0.
204  2.03  0.  0.  0.
205  2.04  0.  0.  0.
206  2.05  0.  0.  0.
207  2.06  0.  0.  0.
208  2.07  0.  0.  0.
209  2.08  0.  0.  0.
210  2.09  0.  0.  0.
211  2.10  0.  0.  0.
212  2.11  0.  0.  0.
213  2.12  0.  0.  0.
214  2.13  0.  0.  0.
215  2.14  0.  0.  0.
216  2.15  0.  0.  0.
217  2.16  0.  0.  0.
218  2.17  0.  0.  0.
219  2.18  0.  0.  0.
220  2.19  0.  0.  0.
221  2.20  0.  0.  0.
222  2.21  0.  0.  0.
223  2.22  0.  0.  0.
224  2.23  0.  0.  0.
225  2.24  0.  0.  0.
226  2.25  0.  0.  0.
227  2.26  0.  0.  0.
228  2.27  0.  0.  0.
229  2.28  0.  0.  0.
230  2.29  0.  0.  0.
231  2.30  0.  0.  0.
232  2.31  0.  0.  0.
233  2.32  0.  0.  0.
234  2.33  0.  0.  0.
235  2.34  0.  0.  0.
236  2.35  0.  0.  0.
237  2.36  0.  0.  0.
238  2.37  0.  0.  0.
239  2.38  0.  0.  0.
240  2.39  0.  0.  0.
241  2.40  0.  0.  0.
242  2.41  0.  0.  0.
243  2.42  0.  0.  0.
244  2.43  0.  0.  0.
245  2.44  0.  0.  0.
246  2.45  0.  0.  0.
247  2.46  0.  0.  0.
248  2.47  0.  0.  0.
249  2.48  0.  0.  0.
250  2.49  0.  0.  0.
251  2.50  0.  0.  0.
252  2.51  0.  0.  0.
253  2.52  0.  0.  0.
254  2.53  0.  0.  0.
255  2.54  0.  0.  0.
256  2.55  0.  0.  0.
257  2.56  0.  0.  0.
258  2.57  0.  0.  0.
259  2.58  0.  0.  0.
260  2.59  0.  0.  0.
261  2.60  0.  0.  0.
262  2.61  0.  0.  0.
263  2.62  0.  0.  0.
264  2.63  0.  0.  0.
265  2.64  0.  0.  0.
266  2.65  0.  0.  0.
267  2.66  0.  0.  0.
268  2.67  0.  0.  0.
269  2.68  0.  0.  0.
270  2.69  0.  0.  0.
271  2.70  0.  0.  0.
272  2.71  0.  0.  0.
273  2.72  0.  0.  0.
274  2.73  0.  0.  0.
275  2.74  0.  0.  0.
276  2.75  0.  0.  0.
277  2.76  0.  0.  0.
278  2.77  0.  0.  0.
279  2.78  0.  0.  0.
280  2.79  0.  0.  0.
281  2.80  0.  0.  0.
282  2.81  0.  0.  0.
283  2.82  0.  0.  0.
284  2.83  0.  0.  0.
285  2.84  0.  0.  0.
286  2.85  0.  0.  0.
287  2.86  0.  0.  0.
288  2.87  0.  0.  0.
289  2.88  0.  0.  0.
290  2.89  0.  0.  0.
291  2.90  0.  0.  0.
292  2.91  0.  0.  0.
293  2.92  0.  0.  0.
294  2.93  0.  0.  0.
295  2.94  0.  0.  0.
296  2.95  0.  0.  0.
297  2.96  0.  0.  0.
298  2.97  0.  0.  0.
299  2.98  0.  0.  0.
300  2.99  0.  0.  0.
301  3.00  0.  0.  0.
302  3.01  0.  0.  0.
303  3.02  0.  0.  0.
304  3.03  0.  0.  0.
305  3.04  0.  0.  0.
306  3.05  0.  0.  0.
307  3.06  0.  0.  0.
308  3.07  0.  0.  0.
309  3.08  0.  0.  0.
310  3.09  0.  0.  0.
311  3.10  0.  0.  0.
312  3.11  0.  0.  0.
313  3.12  0.  0.  0.
314  3.13  0.  0.  0.
315  3.14  0.  0.  0.
316  3.15  0.  0.  0.
317  3.16  0.  0.  0.
318  3.17  0.  0.  0.
319  3.18  0.  0.  0.
320  3.19  0.  0.  0.
321  3.20  0.  0.  0.
322  3.21  0.  0.  0.
323  3.22  0.  0.  0.
324  3.23  0.  0.  0.
325  3.24  0.  0.  0.
326  3.25  0.  0.  0.
327  3.26  0.  0.  0.
328  3.27  0.  0.  0.
329  3.28  0.  0.  0.
330  3.29  0.  0.  0.
331  3.30  0.  0.  0.
332  3.31  0.  0.  0.
333  3.32  0.  0.  0.
334  3.33  0.  0.  0.
335  3.34  0.  0.  0.
336  3.35  0.  0.  0.
337  3.36  0.  0.  0.
338  3.37  0.  0.  0.
339  3.38  0.  0.  0.
340  3.39  0.  0.  0.
341  3.40  0.  0.  0.
342  3.41  0.  0.  0.
343  3.42  0.  0.  0.
344  3.43  0.  0.  0.
345  3.44  0.  0.  0.
346  3.45  0.  0.  0.
347  3.46  0.  0.  0.
348  3.47  0.  0.  0.
349  3.48  0.  0.  0.
350  3.49  0.  0.  0.
351  3.50  0.  0.  0.
352  3.51  0.  0.  0.
353  3.52  0.  0.  0.
354  3.53  0.  0.  0.
355  3.54  0.  0.  0.
356  3.55  0.  0.  0.
357  3.56  0.  0.  0.
358  3.57  0.  0.  0.
359  3.58  0.  0.  0.
360  3.59  0.  0.  0.
361  3.60  0.  0.  0.
362  3.61  0.  0.  0.
363  3.62  0.  0.  0.
364  3.63  0.  0.  0.
365  3.64  0.  0.  0.
366  3.65  0.  0.  0.
367  3.66  0.  0.  0.
368  3.67  0.  0.  0.
369  3.68  0.  0.  0.
370  3.69  0.  0.  0.
371  3.70  0.  0.  0.
372  3.71  0.  0.  0.
373  3.72  0.  0.  0.
374  3.73  0.  0.  0.
375  3.74  0.  0.  0.
376  3.75  0.  0.  0.
377  3.76  0.  0.  0.
378  3.77  0.  0.  0.
379  3.78  0.  0.  0.
380  3.79  0.  0.  0.
381  3.80  0.  0.  0.
382  3.81  0.  0.  0.
383  3.82  0.  0.  0.
384  3.83  0.  0.  0.
385  3.84  0.  0.  0.
386  3.85  0.  0.  0.
387  3.86  0.  0.  0.
388  3.87  0.  0.  0.
389  3.88  0.  0.  0.
390  3.89  0.  0.  0.
391  3.90  0.  0.  0.
392  3.91  0.  0.  0.
393  3.92  0.  0.  0.
394  3.93  0.  0.  0.
395  3.94  0.  0.  0.
396  3.95  0.  0.  0.
397  3.96  0.  0.  0.
398  3.97  0.  0.  0.
399  3.98  0.  0.  0.
400  3.99  0.  0.  0.
401  4.00  0.  0.  0.
402  4.01  0.  0.  0.
403  4.02  0.  0.  0.
404  4.03  0.  0.  0.
405  4.04  0.  0.  0.
406  4.05  0.  0.  0.
407  4.06  0.  0.  0.
408  4.07  0.  0.  0.
409  4.08  0.  0.  0.
410  4.09  0.  0.  0.
411  4.10  0.  0.  0.
412  4.11  0.  0.  0.
413  4.12  0.  0.  0.
414  4.13  0.  0.  0.
415  4.14  0.  0.  0.
416  4.15  0.  0.  0.
417  4.16  0.  0.  0.
418  4.17  0.  0.  0.
419  4.18  0.  0.  0.
420  4.19  0.  0.  0.
421  4.20  0.  0.  0.
422  4.21  0.  0.  0.
423  4.22  0.  0.  0.
424  4.23  0.  0.  0.
425  4.24  0.  0.  0.
426  4.25  0.  0.  0.
427  4.26  0.  0.  0.
428  4.27  0.  0.  0.
429  4.28  0.  0.  0.
430  4.29  0.  0.  0.
431  4.30  0.  0.  0.
432  4.31  0.  0.  0.
433  4.32  0.  0.  0.
434  4.33  0.  0.  0.
435  4.34  0.  0.  0.
436  4.35  0.  0.  0.
437  4.36  0.  0.  0.
438  4.37  0.  0.  0.
439  4.38  0.  0.  0.
440  4.39  0.  0.  0.
441  4.40  0.  0.  0.
442  4.41  0.  0.  0.
443  4.42  0.  0.  0.
444  4.43  0.  0.  0.
445  4.44  0.  0.  0.
446  4.45  0.  0.  0.
447  4.46  0.  0.  0.
448  4.47  0.  0.  0.
449  4.48  0.  0.  0.
450  4.49  0.  0.  0.
451  4.50  0.  0.  0.
452  4.51  0.  0.  0.
453  4.52  0.  0.  0.
454  4.53  0.  0.  0.
455  4.54  0.  0.  0.
456  4.55  0.  0.  0.
457  4.56  0.  0.  0.
458  4.57  0.  0.  0.
459  4.58  0.  0.  0.
460  4.59  0.  0.  0.
461  4.60  0.  0.  0.
462  4.61  0.  0.  0.
463  4.62  0.  0.  0.
464  4.63  0.  0.  0.
465  4.64  0.  0.  0.
466  4.65  0.  0.  0.
467  4.66  0.  0.  0.
468  4.67  0.  0.  0.
469  4.68  0.  0.  0.
470  4.69  0.  0.  0.
471  4.70  0.  0.  0.
472  4.71  0.  0.  0.
473  4.72  0.  0.  0.
474  4.73  0.  0.  0.
475  4.74  0.  0.  0.
476  4.75  0.  0.  0.
477  4.76  0.  0.  0.
478  4.77  0.  0.  0.
479  4.78  0.  0.  0.
480  4.79  0.  0.  0.
481  4.80  0.  0.  0.
482  4.81  0.  0.  0.
483  4.82  0.  0.  0.
484  4.83  0.  0.  0.
485  4.84  0.  0.  0.
486  4.85  0.  0.  0.
487  4.86  0.  0.  0.
488  4.87  0.  0.  0.
489  4.88  0.  0.  0.
490  4.89  0.  0.  0.
491  4.90  0.  0.  0.
492  4.91  0.  0.  0.
493  4.92  0.  0.  0.
494  4.93  0.  0.  0.
495  4.94  0.  0.  0.
496  4.95  0.  0.  0.
497  4.96  0.  0.  0.
498  4.97  0.  0.  0.
499  4.98  0.  0.  0.
500  4.99  0.  0.  0.
501  5.00  0.  0.  0.
502  5.01  0.  0.  0.
503  5.02  0.  0.  0.
504  5.03  0.  0.  0.
505  5.04  0.  0.  0.
506  5.05  0.  0.  0.
507  5.06  0.  0.  0.
508  5.07  0.  0.  0.
509  5.08  0.  0.  0.
510  5.09  0.  0.  0.
511  5.10  0.  0.  0.
512  5.11  0.  0.  0.
513  5.12  0.  0.  0.
514  5.13  0.  0.  0.
515  5.14  0.  0.  0.
516  5.15  0.  0.  0.
517  5.16  0.  0.  0.
518  5.17  0.  0.  0.
519  5.18  0.  0.  0.
520  5.19  0.  0.  0.
521  5.20  0.  0.  0.
522  5.21  0.  0.  0.
523  5.22  0.  0.  0.
524  5.23  0.  0.  0.
525  5.24  0.  0.  0.
526  5.25  0.  0.  0.
527  5.26  0.  0.  0.
528  5.27  0.  0.  0.
529  5.28  0.  0.  0.
530  5.29  0.  0.  0.
531  5.30  0.  0.  0.
532  5.31  0.  0.  0.
533  5.32  0.  0.  0.
534  5.33  0.  0.  0.
535  5.34  0.  0.  0.
536  5.35  0.  0.  0.
537  5.36  0.  0.  0.
538  5.37  0.  0.  0.
539  5.38  0.  0.  0.
540  5.39  0.  0.  0.
541  5.40  0.  0.  0.
542  5.41  0.  0.  0.
543  5.42  0.  0.  0.
544  5.43  0.  0.  0.
545  5.44  0.  0.  0.
546  5.45  0.  0.  0.
547  5.46  0.  0.  0.
548  5.47  0.  0.  0.
549  5.48  0.  0.  0.
550  5.49  0.  0.  0.
551  5.50  0.  0.  0.
552  5.51  0.  0.  0.
553  5.52  0.  0.  0.
554  5.53  0.  0.  0.
555  5.54  0.  0.  0.
556  5.55  0.  0.  0.
557  5.56  0.  0.  0.
558  5.57  0.  0.  0.
559  5.58  0.  0.  0.
560  5.59  0.  0.  0.
561  5.60  0.  0.  0.
562  5.61  0.  0.  0.
563  5.62  0.  0.  0.
564  5.63  0.  0.  0.
565  5.64  0.  0.  0.
566  5.65  0.  0.  0.
567  5.66  0.  0.  0.
568  5.67  0.  0.  0.
569  5.68  0.  0.  0.
570  5.69  0.  0.  0.
571  5.70  0.  0.  0.
572  5.71  0.  0.  0.
573  5.72  0.  0.  0.
574  5.73  0.  0.  0.
575  5.74  0.  0.  0.
576  5.75  0.  0.  0.
577  5.76  0.  0.  0.
578  5.77  0.  0.  0.
579  5.78  0.  0.  0.
580  5.79  0.  0.  0.
581  5.80  0.  0.  0.
582  5.81  0.  0.  0.
583  5.82  0.  0.  0.
584  5.83  0.  0.  0.
585  5.84  0.  0.  0.
586  5.85  0.  0.  0.
587  5.86  0.  0.  0.
588  5.87  0.  0.  0.
589  5.88  0.  0.  0.
590  5.89  0.  0.  0.
591  5.90  0.  0.  0.
592  5.91  0.  0.  0.
593  5.92  0.  0.  0.
594  5.93  0.  0.  0.
595  5.94  0.  0.  0.
596  5.95  0.  0.  0.
597  5.96  0.  0.  0.
598  5.97  0.  0.  0.
599  5.98  0.  0.  0.
600  5.99  0.  0.  0.
1                        -1.4630210472528E+01 -2.2641217019465E+00 -9.3575069422227E-02
1  0.0000000000000E+00  3.4665948722701E-09  1.3503006129900E-08 -7.4283002399200E-07
2  1.0000000000000E-02  2.9986772387237E-03 -3.7108784994069E-03 -5.8354853104922E-03
3  2.0000000000000E-02  1.1972956318719E-02 -1.4803059699564E-02 -2.3056508791007E-02
4  3.0000000000000E-02  2.6857765022244E-02 -3.3155332797350E-02 -5.0819442422147E-02
5  4.0000000000000E-02  4.7545266658869E-02 -5.8566199705602E-02 -8.7759918813925E-02
6  5.0000000000000E-02  7.3885778731794E-02 -9.0754699424706E-02 -1.3205344266083E-01
7  6.0000000000000E-02  1.0568904549215E-01 -1.2936164822839E-01 -1.8149651642427E-01
8  7.0000000000000E-02  1.4272585104779E-01 -1.7395137505078E-01 -2.3360474373926E-01
9  8.0000000000000E-02  1.8472995622659E-01 -2.2401404496480E-01 -2.8572363121219E-01
10  9.0000000000000E-02  2.3140033917238E-01 -2.7896867087514E-01 -3.3514725124024E-01
11  1.0000000000000E-01  2.8240371671663E-01 -3.3816691376861E-01 -3.7923957948220E-01
12  1.1000000000000E-01  3.3737732095448E-01 -4.0089776466854E-01 -4.1555319592767E-01
13  1.2000000000000E-01  3.9593190318675E-01 -4.6639318679432E-01 -4.4194014381069E-01
14  1.3000000000000E-01  4.5765493548968E-01 -5.3383477466729E-01 -4.5665007169423E-01
15  1.4000000000000E-01  5.2211397865096E-01 -6.0236145873297E-01 -4.5841132701506E-01
16  1.5000000000000E-01  5.8886018406956E-01 -6.7107825051955E-01 -4.4649140120971E-01
17  1.6000000000000E-01  6.5743189645132E-01 -7.3906598575502E-01 -4.2073401609295E-01
18  1.7000000000000E-01  7.2735832373539E-01 -8.0539198278452E-01 -3.8157115044872E-01
19  1.8000000000000E-01  7.9816324063971E-01 -8.6912149280406E-01 -3.3000939164063E-01
20  1.9000000000000E-01  8.6936869249890E-01 -9.2932977868687E-01 -2.6759111288461E-01
21  2.0000000000000E-01  9.4049866666158E-01 -9.8511462237175E-01 -1.9633207469477E-01
22  2.1000000000000E-01  1.0110826995906E+00 -1.0356090286871E+00 -1.1863808159205E-01
23  2.2000000000000E-01  1.0806593889443E+00 -1.0799938677306E+00 -3.7204247796599E-02
24  2.3000000000000E-01  1.1487797812820E+00 -1.1175101799226E+00  4.5098801786068E-02
25  2.4000000000000E-01  1.2150106076134E+00 -1.1474708587194E+00  1.2534688024160E-01
26  2.5000000000000E-01  1.2789373407668E+00 -1.1692714264909E+00  2.0068704314510E-01
27  2.6000000000000E-01  1.3401670504798E+00 -1.1823996296304E+00  2.6845980339587E-01
28  2.7000000000000E-01  1.3983310341869E+00 -1.1864435995580E+00  3.2631339401048E-01
29  2.8000000000000E-01  1.4530872036867E+00 -1.1810983564803E+00  3.7230503198486E-01
30  2.9000000000000E-01  1.5041222102046E+00 -1.1661704717498E+00  4.0498467192546E-01
31  3.0000000000000E-01  1.5511532928073E+00 -1.1415807512132E+00  4.2345747214231E-01
32  3.1000000000000E-01  1.5939298376818E+00 -1.1073648545182E+00  4.2742209805256E-01
33  3.2000000000000E-01  1.6322346384380E+00 -1.0636718221476E+00  4.1718302051803E-01
34  3.3000000000000E-01  1.6658848503389E+00 -1.0107605409453E+00  3.9363608684157E-01
35  3.4000000000000E-01  1.6947326341901E+00 -9.4899423795176E-01  3.5822780232684E-01
36  3.5000000000000E-01  1.7186654885187E+00 -8.7883314929413E-01  3.1288991132300E-01
37  3.6000000000000E-01  1.7376062716347E+00 -8.0082556354368E-01  2.5995195935798E-01
38  3.7000000000000E-01  1.7515129181700E+00 -7.1559748535721E-01  2.0203550526437E-01
39  3.8000000000000E-01  1.7603778577139E+00 -6.2384120358681E-01  1.4193449117967E-01
40  3.9000000000000E-01  1.7642271461790E+00 -5.2630307687553E-01  8.2486931941169E-02
41  4.0000000000000E-01  1.7631193235079E+00 -4.2377086792318E-01  2.6443524187877E-02
42  4.1000000000000E-01  1.7571440142277E+00 -3.1706096437383E-01 -2.3661021310608E-02
43  4.2000000000000E-01  1.7464202901362E+00 -2.0700581934678E-01 -6.5628163968686E-02
44  4.3000000000000E-01  1.7310948170117E+00 -9.4441928162455E-02 -9.7701765015721E-02
45  4.4000000000000E-01  1.7113398096305E+00  1.9801369591831E-02 -1.1865542577416E-01
46  4.5000000000000E-01  1.6873508214972E+00  1.3491201082042E-01 -1.2785673888654E-01
47  4.6000000000000E-01  1.6593443974961E+00  2.5010404645293E-01 -1.2530519520839E-01
48  4.7000000000000E-01  1.6275556191044E+00  3.6462504220680E-01 -1.1164157792298E-01
49  4.8000000000000E-01  1.5922355728224E+00  4.7776194622038E-01 -8.8127872928485E-02
50  4.9000000000000E-01  1.5536487730404E+00  5.8884538685055E-01 -5.6597981951831E-02
51  5.0000000000000E-01  1.5120705706288E+00  6.9725242371994E-01 -1.9380790375233E-02
52  5.1000000000000E-01  1.4677845781021E+00  8.0240783269399E-01  2.0801637318475E-02
53  5.2000000000000E-01  1.4210801412375E+00  9.0378405861222E-01  6.0956836784977E-02
54  5.3000000000000E-01  1.3722498855438E+00  1.0009000162082E+00  9.7960819616317E-02
55  5.4000000000000E-01  1.3215873639712E+00  1.0933189579017E+00  1.2870737439410E-01
56  5.5000000000000E-01  1.2693848297715E+00  1.1806456555355E+00  1.5026155157409E-01
57  5.6000000000000E-01  1.2159311554895E+00  1.2625231605545E+00  1.6001077085300E-01
58  5.7000000000000E-01  1.1615099157560E+00  1.3386294129139E+00  1.5580693724449E-01
59  5.8000000000000E-01  1.1063976479204E+00  1.4086739629549E+00  1.3609317380897E-01
60  5.9000000000000E-01  1.0508623006985E+00  1.4723950528846E+00  1.0000927042160E-01
61  6.0000000000000E-01  9.9516187699252E-01  1.5295572760735E+00  4.7470693687469E-02
62  6.1000000000000E-01  9.3954327298446E-01  1.5799499943451E+00 -2.0783022863728E-02
63  6.2000000000000E-01  8.8424131159499E-01  1.6233866473520E+00 -1.0317352246495E-01
64  6.3000000000000E-01  8.2947796455452E-01  1.6597050359515E+00 -1.9730420141845E-01
65  6.4000000000000E-01  7.7546175375312E-01  1.6887686053851E+00 -3.0001640326515E-01
66  6.5000000000000E-01  7.2238731931813E-01  1.7104686964147E+00 -4.0748005995645E-01
67  6.6000000000000E-01  6.7043513910767E-01  1.7247276758047E+00 -5.1531616843403E-01
68  6.7000000000000E-01  6.1977138208444E-01  1.7315028041190E+00 -6.1874712415015E-01
69  6.8000000000000E-01  5.7054787641350E-01  1.7307906510306E+00 -7.1276969642347E-01
70  6.9000000000000E-01  5.2290217216101E-01  1.7226318283456E+00 -7.9234437630583E-01
71  7.0000000000000E-01  4.7695767818788E-01  1.7071157805383E+00 -8.5259400173546E-01
72  7.1000000000000E-01  4.3282385324373E-01  1.6843853532306E+00 -8.8900400457745E-01
73  7.2000000000000E-01  3.9059643236010E-01  1.6546408527354E+00 -8.9761635742957E-01
74  7.3000000000000E-01  3.5035767138371E-01  1.6181433150613E+00 -8.7520934116674E-01
75  7.4000000000000E-01  3.1217659482379E-01  1.5752167206611E+00 -8.1945561164882E-01
76  7.5000000000000E-01  2.7610923503573E-01  1.5262489212078E+00 -7.2905170778444E-01
77  7.6000000000000E-01  2.4219885402983E-01  1.4716910858143E+00 -6.0381309323061E-01
78  7.7000000000000E-01  2.1047614276635E-01  1.4120555248922E+00 -4.4473002837526E-01
79  7.8000000000000E-01  1.8095939654949E-01  1.3479118084087E+00 -2.5398098556314E-01
80  7.9000000000000E-01  1.5365466892895E-01  1.2798811593964E+00 -3.4901897027114E-02
81  8.0000000000000E-01  1.2855591021620E-01  1.2086291707242E+00  2.0808879694935E-01
82  8.1000000000000E-01  1.0564510018236E-01  1.1348569606662E+00  4.6960761672253E-01
83  8.2000000000000E-01  8.4892387588026E-02  1.0592909479989E+00  7.4346265954158E-01
84  8.3000000000000E-01  6.6256251773636E-02  9.8267148752739E-01  1.0228444034938E+00
85  8.4000000000000E-01  4.9683703497097E-02  9.0574065957008E-01  1.3005443085666E+00
86  8.5000000000000E-01  3.5110543446126E-02  8.2922954974267E-01  1.5691936124448E+00
87  8.6000000000000E-01  2.2461697301318E-02  7.5384538647360E-01  1.8215137772587E+00
88  8.7000000000000E-01  1.1651645832281E-02  6.8025892156740E-01  2.0505694143474E+00
89  8.8000000000000E-01  2.5849672517829E-03  6.0909244283948E-01  2.2500142275669E+00
90  8.9000000000000E-01 -4.8429930607078E-03  5.4090879694804E-01  2.4143205892683E+00
91  9.0000000000000E-01 -1.0745313285969E-02  4.7620177519577E-01  2.5389838005319E+00
92  9.1000000000000E-01 -1.5242537843131E-02  4.1538817599345E-01  2.6206928781419E+00
93  9.2000000000000E-01 -1.8461567852513E-02  3.5880180615687E-01  2.6574608307194E+00
94  9.3000000000000E-01 -2.0534400078448E-02  3.0668962104818E-01  2.6487087977609E+00
95  9.4000000000000E-01 -2.1596720290858E-02  2.5921013302790E-01  2.5953000783662E+00
96  9.5000000000000E-01 -2.1786362443859E-02  2.1643414138194E-01  2.4995219110886E+00
97  9.6000000000000E-01 -2.1241650567495E-02  1.7834775769629E-01  2.3650148152572E+00
98  9.7000000000000E-01 -2.0099645615369E-02  1.4485762164964E-01  2.1966512929320E+00
99  9.8000000000000E-01 -1.8494324519837E-02  1.1579812642593E-01  2.0003676441770E+00
100  9.9000000000000E-01 -1.6554723190906E-02  9.0940403450057E-02  1.7829544895263E+00
101  1.0000000000000E+00 -1.4403078985460E-02  7.0002755642947E-02  1.5518132514219E+00
102  1.0100000000000E+00 -1.2153011110876E-02  5.2662179398882E-02  1.3146872529185E+00