Pa    ONCVPSP-4.0.1  r_core=   1.25016   1.25016   1.45183   1.45183
91.0000     31.0000      231012    zatom,zion,pspd
8 -116133   3     4   600     0    pspcod,pspxc,lmax,lloc,mmax,r2well
5.99000000  5.00000000  0.00000000    rchrg fchrg qchrg
3     3     4     3    nproj
3     1           extension_switch
4     4     4    nprojso
0                         2.3418990343943E+01  3.4130602868974E+00 -3.1443787434511E-01
1  0.0000000000000E+00 -3.7173423006465E-08  9.6392454962402E-08  5.7845522316580E-07
2  1.0000000000000E-02  1.2093887278464E-01 -4.6648838109954E-02 -1.6554761604314E-01
3  2.0000000000000E-02  2.4119200577289E-01 -9.2293967130592E-02 -3.2615057011131E-01
4  3.0000000000000E-02  3.6008414966586E-01 -1.3595679281678E-01 -4.7701931132881E-01
5  4.0000000000000E-02  4.7696073089519E-01 -1.7670815799504E-01 -6.1366958440433E-01
6  5.0000000000000E-02  5.9119743644614E-01 -2.1369110577992E-01 -7.3206291773330E-01
7  6.0000000000000E-02  7.0220892302582E-01 -2.4614136896320E-01 -8.2873295405444E-01
8  7.0000000000000E-02  8.0945640435229E-01 -2.7340494598883E-01 -9.0089361334472E-01
9  8.0000000000000E-02  9.1245390751337E-01 -2.9495222031877E-01 -9.4652565609195E-01
10  9.0000000000000E-02  1.0107730334318E+00 -3.1038819436205E-01 -9.6443890284398E-01
11  1.0000000000000E-01  1.1040461060063E+00 -3.1945853769625E-01 -9.5430814112448E-01
12  1.1000000000000E-01  1.1919676478195E+00 -3.2205128779849E-01 -9.1668158873837E-01
13  1.2000000000000E-01  1.2742941756414E+00 -3.1819418533321E-01 -8.5296165651108E-01
14  1.3000000000000E-01  1.3508423644440E+00 -3.0804777044145E-01 -7.6535863575292E-01
15  1.4000000000000E-01  1.4214856824403E+00 -2.9189450664525E-01 -6.5681879811635E-01
16  1.5000000000000E-01  1.4861496499411E+00 -2.7012433025686E-01 -5.3092921051903E-01
17  1.6000000000000E-01  1.5448059199141E+00 -2.4321714118585E-01 -3.9180230942662E-01
18  1.7000000000000E-01  1.5974654164875E+00 -2.1172285182876E-01 -2.4394392337234E-01
19  1.8000000000000E-01  1.6441707979852E+00 -1.7623969091856E-01 -9.2108959510511E-02
20  1.9000000000000E-01  1.6849885323525E+00 -1.3739151610611E-01  5.8850637580573E-02
21  2.0000000000000E-01  1.7200008843130E+00 -9.5804920704115E-02  2.0414080129158E-01
22  2.1000000000000E-01  1.7492981148618E+00 -5.2086925342655E-02  3.3917818865476E-01
23  2.2000000000000E-01  1.7729711846855E+00 -6.8040240393780E-03  4.5973607990419E-01
24  2.3000000000000E-01  1.7911052340748E+00  3.9536692976372E-02  5.6207867886714E-01
25  2.4000000000000E-01  1.8037740834691E+00  8.6503688902833E-02  6.4307953314215E-01
26  2.5000000000000E-01  1.8110359618736E+00  1.3375384530752E-01  7.0032030186786E-01
27  2.6000000000000E-01  1.8129306262256E+00  1.8104159781689E-01  7.3216672830145E-01
28  2.7000000000000E-01  1.8094779848332E+00  2.2822402587402E-01  7.3781940425739E-01
29  2.8000000000000E-01  1.8006782839107E+00  2.7526171879032E-01  7.1733772035945E-01
30  2.9000000000000E-01  1.7865138598199E+00  3.2221538563131E-01  6.7163625413557E-01
31  3.0000000000000E-01  1.7669524027747E+00  3.6923832335130E-01  6.0245372972632E-01
32  3.1000000000000E-01  1.7419516224103E+00  4.1656500110855E-01  5.1229556008046E-01
33  3.2000000000000E-01  1.7114651536216E+00  4.6449615403043E-01  4.0435182679928E-01
34  3.3000000000000E-01  1.6754494942316E+00  5.1338090228884E-01  2.8239333714800E-01
35  3.4000000000000E-01  1.6338717259481E+00  5.6359651703800E-01  1.5064909698051E-01
36  3.5000000000000E-01  1.5867177381233E+00  6.1552653995147E-01  1.3669129953824E-02
37  3.6000000000000E-01  1.5340006511478E+00  6.6953802484473E-01 -1.2382296153181E-01
38  3.7000000000000E-01  1.4757691237316E+00  7.2595870602515E-01 -2.5708297465087E-01
39  3.8000000000000E-01  1.4121152263180E+00  7.8505490726873E-01 -3.8149973290917E-01
40  3.9000000000000E-01  1.3431815715941E+00  8.4701098726771E-01 -4.9274445591027E-01
41  4.0000000000000E-01  1.2691674122622E+00  9.1191107253526E-01 -5.8691110955914E-01
42  4.1000000000000E-01  1.1903334453634E+00  9.7972375848972E-01 -6.6064326966719E-01
43  4.2000000000000E-01  1.1070051005675E+00  1.0502903660395E+00 -7.1124347033820E-01
44  4.3000000000000E-01  1.0195741357626E+00  1.1233172274874E+00 -7.3676157542299E-01
45  4.4000000000000E-01  9.2849841550015E-01  1.1983723457025E+00 -7.3605938814264E-01
46  4.5000000000000E-01  8.3429980468062E-01  1.2748866285509E+00 -7.0884947856555E-01
47  4.6000000000000E-01  7.3756016944429E-01  1.3521597512389E+00 -6.5570703601317E-01
48  4.7000000000000E-01  6.3891553759839E-01  1.4293705474668E+00 -5.7805441670207E-01
49  4.8000000000000E-01  5.3904853007670E-01  1.5055916811659E+00 -4.7811892789457E-01
50  4.9000000000000E-01  4.3867923093636E-01  1.5798082090739E+00 -3.5886524028433E-01
51  5.0000000000000E-01  3.3855471438974E-01  1.6509395152214E+00 -2.2390462270532E-01
52  5.1000000000000E-01  2.3943749165916E-01  1.7178639858564E+00 -7.7383921696001E-02
53  5.2000000000000E-01  1.4209317655614E-01  1.7794457012046E+00  7.6142160435061E-02
54  5.3000000000000E-01  4.7277695428336E-02  1.8345623518002E+00  2.3185142166472E-01
55  5.4000000000000E-01 -4.4275616399811E-02  1.8821335442230E+00  3.8480270286816E-01
56  5.5000000000000E-01 -1.3186868388397E-01  1.9211486453427E+00  5.3008793444435E-01
57  5.6000000000000E-01 -2.1485078470374E-01  1.9506933261060E+00  6.6298292147002E-01
58  5.7000000000000E-01 -2.9262973847377E-01  1.9699740050473E+00  7.7909217276579E-01
59  5.8000000000000E-01 -3.6468189263704E-01  1.9783394567205E+00  8.7448330059514E-01
60  5.9000000000000E-01 -4.3056064064238E-01  1.9752989388808E+00  9.4580688124608E-01
61  6.0000000000000E-01 -4.8990325184531E-01  1.9605363014901E+00  9.9039815948136E-01
62  6.1000000000000E-01 -5.4243584308645E-01  1.9339196667365E+00  1.0063575846466E+00
63  6.2000000000000E-01 -5.8797637740367E-01  1.8955064079972E+00  9.9260786228502E-01
64  6.3000000000000E-01 -6.2643563397726E-01  1.8455433023351E+00  9.4892596882595E-01
65  6.4000000000000E-01 -6.5781615324140E-01  1.7844618807831E+00  8.7594938249701E-01
66  6.5000000000000E-01 -6.8220922015460E-01  1.7128691483259E+00  7.7515660422721E-01
67  6.6000000000000E-01 -6.9979000497165E-01  1.6315339862385E+00  6.4882285076409E-01
68  6.7000000000000E-01 -7.1081103267621E-01  1.5413696786419E+00  4.9995257201447E-01
69  6.8000000000000E-01 -7.1559419786664E-01  1.4434131185908E+00  3.3219115086994E-01
70  6.9000000000000E-01 -7.1452157990531E-01  1.3388013430719E+00  1.4971876387369E-01
71  7.0000000000000E-01 -7.0802534239474E-01  1.2287461180383E+00 -4.2870104279843E-02
72  7.1000000000000E-01 -6.9657702068791E-01  1.1145073418790E+00 -2.4069760592113E-01
73  7.2000000000000E-01 -6.8067651067378E-01  9.9736605724919E-01 -4.3873978770248E-01
74  7.3000000000000E-01 -6.6084107135158E-01  8.7859785657206E-01 -6.3196589058443E-01
75  7.4000000000000E-01 -6.3759464292021E-01  7.5944743629315E-01 -8.1547544233843E-01
76  7.5000000000000E-01 -6.1145776181151E-01  6.4110500050813E-01 -9.8462904991382E-01
77  7.6000000000000E-01 -5.8293832514996E-01  5.2468513811406E-01 -1.1351690873230E+00
78  7.7000000000000E-01 -5.5252342067488E-01  4.1120870207514E-01 -1.2633268820085E+00
79  7.8000000000000E-01 -5.2067239560492E-01  3.0158810831476E-01 -1.3659135132696E+00
80  7.9000000000000E-01 -4.8781129082887E-01  1.9661634916417E-01 -1.4403919313833E+00
81  8.0000000000000E-01 -4.5432871687763E-01  9.6959886592289E-02 -1.4849287640197E+00
82  8.1000000000000E-01 -4.2057319712826E-01  3.1554581241547E-03 -1.4984248742662E+00
83  8.2000000000000E-01 -3.8685195338829E-01 -8.4389302005344E-02 -1.4805244476834E+00
84  8.3000000000000E-01 -3.5343106110460E-01 -1.6539164795205E-01 -1.4316030900542E+00
85  8.4000000000000E-01 -3.2053685752223E-01 -2.3968624872374E-01 -1.3527360891257E+00
86  8.5000000000000E-01 -2.8835844759500E-01 -3.0721489066308E-01 -1.2456486104516E+00
87  8.6000000000000E-01 -2.5705112050599E-01 -3.6801387302753E-01 -1.1126501393492E+00
88  8.7000000000000E-01 -2.2674046522798E-01 -4.2219967657872E-01 -9.5655593061930E-01
89  8.8000000000000E-01 -1.9752695728921E-01 -4.6995352664571E-01 -7.8059857090290E-01
90  8.9000000000000E-01 -1.6949078116270E-01 -5.1150549144064E-01 -5.8833298477109E-01
91  9.0000000000000E-01 -1.4269665352637E-01 -5.4711875328119E-01 -3.8353831796051E-01
92  9.1000000000000E-01 -1.1719842181437E-01 -5.7707466536561E-01 -1.7012010648032E-01
93  9.2000000000000E-01 -9.3043229504442E-02 -6.0165916106978E-01  4.7984010889675E-02
94  9.3000000000000E-01 -7.0275063730650E-02 -6.2115101823454E-01  2.6689205298964E-01
95  9.4000000000000E-01 -4.8937531158482E-02 -6.3581239990266E-01  4.8285633539623E-01
96  9.5000000000000E-01 -2.9075743549208E-02 -6.4588199815198E-01  6.9233089008717E-01
97  9.6000000000000E-01 -1.0737233917481E-02 -6.5157100200375E-01  8.9202615860964E-01
98  9.7000000000000E-01  6.0281335198574E-03 -6.5306199686628E-01  1.0789501257001E+00
99  9.8000000000000E-01  2.1169252460068E-02 -6.5051078460785E-01  1.2504358039742E+00
100  9.9000000000000E-01  3.4635810996973E-02 -6.4405099283880E-01  1.4041557812579E+00
101  1.0000000000000E+00  4.6381179535093E-02 -6.3380122174655E-01  1.5381253884011E+00
102  1.0100000000000E+00  5.6366011001898E-02 -6.1987435876494E-01  1.6506969269161E+00
103  1.0200000000000E+00  6.4562372568962E-02 -6.0238857684756E-01  1.7405483037888E+00
104  1.0300000000000E+00  7.0958188114789E-02 -5.8147942156828E-01  1.8066703517370E+00
105  1.0400000000000E+00  7.5561732343446E-02 -5.5731228576006E-01  1.8483580629203E+00
106  1.0500000000000E+00  7.8405880363523E-02 -5.3009446687796E-01  1.8652119341161E+00
107  1.0600000000000E+00  7.9551779789484E-02 -5.0008589967599E-01  1.8571566189525E+00
108  1.0700000000000E+00  7.9091575101788E-02 -4.6760755284953E-01  1.8244851123426E+00
109  1.0800000000000E+00  7.7149774570562E-02 -4.3304636921847E-01  1.7679377689212E+00
110  1.0900000000000E+00  7.3882806806727E-02 -3.9685551075427E-01  1.6888266430376E+00
111  1.1000000000000E+00  6.9476261657547E-02 -3.5954852385971E-01  1.5892157858785E+00
112  1.1100000000000E+00  6.4139210425427E-02 -3.2168572397277E-01  1.4721579145992E+00
113  1.1200000000000E+00  5.8094132445511E-02 -2.8384711245438E-01  1.3415174019205E+00
114  1.1300000000000E+00  5.1566975327614E-02 -2.4660532126509E-01  1.2012893198175E+00
115  1.1400000000000E+00  4.4781934372606E-02 -2.1051490291899E-01  1.0554039714493E+00
116  1.1500000000000E+00  3.7956660435496E-02 -1.7610352994508E-01  9.0767083390989E-01
117  1.1600000000000E+00  3.1297128112038E-02 -1.4386223988902E-01  7.6172804313855E-01
118  1.1700000000000E+00  2.4992319595821E-02 -1.1423507092823E-01  6.2099829727223E-01
119  1.1800000000000E+00  1.9208836194282E-02 -8.7608318062144E-02  4.8865138499590E-01
120  1.1900000000000E+00  1.4081854924797E-02 -6.4290472484083E-02  3.6758820046483E-01
121  1.2000000000000E+00  9.6616228711480E-03 -4.4379453274625E-02  2.6060802921526E-01
122  1.2100000000000E+00  6.0337260106676E-03 -2.8065253437461E-02  1.6989435714698E-01
123  1.2200000000000E+00  3.2696636779822E-03 -1.5511368969722E-02  9.7183856685175E-02
124  1.2300000000000E+00  1.3824216299098E-03 -6.7452938117772E-03  4.3933840638491E-02
125  1.2400000000000E+00  3.2416510489423E-04 -1.6427537151808E-03  1.1171779009019E-02
126  1.2500000000000E+00  1.0279729357379E-06 -5.4296664379360E-06  3.8101062212537E-05
127  1.2600000000000E+00  2.2201526064655E-06 -1.1677432122672E-05  8.2485896962552E-05
128  1.2700000000000E+00 -3.9971823346026E-07  2.0538173983907E-06 -1.4172426155442E-05
129  1.28  0.  0.  0.
130  1.29  0.  0.  0.
131  1.30  0.  0.  0.
132  1.31  0.  0.  0.
133  1.32  0.  0.  0.
134  1.33  0.  0.  0.
135  1.34  0.  0.  0.
136  1.35  0.  0.  0.
137  1.36  0.  0.  0.
138  1.37  0.  0.  0.
139  1.38  0.  0.  0.
140  1.39  0.  0.  0.
141  1.40  0.  0.  0.
142  1.41  0.  0.  0.
143  1.42  0.  0.  0.
144  1.43  0.  0.  0.
145  1.44  0.  0.  0.
146  1.45  0.  0.  0.
147  1.46  0.  0.  0.
148  1.47  0.  0.  0.
149  1.48  0.  0.  0.
150  1.49  0.  0.  0.
151  1.50  0.  0.  0.
152  1.51  0.  0.  0.
153  1.52  0.  0.  0.
154  1.53  0.  0.  0.
155  1.54  0.  0.  0.
156  1.55  0.  0.  0.
157  1.56  0.  0.  0.
158  1.57  0.  0.  0.
159  1.58  0.  0.  0.
160  1.59  0.  0.  0.
161  1.60  0.  0.  0.
162  1.61  0.  0.  0.
163  1.62  0.  0.  0.
164  1.63  0.  0.  0.
165  1.64  0.  0.  0.
166  1.65  0.  0.  0.
167  1.66  0.  0.  0.
168  1.67  0.  0.  0.
169  1.68  0.  0.  0.
170  1.69  0.  0.  0.
171  1.70  0.  0.  0.
172  1.71  0.  0.  0.
173  1.72  0.  0.  0.
174  1.73  0.  0.  0.
175  1.74  0.  0.  0.
176  1.75  0.  0.  0.
177  1.76  0.  0.  0.
178  1.77  0.  0.  0.
179  1.78  0.  0.  0.
180  1.79  0.  0.  0.
181  1.80  0.  0.  0.
182  1.81  0.  0.  0.
183  1.82  0.  0.  0.
184  1.83  0.  0.  0.
185  1.84  0.  0.  0.
186  1.85  0.  0.  0.
187  1.86  0.  0.  0.
188  1.87  0.  0.  0.
189  1.88  0.  0.  0.
190  1.89  0.  0.  0.
191  1.90  0.  0.  0.
192  1.91  0.  0.  0.
193  1.92  0.  0.  0.
194  1.93  0.  0.  0.
195  1.94  0.  0.  0.
196  1.95  0.  0.  0.
197  1.96  0.  0.  0.
198  1.97  0.  0.  0.
199  1.98  0.  0.  0.
200  1.99  0.  0.  0.
201  2.00  0.  0.  0.
202  2.01  0.  0.  0.
203  2.02  0.  0.  0.
204  2.03  0.  0.  0.
205  2.04  0.  0.  0.
206  2.05  0.  0.  0.
207  2.06  0.  0.  0.
208  2.07  0.  0.  0.
209  2.08  0.  0.  0.
210  2.09  0.  0.  0.
211  2.10  0.  0.  0.
212  2.11  0.  0.  0.
213  2.12  0.  0.  0.
214  2.13  0.  0.  0.
215  2.14  0.  0.  0.
216  2.15  0.  0.  0.
217  2.16  0.  0.  0.
218  2.17  0.  0.  0.
219  2.18  0.  0.  0.
220  2.19  0.  0.  0.
221  2.20  0.  0.  0.
222  2.21  0.  0.  0.
223  2.22  0.  0.  0.
224  2.23  0.  0.  0.
225  2.24  0.  0.  0.
226  2.25  0.  0.  0.
227  2.26  0.  0.  0.
228  2.27  0.  0.  0.
229  2.28  0.  0.  0.
230  2.29  0.  0.  0.
231  2.30  0.  0.  0.
232  2.31  0.  0.  0.
233  2.32  0.  0.  0.
234  2.33  0.  0.  0.
235  2.34  0.  0.  0.
236  2.35  0.  0.  0.
237  2.36  0.  0.  0.
238  2.37  0.  0.  0.
239  2.38  0.  0.  0.
240  2.39  0.  0.  0.
241  2.40  0.  0.  0.
242  2.41  0.  0.  0.
243  2.42  0.  0.  0.
244  2.43  0.  0.  0.
245  2.44  0.  0.  0.
246  2.45  0.  0.  0.
247  2.46  0.  0.  0.
248  2.47  0.  0.  0.
249  2.48  0.  0.  0.
250  2.49  0.  0.  0.
251  2.50  0.  0.  0.
252  2.51  0.  0.  0.
253  2.52  0.  0.  0.
254  2.53  0.  0.  0.
255  2.54  0.  0.  0.
256  2.55  0.  0.  0.
257  2.56  0.  0.  0.
258  2.57  0.  0.  0.
259  2.58  0.  0.  0.
260  2.59  0.  0.  0.
261  2.60  0.  0.  0.
262  2.61  0.  0.  0.
263  2.62  0.  0.  0.
264  2.63  0.  0.  0.
265  2.64  0.  0.  0.
266  2.65  0.  0.  0.
267  2.66  0.  0.  0.
268  2.67  0.  0.  0.
269  2.68  0.  0.  0.
270  2.69  0.  0.  0.
271  2.70  0.  0.  0.
272  2.71  0.  0.  0.
273  2.72  0.  0.  0.
274  2.73  0.  0.  0.
275  2.74  0.  0.  0.
276  2.75  0.  0.  0.
277  2.76  0.  0.  0.
278  2.77  0.  0.  0.
279  2.78  0.  0.  0.
280  2.79  0.  0.  0.
281  2.80  0.  0.  0.
282  2.81  0.  0.  0.
283  2.82  0.  0.  0.
284  2.83  0.  0.  0.
285  2.84  0.  0.  0.
286  2.85  0.  0.  0.
287  2.86  0.  0.  0.
288  2.87  0.  0.  0.
289  2.88  0.  0.  0.
290  2.89  0.  0.  0.
291  2.90  0.  0.  0.
292  2.91  0.  0.  0.
293  2.92  0.  0.  0.
294  2.93  0.  0.  0.
295  2.94  0.  0.  0.
296  2.95  0.  0.  0.
297  2.96  0.  0.  0.
298  2.97  0.  0.  0.
299  2.98  0.  0.  0.
300  2.99  0.  0.  0.
301  3.00  0.  0.  0.
302  3.01  0.  0.  0.
303  3.02  0.  0.  0.
304  3.03  0.  0.  0.
305  3.04  0.  0.  0.
306  3.05  0.  0.  0.
307  3.06  0.  0.  0.
308  3.07  0.  0.  0.
309  3.08  0.  0.  0.
310  3.09  0.  0.  0.
311  3.10  0.  0.  0.
312  3.11  0.  0.  0.
313  3.12  0.  0.  0.
314  3.13  0.  0.  0.
315  3.14  0.  0.  0.
316  3.15  0.  0.  0.
317  3.16  0.  0.  0.
318  3.17  0.  0.  0.
319  3.18  0.  0.  0.
320  3.19  0.  0.  0.
321  3.20  0.  0.  0.
322  3.21  0.  0.  0.
323  3.22  0.  0.  0.
324  3.23  0.  0.  0.
325  3.24  0.  0.  0.
326  3.25  0.  0.  0.
327  3.26  0.  0.  0.
328  3.27  0.  0.  0.
329  3.28  0.  0.  0.
330  3.29  0.  0.  0.
331  3.30  0.  0.  0.
332  3.31  0.  0.  0.
333  3.32  0.  0.  0.
334  3.33  0.  0.  0.
335  3.34  0.  0.  0.
336  3.35  0.  0.  0.
337  3.36  0.  0.  0.
338  3.37  0.  0.  0.
339  3.38  0.  0.  0.
340  3.39  0.  0.  0.
341  3.40  0.  0.  0.
342  3.41  0.  0.  0.
343  3.42  0.  0.  0.
344  3.43  0.  0.  0.
345  3.44  0.  0.  0.
346  3.45  0.  0.  0.
347  3.46  0.  0.  0.
348  3.47  0.  0.  0.
349  3.48  0.  0.  0.
350  3.49  0.  0.  0.
351  3.50  0.  0.  0.
352  3.51  0.  0.  0.
353  3.52  0.  0.  0.
354  3.53  0.  0.  0.
355  3.54  0.  0.  0.
356  3.55  0.  0.  0.
357  3.56  0.  0.  0.
358  3.57  0.  0.  0.
359  3.58  0.  0.  0.
360  3.59  0.  0.  0.
361  3.60  0.  0.  0.
362  3.61  0.  0.  0.
363  3.62  0.  0.  0.
364  3.63  0.  0.  0.
365  3.64  0.  0.  0.
366  3.65  0.  0.  0.
367  3.66  0.  0.  0.
368  3.67  0.  0.  0.
369  3.68  0.  0.  0.
370  3.69  0.  0.  0.
371  3.70  0.  0.  0.
372  3.71  0.  0.  0.
373  3.72  0.  0.  0.
374  3.73  0.  0.  0.
375  3.74  0.  0.  0.
376  3.75  0.  0.  0.
377  3.76  0.  0.  0.
378  3.77  0.  0.  0.
379  3.78  0.  0.  0.
380  3.79  0.  0.  0.
381  3.80  0.  0.  0.
382  3.81  0.  0.  0.
383  3.82  0.  0.  0.
384  3.83  0.  0.  0.
385  3.84  0.  0.  0.
386  3.85  0.  0.  0.
387  3.86  0.  0.  0.
388  3.87  0.  0.  0.
389  3.88  0.  0.  0.
390  3.89  0.  0.  0.
391  3.90  0.  0.  0.
392  3.91  0.  0.  0.
393  3.92  0.  0.  0.
394  3.93  0.  0.  0.
395  3.94  0.  0.  0.
396  3.95  0.  0.  0.
397  3.96  0.  0.  0.
398  3.97  0.  0.  0.
399  3.98  0.  0.  0.
400  3.99  0.  0.  0.
401  4.00  0.  0.  0.
402  4.01  0.  0.  0.
403  4.02  0.  0.  0.
404  4.03  0.  0.  0.
405  4.04  0.  0.  0.
406  4.05  0.  0.  0.
407  4.06  0.  0.  0.
408  4.07  0.  0.  0.
409  4.08  0.  0.  0.
410  4.09  0.  0.  0.
411  4.10  0.  0.  0.
412  4.11  0.  0.  0.
413  4.12  0.  0.  0.
414  4.13  0.  0.  0.
415  4.14  0.  0.  0.
416  4.15  0.  0.  0.
417  4.16  0.  0.  0.
418  4.17  0.  0.  0.
419  4.18  0.  0.  0.
420  4.19  0.  0.  0.
421  4.20  0.  0.  0.
422  4.21  0.  0.  0.
423  4.22  0.  0.  0.
424  4.23  0.  0.  0.
425  4.24  0.  0.  0.
426  4.25  0.  0.  0.
427  4.26  0.  0.  0.
428  4.27  0.  0.  0.
429  4.28  0.  0.  0.
430  4.29  0.  0.  0.
431  4.30  0.  0.  0.
432  4.31  0.  0.  0.
433  4.32  0.  0.  0.
434  4.33  0.  0.  0.
435  4.34  0.  0.  0.
436  4.35  0.  0.  0.
437  4.36  0.  0.  0.
438  4.37  0.  0.  0.
439  4.38  0.  0.  0.
440  4.39  0.  0.  0.
441  4.40  0.  0.  0.
442  4.41  0.  0.  0.
443  4.42  0.  0.  0.
444  4.43  0.  0.  0.
445  4.44  0.  0.  0.
446  4.45  0.  0.  0.
447  4.46  0.  0.  0.
448  4.47  0.  0.  0.
449  4.48  0.  0.  0.
450  4.49  0.  0.  0.
451  4.50  0.  0.  0.
452  4.51  0.  0.  0.
453  4.52  0.  0.  0.
454  4.53  0.  0.  0.
455  4.54  0.  0.  0.
456  4.55  0.  0.  0.
457  4.56  0.  0.  0.
458  4.57  0.  0.  0.
459  4.58  0.  0.  0.
460  4.59  0.  0.  0.
461  4.60  0.  0.  0.
462  4.61  0.  0.  0.
463  4.62  0.  0.  0.
464  4.63  0.  0.  0.
465  4.64  0.  0.  0.
466  4.65  0.  0.  0.
467  4.66  0.  0.  0.
468  4.67  0.  0.  0.
469  4.68  0.  0.  0.
470  4.69  0.  0.  0.
471  4.70  0.  0.  0.
472  4.71  0.  0.  0.
473  4.72  0.  0.  0.
474  4.73  0.  0.  0.
475  4.74  0.  0.  0.
476  4.75  0.  0.  0.
477  4.76  0.  0.  0.
478  4.77  0.  0.  0.
479  4.78  0.  0.  0.
480  4.79  0.  0.  0.
481  4.80  0.  0.  0.
482  4.81  0.  0.  0.
483  4.82  0.  0.  0.
484  4.83  0.  0.  0.
485  4.84  0.  0.  0.
486  4.85  0.  0.  0.
487  4.86  0.  0.  0.
488  4.87  0.  0.  0.
489  4.88  0.  0.  0.
490  4.89  0.  0.  0.
491  4.90  0.  0.  0.
492  4.91  0.  0.  0.
493  4.92  0.  0.  0.
494  4.93  0.  0.  0.
495  4.94  0.  0.  0.
496  4.95  0.  0.  0.
497  4.96  0.  0.  0.
498  4.97  0.  0.  0.
499  4.98  0.  0.  0.
500  4.99  0.  0.  0.
501  5.00  0.  0.  0.
502  5.01  0.  0.  0.
503  5.02  0.  0.  0.
504  5.03  0.  0.  0.
505  5.04  0.  0.  0.
506  5.05  0.  0.  0.
507  5.06  0.  0.  0.
508  5.07  0.  0.  0.
509  5.08  0.  0.  0.
510  5.09  0.  0.  0.
511  5.10  0.  0.  0.
512  5.11  0.  0.  0.
513  5.12  0.  0.  0.
514  5.13  0.  0.  0.
515  5.14  0.  0.  0.
516  5.15  0.  0.  0.
517  5.16  0.  0.  0.
518  5.17  0.  0.  0.
519  5.18  0.  0.  0.
520  5.19  0.  0.  0.
521  5.20  0.  0.  0.
522  5.21  0.  0.  0.
523  5.22  0.  0.  0.
524  5.23  0.  0.  0.
525  5.24  0.  0.  0.
526  5.25  0.  0.  0.
527  5.26  0.  0.  0.
528  5.27  0.  0.  0.
529  5.28  0.  0.  0.
530  5.29  0.  0.  0.
531  5.30  0.  0.  0.
532  5.31  0.  0.  0.
533  5.32  0.  0.  0.
534  5.33  0.  0.  0.
535  5.34  0.  0.  0.
536  5.35  0.  0.  0.
537  5.36  0.  0.  0.
538  5.37  0.  0.  0.
539  5.38  0.  0.  0.
540  5.39  0.  0.  0.
541  5.40  0.  0.  0.
542  5.41  0.  0.  0.
543  5.42  0.  0.  0.
544  5.43  0.  0.  0.
545  5.44  0.  0.  0.
546  5.45  0.  0.  0.
547  5.46  0.  0.  0.
548  5.47  0.  0.  0.
549  5.48  0.  0.  0.
550  5.49  0.  0.  0.
551  5.50  0.  0.  0.
552  5.51  0.  0.  0.
553  5.52  0.  0.  0.
554  5.53  0.  0.  0.
555  5.54  0.  0.  0.
556  5.55  0.  0.  0.
557  5.56  0.  0.  0.
558  5.57  0.  0.  0.
559  5.58  0.  0.  0.
560  5.59  0.  0.  0.
561  5.60  0.  0.  0.
562  5.61  0.  0.  0.
563  5.62  0.  0.  0.
564  5.63  0.  0.  0.
565  5.64  0.  0.  0.
566  5.65  0.  0.  0.
567  5.66  0.  0.  0.
568  5.67  0.  0.  0.
569  5.68  0.  0.  0.
570  5.69  0.  0.  0.
571  5.70  0.  0.  0.
572  5.71  0.  0.  0.
573  5.72  0.  0.  0.
574  5.73  0.  0.  0.
575  5.74  0.  0.  0.
576  5.75  0.  0.  0.
577  5.76  0.  0.  0.
578  5.77  0.  0.  0.
579  5.78  0.  0.  0.
580  5.79  0.  0.  0.
581  5.80  0.  0.  0.
582  5.81  0.  0.  0.
583  5.82  0.  0.  0.
584  5.83  0.  0.  0.
585  5.84  0.  0.  0.
586  5.85  0.  0.  0.
587  5.86  0.  0.  0.
588  5.87  0.  0.  0.
589  5.88  0.  0.  0.
590  5.89  0.  0.  0.
591  5.90  0.  0.  0.
592  5.91  0.  0.  0.
593  5.92  0.  0.  0.
594  5.93  0.  0.  0.
595  5.94  0.  0.  0.
596  5.95  0.  0.  0.
597  5.96  0.  0.  0.
598  5.97  0.  0.  0.
599  5.98  0.  0.  0.
600  5.99  0.  0.  0.
1                         1.1772250849819E+01  1.2505849645082E+00 -6.6142083553169E-02
1  0.0000000000000E+00 -1.2833762302877E-08  4.1676395806656E-08 -6.3405671595074E-08
2  1.0000000000000E-02  3.1599493358376E-03 -6.3485302655857E-04  5.0246646513884E-04
3  2.0000000000000E-02  1.2624144153106E-02 -2.5468366127141E-03  2.0301370543160E-03
4  3.0000000000000E-02  2.8345493071058E-02 -5.7575065138076E-03  4.6426886196517E-03
5  4.0000000000000E-02  5.0245079889613E-02 -1.0300424439297E-02  8.4358361358434E-03
6  5.0000000000000E-02  7.8211548235418E-02 -1.6217708289667E-02  1.3535860889588E-02
7  6.0000000000000E-02  1.1210029994828E-01 -2.3555393288089E-02  2.0092240578082E-02
8  7.0000000000000E-02  1.5173256454354E-01 -3.2357787161700E-02  2.8268660256458E-02
9  8.0000000000000E-02  1.9689440991969E-01 -4.2661044203811E-02  3.8232746479690E-02
10  9.0000000000000E-02  2.4733577480831E-01 -5.4486217196978E-02  5.0144918883691E-02
11  1.0000000000000E-01  3.0276961089477E-01 -6.7832071619551E-02  6.4146792049955E-02
12  1.1000000000000E-01  3.6287122677343E-01 -8.2667962392345E-02  8.0349584427382E-02
13  1.2000000000000E-01  4.2727792674477E-01 -9.8927079047143E-02  9.8822999439404E-02
14  1.3000000000000E-01  4.9558903482366E-01 -1.1650036033911E-01  1.1958503627993E-01
15  1.4000000000000E-01  5.6736638823353E-01 -1.3523136403837E-01  1.4259316440402E-01
16  1.5000000000000E-01  6.4213537524402E-01 -1.5491235231355E-01  1.6773725697260E-01
17  1.6000000000000E-01  7.1938657971674E-01 -1.7528181848036E-01  1.9483462563054E-01
18  1.7000000000000E-01  7.9857807949967E-01 -1.9602363794967E-01  2.2362743357412E-01
19  1.8000000000000E-01  8.7913842829595E-01 -2.1676797626954E-01  2.5378268789696E-01
20  1.9000000000000E-01  9.6047033134482E-01 -2.3709403174536E-01  2.8489492806335E-01
21  2.0000000000000E-01  1.0419550047743E+00 -2.5653463096493E-01  3.1649163769540E-01
22  2.1000000000000E-01  1.1229571874459E+00 -2.7458263451224E-01  3.4804131454141E-01
23  2.2000000000000E-01  1.2028307531659E+00 -2.9069904916830E-01  3.7896404149731E-01
24  2.3000000000000E-01  1.2809248509565E+00 -3.0432268393416E-01  4.0864431289321E-01
25  2.4000000000000E-01  1.3565904822989E+00 -3.1488113219540E-01  4.3644578787336E-01
26  2.5000000000000E-01  1.4291874075195E+00 -3.2180281310483E-01  4.6172756937162E-01
27  2.6000000000000E-01  1.4980912593299E+00 -3.2452976345422E-01  4.8386154544565E-01
28  2.7000000000000E-01  1.5627007304588E+00 -3.2253083839313E-01  5.0225028177333E-01
29  2.8000000000000E-01  1.6224446947328E+00 -3.1531495652122E-01  5.1634492172370E-01
30  2.9000000000000E-01  1.6767891171690E+00 -3.0244401302215E-01  5.2566253490502E-01
31  3.0000000000000E-01  1.7252436088357E+00 -2.8354508417616E-01  5.2980235725900E-01
32  3.1000000000000E-01  1.7673674864827E+00 -2.5832155798441E-01  5.2846038586111E-01
33  3.2000000000000E-01  1.8027752051956E+00 -2.2656284859408E-01  5.2144182927298E-01
34  3.3000000000000E-01  1.8311410444013E+00 -1.8815238619245E-01  5.0867096868819E-01
35  3.4000000000000E-01  1.8522029431650E+00 -1.4307361815217E-01  4.9019805477876E-01
36  3.5000000000000E-01  1.8657653994487E+00 -9.1413810233595E-02  4.6620294813771E-01
37  3.6000000000000E-01  1.8717013693479E+00 -3.3365497062356E-02  4.3699530512257E-01
38  3.7000000000000E-01  1.8699531256903E+00  3.0774502877118E-02  4.0301121294206E-01
39  3.8000000000000E-01  1.8605320600961E+00  1.0060852283974E-01  3.6480628489815E-01
40  3.9000000000000E-01  1.8435174379557E+00  1.7564387795999E-01  3.2304533548804E-01
41  4.0000000000000E-01  1.8190541410299E+00  2.5530096342644E-01  2.7848886216784E-01
42  4.1000000000000E-01  1.7873494567751E+00  3.3892342663618E-01  2.3197666255760E-01
43  4.2000000000000E-01  1.7486689963065E+00  4.2579015679215E-01  1.8440900940707E-01
44  4.3000000000000E-01  1.7033318434532E+00  5.1512878001332E-01  1.3672588764062E-01
45  4.4000000000000E-01  1.6517050550021E+00  6.0613030155095E-01  8.9884865464288E-02
46  4.5000000000000E-01  1.5941976464305E+00  6.9796450071500E-01  4.4838222470022E-02
47  4.6000000000000E-01  1.5312542077548E+00  7.8979565987499E-01  2.5099900233334E-03
48  4.7000000000000E-01  1.4633483002517E+00  8.8079819731043E-01 -3.6226428358009E-02
49  4.8000000000000E-01  1.3909757865445E+00  9.7017177526441E-01 -7.0569397145016E-02
50  4.9000000000000E-01  1.3146482438375E+00  1.0571554693971E+00 -9.9808318896486E-02
51  5.0000000000000E-01  1.2348866030093E+00  1.1410406136256E+00 -1.2334045279795E-01
52  5.1000000000000E-01  1.1522151450619E+00  1.2211819743277E+00 -1.4068476803448E-01
53  5.2000000000000E-01  1.0671559714258E+00  1.2970069589439E+00 -1.5149240330901E-01
54  5.3000000000000E-01  9.8022404632037E-01  1.3680226246178E+00 -1.5555340329620E-01
55  5.4000000000000E-01  8.9192288835003E-01  1.4338203208313E+00 -1.5279951391929E-01
56  5.5000000000000E-01  8.0274096546249E-01  1.4940778739144E+00 -1.4330293769202E-01
57  5.6000000000000E-01  7.1314882305469E-01  1.5485592985116E+00 -1.2727107430268E-01
58  5.7000000000000E-01  6.2359695017678E-01  1.5971120991226E+00 -1.0503739625590E-01
59  5.8000000000000E-01  5.3451436427484E-01  1.6396623011937E+00 -7.7048730773409E-02
60  5.9000000000000E-01  4.4630787153543E-01  1.6762074234303E+00 -4.3849333379604E-02
61  6.0000000000000E-01  3.5936193842536E-01  1.7068076686590E+00 -6.0622419304210E-03
62  6.1000000000000E-01  2.7403909117547E-01  1.7315756674875E+00  3.5631511144819E-02
63  6.2000000000000E-01  1.9068074436811E-01  1.7506651552746E+00  8.0515178948192E-02
64  6.3000000000000E-01  1.0960834798069E-01  1.7642589969190E+00  1.2785937127960E-01
65  6.4000000000000E-01  3.1124734612695E-02  1.7725569944934E+00  1.7694518545207E-01
66  6.5000000000000E-01 -4.4484454560796E-02  1.7757639190037E+00  2.2708665812956E-01
67  6.6000000000000E-01 -1.1694938519774E-01  1.7740781992255E+00  2.7765181573859E-01
68  6.7000000000000E-01 -1.8601480077613E-01  1.7676816778106E+00  3.2808164029267E-01
69  6.8000000000000E-01 -2.5143905319984E-01  1.7567308083228E+00  3.7790632883440E-01
70  6.9000000000000E-01 -3.1299348293835E-01  1.7413496176375E+00  4.2675830637931E-01
71  7.0000000000000E-01 -3.7046222103349E-01  1.7216246977869E+00  4.7438155179766E-01
72  7.1000000000000E-01 -4.2364246488643E-01  1.6976024217632E+00  5.2063691044527E-01
73  7.2000000000000E-01 -4.7234525720129E-01  1.6692885012588E+00  5.6550319299774E-01
74  7.3000000000000E-01 -5.1639677361570E-01  1.6366499233551E+00  6.0907399288282E-01
75  7.4000000000000E-01 -5.5564010024444E-01  1.5996192204124E+00  6.5155029073746E-01
76  7.5000000000000E-01 -5.8993745848881E-01  1.5581009456639E+00  6.9322904905565E-01
77  7.6000000000000E-01 -6.1917281189114E-01  1.5119801490023E+00  7.3448812930829E-01
78  7.7000000000000E-01 -6.4325476938158E-01  1.4611325758214E+00  7.7576798312854E-01
79  7.8000000000000E-01 -6.6211968174320E-01  1.4054362489865E+00  8.1755067476436E-01
80  7.9000000000000E-01 -6.7573481418511E-01  1.3447840422171E+00  8.6033688047985E-01
81  8.0000000000000E-01 -6.8410146811650E-01  1.2790968141679E+00  9.0462157904268E-01
82  8.1000000000000E-01 -6.8725791996509E-01  1.2083366476603E+00  9.5086919365163E-01
83  8.2000000000000E-01 -6.8528204443472E-01  1.1325197287250E+00  9.9948896815400E-01
84  8.3000000000000E-01 -6.7829349402303E-01  1.0517284057250E+00  1.0508113585101E+00
85  8.4000000000000E-01 -6.6645531582258E-01  9.6612198964177E-01  1.1050661943469E+00
86  8.5000000000000E-01 -6.4997490032558E-01  8.7594589189776E-01  1.1623633161112E+00
87  8.6000000000000E-01 -6.2910417468904E-01  7.8153874456247E-01  1.2226763226152E+00
88  8.7000000000000E-01 -6.0413897407590E-01  6.8333720767919E-01  1.2858299742652E+00
89  8.8000000000000E-01 -5.7541754850214E-01  5.8187823750156E-01  1.3514916922775E+00
90  8.9000000000000E-01 -5.4331818820013E-01  4.7779866500982E-01  1.4191674776093E+00
91  9.0000000000000E-01 -5.0825597686060E-01  3.7183201322002E-01  1.4882024495696E+00