Pa    ONCVPSP-4.0.1  r_core=   1.25016   1.25016   1.45183   1.45183
91.0000     31.0000      231012    zatom,zion,pspd
8 -116133   3     4   600     0    pspcod,pspxc,lmax,lloc,mmax,r2well
5.99000000  5.00000000  0.00000000    rchrg fchrg qchrg
3     2     2     2     0    nproj
1     1           extension_switch
0                         2.1646655596017E+01  3.2912617524334E+00 -9.3289826616394E-01
1  0.0000000000000E+00 -4.1771602510288E-08  8.5292025997497E-08 -6.2756914687156E-07
2  1.0000000000000E-02  1.1768612830575E-01 -3.7071772141413E-02  1.8218360388111E-01
3  2.0000000000000E-02  2.3468745549874E-01 -7.3297969318272E-02  3.5899970524767E-01
4  3.0000000000000E-02  3.5033056808692E-01 -1.0785456289970E-01  5.2524909817744E-01
5  4.0000000000000E-02  4.6396448620638E-01 -1.3995992429193E-01  6.7606382352628E-01
6  5.0000000000000E-02  5.7497103777463E-01 -1.6889431660899E-01  8.0705959645745E-01
7  6.0000000000000E-02  6.8277425291533E-01 -1.9401740058624E-01  9.1447286996870E-01
8  7.0000000000000E-02  7.8684850339273E-01 -2.1478319761223E-01  9.9527818208153E-01
9  8.0000000000000E-02  8.8672515356619E-01 -2.3075203804676E-01  1.0472820619259E+00
10  9.0000000000000E-02  9.8199753891028E-01 -2.4159912412048E-01  1.0691905161307E+00
11  1.0000000000000E-01  1.0723241437905E+00 -2.4711945028659E-01  1.0606479579885E+00
12  1.1000000000000E-01  1.1574299100771E+00 -2.4722894610858E-01  1.0222463510428E+00
13  1.2000000000000E-01  1.2371056703167E+00 -2.4196183351814E-01  9.5550428712392E-01
14  1.3000000000000E-01  1.3112057614783E+00 -2.3146431730647E-01  8.6281667624216E-01
15  1.4000000000000E-01  1.3796439356628E+00 -2.1598485074629E-01  7.4737666163977E-01
16  1.5000000000000E-01  1.4423877405774E+00 -1.9586133313587E-01  6.1307225789072E-01
17  1.6000000000000E-01  1.4994515931314E+00 -1.7150569893157E-01  4.6436101501024E-01
18  1.7000000000000E-01  1.5508888125024E+00 -1.4338644550900E-01  3.0612671140283E-01
19  1.8000000000000E-01  1.5967829129874E+00 -1.1200971549855E-01  1.4352265080264E-01
20  1.9000000000000E-01  1.6372384807414E+00 -7.7899597722472E-02 -1.8193435181291E-02
21  2.0000000000000E-01  1.6723719712859E+00 -4.1578336363207E-02 -1.7382761033001E-01
22  2.1000000000000E-01  1.7023027659979E+00 -3.5471402064673E-03 -3.1841571542740E-01
23  2.2000000000000E-01  1.7271448155885E+00  3.5731737490560E-02 -4.4738181315902E-01
24  2.3000000000000E-01  1.7469991771674E+00  7.5851022087191E-02 -5.5668404266717E-01
25  2.4000000000000E-01  1.7619477195588E+00  1.1647198271317E-01 -6.4294323292233E-01
26  2.5000000000000E-01  1.7720482301351E+00  1.5733506335699E-01 -7.0355017537978E-01
27  2.6000000000000E-01  1.7773311069325E+00  1.9826720492477E-01 -7.3674813861584E-01
28  2.7000000000000E-01  1.7777977638629E+00  2.3918559750031E-01 -7.4168799898090E-01
29  2.8000000000000E-01  1.7734208162980E+00  2.8009772542290E-01 -7.1845423642528E-01
30  2.9000000000000E-01  1.7641460512141E+00  3.2109769622444E-01 -6.6806097555508E-01
31  3.0000000000000E-01  1.7498961225677E+00  3.6235897358913E-01 -5.9241820879451E-01
32  3.1000000000000E-01  1.7305758507689E+00  4.0412375994448E-01 -4.9426929062766E-01
33  3.2000000000000E-01  1.7060789471301E+00  4.4668939179415E-01 -3.7710170870141E-01
34  3.3000000000000E-01  1.6762959319629E+00  4.9039221644951E-01 -2.4503398969405E-01
35  3.4000000000000E-01  1.6411229703707E+00  5.3558950879276E-01 -1.0268235796281E-01
36  3.5000000000000E-01  1.6004713142650E+00  5.8264005800462E-01  4.4988591304190E-02
37  3.6000000000000E-01  1.5542770139769E+00  6.3188410433567E-01  1.9282643600130E-01
38  3.7000000000000E-01  1.5025105489108E+00  6.8362333322719E-01  3.3565756613270E-01
39  3.8000000000000E-01  1.4451860245365E+00  7.3810163739444E-01  4.6845460691955E-01
40  3.9000000000000E-01  1.3823695927413E+00  7.9548733669311E-01  5.8649929618933E-01
41  4.0000000000000E-01  1.3141867738978E+00  8.5585750132616E-01  6.8553563822240E-01
42  4.1000000000000E-01  1.2408283912736E+00  9.1918495765443E-01  7.6190847376024E-01
43  4.2000000000000E-01  1.1625548705699E+00  9.8532846973239E-01  8.1268307848927E-01
44  4.3000000000000E-01  1.0796987080535E+00  1.0540264865766E+00  8.3574201443464E-01
45  4.4000000000000E-01  9.9266496826380E-01  1.1248947285432E+00  8.2985619029413E-01
46  4.5000000000000E-01  9.0192973473634E-01  1.1974277599677E+00  7.9472791389920E-01
47  4.6000000000000E-01  8.0803650250004E-01  1.2710045636684E+00  7.3100461573196E-01
48  4.7000000000000E-01  7.1159056710740E-01  1.3448980004862E+00  6.4026285758438E-01
49  4.8000000000000E-01  6.1325152943796E-01  1.4182879082126E+00  5.2496318466003E-01
50  4.9000000000000E-01  5.1372409632008E-01  1.4902774734229E+00  3.8837730207025E-01
51  5.0000000000000E-01  4.1374741211317E-01  1.5599124009775E+00  2.3448992799389E-01
52  5.1000000000000E-01  3.1408320394255E-01  1.6262023129727E+00  6.7878467722236E-02
53  5.2000000000000E-01  2.1550306169643E-01  1.6881437348671E+00 -1.0642565993057E-01
54  5.3000000000000E-01  1.1877520190962E-01  1.7447439738707E+00 -2.8308965154009E-01
55  5.4000000000000E-01  2.4651081350294E-02  1.7950451652319E+00 -4.5664109417338E-01
56  5.5000000000000E-01 -6.6147769034148E-02  1.8381477567422E+00 -6.2163381738473E-01
57  5.6000000000000E-01 -1.5294232629601E-01  1.8732327207286E+00 -7.7281265681910E-01
58  5.7000000000000E-01 -2.3510772911154E-01  1.8995818253104E+00 -9.0527203431865E-01
59  5.8000000000000E-01 -3.1208368802106E-01  1.9165953612188E+00 -1.0146034922874E+00
60  5.9000000000000E-01 -3.8338337726572E-01  1.9238068047375E+00 -1.0970277067908E+00
61  6.0000000000000E-01 -4.4860058157434E-01  1.9208939983466E+00 -1.1495070305280E+00
62  6.1000000000000E-01 -5.0741492651199E-01  1.9076865448963E+00 -1.1698352650363E+00
63  6.2000000000000E-01 -5.5959508123391E-01  1.8841692346194E+00 -1.1567021089241E+00
64  6.3000000000000E-01 -6.0499988562559E-01  1.8504814527035E+00 -1.1097305501828E+00
65  6.4000000000000E-01 -6.4357741769638E-01  1.8069126440564E+00 -1.0294863380112E+00
66  6.5000000000000E-01 -6.7536207956305E-01  1.7538940368465E+00 -9.1745955421271E-01
67  6.6000000000000E-01 -7.0046983931083E-01  1.6919869431305E+00 -7.7601917683121E-01
68  6.7000000000000E-01 -7.1909181949087E-01  1.6218680594127E+00 -6.0834236079925E-01
69  6.8000000000000E-01 -7.3148646925656E-01  1.5443122788216E+00 -4.1832092516944E-01
70  6.9000000000000E-01 -7.3797059467061E-01  1.4601735968166E+00 -2.1044820969272E-01
71  7.0000000000000E-01 -7.3890954937336E-01  1.3703647417006E+00  1.0309975724756E-02
72  7.1000000000000E-01 -7.3470690478763E-01  1.2758361882476E+00  2.3865615365992E-01
73  7.2000000000000E-01 -7.2579392493082E-01  1.1775552167669E+00  4.6910928887030E-01
74  7.3000000000000E-01 -7.1261916569529E-01  1.0764856610895E+00  6.9615561878034E-01
75  7.4000000000000E-01 -6.9563850251542E-01  9.7356894823000E-01  9.1439762815288E-01
76  7.5000000000000E-01 -6.7530586442020E-01  8.6970697160569E-01  1.1186967489418E+00
77  7.6000000000000E-01 -6.5206491766952E-01  7.6574726111982E-01  1.3043056638517E+00
78  7.7000000000000E-01 -6.2634189988642E-01  6.6247082019134E-01  1.4669865170882E+00
79  7.8000000000000E-01 -5.9853975747760E-01  5.6058289548959E-01  1.6031118714119E+00
80  7.9000000000000E-01 -5.6903368700167E-01  4.6070683359345E-01  1.7097458768566E+00
81  8.0000000000000E-01 -5.3816812694877E-01  3.6338106415813E-01  1.7847038103966E+00
82  8.1000000000000E-01 -5.0625519211105E-01  2.6905913557875E-01  1.8265888828767E+00
83  8.2000000000000E-01 -4.7357449030950E-01  1.7811262066111E-01  1.8348059638104E+00
84  8.3000000000000E-01 -4.4037421254073E-01  9.0836610242735E-02  1.8095526205489E+00
85  8.4000000000000E-01 -4.0687334429438E-01  7.4574254717322E-03  1.7517885808115E+00
86  8.5000000000000E-01 -3.7326480931473E-01 -7.1857892539177E-02  1.6631853833353E+00
87  8.6000000000000E-01 -3.3971932860547E-01 -1.4699081141186E-01  1.5460585595136E+00
88  8.7000000000000E-01 -3.0638975785550E-01 -2.1785978556523E-01  1.4032851714374E+00
89  8.8000000000000E-01 -2.7341565620372E-01 -2.8440852988452E-01  1.2382099043727E+00
90  8.9000000000000E-01 -2.4092783851740E-01 -3.4659463029192E-01  1.0545431639398E+00
91  9.0000000000000E-01 -2.0905267193637E-01 -4.0437900798791E-01  8.5625475373507E-01
92  9.1000000000000E-01 -1.7791589480341E-01 -4.5771671134271E-01  6.4746670565643E-01
93  9.2000000000000E-01 -1.4764576142697E-01 -5.0654945030055E-01  4.3234870453542E-01
94  9.3000000000000E-01 -1.1837534830318E-01 -5.5080021521610E-01  2.1501929642019E-01
95  9.4000000000000E-01 -9.0243895154675E-02 -5.9037023817874E-01 -5.4429517141847E-04
96  9.5000000000000E-01 -6.3397095957341E-02 -6.2513846333193E-01 -2.1058538686454E-01
97  9.6000000000000E-01 -3.7986299469243E-02 -6.5496359685371E-01 -4.1163428217694E-01
98  9.7000000000000E-01 -1.4166624082798E-02 -6.7968871053216E-01 -6.0056076827394E-01
99  9.8000000000000E-01  7.9059634440264E-03 -6.9914827855637E-01 -7.7461216521769E-01
100  9.9000000000000E-01  2.8078513046954E-02 -7.1317743822930E-01 -9.3143715227644E-01
101  1.0000000000000E+00  4.6205768301134E-02 -7.2162318443837E-01 -1.0690963431983E+00
102  1.0100000000000E+00  6.2155487964375E-02 -7.2435713698193E-01 -1.1860613415426E+00
103  1.0200000000000E+00  7.5814214350763E-02 -7.2128946073723E-01 -1.2812047662884E+00
104  1.0300000000000E+00  8.7093265536198E-02 -7.1238347186325E-01 -1.3537844897553E+00
105  1.0400000000000E+00  9.5934708505100E-02 -6.9767042888826E-01 -1.4034260671771E+00
106  1.0500000000000E+00  1.0231705540638E-01 -6.7726398474272E-01 -1.4301080584416E+00
107  1.0600000000000E+00  1.0626041438379E-01 -6.5137376300261E-01 -1.4341556506012E+00
108  1.0700000000000E+00  1.0783081892147E-01 -6.2031751642685E-01 -1.4162486871345E+00
109  1.0800000000000E+00  1.0714345382918E-01 -5.8453132511980E-01 -1.3774509075771E+00
110  1.0900000000000E+00  1.0436449083787E-01 -5.4457729449072E-01 -1.3192679408698E+00
111  1.1000000000000E+00  9.9711220247720E-02 -5.0114813349901E-01 -1.2437416416073E+00
112  1.1100000000000E+00  9.3449947216715E-02 -4.5506714791526E-01 -1.1535816997527E+00
113  1.1200000000000E+00  8.5883514890329E-02 -4.0725062822377E-01 -1.0520319881349E+00
114  1.1300000000000E+00  7.7331096302574E-02 -3.5863919424192E-01 -9.4241363524859E-01
115  1.1400000000000E+00  6.8118750160447E-02 -3.1017163636423E-01 -8.2798299908057E-01
116  1.1500000000000E+00  5.8572038267891E-02 -2.6276804589051E-01 -7.1188177573464E-01
117  1.1600000000000E+00  4.9008164658668E-02 -2.1731190863636E-01 -5.9709307116737E-01
118  1.1700000000000E+00  3.9727874100671E-02 -1.7463171661870E-01 -4.8640391551398E-01
119  1.1800000000000E+00  3.1007309491585E-02 -1.3548253661670E-01 -3.8237427354712E-01
120  1.1900000000000E+00  2.3086991828783E-02 -1.0052088732436E-01 -2.8732215162575E-01
121  1.2000000000000E+00  1.6124570325524E-02 -7.0192968547271E-02 -2.0343083236292E-01
122  1.2100000000000E+00  1.0290597462083E-02 -4.4961114372944E-02 -1.3240917208330E-01
123  1.2200000000000E+00  5.7251777162833E-03 -2.5205814913513E-02 -7.5603092212975E-02
124  1.2300000000000E+00  2.4997314159135E-03 -1.1137052406484E-02 -3.4107583158704E-02
125  1.2400000000000E+00  6.0961002220580E-04 -2.7607842240121E-03 -8.6535901179137E-03
126  1.2500000000000E+00  2.0078656394568E-06 -9.2372226203963E-06 -2.9485465397282E-05
127  1.2600000000000E+00  4.3336884856980E-06 -1.9937375457020E-05 -6.3768216515815E-05
128  1.2700000000000E+00 -7.6213140942821E-07  3.4724931419096E-06  1.0969235514148E-05
129  1.28 -0.  0. -0.
130  1.29  0.  0.  0.
131  1.30  0.  0.  0.
132  1.31  0.  0.  0.
133  1.32  0.  0.  0.
134  1.33  0.  0.  0.
135  1.34  0.  0.  0.
136  1.35  0.  0.  0.
137  1.36  0.  0.  0.
138  1.37  0.  0.  0.
139  1.38  0.  0.  0.
140  1.39  0.  0.  0.
141  1.40  0.  0.  0.
142  1.41  0.  0.  0.
143  1.42  0.  0.  0.
144  1.43  0.  0.  0.
145  1.44  0.  0.  0.
146  1.45  0.  0.  0.
147  1.46  0.  0.  0.
148  1.47  0.  0.  0.
149  1.48  0.  0.  0.
150  1.49  0.  0.  0.
151  1.50  0.  0.  0.
152  1.51  0.  0.  0.
153  1.52  0.  0.  0.
154  1.53  0.  0.  0.
155  1.54  0.  0.  0.
156  1.55  0.  0.  0.
157  1.56  0.  0.  0.
158  1.57  0.  0.  0.
159  1.58  0.  0.  0.
160  1.59  0.  0.  0.
161  1.60  0.  0.  0.
162  1.61  0.  0.  0.
163  1.62  0.  0.  0.
164  1.63  0.  0.  0.
165  1.64  0.  0.  0.
166  1.65  0.  0.  0.
167  1.66  0.  0.  0.
168  1.67  0.  0.  0.
169  1.68  0.  0.  0.
170  1.69  0.  0.  0.
171  1.70  0.  0.  0.
172  1.71  0.  0.  0.
173  1.72  0.  0.  0.
174  1.73  0.  0.  0.
175  1.74  0.  0.  0.
176  1.75  0.  0.  0.
177  1.76  0.  0.  0.
178  1.77  0.  0.  0.
179  1.78  0.  0.  0.
180  1.79  0.  0.  0.
181  1.80  0.  0.  0.
182  1.81  0.  0.  0.
183  1.82  0.  0.  0.
184  1.83  0.  0.  0.
185  1.84  0.  0.  0.
186  1.85  0.  0.  0.
187  1.86  0.  0.  0.
188  1.87  0.  0.  0.
189  1.88  0.  0.  0.
190  1.89  0.  0.  0.
191  1.90  0.  0.  0.
192  1.91  0.  0.  0.
193  1.92  0.  0.  0.
194  1.93  0.  0.  0.
195  1.94  0.  0.  0.
196  1.95  0.  0.  0.
197  1.96  0.  0.  0.
198  1.97  0.  0.  0.
199  1.98  0.  0.  0.
200  1.99  0.  0.  0.
201  2.00  0.  0.  0.
202  2.01  0.  0.  0.
203  2.02  0.  0.  0.
204  2.03  0.  0.  0.
205  2.04  0.  0.  0.
206  2.05  0.  0.  0.
207  2.06  0.  0.  0.
208  2.07  0.  0.  0.
209  2.08  0.  0.  0.
210  2.09  0.  0.  0.
211  2.10  0.  0.  0.
212  2.11  0.  0.  0.
213  2.12  0.  0.  0.
214  2.13  0.  0.  0.
215  2.14  0.  0.  0.
216  2.15  0.  0.  0.
217  2.16  0.  0.  0.
218  2.17  0.  0.  0.
219  2.18  0.  0.  0.
220  2.19  0.  0.  0.
221  2.20  0.  0.  0.
222  2.21  0.  0.  0.
223  2.22  0.  0.  0.
224  2.23  0.  0.  0.
225  2.24  0.  0.  0.
226  2.25  0.  0.  0.
227  2.26  0.  0.  0.
228  2.27  0.  0.  0.
229  2.28  0.  0.  0.
230  2.29  0.  0.  0.
231  2.30  0.  0.  0.
232  2.31  0.  0.  0.
233  2.32  0.  0.  0.
234  2.33  0.  0.  0.
235  2.34  0.  0.  0.
236  2.35  0.  0.  0.
237  2.36  0.  0.  0.
238  2.37  0.  0.  0.
239  2.38  0.  0.  0.
240  2.39  0.  0.  0.
241  2.40  0.  0.  0.
242  2.41  0.  0.  0.
243  2.42  0.  0.  0.
244  2.43  0.  0.  0.
245  2.44  0.  0.  0.
246  2.45  0.  0.  0.
247  2.46  0.  0.  0.
248  2.47  0.  0.  0.
249  2.48  0.  0.  0.
250  2.49  0.  0.  0.
251  2.50  0.  0.  0.
252  2.51  0.  0.  0.
253  2.52  0.  0.  0.
254  2.53  0.  0.  0.
255  2.54  0.  0.  0.
256  2.55  0.  0.  0.
257  2.56  0.  0.  0.
258  2.57  0.  0.  0.
259  2.58  0.  0.  0.
260  2.59  0.  0.  0.
261  2.60  0.  0.  0.
262  2.61  0.  0.  0.
263  2.62  0.  0.  0.
264  2.63  0.  0.  0.
265  2.64  0.  0.  0.
266  2.65  0.  0.  0.
267  2.66  0.  0.  0.
268  2.67  0.  0.  0.
269  2.68  0.  0.  0.
270  2.69  0.  0.  0.
271  2.70  0.  0.  0.
272  2.71  0.  0.  0.
273  2.72  0.  0.  0.
274  2.73  0.  0.  0.
275  2.74  0.  0.  0.
276  2.75  0.  0.  0.
277  2.76  0.  0.  0.
278  2.77  0.  0.  0.
279  2.78  0.  0.  0.
280  2.79  0.  0.  0.
281  2.80  0.  0.  0.
282  2.81  0.  0.  0.
283  2.82  0.  0.  0.
284  2.83  0.  0.  0.
285  2.84  0.  0.  0.
286  2.85  0.  0.  0.
287  2.86  0.  0.  0.
288  2.87  0.  0.  0.
289  2.88  0.  0.  0.
290  2.89  0.  0.  0.
291  2.90  0.  0.  0.
292  2.91  0.  0.  0.
293  2.92  0.  0.  0.
294  2.93  0.  0.  0.
295  2.94  0.  0.  0.
296  2.95  0.  0.  0.
297  2.96  0.  0.  0.
298  2.97  0.  0.  0.
299  2.98  0.  0.  0.
300  2.99  0.  0.  0.
301  3.00  0.  0.  0.
302  3.01  0.  0.  0.
303  3.02  0.  0.  0.
304  3.03  0.  0.  0.
305  3.04  0.  0.  0.
306  3.05  0.  0.  0.
307  3.06  0.  0.  0.
308  3.07  0.  0.  0.
309  3.08  0.  0.  0.
310  3.09  0.  0.  0.
311  3.10  0.  0.  0.
312  3.11  0.  0.  0.
313  3.12  0.  0.  0.
314  3.13  0.  0.  0.
315  3.14  0.  0.  0.
316  3.15  0.  0.  0.
317  3.16  0.  0.  0.
318  3.17  0.  0.  0.
319  3.18  0.  0.  0.
320  3.19  0.  0.  0.
321  3.20  0.  0.  0.
322  3.21  0.  0.  0.
323  3.22  0.  0.  0.
324  3.23  0.  0.  0.
325  3.24  0.  0.  0.
326  3.25  0.  0.  0.
327  3.26  0.  0.  0.
328  3.27  0.  0.  0.
329  3.28  0.  0.  0.
330  3.29  0.  0.  0.
331  3.30  0.  0.  0.
332  3.31  0.  0.  0.
333  3.32  0.  0.  0.
334  3.33  0.  0.  0.
335  3.34  0.  0.  0.
336  3.35  0.  0.  0.
337  3.36  0.  0.  0.
338  3.37  0.  0.  0.
339  3.38  0.  0.  0.
340  3.39  0.  0.  0.
341  3.40  0.  0.  0.
342  3.41  0.  0.  0.
343  3.42  0.  0.  0.
344  3.43  0.  0.  0.
345  3.44  0.  0.  0.
346  3.45  0.  0.  0.
347  3.46  0.  0.  0.
348  3.47  0.  0.  0.
349  3.48  0.  0.  0.
350  3.49  0.  0.  0.
351  3.50  0.  0.  0.
352  3.51  0.  0.  0.
353  3.52  0.  0.  0.
354  3.53  0.  0.  0.
355  3.54  0.  0.  0.
356  3.55  0.  0.  0.
357  3.56  0.  0.  0.
358  3.57  0.  0.  0.
359  3.58  0.  0.  0.
360  3.59  0.  0.  0.
361  3.60  0.  0.  0.
362  3.61  0.  0.  0.
363  3.62  0.  0.  0.
364  3.63  0.  0.  0.
365  3.64  0.  0.  0.
366  3.65  0.  0.  0.
367  3.66  0.  0.  0.
368  3.67  0.  0.  0.
369  3.68  0.  0.  0.
370  3.69  0.  0.  0.
371  3.70  0.  0.  0.
372  3.71  0.  0.  0.
373  3.72  0.  0.  0.
374  3.73  0.  0.  0.
375  3.74  0.  0.  0.
376  3.75  0.  0.  0.
377  3.76  0.  0.  0.
378  3.77  0.  0.  0.
379  3.78  0.  0.  0.
380  3.79  0.  0.  0.
381  3.80  0.  0.  0.
382  3.81  0.  0.  0.
383  3.82  0.  0.  0.
384  3.83  0.  0.  0.
385  3.84  0.  0.  0.
386  3.85  0.  0.  0.
387  3.86  0.  0.  0.
388  3.87  0.  0.  0.
389  3.88  0.  0.  0.
390  3.89  0.  0.  0.
391  3.90  0.  0.  0.
392  3.91  0.  0.  0.
393  3.92  0.  0.  0.
394  3.93  0.  0.  0.
395  3.94  0.  0.  0.
396  3.95  0.  0.  0.
397  3.96  0.  0.  0.
398  3.97  0.  0.  0.
399  3.98  0.  0.  0.
400  3.99  0.  0.  0.
401  4.00  0.  0.  0.
402  4.01  0.  0.  0.
403  4.02  0.  0.  0.
404  4.03  0.  0.  0.
405  4.04  0.  0.  0.
406  4.05  0.  0.  0.
407  4.06  0.  0.  0.
408  4.07  0.  0.  0.
409  4.08  0.  0.  0.
410  4.09  0.  0.  0.
411  4.10  0.  0.  0.
412  4.11  0.  0.  0.
413  4.12  0.  0.  0.
414  4.13  0.  0.  0.
415  4.14  0.  0.  0.
416  4.15  0.  0.  0.
417  4.16  0.  0.  0.
418  4.17  0.  0.  0.
419  4.18  0.  0.  0.
420  4.19  0.  0.  0.
421  4.20  0.  0.  0.
422  4.21  0.  0.  0.
423  4.22  0.  0.  0.
424  4.23  0.  0.  0.
425  4.24  0.  0.  0.
426  4.25  0.  0.  0.
427  4.26  0.  0.  0.
428  4.27  0.  0.  0.
429  4.28  0.  0.  0.
430  4.29  0.  0.  0.
431  4.30  0.  0.  0.
432  4.31  0.  0.  0.
433  4.32  0.  0.  0.
434  4.33  0.  0.  0.
435  4.34  0.  0.  0.
436  4.35  0.  0.  0.
437  4.36  0.  0.  0.
438  4.37  0.  0.  0.
439  4.38  0.  0.  0.
440  4.39  0.  0.  0.
441  4.40  0.  0.  0.
442  4.41  0.  0.  0.
443  4.42  0.  0.  0.
444  4.43  0.  0.  0.
445  4.44  0.  0.  0.
446  4.45  0.  0.  0.
447  4.46  0.  0.  0.
448  4.47  0.  0.  0.
449  4.48  0.  0.  0.
450  4.49  0.  0.  0.
451  4.50  0.  0.  0.
452  4.51  0.  0.  0.
453  4.52  0.  0.  0.
454  4.53  0.  0.  0.
455  4.54  0.  0.  0.
456  4.55  0.  0.  0.
457  4.56  0.  0.  0.
458  4.57  0.  0.  0.
459  4.58  0.  0.  0.
460  4.59  0.  0.  0.
461  4.60  0.  0.  0.
462  4.61  0.  0.  0.
463  4.62  0.  0.  0.
464  4.63  0.  0.  0.
465  4.64  0.  0.  0.
466  4.65  0.  0.  0.
467  4.66  0.  0.  0.
468  4.67  0.  0.  0.
469  4.68  0.  0.  0.
470  4.69  0.  0.  0.
471  4.70  0.  0.  0.
472  4.71  0.  0.  0.
473  4.72  0.  0.  0.
474  4.73  0.  0.  0.
475  4.74  0.  0.  0.
476  4.75  0.  0.  0.
477  4.76  0.  0.  0.
478  4.77  0.  0.  0.
479  4.78  0.  0.  0.
480  4.79  0.  0.  0.
481  4.80  0.  0.  0.
482  4.81  0.  0.  0.
483  4.82  0.  0.  0.
484  4.83  0.  0.  0.
485  4.84  0.  0.  0.
486  4.85  0.  0.  0.
487  4.86  0.  0.  0.
488  4.87  0.  0.  0.
489  4.88  0.  0.  0.
490  4.89  0.  0.  0.
491  4.90  0.  0.  0.
492  4.91  0.  0.  0.
493  4.92  0.  0.  0.
494  4.93  0.  0.  0.
495  4.94  0.  0.  0.
496  4.95  0.  0.  0.
497  4.96  0.  0.  0.
498  4.97  0.  0.  0.
499  4.98  0.  0.  0.
500  4.99  0.  0.  0.
501  5.00  0.  0.  0.
502  5.01  0.  0.  0.
503  5.02  0.  0.  0.
504  5.03  0.  0.  0.
505  5.04  0.  0.  0.
506  5.05  0.  0.  0.
507  5.06  0.  0.  0.
508  5.07  0.  0.  0.
509  5.08  0.  0.  0.
510  5.09  0.  0.  0.
511  5.10  0.  0.  0.
512  5.11  0.  0.  0.
513  5.12  0.  0.  0.
514  5.13  0.  0.  0.
515  5.14  0.  0.  0.
516  5.15  0.  0.  0.
517  5.16  0.  0.  0.
518  5.17  0.  0.  0.
519  5.18  0.  0.  0.
520  5.19  0.  0.  0.
521  5.20  0.  0.  0.
522  5.21  0.  0.  0.
523  5.22  0.  0.  0.
524  5.23  0.  0.  0.
525  5.24  0.  0.  0.
526  5.25  0.  0.  0.
527  5.26  0.  0.  0.
528  5.27  0.  0.  0.
529  5.28  0.  0.  0.
530  5.29  0.  0.  0.
531  5.30  0.  0.  0.
532  5.31  0.  0.  0.
533  5.32  0.  0.  0.
534  5.33  0.  0.  0.
535  5.34  0.  0.  0.
536  5.35  0.  0.  0.
537  5.36  0.  0.  0.
538  5.37  0.  0.  0.
539  5.38  0.  0.  0.
540  5.39  0.  0.  0.
541  5.40  0.  0.  0.
542  5.41  0.  0.  0.
543  5.42  0.  0.  0.
544  5.43  0.  0.  0.
545  5.44  0.  0.  0.
546  5.45  0.  0.  0.
547  5.46  0.  0.  0.
548  5.47  0.  0.  0.
549  5.48  0.  0.  0.
550  5.49  0.  0.  0.
551  5.50  0.  0.  0.
552  5.51  0.  0.  0.
553  5.52  0.  0.  0.
554  5.53  0.  0.  0.
555  5.54  0.  0.  0.
556  5.55  0.  0.  0.
557  5.56  0.  0.  0.
558  5.57  0.  0.  0.
559  5.58  0.  0.  0.
560  5.59  0.  0.  0.
561  5.60  0.  0.  0.
562  5.61  0.  0.  0.
563  5.62  0.  0.  0.
564  5.63  0.  0.  0.
565  5.64  0.  0.  0.
566  5.65  0.  0.  0.
567  5.66  0.  0.  0.
568  5.67  0.  0.  0.
569  5.68  0.  0.  0.
570  5.69  0.  0.  0.
571  5.70  0.  0.  0.
572  5.71  0.  0.  0.
573  5.72  0.  0.  0.
574  5.73  0.  0.  0.
575  5.74  0.  0.  0.
576  5.75  0.  0.  0.
577  5.76  0.  0.  0.
578  5.77  0.  0.  0.
579  5.78  0.  0.  0.
580  5.79  0.  0.  0.
581  5.80  0.  0.  0.
582  5.81  0.  0.  0.
583  5.82  0.  0.  0.
584  5.83  0.  0.  0.
585  5.84  0.  0.  0.
586  5.85  0.  0.  0.
587  5.86  0.  0.  0.
588  5.87  0.  0.  0.
589  5.88  0.  0.  0.
590  5.89  0.  0.  0.
591  5.90  0.  0.  0.
592  5.91  0.  0.  0.
593  5.92  0.  0.  0.
594  5.93  0.  0.  0.
595  5.94  0.  0.  0.
596  5.95  0.  0.  0.
597  5.96  0.  0.  0.
598  5.97  0.  0.  0.
599  5.98  0.  0.  0.
600  5.99  0.  0.  0.
1                         1.6054744365105E+01  2.2916266085191E+00
1  0.0000000000000E+00 -3.4118897901392E-08  6.6098691679783E-08
2  1.0000000000000E-02  2.8773195996431E-03  4.5322213408786E-04
3  2.0000000000000E-02  1.1504754803310E-02  1.7858073852225E-03
4  3.0000000000000E-02  2.5868187606273E-02  3.9177476570134E-03
5  4.0000000000000E-02  4.5942286938306E-02  6.7197697532008E-03
6  5.0000000000000E-02  7.1687886800084E-02  1.0019292488570E-02
7  6.0000000000000E-02  1.0304847235694E-01  1.3608465158763E-02
8  7.0000000000000E-02  1.3994592434742E-01  1.7253997819386E-02
9  8.0000000000000E-02  1.8227570628287E-01  2.0708427726125E-02
10  9.0000000000000E-02  2.2990170678723E-01  2.3722411939444E-02
11  1.0000000000000E-01  2.8265097007819E-01  2.6057595335158E-02
12  1.1000000000000E-01  3.4030856027638E-01  2.7499577491508E-02
13  1.2000000000000E-01  4.0261280945256E-01  2.7870492078742E-02
14  1.3000000000000E-01  4.6925119486142E-01  2.7040718883262E-02
15  1.4000000000000E-01  5.3985707771665E-01  2.4939271360991E-02
16  1.5000000000000E-01  6.1400751446805E-01  2.1562441016190E-02
17  1.6000000000000E-01  6.9122232244874E-01  1.6980332819113E-02
18  1.7000000000000E-01  7.7096454582313E-01  1.1340991711785E-02
19  1.8000000000000E-01  8.5264242606699E-01  4.8718969803188E-03
20  1.9000000000000E-01  9.3561293502735E-01 -2.1213134965885E-03
21  2.0000000000000E-01  1.0191868793784E+00 -9.2589360676162E-03
22  2.1000000000000E-01  1.1026355345604E+00 -1.6094064182547E-02
23  2.2000000000000E-01  1.1851987156775E+00 -2.2122080454397E-02
24  2.3000000000000E-01  1.2660941439708E+00 -2.6792546358480E-02
25  2.4000000000000E-01  1.3445279219747E+00 -2.9523173481110E-02
26  2.5000000000000E-01  1.4197058898155E+00 -2.9715484671136E-02
27  2.6000000000000E-01  1.4908456007087E+00 -2.6771709437837E-02
28  2.7000000000000E-01  1.5571886267431E+00 -2.0112407713630E-02
29  2.8000000000000E-01  1.6180128875005E+00 -9.1942814832863E-03
30  2.9000000000000E-01  1.6726446846622E+00  6.4723838793236E-03
31  3.0000000000000E-01  1.7204701259572E+00  2.7307206607300E-02
32  3.1000000000000E-01  1.7609456317566E+00  5.3644663747794E-02
33  3.2000000000000E-01  1.7936072371603E+00  8.5721018560299E-02
34  3.3000000000000E-01  1.8180784310951E+00  1.2366367133682E-01
35  3.4000000000000E-01  1.8340763109873E+00  1.6748331670783E-01
36  3.5000000000000E-01  1.8414158759635E+00  2.1706920886659E-01
37  3.6000000000000E-01  1.8400123319734E+00  2.7218774346293E-01
38  3.7000000000000E-01  1.8298813372491E+00  3.3248446399070E-01
39  3.8000000000000E-01  1.8111371744352E+00  3.9748949443893E-01
40  3.9000000000000E-01  1.7839888947856E+00  4.6662629212202E-01
41  4.0000000000000E-01  1.7487345381800E+00  5.3922350839256E-01
42  4.1000000000000E-01  1.7057535885282E+00  6.1452964381630E-01
43  4.2000000000000E-01  1.6554978756132E+00  6.9173009168686E-01
44  4.3000000000000E-01  1.5984811799021E+00  7.6996608260411E-01
45  4.4000000000000E-01  1.5352678348152E+00  8.4835497602940E-01
46  4.5000000000000E-01  1.4664606501024E+00  9.2601129465486E-01
47  4.6000000000000E-01  1.3926884993022E+00  1.0020678659613E+00
48  4.7000000000000E-01  1.3145939230231E+00  1.0756964238109E+00
49  4.8000000000000E-01  1.2328210976006E+00  1.1461270320149E+00
50  4.9000000000000E-01  1.1480045054820E+00  1.2126657215788E+00
51  5.0000000000000E-01  1.0607586197865E+00  1.2747097831133E+00
52  5.1000000000000E-01  9.7166888153101E-01  1.3317602244389E+00
53  5.2000000000000E-01  8.8128420498061E-01  1.3834309887604E+00
54  5.3000000000000E-01  7.9011119578608E-01  1.4294546284697E+00
55  5.4000000000000E-01  6.9861020955609E-01  1.4696842406269E+00
56  5.5000000000000E-01  6.0719331708155E-01  1.5040915890542E+00
57  5.6000000000000E-01  5.1622417853230E-01  1.5327614610163E+00
58  5.7000000000000E-01  4.2601976465001E-01  1.5558824297122E+00
59  5.8000000000000E-01  3.3685380037119E-01  1.5737343132625E+00
60  5.9000000000000E-01  2.4896174750935E-01  1.5866727325927E+00
61  6.0000000000000E-01  1.6254709008845E-01  1.5951112708194E+00
62  6.1000000000000E-01  7.7788640470230E-02  1.5995018220001E+00
63  6.2000000000000E-01 -5.1514518495363E-03  1.6003137843973E+00
64  6.3000000000000E-01 -8.6119332675253E-02  1.5980128002522E+00
65  6.4000000000000E-01 -1.6496107497531E-01  1.5930397686359E+00
66  6.5000000000000E-01 -2.4151467058476E-01  1.5857908590948E+00
67  6.6000000000000E-01 -3.1560273205727E-01  1.5765992311530E+00
68  6.7000000000000E-01 -3.8702623275595E-01  1.5657191186667E+00
69  6.8000000000000E-01 -4.5555957952226E-01  1.5533128697038E+00
70  6.9000000000000E-01 -5.2094726797075E-01  1.5394414439654E+00
71  7.0000000000000E-01 -5.8290231697490E-01  1.5240587633828E+00
72  7.1000000000000E-01 -6.4110661791694E-01  1.5070101906445E+00
73  7.2000000000000E-01 -6.9521326771643E-01  1.4880352787779E+00
74  7.3000000000000E-01 -7.4485088470408E-01  1.4667747967060E+00
75  7.4000000000000E-01 -7.8962983535558E-01  1.4427818953089E+00
76  7.5000000000000E-01 -8.2915023013347E-01  1.4155371405392E+00
77  7.6000000000000E-01 -8.6301148054866E-01  1.3844670090643E+00
78  7.7000000000000E-01 -8.9082314931112E-01  1.3489653220960E+00
79  7.8000000000000E-01 -9.1221677318947E-01  1.3084169885545E+00
80  7.9000000000000E-01 -9.2685829578129E-01  1.2622233430503E+00
81  8.0000000000000E-01 -9.3446071635019E-01  1.2098283003213E+00
82  8.1000000000000E-01 -9.3479654237611E-01  1.1507445080192E+00
83  8.2000000000000E-01 -9.2770962825278E-01  1.0845786655698E+00
84  8.3000000000000E-01 -9.1312599095617E-01  1.0110551888926E+00
85  8.4000000000000E-01 -8.9106321535364E-01  9.3003743880757E-01
86  8.5000000000000E-01 -8.6163809650785E-01  8.4154579387084E-01
87  8.6000000000000E-01 -8.2507221278656E-01  7.4577193416749E-01
88  8.7000000000000E-01 -7.8169518032756E-01  6.4308880847331E-01
89  8.8000000000000E-01 -7.3194540455186E-01  5.3405587963285E-01
90  8.9000000000000E-01 -6.7636821576431E-01  4.1941937784038E-01
91  9.0000000000000E-01 -6.1561135095688E-01  3.0010743407339E-01
92  9.1000000000000E-01 -5.5041782007128E-01  1.7722011116742E-01
93  9.2000000000000E-01 -4.8161626940678E-01  5.2014492662970E-02
94  9.3000000000000E-01 -4.1010902475230E-01 -7.4114875767157E-02
95  9.4000000000000E-01 -3.3685805942448E-01 -1.9965977603943E-01
96  9.5000000000000E-01 -2.6286918505333E-01 -3.2302581907198E-01
97  9.6000000000000E-01 -1.8917480323895E-01 -4.4256305818189E-01
98  9.7000000000000E-01 -1.1681558193812E-01 -5.5659906161650E-01
99  9.8000000000000E-01 -4.6821429788515E-02 -6.6347376887882E-01
100  9.9000000000000E-01  1.9807866913094E-02 -7.6157546650017E-01
101  1.0000000000000E+00  8.2122007253967E-02 -8.4937726547706E-01
102  1.0100000000000E+00  1.3923924834692E-01 -9.2547354596555E-01
103  1.0200000000000E+00  1.9036496361880E-01 -9.8861595522232E-01
104  1.0300000000000E+00  2.3480954870800E-01 -1.0377487020383E+00
105  1.0400000000000E+00  2.7200564138144E-01 -1.0720430834170E+00
106  1.0500000000000E+00  3.0152474360487E-01 -1.0909314047103E+00
107  1.0600000000000E+00  3.2309347174604E-01 -1.0941407107326E+00
108  1.0700000000000E+00  3.3660981232621E-01 -1.0817270278455E+00
109  1.0800000000000E+00  3.4215992395066E-01 -1.0541111222579E+00
110  1.0900000000000E+00  3.4003620487246E-01 -1.0121171167864E+00
111  1.1000000000000E+00  3.3075737684535E-01 -9.5701532429517E-01
112  1.1100000000000E+00  3.1508992197108E-01 -8.9056753114577E-01
113  1.1200000000000E+00  2.9400615602987E-01 -8.1493465272990E-01
114  1.1300000000000E+00  2.6857213859853E-01 -7.3243644536409E-01
115  1.1400000000000E+00  2.3990384273160E-01 -6.4546389704163E-01
116  1.1500000000000E+00  2.0914074837076E-01 -5.5643034106103E-01
117  1.1600000000000E+00  1.7741846636939E-01 -4.6772072875510E-01
118  1.1700000000000E+00  1.4584114969848E-01 -3.8164048450699E-01
119  1.1800000000000E+00  1.1545430150310E-01 -3.0036508211740E-01
120  1.1900000000000E+00  8.7213691898669E-02 -2.2588341835924E-01