Ac    ONCVPSP-4.0.1  r_core=   1.30140   1.30140   1.40664   1.55722
89.0000     29.0000      231012    zatom,zion,pspd
8 -116133   3     4   600     0    pspcod,pspxc,lmax,lloc,mmax,r2well
5.99000000  5.00000000  0.00000000    rchrg fchrg qchrg
3     2     2     1     0    nproj
1     1           extension_switch
0                         2.3416319347891E+01  2.5183030796725E+00 -7.4239058830761E-01
1  0.0000000000000E+00 -4.0868869843891E-08  1.4105595513847E-07  7.4132112115599E-09
2  1.0000000000000E-02  1.3480312411333E-01 -8.1631397749343E-02  2.1703531073017E-02
3  2.0000000000000E-02  2.6869958049787E-01 -1.6146774325498E-01  4.3387927332585E-02
4  3.0000000000000E-02  4.0079691372016E-01 -2.3775811243618E-01  6.5032133901119E-02
5  4.0000000000000E-02  5.3023072291626E-01 -3.0883857126455E-01  8.6611326916039E-02
6  5.0000000000000E-02  6.5617777506993E-01 -3.7317254321597E-01  1.0809520491562E-01
7  6.0000000000000E-02  7.7786805207473E-01 -4.2938752918180E-01  1.2944648578661E-01
8  7.0000000000000E-02  8.9459542615799E-01 -4.7630713646368E-01  1.5061966879344E-01
9  8.0000000000000E-02  1.0057266991136E+00 -5.1297751453207E-01  1.7156011379567E-01
10  9.0000000000000E-02  1.1107087894814E+00 -5.3868746332548E-01  1.9220348086204E-01
11  1.0000000000000E-01  1.2090739068341E+00 -5.5298166988565E-01  2.1247556333772E-01
12  1.1000000000000E-01  1.3004426120067E+00 -5.5566673529065E-01  2.3229253628034E-01
13  1.2000000000000E-01  1.3845247246041E+00 -5.4680986988888E-01  2.5156163034132E-01
14  1.3000000000000E-01  1.4611181025410E+00 -5.2673035418263E-01  2.7018222894064E-01
15  1.4000000000000E-01  1.5301053807639E+00 -4.9598407869379E-01  2.8804737428620E-01
16  1.5000000000000E-01  1.5914488157763E+00 -4.5534168219841E-01  3.0504565574624E-01
17  1.6000000000000E-01  1.6451834373159E+00 -4.0576099758312E-01  3.2106344261187E-01
18  1.7000000000000E-01  1.6914087568548E+00 -3.4835468248884E-01  3.3598741269059E-01
19  1.8000000000000E-01  1.7302793230264E+00 -2.8435405277215E-01  3.4970731873264E-01
20  1.9000000000000E-01  1.7619944454144E+00 -2.1507024636546E-01  3.6211892666315E-01
21  2.0000000000000E-01  1.7867874294058E+00 -1.4185392004513E-01  3.7312705319319E-01
22  2.1000000000000E-01  1.8049146753839E+00 -6.6054719671916E-02  3.8264862578748E-01
23  2.2000000000000E-01  1.8166449951074E+00  1.1018235472113E-02  3.9061568530904E-01
24  2.3000000000000E-01  1.8222494867170E+00  8.8133651520243E-02  3.9697825102227E-01
25  2.4000000000000E-01  1.8219922878039E+00  1.6417201395265E-01  4.0170696904786E-01
26  2.5000000000000E-01  1.8161224940620E+00  2.3815517761465E-01  4.0479546880498E-01
27  2.6000000000000E-01  1.8048674902293E+00  3.0927071393785E-01  4.0626235737445E-01
28  2.7000000000000E-01  1.7884278915836E+00  3.7689030331558E-01  4.0615278895025E-01
29  2.8000000000000E-01  1.7669742397089E+00  4.4058164898050E-01  4.0453955544409E-01
30  2.9000000000000E-01  1.7406455372924E+00  5.0011359289641E-01  4.0152365465864E-01
31  3.0000000000000E-01  1.7095496451946E+00  5.5545432778849E-01  3.9723430399743E-01
32  3.1000000000000E-01  1.6737655028739E+00  6.0676281594625E-01  3.9182838015411E-01
33  3.2000000000000E-01  1.6333470723832E+00  6.5437373815100E-01  3.8548927831408E-01
34  3.3000000000000E-01  1.5883288484990E+00  6.9877649846802E-01  3.7842519778733E-01
35  3.4000000000000E-01  1.5387327248925E+00  7.4058899646615E-01  3.7086687434133E-01
36  3.5000000000000E-01  1.4845759602534E+00  7.8052704197730E-01  3.6306479248857E-01
37  3.6000000000000E-01  1.4258799503932E+00  8.1937042373757E-01  3.5528592328243E-01
38  3.7000000000000E-01  1.3626794837537E+00  8.5792674799539E-01  3.4781004448419E-01
39  3.8000000000000E-01  1.2950321393615E+00  8.9699423319370E-01  3.4092571000098E-01
40  3.9000000000000E-01  1.2230274786705E+00  9.3732468001061E-01  3.3492594401295E-01
41  4.0000000000000E-01  1.1467956861898E+00  9.7958783134849E-01  3.3010374199472E-01
42  4.1000000000000E-01  1.0665153282118E+00  1.0243382944772E+00  3.2674746572523E-01
43  4.2000000000000E-01  9.8241992390446E-01  1.0719861187819E+00  3.2513622225099E-01
44  4.3000000000000E-01  8.9480305776632E-01  1.1227720098765E+00  3.2553531755007E-01
45  4.4000000000000E-01  8.0402180588679E-01  1.1767480177397E+00  3.2819187432209E-01
46  4.5000000000000E-01  7.1049829929645E-01  1.2337643674225E+00  3.3333069993775E-01
47  4.6000000000000E-01  6.1471930435320E-01  1.2934629109952E+00  3.4115048520706E-01
48  4.7000000000000E-01  5.1723376085413E-01  1.3552774746424E+00  3.5182040740683E-01
49  4.8000000000000E-01  4.1864828152184E-01  1.4184411614604E+00  3.6547720212610E-01
50  4.9000000000000E-01  3.1962067973950E-01  1.4820004551742E+00  3.8222275816874E-01
51  5.0000000000000E-01  2.2085165395623E-01  1.5448357592973E+00  4.0212227825408E-01
52  5.1000000000000E-01  1.2307481515756E-01  1.6056878066684E+00  4.2520303586736E-01
53  5.2000000000000E-01  2.7045296400069E-02  1.6631891919784E+00  4.5145374564214E-01
54  5.3000000000000E-01 -6.6472770964740E-02  1.7159001203846E+00  4.8082455142778E-01
55  5.4000000000000E-01 -1.5671959251938E-01  1.7623473335078E+00  5.1322762303566E-01
56  5.5000000000000E-01 -2.4295350789787E-01  1.8010650739737E+00  5.4853833988979E-01
57  5.6000000000000E-01 -3.2446488290285E-01  1.8306368842393E+00  5.8659702774430E-01
58  5.7000000000000E-01 -4.0058972331088E-01  1.8497370066318E+00  6.2721120356166E-01
59  5.8000000000000E-01 -4.7072264172418E-01  1.8571701601234E+00  6.7015827383585E-01
60  5.9000000000000E-01 -5.3432882443611E-01  1.8519085149961E+00  7.1518862332397E-01
61  6.0000000000000E-01 -5.9095467133189E-01  1.8331247676891E+00  7.6202902450501E-01
62  6.1000000000000E-01 -6.4023681753499E-01  1.8002203321649E+00  8.1038629326115E-01
63  6.2000000000000E-01 -6.8190928972797E-01  1.7528478074530E+00  8.5995111336901E-01
64  6.3000000000000E-01 -7.1580860145901E-01  1.6909270491364E+00  9.1040195143980E-01
65  6.4000000000000E-01 -7.4187664871338E-01  1.6146543601665E+00  9.6140898494999E-01
66  6.5000000000000E-01 -7.6016132783978E-01  1.5245045177182E+00  1.0126379688987E+00
67  6.6000000000000E-01 -7.7081486072480E-01  1.4212255616057E+00  1.0637539713041E+00
68  6.7000000000000E-01 -7.7408987500245E-01  1.3058264796616E+00  1.1144249140549E+00
69  6.8000000000000E-01 -7.7033334817827E-01  1.1795581300449E+00  1.1643248633613E+00
70  6.9000000000000E-01 -7.5997858202426E-01  1.0438879335160E+00  1.2131370229760E+00
71  7.0000000000000E-01 -7.4353542575599E-01  9.0046904449057E-01  1.2605563932064E+00
72  7.1000000000000E-01 -7.2157901183892E-01  7.5110486302037E-01  1.3062920692302E+00
73  7.2000000000000E-01 -6.9473730547893E-01  5.9770987624253E-01  1.3500691630604E+00
74  7.3000000000000E-01 -6.6367779692535E-01  4.4226791377446E-01  1.3916303443600E+00
75  7.4000000000000E-01 -6.2909368390964E-01  2.8678896439056E-01  1.4307370058927E+00
76  7.5000000000000E-01 -5.9168989945018E-01  1.3326572958696E-01  1.4671700693962E+00
77  7.6000000000000E-01 -5.5216933778023E-01 -1.6368917115246E-02  1.5007304568224E+00
78  7.7000000000000E-01 -5.1121961853274E-01 -1.6028243740465E-01  1.5312392599328E+00
79  7.8000000000000E-01 -4.6950070708604E-01 -2.9678004800481E-01  1.5585376479619E+00
80  7.9000000000000E-01 -4.2763367797554E-01 -4.2433810285244E-01  1.5824865582822E+00
81  8.0000000000000E-01 -3.8619086959789E-01 -5.4163261744147E-01  1.6029662185815E+00
82  8.1000000000000E-01 -3.4568763339602E-01 -6.4756226715450E-01  1.6198755509187E+00
83  8.2000000000000E-01 -3.0657583080360E-01 -7.4126536039805E-01  1.6331315081090E+00
84  8.3000000000000E-01 -2.6923917806149E-01 -8.2213046790989E-01  1.6426683912259E+00
85  8.4000000000000E-01 -2.3399048428233E-01 -8.8980057602781E-01  1.6484371936545E+00
86  8.5000000000000E-01 -2.0107077353182E-01 -9.4417081823735E-01  1.6504050122050E+00
87  8.6000000000000E-01 -1.7065022887498E-01 -9.8538002029878E-01  1.6485545594595E+00
88  8.7000000000000E-01 -1.4283084686550E-01 -1.0137964643418E+00  1.6428838039720E+00
89  8.8000000000000E-01 -1.1765064625967E-01 -1.0299984315999E+00  1.6334057564256E+00
90  8.9000000000000E-01 -9.5089236042341E-02 -1.0347502176640E+00  1.6201484106285E+00
91  9.0000000000000E-01 -7.5074516176845E-02 -1.0289744246951E+00  1.6031548386011E+00
92  9.1000000000000E-01 -5.7490260589045E-02 -1.0137214192454E+00  1.5824834292846E+00
93  9.2000000000000E-01 -4.2184316259983E-02 -9.9013690035702E-01  1.5582082508916E+00
94  9.3000000000000E-01 -2.8977145144287E-02 -9.5942854956228E-01  1.5304195079612E+00
95  9.4000000000000E-01 -1.7670436886026E-02 -9.2283273233153E-01  1.4992240560575E+00
96  9.5000000000000E-01 -8.0555296354263E-03 -8.8158219037784E-01  1.4647459300896E+00
97  9.6000000000000E-01  7.8606892781858E-05 -8.3687560778930E-01  1.4271268366732E+00
98  9.7000000000000E-01  6.9380484382815E-03 -7.8984985378470E-01  1.3865265570706E+00
99  9.8000000000000E-01  1.2717446338782E-02 -7.4155560412728E-01  1.3431232052327E+00
100  9.9000000000000E-01  1.7594569968019E-02 -6.9293692557222E-01  1.2971132854976E+00
101  1.0000000000000E+00  2.1725983354442E-02 -6.4481527713963E-01  1.2487114967101E+00
102  1.0100000000000E+00  2.5243938427140E-02 -5.9787824265662E-01  1.1981502339969E+00
103  1.0200000000000E+00  2.8254526996474E-02 -5.5267316512317E-01  1.1456787462079E+00
104  1.0300000000000E+00  3.0837093536676E-02 -5.0960570908854E-01  1.0915619160982E+00
105  1.0400000000000E+00  3.3044872113388E-02 -4.6894323583283E-01  1.0360786416545E+00
106  1.0500000000000E+00  3.4906774423925E-02 -4.3082274132153E-01  9.7951981044945E-01
107  1.0600000000000E+00  3.6430222566761E-02 -3.9526298101477E-01  9.2218587440935E-01
108  1.0700000000000E+00  3.7604890342694E-02 -3.6218029050847E-01  8.6438404978797E-01
109  1.0800000000000E+00  3.8407190993936E-02 -3.3140750817640E-01  8.0642518616993E-01
110  1.0900000000000E+00  3.8805327194344E-02 -3.0271531518558E-01  7.4862036887468E-01
111  1.1000000000000E+00  3.8764700691104E-02 -2.7583522933599E-01  6.9127734086858E-01
112  1.1100000000000E+00  3.8253463682999E-02 -2.5048342035746E-01  6.3469685300628E-01
113  1.1200000000000E+00  3.7247981039331E-02 -2.2638445321195E-01  5.7916907489488E-01
114  1.1300000000000E+00  3.5737960856427E-02 -2.0329400968833E-01  5.2497022252229E-01
115  1.1400000000000E+00  3.3730999286398E-02 -1.8101958276067E-01  4.7235958295398E-01
116  1.1500000000000E+00  3.1256272781680E-02 -1.5943807893113E-01  4.2157714036905E-01
117  1.1600000000000E+00  2.8367095120758E-02 -1.3850919520498E-01  3.7284203153339E-01
118  1.1700000000000E+00  2.5142036365130E-02 -1.1828335497627E-01  3.2635208195666E-01
119  1.1800000000000E+00  2.1684274215474E-02 -9.8902884127934E-02  2.8228469653175E-01
120  1.1900000000000E+00  1.8118813554523E-02 -8.0594980230338E-02  2.4079939998459E-01
121  1.2000000000000E+00  1.4587165352324E-02 -6.3654867424648E-02  2.0204234294310E-01
122  1.2100000000000E+00  1.1239019680833E-02 -4.8417331203809E-02  1.6615310870754E-01
123  1.2200000000000E+00  8.2203169798426E-03 -3.5214403600862E-02  1.3327413911525E-01
124  1.2300000000000E+00  5.6575731216535E-03 -2.4318257025674E-02  1.0356345190424E-01
125  1.2400000000000E+00  3.6244691408410E-03 -1.5827190566707E-02  7.7202582320540E-02
126  1.2500000000000E+00  2.0511180949245E-03 -9.3768891166255E-03  5.4369664694337E-02
127  1.2600000000000E+00  9.3856160618995E-04 -4.8047870969174E-03  3.5326017128971E-02
128  1.2700000000000E+00  2.7207399633168E-04 -1.9355438377501E-03  2.0283989566043E-02
129  1.2800000000000E+00 -1.7357559943241E-05 -4.7202754083818E-04  9.3741239247754E-03
130  1.2900000000000E+00 -5.0152345432023E-05 -2.7003541400258E-06  2.6199955437487E-03
131  1.3000000000000E+00 -3.3790311110044E-06  4.8733187052264E-06  8.3298422799912E-05
132  1.3100000000000E+00 -2.5676473956472E-07  3.3062853050260E-07  7.1194547789169E-06
133  1.3200000000000E+00  8.1683487996882E-08 -6.1424296871763E-08 -3.0607624096183E-06
134  1.33 -0.  0. -0.
135  1.34  0.  0.  0.
136  1.35  0.  0.  0.
137  1.36  0.  0.  0.
138  1.37  0.  0.  0.
139  1.38  0.  0.  0.
140  1.39  0.  0.  0.
141  1.40  0.  0.  0.
142  1.41  0.  0.  0.
143  1.42  0.  0.  0.
144  1.43  0.  0.  0.
145  1.44  0.  0.  0.
146  1.45  0.  0.  0.
147  1.46  0.  0.  0.
148  1.47  0.  0.  0.
149  1.48  0.  0.  0.
150  1.49  0.  0.  0.
151  1.50  0.  0.  0.
152  1.51  0.  0.  0.
153  1.52  0.  0.  0.
154  1.53  0.  0.  0.
155  1.54  0.  0.  0.
156  1.55  0.  0.  0.
157  1.56  0.  0.  0.
158  1.57  0.  0.  0.
159  1.58  0.  0.  0.
160  1.59  0.  0.  0.
161  1.60  0.  0.  0.
162  1.61  0.  0.  0.
163  1.62  0.  0.  0.
164  1.63  0.  0.  0.
165  1.64  0.  0.  0.
166  1.65  0.  0.  0.
167  1.66  0.  0.  0.
168  1.67  0.  0.  0.
169  1.68  0.  0.  0.
170  1.69  0.  0.  0.
171  1.70  0.  0.  0.
172  1.71  0.  0.  0.
173  1.72  0.  0.  0.
174  1.73  0.  0.  0.
175  1.74  0.  0.  0.
176  1.75  0.  0.  0.
177  1.76  0.  0.  0.
178  1.77  0.  0.  0.
179  1.78  0.  0.  0.
180  1.79  0.  0.  0.
181  1.80  0.  0.  0.
182  1.81  0.  0.  0.
183  1.82  0.  0.  0.
184  1.83  0.  0.  0.
185  1.84  0.  0.  0.
186  1.85  0.  0.  0.
187  1.86  0.  0.  0.
188  1.87  0.  0.  0.
189  1.88  0.  0.  0.
190  1.89  0.  0.  0.
191  1.90  0.  0.  0.
192  1.91  0.  0.  0.
193  1.92  0.  0.  0.
194  1.93  0.  0.  0.
195  1.94  0.  0.  0.
196  1.95  0.  0.  0.
197  1.96  0.  0.  0.
198  1.97  0.  0.  0.
199  1.98  0.  0.  0.
200  1.99  0.  0.  0.
201  2.00  0.  0.  0.
202  2.01  0.  0.  0.
203  2.02  0.  0.  0.
204  2.03  0.  0.  0.
205  2.04  0.  0.  0.
206  2.05  0.  0.  0.
207  2.06  0.  0.  0.
208  2.07  0.  0.  0.
209  2.08  0.  0.  0.
210  2.09  0.  0.  0.
211  2.10  0.  0.  0.
212  2.11  0.  0.  0.
213  2.12  0.  0.  0.
214  2.13  0.  0.  0.
215  2.14  0.  0.  0.
216  2.15  0.  0.  0.
217  2.16  0.  0.  0.
218  2.17  0.  0.  0.
219  2.18  0.  0.  0.
220  2.19  0.  0.  0.
221  2.20  0.  0.  0.
222  2.21  0.  0.  0.
223  2.22  0.  0.  0.
224  2.23  0.  0.  0.
225  2.24  0.  0.  0.
226  2.25  0.  0.  0.
227  2.26  0.  0.  0.
228  2.27  0.  0.  0.
229  2.28  0.  0.  0.
230  2.29  0.  0.  0.
231  2.30  0.  0.  0.
232  2.31  0.  0.  0.
233  2.32  0.  0.  0.
234  2.33  0.  0.  0.
235  2.34  0.  0.  0.
236  2.35  0.  0.  0.
237  2.36  0.  0.  0.
238  2.37  0.  0.  0.
239  2.38  0.  0.  0.
240  2.39  0.  0.  0.
241  2.40  0.  0.  0.
242  2.41  0.  0.  0.
243  2.42  0.  0.  0.
244  2.43  0.  0.  0.
245  2.44  0.  0.  0.
246  2.45  0.  0.  0.
247  2.46  0.  0.  0.
248  2.47  0.  0.  0.
249  2.48  0.  0.  0.
250  2.49  0.  0.  0.
251  2.50  0.  0.  0.
252  2.51  0.  0.  0.
253  2.52  0.  0.  0.
254  2.53  0.  0.  0.
255  2.54  0.  0.  0.
256  2.55  0.  0.  0.
257  2.56  0.  0.  0.
258  2.57  0.  0.  0.
259  2.58  0.  0.  0.
260  2.59  0.  0.  0.
261  2.60  0.  0.  0.
262  2.61  0.  0.  0.
263  2.62  0.  0.  0.
264  2.63  0.  0.  0.
265  2.64  0.  0.  0.
266  2.65  0.  0.  0.
267  2.66  0.  0.  0.
268  2.67  0.  0.  0.
269  2.68  0.  0.  0.
270  2.69  0.  0.  0.
271  2.70  0.  0.  0.
272  2.71  0.  0.  0.
273  2.72  0.  0.  0.
274  2.73  0.  0.  0.
275  2.74  0.  0.  0.
276  2.75  0.  0.  0.
277  2.76  0.  0.  0.
278  2.77  0.  0.  0.
279  2.78  0.  0.  0.
280  2.79  0.  0.  0.
281  2.80  0.  0.  0.
282  2.81  0.  0.  0.
283  2.82  0.  0.  0.
284  2.83  0.  0.  0.
285  2.84  0.  0.  0.
286  2.85  0.  0.  0.
287  2.86  0.  0.  0.
288  2.87  0.  0.  0.
289  2.88  0.  0.  0.
290  2.89  0.  0.  0.
291  2.90  0.  0.  0.
292  2.91  0.  0.  0.
293  2.92  0.  0.  0.
294  2.93  0.  0.  0.
295  2.94  0.  0.  0.
296  2.95  0.  0.  0.
297  2.96  0.  0.  0.
298  2.97  0.  0.  0.
299  2.98  0.  0.  0.
300  2.99  0.  0.  0.
301  3.00  0.  0.  0.
302  3.01  0.  0.  0.
303  3.02  0.  0.  0.
304  3.03  0.  0.  0.
305  3.04  0.  0.  0.
306  3.05  0.  0.  0.
307  3.06  0.  0.  0.
308  3.07  0.  0.  0.
309  3.08  0.  0.  0.
310  3.09  0.  0.  0.
311  3.10  0.  0.  0.
312  3.11  0.  0.  0.
313  3.12  0.  0.  0.
314  3.13  0.  0.  0.
315  3.14  0.  0.  0.
316  3.15  0.  0.  0.
317  3.16  0.  0.  0.
318  3.17  0.  0.  0.
319  3.18  0.  0.  0.
320  3.19  0.  0.  0.
321  3.20  0.  0.  0.
322  3.21  0.  0.  0.
323  3.22  0.  0.  0.
324  3.23  0.  0.  0.
325  3.24  0.  0.  0.
326  3.25  0.  0.  0.
327  3.26  0.  0.  0.
328  3.27  0.  0.  0.
329  3.28  0.  0.  0.
330  3.29  0.  0.  0.
331  3.30  0.  0.  0.
332  3.31  0.  0.  0.
333  3.32  0.  0.  0.
334  3.33  0.  0.  0.
335  3.34  0.  0.  0.
336  3.35  0.  0.  0.
337  3.36  0.  0.  0.
338  3.37  0.  0.  0.
339  3.38  0.  0.  0.
340  3.39  0.  0.  0.
341  3.40  0.  0.  0.
342  3.41  0.  0.  0.
343  3.42  0.  0.  0.
344  3.43  0.  0.  0.
345  3.44  0.  0.  0.
346  3.45  0.  0.  0.
347  3.46  0.  0.  0.
348  3.47  0.  0.  0.
349  3.48  0.  0.  0.
350  3.49  0.  0.  0.
351  3.50  0.  0.  0.
352  3.51  0.  0.  0.
353  3.52  0.  0.  0.
354  3.53  0.  0.  0.
355  3.54  0.  0.  0.
356  3.55  0.  0.  0.
357  3.56  0.  0.  0.
358  3.57  0.  0.  0.
359  3.58  0.  0.  0.
360  3.59  0.  0.  0.
361  3.60  0.  0.  0.
362  3.61  0.  0.  0.
363  3.62  0.  0.  0.
364  3.63  0.  0.  0.
365  3.64  0.  0.  0.
366  3.65  0.  0.  0.
367  3.66  0.  0.  0.
368  3.67  0.  0.  0.
369  3.68  0.  0.  0.
370  3.69  0.  0.  0.
371  3.70  0.  0.  0.
372  3.71  0.  0.  0.
373  3.72  0.  0.  0.
374  3.73  0.  0.  0.
375  3.74  0.  0.  0.
376  3.75  0.  0.  0.
377  3.76  0.  0.  0.
378  3.77  0.  0.  0.
379  3.78  0.  0.  0.
380  3.79  0.  0.  0.
381  3.80  0.  0.  0.
382  3.81  0.  0.  0.
383  3.82  0.  0.  0.
384  3.83  0.  0.  0.
385  3.84  0.  0.  0.
386  3.85  0.  0.  0.
387  3.86  0.  0.  0.
388  3.87  0.  0.  0.
389  3.88  0.  0.  0.
390  3.89  0.  0.  0.
391  3.90  0.  0.  0.
392  3.91  0.  0.  0.
393  3.92  0.  0.  0.
394  3.93  0.  0.  0.
395  3.94  0.  0.  0.
396  3.95  0.  0.  0.
397  3.96  0.  0.  0.
398  3.97  0.  0.  0.
399  3.98  0.  0.  0.
400  3.99  0.  0.  0.
401  4.00  0.  0.  0.
402  4.01  0.  0.  0.
403  4.02  0.  0.  0.
404  4.03  0.  0.  0.
405  4.04  0.  0.  0.
406  4.05  0.  0.  0.
407  4.06  0.  0.  0.
408  4.07  0.  0.  0.
409  4.08  0.  0.  0.
410  4.09  0.  0.  0.
411  4.10  0.  0.  0.
412  4.11  0.  0.  0.
413  4.12  0.  0.  0.
414  4.13  0.  0.  0.
415  4.14  0.  0.  0.
416  4.15  0.  0.  0.
417  4.16  0.  0.  0.
418  4.17  0.  0.  0.
419  4.18  0.  0.  0.
420  4.19  0.  0.  0.
421  4.20  0.  0.  0.
422  4.21  0.  0.  0.
423  4.22  0.  0.  0.
424  4.23  0.  0.  0.
425  4.24  0.  0.  0.
426  4.25  0.  0.  0.
427  4.26  0.  0.  0.
428  4.27  0.  0.  0.
429  4.28  0.  0.  0.
430  4.29  0.  0.  0.
431  4.30  0.  0.  0.
432  4.31  0.  0.  0.
433  4.32  0.  0.  0.
434  4.33  0.  0.  0.
435  4.34  0.  0.  0.
436  4.35  0.  0.  0.
437  4.36  0.  0.  0.
438  4.37  0.  0.  0.
439  4.38  0.  0.  0.
440  4.39  0.  0.  0.
441  4.40  0.  0.  0.
442  4.41  0.  0.  0.
443  4.42  0.  0.  0.
444  4.43  0.  0.  0.
445  4.44  0.  0.  0.
446  4.45  0.  0.  0.
447  4.46  0.  0.  0.
448  4.47  0.  0.  0.
449  4.48  0.  0.  0.
450  4.49  0.  0.  0.
451  4.50  0.  0.  0.
452  4.51  0.  0.  0.
453  4.52  0.  0.  0.
454  4.53  0.  0.  0.
455  4.54  0.  0.  0.
456  4.55  0.  0.  0.
457  4.56  0.  0.  0.
458  4.57  0.  0.  0.
459  4.58  0.  0.  0.
460  4.59  0.  0.  0.
461  4.60  0.  0.  0.
462  4.61  0.  0.  0.
463  4.62  0.  0.  0.
464  4.63  0.  0.  0.
465  4.64  0.  0.  0.
466  4.65  0.  0.  0.
467  4.66  0.  0.  0.
468  4.67  0.  0.  0.
469  4.68  0.  0.  0.
470  4.69  0.  0.  0.
471  4.70  0.  0.  0.
472  4.71  0.  0.  0.
473  4.72  0.  0.  0.
474  4.73  0.  0.  0.
475  4.74  0.  0.  0.
476  4.75  0.  0.  0.
477  4.76  0.  0.  0.
478  4.77  0.  0.  0.
479  4.78  0.  0.  0.
480  4.79  0.  0.  0.
481  4.80  0.  0.  0.
482  4.81  0.  0.  0.
483  4.82  0.  0.  0.
484  4.83  0.  0.  0.
485  4.84  0.  0.  0.
486  4.85  0.  0.  0.
487  4.86  0.  0.  0.
488  4.87  0.  0.  0.
489  4.88  0.  0.  0.
490  4.89  0.  0.  0.
491  4.90  0.  0.  0.
492  4.91  0.  0.  0.
493  4.92  0.  0.  0.
494  4.93  0.  0.  0.
495  4.94  0.  0.  0.
496  4.95  0.  0.  0.
497  4.96  0.  0.  0.
498  4.97  0.  0.  0.
499  4.98  0.  0.  0.
500  4.99  0.  0.  0.
501  5.00  0.  0.  0.
502  5.01  0.  0.  0.
503  5.02  0.  0.  0.
504  5.03  0.  0.  0.
505  5.04  0.  0.  0.
506  5.05  0.  0.  0.
507  5.06  0.  0.  0.
508  5.07  0.  0.  0.
509  5.08  0.  0.  0.
510  5.09  0.  0.  0.
511  5.10  0.  0.  0.
512  5.11  0.  0.  0.
513  5.12  0.  0.  0.
514  5.13  0.  0.  0.
515  5.14  0.  0.  0.
516  5.15  0.  0.  0.
517  5.16  0.  0.  0.
518  5.17  0.  0.  0.
519  5.18  0.  0.  0.
520  5.19  0.  0.  0.
521  5.20  0.  0.  0.
522  5.21  0.  0.  0.
523  5.22  0.  0.  0.
524  5.23  0.  0.  0.
525  5.24  0.  0.  0.
526  5.25  0.  0.  0.
527  5.26  0.  0.  0.
528  5.27  0.  0.  0.
529  5.28  0.  0.  0.
530  5.29  0.  0.  0.
531  5.30  0.  0.  0.
532  5.31  0.  0.  0.
533  5.32  0.  0.  0.
534  5.33  0.  0.  0.
535  5.34  0.  0.  0.
536  5.35  0.  0.  0.
537  5.36  0.  0.  0.
538  5.37  0.  0.  0.
539  5.38  0.  0.  0.
540  5.39  0.  0.  0.
541  5.40  0.  0.  0.
542  5.41  0.  0.  0.
543  5.42  0.  0.  0.
544  5.43  0.  0.  0.
545  5.44  0.  0.  0.
546  5.45  0.  0.  0.
547  5.46  0.  0.  0.
548  5.47  0.  0.  0.
549  5.48  0.  0.  0.
550  5.49  0.  0.  0.
551  5.50  0.  0.  0.
552  5.51  0.  0.  0.
553  5.52  0.  0.  0.
554  5.53  0.  0.  0.
555  5.54  0.  0.  0.
556  5.55  0.  0.  0.
557  5.56  0.  0.  0.
558  5.57  0.  0.  0.
559  5.58  0.  0.  0.
560  5.59  0.  0.  0.
561  5.60  0.  0.  0.
562  5.61  0.  0.  0.
563  5.62  0.  0.  0.
564  5.63  0.  0.  0.
565  5.64  0.  0.  0.
566  5.65  0.  0.  0.
567  5.66  0.  0.  0.
568  5.67  0.  0.  0.
569  5.68  0.  0.  0.
570  5.69  0.  0.  0.
571  5.70  0.  0.  0.
572  5.71  0.  0.  0.
573  5.72  0.  0.  0.
574  5.73  0.  0.  0.
575  5.74  0.  0.  0.
576  5.75  0.  0.  0.
577  5.76  0.  0.  0.
578  5.77  0.  0.  0.
579  5.78  0.  0.  0.
580  5.79  0.  0.  0.
581  5.80  0.  0.  0.
582  5.81  0.  0.  0.
583  5.82  0.  0.  0.
584  5.83  0.  0.  0.
585  5.84  0.  0.  0.
586  5.85  0.  0.  0.
587  5.86  0.  0.  0.
588  5.87  0.  0.  0.
589  5.88  0.  0.  0.
590  5.89  0.  0.  0.
591  5.90  0.  0.  0.
592  5.91  0.  0.  0.
593  5.92  0.  0.  0.
594  5.93  0.  0.  0.
595  5.94  0.  0.  0.
596  5.95  0.  0.  0.
597  5.96  0.  0.  0.
598  5.97  0.  0.  0.
599  5.98  0.  0.  0.
600  5.99  0.  0.  0.
1                         7.2005599611416E+00 -5.8119205279749E-01
1  0.0000000000000E+00 -6.3271169969958E-09 -2.0273581382256E-08
2  1.0000000000000E-02  2.9480014763473E-03  5.7311220105476E-05
3  2.0000000000000E-02  1.1776348198137E-02  2.4009109998337E-04
4  3.0000000000000E-02  2.6438035886748E-02  5.8047345351565E-04
5  4.0000000000000E-02  4.6854624550926E-02  1.1306784434661E-03
6  5.0000000000000E-02  7.2916104197668E-02  1.9610543933826E-03
7  6.0000000000000E-02  1.0448073628958E-01  3.1574270691094E-03
8  7.0000000000000E-02  1.4137489916670E-01  4.8178438110001E-03
9  8.0000000000000E-02  1.8339297197773E-01  7.0488201715032E-03
10  9.0000000000000E-02  2.3029729676374E-01  9.9612136572552E-03
11  1.0000000000000E-01  2.8181826201101E-01  1.3665862259909E-02
12  1.1000000000000E-01  3.3765455308687E-01  1.8269134264648E-02
13  1.2000000000000E-01  3.9747361538955E-01  2.3868540060773E-02
14  1.3000000000000E-01  4.6091237472649E-01  3.0548556188835E-02
15  1.4000000000000E-01  5.2757825638673E-01  3.8376806630771E-02
16  1.5000000000000E-01  5.9705053964596E-01  4.7400736512899E-02
17  1.6000000000000E-01  6.6888207814395E-01  5.7644899214261E-02
18  1.7000000000000E-01  7.4260140886058E-01  6.9108959756361E-02
19  1.8000000000000E-01  8.1771526348976E-01  8.1766495815904E-02
20  1.9000000000000E-01  8.9371148611315E-01  9.5564653378317E-02
21  2.0000000000000E-01  9.7006235048252E-01  1.1042468765353E-01
22  2.1000000000000E-01  1.0462282592319E+00  1.2624339219130E-01
23  2.2000000000000E-01  1.1216617962756E+00  1.4289539099130E-01
24  2.3000000000000E-01  1.1958120928325E+00  1.6023624065545E-01
25  2.4000000000000E-01  1.2681294572731E+00  1.7810626312272E-01
26  2.5000000000000E-01  1.3380702096260E+00  1.9633500507974E-01
27  2.6000000000000E-01  1.4051016534005E+00  2.1474619851902E-01
28  2.7000000000000E-01  1.4687071106395E+00  2.3316307880888E-01
29  2.8000000000000E-01  1.5283909410425E+00  2.5141390263777E-01
30  2.9000000000000E-01  1.5836834627697E+00  2.6933749877562E-01
31  3.0000000000000E-01  1.6341456912944E+00  2.8678868010036E-01
32  3.1000000000000E-01  1.6793738134759E+00  3.0364334597175E-01
33  3.2000000000000E-01  1.7190033169161E+00  3.1980310984707E-01
34  3.3000000000000E-01  1.7527126995885E+00  3.3519929792393E-01
35  3.4000000000000E-01  1.7802266915941E+00  3.4979618030885E-01
36  3.5000000000000E-01  1.8013189295626E+00  3.6359331634681E-01
37  3.6000000000000E-01  1.8158140344572E+00  3.7662691976930E-01
38  3.7000000000000E-01  1.8235890551221E+00  3.8897017656714E-01
39  3.8000000000000E-01  1.8245742525297E+00  4.0073247820588E-01
40  3.9000000000000E-01  1.8187532130223E+00  4.1205756412960E-01
41  4.0000000000000E-01  1.8061622925500E+00  4.2312059953628E-01
42  4.1000000000000E-01  1.7868894076197E+00  4.3412424621658E-01
43  4.2000000000000E-01  1.7610722020284E+00  4.4529381488154E-01
44  4.3000000000000E-01  1.7288956310998E+00  4.5687161593941E-01
45  4.4000000000000E-01  1.6905890167275E+00  4.6911065124506E-01
46  4.5000000000000E-01  1.6464226367559E+00  4.8226781113593E-01
47  4.6000000000000E-01  1.5967039208018E+00  4.9659675839078E-01
48  4.7000000000000E-01  1.5417733313272E+00  5.1234069302347E-01
49  4.8000000000000E-01  1.4820000134226E+00  5.2972519862088E-01
50  4.9000000000000E-01  1.4177772992336E+00  5.4895137197195E-01
51  5.0000000000000E-01  1.3495181532063E+00  5.7018943290066E-01
52  5.1000000000000E-01  1.2776506423370E+00  5.9357300057147E-01
53  5.2000000000000E-01  1.2026135114618E+00  6.1919420630975E-01
54  5.3000000000000E-01  1.1248519374446E+00  6.4709979157636E-01
55  5.4000000000000E-01  1.0448135281057E+00  6.7728831371067E-01
56  5.5000000000000E-01  9.6294462212421E-01  7.0970855211554E-01
57  5.6000000000000E-01  8.7968693524390E-01  7.4425917452932E-01
58  5.7000000000000E-01  7.9547458623620E-01  7.8078968784609E-01
59  5.8000000000000E-01  7.1073152359626E-01  8.1910266161504E-01
60  5.9000000000000E-01  6.2586936124359E-01  8.5895717592826E-01
61  6.0000000000000E-01  5.4128561895584E-01  9.0007340996825E-01
62  6.1000000000000E-01  4.5736235126721E-01  9.4213825408896E-01
63  6.2000000000000E-01  3.7446513747795E-01  9.8481179796057E-01
64  6.3000000000000E-01  2.9294239558887E-01  1.0277345209519E+00
65  6.4000000000000E-01  2.1312497469658E-01  1.0705349893847E+00
66  6.5000000000000E-01  1.3532597391602E-01  1.1128378492667E+00
67  6.6000000000000E-01  5.9840731435396E-02  1.1542718931354E+00
68  6.7000000000000E-01 -1.3053075009496E-02  1.1944779760871E+00
69  6.8000000000000E-01 -8.3095275059782E-02  1.2331165591140E+00
70  6.9000000000000E-01 -1.5004305676947E-01  1.2698746674958E+00
71  7.0000000000000E-01 -2.1367087422153E-01  1.3044720679963E+00
72  7.1000000000000E-01 -2.7377045795137E-01  1.3366664905812E+00
73  7.2000000000000E-01 -3.3015096637575E-01  1.3662577477164E+00
74  7.3000000000000E-01 -3.8263930687352E-01  1.3930906362669E+00
75  7.4000000000000E-01 -4.3108064441300E-01  1.4170565426883E+00
76  7.5000000000000E-01 -4.7533910403171E-01  1.4380937105507E+00
77  7.6000000000000E-01 -5.1529866144233E-01  1.4561861693460E+00
78  7.7000000000000E-01 -5.5086420398174E-01  1.4713613638057E+00
79  7.8000000000000E-01 -5.8196273245878E-01  1.4836865623942E+00
80  7.9000000000000E-01 -6.0854466360981E-01  1.4932641610424E+00
81  8.0000000000000E-01 -6.3058518323490E-01  1.5002260323885E+00
82  8.1000000000000E-01 -6.4808559202983E-01  1.5047271007254E+00
83  8.2000000000000E-01 -6.6107457996938E-01  1.5069383475670E+00
84  8.3000000000000E-01 -6.6960936110255E-01  1.5070394714115E+00
85  8.4000000000000E-01 -6.7377659899400E-01  1.5052114372809E+00
86  8.5000000000000E-01 -6.7369305391490E-01  1.5016291564810E+00
87  8.6000000000000E-01 -6.6950588630707E-01  1.4964545345422E+00
88  8.7000000000000E-01 -6.6139255698504E-01  1.4898301154362E+00
89  8.8000000000000E-01 -6.4956027289578E-01  1.4818735331281E+00
90  8.9000000000000E-01 -6.3424493783415E-01  1.4726729577463E+00
91  9.0000000000000E-01 -6.1570958005089E-01  1.4622836937673E+00
92  9.1000000000000E-01 -5.9424224285656E-01  1.4507260524494E+00
93  9.2000000000000E-01 -5.7015333972549E-01  1.4379845813127E+00
94  9.3000000000000E-01 -5.4377249159606E-01  1.4240086909067E+00
95  9.4000000000000E-01 -5.1544488056853E-01  1.4087146746761E+00
96  9.5000000000000E-01 -4.8552717050987E-01  1.3919890728038E+00
97  9.6000000000000E-01 -4.5438306068055E-01  1.3736932868218E+00
98  9.7000000000000E-01 -4.2237855288044E-01  1.3536693099566E+00
99  9.8000000000000E-01 -3.8987702528642E-01  1.3317463999475E+00
100  9.9000000000000E-01 -3.5723421665877E-01  1.3077484877297E+00
101  1.0000000000000E+00 -3.2479323251977E-01  1.2815020880762E+00
102  1.0100000000000E+00 -2.9287968989754E-01  1.2528444580610E+00
103  1.0200000000000E+00 -2.6179711899308E-01  1.2216317369274E+00
104  1.0300000000000E+00 -2.3182273846903E-01  1.1877467972364E+00
105  1.0400000000000E+00 -2.0320371583069E-01  1.1511065425340E+00
106  1.0500000000000E+00 -1.7615401554564E-01  1.1116684014150E+00
107  1.0600000000000E+00 -1.5085192518346E-01  1.0694357917446E+00
108  1.0700000000000E+00 -1.2743833403906E-01  1.0244623618188E+00
109  1.0800000000000E+00 -1.0601581973670E-01  9.7685485674894E-01
110  1.0900000000000E+00 -8.6648576386699E-02  9.2677450792650E-01
111  1.1000000000000E+00 -6.9363193438020E-02  8.7443690002221E-01
112  1.1100000000000E+00 -5.4150267836245E-02  8.2011033264093E-01
113  1.1200000000000E+00 -4.0966803878616E-02  7.6411276148171E-01
114  1.1300000000000E+00 -2.9739325928399E-02  7.0680747499692E-01
115  1.1400000000000E+00 -2.0367599205371E-02  6.4859773636902E-01