Ac    ONCVPSP-4.0.1  r_core=   1.30140   1.30140   1.40664   1.55722
89.0000     29.0000      231012    zatom,zion,pspd
8 -116133   3     4   600     0    pspcod,pspxc,lmax,lloc,mmax,r2well
5.99000000  5.00000000  0.00000000    rchrg fchrg qchrg
3     3     3     1    nproj
3     1           extension_switch
4     4     2    nprojso
0                         2.3544672962274E+01  2.5272233530159E+00 -7.3742942733853E-01
1  0.0000000000000E+00 -4.1514822246569E-08  1.4319274255215E-07  7.5530000864799E-09
2  1.0000000000000E-02  1.3485652668860E-01 -8.2307604392311E-02  2.1556796456546E-02
3  2.0000000000000E-02  2.6880265251702E-01 -1.6280300312271E-01  4.3095858075661E-02
4  3.0000000000000E-02  4.0094234618484E-01 -2.3971866860897E-01  6.4597485234173E-02
5  4.0000000000000E-02  5.3040794011538E-01 -3.1137514523902E-01  8.6038121194856E-02
6  5.0000000000000E-02  6.5637338504946E-01 -3.7622191357277E-01  1.0738860267542E-01
7  6.0000000000000E-02  7.7806642299416E-01 -4.3287455555645E-01  1.2861261977229E-01
8  7.0000000000000E-02  8.9477936875334E-01 -4.8014716284322E-01  1.4966544585292E-01
9  8.0000000000000E-02  1.0058782317812E+00 -5.1707907350656E-01  1.7049299047717E-01
10  9.0000000000000E-02  1.1108099595582E+00 -5.4295519306486E-01  1.9103121934347E-01
11  1.0000000000000E-01  1.2091076395758E+00 -5.5731934861599E-01  2.1120597491370E-01
12  1.1000000000000E-01  1.3003935576241E+00 -5.5998033413067E-01  2.3093322002383E-01
13  1.2000000000000E-01  1.3843800735504E+00 -5.5101052421342E-01  2.5011971473040E-01
14  1.3000000000000E-01  1.4608683400514E+00 -5.3073715622469E-01  2.6866412419259E-01
15  1.4000000000000E-01  1.5297449534183E+00 -4.9972659980604E-01  2.8645854287175E-01
16  1.5000000000000E-01  1.5909766855235E+00 -4.5876214188421E-01  3.0339040807501E-01
17  1.6000000000000E-01  1.6446035018834E+00 -4.0881600780129E-01  3.1934476419906E-01
18  1.7000000000000E-01  1.6907301196592E+00 -3.5101650946834E-01  3.3420682825517E-01
19  1.8000000000000E-01  1.7295164004669E+00 -2.8661135420231E-01  3.4786479766271E-01
20  1.9000000000000E-01  1.7611669046158E+00 -2.1692825885228E-01  3.6021283314461E-01
21  2.0000000000000E-01  1.7859199549185E+00 -1.4333408959510E-01  3.7115414306502E-01
22  2.1000000000000E-01  1.8040365688702E+00 -6.7193786102835E-02  3.8060409089711E-01
23  2.2000000000000E-01  1.8157896174633E+00  1.0169671467848E-02  3.8849324482987E-01
24  2.3000000000000E-01  1.8214535572304E+00  8.7513033012432E-02  3.9477028790087E-01
25  2.4000000000000E-01  1.8212950596585E+00  1.6370714297087E-01  3.9940470850632E-01
26  2.5000000000000E-01  1.8155648296139E+00  2.3776686623725E-01  4.0238919466925E-01
27  2.6000000000000E-01  1.8044908628732E+00  3.0887568545194E-01  4.0374166096556E-01
28  2.7000000000000E-01  1.7882733435777E+00  3.7640424923454E-01  4.0350684438899E-01
29  2.8000000000000E-01  1.7670813269561E+00  4.3992234234831E-01  4.0175741450695E-01
30  2.9000000000000E-01  1.7410512927281E+00  4.9920395615292E-01  3.9859455380153E-01
31  3.0000000000000E-01  1.7102875920795E+00  5.5422535461440E-01  3.9414797584801E-01
32  3.1000000000000E-01  1.6748647479463E+00  6.0515625089855E-01  3.8857536167081E-01
33  3.2000000000000E-01  1.6348315065289E+00  6.5234442542422E-01  3.8206120792192E-01
34  3.3000000000000E-01  1.5902164794160E+00  6.9629432151756E-01  3.7481509412131E-01
35  3.4000000000000E-01  1.5410351622635E+00  7.3764034319974E-01  3.6706938974871E-01
36  3.5000000000000E-01  1.4872980693215E+00  7.7711574531955E-01  3.5907643514340E-01
37  3.6000000000000E-01  1.4290196846973E+00  8.1551814414281E-01  3.5110524262880E-01
38  3.7000000000000E-01  1.3662279023019E+00  8.5367278236312E-01  3.4343777572226E-01
39  3.8000000000000E-01  1.2989736078596E+00  8.9239475307518E-01  3.3636487443282E-01
40  3.9000000000000E-01  1.2273400487725E+00  9.3245142036667E-01  3.3018190323985E-01
41  4.0000000000000E-01  1.1514516412701E+00  9.7452626885539E-01  3.2518420517113E-01
42  4.1000000000000E-01  1.0714818790522E+00  1.0191853708884E+00  3.2166245029108E-01
43  4.2000000000000E-01  9.8766003311033E-01  1.0668475796057E+00  3.1989796974835E-01
44  4.3000000000000E-01  9.0027636781193E-01  1.1177594411512E+00  3.2015816724998E-01
45  4.4000000000000E-01  8.0968564257850E-01  1.1719756735589E+00  3.2269209841077E-01
46  4.5000000000000E-01  7.1630872022284E-01  1.2293458877594E+00  3.2772630490977E-01
47  4.6000000000000E-01  6.2063216063868E-01  1.2895080330879E+00  3.3546098486413E-01
48  4.7000000000000E-01  5.2320574028901E-01  1.3518888415736E+00  3.4606657344350E-01
49  4.8000000000000E-01  4.2463790191024E-01  1.4157113286113E+00  3.5968079868487E-01
50  4.9000000000000E-01  3.2558920306316E-01  1.4800091890267E+00  3.7640626695783E-01
51  5.0000000000000E-01  2.2676389464131E-01  1.5436477138012E+00  3.9630862083929E-01
52  5.1000000000000E-01  1.2889981926159E-01  1.6053506503850E+00  4.1941529957717E-01
53  5.2000000000000E-01  3.2756872796706E-02  1.6637322448353E+00  4.4571491917229E-01
54  5.3000000000000E-01 -6.0895681478655E-02  1.7173335426092E+00  4.7515727571152E-01
55  5.4000000000000E-01 -1.5129271898907E-01  1.7646618916555E+00  5.0765396227768E-01
56  5.5000000000000E-01 -2.3768722510428E-01  1.8042324905270E+00  5.4307957686955E-01
57  5.6000000000000E-01 -3.1936435902213E-01  1.8346107586053E+00  5.8127348660310E-01
58  5.7000000000000E-01 -3.9565523146220E-01  1.8544542771275E+00  6.2204210232899E-01
59  5.8000000000000E-01 -4.6595002229675E-01  1.8625530593020E+00  6.6516160795329E-01
60  5.9000000000000E-01 -5.2971008030641E-01  1.8578669549869E+00  7.1038108042226E-01
61  6.0000000000000E-01 -5.8647867391085E-01  1.8395590786211E+00  7.5742592971302E-01
62  6.1000000000000E-01 -6.3589009815472E-01  1.8070242656515E+00  8.0600158340458E-01
63  6.2000000000000E-01 -6.7767688830163E-01  1.7599117089019E+00  8.5579733758012E-01
64  6.3000000000000E-01 -7.1167494270449E-01  1.6981410975687E+00  9.0649029497216E-01
65  6.4000000000000E-01 -7.3782641557555E-01  1.6219117724602E+00  9.5774931239607E-01
66  6.5000000000000E-01 -7.5618030209415E-01  1.5317046157709E+00  1.0092388825592E+00
67  6.6000000000000E-01 -7.6689070208296E-01  1.4282766057942E+00  1.0606228801697E+00
68  6.7000000000000E-01 -7.7021281232077E-01  1.3126481799926E+00  1.1115681087381E+00
69  6.8000000000000E-01 -7.6649675951486E-01  1.1860837572676E+00  1.1617475923637E+00
70  6.9000000000000E-01 -7.5617944419081E-01  1.0500659658484E+00  1.2108435658861E+00
71  7.0000000000000E-01 -7.3977461853825E-01  9.0626430104620E-01  1.2585501267873E+00
72  7.1000000000000E-01 -7.1786146705720E-01  7.5649909199496E-01  1.3045755228670E+00
73  7.2000000000000E-01 -6.9107199636547E-01  6.0270178387357E-01  1.3486440606623E+00
74  7.3000000000000E-01 -6.6007756872542E-01  4.4687263842079E-01  1.3904976305452E+00
75  7.4000000000000E-01 -6.2557493199013E-01  2.9103701818589E-01  1.4298968550858E+00
76  7.5000000000000E-01 -5.8827210634326E-01  1.3720144740865E-01  1.4666218773231E+00
77  7.6000000000000E-01 -5.4887448532795E-01 -1.2689365731012E-02  1.5004728147539E+00
78  7.7000000000000E-01 -5.0807149547595E-01 -1.5679340379282E-01  1.5312699128899E+00
79  7.8000000000000E-01 -4.6652413591925E-01 -2.9340904613395E-01  1.5588534389121E+00
80  7.9000000000000E-01 -4.2485368755472E-01 -4.2100864725065E-01  1.5830833611059E+00
81  8.0000000000000E-01 -3.8363184175395E-01 -5.3826716139185E-01  1.6038388632440E+00
82  8.1000000000000E-01 -3.4337245261786E-01 -6.4408514265479E-01  1.6210177448213E+00
83  8.2000000000000E-01 -3.0452506588692E-01 -7.3760562205208E-01  1.6345357579962E+00
84  8.3000000000000E-01 -2.6747032348320E-01 -8.1822454684052E-01  1.6443259302780E+00
85  8.4000000000000E-01 -2.3251728699706E-01 -8.8559465692418E-01  1.6503379184859E+00
86  8.5000000000000E-01 -1.9990266797055E-01 -9.3962286252231E-01  1.6525374344156E+00
87  8.6000000000000E-01 -1.6979189925653E-01 -9.8046137078666E-01  1.6509057761407E+00
88  8.7000000000000E-01 -1.4228193163875E-01 -1.0084929812128E+00  1.6454394911699E+00
89  8.8000000000000E-01 -1.1740559472183E-01 -1.0243111255639E+00  1.6361501890051E+00
90  8.9000000000000E-01 -9.5137322092711E-02 -1.0286953632610E+00  1.6230645112871E+00
91  9.0000000000000E-01 -7.5400008935682E-02 -1.0225831542199E+00  1.6062242579685E+00
92  9.1000000000000E-01 -5.8072746416313E-02 -1.0070388151791E+00  1.5856866581291E+00
93  9.2000000000000E-01 -4.2999161722963E-02 -9.8322062087167E-01  1.5615247644701E+00
94  9.3000000000000E-01 -2.9996085871360E-02 -9.5234703706909E-01  1.5338279415146E+00
95  9.4000000000000E-01 -1.8862273162310E-02 -9.1566306866190E-01  1.5027024094070E+00
96  9.5000000000000E-01 -9.3869061755139E-03 -8.7440767357272E-01  1.4682717982493E+00
97  9.6000000000000E-01 -1.3576377942162E-03 -8.2978313425669E-01  1.4306776624014E+00
98  9.7000000000000E-01  5.4320538471269E-03 -7.8292719549152E-01  1.3900799003611E+00
99  9.8000000000000E-01  1.1176391416333E-02 -7.3488867333931E-01  1.3466570239230E+00
100  9.9000000000000E-01  1.6051864549255E-02 -6.8660711937192E-01  1.3006062204777E+00
101  1.0000000000000E+00  2.0212957029357E-02 -6.3889699056970E-01  1.2521431546739E+00
102  1.0100000000000E+00  2.3789115555862E-02 -5.9243663299202E-01  1.2015014603070E+00
103  1.0200000000000E+00  2.6882999519236E-02 -5.4776224070412E-01  1.1489318802716E+00
104  1.0300000000000E+00  2.9570010442184E-02 -5.0526680467741E-01  1.0947010216861E+00
105  1.0400000000000E+00  3.1899060418148E-02 -4.6520392298774E-01  1.0390897048534E+00
106  1.0500000000000E+00  3.3894502042368E-02 -4.2769620727987E-01  9.8239089843400E-01
107  1.0600000000000E+00  3.5559108667888E-02 -3.9274789355430E-01  9.2490724895816E-01
108  1.0700000000000E+00  3.6877963854297E-02 -3.6026114974156E-01  8.6694823045657E-01
109  1.0800000000000E+00  3.7823092990703E-02 -3.3005546977005E-01  8.0882695928079E-01
110  1.0900000000000E+00  3.8358648150050E-02 -3.0188945361577E-01  7.5085673998891E-01
111  1.1000000000000E+00  3.8446439133115E-02 -2.7548419496557E-01  6.9334743017247E-01
112  1.1100000000000E+00  3.8051588789211E-02 -2.5054743080108E-01  6.3660173508046E-01
113  1.1200000000000E+00  3.7148078274973E-02 -2.2679754799137E-01  5.8091156663792E-01
114  1.1300000000000E+00  3.5723936937540E-02 -2.0398648783658E-01  5.2655462557876E-01
115  1.1400000000000E+00  3.3785820634885E-02 -1.8192053598956E-01  4.7379138985540E-01
116  1.1500000000000E+00  3.1362710214051E-02 -1.6047792826156E-01  4.2286271674285E-01
117  1.1600000000000E+00  2.8508446775325E-02 -1.3962213652161E-01  3.7398829017979E-01
118  1.1700000000000E+00  2.5302800756134E-02 -1.1940961858420E-01  3.2736616835089E-01
119  1.1800000000000E+00  2.1850745715909E-02 -9.9990714745925E-02  2.8317370939369E-01
120  1.1900000000000E+00  1.8279573414548E-02 -8.1602246483835E-02  2.4157017499082E-01
121  1.2000000000000E+00  1.4733442388444E-02 -6.4550213229509E-02  2.0270133245858E-01
122  1.2100000000000E+00  1.1364895815624E-02 -4.9180784757783E-02  1.6670639561456E-01
123  1.2200000000000E+00  8.3227528887591E-03 -3.5837359965077E-02  1.3372762816063E-01
124  1.2300000000000E+00  5.7362352476839E-03 -2.4802768222788E-02  1.0392329066405E-01
125  1.2400000000000E+00  3.6811694131366E-03 -1.6183983925360E-02  7.7475796259316E-02
126  1.2500000000000E+00  2.0881023069880E-03 -9.6198074239661E-03  5.4564694450946E-02
127  1.2600000000000E+00  9.5945052264686E-04 -4.9532069784029E-03  3.5453817037845E-02
128  1.2700000000000E+00  2.8153831690155E-04 -2.0130062195492E-03  2.0357646864561E-02
129  1.2800000000000E+00 -1.4501769907764E-05 -5.0311711375463E-04  9.4081352915255E-03
130  1.2900000000000E+00 -4.9869904430979E-05 -9.7910481100555E-06  2.6294529977683E-03
131  1.3000000000000E+00 -3.3842059810687E-06  4.6641122731788E-06  8.3599885795057E-05
132  1.3100000000000E+00 -2.5777475347761E-07  3.1827636317801E-07  7.1447830938222E-06
133  1.3200000000000E+00  8.1795385373597E-08 -5.5165775169553E-08 -3.0716850341740E-06
134  1.33  0.  0.  0.
135  1.34  0.  0.  0.
136  1.35  0.  0.  0.
137  1.36  0.  0.  0.
138  1.37  0.  0.  0.
139  1.38  0.  0.  0.
140  1.39  0.  0.  0.
141  1.40  0.  0.  0.
142  1.41  0.  0.  0.
143  1.42  0.  0.  0.
144  1.43  0.  0.  0.
145  1.44  0.  0.  0.
146  1.45  0.  0.  0.
147  1.46  0.  0.  0.
148  1.47  0.  0.  0.
149  1.48  0.  0.  0.
150  1.49  0.  0.  0.
151  1.50  0.  0.  0.
152  1.51  0.  0.  0.
153  1.52  0.  0.  0.
154  1.53  0.  0.  0.
155  1.54  0.  0.  0.
156  1.55  0.  0.  0.
157  1.56  0.  0.  0.
158  1.57  0.  0.  0.
159  1.58  0.  0.  0.
160  1.59  0.  0.  0.
161  1.60  0.  0.  0.
162  1.61  0.  0.  0.
163  1.62  0.  0.  0.
164  1.63  0.  0.  0.
165  1.64  0.  0.  0.
166  1.65  0.  0.  0.
167  1.66  0.  0.  0.
168  1.67  0.  0.  0.
169  1.68  0.  0.  0.
170  1.69  0.  0.  0.
171  1.70  0.  0.  0.
172  1.71  0.  0.  0.
173  1.72  0.  0.  0.
174  1.73  0.  0.  0.
175  1.74  0.  0.  0.
176  1.75  0.  0.  0.
177  1.76  0.  0.  0.
178  1.77  0.  0.  0.
179  1.78  0.  0.  0.
180  1.79  0.  0.  0.
181  1.80  0.  0.  0.
182  1.81  0.  0.  0.
183  1.82  0.  0.  0.
184  1.83  0.  0.  0.
185  1.84  0.  0.  0.
186  1.85  0.  0.  0.
187  1.86  0.  0.  0.
188  1.87  0.  0.  0.
189  1.88  0.  0.  0.
190  1.89  0.  0.  0.
191  1.90  0.  0.  0.
192  1.91  0.  0.  0.
193  1.92  0.  0.  0.
194  1.93  0.  0.  0.
195  1.94  0.  0.  0.
196  1.95  0.  0.  0.
197  1.96  0.  0.  0.
198  1.97  0.  0.  0.
199  1.98  0.  0.  0.
200  1.99  0.  0.  0.
201  2.00  0.  0.  0.
202  2.01  0.  0.  0.
203  2.02  0.  0.  0.
204  2.03  0.  0.  0.
205  2.04  0.  0.  0.
206  2.05  0.  0.  0.
207  2.06  0.  0.  0.
208  2.07  0.  0.  0.
209  2.08  0.  0.  0.
210  2.09  0.  0.  0.
211  2.10  0.  0.  0.
212  2.11  0.  0.  0.
213  2.12  0.  0.  0.
214  2.13  0.  0.  0.
215  2.14  0.  0.  0.
216  2.15  0.  0.  0.
217  2.16  0.  0.  0.
218  2.17  0.  0.  0.
219  2.18  0.  0.  0.
220  2.19  0.  0.  0.
221  2.20  0.  0.  0.
222  2.21  0.  0.  0.
223  2.22  0.  0.  0.
224  2.23  0.  0.  0.
225  2.24  0.  0.  0.
226  2.25  0.  0.  0.
227  2.26  0.  0.  0.
228  2.27  0.  0.  0.
229  2.28  0.  0.  0.
230  2.29  0.  0.  0.
231  2.30  0.  0.  0.
232  2.31  0.  0.  0.
233  2.32  0.  0.  0.
234  2.33  0.  0.  0.
235  2.34  0.  0.  0.
236  2.35  0.  0.  0.
237  2.36  0.  0.  0.
238  2.37  0.  0.  0.
239  2.38  0.  0.  0.
240  2.39  0.  0.  0.
241  2.40  0.  0.  0.
242  2.41  0.  0.  0.
243  2.42  0.  0.  0.
244  2.43  0.  0.  0.
245  2.44  0.  0.  0.
246  2.45  0.  0.  0.
247  2.46  0.  0.  0.
248  2.47  0.  0.  0.
249  2.48  0.  0.  0.
250  2.49  0.  0.  0.
251  2.50  0.  0.  0.
252  2.51  0.  0.  0.
253  2.52  0.  0.  0.
254  2.53  0.  0.  0.
255  2.54  0.  0.  0.
256  2.55  0.  0.  0.
257  2.56  0.  0.  0.
258  2.57  0.  0.  0.
259  2.58  0.  0.  0.
260  2.59  0.  0.  0.
261  2.60  0.  0.  0.
262  2.61  0.  0.  0.
263  2.62  0.  0.  0.
264  2.63  0.  0.  0.
265  2.64  0.  0.  0.
266  2.65  0.  0.  0.
267  2.66  0.  0.  0.
268  2.67  0.  0.  0.
269  2.68  0.  0.  0.
270  2.69  0.  0.  0.
271  2.70  0.  0.  0.
272  2.71  0.  0.  0.
273  2.72  0.  0.  0.
274  2.73  0.  0.  0.
275  2.74  0.  0.  0.
276  2.75  0.  0.  0.
277  2.76  0.  0.  0.
278  2.77  0.  0.  0.
279  2.78  0.  0.  0.
280  2.79  0.  0.  0.
281  2.80  0.  0.  0.
282  2.81  0.  0.  0.
283  2.82  0.  0.  0.
284  2.83  0.  0.  0.
285  2.84  0.  0.  0.
286  2.85  0.  0.  0.
287  2.86  0.  0.  0.
288  2.87  0.  0.  0.
289  2.88  0.  0.  0.
290  2.89  0.  0.  0.
291  2.90  0.  0.  0.
292  2.91  0.  0.  0.
293  2.92  0.  0.  0.
294  2.93  0.  0.  0.
295  2.94  0.  0.  0.
296  2.95  0.  0.  0.
297  2.96  0.  0.  0.
298  2.97  0.  0.  0.
299  2.98  0.  0.  0.
300  2.99  0.  0.  0.
301  3.00  0.  0.  0.
302  3.01  0.  0.  0.
303  3.02  0.  0.  0.
304  3.03  0.  0.  0.
305  3.04  0.  0.  0.
306  3.05  0.  0.  0.
307  3.06  0.  0.  0.
308  3.07  0.  0.  0.
309  3.08  0.  0.  0.
310  3.09  0.  0.  0.
311  3.10  0.  0.  0.
312  3.11  0.  0.  0.
313  3.12  0.  0.  0.
314  3.13  0.  0.  0.
315  3.14  0.  0.  0.
316  3.15  0.  0.  0.
317  3.16  0.  0.  0.
318  3.17  0.  0.  0.
319  3.18  0.  0.  0.
320  3.19  0.  0.  0.
321  3.20  0.  0.  0.
322  3.21  0.  0.  0.
323  3.22  0.  0.  0.
324  3.23  0.  0.  0.
325  3.24  0.  0.  0.
326  3.25  0.  0.  0.
327  3.26  0.  0.  0.
328  3.27  0.  0.  0.
329  3.28  0.  0.  0.
330  3.29  0.  0.  0.
331  3.30  0.  0.  0.
332  3.31  0.  0.  0.
333  3.32  0.  0.  0.
334  3.33  0.  0.  0.
335  3.34  0.  0.  0.
336  3.35  0.  0.  0.
337  3.36  0.  0.  0.
338  3.37  0.  0.  0.
339  3.38  0.  0.  0.
340  3.39  0.  0.  0.
341  3.40  0.  0.  0.
342  3.41  0.  0.  0.
343  3.42  0.  0.  0.
344  3.43  0.  0.  0.
345  3.44  0.  0.  0.
346  3.45  0.  0.  0.
347  3.46  0.  0.  0.
348  3.47  0.  0.  0.
349  3.48  0.  0.  0.
350  3.49  0.  0.  0.
351  3.50  0.  0.  0.
352  3.51  0.  0.  0.
353  3.52  0.  0.  0.
354  3.53  0.  0.  0.
355  3.54  0.  0.  0.
356  3.55  0.  0.  0.
357  3.56  0.  0.  0.
358  3.57  0.  0.  0.
359  3.58  0.  0.  0.
360  3.59  0.  0.  0.
361  3.60  0.  0.  0.
362  3.61  0.  0.  0.
363  3.62  0.  0.  0.
364  3.63  0.  0.  0.
365  3.64  0.  0.  0.
366  3.65  0.  0.  0.
367  3.66  0.  0.  0.
368  3.67  0.  0.  0.
369  3.68  0.  0.  0.
370  3.69  0.  0.  0.
371  3.70  0.  0.  0.
372  3.71  0.  0.  0.
373  3.72  0.  0.  0.
374  3.73  0.  0.  0.
375  3.74  0.  0.  0.
376  3.75  0.  0.  0.
377  3.76  0.  0.  0.
378  3.77  0.  0.  0.
379  3.78  0.  0.  0.
380  3.79  0.  0.  0.
381  3.80  0.  0.  0.
382  3.81  0.  0.  0.
383  3.82  0.  0.  0.
384  3.83  0.  0.  0.
385  3.84  0.  0.  0.
386  3.85  0.  0.  0.
387  3.86  0.  0.  0.
388  3.87  0.  0.  0.
389  3.88  0.  0.  0.
390  3.89  0.  0.  0.
391  3.90  0.  0.  0.
392  3.91  0.  0.  0.
393  3.92  0.  0.  0.
394  3.93  0.  0.  0.
395  3.94  0.  0.  0.
396  3.95  0.  0.  0.
397  3.96  0.  0.  0.
398  3.97  0.  0.  0.
399  3.98  0.  0.  0.
400  3.99  0.  0.  0.
401  4.00  0.  0.  0.
402  4.01  0.  0.  0.
403  4.02  0.  0.  0.
404  4.03  0.  0.  0.
405  4.04  0.  0.  0.
406  4.05  0.  0.  0.
407  4.06  0.  0.  0.
408  4.07  0.  0.  0.
409  4.08  0.  0.  0.
410  4.09  0.  0.  0.
411  4.10  0.  0.  0.
412  4.11  0.  0.  0.
413  4.12  0.  0.  0.
414  4.13  0.  0.  0.
415  4.14  0.  0.  0.
416  4.15  0.  0.  0.
417  4.16  0.  0.  0.
418  4.17  0.  0.  0.
419  4.18  0.  0.  0.
420  4.19  0.  0.  0.
421  4.20  0.  0.  0.
422  4.21  0.  0.  0.
423  4.22  0.  0.  0.
424  4.23  0.  0.  0.
425  4.24  0.  0.  0.
426  4.25  0.  0.  0.
427  4.26  0.  0.  0.
428  4.27  0.  0.  0.
429  4.28  0.  0.  0.
430  4.29  0.  0.  0.
431  4.30  0.  0.  0.
432  4.31  0.  0.  0.
433  4.32  0.  0.  0.
434  4.33  0.  0.  0.
435  4.34  0.  0.  0.
436  4.35  0.  0.  0.
437  4.36  0.  0.  0.
438  4.37  0.  0.  0.
439  4.38  0.  0.  0.
440  4.39  0.  0.  0.
441  4.40  0.  0.  0.
442  4.41  0.  0.  0.
443  4.42  0.  0.  0.
444  4.43  0.  0.  0.
445  4.44  0.  0.  0.
446  4.45  0.  0.  0.
447  4.46  0.  0.  0.
448  4.47  0.  0.  0.
449  4.48  0.  0.  0.
450  4.49  0.  0.  0.
451  4.50  0.  0.  0.
452  4.51  0.  0.  0.
453  4.52  0.  0.  0.
454  4.53  0.  0.  0.
455  4.54  0.  0.  0.
456  4.55  0.  0.  0.
457  4.56  0.  0.  0.
458  4.57  0.  0.  0.
459  4.58  0.  0.  0.
460  4.59  0.  0.  0.
461  4.60  0.  0.  0.
462  4.61  0.  0.  0.
463  4.62  0.  0.  0.
464  4.63  0.  0.  0.
465  4.64  0.  0.  0.
466  4.65  0.  0.  0.
467  4.66  0.  0.  0.
468  4.67  0.  0.  0.
469  4.68  0.  0.  0.
470  4.69  0.  0.  0.
471  4.70  0.  0.  0.
472  4.71  0.  0.  0.
473  4.72  0.  0.  0.
474  4.73  0.  0.  0.
475  4.74  0.  0.  0.
476  4.75  0.  0.  0.
477  4.76  0.  0.  0.
478  4.77  0.  0.  0.
479  4.78  0.  0.  0.
480  4.79  0.  0.  0.
481  4.80  0.  0.  0.
482  4.81  0.  0.  0.
483  4.82  0.  0.  0.
484  4.83  0.  0.  0.
485  4.84  0.  0.  0.
486  4.85  0.  0.  0.
487  4.86  0.  0.  0.
488  4.87  0.  0.  0.
489  4.88  0.  0.  0.
490  4.89  0.  0.  0.
491  4.90  0.  0.  0.
492  4.91  0.  0.  0.
493  4.92  0.  0.  0.
494  4.93  0.  0.  0.
495  4.94  0.  0.  0.
496  4.95  0.  0.  0.
497  4.96  0.  0.  0.
498  4.97  0.  0.  0.
499  4.98  0.  0.  0.
500  4.99  0.  0.  0.
501  5.00  0.  0.  0.
502  5.01  0.  0.  0.
503  5.02  0.  0.  0.
504  5.03  0.  0.  0.
505  5.04  0.  0.  0.
506  5.05  0.  0.  0.
507  5.06  0.  0.  0.
508  5.07  0.  0.  0.
509  5.08  0.  0.  0.
510  5.09  0.  0.  0.
511  5.10  0.  0.  0.
512  5.11  0.  0.  0.
513  5.12  0.  0.  0.
514  5.13  0.  0.  0.
515  5.14  0.  0.  0.
516  5.15  0.  0.  0.
517  5.16  0.  0.  0.
518  5.17  0.  0.  0.
519  5.18  0.  0.  0.
520  5.19  0.  0.  0.
521  5.20  0.  0.  0.
522  5.21  0.  0.  0.
523  5.22  0.  0.  0.
524  5.23  0.  0.  0.
525  5.24  0.  0.  0.
526  5.25  0.  0.  0.
527  5.26  0.  0.  0.
528  5.27  0.  0.  0.
529  5.28  0.  0.  0.
530  5.29  0.  0.  0.
531  5.30  0.  0.  0.
532  5.31  0.  0.  0.
533  5.32  0.  0.  0.
534  5.33  0.  0.  0.
535  5.34  0.  0.  0.
536  5.35  0.  0.  0.
537  5.36  0.  0.  0.
538  5.37  0.  0.  0.
539  5.38  0.  0.  0.
540  5.39  0.  0.  0.
541  5.40  0.  0.  0.
542  5.41  0.  0.  0.
543  5.42  0.  0.  0.
544  5.43  0.  0.  0.
545  5.44  0.  0.  0.
546  5.45  0.  0.  0.
547  5.46  0.  0.  0.
548  5.47  0.  0.  0.
549  5.48  0.  0.  0.
550  5.49  0.  0.  0.
551  5.50  0.  0.  0.
552  5.51  0.  0.  0.
553  5.52  0.  0.  0.
554  5.53  0.  0.  0.
555  5.54  0.  0.  0.
556  5.55  0.  0.  0.
557  5.56  0.  0.  0.
558  5.57  0.  0.  0.
559  5.58  0.  0.  0.
560  5.59  0.  0.  0.
561  5.60  0.  0.  0.
562  5.61  0.  0.  0.
563  5.62  0.  0.  0.
564  5.63  0.  0.  0.
565  5.64  0.  0.  0.
566  5.65  0.  0.  0.
567  5.66  0.  0.  0.
568  5.67  0.  0.  0.
569  5.68  0.  0.  0.
570  5.69  0.  0.  0.
571  5.70  0.  0.  0.
572  5.71  0.  0.  0.
573  5.72  0.  0.  0.
574  5.73  0.  0.  0.
575  5.74  0.  0.  0.
576  5.75  0.  0.  0.
577  5.76  0.  0.  0.
578  5.77  0.  0.  0.
579  5.78  0.  0.  0.
580  5.79  0.  0.  0.
581  5.80  0.  0.  0.
582  5.81  0.  0.  0.
583  5.82  0.  0.  0.
584  5.83  0.  0.  0.
585  5.84  0.  0.  0.
586  5.85  0.  0.  0.
587  5.86  0.  0.  0.
588  5.87  0.  0.  0.
589  5.88  0.  0.  0.
590  5.89  0.  0.  0.
591  5.90  0.  0.  0.
592  5.91  0.  0.  0.
593  5.92  0.  0.  0.
594  5.93  0.  0.  0.
595  5.94  0.  0.  0.
596  5.95  0.  0.  0.
597  5.96  0.  0.  0.
598  5.97  0.  0.  0.
599  5.98  0.  0.  0.
600  5.99  0.  0.  0.
1                         6.9302633841942E+00 -6.0727016023136E-01  2.1328603381412E-02
1  0.0000000000000E+00 -6.2920350318851E-09 -1.8622712504024E-08  5.8533374536207E-09
2  1.0000000000000E-02  2.9675854992356E-03  9.0018720597134E-05 -3.6897485253695E-03
3  2.0000000000000E-02  1.1854422393184E-02  3.6979173762412E-04 -1.4716646408858E-02
4  3.0000000000000E-02  2.6612723306237E-02  8.6810053313876E-04 -3.2953892001037E-02
5  4.0000000000000E-02  4.7162751711740E-02  1.6316961900134E-03 -5.8190959224449E-02
6  5.0000000000000E-02  7.3392700527512E-02  2.7235147197290E-03 -9.0134830629116E-02
7  6.0000000000000E-02  1.0515855150132E-01  4.2202619889678E-03 -1.2841175868951E-01
8  7.0000000000000E-02  1.4228394349189E-01  6.2094486044827E-03 -1.7256958787998E-01
9  8.0000000000000E-02  1.8456008404299E-01  8.7859737384308E-03 -2.2208067591880E-01
10  9.0000000000000E-02  2.3174574370942E-01  1.2048372424551E-02 -2.7634545600474E-01
11  1.0000000000000E-01  2.8356737622865E-01  1.6094852836789E-02 -3.3469668253772E-01
12  1.1000000000000E-01  3.3971940968826E-01  2.1019258090673E-02 -3.9640440044903E-01
13  1.2000000000000E-01  3.9986475421379E-01  2.6907090915869E-02 -4.6068167273083E-01
14  1.3000000000000E-01  4.6363557034121E-01  3.3831738994502E-02 -5.2669109201549E-01
15  1.4000000000000E-01  5.3063433914451E-01  4.1851033832851E-02 -5.9355209020228E-01
16  1.5000000000000E-01  6.0043527041654E-01  5.1004266855874E-02 -6.6034904537806E-01
17  1.6000000000000E-01  6.7258607885798E-01  6.1309773233978E-02 -7.2614016795166E-01
18  1.7000000000000E-01  7.4661015047280E-01  7.2763177143029E-02 -7.8996712845981E-01
19  1.8000000000000E-01  8.2200911240132E-01  8.5336372205249E-02 -8.5086536842568E-01
20  1.9000000000000E-01  8.9826580948824E-01  9.8977288344039E-02 -9.0787501358354E-01
21  2.0000000000000E-01  9.7484768025839E-01  1.1361047187385E-01 -9.6005228638964E-01
22  2.1000000000000E-01  1.0512105139598E+00  1.2913848006478E-01 -1.0064812927423E+00
23  2.2000000000000E-01  1.1268025592512E+00  1.4544406543938E-01 -1.0462860369787E+00
24  2.3000000000000E-01  1.2010689442862E+00  1.6239309946446E-01 -1.0786425002298E+00
25  2.4000000000000E-01  1.2734563577004E+00  1.7983816087778E-01 -1.1027906008291E+00
26  2.5000000000000E-01  1.3434179306630E+00  1.9762269139638E-01 -1.1180458423390E+00
27  2.6000000000000E-01  1.4104182519899E+00  2.1558560169584E-01 -1.1238104454918E+00
28  2.7000000000000E-01  1.4739384416100E+00  2.3356619396658E-01 -1.1195837554407E+00
29  2.8000000000000E-01  1.5334812026433E+00  2.5140925458774E-01 -1.1049717155873E+00
30  2.9000000000000E-01  1.5885757691785E+00  2.6897016195135E-01 -1.0796952041745E+00
31  3.0000000000000E-01  1.6387826656568E+00  2.8611985053368E-01 -1.0435970399439E+00
32  3.1000000000000E-01  1.6836981946548E+00  3.0274947313218E-01 -9.9664747846259E-01
33  3.2000000000000E-01  1.7229585728331E+00  3.1877460880820E-01 -9.3894804107327E-01
34  3.3000000000000E-01  1.7562436398372E+00  3.3413887440071E-01 -8.7073354351573E-01
35  3.4000000000000E-01  1.7832800719063E+00  3.4881681226442E-01 -7.9237222067301E-01
36  3.5000000000000E-01  1.8038440407122E+00  3.6281594576321E-01 -7.0436387703272E-01
37  3.6000000000000E-01  1.8177632683016E+00  3.7617791651408E-01 -6.0733602862661E-01
38  3.7000000000000E-01  1.8249184407033E+00  3.8897864281429E-01 -5.0203804062264E-01
39  3.8000000000000E-01  1.8252439554924E+00  4.0132746638418E-01 -3.8933330449792E-01
40  3.9000000000000E-01  1.8187279920417E+00  4.1336528373097E-01 -2.7018953887546E-01
41  4.0000000000000E-01  1.8054119070022E+00  4.2526168824493E-01 -1.4566733766616E-01
42  4.1000000000000E-01  1.7853889713570E+00  4.3721117870323E-01 -1.6907127129684E-02
43  4.2000000000000E-01  1.7588024788369E+00  4.4942851830209E-01  1.1488527113704E-01
44  4.3000000000000E-01  1.7258432682004E+00  4.6214335480680E-01  2.4845424239156E-01
45  4.4000000000000E-01  1.6867467135271E+00  4.7559423609105E-01  3.8251088971963E-01
46  4.5000000000000E-01  1.6417892469429E+00  4.9002217549047E-01  5.1575017504209E-01
47  4.6000000000000E-01  1.5912844867979E+00  5.0566393737463E-01  6.4686839485413E-01
48  4.7000000000000E-01  1.5355790510394E+00  5.2274522461414E-01  7.7458068516248E-01
49  4.8000000000000E-01  1.4750481401638E+00  5.4147395578238E-01  8.9763824652401E-01
50  4.9000000000000E-01  1.4100909765909E+00  5.6203382072955E-01  1.0148449833847E+00
51  5.0000000000000E-01  1.3411261875055E+00  5.8457829849753E-01  1.1250732620881E+00
52  5.1000000000000E-01  1.2685872161743E+00  6.0922531146540E-01  1.2272785087965E+00
53  5.2000000000000E-01  1.1929178425292E+00  6.3605267434576E-01  1.3205123918004E+00
54  5.3000000000000E-01  1.1145678875528E+00  6.6509447656620E-01  1.4039343617745E+00
55  5.4000000000000E-01  1.0339891678985E+00  6.9633851218866E-01  1.4768213577926E+00
56  5.5000000000000E-01  9.5163175747031E-01  7.2972484350036E-01  1.5385755255296E+00
57  5.6000000000000E-01  8.6794060167665E-01  7.6514555352301E-01  1.5887298361256E+00
58  5.7000000000000E-01  7.8335251809222E-01  8.0244570980239E-01  1.6269515386239E+00
59  5.8000000000000E-01  6.9829360466779E-01  8.4142552789460E-01  1.6530434246396E+00
60  5.9000000000000E-01  6.1317706381484E-01  8.8184368894282E-01  1.6669429298168E+00
61  6.0000000000000E-01  5.2840143803952E-01  9.2342173263597E-01  1.6687191415481E+00
62  6.1000000000000E-01  4.4434924069934E-01  9.6584941564381E-01  1.6585678252510E+00
63  6.2000000000000E-01  3.6138595427379E-01  1.0087908972718E+00  1.6368046211324E+00
64  6.3000000000000E-01  2.7985935861935E-01  1.0518915894435E+00  1.6038565988667E+00
65  6.4000000000000E-01  2.0009914332309E-01  1.0947854879657E+00  1.5602523880784E+00
66  6.5000000000000E-01  1.2241675173375E-01  1.1371027870160E+00  1.5066111272400E+00
67  6.6000000000000E-01  4.7105399733788E-02  1.1784775694041E+00  1.4436304919729E+00
68  6.7000000000000E-01 -2.5559790042383E-02  1.2185553617524E+00  1.3720740754088E+00
69  6.8000000000000E-01 -9.5321597970851E-02  1.2570003464766E+00  1.2927583979749E+00
70  6.9000000000000E-01 -1.6194051851618E-01  1.2935020313136E+00  1.2065398217233E+00
71  7.0000000000000E-01 -2.2519462571621E-01  1.3277811919410E+00  1.1143016352808E+00
72  7.1000000000000E-01 -2.8487953991199E-01  1.3595949235960E+00  1.0169415600104E+00
73  7.2000000000000E-01 -3.4080853450920E-01  1.3887406629640E+00  9.1535990658509E-01
74  7.3000000000000E-01 -3.9281281197351E-01  1.4150590712901E+00  8.1044858457853E-01
75  7.4000000000000E-01 -4.4074196747020E-01  1.4384357028019E+00  7.0308113668318E-01
76  7.5000000000000E-01 -4.8446464692256E-01  1.4588014181906E+00  5.9410393475999E-01
77  7.6000000000000E-01 -5.2386939418058E-01  1.4761315400135E+00  4.8432863809534E-01
78  7.7000000000000E-01 -5.5886566988023E-01  1.4904437843732E+00  3.7452597611744E-01
79  7.8000000000000E-01 -5.8938501285841E-01  1.5017950399608E+00  2.6542087948868E-01
80  7.9000000000000E-01 -6.1538230408792E-01  1.5102771004183E+00  1.5768894606306E-01
81  8.0000000000000E-01 -6.3683708341055E-01  1.5160114878991E+00  5.1954192720048E-02
82  8.1000000000000E-01 -6.5375486124168E-01  1.5191435336979E+00 -5.1211988448469E-02
83  8.2000000000000E-01 -6.6616836121904E-01  1.5198359049820E+00 -1.5129077983697E-01
84  8.3000000000000E-01 -6.7413862573960E-01  1.5182617842475E+00 -2.4781492830859E-01
85  8.4000000000000E-01 -6.7775591467357E-01  1.5145979195331E+00 -3.4036692885260E-01
86  8.5000000000000E-01 -6.7714032839433E-01  1.5090177682519E+00 -4.2857656871604E-01
87  8.6000000000000E-01 -6.7244208967057E-01  1.5016849555150E+00 -5.1211800639024E-01