Mt    ONCVPSP-4.0.1  r_core=   1.10144   1.10144   1.10144   1.20485
109.0000     49.0000      231012    zatom,zion,pspd
8   -1012   3     4   600     0    pspcod,pspxc,lmax,lloc,mmax,r2well
5.99000000  3.00000000  0.00000000    rchrg fchrg qchrg
3     2     2     2     0    nproj
1     1           extension_switch
0                        -1.4311849532443E+01  9.9680058259571E+00 -3.7754187048802E-01
1  0.0000000000000E+00 -9.1729457363243E-10  3.8487988351932E-08 -8.5960492557380E-08
2  1.0000000000000E-02  7.6710268050837E-02  1.7902109012640E-01 -1.5027478234862E-02
3  2.0000000000000E-02  1.5324604268966E-01  3.5634436578464E-01 -2.9963129317205E-02
4  3.0000000000000E-02  2.2943333313803E-01  5.3028722138065E-01 -4.4715364026238E-02
5  4.0000000000000E-02  3.0509914918479E-01  6.9919748457079E-01 -5.9193329576600E-02
6  5.0000000000000E-02  3.8007198998637E-01  8.6146866018763E-01 -7.3307903516343E-02
7  6.0000000000000E-02  4.5418231981672E-01  1.0155551756099E+00 -8.6973368107783E-02
8  7.0000000000000E-02  5.2726302758848E-01  1.1599875780962E+00 -1.0010987998947E-01
9  8.0000000000000E-02  5.9914986788428E-01  1.2933875961139E+00 -1.1264676395697E-01
10  9.0000000000000E-02  6.6968188228013E-01  1.4144829337223E+00 -1.2452656411949E-01
11  1.0000000000000E-01  7.3870180085118E-01  1.5221216226096E+00 -1.3570968734780E-01
12  1.1000000000000E-01  8.0605642485802E-01  1.6152857136544E+00 -1.4617938007226E-01
13  1.2000000000000E-01  8.7159699265162E-01  1.6931040520989E+00 -1.5594669731116E-01
14  1.3000000000000E-01  9.3517953174378E-01  1.7548638506735E+00 -1.6505505900779E-01
15  1.4000000000000E-01  9.9666520070737E-01  1.8000207560280E+00 -1.7358394909541E-01
16  1.5000000000000E-01  1.0559206250478E+00  1.8282070978442E+00 -1.8165130166619E-01
17  1.6000000000000E-01  1.1128182313854E+00  1.8392380186301E+00 -1.8941413903405E-01
18  1.7000000000000E-01  1.1672365841848E+00  1.8331152062939E+00 -1.9706707936973E-01
19  1.8000000000000E-01  1.2190607288494E+00  1.8100279912030E+00 -2.0483841597758E-01
20  1.9000000000000E-01  1.2681825442807E+00  1.7703516237732E+00 -2.1298358323310E-01
21  2.0000000000000E-01  1.3145011069995E+00  1.7146426160907E+00 -2.2177596087053E-01
22  2.1000000000000E-01  1.3579230676854E+00  1.6436311092647E+00 -2.3149512216100E-01
23  2.2000000000000E-01  1.3983630395562E+00  1.5582103141248E+00 -2.4241279465852E-01
24  2.3000000000000E-01  1.4357439964554E+00  1.4594231629331E+00 -2.5477696569641E-01
25  2.4000000000000E-01  1.4699976769043E+00  1.3484464000760E+00 -2.6879471926207E-01
26  2.5000000000000E-01  1.5010649887935E+00  1.2265724261363E+00 -2.8461452679322E-01
27  2.6000000000000E-01  1.5288964079055E+00  1.0951892882648E+00 -3.0230882285360E-01
28  2.7000000000000E-01  1.5534523621647E+00  9.5575927654123E-01 -3.2185776957437E-01
29  2.8000000000000E-01  1.5747035924610E+00  8.0979663764762E-01 -3.4313514471611E-01
30  2.9000000000000E-01  1.5926314801589E+00  6.5884495086708E-01 -3.6589727260285E-01
31  3.0000000000000E-01  1.6072283310301E+00  5.0445472514813E-01 -3.8977585263532E-01
32  3.1000000000000E-01  1.6184976053666E+00  3.4816176857069E-01 -4.1427542668855E-01
33  3.2000000000000E-01  1.6264540844609E+00  1.9146685281878E-01 -4.3877606706026E-01
34  3.3000000000000E-01  1.6311239644773E+00  3.5817145983813E-02 -4.6254166593235E-01
35  3.4000000000000E-01  1.6325448699634E+00 -1.1741018105577E-01 -4.8473397307572E-01
36  3.5000000000000E-01  1.6307657808266E+00 -2.6692185365126E-01 -5.0443227040924E-01
37  3.6000000000000E-01  1.6258468684655E+00 -4.1151967367045E-01 -5.2065830135892E-01
38  3.7000000000000E-01  1.6178592388489E+00 -5.5010886240337E-01 -5.3240580230621E-01
39  3.8000000000000E-01  1.6068845825722E+00 -6.8170355690916E-01 -5.3867372593718E-01
40  3.9000000000000E-01  1.5930147342272E+00 -8.0542955925767E-01 -5.3850201520800E-01
41  4.0000000000000E-01  1.5763511456938E+00 -9.2052454103292E-01 -5.3100859446339E-01
42  4.1000000000000E-01  1.5570042801096E+00 -1.0263359979761E+00 -5.1542610226048E-01
43  4.2000000000000E-01  1.5350929352165E+00 -1.1223173274836E+00 -4.9113680804521E-01
44  4.3000000000000E-01  1.5107435064364E+00 -1.2080224611926E+00 -4.5770413898542E-01
45  4.4000000000000E-01  1.4840892013287E+00 -1.2830995232494E+00 -4.1489929812359E-01
46  4.5000000000000E-01  1.4552692179745E+00 -1.3472840001614E+00 -3.6272158156984E-01
47  4.6000000000000E-01  1.4244279002888E+00 -1.4003918995724E+00 -3.0141119837817E-01
48  4.7000000000000E-01  1.3917138832549E+00 -1.4423133431343E+00 -2.3145365638084E-01
49  4.8000000000000E-01  1.3572792406239E+00 -1.4730069842920E+00 -1.5357509171922E-01
50  4.9000000000000E-01  1.3212786467338E+00 -1.4924955677230E+00 -6.8728277343759E-02
51  5.0000000000000E-01  1.2838685628341E+00 -1.5008628568156E+00  2.1930567885901E-02
52  5.1000000000000E-01  1.2452064567012E+00 -1.4982520532207E+00  1.1707364883333E-01
53  5.2000000000000E-01  1.2054500624770E+00 -1.4848657230690E+00  2.1524122742534E-01
54  5.3000000000000E-01  1.1647566856410E+00 -1.4609671332620E+00  3.1488773285564E-01
55  5.4000000000000E-01  1.1232825559237E+00 -1.4268827938216E+00  4.1443273003084E-01
56  5.5000000000000E-01  1.0811822288864E+00 -1.3830059040753E+00  5.1231485230392E-01
57  5.6000000000000E-01  1.0386080349190E+00 -1.3298003165518E+00  6.0704660011287E-01
58  5.7000000000000E-01  9.9570957263500E-01 -1.2678045674076E+00  6.9726778546849E-01
59  5.8000000000000E-01  9.5263324214648E-01 -1.1976354797095E+00  7.8179537189067E-01
60  5.9000000000000E-01  9.0952181255724E-01 -1.1199908287110E+00  8.5966752521312E-01
61  6.0000000000000E-01  8.6651401725541E-01 -1.0356505679546E+00  9.3017985339805E-01
62  6.1000000000000E-01  8.2374417026490E-01 -9.4547615198152E-01  9.9291206960177E-01
63  6.2000000000000E-01  7.8134179702985E-01 -8.5040755468869E-01  1.0477436544442E+00
64  6.3000000000000E-01  7.3943127355332E-01 -7.5145766975628E-01  1.0948575089584E+00
65  6.4000000000000E-01  6.9813146876245E-01 -6.4970388768086E-01  1.1347310635818E+00
66  6.5000000000000E-01  6.5755538627813E-01 -5.4627676833360E-01  1.1681148222723E+00
67  6.6000000000000E-01  6.1780980336347E-01 -4.4234586328379E-01  1.1959988535234E+00
68  6.7000000000000E-01  5.7899490663395E-01 -3.3910288237770E-01  1.2195682692846E+00
69  6.8000000000000E-01  5.4120392604139E-01 -2.3774253784338E-01  1.2401492356138E+00
70  6.9000000000000E-01  5.0452277059986E-01 -1.3944152998644E-01  1.2591475127235E+00
71  7.0000000000000E-01  4.6902967120299E-01 -4.5336254996396E-02  1.2779819057355E+00
72  7.1000000000000E-01  4.3479483759462E-01  4.3500088361115E-02  1.2980153021813E+00
73  7.2000000000000E-01  4.0188013800617E-01  1.2608024547510E-01  1.3204861624941E+00
74  7.3000000000000E-01  3.7033881108651E-01  2.0152471689334E-01  1.3464434039548E+00
75  7.4000000000000E-01  3.4021522045819E-01  2.6908183537495E-01  1.3766875699091E+00
76  7.5000000000000E-01  3.1154466248915E-01  3.2814533561726E-01  1.4117210028021E+00
77  7.6000000000000E-01  2.8435323764596E-01  3.7826870213789E-01  1.4517094452018E+00
78  7.7000000000000E-01  2.5865779508466E-01  4.1917567220719E-01  1.4964570863579E+00
79  7.8000000000000E-01  2.3446595895554E-01  4.5076639177270E-01  1.5453965668852E+00
80  7.9000000000000E-01  2.1177624328503E-01  4.7311886866193E-01  1.5975948694549E+00
81  8.0000000000000E-01  1.9057826030817E-01  4.8648553345034E-01  1.6517753813658E+00
82  8.1000000000000E-01  1.7085302483315E-01  4.9128489763121E-01  1.7063557412586E+00
83  8.2000000000000E-01  1.5257335471485E-01  4.8808848380273E-01  1.7595004046849E+00
84  8.3000000000000E-01  1.3570436489564E-01  4.7760338570212E-01  1.8091862104524E+00
85  8.4000000000000E-01  1.2020404984571E-01  4.6065098916536E-01  1.8532786300915E+00
86  8.5000000000000E-01  1.0602394670891E-01  4.3814254080189E-01  1.8896158634156E+00
87  8.6000000000000E-01  9.3109869137810E-02  4.1105238223927E-01  1.9160975283472E+00
88  8.7000000000000E-01  8.1402699780289E-02  3.8038976800948E-01  1.9307744035437E+00
89  8.8000000000000E-01  7.0839227743642E-02  3.4717024948990E-01  1.9319355337951E+00
90  8.9000000000000E-01  6.1353016179191E-02  3.1238763219169E-01  1.9181890110255E+00
91  9.0000000000000E-01  5.2875284450415E-02  2.7698749713365E-01  1.8885329023085E+00
92  9.1000000000000E-01  4.5335789198153E-02  2.4184321882194E-01  1.8424131084510E+00
93  9.2000000000000E-01  3.8663689002690E-02  2.0773531403061E-01  1.7797653937622E+00
94  9.3000000000000E-01  3.2788378246734E-02  1.7533482044365E-01  1.7010394147396E+00
95  9.4000000000000E-01  2.7640277164764E-02  1.4519123725249E-01  1.6072032717555E+00
96  9.5000000000000E-01  2.3151566862320E-02  1.1772536738795E-01  1.4997278877784E+00
97  9.6000000000000E-01  1.9256860224983E-02  9.3227190823372E-02  1.3805513518663E+00
98  9.7000000000000E-01  1.5893802017350E-02  7.1858678866303E-02  1.2520242197582E+00
99  9.8000000000000E-01  1.3003593995066E-02  5.3661239554045E-02  1.1168376053029E+00
100  9.9000000000000E-01  1.0531443407487E-02  3.8567273535928E-02  9.7793668970849E-01
101  1.0000000000000E+00  8.4269357489396E-03  2.6415126906311E-02  8.3842298832343E-01
102  1.0100000000000E+00  6.6443349147757E-03  1.6966560967178E-02  7.0144931533892E-01
103  1.0200000000000E+00  5.1428159413682E-03  9.9257260232977E-03  5.7011184956071E-01
104  1.0300000000000E+00  3.8866389497757E-03  4.9585262393550E-03  4.4734401641340E-01
105  1.0400000000000E+00  2.8452580249323E-03  1.7113151948259E-03  3.3581689215125E-01
106  1.0500000000000E+00  1.9922708381953E-03 -1.6828156032728E-04  2.3784609612651E-01
107  1.0600000000000E+00  1.2980131766751E-03 -9.7888082647551E-04  1.5526813638768E-01
108  1.0700000000000E+00  7.5267814807236E-04 -1.0480532164892E-03  8.9502117058382E-02
109  1.0800000000000E+00  3.5383970356595E-04 -7.0554609785464E-04  4.1503673858775E-02
110  1.0900000000000E+00  1.0189568287812E-04 -2.6037166360621E-04  1.1701884350705E-02
111  1.1000000000000E+00  3.0661474535869E-06 -9.5325933252076E-06  3.4070630711345E-04
112  1.1100000000000E+00  4.4919665867094E-07 -1.3780471313152E-06  5.0412491177379E-05
113  1.1200000000000E+00 -5.1147055036609E-08  1.4499811970119E-07 -5.8076697542766E-06
114  1.13  0.  0.  0.
115  1.14  0.  0.  0.
116  1.15  0.  0.  0.
117  1.16  0.  0.  0.
118  1.17  0.  0.  0.
119  1.18  0.  0.  0.
120  1.19  0.  0.  0.
121  1.20  0.  0.  0.
122  1.21  0.  0.  0.
123  1.22  0.  0.  0.
124  1.23  0.  0.  0.
125  1.24  0.  0.  0.
126  1.25  0.  0.  0.
127  1.26  0.  0.  0.
128  1.27  0.  0.  0.
129  1.28  0.  0.  0.
130  1.29  0.  0.  0.
131  1.30  0.  0.  0.
132  1.31  0.  0.  0.
133  1.32  0.  0.  0.
134  1.33  0.  0.  0.
135  1.34  0.  0.  0.
136  1.35  0.  0.  0.
137  1.36  0.  0.  0.
138  1.37  0.  0.  0.
139  1.38  0.  0.  0.
140  1.39  0.  0.  0.
141  1.40  0.  0.  0.
142  1.41  0.  0.  0.
143  1.42  0.  0.  0.
144  1.43  0.  0.  0.
145  1.44  0.  0.  0.
146  1.45  0.  0.  0.
147  1.46  0.  0.  0.
148  1.47  0.  0.  0.
149  1.48  0.  0.  0.
150  1.49  0.  0.  0.
151  1.50  0.  0.  0.
152  1.51  0.  0.  0.
153  1.52  0.  0.  0.
154  1.53  0.  0.  0.
155  1.54  0.  0.  0.
156  1.55  0.  0.  0.
157  1.56  0.  0.  0.
158  1.57  0.  0.  0.
159  1.58  0.  0.  0.
160  1.59  0.  0.  0.
161  1.60  0.  0.  0.
162  1.61  0.  0.  0.
163  1.62  0.  0.  0.
164  1.63  0.  0.  0.
165  1.64  0.  0.  0.
166  1.65  0.  0.  0.
167  1.66  0.  0.  0.
168  1.67  0.  0.  0.
169  1.68  0.  0.  0.
170  1.69  0.  0.  0.
171  1.70  0.  0.  0.
172  1.71  0.  0.  0.
173  1.72  0.  0.  0.
174  1.73  0.  0.  0.
175  1.74  0.  0.  0.
176  1.75  0.  0.  0.
177  1.76  0.  0.  0.
178  1.77  0.  0.  0.
179  1.78  0.  0.  0.
180  1.79  0.  0.  0.
181  1.80  0.  0.  0.
182  1.81  0.  0.  0.
183  1.82  0.  0.  0.
184  1.83  0.  0.  0.
185  1.84  0.  0.  0.
186  1.85  0.  0.  0.
187  1.86  0.  0.  0.
188  1.87  0.  0.  0.
189  1.88  0.  0.  0.
190  1.89  0.  0.  0.
191  1.90  0.  0.  0.
192  1.91  0.  0.  0.
193  1.92  0.  0.  0.
194  1.93  0.  0.  0.
195  1.94  0.  0.  0.
196  1.95  0.  0.  0.
197  1.96  0.  0.  0.
198  1.97  0.  0.  0.
199  1.98  0.  0.  0.
200  1.99  0.  0.  0.
201  2.00  0.  0.  0.
202  2.01  0.  0.  0.
203  2.02  0.  0.  0.
204  2.03  0.  0.  0.
205  2.04  0.  0.  0.
206  2.05  0.  0.  0.
207  2.06  0.  0.  0.
208  2.07  0.  0.  0.
209  2.08  0.  0.  0.
210  2.09  0.  0.  0.
211  2.10  0.  0.  0.
212  2.11  0.  0.  0.
213  2.12  0.  0.  0.
214  2.13  0.  0.  0.
215  2.14  0.  0.  0.
216  2.15  0.  0.  0.
217  2.16  0.  0.  0.
218  2.17  0.  0.  0.
219  2.18  0.  0.  0.
220  2.19  0.  0.  0.
221  2.20  0.  0.  0.
222  2.21  0.  0.  0.
223  2.22  0.  0.  0.
224  2.23  0.  0.  0.
225  2.24  0.  0.  0.
226  2.25  0.  0.  0.
227  2.26  0.  0.  0.
228  2.27  0.  0.  0.
229  2.28  0.  0.  0.
230  2.29  0.  0.  0.
231  2.30  0.  0.  0.
232  2.31  0.  0.  0.
233  2.32  0.  0.  0.
234  2.33  0.  0.  0.
235  2.34  0.  0.  0.
236  2.35  0.  0.  0.
237  2.36  0.  0.  0.
238  2.37  0.  0.  0.
239  2.38  0.  0.  0.
240  2.39  0.  0.  0.
241  2.40  0.  0.  0.
242  2.41  0.  0.  0.
243  2.42  0.  0.  0.
244  2.43  0.  0.  0.
245  2.44  0.  0.  0.
246  2.45  0.  0.  0.
247  2.46  0.  0.  0.
248  2.47  0.  0.  0.
249  2.48  0.  0.  0.
250  2.49  0.  0.  0.
251  2.50  0.  0.  0.
252  2.51  0.  0.  0.
253  2.52  0.  0.  0.
254  2.53  0.  0.  0.
255  2.54  0.  0.  0.
256  2.55  0.  0.  0.
257  2.56  0.  0.  0.
258  2.57  0.  0.  0.
259  2.58  0.  0.  0.
260  2.59  0.  0.  0.
261  2.60  0.  0.  0.
262  2.61  0.  0.  0.
263  2.62  0.  0.  0.
264  2.63  0.  0.  0.
265  2.64  0.  0.  0.
266  2.65  0.  0.  0.
267  2.66  0.  0.  0.
268  2.67  0.  0.  0.
269  2.68  0.  0.  0.
270  2.69  0.  0.  0.
271  2.70  0.  0.  0.
272  2.71  0.  0.  0.
273  2.72  0.  0.  0.
274  2.73  0.  0.  0.
275  2.74  0.  0.  0.
276  2.75  0.  0.  0.
277  2.76  0.  0.  0.
278  2.77  0.  0.  0.
279  2.78  0.  0.  0.
280  2.79  0.  0.  0.
281  2.80  0.  0.  0.
282  2.81  0.  0.  0.
283  2.82  0.  0.  0.
284  2.83  0.  0.  0.
285  2.84  0.  0.  0.
286  2.85  0.  0.  0.
287  2.86  0.  0.  0.
288  2.87  0.  0.  0.
289  2.88  0.  0.  0.
290  2.89  0.  0.  0.
291  2.90  0.  0.  0.
292  2.91  0.  0.  0.
293  2.92  0.  0.  0.
294  2.93  0.  0.  0.
295  2.94  0.  0.  0.
296  2.95  0.  0.  0.
297  2.96  0.  0.  0.
298  2.97  0.  0.  0.
299  2.98  0.  0.  0.
300  2.99  0.  0.  0.
301  3.00  0.  0.  0.
302  3.01  0.  0.  0.
303  3.02  0.  0.  0.
304  3.03  0.  0.  0.
305  3.04  0.  0.  0.
306  3.05  0.  0.  0.
307  3.06  0.  0.  0.
308  3.07  0.  0.  0.
309  3.08  0.  0.  0.
310  3.09  0.  0.  0.
311  3.10  0.  0.  0.
312  3.11  0.  0.  0.
313  3.12  0.  0.  0.
314  3.13  0.  0.  0.
315  3.14  0.  0.  0.
316  3.15  0.  0.  0.
317  3.16  0.  0.  0.
318  3.17  0.  0.  0.
319  3.18  0.  0.  0.
320  3.19  0.  0.  0.
321  3.20  0.  0.  0.
322  3.21  0.  0.  0.
323  3.22  0.  0.  0.
324  3.23  0.  0.  0.
325  3.24  0.  0.  0.
326  3.25  0.  0.  0.
327  3.26  0.  0.  0.
328  3.27  0.  0.  0.
329  3.28  0.  0.  0.
330  3.29  0.  0.  0.
331  3.30  0.  0.  0.
332  3.31  0.  0.  0.
333  3.32  0.  0.  0.
334  3.33  0.  0.  0.
335  3.34  0.  0.  0.
336  3.35  0.  0.  0.
337  3.36  0.  0.  0.
338  3.37  0.  0.  0.
339  3.38  0.  0.  0.
340  3.39  0.  0.  0.
341  3.40  0.  0.  0.
342  3.41  0.  0.  0.
343  3.42  0.  0.  0.
344  3.43  0.  0.  0.
345  3.44  0.  0.  0.
346  3.45  0.  0.  0.
347  3.46  0.  0.  0.
348  3.47  0.  0.  0.
349  3.48  0.  0.  0.
350  3.49  0.  0.  0.
351  3.50  0.  0.  0.
352  3.51  0.  0.  0.
353  3.52  0.  0.  0.
354  3.53  0.  0.  0.
355  3.54  0.  0.  0.
356  3.55  0.  0.  0.
357  3.56  0.  0.  0.
358  3.57  0.  0.  0.
359  3.58  0.  0.  0.
360  3.59  0.  0.  0.
361  3.60  0.  0.  0.
362  3.61  0.  0.  0.
363  3.62  0.  0.  0.
364  3.63  0.  0.  0.
365  3.64  0.  0.  0.
366  3.65  0.  0.  0.
367  3.66  0.  0.  0.
368  3.67  0.  0.  0.
369  3.68  0.  0.  0.
370  3.69  0.  0.  0.
371  3.70  0.  0.  0.
372  3.71  0.  0.  0.
373  3.72  0.  0.  0.
374  3.73  0.  0.  0.
375  3.74  0.  0.  0.
376  3.75  0.  0.  0.
377  3.76  0.  0.  0.
378  3.77  0.  0.  0.
379  3.78  0.  0.  0.
380  3.79  0.  0.  0.
381  3.80  0.  0.  0.
382  3.81  0.  0.  0.
383  3.82  0.  0.  0.
384  3.83  0.  0.  0.
385  3.84  0.  0.  0.
386  3.85  0.  0.  0.
387  3.86  0.  0.  0.
388  3.87  0.  0.  0.
389  3.88  0.  0.  0.
390  3.89  0.  0.  0.
391  3.90  0.  0.  0.
392  3.91  0.  0.  0.
393  3.92  0.  0.  0.
394  3.93  0.  0.  0.
395  3.94  0.  0.  0.
396  3.95  0.  0.  0.
397  3.96  0.  0.  0.
398  3.97  0.  0.  0.
399  3.98  0.  0.  0.
400  3.99  0.  0.  0.
401  4.00  0.  0.  0.
402  4.01  0.  0.  0.
403  4.02  0.  0.  0.
404  4.03  0.  0.  0.
405  4.04  0.  0.  0.
406  4.05  0.  0.  0.
407  4.06  0.  0.  0.
408  4.07  0.  0.  0.
409  4.08  0.  0.  0.
410  4.09  0.  0.  0.
411  4.10  0.  0.  0.
412  4.11  0.  0.  0.
413  4.12  0.  0.  0.
414  4.13  0.  0.  0.
415  4.14  0.  0.  0.
416  4.15  0.  0.  0.
417  4.16  0.  0.  0.
418  4.17  0.  0.  0.
419  4.18  0.  0.  0.
420  4.19  0.  0.  0.
421  4.20  0.  0.  0.
422  4.21  0.  0.  0.
423  4.22  0.  0.  0.
424  4.23  0.  0.  0.
425  4.24  0.  0.  0.
426  4.25  0.  0.  0.
427  4.26  0.  0.  0.
428  4.27  0.  0.  0.
429  4.28  0.  0.  0.
430  4.29  0.  0.  0.
431  4.30  0.  0.  0.
432  4.31  0.  0.  0.
433  4.32  0.  0.  0.
434  4.33  0.  0.  0.
435  4.34  0.  0.  0.
436  4.35  0.  0.  0.
437  4.36  0.  0.  0.
438  4.37  0.  0.  0.
439  4.38  0.  0.  0.
440  4.39  0.  0.  0.
441  4.40  0.  0.  0.
442  4.41  0.  0.  0.
443  4.42  0.  0.  0.
444  4.43  0.  0.  0.
445  4.44  0.  0.  0.
446  4.45  0.  0.  0.
447  4.46  0.  0.  0.
448  4.47  0.  0.  0.
449  4.48  0.  0.  0.
450  4.49  0.  0.  0.
451  4.50  0.  0.  0.
452  4.51  0.  0.  0.
453  4.52  0.  0.  0.
454  4.53  0.  0.  0.
455  4.54  0.  0.  0.
456  4.55  0.  0.  0.
457  4.56  0.  0.  0.
458  4.57  0.  0.  0.
459  4.58  0.  0.  0.
460  4.59  0.  0.  0.
461  4.60  0.  0.  0.
462  4.61  0.  0.  0.
463  4.62  0.  0.  0.
464  4.63  0.  0.  0.
465  4.64  0.  0.  0.
466  4.65  0.  0.  0.
467  4.66  0.  0.  0.
468  4.67  0.  0.  0.
469  4.68  0.  0.  0.
470  4.69  0.  0.  0.
471  4.70  0.  0.  0.
472  4.71  0.  0.  0.
473  4.72  0.  0.  0.
474  4.73  0.  0.  0.
475  4.74  0.  0.  0.
476  4.75  0.  0.  0.
477  4.76  0.  0.  0.
478  4.77  0.  0.  0.
479  4.78  0.  0.  0.
480  4.79  0.  0.  0.
481  4.80  0.  0.  0.
482  4.81  0.  0.  0.
483  4.82  0.  0.  0.
484  4.83  0.  0.  0.
485  4.84  0.  0.  0.
486  4.85  0.  0.  0.
487  4.86  0.  0.  0.
488  4.87  0.  0.  0.
489  4.88  0.  0.  0.
490  4.89  0.  0.  0.
491  4.90  0.  0.  0.
492  4.91  0.  0.  0.
493  4.92  0.  0.  0.
494  4.93  0.  0.  0.
495  4.94  0.  0.  0.
496  4.95  0.  0.  0.
497  4.96  0.  0.  0.
498  4.97  0.  0.  0.
499  4.98  0.  0.  0.
500  4.99  0.  0.  0.
501  5.00  0.  0.  0.
502  5.01  0.  0.  0.
503  5.02  0.  0.  0.
504  5.03  0.  0.  0.
505  5.04  0.  0.  0.
506  5.05  0.  0.  0.
507  5.06  0.  0.  0.
508  5.07  0.  0.  0.
509  5.08  0.  0.  0.
510  5.09  0.  0.  0.
511  5.10  0.  0.  0.
512  5.11  0.  0.  0.
513  5.12  0.  0.  0.
514  5.13  0.  0.  0.
515  5.14  0.  0.  0.
516  5.15  0.  0.  0.
517  5.16  0.  0.  0.
518  5.17  0.  0.  0.
519  5.18  0.  0.  0.
520  5.19  0.  0.  0.
521  5.20  0.  0.  0.
522  5.21  0.  0.  0.
523  5.22  0.  0.  0.
524  5.23  0.  0.  0.
525  5.24  0.  0.  0.
526  5.25  0.  0.  0.
527  5.26  0.  0.  0.
528  5.27  0.  0.  0.
529  5.28  0.  0.  0.
530  5.29  0.  0.  0.
531  5.30  0.  0.  0.
532  5.31  0.  0.  0.
533  5.32  0.  0.  0.
534  5.33  0.  0.  0.
535  5.34  0.  0.  0.
536  5.35  0.  0.  0.
537  5.36  0.  0.  0.
538  5.37  0.  0.  0.
539  5.38  0.  0.  0.
540  5.39  0.  0.  0.
541  5.40  0.  0.  0.
542  5.41  0.  0.  0.
543  5.42  0.  0.  0.
544  5.43  0.  0.  0.
545  5.44  0.  0.  0.
546  5.45  0.  0.  0.
547  5.46  0.  0.  0.
548  5.47  0.  0.  0.
549  5.48  0.  0.  0.
550  5.49  0.  0.  0.
551  5.50  0.  0.  0.
552  5.51  0.  0.  0.
553  5.52  0.  0.  0.
554  5.53  0.  0.  0.
555  5.54  0.  0.  0.
556  5.55  0.  0.  0.
557  5.56  0.  0.  0.
558  5.57  0.  0.  0.
559  5.58  0.  0.  0.
560  5.59  0.  0.  0.
561  5.60  0.  0.  0.
562  5.61  0.  0.  0.
563  5.62  0.  0.  0.
564  5.63  0.  0.  0.
565  5.64  0.  0.  0.
566  5.65  0.  0.  0.
567  5.66  0.  0.  0.
568  5.67  0.  0.  0.
569  5.68  0.  0.  0.
570  5.69  0.  0.  0.
571  5.70  0.  0.  0.
572  5.71  0.  0.  0.
573  5.72  0.  0.  0.
574  5.73  0.  0.  0.
575  5.74  0.  0.  0.
576  5.75  0.  0.  0.
577  5.76  0.  0.  0.
578  5.77  0.  0.  0.
579  5.78  0.  0.  0.
580  5.79  0.  0.  0.
581  5.80  0.  0.  0.
582  5.81  0.  0.  0.
583  5.82  0.  0.  0.
584  5.83  0.  0.  0.
585  5.84  0.  0.  0.
586  5.85  0.  0.  0.
587  5.86  0.  0.  0.
588  5.87  0.  0.  0.
589  5.88  0.  0.  0.
590  5.89  0.  0.  0.
591  5.90  0.  0.  0.
592  5.91  0.  0.  0.
593  5.92  0.  0.  0.
594  5.93  0.  0.  0.
595  5.94  0.  0.  0.
596  5.95  0.  0.  0.
597  5.96  0.  0.  0.
598  5.97  0.  0.  0.
599  5.98  0.  0.  0.
600  5.99  0.  0.  0.
1                        -1.1979719112200E+01 -6.3781501393764E-01
1  0.0000000000000E+00  5.2185433474516E-09 -8.1051824585288E-08
2  1.0000000000000E-02  2.8980623035604E-03 -1.9135055929636E-03
3  2.0000000000000E-02  1.1570883253375E-02 -7.6161495438456E-03
4  3.0000000000000E-02  2.5954574229571E-02 -1.6995690428986E-02
5  4.0000000000000E-02  4.5943348485548E-02 -2.9869588494433E-02
6  5.0000000000000E-02  7.1390551266699E-02 -4.5991589070699E-02
7  6.0000000000000E-02  1.0211007965579E-01 -6.5060527902389E-02
8  7.0000000000000E-02  1.3787817051613E-01 -8.6730968861720E-02
9  8.0000000000000E-02  1.7843552968525E-01 -1.1062520346320E-01
10  9.0000000000000E-02  2.2348977102671E-01 -1.3634608140464E-01
11  1.0000000000000E-01  2.7271813017661E-01 -1.6349010473109E-01
12  1.1000000000000E-01  3.2577041489668E-01 -1.9166020683562E-01
13  1.2000000000000E-01  3.8227215191145E-01 -2.2047765195251E-01
14  1.3000000000000E-01  4.4182788897813E-01 -2.4959253051811E-01
15  1.4000000000000E-01  5.0402461069721E-01 -2.7869238911614E-01
16  1.5000000000000E-01  5.6843522717609E-01 -3.0750861799850E-01
17  1.6000000000000E-01  6.3462209603749E-01 -3.3582032076145E-01
18  1.7000000000000E-01  7.0214054032394E-01 -3.6345550527637E-01
19  1.8000000000000E-01  7.7054232748088E-01 -3.9028955745320E-01
20  1.9000000000000E-01  8.3937907767570E-01 -4.1624108451377E-01
21  2.0000000000000E-01  9.0820557309831E-01 -4.4126533668786E-01
22  2.1000000000000E-01  9.7658294345222E-01 -4.6534553022766E-01
23  2.2000000000000E-01  1.0440817064533E+00 -4.8848249530206E-01
24  2.3000000000000E-01  1.1102846456799E+00 -5.1068315516127E-01
25  2.4000000000000E-01  1.1747895114536E+00 -5.3194840417408E-01
26  2.5000000000000E-01  1.2372115334779E+00 -5.5226098906340E-01
27  2.6000000000000E-01  1.2971857366531E+00 -5.7157400805999E-01
28  2.7000000000000E-01  1.3543690537650E+00 -5.8980062603956E-01
29  2.8000000000000E-01  1.4084422305911E+00 -6.0680556043668E-01
30  2.9000000000000E-01  1.4591115203749E+00 -6.2239882442151E-01
31  3.0000000000000E-01  1.5061101656149E+00 -6.3633212313860E-01
32  3.1000000000000E-01  1.5491996657383E+00 -6.4829818938427E-01
33  3.2000000000000E-01  1.5881708295489E+00 -6.5793322140688E-01
34  3.3000000000000E-01  1.6228446114264E+00 -6.6482245266891E-01
35  3.4000000000000E-01  1.6530727302092E+00 -6.6850874696550E-01
36  3.5000000000000E-01  1.6787380695981E+00 -6.6850397800593E-01
37  3.6000000000000E-01  1.6997548588813E+00 -6.6430282615929E-01
38  3.7000000000000E-01  1.7160686328899E+00 -6.5539851198815E-01
39  3.8000000000000E-01  1.7276559704264E+00 -6.4129989139324E-01
40  3.9000000000000E-01  1.7345240110493E+00 -6.2154926489459E-01
41  4.0000000000000E-01  1.7367097510800E+00 -5.9574020711400E-01
42  4.1000000000000E-01  1.7342791210754E+00 -5.6353470419201E-01
43  4.2000000000000E-01  1.7273258487733E+00 -5.2467889781256E-01
44  4.3000000000000E-01  1.7159701136682E+00 -4.7901677466034E-01
45  4.4000000000000E-01  1.7003570018650E+00 -4.2650120822935E-01
46  4.5000000000000E-01  1.6806547726338E+00 -3.6720185349393E-01
47  4.6000000000000E-01  1.6570529510684E+00 -3.0130951052177E-01
48  4.7000000000000E-01  1.6297602643345E+00 -2.2913670618519E-01
49  4.8000000000000E-01  1.5990024420699E+00 -1.5111438847088E-01
50  4.9000000000000E-01  1.5650199044510E+00 -6.7784779691107E-02
51  5.0000000000000E-01  1.5280653641405E+00  2.0209412972985E-02
52  5.1000000000000E-01  1.4884013706531E+00  1.1213908494523E-01
53  5.2000000000000E-01  1.4462978275154E+00  2.0720564083577E-01
54  5.3000000000000E-01  1.4020295138354E+00  3.0456012457122E-01
55  5.4000000000000E-01  1.3558736424592E+00  4.0332388346776E-01
56  5.5000000000000E-01  1.3081074867108E+00  5.0261000933860E-01
57  5.6000000000000E-01  1.2590061067397E+00  6.0154476226392E-01
58  5.7000000000000E-01  1.2088402047421E+00  6.9928817695970E-01
59  5.8000000000000E-01  1.1578741357718E+00  7.9505307841879E-01
60  5.9000000000000E-01  1.1063640975877E+00  8.8812179201685E-01
61  6.0000000000000E-01  1.0545565190480E+00  9.7785992162909E-01
62  6.1000000000000E-01  1.0026866620795E+00  1.0637266843041E+00
63  6.2000000000000E-01  9.5097744733890E-01  1.1452814273774E+00
64  6.3000000000000E-01  8.9963850848971E-01  1.2221861082972E+00
65  6.4000000000000E-01  8.4886547471068E-01  1.2942036828214E+00
66  6.5000000000000E-01  7.9883947579003E-01  1.3611925170451E+00
67  6.6000000000000E-01  7.4972685912608E-01  1.4230971060459E+00
68  6.7000000000000E-01  7.0167910331149E-01  1.4799355399113E+00
69  6.8000000000000E-01  6.5483290888774E-01  1.5317842999083E+00
70  6.9000000000000E-01  6.0931044345956E-01  1.5787610874861E+00
71  7.0000000000000E-01  5.6521971577588E-01  1.6210064813510E+00
72  7.1000000000000E-01  5.2265505170731E-01  1.6586652787369E+00
73  7.2000000000000E-01  4.8169764434092E-01  1.6918684030998E+00
74  7.3000000000000E-01  4.4241615069797E-01  1.7207162500567E+00
75  7.4000000000000E-01  4.0486730884951E-01  1.7452642961347E+00
76  7.5000000000000E-01  3.6909655141123E-01  1.7655117119728E+00
77  7.6000000000000E-01  3.3513859446172E-01  1.7813936056420E+00
78  7.7000000000000E-01  3.0301798473012E-01  1.7927773767205E+00
79  7.8000000000000E-01  2.7274959229576E-01  1.7994634929497E+00
80  7.9000000000000E-01  2.4433904086283E-01  1.8011908150262E+00
81  8.0000000000000E-01  2.1778307272905E-01  1.7976463985055E+00
82  8.1000000000000E-01  1.9306985065638E-01  1.7884795026703E+00
83  8.2000000000000E-01  1.7017920376987E-01  1.7733193425529E+00
84  8.3000000000000E-01  1.4908282915300E-01  1.7517959400796E+00
85  8.4000000000000E-01  1.2974446478508E-01  1.7235632711854E+00
86  8.5000000000000E-01  1.1212005270282E-01  1.6883237746855E+00
87  8.6000000000000E-01  9.6157913618382E-02  1.6458531917536E+00
88  8.7000000000000E-01  8.1798955573143E-02  1.5960246468547E+00
89  8.8000000000000E-01  6.8976939471362E-02  1.5388308653457E+00
90  8.9000000000000E-01  5.7618823483066E-02  1.4744034515096E+00
91  9.0000000000000E-01  4.7645206335136E-02  1.4030282236788E+00
92  9.1000000000000E-01  3.8970886472924E-02  1.3251557187210E+00
93  9.2000000000000E-01  3.1505550063169E-02  1.2414061332200E+00
94  9.3000000000000E-01  2.5154595954257E-02  1.1525681582659E+00
95  9.4000000000000E-01  1.9820100180707E-02  1.0595913824652E+00
96  9.5000000000000E-01  1.5401916592676E-02  9.6357217602099E-01
97  9.6000000000000E-01  1.1798903930441E-02  8.6573321890628E-01
98  9.7000000000000E-01  8.9102633860661E-03  7.6739708899003E-01
99  9.8000000000000E-01  6.6369646421989E-03  6.6995457199614E-01
100  9.9000000000000E-01  4.8832327953601E-03  5.7482858473753E-01
101  1.0000000000000E+00  3.5580636815281E-03  4.8343480735993E-01
102  1.0100000000000E+00  2.5767311404395E-03  3.9714029077037E-01
103  1.0200000000000E+00  1.8622468555232E-03  3.1722143505105E-01
104  1.0300000000000E+00  1.3467312586452E-03  2.4482286602019E-01
105  1.0400000000000E+00  9.7265414050013E-04  1.8091842455225E-01
106  1.0500000000000E+00  6.9422409573482E-04  1.2624508978084E-01
107  1.0600000000000E+00  4.7927442133920E-04  8.1094438659957E-02
108  1.0700000000000E+00  3.0416569172292E-04  4.5907746300456E-02
109  1.0800000000000E+00  1.5981744205704E-04  2.0862208588199E-02
110  1.0900000000000E+00  5.1956618228424E-05  5.7510788332475E-03
111  1.1000000000000E+00  1.7835787366914E-06  1.6312140168257E-04
112  1.1100000000000E+00  2.5648162524340E-07  2.4182866222613E-05
113  1.1200000000000E+00 -2.7768496503258E-08 -2.8166342661271E-06
114  1.13  0.  0.
115  1.14  0.  0.
116  1.15  0.  0.
117  1.16  0.  0.
118  1.17  0.  0.
119  1.18  0.  0.
120  1.19  0.  0.
121  1.20  0.  0.
122  1.21  0.  0.
123  1.22  0.  0.
124  1.23  0.  0.
125  1.24  0.  0.
126  1.25  0.  0.
127  1.26  0.  0.
128  1.27  0.  0.
129  1.28  0.  0.
130  1.29  0.  0.
131  1.30  0.  0.
132  1.31  0.  0.
133  1.32  0.  0.
134  1.33  0.  0.
135  1.34  0.  0.
136  1.35  0.  0.
137  1.36  0.  0.
138  1.37  0.  0.
139  1.38  0.  0.
140  1.39  0.  0.
141  1.40  0.  0.
142  1.41  0.  0.
143  1.42  0.  0.
144  1.43  0.  0.
145  1.44  0.  0.
146  1.45  0.  0.
147  1.46  0.  0.
148  1.47  0.  0.
149  1.48  0.  0.
150  1.49  0.  0.
151  1.50  0.  0.
152  1.51  0.  0.
153  1.52  0.  0.
154  1.53  0.  0.
155  1.54  0.  0.
156  1.55  0.  0.
157  1.56  0.  0.
158  1.57  0.  0.
159  1.58  0.  0.
160  1.59  0.  0.
161  1.60  0.  0.
162  1.61  0.  0.
163  1.62  0.  0.
164  1.63  0.  0.
165  1.64  0.  0.
166  1.65  0.  0.
167  1.66  0.  0.
168  1.67  0.  0.
169  1.68  0.  0.
170  1.69  0.  0.
171  1.70  0.  0.
172  1.71  0.  0.
173  1.72  0.  0.
174  1.73  0.  0.
175  1.74  0.  0.
176  1.75  0.  0.
177  1.76  0.  0.
178  1.77  0.  0.
179  1.78  0.  0.
180  1.79  0.  0.
181  1.80  0.  0.
182  1.81  0.  0.
183  1.82  0.  0.
184  1.83  0.  0.
185  1.84  0.  0.
186  1.85  0.  0.
187  1.86  0.  0.
188  1.87  0.  0.
189  1.88  0.  0.
190  1.89  0.  0.
191  1.90  0.  0.
192  1.91  0.  0.
193  1.92  0.  0.
194  1.93  0.  0.
195  1.94  0.  0.
196  1.95  0.  0.
197  1.96  0.  0.