Mt    ONCVPSP-4.0.1  r_core=   1.10144   1.10144   1.10144   1.20485
109.0000     49.0000      231012    zatom,zion,pspd
8   -1012   3     4   600     0    pspcod,pspxc,lmax,lloc,mmax,r2well
5.99000000  3.00000000  0.00000000    rchrg fchrg qchrg
3     3     2     2    nproj
3     1           extension_switch
3     3     3    nprojso
0                        -1.4078153866906E+01  1.0162377288652E+01 -3.5686415736667E-01
1  0.0000000000000E+00 -7.9836670607847E-10  3.4444149088486E-08 -8.3000745887407E-08
2  1.0000000000000E-02  7.5766332617893E-02  1.7946446962255E-01 -1.6808142034028E-02
3  2.0000000000000E-02  1.5136511436047E-01  3.5722640775978E-01 -3.3465501350035E-02
4  3.0000000000000E-02  2.2662923340127E-01  5.3159887519684E-01 -4.9823193678258E-02
5  4.0000000000000E-02  3.0139245234510E-01  7.0092611050142E-01 -6.5736350763533E-02
6  5.0000000000000E-02  3.7548983651049E-01  8.6359909171418E-01 -8.1066651137094E-02
7  6.0000000000000E-02  4.4875817213000E-01  1.0180710372443E+00 -9.5685409894467E-02
8  7.0000000000000E-02  5.2103637213075E-01  1.1628727808457E+00 -1.0947730518313E-01
9  8.0000000000000E-02  5.9216586795547E-01  1.2966279211061E+00 -1.2234473610285E-01
10  9.0000000000000E-02  6.6199098678969E-01  1.4180676075683E+00 -1.3421271488766E-01
11  1.0000000000000E-01  7.3035931451692E-01  1.5260447861969E+00 -1.4503410244027E-01
12  1.1000000000000E-01  7.9712204567311E-01  1.6195476893492E+00 -1.5479490776971E-01
13  1.2000000000000E-01  8.6213432255403E-01  1.6977123226830E+00 -1.6351929580677E-01
14  1.3000000000000E-01  9.2525556638578E-01  1.7598336763576E+00 -1.7127389107800E-01
15  1.4000000000000E-01  9.8634980404852E-01  1.8053753729529E+00 -1.7817093248702E-01
16  1.5000000000000E-01  1.0452859942008E+00  1.8339774617794E+00 -1.8436983131502E-01
17  1.6000000000000E-01  1.1019383567537E+00  1.8454620801175E+00 -1.9007671318739E-01
18  1.7000000000000E-01  1.1561867094698E+00  1.8398367271491E+00 -1.9554158596010E-01
19  1.8000000000000E-01  1.2079168150028E+00  1.8172949359058E+00 -2.0105286803842E-01
20  1.9000000000000E-01  1.2570207409618E+00  1.7782141816767E+00 -2.0692913233702E-01
21  2.0000000000000E-01  1.3033972345953E+00  1.7231509304162E+00 -2.1350806477149E-01
22  2.1000000000000E-01  1.3469521124893E+00  1.6528328055233E+00 -2.2113279601799E-01
23  2.2000000000000E-01  1.3875986642996E+00  1.5681479330325E+00 -2.3013593306360E-01
24  2.3000000000000E-01  1.4252580680638E+00  1.4701316104258E+00 -2.4082178362241E-01
25  2.4000000000000E-01  1.4598598131128E+00  1.3599505292382E+00 -2.5344742212203E-01
26  2.5000000000000E-01  1.4913421251151E+00  1.2388848625797E+00 -2.6820338101728E-01
27  2.6000000000000E-01  1.5196523863976E+00  1.1083086018141E+00 -2.8519485655373E-01
28  2.7000000000000E-01  1.5447475434714E+00  9.6966858838098E-01 -3.0442438576215E-01
29  2.8000000000000E-01  1.5665944927171E+00  8.2446273395240E-01 -3.2577697495778E-01
30  2.9000000000000E-01  1.5851704344993E+00  6.7421795221783E-01 -3.4900863487904E-01
31  3.0000000000000E-01  1.6004631856389E+00  5.2046833673377E-01 -3.7373920168180E-01
32  3.1000000000000E-01  1.6124714401948E+00  3.6473411043452E-01 -3.9945019669796E-01
33  3.2000000000000E-01  1.6212049689188E+00  2.0850184345325E-01 -4.2548830421018E-01
34  3.3000000000000E-01  1.6266847485351E+00  5.3206387648970E-02 -4.5107483112828E-01
35  3.4000000000000E-01  1.6289430131536E+00 -9.9785089614327E-02 -4.7532126345442E-01
36  3.5000000000000E-01  1.6280232216055E+00 -2.4918667077459E-01 -4.9725076201470E-01
37  3.6000000000000E-01  1.6239799362533E+00 -3.9380464341925E-01 -5.1582515604567E-01
38  3.7000000000000E-01  1.6168786107995E+00 -5.3254573706489E-01 -5.2997671099724E-01
39  3.8000000000000E-01  1.6067952867391E+00 -6.6442263668031E-01 -5.3864368007583E-01
40  3.9000000000000E-01  1.5938162002780E+00 -7.8855687108943E-01 -5.4080841128941E-01
41  4.0000000000000E-01  1.5780373036957E+00 -9.0417927152248E-01 -5.3553658602554E-01
42  4.1000000000000E-01  1.5595637071815E+00 -1.0106282826165E+00 -5.2201602306340E-01
43  4.2000000000000E-01  1.5385090490327E+00 -1.1073464810947E+00 -4.9959340295531E-01
44  4.3000000000000E-01  1.5149948037066E+00 -1.1938757127737E+00 -4.6780725893360E-01
45  4.4000000000000E-01  1.4891495384969E+00 -1.2698512938206E+00 -4.2641564592865E-01
46  4.5000000000000E-01  1.4611081305094E+00 -1.3349957355809E+00 -3.7541703965540E-01
47  4.6000000000000E-01  1.4310109561154E+00 -1.3891124430866E+00 -3.1506323029895E-01
48  4.7000000000000E-01  1.3990030651392E+00 -1.4320798058678E+00 -2.4586325388939E-01
49  4.8000000000000E-01  1.3652333516971E+00 -1.4638460473036E+00 -1.6857773946790E-01
50  4.9000000000000E-01  1.3298537328647E+00 -1.4844251278508E+00 -8.4203429067571E-02
51  5.0000000000000E-01  1.2930183452476E+00 -1.4938939113946E+00  6.0519647082818E-03
52  5.1000000000000E-01  1.2548827681187E+00 -1.4923907067416E+00  1.0080397915838E-01
53  5.2000000000000E-01  1.2156032801276E+00 -1.4801151926166E+00  1.9853370250735E-01
54  5.3000000000000E-01  1.1753361547659E+00 -1.4573296294785E+00  2.9763676995534E-01
55  5.4000000000000E-01  1.1342369978631E+00 -1.4243611602824E+00  3.9647732460174E-01
56  5.5000000000000E-01  1.0924601284820E+00 -1.3816049101092E+00  4.9344492892325E-01
57  5.6000000000000E-01  1.0501580027664E+00 -1.3295275161822E+00  5.8701220377277E-01
58  5.7000000000000E-01  1.0074806786460E+00 -1.2686706594520E+00  6.7579085080132E-01
59  5.8000000000000E-01  9.6457531790051E-01 -1.1996541301384E+00  7.5858368954457E-01
60  5.9000000000000E-01  9.2158572098623E-01 -1.1231779449133E+00  8.3443041695955E-01
61  6.0000000000000E-01  8.7865188928328E-01 -1.0400230442518E+00  9.0264497543220E-01
62  6.1000000000000E-01  8.3590960906174E-01 -9.5105013513697E-01  9.6284269124527E-01
63  6.2000000000000E-01  7.9349005150098E-01 -8.5719630585227E-01  1.0149557107755E+00
64  6.3000000000000E-01  7.5151938352556E-01 -7.5946912388142E-01  1.0592357036619E+00
65  6.4000000000000E-01  7.1011838501854E-01 -6.5893803170290E-01  1.0962433044388E+00
66  6.5000000000000E-01  6.6940206909732E-01 -5.5672297423394E-01  1.1268243070389E+00
67  6.6000000000000E-01  6.2947930353137E-01 -4.5398032075094E-01  1.1520731881241E+00
68  6.7000000000000E-01  5.9045243297590E-01 -3.5188627755987E-01  1.1732850917845E+00
69  6.8000000000000E-01  5.5241690340964E-01 -2.5161811942504E-01  1.1918979356349E+00
70  6.9000000000000E-01  5.1546089191299E-01 -1.5433369159412E-01  1.2094267730633E+00
71  7.0000000000000E-01  4.7966494661434E-01 -6.1149744158644E-02  1.2273929461747E+00
72  7.1000000000000E-01  4.4510164318135E-01  2.6880249084769E-02  1.2472508692567E+00
73  7.2000000000000E-01  4.1183526555678E-01  1.0878806901043E-01  1.2703154771575E+00
74  7.3000000000000E-01  3.7992151966333E-01  1.8371177061964E-01  1.2976934449675E+00
75  7.4000000000000E-01  3.4940728946779E-01  2.5091498046435E-01  1.3302212278010E+00
76  7.5000000000000E-01  3.2033044505755E-01  3.0980373432220E-01  1.3684127806883E+00
77  7.6000000000000E-01  2.9271971221462E-01  3.5994017517965E-01  1.4124195025179E+00
78  7.7000000000000E-01  2.6659461236622E-01  4.0105252029995E-01  1.4620045141522E+00
79  7.8000000000000E-01  2.4196548075749E-01  4.3304082298256E-01  1.5165328441200E+00
80  7.9000000000000E-01  2.1883356926313E-01  4.5597819539379E-01  1.5749784753712E+00
81  8.0000000000000E-01  1.9719123847827E-01  4.7010731824468E-01  1.6359485272309E+00
82  8.1000000000000E-01  1.7702224167082E-01  4.7583223479364E-01  1.6977241350499E+00
83  8.2000000000000E-01  1.5830210091532E-01  4.7370560366156E-01  1.7583168752940E+00
84  8.3000000000000E-01  1.4099857335120E-01  4.6441175983283E-01  1.8155388961600E+00
85  8.4000000000000E-01  1.2507220310929E-01  4.4874609844375E-01  1.8670842832072E+00
86  8.5000000000000E-01  1.1047695212737E-01  4.2759144422620E-01  1.9106186442822E+00
87  8.6000000000000E-01  9.7160900920827E-02  4.0189219402282E-01  1.9438734637822E+00
88  8.7000000000000E-01  8.5067008476962E-02  3.7262711472339E-01  1.9647414746124E+00
89  8.8000000000000E-01  7.4133918877313E-02  3.4078173953177E-01  1.9713691436607E+00
90  8.9000000000000E-01  6.4296801085353E-02  3.0732132826524E-01  1.9622423740103E+00
91  9.0000000000000E-01  5.5488207613172E-02  2.7316534056995E-01  1.9362616987997E+00
92  9.1000000000000E-01  4.7638937528290E-02  2.3916431431947E-01  1.8928035752082E+00
93  9.2000000000000E-01  4.0678889487857E-02  2.0607994656758E-01  1.8317648732521E+00
94  9.3000000000000E-01  3.4537891179517E-02  1.7456904442762E-01  1.7535882771204E+00
95  9.4000000000000E-01  2.9146492673123E-02  1.4517185292096E-01  1.6592670546385E+00
96  9.5000000000000E-01  2.4436712694245E-02  1.1830508229655E-01  1.5503284760020E+00
97  9.6000000000000E-01  2.0342728651841E-02  9.4259755853349E-02  1.4287960446673E+00
98  9.7000000000000E-01  1.6801503307868E-02  7.3203789076259E-02  1.2971316065382E+00
99  9.8000000000000E-01  1.3753343177143E-02  5.5189000511534E-02  1.1581592924322E+00
100  9.9000000000000E-01  1.1142385995004E-02  4.0162053190071E-02  1.0149740863474E+00
101  1.0000000000000E+00  8.9170167953555E-03  2.7978640900935E-02  8.7083856423366E-01
102  1.0100000000000E+00  7.0302142073589E-03  1.8420074447172E-02  7.2907198154962E-01
103  1.0200000000000E+00  5.4398304226871E-03  1.1211296026550E-02  5.9293637565044E-01
104  1.0300000000000E+00  4.1088116067787E-03  6.0392547347980E-03  4.6552467700996E-01
105  1.0400000000000E+00  3.0053506028228E-03  2.5706240643522E-03  3.4965581413340E-01
106  1.0500000000000E+00  2.1018769956890E-03  4.7123866615478E-04  2.4777713458624E-01
107  1.0600000000000E+00  1.3676911738309E-03 -5.4541583980570E-04  1.6183573557174E-01
108  1.0700000000000E+00  7.9208694422692E-04 -7.9175733176621E-04  9.3337820834836E-02
109  1.0800000000000E+00  3.7190503066661E-04 -5.8497335289462E-04  4.3306546800084E-02
110  1.0900000000000E+00  1.0696872310080E-04 -2.2625786802951E-04  1.2217470576390E-02
111  1.1000000000000E+00  3.2172692996383E-06 -8.6013510700596E-06  3.5599851145117E-04
112  1.1100000000000E+00  4.7076877319987E-07 -1.2259995652350E-06  5.2662065907819E-05
113  1.1200000000000E+00 -5.3627442407643E-08  1.2738215088630E-07 -6.0650772889028E-06
114  1.13  0.  0.  0.
115  1.14  0.  0.  0.
116  1.15  0.  0.  0.
117  1.16  0.  0.  0.
118  1.17  0.  0.  0.
119  1.18  0.  0.  0.
120  1.19  0.  0.  0.
121  1.20  0.  0.  0.
122  1.21  0.  0.  0.
123  1.22  0.  0.  0.
124  1.23  0.  0.  0.
125  1.24  0.  0.  0.
126  1.25  0.  0.  0.
127  1.26  0.  0.  0.
128  1.27  0.  0.  0.
129  1.28  0.  0.  0.
130  1.29  0.  0.  0.
131  1.30  0.  0.  0.
132  1.31  0.  0.  0.
133  1.32  0.  0.  0.
134  1.33  0.  0.  0.
135  1.34  0.  0.  0.
136  1.35  0.  0.  0.
137  1.36  0.  0.  0.
138  1.37  0.  0.  0.
139  1.38  0.  0.  0.
140  1.39  0.  0.  0.
141  1.40  0.  0.  0.
142  1.41  0.  0.  0.
143  1.42  0.  0.  0.
144  1.43  0.  0.  0.
145  1.44  0.  0.  0.
146  1.45  0.  0.  0.
147  1.46  0.  0.  0.
148  1.47  0.  0.  0.
149  1.48  0.  0.  0.
150  1.49  0.  0.  0.
151  1.50  0.  0.  0.
152  1.51  0.  0.  0.
153  1.52  0.  0.  0.
154  1.53  0.  0.  0.
155  1.54  0.  0.  0.
156  1.55  0.  0.  0.
157  1.56  0.  0.  0.
158  1.57  0.  0.  0.
159  1.58  0.  0.  0.
160  1.59  0.  0.  0.
161  1.60  0.  0.  0.
162  1.61  0.  0.  0.
163  1.62  0.  0.  0.
164  1.63  0.  0.  0.
165  1.64  0.  0.  0.
166  1.65  0.  0.  0.
167  1.66  0.  0.  0.
168  1.67  0.  0.  0.
169  1.68  0.  0.  0.
170  1.69  0.  0.  0.
171  1.70  0.  0.  0.
172  1.71  0.  0.  0.
173  1.72  0.  0.  0.
174  1.73  0.  0.  0.
175  1.74  0.  0.  0.
176  1.75  0.  0.  0.
177  1.76  0.  0.  0.
178  1.77  0.  0.  0.
179  1.78  0.  0.  0.
180  1.79  0.  0.  0.
181  1.80  0.  0.  0.
182  1.81  0.  0.  0.
183  1.82  0.  0.  0.
184  1.83  0.  0.  0.
185  1.84  0.  0.  0.
186  1.85  0.  0.  0.
187  1.86  0.  0.  0.
188  1.87  0.  0.  0.
189  1.88  0.  0.  0.
190  1.89  0.  0.  0.
191  1.90  0.  0.  0.
192  1.91  0.  0.  0.
193  1.92  0.  0.  0.
194  1.93  0.  0.  0.
195  1.94  0.  0.  0.
196  1.95  0.  0.  0.
197  1.96  0.  0.  0.
198  1.97  0.  0.  0.
199  1.98  0.  0.  0.
200  1.99  0.  0.  0.
201  2.00  0.  0.  0.
202  2.01  0.  0.  0.
203  2.02  0.  0.  0.
204  2.03  0.  0.  0.
205  2.04  0.  0.  0.
206  2.05  0.  0.  0.
207  2.06  0.  0.  0.
208  2.07  0.  0.  0.
209  2.08  0.  0.  0.
210  2.09  0.  0.  0.
211  2.10  0.  0.  0.
212  2.11  0.  0.  0.
213  2.12  0.  0.  0.
214  2.13  0.  0.  0.
215  2.14  0.  0.  0.
216  2.15  0.  0.  0.
217  2.16  0.  0.  0.
218  2.17  0.  0.  0.
219  2.18  0.  0.  0.
220  2.19  0.  0.  0.
221  2.20  0.  0.  0.
222  2.21  0.  0.  0.
223  2.22  0.  0.  0.
224  2.23  0.  0.  0.
225  2.24  0.  0.  0.
226  2.25  0.  0.  0.
227  2.26  0.  0.  0.
228  2.27  0.  0.  0.
229  2.28  0.  0.  0.
230  2.29  0.  0.  0.
231  2.30  0.  0.  0.
232  2.31  0.  0.  0.
233  2.32  0.  0.  0.
234  2.33  0.  0.  0.
235  2.34  0.  0.  0.
236  2.35  0.  0.  0.
237  2.36  0.  0.  0.
238  2.37  0.  0.  0.
239  2.38  0.  0.  0.
240  2.39  0.  0.  0.
241  2.40  0.  0.  0.
242  2.41  0.  0.  0.
243  2.42  0.  0.  0.
244  2.43  0.  0.  0.
245  2.44  0.  0.  0.
246  2.45  0.  0.  0.
247  2.46  0.  0.  0.
248  2.47  0.  0.  0.
249  2.48  0.  0.  0.
250  2.49  0.  0.  0.
251  2.50  0.  0.  0.
252  2.51  0.  0.  0.
253  2.52  0.  0.  0.
254  2.53  0.  0.  0.
255  2.54  0.  0.  0.
256  2.55  0.  0.  0.
257  2.56  0.  0.  0.
258  2.57  0.  0.  0.
259  2.58  0.  0.  0.
260  2.59  0.  0.  0.
261  2.60  0.  0.  0.
262  2.61  0.  0.  0.
263  2.62  0.  0.  0.
264  2.63  0.  0.  0.
265  2.64  0.  0.  0.
266  2.65  0.  0.  0.
267  2.66  0.  0.  0.
268  2.67  0.  0.  0.
269  2.68  0.  0.  0.
270  2.69  0.  0.  0.
271  2.70  0.  0.  0.
272  2.71  0.  0.  0.
273  2.72  0.  0.  0.
274  2.73  0.  0.  0.
275  2.74  0.  0.  0.
276  2.75  0.  0.  0.
277  2.76  0.  0.  0.
278  2.77  0.  0.  0.
279  2.78  0.  0.  0.
280  2.79  0.  0.  0.
281  2.80  0.  0.  0.
282  2.81  0.  0.  0.
283  2.82  0.  0.  0.
284  2.83  0.  0.  0.
285  2.84  0.  0.  0.
286  2.85  0.  0.  0.
287  2.86  0.  0.  0.
288  2.87  0.  0.  0.
289  2.88  0.  0.  0.
290  2.89  0.  0.  0.
291  2.90  0.  0.  0.
292  2.91  0.  0.  0.
293  2.92  0.  0.  0.
294  2.93  0.  0.  0.
295  2.94  0.  0.  0.
296  2.95  0.  0.  0.
297  2.96  0.  0.  0.
298  2.97  0.  0.  0.
299  2.98  0.  0.  0.
300  2.99  0.  0.  0.
301  3.00  0.  0.  0.
302  3.01  0.  0.  0.
303  3.02  0.  0.  0.
304  3.03  0.  0.  0.
305  3.04  0.  0.  0.
306  3.05  0.  0.  0.
307  3.06  0.  0.  0.
308  3.07  0.  0.  0.
309  3.08  0.  0.  0.
310  3.09  0.  0.  0.
311  3.10  0.  0.  0.
312  3.11  0.  0.  0.
313  3.12  0.  0.  0.
314  3.13  0.  0.  0.
315  3.14  0.  0.  0.
316  3.15  0.  0.  0.
317  3.16  0.  0.  0.
318  3.17  0.  0.  0.
319  3.18  0.  0.  0.
320  3.19  0.  0.  0.
321  3.20  0.  0.  0.
322  3.21  0.  0.  0.
323  3.22  0.  0.  0.
324  3.23  0.  0.  0.
325  3.24  0.  0.  0.
326  3.25  0.  0.  0.
327  3.26  0.  0.  0.
328  3.27  0.  0.  0.
329  3.28  0.  0.  0.
330  3.29  0.  0.  0.
331  3.30  0.  0.  0.
332  3.31  0.  0.  0.
333  3.32  0.  0.  0.
334  3.33  0.  0.  0.
335  3.34  0.  0.  0.
336  3.35  0.  0.  0.
337  3.36  0.  0.  0.
338  3.37  0.  0.  0.
339  3.38  0.  0.  0.
340  3.39  0.  0.  0.
341  3.40  0.  0.  0.
342  3.41  0.  0.  0.
343  3.42  0.  0.  0.
344  3.43  0.  0.  0.
345  3.44  0.  0.  0.
346  3.45  0.  0.  0.
347  3.46  0.  0.  0.
348  3.47  0.  0.  0.
349  3.48  0.  0.  0.
350  3.49  0.  0.  0.
351  3.50  0.  0.  0.
352  3.51  0.  0.  0.
353  3.52  0.  0.  0.
354  3.53  0.  0.  0.
355  3.54  0.  0.  0.
356  3.55  0.  0.  0.
357  3.56  0.  0.  0.
358  3.57  0.  0.  0.
359  3.58  0.  0.  0.
360  3.59  0.  0.  0.
361  3.60  0.  0.  0.
362  3.61  0.  0.  0.
363  3.62  0.  0.  0.
364  3.63  0.  0.  0.
365  3.64  0.  0.  0.
366  3.65  0.  0.  0.
367  3.66  0.  0.  0.
368  3.67  0.  0.  0.
369  3.68  0.  0.  0.
370  3.69  0.  0.  0.
371  3.70  0.  0.  0.
372  3.71  0.  0.  0.
373  3.72  0.  0.  0.
374  3.73  0.  0.  0.
375  3.74  0.  0.  0.
376  3.75  0.  0.  0.
377  3.76  0.  0.  0.
378  3.77  0.  0.  0.
379  3.78  0.  0.  0.
380  3.79  0.  0.  0.
381  3.80  0.  0.  0.
382  3.81  0.  0.  0.
383  3.82  0.  0.  0.
384  3.83  0.  0.  0.
385  3.84  0.  0.  0.
386  3.85  0.  0.  0.
387  3.86  0.  0.  0.
388  3.87  0.  0.  0.
389  3.88  0.  0.  0.
390  3.89  0.  0.  0.
391  3.90  0.  0.  0.
392  3.91  0.  0.  0.
393  3.92  0.  0.  0.
394  3.93  0.  0.  0.
395  3.94  0.  0.  0.
396  3.95  0.  0.  0.
397  3.96  0.  0.  0.
398  3.97  0.  0.  0.
399  3.98  0.  0.  0.
400  3.99  0.  0.  0.
401  4.00  0.  0.  0.
402  4.01  0.  0.  0.
403  4.02  0.  0.  0.
404  4.03  0.  0.  0.
405  4.04  0.  0.  0.
406  4.05  0.  0.  0.
407  4.06  0.  0.  0.
408  4.07  0.  0.  0.
409  4.08  0.  0.  0.
410  4.09  0.  0.  0.
411  4.10  0.  0.  0.
412  4.11  0.  0.  0.
413  4.12  0.  0.  0.
414  4.13  0.  0.  0.
415  4.14  0.  0.  0.
416  4.15  0.  0.  0.
417  4.16  0.  0.  0.
418  4.17  0.  0.  0.
419  4.18  0.  0.  0.
420  4.19  0.  0.  0.
421  4.20  0.  0.  0.
422  4.21  0.  0.  0.
423  4.22  0.  0.  0.
424  4.23  0.  0.  0.
425  4.24  0.  0.  0.
426  4.25  0.  0.  0.
427  4.26  0.  0.  0.
428  4.27  0.  0.  0.
429  4.28  0.  0.  0.
430  4.29  0.  0.  0.
431  4.30  0.  0.  0.
432  4.31  0.  0.  0.
433  4.32  0.  0.  0.
434  4.33  0.  0.  0.
435  4.34  0.  0.  0.
436  4.35  0.  0.  0.
437  4.36  0.  0.  0.
438  4.37  0.  0.  0.
439  4.38  0.  0.  0.
440  4.39  0.  0.  0.
441  4.40  0.  0.  0.
442  4.41  0.  0.  0.
443  4.42  0.  0.  0.
444  4.43  0.  0.  0.
445  4.44  0.  0.  0.
446  4.45  0.  0.  0.
447  4.46  0.  0.  0.
448  4.47  0.  0.  0.
449  4.48  0.  0.  0.
450  4.49  0.  0.  0.
451  4.50  0.  0.  0.
452  4.51  0.  0.  0.
453  4.52  0.  0.  0.
454  4.53  0.  0.  0.
455  4.54  0.  0.  0.
456  4.55  0.  0.  0.
457  4.56  0.  0.  0.
458  4.57  0.  0.  0.
459  4.58  0.  0.  0.
460  4.59  0.  0.  0.
461  4.60  0.  0.  0.
462  4.61  0.  0.  0.
463  4.62  0.  0.  0.
464  4.63  0.  0.  0.
465  4.64  0.  0.  0.
466  4.65  0.  0.  0.
467  4.66  0.  0.  0.
468  4.67  0.  0.  0.
469  4.68  0.  0.  0.
470  4.69  0.  0.  0.
471  4.70  0.  0.  0.
472  4.71  0.  0.  0.
473  4.72  0.  0.  0.
474  4.73  0.  0.  0.
475  4.74  0.  0.  0.
476  4.75  0.  0.  0.
477  4.76  0.  0.  0.
478  4.77  0.  0.  0.
479  4.78  0.  0.  0.
480  4.79  0.  0.  0.
481  4.80  0.  0.  0.
482  4.81  0.  0.  0.
483  4.82  0.  0.  0.
484  4.83  0.  0.  0.
485  4.84  0.  0.  0.
486  4.85  0.  0.  0.
487  4.86  0.  0.  0.
488  4.87  0.  0.  0.
489  4.88  0.  0.  0.
490  4.89  0.  0.  0.
491  4.90  0.  0.  0.
492  4.91  0.  0.  0.
493  4.92  0.  0.  0.
494  4.93  0.  0.  0.
495  4.94  0.  0.  0.
496  4.95  0.  0.  0.
497  4.96  0.  0.  0.
498  4.97  0.  0.  0.
499  4.98  0.  0.  0.
500  4.99  0.  0.  0.
501  5.00  0.  0.  0.
502  5.01  0.  0.  0.
503  5.02  0.  0.  0.
504  5.03  0.  0.  0.
505  5.04  0.  0.  0.
506  5.05  0.  0.  0.
507  5.06  0.  0.  0.
508  5.07  0.  0.  0.
509  5.08  0.  0.  0.
510  5.09  0.  0.  0.
511  5.10  0.  0.  0.
512  5.11  0.  0.  0.
513  5.12  0.  0.  0.
514  5.13  0.  0.  0.
515  5.14  0.  0.  0.
516  5.15  0.  0.  0.
517  5.16  0.  0.  0.
518  5.17  0.  0.  0.
519  5.18  0.  0.  0.
520  5.19  0.  0.  0.
521  5.20  0.  0.  0.
522  5.21  0.  0.  0.
523  5.22  0.  0.  0.
524  5.23  0.  0.  0.
525  5.24  0.  0.  0.
526  5.25  0.  0.  0.
527  5.26  0.  0.  0.
528  5.27  0.  0.  0.
529  5.28  0.  0.  0.
530  5.29  0.  0.  0.
531  5.30  0.  0.  0.
532  5.31  0.  0.  0.
533  5.32  0.  0.  0.
534  5.33  0.  0.  0.
535  5.34  0.  0.  0.
536  5.35  0.  0.  0.
537  5.36  0.  0.  0.
538  5.37  0.  0.  0.
539  5.38  0.  0.  0.
540  5.39  0.  0.  0.
541  5.40  0.  0.  0.
542  5.41  0.  0.  0.
543  5.42  0.  0.  0.
544  5.43  0.  0.  0.
545  5.44  0.  0.  0.
546  5.45  0.  0.  0.
547  5.46  0.  0.  0.
548  5.47  0.  0.  0.
549  5.48  0.  0.  0.
550  5.49  0.  0.  0.
551  5.50  0.  0.  0.
552  5.51  0.  0.  0.
553  5.52  0.  0.  0.
554  5.53  0.  0.  0.
555  5.54  0.  0.  0.
556  5.55  0.  0.  0.
557  5.56  0.  0.  0.
558  5.57  0.  0.  0.
559  5.58  0.  0.  0.
560  5.59  0.  0.  0.
561  5.60  0.  0.  0.
562  5.61  0.  0.  0.
563  5.62  0.  0.  0.
564  5.63  0.  0.  0.
565  5.64  0.  0.  0.
566  5.65  0.  0.  0.
567  5.66  0.  0.  0.
568  5.67  0.  0.  0.
569  5.68  0.  0.  0.
570  5.69  0.  0.  0.
571  5.70  0.  0.  0.
572  5.71  0.  0.  0.
573  5.72  0.  0.  0.
574  5.73  0.  0.  0.
575  5.74  0.  0.  0.
576  5.75  0.  0.  0.
577  5.76  0.  0.  0.
578  5.77  0.  0.  0.
579  5.78  0.  0.  0.
580  5.79  0.  0.  0.
581  5.80  0.  0.  0.
582  5.81  0.  0.  0.
583  5.82  0.  0.  0.
584  5.83  0.  0.  0.
585  5.84  0.  0.  0.
586  5.85  0.  0.  0.
587  5.86  0.  0.  0.
588  5.87  0.  0.  0.
589  5.88  0.  0.  0.
590  5.89  0.  0.  0.
591  5.90  0.  0.  0.
592  5.91  0.  0.  0.
593  5.92  0.  0.  0.
594  5.93  0.  0.  0.
595  5.94  0.  0.  0.
596  5.95  0.  0.  0.
597  5.96  0.  0.  0.
598  5.97  0.  0.  0.
599  5.98  0.  0.  0.
600  5.99  0.  0.  0.
1                        -1.2750730508734E+01 -1.5873286805577E+00 -4.0315182783423E-01
1  0.0000000000000E+00  4.7019174109764E-09 -5.9184774303667E-09 -1.1509923969477E-07
2  1.0000000000000E-02  3.0868327732405E-03 -4.8790478717923E-03  2.5643778433533E-03
3  2.0000000000000E-02  1.2323757886330E-02 -1.9452910759488E-02  1.0244500383851E-02
4  3.0000000000000E-02  2.7640276963622E-02 -4.3532380284177E-02  2.2999966886606E-02
5  4.0000000000000E-02  4.8919627476855E-02 -7.6804221517162E-02  4.0758974640745E-02
6  5.0000000000000E-02  7.5999875431868E-02 -1.1883434008888E-01  6.3411931032872E-02
7  6.0000000000000E-02  1.0867542637851E-01 -1.6907221198811E-01  9.0803123294205E-02
8  7.0000000000000E-02  1.4669893638114E-01 -2.2685656902672E-01  1.2272102270501E-01
9  8.0000000000000E-02  1.8978359988509E-01 -2.9142232702640E-01  1.5888791513915E-01
10  9.0000000000000E-02  2.3760578710229E-01 -3.6190873525477E-01  1.9894963074828E-01
11  1.0000000000000E-01  2.8980799968240E-01 -4.3736871425826E-01  2.4246618799658E-01
12  1.1000000000000E-01  3.4600211009061E-01 -5.1677933494707E-01  2.8890416856859E-01
13  1.2000000000000E-01  4.0577284732243E-01 -5.9905337471101E-01  3.3763159915758E-01
14  1.3000000000000E-01  4.6868148937907E-01 -6.8305186680103E-01  3.8791603496653E-01
15  1.4000000000000E-01  5.3426972132255E-01 -7.6759753770224E-01  4.3892642095520E-01
16  1.5000000000000E-01  6.0206361673059E-01 -8.5148900441535E-01  4.8973915521574E-01
17  1.6000000000000E-01  6.7157769996944E-01 -9.3351558026395E-01  5.3934860067408E-01
18  1.7000000000000E-01  7.4231904687761E-01 -1.0124725149698E+00  5.8668209418383E-01
19  1.8000000000000E-01  8.1379138217432E-01 -1.0871764732726E+00  6.3061929455235E-01
20  1.9000000000000E-01  8.8549913313297E-01 -1.1564810373298E+00  6.7001550224512E-01
21  2.0000000000000E-01  9.5695140074497E-01 -1.2192920025003E+00  7.0372838278169E-01
22  2.1000000000000E-01  1.0276658116898E+00 -1.2745822248402E+00  7.3064734228293E-01
23  2.2000000000000E-01  1.0971722168655E+00 -1.3214057725111E+00  7.4972464576079E-01
24  2.3000000000000E-01  1.1650162049623E+00 -1.3589111330225E+00  7.6000724409059E-01
25  2.4000000000000E-01  1.2307624025207E+00 -1.3863532342574E+00  7.6066819038050E-01
26  2.5000000000000E-01  1.2939975350474E+00 -1.4031040498463E+00  7.5103648527290E-01
27  2.6000000000000E-01  1.3543332270113E+00 -1.4086615786957E+00  7.3062419638214E-01
28  2.7000000000000E-01  1.4114085218626E+00 -1.4026570141212E+00  6.9914975045059E-01
29  2.8000000000000E-01  1.4648921065560E+00 -1.3848599496389E+00  6.5655639674146E-01
30  2.9000000000000E-01  1.5144842283862E+00 -1.3551815053224E+00  6.0302498355146E-01
31  3.0000000000000E-01  1.5599182952158E+00 -1.3136752998398E+00  5.3898037152425E-01
32  3.1000000000000E-01  1.6009621533753E+00 -1.2605362377261E+00  4.6509102099706E-01
33  3.2000000000000E-01  1.6374190406112E+00 -1.1960971278804E+00  3.8226152782525E-01
34  3.3000000000000E-01  1.6691282144435E+00 -1.1208231963282E+00  2.9161813381095E-01
35  3.4000000000000E-01  1.6959652591512E+00 -1.0353046025435E+00  1.9448749410046E-01
36  3.5000000000000E-01  1.7178420773311E+00 -9.4024711263551E-01  9.2369234471829E-02
37  3.6000000000000E-01  1.7347065745601E+00 -8.3646112309918E-01 -1.3096933826768E-02
38  3.7000000000000E-01  1.7465420481402E+00 -7.2484926430623E-01 -1.2016856472572E-01
39  3.8000000000000E-01  1.7533662932082E+00 -6.0639284233403E-01 -2.2704114135139E-01
40  3.9000000000000E-01  1.7552304416507E+00 -4.8213740014898E-01 -3.3189076769968E-01
41  4.0000000000000E-01  1.7522175512762E+00 -3.5317769385121E-01 -4.3291751604787E-01
42  4.1000000000000E-01  1.7444409645526E+00 -2.2064238619222E-01 -5.2838802334134E-01
43  4.2000000000000E-01  1.7320424579114E+00 -8.5678757712488E-02 -6.1667594825030E-01
44  4.3000000000000E-01  1.7151902041439E+00  5.0562274282582E-02 -6.9629897216967E-01
45  4.4000000000000E-01  1.6940765717531E+00  1.8694055669021E-01 -7.6595114981162E-01
46  4.5000000000000E-01  1.6689157862607E+00  3.2234027451006E-01 -8.2452958383068E-01
47  4.6000000000000E-01  1.6399414793884E+00  4.5568248216286E-01 -8.7115460683148E-01
48  4.7000000000000E-01  1.6074041527155E+00  5.8593641337028E-01 -9.0518289518782E-01
49  4.8000000000000E-01  1.5715685828427E+00  7.1212943124407E-01 -9.2621320302626E-01
50  4.9000000000000E-01  1.5327111952409E+00  8.3335552315065E-01 -9.3408468118339E-01
51  5.0000000000000E-01  1.4911174338274E+00  9.4878228874014E-01 -9.2886802402986E-01
52  5.1000000000000E-01  1.4470791528643E+00  1.0576564127266E+00 -9.1084995569708E-01
53  5.2000000000000E-01  1.4008920570138E+00  1.1593076550941E+00 -8.8051181567304E-01
54  5.3000000000000E-01  1.3528532143015E+00  1.2531514289897E+00 -8.3850322188904E-01
55  5.4000000000000E-01  1.3032586653389E+00  1.3386900694061E+00 -7.8561196838231E-01
56  5.5000000000000E-01  1.2524011504409E+00  1.4155129228152E+00 -7.2273144696049E-01
57  5.6000000000000E-01  1.2005679742675E+00  1.4832954083637E+00 -6.5082696240888E-01
58  5.7000000000000E-01  1.1480390253342E+00  1.5417972145634E+00 -5.7090233511351E-01
59  5.8000000000000E-01  1.0950849652177E+00  1.5908598013196E+00 -4.8396815218914E-01
60  5.9000000000000E-01  1.0419655995567E+00  1.6304033756998E+00 -3.9101293926565E-01
61  6.0000000000000E-01  9.8892844006895E-01  1.6604235013772E+00 -2.9297838324173E-01
62  6.1000000000000E-01  9.3620746382484E-01  1.6809874868021E+00 -1.9073954698695E-01
63  6.2000000000000E-01  8.8402207298732E-01  1.6922306767314E+00 -8.5090787568101E-02
64  6.3000000000000E-01  8.3257625521434E-01  1.6943527468718E+00  2.3262170783325E-02
65  6.4000000000000E-01  7.8205794198371E-01  1.6876140733296E+00  1.3370383857443E-01
66  6.5000000000000E-01  7.3263855930243E-01  1.6723322187050E+00  2.4570435727423E-01
67  6.6000000000000E-01  6.8447276266589E-01  1.6488785464782E+00  3.5880909619789E-01
68  6.7000000000000E-01  6.3769834579263E-01  1.6176749462861E+00  4.7262312830073E-01
69  6.8000000000000E-01  5.9243631062919E-01  1.5791906261955E+00  5.8679150849539E-01
70  6.9000000000000E-01  5.4879108444029E-01  1.5339389054523E+00  7.0097648624542E-01
71  7.0000000000000E-01  5.0685086850706E-01  1.4824739235773E+00  8.1483294577525E-01
72  7.1000000000000E-01  4.6668810207419E-01  1.4253871700071E+00  9.2798347470412E-01
73  7.2000000000000E-01  4.2836002472840E-01  1.3633037334283E+00  1.0399945097435E+00
74  7.3000000000000E-01  3.9190932035618E-01  1.2968781719038E+00  1.1503549931364E+00
75  7.4000000000000E-01  3.5736482620642E-01  1.2267899139244E+00  1.2584588950809E+00
76  7.5000000000000E-01  3.2474229134854E-01  1.1537381164002E+00  1.3635928174013E+00
77  7.6000000000000E-01  2.9404516993418E-01  1.0784359277818E+00  1.4649296966214E+00
78  7.7000000000000E-01  2.6526543609274E-01  1.0016041321365E+00  1.5615293772660E+00
79  7.8000000000000E-01  2.3838440896195E-01  9.2396418197438E-01  1.6523465377006E+00
80  7.9000000000000E-01  2.1337357821150E-01  8.4623066260832E-01  1.7362461320772E+00
81  8.0000000000000E-01  1.9019542238934E-01  7.6910326731326E-01  1.8120261753666E+00
82  8.1000000000000E-01  1.6880421443557E-01  6.9325839890517E-01  1.8784473574900E+00
83  8.2000000000000E-01  1.4914681069295E-01  6.1934054791029E-01  1.9342686411310E+00
84  8.3000000000000E-01  1.3116342162432E-01  5.4795362857153E-01  1.9782876898057E+00
85  8.4000000000000E-01  1.1478836415785E-01  4.7965247996694E-01  2.0093847015155E+00
86  8.5000000000000E-01  9.9950797059065E-02  4.1493475906264E-01  2.0265680009616E+00
87  8.6000000000000E-01  8.6575441922130E-02  3.5423346437859E-01  2.0290195804282E+00
88  8.7000000000000E-01  7.4583293239226E-02  2.9791033216203E-01  2.0161386844737E+00
89  8.8000000000000E-01  6.3892321517268E-02  2.4625034091521E-01  1.9875815125023E+00
90  8.9000000000000E-01  5.4418173549002E-02  1.9945754453046E-01  1.9432951693370E+00
91  9.0000000000000E-01  4.6074873709379E-02  1.5765242924340E-01  1.8835441273567E+00
92  9.1000000000000E-01  3.8775529550649E-02  1.2087095559911E-01  1.8089276718187E+00
93  9.2000000000000E-01  3.2433044037561E-02  8.9065404485949E-02  1.7203870779233E+00
94  9.3000000000000E-01  2.6960835537785E-02  6.2107097223792E-02  1.6192016054086E+00
95  9.4000000000000E-01  2.2273565214239E-02  3.9791005220355E-02  1.5069727827991E+00
96  9.5000000000000E-01  1.8287869817711E-02  2.1842206601681E-02  1.3855968755741E+00
97  9.6000000000000E-01  1.4923096120002E-02  7.9240874649526E-03  1.2572258754341E+00
98  9.7000000000000E-01  1.2102031435843E-02 -2.3518738830378E-03  1.1242177952115E+00
99  9.8000000000000E-01  9.7516229334076E-03 -9.4149579975199E-03  9.8907748915983E-01
100  9.9000000000000E-01  7.8036768072746E-03 -1.3722960834771E-02  8.5438962439994E-01
101  1.0000000000000E+00  6.1955269565671E-03 -1.5749171004124E-02  7.2274579066008E-01
102  1.0100000000000E+00  4.8706616449690E-03 -1.5968919390064E-02  5.9666803699054E-01