Pu    ONCVPSP-4.0.1  r_core=   1.15370   1.20304   1.10639   1.15370
94.0000     34.0000      220327    zatom,zion,pspd
8      11   3     4   600     0    pspcod,pspxc,lmax,lloc,mmax,r2well
5.99000000  5.00000000  0.00000000    rchrg fchrg qchrg
3     2     2     2     0    nproj
1     1           extension_switch
0                         3.4808644935872E+01  3.5877949391568E+00 -2.4524754457612E-01
1  0.0000000000000E+00 -4.4283091193975E-08  1.5531732994178E-07  2.6375379507532E-07
2  1.0000000000000E-02  1.4721843633338E-01 -6.8294680792198E-02 -6.6049093928137E-03
3  2.0000000000000E-02  2.9351983681458E-01 -1.3525284159292E-01 -1.2143511847805E-02
4  3.0000000000000E-02  4.3799883565430E-01 -1.9956986878437E-01 -1.5596538539785E-02
5  4.0000000000000E-02  5.7977308394343E-01 -2.6000386025419E-01 -1.6036922979425E-02
6  5.0000000000000E-02  7.1799396225096E-01 -3.1540427106039E-01 -1.2671290281847E-02
7  6.0000000000000E-02  8.5185637207990E-01 -3.6473742572347E-01 -4.8761132459822E-03
8  7.0000000000000E-02  9.8060735412406E-01 -4.0710804549367E-01  7.7729156892144E-03
9  8.0000000000000E-02  1.1035533255519E+00 -4.4177609425899E-01  2.5479483791764E-02
10  9.0000000000000E-02  1.2200657804649E+00 -4.6816842893088E-01  4.8214105892366E-02
11  1.0000000000000E-01  1.3295853551580E+00 -4.8588494191627E-01  7.5710953735559E-02
12  1.1000000000000E-01  1.4316242205425E+00 -4.9469909658362E-01  1.0747423470898E-01
13  1.2000000000000E-01  1.5257668256354E+00 -4.9455297295389E-01  1.4279391596086E-01
14  1.3000000000000E-01  1.6116690759179E+00 -4.8554715155221E-01  1.8077022568014E-01
15  1.4000000000000E-01  1.6890560862006E+00 -4.6792596002022E-01  2.2034602082669E-01
16  1.5000000000000E-01  1.7577186971868E+00 -4.4205878186825E-01  2.6034580310033E-01
17  1.6000000000000E-01  1.8175089861928E+00 -4.0841827263971E-01  2.9951990435728E-01
18  1.7000000000000E-01  1.8683350338405E+00 -3.6755643996141E-01  3.3659215906930E-01
19  1.8000000000000E-01  1.9101552287137E+00 -3.2007961600201E-01  3.7030924268048E-01
20  1.9000000000000E-01  1.9429724001925E+00 -2.6662338090403E-01  3.9948978618544E-01
21  2.0000000000000E-01  1.9668280656240E+00 -2.0782848259911E-01  4.2307138157761E-01
22  2.1000000000000E-01  1.9817970618671E+00 -1.4431874262926E-01  4.4015366979439E-01
23  2.2000000000000E-01  1.9879828037252E+00 -7.6681841433830E-02  4.5003584943658E-01
24  2.3000000000000E-01  1.9855133740286E+00 -5.4537439479613E-03  4.5224715512724E-01
25  2.4000000000000E-01  1.9745386037146E+00  6.8892637339126E-02  4.4656912074403E-01
26  2.5000000000000E-01  1.9552282471026E+00  1.4595413284851E-01  4.3304875456274E-01
27  2.6000000000000E-01  1.9277712999158E+00  2.2539915578735E-01  4.1200209848911E-01
28  2.7000000000000E-01  1.8923764478359E+00  3.0696470068559E-01  3.8400800868729E-01
29  2.8000000000000E-01  1.8492735740349E+00  3.9044872291825E-01  3.4989236586004E-01
30  2.9000000000000E-01  1.7987161976798E+00  4.7569832564447E-01  3.1070328590922E-01
31  3.0000000000000E-01  1.7409846642672E+00  5.6259436732034E-01  2.6767824167522E-01
32  3.1000000000000E-01  1.6763898649956E+00  6.5103326459889E-01  2.2220431085091E-01
33  3.2000000000000E-01  1.6052772281227E+00  7.4090689529976E-01  1.7577302230897E-01
34  3.3000000000000E-01  1.5280307019120E+00  8.3208159874717E-01  1.2993147312659E-01
35  3.4000000000000E-01  1.4450764374257E+00  9.2437732218537E-01  8.6231523988299E-02
36  3.5000000000000E-01  1.3568858806825E+00  1.0175479698619E+00  4.6178946338427E-02
37  3.6000000000000E-01  1.2639779976598E+00  1.1112639751566E+00  1.1184388332539E-02
38  3.7000000000000E-01  1.1669203818565E+00  1.2050980370458E+00 -1.7482051193526E-02
39  3.8000000000000E-01  1.0663290317209E+00  1.2985148431844E+00 -3.8730997555520E-02
40  3.9000000000000E-01  9.6286663279185E-01  1.3908654475297E+00 -5.1687288980940E-02
41  4.0000000000000E-01  8.5723923509412E-01  1.4813867867650E+00 -5.5715606630657E-02
42  4.1000000000000E-01  7.5019127800872E-01  1.5692066140260E+00 -5.0437378875662E-02
43  4.2000000000000E-01  6.4249898010172E-01  1.6533539087564E+00 -3.5738429849358E-02
44  4.3000000000000E-01  5.3496217765491E-01  1.7327745966730E+00 -1.1767197398903E-02
45  4.4000000000000E-01  4.2839476026033E-01  1.8063521928116E+00  2.1076295200735E-02
46  4.5000000000000E-01  3.2361391222693E-01  1.8729327723334E+00  6.2160180029940E-02
47  4.6000000000000E-01  2.2142842224965E-01  1.9313534866227E+00  1.1064833814869E-01
48  4.7000000000000E-01  1.2262636861710E-01  1.9804736837872E+00  1.6553469649138E-01
49  4.8000000000000E-01  2.7962521312935E-02  2.0192075694984E+00  2.2568283567769E-01
50  4.9000000000000E-01 -6.1854175736409E-02  2.0465572612296E+00  2.8986932982051E-01
51  5.0000000000000E-01 -1.4617267028814E-01  2.0616450499191E+00  3.5682911601680E-01
52  5.1000000000000E-01 -2.2441104819882E-01  2.0637436896452E+00  4.2530113526240E-01
53  5.2000000000000E-01 -2.9606661199406E-01  2.0523035880108E+00  4.9407249969677E-01
54  5.3000000000000E-01 -3.6072447435314E-01  2.0269758657551E+00  5.6201952222014E-01
55  5.4000000000000E-01 -4.1806439249960E-01  1.9876303900274E+00  6.2814408982945E-01
56  5.5000000000000E-01 -4.6786562296978E-01  1.9343680565959E+00  6.9160406513680E-01
57  5.6000000000000E-01 -5.1000963797882E-01  1.8675267954307E+00  7.5173665287737E-01
58  5.7000000000000E-01 -5.4448061230654E-01  1.7876809938928E+00  8.0807395928696E-01
59  5.8000000000000E-01 -5.7136366074245E-01  1.6956342636639E+00  8.6035029009139E-01
60  5.9000000000000E-01 -5.9084087797897E-01  1.5924057125545E+00  9.0850106456091E-01
61  6.0000000000000E-01 -6.0318530273412E-01  1.4792101113594E+00  9.5265355532727E-01
62  6.1000000000000E-01 -6.0875299319258E-01  1.3574325601126E+00  9.9310998314463E-01
63  6.2000000000000E-01 -6.0797345915628E-01  1.2285984492268E+00  1.0303237899298E+00
64  6.3000000000000E-01 -6.0133874544167E-01  1.0943396717820E+00  1.0648701707593E+00
65  6.4000000000000E-01 -5.8939149928106E-01  9.5635816761998E-01  1.0974121562049E+00
66  6.5000000000000E-01 -5.7271238043558E-01  8.1638796331178E-01  1.1286636925615E+00
67  6.6000000000000E-01 -5.5190718557047E-01  6.7615691160041E-01  1.1593512636465E+00
68  6.7000000000000E-01 -5.2759405784708E-01  5.3734932839962E-01  1.1901756308218E+00
69  6.8000000000000E-01 -5.0039113886652E-01  4.0157067552787E-01  1.2217752372974E+00
70  6.9000000000000E-01 -4.7090499377641E-01  2.7031534545839E-01  1.2546927307126E+00
71  7.0000000000000E-01 -4.3972010275054E-01  1.4493847458039E-01  1.2893459091291E+00
72  7.1000000000000E-01 -4.0738966480780E-01  2.6632549304774E-02  1.3260041967415E+00
73  7.2000000000000E-01 -3.7442790507638E-01 -8.3590618353898E-02  1.3647715157127E+00
74  7.3000000000000E-01 -3.4130401640576E-01 -1.8491217462588E-01  1.4055761499171E+00
75  7.4000000000000E-01 -3.0843780316839E-01 -2.7671261112329E-01  1.4481679066101E+00
76  7.5000000000000E-01 -2.7619703170953E-01 -3.5857231486947E-01  1.4921225852435E+00
77  7.6000000000000E-01 -2.4489643072404E-01 -4.3026654877417E-01  1.5368534710793E+00
78  7.7000000000000E-01 -2.1479822825062E-01 -4.9175532211408E-01  1.5816292968003E+00
79  7.8000000000000E-01 -1.8611406213438E-01 -5.4316877927740E-01  1.6255978689104E+00
80  7.9000000000000E-01 -1.5900805955788E-01 -5.8478887411244E-01  1.6678143470012E+00
81  8.0000000000000E-01 -1.3360085003759E-01 -6.1702820167541E-01  1.7072730008369E+00
82  8.1000000000000E-01 -1.0997425612875E-01 -6.4040692552910E-01  1.7429411585428E+00
83  8.2000000000000E-01 -8.8176397507722E-02 -6.5552876513721E-01  1.7737940025928E+00
84  8.3000000000000E-01 -6.8226947133489E-02 -6.6305699417394E-01  1.7988488700341E+00
85  8.4000000000000E-01 -5.0122292368708E-02 -6.6369134823564E-01  1.8171977683272E+00
86  8.5000000000000E-01 -3.3840378338807E-02 -6.5814665260337E-01  1.8280369249025E+00
87  8.6000000000000E-01 -1.9345044080709E-02 -6.4713386190036E-01  1.8306923414858E+00
88  8.7000000000000E-01 -6.5897024837474E-03 -6.3134405946851E-01  1.8246405160691E+00
89  8.8000000000000E-01  4.4797393194823E-03 -6.1143580176815E-01  1.8095237172271E+00
90  8.9000000000000E-01  1.3922773751488E-02 -5.8802601944032E-01  1.7851594373682E+00
91  9.0000000000000E-01  2.1803005913048E-02 -5.6168450955333E-01  1.7515439028942E+00
92  9.1000000000000E-01  2.8187643095253E-02 -5.3293188064912E-01  1.7088497693977E+00
93  9.2000000000000E-01  3.3147673229841E-02 -5.0224065083460E-01  1.6574183685448E+00
94  9.3000000000000E-01  3.6758605791834E-02 -4.7003905598926E-01  1.5977470905123E+00
95  9.4000000000000E-01  3.9101616748657E-02 -4.3671700589334E-01  1.5304726733082E+00
96  9.5000000000000E-01  4.0264915632868E-02 -4.0263353526390E-01  1.4563513210343E+00
97  9.6000000000000E-01  4.0345138575700E-02 -3.6812503747908E-01  1.3762366819925E+00
98  9.7000000000000E-01  3.9448566620426E-02 -3.3351354287655E-01  1.2910567813361E+00
99  9.8000000000000E-01  3.7691973823395E-02 -2.9911431109340E-01  1.2017910206078E+00
100  9.9000000000000E-01  3.5202924096041E-02 -2.6524204664092E-01  1.1094483289917E+00
101  1.0000000000000E+00  3.2119358540338E-02 -2.3221511592261E-01  1.0150474815273E+00
102  1.0100000000000E+00  2.8588344983636E-02 -2.0035723831397E-01  9.1960049252810E-01
103  1.0200000000000E+00  2.4763896924221E-02 -1.6999623847811E-01  8.2409985451072E-01
104  1.0300000000000E+00  2.0803808362748E-02 -1.4145957584664E-01  7.2951023171926E-01
105  1.0400000000000E+00  1.6865492123245E-02 -1.1506650385210E-01  6.3676504100831E-01
106  1.0500000000000E+00  1.3100850220493E-02 -9.1116849235235E-02  5.4676817045078E-01
107  1.0600000000000E+00  9.6502436157775E-03 -6.9876533859081E-02  4.6040090660212E-01
108  1.0700000000000E+00  6.6356636137616E-03 -5.1560082189318E-02  3.7853397267971E-01
109  1.0800000000000E+00  4.1532420331830E-03 -3.6310478397037E-02  3.0204442110639E-01
110  1.0900000000000E+00  2.2652590126965E-03 -2.4176804064328E-02  2.3183699877000E-01
111  1.1000000000000E+00  9.7177342862701E-04 -1.5027807438515E-02  1.6890271204517E-01
112  1.1100000000000E+00  1.0713220840495E-04 -8.2281344955349E-03  1.1450371723022E-01
113  1.1200000000000E+00 -3.3477522684122E-04 -3.6554976318821E-03  6.9619322587209E-02
114  1.1300000000000E+00 -4.0063821561265E-04 -1.0945126827569E-03  3.5159583955642E-02
115  1.1400000000000E+00 -2.2459990101255E-04 -9.5042721629294E-05  1.1983182386835E-02
116  1.1500000000000E+00 -2.7740047283135E-05  1.8119912073176E-05  1.0269267609829E-03
117  1.1600000000000E+00  9.2931895067569E-07 -9.5502672445842E-07 -2.9079183632521E-05
118  1.1700000000000E+00  1.8099431643301E-07 -6.8905948261372E-08 -7.4480606591169E-06
119  1.18 -0.  0.  0.
120  1.19  0.  0.  0.
121  1.20  0.  0.  0.
122  1.21  0.  0.  0.
123  1.22  0.  0.  0.
124  1.23  0.  0.  0.
125  1.24  0.  0.  0.
126  1.25  0.  0.  0.
127  1.26  0.  0.  0.
128  1.27  0.  0.  0.
129  1.28  0.  0.  0.
130  1.29  0.  0.  0.
131  1.30  0.  0.  0.
132  1.31  0.  0.  0.
133  1.32  0.  0.  0.
134  1.33  0.  0.  0.
135  1.34  0.  0.  0.
136  1.35  0.  0.  0.
137  1.36  0.  0.  0.
138  1.37  0.  0.  0.
139  1.38  0.  0.  0.
140  1.39  0.  0.  0.
141  1.40  0.  0.  0.
142  1.41  0.  0.  0.
143  1.42  0.  0.  0.
144  1.43  0.  0.  0.
145  1.44  0.  0.  0.
146  1.45  0.  0.  0.
147  1.46  0.  0.  0.
148  1.47  0.  0.  0.
149  1.48  0.  0.  0.
150  1.49  0.  0.  0.
151  1.50  0.  0.  0.
152  1.51  0.  0.  0.
153  1.52  0.  0.  0.
154  1.53  0.  0.  0.
155  1.54  0.  0.  0.
156  1.55  0.  0.  0.
157  1.56  0.  0.  0.
158  1.57  0.  0.  0.
159  1.58  0.  0.  0.
160  1.59  0.  0.  0.
161  1.60  0.  0.  0.
162  1.61  0.  0.  0.
163  1.62  0.  0.  0.
164  1.63  0.  0.  0.
165  1.64  0.  0.  0.
166  1.65  0.  0.  0.
167  1.66  0.  0.  0.
168  1.67  0.  0.  0.
169  1.68  0.  0.  0.
170  1.69  0.  0.  0.
171  1.70  0.  0.  0.
172  1.71  0.  0.  0.
173  1.72  0.  0.  0.
174  1.73  0.  0.  0.
175  1.74  0.  0.  0.
176  1.75  0.  0.  0.
177  1.76  0.  0.  0.
178  1.77  0.  0.  0.
179  1.78  0.  0.  0.
180  1.79  0.  0.  0.
181  1.80  0.  0.  0.
182  1.81  0.  0.  0.
183  1.82  0.  0.  0.
184  1.83  0.  0.  0.
185  1.84  0.  0.  0.
186  1.85  0.  0.  0.
187  1.86  0.  0.  0.
188  1.87  0.  0.  0.
189  1.88  0.  0.  0.
190  1.89  0.  0.  0.
191  1.90  0.  0.  0.
192  1.91  0.  0.  0.
193  1.92  0.  0.  0.
194  1.93  0.  0.  0.
195  1.94  0.  0.  0.
196  1.95  0.  0.  0.
197  1.96  0.  0.  0.
198  1.97  0.  0.  0.
199  1.98  0.  0.  0.
200  1.99  0.  0.  0.
201  2.00  0.  0.  0.
202  2.01  0.  0.  0.
203  2.02  0.  0.  0.
204  2.03  0.  0.  0.
205  2.04  0.  0.  0.
206  2.05  0.  0.  0.
207  2.06  0.  0.  0.
208  2.07  0.  0.  0.
209  2.08  0.  0.  0.
210  2.09  0.  0.  0.
211  2.10  0.  0.  0.
212  2.11  0.  0.  0.
213  2.12  0.  0.  0.
214  2.13  0.  0.  0.
215  2.14  0.  0.  0.
216  2.15  0.  0.  0.
217  2.16  0.  0.  0.
218  2.17  0.  0.  0.
219  2.18  0.  0.  0.
220  2.19  0.  0.  0.
221  2.20  0.  0.  0.
222  2.21  0.  0.  0.
223  2.22  0.  0.  0.
224  2.23  0.  0.  0.
225  2.24  0.  0.  0.
226  2.25  0.  0.  0.
227  2.26  0.  0.  0.
228  2.27  0.  0.  0.
229  2.28  0.  0.  0.
230  2.29  0.  0.  0.
231  2.30  0.  0.  0.
232  2.31  0.  0.  0.
233  2.32  0.  0.  0.
234  2.33  0.  0.  0.
235  2.34  0.  0.  0.
236  2.35  0.  0.  0.
237  2.36  0.  0.  0.
238  2.37  0.  0.  0.
239  2.38  0.  0.  0.
240  2.39  0.  0.  0.
241  2.40  0.  0.  0.
242  2.41  0.  0.  0.
243  2.42  0.  0.  0.
244  2.43  0.  0.  0.
245  2.44  0.  0.  0.
246  2.45  0.  0.  0.
247  2.46  0.  0.  0.
248  2.47  0.  0.  0.
249  2.48  0.  0.  0.
250  2.49  0.  0.  0.
251  2.50  0.  0.  0.
252  2.51  0.  0.  0.
253  2.52  0.  0.  0.
254  2.53  0.  0.  0.
255  2.54  0.  0.  0.
256  2.55  0.  0.  0.
257  2.56  0.  0.  0.
258  2.57  0.  0.  0.
259  2.58  0.  0.  0.
260  2.59  0.  0.  0.
261  2.60  0.  0.  0.
262  2.61  0.  0.  0.
263  2.62  0.  0.  0.
264  2.63  0.  0.  0.
265  2.64  0.  0.  0.
266  2.65  0.  0.  0.
267  2.66  0.  0.  0.
268  2.67  0.  0.  0.
269  2.68  0.  0.  0.
270  2.69  0.  0.  0.
271  2.70  0.  0.  0.
272  2.71  0.  0.  0.
273  2.72  0.  0.  0.
274  2.73  0.  0.  0.
275  2.74  0.  0.  0.
276  2.75  0.  0.  0.
277  2.76  0.  0.  0.
278  2.77  0.  0.  0.
279  2.78  0.  0.  0.
280  2.79  0.  0.  0.
281  2.80  0.  0.  0.
282  2.81  0.  0.  0.
283  2.82  0.  0.  0.
284  2.83  0.  0.  0.
285  2.84  0.  0.  0.
286  2.85  0.  0.  0.
287  2.86  0.  0.  0.
288  2.87  0.  0.  0.
289  2.88  0.  0.  0.
290  2.89  0.  0.  0.
291  2.90  0.  0.  0.
292  2.91  0.  0.  0.
293  2.92  0.  0.  0.
294  2.93  0.  0.  0.
295  2.94  0.  0.  0.
296  2.95  0.  0.  0.
297  2.96  0.  0.  0.
298  2.97  0.  0.  0.
299  2.98  0.  0.  0.
300  2.99  0.  0.  0.
301  3.00  0.  0.  0.
302  3.01  0.  0.  0.
303  3.02  0.  0.  0.
304  3.03  0.  0.  0.
305  3.04  0.  0.  0.
306  3.05  0.  0.  0.
307  3.06  0.  0.  0.
308  3.07  0.  0.  0.
309  3.08  0.  0.  0.
310  3.09  0.  0.  0.
311  3.10  0.  0.  0.
312  3.11  0.  0.  0.
313  3.12  0.  0.  0.
314  3.13  0.  0.  0.
315  3.14  0.  0.  0.
316  3.15  0.  0.  0.
317  3.16  0.  0.  0.
318  3.17  0.  0.  0.
319  3.18  0.  0.  0.
320  3.19  0.  0.  0.
321  3.20  0.  0.  0.
322  3.21  0.  0.  0.
323  3.22  0.  0.  0.
324  3.23  0.  0.  0.
325  3.24  0.  0.  0.
326  3.25  0.  0.  0.
327  3.26  0.  0.  0.
328  3.27  0.  0.  0.
329  3.28  0.  0.  0.
330  3.29  0.  0.  0.
331  3.30  0.  0.  0.
332  3.31  0.  0.  0.
333  3.32  0.  0.  0.
334  3.33  0.  0.  0.
335  3.34  0.  0.  0.
336  3.35  0.  0.  0.
337  3.36  0.  0.  0.
338  3.37  0.  0.  0.
339  3.38  0.  0.  0.
340  3.39  0.  0.  0.
341  3.40  0.  0.  0.
342  3.41  0.  0.  0.
343  3.42  0.  0.  0.
344  3.43  0.  0.  0.
345  3.44  0.  0.  0.
346  3.45  0.  0.  0.
347  3.46  0.  0.  0.
348  3.47  0.  0.  0.
349  3.48  0.  0.  0.
350  3.49  0.  0.  0.
351  3.50  0.  0.  0.
352  3.51  0.  0.  0.
353  3.52  0.  0.  0.
354  3.53  0.  0.  0.
355  3.54  0.  0.  0.
356  3.55  0.  0.  0.
357  3.56  0.  0.  0.
358  3.57  0.  0.  0.
359  3.58  0.  0.  0.
360  3.59  0.  0.  0.
361  3.60  0.  0.  0.
362  3.61  0.  0.  0.
363  3.62  0.  0.  0.
364  3.63  0.  0.  0.
365  3.64  0.  0.  0.
366  3.65  0.  0.  0.
367  3.66  0.  0.  0.
368  3.67  0.  0.  0.
369  3.68  0.  0.  0.
370  3.69  0.  0.  0.
371  3.70  0.  0.  0.
372  3.71  0.  0.  0.
373  3.72  0.  0.  0.
374  3.73  0.  0.  0.
375  3.74  0.  0.  0.
376  3.75  0.  0.  0.
377  3.76  0.  0.  0.
378  3.77  0.  0.  0.
379  3.78  0.  0.  0.
380  3.79  0.  0.  0.
381  3.80  0.  0.  0.
382  3.81  0.  0.  0.
383  3.82  0.  0.  0.
384  3.83  0.  0.  0.
385  3.84  0.  0.  0.
386  3.85  0.  0.  0.
387  3.86  0.  0.  0.
388  3.87  0.  0.  0.
389  3.88  0.  0.  0.
390  3.89  0.  0.  0.
391  3.90  0.  0.  0.
392  3.91  0.  0.  0.
393  3.92  0.  0.  0.
394  3.93  0.  0.  0.
395  3.94  0.  0.  0.
396  3.95  0.  0.  0.
397  3.96  0.  0.  0.
398  3.97  0.  0.  0.
399  3.98  0.  0.  0.
400  3.99  0.  0.  0.
401  4.00  0.  0.  0.
402  4.01  0.  0.  0.
403  4.02  0.  0.  0.
404  4.03  0.  0.  0.
405  4.04  0.  0.  0.
406  4.05  0.  0.  0.
407  4.06  0.  0.  0.
408  4.07  0.  0.  0.
409  4.08  0.  0.  0.
410  4.09  0.  0.  0.
411  4.10  0.  0.  0.
412  4.11  0.  0.  0.
413  4.12  0.  0.  0.
414  4.13  0.  0.  0.
415  4.14  0.  0.  0.
416  4.15  0.  0.  0.
417  4.16  0.  0.  0.
418  4.17  0.  0.  0.
419  4.18  0.  0.  0.
420  4.19  0.  0.  0.
421  4.20  0.  0.  0.
422  4.21  0.  0.  0.
423  4.22  0.  0.  0.
424  4.23  0.  0.  0.
425  4.24  0.  0.  0.
426  4.25  0.  0.  0.
427  4.26  0.  0.  0.
428  4.27  0.  0.  0.
429  4.28  0.  0.  0.
430  4.29  0.  0.  0.
431  4.30  0.  0.  0.
432  4.31  0.  0.  0.
433  4.32  0.  0.  0.
434  4.33  0.  0.  0.
435  4.34  0.  0.  0.
436  4.35  0.  0.  0.
437  4.36  0.  0.  0.
438  4.37  0.  0.  0.
439  4.38  0.  0.  0.
440  4.39  0.  0.  0.
441  4.40  0.  0.  0.
442  4.41  0.  0.  0.
443  4.42  0.  0.  0.
444  4.43  0.  0.  0.
445  4.44  0.  0.  0.
446  4.45  0.  0.  0.
447  4.46  0.  0.  0.
448  4.47  0.  0.  0.
449  4.48  0.  0.  0.
450  4.49  0.  0.  0.
451  4.50  0.  0.  0.
452  4.51  0.  0.  0.
453  4.52  0.  0.  0.
454  4.53  0.  0.  0.
455  4.54  0.  0.  0.
456  4.55  0.  0.  0.
457  4.56  0.  0.  0.
458  4.57  0.  0.  0.
459  4.58  0.  0.  0.
460  4.59  0.  0.  0.
461  4.60  0.  0.  0.
462  4.61  0.  0.  0.
463  4.62  0.  0.  0.
464  4.63  0.  0.  0.
465  4.64  0.  0.  0.
466  4.65  0.  0.  0.
467  4.66  0.  0.  0.
468  4.67  0.  0.  0.
469  4.68  0.  0.  0.
470  4.69  0.  0.  0.
471  4.70  0.  0.  0.
472  4.71  0.  0.  0.
473  4.72  0.  0.  0.
474  4.73  0.  0.  0.
475  4.74  0.  0.  0.
476  4.75  0.  0.  0.
477  4.76  0.  0.  0.
478  4.77  0.  0.  0.
479  4.78  0.  0.  0.
480  4.79  0.  0.  0.
481  4.80  0.  0.  0.
482  4.81  0.  0.  0.
483  4.82  0.  0.  0.
484  4.83  0.  0.  0.
485  4.84  0.  0.  0.
486  4.85  0.  0.  0.
487  4.86  0.  0.  0.
488  4.87  0.  0.  0.
489  4.88  0.  0.  0.
490  4.89  0.  0.  0.
491  4.90  0.  0.  0.
492  4.91  0.  0.  0.
493  4.92  0.  0.  0.
494  4.93  0.  0.  0.
495  4.94  0.  0.  0.
496  4.95  0.  0.  0.
497  4.96  0.  0.  0.
498  4.97  0.  0.  0.
499  4.98  0.  0.  0.
500  4.99  0.  0.  0.
501  5.00  0.  0.  0.
502  5.01  0.  0.  0.
503  5.02  0.  0.  0.
504  5.03  0.  0.  0.
505  5.04  0.  0.  0.
506  5.05  0.  0.  0.
507  5.06  0.  0.  0.
508  5.07  0.  0.  0.
509  5.08  0.  0.  0.
510  5.09  0.  0.  0.
511  5.10  0.  0.  0.
512  5.11  0.  0.  0.
513  5.12  0.  0.  0.
514  5.13  0.  0.  0.
515  5.14  0.  0.  0.
516  5.15  0.  0.  0.
517  5.16  0.  0.  0.
518  5.17  0.  0.  0.
519  5.18  0.  0.  0.
520  5.19  0.  0.  0.
521  5.20  0.  0.  0.
522  5.21  0.  0.  0.
523  5.22  0.  0.  0.
524  5.23  0.  0.  0.
525  5.24  0.  0.  0.
526  5.25  0.  0.  0.
527  5.26  0.  0.  0.
528  5.27  0.  0.  0.
529  5.28  0.  0.  0.
530  5.29  0.  0.  0.
531  5.30  0.  0.  0.
532  5.31  0.  0.  0.
533  5.32  0.  0.  0.
534  5.33  0.  0.  0.
535  5.34  0.  0.  0.
536  5.35  0.  0.  0.
537  5.36  0.  0.  0.
538  5.37  0.  0.  0.
539  5.38  0.  0.  0.
540  5.39  0.  0.  0.
541  5.40  0.  0.  0.
542  5.41  0.  0.  0.
543  5.42  0.  0.  0.
544  5.43  0.  0.  0.
545  5.44  0.  0.  0.
546  5.45  0.  0.  0.
547  5.46  0.  0.  0.
548  5.47  0.  0.  0.
549  5.48  0.  0.  0.
550  5.49  0.  0.  0.
551  5.50  0.  0.  0.
552  5.51  0.  0.  0.
553  5.52  0.  0.  0.
554  5.53  0.  0.  0.
555  5.54  0.  0.  0.
556  5.55  0.  0.  0.
557  5.56  0.  0.  0.
558  5.57  0.  0.  0.
559  5.58  0.  0.  0.
560  5.59  0.  0.  0.
561  5.60  0.  0.  0.
562  5.61  0.  0.  0.
563  5.62  0.  0.  0.
564  5.63  0.  0.  0.
565  5.64  0.  0.  0.
566  5.65  0.  0.  0.
567  5.66  0.  0.  0.
568  5.67  0.  0.  0.
569  5.68  0.  0.  0.
570  5.69  0.  0.  0.
571  5.70  0.  0.  0.
572  5.71  0.  0.  0.
573  5.72  0.  0.  0.
574  5.73  0.  0.  0.
575  5.74  0.  0.  0.
576  5.75  0.  0.  0.
577  5.76  0.  0.  0.
578  5.77  0.  0.  0.
579  5.78  0.  0.  0.
580  5.79  0.  0.  0.
581  5.80  0.  0.  0.
582  5.81  0.  0.  0.
583  5.82  0.  0.  0.
584  5.83  0.  0.  0.
585  5.84  0.  0.  0.
586  5.85  0.  0.  0.
587  5.86  0.  0.  0.
588  5.87  0.  0.  0.
589  5.88  0.  0.  0.
590  5.89  0.  0.  0.
591  5.90  0.  0.  0.
592  5.91  0.  0.  0.
593  5.92  0.  0.  0.
594  5.93  0.  0.  0.
595  5.94  0.  0.  0.
596  5.95  0.  0.  0.
597  5.96  0.  0.  0.
598  5.97  0.  0.  0.
599  5.98  0.  0.  0.
600  5.99  0.  0.  0.
1                         1.7434355246332E+01  2.6040457025395E+00
1  0.0000000000000E+00 -1.5721416002368E-08  3.2445166206485E-08
2  1.0000000000000E-02  3.8379488722150E-03 -5.6403851129160E-04
3  2.0000000000000E-02  1.5327534621997E-02 -2.2553353421677E-03
4  3.0000000000000E-02  3.4395872703366E-02 -5.0709538260617E-03
5  4.0000000000000E-02  6.0921160353906E-02 -9.0044202473264E-03
6  5.0000000000000E-02  9.4732222913597E-02 -1.4043433159862E-02
7  6.0000000000000E-02  1.3560795526539E-01 -2.0166809922424E-02
8  7.0000000000000E-02  1.8327673131368E-01 -2.7340817132887E-02
9  8.0000000000000E-02  2.3741587013825E-01 -3.5515064088893E-02
10  9.0000000000000E-02  2.9765125959496E-01 -4.4618164198915E-02
11  1.0000000000000E-01  3.6355724614487E-01 -5.4553387416695E-02
12  1.1000000000000E-01  4.3465690319066E-01 -6.5194536538677E-02
13  1.2000000000000E-01  5.1042278895009E-01 -7.6382281142833E-02
14  1.3000000000000E-01  5.9027829883571E-01 -8.7921174918164E-02
15  1.4000000000000E-01  6.7359970654445E-01 -9.9577565308895E-02
16  1.5000000000000E-01  7.5971897286303E-01 -1.1107857925824E-01
17  1.6000000000000E-01  8.4792738200235E-01 -1.2211233615692E-01
18  1.7000000000000E-01  9.3748004266626E-01 -1.3232949992797E-01
19  1.8000000000000E-01  1.0276012657512E+00 -1.4134623779270E-01
20  1.9000000000000E-01  1.1174908033793E+00 -1.4874860513973E-01
21  2.0000000000000E-01  1.2063309057847E+00 -1.5409832568419E-01
22  2.1000000000000E-01  1.2932941243538E+00 -1.5693988547244E-01
23  2.2000000000000E-01  1.3775517618188E+00 -1.5680881001234E-01
24  2.3000000000000E-01  1.4582828451896E+00 -1.5324094761839E-01
25  2.4000000000000E-01  1.5346834743648E+00 -1.4578254060022E-01
26  2.5000000000000E-01  1.6059763803394E+00 -1.3400083070095E-01
27  2.6000000000000E-01  1.6714205122276E+00 -1.1749491752350E-01
28  2.7000000000000E-01  1.7303204625427E+00 -9.5906569645272E-02
29  2.8000000000000E-01  1.7820355357618E+00 -6.8930678515937E-02
30  2.9000000000000E-01  1.8259882664012E+00 -3.6325045549377E-02
31  3.0000000000000E-01  1.8616721997501E+00  2.0807967748473E-03
32  3.1000000000000E-01  1.8886587609221E+00  4.6378008669776E-02
33  3.2000000000000E-01  1.9066030557275E+00  9.6572360810397E-02
34  3.3000000000000E-01  1.9152484695599E+00  1.5257985698012E-01
35  3.4000000000000E-01  1.9144299574034E+00  2.1422422674103E-01
36  3.5000000000000E-01  1.9040759484278E+00  2.8123640151866E-01
37  3.6000000000000E-01  1.8842088215412E+00  3.5325603131980E-01
38  3.7000000000000E-01  1.8549439427279E+00  4.2983504050111E-01
39  3.8000000000000E-01  1.8164872899512E+00  5.1044316147756E-01
40  3.9000000000000E-01  1.7691317257694E+00  5.9447532694973E-01
41  4.0000000000000E-01  1.7132520105244E+00  6.8126074606899E-01
42  4.1000000000000E-01  1.6492986789833E+00  7.7007343979915E-01
43  4.2000000000000E-01  1.5777909296963E+00  8.6014396727050E-01
44  4.3000000000000E-01  1.4993086982488E+00  9.5067203965776E-01
45  4.4000000000000E-01  1.4144841023227E+00  1.0408396922801E+00
46  4.5000000000000E-01  1.3239924575230E+00  1.1298246701533E+00
47  4.6000000000000E-01  1.2285430679288E+00  1.2168136777105E+00
48  4.7000000000000E-01  1.1288699941362E+00  1.3010151500809E+00
49  4.8000000000000E-01  1.0257229942561E+00  1.3816712210128E+00
50  4.9000000000000E-01  9.1985882016365E-01  1.4580685907411E+00
51  5.0000000000000E-01  8.1203303274836E-01  1.5295480349159E+00
52  5.1000000000000E-01  7.0299247663281E-01  1.5955123419170E+00
53  5.2000000000000E-01  5.9346852762747E-01  1.6554325189465E+00
54  5.3000000000000E-01  4.8417119603100E-01  1.7088521654332E+00
55  5.4000000000000E-01  3.7578413682276E-01  1.7553899735355E+00
56  5.5000000000000E-01  2.6896058496055E-01  1.7947403777929E+00
57  5.6000000000000E-01  1.6432020155309E-01  1.8266724370919E+00
58  5.7000000000000E-01  6.2446785773587E-02  1.8510270899508E+00
59  5.8000000000000E-01 -3.6113220877758E-02  1.8677129766437E+00
60  5.9000000000000E-01 -1.3085153595631E-01  1.8767010669993E+00
61  6.0000000000000E-01 -2.2129826115254E-01  1.8780183691775E+00
62  6.1000000000000E-01 -3.0702166390545E-01  1.8717410210077E+00
63  6.2000000000000E-01 -3.8762765735791E-01  1.8579870805427E+00
64  6.3000000000000E-01 -4.6275912328539E-01  1.8369093357383E+00
65  6.4000000000000E-01 -5.3209521919442E-01  1.8086884443988E+00
66  6.5000000000000E-01 -5.9535080121371E-01  1.7735266949426E+00
67  6.6000000000000E-01 -6.5227607903550E-01  1.7316426468021E+00
68  6.7000000000000E-01 -7.0265659857522E-01  1.6832668674091E+00
69  6.8000000000000E-01 -7.4631362297431E-01  1.6286389321779E+00
70  6.9000000000000E-01 -7.8310495401742E-01  1.5680057964352E+00
71  7.0000000000000E-01 -8.1292620506892E-01  1.5016215858962E+00
72  7.1000000000000E-01 -8.3571250444977E-01  1.4297487873036E+00
73  7.2000000000000E-01 -8.5144057605048E-01  1.3526607555980E+00
74  7.3000000000000E-01 -8.6013111319147E-01  1.2706453909038E+00
75  7.4000000000000E-01 -8.6185133357353E-01  1.1840097800896E+00
76  7.5000000000000E-01 -8.5671757879831E-01  1.0930855459599E+00
77  7.6000000000000E-01 -8.4489780246553E-01  9.9823460431891E-01
78  7.7000000000000E-01 -8.2661377719412E-01  8.9985499701436E-01
79  7.8000000000000E-01 -8.0214284379754E-01  7.9838644904140E-01
80  7.9000000000000E-01 -7.7181902577776E-01  6.9431529089954E-01
81  8.0000000000000E-01 -7.3603333954634E-01  5.8817839423276E-01
82  8.1000000000000E-01 -6.9523314533286E-01  4.8056578943652E-01
83  8.2000000000000E-01 -6.4992040533115E-01  3.7212166800132E-01
84  8.3000000000000E-01 -6.0064874372818E-01  2.6354351899881E-01
85  8.4000000000000E-01 -5.4801923707538E-01  1.5557920696282E-01
86  8.5000000000000E-01 -4.9267490198325E-01  4.9021865700911E-02
87  8.6000000000000E-01 -4.3529388913608E-01 -5.5297442848504E-02
88  8.7000000000000E-01 -3.7658143676363E-01 -1.5651927617266E-01
89  8.8000000000000E-01 -3.1726068148230E-01 -2.5376745501567E-01
90  8.9000000000000E-01 -2.5806246827869E-01 -3.4616261238470E-01
91  9.0000000000000E-01 -1.9971434278558E-01 -4.3283737916037E-01
92  9.1000000000000E-01 -1.4292894637185E-01 -5.1295286655410E-01
93  9.2000000000000E-01 -8.8392066501229E-02 -5.8571604339472E-01
94  9.3000000000000E-01 -3.6750620029310E-02 -6.5039755528267E-01
95  9.4000000000000E-01  1.1399135487481E-02 -7.0634949508073E-01
96  9.5000000000000E-01  5.5522858657072E-02 -7.5302261166218E-01
97  9.6000000000000E-01  9.5158545981147E-02 -7.8998243747146E-01
98  9.7000000000000E-01  1.2992582518346E-01 -8.1692382592591E-01
99  9.8000000000000E-01  1.5953384642663E-01 -8.3368341708008E-01
100  9.9000000000000E-01  1.8378752644784E-01 -8.4024959383178E-01
101  1.0000000000000E+00  2.0259193788170E-01 -8.3676955017109E-01
102  1.0100000000000E+00  2.1595468089810E-01 -8.2355316610709E-01
103  1.0200000000000E+00  2.2398612548470E-01 -8.0107346878615E-01
104  1.0300000000000E+00  2.2689746880557E-01 -7.6996355346187E-01
105  1.0400000000000E+00  2.2499661149352E-01 -7.3100993865807E-01
106  1.0500000000000E+00  2.1868191766050E-01 -6.8514243391133E-01
107  1.0600000000000E+00  2.0843398391807E-01 -6.3342070251645E-01
108  1.0700000000000E+00  1.9480560111898E-01 -5.7701780278773E-01
109  1.0800000000000E+00  1.7841014675309E-01 -5.1720108576881E-01
110  1.0900000000000E+00  1.5990869502930E-01 -4.5531091359263E-01
111  1.1000000000000E+00  1.3999616647583E-01 -3.9273772232863E-01
112  1.1100000000000E+00  1.1938689399669E-01 -3.3089805816097E-01
113  1.1200000000000E+00  9.8795260983897E-02 -2.7120048958300E-01
114  1.1300000000000E+00  7.8901480380047E-02 -2.1498125705179E-01
115  1.1400000000000E+00  6.0327852617305E-02 -1.6346177926023E-01
116  1.1500000000000E+00  4.3588071337801E-02 -1.1766624403993E-01
117  1.1600000000000E+00  2.9083580495252E-02 -7.8413014017556E-02
118  1.1700000000000E+00  1.7244027170290E-02 -4.6545708513598E-02
119  1.1800000000000E+00  8.3775968199905E-03 -2.2693404624565E-02
120  1.1900000000000E+00  2.6571925409535E-03 -7.2408323731720E-03
121  1.2000000000000E+00  1.8086696824084E-04 -4.9724534359644E-04
122  1.2100000000000E+00 -2.8553606419155E-06  7.8892494245581E-06
123  1.2200000000000E+00 -1.9339540322306E-06  5.2957166323445E-06
124  1.23 -0.  0.
125  1.24  0.  0.
126  1.25  0.  0.
127  1.26  0.  0.
128  1.27  0.  0.
129  1.28  0.  0.
130  1.29  0.  0.
131  1.30  0.  0.
132  1.31  0.  0.
133  1.32  0.  0.
134  1.33  0.  0.
135  1.34  0.  0.
136  1.35  0.  0.
137  1.36  0.  0.
138  1.37  0.  0.
139  1.38  0.  0.
140  1.39  0.  0.
141  1.40  0.  0.
142  1.41  0.  0.
143  1.42  0.  0.
144  1.43  0.  0.
145  1.44  0.  0.
146  1.45  0.  0.
147  1.46  0.  0.
148  1.47  0.  0.
149  1.48  0.  0.
150  1.49  0.  0.
151  1.50  0.  0.