Pu    ONCVPSP-4.0.1  r_core=   3.00449   2.81316   3.40666
     94.0000     11.0000      211128    zatom,zion,pspd
     8      11   2     4   600     0    pspcod,pspxc,lmax,lloc,mmax,r2well
  5.99000000  5.06430000  0.00000000    rchrg fchrg qchrg
     2     2     2     0     0    nproj
     1     1           extension_switch
   0                         3.6388575303068E+00 -1.0477341830925E+00
     1  0.0000000000000E+00 -1.8214318942000E-12  1.9735602041493E-13
     2  1.0000000000000E-02  4.7813861068058E-02  8.1310685831645E-03
     3  2.0000000000000E-02  9.5562850665927E-02  1.6267315819132E-02
     4  3.0000000000000E-02  1.4318220480937E-01  2.4413907637382E-02
     5  4.0000000000000E-02  1.9060737427832E-01  3.2575984544963E-02
     6  5.0000000000000E-02  2.3777413148004E-01  4.0758648975793E-02
     7  6.0000000000000E-02  2.8461867669085E-01  4.8966952712428E-02
     8  7.0000000000000E-02  3.3107774347147E-01  5.7205884404239E-02
     9  8.0000000000000E-02  3.7708870305262E-01  6.5480357205734E-02
    10  9.0000000000000E-02  4.2258966749015E-01  7.3795196558517E-02
    11  1.0000000000000E-01  4.6751959139123E-01  8.2155128140101E-02
    12  1.1000000000000E-01  5.1181837201667E-01  9.0564766002429E-02
    13  1.2000000000000E-01  5.5542694756772E-01  9.9028600922624E-02
    14  1.3000000000000E-01  5.9828739346974E-01  1.0755098898800E-01
    15  1.4000000000000E-01  6.4034301646965E-01  1.1613614043695E-01
    16  1.5000000000000E-01  6.8153844636862E-01  1.2478810877680E-01
    17  1.6000000000000E-01  7.2181972521677E-01  1.3351078019916E-01
    18  1.7000000000000E-01  7.6113439380221E-01  1.4230786331265E-01
    19  1.8000000000000E-01  7.9943157527241E-01  1.5118287921240E-01
    20  1.9000000000000E-01  8.3666205573248E-01  1.6013915190490E-01
    21  2.0000000000000E-01  8.7277836167122E-01  1.6917979910608E-01
    22  2.1000000000000E-01  9.0773483407268E-01  1.7830772342991E-01
    23  2.2000000000000E-01  9.4148769907839E-01  1.8752560398377E-01
    24  2.3000000000000E-01  9.7399513507259E-01  1.9683588838640E-01
    25  2.4000000000000E-01  1.0052173360706E+00  2.0624078522289E-01
    26  2.5000000000000E-01  1.0351165712987E+00  2.1574225695097E-01
    27  2.6000000000000E-01  1.0636572408610E+00  2.2534201327124E-01
    28  2.7000000000000E-01  1.0908059273993E+00  2.3504150497374E-01
    29  2.8000000000000E-01  1.1165314436577E+00  2.4484191827175E-01
    30  2.9000000000000E-01  1.1408048758749E+00  2.5474416963328E-01
    31  3.0000000000000E-01  1.1635996229346E+00  2.6474890111922E-01
    32  3.1000000000000E-01  1.1848914312137E+00  2.7485647623654E-01
    33  3.2000000000000E-01  1.2046584250775E+00  2.8506697631379E-01
    34  3.3000000000000E-01  1.2228811329791E+00  2.9538019740500E-01
    35  3.4000000000000E-01  1.2395425091319E+00  3.0579564772721E-01
    36  3.5000000000000E-01  1.2546279507295E+00  3.1631254563587E-01
    37  3.6000000000000E-01  1.2681253107006E+00  3.2692981814121E-01
    38  3.7000000000000E-01  1.2800249059926E+00  3.3764609996747E-01
    39  3.8000000000000E-01  1.2903195213895E+00  3.4845973315642E-01
    40  3.9000000000000E-01  1.2990044088755E+00  3.5936876721481E-01
    41  4.0000000000000E-01  1.3060772825693E+00  3.7037095980491E-01
    42  4.1000000000000E-01  1.3115383092586E+00  3.8146377797610E-01
    43  4.2000000000000E-01  1.3153900945754E+00  3.9264439993435E-01
    44  4.3000000000000E-01  1.3176376648634E+00  4.0390971734556E-01
    45  4.4000000000000E-01  1.3182884447919E+00  4.1525633816768E-01
    46  4.5000000000000E-01  1.3173522307852E+00  4.2668059000555E-01
    47  4.6000000000000E-01  1.3148411603408E+00  4.3817852398141E-01
    48  4.7000000000000E-01  1.3107696773187E+00  4.4974591911312E-01
    49  4.8000000000000E-01  1.3051544932930E+00  4.6137828719119E-01
    50  4.9000000000000E-01  1.2980145450625E+00  4.7307087814480E-01
    51  5.0000000000000E-01  1.2893709484268E+00  4.8481868588608E-01
    52  5.1000000000000E-01  1.2792469483388E+00  4.9661645462118E-01
    53  5.2000000000000E-01  1.2676678655539E+00  5.0845868561568E-01
    54  5.3000000000000E-01  1.2546610398999E+00  5.2033964440114E-01
    55  5.4000000000000E-01  1.2402557703006E+00  5.3225336840891E-01
    56  5.5000000000000E-01  1.2244832516894E+00  5.4419367501639E-01
    57  5.6000000000000E-01  1.2073765089564E+00  5.5615416999049E-01
    58  5.7000000000000E-01  1.1889703280763E+00  5.6812825631200E-01
    59  5.8000000000000E-01  1.1693011845700E+00  5.8010914336436E-01
    60  5.9000000000000E-01  1.1484071694583E+00  5.9208985646935E-01
    61  6.0000000000000E-01  1.1263279128660E+00  6.0406324675193E-01
    62  6.1000000000000E-01  1.1031045054441E+00  6.1602200131566E-01
    63  6.2000000000000E-01  1.0787794177768E+00  6.2795865371007E-01
    64  6.3000000000000E-01  1.0533964179431E+00  6.3986559467025E-01
    65  6.4000000000000E-01  1.0270004874093E+00  6.5173508310928E-01
    66  6.5000000000000E-01  9.9963773542454E-01  6.6355925734311E-01
    67  6.6000000000000E-01  9.7135531209876E-01  6.7533014652757E-01
    68  6.7000000000000E-01  9.4220132034080E-01  6.8703968228672E-01
    69  6.8000000000000E-01  9.1222472683558E-01  6.9867971051162E-01
    70  6.9000000000000E-01  8.8147527224063E-01  7.1024200330826E-01
    71  7.0000000000000E-01  8.5000338078165E-01  7.2171827107339E-01
    72  7.1000000000000E-01  8.1786006942669E-01  7.3310017467679E-01
    73  7.2000000000000E-01  7.8509685681786E-01  7.4437933772844E-01
    74  7.3000000000000E-01  7.5176567213847E-01  7.5554735890902E-01
    75  7.4000000000000E-01  7.1791876409190E-01  7.6659582434225E-01
    76  7.5000000000000E-01  6.8360861016688E-01  7.7751631998756E-01
    77  7.6000000000000E-01  6.4888782636161E-01  7.8830044403166E-01
    78  7.7000000000000E-01  6.1380907753656E-01  7.9893981925779E-01
    79  7.8000000000000E-01  5.7842498856309E-01  8.0942610537153E-01
    80  7.9000000000000E-01  5.4278805643169E-01  8.1975101126231E-01
    81  8.0000000000000E-01  5.0695056348024E-01  8.2990630717996E-01
    82  8.1000000000000E-01  4.7096449189864E-01  8.3988383680599E-01
    83  8.2000000000000E-01  4.3488143966241E-01  8.4967552919955E-01
    84  8.3000000000000E-01  3.9875253804304E-01  8.5927341059842E-01
    85  8.4000000000000E-01  3.6262837083841E-01  8.6866961605573E-01
    86  8.5000000000000E-01  3.2655889546158E-01  8.7785640089363E-01
    87  8.6000000000000E-01  2.9059336602114E-01  8.8682615195544E-01
    88  8.7000000000000E-01  2.5478025852063E-01  8.9557139863844E-01
    89  8.8000000000000E-01  2.1916719829925E-01  9.0408482368993E-01
    90  8.9000000000000E-01  1.8380088982985E-01  9.1235927374959E-01
    91  9.0000000000000E-01  1.4872704898452E-01  9.2038776962208E-01
    92  9.1000000000000E-01  1.1399033787151E-01  9.2816351626411E-01
    93  9.2000000000000E-01  7.9634302341197E-02  9.3567991247084E-01
    94  9.3000000000000E-01  4.5701312252067E-02  9.4293056024740E-01
    95  9.4000000000000E-01  1.2232504581141E-02  9.4990927385169E-01
    96  9.5000000000000E-01 -2.0732270543468E-02  9.5661008849540E-01
    97  9.6000000000000E-01 -5.3154500816976E-02  9.6302726869093E-01
    98  9.7000000000000E-01 -8.4997059675429E-02  9.6915531623258E-01
    99  9.8000000000000E-01 -1.1622425109922E-01  9.7498897780108E-01
   100  9.9000000000000E-01 -1.4680185125266E-01  9.8052325218142E-01
   101  1.0000000000000E+00 -1.7669714691663E-01  9.8575339708435E-01
   102  1.0100000000000E+00 -2.0587897067834E-01  9.9067493556323E-01
   103  1.0200000000000E+00 -2.3431773284928E-01  9.9528366201807E-01
   104  1.0300000000000E+00 -2.6198545008951E-01  9.9957564777995E-01
   105  1.0400000000000E+00 -2.8885577072323E-01  1.0035472462693E+00
   106  1.0500000000000E+00 -3.1490399673773E-01  1.0071950977229E+00
   107  1.0600000000000E+00 -3.4010710246443E-01  1.0105161334840E+00
   108  1.0700000000000E+00 -3.6444374994763E-01  1.0135075798533E+00
   109  1.0800000000000E+00 -3.8789430101327E-01  1.0161669614959E+00
   110  1.0900000000000E+00 -4.1044082605640E-01  1.0184921044027E+00
   111  1.1000000000000E+00 -4.3206710957271E-01  1.0204811384048E+00
   112  1.1100000000000E+00 -4.5275865246565E-01  1.0221324992399E+00
   113  1.1200000000000E+00 -4.7250267116677E-01  1.0234449301711E+00
   114  1.1300000000000E+00 -4.9128809361318E-01  1.0244174831573E+00
   115  1.1400000000000E+00 -5.0910555213141E-01  1.0250495195795E+00
   116  1.1500000000000E+00 -5.2594737328308E-01  1.0253407105222E+00
   117  1.1600000000000E+00 -5.4180756473287E-01  1.0252910366152E+00
   118  1.1700000000000E+00 -5.5668179920484E-01  1.0249007874377E+00
   119  1.1800000000000E+00 -5.7056739559786E-01  1.0241705604910E+00
   120  1.1900000000000E+00 -5.8346329733616E-01  1.0231012597427E+00
   121  1.2000000000000E+00 -5.9537004803516E-01  1.0216940937498E+00
   122  1.2100000000000E+00 -6.0628976456762E-01  1.0199505733661E+00
   123  1.2200000000000E+00 -6.1622610761876E-01  1.0178725090417E+00
   124  1.2300000000000E+00 -6.2518424982340E-01  1.0154620077212E+00
   125  1.2400000000000E+00 -6.3317084158142E-01  1.0127214693492E+00
   126  1.2500000000000E+00 -6.4019397465150E-01  1.0096535829931E+00
   127  1.2600000000000E+00 -6.4626314362618E-01  1.0062613225896E+00
   128  1.2700000000000E+00 -6.5138920539398E-01  1.0025479423278E+00
   129  1.2800000000000E+00 -6.5558433669732E-01  9.9851697167696E-01
   130  1.2900000000000E+00 -6.5886198989692E-01  9.9417221007139E-01
   131  1.3000000000000E+00 -6.6123684705582E-01  9.8951772126190E-01
   132  1.3100000000000E+00 -6.6272477245764E-01  9.8455782734697E-01
   133  1.3200000000000E+00 -6.6334276367566E-01  9.7929710249486E-01
   134  1.3300000000000E+00 -6.6310890131018E-01  9.7374036636929E-01
   135  1.3400000000000E+00 -6.6204229751302E-01  9.6789267727129E-01
   136  1.3500000000000E+00 -6.6016304341847E-01  9.6175932501044E-01
   137  1.3600000000000E+00 -6.5749215560091E-01  9.5534582351859E-01
   138  1.3700000000000E+00 -6.5405152167909E-01  9.4865790321988E-01
   139  1.3800000000000E+00 -6.4986384518746E-01  9.4170150317073E-01
   140  1.3900000000000E+00 -6.4495258983453E-01  9.3448276298386E-01
   141  1.4000000000000E+00 -6.3934192326774E-01  9.2700801455056E-01
   142  1.4100000000000E+00 -6.3305666046363E-01  9.1928377357555E-01
   143  1.4200000000000E+00 -6.2612220686105E-01  9.1131673093890E-01
   144  1.4300000000000E+00 -6.1856450135413E-01  9.0311374389956E-01
   145  1.4400000000000E+00 -6.1040995926003E-01  8.9468182715529E-01
   146  1.4500000000000E+00 -6.0168541537513E-01  8.8602814377347E-01
   147  1.4600000000000E+00 -5.9241806723128E-01  8.7715999600763E-01
   148  1.4700000000000E+00 -5.8263541866167E-01  8.6808481601448E-01
   149  1.4800000000000E+00 -5.7236522378380E-01  8.5881015648591E-01
   150  1.4900000000000E+00 -5.6163543150438E-01  8.4934368121079E-01
   151  1.5000000000000E+00 -5.5047413064844E-01  8.3969315558105E-01
   152  1.5100000000000E+00 -5.3890949581225E-01  8.2986643705637E-01
   153  1.5200000000000E+00 -5.2696973403634E-01  8.1987146560205E-01
   154  1.5300000000000E+00 -5.1468303239235E-01  8.0971625411399E-01
   155  1.5400000000000E+00 -5.0207750657354E-01  7.9940887884495E-01
   156  1.5500000000000E+00 -4.8918115057582E-01  7.8895746984577E-01
   157  1.5600000000000E+00 -4.7602178755259E-01  7.7837020143539E-01
   158  1.5700000000000E+00 -4.6262702192265E-01  7.6765528271273E-01
   159  1.5800000000000E+00 -4.4902419280727E-01  7.5682094812388E-01
   160  1.5900000000000E+00 -4.3524032886802E-01  7.4587544809729E-01
   161  1.6000000000000E+00 -4.2130210461352E-01  7.3482703975955E-01
   162  1.6100000000000E+00 -4.0723579823884E-01  7.2368397774412E-01
   163  1.6200000000000E+00 -3.9306725105745E-01  7.1245450510502E-01
   164  1.6300000000000E+00 -3.7882182858115E-01  7.0114684434696E-01
   165  1.6400000000000E+00 -3.6452438329952E-01  6.8976918858343E-01
   166  1.6500000000000E+00 -3.5019921920574E-01  6.7832969283346E-01
   167  1.6600000000000E+00 -3.3587005811174E-01  6.6683646546796E-01
   168  1.6700000000000E+00 -3.2156000779092E-01  6.5529755981544E-01
   169  1.6800000000000E+00 -3.0729153198257E-01  6.4372096593730E-01
   170  1.6900000000000E+00 -2.9308642228762E-01  6.3211460258189E-01
   171  1.7000000000000E+00 -2.7896577198102E-01  6.2048630932632E-01
   172  1.7100000000000E+00 -2.6494995176167E-01  6.0884383891487E-01
   173  1.7200000000000E+00 -2.5105858745657E-01  5.9719484980183E-01
   174  1.7300000000000E+00 -2.3731053969129E-01  5.8554689890678E-01
   175  1.7400000000000E+00 -2.2372388553499E-01  5.7390743458949E-01
   176  1.7500000000000E+00 -2.1031590212343E-01  5.6228378985133E-01
   177  1.7600000000000E+00 -1.9710305225986E-01  5.5068317576969E-01
   178  1.7700000000000E+00 -1.8410097198888E-01  5.3911267517128E-01
   179  1.7800000000000E+00 -1.7132446013492E-01  5.2757923654996E-01
   180  1.7900000000000E+00 -1.5878746979243E-01  5.1608966823413E-01
   181  1.8000000000000E+00 -1.4650310175140E-01  5.0465063280836E-01
   182  1.8100000000000E+00 -1.3448359983780E-01  4.9326864179344E-01
   183  1.8200000000000E+00 -1.2274034814466E-01  4.8195005058863E-01
   184  1.8300000000000E+00 -1.1128387012625E-01  4.7070105367942E-01
   185  1.8400000000000E+00 -1.0012382952389E-01  4.5952768011364E-01
   186  1.8500000000000E+00 -8.9269033088729E-02  4.4843578924837E-01
   187  1.8600000000000E+00 -7.8727435063446E-02  4.3743106676975E-01
   188  1.8700000000000E+00 -6.8506143381715E-02  4.2651902098707E-01
   189  1.8800000000000E+00 -5.8611427541080E-02  4.1570497940245E-01
   190  1.8900000000000E+00 -4.9048728102070E-02  4.0499408555686E-01
   191  1.9000000000000E+00 -3.9822667763567E-02  3.9439129615262E-01
   192  1.9100000000000E+00 -3.0937063961741E-02  3.8390137845259E-01
   193  1.9200000000000E+00 -2.2394942937393E-02  3.7352890795526E-01
   194  1.9300000000000E+00 -1.4198555214179E-02  3.6327826634520E-01
   195  1.9400000000000E+00 -6.3493924278999E-03  3.5315363971737E-01
   196  1.9500000000000E+00  1.1517945549283E-03  3.4315901707388E-01
   197  1.9600000000000E+00  8.3049762929889E-03  3.3329818909113E-01
   198  1.9700000000000E+00  1.5110824266106E-02  3.2357474715506E-01
   199  1.9800000000000E+00  2.1570689278300E-02  3.1399208266185E-01
   200  1.9900000000000E+00  2.7686578836552E-02  3.0455338658116E-01
   201  2.0000000000000E+00  3.3461133575121E-02  2.9526164927853E-01
   202  2.0100000000000E+00  3.8897602796389E-02  2.8611966059336E-01
   203  2.0200000000000E+00  4.3999819200217E-02  2.7713001016874E-01
   204  2.0300000000000E+00  4.8772172874494E-02  2.6829508802868E-01
   205  2.0400000000000E+00  5.3219584620359E-02  2.5961708539863E-01
   206  2.0500000000000E+00  5.7347478685918E-02  2.5109799576435E-01
   207  2.0600000000000E+00  6.1161754982688E-02  2.4273961616433E-01
   208  2.0700000000000E+00  6.4668760859110E-02  2.3454354871064E-01
   209  2.0800000000000E+00  6.7875262505528E-02  2.2651120233264E-01
   210  2.0900000000000E+00  7.0788416064834E-02  2.1864379473827E-01
   211  2.1000000000000E+00  7.3415738522728E-02  2.1094235458685E-01
   212  2.1100000000000E+00  7.5765078451035E-02  2.0340772386770E-01
   213  2.1200000000000E+00  7.7844586676928E-02  1.9604056047832E-01
   214  2.1300000000000E+00  7.9662686950161E-02  1.8884134099586E-01
   215  2.1400000000000E+00  8.1228046679573E-02  1.8181036363571E-01
   216  2.1500000000000E+00  8.2549547808971E-02  1.7494775139031E-01
   217  2.1600000000000E+00  8.3636257901408E-02  1.6825345534199E-01
   218  2.1700000000000E+00  8.4497401499510E-02  1.6172725814271E-01
   219  2.1800000000000E+00  8.5142331828176E-02  1.5536877765423E-01
   220  2.1900000000000E+00  8.5580502904284E-02  1.4917747074151E-01
   221  2.2000000000000E+00  8.5821442116408E-02  1.4315263721274E-01
   222  2.2100000000000E+00  8.5874723335708E-02  1.3729342389866E-01
   223  2.2200000000000E+00  8.5749940617302E-02  1.3159882886440E-01
   224  2.2300000000000E+00  8.5456682549477E-02  1.2606770574673E-01
   225  2.2400000000000E+00  8.5004507305740E-02  1.2069876820953E-01
   226  2.2500000000000E+00  8.4402918452672E-02  1.1549059451063E-01
   227  2.2600000000000E+00  8.3661341564179E-02  1.1044163217276E-01
   228  2.2700000000000E+00  8.2789101690550E-02  1.0555020275178E-01
   229  2.2800000000000E+00  8.1795401727853E-02  1.0081450669500E-01
   230  2.2900000000000E+00  8.0689301730888E-02  9.6232628282802E-02
   231  2.3000000000000E+00  7.9479699210406E-02  9.1802540646570E-02
   232  2.3100000000000E+00  7.8175310452596E-02  8.7522110856069E-02
   233  2.3200000000000E+00  7.6784652895887E-02  8.3389105069584E-02
   234  2.3300000000000E+00  7.5316028597309E-02  7.9401193740077E-02
   235  2.3400000000000E+00  7.3777508818621E-02  7.5555956870761E-02
   236  2.3500000000000E+00  7.2176919758523E-02  7.1850889313587E-02
   237  2.3600000000000E+00  7.0521829454898E-02  6.8283406104258E-02
   238  2.3700000000000E+00  6.8819535878043E-02  6.4850847827467E-02
   239  2.3800000000000E+00  6.7077056233475E-02  6.1550486006171E-02
   240  2.3900000000000E+00  6.5301117488947E-02  5.8379528508862E-02
   241  2.4000000000000E+00  6.3498148137824E-02  5.5335124968946E-02
   242  2.4100000000000E+00  6.1674271209005E-02  5.2414372210370E-02
   243  2.4200000000000E+00  5.9835298529170E-02  4.9614319673917E-02
   244  2.4300000000000E+00  5.7986726240865E-02  4.6931974838655E-02
   245  2.4400000000000E+00  5.6133731577636E-02  4.4364308633174E-02
   246  2.4500000000000E+00  5.4281170894109E-02  4.1908260831404E-02
   247  2.4600000000000E+00  5.2433578945659E-02  3.9560745428018E-02
   248  2.4700000000000E+00  5.0595169410404E-02  3.7318655988505E-02
   249  2.4800000000000E+00  4.8769836643751E-02  3.5178870969172E-02
   250  2.4900000000000E+00  4.6961158651761E-02  3.3138259002576E-02
   251  2.5000000000000E+00  4.5172401268155E-02  3.1193684143970E-02
   252  2.5100000000000E+00  4.3406523517843E-02  2.9342011074501E-02
   253  2.5200000000000E+00  4.1666184145570E-02  2.7580110257172E-02
   254  2.5300000000000E+00  3.9953749287305E-02  2.5904863041669E-02
   255  2.5400000000000E+00  3.8271301260376E-02  2.4313166714260E-02
   256  2.5500000000000E+00  3.6620648444101E-02  2.2801939489323E-02
   257  2.5600000000000E+00  3.5003336222296E-02  2.1368125439099E-02
   258  2.5700000000000E+00  3.3420658957315E-02  2.0008699358359E-02
   259  2.5800000000000E+00  3.1873672961564E-02  1.8720671561073E-02
   260  2.5900000000000E+00  3.0363210432545E-02  1.7501092606144E-02
   261  2.6000000000000E+00  2.8889894315566E-02  1.6347057949426E-02
   262  2.6100000000000E+00  2.7454154055385E-02  1.5255712519575E-02
   263  2.6200000000000E+00  2.6056242198463E-02  1.4224255215261E-02
   264  2.6300000000000E+00  2.4696251805400E-02  1.3249943321469E-02
   265  2.6400000000000E+00  2.3374134631382E-02  1.2330096842911E-02
   266  2.6500000000000E+00  2.2089720032953E-02  1.1462102752447E-02
   267  2.6600000000000E+00  2.0842734557196E-02  1.0643419152803E-02
   268  2.6700000000000E+00  1.9632822169076E-02  9.8715793499842E-03
   269  2.6800000000000E+00  1.8459565072683E-02  9.1441958366739E-03
   270  2.6900000000000E+00  1.7322505080466E-02  8.4589641844163E-03
   271  2.7000000000000E+00  1.6221165485320E-02  7.8136668432570E-03
   272  2.7100000000000E+00  1.5155073389411E-02  7.2061768476281E-03
   273  2.7200000000000E+00  1.4123782443898E-02  6.6344614276184E-03
   274  2.7300000000000E+00  1.3126895953739E-02  6.0965855245869E-03
   275  2.7400000000000E+00  1.2164090301513E-02  5.5907152103854E-03
   276  2.7500000000000E+00  1.1235138645601E-02  5.1151210095770E-03
   277  2.7600000000000E+00  1.0339934846652E-02  4.6681811239000E-03
   278  2.7700000000000E+00  9.4785179885853E-03  4.2483846236908E-03
   279  2.7800000000000E+00  8.6510947394738E-03  3.8543341750863E-03
   280  2.7900000000000E+00  7.8580696549370E-03  3.4847499081423E-03
   281  2.8000000000000E+00  7.1000470447828E-03  3.1384688015933E-03
   282  2.8100000000000E+00  6.3779092758195E-03  2.8144555145593E-03
   283  2.8200000000000E+00  5.6927873195863E-03  2.5117965004686E-03
   284  2.8300000000000E+00  5.0458805063767E-03  2.2296725210978E-03
   285  2.8400000000000E+00  4.4382771969452E-03  1.9673244506379E-03
   286  2.8500000000000E+00  3.8707723718853E-03  1.7240296116399E-03
   287  2.8600000000000E+00  3.3437822614160E-03  1.4990519579243E-03
   288  2.8700000000000E+00  2.8573334448811E-03  1.2916311937612E-03
   289  2.8800000000000E+00  2.4114742038000E-03  1.1011549323315E-03
   290  2.8900000000000E+00  2.0062603757707E-03  9.2715219696744E-04
   291  2.9000000000000E+00  1.6414461195850E-03  7.6916939633649E-04
   292  2.9100000000000E+00  1.3165431478610E-03  6.2679177323423E-04
   293  2.9200000000000E+00  1.0308483639617E-03  4.9965173828102E-04
   294  2.9300000000000E+00  7.8343571186975E-04  3.8742396325032E-04
   295  2.9400000000000E+00  5.7316735594221E-04  2.8982782096656E-04
   296  2.9500000000000E+00  3.9869739724680E-04  2.0662695797123E-04
   297  2.9600000000000E+00  2.5855418825620E-04  1.3768133677858E-04
   298  2.9700000000000E+00  1.5067059645475E-04  8.2631683460655E-05
   299  2.9800000000000E+00  7.3133316363692E-05  4.1400235020289E-05
   300  2.9900000000000E+00  2.5618528682849E-05  1.5053239131269E-05
   301  3.0000000000000E+00  3.8663375736128E-06  2.3850116020181E-06
   302  3.0100000000000E+00 -1.7323836737154E-06 -1.0660853237132E-06
   303  3.0200000000000E+00 -5.1743753567103E-07 -3.2706215494174E-07
   304  3.03  0.  0.
   305  3.04  0.  0.
   306  3.05 -0. -0.
   307  3.06  0.  0.
   308  3.07  0.  0.
   309  3.08  0.  0.
   310  3.09  0.  0.
   311  3.10  0.  0.
   312  3.11  0.  0.
   313  3.12  0.  0.
   314  3.13  0.  0.
   315  3.14  0.  0.
   316  3.15  0.  0.
   317  3.16  0.  0.
   318  3.17  0.  0.
   319  3.18  0.  0.
   320  3.19  0.  0.
   321  3.20  0.  0.
   322  3.21  0.  0.
   323  3.22  0.  0.
   324  3.23  0.  0.
   325  3.24  0.  0.
   326  3.25  0.  0.
   327  3.26  0.  0.
   328  3.27  0.  0.
   329  3.28  0.  0.
   330  3.29  0.  0.
   331  3.30  0.  0.
   332  3.31  0.  0.
   333  3.32  0.  0.
   334  3.33  0.  0.
   335  3.34  0.  0.
   336  3.35  0.  0.
   337  3.36  0.  0.
   338  3.37  0.  0.
   339  3.38  0.  0.
   340  3.39  0.  0.
   341  3.40  0.  0.
   342  3.41  0.  0.
   343  3.42  0.  0.
   344  3.43  0.  0.
   345  3.44  0.  0.
   346  3.45  0.  0.
   347  3.46  0.  0.
   348  3.47  0.  0.
   349  3.48  0.  0.
   350  3.49  0.  0.
   351  3.50  0.  0.
   352  3.51  0.  0.
   353  3.52  0.  0.
   354  3.53  0.  0.
   355  3.54  0.  0.
   356  3.55  0.  0.
   357  3.56  0.  0.
   358  3.57  0.  0.
   359  3.58  0.  0.
   360  3.59  0.  0.
   361  3.60  0.  0.
   362  3.61  0.  0.
   363  3.62  0.  0.
   364  3.63  0.  0.
   365  3.64  0.  0.
   366  3.65  0.  0.
   367  3.66  0.  0.
   368  3.67  0.  0.
   369  3.68  0.  0.
   370  3.69  0.  0.
   371  3.70  0.  0.
   372  3.71  0.  0.
   373  3.72  0.  0.
   374  3.73  0.  0.
   375  3.74  0.  0.
   376  3.75  0.  0.
   377  3.76  0.  0.
   378  3.77  0.  0.
   379  3.78  0.  0.
   380  3.79  0.  0.
   381  3.80  0.  0.
   382  3.81  0.  0.
   383  3.82  0.  0.
   384  3.83  0.  0.
   385  3.84  0.  0.
   386  3.85  0.  0.
   387  3.86  0.  0.
   388  3.87  0.  0.
   389  3.88  0.  0.
   390  3.89  0.  0.
   391  3.90  0.  0.
   392  3.91  0.  0.
   393  3.92  0.  0.
   394  3.93  0.  0.
   395  3.94  0.  0.
   396  3.95  0.  0.
   397  3.96  0.  0.
   398  3.97  0.  0.
   399  3.98  0.  0.
   400  3.99  0.  0.
   401  4.00  0.  0.
   402  4.01  0.  0.
   403  4.02  0.  0.
   404  4.03  0.  0.
   405  4.04  0.  0.
   406  4.05  0.  0.
   407  4.06  0.  0.
   408  4.07  0.  0.
   409  4.08  0.  0.
   410  4.09  0.  0.
   411  4.10  0.  0.
   412  4.11  0.  0.
   413  4.12  0.  0.
   414  4.13  0.  0.
   415  4.14  0.  0.
   416  4.15  0.  0.
   417  4.16  0.  0.
   418  4.17  0.  0.
   419  4.18  0.  0.
   420  4.19  0.  0.
   421  4.20  0.  0.
   422  4.21  0.  0.
   423  4.22  0.  0.
   424  4.23  0.  0.
   425  4.24  0.  0.
   426  4.25  0.  0.
   427  4.26  0.  0.
   428  4.27  0.  0.
   429  4.28  0.  0.
   430  4.29  0.  0.
   431  4.30  0.  0.
   432  4.31  0.  0.
   433  4.32  0.  0.
   434  4.33  0.  0.
   435  4.34  0.  0.
   436  4.35  0.  0.
   437  4.36  0.  0.
   438  4.37  0.  0.
   439  4.38  0.  0.
   440  4.39  0.  0.
   441  4.40  0.  0.
   442  4.41  0.  0.
   443  4.42  0.  0.
   444  4.43  0.  0.
   445  4.44  0.  0.
   446  4.45  0.  0.
   447  4.46  0.  0.
   448  4.47  0.  0.
   449  4.48  0.  0.
   450  4.49  0.  0.
   451  4.50  0.  0.
   452  4.51  0.  0.
   453  4.52  0.  0.
   454  4.53  0.  0.
   455  4.54  0.  0.
   456  4.55  0.  0.
   457  4.56  0.  0.
   458  4.57  0.  0.
   459  4.58  0.  0.
   460  4.59  0.  0.
   461  4.60  0.  0.
   462  4.61  0.  0.
   463  4.62  0.  0.
   464  4.63  0.  0.
   465  4.64  0.  0.
   466  4.65  0.  0.
   467  4.66  0.  0.
   468  4.67  0.  0.
   469  4.68  0.  0.
   470  4.69  0.  0.
   471  4.70  0.  0.
   472  4.71  0.  0.
   473  4.72  0.  0.
   474  4.73  0.  0.
   475  4.74  0.  0.
   476  4.75  0.  0.
   477  4.76  0.  0.
   478  4.77  0.  0.
   479  4.78  0.  0.
   480  4.79  0.  0.
   481  4.80  0.  0.
   482  4.81  0.  0.
   483  4.82  0.  0.
   484  4.83  0.  0.
   485  4.84  0.  0.
   486  4.85  0.  0.
   487  4.86  0.  0.
   488  4.87  0.  0.
   489  4.88  0.  0.
   490  4.89  0.  0.
   491  4.90  0.  0.
   492  4.91  0.  0.
   493  4.92  0.  0.
   494  4.93  0.  0.
   495  4.94  0.  0.
   496  4.95  0.  0.
   497  4.96  0.  0.
   498  4.97  0.  0.
   499  4.98  0.  0.
   500  4.99  0.  0.
   501  5.00  0.  0.
   502  5.01  0.  0.
   503  5.02  0.  0.
   504  5.03  0.  0.
   505  5.04  0.  0.
   506  5.05  0.  0.
   507  5.06  0.  0.
   508  5.07  0.  0.
   509  5.08  0.  0.
   510  5.09  0.  0.
   511  5.10  0.  0.
   512  5.11  0.  0.
   513  5.12  0.  0.
   514  5.13  0.  0.
   515  5.14  0.  0.
   516  5.15  0.  0.
   517  5.16  0.  0.
   518  5.17  0.  0.
   519  5.18  0.  0.
   520  5.19  0.  0.
   521  5.20  0.  0.
   522  5.21  0.  0.
   523  5.22  0.  0.
   524  5.23  0.  0.
   525  5.24  0.  0.
   526  5.25  0.  0.
   527  5.26  0.  0.
   528  5.27  0.  0.
   529  5.28  0.  0.
   530  5.29  0.  0.
   531  5.30  0.  0.
   532  5.31  0.  0.
   533  5.32  0.  0.
   534  5.33  0.  0.
   535  5.34  0.  0.
   536  5.35  0.  0.
   537  5.36  0.  0.
   538  5.37  0.  0.
   539  5.38  0.  0.
   540  5.39  0.  0.
   541  5.40  0.  0.
   542  5.41  0.  0.
   543  5.42  0.  0.
   544  5.43  0.  0.
   545  5.44  0.  0.
   546  5.45  0.  0.
   547  5.46  0.  0.
   548  5.47  0.  0.
   549  5.48  0.  0.
   550  5.49  0.  0.
   551  5.50  0.  0.
   552  5.51  0.  0.
   553  5.52  0.  0.
   554  5.53  0.  0.
   555  5.54  0.  0.
   556  5.55  0.  0.
   557  5.56  0.  0.
   558  5.57  0.  0.
   559  5.58  0.  0.
   560  5.59  0.  0.
   561  5.60  0.  0.
   562  5.61  0.  0.
   563  5.62  0.  0.
   564  5.63  0.  0.
   565  5.64  0.  0.
   566  5.65  0.  0.
   567  5.66  0.  0.
   568  5.67  0.  0.
   569  5.68  0.  0.
   570  5.69  0.  0.
   571  5.70  0.  0.
   572  5.71  0.  0.
   573  5.72  0.  0.
   574  5.73  0.  0.
   575  5.74  0.  0.
   576  5.75  0.  0.
   577  5.76  0.  0.
   578  5.77  0.  0.
   579  5.78  0.  0.
   580  5.79  0.  0.
   581  5.80  0.  0.
   582  5.81  0.  0.
   583  5.82  0.  0.
   584  5.83  0.  0.
   585  5.84  0.  0.
   586  5.85  0.  0.
   587  5.86  0.  0.
   588  5.87  0.  0.
   589  5.88  0.  0.
   590  5.89  0.  0.
   591  5.90  0.  0.
   592  5.91  0.  0.
   593  5.92  0.  0.
   594  5.93  0.  0.
   595  5.94  0.  0.
   596  5.95  0.  0.
   597  5.96  0.  0.
   598  5.97  0.  0.
   599  5.98  0.  0.
   600  5.99  0.  0.
   1                         3.1579462627147E+00 -7.3649878050738E-01
     1  0.0000000000000E+00  2.7365658350487E-11 -3.0317042279404E-12
     2  1.0000000000000E-02  8.6872344918068E-04  4.8726772758047E-05
     3  2.0000000000000E-02  3.4727105535969E-03  1.9506160633826E-04
     4  3.0000000000000E-02  7.8054170499216E-03  4.3946751222955E-04
     5  4.0000000000000E-02  1.3855954038871E-02  7.8271439638951E-04
     6  5.0000000000000E-02  2.1609115245976E-02  1.2258763949522E-03
     7  6.0000000000000E-02  3.1045415089455E-02  1.7703281551729E-03
     8  7.0000000000000E-02  4.2141137458339E-02  2.4177400725372E-03
     9  8.0000000000000E-02  5.4868395076637E-02  3.1700724979961E-03
    10  9.0000000000000E-02  6.9195199302365E-02  4.0295689323089E-03
    11  1.0000000000000E-01  8.5085540183659E-02  4.9987482274222E-03
    12  1.1000000000000E-01  1.0249947656790E-01  6.0803958176926E-03
    13  1.2000000000000E-01  1.2139323603418E-01  7.2775540065667E-03
    14  1.3000000000000E-01  1.4171932439419E-01  8.5935113370528E-03
    15  1.4000000000000E-01  1.6342664448202E-01  1.0031791076941E-02
    16  1.5000000000000E-01  1.8646062392965E-01  1.1596138852240E-02
    17  1.6000000000000E-01  2.1076335160160E-01  1.3290509464713E-02
    18  1.7000000000000E-01  2.3627372233986E-01  1.5119052931691E-02
    19  1.8000000000000E-01  2.6292758964890E-01  1.7086099788468E-02
    20  1.9000000000000E-01  2.9065792592972E-01  1.9196145695663E-02
    21  2.0000000000000E-01  3.1939498985249E-01  2.1453835395764E-02
    22  2.1000000000000E-01  3.4906650043843E-01  2.3863946064862E-02
    23  2.2000000000000E-01  3.7959781740441E-01  2.6431370107142E-02
    24  2.3000000000000E-01  4.1091212730677E-01  2.9161097441152E-02
    25  2.4000000000000E-01  4.4293063500620E-01  3.2058197328159E-02
    26  2.5000000000000E-01  4.7557275996070E-01  3.5127799794004E-02
    27  2.6000000000000E-01  5.0875633684147E-01  3.8375076696853E-02
    28  2.7000000000000E-01  5.4239781995449E-01  4.1805222494008E-02
    29  2.8000000000000E-01  5.7641249094054E-01  4.5423434761592E-02