Pu    ONCVPSP-4.0.1  r_core=   1.30033   1.30033   1.35594   1.55594
94.0000     34.0000      220325    zatom,zion,pspd
8      11   3     4   600     0    pspcod,pspxc,lmax,lloc,mmax,r2well
5.99000000  5.00000000  0.00000000    rchrg fchrg qchrg
3     2     2     2     0    nproj
1     1           extension_switch
0                         2.9537544749583E+01  3.1259207965007E+00 -2.3018310461448E+00
1  0.0000000000000E+00 -1.2665298587677E-08  3.3239495711435E-08 -1.9587740596183E-09
2  1.0000000000000E-02  1.6165327273759E-01 -5.5341965685589E-02  3.0802085900782E-02
3  2.0000000000000E-02  3.2219493778867E-01 -1.0957110089533E-01  6.1494155164145E-02
4  3.0000000000000E-02  4.8052391326015E-01 -1.6159217237323E-01  9.1967654305478E-02
5  4.0000000000000E-02  6.3556001590612E-01 -2.1034478935277E-01  1.2211693238217E-01
6  5.0000000000000E-02  7.8625403150244E-01 -2.5481995386887E-01  1.5184063338198E-01
7  6.0000000000000E-02  9.3159733990733E-01 -2.9407559073180E-01  1.8104301941103E-01
8  7.0000000000000E-02  1.0706309617948E+00 -3.2725075758644E-01  2.0963520400191E-01
9  8.0000000000000E-02  1.2024539067135E+00 -3.5357826872028E-01  2.3753627682083E-01
10  9.0000000000000E-02  1.3262307172790E+00 -3.7239550600234E-01  2.6467430339554E-01
11  1.0000000000000E-01  1.4411981215332E+00 -3.8315323539554E-01  2.9098718614650E-01
12  1.1000000000000E-01  1.5466707243269E+00 -3.8542229660351E-01  3.1642337590805E-01
13  1.2000000000000E-01  1.6420456884791E+00 -3.7889808518091E-01  3.4094242619469E-01
14  1.3000000000000E-01  1.7268063769074E+00 -3.6340279940318E-01  3.6451538561538E-01
15  1.4000000000000E-01  1.8005249473436E+00 -3.3888547684666E-01  3.8712502698048E-01
16  1.5000000000000E-01  1.8628639111201E+00 -3.0541989652204E-01  4.0876591469981E-01
17  1.6000000000000E-01  1.9135766863042E+00 -2.6320047010988E-01  4.2944431495470E-01
18  1.7000000000000E-01  1.9525071926946E+00 -2.1253628907421E-01  4.4917795577081E-01
19  1.8000000000000E-01  1.9795885514495E+00 -1.5384353202116E-01  4.6799564645694E-01
20  1.9000000000000E-01  1.9948409650265E+00 -8.7636467646493E-02  4.8593676785558E-01
21  2.0000000000000E-01  1.9983688633999E+00 -1.4517312208761E-02  5.0305064643128E-01
22  2.1000000000000E-01  1.9903574099735E+00  6.4834783864629E-02  5.1939582637729E-01
23  2.2000000000000E-01  1.9710684651256E+00  1.4967533817747E-01  5.3503925463456E-01
24  2.3000000000000E-01  1.9408361068805E+00  2.3920644611759E-01  5.5005539399218E-01
25  2.4000000000000E-01  1.9000618068781E+00  3.3258872576387E-01  5.6452527929003E-01
26  2.5000000000000E-01  1.8492093557696E+00  4.2895304199550E-01  5.7853553120216E-01
27  2.6000000000000E-01  1.7887996256487E+00  5.2741177721818E-01  5.9217734118428E-01
28  2.7000000000000E-01  1.7194052484600E+00  6.2706944548890E-01  6.0554543997520E-01
29  2.8000000000000E-01  1.6416452788849E+00  7.2703248116394E-01  6.1873706060950E-01
30  2.9000000000000E-01  1.5561798984340E+00  8.2641807125756E-01  6.3185090529882E-01
31  3.0000000000000E-01  1.4637052048442E+00  9.2436194120101E-01  6.4498612384309E-01
32  3.1000000000000E-01  1.3649481178699E+00  1.0200250452375E+00  6.5824130951732E-01
33  3.2000000000000E-01  1.2606614196901E+00  1.1125991538894E+00  6.7171351671874E-01
34  3.3000000000000E-01  1.1516189358853E+00  1.2013113704217E+00  6.8549730312384E-01
35  3.4000000000000E-01  1.0386108517527E+00  1.2854276446909E+00  6.9968379776153E-01
36  3.5000000000000E-01  9.2243914901780E-01  1.3642553850458E+00  7.1435979531358E-01
37  3.6000000000000E-01  8.0391314014127E-01  1.4371452959676E+00  7.2960687615350E-01
38  3.7000000000000E-01  6.8384507168747E-01  1.5034925900664E+00  7.4550055116638E-01
39  3.8000000000000E-01  5.6304576483381E-01  1.5627377372403E+00  7.6210943027336E-01
40  3.9000000000000E-01  4.4232026017991E-01  1.6143669208206E+00  7.7949441382539E-01
41  4.0000000000000E-01  3.2246343560018E-01  1.6579123702200E+00  7.9770790662191E-01
42  4.1000000000000E-01  2.0425556991269E-01  1.6929527320244E+00  8.1679305522937E-01
43  4.2000000000000E-01  8.8457831468071E-02  1.7191136269729E+00  8.3678301048524E-01
44  4.3000000000000E-01 -2.4192320840716E-02  1.7360685193866E+00  8.5770021852555E-01
45  4.4000000000000E-01 -1.3298582649104E-01  1.7435399991351E+00  8.7955574530780E-01
46  4.5000000000000E-01 -2.3724679298057E-01  1.7413015451423E+00  9.0234864134310E-01
47  4.6000000000000E-01 -3.3633732455442E-01  1.7291798048425E+00  9.2606535512725E-01
48  4.7000000000000E-01 -4.2966237542384E-01  1.7070573872189E+00  9.5067920548272E-01
49  4.8000000000000E-01 -5.1667457999630E-01  1.6748761293624E+00  9.7614992461269E-01
50  4.9000000000000E-01 -5.9687900031855E-01  1.6326407593511E+00  1.0024232850357E+00
51  5.0000000000000E-01 -6.6983771967617E-01  1.5804228429892E+00  1.0294308246393E+00
52  5.1000000000000E-01 -7.3517420159762E-01  1.5183648699324E+00  1.0570896847895E+00
53  5.2000000000000E-01 -7.9257732581653E-01  1.4466843072026E+00  1.0853025766935E+00
54  5.3000000000000E-01 -8.4180500744472E-01  1.3656774261552E+00  1.1139578909926E+00
55  5.4000000000000E-01 -8.8268730301959E-01  1.2757226935631E+00  1.1429299648124E+00
56  5.5000000000000E-01 -9.1512890745433E-01  1.1772835093362E+00  1.1720795192100E+00
57  5.6000000000000E-01 -9.3911094938564E-01  1.0709100730293E+00  1.2012542781145E+00
58  5.7000000000000E-01 -9.5469199903387E-01  9.5724016893228E-01  1.2302897774873E+00
59  5.8000000000000E-01 -9.6200821242058E-01  8.3699867521443E-01  1.2590103705487E+00
60  5.9000000000000E-01 -9.6127254847188E-01  7.1099562599894E-01  1.2872304315891E+00
61  6.0000000000000E-01 -9.5277301094049E-01  5.8012268590240E-01  1.3147557571619E+00
62  6.1000000000000E-01 -9.3686988485287E-01  4.4534793367013E-01  1.3413851594321E+00
63  6.2000000000000E-01 -9.1399195692209E-01  3.0770889412326E-01  1.3669122422134E+00
64  6.3000000000000E-01 -8.8463173056511E-01  1.6830380450786E-01  1.3911273458795E+00
65  6.4000000000000E-01 -8.4933966827798E-01  2.8281151169125E-02  1.4138196429890E+00
66  6.5000000000000E-01 -8.0871751656211E-01 -1.1117243619777E-01  1.4347793622382E+00
67  6.6000000000000E-01 -7.6341079075027E-01 -2.4884579415754E-01  1.4538001143665E+00
68  6.7000000000000E-01 -7.1410051832473E-01 -3.8351815072493E-01  1.4706812900049E+00
69  6.8000000000000E-01 -6.6149435904798E-01 -5.1397513125617E-01  1.4852304962812E+00
70  6.9000000000000E-01 -6.0631723786149E-01 -6.3902556814871E-01  1.4972659963904E+00
71  7.0000000000000E-01 -5.4930164151553E-01 -7.5751880139732E-01  1.5066191143778E+00
72  7.1000000000000E-01 -4.9117774181230E-01 -8.6836212813819E-01  1.5131365661520E+00
73  7.2000000000000E-01 -4.3266351678141E-01 -9.7053803856435E-01  1.5166826773000E+00
74  7.3000000000000E-01 -3.7445504576797E-01 -1.0631208637917E+00  1.5171414486463E+00
75  7.4000000000000E-01 -3.1721715509587E-01 -1.1452924589446E+00  1.5144184317137E+00
76  7.5000000000000E-01 -2.6157458757731E-01 -1.2163565521926E+00  1.5084423782878E+00
77  7.6000000000000E-01 -2.0810386169352E-01 -1.2757514076980E+00  1.4991666311464E+00
78  7.7000000000000E-01 -1.5732597488336E-01 -1.3230604771761E+00  1.4865702266326E+00
79  7.8000000000000E-01 -1.0970009028459E-01 -1.3580207504704E+00  1.4706586840710E+00
80  7.9000000000000E-01 -6.5618327789379E-02 -1.3805285594415E+00  1.4514644619600E+00
81  8.0000000000000E-01 -2.5401758826369E-02 -1.3906426405254E+00  1.4290470663164E+00
82  8.1000000000000E-01  1.0702319651076E-02 -1.3885843183424E+00  1.4034928024036E+00
83  8.2000000000000E-01  4.2521782347987E-02 -1.3747347343541E+00  1.3749141671975E+00
84  8.3000000000000E-01  6.9959721542211E-02 -1.3496291092748E+00  1.3434488862230E+00
85  8.4000000000000E-01  9.2993147164606E-02 -1.3139480941824E+00  1.3092586046839E+00
86  8.5000000000000E-01  1.1167037440342E-01 -1.2685063314301E+00  1.2725272489803E+00
87  8.6000000000000E-01  1.2610715952020E-01 -1.2142384109343E+00  1.2334590806324E+00
88  8.7000000000000E-01  1.3648167068430E-01 -1.1521824686685E+00  1.1922764701779E+00
89  8.8000000000000E-01  1.4302840495833E-01 -1.0834617307774E+00  1.1492174236790E+00
90  8.9000000000000E-01  1.4603118456926E-01 -1.0092643573121E+00  1.1045328989511E+00
91  9.0000000000000E-01  1.4581538481433E-01 -9.3082198303411E-01  1.0584839524353E+00
92  9.1000000000000E-01  1.4273956198087E-01 -8.4938738805420E-01  1.0113387607045E+00
93  9.2000000000000E-01  1.3718666219972E-01 -7.6621175750985E-01  9.6336956286758E-01
94  9.3000000000000E-01  1.2955500096673E-01 -6.8252200647732E-01  9.1484957158723E-01
95  9.4000000000000E-01  1.2024920802360E-01 -5.9949865353396E-01  8.6604990104239E-01
96  9.5000000000000E-01  1.0967133332210E-01 -5.1825472369953E-01  8.1723655994254E-01
97  9.6000000000000E-01  9.8212306931131E-02 -4.3981614897173E-01  7.6866755666726E-01
98  9.7000000000000E-01  8.6243939071804E-02 -3.6510411257444E-01  7.2059016178985E-01
99  9.8000000000000E-01  7.4111636131863E-02 -2.9491975175004E-01  6.7323837069842E-01
100  9.9000000000000E-01  6.2127994721062E-02 -2.2993159397761E-01  6.2683060580998E-01
101  1.0000000000000E+00  5.0567418817646E-02 -1.7066605348767E-01  5.8156769404817E-01
102  1.0100000000000E+00  3.9661885060874E-02 -1.1750125946876E-01  5.3763115088848E-01
103  1.0200000000000E+00  2.9597958530436E-02 -7.0664425093993E-02  4.9518179743987E-01
104  1.0300000000000E+00  2.0515136167915E-02 -3.0232898045529E-02  4.5435873179390E-01
105  1.0400000000000E+00  1.2505567513466E-02  3.8610409966925E-03  4.1527867028811E-01
106  1.0500000000000E+00  5.6151728291039E-03  3.1821644991140E-02  3.7803566845125E-01
107  1.0600000000000E+00 -1.5385289597693E-04  5.3977529948201E-02  3.4270122527236E-01
108  1.0700000000000E+00 -4.8391952077710E-03  7.0766054649950E-02  3.0932476806256E-01
109  1.0800000000000E+00 -8.5133154951194E-03  8.2714533214423E-02  2.7793450859276E-01
110  1.0900000000000E+00 -1.1277204968270E-02  9.0418663864732E-02  2.4853865436138E-01
111  1.1000000000000E+00 -1.3253156309247E-02  9.4518664758434E-02  2.2112695173301E-01
112  1.1100000000000E+00 -1.4576755011447E-02  9.5673722241868E-02  1.9567253027719E-01
113  1.1200000000000E+00 -1.5388338985525E-02  9.4535480849613E-02  1.7213400977731E-01
114  1.1300000000000E+00 -1.5824225047985E-02  9.1721437624749E-02  1.5045782307892E-01
115  1.1400000000000E+00 -1.6008055890427E-02  8.7789249800430E-02  1.3058069895701E-01
116  1.1500000000000E+00 -1.6042680859222E-02  8.3213124050322E-02  1.1243223951948E-01
117  1.1600000000000E+00 -1.6003050348060E-02  7.8363632682478E-02  9.5937515989003E-02
118  1.1700000000000E+00 -1.5930676387793E-02  7.3492496151051E-02  8.1019595063022E-02
119  1.1800000000000E+00 -1.5830293739207E-02  6.8724089075050E-02  6.7601894992087E-02
120  1.1900000000000E+00 -1.5669445712252E-02  6.4055666566131E-02  5.5610256127099E-02
121  1.2000000000000E+00 -1.5381820004204E-02  5.9368576904081E-02  4.4974594456697E-02
122  1.2100000000000E+00 -1.4875271701354E-02  5.4453024423948E-02  3.5629988607922E-02
123  1.2200000000000E+00 -1.4045691147073E-02  4.9049513773420E-02  2.7516996568042E-02
124  1.2300000000000E+00 -1.2797112779956E-02  4.2908270243894E-02  2.0581291023116E-02
125  1.2400000000000E+00 -1.1089551393876E-02  3.5919966168659E-02  1.4765125824997E-02
126  1.2500000000000E+00 -9.0240657309933E-03  2.8343015227038E-02  9.9863658613453E-03
127  1.2600000000000E+00 -6.6887289921140E-03  2.0441852526658E-02  6.2085569733156E-03
128  1.2700000000000E+00 -4.3090921102803E-03  1.2851863042778E-02  3.3871543885959E-03
129  1.2800000000000E+00 -2.1813730145630E-03  6.3640113163455E-03  1.4626749674805E-03
130  1.2900000000000E+00 -6.2263205298884E-04  1.7807396770665E-03  3.5884526301112E-04
131  1.3000000000000E+00 -5.0667103952355E-06  1.4236055802764E-05  2.5770822194309E-06
132  1.3100000000000E+00 -4.4560094983538E-06  1.2562496271158E-05  2.2765763240167E-06
133  1.3200000000000E+00  9.5519832466510E-07 -2.7167277619374E-06 -5.2576144050438E-07
134  1.33 -0.  0. -0.
135  1.34  0.  0.  0.
136  1.35  0.  0.  0.
137  1.36  0.  0.  0.
138  1.37  0.  0.  0.
139  1.38  0.  0.  0.
140  1.39  0.  0.  0.
141  1.40  0.  0.  0.
142  1.41  0.  0.  0.
143  1.42  0.  0.  0.
144  1.43  0.  0.  0.
145  1.44  0.  0.  0.
146  1.45  0.  0.  0.
147  1.46  0.  0.  0.
148  1.47  0.  0.  0.
149  1.48  0.  0.  0.
150  1.49  0.  0.  0.
151  1.50  0.  0.  0.
152  1.51  0.  0.  0.
153  1.52  0.  0.  0.
154  1.53  0.  0.  0.
155  1.54  0.  0.  0.
156  1.55  0.  0.  0.
157  1.56  0.  0.  0.
158  1.57  0.  0.  0.
159  1.58  0.  0.  0.
160  1.59  0.  0.  0.
161  1.60  0.  0.  0.
162  1.61  0.  0.  0.
163  1.62  0.  0.  0.
164  1.63  0.  0.  0.
165  1.64  0.  0.  0.
166  1.65  0.  0.  0.
167  1.66  0.  0.  0.
168  1.67  0.  0.  0.
169  1.68  0.  0.  0.
170  1.69  0.  0.  0.
171  1.70  0.  0.  0.
172  1.71  0.  0.  0.
173  1.72  0.  0.  0.
174  1.73  0.  0.  0.
175  1.74  0.  0.  0.
176  1.75  0.  0.  0.
177  1.76  0.  0.  0.
178  1.77  0.  0.  0.
179  1.78  0.  0.  0.
180  1.79  0.  0.  0.
181  1.80  0.  0.  0.
182  1.81  0.  0.  0.
183  1.82  0.  0.  0.
184  1.83  0.  0.  0.
185  1.84  0.  0.  0.
186  1.85  0.  0.  0.
187  1.86  0.  0.  0.
188  1.87  0.  0.  0.
189  1.88  0.  0.  0.
190  1.89  0.  0.  0.
191  1.90  0.  0.  0.
192  1.91  0.  0.  0.
193  1.92  0.  0.  0.
194  1.93  0.  0.  0.
195  1.94  0.  0.  0.
196  1.95  0.  0.  0.
197  1.96  0.  0.  0.
198  1.97  0.  0.  0.
199  1.98  0.  0.  0.
200  1.99  0.  0.  0.
201  2.00  0.  0.  0.
202  2.01  0.  0.  0.
203  2.02  0.  0.  0.
204  2.03  0.  0.  0.
205  2.04  0.  0.  0.
206  2.05  0.  0.  0.
207  2.06  0.  0.  0.
208  2.07  0.  0.  0.
209  2.08  0.  0.  0.
210  2.09  0.  0.  0.
211  2.10  0.  0.  0.
212  2.11  0.  0.  0.
213  2.12  0.  0.  0.
214  2.13  0.  0.  0.
215  2.14  0.  0.  0.
216  2.15  0.  0.  0.
217  2.16  0.  0.  0.
218  2.17  0.  0.  0.
219  2.18  0.  0.  0.
220  2.19  0.  0.  0.
221  2.20  0.  0.  0.
222  2.21  0.  0.  0.
223  2.22  0.  0.  0.
224  2.23  0.  0.  0.
225  2.24  0.  0.  0.
226  2.25  0.  0.  0.
227  2.26  0.  0.  0.
228  2.27  0.  0.  0.
229  2.28  0.  0.  0.
230  2.29  0.  0.  0.
231  2.30  0.  0.  0.
232  2.31  0.  0.  0.
233  2.32  0.  0.  0.
234  2.33  0.  0.  0.
235  2.34  0.  0.  0.
236  2.35  0.  0.  0.
237  2.36  0.  0.  0.
238  2.37  0.  0.  0.
239  2.38  0.  0.  0.
240  2.39  0.  0.  0.
241  2.40  0.  0.  0.
242  2.41  0.  0.  0.
243  2.42  0.  0.  0.
244  2.43  0.  0.  0.
245  2.44  0.  0.  0.
246  2.45  0.  0.  0.
247  2.46  0.  0.  0.
248  2.47  0.  0.  0.
249  2.48  0.  0.  0.
250  2.49  0.  0.  0.
251  2.50  0.  0.  0.
252  2.51  0.  0.  0.
253  2.52  0.  0.  0.
254  2.53  0.  0.  0.
255  2.54  0.  0.  0.
256  2.55  0.  0.  0.
257  2.56  0.  0.  0.
258  2.57  0.  0.  0.
259  2.58  0.  0.  0.
260  2.59  0.  0.  0.
261  2.60  0.  0.  0.
262  2.61  0.  0.  0.
263  2.62  0.  0.  0.
264  2.63  0.  0.  0.
265  2.64  0.  0.  0.
266  2.65  0.  0.  0.
267  2.66  0.  0.  0.
268  2.67  0.  0.  0.
269  2.68  0.  0.  0.
270  2.69  0.  0.  0.
271  2.70  0.  0.  0.
272  2.71  0.  0.  0.
273  2.72  0.  0.  0.
274  2.73  0.  0.  0.
275  2.74  0.  0.  0.
276  2.75  0.  0.  0.
277  2.76  0.  0.  0.
278  2.77  0.  0.  0.
279  2.78  0.  0.  0.
280  2.79  0.  0.  0.
281  2.80  0.  0.  0.
282  2.81  0.  0.  0.
283  2.82  0.  0.  0.
284  2.83  0.  0.  0.
285  2.84  0.  0.  0.
286  2.85  0.  0.  0.
287  2.86  0.  0.  0.
288  2.87  0.  0.  0.
289  2.88  0.  0.  0.
290  2.89  0.  0.  0.
291  2.90  0.  0.  0.
292  2.91  0.  0.  0.
293  2.92  0.  0.  0.
294  2.93  0.  0.  0.
295  2.94  0.  0.  0.
296  2.95  0.  0.  0.
297  2.96  0.  0.  0.
298  2.97  0.  0.  0.
299  2.98  0.  0.  0.
300  2.99  0.  0.  0.
301  3.00  0.  0.  0.
302  3.01  0.  0.  0.
303  3.02  0.  0.  0.
304  3.03  0.  0.  0.
305  3.04  0.  0.  0.
306  3.05  0.  0.  0.
307  3.06  0.  0.  0.
308  3.07  0.  0.  0.
309  3.08  0.  0.  0.
310  3.09  0.  0.  0.
311  3.10  0.  0.  0.
312  3.11  0.  0.  0.
313  3.12  0.  0.  0.
314  3.13  0.  0.  0.
315  3.14  0.  0.  0.
316  3.15  0.  0.  0.
317  3.16  0.  0.  0.
318  3.17  0.  0.  0.
319  3.18  0.  0.  0.
320  3.19  0.  0.  0.
321  3.20  0.  0.  0.
322  3.21  0.  0.  0.
323  3.22  0.  0.  0.
324  3.23  0.  0.  0.
325  3.24  0.  0.  0.
326  3.25  0.  0.  0.
327  3.26  0.  0.  0.
328  3.27  0.  0.  0.
329  3.28  0.  0.  0.
330  3.29  0.  0.  0.
331  3.30  0.  0.  0.
332  3.31  0.  0.  0.
333  3.32  0.  0.  0.
334  3.33  0.  0.  0.
335  3.34  0.  0.  0.
336  3.35  0.  0.  0.
337  3.36  0.  0.  0.
338  3.37  0.  0.  0.
339  3.38  0.  0.  0.
340  3.39  0.  0.  0.
341  3.40  0.  0.  0.
342  3.41  0.  0.  0.
343  3.42  0.  0.  0.
344  3.43  0.  0.  0.
345  3.44  0.  0.  0.
346  3.45  0.  0.  0.
347  3.46  0.  0.  0.
348  3.47  0.  0.  0.
349  3.48  0.  0.  0.
350  3.49  0.  0.  0.
351  3.50  0.  0.  0.
352  3.51  0.  0.  0.
353  3.52  0.  0.  0.
354  3.53  0.  0.  0.
355  3.54  0.  0.  0.
356  3.55  0.  0.  0.
357  3.56  0.  0.  0.
358  3.57  0.  0.  0.
359  3.58  0.  0.  0.
360  3.59  0.  0.  0.
361  3.60  0.  0.  0.
362  3.61  0.  0.  0.
363  3.62  0.  0.  0.
364  3.63  0.  0.  0.
365  3.64  0.  0.  0.
366  3.65  0.  0.  0.
367  3.66  0.  0.  0.
368  3.67  0.  0.  0.
369  3.68  0.  0.  0.
370  3.69  0.  0.  0.
371  3.70  0.  0.  0.
372  3.71  0.  0.  0.
373  3.72  0.  0.  0.
374  3.73  0.  0.  0.
375  3.74  0.  0.  0.
376  3.75  0.  0.  0.
377  3.76  0.  0.  0.
378  3.77  0.  0.  0.
379  3.78  0.  0.  0.
380  3.79  0.  0.  0.
381  3.80  0.  0.  0.
382  3.81  0.  0.  0.
383  3.82  0.  0.  0.
384  3.83  0.  0.  0.
385  3.84  0.  0.  0.
386  3.85  0.  0.  0.
387  3.86  0.  0.  0.
388  3.87  0.  0.  0.
389  3.88  0.  0.  0.
390  3.89  0.  0.  0.
391  3.90  0.  0.  0.
392  3.91  0.  0.  0.
393  3.92  0.  0.  0.
394  3.93  0.  0.  0.
395  3.94  0.  0.  0.
396  3.95  0.  0.  0.
397  3.96  0.  0.  0.
398  3.97  0.  0.  0.
399  3.98  0.  0.  0.
400  3.99  0.  0.  0.
401  4.00  0.  0.  0.
402  4.01  0.  0.  0.
403  4.02  0.  0.  0.
404  4.03  0.  0.  0.
405  4.04  0.  0.  0.
406  4.05  0.  0.  0.
407  4.06  0.  0.  0.
408  4.07  0.  0.  0.
409  4.08  0.  0.  0.
410  4.09  0.  0.  0.
411  4.10  0.  0.  0.
412  4.11  0.  0.  0.
413  4.12  0.  0.  0.
414  4.13  0.  0.  0.
415  4.14  0.  0.  0.
416  4.15  0.  0.  0.
417  4.16  0.  0.  0.
418  4.17  0.  0.  0.
419  4.18  0.  0.  0.
420  4.19  0.  0.  0.
421  4.20  0.  0.  0.
422  4.21  0.  0.  0.
423  4.22  0.  0.  0.
424  4.23  0.  0.  0.
425  4.24  0.  0.  0.
426  4.25  0.  0.  0.
427  4.26  0.  0.  0.
428  4.27  0.  0.  0.
429  4.28  0.  0.  0.
430  4.29  0.  0.  0.
431  4.30  0.  0.  0.
432  4.31  0.  0.  0.
433  4.32  0.  0.  0.
434  4.33  0.  0.  0.
435  4.34  0.  0.  0.
436  4.35  0.  0.  0.
437  4.36  0.  0.  0.
438  4.37  0.  0.  0.
439  4.38  0.  0.  0.
440  4.39  0.  0.  0.
441  4.40  0.  0.  0.
442  4.41  0.  0.  0.
443  4.42  0.  0.  0.
444  4.43  0.  0.  0.
445  4.44  0.  0.  0.
446  4.45  0.  0.  0.
447  4.46  0.  0.  0.
448  4.47  0.  0.  0.
449  4.48  0.  0.  0.
450  4.49  0.  0.  0.
451  4.50  0.  0.  0.
452  4.51  0.  0.  0.
453  4.52  0.  0.  0.
454  4.53  0.  0.  0.
455  4.54  0.  0.  0.
456  4.55  0.  0.  0.
457  4.56  0.  0.  0.
458  4.57  0.  0.  0.
459  4.58  0.  0.  0.
460  4.59  0.  0.  0.
461  4.60  0.  0.  0.
462  4.61  0.  0.  0.
463  4.62  0.  0.  0.
464  4.63  0.  0.  0.
465  4.64  0.  0.  0.
466  4.65  0.  0.  0.
467  4.66  0.  0.  0.
468  4.67  0.  0.  0.
469  4.68  0.  0.  0.
470  4.69  0.  0.  0.
471  4.70  0.  0.  0.
472  4.71  0.  0.  0.
473  4.72  0.  0.  0.
474  4.73  0.  0.  0.
475  4.74  0.  0.  0.
476  4.75  0.  0.  0.
477  4.76  0.  0.  0.
478  4.77  0.  0.  0.
479  4.78  0.  0.  0.
480  4.79  0.  0.  0.
481  4.80  0.  0.  0.
482  4.81  0.  0.  0.
483  4.82  0.  0.  0.
484  4.83  0.  0.  0.
485  4.84  0.  0.  0.
486  4.85  0.  0.  0.
487  4.86  0.  0.  0.
488  4.87  0.  0.  0.
489  4.88  0.  0.  0.
490  4.89  0.  0.  0.
491  4.90  0.  0.  0.
492  4.91  0.  0.  0.
493  4.92  0.  0.  0.
494  4.93  0.  0.  0.
495  4.94  0.  0.  0.
496  4.95  0.  0.  0.
497  4.96  0.  0.  0.
498  4.97  0.  0.  0.
499  4.98  0.  0.  0.
500  4.99  0.  0.  0.
501  5.00  0.  0.  0.
502  5.01  0.  0.  0.
503  5.02  0.  0.  0.
504  5.03  0.  0.  0.
505  5.04  0.  0.  0.
506  5.05  0.  0.  0.
507  5.06  0.  0.  0.
508  5.07  0.  0.  0.
509  5.08  0.  0.  0.
510  5.09  0.  0.  0.
511  5.10  0.  0.  0.
512  5.11  0.  0.  0.
513  5.12  0.  0.  0.
514  5.13  0.  0.  0.
515  5.14  0.  0.  0.
516  5.15  0.  0.  0.
517  5.16  0.  0.  0.
518  5.17  0.  0.  0.
519  5.18  0.  0.  0.
520  5.19  0.  0.  0.
521  5.20  0.  0.  0.
522  5.21  0.  0.  0.
523  5.22  0.  0.  0.
524  5.23  0.  0.  0.
525  5.24  0.  0.  0.
526  5.25  0.  0.  0.
527  5.26  0.  0.  0.
528  5.27  0.  0.  0.
529  5.28  0.  0.  0.
530  5.29  0.  0.  0.
531  5.30  0.  0.  0.
532  5.31  0.  0.  0.
533  5.32  0.  0.  0.
534  5.33  0.  0.  0.
535  5.34  0.  0.  0.
536  5.35  0.  0.  0.
537  5.36  0.  0.  0.
538  5.37  0.  0.  0.
539  5.38  0.  0.  0.
540  5.39  0.  0.  0.
541  5.40  0.  0.  0.
542  5.41  0.  0.  0.
543  5.42  0.  0.  0.
544  5.43  0.  0.  0.
545  5.44  0.  0.  0.
546  5.45  0.  0.  0.
547  5.46  0.  0.  0.
548  5.47  0.  0.  0.
549  5.48  0.  0.  0.
550  5.49  0.  0.  0.
551  5.50  0.  0.  0.
552  5.51  0.  0.  0.
553  5.52  0.  0.  0.
554  5.53  0.  0.  0.
555  5.54  0.  0.  0.
556  5.55  0.  0.  0.
557  5.56  0.  0.  0.
558  5.57  0.  0.  0.
559  5.58  0.  0.  0.
560  5.59  0.  0.  0.
561  5.60  0.  0.  0.
562  5.61  0.  0.  0.
563  5.62  0.  0.  0.
564  5.63  0.  0.  0.
565  5.64  0.  0.  0.
566  5.65  0.  0.  0.
567  5.66  0.  0.  0.
568  5.67  0.  0.  0.
569  5.68  0.  0.  0.
570  5.69  0.  0.  0.
571  5.70  0.  0.  0.
572  5.71  0.  0.  0.
573  5.72  0.  0.  0.
574  5.73  0.  0.  0.
575  5.74  0.  0.  0.
576  5.75  0.  0.  0.
577  5.76  0.  0.  0.
578  5.77  0.  0.  0.
579  5.78  0.  0.  0.
580  5.79  0.  0.  0.
581  5.80  0.  0.  0.
582  5.81  0.  0.  0.
583  5.82  0.  0.  0.
584  5.83  0.  0.  0.
585  5.84  0.  0.  0.
586  5.85  0.  0.  0.
587  5.86  0.  0.  0.
588  5.87  0.  0.  0.
589  5.88  0.  0.  0.
590  5.89  0.  0.  0.
591  5.90  0.  0.  0.
592  5.91  0.  0.  0.
593  5.92  0.  0.  0.
594  5.93  0.  0.  0.
595  5.94  0.  0.  0.
596  5.95  0.  0.  0.
597  5.96  0.  0.  0.
598  5.97  0.  0.  0.
599  5.98  0.  0.  0.
600  5.99  0.  0.  0.
1                         6.8142801642082E+00 -2.2695288303267E+00
1  0.0000000000000E+00  1.6025682447740E-09 -1.3663447318013E-09
2  1.0000000000000E-02  4.1690455836761E-03  4.8608106630203E-04
3  2.0000000000000E-02  1.6640707160280E-02  1.9459761471086E-03
4  3.0000000000000E-02  3.7308809154405E-02  4.3845998740193E-03
5  4.0000000000000E-02  6.5997224998265E-02  7.8100074323255E-03
6  5.0000000000000E-02  1.0246112464780E-01  1.2233193700960E-02
7  6.0000000000000E-02  1.4638871779232E-01  1.7667817855084E-02
8  7.0000000000000E-02  1.9740348905182E-01  2.4129859063929E-02
9  8.0000000000000E-02  2.5506691985346E-01  3.1637210282839E-02
10  9.0000000000000E-02  3.1888168969883E-01  4.0209218331215E-02
11  1.0000000000000E-01  3.8829534712468E-01  4.9866179439010E-02
12  1.1000000000000E-01  4.6270443778917E-01  6.0628800210072E-02
13  1.2000000000000E-01  5.4145907376937E-01  7.2517634473810E-02
14  1.3000000000000E-01  6.2386792434150E-01  8.5552506766883E-02
15  1.4000000000000E-01  7.0920360426334E-01  9.9751933199872E-02
16  1.5000000000000E-01  7.9670843093820E-01  1.1513255022341E-01
17  1.6000000000000E-01  8.8560051688565E-01  1.3170856132385E-01
18  1.7000000000000E-01  9.7508015876556E-01  1.4949121096675E-01
19  1.8000000000000E-01  1.0643364789097E+00  1.6848829418951E-01
20  1.9000000000000E-01  1.1525542700310E+00  1.8870370915056E-01
21  2.0000000000000E-01  1.2389209886410E+00  2.1013705870391E-01
22  2.1000000000000E-01  1.3226338378541E+00  2.3278330572096E-01
23  2.2000000000000E-01  1.4029068758369E+00  2.5663248546502E-01
24  2.3000000000000E-01  1.4789780823240E+00  2.8166947687887E-01
25  2.4000000000000E-01  1.5501163125032E+00  3.0787383321242E-01
26  2.5000000000000E-01  1.6156280653094E+00  3.3521967103683E-01
27  2.6000000000000E-01  1.6748639918784E+00  3.6367561540173E-01
28  2.7000000000000E-01  1.7272250696939E+00  3.9320479772823E-01
29  2.8000000000000E-01  1.7721683689057E+00  4.2376490202543E-01
30  2.9000000000000E-01  1.8092123394477E+00  4.5530825419655E-01
31  3.0000000000000E-01  1.8379415509865E+00  4.8778194858609E-01
32  3.1000000000000E-01  1.8580108223757E+00  5.2112800552454E-01
33  3.2000000000000E-01  1.8691486831559E+00  5.5528355346118E-01
34  3.3000000000000E-01  1.8711601166722E+00  5.9018102933996E-01
35  3.4000000000000E-01  1.8639285424872E+00  6.2574839116138E-01
36  3.5000000000000E-01  1.8474170048389E+00  6.6190933717358E-01
37  3.6000000000000E-01  1.8216685437924E+00  6.9858352682850E-01
38  3.7000000000000E-01  1.7868057362893E+00  7.3568679949896E-01
39  3.8000000000000E-01  1.7430294053402E+00  7.7313138795045E-01
40  3.9000000000000E-01  1.6906165069207E+00  8.1082612466122E-01
41  4.0000000000000E-01  1.6299172155228E+00  8.4867664024931E-01
42  4.1000000000000E-01  1.5613512405578E+00  8.8658555445424E-01
43  4.2000000000000E-01  1.4854034166862E+00  9.2445266129274E-01
44  4.3000000000000E-01  1.4026186214576E+00  9.6217511112177E-01
45  4.4000000000000E-01  1.3135960831694E+00  9.9964759335646E-01
46  4.5000000000000E-01  1.2189831504060E+00  1.0367625244705E+00
47  4.6000000000000E-01  1.1194686021385E+00  1.0734102466155E+00
48  4.7000000000000E-01  1.0157755833908E+00  1.1094792427076E+00
49  4.8000000000000E-01  9.0865425619725E-01  1.1448563741186E+00
50  4.9000000000000E-01  7.9887425879783E-01  1.1794271471606E+00
51  5.0000000000000E-01  6.8721706768524E-01  1.2130760143557E+00
52  5.1000000000000E-01  5.7446835720338E-01  1.2456867160343E+00
53  5.2000000000000E-01  4.6141044991911E-01  1.2771426671123E+00
54  5.3000000000000E-01  3.4881494798834E-01  1.3073273929740E+00
55  5.4000000000000E-01  2.3743563129504E-01  1.3361250172480E+00
56  5.5000000000000E-01  1.2800170236821E-01  1.3634208029407E+00
57  5.6000000000000E-01  2.1211451114749E-02  1.3891017469208E+00
58  5.7000000000000E-01 -8.2273595590062E-02  1.4130572261556E+00
59  5.8000000000000E-01 -1.8183398325463E-01  1.4351796924464E+00
60  5.9000000000000E-01 -2.7689705135472E-01  1.4553654107255E+00
61  6.0000000000000E-01 -3.6694103036210E-01  1.4735152343171E+00
62  6.1000000000000E-01 -4.5149848757893E-01  1.4895354089798E+00
63  6.2000000000000E-01 -5.3015910529258E-01  1.5033383960760E+00
64  6.3000000000000E-01 -6.0257178472061E-01  1.5148437039114E+00
65  6.4000000000000E-01 -6.6844607877327E-01  1.5239787151875E+00
66  6.5000000000000E-01 -7.2755296564318E-01  1.5306794976530E+00
67  6.6000000000000E-01 -7.7972498347786E-01  1.5348915844567E+00
68  6.7000000000000E-01 -8.2485575376865E-01  1.5365707104175E+00
69  6.8000000000000E-01 -8.6289892749040E-01  1.5356834904535E+00
70  6.9000000000000E-01 -8.9386659337584E-01  1.5322080267578E+00
71  7.0000000000000E-01 -9.1782719196028E-01  1.5261344319804E+00
72  7.1000000000000E-01 -9.3490298217412E-01  1.5174652566494E+00
73  7.2000000000000E-01 -9.4526710930988E-01  1.5062158103427E+00
74  7.3000000000000E-01 -9.4914032419481E-01  1.4924143676564E+00
75  7.4000000000000E-01 -9.4678740343609E-01  1.4761022517958E+00
76  7.5000000000000E-01 -9.3851331977037E-01  1.4573337905792E+00
77  7.6000000000000E-01 -9.2465920996487E-01  1.4361761417658E+00
78  7.7000000000000E-01 -9.0559818551775E-01  1.4127089868364E+00
79  7.8000000000000E-01 -8.8173102873860E-01  1.3870240946159E+00
80  7.9000000000000E-01 -8.5348181380666E-01  1.3592247583884E+00
81  8.0000000000000E-01 -8.2129348925959E-01  1.3294251123437E+00
82  8.1000000000000E-01 -7.8562345520539E-01  1.2977493352788E+00
83  8.2000000000000E-01 -7.4693916551341E-01  1.2643307513890E+00
84  8.3000000000000E-01 -7.0571378245018E-01  1.2293108396912E+00
85  8.4000000000000E-01 -6.6242190878627E-01  1.1928381650755E+00
86  8.5000000000000E-01 -6.1753542039351E-01  1.1550672451564E+00
87  8.6000000000000E-01 -5.7151942083368E-01  1.1161573679597E+00
88  8.7000000000000E-01 -5.2482833843934E-01  1.0762713760234E+00
89  8.8000000000000E-01 -4.7790218590608E-01  1.0355744327009E+00
90  8.9000000000000E-01 -4.3116300242396E-01  9.9423278633401E-01
91  9.0000000000000E-01 -3.8501149882009E-01  9.5241254752454E-01
92  9.1000000000000E-01 -3.3982392698188E-01  9.1027849399195E-01
93  9.2000000000000E-01 -2.9594919587660E-01  8.6799291649360E-01
94  9.3000000000000E-01 -2.5370625765305E-01  8.2571451803489E-01
95  9.4000000000000E-01 -2.1338178846408E-01  7.8359737715339E-01
96  9.5000000000000E-01 -1.7522818963216E-01  7.4178998447138E-01
97  9.6000000000000E-01 -1.3946193543539E-01  7.0043436002615E-01
98  9.7000000000000E-01 -1.0626229395776E-01  6.5966525716157E-01
99  9.8000000000000E-01 -7.5770446968958E-02  6.1960945705531E-01
100  9.9000000000000E-01 -4.8089033525982E-02  5.8038515631712E-01
101  1.0000000000000E+00 -2.3282139791862E-02  5.4210144858195E-01
102  1.0100000000000E+00 -1.3757543226070E-03  5.0485789968608E-01
103  1.0200000000000E+00  1.7641296306958E-02  4.6874421490427E-01
104  1.0300000000000E+00  3.3815922252479E-02  4.3383999588290E-01
105  1.0400000000000E+00  4.7228853076264E-02  4.0021458436214E-01
106  1.0500000000000E+00  5.7992234004653E-02  3.6792698957169E-01
107  1.0600000000000E+00  6.6246750753982E-02  3.3702589632703E-01
108  1.0700000000000E+00  7.2158308469443E-02  3.0754975136347E-01
109  1.0800000000000E+00  7.5914301980701E-02  2.7952692632745E-01
110  1.0900000000000E+00  7.7719527264925E-02  2.5297595709527E-01
111  1.1000000000000E+00  7.7791797614464E-02  2.2790586070596E-01
112  1.1100000000000E+00  7.6357342307127E-02  2.0431653314722E-01
113  1.1200000000000E+00  7.3646080545590E-02  1.8219923352199E-01
114  1.1300000000000E+00  6.9886878698239E-02  1.6153716268870E-01
115  1.1400000000000E+00  6.5302914479055E-02  1.4230614731878E-01