Pu    ONCVPSP-4.0.1  r_core=   1.25449   1.25449   1.55594   1.55594
94.0000     34.0000      220307    zatom,zion,pspd
8      11   3     4   600     0    pspcod,pspxc,lmax,lloc,mmax,r2well
5.99000000  5.00000000  0.00000000    rchrg fchrg qchrg
3     2     2     2     0    nproj
1     1           extension_switch
0                         1.9557027264082E+01  2.9450296179251E+00 -2.1075253801523E+00
1  0.0000000000000E+00 -1.5542476838881E-07 -3.8334680807495E-07 -2.9575491611311E-08
2  1.0000000000000E-02  1.6567310683403E-01  1.0115659547661E-01  3.4631869892801E-02
3  2.0000000000000E-02  3.2944640202461E-01  1.9888992462295E-01  6.9000198857313E-02
4  3.0000000000000E-02  4.8946414323855E-01  2.8988047938506E-01  1.0284912521151E-01
5  4.0000000000000E-02  6.4395740254160E-01  3.7101300816447E-01  1.3593790035974E-01
6  5.0000000000000E-02  7.9128420524465E-01  4.3947059783958E-01  1.6804783986776E-01
7  6.0000000000000E-02  9.2996586352428E-01  4.9281938829808E-01  1.9898857024176E-01
8  7.0000000000000E-02  1.0587184270240E+00  5.2908126698941E-01  2.2860337296471E-01
9  8.0000000000000E-02  1.1764783280674E+00  5.4679227435296E-01  2.5677345691842E-01
10  9.0000000000000E-02  1.2824214837516E+00  5.4504490651325E-01  2.8342102540771E-01
11  1.0000000000000E-01  1.3759753250749E+00  5.2351301471984E-01  3.0851104343924E-01
12  1.1000000000000E-01  1.4568234476732E+00  4.8245855517503E-01  3.3205165338950E-01
13  1.2000000000000E-01  1.5249028124484E+00  4.2272002033958E-01  3.5409323131520E-01
14  1.3000000000000E-01  1.5803936598424E+00  3.4568296501780E-01  3.7472612045885E-01
15  1.4000000000000E-01  1.6237025311340E+00  2.5323360882278E-01  3.9407712151515E-01
16  1.5000000000000E-01  1.6554390065419E+00  1.4769703281479E-01  4.1230485953312E-01
17  1.6000000000000E-01  1.6763869661365E+00  3.1761975032385E-02  4.2959418360273E-01
18  1.7000000000000E-01  1.6874713493017E+00 -9.1605348259163E-02  4.4614978652059E-01
19  1.8000000000000E-01  1.6897215263260E+00 -2.1925562493508E-01  4.6218925642790E-01
20  1.9000000000000E-01  1.6842324972392E+00 -3.4795600767532E-01  4.7793579015443E-01
21  2.0000000000000E-01  1.6721251950524E+00 -4.7449167017006E-01  4.9361080811032E-01
22  2.1000000000000E-01  1.6545071911802E+00 -5.9576612078469E-01  5.0942671272335E-01
23  2.2000000000000E-01  1.6324350794480E+00 -7.0889708398587E-01  5.2558002656625E-01
24  2.3000000000000E-01  1.6068797525161E+00 -8.1130491017649E-01  5.4224513267038E-01
25  2.4000000000000E-01  1.5786956828937E+00 -9.0079072187888E-01  5.5956881854653E-01
26  2.5000000000000E-01  1.5485951833829E+00 -9.7560184029778E-01  5.7766579784764E-01
27  2.6000000000000E-01  1.5171284533029E+00 -1.0344824502102E+00  5.9661535034282E-01
28  2.7000000000000E-01  1.4846700227691E+00 -1.0767079393971E+00  6.1645918304946E-01
29  2.8000000000000E-01  1.4514119939854E+00 -1.1021018759425E+00  6.3720057426101E-01
30  2.9000000000000E-01  1.4173642529400E+00 -1.1110351456170E+00  6.5880481919046E-01
31  3.0000000000000E-01  1.3823615944291E+00 -1.1044073442124E+00  6.8120095246301E-01
32  3.1000000000000E-01  1.3460774754716E+00 -1.0836110876510E+00  7.0428468018779E-01
33  3.2000000000000E-01  1.3080438943170E+00 -1.0504804477337E+00  7.2792241423304E-01
34  3.3000000000000E-01  1.2676766914374E+00 -1.0072252260648E+00  7.5195626495536E-01
35  3.4000000000000E-01  1.2243053916181E+00 -9.5635322690949E-01  7.7620981719423E-01
36  3.5000000000000E-01  1.1772065581976E+00 -9.0058306728073E-01  8.0049448887420E-01
37  3.6000000000000E-01  1.1256395163937E+00 -8.4275035753550E-01  8.2461625289242E-01
38  3.7000000000000E-01  1.0688832260800E+00 -7.8571028898377E-01  8.4838249170936E-01
39  3.8000000000000E-01  1.0062730477143E+00 -7.3223977031276E-01  8.7160875055870E-01
40  3.9000000000000E-01  9.3723614942877E-01 -6.8494225898921E-01  8.9412515953763E-01
41  4.0000000000000E-01  8.6132434827756E-01 -6.4615833750525E-01  9.1578230685763E-01
42  4.1000000000000E-01  7.7824326270220E-01 -6.1788489090655E-01  9.3645636479674E-01
43  4.2000000000000E-01  6.8787677353567E-01 -6.0170545813386E-01  9.5605329572198E-01
44  4.3000000000000E-01  5.9030594327359E-01 -5.9873396487432E-01  9.7451199705409E-01
45  4.4000000000000E-01  4.8582172282260E-01 -6.0957361197220E-01  9.9180628014270E-01
46  4.5000000000000E-01  3.7493097554986E-01 -6.3429220527328E-01  1.0079456174784E+00
47  4.6000000000000E-01  2.5835556360173E-01 -6.7241468605549E-01  1.0229746341473E+00
48  4.7000000000000E-01  1.3702446409959E-01 -7.2293307304430E-01  1.0369713615306E+00
49  4.8000000000000E-01  1.2059105701452E-02 -7.8433347516671E-01  1.0500443125506E+00
50  4.9000000000000E-01 -1.1524766807198E-01 -8.5463929638794E-01  1.0623284768760E+00
51  5.0000000000000E-01 -2.4345840035096E-01 -9.3146924735772E-01  1.0739803701272E+00
52  5.1000000000000E-01 -3.7102279724218E-01 -1.0121083192218E+00  1.0851723020823E+00
53  5.2000000000000E-01 -4.9631353340324E-01 -1.0935894772011E+00  1.0960860541640E+00
54  5.3000000000000E-01 -6.1766501671410E-01 -1.1727835077008E+00  1.1069061752730E+00
55  5.4000000000000E-01 -7.3341395204707E-01 -1.2464942125705E+00  1.1178131167344E+00
56  5.5000000000000E-01 -8.4194049166298E-01 -1.3115559946857E+00  1.1289764313921E+00
57  5.6000000000000E-01 -9.4170874605011E-01 -1.3649308242462E+00  1.1405482586387E+00
58  5.7000000000000E-01 -1.0313054541784E+00 -1.4038016159732E+00  1.1526573065658E+00
59  5.8000000000000E-01 -1.1094756749977E+00 -1.4256591814802E+00  1.1654035248863E+00
60  5.9000000000000E-01 -1.1751544601732E+00 -1.4283801432573E+00  1.1788536384598E+00
61  6.0000000000000E-01 -1.2274935979995E+00 -1.4102934988801E+00  1.1930376820134E+00
62  6.1000000000000E-01 -1.2658826756322E+00 -1.3702338956462E+00  1.2079466430313E+00
63  6.2000000000000E-01 -1.2899638858522E+00 -1.3075801041503E+00  1.2235312829635E+00
64  6.3000000000000E-01 -1.2996401994916E+00 -1.2222776499049E+00  1.2397021681690E+00
65  6.4000000000000E-01 -1.2950767289303E+00 -1.1148450593825E+00  1.2563309026904E+00
66  6.5000000000000E-01 -1.2766953150062E+00 -9.8636368450975E-01  1.2732525163944E+00
67  6.6000000000000E-01 -1.2451625725639E+00 -8.3845157127975E-01  1.2902689255219E+00
68  6.7000000000000E-01 -1.2013718222302E+00 -6.7322231778413E-01  1.3071533494723E+00
69  6.8000000000000E-01 -1.1464195117949E+00 -4.9323030956319E-01  1.3236555388078E+00
70  6.9000000000000E-01 -1.0815768844201E+00 -3.0140411217767E-01  1.3395076459113E+00
71  7.0000000000000E-01 -1.0082577781994E+00 -1.0097013056582E-01  1.3544305522147E+00
72  7.1000000000000E-01 -9.2798353871863E-01  1.0463109736329E-01  1.3681404549286E+00
73  7.2000000000000E-01 -8.4234609068396E-01  3.1183342631665E-01  1.3803555120304E+00
74  7.3000000000000E-01 -7.5297024493135E-01  5.1703580563562E-01  1.3908023469376E+00
75  7.4000000000000E-01 -6.6147631297917E-01  7.1669250323850E-01  1.3992222235911E+00
76  7.5000000000000E-01 -5.6944406361052E-01  9.0740026822956E-01  1.4053767181661E+00
77  7.6000000000000E-01 -4.7837898677966E-01  1.0859799990880E+00  1.4090527346492E+00
78  7.7000000000000E-01 -3.8968173244096E-01  1.2495507068161E+00  1.4100667372379E+00
79  7.8000000000000E-01 -3.0462146961289E-01  1.3955938482986E+00  1.4082681019266E+00
80  7.9000000000000E-01 -2.2431376874367E-01  1.5220064436828E+00  1.4035415216369E+00
81  8.0000000000000E-01 -1.4970345347489E-01  1.6271417705010E+00  1.3958084326271E+00
82  8.1000000000000E-01 -8.1552701773086E-02  1.7098368332577E+00  1.3850274634735E+00
83  8.2000000000000E-01 -2.0434506877993E-02  1.7694262264013E+00  1.3711939404288E+00
84  8.3000000000000E-01  3.3268558682387E-02  1.8057424270505E+00  1.3543385133060E+00
85  8.4000000000000E-01  7.9360492150183E-02  1.8191029579983E+00  1.3345249931374E+00
86  8.5000000000000E-01  1.1782328533068E-01  1.8102852387071E+00  1.3118475158293E+00
87  8.6000000000000E-01  1.4880411696058E-01  1.7804902808333E+00  1.2864271641147E+00
88  8.7000000000000E-01  1.7259891259533E-01  1.7312966755297E+00  1.2584081927634E+00
89  8.8000000000000E-01  1.8963295609434E-01  1.6646065545595E+00  1.2279540088961E+00
90  8.9000000000000E-01  2.0043929499690E-01  1.5825853804553E+00  1.1952430602612E+00
91  9.0000000000000E-01  2.0563571338493E-01  1.4875975292022E+00  1.1604647795720E+00
92  9.1000000000000E-01  2.0590105022352E-01  1.3821396711989E+00  1.1238157227995E+00
93  9.2000000000000E-01  2.0195161960859E-01  1.2687739338117E+00  1.0854960241912E+00
94  9.3000000000000E-01  1.9451844367349E-01  1.1500627451455E+00  1.0457062714489E+00
95  9.4000000000000E-01  1.8432594175851E-01  1.0285071191471E+00  1.0046448817974E+00
96  9.5000000000000E-01  1.7207263412908E-01  9.0648995395187E-01  9.6250603457974E-01
97  9.6000000000000E-01  1.5841431891610E-01  7.8622568709747E-01  9.1947818956757E-01
98  9.7000000000000E-01  1.4395007118512E-01  6.6971739226962E-01  8.7574319344721E-01
99  9.8000000000000E-01  1.2921129760772E-01  5.5872212299284E-01  8.3147595101349E-01
100  9.9000000000000E-01  1.1465396344370E-01  4.5472501935434E-01  7.8684461348456E-01
101  1.0000000000000E+00  1.0065399482618E-01  3.5892240495450E-01  7.4201121498754E-01
102  1.0100000000000E+00  8.7505752450923E-02  2.7221382202962E-01  6.9713267043981E-01
103  1.0200000000000E+00  7.5423376389741E-02  1.9520269231589E-01  6.5236203445086E-01
104  1.0300000000000E+00  6.4544718668212E-02  1.2820505697458E-01  6.0784991194310E-01
105  1.0400000000000E+00  5.4937512645979E-02  7.1265646659643E-02  5.6374590721788E-01
106  1.0500000000000E+00  4.6607377669659E-02  2.4180367195776E-02  5.2019999926107E-01
107  1.0600000000000E+00  3.9507224506153E-02 -1.3475840221942E-02  4.7736373701460E-01
108  1.0700000000000E+00  3.3547611523817E-02 -4.2316892435199E-02  4.3539115883639E-01
109  1.0800000000000E+00  2.8607602591187E-02 -6.3110387705044E-02  3.9443935484789E-01
110  1.0900000000000E+00  2.4545693386049E-02 -7.6740548193528E-02  3.5466860862960E-01
111  1.1000000000000E+00  2.1210401059455E-02 -8.4170451992888E-02  3.1624207495510E-01
112  1.1100000000000E+00  1.8450149780759E-02 -8.6404681294648E-02  2.7932497185538E-01
113  1.1200000000000E+00  1.6122128652691E-02 -8.4453450559489E-02  2.4408328742497E-01
114  1.1300000000000E+00  1.4099844596757E-02 -7.9299205515073E-02  2.1068202304871E-01
115  1.1400000000000E+00  1.2279137895842E-02 -7.1866607641230E-02  1.7928301433862E-01
116  1.1500000000000E+00  1.0582467599782E-02 -6.2996749044822E-02  1.5004238764280E-01
117  1.1600000000000E+00  8.9613048607176E-03 -5.3426386418396E-02  1.2310772278798E-01
118  1.1700000000000E+00  7.3965135252153E-03 -4.3772901366895E-02  9.8615011498638E-02
119  1.1800000000000E+00  5.8963365552367E-03 -3.4526230669358E-02  7.6685379688106E-02
120  1.1900000000000E+00  4.4929275426570E-03 -2.6046287148921E-02  5.7422169503581E-02
121  1.2000000000000E+00  3.1911146499847E-03 -1.8662051007564E-02  4.0886443125394E-02
122  1.2100000000000E+00  2.0073719877090E-03 -1.2589966024842E-02  2.7115309146558E-02
123  1.2200000000000E+00  1.0572852274473E-03 -7.7507515276511E-03  1.6168292001312E-02
124  1.2300000000000E+00  4.1201561374341E-04 -4.0682399432805E-03  8.0652639738437E-03
125  1.2400000000000E+00  8.3030051537670E-05 -1.5108345153524E-03  2.7834154424285E-03
126  1.2500000000000E+00 -1.7241428088497E-07 -1.7480168226112E-04  2.9148793397036E-04
127  1.2600000000000E+00  4.4612489485348E-07  1.2981979406266E-05 -2.0267436406882E-05
128  1.2700000000000E+00 -3.4019820849501E-09  2.2819132366577E-07 -3.9155882139451E-07
129  1.28 -0. -0. -0.
130  1.29  0.  0.  0.
131  1.30  0.  0.  0.
132  1.31  0.  0.  0.
133  1.32  0.  0.  0.
134  1.33  0.  0.  0.
135  1.34  0.  0.  0.
136  1.35  0.  0.  0.
137  1.36  0.  0.  0.
138  1.37  0.  0.  0.
139  1.38  0.  0.  0.
140  1.39  0.  0.  0.
141  1.40  0.  0.  0.
142  1.41  0.  0.  0.
143  1.42  0.  0.  0.
144  1.43  0.  0.  0.
145  1.44  0.  0.  0.
146  1.45  0.  0.  0.
147  1.46  0.  0.  0.
148  1.47  0.  0.  0.
149  1.48  0.  0.  0.
150  1.49  0.  0.  0.
151  1.50  0.  0.  0.
152  1.51  0.  0.  0.
153  1.52  0.  0.  0.
154  1.53  0.  0.  0.
155  1.54  0.  0.  0.
156  1.55  0.  0.  0.
157  1.56  0.  0.  0.
158  1.57  0.  0.  0.
159  1.58  0.  0.  0.
160  1.59  0.  0.  0.
161  1.60  0.  0.  0.
162  1.61  0.  0.  0.
163  1.62  0.  0.  0.
164  1.63  0.  0.  0.
165  1.64  0.  0.  0.
166  1.65  0.  0.  0.
167  1.66  0.  0.  0.
168  1.67  0.  0.  0.
169  1.68  0.  0.  0.
170  1.69  0.  0.  0.
171  1.70  0.  0.  0.
172  1.71  0.  0.  0.
173  1.72  0.  0.  0.
174  1.73  0.  0.  0.
175  1.74  0.  0.  0.
176  1.75  0.  0.  0.
177  1.76  0.  0.  0.
178  1.77  0.  0.  0.
179  1.78  0.  0.  0.
180  1.79  0.  0.  0.
181  1.80  0.  0.  0.
182  1.81  0.  0.  0.
183  1.82  0.  0.  0.
184  1.83  0.  0.  0.
185  1.84  0.  0.  0.
186  1.85  0.  0.  0.
187  1.86  0.  0.  0.
188  1.87  0.  0.  0.
189  1.88  0.  0.  0.
190  1.89  0.  0.  0.
191  1.90  0.  0.  0.
192  1.91  0.  0.  0.
193  1.92  0.  0.  0.
194  1.93  0.  0.  0.
195  1.94  0.  0.  0.
196  1.95  0.  0.  0.
197  1.96  0.  0.  0.
198  1.97  0.  0.  0.
199  1.98  0.  0.  0.
200  1.99  0.  0.  0.
201  2.00  0.  0.  0.
202  2.01  0.  0.  0.
203  2.02  0.  0.  0.
204  2.03  0.  0.  0.
205  2.04  0.  0.  0.
206  2.05  0.  0.  0.
207  2.06  0.  0.  0.
208  2.07  0.  0.  0.
209  2.08  0.  0.  0.
210  2.09  0.  0.  0.
211  2.10  0.  0.  0.
212  2.11  0.  0.  0.
213  2.12  0.  0.  0.
214  2.13  0.  0.  0.
215  2.14  0.  0.  0.
216  2.15  0.  0.  0.
217  2.16  0.  0.  0.
218  2.17  0.  0.  0.
219  2.18  0.  0.  0.
220  2.19  0.  0.  0.
221  2.20  0.  0.  0.
222  2.21  0.  0.  0.
223  2.22  0.  0.  0.
224  2.23  0.  0.  0.
225  2.24  0.  0.  0.
226  2.25  0.  0.  0.
227  2.26  0.  0.  0.
228  2.27  0.  0.  0.
229  2.28  0.  0.  0.
230  2.29  0.  0.  0.
231  2.30  0.  0.  0.
232  2.31  0.  0.  0.
233  2.32  0.  0.  0.
234  2.33  0.  0.  0.
235  2.34  0.  0.  0.
236  2.35  0.  0.  0.
237  2.36  0.  0.  0.
238  2.37  0.  0.  0.
239  2.38  0.  0.  0.
240  2.39  0.  0.  0.
241  2.40  0.  0.  0.
242  2.41  0.  0.  0.
243  2.42  0.  0.  0.
244  2.43  0.  0.  0.
245  2.44  0.  0.  0.
246  2.45  0.  0.  0.
247  2.46  0.  0.  0.
248  2.47  0.  0.  0.
249  2.48  0.  0.  0.
250  2.49  0.  0.  0.
251  2.50  0.  0.  0.
252  2.51  0.  0.  0.
253  2.52  0.  0.  0.
254  2.53  0.  0.  0.
255  2.54  0.  0.  0.
256  2.55  0.  0.  0.
257  2.56  0.  0.  0.
258  2.57  0.  0.  0.
259  2.58  0.  0.  0.
260  2.59  0.  0.  0.
261  2.60  0.  0.  0.
262  2.61  0.  0.  0.
263  2.62  0.  0.  0.
264  2.63  0.  0.  0.
265  2.64  0.  0.  0.
266  2.65  0.  0.  0.
267  2.66  0.  0.  0.
268  2.67  0.  0.  0.
269  2.68  0.  0.  0.
270  2.69  0.  0.  0.
271  2.70  0.  0.  0.
272  2.71  0.  0.  0.
273  2.72  0.  0.  0.
274  2.73  0.  0.  0.
275  2.74  0.  0.  0.
276  2.75  0.  0.  0.
277  2.76  0.  0.  0.
278  2.77  0.  0.  0.
279  2.78  0.  0.  0.
280  2.79  0.  0.  0.
281  2.80  0.  0.  0.
282  2.81  0.  0.  0.
283  2.82  0.  0.  0.
284  2.83  0.  0.  0.
285  2.84  0.  0.  0.
286  2.85  0.  0.  0.
287  2.86  0.  0.  0.
288  2.87  0.  0.  0.
289  2.88  0.  0.  0.
290  2.89  0.  0.  0.
291  2.90  0.  0.  0.
292  2.91  0.  0.  0.
293  2.92  0.  0.  0.
294  2.93  0.  0.  0.
295  2.94  0.  0.  0.
296  2.95  0.  0.  0.
297  2.96  0.  0.  0.
298  2.97  0.  0.  0.
299  2.98  0.  0.  0.
300  2.99  0.  0.  0.
301  3.00  0.  0.  0.
302  3.01  0.  0.  0.
303  3.02  0.  0.  0.
304  3.03  0.  0.  0.
305  3.04  0.  0.  0.
306  3.05  0.  0.  0.
307  3.06  0.  0.  0.
308  3.07  0.  0.  0.
309  3.08  0.  0.  0.
310  3.09  0.  0.  0.
311  3.10  0.  0.  0.
312  3.11  0.  0.  0.
313  3.12  0.  0.  0.
314  3.13  0.  0.  0.
315  3.14  0.  0.  0.
316  3.15  0.  0.  0.
317  3.16  0.  0.  0.
318  3.17  0.  0.  0.
319  3.18  0.  0.  0.
320  3.19  0.  0.  0.
321  3.20  0.  0.  0.
322  3.21  0.  0.  0.
323  3.22  0.  0.  0.
324  3.23  0.  0.  0.
325  3.24  0.  0.  0.
326  3.25  0.  0.  0.
327  3.26  0.  0.  0.
328  3.27  0.  0.  0.
329  3.28  0.  0.  0.
330  3.29  0.  0.  0.
331  3.30  0.  0.  0.
332  3.31  0.  0.  0.
333  3.32  0.  0.  0.
334  3.33  0.  0.  0.
335  3.34  0.  0.  0.
336  3.35  0.  0.  0.
337  3.36  0.  0.  0.
338  3.37  0.  0.  0.
339  3.38  0.  0.  0.
340  3.39  0.  0.  0.
341  3.40  0.  0.  0.
342  3.41  0.  0.  0.
343  3.42  0.  0.  0.
344  3.43  0.  0.  0.
345  3.44  0.  0.  0.
346  3.45  0.  0.  0.
347  3.46  0.  0.  0.
348  3.47  0.  0.  0.
349  3.48  0.  0.  0.
350  3.49  0.  0.  0.
351  3.50  0.  0.  0.
352  3.51  0.  0.  0.
353  3.52  0.  0.  0.
354  3.53  0.  0.  0.
355  3.54  0.  0.  0.
356  3.55  0.  0.  0.
357  3.56  0.  0.  0.
358  3.57  0.  0.  0.
359  3.58  0.  0.  0.
360  3.59  0.  0.  0.
361  3.60  0.  0.  0.
362  3.61  0.  0.  0.
363  3.62  0.  0.  0.
364  3.63  0.  0.  0.
365  3.64  0.  0.  0.
366  3.65  0.  0.  0.
367  3.66  0.  0.  0.
368  3.67  0.  0.  0.
369  3.68  0.  0.  0.
370  3.69  0.  0.  0.
371  3.70  0.  0.  0.
372  3.71  0.  0.  0.
373  3.72  0.  0.  0.
374  3.73  0.  0.  0.
375  3.74  0.  0.  0.
376  3.75  0.  0.  0.
377  3.76  0.  0.  0.
378  3.77  0.  0.  0.
379  3.78  0.  0.  0.
380  3.79  0.  0.  0.
381  3.80  0.  0.  0.
382  3.81  0.  0.  0.
383  3.82  0.  0.  0.
384  3.83  0.  0.  0.
385  3.84  0.  0.  0.
386  3.85  0.  0.  0.
387  3.86  0.  0.  0.
388  3.87  0.  0.  0.
389  3.88  0.  0.  0.
390  3.89  0.  0.  0.
391  3.90  0.  0.  0.
392  3.91  0.  0.  0.
393  3.92  0.  0.  0.
394  3.93  0.  0.  0.
395  3.94  0.  0.  0.
396  3.95  0.  0.  0.
397  3.96  0.  0.  0.
398  3.97  0.  0.  0.
399  3.98  0.  0.  0.
400  3.99  0.  0.  0.
401  4.00  0.  0.  0.
402  4.01  0.  0.  0.
403  4.02  0.  0.  0.
404  4.03  0.  0.  0.
405  4.04  0.  0.  0.
406  4.05  0.  0.  0.
407  4.06  0.  0.  0.
408  4.07  0.  0.  0.
409  4.08  0.  0.  0.
410  4.09  0.  0.  0.
411  4.10  0.  0.  0.
412  4.11  0.  0.  0.
413  4.12  0.  0.  0.
414  4.13  0.  0.  0.
415  4.14  0.  0.  0.
416  4.15  0.  0.  0.
417  4.16  0.  0.  0.
418  4.17  0.  0.  0.
419  4.18  0.  0.  0.
420  4.19  0.  0.  0.
421  4.20  0.  0.  0.
422  4.21  0.  0.  0.
423  4.22  0.  0.  0.
424  4.23  0.  0.  0.
425  4.24  0.  0.  0.
426  4.25  0.  0.  0.
427  4.26  0.  0.  0.
428  4.27  0.  0.  0.
429  4.28  0.  0.  0.
430  4.29  0.  0.  0.
431  4.30  0.  0.  0.
432  4.31  0.  0.  0.
433  4.32  0.  0.  0.
434  4.33  0.  0.  0.
435  4.34  0.  0.  0.
436  4.35  0.  0.  0.
437  4.36  0.  0.  0.
438  4.37  0.  0.  0.
439  4.38  0.  0.  0.
440  4.39  0.  0.  0.
441  4.40  0.  0.  0.
442  4.41  0.  0.  0.
443  4.42  0.  0.  0.
444  4.43  0.  0.  0.
445  4.44  0.  0.  0.
446  4.45  0.  0.  0.
447  4.46  0.  0.  0.
448  4.47  0.  0.  0.
449  4.48  0.  0.  0.
450  4.49  0.  0.  0.
451  4.50  0.  0.  0.
452  4.51  0.  0.  0.
453  4.52  0.  0.  0.
454  4.53  0.  0.  0.
455  4.54  0.  0.  0.
456  4.55  0.  0.  0.
457  4.56  0.  0.  0.
458  4.57  0.  0.  0.
459  4.58  0.  0.  0.
460  4.59  0.  0.  0.
461  4.60  0.  0.  0.
462  4.61  0.  0.  0.
463  4.62  0.  0.  0.
464  4.63  0.  0.  0.
465  4.64  0.  0.  0.
466  4.65  0.  0.  0.
467  4.66  0.  0.  0.
468  4.67  0.  0.  0.
469  4.68  0.  0.  0.
470  4.69  0.  0.  0.
471  4.70  0.  0.  0.
472  4.71  0.  0.  0.
473  4.72  0.  0.  0.
474  4.73  0.  0.  0.
475  4.74  0.  0.  0.
476  4.75  0.  0.  0.
477  4.76  0.  0.  0.
478  4.77  0.  0.  0.
479  4.78  0.  0.  0.
480  4.79  0.  0.  0.
481  4.80  0.  0.  0.
482  4.81  0.  0.  0.
483  4.82  0.  0.  0.
484  4.83  0.  0.  0.
485  4.84  0.  0.  0.
486  4.85  0.  0.  0.
487  4.86  0.  0.  0.
488  4.87  0.  0.  0.
489  4.88  0.  0.  0.
490  4.89  0.  0.  0.
491  4.90  0.  0.  0.
492  4.91  0.  0.  0.
493  4.92  0.  0.  0.
494  4.93  0.  0.  0.
495  4.94  0.  0.  0.
496  4.95  0.  0.  0.
497  4.96  0.  0.  0.
498  4.97  0.  0.  0.
499  4.98  0.  0.  0.
500  4.99  0.  0.  0.
501  5.00  0.  0.  0.
502  5.01  0.  0.  0.
503  5.02  0.  0.  0.
504  5.03  0.  0.  0.
505  5.04  0.  0.  0.
506  5.05  0.  0.  0.
507  5.06  0.  0.  0.
508  5.07  0.  0.  0.
509  5.08  0.  0.  0.
510  5.09  0.  0.  0.
511  5.10  0.  0.  0.
512  5.11  0.  0.  0.
513  5.12  0.  0.  0.
514  5.13  0.  0.  0.
515  5.14  0.  0.  0.
516  5.15  0.  0.  0.
517  5.16  0.  0.  0.
518  5.17  0.  0.  0.
519  5.18  0.  0.  0.
520  5.19  0.  0.  0.
521  5.20  0.  0.  0.
522  5.21  0.  0.  0.
523  5.22  0.  0.  0.
524  5.23  0.  0.  0.
525  5.24  0.  0.  0.
526  5.25  0.  0.  0.
527  5.26  0.  0.  0.
528  5.27  0.  0.  0.
529  5.28  0.  0.  0.
530  5.29  0.  0.  0.
531  5.30  0.  0.  0.
532  5.31  0.  0.  0.
533  5.32  0.  0.  0.
534  5.33  0.  0.  0.
535  5.34  0.  0.  0.
536  5.35  0.  0.  0.
537  5.36  0.  0.  0.
538  5.37  0.  0.  0.
539  5.38  0.  0.  0.
540  5.39  0.  0.  0.
541  5.40  0.  0.  0.
542  5.41  0.  0.  0.
543  5.42  0.  0.  0.
544  5.43  0.  0.  0.
545  5.44  0.  0.  0.
546  5.45  0.  0.  0.
547  5.46  0.  0.  0.
548  5.47  0.  0.  0.
549  5.48  0.  0.  0.
550  5.49  0.  0.  0.
551  5.50  0.  0.  0.
552  5.51  0.  0.  0.
553  5.52  0.  0.  0.
554  5.53  0.  0.  0.
555  5.54  0.  0.  0.
556  5.55  0.  0.  0.
557  5.56  0.  0.  0.
558  5.57  0.  0.  0.
559  5.58  0.  0.  0.
560  5.59  0.  0.  0.
561  5.60  0.  0.  0.
562  5.61  0.  0.  0.
563  5.62  0.  0.  0.
564  5.63  0.  0.  0.
565  5.64  0.  0.  0.
566  5.65  0.  0.  0.
567  5.66  0.  0.  0.
568  5.67  0.  0.  0.
569  5.68  0.  0.  0.
570  5.69  0.  0.  0.
571  5.70  0.  0.  0.
572  5.71  0.  0.  0.
573  5.72  0.  0.  0.
574  5.73  0.  0.  0.
575  5.74  0.  0.  0.
576  5.75  0.  0.  0.
577  5.76  0.  0.  0.
578  5.77  0.  0.  0.
579  5.78  0.  0.  0.
580  5.79  0.  0.  0.
581  5.80  0.  0.  0.
582  5.81  0.  0.  0.
583  5.82  0.  0.  0.
584  5.83  0.  0.  0.
585  5.84  0.  0.  0.
586  5.85  0.  0.  0.
587  5.86  0.  0.  0.
588  5.87  0.  0.  0.
589  5.88  0.  0.  0.
590  5.89  0.  0.  0.
591  5.90  0.  0.  0.
592  5.91  0.  0.  0.
593  5.92  0.  0.  0.
594  5.93  0.  0.  0.
595  5.94  0.  0.  0.
596  5.95  0.  0.  0.
597  5.96  0.  0.  0.
598  5.97  0.  0.  0.
599  5.98  0.  0.  0.
600  5.99  0.  0.  0.
1                         5.1137765185937E+00 -2.2504861312137E+00
1  0.0000000000000E+00 -3.9625485448447E-08 -8.0414123623807E-09
2  1.0000000000000E-02  2.9678968072078E-03  3.3509774333169E-04
3  2.0000000000000E-02  1.1867042105285E-02  1.3462631609649E-03
4  3.0000000000000E-02  2.6683172092905E-02  3.0509375290953E-03
5  4.0000000000000E-02  4.7390445881716E-02  5.4776106797108E-03
6  5.0000000000000E-02  7.3948436836849E-02  8.6649710338347E-03
7  6.0000000000000E-02  1.0629810350969E-01  1.2660751993015E-02
8  7.0000000000000E-02  1.4435691566516E-01  1.7520309638241E-02
9  8.0000000000000E-02  1.8801335053122E-01  2.3304974726877E-02
10  9.0000000000000E-02  2.3712100660418E-01  3.0080228647525E-02
11  1.0000000000000E-01  2.9149260598298E-01  3.7913758076592E-02
12  1.1000000000000E-01  3.5089417041057E-01  4.6873446416676E-02
13  1.2000000000000E-01  4.1503966040629E-01  5.7025361578970E-02
14  1.3000000000000E-01  4.8358636084253E-01  6.8431799252980E-02
15  1.4000000000000E-01  5.5613128014645E-01  8.1149438500383E-02
16  1.5000000000000E-01  6.3220880442368E-01  9.5227662391419E-02
17  1.6000000000000E-01  7.1128981295283E-01  1.1070709060424E-01
18  1.7000000000000E-01  7.9278241873853E-01  1.2761836361891E-01
19  1.8000000000000E-01  8.7603444844984E-01  1.4598120959416E-01
20  1.9000000000000E-01  9.6033772165401E-01  1.6580381549498E-01
21  2.0000000000000E-01  1.0449341315042E+00  1.8708251385288E-01
22  2.1000000000000E-01  1.1290234698012E+00  2.0980178602175E-01
23  2.2000000000000E-01  1.2117728805374E+00  2.3393457228613E-01
24  2.3000000000000E-01  1.2923277695712E+00  2.5944286903190E-01
25  2.4000000000000E-01  1.3698239458351E+00  2.8627858373917E-01
26  2.5000000000000E-01  1.4434007232078E+00  3.1438461011866E-01
27  2.6000000000000E-01  1.5122146734641E+00  3.4369607857077E-01
28  2.7000000000000E-01  1.5754536909101E+00  3.7414173154552E-01
29  2.8000000000000E-01  1.6323510095105E+00  4.0564536951548E-01
30  2.9000000000000E-01  1.6821988043088E+00  4.3812731128283E-01
31  3.0000000000000E-01  1.7243610111700E+00  4.7150581230487E-01
32  3.1000000000000E-01  1.7582850124512E+00  5.0569838665457E-01
33  3.2000000000000E-01  1.7835118608613E+00  5.4062298208388E-01
34  3.3000000000000E-01  1.7996847488942E+00  5.7619896331614E-01
35  3.4000000000000E-01  1.8065554758614E+00  6.1234786598275E-01
36  3.5000000000000E-01  1.8039887174371E+00  6.4899389231120E-01
37  3.6000000000000E-01  1.7919639622299E+00  6.8606412948523E-01
38  3.7000000000000E-01  1.7705750444244E+00  7.2348848221443E-01
39  3.8000000000000E-01  1.7400272690585E+00  7.6119932211984E-01
40  3.9000000000000E-01  1.7006321949350E+00  7.9913086769311E-01
41  4.0000000000000E-01  1.6528002074018E+00  8.3721831944201E-01
42  4.1000000000000E-01  1.5970310771515E+00  8.7539678502071E-01
43  4.2000000000000E-01  1.5339027597729E+00  9.1360003830115E-01
44  4.3000000000000E-01  1.4640587421324E+00  9.5175916414396E-01
45  4.4000000000000E-01  1.3881942841113E+00  9.8980114678248E-01
46  4.5000000000000E-01  1.3070419363438E+00  1.0276474640023E+00
47  4.6000000000000E-01  1.2213567352874E+00  1.0652127514986E+00
48  4.7000000000000E-01  1.1319014854583E+00  1.1024036018057E+00
49  4.8000000000000E-01  1.0394325345832E+00  1.1391175599714E+00
50  4.9000000000000E-01  9.4468643078221E-01  1.1752423737160E+00
51  5.0000000000000E-01  8.4836782210279E-01  1.2106555492696E+00
52  5.1000000000000E-01  7.5113891857298E-01  1.2452242555902E+00
53  5.2000000000000E-01  6.5361078660921E-01  1.2788056094644E+00
54  5.3000000000000E-01  5.5633668659405E-01  1.3112473623744E+00
55  5.4000000000000E-01  4.5980759854045E-01  1.3423889973341E+00
56  5.5000000000000E-01  3.6445001001537E-01  1.3720632305314E+00
57  5.6000000000000E-01  2.7062596712474E-01  1.4000978989919E+00
58  5.7000000000000E-01  1.7863531569001E-01  1.4263182020337E+00
59  5.8000000000000E-01  8.8719988135602E-02  1.4505492514492E+00
60  5.9000000000000E-01  1.0701243813082E-03  1.4726188735633E+00
61  6.0000000000000E-01 -8.4168245595686E-02  1.4923605959747E+00
62  6.1000000000000E-01 -1.6688428187266E-01  1.5096167432630E+00
63  6.2000000000000E-01 -2.4699254332483E-01  1.5242415595432E+00
64  6.3000000000000E-01 -3.2442272072004E-01  1.5361042717379E+00
65  6.4000000000000E-01 -3.9910930669697E-01  1.5450920059873E+00
66  6.5000000000000E-01 -4.7098161833325E-01  1.5511124708468E+00
67  6.6000000000000E-01 -5.3995457728447E-01  1.5540963248417E+00
68  6.7000000000000E-01 -6.0592062803597E-01  1.5539991525070E+00
69  6.8000000000000E-01 -6.6874313729214E-01  1.5508029820907E+00
70  6.9000000000000E-01 -7.2825156799062E-01  1.5445172894047E+00
71  7.0000000000000E-01 -7.8423866134657E-01  1.5351794455834E+00
72  7.1000000000000E-01 -8.3645979152495E-01  1.5228545813676E+00
73  7.2000000000000E-01 -8.8463458215502E-01  1.5076348565619E+00
74  7.3000000000000E-01 -9.2845079430623E-01  1.4896381400303E+00
75  7.4000000000000E-01 -9.6757041430599E-01  1.4690061225139E+00
76  7.5000000000000E-01 -1.0016377895230E+00  1.4459019011436E+00
77  7.6000000000000E-01 -1.0302895836202E+00  1.4205070902805E+00
78  7.7000000000000E-01 -1.0531662523669E+00  1.3930185277392E+00
79  7.8000000000000E-01 -1.0699246792965E+00  1.3636446580783E+00
80  7.9000000000000E-01 -1.0802515594654E+00  1.3326016850571E+00
81  8.0000000000000E-01 -1.0838770811673E+00  1.3001095932084E+00
82  8.1000000000000E-01 -1.0805884311568E+00  1.2663881434828E+00
83  8.2000000000000E-01 -1.0702426397670E+00  1.2316529498816E+00
84  8.3000000000000E-01 -1.0527782888622E+00  1.1961117428172E+00
85  8.4000000000000E-01 -1.0282256279005E+00  1.1599609205981E+00
86  8.5000000000000E-01 -9.9671468108950E-01  1.1233824830332E+00
87  8.6000000000000E-01 -9.5848098076158E-01  1.0865414308562E+00
88  8.7000000000000E-01 -9.1386862729295E-01  1.0495837017708E+00
89  8.8000000000000E-01 -8.6333045229537E-01  1.0126346987586E+00
90  8.9000000000000E-01 -8.0742514722400E-01  9.7579844931215E-01
91  9.0000000000000E-01 -7.4681131142336E-01  9.3915741594254E-01
92  9.1000000000000E-01 -6.8223846920986E-01  9.0277295920539E-01
93  9.2000000000000E-01 -6.1453520192792E-01  8.6668643515506E-01
94  9.3000000000000E-01 -5.4459463501787E-01  8.3092089016043E-01
95  9.4000000000000E-01 -4.7335760902177E-01  7.9548329796988E-01
96  9.5000000000000E-01 -4.0179394426820E-01  7.6036726735431E-01
97  9.6000000000000E-01 -3.3088227905816E-01  7.2555613410198E-01
98  9.7000000000000E-01 -2.6158901818278E-01  6.9102633904295E-01
99  9.8000000000000E-01 -1.9484697050236E-01  6.5675098454340E-01
100  9.9000000000000E-01 -1.3153427956233E-01  6.2270345583477E-01
101  1.0000000000000E+00 -7.2454258723101E-02  5.8886099084971E-01
102  1.0100000000000E+00 -1.8316731445830E-02  5.5520808304886E-01
103  1.0200000000000E+00  3.0278551842921E-02  5.2173960606160E-01
104  1.0300000000000E+00  7.2855895929936E-02  4.8846355673569E-01
105  1.0400000000000E+00  1.0907458158878E-01  4.5540332422634E-01
106  1.0500000000000E+00  1.3873634377688E-01  4.2259940677643E-01
107  1.0600000000000E+00  1.6178911854528E-01  3.9011051444657E-01
108  1.0700000000000E+00  1.7832687361130E-01  3.5801401487823E-01
109  1.0800000000000E+00  1.8858544922942E-01  3.2640569962729E-01
110  1.0900000000000E+00  1.9293445302687E-01  2.9539887018678E-01
111  1.1000000000000E+00  1.9186537183526E-01  2.6512276496566E-01
112  1.1100000000000E+00  1.8597618143860E-01  2.3572037049083E-01
113  1.1200000000000E+00  1.7595284944369E-01  2.0734568155351E-01
114  1.1300000000000E+00  1.6254823269716E-01  1.8016049508952E-01
115  1.1400000000000E+00  1.4655896748446E-01  1.5433084101355E-01
116  1.1500000000000E+00  1.2880103399526E-01  1.3002316923306E-01
117  1.1600000000000E+00  1.1008474541864E-01  1.0740042549628E-01
118  1.1700000000000E+00  9.1189983855044E-02  8.6618161154455E-02
119  1.1800000000000E+00  7.2842306594822E-02  6.7820805011483E-02
120  1.1900000000000E+00  5.5691745123005E-02  5.1138355387956E-02