Pu    ONCVPSP-4.0.1  r_core=   1.10639   1.10639   1.25449   1.25449
94.0000     34.0000      220325    zatom,zion,pspd
8      11   3     4   600     0    pspcod,pspxc,lmax,lloc,mmax,r2well
5.99000000  5.00000000  0.00000000    rchrg fchrg qchrg
3     2     2     2     0    nproj
1     1           extension_switch
0                         5.9693222449548E+01  5.3241413185432E+00 -1.1461780338821E+00
1  0.0000000000000E+00 -2.6518473505988E-07  7.1386305877663E-07  5.7832833966209E-08
2  1.0000000000000E-02  1.8677329568615E-01 -1.1106928157241E-01  1.6860596458715E-02
3  2.0000000000000E-02  3.7157808798634E-01 -2.1872410172066E-01  3.3787715862083E-02
4  3.0000000000000E-02  5.5249311994410E-01 -3.1966693464018E-01  5.0840000720219E-02
5  4.0000000000000E-02  7.2768986487516E-01 -4.1082942206890E-01  6.8060717865193E-02
6  5.0000000000000E-02  8.9547455908309E-01 -4.8947539710211E-01  8.5471017552641E-02
7  6.0000000000000E-02  1.0543252398179E+00 -5.5329058550933E-01  1.0306428463611E-01
8  7.0000000000000E-02  1.2029224543988E+00 -6.0045543420441E-01  1.2080187399276E-01
9  8.0000000000000E-02  1.3401725716065E+00 -6.2969823038269E-01  1.3861046454620E-01
10  9.0000000000000E-02  1.4652229358844E+00 -6.4032650793437E-01  1.5638119844733E-01
11  1.0000000000000E-01  1.5774684452726E+00 -6.3223565433176E-01  1.7397069697335E-01
12  1.1000000000000E-01  1.6765494907245E+00 -6.0589459200179E-01  1.9120396551323E-01
13  1.2000000000000E-01  1.7623415522067E+00 -5.6230937204380E-01  2.0787911982054E-01
14  1.3000000000000E-01  1.8349370904124E+00 -5.0296644374373E-01  2.2377378776892E-01
15  1.4000000000000E-01  1.8946206872976E+00 -4.2975821103635E-01  2.3865296828632E-01
16  1.5000000000000E-01  1.9418386605189E+00 -3.4489422060815E-01  2.5227806490309E-01
17  1.6000000000000E-01  1.9771645945896E+00 -2.5080191435331E-01  2.6441675802403E-01
18  1.7000000000000E-01  2.0012623858927E+00 -1.5002129633028E-01  2.7485333978307E-01
19  1.8000000000000E-01  2.0148484830741E+00 -4.5098093496131E-02  2.8339910979912E-01
20  1.9000000000000E-01  2.0186550152661E+00  6.1519979296860E-02  2.8990242036963E-01
21  2.0000000000000E-01  2.0133954377568E+00  1.6757940731505E-01  2.9425796603030E-01
22  2.1000000000000E-01  1.9997341909817E+00  2.7110543346851E-01  2.9641493475044E-01
23  2.2000000000000E-01  1.9782616700244E+00  3.7047143675869E-01  2.9638367545852E-01
24  2.3000000000000E-01  1.9494755469426E+00  4.6445027029156E-01  2.9424058764161E-01
25  2.4000000000000E-01  1.9137691883760E+00  5.5224550712537E-01  2.9013100143649E-01
26  2.5000000000000E-01  1.8714275792225E+00  6.3350143901136E-01  2.8426988847239E-01
27  2.6000000000000E-01  1.8226308142076E+00  7.0829161806817E-01  2.7694032192434E-01
28  2.7000000000000E-01  1.7674648682524E+00  7.7708668351687E-01  2.6848968573509E-01
29  2.8000000000000E-01  1.7059390190298E+00  8.4070313346647E-01  2.5932371459142E-01
30  2.9000000000000E-01  1.6380089858217E+00  9.0023554545499E-01  2.4989852482910E-01
31  3.0000000000000E-01  1.5636045813379E+00  9.5697548239749E-01  2.4071086896281E-01
32  3.1000000000000E-01  1.4826604593092E+00  1.0123209108846E+00  2.3228691021893E-01
33  3.2000000000000E-01  1.3951483898736E+00  1.0676803807758E+00  2.2516986588412E-01
34  3.3000000000000E-01  1.3011094137469E+00  1.1243764503555E+00  2.1990690752456E-01
35  3.4000000000000E-01  1.2006842185699E+00  1.1835528797497E+00  2.1703573077094E-01
36  3.5000000000000E-01  1.0941401471378E+00  1.2460899551037E+00  2.1707121657900E-01
37  3.6000000000000E-01  9.8189338467477E-01  1.3125319541742E+00  2.2049259946304E-01
38  3.7000000000000E-01  8.6452507506746E-01  1.3830302357213E+00  2.2773153657452E-01
39  3.8000000000000E-01  7.4279037529857E-01  1.4573047533654E+00  2.3916143567457E-01
40  3.9000000000000E-01  6.1761976202860E-01  1.5346259889831E+00  2.5508835159372E-01
41  4.0000000000000E-01  4.9011224117581E-01  1.6138184062855E+00  2.7574370173501E-01
42  4.1000000000000E-01  3.6152046584981E-01  1.6932855807537E+00  3.0127898399815E-01
43  4.2000000000000E-01  2.3322812470554E-01  1.7710562086654E+00  3.3176260792345E-01
44  4.3000000000000E-01  1.0672030621639E-01  1.8448492768991E+00  3.6717887478290E-01
45  4.4000000000000E-01 -1.6452140406694E-02  1.9121558265119E+00  4.0742906775394E-01
46  4.5000000000000E-01 -1.3471295362005E-01  1.9703340035652E+00  4.5233454210313E-01
47  4.6000000000000E-01 -2.4650400374828E-01  2.0167134923041E+00  5.0164164019964E-01
48  4.7000000000000E-01 -3.5033036332961E-01  2.0487049944545E+00  5.5502819960372E-01
49  4.8000000000000E-01 -4.4480514800757E-01  2.0639101726246E+00  6.1211137647078E-01
50  4.9000000000000E-01 -5.2869236035571E-01  2.0602274260330E+00  6.7245647264881E-01
51  5.0000000000000E-01 -6.0094603150670E-01  2.0359490150044E+00  7.3558643417900E-01
52  5.1000000000000E-01 -6.6074408974498E-01  1.9898453901320E+00  8.0099168191793E-01
53  5.2000000000000E-01 -7.0751558555211E-01  1.9212330977941E+00  8.6813994160622E-01
54  5.3000000000000E-01 -7.4096016033488E-01  1.8300233032244E+00  9.3648576026875E-01
55  5.4000000000000E-01 -7.6105895012974E-01  1.7167487663838E+00  1.0054794271785E+00
56  5.5000000000000E-01 -7.6807645292460E-01  1.5825679900188E+00  1.0745750591216E+00
57  5.6000000000000E-01 -7.6255324442171E-01  1.4292461952589E+00  1.1432376593426E+00
58  5.7000000000000E-01 -7.4528978690116E-01  1.2591137275976E+00  1.2109490150126E+00
59  5.8000000000000E-01 -7.1732192407618E-01  1.0750034145681E+00  1.2772123568338E+00
60  5.9000000000000E-01 -6.7988897677164E-01  8.8016924673234E-01  1.3415557638824E+00
61  6.0000000000000E-01 -6.3439563649263E-01  6.7818949994699E-01  1.4035343544239E+00
62  6.1000000000000E-01 -5.8236908484261E-01  4.7285802812612E-01  1.4627313567864E+00
63  6.2000000000000E-01 -5.2541293702899E-01  2.6806790697696E-01  1.5187582012454E+00
64  6.3000000000000E-01 -4.6515971075682E-01  6.7691882629929E-02  1.5712538123965E+00
65  6.4000000000000E-01 -4.0322355408058E-01 -1.2453583510024E-01  1.6198833101984E+00
66  6.5000000000000E-01 -3.4115492676668E-01 -3.0513199850828E-01  1.6643363457383E+00
67  6.6000000000000E-01 -2.8039882205939E-01 -4.7096681645369E-01  1.7043253042921E+00
68  6.7000000000000E-01 -2.2225794502155E-01 -6.1935282093143E-01  1.7395836033769E+00
69  6.8000000000000E-01 -1.6786203813277E-01 -7.4811700916009E-01  1.7698642977109E+00
70  6.9000000000000E-01 -1.1814427509963E-01 -8.5565388282565E-01  1.7949391772185E+00
71  7.0000000000000E-01 -7.3825342241073E-02 -9.4095780985570E-01  1.8145985097866E+00
72  7.1000000000000E-01 -3.5405506853787E-02 -1.0036339875023E+00  1.8286515390785E+00
73  7.2000000000000E-01 -3.1646478024696E-03 -1.0438881509010E+00  1.8369278012844E+00
74  7.3000000000000E-01  2.2830090784697E-02 -1.0624960113366E+00  1.8392792753488E+00
75  7.4000000000000E-01  4.2709653005867E-02 -1.0607541873991E+00  1.8355833311747E+00
76  7.5000000000000E-01  5.6782318135617E-02 -1.0404150779365E+00  1.8257463917267E+00
77  7.6000000000000E-01  6.5507937868639E-02 -1.0036086906902E+00  1.8097081799221E+00
78  7.7000000000000E-01  6.9468417885400E-02 -9.5275486329446E-01  1.7874463815810E+00
79  7.8000000000000E-01  6.9335796256829E-02 -8.9046957935545E-01  1.7589815231123E+00
80  7.9000000000000E-01  6.5839308424532E-02 -8.1946918438824E-01  1.7243818383176E+00
81  8.0000000000000E-01  5.9732804740786E-02 -7.4247624488276E-01  1.6837678836097E+00
82  8.1000000000000E-01  5.1763804921448E-02 -6.6213057652278E-01  1.6373166555822E+00
83  8.2000000000000E-01  4.2645339915727E-02 -5.8090860929868E-01  1.5852649693337E+00
84  8.3000000000000E-01  3.3031553561917E-02 -5.0105377871017E-01  1.5279118699869E+00
85  8.4000000000000E-01  2.3497823727639E-02 -4.2452005912310E-01  1.4656198727969E+00
86  8.5000000000000E-01  1.4525926503489E-02 -3.5293011689679E-01  1.3988148581947E+00
87  8.6000000000000E-01  6.4945192451653E-03 -2.8754888844983E-01  1.3279844858518E+00
88  8.7000000000000E-01 -3.2502919244362E-04 -2.2927271379358E-01  1.2536750350141E+00
89  8.8000000000000E-01 -5.7676683098882E-03 -1.7863350990905E-01  1.1764866254583E+00
90  8.9000000000000E-01 -9.7689765116258E-03 -1.3581687869965E-01  1.0970668229598E+00
91  9.0000000000000E-01 -1.2355355053965E-02 -1.0069253512019E-01  1.0161026836593E+00
92  9.1000000000000E-01 -1.3630852067614E-02 -7.2855031185934E-02  9.3431134184974E-01
93  9.2000000000000E-01 -1.3761464580542E-02 -5.1672453539133E-02  8.5242929428787E-01
94  9.3000000000000E-01 -1.2957823020364E-02 -3.6340591857567E-02  7.7120058026226E-01
95  9.4000000000000E-01 -1.1457175219861E-02 -2.5940011354421E-02  6.9136409964686E-01
96  9.5000000000000E-01 -9.5055588630528E-03 -1.9493506549392E-02  6.1364035068662E-01
97  9.6000000000000E-01 -7.3409885374083E-03 -1.6021550195935E-02  5.3871790523600E-01
98  9.7000000000000E-01 -5.1783942568300E-03 -1.4593559639358E-02  4.6723997186550E-01
99  9.8000000000000E-01 -3.1969427083462E-03 -1.4373056401827E-02  3.9979142716572E-01
100  9.9000000000000E-01 -1.5302621770445E-03 -1.4655063078938E-02  3.3688672351549E-01
101  1.0000000000000E+00 -2.5998986041479E-04 -1.4894331343779E-02  2.7895910848195E-01
102  1.0100000000000E+00  5.8702083859753E-04 -1.4723191663362E-02  2.2635161806499E-01
103  1.0200000000000E+00  1.0375421078450E-03 -1.3957924166790E-02  1.7931033437597E-01
104  1.0300000000000E+00  1.1665838064523E-03 -1.2592568725094E-02  1.3798043188941E-01
105  1.0400000000000E+00  1.0869753917932E-03 -1.0777787462613E-02  1.0240547605506E-01
106  1.0500000000000E+00  9.3606755191163E-04 -8.7896591357482E-03  7.2531117030510E-02
107  1.0600000000000E+00  6.0123185956545E-04 -6.3488598418547E-03  4.8160175654001E-02
108  1.0700000000000E+00  6.4248445119786E-05 -3.4623656066734E-03  2.9041829176294E-02
109  1.0800000000000E+00 -2.9364258233003E-04 -1.1744224638918E-03  1.4963709146279E-02
110  1.0900000000000E+00 -3.1230976399208E-04 -1.9699499067153E-05  5.6614560475368E-03
111  1.1000000000000E+00 -9.0377164791317E-05  9.5216323480977E-05  8.4818337631403E-04
112  1.1100000000000E+00  5.9626266665894E-06 -8.4734799975810E-06 -3.9230340853659E-05
113  1.1200000000000E+00  4.1027472269994E-08 -4.2646797511582E-08 -3.8806455818361E-07
114  1.13 -0.  0. -0.
115  1.14  0.  0.  0.
116  1.15  0.  0.  0.
117  1.16  0.  0.  0.
118  1.17  0.  0.  0.
119  1.18  0.  0.  0.
120  1.19  0.  0.  0.
121  1.20  0.  0.  0.
122  1.21  0.  0.  0.
123  1.22  0.  0.  0.
124  1.23  0.  0.  0.
125  1.24  0.  0.  0.
126  1.25  0.  0.  0.
127  1.26  0.  0.  0.
128  1.27  0.  0.  0.
129  1.28  0.  0.  0.
130  1.29  0.  0.  0.
131  1.30  0.  0.  0.
132  1.31  0.  0.  0.
133  1.32  0.  0.  0.
134  1.33  0.  0.  0.
135  1.34  0.  0.  0.
136  1.35  0.  0.  0.
137  1.36  0.  0.  0.
138  1.37  0.  0.  0.
139  1.38  0.  0.  0.
140  1.39  0.  0.  0.
141  1.40  0.  0.  0.
142  1.41  0.  0.  0.
143  1.42  0.  0.  0.
144  1.43  0.  0.  0.
145  1.44  0.  0.  0.
146  1.45  0.  0.  0.
147  1.46  0.  0.  0.
148  1.47  0.  0.  0.
149  1.48  0.  0.  0.
150  1.49  0.  0.  0.
151  1.50  0.  0.  0.
152  1.51  0.  0.  0.
153  1.52  0.  0.  0.
154  1.53  0.  0.  0.
155  1.54  0.  0.  0.
156  1.55  0.  0.  0.
157  1.56  0.  0.  0.
158  1.57  0.  0.  0.
159  1.58  0.  0.  0.
160  1.59  0.  0.  0.
161  1.60  0.  0.  0.
162  1.61  0.  0.  0.
163  1.62  0.  0.  0.
164  1.63  0.  0.  0.
165  1.64  0.  0.  0.
166  1.65  0.  0.  0.
167  1.66  0.  0.  0.
168  1.67  0.  0.  0.
169  1.68  0.  0.  0.
170  1.69  0.  0.  0.
171  1.70  0.  0.  0.
172  1.71  0.  0.  0.
173  1.72  0.  0.  0.
174  1.73  0.  0.  0.
175  1.74  0.  0.  0.
176  1.75  0.  0.  0.
177  1.76  0.  0.  0.
178  1.77  0.  0.  0.
179  1.78  0.  0.  0.
180  1.79  0.  0.  0.
181  1.80  0.  0.  0.
182  1.81  0.  0.  0.
183  1.82  0.  0.  0.
184  1.83  0.  0.  0.
185  1.84  0.  0.  0.
186  1.85  0.  0.  0.
187  1.86  0.  0.  0.
188  1.87  0.  0.  0.
189  1.88  0.  0.  0.
190  1.89  0.  0.  0.
191  1.90  0.  0.  0.
192  1.91  0.  0.  0.
193  1.92  0.  0.  0.
194  1.93  0.  0.  0.
195  1.94  0.  0.  0.
196  1.95  0.  0.  0.
197  1.96  0.  0.  0.
198  1.97  0.  0.  0.
199  1.98  0.  0.  0.
200  1.99  0.  0.  0.
201  2.00  0.  0.  0.
202  2.01  0.  0.  0.
203  2.02  0.  0.  0.
204  2.03  0.  0.  0.
205  2.04  0.  0.  0.
206  2.05  0.  0.  0.
207  2.06  0.  0.  0.
208  2.07  0.  0.  0.
209  2.08  0.  0.  0.
210  2.09  0.  0.  0.
211  2.10  0.  0.  0.
212  2.11  0.  0.  0.
213  2.12  0.  0.  0.
214  2.13  0.  0.  0.
215  2.14  0.  0.  0.
216  2.15  0.  0.  0.
217  2.16  0.  0.  0.
218  2.17  0.  0.  0.
219  2.18  0.  0.  0.
220  2.19  0.  0.  0.
221  2.20  0.  0.  0.
222  2.21  0.  0.  0.
223  2.22  0.  0.  0.
224  2.23  0.  0.  0.
225  2.24  0.  0.  0.
226  2.25  0.  0.  0.
227  2.26  0.  0.  0.
228  2.27  0.  0.  0.
229  2.28  0.  0.  0.
230  2.29  0.  0.  0.
231  2.30  0.  0.  0.
232  2.31  0.  0.  0.
233  2.32  0.  0.  0.
234  2.33  0.  0.  0.
235  2.34  0.  0.  0.
236  2.35  0.  0.  0.
237  2.36  0.  0.  0.
238  2.37  0.  0.  0.
239  2.38  0.  0.  0.
240  2.39  0.  0.  0.
241  2.40  0.  0.  0.
242  2.41  0.  0.  0.
243  2.42  0.  0.  0.
244  2.43  0.  0.  0.
245  2.44  0.  0.  0.
246  2.45  0.  0.  0.
247  2.46  0.  0.  0.
248  2.47  0.  0.  0.
249  2.48  0.  0.  0.
250  2.49  0.  0.  0.
251  2.50  0.  0.  0.
252  2.51  0.  0.  0.
253  2.52  0.  0.  0.
254  2.53  0.  0.  0.
255  2.54  0.  0.  0.
256  2.55  0.  0.  0.
257  2.56  0.  0.  0.
258  2.57  0.  0.  0.
259  2.58  0.  0.  0.
260  2.59  0.  0.  0.
261  2.60  0.  0.  0.
262  2.61  0.  0.  0.
263  2.62  0.  0.  0.
264  2.63  0.  0.  0.
265  2.64  0.  0.  0.
266  2.65  0.  0.  0.
267  2.66  0.  0.  0.
268  2.67  0.  0.  0.
269  2.68  0.  0.  0.
270  2.69  0.  0.  0.
271  2.70  0.  0.  0.
272  2.71  0.  0.  0.
273  2.72  0.  0.  0.
274  2.73  0.  0.  0.
275  2.74  0.  0.  0.
276  2.75  0.  0.  0.
277  2.76  0.  0.  0.
278  2.77  0.  0.  0.
279  2.78  0.  0.  0.
280  2.79  0.  0.  0.
281  2.80  0.  0.  0.
282  2.81  0.  0.  0.
283  2.82  0.  0.  0.
284  2.83  0.  0.  0.
285  2.84  0.  0.  0.
286  2.85  0.  0.  0.
287  2.86  0.  0.  0.
288  2.87  0.  0.  0.
289  2.88  0.  0.  0.
290  2.89  0.  0.  0.
291  2.90  0.  0.  0.
292  2.91  0.  0.  0.
293  2.92  0.  0.  0.
294  2.93  0.  0.  0.
295  2.94  0.  0.  0.
296  2.95  0.  0.  0.
297  2.96  0.  0.  0.
298  2.97  0.  0.  0.
299  2.98  0.  0.  0.
300  2.99  0.  0.  0.
301  3.00  0.  0.  0.
302  3.01  0.  0.  0.
303  3.02  0.  0.  0.
304  3.03  0.  0.  0.
305  3.04  0.  0.  0.
306  3.05  0.  0.  0.
307  3.06  0.  0.  0.
308  3.07  0.  0.  0.
309  3.08  0.  0.  0.
310  3.09  0.  0.  0.
311  3.10  0.  0.  0.
312  3.11  0.  0.  0.
313  3.12  0.  0.  0.
314  3.13  0.  0.  0.
315  3.14  0.  0.  0.
316  3.15  0.  0.  0.
317  3.16  0.  0.  0.
318  3.17  0.  0.  0.
319  3.18  0.  0.  0.
320  3.19  0.  0.  0.
321  3.20  0.  0.  0.
322  3.21  0.  0.  0.
323  3.22  0.  0.  0.
324  3.23  0.  0.  0.
325  3.24  0.  0.  0.
326  3.25  0.  0.  0.
327  3.26  0.  0.  0.
328  3.27  0.  0.  0.
329  3.28  0.  0.  0.
330  3.29  0.  0.  0.
331  3.30  0.  0.  0.
332  3.31  0.  0.  0.
333  3.32  0.  0.  0.
334  3.33  0.  0.  0.
335  3.34  0.  0.  0.
336  3.35  0.  0.  0.
337  3.36  0.  0.  0.
338  3.37  0.  0.  0.
339  3.38  0.  0.  0.
340  3.39  0.  0.  0.
341  3.40  0.  0.  0.
342  3.41  0.  0.  0.
343  3.42  0.  0.  0.
344  3.43  0.  0.  0.
345  3.44  0.  0.  0.
346  3.45  0.  0.  0.
347  3.46  0.  0.  0.
348  3.47  0.  0.  0.
349  3.48  0.  0.  0.
350  3.49  0.  0.  0.
351  3.50  0.  0.  0.
352  3.51  0.  0.  0.
353  3.52  0.  0.  0.
354  3.53  0.  0.  0.
355  3.54  0.  0.  0.
356  3.55  0.  0.  0.
357  3.56  0.  0.  0.
358  3.57  0.  0.  0.
359  3.58  0.  0.  0.
360  3.59  0.  0.  0.
361  3.60  0.  0.  0.
362  3.61  0.  0.  0.
363  3.62  0.  0.  0.
364  3.63  0.  0.  0.
365  3.64  0.  0.  0.
366  3.65  0.  0.  0.
367  3.66  0.  0.  0.
368  3.67  0.  0.  0.
369  3.68  0.  0.  0.
370  3.69  0.  0.  0.
371  3.70  0.  0.  0.
372  3.71  0.  0.  0.
373  3.72  0.  0.  0.
374  3.73  0.  0.  0.
375  3.74  0.  0.  0.
376  3.75  0.  0.  0.
377  3.76  0.  0.  0.
378  3.77  0.  0.  0.
379  3.78  0.  0.  0.
380  3.79  0.  0.  0.
381  3.80  0.  0.  0.
382  3.81  0.  0.  0.
383  3.82  0.  0.  0.
384  3.83  0.  0.  0.
385  3.84  0.  0.  0.
386  3.85  0.  0.  0.
387  3.86  0.  0.  0.
388  3.87  0.  0.  0.
389  3.88  0.  0.  0.
390  3.89  0.  0.  0.
391  3.90  0.  0.  0.
392  3.91  0.  0.  0.
393  3.92  0.  0.  0.
394  3.93  0.  0.  0.
395  3.94  0.  0.  0.
396  3.95  0.  0.  0.
397  3.96  0.  0.  0.
398  3.97  0.  0.  0.
399  3.98  0.  0.  0.
400  3.99  0.  0.  0.
401  4.00  0.  0.  0.
402  4.01  0.  0.  0.
403  4.02  0.  0.  0.
404  4.03  0.  0.  0.
405  4.04  0.  0.  0.
406  4.05  0.  0.  0.
407  4.06  0.  0.  0.
408  4.07  0.  0.  0.
409  4.08  0.  0.  0.
410  4.09  0.  0.  0.
411  4.10  0.  0.  0.
412  4.11  0.  0.  0.
413  4.12  0.  0.  0.
414  4.13  0.  0.  0.
415  4.14  0.  0.  0.
416  4.15  0.  0.  0.
417  4.16  0.  0.  0.
418  4.17  0.  0.  0.
419  4.18  0.  0.  0.
420  4.19  0.  0.  0.
421  4.20  0.  0.  0.
422  4.21  0.  0.  0.
423  4.22  0.  0.  0.
424  4.23  0.  0.  0.
425  4.24  0.  0.  0.
426  4.25  0.  0.  0.
427  4.26  0.  0.  0.
428  4.27  0.  0.  0.
429  4.28  0.  0.  0.
430  4.29  0.  0.  0.
431  4.30  0.  0.  0.
432  4.31  0.  0.  0.
433  4.32  0.  0.  0.
434  4.33  0.  0.  0.
435  4.34  0.  0.  0.
436  4.35  0.  0.  0.
437  4.36  0.  0.  0.
438  4.37  0.  0.  0.
439  4.38  0.  0.  0.
440  4.39  0.  0.  0.
441  4.40  0.  0.  0.
442  4.41  0.  0.  0.
443  4.42  0.  0.  0.
444  4.43  0.  0.  0.
445  4.44  0.  0.  0.
446  4.45  0.  0.  0.
447  4.46  0.  0.  0.
448  4.47  0.  0.  0.
449  4.48  0.  0.  0.
450  4.49  0.  0.  0.
451  4.50  0.  0.  0.
452  4.51  0.  0.  0.
453  4.52  0.  0.  0.
454  4.53  0.  0.  0.
455  4.54  0.  0.  0.
456  4.55  0.  0.  0.
457  4.56  0.  0.  0.
458  4.57  0.  0.  0.
459  4.58  0.  0.  0.
460  4.59  0.  0.  0.
461  4.60  0.  0.  0.
462  4.61  0.  0.  0.
463  4.62  0.  0.  0.
464  4.63  0.  0.  0.
465  4.64  0.  0.  0.
466  4.65  0.  0.  0.
467  4.66  0.  0.  0.
468  4.67  0.  0.  0.
469  4.68  0.  0.  0.
470  4.69  0.  0.  0.
471  4.70  0.  0.  0.
472  4.71  0.  0.  0.
473  4.72  0.  0.  0.
474  4.73  0.  0.  0.
475  4.74  0.  0.  0.
476  4.75  0.  0.  0.
477  4.76  0.  0.  0.
478  4.77  0.  0.  0.
479  4.78  0.  0.  0.
480  4.79  0.  0.  0.
481  4.80  0.  0.  0.
482  4.81  0.  0.  0.
483  4.82  0.  0.  0.
484  4.83  0.  0.  0.
485  4.84  0.  0.  0.
486  4.85  0.  0.  0.
487  4.86  0.  0.  0.
488  4.87  0.  0.  0.
489  4.88  0.  0.  0.
490  4.89  0.  0.  0.
491  4.90  0.  0.  0.
492  4.91  0.  0.  0.
493  4.92  0.  0.  0.
494  4.93  0.  0.  0.
495  4.94  0.  0.  0.
496  4.95  0.  0.  0.
497  4.96  0.  0.  0.
498  4.97  0.  0.  0.
499  4.98  0.  0.  0.
500  4.99  0.  0.  0.
501  5.00  0.  0.  0.
502  5.01  0.  0.  0.
503  5.02  0.  0.  0.
504  5.03  0.  0.  0.
505  5.04  0.  0.  0.
506  5.05  0.  0.  0.
507  5.06  0.  0.  0.
508  5.07  0.  0.  0.
509  5.08  0.  0.  0.
510  5.09  0.  0.  0.
511  5.10  0.  0.  0.
512  5.11  0.  0.  0.
513  5.12  0.  0.  0.
514  5.13  0.  0.  0.
515  5.14  0.  0.  0.
516  5.15  0.  0.  0.
517  5.16  0.  0.  0.
518  5.17  0.  0.  0.
519  5.18  0.  0.  0.
520  5.19  0.  0.  0.
521  5.20  0.  0.  0.
522  5.21  0.  0.  0.
523  5.22  0.  0.  0.
524  5.23  0.  0.  0.
525  5.24  0.  0.  0.
526  5.25  0.  0.  0.
527  5.26  0.  0.  0.
528  5.27  0.  0.  0.
529  5.28  0.  0.  0.
530  5.29  0.  0.  0.
531  5.30  0.  0.  0.
532  5.31  0.  0.  0.
533  5.32  0.  0.  0.
534  5.33  0.  0.  0.
535  5.34  0.  0.  0.
536  5.35  0.  0.  0.
537  5.36  0.  0.  0.
538  5.37  0.  0.  0.
539  5.38  0.  0.  0.
540  5.39  0.  0.  0.
541  5.40  0.  0.  0.
542  5.41  0.  0.  0.
543  5.42  0.  0.  0.
544  5.43  0.  0.  0.
545  5.44  0.  0.  0.
546  5.45  0.  0.  0.
547  5.46  0.  0.  0.
548  5.47  0.  0.  0.
549  5.48  0.  0.  0.
550  5.49  0.  0.  0.
551  5.50  0.  0.  0.
552  5.51  0.  0.  0.
553  5.52  0.  0.  0.
554  5.53  0.  0.  0.
555  5.54  0.  0.  0.
556  5.55  0.  0.  0.
557  5.56  0.  0.  0.
558  5.57  0.  0.  0.
559  5.58  0.  0.  0.
560  5.59  0.  0.  0.
561  5.60  0.  0.  0.
562  5.61  0.  0.  0.
563  5.62  0.  0.  0.
564  5.63  0.  0.  0.
565  5.64  0.  0.  0.
566  5.65  0.  0.  0.
567  5.66  0.  0.  0.
568  5.67  0.  0.  0.
569  5.68  0.  0.  0.
570  5.69  0.  0.  0.
571  5.70  0.  0.  0.
572  5.71  0.  0.  0.
573  5.72  0.  0.  0.
574  5.73  0.  0.  0.
575  5.74  0.  0.  0.
576  5.75  0.  0.  0.
577  5.76  0.  0.  0.
578  5.77  0.  0.  0.
579  5.78  0.  0.  0.
580  5.79  0.  0.  0.
581  5.80  0.  0.  0.
582  5.81  0.  0.  0.
583  5.82  0.  0.  0.
584  5.83  0.  0.  0.
585  5.84  0.  0.  0.
586  5.85  0.  0.  0.
587  5.86  0.  0.  0.
588  5.87  0.  0.  0.
589  5.88  0.  0.  0.
590  5.89  0.  0.  0.
591  5.90  0.  0.  0.
592  5.91  0.  0.  0.
593  5.92  0.  0.  0.
594  5.93  0.  0.  0.
595  5.94  0.  0.  0.
596  5.95  0.  0.  0.
597  5.96  0.  0.  0.
598  5.97  0.  0.  0.
599  5.98  0.  0.  0.
600  5.99  0.  0.  0.
1                         1.3590186145548E+01 -6.3316485772480E-01
1  0.0000000000000E+00 -7.9498668759115E-09 -7.0202994334467E-08
2  1.0000000000000E-02  4.3566068098037E-03  1.1228669196628E-03
3  2.0000000000000E-02  1.7391680876202E-02  4.4956881723524E-03
4  3.0000000000000E-02  3.9001102554482E-02  1.0130149920071E-02
5  4.0000000000000E-02  6.9011744187947E-02  1.8042530903575E-02
6  5.0000000000000E-02  1.0718210162263E-01  2.8249087846948E-02
7  6.0000000000000E-02  1.5320322471387E-01  4.0759952095005E-02
8  7.0000000000000E-02  2.0669999002812E-01  5.5571875477912E-02
9  8.0000000000000E-02  2.6723276689296E-01  7.2660233600436E-02
10  9.0000000000000E-02  3.3429953286397E-01  9.1970746693318E-02
11  1.0000000000000E-01  4.0733849616035E-01  1.1341140938715E-01
12  1.1000000000000E-01  4.8573128042357E-01  1.3684512968340E-01
13  1.2000000000000E-01  5.6880672118722E-01  1.6208356334239E-01
14  1.3000000000000E-01  6.5584531378769E-01  1.8888259318619E-01
15  1.4000000000000E-01  7.4608433933863E-01  2.1693984468815E-01
16  1.5000000000000E-01  8.3872367923556E-01  2.4589455186222E-01
17  1.6000000000000E-01  9.3293230999226E-01  2.7532999387847E-01
18  1.7000000000000E-01  1.0278554497027E+00  3.0477861673477E-01
19  1.8000000000000E-01  1.1226223058312E+00  3.3372983999333E-01
20  1.9000000000000E-01  1.2163543521861E+00  3.6164043073035E-01
21  2.0000000000000E-01  1.3081740416966E+00  3.8794721034093E-01
22  2.1000000000000E-01  1.3972138418409E+00  4.1208174959871E-01
23  2.2000000000000E-01  1.4826254621088E+00  4.3348660811153E-01
24  2.3000000000000E-01  1.5635891284711E+00  4.5163259038034E-01
25  2.4000000000000E-01  1.6393227491405E+00  4.6603642583809E-01
26  2.5000000000000E-01  1.7090908094757E+00  4.7627823757303E-01
27  2.6000000000000E-01  1.7722128320821E+00  4.8201814612900E-01
28  2.7000000000000E-01  1.8280712412196E+00  4.8301136206984E-01
29  2.8000000000000E-01  1.8761184785737E+00  4.7912115412354E-01
30  2.9000000000000E-01  1.9158832301331E+00  4.7032913787462E-01
31  3.0000000000000E-01  1.9469756410255E+00  4.5674241131586E-01
32  3.1000000000000E-01  1.9690914161919E+00  4.3859716531043E-01
33  3.2000000000000E-01  1.9820147290894E+00  4.1625851549807E-01
34  3.3000000000000E-01  1.9856198874186E+00  3.9021643302190E-01
35  3.4000000000000E-01  1.9798717333124E+00  3.6107778971685E-01
36  3.5000000000000E-01  1.9648247845435E+00  3.2955467377642E-01
37  3.6000000000000E-01  1.9406211521417E+00  2.9644926893058E-01
38  3.7000000000000E-01  1.9074872973954E+00  2.6263571841186E-01
39  3.8000000000000E-01  1.8657297166106E+00  2.2903950931959E-01
40  3.9000000000000E-01  1.8157296643864E+00  1.9661500875833E-01
41  4.0000000000000E-01  1.7579370447932E+00  1.6632185635037E-01
42  4.1000000000000E-01  1.6928636141391E+00  1.3910096527123E-01
43  4.2000000000000E-01  1.6210756485368E+00  1.1585090368396E-01
44  4.3000000000000E-01  1.5431862340239E+00  9.7405419285832E-02
45  4.4000000000000E-01  1.4598473364763E+00  8.4512831702140E-02
46  4.5000000000000E-01  1.3717418031491E+00  7.7817951888044E-02
47  4.6000000000000E-01  1.2795754377161E+00  7.7847096868712E-02
48  4.7000000000000E-01  1.1840692766698E+00  8.4996655433232E-02
49  4.8000000000000E-01  1.0859521775628E+00  9.9525530083392E-02
50  4.9000000000000E-01  9.8595380960580E-01  1.2155163765852E-01
51  5.0000000000000E-01  8.8479811549257E-01  1.5105250120466E-01
52  5.1000000000000E-01  7.8319729092830E-01  1.8786981475118E-01
53  5.2000000000000E-01  6.8184630618437E-01  2.3171771673015E-01
54  5.3000000000000E-01  5.8141797301396E-01  2.8219437269863E-01
55  5.4000000000000E-01  4.8255854133579E-01  3.3879634929543E-01
56  5.5000000000000E-01  3.8588379400167E-01  4.0093516385994E-01
57  5.6000000000000E-01  2.9197559535703E-01  4.6795532191341E-01
58  5.7000000000000E-01  2.0137884066365E-01  5.3915311080953E-01
59  5.8000000000000E-01  1.1459874908023E-01  6.1379540421880E-01
60  5.9000000000000E-01  3.2098442884449E-02  6.9113774940722E-01
61  6.0000000000000E-01 -4.5703240135468E-02  7.7044105691901E-01
62  6.1000000000000E-01 -1.1843374600447E-01  8.5098628842160E-01
63  6.2000000000000E-01 -1.8576864885443E-01  9.3208664006045E-01
64  6.3000000000000E-01 -2.4743335904485E-01  1.0130968415479E+00
65  6.4000000000000E-01 -3.0320469761758E-01  1.0934193302807E+00
66  6.5000000000000E-01 -3.5291232221641E-01  1.1725072092153E+00
67  6.6000000000000E-01 -3.9643997219430E-01  1.2498640506910E+00
68  6.7000000000000E-01 -4.3372648420975E-01  1.3250407592927E+00
69  6.8000000000000E-01 -4.6476651517954E-01  1.3976298486135E+00
70  6.9000000000000E-01 -4.8961089793894E-01  1.4672576131566E+00
71  7.0000000000000E-01 -5.0836654718754E-01  1.5335747818732E+00
72  7.1000000000000E-01 -5.2119582994127E-01  1.5962463190908E+00
73  7.2000000000000E-01 -5.2831531625849E-01  1.6549410879410E+00
74  7.3000000000000E-01 -5.2999383274004E-01  1.7093221081908E+00
75  7.4000000000000E-01 -5.2654975326607E-01  1.7590381232632E+00
76  7.5000000000000E-01 -5.1834747843732E-01  1.8037171402745E+00
77  7.6000000000000E-01 -5.0579307680614E-01  1.8429625236116E+00
78  7.7000000000000E-01 -4.8932908655419E-01  1.8763521098266E+00
79  7.8000000000000E-01 -4.6942850493564E-01  1.9034406736276E+00
80  7.9000000000000E-01 -4.4658802351687E-01  1.9237659168302E+00
81  8.0000000000000E-01 -4.2132059882091E-01  1.9368579806169E+00
82  8.1000000000000E-01 -3.9414747915220E-01  1.9422523033229E+00
83  8.2000000000000E-01 -3.6558983781189E-01  1.9395054686874E+00
84  8.3000000000000E-01 -3.3616018929726E-01  1.9282135206738E+00
85  8.4000000000000E-01 -3.0635378715449E-01  1.9080320680277E+00
86  8.5000000000000E-01 -2.7664021877402E-01  1.8786973717011E+00
87  8.6000000000000E-01 -2.4745542259419E-01  1.8400475074188E+00
88  8.7000000000000E-01 -2.1919435612462E-01  1.7920426292690E+00
89  8.8000000000000E-01 -1.9220453836566E-01  1.7347833323813E+00
90  8.9000000000000E-01 -1.6678067729744E-01  1.6685261262246E+00
91  9.0000000000000E-01 -1.4316057213379E-01  1.5936950860511E+00
92  9.1000000000000E-01 -1.2152245126091E-01  1.5108888482407E+00
93  9.2000000000000E-01 -1.0198387076719E-01  1.4208822538920E+00
94  9.3000000000000E-01 -8.4602256042103E-02  1.3246221206528E+00
95  9.4000000000000E-01 -6.9377121140320E-02  1.2232168307782E+00
96  9.5000000000000E-01 -5.6253948735338E-02  1.1179196578936E+00
97  9.6000000000000E-01 -4.5129658962360E-02  1.0101060090025E+00
98  9.7000000000000E-01 -3.5859539778605E-02  9.0124502450586E-01
99  9.8000000000000E-01 -2.8265456282516E-02  7.9286624919825E-01
100  9.9000000000000E-01 -2.2145103284175E-02  6.8652235344868E-01
101  1.0000000000000E+00 -1.7282015889857E-02  5.8374913785034E-01
102  1.0100000000000E+00 -1.3456008306183E-02  4.8602428942651E-01
103  1.0200000000000E+00 -1.0453672825693E-02  3.9472656582524E-01
104  1.0300000000000E+00 -8.0785380946265E-03  3.1109726718511E-01
105  1.0400000000000E+00 -6.1605351191786E-03  2.3620574377537E-01
106  1.0500000000000E+00 -4.5639227371950E-03  1.7092251490352E-01
107  1.0600000000000E+00 -3.2337034194536E-03  1.1575595281728E-01
108  1.0700000000000E+00 -2.1423787592183E-03  7.1040326230653E-02
109  1.0800000000000E+00 -1.2375132150332E-03  3.7152441291841E-02
110  1.0900000000000E+00 -5.3080181093814E-04  1.4221131377781E-02
111  1.1000000000000E+00 -9.0368670352669E-05  2.1469775317146E-03
112  1.1100000000000E+00  4.5979107853521E-06 -9.9813873903879E-05
113  1.1200000000000E+00  4.1350458796187E-08 -9.8276323217958E-07
114  1.13 -0.  0.
115  1.14  0.  0.
116  1.15  0.  0.
117  1.16  0.  0.
118  1.17  0.  0.
119  1.18  0.  0.
120  1.19  0.  0.
121  1.20  0.  0.
122  1.21  0.  0.
123  1.22  0.  0.
124  1.23  0.  0.
125  1.24  0.  0.
126  1.25  0.  0.
127  1.26  0.  0.
128  1.27  0.  0.
129  1.28  0.  0.
130  1.29  0.  0.
131  1.30  0.  0.
132  1.31  0.  0.
133  1.32  0.  0.
134  1.33  0.  0.
135  1.34  0.  0.
136  1.35  0.  0.
137  1.36  0.  0.
138  1.37  0.  0.
139  1.38  0.  0.
140  1.39  0.  0.
141  1.40  0.  0.
142  1.41  0.  0.
143  1.42  0.  0.
144  1.43  0.  0.
145  1.44  0.  0.
146  1.45  0.  0.
147  1.46  0.  0.
148  1.47  0.  0.
149  1.48  0.  0.
150  1.49  0.  0.
151  1.50  0.  0.
152  1.51  0.  0.
153  1.52  0.  0.
154  1.53  0.  0.
155  1.54  0.  0.
156  1.55  0.  0.
157  1.56  0.  0.
158  1.57  0.  0.
159  1.58  0.  0.
160  1.59  0.  0.
161  1.60  0.  0.
162  1.61  0.  0.
163  1.62  0.  0.
164  1.63  0.  0.
165  1.64  0.  0.
166  1.65  0.  0.
167  1.66  0.  0.
168  1.67  0.  0.
169  1.68  0.  0.
170  1.69  0.  0.
171  1.70  0.  0.
172  1.71  0.  0.
173  1.72  0.  0.
174  1.73  0.  0.
175  1.74  0.  0.
176  1.75  0.  0.
177  1.76  0.  0.
178  1.77  0.  0.
179  1.78  0.  0.
180  1.79  0.  0.
181  1.80  0.  0.
182  1.81  0.  0.
183  1.82  0.  0.
184  1.83  0.  0.
185  1.84  0.  0.
186  1.85  0.  0.
187  1.86  0.  0.
188  1.87  0.  0.
189  1.88  0.  0.
190  1.89  0.  0.
191  1.90  0.  0.
192  1.91  0.  0.
193  1.92  0.  0.
194  1.93  0.  0.
195  1.94  0.  0.
196  1.95  0.  0.
197  1.96  0.  0.