Pu    ONCVPSP-4.0.1  r_core=   1.25449   1.25449   1.55594   1.55594
     94.0000     34.0000      211128    zatom,zion,pspd
     8      11   3     4   600     0    pspcod,pspxc,lmax,lloc,mmax,r2well
  5.99000000  5.00000000  0.00000000    rchrg fchrg qchrg
     3     2     2     2     0    nproj
     1     1           extension_switch
   0                         1.9557027147004E+01  2.9450295978388E+00 -2.1075253791889E+00
     1  0.0000000000000E+00 -1.5542496578647E-07 -3.8334732621603E-07 -2.9575543569749E-08
     2  1.0000000000000E-02  1.6567310674247E-01  1.0115659647280E-01  3.4631869937646E-02
     3  2.0000000000000E-02  3.2944640184336E-01  1.9888992658998E-01  6.9000198945221E-02
     4  3.0000000000000E-02  4.8946414297137E-01  2.8988048227311E-01  1.0284912533899E-01
     5  4.0000000000000E-02  6.4395740219410E-01  3.7101301190086E-01  1.3593790052170E-01
     6  5.0000000000000E-02  7.9128420482427E-01  4.3947060233124E-01  1.6804784005770E-01
     7  6.0000000000000E-02  9.2996586304027E-01  4.9281939343463E-01  1.9898857045204E-01
     8  7.0000000000000E-02  1.0587184264874E+00  5.2908127264678E-01  2.2860337318676E-01
     9  8.0000000000000E-02  1.1764783274908E+00  5.4679228039760E-01  2.5677345714311E-01
    10  9.0000000000000E-02  1.2824214831493E+00  5.4504491280638E-01  2.8342102562565E-01
    11  1.0000000000000E-01  1.3759753244628E+00  5.2351302112223E-01  3.0851104364116E-01
    12  1.1000000000000E-01  1.4568234470683E+00  4.8245856155126E-01  3.3205165356651E-01
    13  1.2000000000000E-01  1.5249028118689E+00  4.2272002656266E-01  3.5409323145923E-01
    14  1.3000000000000E-01  1.5803936593076E+00  3.4568297097304E-01  3.7472612056284E-01
    15  1.4000000000000E-01  1.6237025306636E+00  2.5323361441147E-01  3.9407712157338E-01
    16  1.5000000000000E-01  1.6554390061562E+00  1.4769703795729E-01  4.1230485954141E-01
    17  1.6000000000000E-01  1.6763869658557E+00  3.1761979670278E-02  4.2959418355858E-01
    18  1.7000000000000E-01  1.6874713491460E+00 -9.1605344161425E-02  4.4614978642331E-01
    19  1.8000000000000E-01  1.6897215263147E+00 -2.1925562138942E-01  4.6218925627864E-01
    20  1.9000000000000E-01  1.6842324973906E+00 -3.4795600467009E-01  4.7793578995614E-01
    21  2.0000000000000E-01  1.6721251953835E+00 -4.7449166767112E-01  4.9361080786767E-01
    22  2.1000000000000E-01  1.6545071917061E+00 -5.9576611873711E-01  5.0942671244256E-01
    23  2.2000000000000E-01  1.6324350801818E+00 -7.0889708231632E-01  5.2558002625491E-01
    24  2.3000000000000E-01  1.6068797534683E+00 -8.1130490879642E-01  5.4224513233716E-01
    25  2.4000000000000E-01  1.5786956840723E+00 -9.0079072068829E-01  5.5956881820088E-01
    26  2.5000000000000E-01  1.5485951847927E+00 -9.7560183918919E-01  5.7766579749950E-01
    27  2.6000000000000E-01  1.5171284549456E+00 -1.0344824490729E+00  5.9661535000224E-01
    28  2.7000000000000E-01  1.4846700246432E+00 -1.0767079381220E+00  6.1645918272625E-01
    29  2.8000000000000E-01  1.4514119960861E+00 -1.1021018744261E+00  6.3720057396441E-01
    30  2.9000000000000E-01  1.4173642552594E+00 -1.1110351437660E+00  6.5880481892878E-01
    31  3.0000000000000E-01  1.3823615969562E+00 -1.1044073419471E+00  6.8120095224341E-01
    32  3.1000000000000E-01  1.3460774781926E+00 -1.0836110849090E+00  7.0428468001593E-01
    33  3.2000000000000E-01  1.3080438972156E+00 -1.0504804444727E+00  7.2792241411293E-01
    34  3.3000000000000E-01  1.2676766944953E+00 -1.0072252222647E+00  7.5195626488923E-01
    35  3.4000000000000E-01  1.2243053948153E+00 -9.5635322257289E-01  7.7620981718240E-01
    36  3.5000000000000E-01  1.1772065615130E+00 -9.0058306243445E-01  8.0049448891510E-01
    37  3.6000000000000E-01  1.1256395198057E+00 -8.4275035222946E-01  8.2461625298262E-01
    38  3.7000000000000E-01  1.0688832295667E+00 -7.8571028329009E-01  8.4838249184369E-01
    39  3.8000000000000E-01  1.0062730512547E+00 -7.3223976432338E-01  8.7160875073044E-01
    40  3.9000000000000E-01  9.3723615300280E-01 -6.8494225281332E-01  8.9412515973872E-01
    41  4.0000000000000E-01  8.6132435186675E-01 -6.4615833126585E-01  9.1578230707899E-01
    42  4.1000000000000E-01  7.7824326629016E-01 -6.1788488473652E-01  9.3645636502851E-01
    43  4.2000000000000E-01  6.8787677710850E-01 -6.0170545217146E-01  9.5605329595395E-01
    44  4.3000000000000E-01  5.9030594682008E-01 -5.9873395925885E-01  9.7451199727602E-01
    45  4.4000000000000E-01  4.8582172633441E-01 -6.0957360683945E-01  9.9180628034468E-01
    46  4.5000000000000E-01  3.7493097902164E-01 -6.3429220075082E-01  1.0079456176512E+00
    47  4.6000000000000E-01  2.5835556703106E-01 -6.7241468225833E-01  1.0229746342826E+00
    48  4.7000000000000E-01  1.3702446748683E-01 -7.2293307007097E-01  1.0369713616216E+00
    49  4.8000000000000E-01  1.2059109049283E-02 -7.8433347309624E-01  1.0500443125918E+00
    50  4.9000000000000E-01 -1.1524766475880E-01 -8.5463929527666E-01  1.0623284768638E+00
    51  5.0000000000000E-01 -2.4345839706621E-01 -9.3146924723746E-01  1.0739803700599E+00
    52  5.1000000000000E-01 -3.7102279397883E-01 -1.0121083200988E+00  1.0851723019599E+00
    53  5.2000000000000E-01 -4.9631353015403E-01 -1.0935894790555E+00  1.0960860539886E+00
    54  5.3000000000000E-01 -6.1766501347240E-01 -1.1727835104871E+00  1.1069061750486E+00
    55  5.4000000000000E-01 -7.3341394880760E-01 -1.2464942162194E+00  1.1178131164666E+00
    56  5.5000000000000E-01 -8.4194048842254E-01 -1.3115559991054E+00  1.1289764310882E+00
    57  5.6000000000000E-01 -9.4170874280832E-01 -1.3649308293261E+00  1.1405482583070E+00
    58  5.7000000000000E-01 -1.0313054509385E+00 -1.4038016215872E+00  1.1526573062158E+00
    59  5.8000000000000E-01 -1.1094756717669E+00 -1.4256591874904E+00  1.1654035245282E+00
    60  5.9000000000000E-01 -1.1751544569633E+00 -1.4283801495188E+00  1.1788536381038E+00
    61  6.0000000000000E-01 -1.2274935948271E+00 -1.4102935052452E+00  1.1930376816699E+00
    62  6.1000000000000E-01 -1.2658826725190E+00 -1.3702339019692E+00  1.2079466427103E+00
    63  6.2000000000000E-01 -1.2899638828250E+00 -1.3075801102922E+00  1.2235312826740E+00
    64  6.3000000000000E-01 -1.2996401965818E+00 -1.2222776557375E+00  1.2397021679191E+00
    65  6.4000000000000E-01 -1.2950767261738E+00 -1.1148450647922E+00  1.2563309024868E+00
    66  6.5000000000000E-01 -1.2766953124428E+00 -9.8636368940112E-01  1.2732525162422E+00
    67  6.6000000000000E-01 -1.2451625702365E+00 -8.3845157557809E-01  1.2902689254243E+00
    68  6.7000000000000E-01 -1.2013718201839E+00 -6.7322232143748E-01  1.3071533494309E+00
    69  6.8000000000000E-01 -1.1464195100755E+00 -4.9323031254326E-01  1.3236555388221E+00
    70  6.9000000000000E-01 -1.0815768830738E+00 -3.0140411448059E-01  1.3395076459788E+00
    71  7.0000000000000E-01 -1.0082577772706E+00 -1.0097013221122E-01  1.3544305523313E+00
    72  7.1000000000000E-01 -9.2798353824928E-01  1.0463109633335E-01  1.3681404550886E+00
    73  7.2000000000000E-01 -8.4234609071179E-01  3.1183342583996E-01  1.3803555122266E+00
    74  7.3000000000000E-01 -7.5297024548881E-01  5.1703580563235E-01  1.3908023471615E+00
    75  7.4000000000000E-01 -6.6147631409204E-01  7.1669250361477E-01  1.3992222238335E+00
    76  7.5000000000000E-01 -5.6944406529686E-01  9.0740026888114E-01  1.4053767184174E+00
    77  7.6000000000000E-01 -4.7837898904884E-01  1.0859799999044E+00  1.4090527348996E+00
    78  7.7000000000000E-01 -3.8968173529278E-01  1.2495507076849E+00  1.4100667374777E+00
    79  7.8000000000000E-01 -3.0462147303712E-01  1.3955938491096E+00  1.4082681021468E+00
    80  7.9000000000000E-01 -2.2431377271964E-01  1.5220064443326E+00  1.4035415218294E+00
    81  8.0000000000000E-01 -1.4970345797141E-01  1.6271417708965E+00  1.3958084327851E+00
    82  8.1000000000000E-01 -8.1552706748747E-02  1.7098368333193E+00  1.3850274635914E+00
    83  8.2000000000000E-01 -2.0434512281557E-02  1.7694262260665E+00  1.3711939405030E+00
    84  8.3000000000000E-01  3.3268552911152E-02  1.8057424262757E+00  1.3543385133345E+00
    85  8.4000000000000E-01  7.9360486079577E-02  1.8191029567605E+00  1.3345249931203E+00
    86  8.5000000000000E-01  1.1782327903572E-01  1.8102852370047E+00  1.3118475157684E+00
    87  8.6000000000000E-01  1.4880411052157E-01  1.7804902786857E+00  1.2864271640138E+00
    88  8.7000000000000E-01  1.7259890609625E-01  1.7312966729772E+00  1.2584081926281E+00
    89  8.8000000000000E-01  1.8963294962098E-01  1.6646065516612E+00  1.2279540087335E+00
    90  8.9000000000000E-01  2.0043928863513E-01  1.5825853772871E+00  1.1952430600796E+00
    91  9.0000000000000E-01  2.0563570721869E-01  1.4875975258538E+00  1.1604647793807E+00
    92  9.1000000000000E-01  2.0590104433305E-01  1.3821396677710E+00  1.1238157226086E+00
    93  9.2000000000000E-01  2.0195161406852E-01  1.2687739304117E+00  1.0854960240111E+00
    94  9.3000000000000E-01  1.9451843855119E-01  1.1500627418836E+00  1.0457062712899E+00
    95  9.4000000000000E-01  1.8432593711263E-01  1.0285071161328E+00  1.0046448816694E+00
    96  9.5000000000000E-01  1.7207263000826E-01  9.0648995128940E-01  9.6250603449197E-01
    97  9.6000000000000E-01  1.5841431535779E-01  7.8622568488240E-01  9.1947818952810E-01
    98  9.7000000000000E-01  1.4395006821499E-01  6.6971739058537E-01  8.7574319346275E-01
    99  9.8000000000000E-01  1.2921129523914E-01  5.5872212190767E-01  8.3147595108915E-01
   100  9.9000000000000E-01  1.1465396167764E-01  4.5472501891893E-01  7.8684461362364E-01
   101  1.0000000000000E+00  1.0065399365137E-01  3.5892240520018E-01  7.4201121519142E-01
   102  1.0100000000000E+00  8.7505751844424E-02  2.7221382296731E-01  6.9713267070791E-01
   103  1.0200000000000E+00  7.5423376317773E-02  1.9520269393580E-01  6.5236203478061E-01
   104  1.0300000000000E+00  6.4544719087230E-02  1.2820505924654E-01  6.0784991233007E-01
   105  1.0400000000000E+00  5.4937513504079E-02  7.1265649534272E-02  5.6374590765588E-01
   106  1.0500000000000E+00  4.6607378908213E-02  2.4180370606497E-02  5.2019999974242E-01
   107  1.0600000000000E+00  3.9507226061374E-02 -1.3475836356940E-02  4.7736373753033E-01
   108  1.0700000000000E+00  3.3547613328825E-02 -4.2316888209492E-02  4.3539115937659E-01
   109  1.0800000000000E+00  2.8607604577692E-02 -6.3110383221171E-02  3.9443935540201E-01
   110  1.0900000000000E+00  2.4545695486457E-02 -7.6740543558872E-02  3.5466860918682E-01
   111  1.1000000000000E+00  2.1210403208501E-02 -8.4170447316394E-02  3.1624207550470E-01
   112  1.1100000000000E+00  1.8450151917388E-02 -8.6404676682664E-02  2.7932497238708E-01
   113  1.1200000000000E+00  1.6122130721481E-02 -8.4453446112422E-02  2.4408328792930E-01
   114  1.1300000000000E+00  1.4099846549275E-02 -7.9299201323928E-02  2.1068202351726E-01
   115  1.1400000000000E+00  1.2279139691730E-02 -7.1866603784586E-02  1.7928301476439E-01
   116  1.1500000000000E+00  1.0582469207539E-02 -6.2996745586326E-02  1.5004238802037E-01
   117  1.1600000000000E+00  8.9613062580653E-03 -5.3426383405091E-02  1.2310772311365E-01
   118  1.1700000000000E+00  7.3965146993996E-03 -4.3772898827598E-02  9.8615011770582E-02
   119  1.1800000000000E+00  5.8963375027561E-03 -3.4526228614339E-02  7.6685379906355E-02
   120  1.1900000000000E+00  4.4929282687251E-03 -2.6046285570221E-02  5.7422169669984E-02
   121  1.2000000000000E+00  3.1911151680610E-03 -1.8662049879980E-02  4.0886443243496E-02
   122  1.2100000000000E+00  2.0073723183697E-03 -1.2589965307831E-02  2.7115309221418E-02
   123  1.2200000000000E+00  1.0572853969032E-03 -7.7507511664180E-03  1.6168292039343E-02
   124  1.2300000000000E+00  4.1201565248700E-04 -4.0682398722225E-03  8.0652639824965E-03
   125  1.2400000000000E+00  8.3029993567261E-05 -1.5108346603485E-03  2.7834154299469E-03
   126  1.2500000000000E+00 -1.7254747456274E-07 -1.7480200018149E-04  2.9148790605259E-04
   127  1.2600000000000E+00  4.4608972497809E-07  1.2981895498533E-05 -2.0267443661981E-05
   128  1.2700000000000E+00 -3.4026694397370E-09  2.2818968452893E-07 -3.9155896356970E-07
   129  1.28 -0. -0. -0.
   130  1.29  0.  0.  0.
   131  1.30  0.  0.  0.
   132  1.31  0.  0.  0.
   133  1.32  0.  0.  0.
   134  1.33  0.  0.  0.
   135  1.34  0.  0.  0.
   136  1.35  0.  0.  0.
   137  1.36  0.  0.  0.
   138  1.37  0.  0.  0.
   139  1.38  0.  0.  0.
   140  1.39  0.  0.  0.
   141  1.40  0.  0.  0.
   142  1.41  0.  0.  0.
   143  1.42  0.  0.  0.
   144  1.43  0.  0.  0.
   145  1.44  0.  0.  0.
   146  1.45  0.  0.  0.
   147  1.46  0.  0.  0.
   148  1.47  0.  0.  0.
   149  1.48  0.  0.  0.
   150  1.49  0.  0.  0.
   151  1.50  0.  0.  0.
   152  1.51  0.  0.  0.
   153  1.52  0.  0.  0.
   154  1.53  0.  0.  0.
   155  1.54  0.  0.  0.
   156  1.55  0.  0.  0.
   157  1.56  0.  0.  0.
   158  1.57  0.  0.  0.
   159  1.58  0.  0.  0.
   160  1.59  0.  0.  0.
   161  1.60  0.  0.  0.
   162  1.61  0.  0.  0.
   163  1.62  0.  0.  0.
   164  1.63  0.  0.  0.
   165  1.64  0.  0.  0.
   166  1.65  0.  0.  0.
   167  1.66  0.  0.  0.
   168  1.67  0.  0.  0.
   169  1.68  0.  0.  0.
   170  1.69  0.  0.  0.
   171  1.70  0.  0.  0.
   172  1.71  0.  0.  0.
   173  1.72  0.  0.  0.
   174  1.73  0.  0.  0.
   175  1.74  0.  0.  0.
   176  1.75  0.  0.  0.
   177  1.76  0.  0.  0.
   178  1.77  0.  0.  0.
   179  1.78  0.  0.  0.
   180  1.79  0.  0.  0.
   181  1.80  0.  0.  0.
   182  1.81  0.  0.  0.
   183  1.82  0.  0.  0.
   184  1.83  0.  0.  0.
   185  1.84  0.  0.  0.
   186  1.85  0.  0.  0.
   187  1.86  0.  0.  0.
   188  1.87  0.  0.  0.
   189  1.88  0.  0.  0.
   190  1.89  0.  0.  0.
   191  1.90  0.  0.  0.
   192  1.91  0.  0.  0.
   193  1.92  0.  0.  0.
   194  1.93  0.  0.  0.
   195  1.94  0.  0.  0.
   196  1.95  0.  0.  0.
   197  1.96  0.  0.  0.
   198  1.97  0.  0.  0.
   199  1.98  0.  0.  0.
   200  1.99  0.  0.  0.
   201  2.00  0.  0.  0.
   202  2.01  0.  0.  0.
   203  2.02  0.  0.  0.
   204  2.03  0.  0.  0.
   205  2.04  0.  0.  0.
   206  2.05  0.  0.  0.
   207  2.06  0.  0.  0.
   208  2.07  0.  0.  0.
   209  2.08  0.  0.  0.
   210  2.09  0.  0.  0.
   211  2.10  0.  0.  0.
   212  2.11  0.  0.  0.
   213  2.12  0.  0.  0.
   214  2.13  0.  0.  0.
   215  2.14  0.  0.  0.
   216  2.15  0.  0.  0.
   217  2.16  0.  0.  0.
   218  2.17  0.  0.  0.
   219  2.18  0.  0.  0.
   220  2.19  0.  0.  0.
   221  2.20  0.  0.  0.
   222  2.21  0.  0.  0.
   223  2.22  0.  0.  0.
   224  2.23  0.  0.  0.
   225  2.24  0.  0.  0.
   226  2.25  0.  0.  0.
   227  2.26  0.  0.  0.
   228  2.27  0.  0.  0.
   229  2.28  0.  0.  0.
   230  2.29  0.  0.  0.
   231  2.30  0.  0.  0.
   232  2.31  0.  0.  0.
   233  2.32  0.  0.  0.
   234  2.33  0.  0.  0.
   235  2.34  0.  0.  0.
   236  2.35  0.  0.  0.
   237  2.36  0.  0.  0.
   238  2.37  0.  0.  0.
   239  2.38  0.  0.  0.
   240  2.39  0.  0.  0.
   241  2.40  0.  0.  0.
   242  2.41  0.  0.  0.
   243  2.42  0.  0.  0.
   244  2.43  0.  0.  0.
   245  2.44  0.  0.  0.
   246  2.45  0.  0.  0.
   247  2.46  0.  0.  0.
   248  2.47  0.  0.  0.
   249  2.48  0.  0.  0.
   250  2.49  0.  0.  0.
   251  2.50  0.  0.  0.
   252  2.51  0.  0.  0.
   253  2.52  0.  0.  0.
   254  2.53  0.  0.  0.
   255  2.54  0.  0.  0.
   256  2.55  0.  0.  0.
   257  2.56  0.  0.  0.
   258  2.57  0.  0.  0.
   259  2.58  0.  0.  0.
   260  2.59  0.  0.  0.
   261  2.60  0.  0.  0.
   262  2.61  0.  0.  0.
   263  2.62  0.  0.  0.
   264  2.63  0.  0.  0.
   265  2.64  0.  0.  0.
   266  2.65  0.  0.  0.
   267  2.66  0.  0.  0.
   268  2.67  0.  0.  0.
   269  2.68  0.  0.  0.
   270  2.69  0.  0.  0.
   271  2.70  0.  0.  0.
   272  2.71  0.  0.  0.
   273  2.72  0.  0.  0.
   274  2.73  0.  0.  0.
   275  2.74  0.  0.  0.
   276  2.75  0.  0.  0.
   277  2.76  0.  0.  0.
   278  2.77  0.  0.  0.
   279  2.78  0.  0.  0.
   280  2.79  0.  0.  0.
   281  2.80  0.  0.  0.
   282  2.81  0.  0.  0.
   283  2.82  0.  0.  0.
   284  2.83  0.  0.  0.
   285  2.84  0.  0.  0.
   286  2.85  0.  0.  0.
   287  2.86  0.  0.  0.
   288  2.87  0.  0.  0.
   289  2.88  0.  0.  0.
   290  2.89  0.  0.  0.
   291  2.90  0.  0.  0.
   292  2.91  0.  0.  0.
   293  2.92  0.  0.  0.
   294  2.93  0.  0.  0.
   295  2.94  0.  0.  0.
   296  2.95  0.  0.  0.
   297  2.96  0.  0.  0.
   298  2.97  0.  0.  0.
   299  2.98  0.  0.  0.
   300  2.99  0.  0.  0.
   301  3.00  0.  0.  0.
   302  3.01  0.  0.  0.
   303  3.02  0.  0.  0.
   304  3.03  0.  0.  0.
   305  3.04  0.  0.  0.
   306  3.05  0.  0.  0.
   307  3.06  0.  0.  0.
   308  3.07  0.  0.  0.
   309  3.08  0.  0.  0.
   310  3.09  0.  0.  0.
   311  3.10  0.  0.  0.
   312  3.11  0.  0.  0.
   313  3.12  0.  0.  0.
   314  3.13  0.  0.  0.
   315  3.14  0.  0.  0.
   316  3.15  0.  0.  0.
   317  3.16  0.  0.  0.
   318  3.17  0.  0.  0.
   319  3.18  0.  0.  0.
   320  3.19  0.  0.  0.
   321  3.20  0.  0.  0.
   322  3.21  0.  0.  0.
   323  3.22  0.  0.  0.
   324  3.23  0.  0.  0.
   325  3.24  0.  0.  0.
   326  3.25  0.  0.  0.
   327  3.26  0.  0.  0.
   328  3.27  0.  0.  0.
   329  3.28  0.  0.  0.
   330  3.29  0.  0.  0.
   331  3.30  0.  0.  0.
   332  3.31  0.  0.  0.
   333  3.32  0.  0.  0.
   334  3.33  0.  0.  0.
   335  3.34  0.  0.  0.
   336  3.35  0.  0.  0.
   337  3.36  0.  0.  0.
   338  3.37  0.  0.  0.
   339  3.38  0.  0.  0.
   340  3.39  0.  0.  0.
   341  3.40  0.  0.  0.
   342  3.41  0.  0.  0.
   343  3.42  0.  0.  0.
   344  3.43  0.  0.  0.
   345  3.44  0.  0.  0.
   346  3.45  0.  0.  0.
   347  3.46  0.  0.  0.
   348  3.47  0.  0.  0.
   349  3.48  0.  0.  0.
   350  3.49  0.  0.  0.
   351  3.50  0.  0.  0.
   352  3.51  0.  0.  0.
   353  3.52  0.  0.  0.
   354  3.53  0.  0.  0.
   355  3.54  0.  0.  0.
   356  3.55  0.  0.  0.
   357  3.56  0.  0.  0.
   358  3.57  0.  0.  0.
   359  3.58  0.  0.  0.
   360  3.59  0.  0.  0.
   361  3.60  0.  0.  0.
   362  3.61  0.  0.  0.
   363  3.62  0.  0.  0.
   364  3.63  0.  0.  0.
   365  3.64  0.  0.  0.
   366  3.65  0.  0.  0.
   367  3.66  0.  0.  0.
   368  3.67  0.  0.  0.
   369  3.68  0.  0.  0.
   370  3.69  0.  0.  0.
   371  3.70  0.  0.  0.
   372  3.71  0.  0.  0.
   373  3.72  0.  0.  0.
   374  3.73  0.  0.  0.
   375  3.74  0.  0.  0.
   376  3.75  0.  0.  0.
   377  3.76  0.  0.  0.
   378  3.77  0.  0.  0.
   379  3.78  0.  0.  0.
   380  3.79  0.  0.  0.
   381  3.80  0.  0.  0.
   382  3.81  0.  0.  0.
   383  3.82  0.  0.  0.
   384  3.83  0.  0.  0.
   385  3.84  0.  0.  0.
   386  3.85  0.  0.  0.
   387  3.86  0.  0.  0.
   388  3.87  0.  0.  0.
   389  3.88  0.  0.  0.
   390  3.89  0.  0.  0.
   391  3.90  0.  0.  0.
   392  3.91  0.  0.  0.
   393  3.92  0.  0.  0.
   394  3.93  0.  0.  0.
   395  3.94  0.  0.  0.
   396  3.95  0.  0.  0.
   397  3.96  0.  0.  0.
   398  3.97  0.  0.  0.
   399  3.98  0.  0.  0.
   400  3.99  0.  0.  0.
   401  4.00  0.  0.  0.
   402  4.01  0.  0.  0.
   403  4.02  0.  0.  0.
   404  4.03  0.  0.  0.
   405  4.04  0.  0.  0.
   406  4.05  0.  0.  0.
   407  4.06  0.  0.  0.
   408  4.07  0.  0.  0.
   409  4.08  0.  0.  0.
   410  4.09  0.  0.  0.
   411  4.10  0.  0.  0.
   412  4.11  0.  0.  0.
   413  4.12  0.  0.  0.
   414  4.13  0.  0.  0.
   415  4.14  0.  0.  0.
   416  4.15  0.  0.  0.
   417  4.16  0.  0.  0.
   418  4.17  0.  0.  0.
   419  4.18  0.  0.  0.
   420  4.19  0.  0.  0.
   421  4.20  0.  0.  0.
   422  4.21  0.  0.  0.
   423  4.22  0.  0.  0.
   424  4.23  0.  0.  0.
   425  4.24  0.  0.  0.
   426  4.25  0.  0.  0.
   427  4.26  0.  0.  0.
   428  4.27  0.  0.  0.
   429  4.28  0.  0.  0.
   430  4.29  0.  0.  0.
   431  4.30  0.  0.  0.
   432  4.31  0.  0.  0.
   433  4.32  0.  0.  0.
   434  4.33  0.  0.  0.
   435  4.34  0.  0.  0.
   436  4.35  0.  0.  0.
   437  4.36  0.  0.  0.
   438  4.37  0.  0.  0.
   439  4.38  0.  0.  0.
   440  4.39  0.  0.  0.
   441  4.40  0.  0.  0.
   442  4.41  0.  0.  0.
   443  4.42  0.  0.  0.
   444  4.43  0.  0.  0.
   445  4.44  0.  0.  0.
   446  4.45  0.  0.  0.
   447  4.46  0.  0.  0.
   448  4.47  0.  0.  0.
   449  4.48  0.  0.  0.
   450  4.49  0.  0.  0.
   451  4.50  0.  0.  0.
   452  4.51  0.  0.  0.
   453  4.52  0.  0.  0.
   454  4.53  0.  0.  0.
   455  4.54  0.  0.  0.
   456  4.55  0.  0.  0.
   457  4.56  0.  0.  0.
   458  4.57  0.  0.  0.
   459  4.58  0.  0.  0.
   460  4.59  0.  0.  0.
   461  4.60  0.  0.  0.
   462  4.61  0.  0.  0.
   463  4.62  0.  0.  0.
   464  4.63  0.  0.  0.
   465  4.64  0.  0.  0.
   466  4.65  0.  0.  0.
   467  4.66  0.  0.  0.
   468  4.67  0.  0.  0.
   469  4.68  0.  0.  0.
   470  4.69  0.  0.  0.
   471  4.70  0.  0.  0.
   472  4.71  0.  0.  0.
   473  4.72  0.  0.  0.
   474  4.73  0.  0.  0.
   475  4.74  0.  0.  0.
   476  4.75  0.  0.  0.
   477  4.76  0.  0.  0.
   478  4.77  0.  0.  0.
   479  4.78  0.  0.  0.
   480  4.79  0.  0.  0.
   481  4.80  0.  0.  0.
   482  4.81  0.  0.  0.
   483  4.82  0.  0.  0.
   484  4.83  0.  0.  0.
   485  4.84  0.  0.  0.
   486  4.85  0.  0.  0.
   487  4.86  0.  0.  0.
   488  4.87  0.  0.  0.
   489  4.88  0.  0.  0.
   490  4.89  0.  0.  0.
   491  4.90  0.  0.  0.
   492  4.91  0.  0.  0.
   493  4.92  0.  0.  0.
   494  4.93  0.  0.  0.
   495  4.94  0.  0.  0.
   496  4.95  0.  0.  0.
   497  4.96  0.  0.  0.
   498  4.97  0.  0.  0.
   499  4.98  0.  0.  0.
   500  4.99  0.  0.  0.
   501  5.00  0.  0.  0.
   502  5.01  0.  0.  0.
   503  5.02  0.  0.  0.
   504  5.03  0.  0.  0.
   505  5.04  0.  0.  0.
   506  5.05  0.  0.  0.
   507  5.06  0.  0.  0.
   508  5.07  0.  0.  0.
   509  5.08  0.  0.  0.
   510  5.09  0.  0.  0.
   511  5.10  0.  0.  0.
   512  5.11  0.  0.  0.
   513  5.12  0.  0.  0.
   514  5.13  0.  0.  0.
   515  5.14  0.  0.  0.
   516  5.15  0.  0.  0.
   517  5.16  0.  0.  0.
   518  5.17  0.  0.  0.
   519  5.18  0.  0.  0.
   520  5.19  0.  0.  0.
   521  5.20  0.  0.  0.
   522  5.21  0.  0.  0.
   523  5.22  0.  0.  0.
   524  5.23  0.  0.  0.
   525  5.24  0.  0.  0.
   526  5.25  0.  0.  0.
   527  5.26  0.  0.  0.
   528  5.27  0.  0.  0.
   529  5.28  0.  0.  0.
   530  5.29  0.  0.  0.
   531  5.30  0.  0.  0.
   532  5.31  0.  0.  0.
   533  5.32  0.  0.  0.
   534  5.33  0.  0.  0.
   535  5.34  0.  0.  0.
   536  5.35  0.  0.  0.
   537  5.36  0.  0.  0.
   538  5.37  0.  0.  0.
   539  5.38  0.  0.  0.
   540  5.39  0.  0.  0.
   541  5.40  0.  0.  0.
   542  5.41  0.  0.  0.
   543  5.42  0.  0.  0.
   544  5.43  0.  0.  0.
   545  5.44  0.  0.  0.
   546  5.45  0.  0.  0.
   547  5.46  0.  0.  0.
   548  5.47  0.  0.  0.
   549  5.48  0.  0.  0.
   550  5.49  0.  0.  0.
   551  5.50  0.  0.  0.
   552  5.51  0.  0.  0.
   553  5.52  0.  0.  0.
   554  5.53  0.  0.  0.
   555  5.54  0.  0.  0.
   556  5.55  0.  0.  0.
   557  5.56  0.  0.  0.
   558  5.57  0.  0.  0.
   559  5.58  0.  0.  0.
   560  5.59  0.  0.  0.
   561  5.60  0.  0.  0.
   562  5.61  0.  0.  0.
   563  5.62  0.  0.  0.
   564  5.63  0.  0.  0.
   565  5.64  0.  0.  0.
   566  5.65  0.  0.  0.
   567  5.66  0.  0.  0.
   568  5.67  0.  0.  0.
   569  5.68  0.  0.  0.
   570  5.69  0.  0.  0.
   571  5.70  0.  0.  0.
   572  5.71  0.  0.  0.
   573  5.72  0.  0.  0.
   574  5.73  0.  0.  0.
   575  5.74  0.  0.  0.
   576  5.75  0.  0.  0.
   577  5.76  0.  0.  0.
   578  5.77  0.  0.  0.
   579  5.78  0.  0.  0.
   580  5.79  0.  0.  0.
   581  5.80  0.  0.  0.
   582  5.81  0.  0.  0.
   583  5.82  0.  0.  0.
   584  5.83  0.  0.  0.
   585  5.84  0.  0.  0.
   586  5.85  0.  0.  0.
   587  5.86  0.  0.  0.
   588  5.87  0.  0.  0.
   589  5.88  0.  0.  0.
   590  5.89  0.  0.  0.
   591  5.90  0.  0.  0.
   592  5.91  0.  0.  0.
   593  5.92  0.  0.  0.
   594  5.93  0.  0.  0.
   595  5.94  0.  0.  0.
   596  5.95  0.  0.  0.
   597  5.96  0.  0.  0.
   598  5.97  0.  0.  0.
   599  5.98  0.  0.  0.
   600  5.99  0.  0.  0.
   1                         5.1137764987322E+00 -2.2504861305863E+00
     1  0.0000000000000E+00 -3.9625755260397E-08 -8.0415853351279E-09
     2  1.0000000000000E-02  2.9678968089767E-03  3.3509774242129E-04
     3  2.0000000000000E-02  1.1867042112296E-02  1.3462631573194E-03
     4  3.0000000000000E-02  2.6683172108442E-02  3.0509375208778E-03
     5  4.0000000000000E-02  4.7390445908760E-02  5.4776106650575E-03
     6  5.0000000000000E-02  7.3948436877957E-02  8.6649710108494E-03
     7  6.0000000000000E-02  1.0629810356693E-01  1.2660751959780E-02
     8  7.0000000000000E-02  1.4435691573999E-01  1.7520309592798E-02
     9  8.0000000000000E-02  1.8801335062449E-01  2.3304974667242E-02
    10  9.0000000000000E-02  2.3712100671606E-01  3.0080228571694E-02
    11  1.0000000000000E-01  2.9149260611298E-01  3.7913757982556E-02
    12  1.1000000000000E-01  3.5089417055753E-01  4.6873446302439E-02
    13  1.2000000000000E-01  4.1503966056846E-01  5.7025361442570E-02
    14  1.3000000000000E-01  4.8358636101760E-01  6.8431799092513E-02
    15  1.4000000000000E-01  5.5613128033166E-01  8.1149438314037E-02
    16  1.5000000000000E-01  6.3220880461590E-01  9.5227662177504E-02
    17  1.6000000000000E-01  7.1128981314872E-01  1.1070709036123E-01
    18  1.7000000000000E-01  7.9278241893463E-01  1.2761836334545E-01
    19  1.8000000000000E-01  8.7603444864274E-01  1.4598120928915E-01
    20  1.9000000000000E-01  9.6033772184047E-01  1.6580381515756E-01
    21  2.0000000000000E-01  1.0449341316813E+00  1.8708251348249E-01
    22  2.1000000000000E-01  1.1290234699664E+00  2.0980178561816E-01
    23  2.2000000000000E-01  1.2117728806888E+00  2.3393457184944E-01
    24  2.3000000000000E-01  1.2923277697076E+00  2.5944286856259E-01
    25  2.4000000000000E-01  1.3698239459559E+00  2.8627858323811E-01
    26  2.5000000000000E-01  1.4434007233132E+00  3.1438460958708E-01
    27  2.6000000000000E-01  1.5122146735554E+00  3.4369607801029E-01
    28  2.7000000000000E-01  1.5754536909892E+00  3.7414173095815E-01
    29  2.8000000000000E-01  1.6323510095802E+00  4.0564536890359E-01
    30  2.9000000000000E-01  1.6821988043726E+00  4.3812731064911E-01
    31  3.0000000000000E-01  1.7243610112322E+00  4.7150581165234E-01
    32  3.1000000000000E-01  1.7582850125167E+00  5.0569838598651E-01
    33  3.2000000000000E-01  1.7835118609355E+00  5.4062298140381E-01
    34  3.3000000000000E-01  1.7996847489829E+00  5.7619896262775E-01
    35  3.4000000000000E-01  1.8065554759704E+00  6.1234786528988E-01
    36  3.5000000000000E-01  1.8039887175726E+00  6.4899389161776E-01
    37  3.6000000000000E-01  1.7919639623977E+00  6.8606412879516E-01
    38  3.7000000000000E-01  1.7705750446302E+00  7.2348848153163E-01
    39  3.8000000000000E-01  1.7400272693074E+00  7.6119932144814E-01
    40  3.9000000000000E-01  1.7006321952317E+00  7.9913086703620E-01
    41  4.0000000000000E-01  1.6528002077501E+00  8.3721831880343E-01
    42  4.1000000000000E-01  1.5970310775547E+00  8.7539678440372E-01
    43  4.2000000000000E-01  1.5339027602332E+00  9.1360003770881E-01
    44  4.3000000000000E-01  1.4640587426511E+00  9.5175916357903E-01
    45  4.4000000000000E-01  1.3881942846888E+00  9.8980114624739E-01
    46  4.5000000000000E-01  1.3070419369793E+00  1.0276474634992E+00
    47  4.6000000000000E-01  1.2213567359793E+00  1.0652127510293E+00
    48  4.7000000000000E-01  1.1319014862041E+00  1.1024036013716E+00
    49  4.8000000000000E-01  1.0394325353795E+00  1.1391175595736E+00
    50  4.9000000000000E-01  9.4468643162496E-01  1.1752423733554E+00
    51  5.0000000000000E-01  8.4836782298735E-01  1.2106555489467E+00
    52  5.1000000000000E-01  7.5113891949425E-01  1.2452242553054E+00
    53  5.2000000000000E-01  6.5361078756180E-01  1.2788056092176E+00
    54  5.3000000000000E-01  5.5633668757242E-01  1.3112473621654E+00
    55  5.4000000000000E-01  4.5980759953909E-01  1.3423889971627E+00
    56  5.5000000000000E-01  3.6445001102897E-01  1.3720632303971E+00
    57  5.6000000000000E-01  2.7062596814826E-01  1.4000978988941E+00
    58  5.7000000000000E-01  1.7863531671889E-01  1.4263182019717E+00
    59  5.8000000000000E-01  8.8719989165823E-02  1.4505492514224E+00
    60  5.9000000000000E-01  1.0701254094832E-03  1.4726188735709E+00
    61  6.0000000000000E-01 -8.4168244572269E-02  1.4923605960160E+00
    62  6.1000000000000E-01 -1.6688428085599E-01  1.5096167433373E+00
    63  6.2000000000000E-01 -2.4699254231623E-01  1.5242415596498E+00
    64  6.3000000000000E-01 -3.2442271972014E-01  1.5361042718759E+00
    65  6.4000000000000E-01 -3.9910930570583E-01  1.5450920061560E+00
    66  6.5000000000000E-01 -4.7098161735046E-01  1.5511124710456E+00
    67  6.6000000000000E-01 -5.3995457630924E-01  1.5540963250696E+00
    68  6.7000000000000E-01 -6.0592062706731E-01  1.5539991527633E+00
    69  6.8000000000000E-01 -6.6874313632902E-01  1.5508029823744E+00
    70  6.9000000000000E-01 -7.2825156703213E-01  1.5445172897148E+00
    71  7.0000000000000E-01 -7.8423866039211E-01  1.5351794459185E+00
    72  7.1000000000000E-01 -8.3645979057441E-01  1.5228545817265E+00
    73  7.2000000000000E-01 -8.8463458120894E-01  1.5076348569429E+00
    74  7.3000000000000E-01 -9.2845079336597E-01  1.4896381404316E+00
    75  7.4000000000000E-01 -9.6757041337385E-01  1.4690061229334E+00
    76  7.5000000000000E-01 -1.0016377886023E+00  1.4459019015790E+00
    77  7.6000000000000E-01 -1.0302895827154E+00  1.4205070907291E+00
    78  7.7000000000000E-01 -1.0531662514836E+00  1.3930185281982E+00
    79  7.8000000000000E-01 -1.0699246784416E+00  1.3636446585445E+00
    80  7.9000000000000E-01 -1.0802515586466E+00  1.3326016855270E+00
    81  8.0000000000000E-01 -1.0838770803936E+00  1.3001095936786E+00
    82  8.1000000000000E-01 -1.0805884304379E+00  1.2663881439494E+00
    83  8.2000000000000E-01 -1.0702426391134E+00  1.2316529503407E+00
    84  8.3000000000000E-01 -1.0527782882848E+00  1.1961117432648E+00
    85  8.4000000000000E-01 -1.0282256274106E+00  1.1599609210303E+00
    86  8.5000000000000E-01 -9.9671468069812E-01  1.1233824834460E+00