Es    ONCVPSP-4.0.1  r_core=   1.15603   1.15603   1.33451   1.35057
     99.0000     39.0000      211211    zatom,zion,pspd
     8      11   3     4   600     0    pspcod,pspxc,lmax,lloc,mmax,r2well
  5.99000000  5.00000000  0.00000000    rchrg fchrg qchrg
     3     2     2     2     0    nproj
     1     1           extension_switch
   0                         2.4011214887594E+01  2.7790120196956E+00 -1.5767546549322E+00
     1  0.0000000000000E+00 -7.3603676709055E-08  2.5248906004860E-07 -8.3753833868272E-09
     2  1.0000000000000E-02  1.6178191929465E-01 -7.0111615862077E-02  3.4840337946835E-02
     3  2.0000000000000E-02  3.2227789935309E-01 -1.3825384194931E-01  6.9532095896167E-02
     4  3.0000000000000E-02  4.8022204896461E-01 -2.0251287226878E-01  1.0392892388188E-01
     5  4.0000000000000E-02  6.3438800505181E-01 -2.6108417362866E-01  1.3788887322409E-01
     6  5.0000000000000E-02  7.8360729720463E-01 -3.1232245459847E-01  1.7127645257503E-01
     7  6.0000000000000E-02  9.2678608874481E-01 -3.5478622545241E-01  2.0396451690939E-01
     8  7.0000000000000E-02  1.0629198441927E+00 -3.8727545825194E-01  2.3583594423819E-01
     9  8.0000000000000E-02  1.1911055466122E+00 -4.0886110871329E-01  2.6678506320097E-01
    10  9.0000000000000E-02  1.3105511749861E+00 -4.1890555893947E-01  2.9671880444790E-01
    11  1.0000000000000E-01  1.4205822482726E+00 -4.1707337136259E-01  3.2555755943308E-01
    12  1.1000000000000E-01  1.5206453454933E+00 -4.0333209697809E-01  3.5323574143086E-01
    13  1.2000000000000E-01  1.6103086162555E+00 -3.7794324198840E-01  3.7970205476494E-01
    14  1.3000000000000E-01  1.6892593995883E+00 -3.4144385284518E-01  4.0491948891129E-01
    15  1.4000000000000E-01  1.7572991670070E+00 -2.9461951712287E-01  4.2886506382786E-01
    16  1.5000000000000E-01  1.8143360946525E+00 -2.3846988410857E-01  4.5152936114621E-01
    17  1.6000000000000E-01  1.8603756458968E+00 -1.7416807306199E-01  4.7291588236276E-01
    18  1.7000000000000E-01  1.8955096071085E+00 -1.0301554899725E-01  4.9304027960016E-01
    19  1.8000000000000E-01  1.9199040631222E+00 -2.6394197740558E-02  5.1192950667203E-01
    20  1.9000000000000E-01  1.9337868237443E+00  5.4282581634740E-02  5.2962093797867E-01
    21  2.0000000000000E-01  1.9374348175401E+00  1.3761793119127E-01  5.4616150019547E-01
    22  2.1000000000000E-01  1.9311619540676E+00  2.2227695097054E-01  5.6160685690466E-01
    23  2.2000000000000E-01  1.9153079213571E+00  3.0702781242449E-01  5.7602067948291E-01
    24  2.3000000000000E-01  1.8902283331736E+00  3.9077708347434E-01  5.8947402900614E-01
    25  2.4000000000000E-01  1.8562865725621E+00  4.7259801657797E-01  6.0204486406350E-01
    26  2.5000000000000E-01  1.8138475970507E+00  5.5175083390267E-01  6.1381767864732E-01
    27  2.6000000000000E-01  1.7632738798893E+00  6.2769436198339E-01  6.2488326321282E-01
    28  2.7000000000000E-01  1.7049235644060E+00  7.0008870993719E-01  6.3533857111359E-01
    29  2.8000000000000E-01  1.6391508088004E+00  7.6878903740254E-01  6.4528666245230E-01
    30  2.9000000000000E-01  1.5663082003716E+00  8.3383080745455E-01  6.5483668845312E-01
    31  3.0000000000000E-01  1.4867510251662E+00  8.9540725255041E-01  6.6410387223351E-01
    32  3.1000000000000E-01  1.4008430949843E+00  9.5384008542182E-01  6.7320943673014E-01
    33  3.2000000000000E-01  1.3089637619132E+00  1.0095447502197E+00  6.8228042783635E-01
    34  3.3000000000000E-01  1.2115156938996E+00  1.0629917221225E+00  6.9144938075392E-01
    35  3.4000000000000E-01  1.1089329455988E+00  1.1146655179805E+00  7.0085378025579E-01
    36  3.5000000000000E-01  1.0016888384175E+00  1.1650231705317E+00  7.1063527098692E-01
    37  3.6000000000000E-01  8.9030316317436E-01  1.2144539408985E+00  7.2093858196103E-01
    38  3.7000000000000E-01  7.7534823821525E-01  1.2632419976512E+00  7.3191013979150E-01
    39  3.8000000000000E-01  6.5745339446687E-01  1.3115336774873E+00  7.4369635756126E-01
    40  3.9000000000000E-01  5.3730751537285E-01  1.3593107668617E+00  7.5644160012946E-01
    41  4.0000000000000E-01  4.1565933181010E-01  1.4063710124237E+00  7.7028584155339E-01
    42  4.1000000000000E-01  2.9331525721806E-01  1.4523167896640E+00  7.8536204557334E-01
    43  4.2000000000000E-01  1.7113464305228E-01  1.4965525443783E+00  8.0179331513216E-01
    44  4.3000000000000E-01  5.0022435694036E-02  1.5382912823376E+00  8.1968987103818E-01
    45  4.4000000000000E-01 -6.9080680749565E-02  1.5765700318298E+00  8.3914593250341E-01
    46  4.5000000000000E-01 -1.8521046967828E-01  1.6102738547729E+00  8.6023658281688E-01
    47  4.6000000000000E-01 -2.9739337310472E-01  1.6381676481253E+00  8.8301471133343E-01
    48  4.7000000000000E-01 -4.0466241963335E-01  1.6589346709441E+00  9.0750812784867E-01
    49  4.8000000000000E-01 -5.0607436605735E-01  1.6712204652263E+00  9.3371694698148E-01
    50  4.9000000000000E-01 -6.0072757051606E-01  1.6736806206477E+00  9.6161133821213E-01
    51  5.0000000000000E-01 -6.8778005408822E-01  1.6650306726660E+00  9.9112973167667E-01
    52  5.1000000000000E-01 -7.6646718597831E-01  1.6440963261244E+00  1.0221775607922E+00
    53  5.2000000000000E-01 -8.3611842596770E-01  1.6098621660751E+00  1.0546266105109E+00
    54  5.3000000000000E-01 -8.9617257666896E-01  1.5615170550383E+00  1.0883150248437E+00
    55  5.4000000000000E-01 -9.4619103669790E-01  1.4984945198043E+00  1.1230480097346E+00
    56  5.5000000000000E-01 -9.8586860278083E-01  1.4205065971460E+00  1.1585992480040E+00
    57  5.6000000000000E-01 -1.0150414419823E+00  1.3275698300909E+00  1.1947130225685E+00
    58  5.7000000000000E-01 -1.0336919420074E+00  1.2200223762825E+00  1.2311070232270E+00
    59  5.8000000000000E-01 -1.0419502447445E+00  1.0985314973052E+00  1.2674757917113E+00
    60  5.9000000000000E-01 -1.0400923723396E+00  9.6409103115673E-01  1.3034947402028E+00
    61  6.0000000000000E-01 -1.0285349623668E+00  8.1800879697018E-01  1.3388246608131E+00
    62  6.1000000000000E-01 -1.0078267352303E+00  6.6188422882177E-01  1.3731166282828E+00
    63  6.2000000000000E-01 -9.7863691899327E-01  4.9757687132518E-01  1.4060171859307E+00
    64  6.3000000000000E-01 -9.4174095080557E-01  3.2716668156625E-01  1.4371736961403E+00
    65  6.4000000000000E-01 -8.9800385670546E-01  1.5290735865571E-01  1.4662397317269E+00
    66  6.5000000000000E-01 -8.4836178002917E-01 -2.2825845898218E-02  1.4928803835659E+00
    67  6.6000000000000E-01 -7.9380218070509E-01 -1.9759220459838E-01  1.5167773629146E+00
    68  6.7000000000000E-01 -7.3534326174100E-01 -3.6894372410682E-01  1.5376337837892E+00
    69  6.8000000000000E-01 -6.7401319430094E-01 -5.3448367761504E-01  1.5551785213073E+00
    70  6.9000000000000E-01 -6.1082970870098E-01 -6.9192365285306E-01  1.5691700556469E+00
    71  7.0000000000000E-01 -5.4678059592416E-01 -8.3913737638394E-01  1.5793997276866E+00
    72  7.1000000000000E-01 -4.8280562402837E-01 -9.7420970097349E-01  1.5856943508307E+00
    73  7.2000000000000E-01 -4.1978031788166E-01 -1.0954793223889E+00  1.5879181433010E+00
    74  7.3000000000000E-01 -3.5850198132966E-01 -1.2015740176081E+00  1.5859739655242E+00
    75  7.4000000000000E-01 -2.9967826092222E-01 -1.2914374592646E+00  1.5798038674150E+00
    76  7.5000000000000E-01 -2.4391846278704E-01 -1.3643469511280E+00  1.5693889695924E+00
    77  7.6000000000000E-01 -1.9172774238818E-01 -1.4199217357677E+00  1.5547487201868E+00
    78  7.7000000000000E-01 -1.4350419407769E-01 -1.4581218371431E+00  1.5359395842724E+00
    79  7.8000000000000E-01 -9.9538776801178E-02 -1.4792377066722E+00  1.5130532355851E+00
    80  7.9000000000000E-01 -6.0017927115706E-02 -1.4838712308909E+00  1.4862143296703E+00
    81  8.0000000000000E-01 -2.5028633590367E-02 -1.4729089225142E+00  1.4555779436942E+00
    82  8.1000000000000E-01  5.4343199471413E-03 -1.4474883462043E+00  1.4213267707522E+00
    83  8.2000000000000E-01  3.1459289082124E-02 -1.4089590187573E+00  1.3836681556634E+00
    84  8.3000000000000E-01  5.3207268650480E-02 -1.3588391656088E+00  1.3428310551518E+00
    85  8.4000000000000E-01  7.0900370916104E-02 -1.2987698081724E+00  1.2990629983262E+00
    86  8.5000000000000E-01  8.4809706378989E-02 -1.2304676980943E+00  1.2526271139280E+00
    87  8.6000000000000E-01  9.5243088102515E-02 -1.1556786053794E+00  1.2037992794921E+00
    88  8.7000000000000E-01  1.0253296331097E-01 -1.0761324095427E+00  1.1528654349868E+00
    89  8.8000000000000E-01  1.0702494635619E-01 -9.9350134004287E-01  1.1001190903440E+00
    90  8.9000000000000E-01  1.0906728655263E-01 -9.0936256905635E-01  1.0458590432542E+00
    91  9.0000000000000E-01  1.0900155466299E-01 -8.2516618194458E-01  9.9038731135669E-01
    92  9.1000000000000E-01  1.0715477495803E-01 -7.4220934497587E-01  9.3400727212691E-01
    93  9.2000000000000E-01  1.0383316780324E-01 -6.6161726269554E-01  8.7702199489101E-01
    94  9.3000000000000E-01  9.9317602597692E-02 -5.8433127543183E-01  8.1973274293074E-01
    95  9.4000000000000E-01  9.3860794424533E-02 -5.1110419710432E-01  7.6243761987494E-01
    96  9.5000000000000E-01  8.7686211476139E-02 -4.4250274017954E-01  7.0543033368299E-01
    97  9.6000000000000E-01  8.0988595438352E-02 -3.7891662302426E-01  6.4899905350890E-01
    98  9.7000000000000E-01  7.3935934333136E-02 -3.2057370828404E-01  5.9342533943642E-01
    99  9.8000000000000E-01  6.6672667203066E-02 -2.6756028130561E-01  5.3898313217390E-01
   100  9.9000000000000E-01  5.9323842379600E-02 -2.1984534559956E-01  4.8593779880941E-01
   101  1.0000000000000E+00  5.1999895286635E-02 -1.7730758674684E-01  4.3454524103619E-01
   102  1.0100000000000E+00  4.4801656793578E-02 -1.3976343469463E-01  3.8505108310141E-01
   103  1.0200000000000E+00  3.7825147561131E-02 -1.0699443311551E-01  3.3768996724838E-01
   104  1.0300000000000E+00  3.1165655717478E-02 -7.8771898068757E-02  2.9268499367817E-01
   105  1.0400000000000E+00  2.4920532401088E-02 -5.4876610425501E-02  2.5024734902976E-01
   106  1.0500000000000E+00  1.9190069845658E-02 -3.5111030443952E-02  2.1057617104827E-01
   107  1.0600000000000E+00  1.4075746950892E-02 -1.9301239944792E-02  1.7385869643980E-01
   108  1.0700000000000E+00  9.6750351103591E-03 -7.2854999957555E-03  1.4027073286691E-01
   109  1.0800000000000E+00  6.0718703655612E-03  1.1139878767668E-03  1.0997750252219E-01
   110  1.0900000000000E+00  3.3215869487222E-03  6.1405032654900E-03  8.3134719101872E-02
   111  1.1000000000000E+00  1.4264693047184E-03  8.1853835856600E-03  5.9887400954800E-02
   112  1.1100000000000E+00  2.4983158916331E-04  8.0584460240451E-03  4.0315823893157E-02
   113  1.1200000000000E+00 -3.3394764498171E-04  6.5186080126749E-03  2.4548156787971E-02
   114  1.1300000000000E+00 -4.5235904359227E-04  4.2355987887051E-03  1.2686596325976E-02
   115  1.1400000000000E+00 -2.8551062686414E-04  1.9242827345012E-03  4.7482727730110E-03
   116  1.1500000000000E+00 -5.8561535549669E-05  3.2233185864254E-04  6.7113790142440E-04
   117  1.1600000000000E+00  3.9085928792272E-06 -1.9358935946305E-05 -3.5889248619873E-05
   118  1.1700000000000E+00  5.9790284700543E-09 -3.3302234112183E-08 -7.0046558436768E-08
   119  1.18 -0.  0. -0.
   120  1.19  0.  0.  0.
   121  1.20  0.  0.  0.
   122  1.21  0.  0.  0.
   123  1.22  0.  0.  0.
   124  1.23  0.  0.  0.
   125  1.24  0.  0.  0.
   126  1.25  0.  0.  0.
   127  1.26  0.  0.  0.
   128  1.27  0.  0.  0.
   129  1.28  0.  0.  0.
   130  1.29  0.  0.  0.
   131  1.30  0.  0.  0.
   132  1.31  0.  0.  0.
   133  1.32  0.  0.  0.
   134  1.33  0.  0.  0.
   135  1.34  0.  0.  0.
   136  1.35  0.  0.  0.
   137  1.36  0.  0.  0.
   138  1.37  0.  0.  0.
   139  1.38  0.  0.  0.
   140  1.39  0.  0.  0.
   141  1.40  0.  0.  0.
   142  1.41  0.  0.  0.
   143  1.42  0.  0.  0.
   144  1.43  0.  0.  0.
   145  1.44  0.  0.  0.
   146  1.45  0.  0.  0.
   147  1.46  0.  0.  0.
   148  1.47  0.  0.  0.
   149  1.48  0.  0.  0.
   150  1.49  0.  0.  0.
   151  1.50  0.  0.  0.
   152  1.51  0.  0.  0.
   153  1.52  0.  0.  0.
   154  1.53  0.  0.  0.
   155  1.54  0.  0.  0.
   156  1.55  0.  0.  0.
   157  1.56  0.  0.  0.
   158  1.57  0.  0.  0.
   159  1.58  0.  0.  0.
   160  1.59  0.  0.  0.
   161  1.60  0.  0.  0.
   162  1.61  0.  0.  0.
   163  1.62  0.  0.  0.
   164  1.63  0.  0.  0.
   165  1.64  0.  0.  0.
   166  1.65  0.  0.  0.
   167  1.66  0.  0.  0.
   168  1.67  0.  0.  0.
   169  1.68  0.  0.  0.
   170  1.69  0.  0.  0.
   171  1.70  0.  0.  0.
   172  1.71  0.  0.  0.
   173  1.72  0.  0.  0.
   174  1.73  0.  0.  0.
   175  1.74  0.  0.  0.
   176  1.75  0.  0.  0.
   177  1.76  0.  0.  0.
   178  1.77  0.  0.  0.
   179  1.78  0.  0.  0.
   180  1.79  0.  0.  0.
   181  1.80  0.  0.  0.
   182  1.81  0.  0.  0.
   183  1.82  0.  0.  0.
   184  1.83  0.  0.  0.
   185  1.84  0.  0.  0.
   186  1.85  0.  0.  0.
   187  1.86  0.  0.  0.
   188  1.87  0.  0.  0.
   189  1.88  0.  0.  0.
   190  1.89  0.  0.  0.
   191  1.90  0.  0.  0.
   192  1.91  0.  0.  0.
   193  1.92  0.  0.  0.
   194  1.93  0.  0.  0.
   195  1.94  0.  0.  0.
   196  1.95  0.  0.  0.
   197  1.96  0.  0.  0.
   198  1.97  0.  0.  0.
   199  1.98  0.  0.  0.
   200  1.99  0.  0.  0.
   201  2.00  0.  0.  0.
   202  2.01  0.  0.  0.
   203  2.02  0.  0.  0.
   204  2.03  0.  0.  0.
   205  2.04  0.  0.  0.
   206  2.05  0.  0.  0.
   207  2.06  0.  0.  0.
   208  2.07  0.  0.  0.
   209  2.08  0.  0.  0.
   210  2.09  0.  0.  0.
   211  2.10  0.  0.  0.
   212  2.11  0.  0.  0.
   213  2.12  0.  0.  0.
   214  2.13  0.  0.  0.
   215  2.14  0.  0.  0.
   216  2.15  0.  0.  0.
   217  2.16  0.  0.  0.
   218  2.17  0.  0.  0.
   219  2.18  0.  0.  0.
   220  2.19  0.  0.  0.
   221  2.20  0.  0.  0.
   222  2.21  0.  0.  0.
   223  2.22  0.  0.  0.
   224  2.23  0.  0.  0.
   225  2.24  0.  0.  0.
   226  2.25  0.  0.  0.
   227  2.26  0.  0.  0.
   228  2.27  0.  0.  0.
   229  2.28  0.  0.  0.
   230  2.29  0.  0.  0.
   231  2.30  0.  0.  0.
   232  2.31  0.  0.  0.
   233  2.32  0.  0.  0.
   234  2.33  0.  0.  0.
   235  2.34  0.  0.  0.
   236  2.35  0.  0.  0.
   237  2.36  0.  0.  0.
   238  2.37  0.  0.  0.
   239  2.38  0.  0.  0.
   240  2.39  0.  0.  0.
   241  2.40  0.  0.  0.
   242  2.41  0.  0.  0.
   243  2.42  0.  0.  0.
   244  2.43  0.  0.  0.
   245  2.44  0.  0.  0.
   246  2.45  0.  0.  0.
   247  2.46  0.  0.  0.
   248  2.47  0.  0.  0.
   249  2.48  0.  0.  0.
   250  2.49  0.  0.  0.
   251  2.50  0.  0.  0.
   252  2.51  0.  0.  0.
   253  2.52  0.  0.  0.
   254  2.53  0.  0.  0.
   255  2.54  0.  0.  0.
   256  2.55  0.  0.  0.
   257  2.56  0.  0.  0.
   258  2.57  0.  0.  0.
   259  2.58  0.  0.  0.
   260  2.59  0.  0.  0.
   261  2.60  0.  0.  0.
   262  2.61  0.  0.  0.
   263  2.62  0.  0.  0.
   264  2.63  0.  0.  0.
   265  2.64  0.  0.  0.
   266  2.65  0.  0.  0.
   267  2.66  0.  0.  0.
   268  2.67  0.  0.  0.
   269  2.68  0.  0.  0.
   270  2.69  0.  0.  0.
   271  2.70  0.  0.  0.
   272  2.71  0.  0.  0.
   273  2.72  0.  0.  0.
   274  2.73  0.  0.  0.
   275  2.74  0.  0.  0.
   276  2.75  0.  0.  0.
   277  2.76  0.  0.  0.
   278  2.77  0.  0.  0.
   279  2.78  0.  0.  0.
   280  2.79  0.  0.  0.
   281  2.80  0.  0.  0.
   282  2.81  0.  0.  0.
   283  2.82  0.  0.  0.
   284  2.83  0.  0.  0.
   285  2.84  0.  0.  0.
   286  2.85  0.  0.  0.
   287  2.86  0.  0.  0.
   288  2.87  0.  0.  0.
   289  2.88  0.  0.  0.
   290  2.89  0.  0.  0.
   291  2.90  0.  0.  0.
   292  2.91  0.  0.  0.
   293  2.92  0.  0.  0.
   294  2.93  0.  0.  0.
   295  2.94  0.  0.  0.
   296  2.95  0.  0.  0.
   297  2.96  0.  0.  0.
   298  2.97  0.  0.  0.
   299  2.98  0.  0.  0.
   300  2.99  0.  0.  0.
   301  3.00  0.  0.  0.
   302  3.01  0.  0.  0.
   303  3.02  0.  0.  0.
   304  3.03  0.  0.  0.
   305  3.04  0.  0.  0.
   306  3.05  0.  0.  0.
   307  3.06  0.  0.  0.
   308  3.07  0.  0.  0.
   309  3.08  0.  0.  0.
   310  3.09  0.  0.  0.
   311  3.10  0.  0.  0.
   312  3.11  0.  0.  0.
   313  3.12  0.  0.  0.
   314  3.13  0.  0.  0.
   315  3.14  0.  0.  0.
   316  3.15  0.  0.  0.
   317  3.16  0.  0.  0.
   318  3.17  0.  0.  0.
   319  3.18  0.  0.  0.
   320  3.19  0.  0.  0.
   321  3.20  0.  0.  0.
   322  3.21  0.  0.  0.
   323  3.22  0.  0.  0.
   324  3.23  0.  0.  0.
   325  3.24  0.  0.  0.
   326  3.25  0.  0.  0.
   327  3.26  0.  0.  0.
   328  3.27  0.  0.  0.
   329  3.28  0.  0.  0.
   330  3.29  0.  0.  0.
   331  3.30  0.  0.  0.
   332  3.31  0.  0.  0.
   333  3.32  0.  0.  0.
   334  3.33  0.  0.  0.
   335  3.34  0.  0.  0.
   336  3.35  0.  0.  0.
   337  3.36  0.  0.  0.
   338  3.37  0.  0.  0.
   339  3.38  0.  0.  0.
   340  3.39  0.  0.  0.
   341  3.40  0.  0.  0.
   342  3.41  0.  0.  0.
   343  3.42  0.  0.  0.
   344  3.43  0.  0.  0.
   345  3.44  0.  0.  0.
   346  3.45  0.  0.  0.
   347  3.46  0.  0.  0.
   348  3.47  0.  0.  0.
   349  3.48  0.  0.  0.
   350  3.49  0.  0.  0.
   351  3.50  0.  0.  0.
   352  3.51  0.  0.  0.
   353  3.52  0.  0.  0.
   354  3.53  0.  0.  0.
   355  3.54  0.  0.  0.
   356  3.55  0.  0.  0.
   357  3.56  0.  0.  0.
   358  3.57  0.  0.  0.
   359  3.58  0.  0.  0.
   360  3.59  0.  0.  0.
   361  3.60  0.  0.  0.
   362  3.61  0.  0.  0.
   363  3.62  0.  0.  0.
   364  3.63  0.  0.  0.
   365  3.64  0.  0.  0.
   366  3.65  0.  0.  0.
   367  3.66  0.  0.  0.
   368  3.67  0.  0.  0.
   369  3.68  0.  0.  0.
   370  3.69  0.  0.  0.
   371  3.70  0.  0.  0.
   372  3.71  0.  0.  0.
   373  3.72  0.  0.  0.
   374  3.73  0.  0.  0.
   375  3.74  0.  0.  0.
   376  3.75  0.  0.  0.
   377  3.76  0.  0.  0.
   378  3.77  0.  0.  0.
   379  3.78  0.  0.  0.
   380  3.79  0.  0.  0.
   381  3.80  0.  0.  0.
   382  3.81  0.  0.  0.
   383  3.82  0.  0.  0.
   384  3.83  0.  0.  0.
   385  3.84  0.  0.  0.
   386  3.85  0.  0.  0.
   387  3.86  0.  0.  0.
   388  3.87  0.  0.  0.
   389  3.88  0.  0.  0.
   390  3.89  0.  0.  0.
   391  3.90  0.  0.  0.
   392  3.91  0.  0.  0.
   393  3.92  0.  0.  0.
   394  3.93  0.  0.  0.
   395  3.94  0.  0.  0.
   396  3.95  0.  0.  0.
   397  3.96  0.  0.  0.
   398  3.97  0.  0.  0.
   399  3.98  0.  0.  0.
   400  3.99  0.  0.  0.
   401  4.00  0.  0.  0.
   402  4.01  0.  0.  0.
   403  4.02  0.  0.  0.
   404  4.03  0.  0.  0.
   405  4.04  0.  0.  0.
   406  4.05  0.  0.  0.
   407  4.06  0.  0.  0.
   408  4.07  0.  0.  0.
   409  4.08  0.  0.  0.
   410  4.09  0.  0.  0.
   411  4.10  0.  0.  0.
   412  4.11  0.  0.  0.
   413  4.12  0.  0.  0.
   414  4.13  0.  0.  0.
   415  4.14  0.  0.  0.
   416  4.15  0.  0.  0.
   417  4.16  0.  0.  0.
   418  4.17  0.  0.  0.
   419  4.18  0.  0.  0.
   420  4.19  0.  0.  0.
   421  4.20  0.  0.  0.
   422  4.21  0.  0.  0.
   423  4.22  0.  0.  0.
   424  4.23  0.  0.  0.
   425  4.24  0.  0.  0.
   426  4.25  0.  0.  0.
   427  4.26  0.  0.  0.
   428  4.27  0.  0.  0.
   429  4.28  0.  0.  0.
   430  4.29  0.  0.  0.
   431  4.30  0.  0.  0.
   432  4.31  0.  0.  0.
   433  4.32  0.  0.  0.
   434  4.33  0.  0.  0.
   435  4.34  0.  0.  0.
   436  4.35  0.  0.  0.
   437  4.36  0.  0.  0.
   438  4.37  0.  0.  0.
   439  4.38  0.  0.  0.
   440  4.39  0.  0.  0.
   441  4.40  0.  0.  0.
   442  4.41  0.  0.  0.
   443  4.42  0.  0.  0.
   444  4.43  0.  0.  0.
   445  4.44  0.  0.  0.
   446  4.45  0.  0.  0.
   447  4.46  0.  0.  0.
   448  4.47  0.  0.  0.
   449  4.48  0.  0.  0.
   450  4.49  0.  0.  0.
   451  4.50  0.  0.  0.
   452  4.51  0.  0.  0.
   453  4.52  0.  0.  0.
   454  4.53  0.  0.  0.
   455  4.54  0.  0.  0.
   456  4.55  0.  0.  0.
   457  4.56  0.  0.  0.
   458  4.57  0.  0.  0.
   459  4.58  0.  0.  0.
   460  4.59  0.  0.  0.
   461  4.60  0.  0.  0.
   462  4.61  0.  0.  0.
   463  4.62  0.  0.  0.
   464  4.63  0.  0.  0.
   465  4.64  0.  0.  0.
   466  4.65  0.  0.  0.
   467  4.66  0.  0.  0.
   468  4.67  0.  0.  0.
   469  4.68  0.  0.  0.
   470  4.69  0.  0.  0.
   471  4.70  0.  0.  0.
   472  4.71  0.  0.  0.
   473  4.72  0.  0.  0.
   474  4.73  0.  0.  0.
   475  4.74  0.  0.  0.
   476  4.75  0.  0.  0.
   477  4.76  0.  0.  0.
   478  4.77  0.  0.  0.
   479  4.78  0.  0.  0.
   480  4.79  0.  0.  0.
   481  4.80  0.  0.  0.
   482  4.81  0.  0.  0.
   483  4.82  0.  0.  0.
   484  4.83  0.  0.  0.
   485  4.84  0.  0.  0.
   486  4.85  0.  0.  0.
   487  4.86  0.  0.  0.
   488  4.87  0.  0.  0.
   489  4.88  0.  0.  0.
   490  4.89  0.  0.  0.
   491  4.90  0.  0.  0.
   492  4.91  0.  0.  0.
   493  4.92  0.  0.  0.
   494  4.93  0.  0.  0.
   495  4.94  0.  0.  0.
   496  4.95  0.  0.  0.
   497  4.96  0.  0.  0.
   498  4.97  0.  0.  0.
   499  4.98  0.  0.  0.
   500  4.99  0.  0.  0.
   501  5.00  0.  0.  0.
   502  5.01  0.  0.  0.
   503  5.02  0.  0.  0.
   504  5.03  0.  0.  0.
   505  5.04  0.  0.  0.
   506  5.05  0.  0.  0.
   507  5.06  0.  0.  0.
   508  5.07  0.  0.  0.
   509  5.08  0.  0.  0.
   510  5.09  0.  0.  0.
   511  5.10  0.  0.  0.
   512  5.11  0.  0.  0.
   513  5.12  0.  0.  0.
   514  5.13  0.  0.  0.
   515  5.14  0.  0.  0.
   516  5.15  0.  0.  0.
   517  5.16  0.  0.  0.
   518  5.17  0.  0.  0.
   519  5.18  0.  0.  0.
   520  5.19  0.  0.  0.
   521  5.20  0.  0.  0.
   522  5.21  0.  0.  0.
   523  5.22  0.  0.  0.
   524  5.23  0.  0.  0.
   525  5.24  0.  0.  0.
   526  5.25  0.  0.  0.
   527  5.26  0.  0.  0.
   528  5.27  0.  0.  0.
   529  5.28  0.  0.  0.
   530  5.29  0.  0.  0.
   531  5.30  0.  0.  0.
   532  5.31  0.  0.  0.
   533  5.32  0.  0.  0.
   534  5.33  0.  0.  0.
   535  5.34  0.  0.  0.
   536  5.35  0.  0.  0.
   537  5.36  0.  0.  0.
   538  5.37  0.  0.  0.
   539  5.38  0.  0.  0.
   540  5.39  0.  0.  0.
   541  5.40  0.  0.  0.
   542  5.41  0.  0.  0.
   543  5.42  0.  0.  0.
   544  5.43  0.  0.  0.
   545  5.44  0.  0.  0.
   546  5.45  0.  0.  0.
   547  5.46  0.  0.  0.
   548  5.47  0.  0.  0.
   549  5.48  0.  0.  0.
   550  5.49  0.  0.  0.
   551  5.50  0.  0.  0.
   552  5.51  0.  0.  0.
   553  5.52  0.  0.  0.
   554  5.53  0.  0.  0.
   555  5.54  0.  0.  0.
   556  5.55  0.  0.  0.
   557  5.56  0.  0.  0.
   558  5.57  0.  0.  0.
   559  5.58  0.  0.  0.
   560  5.59  0.  0.  0.
   561  5.60  0.  0.  0.
   562  5.61  0.  0.  0.
   563  5.62  0.  0.  0.
   564  5.63  0.  0.  0.
   565  5.64  0.  0.  0.
   566  5.65  0.  0.  0.
   567  5.66  0.  0.  0.
   568  5.67  0.  0.  0.
   569  5.68  0.  0.  0.
   570  5.69  0.  0.  0.
   571  5.70  0.  0.  0.
   572  5.71  0.  0.  0.
   573  5.72  0.  0.  0.
   574  5.73  0.  0.  0.
   575  5.74  0.  0.  0.
   576  5.75  0.  0.  0.
   577  5.76  0.  0.  0.
   578  5.77  0.  0.  0.
   579  5.78  0.  0.  0.
   580  5.79  0.  0.  0.
   581  5.80  0.  0.  0.
   582  5.81  0.  0.  0.
   583  5.82  0.  0.  0.
   584  5.83  0.  0.  0.
   585  5.84  0.  0.  0.
   586  5.85  0.  0.  0.
   587  5.86  0.  0.  0.
   588  5.87  0.  0.  0.
   589  5.88  0.  0.  0.
   590  5.89  0.  0.  0.
   591  5.90  0.  0.  0.
   592  5.91  0.  0.  0.
   593  5.92  0.  0.  0.
   594  5.93  0.  0.  0.
   595  5.94  0.  0.  0.
   596  5.95  0.  0.  0.
   597  5.96  0.  0.  0.
   598  5.97  0.  0.  0.
   599  5.98  0.  0.  0.
   600  5.99  0.  0.  0.
   1                         7.6228392803407E+00 -1.4790271611639E+00
     1  0.0000000000000E+00 -1.7525427498111E-08 -2.1475796878681E-08
     2  1.0000000000000E-02  4.3050978775333E-03  1.5833335462782E-04
     3  2.0000000000000E-02  1.7188274963416E-02  6.4551993016599E-04
     4  3.0000000000000E-02  3.8553138745310E-02  1.4977042342425E-03
     5  4.0000000000000E-02  6.8238905613113E-02  2.7737586844444E-03
     6  5.0000000000000E-02  1.0602025330056E-01  4.5532828941440E-03
     7  6.0000000000000E-02  1.5160720524839E-01  6.9339045431025E-03
     8  7.0000000000000E-02  2.0464513277153E-01  1.0027979142648E-02
     9  8.0000000000000E-02  2.6471497843791E-01  1.3958807481020E-02
    10  9.0000000000000E-02  3.3133381670971E-01  1.8856506588436E-02
    11  1.0000000000000E-01  4.0395587497293E-01  2.4853682053958E-02
    12  1.1000000000000E-01  4.8197413912424E-01  3.2081056006879E-02
    13  1.2000000000000E-01  5.6472266266322E-01  4.0663205795651E-02
    14  1.3000000000000E-01  6.5147968677425E-01  5.0714563323947E-02
    15  1.4000000000000E-01  7.4147166144235E-01  6.2335814318530E-02
    16  1.5000000000000E-01  8.3387823474260E-01  7.5610820898574E-02
    17  1.6000000000000E-01  9.2783824980988E-01  9.0604170279545E-02
    18  1.7000000000000E-01  1.0224567575705E+00  1.0735942804003E-01
    19  1.8000000000000E-01  1.1168130192062E+00  1.2589814701906E-01
    20  1.9000000000000E-01  1.2099694367539E+00  1.4621965362104E-01
    21  2.0000000000000E-01  1.3009813145434E+00  1.6830160318999E-01
    22  2.1000000000000E-01  1.3889073196852E+00  1.9210126631697E-01
    23  2.2000000000000E-01  1.4728204778888E+00  2.1755747959967E-01
    24  2.3000000000000E-01  1.5518195127853E+00  2.4459316857299E-01
    25  2.4000000000000E-01  1.6250403138089E+00  2.7311832827268E-01
    26  2.5000000000000E-01  1.6916673005722E+00  3.0303332905885E-01
    27  2.6000000000000E-01  1.7509444413418E+00  3.3423240262381E-01
    28  2.7000000000000E-01  1.8021856802729E+00  3.6660715606913E-01
    29  2.8000000000000E-01  1.8447845328127E+00  4.0004996087419E-01
    30  2.9000000000000E-01  1.8782226211736E+00  4.3445706858628E-01
    31  3.0000000000000E-01  1.9020769417995E+00  4.6973131600447E-01
    32  3.1000000000000E-01  1.9160256837777E+00  5.0578429913976E-01
    33  3.2000000000000E-01  1.9198524504507E+00  5.4253791673325E-01
    34  3.3000000000000E-01  1.9134487750343E+00  5.7992520982497E-01
    35  3.4000000000000E-01  1.8968148636738E+00  6.1789045283909E-01
    36  3.5000000000000E-01  1.8700585446881E+00  6.5638848280418E-01
    37  3.6000000000000E-01  1.8333924492922E+00  6.9538328547589E-01
    38  3.7000000000000E-01  1.7871294953121E+00  7.3484588903857E-01
    39  3.8000000000000E-01  1.7316767897442E+00  7.7475164648463E-01
    40  3.9000000000000E-01  1.6675281069837E+00  8.1507701550167E-01
    41  4.0000000000000E-01  1.5952551357272E+00  8.5579596861097E-01
    42  4.1000000000000E-01  1.5154977177127E+00  8.9687618540597E-01
    43  4.2000000000000E-01  1.4289533245429E+00  9.3827519220652E-01
    44  4.3000000000000E-01  1.3363660340463E+00  9.7993662164996E-01
    45  4.4000000000000E-01  1.2385152744322E+00  1.0217867652870E+00
    46  4.5000000000000E-01  1.1362046026713E+00  1.0637315859897E+00
    47  4.6000000000000E-01  1.0302507731481E+00  1.1056543440180E+00
    48  4.7000000000000E-01  9.2147333408680E-01  1.1474139713006E+00
    49  4.8000000000000E-01  8.1068496322764E-01  1.1888443034697E+00
    50  4.9000000000000E-01  6.9868272169372E-01  1.2297542493035E+00
    51  5.0000000000000E-01  5.8624036714192E-01  1.2699289435097E+00
    52  5.1000000000000E-01  4.7410182554740E-01  1.3091318924394E+00
    53  5.2000000000000E-01  3.6297587688184E-01  1.3471080846917E+00
    54  5.3000000000000E-01  2.5353206516238E-01  1.3835880010536E+00
    55  5.4000000000000E-01  1.4639779955241E-01  1.4182924222512E+00
    56  5.5000000000000E-01  4.2156572034222E-02  1.4509378999605E+00
    57  5.6000000000000E-01 -5.8652819797845E-02  1.4812427277549E+00
    58  5.7000000000000E-01 -1.5553618765944E-01  1.5089332253208E+00
    59  5.8000000000000E-01 -2.4804317265829E-01  1.5337501323536E+00
    60  5.9000000000000E-01 -3.3576595488631E-01  1.5554548988084E+00
    61  6.0000000000000E-01 -4.1833764544039E-01  1.5738356561511E+00
    62  6.1000000000000E-01 -4.9543055371664E-01  1.5887126601411E+00
    63  6.2000000000000E-01 -5.6675451413920E-01  1.5999430094359E+00
    64  6.3000000000000E-01 -6.3205543956834E-01  1.6074244655529E+00
    65  6.4000000000000E-01 -6.9111424419381E-01  1.6110982278173E+00
    66  6.5000000000000E-01 -7.4374624777579E-01  1.6109505509337E+00
    67  6.6000000000000E-01 -7.8980113693897E-01  1.6070131315855E+00
    68  6.7000000000000E-01 -8.2916351937392E-01  1.5993622326283E+00
    69  6.8000000000000E-01 -8.6175406493753E-01  1.5881165574831E+00
    70  6.9000000000000E-01 -8.8753118556344E-01  1.5734339316531E+00
    71  7.0000000000000E-01 -9.0649316541979E-01  1.5555068912251E+00
    72  7.1000000000000E-01 -9.1868061567237E-01  1.5345573181678E+00
    73  7.2000000000000E-01 -9.2417909620989E-01  1.5108302976529E+00
    74  7.3000000000000E-01 -9.2312172126609E-01  1.4845874021301E+00
    75  7.4000000000000E-01 -9.1569154829577E-01  1.4560996292788E+00
    76  7.5000000000000E-01 -9.0212354069936E-01  1.4256402353167E+00
    77  7.6000000000000E-01 -8.8270589567387E-01  1.3934777108037E+00
    78  7.7000000000000E-01 -8.5778053886170E-01  1.3598691427107E+00
    79  7.8000000000000E-01 -8.2774260744757E-01  1.3250541941337E+00
    80  7.9000000000000E-01 -7.9303877240427E-01  1.2892499119513E+00
    81  8.0000000000000E-01 -7.5416428781760E-01  1.2526465436330E+00
    82  8.1000000000000E-01 -7.1165869938991E-01  1.2154045082793E+00
    83  8.2000000000000E-01 -6.6610019377242E-01  1.1776526250828E+00
    84  8.3000000000000E-01 -6.1809862350237E-01  1.1394876562324E+00
    85  8.4000000000000E-01 -5.6828729701481E-01  1.1009751725300E+00
    86  8.5000000000000E-01 -5.1731367733407E-01  1.0621517004532E+00
    87  8.6000000000000E-01 -4.6582918445270E-01  1.0230280609476E+00
    88  8.7000000000000E-01 -4.1447834293580E-01  9.8359376473531E-01
    89  8.8000000000000E-01 -3.6388755591961E-01  9.4382228816531E-01
    90  8.9000000000000E-01 -3.1465381756381E-01  9.0367701926106E-01
    91  9.0000000000000E-01 -2.6733369658494E-01  8.6311763710282E-01
    92  9.1000000000000E-01 -2.2243293247689E-01  8.2210667021323E-01
    93  9.2000000000000E-01 -1.8039698251302E-01  7.8061597211773E-01
    94  9.3000000000000E-01 -1.4160284111972E-01  7.3863285531291E-01
    95  9.4000000000000E-01 -1.0635242364953E-01  6.9616563873256E-01