Fl    ONCVPSP-4.0.1  r_core=   1.60082   1.60082   1.60082   1.60082
114.0000     22.0000      231012    zatom,zion,pspd
8   -1012   3     4   600     0    pspcod,pspxc,lmax,lloc,mmax,r2well
5.99000000  5.00000000  0.00000000    rchrg fchrg qchrg
2     2     2     1     0    nproj
1     1           extension_switch
0                         9.4050733735182E+00 -4.4767173141437E-01
1  0.0000000000000E+00  1.3374634733054E-10  8.2134711532067E-10
2  1.0000000000000E-02  7.6983694881217E-02  1.3321445123583E-02
3  2.0000000000000E-02  1.5379442113289E-01  2.6645447030712E-02
4  3.0000000000000E-02  2.3025957591034E-01  3.9974019795964E-02
5  4.0000000000000E-02  3.0620728883670E-01  5.3308104158606E-02
6  5.0000000000000E-02  3.8146679044716E-01  6.6647060847413E-02
7  6.0000000000000E-02  4.5586878318826E-01  7.9988199300414E-02
8  7.0000000000000E-02  5.2924581566366E-01  9.3326352595127E-02
9  8.0000000000000E-02  6.0143266068401E-01  1.0665350858347E-01
10  9.0000000000000E-02  6.7226669751585E-01  1.1995850622453E-01
11  1.0000000000000E-01  7.4158829853583E-01  1.3322680494489E-01
12  1.1000000000000E-01  8.0924122028517E-01  1.4644033354848E-01
13  1.2000000000000E-01  8.7507299868899E-01  1.5957742376919E-01
14  1.3000000000000E-01  9.3893534796042E-01  1.7261283203218E-01
15  1.4000000000000E-01  1.0006845624541E+00  1.8551785139029E-01
16  1.5000000000000E-01  1.0601819204729E+00  1.9826051395656E-01
17  1.6000000000000E-01  1.1172940887706E+00  2.1080588249042E-01
18  1.7000000000000E-01  1.1718935262348E+00  2.2311642814140E-01
19  1.8000000000000E-01  1.2238588849879E+00  2.3515248973823E-01
20  1.9000000000000E-01  1.2730754069066E+00  2.4687280846014E-01
21  2.0000000000000E-01  1.3194353133469E+00  2.5823513026789E-01
22  2.1000000000000E-01  1.3628381856656E+00  2.6919686712889E-01
23  2.2000000000000E-01  1.4031913339640E+00  2.7971580686748E-01
24  2.3000000000000E-01  1.4404101513419E+00  2.8975086042860E-01
25  2.4000000000000E-01  1.4744184508483E+00  2.9926283447921E-01
26  2.5000000000000E-01  1.5051487822470E+00  3.0821521660304E-01
27  2.6000000000000E-01  1.5325427256884E+00  3.1657495988138E-01
28  2.7000000000000E-01  1.5565511593910E+00  3.2431325340740E-01
29  2.8000000000000E-01  1.5771344984855E+00  3.3140626525651E-01
30  2.9000000000000E-01  1.5942629022742E+00  3.3783584463504E-01
31  3.0000000000000E-01  1.6079164472866E+00  3.4359017035092E-01
32  3.1000000000000E-01  1.6180852636928E+00  3.4866433338814E-01
33  3.2000000000000E-01  1.6247696328450E+00  3.5306084221287E-01
34  3.3000000000000E-01  1.6279800439697E+00  3.5679004048106E-01
35  3.4000000000000E-01  1.6277372083137E+00  3.5987042803836E-01
36  3.5000000000000E-01  1.6240720293597E+00  3.6232887748669E-01
37  3.6000000000000E-01  1.6170255280679E+00  3.6420074011448E-01
38  3.7000000000000E-01  1.6066487224565E+00  3.6552983662667E-01
39  3.8000000000000E-01  1.5930024612168E+00  3.6636832984057E-01
40  3.9000000000000E-01  1.5761572114424E+00  3.6677647830612E-01
41  4.0000000000000E-01  1.5561928009552E+00  3.6682227163632E-01
42  4.1000000000000E-01  1.5331981161050E+00  3.6658095016631E-01
43  4.2000000000000E-01  1.5072707563183E+00  3.6613441336719E-01
44  4.3000000000000E-01  1.4785166470557E+00  3.6557052319543E-01
45  4.4000000000000E-01  1.4470496132122E+00  3.6498231023057E-01
46  4.5000000000000E-01  1.4129909153465E+00  3.6446709201636E-01
47  4.6000000000000E-01  1.3764687514566E+00  3.6412551444737E-01
48  4.7000000000000E-01  1.3376177273176E+00  3.6406052831055E-01
49  4.8000000000000E-01  1.2965782986706E+00  3.6437631417867E-01
50  4.9000000000000E-01  1.2534961887804E+00  3.6517716974037E-01
51  5.0000000000000E-01  1.2085217850776E+00  3.6656637432579E-01
52  5.1000000000000E-01  1.1618095187519E+00  3.6864504583427E-01
53  5.2000000000000E-01  1.1135172312735E+00  3.7151100548448E-01
54  5.3000000000000E-01  1.0638055318861E+00  3.7525766578108E-01
55  5.4000000000000E-01  1.0128371501348E+00  3.7997295682808E-01
56  5.5000000000000E-01  9.6077628746941E-01  3.8573830561677E-01
57  5.6000000000000E-01  9.0778797189661E-01  3.9262768218657E-01
58  5.7000000000000E-01  8.5403741954256E-01  4.0070672560841E-01
59  5.8000000000000E-01  7.9968940684096E-01  4.1003196158822E-01
60  5.9000000000000E-01  7.4490765687147E-01  4.2065012215041E-01
61  6.0000000000000E-01  6.8985424315329E-01  4.3259757635917E-01
62  6.1000000000000E-01  6.3468901394619E-01  4.4589987939165E-01
63  6.2000000000000E-01  5.7956903983305E-01  4.6057144552064E-01
64  6.3000000000000E-01  5.2464808705777E-01  4.7661534871909E-01
65  6.4000000000000E-01  4.7007611877541E-01  4.9402325269992E-01
66  6.5000000000000E-01  4.1599882604204E-01  5.1277547027706E-01
67  6.6000000000000E-01  3.6255719003625E-01  5.3284115001460E-01
68  6.7000000000000E-01  3.0988707666639E-01  5.5417858624644E-01
69  6.8000000000000E-01  2.5811886438348E-01  5.7673564673435E-01
70  6.9000000000000E-01  2.0737710569398E-01  6.0045031051376E-01
71  7.0000000000000E-01  1.5778022255413E-01  6.2525130688604E-01
72  7.1000000000000E-01  1.0944023553220E-01  6.5105884507585E-01
73  7.2000000000000E-01  6.2462526351948E-02  6.7778542281035E-01
74  7.3000000000000E-01  1.6945633182043E-02  7.0533670101077E-01
75  7.4000000000000E-01 -2.7018922183256E-02  7.3361243093683E-01
76  7.5000000000000E-01 -6.9346776296079E-02  7.6250741950356E-01
77  7.6000000000000E-01 -1.0996083637946E-01  7.9191251810819E-01
78  7.7000000000000E-01 -1.4879136432634E-01  8.2171562016972E-01
79  7.8000000000000E-01 -1.8577603378216E-01  8.5180265269714E-01
80  7.9000000000000E-01 -2.2085996177274E-01  8.8205854756086E-01
81  8.0000000000000E-01 -2.5399571635750E-01  9.1236817874223E-01
82  8.1000000000000E-01 -2.8514330177367E-01  9.4261725266523E-01
83  8.2000000000000E-01 -3.1427012249246E-01  9.7269313975957E-01
84  8.3000000000000E-01 -3.4135092753427E-01  1.0024856366476E+00
85  8.4000000000000E-01 -3.6636773629232E-01  1.0318876497663E+00
86  8.5000000000000E-01 -3.8930974699322E-01  1.0607957928071E+00
87  8.6000000000000E-01 -4.1017322878633E-01  1.0891108920506E+00
88  8.7000000000000E-01 -4.2896139830182E-01  1.1167383954642E+00
89  8.8000000000000E-01 -4.4568428135856E-01  1.1435886832838E+00
90  8.9000000000000E-01 -4.6035856033873E-01  1.1695772796849E+00
91  9.0000000000000E-01 -4.7300740758330E-01  1.1946249670315E+00
92  9.1000000000000E-01 -4.8366030500559E-01  1.2186578060350E+00
93  9.2000000000000E-01 -4.9235284997265E-01  1.2416070669360E+00
94  9.3000000000000E-01 -4.9912654737263E-01  1.2634090784940E+00
95  9.4000000000000E-01 -5.0402858767277E-01  1.2840050031188E+00
96  9.5000000000000E-01 -5.0711161068252E-01  1.3033405478609E+00
97  9.6000000000000E-01 -5.0843345467226E-01  1.3213656221780E+00
98  9.7000000000000E-01 -5.0805689046292E-01  1.3380339543878E+00
99  9.8000000000000E-01 -5.0604934009833E-01  1.3533026794819E+00
100  9.9000000000000E-01 -5.0248257974104E-01  1.3671319114985E+00
101  1.0000000000000E+00 -4.9743242649572E-01  1.3794843139200E+00
102  1.0100000000000E+00 -4.9097840896144E-01  1.3903246815713E+00
103  1.0200000000000E+00 -4.8320342144461E-01  1.3996195472413E+00
104  1.0300000000000E+00 -4.7419336192774E-01  1.4073368257337E+00
105  1.0400000000000E+00 -4.6403675408257E-01  1.4134455072920E+00
106  1.0500000000000E+00 -4.5282435383682E-01  1.4179154113277E+00
107  1.0600000000000E+00 -4.4064874124989E-01  1.4207170101541E+00
108  1.0700000000000E+00 -4.2760389871777E-01  1.4218213309824E+00
109  1.0800000000000E+00 -4.1378477680954E-01  1.4211999428190E+00
110  1.0900000000000E+00 -3.9928684932965E-01  1.4188250331258E+00
111  1.1000000000000E+00 -3.8420565949832E-01  1.4146695772046E+00
112  1.1100000000000E+00 -3.6863635943887E-01  1.4087076012767E+00
113  1.1200000000000E+00 -3.5267324545237E-01  1.4009145381803E+00
114  1.1300000000000E+00 -3.3640929183796E-01  1.3912676725399E+00
115  1.1400000000000E+00 -3.1993568627701E-01  1.3797466702127E+00
116  1.1500000000000E+00 -3.0334137003499E-01  1.3663341848175E+00
117  1.1600000000000E+00 -2.8671258643957E-01  1.3510165322481E+00
118  1.1700000000000E+00 -2.7013244126296E-01  1.3337844222895E+00
119  1.1800000000000E+00 -2.5368047876524E-01  1.3146337348386E+00
120  1.1900000000000E+00 -2.3743227723837E-01  1.2935663268018E+00
121  1.2000000000000E+00 -2.2145906792513E-01  1.2705908545302E+00
122  1.2100000000000E+00 -2.0582738116903E-01  1.2457235956957E+00
123  1.2200000000000E+00 -1.9059872357843E-01  1.2189892538098E+00
124  1.2300000000000E+00 -1.7582928985911E-01  1.1904217281761E+00
125  1.2400000000000E+00 -1.6156971278385E-01  1.1600648319479E+00
126  1.2500000000000E+00 -1.4786485452424E-01  1.1279729411527E+00
127  1.2600000000000E+00 -1.3475364227309E-01  1.0942115580282E+00
128  1.2700000000000E+00 -1.2226895073320E-01  1.0588577728175E+00
129  1.2800000000000E+00 -1.1043753364622E-01  1.0220006092537E+00
130  1.2900000000000E+00 -9.9280006089152E-02  9.8374124033388E-01
131  1.3000000000000E+00 -8.8810878773603E-02  9.4419306262042E-01
132  1.3100000000000E+00 -7.9038645058188E-02  9.0348161918027E-01
133  1.3200000000000E+00 -6.9965920830052E-02  8.6174436335809E-01
134  1.3300000000000E+00 -6.1589636831552E-02  8.1913025785563E-01
135  1.3400000000000E+00 -5.3901282415414E-02  7.7579920600874E-01
136  1.3500000000000E+00 -4.6887199110305E-02  7.3192131468719E-01
137  1.3600000000000E+00 -4.0528921780917E-02  6.8767599083768E-01
138  1.3700000000000E+00 -3.4803564572838E-02  6.4325087633947E-01
139  1.3800000000000E+00 -2.9684248262249E-02  5.9884062845416E-01
140  1.3900000000000E+00 -2.5140565082295E-02  5.5464555572820E-01
141  1.4000000000000E+00 -2.1139076587745E-02  5.1087012167099E-01
142  1.4100000000000E+00 -1.7643839647129E-02  4.6772133087987E-01
143  1.4200000000000E+00 -1.4616955232888E-02  4.2540701443645E-01
144  1.4300000000000E+00 -1.2019134315727E-02  3.8413403334833E-01
145  1.4400000000000E+00 -9.8102748677389E-03  3.4410642051447E-01
146  1.4500000000000E+00 -7.9500437459943E-03  3.0552348311212E-01
147  1.4600000000000E+00 -6.3984570659677E-03  2.6857788843388E-01
148  1.4700000000000E+00 -5.1164525892255E-03  2.3345375699817E-01
149  1.4800000000000E+00 -4.0664476417715E-03  2.0032478721882E-01
150  1.4900000000000E+00 -3.2128761072944E-03  1.6935243636210E-01
151  1.5000000000000E+00 -2.5227008298871E-03  1.4068416329111E-01
152  1.5100000000000E+00 -1.9658794981723E-03  1.1445186000231E-01
153  1.5200000000000E+00 -1.5158488068899E-03  9.0770086434392E-02
154  1.5300000000000E+00 -1.1521837325292E-03  6.9716919990859E-02
155  1.5400000000000E+00 -8.5795887883981E-04  5.1354005627412E-02
156  1.5500000000000E+00 -6.1640015660716E-04  3.5755551086642E-02
157  1.5600000000000E+00 -4.1640047479661E-04  2.2969028986878E-02
158  1.5700000000000E+00 -2.5227632508732E-04  1.3016878446961E-02
159  1.5800000000000E+00 -1.2387793004147E-04  5.8977361456988E-03
160  1.5900000000000E+00 -3.6065652758415E-05  1.5693396153437E-03
161  1.6000000000000E+00 -8.7594929818538E-07  3.4375406325524E-05
162  1.6100000000000E+00  1.4272499914577E-07 -5.4042474399785E-06
163  1.6200000000000E+00 -1.0685404420994E-08  4.2988142607750E-07
164  1.63 -0. -0.
165  1.64  0.  0.
166  1.65  0.  0.
167  1.66  0.  0.
168  1.67  0.  0.
169  1.68  0.  0.
170  1.69  0.  0.
171  1.70  0.  0.
172  1.71  0.  0.
173  1.72  0.  0.
174  1.73  0.  0.
175  1.74  0.  0.
176  1.75  0.  0.
177  1.76  0.  0.
178  1.77  0.  0.
179  1.78  0.  0.
180  1.79  0.  0.
181  1.80  0.  0.
182  1.81  0.  0.
183  1.82  0.  0.
184  1.83  0.  0.
185  1.84  0.  0.
186  1.85  0.  0.
187  1.86  0.  0.
188  1.87  0.  0.
189  1.88  0.  0.
190  1.89  0.  0.
191  1.90  0.  0.
192  1.91  0.  0.
193  1.92  0.  0.
194  1.93  0.  0.
195  1.94  0.  0.
196  1.95  0.  0.
197  1.96  0.  0.
198  1.97  0.  0.
199  1.98  0.  0.
200  1.99  0.  0.
201  2.00  0.  0.
202  2.01  0.  0.
203  2.02  0.  0.
204  2.03  0.  0.
205  2.04  0.  0.
206  2.05  0.  0.
207  2.06  0.  0.
208  2.07  0.  0.
209  2.08  0.  0.
210  2.09  0.  0.
211  2.10  0.  0.
212  2.11  0.  0.
213  2.12  0.  0.
214  2.13  0.  0.
215  2.14  0.  0.
216  2.15  0.  0.
217  2.16  0.  0.
218  2.17  0.  0.
219  2.18  0.  0.
220  2.19  0.  0.
221  2.20  0.  0.
222  2.21  0.  0.
223  2.22  0.  0.
224  2.23  0.  0.
225  2.24  0.  0.
226  2.25  0.  0.
227  2.26  0.  0.
228  2.27  0.  0.
229  2.28  0.  0.
230  2.29  0.  0.
231  2.30  0.  0.
232  2.31  0.  0.
233  2.32  0.  0.
234  2.33  0.  0.
235  2.34  0.  0.
236  2.35  0.  0.
237  2.36  0.  0.
238  2.37  0.  0.
239  2.38  0.  0.
240  2.39  0.  0.
241  2.40  0.  0.
242  2.41  0.  0.
243  2.42  0.  0.
244  2.43  0.  0.
245  2.44  0.  0.
246  2.45  0.  0.
247  2.46  0.  0.
248  2.47  0.  0.
249  2.48  0.  0.
250  2.49  0.  0.
251  2.50  0.  0.
252  2.51  0.  0.
253  2.52  0.  0.
254  2.53  0.  0.
255  2.54  0.  0.
256  2.55  0.  0.
257  2.56  0.  0.
258  2.57  0.  0.
259  2.58  0.  0.
260  2.59  0.  0.
261  2.60  0.  0.
262  2.61  0.  0.
263  2.62  0.  0.
264  2.63  0.  0.
265  2.64  0.  0.
266  2.65  0.  0.
267  2.66  0.  0.
268  2.67  0.  0.
269  2.68  0.  0.
270  2.69  0.  0.
271  2.70  0.  0.
272  2.71  0.  0.
273  2.72  0.  0.
274  2.73  0.  0.
275  2.74  0.  0.
276  2.75  0.  0.
277  2.76  0.  0.
278  2.77  0.  0.
279  2.78  0.  0.
280  2.79  0.  0.
281  2.80  0.  0.
282  2.81  0.  0.
283  2.82  0.  0.
284  2.83  0.  0.
285  2.84  0.  0.
286  2.85  0.  0.
287  2.86  0.  0.
288  2.87  0.  0.
289  2.88  0.  0.
290  2.89  0.  0.
291  2.90  0.  0.
292  2.91  0.  0.
293  2.92  0.  0.
294  2.93  0.  0.
295  2.94  0.  0.
296  2.95  0.  0.
297  2.96  0.  0.
298  2.97  0.  0.
299  2.98  0.  0.
300  2.99  0.  0.
301  3.00  0.  0.
302  3.01  0.  0.
303  3.02  0.  0.
304  3.03  0.  0.
305  3.04  0.  0.
306  3.05  0.  0.
307  3.06  0.  0.
308  3.07  0.  0.
309  3.08  0.  0.
310  3.09  0.  0.
311  3.10  0.  0.
312  3.11  0.  0.
313  3.12  0.  0.
314  3.13  0.  0.
315  3.14  0.  0.
316  3.15  0.  0.
317  3.16  0.  0.
318  3.17  0.  0.
319  3.18  0.  0.
320  3.19  0.  0.
321  3.20  0.  0.
322  3.21  0.  0.
323  3.22  0.  0.
324  3.23  0.  0.
325  3.24  0.  0.
326  3.25  0.  0.
327  3.26  0.  0.
328  3.27  0.  0.
329  3.28  0.  0.
330  3.29  0.  0.
331  3.30  0.  0.
332  3.31  0.  0.
333  3.32  0.  0.
334  3.33  0.  0.
335  3.34  0.  0.
336  3.35  0.  0.
337  3.36  0.  0.
338  3.37  0.  0.
339  3.38  0.  0.
340  3.39  0.  0.
341  3.40  0.  0.
342  3.41  0.  0.
343  3.42  0.  0.
344  3.43  0.  0.
345  3.44  0.  0.
346  3.45  0.  0.
347  3.46  0.  0.
348  3.47  0.  0.
349  3.48  0.  0.
350  3.49  0.  0.
351  3.50  0.  0.
352  3.51  0.  0.
353  3.52  0.  0.
354  3.53  0.  0.
355  3.54  0.  0.
356  3.55  0.  0.
357  3.56  0.  0.
358  3.57  0.  0.
359  3.58  0.  0.
360  3.59  0.  0.
361  3.60  0.  0.
362  3.61  0.  0.
363  3.62  0.  0.
364  3.63  0.  0.
365  3.64  0.  0.
366  3.65  0.  0.
367  3.66  0.  0.
368  3.67  0.  0.
369  3.68  0.  0.
370  3.69  0.  0.
371  3.70  0.  0.
372  3.71  0.  0.
373  3.72  0.  0.
374  3.73  0.  0.
375  3.74  0.  0.
376  3.75  0.  0.
377  3.76  0.  0.
378  3.77  0.  0.
379  3.78  0.  0.
380  3.79  0.  0.
381  3.80  0.  0.
382  3.81  0.  0.
383  3.82  0.  0.
384  3.83  0.  0.
385  3.84  0.  0.
386  3.85  0.  0.
387  3.86  0.  0.
388  3.87  0.  0.
389  3.88  0.  0.
390  3.89  0.  0.
391  3.90  0.  0.
392  3.91  0.  0.
393  3.92  0.  0.
394  3.93  0.  0.
395  3.94  0.  0.
396  3.95  0.  0.
397  3.96  0.  0.
398  3.97  0.  0.
399  3.98  0.  0.
400  3.99  0.  0.
401  4.00  0.  0.
402  4.01  0.  0.
403  4.02  0.  0.
404  4.03  0.  0.
405  4.04  0.  0.
406  4.05  0.  0.
407  4.06  0.  0.
408  4.07  0.  0.
409  4.08  0.  0.
410  4.09  0.  0.
411  4.10  0.  0.
412  4.11  0.  0.
413  4.12  0.  0.
414  4.13  0.  0.
415  4.14  0.  0.
416  4.15  0.  0.
417  4.16  0.  0.
418  4.17  0.  0.
419  4.18  0.  0.
420  4.19  0.  0.
421  4.20  0.  0.
422  4.21  0.  0.
423  4.22  0.  0.
424  4.23  0.  0.
425  4.24  0.  0.
426  4.25  0.  0.
427  4.26  0.  0.
428  4.27  0.  0.
429  4.28  0.  0.
430  4.29  0.  0.
431  4.30  0.  0.
432  4.31  0.  0.
433  4.32  0.  0.
434  4.33  0.  0.
435  4.34  0.  0.
436  4.35  0.  0.
437  4.36  0.  0.
438  4.37  0.  0.
439  4.38  0.  0.
440  4.39  0.  0.
441  4.40  0.  0.
442  4.41  0.  0.
443  4.42  0.  0.
444  4.43  0.  0.
445  4.44  0.  0.
446  4.45  0.  0.
447  4.46  0.  0.
448  4.47  0.  0.
449  4.48  0.  0.
450  4.49  0.  0.
451  4.50  0.  0.
452  4.51  0.  0.
453  4.52  0.  0.
454  4.53  0.  0.
455  4.54  0.  0.
456  4.55  0.  0.
457  4.56  0.  0.
458  4.57  0.  0.
459  4.58  0.  0.
460  4.59  0.  0.
461  4.60  0.  0.
462  4.61  0.  0.
463  4.62  0.  0.
464  4.63  0.  0.
465  4.64  0.  0.
466  4.65  0.  0.
467  4.66  0.  0.
468  4.67  0.  0.
469  4.68  0.  0.
470  4.69  0.  0.
471  4.70  0.  0.
472  4.71  0.  0.
473  4.72  0.  0.
474  4.73  0.  0.
475  4.74  0.  0.
476  4.75  0.  0.
477  4.76  0.  0.
478  4.77  0.  0.
479  4.78  0.  0.
480  4.79  0.  0.
481  4.80  0.  0.
482  4.81  0.  0.
483  4.82  0.  0.
484  4.83  0.  0.
485  4.84  0.  0.
486  4.85  0.  0.
487  4.86  0.  0.
488  4.87  0.  0.
489  4.88  0.  0.
490  4.89  0.  0.
491  4.90  0.  0.
492  4.91  0.  0.
493  4.92  0.  0.
494  4.93  0.  0.
495  4.94  0.  0.
496  4.95  0.  0.
497  4.96  0.  0.
498  4.97  0.  0.
499  4.98  0.  0.
500  4.99  0.  0.
501  5.00  0.  0.
502  5.01  0.  0.
503  5.02  0.  0.
504  5.03  0.  0.
505  5.04  0.  0.
506  5.05  0.  0.
507  5.06  0.  0.
508  5.07  0.  0.
509  5.08  0.  0.
510  5.09  0.  0.
511  5.10  0.  0.
512  5.11  0.  0.
513  5.12  0.  0.
514  5.13  0.  0.
515  5.14  0.  0.
516  5.15  0.  0.
517  5.16  0.  0.
518  5.17  0.  0.
519  5.18  0.  0.
520  5.19  0.  0.
521  5.20  0.  0.
522  5.21  0.  0.
523  5.22  0.  0.
524  5.23  0.  0.
525  5.24  0.  0.
526  5.25  0.  0.
527  5.26  0.  0.
528  5.27  0.  0.
529  5.28  0.  0.
530  5.29  0.  0.
531  5.30  0.  0.
532  5.31  0.  0.
533  5.32  0.  0.
534  5.33  0.  0.
535  5.34  0.  0.
536  5.35  0.  0.
537  5.36  0.  0.
538  5.37  0.  0.
539  5.38  0.  0.
540  5.39  0.  0.
541  5.40  0.  0.
542  5.41  0.  0.
543  5.42  0.  0.
544  5.43  0.  0.
545  5.44  0.  0.
546  5.45  0.  0.
547  5.46  0.  0.
548  5.47  0.  0.
549  5.48  0.  0.
550  5.49  0.  0.
551  5.50  0.  0.
552  5.51  0.  0.
553  5.52  0.  0.
554  5.53  0.  0.
555  5.54  0.  0.
556  5.55  0.  0.
557  5.56  0.  0.
558  5.57  0.  0.
559  5.58  0.  0.
560  5.59  0.  0.
561  5.60  0.  0.
562  5.61  0.  0.
563  5.62  0.  0.
564  5.63  0.  0.
565  5.64  0.  0.
566  5.65  0.  0.
567  5.66  0.  0.
568  5.67  0.  0.
569  5.68  0.  0.
570  5.69  0.  0.
571  5.70  0.  0.
572  5.71  0.  0.
573  5.72  0.  0.
574  5.73  0.  0.
575  5.74  0.  0.
576  5.75  0.  0.
577  5.76  0.  0.
578  5.77  0.  0.
579  5.78  0.  0.
580  5.79  0.  0.
581  5.80  0.  0.
582  5.81  0.  0.
583  5.82  0.  0.
584  5.83  0.  0.
585  5.84  0.  0.
586  5.85  0.  0.
587  5.86  0.  0.
588  5.87  0.  0.
589  5.88  0.  0.
590  5.89  0.  0.
591  5.90  0.  0.
592  5.91  0.  0.
593  5.92  0.  0.
594  5.93  0.  0.
595  5.94  0.  0.
596  5.95  0.  0.
597  5.96  0.  0.
598  5.97  0.  0.
599  5.98  0.  0.
600  5.99  0.  0.
1                         6.0754637675969E+00 -5.5388759416159E-01
1  0.0000000000000E+00  2.6429522459459E-10 -8.8361771094503E-09
2  1.0000000000000E-02  1.3680715302364E-03  1.0071464842632E-03
3  2.0000000000000E-02  5.4673973800793E-03  4.0312509350208E-03
4  3.0000000000000E-02  1.2283331665712E-02  9.0800927121944E-03
5  4.0000000000000E-02  2.1791532227260E-02  1.6165923911602E-02
6  5.0000000000000E-02  3.3958061577657E-02  2.5304417463526E-02
7  6.0000000000000E-02  4.8739527197276E-02  3.6513230787162E-02
8  7.0000000000000E-02  6.6083260158809E-02  4.9810220407395E-02
9  8.0000000000000E-02  8.5927530802645E-02  6.5211351776491E-02
10  9.0000000000000E-02  1.0820179993720E-01  8.2728356455815E-02
11  1.0000000000000E-01  1.3282700381512E-01  1.0236619563098E-01
12  1.1000000000000E-01  1.5971587093777E-01  1.2412039451543E-01
13  1.2000000000000E-01  1.8877326856931E-01  1.4797431641822E-01
14  1.3000000000000E-01  2.1989657670053E-01  1.7389644801873E-01
15  1.4000000000000E-01  2.5297608709194E-01  2.0183776863863E-01
16  1.5000000000000E-01  2.8789542494729E-01  2.3172927599326E-01
17  1.6000000000000E-01  3.2453199072217E-01  2.6347973903891E-01
18  1.7000000000000E-01  3.6275741955744E-01  2.9697374513360E-01
19  1.8000000000000E-01  4.0243805584356E-01  3.3207010385742E-01
20  1.9000000000000E-01  4.4343544046690E-01  3.6860066358077E-01
21  2.0000000000000E-01  4.8560680836145E-01  4.0636958934159E-01
22  2.1000000000000E-01  5.2880559408670E-01  4.4515314193784E-01
23  2.2000000000000E-01  5.7288194327039E-01  4.8469998852531E-01
24  2.3000000000000E-01  6.1768322789210E-01  5.2473206461815E-01
25  2.4000000000000E-01  6.6305456353417E-01  5.6494599642439E-01
26  2.5000000000000E-01  7.0883932688847E-01  6.0501508112540E-01
27  2.6000000000000E-01  7.5487967197495E-01  6.4459181125148E-01
28  2.7000000000000E-01  8.0101704369833E-01  6.8331091794434E-01
29  2.8000000000000E-01  8.4709268753686E-01  7.2079289685898E-01
30  2.9000000000000E-01  8.9294815431933E-01  7.5664796996672E-01
31  3.0000000000000E-01  9.3842579919813E-01  7.9048042679254E-01
32  3.1000000000000E-01  9.8336927406446E-01  8.2189327985525E-01
33  3.2000000000000E-01  1.0276240127732E+00  8.5049316146201E-01
34  3.3000000000000E-01  1.0710377086463E+00  8.7589538270384E-01
35  3.4000000000000E-01  1.1134607838044E+00  8.9772907064340E-01
36  3.5000000000000E-01  1.1547468499281E+00  9.1564229639358E-01
37  3.6000000000000E-01  1.1947531600870E+00  9.2930710513588E-01
38  3.7000000000000E-01  1.2333410512724E+00  9.3842435917342E-01
39  3.8000000000000E-01  1.2703763772522E+00  9.4272830687052E-01
40  3.9000000000000E-01  1.3057299313187E+00  9.4199079378538E-01
41  4.0000000000000E-01  1.3392778584300E+00  9.3602503740431E-01
42  4.1000000000000E-01  1.3709020561506E+00  9.2468889355500E-01
43  4.2000000000000E-01  1.4004905636880E+00  9.0788755069832E-01
44  4.3000000000000E-01  1.4279379381900E+00  8.8557559773220E-01
45  4.4000000000000E-01  1.4531456173264E+00  8.5775842151801E-01
46  4.5000000000000E-01  1.4760222670278E+00  8.2449290186558E-01
47  4.6000000000000E-01  1.4964841130975E+00  7.8588738397648E-01
48  4.7000000000000E-01  1.5144552552560E+00  7.4210092111550E-01
49  4.8000000000000E-01  1.5298679620246E+00  6.9334179331573E-01
50  4.9000000000000E-01  1.5426629447135E+00  6.3986532097718E-01
51  5.0000000000000E-01  1.5527896086490E+00  5.8197100503588E-01
52  5.1000000000000E-01  1.5602062796646E+00  5.1999903771729E-01
53  5.2000000000000E-01  1.5648804037943E+00  4.5432623949561E-01
54  5.3000000000000E-01  1.5667887180457E+00  3.8536148853421E-01
55  5.4000000000000E-01  1.5659173901026E+00  3.1354071836509E-01
56  5.5000000000000E-01  1.5622621248126E+00  2.3932156768404E-01
57  5.6000000000000E-01  1.5558282353569E+00  1.6317777272639E-01
58  5.7000000000000E-01  1.5466306770846E+00  8.5593397602810E-02
59  5.8000000000000E-01  1.5346940421118E+00  7.0570011086359E-03
60  5.9000000000000E-01  1.5200525129560E+00 -7.1944160202346E-02
61  6.0000000000000E-01  1.5027497736753E+00 -1.5092979350908E-01
62  6.1000000000000E-01  1.4828388772317E+00 -2.2943199912851E-01
63  6.2000000000000E-01  1.4603820680798E+00 -3.0700037557175E-01
64  6.3000000000000E-01  1.4354505593030E+00 -3.8320671417101E-01
65  6.4000000000000E-01  1.4081242639702E+00 -4.5764920507326E-01
66  6.5000000000000E-01  1.3784914807697E+00 -5.2995608582181E-01
67  6.6000000000000E-01  1.3466485343810E+00 -5.9978867455223E-01
68  6.7000000000000E-01  1.3126993714701E+00 -6.6684374181586E-01
69  6.8000000000000E-01  1.2767551136304E+00 -7.3085518798232E-01
70  6.9000000000000E-01  1.2389335690373E+00 -7.9159500682081E-01
71  7.0000000000000E-01  1.1993587050269E+00 -8.4887352995527E-01
72  7.1000000000000E-01  1.1581600842493E+00 -9.0253896115470E-01
73  7.2000000000000E-01  1.1154722674706E+00 -9.5247622357936E-01
74  7.3000000000000E-01  1.0714341865036E+00 -9.9860515687602E-01
75  7.4000000000000E-01  1.0261884911235E+00 -1.0408781141234E+00
76  7.5000000000000E-01  9.7988087417153E-01 -1.0792770208068E+00
77  7.6000000000000E-01  9.3265937935419E-01 -1.1138099690021E+00
78  7.7000000000000E-01  8.8467369650500E-01 -1.1445074295349E+00
79  7.8000000000000E-01  8.3607444928872E-01 -1.1714181728613E+00
80  7.9000000000000E-01  7.8701248048262E-01 -1.1946049955982E+00
81  8.0000000000000E-01  7.3763814006893E-01 -1.2141403538903E+00
82  8.1000000000000E-01  6.8810058141095E-01 -1.2301020070179E+00
83  8.2000000000000E-01  6.3854707076154E-01 -1.2425687747689E+00
84  8.3000000000000E-01  5.8912231526588E-01 -1.2516165100838E+00
85  8.4000000000000E-01  5.3996781447135E-01 -1.2573143843622E+00
86  8.5000000000000E-01  4.9122124014584E-01 -1.2597215766380E+00
87  8.6000000000000E-01  4.4301584893559E-01 -1.2588844496964E+00
88  8.7000000000000E-01  3.9547993206650E-01 -1.2548342862580E+00
89  8.8000000000000E-01  3.4873630591395E-01 -1.2475856467579E+00
90  8.9000000000000E-01  3.0290184683899E-01 -1.2371353972342E+00
91  9.0000000000000E-01  2.5808707322077E-01 -1.2234624416247E+00
92  9.1000000000000E-01  2.1439577711095E-01 -1.2065281776494E+00
93  9.2000000000000E-01  1.7192470740370E-01 -1.1862776796982E+00
94  9.3000000000000E-01  1.3076330586177E-01 -1.1626415960649E+00
95  9.4000000000000E-01  9.0993496772818E-02 -1.1355387317891E+00
96  9.5000000000000E-01  5.2689530439064E-02 -1.1048792726014E+00
97  9.6000000000000E-01  1.5917880135099E-02 -1.0705685903375E+00
98  9.7000000000000E-01 -1.9262808387795E-02 -1.0325115560131E+00
99  9.8000000000000E-01 -5.2801716310093E-02 -9.9061727381709E-01
100  9.9000000000000E-01 -8.4655802034833E-02 -9.4480413787381E-01
101  1.0000000000000E+00 -1.1478970480673E-01 -8.9500510400210E-01
102  1.0100000000000E+00 -1.4317560454064E-01 -8.4117306106701E-01
103  1.0200000000000E+00 -1.6979304112926E-01 -7.8328618107592E-01
104  1.0300000000000E+00 -1.9462869683590E-01 -7.2135312406075E-01
105  1.0400000000000E+00 -2.1767614565825E-01 -6.5541797310452E-01
106  1.0500000000000E+00 -2.3893557376900E-01 -5.8556477668443E-01
107  1.0600000000000E+00 -2.5841347529648E-01 -5.1192157981584E-01
108  1.0700000000000E+00 -2.7612232780290E-01 -4.3466383224662E-01
109  1.0800000000000E+00 -2.9208025184674E-01 -3.5401707111593E-01
110  1.0900000000000E+00 -3.0631065898294E-01 -2.7025878685772E-01
111  1.1000000000000E+00 -3.1884189245880E-01 -1.8371939460376E-01
112  1.1100000000000E+00 -3.2970686470944E-01 -9.4782248614461E-02
113  1.1200000000000E+00 -3.3894269554758E-01 -3.8826541455645E-03
114  1.1300000000000E+00 -3.4659035468220E-01  8.8494150683470E-02
115  1.1400000000000E+00 -3.5269431189589E-01  1.8181605134534E-01
116  1.1500000000000E+00 -3.5730219786625E-01  2.7550814026445E-01
117  1.1600000000000E+00 -3.6046447824058E-01  3.6895779569285E-01
118  1.1700000000000E+00 -3.6223414317078E-01  4.6152070485074E-01
119  1.1800000000000E+00 -3.6266641409596E-01  5.5252776072087E-01
120  1.1900000000000E+00 -3.6181846913075E-01  6.4129274343786E-01
121  1.2000000000000E+00 -3.5974918798403E-01  7.2712067992932E-01
122  1.2100000000000E+00 -3.5651891690738E-01  8.0931675989072E-01
123  1.2200000000000E+00 -3.5218925375596E-01  8.8719567236438E-01
124  1.2300000000000E+00 -3.4682285285157E-01  9.6009121571528E-01
125  1.2400000000000E+00 -3.4048324896779E-01  1.0273660246805E+00
126  1.2500000000000E+00 -3.3323469942057E-01  1.0884212517584E+00
127  1.2600000000000E+00 -3.2514204294952E-01  1.1427060366200E+00
128  1.2700000000000E+00 -3.1627057381672E-01  1.1897265965681E+00
129  1.2800000000000E+00 -3.0668592933879E-01  1.2290547734610E+00
130  1.2900000000000E+00 -2.9645398890459E-01  1.2603358778524E+00
131  1.3000000000000E+00 -2.8564078241689E-01  1.2832956794871E+00
132  1.3100000000000E+00 -2.7431240603363E-01  1.2977464044974E+00
133  1.3200000000000E+00 -2.6253494307172E-01  1.3035916135253E+00
134  1.3300000000000E+00 -2.5037438797285E-01  1.3008298514528E+00
135  1.3400000000000E+00 -2.3789657131426E-01  1.2895569780697E+00
136  1.3500000000000E+00 -2.2516708397515E-01  1.2699671096300E+00
137  1.3600000000000E+00 -2.1225119873599E-01  1.2423521233626E+00
138  1.3700000000000E+00 -1.9921378779194E-01  1.2070997005675E+00
139  1.3800000000000E+00 -1.8611923489393E-01  1.1646899080858E+00
140  1.3900000000000E+00 -1.7303134108911E-01  1.1156903426816E+00
141  1.4000000000000E+00 -1.6001322330693E-01  1.0607498874246E+00
142  1.4100000000000E+00 -1.4712720532649E-01  1.0005911534918E+00
143  1.4200000000000E+00 -1.3443470095259E-01  9.3600170403968E-01
144  1.4300000000000E+00 -1.2199608951977E-01  8.6782417883413E-01
145  1.4400000000000E+00 -1.0987058412824E-01  7.9694545865688E-01
146  1.4500000000000E+00 -9.8116093284221E-02  7.2428502668361E-01
147  1.4600000000000E+00 -8.6789076869066E-02  6.5078269992353E-01
148  1.4700000000000E+00 -7.5944397585583E-02  5.7738591686454E-01
149  1.4800000000000E+00 -6.5635169225791E-02  5.0503677761720E-01
150  1.4900000000000E+00 -5.5912603238368E-02  4.3465904062614E-01
151  1.5000000000000E+00 -4.6825856879468E-02  3.6714523934764E-01
152  1.5100000000000E+00 -3.8421874245330E-02  3.0334434896126E-01
153  1.5200000000000E+00 -3.0745269459079E-02  2.4404942280684E-01
154  1.5300000000000E+00 -2.3839585237798E-02  1.8994236131365E-01
155  1.5400000000000E+00 -1.7745245428684E-02  1.4163289170065E-01
156  1.5500000000000E+00 -1.2497207640232E-02  9.9726057313870E-02
157  1.5600000000000E+00 -8.1282060999273E-03  6.4723911825777E-02
158  1.5700000000000E+00 -4.6683742423256E-03  3.7023578980291E-02
159  1.5800000000000E+00 -2.1457774493326E-03  1.6916514233804E-02
160  1.5900000000000E+00 -5.7970867071424E-04  4.5349525737462E-03
161  1.6000000000000E+00 -1.2913307651614E-05  9.9979572629924E-05
162  1.6100000000000E+00  2.0455839598620E-06 -1.5787689748697E-05
163  1.6200000000000E+00 -1.6102708804641E-07  1.2505797189618E-06
164  1.63 -0.  0.
165  1.64  0.  0.
166  1.65  0.  0.