Fl    ONCVPSP-4.0.1  r_core=   1.60082   1.60082   1.60082   1.60082
114.0000     22.0000      231012    zatom,zion,pspd
8   -1012   3     4   600     0    pspcod,pspxc,lmax,lloc,mmax,r2well
5.99000000  5.00000000  0.00000000    rchrg fchrg qchrg
2     3     3     2    nproj
3     1           extension_switch
4     3     2    nprojso
0                         9.5255336528441E+00 -4.2610415098749E-01
1  0.0000000000000E+00  1.3113421459821E-10  8.6526370790541E-10
2  1.0000000000000E-02  7.6613853369096E-02  1.3662147939023E-02
3  2.0000000000000E-02  1.5305698088041E-01  2.7325321141119E-02
4  3.0000000000000E-02  2.2915901476652E-01  4.0989975936060E-02
5  4.0000000000000E-02  3.0475030433375E-01  5.4655443525230E-02
6  5.0000000000000E-02  3.7966227669711E-01  6.8319399037331E-02
7  6.0000000000000E-02  4.5372780005774E-01  8.1977367900116E-02
8  7.0000000000000E-02  5.2678155021285E-01  9.5622280931394E-02
9  8.0000000000000E-02  5.9866038085750E-01  1.0924408868731E-01
10  9.0000000000000E-02  6.6920369807761E-01  1.2282944455133E-01
11  1.0000000000000E-01  7.3825383924876E-01  1.3636146482125E-01
12  1.1000000000000E-01  8.0565645634794E-01  1.4981957267413E-01
13  1.2000000000000E-01  8.7126090345952E-01  1.6317943138333E-01
14  1.3000000000000E-01  9.3492062801637E-01  1.7641297055240E-01
15  1.4000000000000E-01  9.9649356506676E-01  1.8948850744543E-01
16  1.5000000000000E-01  1.0558425336014E+00  2.0237096375899E-01
17  1.6000000000000E-01  1.1128356337183E+00  2.1502217642795E-01
18  1.7000000000000E-01  1.1673466431506E+00  2.2740129931420E-01
19  1.8000000000000E-01  1.2192554114370E+00  2.3946529092381E-01
20  1.9000000000000E-01  1.2684482497849E+00  2.5116948166282E-01
21  2.0000000000000E-01  1.3148183144637E+00  2.6246821260316E-01
22  2.1000000000000E-01  1.3582659813716E+00  2.7331553631316E-01
23  2.2000000000000E-01  1.3986992092593E+00  2.8366596903771E-01
24  2.3000000000000E-01  1.4360338889548E+00  2.9347528241244E-01
25  2.4000000000000E-01  1.4701941758323E+00  3.0270132198369E-01
26  2.5000000000000E-01  1.5011128027030E+00  3.1130483909876E-01
27  2.6000000000000E-01  1.5287313702726E+00  3.1925032224120E-01
28  2.7000000000000E-01  1.5530006123237E+00  3.2650681362369E-01
29  2.8000000000000E-01  1.5738806328286E+00  3.3304869682273E-01
30  2.9000000000000E-01  1.5913411122881E+00  3.3885644144591E-01
31  3.0000000000000E-01  1.6053614807239E+00  3.4391729126346E-01
32  3.1000000000000E-01  1.6159310549188E+00  3.4822588290509E-01
33  3.2000000000000E-01  1.6230491377068E+00  3.5178478311083E-01
34  3.3000000000000E-01  1.6267250773581E+00  3.5460493361927E-01
35  3.4000000000000E-01  1.6269782853761E+00  3.5670599405987E-01
36  3.5000000000000E-01  1.6238382113307E+00  3.5811657467061E-01
37  3.6000000000000E-01  1.6173442736792E+00  3.5887435226363E-01
38  3.7000000000000E-01  1.6075457458791E+00  3.5902606458607E-01
39  3.8000000000000E-01  1.5945015974644E+00  3.5862738004326E-01
40  3.9000000000000E-01  1.5782802901382E+00  3.5774264163874E-01
41  4.0000000000000E-01  1.5589595293216E+00  3.5644448590861E-01
42  4.1000000000000E-01  1.5366259719881E+00  3.5481333955797E-01
43  4.2000000000000E-01  1.5113748920009E+00  3.5293679841117E-01
44  4.3000000000000E-01  1.4833098045463E+00  3.5090889513637E-01
45  4.4000000000000E-01  1.4525420516229E+00  3.4882926396703E-01
46  4.5000000000000E-01  1.4191903508911E+00  3.4680221229054E-01
47  4.6000000000000E-01  1.3833803105126E+00  3.4493571047925E-01
48  4.7000000000000E-01  1.3452439129021E+00  3.4334031267754E-01
49  4.8000000000000E-01  1.3049189705814E+00  3.4212802240683E-01
50  4.9000000000000E-01  1.2625485575526E+00  3.4141111779079E-01
51  5.0000000000000E-01  1.2182804198026E+00  3.4130095191667E-01
52  5.1000000000000E-01  1.1722663686985E+00  3.4190674432672E-01
53  5.2000000000000E-01  1.1246616611475E+00  3.4333437986346E-01
54  5.3000000000000E-01  1.0756243704597E+00  3.4568523107256E-01
55  5.4000000000000E-01  1.0253147518755E+00  3.4905502009467E-01
56  5.5000000000000E-01  9.7389460670109E-01  3.5353273545639E-01
57  5.6000000000000E-01  9.2152664892894E-01  3.5919961840961E-01
58  5.7000000000000E-01  8.6837387812163E-01  3.6612823247608E-01
59  5.8000000000000E-01  8.1459896218920E-01  3.7438162864978E-01
60  5.9000000000000E-01  7.6036363351374E-01  3.8401261730724E-01
61  6.0000000000000E-01  7.0582810166080E-01  3.9506315630286E-01
62  6.1000000000000E-01  6.5115048567417E-01  4.0756386300230E-01
63  6.2000000000000E-01  5.9648626868255E-01  4.2153365616443E-01
64  6.3000000000000E-01  5.4198777725624E-01  4.3697953164660E-01
65  6.4000000000000E-01  4.8780368764560E-01  4.5389647391428E-01
66  6.5000000000000E-01  4.3407856071442E-01  4.7226750331328E-01
67  6.6000000000000E-01  3.8095240705623E-01  4.9206385704645E-01
68  6.7000000000000E-01  3.2856028345436E-01  5.1324529981807E-01
69  6.8000000000000E-01  2.7703192152260E-01  5.3576055820219E-01
70  6.9000000000000E-01  2.2649138904752E-01  5.5954787098534E-01
71  7.0000000000000E-01  1.7705678424980E-01  5.8453564606114E-01
72  7.1000000000000E-01  1.2883996289577E-01  6.1064321294068E-01
73  7.2000000000000E-01  8.1946297924404E-02  6.3778165861382E-01
74  7.3000000000000E-01  3.6474471013988E-02  6.6585473337456E-01
75  7.4000000000000E-01 -7.4837047015398E-03  6.9475981232743E-01
76  7.5000000000000E-01 -4.9843431740420E-02  7.2438889763630E-01
77  7.6000000000000E-01 -9.0527046331443E-02  7.5462964617224E-01
78  7.7000000000000E-01 -1.2946410866856E-01  7.8536640707179E-01
79  7.8000000000000E-01 -1.6659146669324E-01  8.1648125383081E-01
80  7.9000000000000E-01 -2.0185329478815E-01  8.4785499593320E-01
81  8.0000000000000E-01 -2.3520110878515E-01  8.7936815563831E-01
82  8.1000000000000E-01 -2.6659375867803E-01  9.1090189641835E-01
83  8.2000000000000E-01 -2.9599740038837E-01  9.4233889063004E-01
84  8.3000000000000E-01 -3.2338544786340E-01  9.7356411530564E-01
85  8.4000000000000E-01 -3.4873850669119E-01  1.0044655664347E+00
86  8.5000000000000E-01 -3.7204429030382E-01  1.0349348837530E+00
87  8.6000000000000E-01 -3.9329751970786E-01  1.0648678798307E+00
88  8.7000000000000E-01 -4.1249980753698E-01  1.0941649691283E+00
89  8.8000000000000E-01 -4.2965952706924E-01  1.1227314946304E+00
90  8.9000000000000E-01 -4.4479166669492E-01  1.1504779516416E+00
91  9.0000000000000E-01 -4.5791767016555E-01  1.1773201103027E+00
92  9.1000000000000E-01 -4.6906526280471E-01  1.2031790403172E+00
93  9.2000000000000E-01 -4.7826826372183E-01  1.2279810432442E+00
94  9.3000000000000E-01 -4.8556638394446E-01  1.2516574994659E+00
95  9.4000000000000E-01 -4.9100501027844E-01  1.2741446385591E+00
96  9.5000000000000E-01 -4.9463497462045E-01  1.2953832432504E+00
97  9.6000000000000E-01 -4.9651230838903E-01  1.3153182983919E+00
98  9.7000000000000E-01 -4.9669798170940E-01  1.3338985974287E+00
99  9.8000000000000E-01 -4.9525762698735E-01  1.3510763196347E+00
100  9.9000000000000E-01 -4.9226124653969E-01  1.3668065919327E+00
101  1.0000000000000E+00 -4.8778290401326E-01  1.3810470493971E+00
102  1.0100000000000E+00 -4.8190039942283E-01  1.3937574085416E+00
103  1.0200000000000E+00 -4.7469492776861E-01  1.4048990672243E+00
104  1.0300000000000E+00 -4.6625072135618E-01  1.4144347444601E+00
105  1.0400000000000E+00 -4.5665467613260E-01  1.4223281726199E+00
106  1.0500000000000E+00 -4.4599596257099E-01  1.4285438534361E+00
107  1.0600000000000E+00 -4.3436562187703E-01  1.4330468879309E+00
108  1.0700000000000E+00 -4.2185614855196E-01  1.4358028888732E+00
109  1.0800000000000E+00 -4.0856106062323E-01  1.4367779826587E+00
110  1.0900000000000E+00 -3.9457445913969E-01  1.4359389056458E+00
111  1.1000000000000E+00 -3.7999057882045E-01  1.4332531979753E+00
112  1.1100000000000E+00 -3.6490333203648E-01  1.4286894958152E+00
113  1.1200000000000E+00 -3.4940584858856E-01  1.4222179208141E+00
114  1.1300000000000E+00 -3.3359001401675E-01  1.4138105633749E+00
115  1.1400000000000E+00 -3.1754600942992E-01  1.4034420542080E+00
116  1.1500000000000E+00 -3.0136185607288E-01  1.3910902165214E+00
117  1.1600000000000E+00 -2.8512296804806E-01  1.3767367892037E+00
118  1.1700000000000E+00 -2.6891171677247E-01  1.3603682094906E+00
119  1.1800000000000E+00 -2.5280701087504E-01  1.3419764418983E+00
120  1.1900000000000E+00 -2.3688389531883E-01  1.3215598387160E+00
121  1.2000000000000E+00 -2.2121317356410E-01  1.2991240160764E+00
122  1.2100000000000E+00 -2.0586105656841E-01  1.2746827286188E+00
123  1.2200000000000E+00 -1.9088884234646E-01  1.2482587250305E+00
124  1.2300000000000E+00 -1.7635262968376E-01  1.2198845663203E+00
125  1.2400000000000E+00 -1.6230306941442E-01  1.1896033885627E+00
126  1.2500000000000E+00 -1.4878515643242E-01  1.1574695920515E+00
127  1.2600000000000E+00 -1.3583806531354E-01  1.1235494393208E+00
128  1.2700000000000E+00 -1.2349503207709E-01  1.0879215453364E+00
129  1.2800000000000E+00 -1.1178328422136E-01  1.0506772443125E+00
130  1.2900000000000E+00 -1.0072402072749E-01  1.0119208190473E+00
131  1.3000000000000E+00 -9.0332443242567E-02  9.7176958040828E-01
132  1.3100000000000E+00 -8.0617839137056E-02  9.3035378657057E-01
133  1.3200000000000E+00 -7.1583716587046E-02  8.8781639381172E-01
134  1.3300000000000E+00 -6.3227991262258E-02  8.4431263307009E-01
135  1.3400000000000E+00 -5.5543223618870E-02  8.0000940902353E-01
136  1.3500000000000E+00 -4.8516905205837E-02  7.5508452111844E-01
137  1.3600000000000E+00 -4.2131791806639E-02  7.0972570871569E-01
138  1.3700000000000E+00 -3.6366280655560E-02  6.6412952531349E-01
139  1.3800000000000E+00 -3.1194828408144E-02  6.1850004956193E-01
140  1.3900000000000E+00 -2.6588406007394E-02  5.7304744350167E-01
141  1.4000000000000E+00 -2.2514986086766E-02  5.2798637105734E-01
142  1.4100000000000E+00 -1.8940058087344E-02  4.8353429229382E-01
143  1.4200000000000E+00 -1.5827165855730E-02  4.3990965121369E-01
144  1.4300000000000E+00 -1.3138462131617E-02  3.9732997693135E-01
145  1.4400000000000E+00 -1.0835274037888E-02  3.5600991985638E-01
146  1.4500000000000E+00 -8.8786734573019E-03  3.1615924601799E-01
147  1.4600000000000E+00 -7.2300460203319E-03  2.7798081385478E-01
148  1.4700000000000E+00 -5.8516523449076E-03  2.4166855863435E-01
149  1.4800000000000E+00 -4.7071751604919E-03  2.0740551015683E-01
150  1.4900000000000E+00 -3.7622459744158E-03  1.7536186986538E-01
151  1.5000000000000E+00 -2.9849477513170E-03  1.4569315314295E-01
152  1.5100000000000E+00 -2.3462716622487E-03  1.1853853109794E-01
153  1.5200000000000E+00 -1.8205931660182E-03  9.4018964379603E-02
154  1.5300000000000E+00 -1.3883512357207E-03  7.2216930325248E-02
155  1.5400000000000E+00 -1.0333743746637E-03  5.3197639893028E-02
156  1.5500000000000E+00 -7.3947808961944E-04  3.7039742602949E-02
157  1.5600000000000E+00 -4.9603028785834E-04  2.3793738180077E-02
158  1.5700000000000E+00 -2.9770303922015E-04  1.3483773988319E-02
159  1.5800000000000E+00 -1.4458812137989E-04  6.1089052921177E-03
160  1.5900000000000E+00 -4.1611624756785E-05  1.6253916097964E-03
161  1.6000000000000E+00 -1.0051204411737E-06  3.5601403993007E-05
162  1.6100000000000E+00  1.6170978439854E-07 -5.5962930215510E-06
163  1.6200000000000E+00 -1.2194861579146E-08  4.4519233844707E-07
164  1.63  0.  0.
165  1.64  0.  0.
166  1.65  0.  0.
167  1.66  0.  0.
168  1.67  0.  0.
169  1.68  0.  0.
170  1.69  0.  0.
171  1.70  0.  0.
172  1.71  0.  0.
173  1.72  0.  0.
174  1.73  0.  0.
175  1.74  0.  0.
176  1.75  0.  0.
177  1.76  0.  0.
178  1.77  0.  0.
179  1.78  0.  0.
180  1.79  0.  0.
181  1.80  0.  0.
182  1.81  0.  0.
183  1.82  0.  0.
184  1.83  0.  0.
185  1.84  0.  0.
186  1.85  0.  0.
187  1.86  0.  0.
188  1.87  0.  0.
189  1.88  0.  0.
190  1.89  0.  0.
191  1.90  0.  0.
192  1.91  0.  0.
193  1.92  0.  0.
194  1.93  0.  0.
195  1.94  0.  0.
196  1.95  0.  0.
197  1.96  0.  0.
198  1.97  0.  0.
199  1.98  0.  0.
200  1.99  0.  0.
201  2.00  0.  0.
202  2.01  0.  0.
203  2.02  0.  0.
204  2.03  0.  0.
205  2.04  0.  0.
206  2.05  0.  0.
207  2.06  0.  0.
208  2.07  0.  0.
209  2.08  0.  0.
210  2.09  0.  0.
211  2.10  0.  0.
212  2.11  0.  0.
213  2.12  0.  0.
214  2.13  0.  0.
215  2.14  0.  0.
216  2.15  0.  0.
217  2.16  0.  0.
218  2.17  0.  0.
219  2.18  0.  0.
220  2.19  0.  0.
221  2.20  0.  0.
222  2.21  0.  0.
223  2.22  0.  0.
224  2.23  0.  0.
225  2.24  0.  0.
226  2.25  0.  0.
227  2.26  0.  0.
228  2.27  0.  0.
229  2.28  0.  0.
230  2.29  0.  0.
231  2.30  0.  0.
232  2.31  0.  0.
233  2.32  0.  0.
234  2.33  0.  0.
235  2.34  0.  0.
236  2.35  0.  0.
237  2.36  0.  0.
238  2.37  0.  0.
239  2.38  0.  0.
240  2.39  0.  0.
241  2.40  0.  0.
242  2.41  0.  0.
243  2.42  0.  0.
244  2.43  0.  0.
245  2.44  0.  0.
246  2.45  0.  0.
247  2.46  0.  0.
248  2.47  0.  0.
249  2.48  0.  0.
250  2.49  0.  0.
251  2.50  0.  0.
252  2.51  0.  0.
253  2.52  0.  0.
254  2.53  0.  0.
255  2.54  0.  0.
256  2.55  0.  0.
257  2.56  0.  0.
258  2.57  0.  0.
259  2.58  0.  0.
260  2.59  0.  0.
261  2.60  0.  0.
262  2.61  0.  0.
263  2.62  0.  0.
264  2.63  0.  0.
265  2.64  0.  0.
266  2.65  0.  0.
267  2.66  0.  0.
268  2.67  0.  0.
269  2.68  0.  0.
270  2.69  0.  0.
271  2.70  0.  0.
272  2.71  0.  0.
273  2.72  0.  0.
274  2.73  0.  0.
275  2.74  0.  0.
276  2.75  0.  0.
277  2.76  0.  0.
278  2.77  0.  0.
279  2.78  0.  0.
280  2.79  0.  0.
281  2.80  0.  0.
282  2.81  0.  0.
283  2.82  0.  0.
284  2.83  0.  0.
285  2.84  0.  0.
286  2.85  0.  0.
287  2.86  0.  0.
288  2.87  0.  0.
289  2.88  0.  0.
290  2.89  0.  0.
291  2.90  0.  0.
292  2.91  0.  0.
293  2.92  0.  0.
294  2.93  0.  0.
295  2.94  0.  0.
296  2.95  0.  0.
297  2.96  0.  0.
298  2.97  0.  0.
299  2.98  0.  0.
300  2.99  0.  0.
301  3.00  0.  0.
302  3.01  0.  0.
303  3.02  0.  0.
304  3.03  0.  0.
305  3.04  0.  0.
306  3.05  0.  0.
307  3.06  0.  0.
308  3.07  0.  0.
309  3.08  0.  0.
310  3.09  0.  0.
311  3.10  0.  0.
312  3.11  0.  0.
313  3.12  0.  0.
314  3.13  0.  0.
315  3.14  0.  0.
316  3.15  0.  0.
317  3.16  0.  0.
318  3.17  0.  0.
319  3.18  0.  0.
320  3.19  0.  0.
321  3.20  0.  0.
322  3.21  0.  0.
323  3.22  0.  0.
324  3.23  0.  0.
325  3.24  0.  0.
326  3.25  0.  0.
327  3.26  0.  0.
328  3.27  0.  0.
329  3.28  0.  0.
330  3.29  0.  0.
331  3.30  0.  0.
332  3.31  0.  0.
333  3.32  0.  0.
334  3.33  0.  0.
335  3.34  0.  0.
336  3.35  0.  0.
337  3.36  0.  0.
338  3.37  0.  0.
339  3.38  0.  0.
340  3.39  0.  0.
341  3.40  0.  0.
342  3.41  0.  0.
343  3.42  0.  0.
344  3.43  0.  0.
345  3.44  0.  0.
346  3.45  0.  0.
347  3.46  0.  0.
348  3.47  0.  0.
349  3.48  0.  0.
350  3.49  0.  0.
351  3.50  0.  0.
352  3.51  0.  0.
353  3.52  0.  0.
354  3.53  0.  0.
355  3.54  0.  0.
356  3.55  0.  0.
357  3.56  0.  0.
358  3.57  0.  0.
359  3.58  0.  0.
360  3.59  0.  0.
361  3.60  0.  0.
362  3.61  0.  0.
363  3.62  0.  0.
364  3.63  0.  0.
365  3.64  0.  0.
366  3.65  0.  0.
367  3.66  0.  0.
368  3.67  0.  0.
369  3.68  0.  0.
370  3.69  0.  0.
371  3.70  0.  0.
372  3.71  0.  0.
373  3.72  0.  0.
374  3.73  0.  0.
375  3.74  0.  0.
376  3.75  0.  0.
377  3.76  0.  0.
378  3.77  0.  0.
379  3.78  0.  0.
380  3.79  0.  0.
381  3.80  0.  0.
382  3.81  0.  0.
383  3.82  0.  0.
384  3.83  0.  0.
385  3.84  0.  0.
386  3.85  0.  0.
387  3.86  0.  0.
388  3.87  0.  0.
389  3.88  0.  0.
390  3.89  0.  0.
391  3.90  0.  0.
392  3.91  0.  0.
393  3.92  0.  0.
394  3.93  0.  0.
395  3.94  0.  0.
396  3.95  0.  0.
397  3.96  0.  0.
398  3.97  0.  0.
399  3.98  0.  0.
400  3.99  0.  0.
401  4.00  0.  0.
402  4.01  0.  0.
403  4.02  0.  0.
404  4.03  0.  0.
405  4.04  0.  0.
406  4.05  0.  0.
407  4.06  0.  0.
408  4.07  0.  0.
409  4.08  0.  0.
410  4.09  0.  0.
411  4.10  0.  0.
412  4.11  0.  0.
413  4.12  0.  0.
414  4.13  0.  0.
415  4.14  0.  0.
416  4.15  0.  0.
417  4.16  0.  0.
418  4.17  0.  0.
419  4.18  0.  0.
420  4.19  0.  0.
421  4.20  0.  0.
422  4.21  0.  0.
423  4.22  0.  0.
424  4.23  0.  0.
425  4.24  0.  0.
426  4.25  0.  0.
427  4.26  0.  0.
428  4.27  0.  0.
429  4.28  0.  0.
430  4.29  0.  0.
431  4.30  0.  0.
432  4.31  0.  0.
433  4.32  0.  0.
434  4.33  0.  0.
435  4.34  0.  0.
436  4.35  0.  0.
437  4.36  0.  0.
438  4.37  0.  0.
439  4.38  0.  0.
440  4.39  0.  0.
441  4.40  0.  0.
442  4.41  0.  0.
443  4.42  0.  0.
444  4.43  0.  0.
445  4.44  0.  0.
446  4.45  0.  0.
447  4.46  0.  0.
448  4.47  0.  0.
449  4.48  0.  0.
450  4.49  0.  0.
451  4.50  0.  0.
452  4.51  0.  0.
453  4.52  0.  0.
454  4.53  0.  0.
455  4.54  0.  0.
456  4.55  0.  0.
457  4.56  0.  0.
458  4.57  0.  0.
459  4.58  0.  0.
460  4.59  0.  0.
461  4.60  0.  0.
462  4.61  0.  0.
463  4.62  0.  0.
464  4.63  0.  0.
465  4.64  0.  0.
466  4.65  0.  0.
467  4.66  0.  0.
468  4.67  0.  0.
469  4.68  0.  0.
470  4.69  0.  0.
471  4.70  0.  0.
472  4.71  0.  0.
473  4.72  0.  0.
474  4.73  0.  0.
475  4.74  0.  0.
476  4.75  0.  0.
477  4.76  0.  0.
478  4.77  0.  0.
479  4.78  0.  0.
480  4.79  0.  0.
481  4.80  0.  0.
482  4.81  0.  0.
483  4.82  0.  0.
484  4.83  0.  0.
485  4.84  0.  0.
486  4.85  0.  0.
487  4.86  0.  0.
488  4.87  0.  0.
489  4.88  0.  0.
490  4.89  0.  0.
491  4.90  0.  0.
492  4.91  0.  0.
493  4.92  0.  0.
494  4.93  0.  0.
495  4.94  0.  0.
496  4.95  0.  0.
497  4.96  0.  0.
498  4.97  0.  0.
499  4.98  0.  0.
500  4.99  0.  0.
501  5.00  0.  0.
502  5.01  0.  0.
503  5.02  0.  0.
504  5.03  0.  0.
505  5.04  0.  0.
506  5.05  0.  0.
507  5.06  0.  0.
508  5.07  0.  0.
509  5.08  0.  0.
510  5.09  0.  0.
511  5.10  0.  0.
512  5.11  0.  0.
513  5.12  0.  0.
514  5.13  0.  0.
515  5.14  0.  0.
516  5.15  0.  0.
517  5.16  0.  0.
518  5.17  0.  0.
519  5.18  0.  0.
520  5.19  0.  0.
521  5.20  0.  0.
522  5.21  0.  0.
523  5.22  0.  0.
524  5.23  0.  0.
525  5.24  0.  0.
526  5.25  0.  0.
527  5.26  0.  0.
528  5.27  0.  0.
529  5.28  0.  0.
530  5.29  0.  0.
531  5.30  0.  0.
532  5.31  0.  0.
533  5.32  0.  0.
534  5.33  0.  0.
535  5.34  0.  0.
536  5.35  0.  0.
537  5.36  0.  0.
538  5.37  0.  0.
539  5.38  0.  0.
540  5.39  0.  0.
541  5.40  0.  0.
542  5.41  0.  0.
543  5.42  0.  0.
544  5.43  0.  0.
545  5.44  0.  0.
546  5.45  0.  0.
547  5.46  0.  0.
548  5.47  0.  0.
549  5.48  0.  0.
550  5.49  0.  0.
551  5.50  0.  0.
552  5.51  0.  0.
553  5.52  0.  0.
554  5.53  0.  0.
555  5.54  0.  0.
556  5.55  0.  0.
557  5.56  0.  0.
558  5.57  0.  0.
559  5.58  0.  0.
560  5.59  0.  0.
561  5.60  0.  0.
562  5.61  0.  0.
563  5.62  0.  0.
564  5.63  0.  0.
565  5.64  0.  0.
566  5.65  0.  0.
567  5.66  0.  0.
568  5.67  0.  0.
569  5.68  0.  0.
570  5.69  0.  0.
571  5.70  0.  0.
572  5.71  0.  0.
573  5.72  0.  0.
574  5.73  0.  0.
575  5.74  0.  0.
576  5.75  0.  0.
577  5.76  0.  0.
578  5.77  0.  0.
579  5.78  0.  0.
580  5.79  0.  0.
581  5.80  0.  0.
582  5.81  0.  0.
583  5.82  0.  0.
584  5.83  0.  0.
585  5.84  0.  0.
586  5.85  0.  0.
587  5.86  0.  0.
588  5.87  0.  0.
589  5.88  0.  0.
590  5.89  0.  0.
591  5.90  0.  0.
592  5.91  0.  0.
593  5.92  0.  0.
594  5.93  0.  0.
595  5.94  0.  0.
596  5.95  0.  0.
597  5.96  0.  0.
598  5.97  0.  0.
599  5.98  0.  0.
600  5.99  0.  0.
1                         1.4464994731101E+01  1.2111010738920E+00 -6.8658354049188E-02
1  0.0000000000000E+00 -2.9336861967488E-09  6.0723774758520E-09 -5.9994631415594E-09
2  1.0000000000000E-02  1.6373516829727E-03 -2.7424950232585E-04  4.7663104105416E-04
3  2.0000000000000E-02  6.5457728663822E-03 -1.0999173646957E-03  1.9088286011189E-03
4  3.0000000000000E-02  1.4714303023511E-02 -2.4856102110298E-03  4.3033630576295E-03
5  4.0000000000000E-02  2.6124479933940E-02 -4.4451712291629E-03  7.6710455250585E-03
6  5.0000000000000E-02  4.0750053785288E-02 -6.9969409944807E-03  1.2026031095644E-02
7  6.0000000000000E-02  5.8556599013478E-02 -1.0162747558154E-02  1.7384868126984E-02
8  7.0000000000000E-02  7.9501035670175E-02 -1.3966650113104E-02  2.3765317693841E-02
9  8.0000000000000E-02  1.0353107503974E-01 -1.8433466623196E-02  3.1184973320983E-02
10  9.0000000000000E-02  1.3058460684778E-01 -2.3587121242017E-02  3.9659716469818E-02
11  1.0000000000000E-01  1.6058904765167E-01 -2.9448852040668E-02  4.9202047847870E-02
12  1.1000000000000E-01  1.9346067183151E-01 -3.6035323412097E-02  5.9819338345598E-02
13  1.2000000000000E-01  2.2910394796636E-01 -4.3356690437643E-02  7.1512046195030E-02
14  1.3000000000000E-01  2.6741090425263E-01 -5.1414664425245E-02  8.4271948726480E-02
15  1.4000000000000E-01  3.0826054697818E-01 -6.0200629714468E-02  9.8080437826680E-02
16  1.5000000000000E-01  3.5151835589328E-01 -6.9693861665149E-02  1.1290692785194E-01
17  1.6000000000000E-01  3.9703587961928E-01 -7.9859894502755E-02  1.2870742332285E-01
18  1.7000000000000E-01  4.4465045301362E-01 -9.0649085401195E-02  1.4542329124158E-01
19  1.8000000000000E-01  4.9418505668878E-01 -1.0199541788379E-01  1.6298027937325E-01
20  1.9000000000000E-01  5.4544833669014E-01 -1.1381558337368E-01  1.8128781738095E-01
21  2.0000000000000E-01  5.9823479971477E-01 -1.2600837460641E-01  2.0023863238443E-01
22  2.1000000000000E-01  6.5232519624703E-01 -1.3845441872573E-01  2.1970870442410E-01
23  2.2000000000000E-01  7.0748710065540E-01 -1.5101627133223E-01  2.3955758057557E-01
24  2.3000000000000E-01  7.6347569369896E-01 -1.6353888566965E-01  2.5962905920378E-01
25  2.4000000000000E-01  8.2003474910395E-01 -1.7585046365378E-01  2.7975224821561E-01
26  2.5000000000000E-01  8.7689782196033E-01 -1.8776368772117E-01  2.9974299331614E-01
27  2.6000000000000E-01  9.3378963273479E-01 -1.9907732465141E-01  3.1940566435488E-01
28  2.7000000000000E-01  9.9042763677617E-01 -2.0957818475442E-01  3.3853528002412E-01
29  2.8000000000000E-01  1.0465237653805E+00 -2.1904341226827E-01  3.5691994360311E-01
30  2.9000000000000E-01  1.1017863208620E+00 -2.2724307563656E-01  3.7434355528510E-01
31  3.0000000000000E-01  1.1559220047155E+00 -2.3394301967382E-01  3.9058876002822E-01
32  3.1000000000000E-01  1.2086380549289E+00 -2.3890793562107E-01  4.0544008397830E-01
33  3.2000000000000E-01  1.2596444658638E+00 -2.4190459986621E-01  4.1868720744645E-01
34  3.3000000000000E-01  1.3086562619371E+00 -2.4270522776903E-01  4.3012831830219E-01
35  3.4000000000000E-01  1.3553957946471E+00 -2.4109088568073E-01  4.3957348655628E-01
36  3.5000000000000E-01  1.3995950313270E+00 -2.3685490196219E-01  4.4684799893387E-01
37  3.6000000000000E-01  1.4409978034232E+00 -2.2980621663776E-01  4.5179559143067E-01
38  3.7000000000000E-01  1.4793619820787E+00 -2.1977260930830E-01  4.5428151823635E-01
39  3.8000000000000E-01  1.5144615493856E+00 -2.0660374610118E-01  4.5419539700634E-01
40  3.9000000000000E-01  1.5460885348258E+00 -1.9017398874424E-01  4.5145377325428E-01
41  4.0000000000000E-01  1.5740547881516E+00 -1.7038491228486E-01  4.4600235058023E-01
42  4.1000000000000E-01  1.5981935622240E+00 -1.4716748247681E-01  4.3781783848600E-01
43  4.2000000000000E-01  1.6183608820995E+00 -1.2048384935222E-01  4.2690937557322E-01
44  4.3000000000000E-01  1.6344366798806E+00 -9.0328719884473E-02  4.1331949286902E-01
45  4.4000000000000E-01  1.6463256784727E+00 -5.6730279819093E-02  3.9712458975481E-01
46  4.5000000000000E-01  1.6539580113435E+00 -1.9750642568587E-02  3.7843490334633E-01
47  4.6000000000000E-01  1.6572895696045E+00  2.0514188608397E-02  3.5739396103492E-01
48  4.7000000000000E-01  1.6563020721337E+00  6.3934850250547E-02  3.3417751508572E-01
49  4.8000000000000E-01  1.6510028589627E+00  1.1034963641026E-01  3.0899196752472E-01
50  4.9000000000000E-01  1.6414244126781E+00  1.5956599182213E-01  2.8207230285835E-01
51  5.0000000000000E-01  1.6276236170349E+00  2.1136245918801E-01  2.5367955527349E-01
52  5.1000000000000E-01  1.6096807662893E+00  2.6549105085512E-01  2.2409784569016E-01
53  5.2000000000000E-01  1.5876983428207E+00  3.2168000726771E-01  1.9363103220795E-01
54  5.3000000000000E-01  1.5617995843710E+00  3.7963689732448E-01  1.6259902494149E-01
55  5.4000000000000E-01  1.5321268655975E+00  4.3905200932175E-01  1.3133382282681E-01
56  5.5000000000000E-01  1.4988399215528E+00  4.9960197563519E-01  1.0017533556575E-01
57  5.6000000000000E-01  1.4621139431126E+00  5.6095356980797E-01  6.9467058341081E-02
58  5.7000000000000E-01  1.4221375762229E+00  6.2276761136541E-01  3.9551670184908E-02
59  5.8000000000000E-01  1.3791108580893E+00  6.8470291153976E-01  1.0766628841135E-02
60  5.9000000000000E-01  1.3332431240659E+00  7.4642019221656E-01 -1.6560164419775E-02
61  6.0000000000000E-01  1.2847509189912E+00  8.0758591083234E-01 -4.2114557324701E-02
62  6.1000000000000E-01  1.2338559460778E+00  8.6787592566575E-01 -6.5600125865412E-02
63  6.2000000000000E-01  1.1807830851828E+00  9.2697893894757E-01 -8.6741873168716E-02
64  6.3000000000000E-01  1.1257585104107E+00  9.8459965942198E-01 -1.0528958556362E-01
65  6.4000000000000E-01  1.0690079345412E+00  1.0404616313509E+00 -1.2102078938489E-01
66  6.5000000000000E-01  1.0107550047975E+00  1.0943096833676E+00 -1.3374325909843E-01
67  6.6000000000000E-01  9.5121987102215E-01  1.1459119579413E+00 -1.4329703535818E-01
68  6.7000000000000E-01  8.9061794347099E-01  1.1950614903751E+00 -1.4955592046346E-01
69  6.8000000000000E-01  8.2915885325830E-01  1.2415773150651E+00 -1.5242842821300E-01
70  6.9000000000000E-01  7.6704562405654E-01  1.2853050860455E+00 -1.5185817517376E-01
71  7.0000000000000E-01  7.0447405906720E-01  1.3261172084368E+00 -1.4782371071030E-01
72  7.1000000000000E-01  6.4163234262503E-01  1.3639124871295E+00 -1.4033779355399E-01
73  7.2000000000000E-01  5.7870085116765E-01  1.3986153086773E+00 -1.2944613303672E-01
74  7.3000000000000E-01  5.1585216379286E-01  1.4301743817470E+00 -1.1522562316522E-01
75  7.4000000000000E-01  4.5325125832716E-01  1.4585610703982E+00 -9.7782107275792E-02
76  7.5000000000000E-01  3.9105587482955E-01  1.4837673627542E+00 -7.7247719896199E-02
77  7.6000000000000E-01  3.2941702484040E-01  1.5058035251089E+00 -5.3777860472191E-02
78  7.7000000000000E-01  2.6847962153053E-01  1.5246954980392E+00 -2.7547860630100E-02
79  7.8000000000000E-01  2.0838320327992E-01  1.5404820965137E+00  1.2505875033558E-03
80  7.9000000000000E-01  1.4926272117753E-01  1.5532120801877E+00  3.2413169836932E-02
81  8.0000000000000E-01  9.1249359530037E-02  1.5629411629600E+00  6.5726780442509E-02
82  8.1000000000000E-01  3.4471357733273E-02  1.5697290323602E+00  1.0097336629033E-01
83  8.2000000000000E-01 -2.0945198181555E-02  1.5736364493906E+00  1.3793370939530E-01
84  8.3000000000000E-01 -7.4875645357630E-02  1.5747224980595E+00  1.7639107048774E-01
85  8.4000000000000E-01 -1.2719610495591E-01  1.5730420509962E+00  2.1613462114196E-01
86  8.5000000000000E-01 -1.7778296168315E-01  1.5686435133095E+00  2.5696259558684E-01
87  8.6000000000000E-01 -2.2651248698650E-01  1.5615669012679E+00  2.9868509910794E-01
88  8.7000000000000E-01 -2.7326062763408E-01  1.5518423055692E+00  3.4112651693967E-01
89  8.8000000000000E-01 -3.1790297760197E-01  1.5394887810312E+00  3.8412747570336E-01
90  8.9000000000000E-01 -3.6031494692592E-01  1.5245136956211E+00  4.2754631863308E-01
91  9.0000000000000E-01 -4.0037213653072E-01  1.5069125620208E+00  4.7126006586736E-01
92  9.1000000000000E-01 -4.3795092311163E-01  1.4866693645720E+00  5.1516484178453E-01
93  9.2000000000000E-01 -4.7292925300910E-01  1.4637573836695E+00  5.5917576251885E-01
94  9.3000000000000E-01 -5.0518763879155E-01  1.4381405086653E+00  6.0322628819566E-01
95  9.4000000000000E-01 -5.3461034704895E-01  1.4097750193514E+00  6.4726705584417E-01
96  9.5000000000000E-01 -5.6108676080804E-01  1.3786118052958E+00  6.9126422016146E-01
97  9.6000000000000E-01 -5.8451289511719E-01  1.3445989819640E+00  7.3519734008536E-01
98  9.7000000000000E-01 -6.0479303981891E-01  1.3076848528547E+00  7.7905685926634E-01
99  9.8000000000000E-01 -6.2184149942716E-01  1.2678211580337E+00  8.2284123780793E-01
100  9.9000000000000E-01 -6.3558439645289E-01  1.2249665416466E+00  8.6655380086796E-01
101  1.0000000000000E+00 -6.4596150155200E-01  1.1790901644088E+00  9.1019937671072E-01
102  1.0100000000000E+00 -6.5292805158406E-01  1.1301753818515E+00  9.5378080241462E-01
103  1.0200000000000E+00 -6.5645651512169E-01  1.0782234053828E+00  9.9729537954682E-01
104  1.0300000000000E+00 -6.5653826419530E-01  1.0232568610996E+00  1.0407313646073E+00
105  1.0400000000000E+00 -6.5318511111880E-01  9.6532316082546E-01  1.0840645798579E+00
106  1.0500000000000E+00 -6.4643067014526E-01  9.0449760109992E-01  1.1272552292414E+00
107  1.0600000000000E+00 -6.3633150544294E-01  8.4088610880920E-01  1.1702450014564E+00
108  1.0700000000000E+00 -6.2296802944358E-01  7.7462755678909E-01  1.2129545379235E+00
109  1.0800000000000E+00 -6.0644511897887E-01  7.0589557902280E-01  1.2552813373930E+00
110  1.0900000000000E+00 -5.8689242071491E-01  6.3489982285527E-01  1.2970981614369E+00
111  1.1000000000000E+00 -5.6446432218728E-01  5.6188658489203E-01  1.3382519961145E+00
112  1.1100000000000E+00 -5.3933957012189E-01  4.8713878773241E-01  1.3785636149052E+00
113  1.1200000000000E+00 -5.1172052363428E-01  4.1097526627234E-01  1.4178277767006E+00
114  1.1300000000000E+00 -4.8183203621687E-01  3.3374934477733E-01  1.4558140804737E+00
115  1.1400000000000E+00 -4.4991996703919E-01  2.5584669904465E-01  1.4922684854095E+00
116  1.1500000000000E+00 -4.1624932889157E-01  1.7768251153472E-01  1.5269154920172E+00
117  1.1600000000000E+00 -3.8110208695623E-01  9.9697941067535E-02  1.5594609663192E+00
118  1.1700000000000E+00 -3.4477462937911E-01  2.2355942327137E-02  1.5895955758705E+00
119  1.1800000000000E+00 -3.0757493720608E-01 -5.3863516275623E-02  1.6169987933470E+00
120  1.1900000000000E+00 -2.6981948749670E-01 -1.2846877514890E-01  1.6413434110639E+00
121  1.2000000000000E+00 -2.3182992925460E-01 -2.0096227335080E-01  1.6623004981878E+00
122  1.2100000000000E+00 -1.9392957702870E-01 -2.7084672186397E-01  1.6795447219728E+00
123  1.2200000000000E+00 -1.5643977162504E-01 -3.3763156696014E-01  1.6927599451156E+00
124  1.2300000000000E+00 -1.1967616113516E-01 -4.0083964238810E-01  1.7016450036644E+00