Hs    ONCVPSP-4.0.1  r_core=   1.10501   1.10501   1.10501   1.20154
108.0000     48.0000      231012    zatom,zion,pspd
8 -116133   3     4   600     0    pspcod,pspxc,lmax,lloc,mmax,r2well
5.99000000  3.50000000  0.00000000    rchrg fchrg qchrg
3     3     2     2    nproj
3     1           extension_switch
3     3     3    nprojso
0                        -1.2955052190598E+01  1.1080077665961E+01 -2.7843497751316E-01
1  0.0000000000000E+00 -2.3146984329259E-10  1.3488383521221E-08 -3.6149437304678E-08
2  1.0000000000000E-02  7.0872360467075E-02  1.8159442838172E-01 -2.8739089782078E-02
3  2.0000000000000E-02  1.4161203327506E-01  3.6146451092312E-01 -5.6942093475591E-02
4  3.0000000000000E-02  2.1208646161075E-01  5.3790340016111E-01 -8.4086778736743E-02
5  4.0000000000000E-02  2.8216335157417E-01  7.0923912530275E-01 -1.0967845528057E-01
6  5.0000000000000E-02  3.5171080676210E-01  8.7385172601953E-01 -1.3326332007413E-01
7  6.0000000000000E-02  4.2059746680244E-01  1.0301900090658E+00 -1.5444125854325E-01
8  7.0000000000000E-02  4.8869265146902E-01  1.1767877836193E+00 -1.7287786943068E-01
9  8.0000000000000E-02  5.5586651223745E-01  1.3122794177536E+00 -1.8831544479415E-01
10  9.0000000000000E-02  6.2199019338951E-01  1.4354145442595E+00 -2.0058260031935E-01
11  1.0000000000000E-01  6.8693600500898E-01  1.5450717306758E+00 -2.0960221963808E-01
12  1.1000000000000E-01  7.5057761041152E-01  1.6402709174905E+00 -2.1539735482957E-01
13  1.2000000000000E-01  8.1279023068572E-01  1.7201844216405E+00 -2.1809471864952E-01
14  1.3000000000000E-01  8.7345086906856E-01  1.7841463011584E+00 -2.1792541658921E-01
15  1.4000000000000E-01  9.3243855781196E-01  1.8316598823594E+00 -2.1522260195802E-01
16  1.5000000000000E-01  9.8963463000101E-01  1.8624032642960E+00 -2.1041579689314E-01
17  1.6000000000000E-01  1.0449230184457E+00  1.8762326369206E+00 -2.0402170712054E-01
18  1.7000000000000E-01  1.0981905832807E+00  1.8731832796350E+00 -1.9663146734158E-01
19  1.8000000000000E-01  1.1493274692741E+00  1.8534681453611E+00 -1.8889438452308E-01
20  1.9000000000000E-01  1.1982274930728E+00  1.8174739811530E+00 -1.8149839365834E-01
21  2.0000000000000E-01  1.2447885597210E+00  1.7657549884400E+00 -1.7514759875292E-01
22  2.1000000000000E-01  1.2889131067930E+00  1.6990240825878E+00 -1.7053743359093E-01
23  2.2000000000000E-01  1.3305085734261E+00  1.6181418705923E+00 -1.6832813402330E-01
24  2.3000000000000E-01  1.3694878904437E+00  1.5241035251092E+00 -1.6911735729676E-01
25  2.4000000000000E-01  1.4057699866743E+00  1.4180237902523E+00 -1.7341290543444E-01
26  2.5000000000000E-01  1.4392803055324E+00  1.3011204072057E+00 -1.8160660040246E-01
27  2.6000000000000E-01  1.4699513249773E+00  1.1746962933014E+00 -1.9395041115956E-01
28  2.7000000000000E-01  1.4977230731455E+00  1.0401208446292E+00 -2.1053594046101E-01
29  2.8000000000000E-01  1.5225436312978E+00  8.9881075759970E-01 -2.3127833803757E-01
30  2.9000000000000E-01  1.5443696152661E+00  7.5221077771557E-01 -2.5590561420193E-01
31  3.0000000000000E-01  1.5631666263575E+00  6.0177478316653E-01 -2.8395418416057E-01
32  3.1000000000000E-01  1.5789096626798E+00  4.4894759635483E-01 -3.1477128098276E-01
33  3.2000000000000E-01  1.5915834821245E+00  2.9514788829671E-01 -3.4752463954826E-01
34  3.3000000000000E-01  1.6011829087566E+00  1.4175249984426E-01 -3.8121958255715E-01
35  3.4000000000000E-01  1.6077130751240E+00 -9.9175487531147E-03 -4.1472334278596E-01
36  3.5000000000000E-01  1.6111895939886E+00 -1.5860915032567E-01 -4.4679614502638E-01
37  3.6000000000000E-01  1.6116386541659E+00 -3.0314716462573E-01 -4.7612825977139E-01
38  3.7000000000000E-01  1.6090970365107E+00 -4.4244236607805E-01 -5.0138194277448E-01
39  3.8000000000000E-01  1.6036120475587E+00 -5.7549729242683E-01 -5.2123690438883E-01
40  3.9000000000000E-01  1.5952413698839E+00 -7.0141007380013E-01 -5.3443772391120E-01
41  4.0000000000000E-01  1.5840528298046E+00 -8.1937638921074E-01 -5.3984144970742E-01
42  4.1000000000000E-01  1.5701240846271E+00 -9.2868975703607E-01 -5.3646351658553E-01
43  4.2000000000000E-01  1.5535422330906E+00 -1.0287404149341E+00 -5.2352007623520E-01
44  4.3000000000000E-01  1.5344033540419E+00 -1.1190130807701E+00 -5.0046488020012E-01
45  4.4000000000000E-01  1.5128119795599E+00 -1.1990839078108E+00 -4.6701898012113E-01
46  4.5000000000000E-01  1.4888805097553E+00 -1.2686169536830E+00 -4.2319171568351E-01
47  4.6000000000000E-01  1.4627285772415E+00 -1.3273604730930E+00 -3.6929174192897E-01
48  4.7000000000000E-01  1.4344823698050E+00 -1.3751433194736E+00 -3.0592719590024E-01
49  4.8000000000000E-01  1.4042739200764E+00 -1.4118717017069E+00 -2.3399450609169E-01
50  4.9000000000000E-01  1.3722403710261E+00 -1.4375264906839E+00 -1.5465579208023E-01
51  5.0000000000000E-01  1.3385232258853E+00 -1.4521612091247E+00 -6.9305268681526E-02
52  5.1000000000000E-01  1.3032675906454E+00 -1.4559007697454E+00  2.0474460020789E-02
53  5.2000000000000E-01  1.2666214166419E+00 -1.4489409548231E+00  1.1296487648266E-01
54  5.3000000000000E-01  1.2287347499244E+00 -1.4315485580544E+00  2.0637103638200E-01
55  5.4000000000000E-01  1.1897589931822E+00 -1.4040620409440E+00  2.9888594431825E-01
56  5.5000000000000E-01  1.1498461849862E+00 -1.3668924943568E+00  3.8875740741037E-01
57  5.6000000000000E-01  1.1091483000710E+00 -1.3205246446002E+00  4.7435475546161E-01
58  5.7000000000000E-01  1.0678165733510E+00 -1.2655176053578E+00  5.5423271736296E-01
59  5.8000000000000E-01  1.0260008494006E+00 -1.2025050542840E+00  6.2718975390703E-01
60  5.9000000000000E-01  9.8384895825473E-01 -1.1321945077403E+00  6.9231827107897E-01
61  6.0000000000000E-01  9.4150611765367E-01 -1.0553653798784E+00  7.4904437435356E-01
62  6.1000000000000E-01  8.9911436127787E-01 -9.7286554310624E-01  7.9715516788106E-01
63  6.2000000000000E-01  8.5681199212516E-01 -8.8560615509458E-01  8.3681204223255E-01
64  6.3000000000000E-01  8.1473305997910E-01 -7.9455458126496E-01  8.6854891564579E-01
65  6.4000000000000E-01  7.7300686190791E-01 -7.0072531871484E-01  8.9325497750712E-01
66  6.5000000000000E-01  7.3175746490987E-01 -6.0516891466524E-01  9.1214210682510E-01
67  6.6000000000000E-01  6.9110325016735E-01 -5.0895896607531E-01  9.2669777790733E-01
68  6.7000000000000E-01  6.5115647886418E-01 -4.1317738295285E-01  9.3862489406175E-01
69  6.8000000000000E-01  6.1202288012817E-01 -3.1889819174747E-01  9.4977058113617E-01
70  6.9000000000000E-01  5.7380126234692E-01 -2.2717024264075E-01  9.6204650003406E-01
71  7.0000000000000E-01  5.3658314982951E-01 -1.3899926128629E-01  9.7734367675190E-01
72  7.1000000000000E-01  5.0045244750825E-01 -5.5329747670364E-02  9.9744517859993E-01
73  7.2000000000000E-01  4.6548513705077E-01  2.2972731137854E-02  1.0239401686490E+00
74  7.3000000000000E-01  4.3174900834286E-01  9.5138284217295E-02  1.0581429343832E+00
75  7.4000000000000E-01  3.9930343077058E-01  1.6050790514261E-01  1.1010204037858E+00
76  7.5000000000000E-01  3.6819916904379E-01  2.1854659742644E-01  1.1531314312916E+00
77  7.6000000000000E-01  3.3847824843785E-01  2.6885391540356E-01  1.2145807620388E+00
78  7.7000000000000E-01  3.1017387426828E-01  3.1117148771128E-01  1.2849900766692E+00
79  7.8000000000000E-01  2.8331041014505E-01  3.4538717968815E-01  1.3634878972871E+00
80  7.9000000000000E-01  2.5790341907932E-01  3.7153565747788E-01  1.4487194204337E+00
81  8.0000000000000E-01  2.3395977084314E-01  3.8979523652074E-01  1.5388765617149E+00
82  8.1000000000000E-01  2.1147781812978E-01  4.0048102584777E-01  1.6317476794583E+00
83  8.2000000000000E-01  1.9044764305176E-01  4.0403451207450E-01  1.7247856241915E+00
84  8.3000000000000E-01  1.7085137437780E-01  4.0100985780025E-01  1.8151919708128E+00
85  8.4000000000000E-01  1.5266357468350E-01  3.9205731278064E-01  1.9000145645985E+00
86  8.5000000000000E-01  1.3585169531413E-01  3.7790424738787E-01  1.9762548827763E+00
87  8.6000000000000E-01  1.2037659577287E-01  3.5933441156167E-01  2.0409812091293E+00
88  8.7000000000000E-01  1.0619312289657E-01  3.3716609431470E-01  2.0914432646571E+00
89  8.8000000000000E-01  9.3250744003481E-02  3.1222990534247E-01  2.1251837518430E+00
90  8.9000000000000E-01  8.1494227131729E-02  2.8534691882250E-01  2.1401422663047E+00
91  9.0000000000000E-01  7.0864360565279E-02  2.5730790860801E-01  2.1347472131941E+00
92  9.1000000000000E-01  6.1298703094051E-02  2.2885436346070E-01  2.1079917347691E+00
93  9.2000000000000E-01  5.2732355895467E-02  2.0066190169144E-01  2.0594902006214E+00
94  9.3000000000000E-01  4.5098746569738E-02  1.7332660878406E-01  1.9895125161279E+00
95  9.4000000000000E-01  3.8330415715116E-02  1.4735470260584E-01  1.8989943440033E+00
96  9.5000000000000E-01  3.2359796489378E-02  1.2315579304217E-01  1.7895222784317E+00
97  9.6000000000000E-01  2.7119977860054E-02  1.0103985157663E-01  1.6632940262578E+00
98  9.7000000000000E-01  2.2545442681404E-02  8.1217847429706E-02  1.5230546962815E+00
99  9.8000000000000E-01  1.8572772329139E-02  6.3805846607928E-02  1.3720113357046E+00
100  9.9000000000000E-01  1.5141310347196E-02  4.8832215238179E-02  1.2137288401155E+00
101  1.0000000000000E+00  1.2193778385417E-02  3.6247425166240E-02  1.0520112605339E+00
102  1.0100000000000E+00  9.6768386010039E-03  2.5935834058627E-02  8.9077330034018E-01
103  1.0200000000000E+00  7.5415976302031E-03  1.7728709440394E-02  7.3390740397516E-01
104  1.0300000000000E+00  5.7440498635427E-03  1.1417688564707E-02  5.8515226424845E-01
105  1.0400000000000E+00  4.2454404817227E-03  6.7678427335639E-03  4.4796875469999E-01
106  1.0500000000000E+00  3.0125143823038E-03  3.5294322006115E-03  3.2542949069428E-01
107  1.0600000000000E+00  2.0103683624128E-03  1.4621194536136E-03  2.2009768587648E-01
108  1.0700000000000E+00  1.2164255524593E-03  3.3188849044392E-04  1.3396796784180E-01
109  1.0800000000000E+00  6.2291311216076E-04 -1.1647550696911E-04  6.8507994411145E-02
110  1.0900000000000E+00  2.2598635631455E-04 -1.4684430285628E-04  2.4644749443055E-02
111  1.1000000000000E+00  2.6522124739362E-05 -2.9687470754461E-05  2.8476206778763E-03
112  1.1100000000000E+00 -1.1513864498486E-06  1.6551378310803E-06 -1.2250298752556E-04
113  1.1200000000000E+00 -8.9169672734457E-08  9.3008206638606E-08 -9.6276089091191E-06
114  1.13  0.  0.  0.
115  1.14  0.  0.  0.
116  1.15  0.  0.  0.
117  1.16  0.  0.  0.
118  1.17  0.  0.  0.
119  1.18  0.  0.  0.
120  1.19  0.  0.  0.
121  1.20  0.  0.  0.
122  1.21  0.  0.  0.
123  1.22  0.  0.  0.
124  1.23  0.  0.  0.
125  1.24  0.  0.  0.
126  1.25  0.  0.  0.
127  1.26  0.  0.  0.
128  1.27  0.  0.  0.
129  1.28  0.  0.  0.
130  1.29  0.  0.  0.
131  1.30  0.  0.  0.
132  1.31  0.  0.  0.
133  1.32  0.  0.  0.
134  1.33  0.  0.  0.
135  1.34  0.  0.  0.
136  1.35  0.  0.  0.
137  1.36  0.  0.  0.
138  1.37  0.  0.  0.
139  1.38  0.  0.  0.
140  1.39  0.  0.  0.
141  1.40  0.  0.  0.
142  1.41  0.  0.  0.
143  1.42  0.  0.  0.
144  1.43  0.  0.  0.
145  1.44  0.  0.  0.
146  1.45  0.  0.  0.
147  1.46  0.  0.  0.
148  1.47  0.  0.  0.
149  1.48  0.  0.  0.
150  1.49  0.  0.  0.
151  1.50  0.  0.  0.
152  1.51  0.  0.  0.
153  1.52  0.  0.  0.
154  1.53  0.  0.  0.
155  1.54  0.  0.  0.
156  1.55  0.  0.  0.
157  1.56  0.  0.  0.
158  1.57  0.  0.  0.
159  1.58  0.  0.  0.
160  1.59  0.  0.  0.
161  1.60  0.  0.  0.
162  1.61  0.  0.  0.
163  1.62  0.  0.  0.
164  1.63  0.  0.  0.
165  1.64  0.  0.  0.
166  1.65  0.  0.  0.
167  1.66  0.  0.  0.
168  1.67  0.  0.  0.
169  1.68  0.  0.  0.
170  1.69  0.  0.  0.
171  1.70  0.  0.  0.
172  1.71  0.  0.  0.
173  1.72  0.  0.  0.
174  1.73  0.  0.  0.
175  1.74  0.  0.  0.
176  1.75  0.  0.  0.
177  1.76  0.  0.  0.
178  1.77  0.  0.  0.
179  1.78  0.  0.  0.
180  1.79  0.  0.  0.
181  1.80  0.  0.  0.
182  1.81  0.  0.  0.
183  1.82  0.  0.  0.
184  1.83  0.  0.  0.
185  1.84  0.  0.  0.
186  1.85  0.  0.  0.
187  1.86  0.  0.  0.
188  1.87  0.  0.  0.
189  1.88  0.  0.  0.
190  1.89  0.  0.  0.
191  1.90  0.  0.  0.
192  1.91  0.  0.  0.
193  1.92  0.  0.  0.
194  1.93  0.  0.  0.
195  1.94  0.  0.  0.
196  1.95  0.  0.  0.
197  1.96  0.  0.  0.
198  1.97  0.  0.  0.
199  1.98  0.  0.  0.
200  1.99  0.  0.  0.
201  2.00  0.  0.  0.
202  2.01  0.  0.  0.
203  2.02  0.  0.  0.
204  2.03  0.  0.  0.
205  2.04  0.  0.  0.
206  2.05  0.  0.  0.
207  2.06  0.  0.  0.
208  2.07  0.  0.  0.
209  2.08  0.  0.  0.
210  2.09  0.  0.  0.
211  2.10  0.  0.  0.
212  2.11  0.  0.  0.
213  2.12  0.  0.  0.
214  2.13  0.  0.  0.
215  2.14  0.  0.  0.
216  2.15  0.  0.  0.
217  2.16  0.  0.  0.
218  2.17  0.  0.  0.
219  2.18  0.  0.  0.
220  2.19  0.  0.  0.
221  2.20  0.  0.  0.
222  2.21  0.  0.  0.
223  2.22  0.  0.  0.
224  2.23  0.  0.  0.
225  2.24  0.  0.  0.
226  2.25  0.  0.  0.
227  2.26  0.  0.  0.
228  2.27  0.  0.  0.
229  2.28  0.  0.  0.
230  2.29  0.  0.  0.
231  2.30  0.  0.  0.
232  2.31  0.  0.  0.
233  2.32  0.  0.  0.
234  2.33  0.  0.  0.
235  2.34  0.  0.  0.
236  2.35  0.  0.  0.
237  2.36  0.  0.  0.
238  2.37  0.  0.  0.
239  2.38  0.  0.  0.
240  2.39  0.  0.  0.
241  2.40  0.  0.  0.
242  2.41  0.  0.  0.
243  2.42  0.  0.  0.
244  2.43  0.  0.  0.
245  2.44  0.  0.  0.
246  2.45  0.  0.  0.
247  2.46  0.  0.  0.
248  2.47  0.  0.  0.
249  2.48  0.  0.  0.
250  2.49  0.  0.  0.
251  2.50  0.  0.  0.
252  2.51  0.  0.  0.
253  2.52  0.  0.  0.
254  2.53  0.  0.  0.
255  2.54  0.  0.  0.
256  2.55  0.  0.  0.
257  2.56  0.  0.  0.
258  2.57  0.  0.  0.
259  2.58  0.  0.  0.
260  2.59  0.  0.  0.
261  2.60  0.  0.  0.
262  2.61  0.  0.  0.
263  2.62  0.  0.  0.
264  2.63  0.  0.  0.
265  2.64  0.  0.  0.
266  2.65  0.  0.  0.
267  2.66  0.  0.  0.
268  2.67  0.  0.  0.
269  2.68  0.  0.  0.
270  2.69  0.  0.  0.
271  2.70  0.  0.  0.
272  2.71  0.  0.  0.
273  2.72  0.  0.  0.
274  2.73  0.  0.  0.
275  2.74  0.  0.  0.
276  2.75  0.  0.  0.
277  2.76  0.  0.  0.
278  2.77  0.  0.  0.
279  2.78  0.  0.  0.
280  2.79  0.  0.  0.
281  2.80  0.  0.  0.
282  2.81  0.  0.  0.
283  2.82  0.  0.  0.
284  2.83  0.  0.  0.
285  2.84  0.  0.  0.
286  2.85  0.  0.  0.
287  2.86  0.  0.  0.
288  2.87  0.  0.  0.
289  2.88  0.  0.  0.
290  2.89  0.  0.  0.
291  2.90  0.  0.  0.
292  2.91  0.  0.  0.
293  2.92  0.  0.  0.
294  2.93  0.  0.  0.
295  2.94  0.  0.  0.
296  2.95  0.  0.  0.
297  2.96  0.  0.  0.
298  2.97  0.  0.  0.
299  2.98  0.  0.  0.
300  2.99  0.  0.  0.
301  3.00  0.  0.  0.
302  3.01  0.  0.  0.
303  3.02  0.  0.  0.
304  3.03  0.  0.  0.
305  3.04  0.  0.  0.
306  3.05  0.  0.  0.
307  3.06  0.  0.  0.
308  3.07  0.  0.  0.
309  3.08  0.  0.  0.
310  3.09  0.  0.  0.
311  3.10  0.  0.  0.
312  3.11  0.  0.  0.
313  3.12  0.  0.  0.
314  3.13  0.  0.  0.
315  3.14  0.  0.  0.
316  3.15  0.  0.  0.
317  3.16  0.  0.  0.
318  3.17  0.  0.  0.
319  3.18  0.  0.  0.
320  3.19  0.  0.  0.
321  3.20  0.  0.  0.
322  3.21  0.  0.  0.
323  3.22  0.  0.  0.
324  3.23  0.  0.  0.
325  3.24  0.  0.  0.
326  3.25  0.  0.  0.
327  3.26  0.  0.  0.
328  3.27  0.  0.  0.
329  3.28  0.  0.  0.
330  3.29  0.  0.  0.
331  3.30  0.  0.  0.
332  3.31  0.  0.  0.
333  3.32  0.  0.  0.
334  3.33  0.  0.  0.
335  3.34  0.  0.  0.
336  3.35  0.  0.  0.
337  3.36  0.  0.  0.
338  3.37  0.  0.  0.
339  3.38  0.  0.  0.
340  3.39  0.  0.  0.
341  3.40  0.  0.  0.
342  3.41  0.  0.  0.
343  3.42  0.  0.  0.
344  3.43  0.  0.  0.
345  3.44  0.  0.  0.
346  3.45  0.  0.  0.
347  3.46  0.  0.  0.
348  3.47  0.  0.  0.
349  3.48  0.  0.  0.
350  3.49  0.  0.  0.
351  3.50  0.  0.  0.
352  3.51  0.  0.  0.
353  3.52  0.  0.  0.
354  3.53  0.  0.  0.
355  3.54  0.  0.  0.
356  3.55  0.  0.  0.
357  3.56  0.  0.  0.
358  3.57  0.  0.  0.
359  3.58  0.  0.  0.
360  3.59  0.  0.  0.
361  3.60  0.  0.  0.
362  3.61  0.  0.  0.
363  3.62  0.  0.  0.
364  3.63  0.  0.  0.
365  3.64  0.  0.  0.
366  3.65  0.  0.  0.
367  3.66  0.  0.  0.
368  3.67  0.  0.  0.
369  3.68  0.  0.  0.
370  3.69  0.  0.  0.
371  3.70  0.  0.  0.
372  3.71  0.  0.  0.
373  3.72  0.  0.  0.
374  3.73  0.  0.  0.
375  3.74  0.  0.  0.
376  3.75  0.  0.  0.
377  3.76  0.  0.  0.
378  3.77  0.  0.  0.
379  3.78  0.  0.  0.
380  3.79  0.  0.  0.
381  3.80  0.  0.  0.
382  3.81  0.  0.  0.
383  3.82  0.  0.  0.
384  3.83  0.  0.  0.
385  3.84  0.  0.  0.
386  3.85  0.  0.  0.
387  3.86  0.  0.  0.
388  3.87  0.  0.  0.
389  3.88  0.  0.  0.
390  3.89  0.  0.  0.
391  3.90  0.  0.  0.
392  3.91  0.  0.  0.
393  3.92  0.  0.  0.
394  3.93  0.  0.  0.
395  3.94  0.  0.  0.
396  3.95  0.  0.  0.
397  3.96  0.  0.  0.
398  3.97  0.  0.  0.
399  3.98  0.  0.  0.
400  3.99  0.  0.  0.
401  4.00  0.  0.  0.
402  4.01  0.  0.  0.
403  4.02  0.  0.  0.
404  4.03  0.  0.  0.
405  4.04  0.  0.  0.
406  4.05  0.  0.  0.
407  4.06  0.  0.  0.
408  4.07  0.  0.  0.
409  4.08  0.  0.  0.
410  4.09  0.  0.  0.
411  4.10  0.  0.  0.
412  4.11  0.  0.  0.
413  4.12  0.  0.  0.
414  4.13  0.  0.  0.
415  4.14  0.  0.  0.
416  4.15  0.  0.  0.
417  4.16  0.  0.  0.
418  4.17  0.  0.  0.
419  4.18  0.  0.  0.
420  4.19  0.  0.  0.
421  4.20  0.  0.  0.
422  4.21  0.  0.  0.
423  4.22  0.  0.  0.
424  4.23  0.  0.  0.
425  4.24  0.  0.  0.
426  4.25  0.  0.  0.
427  4.26  0.  0.  0.
428  4.27  0.  0.  0.
429  4.28  0.  0.  0.
430  4.29  0.  0.  0.
431  4.30  0.  0.  0.
432  4.31  0.  0.  0.
433  4.32  0.  0.  0.
434  4.33  0.  0.  0.
435  4.34  0.  0.  0.
436  4.35  0.  0.  0.
437  4.36  0.  0.  0.
438  4.37  0.  0.  0.
439  4.38  0.  0.  0.
440  4.39  0.  0.  0.
441  4.40  0.  0.  0.
442  4.41  0.  0.  0.
443  4.42  0.  0.  0.
444  4.43  0.  0.  0.
445  4.44  0.  0.  0.
446  4.45  0.  0.  0.
447  4.46  0.  0.  0.
448  4.47  0.  0.  0.
449  4.48  0.  0.  0.
450  4.49  0.  0.  0.
451  4.50  0.  0.  0.
452  4.51  0.  0.  0.
453  4.52  0.  0.  0.
454  4.53  0.  0.  0.
455  4.54  0.  0.  0.
456  4.55  0.  0.  0.
457  4.56  0.  0.  0.
458  4.57  0.  0.  0.
459  4.58  0.  0.  0.
460  4.59  0.  0.  0.
461  4.60  0.  0.  0.
462  4.61  0.  0.  0.
463  4.62  0.  0.  0.
464  4.63  0.  0.  0.
465  4.64  0.  0.  0.
466  4.65  0.  0.  0.
467  4.66  0.  0.  0.
468  4.67  0.  0.  0.
469  4.68  0.  0.  0.
470  4.69  0.  0.  0.
471  4.70  0.  0.  0.
472  4.71  0.  0.  0.
473  4.72  0.  0.  0.
474  4.73  0.  0.  0.
475  4.74  0.  0.  0.
476  4.75  0.  0.  0.
477  4.76  0.  0.  0.
478  4.77  0.  0.  0.
479  4.78  0.  0.  0.
480  4.79  0.  0.  0.
481  4.80  0.  0.  0.
482  4.81  0.  0.  0.
483  4.82  0.  0.  0.
484  4.83  0.  0.  0.
485  4.84  0.  0.  0.
486  4.85  0.  0.  0.
487  4.86  0.  0.  0.
488  4.87  0.  0.  0.
489  4.88  0.  0.  0.
490  4.89  0.  0.  0.
491  4.90  0.  0.  0.
492  4.91  0.  0.  0.
493  4.92  0.  0.  0.
494  4.93  0.  0.  0.
495  4.94  0.  0.  0.
496  4.95  0.  0.  0.
497  4.96  0.  0.  0.
498  4.97  0.  0.  0.
499  4.98  0.  0.  0.
500  4.99  0.  0.  0.
501  5.00  0.  0.  0.
502  5.01  0.  0.  0.
503  5.02  0.  0.  0.
504  5.03  0.  0.  0.
505  5.04  0.  0.  0.
506  5.05  0.  0.  0.
507  5.06  0.  0.  0.
508  5.07  0.  0.  0.
509  5.08  0.  0.  0.
510  5.09  0.  0.  0.
511  5.10  0.  0.  0.
512  5.11  0.  0.  0.
513  5.12  0.  0.  0.
514  5.13  0.  0.  0.
515  5.14  0.  0.  0.
516  5.15  0.  0.  0.
517  5.16  0.  0.  0.
518  5.17  0.  0.  0.
519  5.18  0.  0.  0.
520  5.19  0.  0.  0.
521  5.20  0.  0.  0.
522  5.21  0.  0.  0.
523  5.22  0.  0.  0.
524  5.23  0.  0.  0.
525  5.24  0.  0.  0.
526  5.25  0.  0.  0.
527  5.26  0.  0.  0.
528  5.27  0.  0.  0.
529  5.28  0.  0.  0.
530  5.29  0.  0.  0.
531  5.30  0.  0.  0.
532  5.31  0.  0.  0.
533  5.32  0.  0.  0.
534  5.33  0.  0.  0.
535  5.34  0.  0.  0.
536  5.35  0.  0.  0.
537  5.36  0.  0.  0.
538  5.37  0.  0.  0.
539  5.38  0.  0.  0.
540  5.39  0.  0.  0.
541  5.40  0.  0.  0.
542  5.41  0.  0.  0.
543  5.42  0.  0.  0.
544  5.43  0.  0.  0.
545  5.44  0.  0.  0.
546  5.45  0.  0.  0.
547  5.46  0.  0.  0.
548  5.47  0.  0.  0.
549  5.48  0.  0.  0.
550  5.49  0.  0.  0.
551  5.50  0.  0.  0.
552  5.51  0.  0.  0.
553  5.52  0.  0.  0.
554  5.53  0.  0.  0.
555  5.54  0.  0.  0.
556  5.55  0.  0.  0.
557  5.56  0.  0.  0.
558  5.57  0.  0.  0.
559  5.58  0.  0.  0.
560  5.59  0.  0.  0.
561  5.60  0.  0.  0.
562  5.61  0.  0.  0.
563  5.62  0.  0.  0.
564  5.63  0.  0.  0.
565  5.64  0.  0.  0.
566  5.65  0.  0.  0.
567  5.66  0.  0.  0.
568  5.67  0.  0.  0.
569  5.68  0.  0.  0.
570  5.69  0.  0.  0.
571  5.70  0.  0.  0.
572  5.71  0.  0.  0.
573  5.72  0.  0.  0.
574  5.73  0.  0.  0.
575  5.74  0.  0.  0.
576  5.75  0.  0.  0.
577  5.76  0.  0.  0.
578  5.77  0.  0.  0.
579  5.78  0.  0.  0.
580  5.79  0.  0.  0.
581  5.80  0.  0.  0.
582  5.81  0.  0.  0.
583  5.82  0.  0.  0.
584  5.83  0.  0.  0.
585  5.84  0.  0.  0.
586  5.85  0.  0.  0.
587  5.86  0.  0.  0.
588  5.87  0.  0.  0.
589  5.88  0.  0.  0.
590  5.89  0.  0.  0.
591  5.90  0.  0.  0.
592  5.91  0.  0.  0.
593  5.92  0.  0.  0.
594  5.93  0.  0.  0.
595  5.94  0.  0.  0.
596  5.95  0.  0.  0.
597  5.96  0.  0.  0.
598  5.97  0.  0.  0.
599  5.98  0.  0.  0.
600  5.99  0.  0.  0.
1                        -1.1867939270953E+01 -2.2665444599280E+00 -7.2118431074092E-01
1  0.0000000000000E+00  4.2226818985913E-09  2.8629164983140E-08  4.5752020921830E-09
2  1.0000000000000E-02  3.0663292751972E-03  6.8979580643517E-03  2.1221607657220E-03
3  2.0000000000000E-02  1.2241863432327E-02  2.7486158383001E-02  8.4412128201130E-03
4  3.0000000000000E-02  2.7456457137232E-02  6.1448976822310E-02  1.8815489556906E-02
5  4.0000000000000E-02  4.8593918085821E-02  1.0826501812938E-01  3.3010962859267E-02
6  5.0000000000000E-02  7.5493073796737E-02  1.6721403659138E-01  5.0704375502771E-02
7  6.0000000000000E-02  1.0794924904163E-01  2.3738653086365E-01  7.1487640369884E-02
8  7.0000000000000E-02  1.4571613805151E-01  3.1769591775977E-01  9.4873515152997E-02
9  8.0000000000000E-02  1.8850805141489E-01  4.0689316116761E-01  1.2030255664791E-01
10  9.0000000000000E-02  2.3600251358931E-01  5.0358370282970E-01  1.4715134944640E-01
11  1.0000000000000E-01  2.8784318322792E-01  6.0624651161098E-01  1.7474198937839E-01
12  1.1000000000000E-01  3.4364306512270E-01  7.1325503732704E-01  2.0235278230007E-01
13  1.2000000000000E-01  4.0298797952506E-01  8.2289982462735E-01  2.2923009397948E-01
14  1.3000000000000E-01  4.6544025196147E-01  9.3341251237503E-01  2.5460125743580E-01
15  1.4000000000000E-01  5.3054258444972E-01  1.0429909151287E+00  2.7768841100906E-01
16  1.5000000000000E-01  5.9782206726807E-01  1.1498248565226E+00  2.9772310483455E-01
17  1.6000000000000E-01  6.6679428916022E-01  1.2521224004498E+00  3.1396147667656E-01
18  1.7000000000000E-01  7.3696750308947E-01  1.3481361059354E+00  3.2569976184492E-01
19  1.8000000000000E-01  8.0784680439929E-01  1.4361889163994E+00  3.3228986789582E-01
20  1.9000000000000E-01  8.7893827849865E-01  1.5146992845827E+00  3.3315471477950E-01
21  2.0000000000000E-01  9.4975307596789E-01  1.5822051316072E+00  3.2780301677914E-01
22  2.1000000000000E-01  1.0198113742657E+00  1.6373862431920E+00  3.1584316560971E-01
23  2.2000000000000E-01  1.0886461869946E+00  1.6790847185201E+00  2.9699586584258E-01
24  2.3000000000000E-01  1.1558069839263E+00  1.7063231080285E+00  2.7110517555146E-01
25  2.4000000000000E-01  1.2208630876730E+00  1.7183199056039E+00  2.3814761756778E-01
26  2.5000000000000E-01  1.2834068159744E+00  1.7145020981991E+00  1.9823905043785E-01
27  2.6000000000000E-01  1.3430563420131E+00  1.6945145213481E+00  1.5163902311906E-01
28  2.7000000000000E-01  1.3994582489247E+00  1.6582258217978E+00  9.8752383228451E-02
29  2.8000000000000E-01  1.4522897586744E+00  1.6057308875513E+00  4.0127964415806E-02
30  2.9000000000000E-01  1.5012606196749E+00  1.5373496698620E+00 -2.3545757099616E-02
31  3.0000000000000E-01  1.5461146418630E+00  1.4536223897214E+00 -9.1448075279053E-02
32  3.1000000000000E-01  1.5866308723555E+00  1.3553011915618E+00 -1.6263649819983E-01
33  3.2000000000000E-01  1.6226244092249E+00  1.2433383775196E+00 -2.3606010576238E-01
34  3.3000000000000E-01  1.6539468552881E+00  1.1188714248681E+00 -3.1057562415236E-01
35  3.4000000000000E-01  1.6804864180346E+00  9.8320505528014E-01 -3.8496594273063E-01
36  3.5000000000000E-01  1.7021676658684E+00  8.3779068562488E-01 -4.5796072659972E-01
37  3.6000000000000E-01  1.7189509546416E+00  6.8420364430979E-01 -5.2825871306734E-01
38  3.7000000000000E-01  1.7308315419713E+00  5.2411858320195E-01 -5.9455122492736E-01
39  3.8000000000000E-01  1.7378384099940E+00  3.5928355153583E-01 -6.5554638996837E-01
40  3.9000000000000E-01  1.7400328200024E+00  1.9149322385448E-01 -7.0999352610929E-01
41  4.0000000000000E-01  1.7375066247730E+00  2.2561788137764E-02 -7.5670713633772E-01
42  4.1000000000000E-01  1.7303803663243E+00 -1.4570399761475E-01 -7.9458995800230E-01
43  4.2000000000000E-01  1.7188011883134E+00 -3.1153108206708E-01 -8.2265452727900E-01
44  4.3000000000000E-01  1.7029405932843E+00 -4.7320525405791E-01 -8.4004275155596E-01
45  4.4000000000000E-01  1.6829920755188E+00 -6.2909468958452E-01 -8.4604302928646E-01
46  4.5000000000000E-01  1.6591686603243E+00 -7.7767151228457E-01 -8.4010451726000E-01
47  4.6000000000000E-01  1.6317003802364E+00 -9.1753101985488E-01 -8.2184821747197E-01
48  4.7000000000000E-01  1.6008317178443E+00 -1.0474082887642E+00 -7.9107463765600E-01
49  4.8000000000000E-01  1.5668190437905E+00 -1.1661919352825E+00 -7.4776786855489E-01
50  4.9000000000000E-01  1.5299280770013E+00 -1.2729348803409E+00 -6.9209601436564E-01
51  5.0000000000000E-01  1.4904313923977E+00 -1.3668620370343E+00 -6.2440800756121E-01
52  5.1000000000000E-01  1.4486059992802E+00 -1.4473749106224E+00 -5.4522693246759E-01
53  5.2000000000000E-01  1.4047310113131E+00 -1.5140531696510E+00 -4.5524007061081E-01
54  5.3000000000000E-01  1.3590854266055E+00 -1.5666533113826E+00 -3.5528596215117E-01
55  5.4000000000000E-01  1.3119460338616E+00 -1.6051046033368E+00 -2.4633884914719E-01
56  5.5000000000000E-01  1.2635854579768E+00 -1.6295025338554E+00 -1.2949092574747E-01
57  5.6000000000000E-01  1.2142703558671E+00 -1.6401000469703E+00 -5.9328659170639E-03
58  5.7000000000000E-01  1.1642597707559E+00 -1.6372968695129E+00  1.2306687031634E-01
59  5.8000000000000E-01  1.1138036506641E+00 -1.6216272607487E+00  2.5618343662029E-01
60  5.9000000000000E-01  1.0631415344857E+00 -1.5937465266147E+00  3.9205719223351E-01
61  6.0000000000000E-01  1.0125014068165E+00 -1.5544166419807E+00  5.2931498937845E-01
62  6.1000000000000E-01  9.6209872066119E-01 -1.5044913157254E+00  6.6659069173226E-01
63  6.2000000000000E-01  9.1213558530416E-01 -1.4449008156122E+00  8.0254450494572E-01
64  6.3000000000000E-01  8.6280011499192E-01 -1.3766368440567E+00  9.3588075714627E-01
65  6.4000000000000E-01  8.1426593266581E-01 -1.3007377232568E+00  1.0653638335056E+00
66  6.5000000000000E-01  7.6669182179276E-01 -1.2182741103438E+00  1.1898320417164E+00
67  6.6000000000000E-01  7.2022151837550E-01 -1.1303354219084E+00  1.3082092618210E+00
68  6.7000000000000E-01  6.7498363447185E-01 -1.0380171041972E+00  1.4195143113811E+00
69  6.8000000000000E-01  6.3109170400557E-01 -9.4240884225572E-01  1.5228680326024E+00
70  6.9000000000000E-01  5.8864434129440E-01 -8.4458375998483E-01  1.6174981789585E+00
71  7.0000000000000E-01  5.4772550253652E-01 -7.4558862508053E-01  1.7027422425756E+00
72  7.1000000000000E-01  5.0840484046616E-01 -6.4643503951098E-01  1.7780484179026E+00
73  7.2000000000000E-01  4.7073814249058E-01 -5.4809156871189E-01  1.8429749401976E+00
74  7.3000000000000E-01  4.3476784283345E-01 -4.5147674191243E-01  1.8971880677484E+00
75  7.4000000000000E-01  4.0052359951187E-01 -3.5745284249720E-01  1.9404589936873E+00
76  7.5000000000000E-01  3.6802292734520E-01 -2.6682040128361E-01  1.9726599764830E+00
77  7.6000000000000E-01  3.3727187861393E-01 -1.8031330693325E-01  1.9937599679700E+00
78  7.7000000000000E-01  3.0826576343800E-01 -9.8594455967413E-02  2.0038199949529E+00
79  7.8000000000000E-01  2.8098990241045E-01 -2.2251879260903E-02  2.0029885163332E+00
80  7.9000000000000E-01  2.5542040449097E-01  4.8204698598539E-02  1.9914969341795E+00
81  8.0000000000000E-01  2.3152496362262E-01  1.1234688735164E-01  1.9696553863843E+00
82  8.1000000000000E-01  2.0926366797684E-01  1.6983024105375E-01  1.9378488930360E+00
83  8.2000000000000E-01  1.8858981614914E-01  2.2039641802977E-01  1.8965338710899E+00
84  8.3000000000000E-01  1.6945073501855E-01  2.6387483313383E-01  1.8462349751503E+00
85  8.4000000000000E-01  1.5178859434463E-01  3.0018372140607E-01  1.7875421689453E+00
86  8.5000000000000E-01  1.3554121350903E-01  3.2933051294693E-01  1.7211078850570E+00
87  8.6000000000000E-01  1.2064285611404E-01  3.5141140490132E-01  1.6476440920381E+00
88  8.7000000000000E-01  1.0702500843308E-01  3.6661000901662E-01  1.5679190602758E+00
89  8.8000000000000E-01  9.4617137969902E-02  3.7519495319816E-01  1.4827536024711E+00
90  8.9000000000000E-01  8.3347428630435E-02  3.7751632340668E-01  1.3930165624954E+00
91  9.0000000000000E-01  7.3143489246342E-02  3.7400084835433E-01  1.2996193382352E+00
92  9.1000000000000E-01  6.3933032417929E-02  3.6514575362349E-01  1.2035092497806E+00
93  9.2000000000000E-01  5.5644520869294E-02  3.5151124355823E-01  1.1056616033451E+00
94  9.3000000000000E-01  4.8207778733402E-02  3.3371160770204E-01  1.0070703523717E+00
95  9.4000000000000E-01  4.1554565411643E-02  3.1240499249427E-01  9.0873731864330E-01
96  9.5000000000000E-01  3.5619109882340E-02  2.8828192691351E-01  8.1166000560800E-01
97  9.6000000000000E-01  3.0338603566149E-02  2.6205274105934E-01  7.1681811091432E-01
98  9.7000000000000E-01  2.5653650092522E-02  2.3443406739200E-01  6.2515892235824E-01
99  9.8000000000000E-01  2.1508670549196E-02  2.0613466354299E-01  5.3758185797804E-01
100  9.9000000000000E-01  1.7852263033626E-02  1.7784084121333E-01  4.5492248364192E-01
101  1.0000000000000E+00  1.4637515559035E-02  1.5020182575485E-01  3.7793640705344E-01
102  1.0100000000000E+00  1.1822271594949E-02  1.2381540374656E-01  3.0728350269338E-01