Hs    ONCVPSP-4.0.1  r_core=   1.10501   1.10501   1.10501   1.20154
108.0000     48.0000      231012    zatom,zion,pspd
8 -116133   3     4   600     0    pspcod,pspxc,lmax,lloc,mmax,r2well
5.99000000  3.50000000  0.00000000    rchrg fchrg qchrg
3     2     2     2     0    nproj
1     1           extension_switch
0                        -1.3180133922369E+01  1.0882510366378E+01 -2.9560565010134E-01
1  0.0000000000000E+00 -3.1541391720680E-10  1.6547445857995E-08 -4.5330798448262E-08
2  1.0000000000000E-02  7.1824510217162E-02  1.8127738797673E-01 -2.5300135256474E-02
3  2.0000000000000E-02  1.4350974588068E-01  3.6083186661062E-01 -5.0167580996146E-02
4  3.0000000000000E-02  2.1491661783500E-01  5.3695776848437E-01 -7.4180506625407E-02
5  4.0000000000000E-02  2.8590640817258E-01  7.0798380638808E-01 -9.6938721380968E-02
6  5.0000000000000E-02  3.5634095708445E-01  8.7228999911292E-01 -1.1807428450667E-01
7  6.0000000000000E-02  4.2608285144623E-01  1.0283242659512E+00 -1.3726182399021E-01
8  7.0000000000000E-02  4.9499561613603E-01  1.1746185572331E+00 -1.5422840456804E-01
9  8.0000000000000E-02  5.6294390939550E-01  1.3098043716831E+00 -1.6876274037556E-01
10  9.0000000000000E-02  6.2979372388980E-01  1.4326274936617E+00 -1.8072350025539E-01
11  1.0000000000000E-01  6.9541259546427E-01  1.5419617661902E+00 -1.9004640960208E-01
12  1.1000000000000E-01  7.5966982190613E-01  1.6368217008504E+00 -1.9674981718350E-01
13  1.2000000000000E-01  8.2243669426477E-01  1.7163737150132E+00 -2.0093837390470E-01
14  1.3000000000000E-01  8.8358674343508E-01  1.7799457820658E+00 -2.0280446767365E-01
15  1.4000000000000E-01  9.4299600473767E-01  1.8270352828218E+00 -2.0262707815313E-01
16  1.5000000000000E-01  1.0005433031151E+00  1.8573148572390E+00 -2.0076775976358E-01
17  1.6000000000000E-01  1.0561105612904E+00  1.8706360756458E+00 -1.9766353186981E-01
18  1.7000000000000E-01  1.1095831327925E+00  1.8670307781346E+00 -1.9381655099732E-01
19  1.8000000000000E-01  1.1608501611484E+00  1.8467099693499E+00 -1.8978055883001E-01
20  1.9000000000000E-01  1.2098049657725E+00  1.8100602027978E+00 -1.8614423755369E-01
21  2.0000000000000E-01  1.2563454541835E+00  1.7576374427520E+00 -1.8351175519608E-01
22  2.1000000000000E-01  1.3003745591540E+00  1.6901584510839E+00 -1.8248094097516E-01
23  2.2000000000000E-01  1.3418006982996E+00  1.6084898087780E+00 -1.8361968629053E-01
24  2.3000000000000E-01  1.3805382524675E+00  1.5136347450927E+00 -1.8744131223367E-01
25  2.4000000000000E-01  1.4165080581411E+00  1.4067180086818E+00 -1.9437977051446E-01
26  2.5000000000000E-01  1.4496379079782E+00  1.2889690718508E+00 -2.0476564298652E-01
27  2.6000000000000E-01  1.4798630525933E+00  1.1617040088855E+00 -2.1880396775430E-01
28  2.7000000000000E-01  1.5071266958278E+00  1.0263064296806E+00 -2.3655494069143E-01
29  2.8000000000000E-01  1.5313804750584E+00  8.8420787863432E-01 -2.5791851531674E-01
30  2.9000000000000E-01  1.5525849176196E+00  7.3686812435337E-01 -2.8262384861283E-01
31  3.0000000000000E-01  1.5707098641804E+00  5.8575576702069E-01 -3.1022441514738E-01
32  3.1000000000000E-01  1.5857348499455E+00  4.3232957683243E-01 -3.4009943881805E-01
33  3.2000000000000E-01  1.5976494348487E+00  2.7802094885565E-01 -3.7146207530683E-01
34  3.3000000000000E-01  1.6064534744839E+00  1.2421781780012E-01 -4.0337452591685E-01
35  3.4000000000000E-01  1.6121573243479E+00 -2.7749678019813E-02 -4.3476998415211E-01
36  3.5000000000000E-01  1.6147819710469E+00 -1.7662155880366E-01 -4.6448102133260E-01
37  3.6000000000000E-01  1.6143590854001E+00 -3.2121823907411E-01 -4.9127371930603E-01
38  3.7000000000000E-01  1.6109309938261E+00 -4.6044856197308E-01 -5.1388657045328E-01
39  3.8000000000000E-01  1.6045505659749E+00 -5.9331563566227E-01 -5.3107290146201E-01
40  3.9000000000000E-01  1.5952810182127E+00 -7.1892055254163E-01 -5.4164535127016E-01
41  4.0000000000000E-01  1.5831956342337E+00 -8.3646414404526E-01 -5.4452075758047E-01
42  4.1000000000000E-01  1.5683774056951E+00 -9.4524698760038E-01 -5.3876369127878E-01
43  4.2000000000000E-01  1.5509185973038E+00 -1.0446679351095E+00 -5.2362683251317E-01
44  4.3000000000000E-01  1.5309202421706E+00 -1.1342214716552E+00 -4.9858641198491E-01
45  4.4000000000000E-01  1.5084915744454E+00 -1.2134942372374E+00 -4.6337104886632E-01
46  4.5000000000000E-01  1.4837494072192E+00 -1.2821610520978E+00 -4.1798250202677E-01
47  4.6000000000000E-01  1.4568174643938E+00 -1.3399807771982E+00 -3.6270710968023E-01
48  4.7000000000000E-01  1.4278256756634E+00 -1.3867923160572E+00 -2.9811701649450E-01
49  4.8000000000000E-01  1.3969094439157E+00 -1.4225110235880E+00 -2.2506066560756E-01
50  4.9000000000000E-01  1.3642088942431E+00 -1.4471257336851E+00 -1.4464245199146E-01
51  5.0000000000000E-01  1.3298681133788E+00 -1.4606965526210E+00 -5.8191876830500E-02
52  5.1000000000000E-01  1.2940343877582E+00 -1.4633534929225E+00  3.2777008078623E-02
53  5.2000000000000E-01  1.2568574475869E+00 -1.4552959458055E+00  1.2661464061530E-01
54  5.3000000000000E-01  1.2184887233198E+00 -1.4367929132221E+00  2.2159184421888E-01
55  5.4000000000000E-01  1.1790806198592E+00 -1.4081838469908E+00  3.1596059773480E-01
56  5.5000000000000E-01  1.1387858126262E+00 -1.3698798761007E+00  4.0801741363904E-01
57  5.6000000000000E-01  1.0977565684924E+00 -1.3223651476469E+00  4.9616685872352E-01
58  5.7000000000000E-01  1.0561440934319E+00 -1.2661979650381E+00  5.7898264659403E-01
59  5.8000000000000E-01  1.0140979077215E+00 -1.2020113816421E+00  6.5526373052354E-01
60  5.9000000000000E-01  9.7176524861402E-01 -1.1305129006937E+00  7.2408293244574E-01
61  6.0000000000000E-01  9.2929049967976E-01 -1.0524829440632E+00  7.8482585880816E-01
62  6.1000000000000E-01  8.8681464547902E-01 -9.6877178349534E-01  8.3721817161136E-01
63  6.2000000000000E-01  8.4447474991463E-01 -8.8029467737167E-01  8.8133969363754E-01
64  6.3000000000000E-01  8.0240345652261E-01 -7.8802502224923E-01  9.1762431666302E-01
65  6.4000000000000E-01  7.6072850909219E-01 -6.9298540886900E-01  9.4684523254388E-01
66  6.5000000000000E-01  7.1957229134760E-01 -5.9623656374383E-01  9.7008559836781E-01
67  6.6000000000000E-01  6.7905138495142E-01 -4.9886425596091E-01  9.8869535485812E-01
68  6.7000000000000E-01  6.3927614576995E-01 -4.0196435014436E-01  1.0042355168671E+00
69  6.8000000000000E-01  6.0035029913661E-01 -3.0662628602113E-01  1.0184118205318E+00
70  6.9000000000000E-01  5.6237055571441E-01 -2.1391535805875E-01  1.0330001185310E+00
71  7.0000000000000E-01  5.2542625044454E-01 -1.2485425067335E-01  1.0497663395828E+00
72  7.1000000000000E-01  4.8959900792596E-01 -4.0404351357874E-02  1.0703841502175E+00
73  7.2000000000000E-01  4.5496243835086E-01  3.8552587874525E-02  1.0963536590663E+00
74  7.3000000000000E-01  4.2158186877821E-01  1.1123184402050E-01  1.1289245739485E+00
75  7.4000000000000E-01  3.8951411502064E-01  1.7696157232976E-01  1.1690271527080E+00
76  7.5000000000000E-01  3.5880729971545E-01  2.3519653428695E-01  1.2172140783747E+00
77  7.6000000000000E-01  3.2950072222361E-01  2.8552917447492E-01  1.2736160421101E+00
78  7.7000000000000E-01  3.0162478583442E-01  3.2769758732073E-01  1.3379133436886E+00
79  7.8000000000000E-01  2.7520098734424E-01  3.6159000717880E-01  1.4093252346678E+00
80  7.9000000000000E-01  2.5024197342863E-01  3.8724556607345E-01  1.4866180549090E+00
81  8.0000000000000E-01  2.2675166735618E-01  4.0485118865675E-01  1.5681324739730E+00
82  8.1000000000000E-01  2.0472546852205E-01  4.1473462872932E-01  1.6518293739343E+00
83  8.2000000000000E-01  1.8415052604565E-01  4.1735379066916E-01  1.7353531304845E+00
84  8.3000000000000E-01  1.6500608632007E-01  4.1328261661765E-01  1.8161102971191E+00
85  8.4000000000000E-01  1.4726391296699E-01  4.0319395050333E-01  1.8913610047790E+00
86  8.5000000000000E-01  1.3088877619050E-01  3.8783990728636E-01  1.9583197871611E+00
87  8.6000000000000E-01  1.1583900708706E-01  3.6803037494463E-01  2.0142620576763E+00
88  8.7000000000000E-01  1.0206711110696E-01  3.4461035307439E-01  2.0566321213671E+00
89  8.8000000000000E-01  8.9520433622335E-02  3.1843688177447E-01  2.0831484224326E+00
90  8.9000000000000E-01  7.8141869480310E-02  2.9035633497682E-01  2.0919017177165E+00
91  9.0000000000000E-01  6.7870607542449E-02  2.6118284200084E-01  2.0814420341772E+00
92  9.1000000000000E-01  5.8642900560272E-02  2.3167855952686E-01  2.0508506124520E+00
93  9.2000000000000E-01  5.0392850330025E-02  2.0253644438872E-01  1.9997935503057E+00
94  9.3000000000000E-01  4.3053197915449E-02  1.7436607785538E-01  1.9285545230990E+00
95  9.4000000000000E-01  3.6556108823889E-02  1.4768296789746E-01  1.8380447509108E+00
96  9.5000000000000E-01  3.0833943356834E-02  1.2290161190301E-01  1.7297892752659E+00
97  9.6000000000000E-01  2.5820002910842E-02  1.0033244392175E-01  1.6058895694676E+00
98  9.7000000000000E-01  2.1449243749942E-02  8.0182624034506E-02  1.4689634983997E+00
99  9.8000000000000E-01  1.7658950672220E-02  6.2560459421799E-02  1.3220646282395E+00
100  9.9000000000000E-01  1.4389364011277E-02  4.7483084124549E-02  1.1685838237196E+00
101  1.0000000000000E+00  1.1584254506169E-02  3.4886873978028E-02  1.0121369227913E+00
102  1.0100000000000E+00  9.1914416979610E-03  2.4639941151949E-02  8.5644300990410E-01
103  1.0200000000000E+00  7.1632526269808E-03  1.6555944708533E-02  7.0519838875206E-01
104  1.0300000000000E+00  5.4569203526998E-03  1.0408371597584E-02  5.6195176156553E-01
105  1.0400000000000E+00  4.0349046535574E-03  5.9444231298379E-03  4.2998628208708E-01
106  1.0500000000000E+00  2.8651029946420E-03  2.8975633675702E-03  3.1221431908136E-01
107  1.0600000000000E+00  1.9136889152853E-03  1.0150050571060E-03  2.1105751853343E-01
108  1.0700000000000E+00  1.1590222442476E-03  5.0514749405273E-05  1.2839980878073E-01
109  1.0800000000000E+00  5.9411230149167E-04 -2.6371200422318E-04  6.5624626947799E-02
110  1.0900000000000E+00  2.1576448896465E-04 -2.0052562679400E-04  2.3593372618320E-02
111  1.1000000000000E+00  2.5348525471944E-05 -3.5877424348038E-05  2.7242671772667E-03
112  1.1100000000000E+00 -1.1019919999790E-06  1.9360288285070E-06 -1.1715436790391E-04
113  1.1200000000000E+00 -8.5264231421782E-08  1.1504546695375E-07 -9.2126953227734E-06
114  1.13 -0. -0.  0.
115  1.14  0.  0.  0.
116  1.15  0.  0.  0.
117  1.16  0.  0.  0.
118  1.17  0.  0.  0.
119  1.18  0.  0.  0.
120  1.19  0.  0.  0.
121  1.20  0.  0.  0.
122  1.21  0.  0.  0.
123  1.22  0.  0.  0.
124  1.23  0.  0.  0.
125  1.24  0.  0.  0.
126  1.25  0.  0.  0.
127  1.26  0.  0.  0.
128  1.27  0.  0.  0.
129  1.28  0.  0.  0.
130  1.29  0.  0.  0.
131  1.30  0.  0.  0.
132  1.31  0.  0.  0.
133  1.32  0.  0.  0.
134  1.33  0.  0.  0.
135  1.34  0.  0.  0.
136  1.35  0.  0.  0.
137  1.36  0.  0.  0.
138  1.37  0.  0.  0.
139  1.38  0.  0.  0.
140  1.39  0.  0.  0.
141  1.40  0.  0.  0.
142  1.41  0.  0.  0.
143  1.42  0.  0.  0.
144  1.43  0.  0.  0.
145  1.44  0.  0.  0.
146  1.45  0.  0.  0.
147  1.46  0.  0.  0.
148  1.47  0.  0.  0.
149  1.48  0.  0.  0.
150  1.49  0.  0.  0.
151  1.50  0.  0.  0.
152  1.51  0.  0.  0.
153  1.52  0.  0.  0.
154  1.53  0.  0.  0.
155  1.54  0.  0.  0.
156  1.55  0.  0.  0.
157  1.56  0.  0.  0.
158  1.57  0.  0.  0.
159  1.58  0.  0.  0.
160  1.59  0.  0.  0.
161  1.60  0.  0.  0.
162  1.61  0.  0.  0.
163  1.62  0.  0.  0.
164  1.63  0.  0.  0.
165  1.64  0.  0.  0.
166  1.65  0.  0.  0.
167  1.66  0.  0.  0.
168  1.67  0.  0.  0.
169  1.68  0.  0.  0.
170  1.69  0.  0.  0.
171  1.70  0.  0.  0.
172  1.71  0.  0.  0.
173  1.72  0.  0.  0.
174  1.73  0.  0.  0.
175  1.74  0.  0.  0.
176  1.75  0.  0.  0.
177  1.76  0.  0.  0.
178  1.77  0.  0.  0.
179  1.78  0.  0.  0.
180  1.79  0.  0.  0.
181  1.80  0.  0.  0.
182  1.81  0.  0.  0.
183  1.82  0.  0.  0.
184  1.83  0.  0.  0.
185  1.84  0.  0.  0.
186  1.85  0.  0.  0.
187  1.86  0.  0.  0.
188  1.87  0.  0.  0.
189  1.88  0.  0.  0.
190  1.89  0.  0.  0.
191  1.90  0.  0.  0.
192  1.91  0.  0.  0.
193  1.92  0.  0.  0.
194  1.93  0.  0.  0.
195  1.94  0.  0.  0.
196  1.95  0.  0.  0.
197  1.96  0.  0.  0.
198  1.97  0.  0.  0.
199  1.98  0.  0.  0.
200  1.99  0.  0.  0.
201  2.00  0.  0.  0.
202  2.01  0.  0.  0.
203  2.02  0.  0.  0.
204  2.03  0.  0.  0.
205  2.04  0.  0.  0.
206  2.05  0.  0.  0.
207  2.06  0.  0.  0.
208  2.07  0.  0.  0.
209  2.08  0.  0.  0.
210  2.09  0.  0.  0.
211  2.10  0.  0.  0.
212  2.11  0.  0.  0.
213  2.12  0.  0.  0.
214  2.13  0.  0.  0.
215  2.14  0.  0.  0.
216  2.15  0.  0.  0.
217  2.16  0.  0.  0.
218  2.17  0.  0.  0.
219  2.18  0.  0.  0.
220  2.19  0.  0.  0.
221  2.20  0.  0.  0.
222  2.21  0.  0.  0.
223  2.22  0.  0.  0.
224  2.23  0.  0.  0.
225  2.24  0.  0.  0.
226  2.25  0.  0.  0.
227  2.26  0.  0.  0.
228  2.27  0.  0.  0.
229  2.28  0.  0.  0.
230  2.29  0.  0.  0.
231  2.30  0.  0.  0.
232  2.31  0.  0.  0.
233  2.32  0.  0.  0.
234  2.33  0.  0.  0.
235  2.34  0.  0.  0.
236  2.35  0.  0.  0.
237  2.36  0.  0.  0.
238  2.37  0.  0.  0.
239  2.38  0.  0.  0.
240  2.39  0.  0.  0.
241  2.40  0.  0.  0.
242  2.41  0.  0.  0.
243  2.42  0.  0.  0.
244  2.43  0.  0.  0.
245  2.44  0.  0.  0.
246  2.45  0.  0.  0.
247  2.46  0.  0.  0.
248  2.47  0.  0.  0.
249  2.48  0.  0.  0.
250  2.49  0.  0.  0.
251  2.50  0.  0.  0.
252  2.51  0.  0.  0.
253  2.52  0.  0.  0.
254  2.53  0.  0.  0.
255  2.54  0.  0.  0.
256  2.55  0.  0.  0.
257  2.56  0.  0.  0.
258  2.57  0.  0.  0.
259  2.58  0.  0.  0.
260  2.59  0.  0.  0.
261  2.60  0.  0.  0.
262  2.61  0.  0.  0.
263  2.62  0.  0.  0.
264  2.63  0.  0.  0.
265  2.64  0.  0.  0.
266  2.65  0.  0.  0.
267  2.66  0.  0.  0.
268  2.67  0.  0.  0.
269  2.68  0.  0.  0.
270  2.69  0.  0.  0.
271  2.70  0.  0.  0.
272  2.71  0.  0.  0.
273  2.72  0.  0.  0.
274  2.73  0.  0.  0.
275  2.74  0.  0.  0.
276  2.75  0.  0.  0.
277  2.76  0.  0.  0.
278  2.77  0.  0.  0.
279  2.78  0.  0.  0.
280  2.79  0.  0.  0.
281  2.80  0.  0.  0.
282  2.81  0.  0.  0.
283  2.82  0.  0.  0.
284  2.83  0.  0.  0.
285  2.84  0.  0.  0.
286  2.85  0.  0.  0.
287  2.86  0.  0.  0.
288  2.87  0.  0.  0.
289  2.88  0.  0.  0.
290  2.89  0.  0.  0.
291  2.90  0.  0.  0.
292  2.91  0.  0.  0.
293  2.92  0.  0.  0.
294  2.93  0.  0.  0.
295  2.94  0.  0.  0.
296  2.95  0.  0.  0.
297  2.96  0.  0.  0.
298  2.97  0.  0.  0.
299  2.98  0.  0.  0.
300  2.99  0.  0.  0.
301  3.00  0.  0.  0.
302  3.01  0.  0.  0.
303  3.02  0.  0.  0.
304  3.03  0.  0.  0.
305  3.04  0.  0.  0.
306  3.05  0.  0.  0.
307  3.06  0.  0.  0.
308  3.07  0.  0.  0.
309  3.08  0.  0.  0.
310  3.09  0.  0.  0.
311  3.10  0.  0.  0.
312  3.11  0.  0.  0.
313  3.12  0.  0.  0.
314  3.13  0.  0.  0.
315  3.14  0.  0.  0.
316  3.15  0.  0.  0.
317  3.16  0.  0.  0.
318  3.17  0.  0.  0.
319  3.18  0.  0.  0.
320  3.19  0.  0.  0.
321  3.20  0.  0.  0.
322  3.21  0.  0.  0.
323  3.22  0.  0.  0.
324  3.23  0.  0.  0.
325  3.24  0.  0.  0.
326  3.25  0.  0.  0.
327  3.26  0.  0.  0.
328  3.27  0.  0.  0.
329  3.28  0.  0.  0.
330  3.29  0.  0.  0.
331  3.30  0.  0.  0.
332  3.31  0.  0.  0.
333  3.32  0.  0.  0.
334  3.33  0.  0.  0.
335  3.34  0.  0.  0.
336  3.35  0.  0.  0.
337  3.36  0.  0.  0.
338  3.37  0.  0.  0.
339  3.38  0.  0.  0.
340  3.39  0.  0.  0.
341  3.40  0.  0.  0.
342  3.41  0.  0.  0.
343  3.42  0.  0.  0.
344  3.43  0.  0.  0.
345  3.44  0.  0.  0.
346  3.45  0.  0.  0.
347  3.46  0.  0.  0.
348  3.47  0.  0.  0.
349  3.48  0.  0.  0.
350  3.49  0.  0.  0.
351  3.50  0.  0.  0.
352  3.51  0.  0.  0.
353  3.52  0.  0.  0.
354  3.53  0.  0.  0.
355  3.54  0.  0.  0.
356  3.55  0.  0.  0.
357  3.56  0.  0.  0.
358  3.57  0.  0.  0.
359  3.58  0.  0.  0.
360  3.59  0.  0.  0.
361  3.60  0.  0.  0.
362  3.61  0.  0.  0.
363  3.62  0.  0.  0.
364  3.63  0.  0.  0.
365  3.64  0.  0.  0.
366  3.65  0.  0.  0.
367  3.66  0.  0.  0.
368  3.67  0.  0.  0.
369  3.68  0.  0.  0.
370  3.69  0.  0.  0.
371  3.70  0.  0.  0.
372  3.71  0.  0.  0.
373  3.72  0.  0.  0.
374  3.73  0.  0.  0.
375  3.74  0.  0.  0.
376  3.75  0.  0.  0.
377  3.76  0.  0.  0.
378  3.77  0.  0.  0.
379  3.78  0.  0.  0.
380  3.79  0.  0.  0.
381  3.80  0.  0.  0.
382  3.81  0.  0.  0.
383  3.82  0.  0.  0.
384  3.83  0.  0.  0.
385  3.84  0.  0.  0.
386  3.85  0.  0.  0.
387  3.86  0.  0.  0.
388  3.87  0.  0.  0.
389  3.88  0.  0.  0.
390  3.89  0.  0.  0.
391  3.90  0.  0.  0.
392  3.91  0.  0.  0.
393  3.92  0.  0.  0.
394  3.93  0.  0.  0.
395  3.94  0.  0.  0.
396  3.95  0.  0.  0.
397  3.96  0.  0.  0.
398  3.97  0.  0.  0.
399  3.98  0.  0.  0.
400  3.99  0.  0.  0.
401  4.00  0.  0.  0.
402  4.01  0.  0.  0.
403  4.02  0.  0.  0.
404  4.03  0.  0.  0.
405  4.04  0.  0.  0.
406  4.05  0.  0.  0.
407  4.06  0.  0.  0.
408  4.07  0.  0.  0.
409  4.08  0.  0.  0.
410  4.09  0.  0.  0.
411  4.10  0.  0.  0.
412  4.11  0.  0.  0.
413  4.12  0.  0.  0.
414  4.13  0.  0.  0.
415  4.14  0.  0.  0.
416  4.15  0.  0.  0.
417  4.16  0.  0.  0.
418  4.17  0.  0.  0.
419  4.18  0.  0.  0.
420  4.19  0.  0.  0.
421  4.20  0.  0.  0.
422  4.21  0.  0.  0.
423  4.22  0.  0.  0.
424  4.23  0.  0.  0.
425  4.24  0.  0.  0.
426  4.25  0.  0.  0.
427  4.26  0.  0.  0.
428  4.27  0.  0.  0.
429  4.28  0.  0.  0.
430  4.29  0.  0.  0.
431  4.30  0.  0.  0.
432  4.31  0.  0.  0.
433  4.32  0.  0.  0.
434  4.33  0.  0.  0.
435  4.34  0.  0.  0.
436  4.35  0.  0.  0.
437  4.36  0.  0.  0.
438  4.37  0.  0.  0.
439  4.38  0.  0.  0.
440  4.39  0.  0.  0.
441  4.40  0.  0.  0.
442  4.41  0.  0.  0.
443  4.42  0.  0.  0.
444  4.43  0.  0.  0.
445  4.44  0.  0.  0.
446  4.45  0.  0.  0.
447  4.46  0.  0.  0.
448  4.47  0.  0.  0.
449  4.48  0.  0.  0.
450  4.49  0.  0.  0.
451  4.50  0.  0.  0.
452  4.51  0.  0.  0.
453  4.52  0.  0.  0.
454  4.53  0.  0.  0.
455  4.54  0.  0.  0.
456  4.55  0.  0.  0.
457  4.56  0.  0.  0.
458  4.57  0.  0.  0.
459  4.58  0.  0.  0.
460  4.59  0.  0.  0.
461  4.60  0.  0.  0.
462  4.61  0.  0.  0.
463  4.62  0.  0.  0.
464  4.63  0.  0.  0.
465  4.64  0.  0.  0.
466  4.65  0.  0.  0.
467  4.66  0.  0.  0.
468  4.67  0.  0.  0.
469  4.68  0.  0.  0.
470  4.69  0.  0.  0.
471  4.70  0.  0.  0.
472  4.71  0.  0.  0.
473  4.72  0.  0.  0.
474  4.73  0.  0.  0.
475  4.74  0.  0.  0.
476  4.75  0.  0.  0.
477  4.76  0.  0.  0.
478  4.77  0.  0.  0.
479  4.78  0.  0.  0.
480  4.79  0.  0.  0.
481  4.80  0.  0.  0.
482  4.81  0.  0.  0.
483  4.82  0.  0.  0.
484  4.83  0.  0.  0.
485  4.84  0.  0.  0.
486  4.85  0.  0.  0.
487  4.86  0.  0.  0.
488  4.87  0.  0.  0.
489  4.88  0.  0.  0.
490  4.89  0.  0.  0.
491  4.90  0.  0.  0.
492  4.91  0.  0.  0.
493  4.92  0.  0.  0.
494  4.93  0.  0.  0.
495  4.94  0.  0.  0.
496  4.95  0.  0.  0.
497  4.96  0.  0.  0.
498  4.97  0.  0.  0.
499  4.98  0.  0.  0.
500  4.99  0.  0.  0.
501  5.00  0.  0.  0.
502  5.01  0.  0.  0.
503  5.02  0.  0.  0.
504  5.03  0.  0.  0.
505  5.04  0.  0.  0.
506  5.05  0.  0.  0.
507  5.06  0.  0.  0.
508  5.07  0.  0.  0.
509  5.08  0.  0.  0.
510  5.09  0.  0.  0.
511  5.10  0.  0.  0.
512  5.11  0.  0.  0.
513  5.12  0.  0.  0.
514  5.13  0.  0.  0.
515  5.14  0.  0.  0.
516  5.15  0.  0.  0.
517  5.16  0.  0.  0.
518  5.17  0.  0.  0.
519  5.18  0.  0.  0.
520  5.19  0.  0.  0.
521  5.20  0.  0.  0.
522  5.21  0.  0.  0.
523  5.22  0.  0.  0.
524  5.23  0.  0.  0.
525  5.24  0.  0.  0.
526  5.25  0.  0.  0.
527  5.26  0.  0.  0.
528  5.27  0.  0.  0.
529  5.28  0.  0.  0.
530  5.29  0.  0.  0.
531  5.30  0.  0.  0.
532  5.31  0.  0.  0.
533  5.32  0.  0.  0.
534  5.33  0.  0.  0.
535  5.34  0.  0.  0.
536  5.35  0.  0.  0.
537  5.36  0.  0.  0.
538  5.37  0.  0.  0.
539  5.38  0.  0.  0.
540  5.39  0.  0.  0.
541  5.40  0.  0.  0.
542  5.41  0.  0.  0.
543  5.42  0.  0.  0.
544  5.43  0.  0.  0.
545  5.44  0.  0.  0.
546  5.45  0.  0.  0.
547  5.46  0.  0.  0.
548  5.47  0.  0.  0.
549  5.48  0.  0.  0.
550  5.49  0.  0.  0.
551  5.50  0.  0.  0.
552  5.51  0.  0.  0.
553  5.52  0.  0.  0.
554  5.53  0.  0.  0.
555  5.54  0.  0.  0.
556  5.55  0.  0.  0.
557  5.56  0.  0.  0.
558  5.57  0.  0.  0.
559  5.58  0.  0.  0.
560  5.59  0.  0.  0.
561  5.60  0.  0.  0.
562  5.61  0.  0.  0.
563  5.62  0.  0.  0.
564  5.63  0.  0.  0.
565  5.64  0.  0.  0.
566  5.65  0.  0.  0.
567  5.66  0.  0.  0.
568  5.67  0.  0.  0.
569  5.68  0.  0.  0.
570  5.69  0.  0.  0.
571  5.70  0.  0.  0.
572  5.71  0.  0.  0.
573  5.72  0.  0.  0.
574  5.73  0.  0.  0.
575  5.74  0.  0.  0.
576  5.75  0.  0.  0.
577  5.76  0.  0.  0.
578  5.77  0.  0.  0.
579  5.78  0.  0.  0.
580  5.79  0.  0.  0.
581  5.80  0.  0.  0.
582  5.81  0.  0.  0.
583  5.82  0.  0.  0.
584  5.83  0.  0.  0.
585  5.84  0.  0.  0.
586  5.85  0.  0.  0.
587  5.86  0.  0.  0.
588  5.87  0.  0.  0.
589  5.88  0.  0.  0.
590  5.89  0.  0.  0.
591  5.90  0.  0.  0.
592  5.91  0.  0.  0.
593  5.92  0.  0.  0.
594  5.93  0.  0.  0.
595  5.94  0.  0.  0.
596  5.95  0.  0.  0.
597  5.96  0.  0.  0.
598  5.97  0.  0.  0.
599  5.98  0.  0.  0.
600  5.99  0.  0.  0.
1                        -1.1148893683481E+01 -7.0150082640925E-01
1  0.0000000000000E+00  2.5570208450620E-09  1.1107783109976E-08
2  1.0000000000000E-02  2.6503140469651E-03  3.5830412401379E-03
3  2.0000000000000E-02  1.0583889255154E-02  1.4262936738038E-02
4  3.0000000000000E-02  2.3748761452047E-02  3.1832917437307E-02
5  4.0000000000000E-02  4.2058777597407E-02  5.5951419421920E-02
6  5.0000000000000E-02  6.5394271417165E-02  8.6146657042411E-02
7  6.0000000000000E-02  9.3602998921882E-02  1.2182301576646E-01
8  7.0000000000000E-02  1.2650132368260E-01  1.6226925012894E-01
9  8.0000000000000E-02  1.6387563917994E-01  2.0666846104887E-01
10  9.0000000000000E-02  2.0548401322259E-01  2.5410981107368E-01
11  1.0000000000000E-01  2.5105803738600E-01  3.0360191541642E-01
12  1.1000000000000E-01  3.0030486267797E-01  3.5408782090622E-01
13  1.2000000000000E-01  3.5290940121597E-01  4.0446145446388E-01
14  1.3000000000000E-01  4.0853667260788E-01  4.5358538808344E-01
15  1.4000000000000E-01  4.6683427296566E-01  5.0030972951834E-01
16  1.5000000000000E-01  5.2743494403869E-01  5.4349190821613E-01
17  1.6000000000000E-01  5.8995921981382E-01  5.8201708604712E-01
18  1.7000000000000E-01  6.5401812806628E-01  6.1481888375349E-01
19  1.8000000000000E-01  7.1921592472936E-01  6.4090007864608E-01
20  1.9000000000000E-01  7.8515283954490E-01  6.5935289877360E-01
21  2.0000000000000E-01  8.5142781222396E-01  6.6937851541144E-01
22  2.1000000000000E-01  9.1764119924732E-01  6.7030532095459E-01
23  2.2000000000000E-01  9.8339743243193E-01  6.6160557462340E-01
24  2.3000000000000E-01  1.0483076114442E+00  6.4291000497291E-01
25  2.4000000000000E-01  1.1119920135244E+00  6.1401997684641E-01
26  2.5000000000000E-01  1.1740825047701E+00  5.7491686151965E-01
27  2.6000000000000E-01  1.2342248383892E+00  5.2576829228016E-01
28  2.7000000000000E-01  1.2920808263628E+00  4.6693104303508E-01
29  2.8000000000000E-01  1.3473303719481E+00  3.9895033372468E-01
30  2.9000000000000E-01  1.3996733513960E+00  3.2255544186741E-01
31  3.0000000000000E-01  1.4488313341750E+00  2.3865158258480E-01
32  3.1000000000000E-01  1.4945491318830E+00  1.4830810770164E-01
33  3.2000000000000E-01  1.5365961669183E+00  5.2743165449970E-02
34  3.3000000000000E-01  1.5747676528868E+00 -4.6694946819287E-02
35  3.4000000000000E-01  1.6088855796671E+00 -1.4854941654110E-01
36  3.5000000000000E-01  1.6387994970697E+00 -2.5127913386962E-01
37  3.6000000000000E-01  1.6643870921201E+00 -3.5328501734946E-01
38  3.7000000000000E-01  1.6855545562039E+00 -4.5293790839103E-01
39  3.8000000000000E-01  1.7022367396389E+00 -5.4860744627829E-01
40  3.9000000000000E-01  1.7143970927004E+00 -6.3869130125950E-01
41  4.0000000000000E-01  1.7220273937235E+00 -7.2164412564635E-01
42  4.1000000000000E-01  1.7251472666380E+00 -7.9600558263760E-01
43  4.2000000000000E-01  1.7238034921428E+00 -8.6042683009371E-01
44  4.3000000000000E-01  1.7180691186777E+00 -9.1369487143101E-01
45  4.4000000000000E-01  1.7080423813774E+00 -9.5475423731466E-01
46  4.5000000000000E-01  1.6938454392554E+00 -9.8272552847631E-01
47  4.6000000000000E-01  1.6756229429236E+00 -9.9692042982276E-01
48  4.7000000000000E-01  1.6535404471634E+00 -9.9685289663483E-01
49  4.8000000000000E-01  1.6277826845732E+00 -9.8224631231198E-01
50  4.9000000000000E-01  1.5985517182735E+00 -9.5303652074313E-01
51  5.0000000000000E-01  1.5660649932068E+00 -9.0937074175662E-01
52  5.1000000000000E-01  1.5305533068721E+00 -8.5160248193666E-01
53  5.2000000000000E-01  1.4922587213386E+00 -7.8028265215980E-01
54  5.3000000000000E-01  1.4514324390560E+00 -6.9614719444031E-01
55  5.4000000000000E-01  1.4083326652857E+00 -6.0010160129524E-01
56  5.5000000000000E-01  1.3632224798935E+00 -4.9320277843541E-01
57  5.6000000000000E-01  1.3163677407690E+00 -3.7663875420961E-01
58  5.7000000000000E-01  1.2680350402603E+00 -2.5170677545363E-01
59  5.8000000000000E-01  1.2184897347572E+00 -1.1979034837873E-01
60  5.9000000000000E-01  1.1679940659344E+00  1.7664215361551E-02
61  6.0000000000000E-01  1.1168053902305E+00  1.5917120289015E-01
62  6.1000000000000E-01  1.0651745309157E+00  3.0322834181402E-01
63  6.2000000000000E-01  1.0133442646662E+00  4.4833861297845E-01
64  6.3000000000000E-01  9.6154795196342E-01  5.9303062677036E-01
65  6.4000000000000E-01  9.1000831795002E-01  7.3587722456744E-01
66  6.5000000000000E-01  8.5893638766974E-01  8.7551204340384E-01
67  6.6000000000000E-01  8.0853057696926E-01  1.0106438627843E+00
68  6.7000000000000E-01  7.5897593781663E-01  1.1400686347295E+00
69  6.8000000000000E-01  7.1044355446221E-01  1.2626791784820E+00
70  6.9000000000000E-01  6.6309008479309E-01  1.3774725968757E+00
71  7.0000000000000E-01  6.1705743946371E-01  1.4835555394537E+00
72  7.1000000000000E-01  5.7247258996512E-01  1.5801474956063E+00
73  7.2000000000000E-01  5.2944749575231E-01  1.6665823473520E+00
74  7.3000000000000E-01  4.8807913989857E-01  1.7423084444346E+00
75  7.4000000000000E-01  4.4844966249120E-01  1.8068874832771E+00
76  7.5000000000000E-01  4.1062658110974E-01  1.8599924757029E+00
77  7.6000000000000E-01  3.7466308821170E-01  1.9014050835284E+00
78  7.7000000000000E-01  3.4059841605103E-01  1.9310125720146E+00
79  7.8000000000000E-01  3.0845826082066E-01  1.9488046002038E+00
80  7.9000000000000E-01  2.7825525898105E-01  1.9548700212815E+00
81  8.0000000000000E-01  2.4998951014363E-01  1.9493938136557E+00
82  8.1000000000000E-01  2.2364914234662E-01  1.9326542061076E+00
83  8.2000000000000E-01  1.9921091701532E-01  1.9050200010247E+00
84  8.3000000000000E-01  1.7664087226361E-01  1.8669480413724E+00
85  8.4000000000000E-01  1.5589500439548E-01  1.8189807126320E+00
86  8.5000000000000E-01  1.3691998843942E-01  1.7617433232647E+00
87  8.6000000000000E-01  1.1965393923700E-01  1.6959411688669E+00
88  8.7000000000000E-01  1.0402721496493E-01  1.6223560582472E+00
89  8.8000000000000E-01  8.9963264964611E-02  1.5418420658624E+00
90  8.9000000000000E-01  7.7379523368330E-02  1.4553202755542E+00
91  9.0000000000000E-01  6.6188349244965E-02  1.3637722958697E+00
92  9.1000000000000E-01  5.6298012856143E-02  1.2682323573381E+00
93  9.2000000000000E-01  4.7613726147580E-02  1.1697778461822E+00
94  9.3000000000000E-01  4.0038713846711E-02  1.0695181857011E+00
95  9.4000000000000E-01  3.3475319557405E-02  9.6858204403869E-01
96  9.5000000000000E-01  2.7826139108456E-02  8.6810292278916E-01
97  9.6000000000000E-01  2.2995171206460E-02  7.6920326202364E-01
98  9.7000000000000E-01  1.8888973254914E-02  6.7297728063016E-01
99  9.8000000000000E-01  1.5417808120240E-02  5.8047285301912E-01
100  9.9000000000000E-01  1.2496765745213E-02  4.9267280074470E-01
101  1.0000000000000E+00  1.0046841917426E-02  4.1047604712053E-01
102  1.0100000000000E+00  7.9959552756209E-03  3.3467914129181E-01
103  1.0200000000000E+00  6.2798828493395E-03  2.6595870270290E-01
104  1.0300000000000E+00  4.8430936155462E-03  2.0485541692155E-01
105  1.0400000000000E+00  3.6394657734574E-03  1.5175965458859E-01
106  1.0500000000000E+00  2.6328880646979E-03  1.0689807759056E-01
107  1.0600000000000E+00  1.7995198554832E-03  7.0109088936187E-02
108  1.0700000000000E+00  1.1229488171904E-03  4.1284110948674E-02
109  1.0800000000000E+00  5.9619849370192E-04  2.0372916466165E-02
110  1.0900000000000E+00  2.2507678284264E-04  7.0519591885781E-03
111  1.1000000000000E+00  2.7550265098195E-05  7.8119319441069E-04
112  1.1100000000000E+00 -1.2325557442877E-06 -3.2540897858679E-05
113  1.1200000000000E+00 -9.2154310535264E-08 -2.6561061988424E-06
114  1.13  0. -0.
115  1.14  0.  0.
116  1.15  0.  0.
117  1.16  0.  0.
118  1.17  0.  0.
119  1.18  0.  0.
120  1.19  0.  0.
121  1.20  0.  0.
122  1.21  0.  0.
123  1.22  0.  0.
124  1.23  0.  0.
125  1.24  0.  0.
126  1.25  0.  0.
127  1.26  0.  0.
128  1.27  0.  0.
129  1.28  0.  0.
130  1.29  0.  0.
131  1.30  0.  0.
132  1.31  0.  0.
133  1.32  0.  0.
134  1.33  0.  0.
135  1.34  0.  0.
136  1.35  0.  0.
137  1.36  0.  0.
138  1.37  0.  0.
139  1.38  0.  0.
140  1.39  0.  0.
141  1.40  0.  0.
142  1.41  0.  0.
143  1.42  0.  0.
144  1.43  0.  0.
145  1.44  0.  0.
146  1.45  0.  0.
147  1.46  0.  0.
148  1.47  0.  0.
149  1.48  0.  0.
150  1.49  0.  0.
151  1.50  0.  0.
152  1.51  0.  0.
153  1.52  0.  0.
154  1.53  0.  0.
155  1.54  0.  0.
156  1.55  0.  0.
157  1.56  0.  0.
158  1.57  0.  0.
159  1.58  0.  0.
160  1.59  0.  0.
161  1.60  0.  0.
162  1.61  0.  0.
163  1.62  0.  0.
164  1.63  0.  0.
165  1.64  0.  0.
166  1.65  0.  0.
167  1.66  0.  0.
168  1.67  0.  0.
169  1.68  0.  0.
170  1.69  0.  0.
171  1.70  0.  0.
172  1.71  0.  0.
173  1.72  0.  0.
174  1.73  0.  0.
175  1.74  0.  0.
176  1.75  0.  0.
177  1.76  0.  0.
178  1.77  0.  0.
179  1.78  0.  0.
180  1.79  0.  0.
181  1.80  0.  0.
182  1.81  0.  0.
183  1.82  0.  0.
184  1.83  0.  0.
185  1.84  0.  0.
186  1.85  0.  0.
187  1.86  0.  0.
188  1.87  0.  0.
189  1.88  0.  0.
190  1.89  0.  0.
191  1.90  0.  0.
192  1.91  0.  0.
193  1.92  0.  0.
194  1.93  0.  0.
195  1.94  0.  0.
196  1.95  0.  0.
197  1.96  0.  0.