Fl    ONCVPSP-4.0.1  r_core=   1.60082   1.60082   1.60082   1.60082
114.0000     22.0000      231012    zatom,zion,pspd
8 -116133   3     4   600     0    pspcod,pspxc,lmax,lloc,mmax,r2well
5.99000000  5.00000000  0.00000000    rchrg fchrg qchrg
2     3     3     2    nproj
3     1           extension_switch
4     3     2    nprojso
0                         9.5230217014190E+00 -4.2229324476263E-01
1  0.0000000000000E+00  1.3068091053725E-10  8.7231993850523E-10
2  1.0000000000000E-02  7.6593488169999E-02  1.3862435482631E-02
3  2.0000000000000E-02  1.5301635251516E-01  2.7725024123196E-02
4  3.0000000000000E-02  2.2909832726560E-01  4.1587348758755E-02
5  4.0000000000000E-02  3.0466986364819E-01  5.5447864415711E-02
6  5.0000000000000E-02  3.7956249056804E-01  6.9303366254860E-02
7  6.0000000000000E-02  4.5360917781450E-01  8.3148495103926E-02
8  7.0000000000000E-02  5.2664470247672E-01  9.6975292063134E-02
9  8.0000000000000E-02  5.9850601912291E-01  1.1077281279702E-01
10  9.0000000000000E-02  6.6903263413861E-01  1.2452681106283E-01
11  1.0000000000000E-01  7.3806698443484E-01  1.3821949978976E-01
12  1.1000000000000E-01  8.0545482053030E-01  1.5182939663521E-01
13  1.2000000000000E-01  8.7104559378704E-01  1.6533125942576E-01
14  1.3000000000000E-01  9.3469284733932E-01  1.7869611526946E-01
15  1.4000000000000E-01  9.9625461000582E-01  1.9189138542609E-01
16  1.5000000000000E-01  1.0555937922207E+00  2.0488110627495E-01
17  1.6000000000000E-01  1.1125785827625E+00  2.1762624495233E-01
18  1.7000000000000E-01  1.1670828448086E+00  2.3008510647375E-01
19  1.8000000000000E-01  1.2189865095987E+00  2.4221382743940E-01
20  1.9000000000000E-01  1.2681759657622E+00  2.5396694977290E-01
21  2.0000000000000E-01  1.3145444421502E+00  2.6529806639233E-01
22  2.1000000000000E-01  1.3579923818248E+00  2.7616052928509E-01
23  2.2000000000000E-01  1.3984278046930E+00  2.8650820917828E-01
24  2.3000000000000E-01  1.4357666561368E+00  2.9629629488755E-01
25  2.4000000000000E-01  1.4699331388931E+00  3.0548211950772E-01
26  2.5000000000000E-01  1.5008600253646E+00  3.1402599989609E-01
27  2.6000000000000E-01  1.5284889475198E+00  3.2189207540611E-01
28  2.7000000000000E-01  1.5527706615444E+00  3.2904913156567E-01
29  2.8000000000000E-01  1.5736652844609E+00  3.3547139436563E-01
30  2.9000000000000E-01  1.5911425000187E+00  3.4113928103409E-01
31  3.0000000000000E-01  1.6051817312910E+00  3.4604009361616E-01
32  3.1000000000000E-01  1.6157722775790E+00  3.5016864235492E-01
33  3.2000000000000E-01  1.6229134134345E+00  3.5352778676478E-01
34  3.3000000000000E-01  1.6266144478490E+00  3.5612888339248E-01
35  3.4000000000000E-01  1.6268947419357E+00  3.5799213055592E-01
36  3.5000000000000E-01  1.6237836837296E+00  3.5914680181756E-01
37  3.6000000000000E-01  1.6173206190628E+00  3.5963136156457E-01
38  3.7000000000000E-01  1.6075547378215E+00  3.5949345780712E-01
39  3.8000000000000E-01  1.5945449152571E+00  3.5878978914187E-01
40  3.9000000000000E-01  1.5783595084055E+00  3.5758584473056E-01
41  4.0000000000000E-01  1.5590761080526E+00  3.5595551808362E-01
42  4.1000000000000E-01  1.5367812470744E+00  3.5398059738490E-01
43  4.2000000000000E-01  1.5115700663654E+00  3.5175013701404E-01
44  4.3000000000000E-01  1.4835459399437E+00  3.4935971678709E-01
45  4.4000000000000E-01  1.4528200611888E+00  3.4691059721373E-01
46  4.5000000000000E-01  1.4195109925091E+00  3.4450878073028E-01
47  4.6000000000000E-01  1.3837441810606E+00  3.4226399038632E-01
48  4.7000000000000E-01  1.3456514434342E+00  3.4028857881195E-01
49  4.8000000000000E-01  1.3053704224890E+00  3.3869638145150E-01
50  4.9000000000000E-01  1.2630440197424E+00  3.3760152899721E-01
51  5.0000000000000E-01  1.2188198069167E+00  3.3711723467743E-01
52  5.1000000000000E-01  1.1728494203935E+00  3.3735457253515E-01
53  5.2000000000000E-01  1.1252879424382E+00  3.3842126306559E-01
54  5.3000000000000E-01  1.0762932731224E+00  3.4042048256126E-01
55  5.4000000000000E-01  1.0260254968968E+00  3.4344971223889E-01
56  5.5000000000000E-01  9.7464624774539E-01  3.4759964269745E-01
57  5.6000000000000E-01  9.2231807679162E-01  3.5295314848914E-01
58  5.7000000000000E-01  8.6920382612267E-01  3.5958434658600E-01
59  5.8000000000000E-01  8.1546601245487E-01  3.6755775130912E-01
60  5.9000000000000E-01  7.6126622408594E-01  3.7692753687587E-01
61  6.0000000000000E-01  7.0676453436623E-01  3.8773691713220E-01
62  6.1000000000000E-01  6.5211893468012E-01  4.0001765030126E-01
63  6.2000000000000E-01  5.9748478966040E-01  4.1378967472002E-01
64  6.3000000000000E-01  5.4301431707030E-01  4.2906087958552E-01
65  6.4000000000000E-01  4.8885609448187E-01  4.4582701272053E-01
66  6.5000000000000E-01  4.3515459456220E-01  4.6407172533031E-01
67  6.6000000000000E-01  3.8204975045497E-01  4.8376675168782E-01
68  6.7000000000000E-01  3.2967655241874E-01  5.0487221969038E-01
69  6.8000000000000E-01  2.7816467656060E-01  5.2733708630700E-01
70  6.9000000000000E-01  2.2763814618883E-01  5.5109969011503E-01
71  7.0000000000000E-01  1.7821502600583E-01  5.7608841143726E-01
72  7.1000000000000E-01  1.3000714907714E-01  6.0222242906410E-01
73  7.2000000000000E-01  8.3119876247187E-02  6.2941256120485E-01
74  7.3000000000000E-01  3.7651887432197E-02  6.5756217718024E-01
75  7.4000000000000E-01 -6.3049959928464E-03  6.8656816546431E-01
76  7.5000000000000E-01 -4.8665958680009E-02  7.1632194302089E-01
77  7.6000000000000E-01 -8.9353309785644E-02  7.4671049047203E-01
78  7.7000000000000E-01 -1.2829657367705E-01  7.7761739748726E-01
79  7.8000000000000E-01 -1.6543255419221E-01  8.0892390289684E-01
80  7.9000000000000E-01 -2.0070537382860E-01  8.4050991440751E-01
81  8.0000000000000E-01 -2.3406648925636E-01  8.7225499342841E-01
82  8.1000000000000E-01 -2.6547468453916E-01  9.0403929138780E-01
83  8.2000000000000E-01 -2.9489604340462E-01  9.3574442502158E-01
84  8.3000000000000E-01 -3.2230390183675E-01  9.6725427942576E-01
85  8.4000000000000E-01 -3.4767878217066E-01  9.9845572916101E-01
86  8.5000000000000E-01 -3.7100830975520E-01  1.0292392693556E+00
87  8.6000000000000E-01 -3.9228711311924E-01  1.0594995505421E+00
88  8.7000000000000E-01 -4.1151670843350E-01  1.0891358128522E+00
89  8.8000000000000E-01 -4.2870536890833E-01  1.1180522171525E+00
90  8.9000000000000E-01 -4.4386797961237E-01  1.1461580726923E+00
91  9.0000000000000E-01 -4.5702587804253E-01  1.1733679628222E+00
92  9.1000000000000E-01 -4.6820668062686E-01  1.1996017722924E+00
93  9.2000000000000E-01 -4.7744409520299E-01  1.2247846215149E+00
94  9.3000000000000E-01 -4.8477771939041E-01  1.2488467149446E+00
95  9.4000000000000E-01 -4.9025282466907E-01  1.2717231123654E+00
96  9.5000000000000E-01 -4.9392012589295E-01  1.2933534333275E+00
97  9.6000000000000E-01 -4.9583553590915E-01  1.3136815062522E+00
98  9.7000000000000E-01 -4.9605990492276E-01  1.3326549747621E+00
99  9.8000000000000E-01 -4.9465874424832E-01  1.3502248746028E+00
100  9.9000000000000E-01 -4.9170193412063E-01  1.3663451950706E+00
101  1.0000000000000E+00 -4.8726341530270E-01  1.3809724391430E+00
102  1.0100000000000E+00 -4.8142086432667E-01  1.3940651965119E+00
103  1.0200000000000E+00 -4.7425535233366E-01  1.4055837434490E+00
104  1.0300000000000E+00 -4.6585098764027E-01  1.4154896828857E+00
105  1.0400000000000E+00 -4.5629454235021E-01  1.4237456372734E+00
106  1.0500000000000E+00 -4.4567506354679E-01  1.4303150057201E+00
107  1.0600000000000E+00 -4.3408346984330E-01  1.4351617955889E+00
108  1.0700000000000E+00 -4.2161213432775E-01  1.4382505372195E+00
109  1.0800000000000E+00 -4.0835445521471E-01  1.4395462887097E+00
110  1.0900000000000E+00 -3.9440441580155E-01  1.4390147358184E+00
111  1.1000000000000E+00 -3.7985613561735E-01  1.4366223900300E+00
112  1.1100000000000E+00 -3.6480341494198E-01  1.4323368857182E+00
113  1.1200000000000E+00 -3.4933927515602E-01  1.4261273751728E+00
114  1.1300000000000E+00 -3.3355549765285E-01  1.4179650180647E+00
115  1.1400000000000E+00 -3.1754216429629E-01  1.4078235597527E+00
116  1.1500000000000E+00 -3.0138720263560E-01  1.3956799907224E+00
117  1.1600000000000E+00 -2.8517593928751E-01  1.3815152774276E+00
118  1.1700000000000E+00 -2.6899066505854E-01  1.3653151529237E+00
119  1.1800000000000E+00 -2.5291021550395E-01  1.3470709539678E+00
120  1.1900000000000E+00 -2.3700957069880E-01  1.3267804897515E+00
121  1.2000000000000E+00 -2.2135947802732E-01  1.3044489261547E+00
122  1.2100000000000E+00 -2.0602610177706E-01  1.2800896683946E+00
123  1.2200000000000E+00 -1.9107070325013E-01  1.2537252242108E+00
124  1.2300000000000E+00 -1.7654935497574E-01  1.2253880292930E+00
125  1.2400000000000E+00 -1.6251269242433E-01  1.1951212165430E+00
126  1.2500000000000E+00 -1.4900570638313E-01  1.1629793109641E+00
127  1.2600000000000E+00 -1.3606757886133E-01  1.1290288324962E+00
128  1.2700000000000E+00 -1.2373156504571E-01  1.0933487899686E+00
129  1.2800000000000E+00 -1.1202492343330E-01  1.0560310505010E+00
130  1.2900000000000E+00 -1.0096889582944E-01  1.0171805701392E+00
131  1.3000000000000E+00 -9.0578738416790E-02  9.7691547325957E-01
132  1.3100000000000E+00 -8.0863804586657E-02  9.3536697026856E-01
133  1.3200000000000E+00 -7.1827679680624E-02  8.9267910534015E-01
134  1.3300000000000E+00 -6.3468367222529E-02  8.4900832835980E-01
135  1.3400000000000E+00 -5.5778525640541E-02  8.0452288781219E-01
136  1.3500000000000E+00 -4.8745753890216E-02  7.5940204404786E-01
137  1.3600000000000E+00 -4.2352923804451E-02  7.1383510512100E-01
138  1.3700000000000E+00 -3.6578556414941E-02  6.6802029020874E-01
139  1.3800000000000E+00 -3.1397238931931E-02  6.2216342839927E-01
140  1.3900000000000E+00 -2.6780078532518E-02  5.7647650337605E-01
141  1.4000000000000E+00 -2.2695188608661E-02  5.3117605714548E-01
142  1.4100000000000E+00 -1.9108202663752E-02  4.8648146845315E-01
143  1.4200000000000E+00 -1.5982810636986E-02  4.4261312382248E-01
144  1.4300000000000E+00 -1.3281312078199E-02  3.9979050122429E-01
145  1.4400000000000E+00 -1.0965180300665E-02  3.5823018819693E-01
146  1.4500000000000E+00 -8.9956314112103E-03  3.1814385774916E-01
147  1.4600000000000E+00 -7.3341919580380E-03  2.7973622657941E-01
148  1.4700000000000E+00 -5.9432588531054E-03  2.4320302099264E-01
149  1.4800000000000E+00 -4.7866452176439E-03  2.0872897638941E-01
150  1.4900000000000E+00 -3.8301058247870E-03  1.7648589667494E-01
151  1.5000000000000E+00 -3.0418386229211E-03  1.4663077942752E-01
152  1.5100000000000E+00 -2.3929404282197E-03  1.1930414222193E-01
153  1.5200000000000E+00 -1.8578819905425E-03  9.4628139404568E-02
154  1.5300000000000E+00 -1.4171838037066E-03  7.2686123589486E-02
155  1.5400000000000E+00 -1.0547446372420E-03  5.3544031617711E-02
156  1.5500000000000E+00 -7.5444258238411E-04  3.7281336113364E-02
157  1.5600000000000E+00 -5.0569420484495E-04  2.3949120387112E-02
158  1.5700000000000E+00 -3.0320645823564E-04  1.3571888759157E-02
159  1.5800000000000E+00 -1.4709287541197E-04  6.1488327681376E-03
160  1.5900000000000E+00 -4.2280882701637E-05  1.6360109922704E-03
161  1.6000000000000E+00 -1.0198765631097E-06  3.5833270101111E-05
162  1.6100000000000E+00  1.6402705551784E-07 -5.6328378696992E-06
163  1.6200000000000E+00 -1.2378769474676E-08  4.4810100241268E-07
164  1.63  0.  0.
165  1.64  0.  0.
166  1.65  0.  0.
167  1.66  0.  0.
168  1.67  0.  0.
169  1.68  0.  0.
170  1.69  0.  0.
171  1.70  0.  0.
172  1.71  0.  0.
173  1.72  0.  0.
174  1.73  0.  0.
175  1.74  0.  0.
176  1.75  0.  0.
177  1.76  0.  0.
178  1.77  0.  0.
179  1.78  0.  0.
180  1.79  0.  0.
181  1.80  0.  0.
182  1.81  0.  0.
183  1.82  0.  0.
184  1.83  0.  0.
185  1.84  0.  0.
186  1.85  0.  0.
187  1.86  0.  0.
188  1.87  0.  0.
189  1.88  0.  0.
190  1.89  0.  0.
191  1.90  0.  0.
192  1.91  0.  0.
193  1.92  0.  0.
194  1.93  0.  0.
195  1.94  0.  0.
196  1.95  0.  0.
197  1.96  0.  0.
198  1.97  0.  0.
199  1.98  0.  0.
200  1.99  0.  0.
201  2.00  0.  0.
202  2.01  0.  0.
203  2.02  0.  0.
204  2.03  0.  0.
205  2.04  0.  0.
206  2.05  0.  0.
207  2.06  0.  0.
208  2.07  0.  0.
209  2.08  0.  0.
210  2.09  0.  0.
211  2.10  0.  0.
212  2.11  0.  0.
213  2.12  0.  0.
214  2.13  0.  0.
215  2.14  0.  0.
216  2.15  0.  0.
217  2.16  0.  0.
218  2.17  0.  0.
219  2.18  0.  0.
220  2.19  0.  0.
221  2.20  0.  0.
222  2.21  0.  0.
223  2.22  0.  0.
224  2.23  0.  0.
225  2.24  0.  0.
226  2.25  0.  0.
227  2.26  0.  0.
228  2.27  0.  0.
229  2.28  0.  0.
230  2.29  0.  0.
231  2.30  0.  0.
232  2.31  0.  0.
233  2.32  0.  0.
234  2.33  0.  0.
235  2.34  0.  0.
236  2.35  0.  0.
237  2.36  0.  0.
238  2.37  0.  0.
239  2.38  0.  0.
240  2.39  0.  0.
241  2.40  0.  0.
242  2.41  0.  0.
243  2.42  0.  0.
244  2.43  0.  0.
245  2.44  0.  0.
246  2.45  0.  0.
247  2.46  0.  0.
248  2.47  0.  0.
249  2.48  0.  0.
250  2.49  0.  0.
251  2.50  0.  0.
252  2.51  0.  0.
253  2.52  0.  0.
254  2.53  0.  0.
255  2.54  0.  0.
256  2.55  0.  0.
257  2.56  0.  0.
258  2.57  0.  0.
259  2.58  0.  0.
260  2.59  0.  0.
261  2.60  0.  0.
262  2.61  0.  0.
263  2.62  0.  0.
264  2.63  0.  0.
265  2.64  0.  0.
266  2.65  0.  0.
267  2.66  0.  0.
268  2.67  0.  0.
269  2.68  0.  0.
270  2.69  0.  0.
271  2.70  0.  0.
272  2.71  0.  0.
273  2.72  0.  0.
274  2.73  0.  0.
275  2.74  0.  0.
276  2.75  0.  0.
277  2.76  0.  0.
278  2.77  0.  0.
279  2.78  0.  0.
280  2.79  0.  0.
281  2.80  0.  0.
282  2.81  0.  0.
283  2.82  0.  0.
284  2.83  0.  0.
285  2.84  0.  0.
286  2.85  0.  0.
287  2.86  0.  0.
288  2.87  0.  0.
289  2.88  0.  0.
290  2.89  0.  0.
291  2.90  0.  0.
292  2.91  0.  0.
293  2.92  0.  0.
294  2.93  0.  0.
295  2.94  0.  0.
296  2.95  0.  0.
297  2.96  0.  0.
298  2.97  0.  0.
299  2.98  0.  0.
300  2.99  0.  0.
301  3.00  0.  0.
302  3.01  0.  0.
303  3.02  0.  0.
304  3.03  0.  0.
305  3.04  0.  0.
306  3.05  0.  0.
307  3.06  0.  0.
308  3.07  0.  0.
309  3.08  0.  0.
310  3.09  0.  0.
311  3.10  0.  0.
312  3.11  0.  0.
313  3.12  0.  0.
314  3.13  0.  0.
315  3.14  0.  0.
316  3.15  0.  0.
317  3.16  0.  0.
318  3.17  0.  0.
319  3.18  0.  0.
320  3.19  0.  0.
321  3.20  0.  0.
322  3.21  0.  0.
323  3.22  0.  0.
324  3.23  0.  0.
325  3.24  0.  0.
326  3.25  0.  0.
327  3.26  0.  0.
328  3.27  0.  0.
329  3.28  0.  0.
330  3.29  0.  0.
331  3.30  0.  0.
332  3.31  0.  0.
333  3.32  0.  0.
334  3.33  0.  0.
335  3.34  0.  0.
336  3.35  0.  0.
337  3.36  0.  0.
338  3.37  0.  0.
339  3.38  0.  0.
340  3.39  0.  0.
341  3.40  0.  0.
342  3.41  0.  0.
343  3.42  0.  0.
344  3.43  0.  0.
345  3.44  0.  0.
346  3.45  0.  0.
347  3.46  0.  0.
348  3.47  0.  0.
349  3.48  0.  0.
350  3.49  0.  0.
351  3.50  0.  0.
352  3.51  0.  0.
353  3.52  0.  0.
354  3.53  0.  0.
355  3.54  0.  0.
356  3.55  0.  0.
357  3.56  0.  0.
358  3.57  0.  0.
359  3.58  0.  0.
360  3.59  0.  0.
361  3.60  0.  0.
362  3.61  0.  0.
363  3.62  0.  0.
364  3.63  0.  0.
365  3.64  0.  0.
366  3.65  0.  0.
367  3.66  0.  0.
368  3.67  0.  0.
369  3.68  0.  0.
370  3.69  0.  0.
371  3.70  0.  0.
372  3.71  0.  0.
373  3.72  0.  0.
374  3.73  0.  0.
375  3.74  0.  0.
376  3.75  0.  0.
377  3.76  0.  0.
378  3.77  0.  0.
379  3.78  0.  0.
380  3.79  0.  0.
381  3.80  0.  0.
382  3.81  0.  0.
383  3.82  0.  0.
384  3.83  0.  0.
385  3.84  0.  0.
386  3.85  0.  0.
387  3.86  0.  0.
388  3.87  0.  0.
389  3.88  0.  0.
390  3.89  0.  0.
391  3.90  0.  0.
392  3.91  0.  0.
393  3.92  0.  0.
394  3.93  0.  0.
395  3.94  0.  0.
396  3.95  0.  0.
397  3.96  0.  0.
398  3.97  0.  0.
399  3.98  0.  0.
400  3.99  0.  0.
401  4.00  0.  0.
402  4.01  0.  0.
403  4.02  0.  0.
404  4.03  0.  0.
405  4.04  0.  0.
406  4.05  0.  0.
407  4.06  0.  0.
408  4.07  0.  0.
409  4.08  0.  0.
410  4.09  0.  0.
411  4.10  0.  0.
412  4.11  0.  0.
413  4.12  0.  0.
414  4.13  0.  0.
415  4.14  0.  0.
416  4.15  0.  0.
417  4.16  0.  0.
418  4.17  0.  0.
419  4.18  0.  0.
420  4.19  0.  0.
421  4.20  0.  0.
422  4.21  0.  0.
423  4.22  0.  0.
424  4.23  0.  0.
425  4.24  0.  0.
426  4.25  0.  0.
427  4.26  0.  0.
428  4.27  0.  0.
429  4.28  0.  0.
430  4.29  0.  0.
431  4.30  0.  0.
432  4.31  0.  0.
433  4.32  0.  0.
434  4.33  0.  0.
435  4.34  0.  0.
436  4.35  0.  0.
437  4.36  0.  0.
438  4.37  0.  0.
439  4.38  0.  0.
440  4.39  0.  0.
441  4.40  0.  0.
442  4.41  0.  0.
443  4.42  0.  0.
444  4.43  0.  0.
445  4.44  0.  0.
446  4.45  0.  0.
447  4.46  0.  0.
448  4.47  0.  0.
449  4.48  0.  0.
450  4.49  0.  0.
451  4.50  0.  0.
452  4.51  0.  0.
453  4.52  0.  0.
454  4.53  0.  0.
455  4.54  0.  0.
456  4.55  0.  0.
457  4.56  0.  0.
458  4.57  0.  0.
459  4.58  0.  0.
460  4.59  0.  0.
461  4.60  0.  0.
462  4.61  0.  0.
463  4.62  0.  0.
464  4.63  0.  0.
465  4.64  0.  0.
466  4.65  0.  0.
467  4.66  0.  0.
468  4.67  0.  0.
469  4.68  0.  0.
470  4.69  0.  0.
471  4.70  0.  0.
472  4.71  0.  0.
473  4.72  0.  0.
474  4.73  0.  0.
475  4.74  0.  0.
476  4.75  0.  0.
477  4.76  0.  0.
478  4.77  0.  0.
479  4.78  0.  0.
480  4.79  0.  0.
481  4.80  0.  0.
482  4.81  0.  0.
483  4.82  0.  0.
484  4.83  0.  0.
485  4.84  0.  0.
486  4.85  0.  0.
487  4.86  0.  0.
488  4.87  0.  0.
489  4.88  0.  0.
490  4.89  0.  0.
491  4.90  0.  0.
492  4.91  0.  0.
493  4.92  0.  0.
494  4.93  0.  0.
495  4.94  0.  0.
496  4.95  0.  0.
497  4.96  0.  0.
498  4.97  0.  0.
499  4.98  0.  0.
500  4.99  0.  0.
501  5.00  0.  0.
502  5.01  0.  0.
503  5.02  0.  0.
504  5.03  0.  0.
505  5.04  0.  0.
506  5.05  0.  0.
507  5.06  0.  0.
508  5.07  0.  0.
509  5.08  0.  0.
510  5.09  0.  0.
511  5.10  0.  0.
512  5.11  0.  0.
513  5.12  0.  0.
514  5.13  0.  0.
515  5.14  0.  0.
516  5.15  0.  0.
517  5.16  0.  0.
518  5.17  0.  0.
519  5.18  0.  0.
520  5.19  0.  0.
521  5.20  0.  0.
522  5.21  0.  0.
523  5.22  0.  0.
524  5.23  0.  0.
525  5.24  0.  0.
526  5.25  0.  0.
527  5.26  0.  0.
528  5.27  0.  0.
529  5.28  0.  0.
530  5.29  0.  0.
531  5.30  0.  0.
532  5.31  0.  0.
533  5.32  0.  0.
534  5.33  0.  0.
535  5.34  0.  0.
536  5.35  0.  0.
537  5.36  0.  0.
538  5.37  0.  0.
539  5.38  0.  0.
540  5.39  0.  0.
541  5.40  0.  0.
542  5.41  0.  0.
543  5.42  0.  0.
544  5.43  0.  0.
545  5.44  0.  0.
546  5.45  0.  0.
547  5.46  0.  0.
548  5.47  0.  0.
549  5.48  0.  0.
550  5.49  0.  0.
551  5.50  0.  0.
552  5.51  0.  0.
553  5.52  0.  0.
554  5.53  0.  0.
555  5.54  0.  0.
556  5.55  0.  0.
557  5.56  0.  0.
558  5.57  0.  0.
559  5.58  0.  0.
560  5.59  0.  0.
561  5.60  0.  0.
562  5.61  0.  0.
563  5.62  0.  0.
564  5.63  0.  0.
565  5.64  0.  0.
566  5.65  0.  0.
567  5.66  0.  0.
568  5.67  0.  0.
569  5.68  0.  0.
570  5.69  0.  0.
571  5.70  0.  0.
572  5.71  0.  0.
573  5.72  0.  0.
574  5.73  0.  0.
575  5.74  0.  0.
576  5.75  0.  0.
577  5.76  0.  0.
578  5.77  0.  0.
579  5.78  0.  0.
580  5.79  0.  0.
581  5.80  0.  0.
582  5.81  0.  0.
583  5.82  0.  0.
584  5.83  0.  0.
585  5.84  0.  0.
586  5.85  0.  0.
587  5.86  0.  0.
588  5.87  0.  0.
589  5.88  0.  0.
590  5.89  0.  0.
591  5.90  0.  0.
592  5.91  0.  0.
593  5.92  0.  0.
594  5.93  0.  0.
595  5.94  0.  0.
596  5.95  0.  0.
597  5.96  0.  0.
598  5.97  0.  0.
599  5.98  0.  0.
600  5.99  0.  0.
1                         1.4043075495380E+01  1.1945917475142E+00 -6.8059496572369E-02
1  0.0000000000000E+00 -2.8813330610333E-09  6.0625113089408E-09 -6.0198140014456E-09
2  1.0000000000000E-02  1.6356263578283E-03 -2.8755907683999E-04  4.7894885622757E-04
3  2.0000000000000E-02  6.5388401729827E-03 -1.1530890565556E-03  1.9181035893581E-03
4  3.0000000000000E-02  1.4698588077410E-02 -2.6049972114981E-03  4.3242452620575E-03
5  4.0000000000000E-02  2.6096257541012E-02 -4.6567960278470E-03  7.7082011520633E-03
6  5.0000000000000E-02  4.0705397503618E-02 -7.3263663355723E-03  1.2084145568014E-02
7  6.0000000000000E-02  5.8491339142484E-02 -1.0634950585274E-02  1.7468645827960E-02
8  7.0000000000000E-02  7.9410728354363E-02 -1.4605900545826E-02  2.3879477601649E-02
9  8.0000000000000E-02  1.0341098441247E-01 -1.9263209759250E-02  3.1334239837496E-02
10  9.0000000000000E-02  1.3042970183110E-01 -2.4629866520098E-02  3.9848804870680E-02
11  1.0000000000000E-01  1.6039401467884E-01 -3.0726067832627E-02  4.9435643920275E-02
12  1.1000000000000E-01  1.9321994437557E-01 -3.7567338639119E-02  6.0102071932217E-02
13  1.2000000000000E-01  2.2881175334988E-01 -4.5162603525771E-02  7.1848458525283E-02
14  1.3000000000000E-01  2.6706132778843E-01 -5.3512260031334E-02  8.4666453584685E-02
15  1.4000000000000E-01  3.0784761305734E-01 -6.2606303566808E-02  9.8537276778568E-02
16  1.5000000000000E-01  3.5103612520535E-01 -7.2422553774555E-02  1.1343011992188E-01
17  1.6000000000000E-01  3.9647856126712E-01 -8.2925030910817E-02  1.2930070968027E-01
18  1.7000000000000E-01  4.4401252988348E-01 -9.4062528545586E-02  1.4609007561365E-01
19  1.8000000000000E-01  4.9346142206153E-01 -1.0576742557561E-01  1.6372356504718E-01
20  1.9000000000000E-01  5.4463443974132E-01 -1.1795477630152E-01  1.8211014179157E-01
21  2.0000000000000E-01  5.9732679725646E-01 -1.3052171220676E-01  2.0114200039582E-01
22  2.1000000000000E-01  6.5132010782009E-01 -1.4334718319051E-01  2.2069452150821E-01
23  2.2000000000000E-01  7.0638296389200E-01 -1.5629205946344E-01  2.4062658716031E-01
24  2.3000000000000E-01  7.6227171674752E-01 -1.6919960823784E-01  2.6078126750964E-01
25  2.4000000000000E-01  8.1873145684443E-01 -1.8189635187349E-01  2.8098688291908E-01
26  2.5000000000000E-01  8.7549719274000E-01 -1.9419330642163E-01  3.0105843737123E-01
27  2.6000000000000E-01  9.3229522242359E-01 -2.0588759169634E-01  3.2079941126961E-01
28  2.7000000000000E-01  9.8884468707647E-01 -2.1676439624942E-01  3.4000389382743E-01
29  2.8000000000000E-01  1.0448592935262E+00 -2.2659927308897E-01  3.5845902765029E-01
30  2.9000000000000E-01  1.1000491881033E+00 -2.3516073481474E-01  3.7594773093689E-01
31  3.0000000000000E-01  1.1541229613067E+00 -2.4221311019141E-01  3.9225165610358E-01
32  3.1000000000000E-01  1.2067897597035E+00 -2.4751961818274E-01  4.0715433772377E-01
33  3.2000000000000E-01  1.2577614789006E+00 -2.5084561024962E-01  4.2044447759097E-01
34  3.3000000000000E-01  1.3067550092726E+00 -2.5196192738609E-01  4.3191931057604E-01
35  3.4000000000000E-01  1.3534945044700E+00 -2.5064831502325E-01  4.4138799185181E-01
36  3.5000000000000E-01  1.3977136415961E+00 -2.4669683664838E-01  4.4867494407636E-01
37  3.6000000000000E-01  1.4391578413593E+00 -2.3991522582290E-01  4.5362310231447E-01
38  3.7000000000000E-01  1.4775864164954E+00 -2.3013011627013E-01  4.5609699486810E-01
39  3.8000000000000E-01  1.5127746173274E+00 -2.1719009085805E-01  4.5598559978798E-01
40  3.9000000000000E-01  1.5445155444668E+00 -2.0096849261051E-01  4.5320491963743E-01
41  4.0000000000000E-01  1.5726219003613E+00 -1.8136594431082E-01  4.4770022103413E-01
42  4.1000000000000E-01  1.5969275536275E+00 -1.5831252776041E-01  4.3944789054794E-01
43  4.2000000000000E-01  1.6172888928268E+00 -1.3176957924318E-01  4.2845686459598E-01
44  4.3000000000000E-01  1.6335859495192E+00 -1.0173106413015E-01  4.1476959794770E-01
45  4.4000000000000E-01  1.6457232739915E+00 -6.8224500721355E-02  3.9846254320821E-01
46  4.5000000000000E-01  1.6536305509474E+00 -3.1311411234339E-02  3.7964612204849E-01
47  4.6000000000000E-01  1.6572629465964E+00  8.9127138362685E-03  3.5846417784142E-01
48  4.7000000000000E-01  1.6566011829061E+00  5.2318943099447E-02  3.3509290857851E-01
49  4.8000000000000E-01  1.6516513392128E+00  9.8745919652693E-02  3.0973928831031E-01
50  4.9000000000000E-01  1.6424443858305E+00  1.4800135187272E-01  2.8263899469483E-01
51  5.0000000000000E-01  1.6290354586814E+00  1.9986395830743E-01  2.5405386937410E-01
52  5.1000000000000E-01  1.6115028882007E+00  2.5408583698564E-01  2.2426894665243E-01
53  5.2000000000000E-01  1.5899469997686E+00  3.1039522157133E-01  1.9358909414635E-01
54  5.3000000000000E-01  1.5644887066187E+00  3.6849957954894E-01  1.6233531655617E-01
55  5.4000000000000E-01  1.5352679194834E+00  4.2808900117879E-01  1.3084078031830E-01
56  5.5000000000000E-01  1.5024418001089E+00  4.8883982243931E-01  9.9446622502685E-02
57  5.6000000000000E-01  1.4661828881422E+00  5.5041842069073E-01  6.8497611801074E-02
58  5.7000000000000E-01  1.4266771327114E+00  6.1248511844884E-01  3.8337732714130E-02
59  5.8000000000000E-01  1.3841218612605E+00  6.7469812852113E-01  9.3057660113660E-03
60  5.9000000000000E-01  1.3387237188186E+00  7.3671747288351E-01 -1.8269060840569E-02
61  6.0000000000000E-01  1.2906966108870E+00  7.9820880809143E-01 -4.4071280335837E-02
62  6.1000000000000E-01  1.2402596824922E+00  8.5884709172626E-01 -6.7803177848078E-02
63  6.2000000000000E-01  1.1876353647080E+00  9.1832002735521E-01 -8.9188503445911E-02
64  6.3000000000000E-01  1.1330475181022E+00  9.7633122968210E-01 -1.0797583999343E-01
65  6.4000000000000E-01  1.0767197001583E+00  1.0326030569157E+00 -1.2394157088399E-01
66  6.5000000000000E-01  1.0188735807941E+00  1.0868790637872E+00 -1.3689239782487E-01
67  6.6000000000000E-01  9.5972752671631E-01  1.1389260359923E+00 -1.4666736713850E-01
68  6.7000000000000E-01  8.9949537156599E-01  1.1885355749799E+00 -1.5313937193303E-01
69  6.8000000000000E-01  8.3838538470254E-01  1.2355252108045E+00 -1.5621610705213E-01
70  6.9000000000000E-01  7.7659944712791E-01  1.2797390300396E+00 -1.5584046376772E-01
71  7.0000000000000E-01  7.1433243854600E-01  1.3210478153312E+00 -1.5199036153873E-01
72  7.1000000000000E-01  6.5177183498101E-01  1.3593487028694E+00 -1.4467802462666E-01
73  7.2000000000000E-01  5.8909751183122E-01  1.3945643736851E+00 -1.3394872173708E-01
74  7.3000000000000E-01  5.2648174280438E-01  1.4266418040410E+00 -1.1987899693889E-01
75  7.4000000000000E-01  4.6408938095817E-01  1.4555506090973E+00 -1.0257442970917E-01
76  7.5000000000000E-01  4.0207820414059E-01  1.4812810223121E+00 -8.2166970865458E-02
77  7.6000000000000E-01  3.4059940357424E-01  1.5038415605104E+00 -5.8811909205901E-02
78  7.7000000000000E-01  2.7979819122921E-01  1.5232564310714E+00 -3.2684530712417E-02
79  7.8000000000000E-01  2.1981449904903E-01  1.5395627430998E+00 -3.9765380434417E-03
80  7.9000000000000E-01  1.6078374109224E-01  1.5528075886426E+00  2.7107697378416E-02
81  8.0000000000000E-01  1.0283760827160E-01  1.5630450628948E+00  6.0354975189058E-02
82  8.1000000000000E-01  4.6104864651533E-02  1.5703332938321E+00  9.5547120596148E-02
83  8.2000000000000E-01 -9.2878857781854E-03  1.5747315517665E+00  1.3246477614869E-01
84  8.3000000000000E-01 -6.3215492289273E-02  1.5762975079356E+00  1.7089105464226E-01
85  8.4000000000000E-01 -1.1555363967244E-01  1.5750847084012E+00  2.1061497986871E-01
86  8.5000000000000E-01 -1.6617834668497E-01  1.5711403253078E+00  2.5143464622103E-01
87  8.6000000000000E-01 -2.1496560518867E-01  1.5645032419835E+00  2.9316003387018E-01
88  8.7000000000000E-01 -2.6179118127404E-01  1.5552025215653E+00  3.3561542323823E-01
89  8.8000000000000E-01 -3.0653059593786E-01  1.5432563009103E+00  3.7864136067840E-01
90  8.9000000000000E-01 -3.4905929869549E-01  1.5286711426560E+00  4.2209613648515E-01
91  9.0000000000000E-01 -3.8925304294825E-01  1.5114418685893E+00  4.6585674642771E-01
92  9.1000000000000E-01 -4.2698846707819E-01  1.4915518871498E+00  5.0981931873229E-01
93  9.2000000000000E-01 -4.6214388020108E-01  1.4689740171339E+00  5.5389899963545E-01
94  9.3000000000000E-01 -4.9460024637855E-01  1.4436717986822E+00  5.9802930206572E-01
95  9.4000000000000E-01 -5.2424235597200E-01  1.4156012716536E+00  6.4216093347114E-01
96  9.5000000000000E-01 -5.5096016782320E-01  1.3847131907197E+00  6.8626013005758E-01
97  9.6000000000000E-01 -5.7465030117201E-01  1.3509556361827E+00  7.3030653552470E-01
98  9.7000000000000E-01 -5.9521765177566E-01  1.3142769698382E+00  7.7429067254895E-01
99  9.8000000000000E-01 -6.1257710266953E-01  1.2746290763734E+00  8.1821106457366E-01
100  9.9000000000000E-01 -6.2665529650176E-01  1.2319708230013E+00  8.6207107371492E-01
101  1.0000000000000E+00 -6.3739243346314E-01  1.1862716634623E+00  9.0587552761225E-01
102  1.0100000000000E+00 -6.4474405659013E-01  1.1375153073147E+00  9.4962721368552E-01
103  1.0200000000000E+00 -6.4868278470467E-01  1.0857033717225E+00  9.9332332337964E-01
104  1.0300000000000E+00 -6.4919995251502E-01  1.0308589308322E+00  1.0369519314771E+00
105  1.0400000000000E+00 -6.4630711746767E-01  9.7302987737123E-01  1.0804885963744E+00
106  1.0500000000000E+00 -6.4003739383209E-01  9.1229201235138E-01  1.1238931663032E+00
107  1.0600000000000E+00 -6.3044657621475E-01  8.4875178171989E-01  1.1671068738313E+00
108  1.0700000000000E+00 -6.1761401722090E-01  7.8254858344005E-01  1.2100497966304E+00
109  1.0800000000000E+00 -6.0164322729087E-01  7.1385657476320E-01  1.2526187564952E+00
110  1.0900000000000E+00 -5.8266216876382E-01  6.4288591724326E-01  1.2946857210639E+00
111  1.1000000000000E+00 -5.6082322093457E-01  5.6988340627882E-01  1.3360967637084E+00
112  1.1100000000000E+00 -5.3630279816049E-01  4.9513244243315E-01  1.3766716268306E+00
113  1.1200000000000E+00 -5.0930060888201E-01  4.1895231335197E-01  1.4162039224647E+00
114  1.1300000000000E+00 -4.8003854962958E-01  3.4169676754364E-01  1.4544619918672E+00
115  1.1400000000000E+00 -4.4875923459121E-01  2.6375187438730E-01  1.4911904329032E+00
116  1.1500000000000E+00 -4.1572416800235E-01  1.8553317827163E-01  1.5261122907251E+00
117  1.1600000000000E+00 -3.8121157335504E-01  1.0748216846385E-01  1.5589318937754E+00
118  1.1700000000000E+00 -3.4551390009396E-01  3.0062099932466E-02  1.5893383037491E+00
119  1.1800000000000E+00 -3.0893503494149E-01 -4.6246786366558E-02  1.6170093351048E+00
120  1.1900000000000E+00 -2.7178725113460E-01 -1.2095258256754E-01  1.6416160872826E+00
121  1.2000000000000E+00 -2.3438793457811E-01 -1.9355749929506E-01  1.6628279211568E+00
122  1.2100000000000E+00 -1.9705613104152E-01 -2.6356403364350E-01  1.6803178007798E+00
123  1.2200000000000E+00 -1.6010896303022E-01 -3.3048142649806E-01  1.6937679122066E+00
124  1.2300000000000E+00 -1.2385796865833E-01 -3.9383230806225E-01  1.7028754635044E+00