Fl    ONCVPSP-4.0.1  r_core=   1.60082   1.60082   1.60082   1.60082
114.0000     22.0000      231012    zatom,zion,pspd
8 -116133   3     4   600     0    pspcod,pspxc,lmax,lloc,mmax,r2well
5.99000000  5.00000000  0.00000000    rchrg fchrg qchrg
2     2     2     1     0    nproj
1     1           extension_switch
0                         9.4063219154636E+00 -4.3996325578217E-01
1  0.0000000000000E+00  1.3292011935562E-10  8.3584464349862E-10
2  1.0000000000000E-02  7.6914541975206E-02  1.3676414734277E-02
3  2.0000000000000E-02  1.5365651134888E-01  2.7353892496428E-02
4  3.0000000000000E-02  2.3005370011334E-01  4.1032948944295E-02
5  4.0000000000000E-02  3.0593463034121E-01  5.4713017280914E-02
6  5.0000000000000E-02  3.8112892142246E-01  6.8391937522357E-02
7  6.0000000000000E-02  4.5546765984080E-01  8.2065481753339E-02
8  7.0000000000000E-02  5.2878377217686E-01  9.5726926366388E-02
9  8.0000000000000E-02  6.0091240189210E-01  1.0936668144454E-01
10  9.0000000000000E-02  6.7169129028604E-01  1.2297198642890E-01
11  1.0000000000000E-01  7.4096116183188E-01  1.3652668002824E-01
12  1.1000000000000E-01  8.0856611388508E-01  1.5001105099712E-01
13  1.2000000000000E-01  8.7435401053120E-01  1.6340177495518E-01
14  1.3000000000000E-01  9.3817688009525E-01  1.7667194086558E-01
15  1.4000000000000E-01  9.9989131558170E-01  1.8979116916322E-01
16  1.5000000000000E-01  1.0593588770546E+00  2.0272582184868E-01
17  1.6000000000000E-01  1.1164464947077E+00  2.1543930317114E-01
18  1.7000000000000E-01  1.1710268711177E+00  2.2789244784038E-01
19  1.8000000000000E-01  1.2229788809285E+00  2.4004399206363E-01
20  1.9000000000000E-01  1.2721879659780E+00  2.5185112112467E-01
21  2.0000000000000E-01  1.3185465236675E+00  2.6327008573709E-01
22  2.1000000000000E-01  1.3619542861775E+00  2.7425687803729E-01
23  2.2000000000000E-01  1.4023186879706E+00  2.8476795685774E-01
24  2.3000000000000E-01  1.4395552188834E+00  2.9476101086010E-01
25  2.4000000000000E-01  1.4735877600106E+00  3.0419574722864E-01
26  2.5000000000000E-01  1.5043488995138E+00  3.1303469294363E-01
27  2.6000000000000E-01  1.5317802254618E+00  3.2124399518395E-01
28  2.7000000000000E-01  1.5558325928201E+00  3.2879420715785E-01
29  2.8000000000000E-01  1.5764663617595E+00  3.3566104563653E-01
30  2.9000000000000E-01  1.5936516045453E+00  3.4182610666793E-01
31  3.0000000000000E-01  1.6073682784058E+00  3.4727752637751E-01
32  3.1000000000000E-01  1.6176063619472E+00  3.5201057441267E-01
33  3.2000000000000E-01  1.6243659528986E+00  3.5602816844856E-01
34  3.3000000000000E-01  1.6276573252147E+00  3.5934129923396E-01
35  3.4000000000000E-01  1.6275009438457E+00  3.6196935689939E-01
36  3.5000000000000E-01  1.6239274357945E+00  3.6394035065752E-01
37  3.6000000000000E-01  1.6169775164160E+00  3.6529101557699E-01
38  3.7000000000000E-01  1.6067018702730E+00  3.6606680177925E-01
39  3.8000000000000E-01  1.5931609862386E+00  3.6632174316949E-01
40  3.9000000000000E-01  1.5764249469194E+00  3.6611820463836E-01
41  4.0000000000000E-01  1.5565731728733E+00  3.6552650853135E-01
42  4.1000000000000E-01  1.5336941224871E+00  3.6462444304949E-01
43  4.2000000000000E-01  1.5078849487763E+00  3.6349665708575E-01
44  4.3000000000000E-01  1.4792511147515E+00  3.6223394778904E-01
45  4.4000000000000E-01  1.4479059693667E+00  3.6093244885051E-01
46  4.5000000000000E-01  1.4139702864176E+00  3.5969272909864E-01
47  4.6000000000000E-01  1.3775717690831E+00  3.5861881244375E-01
48  4.7000000000000E-01  1.3388445231073E+00  3.5781713150419E-01
49  4.8000000000000E-01  1.2979285018828E+00  3.5739542835471E-01
50  4.9000000000000E-01  1.2549689269311E+00  3.5746161674383E-01
51  5.0000000000000E-01  1.2101156874695E+00  3.5812262081422E-01
52  5.1000000000000E-01  1.1635227229049E+00  3.5948320581863E-01
53  5.2000000000000E-01  1.1153473922074E+00  3.6164481654264E-01
54  5.3000000000000E-01  1.0657498341810E+00  3.6470443912174E-01
55  5.4000000000000E-01  1.0148923226707E+00  3.6875350167272E-01
56  5.5000000000000E-01  9.6293862072325E-01  3.7387682865108E-01
57  5.6000000000000E-01  9.1005333765182E-01  3.8015166310490E-01
58  5.7000000000000E-01  8.5640129284828E-01  3.8764677003219E-01
59  5.8000000000000E-01  8.0214689003666E-01  3.9642163287797E-01
60  5.9000000000000E-01  7.4745350547798E-01  4.0652575384743E-01
61  6.0000000000000E-01  6.9248289341673E-01  4.1799806718424E-01
62  6.1000000000000E-01  6.3739461180939E-01  4.3086647289178E-01
63  6.2000000000000E-01  5.8234547110036E-01  4.4514749658756E-01
64  6.3000000000000E-01  5.2748900851264E-01  4.6084607930550E-01
65  6.4000000000000E-01  4.7297499000662E-01  4.7795549912694E-01
66  6.5000000000000E-01  4.1894894173394E-01  4.9645742456184E-01
67  6.6000000000000E-01  3.6555171248023E-01  5.1632209764691E-01
68  6.7000000000000E-01  3.1291906825573E-01  5.3750864281088E-01
69  6.8000000000000E-01  2.6118131986105E-01  5.5996549570875E-01
70  6.9000000000000E-01  2.1046298393242E-01  5.8363094447831E-01
71  7.0000000000000E-01  1.6088247765996E-01  6.0843377425143E-01
72  7.1000000000000E-01  1.1255184708002E-01  6.3429400428653E-01
73  7.2000000000000E-01  6.5576528570789E-02  6.6112370580235E-01
74  7.3000000000000E-01  2.0055142933904E-02  6.8882788750667E-01
75  7.4000000000000E-01 -2.3920678773711E-02  7.1730543494614E-01
76  7.5000000000000E-01 -6.6266438681481E-02  7.4645008916952E-01
77  7.6000000000000E-01 -1.0690488599946E-01  7.7615144980503E-01
78  7.7000000000000E-01 -1.4576610266596E-01  8.0629598751325E-01
79  7.8000000000000E-01 -1.8278756213649E-01  8.3676805088834E-01
80  7.9000000000000E-01 -2.1791416275478E-01  8.6745085324335E-01
81  8.0000000000000E-01 -2.5109823716538E-01  8.9822742532249E-01
82  8.1000000000000E-01 -2.8229953921446E-01  9.2898152082428E-01
83  8.2000000000000E-01 -3.1148520974094E-01  9.5959846267956E-01
84  8.3000000000000E-01 -3.3862972258865E-01  9.8996591929033E-01
85  8.4000000000000E-01 -3.6371481207317E-01  1.0199746013759E+00
86  8.5000000000000E-01 -3.8672938301913E-01  1.0495188716683E+00
87  8.6000000000000E-01 -4.0766940434772E-01  1.0784972614214E+00
88  8.7000000000000E-01 -4.2653778704574E-01  1.1068128895144E+00
89  8.8000000000000E-01 -4.4334424718993E-01  1.1343737818178E+00
90  8.9000000000000E-01 -4.5810515453887E-01  1.1610930903988E+00
91  9.0000000000000E-01 -4.7084336704432E-01  1.1868892140610E+00
92  9.1000000000000E-01 -4.8158805147865E-01  1.2116858235855E+00
93  9.2000000000000E-01 -4.9037449023061E-01  1.2354117968482E+00
94  9.3000000000000E-01 -4.9724387419110E-01  1.2580010706905E+00
95  9.4000000000000E-01 -5.0224308154001E-01  1.2793924179922E+00
96  9.5000000000000E-01 -5.0542444215604E-01  1.2995291598023E+00
97  9.6000000000000E-01 -5.0684548730924E-01  1.3183588236023E+00
98  9.7000000000000E-01 -5.0656868426213E-01  1.3358327597874E+00
99  9.8000000000000E-01 -5.0466115540245E-01  1.3519057292238E+00
100  9.9000000000000E-01 -5.0119438156073E-01  1.3665354752767E+00
101  1.0000000000000E+00 -4.9624388922932E-01  1.3796822939718E+00
102  1.0100000000000E+00 -4.8988892149675E-01  1.3913086159650E+00
103  1.0200000000000E+00 -4.8221209264187E-01  1.4013786137347E+00
104  1.0300000000000E+00 -4.7329902649514E-01  1.4098578468895E+00
105  1.0400000000000E+00 -4.6323797886648E-01  1.4167129577037E+00
106  1.0500000000000E+00 -4.5211944455960E-01  1.4219114279666E+00
107  1.0600000000000E+00 -4.4003574973677E-01  1.4254214069774E+00
108  1.0700000000000E+00 -4.2708063066168E-01  1.4272116190536E+00
109  1.0800000000000E+00 -4.1334880012857E-01  1.4272513572688E+00
110  1.0900000000000E+00 -3.9893550317529E-01  1.4255105683362E+00
111  1.1000000000000E+00 -3.8393606397435E-01  1.4219600316133E+00
112  1.1100000000000E+00 -3.6844542609033E-01  1.4165716331867E+00
113  1.1200000000000E+00 -3.5255768858126E-01  1.4093187339096E+00
114  1.1300000000000E+00 -3.3636564069736E-01  1.4001766281620E+00
115  1.1400000000000E+00 -3.1996029818838E-01  1.3891230880206E+00
116  1.1500000000000E+00 -3.0343044446392E-01  1.3761389854939E+00
117  1.1600000000000E+00 -2.8686218005436E-01  1.3612089835403E+00
118  1.1700000000000E+00 -2.7033848398727E-01  1.3443222847792E+00
119  1.1800000000000E+00 -2.5393879082129E-01  1.3254734251564E+00
120  1.1900000000000E+00 -2.3773858716139E-01  1.3046630983775E+00
121  1.2000000000000E+00 -2.2180903151248E-01  1.2818989956921E+00
122  1.2100000000000E+00 -2.0621660130939E-01  1.2571966446378E+00
123  1.2200000000000E+00 -1.9102277088807E-01  1.2305802296427E+00
124  1.2300000000000E+00 -1.7628372403352E-01  1.2020833769720E+00
125  1.2400000000000E+00 -1.6205010455461E-01  1.1717498863821E+00
126  1.2500000000000E+00 -1.4836680809285E-01  1.1396343920424E+00
127  1.2600000000000E+00 -1.3527281807660E-01  1.1058029357834E+00
128  1.2700000000000E+00 -1.2280108838041E-01  1.0703334365410E+00
129  1.2800000000000E+00 -1.1097847484905E-01  1.0333160409819E+00
130  1.2900000000000E+00 -9.9825717401167E-02  9.9485334168168E-01
131  1.3000000000000E+00 -8.9357473937519E-02  9.5506045090233E-01
132  1.3100000000000E+00 -7.9582406756207E-02  9.1406491992307E-01
133  1.3200000000000E+00 -7.0503321625690E-02  8.7200649600098E-01
134  1.3300000000000E+00 -6.2117359089200E-02  8.2903671135879E-01
135  1.3400000000000E+00 -5.4416236984508E-02  7.8531830105964E-01
136  1.3500000000000E+00 -4.7386542564574E-02  7.4102444921047E-01
137  1.3600000000000E+00 -4.1010072010065E-02  6.9633786557693E-01
138  1.3700000000000E+00 -3.5264214533880E-02  6.5144969739150E-01
139  1.3800000000000E+00 -3.0122377710810E-02  6.0655828379571E-01
140  1.3900000000000E+00 -2.5554450120153E-02  5.6186776298127E-01
141  1.4000000000000E+00 -2.1527296881759E-02  5.1758654460410E-01
142  1.4100000000000E+00 -1.8005283196209E-02  4.7392566243571E-01
143  1.4200000000000E+00 -1.4950820583526E-02  4.3109702440890E-01
144  1.4300000000000E+00 -1.2324930152635E-02  3.8931157919903E-01
145  1.4400000000000E+00 -1.0087816933944E-02  3.4877742021632E-01
146  1.4500000000000E+00 -8.1994490759319E-03  3.0969784933090E-01
147  1.4600000000000E+00 -6.6201355454765E-03  2.7226942380087E-01
148  1.4700000000000E+00 -5.3110958871881E-03  2.3668001068391E-01
149  1.4800000000000E+00 -4.2350155893529E-03  2.0310687348172E-01
150  1.4900000000000E+00 -3.3565806319026E-03  1.7171481621643E-01
151  1.5000000000000E+00 -2.6429875664683E-03  1.4265439059939E-01
152  1.5100000000000E+00 -2.0644073120712E-03  1.1606029541138E-01
153  1.5200000000000E+00 -1.5944671634954E-03  9.2049576394152E-02
154  1.5300000000000E+00 -1.2128942540326E-03  7.0702163586193E-02
155  1.5400000000000E+00 -9.0289227794193E-04  5.2081237554873E-02
156  1.5500000000000E+00 -6.4781566361756E-04  3.6262682229525E-02
157  1.5600000000000E+00 -4.3665380352500E-04  2.3295153049589E-02
158  1.5700000000000E+00 -2.6378885810764E-04  1.3201803006010E-02
159  1.5800000000000E+00 -1.2910702650871E-04  5.9815278577608E-03
160  1.5900000000000E+00 -3.7459818950009E-05  1.5916257155066E-03
161  1.6000000000000E+00 -9.0662753995324E-07  3.4862272035211E-05
162  1.6100000000000E+00  1.4753455065293E-07 -5.4809362080988E-06
163  1.6200000000000E+00 -1.1067705067034E-08  4.3598512485687E-07
164  1.63 -0. -0.
165  1.64  0.  0.
166  1.65  0.  0.
167  1.66  0.  0.
168  1.67  0.  0.
169  1.68  0.  0.
170  1.69  0.  0.
171  1.70  0.  0.
172  1.71  0.  0.
173  1.72  0.  0.
174  1.73  0.  0.
175  1.74  0.  0.
176  1.75  0.  0.
177  1.76  0.  0.
178  1.77  0.  0.
179  1.78  0.  0.
180  1.79  0.  0.
181  1.80  0.  0.
182  1.81  0.  0.
183  1.82  0.  0.
184  1.83  0.  0.
185  1.84  0.  0.
186  1.85  0.  0.
187  1.86  0.  0.
188  1.87  0.  0.
189  1.88  0.  0.
190  1.89  0.  0.
191  1.90  0.  0.
192  1.91  0.  0.
193  1.92  0.  0.
194  1.93  0.  0.
195  1.94  0.  0.
196  1.95  0.  0.
197  1.96  0.  0.
198  1.97  0.  0.
199  1.98  0.  0.
200  1.99  0.  0.
201  2.00  0.  0.
202  2.01  0.  0.
203  2.02  0.  0.
204  2.03  0.  0.
205  2.04  0.  0.
206  2.05  0.  0.
207  2.06  0.  0.
208  2.07  0.  0.
209  2.08  0.  0.
210  2.09  0.  0.
211  2.10  0.  0.
212  2.11  0.  0.
213  2.12  0.  0.
214  2.13  0.  0.
215  2.14  0.  0.
216  2.15  0.  0.
217  2.16  0.  0.
218  2.17  0.  0.
219  2.18  0.  0.
220  2.19  0.  0.
221  2.20  0.  0.
222  2.21  0.  0.
223  2.22  0.  0.
224  2.23  0.  0.
225  2.24  0.  0.
226  2.25  0.  0.
227  2.26  0.  0.
228  2.27  0.  0.
229  2.28  0.  0.
230  2.29  0.  0.
231  2.30  0.  0.
232  2.31  0.  0.
233  2.32  0.  0.
234  2.33  0.  0.
235  2.34  0.  0.
236  2.35  0.  0.
237  2.36  0.  0.
238  2.37  0.  0.
239  2.38  0.  0.
240  2.39  0.  0.
241  2.40  0.  0.
242  2.41  0.  0.
243  2.42  0.  0.
244  2.43  0.  0.
245  2.44  0.  0.
246  2.45  0.  0.
247  2.46  0.  0.
248  2.47  0.  0.
249  2.48  0.  0.
250  2.49  0.  0.
251  2.50  0.  0.
252  2.51  0.  0.
253  2.52  0.  0.
254  2.53  0.  0.
255  2.54  0.  0.
256  2.55  0.  0.
257  2.56  0.  0.
258  2.57  0.  0.
259  2.58  0.  0.
260  2.59  0.  0.
261  2.60  0.  0.
262  2.61  0.  0.
263  2.62  0.  0.
264  2.63  0.  0.
265  2.64  0.  0.
266  2.65  0.  0.
267  2.66  0.  0.
268  2.67  0.  0.
269  2.68  0.  0.
270  2.69  0.  0.
271  2.70  0.  0.
272  2.71  0.  0.
273  2.72  0.  0.
274  2.73  0.  0.
275  2.74  0.  0.
276  2.75  0.  0.
277  2.76  0.  0.
278  2.77  0.  0.
279  2.78  0.  0.
280  2.79  0.  0.
281  2.80  0.  0.
282  2.81  0.  0.
283  2.82  0.  0.
284  2.83  0.  0.
285  2.84  0.  0.
286  2.85  0.  0.
287  2.86  0.  0.
288  2.87  0.  0.
289  2.88  0.  0.
290  2.89  0.  0.
291  2.90  0.  0.
292  2.91  0.  0.
293  2.92  0.  0.
294  2.93  0.  0.
295  2.94  0.  0.
296  2.95  0.  0.
297  2.96  0.  0.
298  2.97  0.  0.
299  2.98  0.  0.
300  2.99  0.  0.
301  3.00  0.  0.
302  3.01  0.  0.
303  3.02  0.  0.
304  3.03  0.  0.
305  3.04  0.  0.
306  3.05  0.  0.
307  3.06  0.  0.
308  3.07  0.  0.
309  3.08  0.  0.
310  3.09  0.  0.
311  3.10  0.  0.
312  3.11  0.  0.
313  3.12  0.  0.
314  3.13  0.  0.
315  3.14  0.  0.
316  3.15  0.  0.
317  3.16  0.  0.
318  3.17  0.  0.
319  3.18  0.  0.
320  3.19  0.  0.
321  3.20  0.  0.
322  3.21  0.  0.
323  3.22  0.  0.
324  3.23  0.  0.
325  3.24  0.  0.
326  3.25  0.  0.
327  3.26  0.  0.
328  3.27  0.  0.
329  3.28  0.  0.
330  3.29  0.  0.
331  3.30  0.  0.
332  3.31  0.  0.
333  3.32  0.  0.
334  3.33  0.  0.
335  3.34  0.  0.
336  3.35  0.  0.
337  3.36  0.  0.
338  3.37  0.  0.
339  3.38  0.  0.
340  3.39  0.  0.
341  3.40  0.  0.
342  3.41  0.  0.
343  3.42  0.  0.
344  3.43  0.  0.
345  3.44  0.  0.
346  3.45  0.  0.
347  3.46  0.  0.
348  3.47  0.  0.
349  3.48  0.  0.
350  3.49  0.  0.
351  3.50  0.  0.
352  3.51  0.  0.
353  3.52  0.  0.
354  3.53  0.  0.
355  3.54  0.  0.
356  3.55  0.  0.
357  3.56  0.  0.
358  3.57  0.  0.
359  3.58  0.  0.
360  3.59  0.  0.
361  3.60  0.  0.
362  3.61  0.  0.
363  3.62  0.  0.
364  3.63  0.  0.
365  3.64  0.  0.
366  3.65  0.  0.
367  3.66  0.  0.
368  3.67  0.  0.
369  3.68  0.  0.
370  3.69  0.  0.
371  3.70  0.  0.
372  3.71  0.  0.
373  3.72  0.  0.
374  3.73  0.  0.
375  3.74  0.  0.
376  3.75  0.  0.
377  3.76  0.  0.
378  3.77  0.  0.
379  3.78  0.  0.
380  3.79  0.  0.
381  3.80  0.  0.
382  3.81  0.  0.
383  3.82  0.  0.
384  3.83  0.  0.
385  3.84  0.  0.
386  3.85  0.  0.
387  3.86  0.  0.
388  3.87  0.  0.
389  3.88  0.  0.
390  3.89  0.  0.
391  3.90  0.  0.
392  3.91  0.  0.
393  3.92  0.  0.
394  3.93  0.  0.
395  3.94  0.  0.
396  3.95  0.  0.
397  3.96  0.  0.
398  3.97  0.  0.
399  3.98  0.  0.
400  3.99  0.  0.
401  4.00  0.  0.
402  4.01  0.  0.
403  4.02  0.  0.
404  4.03  0.  0.
405  4.04  0.  0.
406  4.05  0.  0.
407  4.06  0.  0.
408  4.07  0.  0.
409  4.08  0.  0.
410  4.09  0.  0.
411  4.10  0.  0.
412  4.11  0.  0.
413  4.12  0.  0.
414  4.13  0.  0.
415  4.14  0.  0.
416  4.15  0.  0.
417  4.16  0.  0.
418  4.17  0.  0.
419  4.18  0.  0.
420  4.19  0.  0.
421  4.20  0.  0.
422  4.21  0.  0.
423  4.22  0.  0.
424  4.23  0.  0.
425  4.24  0.  0.
426  4.25  0.  0.
427  4.26  0.  0.
428  4.27  0.  0.
429  4.28  0.  0.
430  4.29  0.  0.
431  4.30  0.  0.
432  4.31  0.  0.
433  4.32  0.  0.
434  4.33  0.  0.
435  4.34  0.  0.
436  4.35  0.  0.
437  4.36  0.  0.
438  4.37  0.  0.
439  4.38  0.  0.
440  4.39  0.  0.
441  4.40  0.  0.
442  4.41  0.  0.
443  4.42  0.  0.
444  4.43  0.  0.
445  4.44  0.  0.
446  4.45  0.  0.
447  4.46  0.  0.
448  4.47  0.  0.
449  4.48  0.  0.
450  4.49  0.  0.
451  4.50  0.  0.
452  4.51  0.  0.
453  4.52  0.  0.
454  4.53  0.  0.
455  4.54  0.  0.
456  4.55  0.  0.
457  4.56  0.  0.
458  4.57  0.  0.
459  4.58  0.  0.
460  4.59  0.  0.
461  4.60  0.  0.
462  4.61  0.  0.
463  4.62  0.  0.
464  4.63  0.  0.
465  4.64  0.  0.
466  4.65  0.  0.
467  4.66  0.  0.
468  4.67  0.  0.
469  4.68  0.  0.
470  4.69  0.  0.
471  4.70  0.  0.
472  4.71  0.  0.
473  4.72  0.  0.
474  4.73  0.  0.
475  4.74  0.  0.
476  4.75  0.  0.
477  4.76  0.  0.
478  4.77  0.  0.
479  4.78  0.  0.
480  4.79  0.  0.
481  4.80  0.  0.
482  4.81  0.  0.
483  4.82  0.  0.
484  4.83  0.  0.
485  4.84  0.  0.
486  4.85  0.  0.
487  4.86  0.  0.
488  4.87  0.  0.
489  4.88  0.  0.
490  4.89  0.  0.
491  4.90  0.  0.
492  4.91  0.  0.
493  4.92  0.  0.
494  4.93  0.  0.
495  4.94  0.  0.
496  4.95  0.  0.
497  4.96  0.  0.
498  4.97  0.  0.
499  4.98  0.  0.
500  4.99  0.  0.
501  5.00  0.  0.
502  5.01  0.  0.
503  5.02  0.  0.
504  5.03  0.  0.
505  5.04  0.  0.
506  5.05  0.  0.
507  5.06  0.  0.
508  5.07  0.  0.
509  5.08  0.  0.
510  5.09  0.  0.
511  5.10  0.  0.
512  5.11  0.  0.
513  5.12  0.  0.
514  5.13  0.  0.
515  5.14  0.  0.
516  5.15  0.  0.
517  5.16  0.  0.
518  5.17  0.  0.
519  5.18  0.  0.
520  5.19  0.  0.
521  5.20  0.  0.
522  5.21  0.  0.
523  5.22  0.  0.
524  5.23  0.  0.
525  5.24  0.  0.
526  5.25  0.  0.
527  5.26  0.  0.
528  5.27  0.  0.
529  5.28  0.  0.
530  5.29  0.  0.
531  5.30  0.  0.
532  5.31  0.  0.
533  5.32  0.  0.
534  5.33  0.  0.
535  5.34  0.  0.
536  5.35  0.  0.
537  5.36  0.  0.
538  5.37  0.  0.
539  5.38  0.  0.
540  5.39  0.  0.
541  5.40  0.  0.
542  5.41  0.  0.
543  5.42  0.  0.
544  5.43  0.  0.
545  5.44  0.  0.
546  5.45  0.  0.
547  5.46  0.  0.
548  5.47  0.  0.
549  5.48  0.  0.
550  5.49  0.  0.
551  5.50  0.  0.
552  5.51  0.  0.
553  5.52  0.  0.
554  5.53  0.  0.
555  5.54  0.  0.
556  5.55  0.  0.
557  5.56  0.  0.
558  5.57  0.  0.
559  5.58  0.  0.
560  5.59  0.  0.
561  5.60  0.  0.
562  5.61  0.  0.
563  5.62  0.  0.
564  5.63  0.  0.
565  5.64  0.  0.
566  5.65  0.  0.
567  5.66  0.  0.
568  5.67  0.  0.
569  5.68  0.  0.
570  5.69  0.  0.
571  5.70  0.  0.
572  5.71  0.  0.
573  5.72  0.  0.
574  5.73  0.  0.
575  5.74  0.  0.
576  5.75  0.  0.
577  5.76  0.  0.
578  5.77  0.  0.
579  5.78  0.  0.
580  5.79  0.  0.
581  5.80  0.  0.
582  5.81  0.  0.
583  5.82  0.  0.
584  5.83  0.  0.
585  5.84  0.  0.
586  5.85  0.  0.
587  5.86  0.  0.
588  5.87  0.  0.
589  5.88  0.  0.
590  5.89  0.  0.
591  5.90  0.  0.
592  5.91  0.  0.
593  5.92  0.  0.
594  5.93  0.  0.
595  5.94  0.  0.
596  5.95  0.  0.
597  5.96  0.  0.
598  5.97  0.  0.
599  5.98  0.  0.
600  5.99  0.  0.
1                         6.0404704076636E+00 -5.9140594019097E-01
1  0.0000000000000E+00  3.1169414271837E-10 -8.7589839964375E-09
2  1.0000000000000E-02  1.3594781718874E-03  1.0196018938806E-03
3  2.0000000000000E-02  5.4330291242137E-03  4.0809523842974E-03
4  3.0000000000000E-02  1.2206023587204E-02  9.1914724450468E-03
5  4.0000000000000E-02  2.1654150667547E-02  1.6362824086854E-02
6  5.0000000000000E-02  3.3743524063325E-02  2.5609869133219E-02
7  6.0000000000000E-02  4.8430829535925E-02  3.6949247505233E-02
8  7.0000000000000E-02  6.5663512433203E-02  5.0397610111964E-02
9  8.0000000000000E-02  8.5380003746444E-02  6.5969550202023E-02
10  9.0000000000000E-02  1.0750998289561E-01  8.3675284874293E-02
11  1.0000000000000E-01  1.3197467517736E-01  1.0351814520482E-01
12  1.1000000000000E-01  1.5868718158208E-01  1.2549193897868E-01
13  1.2000000000000E-01  1.8755283849292E-01  1.4957825419916E-01
14  1.3000000000000E-01  2.1846960462405E-01  1.7574377428843E-01
15  1.4000000000000E-01  2.5132847243889E-01  2.0393767712956E-01
16  1.5000000000000E-01  2.8601390121274E-01  2.3408918979358E-01
17  1.6000000000000E-01  3.2240426886872E-01  2.6610536894384E-01
18  1.7000000000000E-01  3.6037233972008E-01  2.9986917353984E-01
19  1.8000000000000E-01  3.9978574529534E-01  3.3523789163189E-01
20  1.9000000000000E-01  4.4050747550242E-01  3.7204197683270E-01
21  2.0000000000000E-01  4.8239637750184E-01  4.1008434258865E-01
22  2.1000000000000E-01  5.2530765980366E-01  4.4914015379182E-01
23  2.2000000000000E-01  5.6909339927429E-01  4.8895714573891E-01
24  2.3000000000000E-01  6.1360304893277E-01  5.2925649013895E-01
25  2.4000000000000E-01  6.5868394462741E-01  5.6973421699890E-01
26  2.5000000000000E-01  7.0418180890707E-01  6.1006318998864E-01
27  2.6000000000000E-01  7.4994125063205E-01  6.4989562152755E-01
28  2.7000000000000E-01  7.9580625910145E-01  6.8886610256808E-01
29  2.8000000000000E-01  8.4162069170220E-01  7.2659511110723E-01
30  2.9000000000000E-01  8.8722875430413E-01  7.6269295305360E-01
31  3.0000000000000E-01  9.3247547383002E-01  7.9676407943042E-01
32  3.1000000000000E-01  9.7720716261587E-01  8.2841171520309E-01
33  3.2000000000000E-01  1.0212718743390E+00  8.5724272746569E-01
34  3.3000000000000E-01  1.0645198514278E+00  8.8287265446761E-01
35  3.4000000000000E-01  1.1068039639716E+00  9.0493081214473E-01
36  3.5000000000000E-01  1.1479801402241E+00  9.2306539155264E-01
37  3.6000000000000E-01  1.1879077888304E+00  9.3694845896123E-01
38  3.7000000000000E-01  1.2264502129129E+00  9.4628077041253E-01
39  3.8000000000000E-01  1.2634750161200E+00  9.5079631428342E-01
40  3.9000000000000E-01  1.2988545006738E+00  9.5026649881704E-01
41  4.0000000000000E-01  1.3324660573551E+00  9.4450390664308E-01
42  4.1000000000000E-01  1.3641925472340E+00  9.3336554491667E-01
43  4.2000000000000E-01  1.3939226747969E+00  9.1675552775646E-01
44  4.3000000000000E-01  1.4215513519385E+00  8.9462713701481E-01
45  4.4000000000000E-01  1.4469800520880E+00  8.6698421789766E-01
46  4.5000000000000E-01  1.4701171535225E+00  8.3388187737928E-01
47  4.6000000000000E-01  1.4908782706968E+00  7.9542646551521E-01
48  4.7000000000000E-01  1.5091865721929E+00  7.5177483241850E-01
49  4.8000000000000E-01  1.5249730836648E+00  7.0313286659043E-01
50  4.9000000000000E-01  1.5381769739430E+00  6.4975333324048E-01
51  5.0000000000000E-01  1.5487458222601E+00  5.9193304394252E-01
52  5.1000000000000E-01  1.5566358643821E+00  5.3000940120679E-01
53  5.2000000000000E-01  1.5618122152767E+00  4.6435637306217E-01
54  5.3000000000000E-01  1.5642490658329E+00  3.9537996330942E-01
55  5.4000000000000E-01  1.5639298510638E+00  3.2351325251388E-01
56  5.5000000000000E-01  1.5608473871834E+00  2.4921109286219E-01
57  5.6000000000000E-01  1.5550039749590E+00  1.7294454654607E-01
58  5.7000000000000E-01  1.5464114667875E+00  9.5195162216918E-02
59  5.8000000000000E-01  1.5350912950575E+00  1.6449187170511E-02
60  5.9000000000000E-01  1.5210744595064E+00 -6.2808185804245E-02
61  6.0000000000000E-01  1.5044014714973E+00 -1.4209843858346E-01
62  6.1000000000000E-01  1.4851222533925E+00 -2.2095511903406E-01
63  6.2000000000000E-01  1.4632959915108E+00 -2.9892891200759E-01
64  6.3000000000000E-01  1.4389909415086E+00 -3.7559230462338E-01
65  6.4000000000000E-01  1.4122841854180E+00 -4.5054376826179E-01
66  6.5000000000000E-01  1.3832613400088E+00 -5.2341138902193E-01
67  6.6000000000000E-01  1.3520162166048E+00 -5.9385588910422E-01
68  6.7000000000000E-01  1.3186504329733E+00 -6.6157299345057E-01
69  6.8000000000000E-01  1.2832729784159E+00 -7.2629510879662E-01
70  6.9000000000000E-01  1.2459997337053E+00 -7.8779229581267E-01
71  7.0000000000000E-01  1.2069529480354E+00 -8.4587252897835E-01
72  7.1000000000000E-01  1.1662606756672E+00 -9.0038125297262E-01
73  7.2000000000000E-01  1.1240561754548E+00 -9.5120025839539E-01
74  7.3000000000000E-01  1.0804772769182E+00 -9.9824591328491E-01
75  7.4000000000000E-01  1.0356657169740E+00 -1.0414667998885E+00
76  7.5000000000000E-01  9.8976645185444E-01 -1.0808408182150E+00
77  7.6000000000000E-01  9.4292694910185E-01 -1.1163718288018E+00
78  7.7000000000000E-01  8.9529646484763E-01 -1.1480859166350E+00
79  7.8000000000000E-01  8.4702531183299E-01 -1.1760273660691E+00
80  7.9000000000000E-01  7.9826412382343E-01 -1.2002544427289E+00
81  8.0000000000000E-01  7.4916312219006E-01 -1.2208350825966E+00
82  8.1000000000000E-01  6.9987139048260E-01 -1.2378425906923E+00
83  8.2000000000000E-01  6.5053616279666E-01 -1.2513514518747E+00
84  8.3000000000000E-01  6.0130213164115E-01 -1.2614333543022E+00
85  8.4000000000000E-01  5.5231078084085E-01 -1.2681535220112E+00
86  8.5000000000000E-01  5.0369974876524E-01 -1.2715674469484E+00
87  8.6000000000000E-01  4.5560222686101E-01 -1.2717181027398E+00
88  8.7000000000000E-01  4.0814639808560E-01 -1.2686337126176E+00
89  8.8000000000000E-01  3.6145491939768E-01 -1.2623261324473E+00
90  8.9000000000000E-01  3.1564445196420E-01 -1.2527898968914E+00
91  9.0000000000000E-01  2.7082524219847E-01 -1.2400019626751E+00
92  9.1000000000000E-01  2.2710075615905E-01 -1.2239221679247E+00
93  9.2000000000000E-01  1.8456736922194E-01 -1.2044944109442E+00
94  9.3000000000000E-01  1.4331411229911E-01 -1.1816485358615E+00
95  9.4000000000000E-01  1.0342247522338E-01 -1.1553028966429E+00
96  9.5000000000000E-01  6.4966267264088E-02 -1.1253675553523E+00
97  9.6000000000000E-01  2.8011534087966E-02 -1.0917480555435E+00
98  9.7000000000000E-01 -7.3834701527368E-03 -1.0543496976259E+00
99  9.8000000000000E-01 -4.1168257530176E-02 -1.0130822302322E+00
100  9.9000000000000E-01 -7.3300030345511E-02 -9.6786486031408E-01
101  1.0000000000000E+00 -1.0374355745279E-01 -9.1863147515910E-01
102  1.0100000000000E+00 -1.3247100640254E-01 -8.6533596196236E-01
103  1.0200000000000E+00 -1.5946173532302E-01 -8.0795750519618E-01
104  1.0300000000000E+00 -1.8470204880955E-01 -7.4650573894197E-01
105  1.0400000000000E+00 -2.0818492237500E-01 -6.8102563067919E-01
106  1.0500000000000E+00 -2.2990970022433E-01 -6.1160197482616E-01
107  1.0600000000000E+00 -2.4988177124907E-01 -5.3836337861005E-01
108  1.0700000000000E+00 -2.6811222819465E-01 -4.6148562955201E-01
109  1.0800000000000E+00 -2.8461751493246E-01 -3.8119434294433E-01
110  1.0900000000000E+00 -2.9941906667264E-01 -2.9776679896720E-01
111  1.1000000000000E+00 -3.1254294778498E-01 -2.1153289245419E-01
112  1.1100000000000E+00 -3.2401949165720E-01 -1.2287513345967E-01
113  1.1200000000000E+00 -3.3388294671900E-01 -3.2227653517751E-02
114  1.1300000000000E+00 -3.4217113240111E-01  5.9925809514377E-02
115  1.1400000000000E+00 -3.4892510838974E-01  1.5305495619170E-01
116  1.1500000000000E+00 -3.5418886008496E-01  2.4658698838157E-01
117  1.1600000000000E+00 -3.5800900268678E-01  3.3991165911803E-01
118  1.1700000000000E+00 -3.6043450582295E-01  4.3238725851032E-01
119  1.1800000000000E+00 -3.6151644010726E-01  5.2334746560948E-01
120  1.1900000000000E+00 -3.6130774648872E-01  6.1210897785370E-01
121  1.2000000000000E+00 -3.5986302872397E-01  6.9797981257485E-01
122  1.2100000000000E+00 -3.5723836879692E-01  7.8026815961478E-01
123  1.2200000000000E+00 -3.5349116461783E-01  8.5829165040620E-01
124  1.2300000000000E+00 -3.4867998887966E-01  9.3138689750050E-01
125  1.2400000000000E+00 -3.4286446753122E-01  9.9891914948970E-01
126  1.2500000000000E+00 -3.3610517595603E-01  1.0602918999203E+00
127  1.2600000000000E+00 -3.2846355062942E-01  1.1149562852462E+00
128  1.2700000000000E+00 -3.2000181376556E-01  1.1624201062292E+00
129  1.2800000000000E+00 -3.1078290826943E-01  1.2022563095614E+00
130  1.2900000000000E+00 -3.0087044017569E-01  1.2341107717925E+00
131  1.3000000000000E+00 -2.9032862568946E-01  1.2577092359575E+00
132  1.3100000000000E+00 -2.7922223994368E-01  1.2728632624243E+00
133  1.3200000000000E+00 -2.6761656465235E-01  1.2794750692435E+00
134  1.3300000000000E+00 -2.5557733196611E-01  1.2775411536152E+00
135  1.3400000000000E+00 -2.4317066202347E-01  1.2671546045739E+00
136  1.3500000000000E+00 -2.3046299193239E-01  1.2485060374530E+00
137  1.3600000000000E+00 -2.1752099420515E-01  1.2218831026226E+00
138  1.3700000000000E+00 -2.0441148300325E-01  1.1876685443651E+00
139  1.3800000000000E+00 -1.9120130691440E-01  1.1463368097134E+00
140  1.3900000000000E+00 -1.7795722737735E-01  1.0984492316223E+00
141  1.4000000000000E+00 -1.6474578228042E-01  1.0446478351949E+00
142  1.4100000000000E+00 -1.5163313468176E-01  9.8564783980936E-01
143  1.4200000000000E+00 -1.3868490701908E-01  9.2222895304216E-01
144  1.4300000000000E+00 -1.2596600158926E-01  8.5522557412849E-01
145  1.4400000000000E+00 -1.1354040847375E-01  7.8551604487317E-01
146  1.4500000000000E+00 -1.0147100245460E-01  7.1401110394724E-01
147  1.4600000000000E+00 -8.9819330803874E-02  6.4164171627077E-01
148  1.4700000000000E+00 -7.8645394125225E-02  5.6934646213002E-01
149  1.4800000000000E+00 -6.8007422677194E-02  4.9805868074252E-01
150  1.4900000000000E+00 -5.7961650784201E-02  4.2869357069626E-01
151  1.5000000000000E+00 -4.8562093518251E-02  3.6213540930142E-01
152  1.5100000000000E+00 -3.9860319350387E-02  2.9922531772009E-01
153  1.5200000000000E+00 -3.1905264694715E-02  2.4074899514754E-01
154  1.5300000000000E+00 -2.4744185290459E-02  1.8738189061464E-01
155  1.5400000000000E+00 -1.8420827581664E-02  1.3972791864452E-01
156  1.5500000000000E+00 -1.2973456143863E-02  9.8386471069381E-02
157  1.5600000000000E+00 -8.4375472747286E-03  6.3854810191022E-02
158  1.5700000000000E+00 -4.8454016561104E-03  3.6526149211209E-02
159  1.5800000000000E+00 -2.2266694222836E-03  1.6688890678484E-02
160  1.5900000000000E+00 -6.0138796560134E-04  4.4737835719605E-03
161  1.6000000000000E+00 -1.3390749567458E-05  9.8623534203917E-05
162  1.6100000000000E+00  2.1210081544866E-06 -1.5573881530865E-05
163  1.6200000000000E+00 -1.6700406330928E-07  1.2336788764037E-06
164  1.63 -0.  0.
165  1.64  0.  0.
166  1.65  0.  0.