Np    ONCVPSP-4.0.1  r_core=   1.25290   1.25290   1.50818   1.50818
93.0000     33.0000      231012    zatom,zion,pspd
8   -1012   3     4   600     0    pspcod,pspxc,lmax,lloc,mmax,r2well
5.99000000  4.00000000  0.00000000    rchrg fchrg qchrg
3     2     2     2     0    nproj
1     1           extension_switch
0                         2.2422251894489E+01  2.4292758837921E+00 -1.1998205769610E+00
1  0.0000000000000E+00 -4.2822347667837E-08  1.5087072924302E-07 -4.8204232550031E-09
2  1.0000000000000E-02  1.4435218839353E-01 -7.3981218075457E-02  2.8842707305732E-02
3  2.0000000000000E-02  2.8770306059705E-01 -1.4622534863311E-01  5.7555098781662E-02
4  3.0000000000000E-02  4.2906584893415E-01 -2.1503860982063E-01  8.6008590403621E-02
5  4.0000000000000E-02  5.6748250945913E-01 -2.7881254135212E-01  1.1407802303069E-01
6  5.0000000000000E-02  7.0203716221190E-01 -3.3606348184068E-01  1.4164327935481E-01
7  6.0000000000000E-02  8.3186845773043E-01 -3.8546833935783E-01  1.6859078992816E-01
8  7.0000000000000E-02  9.5618056443516E-01 -4.2589560464782E-01  1.9481489725891E-01
9  8.0000000000000E-02  1.0742525143226E+00 -4.5643070729548E-01  2.2021905178621E-01
10  9.0000000000000E-02  1.1854456952630E+00 -4.7639499437858E-01  2.4471681921872E-01
11  1.0000000000000E-01  1.2892093354450E+00 -4.8535781295096E-01  2.6823268503123E-01
12  1.1000000000000E-01  1.3850838872835E+00 -4.8314139557603E-01  2.9070264862236E-01
13  1.2000000000000E-01  1.4727022824138E+00 -4.6981847504511E-01  3.1207460648641E-01
14  1.3000000000000E-01  1.5517890941460E+00 -4.4570278304103E-01  3.3230853048377E-01
15  1.4000000000000E-01  1.6221577068523E+00 -4.1133281048378E-01  3.5137645364948E-01
16  1.5000000000000E-01  1.6837056511773E+00 -3.6744941743598E-01  3.6926228171461E-01
17  1.6000000000000E-01  1.7364083177682E+00 -3.1496807098975E-01  3.8596145341070E-01
18  1.7000000000000E-01  1.7803113087029E+00 -2.5494665438942E-01  4.0148047649407E-01
19  1.8000000000000E-01  1.8155217234426E+00 -1.8854992447334E-01  4.1583636911491E-01
20  1.9000000000000E-01  1.8421987037779E+00 -1.1701179308205E-01  4.2905603756133E-01
21  2.0000000000000E-01  1.8605435789819E+00 -4.1596668246352E-02  4.4117562147504E-01
22  2.1000000000000E-01  1.8707899577398E+00  3.6438889128826E-02  4.5223983636019E-01
23  2.2000000000000E-01  1.8731941072499E+00  1.1588295830039E-01  4.6230134063904E-01
24  2.3000000000000E-01  1.8680259424347E+00  1.9560232765448E-01  4.7142015074780E-01
25  2.4000000000000E-01  1.8555609200770E+00  2.7457276480624E-01  4.7966312296212E-01
26  2.5000000000000E-01  1.8360730948790E+00  3.5190454672548E-01  4.8710351498506E-01
27  2.6000000000000E-01  1.8098295482134E+00  4.2686247272141E-01  4.9382063404913E-01
28  2.7000000000000E-01  1.7770863472658E+00  4.9887977192348E-01  4.9989957163311E-01
29  2.8000000000000E-01  1.7380861341394E+00  5.6756552431305E-01  5.0543101814947E-01
30  2.9000000000000E-01  1.6930573832750E+00  6.3270543359330E-01  5.1051114440082E-01
31  3.0000000000000E-01  1.6422153032716E+00  6.9425601402005E-01  5.1524153051646E-01
32  3.1000000000000E-01  1.5857642979900E+00  7.5233247440775E-01  5.1972911773020E-01
33  3.2000000000000E-01  1.5239018437189E+00  8.0719079363228E-01  5.2408615399454E-01
34  3.3000000000000E-01  1.4568235861515E+00  8.5920467615078E-01  5.2843010125552E-01
35  3.4000000000000E-01  1.3847294147331E+00  9.0883824700043E-01  5.3288347041018E-01
36  3.5000000000000E-01  1.3078302341649E+00  9.5661548783348E-01  5.3757354965542E-01
37  3.6000000000000E-01  1.2263551247614E+00  1.0030875241525E+00  5.4263199318386E-01
38  3.7000000000000E-01  1.1405585659143E+00  1.0487989455093E+00  5.4819423999777E-01
39  3.8000000000000E-01  1.0507273907297E+00  1.0942543726790E+00  5.5439873694916E-01
40  3.9000000000000E-01  9.5718714519583E-01  1.1398864777280E+00  5.6138594586409E-01
41  4.0000000000000E-01  8.6030754186783E-01  1.1860266147256E+00  5.6929712160804E-01
42  4.1000000000000E-01  7.6050672549073E-01  1.2328791322495E+00  5.7827285598176E-01
43  4.2000000000000E-01  6.5825410533743E-01  1.2805003166651E+00  5.8845139114215E-01
44  4.3000000000000E-01  5.5407155510052E-01  1.3287827614544E+00  5.9996671552422E-01
45  4.4000000000000E-01  4.4853283443726E-01  1.3774457777223E+00  6.1294646467457E-01
46  4.5000000000000E-01  3.4226114498068E-01  1.4260322603243E+00  6.2750965865583E-01
47  4.6000000000000E-01  2.3592479586680E-01  1.4739122094555E+00  6.4376431640319E-01
48  4.7000000000000E-01  1.3023101754379E-01  1.5202928860543E+00  6.6180499527545E-01
49  4.8000000000000E-01  2.5918025720484E-02  1.5642353582696E+00  6.8171031073203E-01
50  4.9000000000000E-01 -7.6254502291610E-02  1.6046769827407E+00  7.0354049630425E-01
51  5.0000000000000E-01 -1.7551632088865E-01  1.6404591655405E+00  7.2733506757732E-01
52  5.1000000000000E-01 -2.7109861200559E-01  1.6703595697784E+00  7.5311065557532E-01
53  5.2000000000000E-01 -3.6224677531498E-01  1.6931277858535E+00  7.8085907462005E-01
54  5.3000000000000E-01 -4.4823367312426E-01  1.7075233610562E+00  8.1054568735845E-01
55  5.4000000000000E-01 -5.2837296933646E-01  1.7123550014587E+00  8.4210812523223E-01
56  5.5000000000000E-01 -6.0203219212175E-01  1.7065197134777E+00  8.7545541627747E-01
57  5.6000000000000E-01 -6.6864515180616E-01  1.6890406465192E+00  9.1046756394137E-01
58  5.7000000000000E-01 -7.2772335887004E-01  1.6591024318230E+00  9.4699561079927E-01
59  5.8000000000000E-01 -7.7886611143564E-01  1.6160828848063E+00  9.8486220992114E-01
60  5.9000000000000E-01 -8.2176895643125E-01  1.5595800464202E+00  1.0238627144922E+00
61  6.0000000000000E-01 -8.5623027262239E-01  1.4894336796424E+00  1.0637667834993E+00
62  6.1000000000000E-01 -8.8215577549551E-01  1.4057405055978E+00  1.1043204882414E+00
63  6.2000000000000E-01 -8.9956080190300E-01  1.3088626543802E+00  1.1452488915087E+00
64  6.3000000000000E-01 -9.0857029458548E-01  1.1994290122302E+00  1.1862590589129E+00
65  6.4000000000000E-01 -9.0941647120137E-01  1.0783293625959E+00  1.2270434504173E+00
66  6.5000000000000E-01 -9.0243422728172E-01  9.4670143682954E-01  1.2672836299947E+00
67  6.6000000000000E-01 -8.8805438555562E-01  8.0591120385492E-01  1.3066542228338E+00
68  6.7000000000000E-01 -8.6679496340856E-01  6.5752693034534E-01  1.3448270429236E+00
69  6.8000000000000E-01 -8.3925068402065E-01  5.0328772742657E-01  1.3814753093548E+00
70  6.9000000000000E-01 -8.0608100336333E-01  3.4506746097833E-01  1.4162778674606E+00
71  7.0000000000000E-01 -7.6799696334392E-01  1.8483503539309E-01  1.4489233310240E+00
72  7.1000000000000E-01 -7.2574720988917E-01  2.4612161241765E-02  1.4791140642172E+00
73  7.2000000000000E-01 -6.8010353290168E-01 -1.3357021709375E-01  1.5065699266202E+00
74  7.3000000000000E-01 -6.3184629238945E-01 -2.8771562878155E-01  1.5310317114308E+00
75  7.4000000000000E-01 -5.8175009160152E-01 -4.3590472193012E-01  1.5522642156131E+00
76  7.5000000000000E-01 -5.3057004399402E-01 -5.7633569439616E-01  1.5700588909322E+00
77  7.6000000000000E-01 -4.7902895692483E-01 -7.0736143609350E-01  1.5842360362682E+00
78  7.7000000000000E-01 -4.2780572207086E-01 -8.2752241889908E-01  1.5946465038957E+00
79  7.8000000000000E-01 -3.7752516187969E-01 -9.3557450762254E-01  1.6011729051724E+00
80  7.9000000000000E-01 -3.2874953434597E-01 -1.0305110254369E+00  1.6037303138622E+00
81  8.0000000000000E-01 -2.8197184664446E-01 -1.1115785842440E+00  1.6022664777334E+00
82  8.1000000000000E-01 -2.3761107337810E-01 -1.1782863788248E+00  1.5967615607075E+00
83  8.2000000000000E-01 -1.9600931918694E-01 -1.2304088371935E+00  1.5872274483346E+00
84  8.3000000000000E-01 -1.5743090998406E-01 -1.2679817122328E+00  1.5737066584176E+00
85  8.4000000000000E-01 -1.2206334383577E-01 -1.2912918854985E+00  1.5562709059308E+00
86  8.5000000000000E-01 -9.0019983072979E-02 -1.3008613274786E+00  1.5350193767875E+00
87  8.6000000000000E-01 -6.1344325012100E-02 -1.2974258145740E+00  1.5100767683823E+00
88  8.7000000000000E-01 -3.6015650871007E-02 -1.2819091373258E+00  1.4815911561103E+00
89  8.8000000000000E-01 -1.3955822032207E-02 -1.2553936434716E+00  1.4497317442940E+00
90  8.9000000000000E-01  4.9630296012989E-03 -1.2190880407066E+00  1.4146865572204E+00
91  9.0000000000000E-01  2.0910184406900E-02 -1.1742934359604E+00  1.3766601215006E+00
92  9.1000000000000E-01  3.4087663742768E-02 -1.1223686099783E+00  1.3358711849529E+00
93  9.2000000000000E-01  4.4721474465267E-02 -1.0646955183658E+00  1.2925505099796E+00
94  9.3000000000000E-01  5.3053028487037E-02 -1.0026459742906E+00  1.2469387713131E+00
95  9.4000000000000E-01  5.9330978716385E-02 -9.3755040582731E-01  1.1992845794220E+00
96  9.5000000000000E-01  6.3803688518825E-02 -8.7066949525349E-01  1.1498426421913E+00
97  9.6000000000000E-01  6.6712522351910E-02 -8.0316940181225E-01  1.0988720691293E+00
98  9.7000000000000E-01  6.8286111581180E-02 -7.3610114731961E-01  1.0466348146782E+00
99  9.8000000000000E-01  6.8735712842467E-02 -6.7038460939511E-01  9.9339425059267E-01
100  9.9000000000000E-01  6.8251737880558E-02 -6.0679742415670E-01  9.3941385209634E-01
101  1.0000000000000E+00  6.7001494662579E-02 -5.4596895274179E-01  8.8495597890792E-01
102  1.0100000000000E+00  6.5128140775862E-02 -4.8837931766844E-01  8.3028073042405E-01
103  1.0200000000000E+00  6.2750812502683E-02 -4.3436336881345E-01  7.7564485448598E-01
104  1.0300000000000E+00  5.9965857247101E-02 -3.8411929739039E-01  7.2130069127265E-01
105  1.0400000000000E+00  5.6849063616872E-02 -3.3772148155649E-01  6.6749513790115E-01
106  1.0500000000000E+00  5.3458752604089E-02 -2.9513702000302E-01  6.1446862515747E-01
107  1.0600000000000E+00  4.9839565020139E-02 -2.5624529071413E-01  5.6245410518800E-01
108  1.0700000000000E+00  4.6026754249841E-02 -2.2085976006589E-01  5.1167605766326E-01
109  1.0800000000000E+00  4.2050768935938E-02 -1.8875116105328E-01  4.6234953152364E-01
110  1.0900000000000E+00  3.7941886687298E-02 -1.5967105679421E-01  4.1467924944473E-01
111  1.1000000000000E+00  3.3734636129609E-02 -1.3337470275405E-01  3.6885881219589E-01
112  1.1100000000000E+00  2.9471719557266E-02 -1.0964201543992E-01  3.2507004949057E-01
113  1.1200000000000E+00  2.5207120545278E-02 -8.8295341565798E-02  2.8348257224600E-01
114  1.1300000000000E+00  2.1008048749002E-02 -6.9212595629963E-02  2.4425358774228E-01
115  1.1400000000000E+00  1.6955336102927E-02 -5.2334190105546E-02  2.0752804344362E-01
116  1.1500000000000E+00  1.3141853092129E-02 -3.7662015789980E-02  1.7343916661368E-01
117  1.1600000000000E+00  9.6684590761422E-03 -2.5248534953969E-02  1.4210946477828E-01
118  1.1700000000000E+00  6.6369616250485E-03 -1.5173900718555E-02  1.1365226593116E-01
119  1.1800000000000E+00  4.1392616448695E-03 -7.5080889598847E-03  8.8173700998578E-02
120  1.1900000000000E+00  2.2419503575327E-03 -2.2552677685803E-03  6.5775193636662E-02
121  1.2000000000000E+00  9.1144039118095E-04  8.8527490224938E-04  4.6514919744156E-02
122  1.2100000000000E+00  8.3675037182535E-05  2.3298027156329E-03  3.0480254769621E-02
123  1.2200000000000E+00 -2.9257474114385E-04  2.4518447507893E-03  1.7799191124345E-02
124  1.2300000000000E+00 -3.2511804366607E-04  1.7354247820065E-03  8.5318676491576E-03
125  1.2400000000000E+00 -1.6580212197647E-04  7.2774411007160E-04  2.6606523133464E-03
126  1.2500000000000E+00 -1.5917675219539E-05  6.1843737601191E-05  1.7501129093476E-04
127  1.2600000000000E+00  5.2294577758752E-07 -1.9466831843930E-06 -4.8864588783228E-06
128  1.2700000000000E+00  1.4531620283375E-07 -5.9258074478590E-07 -1.8714837062433E-06
129  1.28 -0.  0. -0.
130  1.29  0.  0.  0.
131  1.30  0.  0.  0.
132  1.31  0.  0.  0.
133  1.32  0.  0.  0.
134  1.33  0.  0.  0.
135  1.34  0.  0.  0.
136  1.35  0.  0.  0.
137  1.36  0.  0.  0.
138  1.37  0.  0.  0.
139  1.38  0.  0.  0.
140  1.39  0.  0.  0.
141  1.40  0.  0.  0.
142  1.41  0.  0.  0.
143  1.42  0.  0.  0.
144  1.43  0.  0.  0.
145  1.44  0.  0.  0.
146  1.45  0.  0.  0.
147  1.46  0.  0.  0.
148  1.47  0.  0.  0.
149  1.48  0.  0.  0.
150  1.49  0.  0.  0.
151  1.50  0.  0.  0.
152  1.51  0.  0.  0.
153  1.52  0.  0.  0.
154  1.53  0.  0.  0.
155  1.54  0.  0.  0.
156  1.55  0.  0.  0.
157  1.56  0.  0.  0.
158  1.57  0.  0.  0.
159  1.58  0.  0.  0.
160  1.59  0.  0.  0.
161  1.60  0.  0.  0.
162  1.61  0.  0.  0.
163  1.62  0.  0.  0.
164  1.63  0.  0.  0.
165  1.64  0.  0.  0.
166  1.65  0.  0.  0.
167  1.66  0.  0.  0.
168  1.67  0.  0.  0.
169  1.68  0.  0.  0.
170  1.69  0.  0.  0.
171  1.70  0.  0.  0.
172  1.71  0.  0.  0.
173  1.72  0.  0.  0.
174  1.73  0.  0.  0.
175  1.74  0.  0.  0.
176  1.75  0.  0.  0.
177  1.76  0.  0.  0.
178  1.77  0.  0.  0.
179  1.78  0.  0.  0.
180  1.79  0.  0.  0.
181  1.80  0.  0.  0.
182  1.81  0.  0.  0.
183  1.82  0.  0.  0.
184  1.83  0.  0.  0.
185  1.84  0.  0.  0.
186  1.85  0.  0.  0.
187  1.86  0.  0.  0.
188  1.87  0.  0.  0.
189  1.88  0.  0.  0.
190  1.89  0.  0.  0.
191  1.90  0.  0.  0.
192  1.91  0.  0.  0.
193  1.92  0.  0.  0.
194  1.93  0.  0.  0.
195  1.94  0.  0.  0.
196  1.95  0.  0.  0.
197  1.96  0.  0.  0.
198  1.97  0.  0.  0.
199  1.98  0.  0.  0.
200  1.99  0.  0.  0.
201  2.00  0.  0.  0.
202  2.01  0.  0.  0.
203  2.02  0.  0.  0.
204  2.03  0.  0.  0.
205  2.04  0.  0.  0.
206  2.05  0.  0.  0.
207  2.06  0.  0.  0.
208  2.07  0.  0.  0.
209  2.08  0.  0.  0.
210  2.09  0.  0.  0.
211  2.10  0.  0.  0.
212  2.11  0.  0.  0.
213  2.12  0.  0.  0.
214  2.13  0.  0.  0.
215  2.14  0.  0.  0.
216  2.15  0.  0.  0.
217  2.16  0.  0.  0.
218  2.17  0.  0.  0.
219  2.18  0.  0.  0.
220  2.19  0.  0.  0.
221  2.20  0.  0.  0.
222  2.21  0.  0.  0.
223  2.22  0.  0.  0.
224  2.23  0.  0.  0.
225  2.24  0.  0.  0.
226  2.25  0.  0.  0.
227  2.26  0.  0.  0.
228  2.27  0.  0.  0.
229  2.28  0.  0.  0.
230  2.29  0.  0.  0.
231  2.30  0.  0.  0.
232  2.31  0.  0.  0.
233  2.32  0.  0.  0.
234  2.33  0.  0.  0.
235  2.34  0.  0.  0.
236  2.35  0.  0.  0.
237  2.36  0.  0.  0.
238  2.37  0.  0.  0.
239  2.38  0.  0.  0.
240  2.39  0.  0.  0.
241  2.40  0.  0.  0.
242  2.41  0.  0.  0.
243  2.42  0.  0.  0.
244  2.43  0.  0.  0.
245  2.44  0.  0.  0.
246  2.45  0.  0.  0.
247  2.46  0.  0.  0.
248  2.47  0.  0.  0.
249  2.48  0.  0.  0.
250  2.49  0.  0.  0.
251  2.50  0.  0.  0.
252  2.51  0.  0.  0.
253  2.52  0.  0.  0.
254  2.53  0.  0.  0.
255  2.54  0.  0.  0.
256  2.55  0.  0.  0.
257  2.56  0.  0.  0.
258  2.57  0.  0.  0.
259  2.58  0.  0.  0.
260  2.59  0.  0.  0.
261  2.60  0.  0.  0.
262  2.61  0.  0.  0.
263  2.62  0.  0.  0.
264  2.63  0.  0.  0.
265  2.64  0.  0.  0.
266  2.65  0.  0.  0.
267  2.66  0.  0.  0.
268  2.67  0.  0.  0.
269  2.68  0.  0.  0.
270  2.69  0.  0.  0.
271  2.70  0.  0.  0.
272  2.71  0.  0.  0.
273  2.72  0.  0.  0.
274  2.73  0.  0.  0.
275  2.74  0.  0.  0.
276  2.75  0.  0.  0.
277  2.76  0.  0.  0.
278  2.77  0.  0.  0.
279  2.78  0.  0.  0.
280  2.79  0.  0.  0.
281  2.80  0.  0.  0.
282  2.81  0.  0.  0.
283  2.82  0.  0.  0.
284  2.83  0.  0.  0.
285  2.84  0.  0.  0.
286  2.85  0.  0.  0.
287  2.86  0.  0.  0.
288  2.87  0.  0.  0.
289  2.88  0.  0.  0.
290  2.89  0.  0.  0.
291  2.90  0.  0.  0.
292  2.91  0.  0.  0.
293  2.92  0.  0.  0.
294  2.93  0.  0.  0.
295  2.94  0.  0.  0.
296  2.95  0.  0.  0.
297  2.96  0.  0.  0.
298  2.97  0.  0.  0.
299  2.98  0.  0.  0.
300  2.99  0.  0.  0.
301  3.00  0.  0.  0.
302  3.01  0.  0.  0.
303  3.02  0.  0.  0.
304  3.03  0.  0.  0.
305  3.04  0.  0.  0.
306  3.05  0.  0.  0.
307  3.06  0.  0.  0.
308  3.07  0.  0.  0.
309  3.08  0.  0.  0.
310  3.09  0.  0.  0.
311  3.10  0.  0.  0.
312  3.11  0.  0.  0.
313  3.12  0.  0.  0.
314  3.13  0.  0.  0.
315  3.14  0.  0.  0.
316  3.15  0.  0.  0.
317  3.16  0.  0.  0.
318  3.17  0.  0.  0.
319  3.18  0.  0.  0.
320  3.19  0.  0.  0.
321  3.20  0.  0.  0.
322  3.21  0.  0.  0.
323  3.22  0.  0.  0.
324  3.23  0.  0.  0.
325  3.24  0.  0.  0.
326  3.25  0.  0.  0.
327  3.26  0.  0.  0.
328  3.27  0.  0.  0.
329  3.28  0.  0.  0.
330  3.29  0.  0.  0.
331  3.30  0.  0.  0.
332  3.31  0.  0.  0.
333  3.32  0.  0.  0.
334  3.33  0.  0.  0.
335  3.34  0.  0.  0.
336  3.35  0.  0.  0.
337  3.36  0.  0.  0.
338  3.37  0.  0.  0.
339  3.38  0.  0.  0.
340  3.39  0.  0.  0.
341  3.40  0.  0.  0.
342  3.41  0.  0.  0.
343  3.42  0.  0.  0.
344  3.43  0.  0.  0.
345  3.44  0.  0.  0.
346  3.45  0.  0.  0.
347  3.46  0.  0.  0.
348  3.47  0.  0.  0.
349  3.48  0.  0.  0.
350  3.49  0.  0.  0.
351  3.50  0.  0.  0.
352  3.51  0.  0.  0.
353  3.52  0.  0.  0.
354  3.53  0.  0.  0.
355  3.54  0.  0.  0.
356  3.55  0.  0.  0.
357  3.56  0.  0.  0.
358  3.57  0.  0.  0.
359  3.58  0.  0.  0.
360  3.59  0.  0.  0.
361  3.60  0.  0.  0.
362  3.61  0.  0.  0.
363  3.62  0.  0.  0.
364  3.63  0.  0.  0.
365  3.64  0.  0.  0.
366  3.65  0.  0.  0.
367  3.66  0.  0.  0.
368  3.67  0.  0.  0.
369  3.68  0.  0.  0.
370  3.69  0.  0.  0.
371  3.70  0.  0.  0.
372  3.71  0.  0.  0.
373  3.72  0.  0.  0.
374  3.73  0.  0.  0.
375  3.74  0.  0.  0.
376  3.75  0.  0.  0.
377  3.76  0.  0.  0.
378  3.77  0.  0.  0.
379  3.78  0.  0.  0.
380  3.79  0.  0.  0.
381  3.80  0.  0.  0.
382  3.81  0.  0.  0.
383  3.82  0.  0.  0.
384  3.83  0.  0.  0.
385  3.84  0.  0.  0.
386  3.85  0.  0.  0.
387  3.86  0.  0.  0.
388  3.87  0.  0.  0.
389  3.88  0.  0.  0.
390  3.89  0.  0.  0.
391  3.90  0.  0.  0.
392  3.91  0.  0.  0.
393  3.92  0.  0.  0.
394  3.93  0.  0.  0.
395  3.94  0.  0.  0.
396  3.95  0.  0.  0.
397  3.96  0.  0.  0.
398  3.97  0.  0.  0.
399  3.98  0.  0.  0.
400  3.99  0.  0.  0.
401  4.00  0.  0.  0.
402  4.01  0.  0.  0.
403  4.02  0.  0.  0.
404  4.03  0.  0.  0.
405  4.04  0.  0.  0.
406  4.05  0.  0.  0.
407  4.06  0.  0.  0.
408  4.07  0.  0.  0.
409  4.08  0.  0.  0.
410  4.09  0.  0.  0.
411  4.10  0.  0.  0.
412  4.11  0.  0.  0.
413  4.12  0.  0.  0.
414  4.13  0.  0.  0.
415  4.14  0.  0.  0.
416  4.15  0.  0.  0.
417  4.16  0.  0.  0.
418  4.17  0.  0.  0.
419  4.18  0.  0.  0.
420  4.19  0.  0.  0.
421  4.20  0.  0.  0.
422  4.21  0.  0.  0.
423  4.22  0.  0.  0.
424  4.23  0.  0.  0.
425  4.24  0.  0.  0.
426  4.25  0.  0.  0.
427  4.26  0.  0.  0.
428  4.27  0.  0.  0.
429  4.28  0.  0.  0.
430  4.29  0.  0.  0.
431  4.30  0.  0.  0.
432  4.31  0.  0.  0.
433  4.32  0.  0.  0.
434  4.33  0.  0.  0.
435  4.34  0.  0.  0.
436  4.35  0.  0.  0.
437  4.36  0.  0.  0.
438  4.37  0.  0.  0.
439  4.38  0.  0.  0.
440  4.39  0.  0.  0.
441  4.40  0.  0.  0.
442  4.41  0.  0.  0.
443  4.42  0.  0.  0.
444  4.43  0.  0.  0.
445  4.44  0.  0.  0.
446  4.45  0.  0.  0.
447  4.46  0.  0.  0.
448  4.47  0.  0.  0.
449  4.48  0.  0.  0.
450  4.49  0.  0.  0.
451  4.50  0.  0.  0.
452  4.51  0.  0.  0.
453  4.52  0.  0.  0.
454  4.53  0.  0.  0.
455  4.54  0.  0.  0.
456  4.55  0.  0.  0.
457  4.56  0.  0.  0.
458  4.57  0.  0.  0.
459  4.58  0.  0.  0.
460  4.59  0.  0.  0.
461  4.60  0.  0.  0.
462  4.61  0.  0.  0.
463  4.62  0.  0.  0.
464  4.63  0.  0.  0.
465  4.64  0.  0.  0.
466  4.65  0.  0.  0.
467  4.66  0.  0.  0.
468  4.67  0.  0.  0.
469  4.68  0.  0.  0.
470  4.69  0.  0.  0.
471  4.70  0.  0.  0.
472  4.71  0.  0.  0.
473  4.72  0.  0.  0.
474  4.73  0.  0.  0.
475  4.74  0.  0.  0.
476  4.75  0.  0.  0.
477  4.76  0.  0.  0.
478  4.77  0.  0.  0.
479  4.78  0.  0.  0.
480  4.79  0.  0.  0.
481  4.80  0.  0.  0.
482  4.81  0.  0.  0.
483  4.82  0.  0.  0.
484  4.83  0.  0.  0.
485  4.84  0.  0.  0.
486  4.85  0.  0.  0.
487  4.86  0.  0.  0.
488  4.87  0.  0.  0.
489  4.88  0.  0.  0.
490  4.89  0.  0.  0.
491  4.90  0.  0.  0.
492  4.91  0.  0.  0.
493  4.92  0.  0.  0.
494  4.93  0.  0.  0.
495  4.94  0.  0.  0.
496  4.95  0.  0.  0.
497  4.96  0.  0.  0.
498  4.97  0.  0.  0.
499  4.98  0.  0.  0.
500  4.99  0.  0.  0.
501  5.00  0.  0.  0.
502  5.01  0.  0.  0.
503  5.02  0.  0.  0.
504  5.03  0.  0.  0.
505  5.04  0.  0.  0.
506  5.05  0.  0.  0.
507  5.06  0.  0.  0.
508  5.07  0.  0.  0.
509  5.08  0.  0.  0.
510  5.09  0.  0.  0.
511  5.10  0.  0.  0.
512  5.11  0.  0.  0.
513  5.12  0.  0.  0.
514  5.13  0.  0.  0.
515  5.14  0.  0.  0.
516  5.15  0.  0.  0.
517  5.16  0.  0.  0.
518  5.17  0.  0.  0.
519  5.18  0.  0.  0.
520  5.19  0.  0.  0.
521  5.20  0.  0.  0.
522  5.21  0.  0.  0.
523  5.22  0.  0.  0.
524  5.23  0.  0.  0.
525  5.24  0.  0.  0.
526  5.25  0.  0.  0.
527  5.26  0.  0.  0.
528  5.27  0.  0.  0.
529  5.28  0.  0.  0.
530  5.29  0.  0.  0.
531  5.30  0.  0.  0.
532  5.31  0.  0.  0.
533  5.32  0.  0.  0.
534  5.33  0.  0.  0.
535  5.34  0.  0.  0.
536  5.35  0.  0.  0.
537  5.36  0.  0.  0.
538  5.37  0.  0.  0.
539  5.38  0.  0.  0.
540  5.39  0.  0.  0.
541  5.40  0.  0.  0.
542  5.41  0.  0.  0.
543  5.42  0.  0.  0.
544  5.43  0.  0.  0.
545  5.44  0.  0.  0.
546  5.45  0.  0.  0.
547  5.46  0.  0.  0.
548  5.47  0.  0.  0.
549  5.48  0.  0.  0.
550  5.49  0.  0.  0.
551  5.50  0.  0.  0.
552  5.51  0.  0.  0.
553  5.52  0.  0.  0.
554  5.53  0.  0.  0.
555  5.54  0.  0.  0.
556  5.55  0.  0.  0.
557  5.56  0.  0.  0.
558  5.57  0.  0.  0.
559  5.58  0.  0.  0.
560  5.59  0.  0.  0.
561  5.60  0.  0.  0.
562  5.61  0.  0.  0.
563  5.62  0.  0.  0.
564  5.63  0.  0.  0.
565  5.64  0.  0.  0.
566  5.65  0.  0.  0.
567  5.66  0.  0.  0.
568  5.67  0.  0.  0.
569  5.68  0.  0.  0.
570  5.69  0.  0.  0.
571  5.70  0.  0.  0.
572  5.71  0.  0.  0.
573  5.72  0.  0.  0.
574  5.73  0.  0.  0.
575  5.74  0.  0.  0.
576  5.75  0.  0.  0.
577  5.76  0.  0.  0.
578  5.77  0.  0.  0.
579  5.78  0.  0.  0.
580  5.79  0.  0.  0.
581  5.80  0.  0.  0.
582  5.81  0.  0.  0.
583  5.82  0.  0.  0.
584  5.83  0.  0.  0.
585  5.84  0.  0.  0.
586  5.85  0.  0.  0.
587  5.86  0.  0.  0.
588  5.87  0.  0.  0.
589  5.88  0.  0.  0.
590  5.89  0.  0.  0.
591  5.90  0.  0.  0.
592  5.91  0.  0.  0.
593  5.92  0.  0.  0.
594  5.93  0.  0.  0.
595  5.94  0.  0.  0.
596  5.95  0.  0.  0.
597  5.96  0.  0.  0.
598  5.97  0.  0.  0.
599  5.98  0.  0.  0.
600  5.99  0.  0.  0.
1                         7.3620717951935E+00 -1.1631808710541E+00
1  0.0000000000000E+00 -4.9210767683050E-09 -9.0872690899912E-09
2  1.0000000000000E-02  3.6967153338894E-03  2.0585035740234E-04
3  2.0000000000000E-02  1.4760822271128E-02  8.2908709901858E-04
4  3.0000000000000E-02  3.3114277610081E-02  1.8865829842591E-03
5  4.0000000000000E-02  5.8627259748937E-02  3.4058511747364E-03
6  5.0000000000000E-02  9.1118557284250E-02  5.4241540866494E-03
7  6.0000000000000E-02  1.3035613843803E-01  7.9872970977837E-03
8  7.0000000000000E-02  1.7605792531060E-01  1.1148146804569E-02
9  8.0000000000000E-02  2.2789280187752E-01  1.4964922611906E-02
10  9.0000000000000E-02  2.8548188820870E-01  1.9499317933598E-02
11  1.0000000000000E-01  3.4840011538139E-01  2.4814512936695E-02
12  1.1000000000000E-01  4.1617813583440E-01  3.0973144388815E-02
13  1.2000000000000E-01  4.8830460237496E-01  3.8035299639343E-02
14  1.3000000000000E-01  5.6422884567379E-01  4.6056601026389E-02
15  1.4000000000000E-01  6.4336397490046E-01  5.5086444066793E-02
16  1.5000000000000E-01  7.2509041926050E-01  6.5166447740887E-02
17  1.6000000000000E-01  8.0875991975743E-01  7.6329168181047E-02
18  1.7000000000000E-01  8.9369997073444E-01  8.8597118330055E-02
19  1.8000000000000E-01  9.7921869992197E-01  1.0198212592662E-01
20  1.9000000000000E-01  1.0646101641399E+00  1.1648505082420E-01
21  2.0000000000000E-01  1.1491600258235E+00  1.3209587051736E-01
22  2.1000000000000E-01  1.2321515635303E+00  1.4879413022844E-01
23  2.2000000000000E-01  1.3128719579216E+00  1.6654974139974E-01
24  2.3000000000000E-01  1.3906187837783E+00  1.8532410035393E-01
25  2.4000000000000E-01  1.4647066287799E+00  2.0507148762365E-01
26  2.5000000000000E-01  1.5344737513858E+00  2.2574069838840E-01
27  2.6000000000000E-01  1.5992886835286E+00  2.4727684593173E-01
28  2.7000000000000E-01  1.6585566792174E+00  2.6962327334097E-01
29  2.8000000000000E-01  1.7117259077750E+00  2.9272350405326E-01
30  2.9000000000000E-01  1.7582932904302E+00  3.1652315948166E-01
31  3.0000000000000E-01  1.7978098814577E+00  3.4097177193857E-01
32  3.1000000000000E-01  1.8298856999906E+00  3.6602442344137E-01
33  3.2000000000000E-01  1.8541939259782E+00  3.9164314569314E-01
34  3.3000000000000E-01  1.8704743833828E+00  4.1779802345830E-01
35  3.4000000000000E-01  1.8785362454002E+00  4.4446795250705E-01
36  3.5000000000000E-01  1.8782599099827E+00  4.7164101402331E-01
37  3.6000000000000E-01  1.8695980089189E+00  4.9931443953907E-01
38  3.7000000000000E-01  1.8525755298026E+00  5.2749415370299E-01
39  3.8000000000000E-01  1.8272890470045E+00  5.5619389610382E-01
40  3.9000000000000E-01  1.7939050747995E+00  5.8543393751331E-01
41  4.0000000000000E-01  1.7526575726625E+00  6.1523941983827E-01
42  4.1000000000000E-01  1.7038446489718E+00  6.4563836232945E-01
43  4.2000000000000E-01  1.6478245245264E+00  6.7665938874988E-01
44  4.3000000000000E-01  1.5850108309807E+00  7.0832924085385E-01
45  4.4000000000000E-01  1.5158673311676E+00  7.4067015230413E-01
46  4.5000000000000E-01  1.4409021580003E+00  7.7369716375141E-01
47  4.6000000000000E-01  1.3606616759650E+00  8.0741546397095E-01
48  4.7000000000000E-01  1.2757240739518E+00  8.4181784352520E-01
49  4.8000000000000E-01  1.1866928002216E+00  8.7688234630632E-01
50  4.9000000000000E-01  1.0941899496242E+00  9.1257020050072E-01
51  5.0000000000000E-01  9.9884970984057E-01  9.4882410408529E-01
52  5.1000000000000E-01  9.0131196752719E-01  9.8556693107430E-01
53  5.2000000000000E-01  8.0221616701535E-01  1.0227009136256E+00
54  5.3000000000000E-01  7.0219550392344E-01  1.0601073421008E+00
55  5.4000000000000E-01  6.0187152402028E-01  1.0976468106349E+00
56  5.5000000000000E-01  5.0184918431221E-01  1.1351600201355E+00
57  5.6000000000000E-01  4.0271241904229E-01  1.1724691343800E+00
58  5.7000000000000E-01  3.0502023853594E-01  1.2093796684976E+00
59  5.8000000000000E-01  2.0930337406375E-01  1.2456828731348E+00
60  5.9000000000000E-01  1.1606146757589E-01  1.2811585624960E+00
61  6.0000000000000E-01  2.5760791732020E-02  1.3155783207222E+00
62  6.1000000000000E-01 -6.1167526489009E-02  1.3487090091478E+00
63  6.2000000000000E-01 -1.4432881580436E-01  1.3803164872699E+00
64  6.3000000000000E-01 -2.2336575000883E-01  1.4101694530822E+00
65  6.4000000000000E-01 -2.9795886881617E-01  1.4380433040361E+00
66  6.5000000000000E-01 -3.6782678626222E-01  1.4637239184509E+00
67  6.6000000000000E-01 -4.3272614436265E-01  1.4870112587738E+00
68  6.7000000000000E-01 -4.9245136889943E-01  1.5077227026790E+00
69  6.8000000000000E-01 -5.4683428107457E-01  1.5256960154646E+00
70  6.9000000000000E-01 -5.9574361349412E-01  1.5407918873520E+00
71  7.0000000000000E-01 -6.3908447177807E-01  1.5528959718176E+00
72  7.1000000000000E-01 -6.7679777435546E-01  1.5619203756106E+00
73  7.2000000000000E-01 -7.0885969307231E-01  1.5678045671957E+00
74  7.3000000000000E-01 -7.3528110653580E-01  1.5705156874996E+00
75  7.4000000000000E-01 -7.5610706709431E-01  1.5700482645056E+00
76  7.5000000000000E-01 -7.7141627147401E-01  1.5664233508669E+00
77  7.6000000000000E-01 -7.8132051482716E-01  1.5596871207408E+00
78  7.7000000000000E-01 -7.8596409874171E-01  1.5499089779238E+00
79  7.8000000000000E-01 -7.8552315603081E-01  1.5371792415898E+00
80  7.9000000000000E-01 -7.8020484923048E-01  1.5216064880195E+00
81  8.0000000000000E-01 -7.7024639598700E-01  1.5033146362675E+00
82  8.1000000000000E-01 -7.5591387314153E-01  1.4824398724132E+00
83  8.2000000000000E-01 -7.3750075246304E-01  1.4591275106598E+00
84  8.3000000000000E-01 -7.1532612469702E-01  1.4335288899337E+00
85  8.4000000000000E-01 -6.8973257484777E-01  1.4057984017804E+00
86  8.5000000000000E-01 -6.6108368026062E-01  1.3760907393170E+00
87  8.6000000000000E-01 -6.2976111389266E-01  1.3445584479741E+00
88  8.7000000000000E-01 -5.9616134784064E-01  1.3113498470194E+00
89  8.8000000000000E-01 -5.6069196634270E-01  1.2766073767802E+00
90  8.9000000000000E-01 -5.2376761262608E-01  1.2404664105283E+00
91  9.0000000000000E-01 -4.8580560962317E-01  1.2030545526813E+00
92  9.1000000000000E-01 -4.4722131017390E-01  1.1644914268939E+00
93  9.2000000000000E-01 -4.0842324729886E-01  1.1248889393695E+00
94  9.3000000000000E-01 -3.6980816889169E-01  1.0843519849482E+00
95  9.4000000000000E-01 -3.3175605317737E-01  1.0429795468558E+00
96  9.5000000000000E-01 -2.9462521098843E-01  1.0008661260284E+00
97  9.6000000000000E-01 -2.5874758784173E-01  9.5810342323084E-01
98  9.7000000000000E-01 -2.2442438254103E-01  9.1478218727867E-01
99  9.8000000000000E-01 -1.9192209924586E-01  8.7099413597579E-01
100  9.9000000000000E-01 -1.6146914638730E-01  8.2683385326714E-01
101  1.0000000000000E+00 -1.3325308832431E-01  7.8240056681646E-01
102  1.0100000000000E+00 -1.0741864418170E-01  7.3779971491229E-01
103  1.0200000000000E+00 -8.4066512930373E-02  6.9314422033511E-01
104  1.0300000000000E+00 -6.3253084643210E-02  6.4855540151577E-01
105  1.0400000000000E+00 -4.4991075263727E-02  6.0416346779472E-01
106  1.0500000000000E+00 -2.9251096455618E-02  5.6010756563757E-01
107  1.0600000000000E+00 -1.5964143689945E-02  5.1653536584462E-01
108  1.0700000000000E+00 -5.0249551390231E-03  4.7360220770392E-01
109  1.0800000000000E+00  3.7038382841797E-03  4.3146984421277E-01
110  1.0900000000000E+00  1.0386884497735E-02  3.9030486222043E-01
111  1.1000000000000E+00  1.5210749748094E-02  3.5027688224952E-01
112  1.1100000000000E+00  1.8378205431437E-02  3.1155667395276E-01
113  1.1200000000000E+00  2.0102373845319E-02  2.7431435426335E-01
114  1.1300000000000E+00  2.0600974996959E-02  2.3871786551208E-01
115  1.1400000000000E+00  2.0090944953410E-02  2.0493195963522E-01
116  1.1500000000000E+00  1.8783721827951E-02  1.7311794148901E-01
117  1.1600000000000E+00  1.6881517929619E-02  1.4343444876609E-01
118  1.1700000000000E+00  1.4574931771293E-02  1.1603957964193E-01
119  1.1800000000000E+00  1.2042132704718E-02  9.1094597861766E-02
120  1.1900000000000E+00  9.4500080262007E-03  6.8769601221101E-02