Np    ONCVPSP-4.0.1  r_core=   1.25290   1.25290   1.50818   1.50818
93.0000     33.0000      231012    zatom,zion,pspd
8   -1012   3     4   600     0    pspcod,pspxc,lmax,lloc,mmax,r2well
5.99000000  4.00000000  0.00000000    rchrg fchrg qchrg
3     3     3     2    nproj
3     1           extension_switch
4     3     4    nprojso
0                         2.2563257888323E+01  2.4453510562259E+00 -1.1804747949028E+00
1  0.0000000000000E+00 -4.3396115367855E-08  1.5269723002698E-07 -4.4984617142418E-09
2  1.0000000000000E-02  1.4427889215726E-01 -7.4445435615140E-02  2.8607360046385E-02
3  2.0000000000000E-02  2.8755585428178E-01 -1.4714318105990E-01  5.7086622880276E-02
4  3.0000000000000E-02  4.2884360482698E-01 -2.1638922964722E-01  8.5311332918838E-02
5  4.0000000000000E-02  5.6718378163897E-01 -2.8056563797122E-01  1.1315828201764E-01
6  5.0000000000000E-02  7.0166046949228E-01 -3.3818033979487E-01  1.4050904487886E-01
7  6.0000000000000E-02  8.3141264165678E-01 -3.8790321338429E-01  1.6725141191423E-01
8  7.0000000000000E-02  9.5564520674272E-01 -4.2859734071034E-01  1.9328069095256E-01
9  8.0000000000000E-02  1.0736383954668E+00 -4.5934454963514E-01  2.1850085368055E-01
10  9.0000000000000E-02  1.1847552735200E+00 -4.7946451159577E-01  2.4282550799397E-01
11  1.0000000000000E-01  1.2884472247220E+00 -4.8852687152605E-01  2.6617868331226E-01
12  1.1000000000000E-01  1.3842573112393E+00 -4.8635610722218E-01  2.8849542214356E-01
13  1.2000000000000E-01  1.4718214827823E+00 -4.7302904493435E-01  3.0972217753989E-01
14  1.3000000000000E-01  1.5508676722854E+00 -4.4886518924696E-01  3.2981702230583E-01
15  1.4000000000000E-01  1.6212128794707E+00 -4.1441025082350E-01  3.4874968167639E-01
16  1.5000000000000E-01  1.6827584038484E+00 -3.7041346807548E-01  3.6650140643312E-01
17  1.6000000000000E-01  1.7354834431609E+00 -3.1779951141237E-01  3.8306470787392E-01
18  1.7000000000000E-01  1.7794373202929E+00 -2.5763592526127E-01  3.9844297951826E-01
19  1.8000000000000E-01  1.8147306397204E+00 -1.9109719814799E-01  4.1265003277545E-01
20  1.9000000000000E-01  1.8415257024662E+00 -1.1942665051017E-01  4.2570957493632E-01
21  2.0000000000000E-01  1.8600265253752E+00 -4.3897390389758E-02  4.3765465771967E-01
22  2.1000000000000E-01  1.8704688158107E+00  3.4226393141185E-02  4.4852712321750E-01
23  2.2000000000000E-01  1.8731102464792E+00  1.1372655059976E-01  4.5837707148888E-01
24  2.3000000000000E-01  1.8682213572524E+00  1.9346532071657E-01  4.6726237035325E-01
25  2.4000000000000E-01  1.8560773822182E+00  2.7241582164177E-01  4.7524822327652E-01
26  2.5000000000000E-01  1.8369512617300E+00  3.4968773501317E-01  4.8240680581453E-01
27  2.6000000000000E-01  1.8111080522525E+00  4.2454739944365E-01  4.8881697509920E-01
28  2.7000000000000E-01  1.7788008929092E+00  4.9643172134815E-01  4.9456405057050E-01
29  2.8000000000000E-01  1.7402686286427E+00  5.6495552117288E-01  4.9973965783491E-01
30  2.9000000000000E-01  1.6957351277853E+00  6.2991215507984E-01  5.0444162144058E-01
31  3.0000000000000E-01  1.6454102687000E+00  6.9126747869795E-01  5.0877388676660E-01
32  3.1000000000000E-01  1.5894925081094E+00  7.4914744322182E-01  5.1284644638488E-01
33  3.2000000000000E-01  1.5281728848635E+00  8.0381982758822E-01  5.1677524239687E-01
34  3.3000000000000E-01  1.4616402592036E+00  8.5567080668309E-01  5.2068201357306E-01
35  3.4000000000000E-01  1.3900875408434E+00  9.0517722811020E-01  5.2469405478735E-01
36  3.5000000000000E-01  1.3137186210138E+00  9.5287561332551E-01  5.2894385635018E-01
37  3.6000000000000E-01  1.2327556952787E+00  9.9932900824287E-01  5.3356859246126E-01
38  3.7000000000000E-01  1.1474466464035E+00  1.0450928801730E+00  5.3870943112348E-01
39  3.8000000000000E-01  1.0580721504530E+00  1.0906812898531E+00  5.4451064242835E-01
40  3.9000000000000E-01  9.6495217483999E-01  1.1365345583377E+00  5.5111848802480E-01
41  4.0000000000000E-01  8.6845155407806E-01  1.1829895989853E+00  5.5867988164970E-01
42  4.1000000000000E-01  7.6898435697940E-01  1.2302539963535E+00  5.6734081861281E-01
43  4.2000000000000E-01  6.6701679707154E-01  1.2783847894412E+00  5.7724458083147E-01
44  4.3000000000000E-01  5.6306848484403E-01  1.3272727605091E+00  5.8852973310741E-01
45  4.4000000000000E-01  4.5771187455210E-01  1.3766328478293E+00  6.0132793551280E-01
46  4.5000000000000E-01  3.5156981791589E-01  1.4260010971777E+00  6.1576160567465E-01
47  4.6000000000000E-01  2.4531120020515E-01  1.4747383494091E+00  6.3194147308270E-01
48  4.7000000000000E-01  1.3964469881027E-01  1.5220406371649E+00  6.4996407497654E-01
49  4.8000000000000E-01  3.5310768343508E-02  1.5669560400357E+00  6.6990924959201E-01
50  4.9000000000000E-01 -6.6927982522223E-02  1.6084075316618E+00  6.9183768729931E-01
51  5.0000000000000E-01 -1.6629780089945E-01  1.6452211513425E+00  7.1578860322428E-01
52  5.1000000000000E-01 -2.6202591492691E-01  1.6761586533162E+00  7.4177759613931E-01
53  5.2000000000000E-01 -3.5335346169954E-01  1.6999536347741E+00  7.6979475763127E-01
54  5.3000000000000E-01 -4.3954887343511E-01  1.7153500238141E+00  7.9980309275646E-01
55  5.4000000000000E-01 -5.1992135639464E-01  1.7211417247685E+00  8.3173730859747E-01
56  5.5000000000000E-01 -5.9383408746386E-01  1.7162121733117E+00  8.6550302043721E-01
57  5.6000000000000E-01 -6.6071675543207E-01  1.6995725488353E+00  9.0097641681645E-01
58  5.7000000000000E-01 -7.2007708782089E-01  1.6703974268427E+00  9.3800441476496E-01
59  5.8000000000000E-01 -7.7151102917070E-01  1.6280567282860E+00  9.7640532526680E-01
60  5.9000000000000E-01 -8.1471127218798E-01  1.5721429333415E+00  1.0159700368624E+00
61  6.0000000000000E-01 -8.4947388794518E-01  1.5024926703761E+00  1.0564637125626E+00
62  6.1000000000000E-01 -8.7570285396909E-01  1.4192019620599E+00  1.0976279823389E+00
63  6.2000000000000E-01 -8.9341233786425E-01  1.3226346040887E+00  1.1391836007600E+00
64  6.3000000000000E-01 -9.0272665721493E-01  1.2134233614688E+00  1.1808335272569E+00
65  6.4000000000000E-01 -9.0387790188703E-01  1.0924638859801E+00  1.2222663754105E+00
66  6.5000000000000E-01 -8.9720127044144E-01  9.6090147922605E-01  1.2631601679093E+00
67  6.6000000000000E-01 -8.8312823611371E-01  8.2011104151833E-01  1.3031863257413E+00
68  6.7000000000000E-01 -8.6217771773273E-01  6.7167075090454E-01  1.3420138140232E+00
69  6.8000000000000E-01 -8.3494548520036E-01  5.1733020251716E-01  1.3793133628293E+00
70  6.9000000000000E-01 -8.0209207610044E-01  3.5897390036702E-01  1.4147616795988E+00
71  7.0000000000000E-01 -7.6432953826278E-01  1.9858112681511E-01  1.4480455702286E+00
72  7.1000000000000E-01 -7.2240734159231E-01  3.8183315329210E-02  1.4788658887783E+00
73  7.2000000000000E-01 -6.7709782042763E-01 -1.2017988303844E-01  1.5069412407420E+00
74  7.3000000000000E-01 -6.2918151471060E-01 -2.7450462133984E-01  1.5320113718957E+00
75  7.4000000000000E-01 -5.7943277428691E-01 -4.2286575832117E-01  1.5538401835883E+00
76  7.5000000000000E-01 -5.2860597602199E-01 -5.6345747819577E-01  1.5722183257060E+00
77  7.6000000000000E-01 -4.7742267875963E-01 -6.9463054809638E-01  1.5869653300689E+00
78  7.7000000000000E-01 -4.2656000743669E-01 -8.1492524547375E-01  1.5979312593217E+00
79  7.8000000000000E-01 -3.7664051612477E-01 -9.2309912798319E-01  1.6049978590698E+00
80  7.9000000000000E-01 -3.2822373187342E-01 -1.0181489812536E+00  1.6080792136582E+00
81  8.0000000000000E-01 -2.8179952860934E-01 -1.0993264598724E+00  1.6071219181936E+00
82  8.1000000000000E-01 -2.3778342476059E-01 -1.1661471279577E+00  1.6021047907733E+00
83  8.2000000000000E-01 -1.9651384152574E-01 -1.2183928016595E+00  1.5930381590642E+00
84  8.3000000000000E-01 -1.5825130259909E-01 -1.2561072906028E+00  1.5799627640425E+00
85  8.4000000000000E-01 -1.2317950241151E-01 -1.2795858226795E+00  1.5629483306291E+00
86  8.5000000000000E-01 -9.1408120162020E-02 -1.2893586110681E+00  1.5420918599370E+00
87  8.6000000000000E-01 -6.2977212512122E-02 -1.2861691788696E+00  1.5175157007758E+00
88  8.7000000000000E-01 -3.7862979995345E-02 -1.2709481909804E+00  1.4893654589118E+00
89  8.8000000000000E-01 -1.5984671903335E-02 -1.2447836512823E+00  1.4578078013818E+00
90  8.9000000000000E-01  2.7876276918155E-03 -1.2088884033932E+00  1.4230282100502E+00
91  9.0000000000000E-01  1.8624603656619E-02 -1.1645659235197E+00  1.3852287337561E+00
92  9.1000000000000E-01  3.1728979035289E-02 -1.1131754138659E+00  1.3446257820838E+00
93  9.2000000000000E-01  4.2326722056772E-02 -1.0560971949830E+00  1.3014479963280E+00
94  9.3000000000000E-01  5.0658451671723E-02 -9.9469935678359E-01  1.2559342249501E+00
95  9.4000000000000E-01  5.6971283648522E-02 -9.3030656285512E-01  1.2083316221445E+00
96  9.5000000000000E-01  6.1511334183691E-02 -8.6417181410106E-01  1.1588938794389E+00
97  9.6000000000000E-01  6.4517067622830E-02 -7.9745186904817E-01  1.1078795919477E+00
98  9.7000000000000E-01  6.6213640417259E-02 -7.3118689329255E-01  1.0555507533736E+00
99  9.8000000000000E-01  6.6808356039999E-02 -6.6628477347850E-01  1.0021713674613E+00
100  9.9000000000000E-01  6.6487306488999E-02 -6.0351038614240E-01  9.4800615866147E-01
101  1.0000000000000E+00  6.5413236337025E-02 -5.4347996258238E-01  8.9331936152894E-01
102  1.0100000000000E+00  6.3724626104312E-02 -4.8666054137040E-01  8.3837356702796E-01
103  1.0200000000000E+00  6.1535953875718E-02 -4.3337435323240E-01  7.8342860457889E-01
104  1.0300000000000E+00  5.8939058295451E-02 -3.8380784154230E-01  7.2874044137835E-01
105  1.0400000000000E+00  5.6005492797010E-02 -3.3802488740900E-01  6.7456008519500E-01
106  1.0500000000000E+00  5.2789730327127E-02 -2.9598368210316E-01  6.2113248336631E-01
107  1.0600000000000E+00  4.9333049947115E-02 -2.5755657195573E-01  5.6869541884561E-01
108  1.0700000000000E+00  4.5667911153403E-02 -2.2255209085955E-01  5.1747841357825E-01
109  1.0800000000000E+00  4.1822597967770E-02 -1.9073829151014E-01  4.6770165985838E-01
110  1.0900000000000E+00  3.7825892077593E-02 -1.6186638655206E-01  4.1957501113483E-01
111  1.1000000000000E+00  3.3711511333625E-02 -1.3569361093334E-01  3.7329707457726E-01
112  1.1100000000000E+00  2.9522025674413E-02 -1.1200411397522E-01  3.2905445794885E-01
113  1.1200000000000E+00  2.5311935448427E-02 -9.0626578734919E-02  2.8702123246990E-01
114  1.1300000000000E+00  2.1149565723636E-02 -7.1447142812441E-02  2.4735868074749E-01
115  1.1400000000000E+00  1.7117392809870E-02 -5.4416053300001E-02  2.1021540394078E-01
116  1.1500000000000E+00  1.3310374207679E-02 -3.9546323771212E-02  1.7572786452081E-01
117  1.1600000000000E+00  9.8317988637860E-03 -2.6902467582400E-02  1.4402143972915E-01
118  1.1700000000000E+00  6.7861361232537E-03 -1.6577234219017E-02  1.1521207571146E-01
119  1.1800000000000E+00  4.2680605067516E-03 -8.6533393698268E-03  8.9408455061902E-02
120  1.1900000000000E+00  2.3469222360232E-03 -3.1474283546397E-03  6.6714756551192E-02
121  1.2000000000000E+00  9.9097039113018E-04  2.3165701643852E-04  4.7192041472016E-02
122  1.2100000000000E+00  1.3814983034850E-04  1.8904115438466E-03  3.0931809527076E-02
123  1.2200000000000E+00 -2.6005244137089E-04  2.1910525614127E-03  1.8067171842454E-02
124  1.2300000000000E+00 -3.0952530415413E-04  1.6095335105192E-03  8.6622445897273E-03
125  1.2400000000000E+00 -1.6105307110776E-04  6.8857838753507E-04  2.7018657020252E-03
126  1.2500000000000E+00 -1.5634304693431E-05  5.9306850043736E-05  1.7775396136204E-04
127  1.2600000000000E+00  5.1423047819952E-07 -1.8757566983003E-06 -4.9639630388210E-06
128  1.2700000000000E+00  1.4178736551295E-07 -5.6504118028023E-07 -1.9007791182872E-06
129  1.28  0.  0.  0.
130  1.29  0.  0.  0.
131  1.30  0.  0.  0.
132  1.31  0.  0.  0.
133  1.32  0.  0.  0.
134  1.33  0.  0.  0.
135  1.34  0.  0.  0.
136  1.35  0.  0.  0.
137  1.36  0.  0.  0.
138  1.37  0.  0.  0.
139  1.38  0.  0.  0.
140  1.39  0.  0.  0.
141  1.40  0.  0.  0.
142  1.41  0.  0.  0.
143  1.42  0.  0.  0.
144  1.43  0.  0.  0.
145  1.44  0.  0.  0.
146  1.45  0.  0.  0.
147  1.46  0.  0.  0.
148  1.47  0.  0.  0.
149  1.48  0.  0.  0.
150  1.49  0.  0.  0.
151  1.50  0.  0.  0.
152  1.51  0.  0.  0.
153  1.52  0.  0.  0.
154  1.53  0.  0.  0.
155  1.54  0.  0.  0.
156  1.55  0.  0.  0.
157  1.56  0.  0.  0.
158  1.57  0.  0.  0.
159  1.58  0.  0.  0.
160  1.59  0.  0.  0.
161  1.60  0.  0.  0.
162  1.61  0.  0.  0.
163  1.62  0.  0.  0.
164  1.63  0.  0.  0.
165  1.64  0.  0.  0.
166  1.65  0.  0.  0.
167  1.66  0.  0.  0.
168  1.67  0.  0.  0.
169  1.68  0.  0.  0.
170  1.69  0.  0.  0.
171  1.70  0.  0.  0.
172  1.71  0.  0.  0.
173  1.72  0.  0.  0.
174  1.73  0.  0.  0.
175  1.74  0.  0.  0.
176  1.75  0.  0.  0.
177  1.76  0.  0.  0.
178  1.77  0.  0.  0.
179  1.78  0.  0.  0.
180  1.79  0.  0.  0.
181  1.80  0.  0.  0.
182  1.81  0.  0.  0.
183  1.82  0.  0.  0.
184  1.83  0.  0.  0.
185  1.84  0.  0.  0.
186  1.85  0.  0.  0.
187  1.86  0.  0.  0.
188  1.87  0.  0.  0.
189  1.88  0.  0.  0.
190  1.89  0.  0.  0.
191  1.90  0.  0.  0.
192  1.91  0.  0.  0.
193  1.92  0.  0.  0.
194  1.93  0.  0.  0.
195  1.94  0.  0.  0.
196  1.95  0.  0.  0.
197  1.96  0.  0.  0.
198  1.97  0.  0.  0.
199  1.98  0.  0.  0.
200  1.99  0.  0.  0.
201  2.00  0.  0.  0.
202  2.01  0.  0.  0.
203  2.02  0.  0.  0.
204  2.03  0.  0.  0.
205  2.04  0.  0.  0.
206  2.05  0.  0.  0.
207  2.06  0.  0.  0.
208  2.07  0.  0.  0.
209  2.08  0.  0.  0.
210  2.09  0.  0.  0.
211  2.10  0.  0.  0.
212  2.11  0.  0.  0.
213  2.12  0.  0.  0.
214  2.13  0.  0.  0.
215  2.14  0.  0.  0.
216  2.15  0.  0.  0.
217  2.16  0.  0.  0.
218  2.17  0.  0.  0.
219  2.18  0.  0.  0.
220  2.19  0.  0.  0.
221  2.20  0.  0.  0.
222  2.21  0.  0.  0.
223  2.22  0.  0.  0.
224  2.23  0.  0.  0.
225  2.24  0.  0.  0.
226  2.25  0.  0.  0.
227  2.26  0.  0.  0.
228  2.27  0.  0.  0.
229  2.28  0.  0.  0.
230  2.29  0.  0.  0.
231  2.30  0.  0.  0.
232  2.31  0.  0.  0.
233  2.32  0.  0.  0.
234  2.33  0.  0.  0.
235  2.34  0.  0.  0.
236  2.35  0.  0.  0.
237  2.36  0.  0.  0.
238  2.37  0.  0.  0.
239  2.38  0.  0.  0.
240  2.39  0.  0.  0.
241  2.40  0.  0.  0.
242  2.41  0.  0.  0.
243  2.42  0.  0.  0.
244  2.43  0.  0.  0.
245  2.44  0.  0.  0.
246  2.45  0.  0.  0.
247  2.46  0.  0.  0.
248  2.47  0.  0.  0.
249  2.48  0.  0.  0.
250  2.49  0.  0.  0.
251  2.50  0.  0.  0.
252  2.51  0.  0.  0.
253  2.52  0.  0.  0.
254  2.53  0.  0.  0.
255  2.54  0.  0.  0.
256  2.55  0.  0.  0.
257  2.56  0.  0.  0.
258  2.57  0.  0.  0.
259  2.58  0.  0.  0.
260  2.59  0.  0.  0.
261  2.60  0.  0.  0.
262  2.61  0.  0.  0.
263  2.62  0.  0.  0.
264  2.63  0.  0.  0.
265  2.64  0.  0.  0.
266  2.65  0.  0.  0.
267  2.66  0.  0.  0.
268  2.67  0.  0.  0.
269  2.68  0.  0.  0.
270  2.69  0.  0.  0.
271  2.70  0.  0.  0.
272  2.71  0.  0.  0.
273  2.72  0.  0.  0.
274  2.73  0.  0.  0.
275  2.74  0.  0.  0.
276  2.75  0.  0.  0.
277  2.76  0.  0.  0.
278  2.77  0.  0.  0.
279  2.78  0.  0.  0.
280  2.79  0.  0.  0.
281  2.80  0.  0.  0.
282  2.81  0.  0.  0.
283  2.82  0.  0.  0.
284  2.83  0.  0.  0.
285  2.84  0.  0.  0.
286  2.85  0.  0.  0.
287  2.86  0.  0.  0.
288  2.87  0.  0.  0.
289  2.88  0.  0.  0.
290  2.89  0.  0.  0.
291  2.90  0.  0.  0.
292  2.91  0.  0.  0.
293  2.92  0.  0.  0.
294  2.93  0.  0.  0.
295  2.94  0.  0.  0.
296  2.95  0.  0.  0.
297  2.96  0.  0.  0.
298  2.97  0.  0.  0.
299  2.98  0.  0.  0.
300  2.99  0.  0.  0.
301  3.00  0.  0.  0.
302  3.01  0.  0.  0.
303  3.02  0.  0.  0.
304  3.03  0.  0.  0.
305  3.04  0.  0.  0.
306  3.05  0.  0.  0.
307  3.06  0.  0.  0.
308  3.07  0.  0.  0.
309  3.08  0.  0.  0.
310  3.09  0.  0.  0.
311  3.10  0.  0.  0.
312  3.11  0.  0.  0.
313  3.12  0.  0.  0.
314  3.13  0.  0.  0.
315  3.14  0.  0.  0.
316  3.15  0.  0.  0.
317  3.16  0.  0.  0.
318  3.17  0.  0.  0.
319  3.18  0.  0.  0.
320  3.19  0.  0.  0.
321  3.20  0.  0.  0.
322  3.21  0.  0.  0.
323  3.22  0.  0.  0.
324  3.23  0.  0.  0.
325  3.24  0.  0.  0.
326  3.25  0.  0.  0.
327  3.26  0.  0.  0.
328  3.27  0.  0.  0.
329  3.28  0.  0.  0.
330  3.29  0.  0.  0.
331  3.30  0.  0.  0.
332  3.31  0.  0.  0.
333  3.32  0.  0.  0.
334  3.33  0.  0.  0.
335  3.34  0.  0.  0.
336  3.35  0.  0.  0.
337  3.36  0.  0.  0.
338  3.37  0.  0.  0.
339  3.38  0.  0.  0.
340  3.39  0.  0.  0.
341  3.40  0.  0.  0.
342  3.41  0.  0.  0.
343  3.42  0.  0.  0.
344  3.43  0.  0.  0.
345  3.44  0.  0.  0.
346  3.45  0.  0.  0.
347  3.46  0.  0.  0.
348  3.47  0.  0.  0.
349  3.48  0.  0.  0.
350  3.49  0.  0.  0.
351  3.50  0.  0.  0.
352  3.51  0.  0.  0.
353  3.52  0.  0.  0.
354  3.53  0.  0.  0.
355  3.54  0.  0.  0.
356  3.55  0.  0.  0.
357  3.56  0.  0.  0.
358  3.57  0.  0.  0.
359  3.58  0.  0.  0.
360  3.59  0.  0.  0.
361  3.60  0.  0.  0.
362  3.61  0.  0.  0.
363  3.62  0.  0.  0.
364  3.63  0.  0.  0.
365  3.64  0.  0.  0.
366  3.65  0.  0.  0.
367  3.66  0.  0.  0.
368  3.67  0.  0.  0.
369  3.68  0.  0.  0.
370  3.69  0.  0.  0.
371  3.70  0.  0.  0.
372  3.71  0.  0.  0.
373  3.72  0.  0.  0.
374  3.73  0.  0.  0.
375  3.74  0.  0.  0.
376  3.75  0.  0.  0.
377  3.76  0.  0.  0.
378  3.77  0.  0.  0.
379  3.78  0.  0.  0.
380  3.79  0.  0.  0.
381  3.80  0.  0.  0.
382  3.81  0.  0.  0.
383  3.82  0.  0.  0.
384  3.83  0.  0.  0.
385  3.84  0.  0.  0.
386  3.85  0.  0.  0.
387  3.86  0.  0.  0.
388  3.87  0.  0.  0.
389  3.88  0.  0.  0.
390  3.89  0.  0.  0.
391  3.90  0.  0.  0.
392  3.91  0.  0.  0.
393  3.92  0.  0.  0.
394  3.93  0.  0.  0.
395  3.94  0.  0.  0.
396  3.95  0.  0.  0.
397  3.96  0.  0.  0.
398  3.97  0.  0.  0.
399  3.98  0.  0.  0.
400  3.99  0.  0.  0.
401  4.00  0.  0.  0.
402  4.01  0.  0.  0.
403  4.02  0.  0.  0.
404  4.03  0.  0.  0.
405  4.04  0.  0.  0.
406  4.05  0.  0.  0.
407  4.06  0.  0.  0.
408  4.07  0.  0.  0.
409  4.08  0.  0.  0.
410  4.09  0.  0.  0.
411  4.10  0.  0.  0.
412  4.11  0.  0.  0.
413  4.12  0.  0.  0.
414  4.13  0.  0.  0.
415  4.14  0.  0.  0.
416  4.15  0.  0.  0.
417  4.16  0.  0.  0.
418  4.17  0.  0.  0.
419  4.18  0.  0.  0.
420  4.19  0.  0.  0.
421  4.20  0.  0.  0.
422  4.21  0.  0.  0.
423  4.22  0.  0.  0.
424  4.23  0.  0.  0.
425  4.24  0.  0.  0.
426  4.25  0.  0.  0.
427  4.26  0.  0.  0.
428  4.27  0.  0.  0.
429  4.28  0.  0.  0.
430  4.29  0.  0.  0.
431  4.30  0.  0.  0.
432  4.31  0.  0.  0.
433  4.32  0.  0.  0.
434  4.33  0.  0.  0.
435  4.34  0.  0.  0.
436  4.35  0.  0.  0.
437  4.36  0.  0.  0.
438  4.37  0.  0.  0.
439  4.38  0.  0.  0.
440  4.39  0.  0.  0.
441  4.40  0.  0.  0.
442  4.41  0.  0.  0.
443  4.42  0.  0.  0.
444  4.43  0.  0.  0.
445  4.44  0.  0.  0.
446  4.45  0.  0.  0.
447  4.46  0.  0.  0.
448  4.47  0.  0.  0.
449  4.48  0.  0.  0.
450  4.49  0.  0.  0.
451  4.50  0.  0.  0.
452  4.51  0.  0.  0.
453  4.52  0.  0.  0.
454  4.53  0.  0.  0.
455  4.54  0.  0.  0.
456  4.55  0.  0.  0.
457  4.56  0.  0.  0.
458  4.57  0.  0.  0.
459  4.58  0.  0.  0.
460  4.59  0.  0.  0.
461  4.60  0.  0.  0.
462  4.61  0.  0.  0.
463  4.62  0.  0.  0.
464  4.63  0.  0.  0.
465  4.64  0.  0.  0.
466  4.65  0.  0.  0.
467  4.66  0.  0.  0.
468  4.67  0.  0.  0.
469  4.68  0.  0.  0.
470  4.69  0.  0.  0.
471  4.70  0.  0.  0.
472  4.71  0.  0.  0.
473  4.72  0.  0.  0.
474  4.73  0.  0.  0.
475  4.74  0.  0.  0.
476  4.75  0.  0.  0.
477  4.76  0.  0.  0.
478  4.77  0.  0.  0.
479  4.78  0.  0.  0.
480  4.79  0.  0.  0.
481  4.80  0.  0.  0.
482  4.81  0.  0.  0.
483  4.82  0.  0.  0.
484  4.83  0.  0.  0.
485  4.84  0.  0.  0.
486  4.85  0.  0.  0.
487  4.86  0.  0.  0.
488  4.87  0.  0.  0.
489  4.88  0.  0.  0.
490  4.89  0.  0.  0.
491  4.90  0.  0.  0.
492  4.91  0.  0.  0.
493  4.92  0.  0.  0.
494  4.93  0.  0.  0.
495  4.94  0.  0.  0.
496  4.95  0.  0.  0.
497  4.96  0.  0.  0.
498  4.97  0.  0.  0.
499  4.98  0.  0.  0.
500  4.99  0.  0.  0.
501  5.00  0.  0.  0.
502  5.01  0.  0.  0.
503  5.02  0.  0.  0.
504  5.03  0.  0.  0.
505  5.04  0.  0.  0.
506  5.05  0.  0.  0.
507  5.06  0.  0.  0.
508  5.07  0.  0.  0.
509  5.08  0.  0.  0.
510  5.09  0.  0.  0.
511  5.10  0.  0.  0.
512  5.11  0.  0.  0.
513  5.12  0.  0.  0.
514  5.13  0.  0.  0.
515  5.14  0.  0.  0.
516  5.15  0.  0.  0.
517  5.16  0.  0.  0.
518  5.17  0.  0.  0.
519  5.18  0.  0.  0.
520  5.19  0.  0.  0.
521  5.20  0.  0.  0.
522  5.21  0.  0.  0.
523  5.22  0.  0.  0.
524  5.23  0.  0.  0.
525  5.24  0.  0.  0.
526  5.25  0.  0.  0.
527  5.26  0.  0.  0.
528  5.27  0.  0.  0.
529  5.28  0.  0.  0.
530  5.29  0.  0.  0.
531  5.30  0.  0.  0.
532  5.31  0.  0.  0.
533  5.32  0.  0.  0.
534  5.33  0.  0.  0.
535  5.34  0.  0.  0.
536  5.35  0.  0.  0.
537  5.36  0.  0.  0.
538  5.37  0.  0.  0.
539  5.38  0.  0.  0.
540  5.39  0.  0.  0.
541  5.40  0.  0.  0.
542  5.41  0.  0.  0.
543  5.42  0.  0.  0.
544  5.43  0.  0.  0.
545  5.44  0.  0.  0.
546  5.45  0.  0.  0.
547  5.46  0.  0.  0.
548  5.47  0.  0.  0.
549  5.48  0.  0.  0.
550  5.49  0.  0.  0.
551  5.50  0.  0.  0.
552  5.51  0.  0.  0.
553  5.52  0.  0.  0.
554  5.53  0.  0.  0.
555  5.54  0.  0.  0.
556  5.55  0.  0.  0.
557  5.56  0.  0.  0.
558  5.57  0.  0.  0.
559  5.58  0.  0.  0.
560  5.59  0.  0.  0.
561  5.60  0.  0.  0.
562  5.61  0.  0.  0.
563  5.62  0.  0.  0.
564  5.63  0.  0.  0.
565  5.64  0.  0.  0.
566  5.65  0.  0.  0.
567  5.66  0.  0.  0.
568  5.67  0.  0.  0.
569  5.68  0.  0.  0.
570  5.69  0.  0.  0.
571  5.70  0.  0.  0.
572  5.71  0.  0.  0.
573  5.72  0.  0.  0.
574  5.73  0.  0.  0.
575  5.74  0.  0.  0.
576  5.75  0.  0.  0.
577  5.76  0.  0.  0.
578  5.77  0.  0.  0.
579  5.78  0.  0.  0.
580  5.79  0.  0.  0.
581  5.80  0.  0.  0.
582  5.81  0.  0.  0.
583  5.82  0.  0.  0.
584  5.83  0.  0.  0.
585  5.84  0.  0.  0.
586  5.85  0.  0.  0.
587  5.86  0.  0.  0.
588  5.87  0.  0.  0.
589  5.88  0.  0.  0.
590  5.89  0.  0.  0.
591  5.90  0.  0.  0.
592  5.91  0.  0.  0.
593  5.92  0.  0.  0.
594  5.93  0.  0.  0.
595  5.94  0.  0.  0.
596  5.95  0.  0.  0.
597  5.96  0.  0.  0.
598  5.97  0.  0.  0.
599  5.98  0.  0.  0.
600  5.99  0.  0.  0.
1                         7.0690975634455E+00 -1.2097902246089E+00  5.1783126795835E-02
1  0.0000000000000E+00 -4.9660210388325E-09 -8.2067442321032E-09  4.1811750450815E-09
2  1.0000000000000E-02  3.7419113704191E-03  2.6836439705299E-04 -3.5774847702638E-03
3  2.0000000000000E-02  1.4940973490770E-02  1.0780837013077E-03 -1.4262864401867E-02
4  3.0000000000000E-02  3.3517249063112E-02  2.4428744363493E-03 -3.1915255814815E-02
5  4.0000000000000E-02  5.9337775324343E-02  4.3850635895983E-03 -5.6300995194712E-02
6  5.0000000000000E-02  9.2216976333730E-02  6.9348068541919E-03 -8.7095366395468E-02
7  6.0000000000000E-02  1.3191726592932E-01  1.0129031658466E-02 -1.2388505228761E-01
8  7.0000000000000E-02  1.7814986567995E-01  1.4010140981520E-02 -1.6617133773842E-01
9  8.0000000000000E-02  2.3057586712555E-01  1.8624522160078E-02 -2.1337409709137E-01
10  9.0000000000000E-02  2.8880757116954E-01  2.4020911631476E-02 -2.6483660040156E-01
11  1.0000000000000E-01  3.5241013945258E-01  3.0248671602358E-02 -3.1983117088969E-01
12  1.1000000000000E-01  4.2090359274283E-01  3.7356037809188E-02 -3.7756572084342E-01
13  1.2000000000000E-01  4.9376518972900E-01  4.5388398731647E-02 -4.3719118439347E-01
14  1.3000000000000E-01  5.7043221606932E-01  5.4386665783500E-02 -4.9780985325628E-01
15  1.4000000000000E-01  6.5030520816943E-01  6.4385791153806E-02 -5.5848460583510E-01
16  1.5000000000000E-01  7.3275162903661E-01  7.5413485185721E-02 -6.1824900133387E-01
17  1.6000000000000E-01  8.1711000485369E-01  8.7489178605322E-02 -6.7611818922822E-01
18  1.7000000000000E-01  9.0269452085773E-01  1.0062326675248E-01 -7.3110056114103E-01
19  1.8000000000000E-01  9.8880006397454E-01  1.1481666347633E-01 -7.8221004759436E-01
20  1.9000000000000E-01  1.0747076877714E+00  1.3006068184117E-01 -8.2847893704044E-01
21  2.0000000000000E-01  1.1596904630045E+00  1.4633724758125E-01 -8.6897106986722E-01
22  2.1000000000000E-01  1.2430196647340E+00  1.6361943970908E-01 -9.0279523662045E-01
23  2.2000000000000E-01  1.3239712350525E+00  1.8187234119629E-01 -9.2911858838260E-01
24  2.3000000000000E-01  1.4018324493124E+00  2.0105417158968E-01 -9.4717984897212E-01
25  2.4000000000000E-01  1.4759087037257E+00  2.2111766316497E-01 -9.5630210419818E-01
26  2.5000000000000E-01  1.5455303336989E+00  2.4201163310582E-01 -9.5590493356486E-01
27  2.6000000000000E-01  1.6100593655774E+00  2.6368269653837E-01 -9.4551564519373E-01
28  2.7000000000000E-01  1.6688960998745E+00  2.8607705932481E-01 -9.2477937581784E-01
29  2.8000000000000E-01  1.7214854217719E+00  3.0914232554008E-01 -8.9346782483530E-01
30  2.9000000000000E-01  1.7673227348426E+00  3.3282925268335E-01 -8.5148640476414E-01
31  3.0000000000000E-01  1.8059594166547E+00  3.5709338800356E-01 -7.9887960999355E-01
32  3.1000000000000E-01  1.8370077001661E+00  3.8189652186871E-01 -7.3583443128241E-01
33  3.2000000000000E-01  1.8601448925522E+00  4.0720789883587E-01 -6.6268167461724E-01
34  3.3000000000000E-01  1.8751168531730E+00  4.3300513386394E-01 -5.7989507923474E-01
35  3.4000000000000E-01  1.8817406645854E+00  4.5927478977029E-01 -4.8808817009669E-01
36  3.5000000000000E-01  1.8799064445369E+00  4.8601258231642E-01 -3.8800882397358E-01
37  3.6000000000000E-01  1.8695782624330E+00  5.1322319091542E-01 -2.8053157452314E-01
38  3.7000000000000E-01  1.8507941404355E+00  5.4091966553305E-01 -1.6664772920515E-01
39  3.8000000000000E-01  1.8236651367217E+00  5.6912243352135E-01 -4.7453418352136E-02
40  3.9000000000000E-01  1.7883735260564E+00  5.9785792346570E-01  7.5864257030667E-02
41  4.0000000000000E-01  1.7451701102325E+00  6.2715683622265E-01  2.0204276837438E-01
42  4.1000000000000E-01  1.6943707076727E+00  6.5705210575431E-01  3.2976114309636E-01
43  4.2000000000000E-01  1.6363518870962E+00  6.8757660371936E-01  4.5765810283716E-01
44  4.3000000000000E-01  1.5715460242302E+00  7.1876065168192E-01  5.8435104119903E-01
45  4.4000000000000E-01  1.5004357727079E+00  7.5062941290805E-01  7.0845550312248E-01
46  4.5000000000000E-01  1.4235480502185E+00  7.8320024174910E-01  8.2860481283879E-01
47  4.6000000000000E-01  1.3414476484008E+00  8.1648007233265E-01  9.4346949015082E-01
48  4.7000000000000E-01  1.2547305797171E+00  8.5046292954013E-01  1.0517760959501E+00
49  4.8000000000000E-01  1.1640172764856E+00  8.8512764396150E-01  1.1523251574679E+00
50  4.9000000000000E-01  1.0699457563784E+00  9.2043584867760E-01  1.2440078416516E+00
51  5.0000000000000E-01  9.7316486503866E-01  9.5633032940769E-01  1.3258210708857E+00
52  5.1000000000000E-01  8.7432770019653E-01  9.9273379092673E-01  1.3968808084553E+00
53  5.2000000000000E-01  7.7408531295894E-01  1.0295480919351E+00  1.4564332808647E+00
54  5.3000000000000E-01  6.7308077111867E-01  1.0666539880509E+00  1.5038639494006E+00
55  5.4000000000000E-01  5.7194365670982E-01  1.1039114086530E+00  1.5387040929991E+00
56  5.5000000000000E-01  4.7128505603560E-01  1.1411602783346E+00  1.5606349172567E+00
57  5.6000000000000E-01  3.7169308545146E-01  1.1782218781908E+00  1.5694891589392E+00
58  5.7000000000000E-01  2.7372898076695E-01  1.2149007265140E+00  1.5652502101465E+00
59  5.8000000000000E-01  1.7792376271262E-01  1.2509869432064E+00  1.5480488399385E+00
60  5.9000000000000E-01  8.4775475977862E-02  1.2862590477957E+00  1.5181576422924E+00
61  6.0000000000000E-01 -5.2530146840886E-03  1.3204871278304E+00  1.4759833864010E+00
62  6.1000000000000E-01 -9.1735700445857E-02  1.3534363030404E+00  1.4220574872831E+00
63  6.2000000000000E-01 -1.7428461658548E-01  1.3848704013505E+00  1.3570248503942E+00
64  6.3000000000000E-01 -2.5255059184752E-01  1.4145557559445E+00  1.2816313724599E+00
65  6.4000000000000E-01 -3.2622361459510E-01  1.4422650283199E+00  1.1967104014463E+00
66  6.5000000000000E-01 -3.9503287553747E-01  1.4677809608154E+00  1.1031684709343E+00
67  6.6000000000000E-01 -4.5874654847341E-01  1.4908999635004E+00  1.0019706279823E+00
68  6.7000000000000E-01 -5.1717136963437E-01  1.5114354445653E+00  8.9412566886914E-01
69  6.8000000000000E-01 -5.7015207294038E-01  1.5292208003451E+00  7.8067158420068E-01
70  6.9000000000000E-01 -6.1757073297844E-01  1.5441119906329E+00  6.6266149426559E-01
71  7.0000000000000E-01 -6.5934606003521E-01  1.5559896367343E+00  5.4115032800215E-01
72  7.1000000000000E-01 -6.9543268239785E-01  1.5647605934104E+00  4.1718246544782E-01
73  7.2000000000000E-01 -7.2582044076528E-01  1.5703589610450E+00  2.9178052522410E-01
74  7.3000000000000E-01 -7.5053370842710E-01  1.5727465205894E+00  1.6593543672618E-01
75  7.4000000000000E-01 -7.6963073933551E-01  1.5719125905656E+00  4.0597892617840E-02
76  7.5000000000000E-01 -7.8320303480161E-01  1.5678733221401E+00 -8.3328767615642E-02
77  7.6000000000000E-01 -7.9137470877482E-01  1.5606704644754E+00 -2.0499423649391E-01
78  7.7000000000000E-01 -7.9430182197726E-01  1.5503696477066E+00 -3.2360551533375E-01
79  7.8000000000000E-01 -7.9217164699424E-01  1.5370582445082E+00 -4.3842986340255E-01
80  7.9000000000000E-01 -7.8520182014708E-01  1.5208428828465E+00 -5.4879652811351E-01
81  8.0000000000000E-01 -7.7363933191126E-01  1.5018466918006E+00 -6.5409739369723E-01
82  8.1000000000000E-01 -7.5775930602913E-01  1.4802063689570E+00 -7.5378670819271E-01
83  8.2000000000000E-01 -7.3786351845521E-01  1.4560691616291E+00 -8.4738006406889E-01
84  8.3000000000000E-01 -7.1427861092129E-01  1.4295898548875E+00 -9.3445281597112E-01
85  8.4000000000000E-01 -6.8735396018056E-01  1.4009278570814E+00 -1.0146381198893E+00
86  8.5000000000000E-01 -6.5745917274744E-01  1.3702444682504E+00 -1.0876247716276E+00
87  8.6000000000000E-01 -6.2498118596003E-01  1.3377004087408E+00 -1.1531550092341E+00
88  8.7000000000000E-01 -5.9032096913439E-01  1.3034536747020E+00 -1.2110224246704E+00
89  8.8000000000000E-01 -5.5388983304915E-01  1.2676577743024E+00 -1.2610701053327E+00
90  8.9000000000000E-01 -5.1610537152394E-01  1.2304603838882E+00 -1.3031890971233E+00
91  9.0000000000000E-01 -4.7738707490610E-01  1.1920024473994E+00 -1.3373172488181E+00