Rg    ONCVPSP-4.0.1  r_core=   1.10118   1.20456   1.20456   1.15516
111.0000     51.0000      231012    zatom,zion,pspd
8   -1012   3     4   600     0    pspcod,pspxc,lmax,lloc,mmax,r2well
5.99000000  3.50000000  0.00000000    rchrg fchrg qchrg
3     3     2     2    nproj
3     1           extension_switch
3     3     3    nprojso
0                        -1.6703360950175E+01  1.2818663993237E+01 -8.7326083247729E-01
1  0.0000000000000E+00  3.2124636284436E-10  6.3603118327649E-09 -4.8482294581764E-08
2  1.0000000000000E-02  7.9945409306516E-02  2.1069162281860E-01 -7.9007569442070E-03
3  2.0000000000000E-02  1.5971569973000E-01  4.1900589114596E-01 -1.6059784381694E-02
4  3.0000000000000E-02  2.3913588669790E-01  6.2259374439860E-01 -2.4727571124640E-02
5  4.0000000000000E-02  3.1803126052979E-01  8.1916243447853E-01 -3.4139328702926E-02
6  5.0000000000000E-02  3.9622753948651E-01  1.0065029911731E+00 -4.4508054071862E-02
7  6.0000000000000E-02  4.7355104133170E-01  1.1825168518777E+00 -5.6018395870111E-02
8  7.0000000000000E-02  5.4982887921715E-01  1.3452413671055E+00 -6.8821530735153E-02
9  8.0000000000000E-02  6.2488918738199E-01  1.4928738868879E+00 -8.3031207701390E-02
10  9.0000000000000E-02  6.9856138173959E-01  1.6237941277971E+00 -9.8721062975290E-02
11  1.0000000000000E-01  7.7067645990648E-01  1.7365845174156E+00 -1.1592324728177E-01
12  1.1000000000000E-01  8.4106734459885E-01  1.8300482141915E+00 -1.3462834660929E-01
13  1.2000000000000E-01  9.0956927357884E-01  1.9032245072650E+00 -1.5478651772315E-01
14  1.3000000000000E-01  9.7602023847201E-01  1.9554013144339E+00 -1.7630970534566E-01
15  1.4000000000000E-01  1.0402614738010E+00  1.9861245180849E+00 -1.9907476124212E-01
16  1.5000000000000E-01  1.1021379964936E+00  1.9952039095074E+00 -2.2292724902868E-01
17  1.6000000000000E-01  1.1614991949365E+00  1.9827155519523E+00 -2.4768569422434E-01
18  1.7000000000000E-01  1.2181994653755E+00  1.9490004221086E+00 -2.7314602817762E-01
19  1.8000000000000E-01  1.2720988921280E+00  1.8946592478369E+00 -2.9908597757115E-01
20  1.9000000000000E-01  1.3230639667051E+00  1.8205435260438E+00 -3.2526916809274E-01
21  2.0000000000000E-01  1.3709683395625E+00  1.7277427770437E+00 -3.5144874066058E-01
22  2.1000000000000E-01  1.4156935968533E+00  1.6175681687288E+00 -3.7737031973471E-01
23  2.2000000000000E-01  1.4571300532773E+00  1.4915327231044E+00 -4.0277422354146E-01
24  2.3000000000000E-01  1.4951775509468E+00  1.3513283966859E+00 -4.2739686279448E-01
25  2.4000000000000E-01  1.5297462531611E+00  1.1988004021903E+00 -4.5097133464517E-01
26  2.5000000000000E-01  1.5607574211434E+00  1.0359192090968E+00 -4.7322727886080E-01
27  2.6000000000000E-01  1.5881441611638E+00  8.6475072229278E-01 -4.9389012027437E-01
28  2.7000000000000E-01  1.6118521291051E+00  6.8742518863756E-01 -5.1267987216317E-01
29  2.8000000000000E-01  1.6318401794259E+00  5.0610541865180E-01 -5.2930971646997E-01
30  2.9000000000000E-01  1.6480809456721E+00  3.2295493288306E-01 -5.4348460618634E-01
31  3.0000000000000E-01  1.6605613401802E+00  1.4010664853064E-01 -5.5490015086509E-01
32  3.1000000000000E-01  1.6692829614166E+00 -4.0367289064238E-02 -5.6324204687092E-01
33  3.2000000000000E-01  1.6742623984852E+00 -2.1648395350073E-01 -5.6818629914261E-01
34  3.3000000000000E-01  1.6755314236968E+00 -3.8637583093543E-01 -5.6940045122026E-01
35  3.4000000000000E-01  1.6731370657065E+00 -5.4831428796554E-01 -5.6654599618962E-01
36  3.5000000000000E-01  1.6671415575414E+00 -7.0072991468435E-01 -5.5928208484956E-01
37  3.6000000000000E-01  1.6576221558258E+00 -8.4222942801835E-01 -5.4727058132910E-01
38  3.7000000000000E-01  1.6446708296128E+00 -9.7160891285690E-01 -5.3018244363893E-01
39  3.8000000000000E-01  1.6283938193932E+00 -1.0878632759216E+00 -5.0770533071980E-01
40  3.9000000000000E-01  1.6089110690261E+00 -1.1901918864169E+00 -4.7955226218961E-01
41  4.0000000000000E-01  1.5863555354489E+00 -1.2780004748137E+00 -4.4547108600218E-01
42  4.1000000000000E-01  1.5608723830457E+00 -1.3508994532680E+00 -4.0525444631803E-01
43  4.2000000000000E-01  1.5326180714031E+00 -1.4086989050128E+00 -3.5874989246190E-01
44  4.3000000000000E-01  1.5017593468387E+00 -1.4514005627747E+00 -3.0586973285048E-01
45  4.4000000000000E-01  1.4684721494952E+00 -1.4791871555043E+00 -2.4660021754620E-01
46  4.5000000000000E-01  1.4329404489283E+00 -1.4924095467097E+00 -1.8100963122503E-01
47  4.6000000000000E-01  1.3953550219546E+00 -1.4915721152870E+00 -1.0925489559300E-01
48  4.7000000000000E-01  1.3559121870554E+00 -1.4773168405134E+00 -3.1586316524675E-02
49  4.8000000000000E-01  1.3148125098549E+00 -1.4504065470453E+00  5.1649834596023E-02
50  4.9000000000000E-01  1.2722594941078E+00 -1.4117077442828E+00  1.4001114557063E-01
51  5.0000000000000E-01  1.2284582722728E+00 -1.3621734589063E+00  2.3296145068349E-01
52  5.1000000000000E-01  1.1836143091234E+00 -1.3028264118878E+00  3.2987584349021E-01
53  5.2000000000000E-01  1.1379321310144E+00 -1.2347428344528E+00  4.3004827821478E-01
54  5.3000000000000E-01  1.0916140923906E+00 -1.1590371542668E+00  5.3270162130911E-01
55  5.4000000000000E-01  1.0448591899731E+00 -1.0768477167011E+00  6.3699991584424E-01
56  5.5000000000000E-01  9.9786193379667E-01 -9.8932363964047E-01  7.4206252965105E-01
57  5.6000000000000E-01  9.5081128297951E-01 -8.9761283705053E-01  8.4697977773950E-01
58  5.7000000000000E-01  9.0388965280284E-01 -8.0285118935878E-01  9.5082954429628E-01
59  5.8000000000000E-01  8.5727199841605E-01 -7.0615279015182E-01  1.0526943826878E+00
60  5.9000000000000E-01  8.1112497929635E-01 -6.0860116082801E-01  1.1516785458055E+00
61  6.0000000000000E-01  7.6560620750666E-01 -5.1124129915441E-01  1.2469243953201E+00
62  6.1000000000000E-01  7.2086358183467E-01 -4.1507241500350E-01  1.3376276575287E+00
63  6.2000000000000E-01  6.7703470907263E-01 -3.2104120704933E-01  1.4230510350156E+00
64  6.3000000000000E-01  6.3424641301539E-01 -2.3003554735326E-01  1.5025357458476E+00
65  6.4000000000000E-01  5.9261433120949E-01 -1.4287846537330E-01  1.5755106430293E+00
66  6.5000000000000E-01  5.5224259906785E-01 -6.0322357187400E-02  1.6414986631544E+00
67  6.6000000000000E-01  5.1322362065406E-01  1.6956612683744E-02  1.7001204605527E+00
68  6.7000000000000E-01  4.7563792521263E-01  8.8363903262228E-02  1.7510951971229E+00
69  6.8000000000000E-01  4.3955410835104E-01  1.5339172148616E-01  1.7942385734906E+00
70  6.9000000000000E-01  4.0502885663280E-01  2.1162377121881E-01  1.8294582990003E+00
71  7.0000000000000E-01  3.7210705419021E-01  2.6273947739713E-01  1.8567473012918E+00
72  7.1000000000000E-01  3.4082196977959E-01  3.0651750155466E-01  1.8761750661093E+00
73  7.2000000000000E-01  3.1119552245536E-01  3.4283834072940E-01  1.8878775703248E+00
74  7.3000000000000E-01  2.8323862371092E-01  3.7168578966366E-01  1.8920463224956E+00
75  7.4000000000000E-01  2.5695159350860E-01  3.9314704771975E-01  1.8889170530348E+00
76  7.5000000000000E-01  2.3232464709012E-01  4.0741126788259E-01  1.8787585987569E+00
77  7.6000000000000E-01  2.0933844882359E-01  4.1476637567601E-01  1.8618625037674E+00
78  7.7000000000000E-01  1.8796472861107E-01  4.1559403009371E-01  1.8385338111710E+00
79  7.8000000000000E-01  1.6816695556980E-01  4.1036265529455E-01  1.8090834498046E+00
80  7.9000000000000E-01  1.4990106283380E-01  3.9961853868741E-01  1.7738225301747E+00
81  8.0000000000000E-01  1.3311621643319E-01  3.8397506536511E-01  1.7330587579634E+00
82  8.1000000000000E-01  1.1775562033224E-01  3.6410023734704E-01  1.6870950566731E+00
83  8.2000000000000E-01  1.0375734888449E-01  3.4070270511173E-01  1.6362303685880E+00
84  8.3000000000000E-01  9.1055197237646E-02  3.1451661457562E-01  1.5807624810227E+00
85  8.4000000000000E-01  7.9579539632700E-02  2.8628564111240E-01  1.5209926086919E+00
86  8.5000000000000E-01  6.9258185133535E-02  2.5674663966345E-01  1.4572313587116E+00
87  8.6000000000000E-01  6.0017220127758E-02  2.2661338305570E-01  1.3898056175796E+00
88  8.7000000000000E-01  5.1781826988008E-02  1.9656088641028E-01  1.3190658341314E+00
89  8.8000000000000E-01  4.4477068594958E-02  1.6721082174356E-01  1.2453931327475E+00
90  8.9000000000000E-01  3.8028629010401E-02  1.3911851206717E-01  1.1692056796709E+00
91  9.0000000000000E-01  3.2363501451357E-02  1.1276195789632E-01  1.0909637437019E+00
92  9.1000000000000E-01  2.7410615843275E-02  8.8533291431117E-02  1.0111729408985E+00
93  9.2000000000000E-01  2.3101399599560E-02  6.6732976089839E-02  9.3038523007022E-01
94  9.3000000000000E-01  1.9370266852528E-02  4.7566973783312E-02  8.4919732925475E-01
95  9.4000000000000E-01  1.6155033103837E-02  3.1146992428956E-02  7.6824634926098E-01
96  9.5000000000000E-01  1.3397254118009E-02  1.7493805580378E-02  6.8820258382627E-01
97  9.6000000000000E-01  1.1042489792297E-02  6.5435091202136E-03  6.0975955123460E-01
98  9.7000000000000E-01  9.0404956351950E-03 -1.8435483095504E-03  5.3362154280996E-01
99  9.8000000000000E-01  7.3453463093609E-03 -7.8715490108909E-03  4.6048909273138E-01
100  9.9000000000000E-01  5.9154973761882E-03 -1.1796207531427E-02  3.9104293402540E-01
101  1.0000000000000E+00  4.7137928580631E-03 -1.3910594820870E-02  3.2592714070922E-01
102  1.0100000000000E+00  3.7074274529082E-03 -1.4530473856947E-02  2.6573226945385E-01
103  1.0200000000000E+00  2.8678731468212E-03 -1.3979896429447E-02  2.1097940036782E-01
104  1.0300000000000E+00  2.1707820025988E-03 -1.2577859198818E-02  1.6210604002051E-01
105  1.0400000000000E+00  1.5958649469522E-03 -1.0626676578400E-02  1.1945475807060E-01
106  1.0500000000000E+00  1.1255252951258E-03 -8.3924230111743E-03  8.3258270109333E-02
107  1.0600000000000E+00  7.3797302404564E-04 -6.0295789593008E-03  5.3585705370741E-02
108  1.0700000000000E+00  4.2959656349263E-04 -3.7794311999968E-03  3.0485223346024E-02
109  1.0800000000000E+00  2.0182346990698E-04 -1.8857350156181E-03  1.3937281312662E-02
110  1.0900000000000E+00  5.7219323228030E-05 -5.6169531422696E-04  3.8301825697235E-03
111  1.1000000000000E+00  1.4071785379216E-06 -1.4420661656110E-05  9.0131153753409E-05
112  1.1100000000000E+00  2.8122877598329E-07 -2.8750234316484E-06  1.8309538643543E-05
113  1.1200000000000E+00 -2.4886153658896E-08  2.4971422215268E-07 -1.6453411251767E-06
114  1.13  0.  0.  0.
115  1.14  0.  0.  0.
116  1.15  0.  0.  0.
117  1.16  0.  0.  0.
118  1.17  0.  0.  0.
119  1.18  0.  0.  0.
120  1.19  0.  0.  0.
121  1.20  0.  0.  0.
122  1.21  0.  0.  0.
123  1.22  0.  0.  0.
124  1.23  0.  0.  0.
125  1.24  0.  0.  0.
126  1.25  0.  0.  0.
127  1.26  0.  0.  0.
128  1.27  0.  0.  0.
129  1.28  0.  0.  0.
130  1.29  0.  0.  0.
131  1.30  0.  0.  0.
132  1.31  0.  0.  0.
133  1.32  0.  0.  0.
134  1.33  0.  0.  0.
135  1.34  0.  0.  0.
136  1.35  0.  0.  0.
137  1.36  0.  0.  0.
138  1.37  0.  0.  0.
139  1.38  0.  0.  0.
140  1.39  0.  0.  0.
141  1.40  0.  0.  0.
142  1.41  0.  0.  0.
143  1.42  0.  0.  0.
144  1.43  0.  0.  0.
145  1.44  0.  0.  0.
146  1.45  0.  0.  0.
147  1.46  0.  0.  0.
148  1.47  0.  0.  0.
149  1.48  0.  0.  0.
150  1.49  0.  0.  0.
151  1.50  0.  0.  0.
152  1.51  0.  0.  0.
153  1.52  0.  0.  0.
154  1.53  0.  0.  0.
155  1.54  0.  0.  0.
156  1.55  0.  0.  0.
157  1.56  0.  0.  0.
158  1.57  0.  0.  0.
159  1.58  0.  0.  0.
160  1.59  0.  0.  0.
161  1.60  0.  0.  0.
162  1.61  0.  0.  0.
163  1.62  0.  0.  0.
164  1.63  0.  0.  0.
165  1.64  0.  0.  0.
166  1.65  0.  0.  0.
167  1.66  0.  0.  0.
168  1.67  0.  0.  0.
169  1.68  0.  0.  0.
170  1.69  0.  0.  0.
171  1.70  0.  0.  0.
172  1.71  0.  0.  0.
173  1.72  0.  0.  0.
174  1.73  0.  0.  0.
175  1.74  0.  0.  0.
176  1.75  0.  0.  0.
177  1.76  0.  0.  0.
178  1.77  0.  0.  0.
179  1.78  0.  0.  0.
180  1.79  0.  0.  0.
181  1.80  0.  0.  0.
182  1.81  0.  0.  0.
183  1.82  0.  0.  0.
184  1.83  0.  0.  0.
185  1.84  0.  0.  0.
186  1.85  0.  0.  0.
187  1.86  0.  0.  0.
188  1.87  0.  0.  0.
189  1.88  0.  0.  0.
190  1.89  0.  0.  0.
191  1.90  0.  0.  0.
192  1.91  0.  0.  0.
193  1.92  0.  0.  0.
194  1.93  0.  0.  0.
195  1.94  0.  0.  0.
196  1.95  0.  0.  0.
197  1.96  0.  0.  0.
198  1.97  0.  0.  0.
199  1.98  0.  0.  0.
200  1.99  0.  0.  0.
201  2.00  0.  0.  0.
202  2.01  0.  0.  0.
203  2.02  0.  0.  0.
204  2.03  0.  0.  0.
205  2.04  0.  0.  0.
206  2.05  0.  0.  0.
207  2.06  0.  0.  0.
208  2.07  0.  0.  0.
209  2.08  0.  0.  0.
210  2.09  0.  0.  0.
211  2.10  0.  0.  0.
212  2.11  0.  0.  0.
213  2.12  0.  0.  0.
214  2.13  0.  0.  0.
215  2.14  0.  0.  0.
216  2.15  0.  0.  0.
217  2.16  0.  0.  0.
218  2.17  0.  0.  0.
219  2.18  0.  0.  0.
220  2.19  0.  0.  0.
221  2.20  0.  0.  0.
222  2.21  0.  0.  0.
223  2.22  0.  0.  0.
224  2.23  0.  0.  0.
225  2.24  0.  0.  0.
226  2.25  0.  0.  0.
227  2.26  0.  0.  0.
228  2.27  0.  0.  0.
229  2.28  0.  0.  0.
230  2.29  0.  0.  0.
231  2.30  0.  0.  0.
232  2.31  0.  0.  0.
233  2.32  0.  0.  0.
234  2.33  0.  0.  0.
235  2.34  0.  0.  0.
236  2.35  0.  0.  0.
237  2.36  0.  0.  0.
238  2.37  0.  0.  0.
239  2.38  0.  0.  0.
240  2.39  0.  0.  0.
241  2.40  0.  0.  0.
242  2.41  0.  0.  0.
243  2.42  0.  0.  0.
244  2.43  0.  0.  0.
245  2.44  0.  0.  0.
246  2.45  0.  0.  0.
247  2.46  0.  0.  0.
248  2.47  0.  0.  0.
249  2.48  0.  0.  0.
250  2.49  0.  0.  0.
251  2.50  0.  0.  0.
252  2.51  0.  0.  0.
253  2.52  0.  0.  0.
254  2.53  0.  0.  0.
255  2.54  0.  0.  0.
256  2.55  0.  0.  0.
257  2.56  0.  0.  0.
258  2.57  0.  0.  0.
259  2.58  0.  0.  0.
260  2.59  0.  0.  0.
261  2.60  0.  0.  0.
262  2.61  0.  0.  0.
263  2.62  0.  0.  0.
264  2.63  0.  0.  0.
265  2.64  0.  0.  0.
266  2.65  0.  0.  0.
267  2.66  0.  0.  0.
268  2.67  0.  0.  0.
269  2.68  0.  0.  0.
270  2.69  0.  0.  0.
271  2.70  0.  0.  0.
272  2.71  0.  0.  0.
273  2.72  0.  0.  0.
274  2.73  0.  0.  0.
275  2.74  0.  0.  0.
276  2.75  0.  0.  0.
277  2.76  0.  0.  0.
278  2.77  0.  0.  0.
279  2.78  0.  0.  0.
280  2.79  0.  0.  0.
281  2.80  0.  0.  0.
282  2.81  0.  0.  0.
283  2.82  0.  0.  0.
284  2.83  0.  0.  0.
285  2.84  0.  0.  0.
286  2.85  0.  0.  0.
287  2.86  0.  0.  0.
288  2.87  0.  0.  0.
289  2.88  0.  0.  0.
290  2.89  0.  0.  0.
291  2.90  0.  0.  0.
292  2.91  0.  0.  0.
293  2.92  0.  0.  0.
294  2.93  0.  0.  0.
295  2.94  0.  0.  0.
296  2.95  0.  0.  0.
297  2.96  0.  0.  0.
298  2.97  0.  0.  0.
299  2.98  0.  0.  0.
300  2.99  0.  0.  0.
301  3.00  0.  0.  0.
302  3.01  0.  0.  0.
303  3.02  0.  0.  0.
304  3.03  0.  0.  0.
305  3.04  0.  0.  0.
306  3.05  0.  0.  0.
307  3.06  0.  0.  0.
308  3.07  0.  0.  0.
309  3.08  0.  0.  0.
310  3.09  0.  0.  0.
311  3.10  0.  0.  0.
312  3.11  0.  0.  0.
313  3.12  0.  0.  0.
314  3.13  0.  0.  0.
315  3.14  0.  0.  0.
316  3.15  0.  0.  0.
317  3.16  0.  0.  0.
318  3.17  0.  0.  0.
319  3.18  0.  0.  0.
320  3.19  0.  0.  0.
321  3.20  0.  0.  0.
322  3.21  0.  0.  0.
323  3.22  0.  0.  0.
324  3.23  0.  0.  0.
325  3.24  0.  0.  0.
326  3.25  0.  0.  0.
327  3.26  0.  0.  0.
328  3.27  0.  0.  0.
329  3.28  0.  0.  0.
330  3.29  0.  0.  0.
331  3.30  0.  0.  0.
332  3.31  0.  0.  0.
333  3.32  0.  0.  0.
334  3.33  0.  0.  0.
335  3.34  0.  0.  0.
336  3.35  0.  0.  0.
337  3.36  0.  0.  0.
338  3.37  0.  0.  0.
339  3.38  0.  0.  0.
340  3.39  0.  0.  0.
341  3.40  0.  0.  0.
342  3.41  0.  0.  0.
343  3.42  0.  0.  0.
344  3.43  0.  0.  0.
345  3.44  0.  0.  0.
346  3.45  0.  0.  0.
347  3.46  0.  0.  0.
348  3.47  0.  0.  0.
349  3.48  0.  0.  0.
350  3.49  0.  0.  0.
351  3.50  0.  0.  0.
352  3.51  0.  0.  0.
353  3.52  0.  0.  0.
354  3.53  0.  0.  0.
355  3.54  0.  0.  0.
356  3.55  0.  0.  0.
357  3.56  0.  0.  0.
358  3.57  0.  0.  0.
359  3.58  0.  0.  0.
360  3.59  0.  0.  0.
361  3.60  0.  0.  0.
362  3.61  0.  0.  0.
363  3.62  0.  0.  0.
364  3.63  0.  0.  0.
365  3.64  0.  0.  0.
366  3.65  0.  0.  0.
367  3.66  0.  0.  0.
368  3.67  0.  0.  0.
369  3.68  0.  0.  0.
370  3.69  0.  0.  0.
371  3.70  0.  0.  0.
372  3.71  0.  0.  0.
373  3.72  0.  0.  0.
374  3.73  0.  0.  0.
375  3.74  0.  0.  0.
376  3.75  0.  0.  0.
377  3.76  0.  0.  0.
378  3.77  0.  0.  0.
379  3.78  0.  0.  0.
380  3.79  0.  0.  0.
381  3.80  0.  0.  0.
382  3.81  0.  0.  0.
383  3.82  0.  0.  0.
384  3.83  0.  0.  0.
385  3.84  0.  0.  0.
386  3.85  0.  0.  0.
387  3.86  0.  0.  0.
388  3.87  0.  0.  0.
389  3.88  0.  0.  0.
390  3.89  0.  0.  0.
391  3.90  0.  0.  0.
392  3.91  0.  0.  0.
393  3.92  0.  0.  0.
394  3.93  0.  0.  0.
395  3.94  0.  0.  0.
396  3.95  0.  0.  0.
397  3.96  0.  0.  0.
398  3.97  0.  0.  0.
399  3.98  0.  0.  0.
400  3.99  0.  0.  0.
401  4.00  0.  0.  0.
402  4.01  0.  0.  0.
403  4.02  0.  0.  0.
404  4.03  0.  0.  0.
405  4.04  0.  0.  0.
406  4.05  0.  0.  0.
407  4.06  0.  0.  0.
408  4.07  0.  0.  0.
409  4.08  0.  0.  0.
410  4.09  0.  0.  0.
411  4.10  0.  0.  0.
412  4.11  0.  0.  0.
413  4.12  0.  0.  0.
414  4.13  0.  0.  0.
415  4.14  0.  0.  0.
416  4.15  0.  0.  0.
417  4.16  0.  0.  0.
418  4.17  0.  0.  0.
419  4.18  0.  0.  0.
420  4.19  0.  0.  0.
421  4.20  0.  0.  0.
422  4.21  0.  0.  0.
423  4.22  0.  0.  0.
424  4.23  0.  0.  0.
425  4.24  0.  0.  0.
426  4.25  0.  0.  0.
427  4.26  0.  0.  0.
428  4.27  0.  0.  0.
429  4.28  0.  0.  0.
430  4.29  0.  0.  0.
431  4.30  0.  0.  0.
432  4.31  0.  0.  0.
433  4.32  0.  0.  0.
434  4.33  0.  0.  0.
435  4.34  0.  0.  0.
436  4.35  0.  0.  0.
437  4.36  0.  0.  0.
438  4.37  0.  0.  0.
439  4.38  0.  0.  0.
440  4.39  0.  0.  0.
441  4.40  0.  0.  0.
442  4.41  0.  0.  0.
443  4.42  0.  0.  0.
444  4.43  0.  0.  0.
445  4.44  0.  0.  0.
446  4.45  0.  0.  0.
447  4.46  0.  0.  0.
448  4.47  0.  0.  0.
449  4.48  0.  0.  0.
450  4.49  0.  0.  0.
451  4.50  0.  0.  0.
452  4.51  0.  0.  0.
453  4.52  0.  0.  0.
454  4.53  0.  0.  0.
455  4.54  0.  0.  0.
456  4.55  0.  0.  0.
457  4.56  0.  0.  0.
458  4.57  0.  0.  0.
459  4.58  0.  0.  0.
460  4.59  0.  0.  0.
461  4.60  0.  0.  0.
462  4.61  0.  0.  0.
463  4.62  0.  0.  0.
464  4.63  0.  0.  0.
465  4.64  0.  0.  0.
466  4.65  0.  0.  0.
467  4.66  0.  0.  0.
468  4.67  0.  0.  0.
469  4.68  0.  0.  0.
470  4.69  0.  0.  0.
471  4.70  0.  0.  0.
472  4.71  0.  0.  0.
473  4.72  0.  0.  0.
474  4.73  0.  0.  0.
475  4.74  0.  0.  0.
476  4.75  0.  0.  0.
477  4.76  0.  0.  0.
478  4.77  0.  0.  0.
479  4.78  0.  0.  0.
480  4.79  0.  0.  0.
481  4.80  0.  0.  0.
482  4.81  0.  0.  0.
483  4.82  0.  0.  0.
484  4.83  0.  0.  0.
485  4.84  0.  0.  0.
486  4.85  0.  0.  0.
487  4.86  0.  0.  0.
488  4.87  0.  0.  0.
489  4.88  0.  0.  0.
490  4.89  0.  0.  0.
491  4.90  0.  0.  0.
492  4.91  0.  0.  0.
493  4.92  0.  0.  0.
494  4.93  0.  0.  0.
495  4.94  0.  0.  0.
496  4.95  0.  0.  0.
497  4.96  0.  0.  0.
498  4.97  0.  0.  0.
499  4.98  0.  0.  0.
500  4.99  0.  0.  0.
501  5.00  0.  0.  0.
502  5.01  0.  0.  0.
503  5.02  0.  0.  0.
504  5.03  0.  0.  0.
505  5.04  0.  0.  0.
506  5.05  0.  0.  0.
507  5.06  0.  0.  0.
508  5.07  0.  0.  0.
509  5.08  0.  0.  0.
510  5.09  0.  0.  0.
511  5.10  0.  0.  0.
512  5.11  0.  0.  0.
513  5.12  0.  0.  0.
514  5.13  0.  0.  0.
515  5.14  0.  0.  0.
516  5.15  0.  0.  0.
517  5.16  0.  0.  0.
518  5.17  0.  0.  0.
519  5.18  0.  0.  0.
520  5.19  0.  0.  0.
521  5.20  0.  0.  0.
522  5.21  0.  0.  0.
523  5.22  0.  0.  0.
524  5.23  0.  0.  0.
525  5.24  0.  0.  0.
526  5.25  0.  0.  0.
527  5.26  0.  0.  0.
528  5.27  0.  0.  0.
529  5.28  0.  0.  0.
530  5.29  0.  0.  0.
531  5.30  0.  0.  0.
532  5.31  0.  0.  0.
533  5.32  0.  0.  0.
534  5.33  0.  0.  0.
535  5.34  0.  0.  0.
536  5.35  0.  0.  0.
537  5.36  0.  0.  0.
538  5.37  0.  0.  0.
539  5.38  0.  0.  0.
540  5.39  0.  0.  0.
541  5.40  0.  0.  0.
542  5.41  0.  0.  0.
543  5.42  0.  0.  0.
544  5.43  0.  0.  0.
545  5.44  0.  0.  0.
546  5.45  0.  0.  0.
547  5.46  0.  0.  0.
548  5.47  0.  0.  0.
549  5.48  0.  0.  0.
550  5.49  0.  0.  0.
551  5.50  0.  0.  0.
552  5.51  0.  0.  0.
553  5.52  0.  0.  0.
554  5.53  0.  0.  0.
555  5.54  0.  0.  0.
556  5.55  0.  0.  0.
557  5.56  0.  0.  0.
558  5.57  0.  0.  0.
559  5.58  0.  0.  0.
560  5.59  0.  0.  0.
561  5.60  0.  0.  0.
562  5.61  0.  0.  0.
563  5.62  0.  0.  0.
564  5.63  0.  0.  0.
565  5.64  0.  0.  0.
566  5.65  0.  0.  0.
567  5.66  0.  0.  0.
568  5.67  0.  0.  0.
569  5.68  0.  0.  0.
570  5.69  0.  0.  0.
571  5.70  0.  0.  0.
572  5.71  0.  0.  0.
573  5.72  0.  0.  0.
574  5.73  0.  0.  0.
575  5.74  0.  0.  0.
576  5.75  0.  0.  0.
577  5.76  0.  0.  0.
578  5.77  0.  0.  0.
579  5.78  0.  0.  0.
580  5.79  0.  0.  0.
581  5.80  0.  0.  0.
582  5.81  0.  0.  0.
583  5.82  0.  0.  0.
584  5.83  0.  0.  0.
585  5.84  0.  0.  0.
586  5.85  0.  0.  0.
587  5.86  0.  0.  0.
588  5.87  0.  0.  0.
589  5.88  0.  0.  0.
590  5.89  0.  0.  0.
591  5.90  0.  0.  0.
592  5.91  0.  0.  0.
593  5.92  0.  0.  0.
594  5.93  0.  0.  0.
595  5.94  0.  0.  0.
596  5.95  0.  0.  0.
597  5.96  0.  0.  0.
598  5.97  0.  0.  0.
599  5.98  0.  0.  0.
600  5.99  0.  0.  0.
1                        -1.4965609346021E+01 -2.1428505392219E+00 -8.9222026340738E-02
1  0.0000000000000E+00  5.4912904501325E-09 -2.1347154821605E-08  2.9221954439551E-08
2  1.0000000000000E-02  3.3598450015443E-03 -4.5236101130551E-03  3.9984665017686E-03
3  2.0000000000000E-02  1.3412161226762E-02 -1.8031018083683E-02  1.5923208947365E-02
4  3.0000000000000E-02  3.0075556007858E-02 -4.0332801431137E-02  3.5563355868410E-02
5  4.0000000000000E-02  5.3215250721401E-02 -7.1116059232641E-02  6.2571104058698E-02
6  5.0000000000000E-02  8.2644383789951E-02 -1.0994857442129E-01  9.6467135054632E-02
7  6.0000000000000E-02  1.1812581357114E-01 -1.5628455666452E-01  1.3664808428793E-01
8  7.0000000000000E-02  1.5937440017359E-01 -2.0947188310728E-01  1.8239595094668E-01
9  8.0000000000000E-02  2.0605973974790E-01 -2.6876073291681E-01  2.3288930735900E-01
10  9.0000000000000E-02  2.5780931967153E-01 -3.3331349187717E-01  2.8721613951941E-01
11  1.0000000000000E-01  3.1421205834847E-01 -4.0221578555899E-01  3.4438812561450E-01
12  1.1000000000000E-01  3.7482218913800E-01 -4.7448848410645E-01  4.0335613743588E-01
13  1.2000000000000E-01  4.3916344426805E-01 -5.4910050867276E-01  4.6302673073209E-01
14  1.3000000000000E-01  5.0673349152068E-01 -6.2498225918849E-01  5.2227937513638E-01
15  1.4000000000000E-01  5.7700857403830E-01 -7.0103947560765E-01  5.7998416256172E-01
16  1.5000000000000E-01  6.4944830181453E-01 -7.7616734014018E-01  6.3501972507866E-01
17  1.6000000000000E-01  7.2350054232087E-01 -8.4926462629357E-01  6.8629108942222E-01
18  1.7000000000000E-01  7.9860635728491E-01 -9.1924770180477E-01  7.3274719550831E-01
19  1.8000000000000E-01  8.7420493287496E-01 -9.8506419669521E-01  7.7339781069554E-01
20  1.9000000000000E-01  9.4973845144574E-01 -1.0457061546226E+00  8.0732957998050E-01
21  2.0000000000000E-01  1.0246568545367E+00 -1.1002224952887E+00  8.3372096476306E-01
22  2.1000000000000E-01  1.0984224489572E+00 -1.1477306277015E+00  8.5185583910688E-01
23  2.2000000000000E-01  1.1705143105005E+00 -1.1874270683548E+00  8.6113553233244E-01
24  2.3000000000000E-01  1.2404324430521E+00 -1.2185969346215E+00  8.6108913003382E-01
25  2.4000000000000E-01  1.3077016545458E+00 -1.2406222015593E+00  8.5138187187644E-01
26  2.5000000000000E-01  1.3718751153086E+00 -1.2529886295970E+00  8.3182151342107E-01
27  2.6000000000000E-01  1.4325375687611E+00 -1.2552912908702E+00  8.0236255029697E-01
28  2.7000000000000E-01  1.4893081691357E+00 -1.2472386429624E+00  7.6310823584334E-01
29  2.8000000000000E-01  1.5418429257680E+00 -1.2286551201490E+00  7.1431035733749E-01
30  2.9000000000000E-01  1.5898367385355E+00 -1.1994822335761E+00  6.5636677060738E-01
31  3.0000000000000E-01  1.6330250140947E+00 -1.1597781928146E+00  5.8981672762145E-01
32  3.1000000000000E-01  1.6711848576289E+00 -1.1097160815756E+00  5.1533406601378E-01
33  3.2000000000000E-01  1.7041358397948E+00 -1.0495806397654E+00  4.3371836286755E-01
34  3.3000000000000E-01  1.7317403433894E+00 -9.7976372220440E-01  3.4588418690816E-01
35  3.4000000000000E-01  1.7539034988798E+00 -9.0075852099391E-01  2.5284861301574E-01
36  3.5000000000000E-01  1.7705727223003E+00 -8.1315265346101E-01  1.5571719016385E-01
37  3.6000000000000E-01  1.7817368730666E+00 -7.1762023066176E-01  5.5668578069700E-02
38  3.7000000000000E-01  1.7874250529501E+00 -6.1491303242976E-01 -4.6061911407540E-02
39  3.8000000000000E-01  1.7877050707531E+00 -5.0585092381005E-01 -1.4819961511048E-01
40  3.9000000000000E-01  1.7826816001039E+00 -3.9131165434804E-01 -2.4944839575793E-01
41  4.0000000000000E-01  1.7724940602232E+00 -2.7222018607903E-01 -3.4850882092647E-01
42  4.1000000000000E-01  1.7573142514887E+00 -1.4953769819359E-01 -4.4409636514786E-01
43  4.2000000000000E-01  1.7373437791343E+00 -2.4250416282168E-02 -5.3495935677902E-01
44  4.3000000000000E-01  1.7128112994599E+00  1.0264158813100E-01 -6.1989639616580E-01
45  4.4000000000000E-01  1.6839696235139E+00  2.3013548625792E-01 -6.9777298092282E-01
46  4.5000000000000E-01  1.6510927133428E+00  3.5723653348673E-01 -7.6753708773459E-01
47  4.6000000000000E-01  1.6144726056093E+00  4.8296853593329E-01 -8.2823347772047E-01
48  4.7000000000000E-01  1.5744162966830E+00  6.0638382373812E-01 -8.7901651380443E-01
49  4.8000000000000E-01  1.5312426222313E+00  7.2657262334711E-01 -9.1916130332045E-01
50  4.9000000000000E-01  1.4852791629224E+00  8.4267173271356E-01 -9.4807300686041E-01
51  5.0000000000000E-01  1.4368592061221E+00  9.5387241593002E-01 -9.6529418465270E-01
52  5.1000000000000E-01  1.3863187914727E+00  1.0594274470108E+00 -9.7051008404484E-01
53  5.2000000000000E-01  1.3339938660150E+00  1.1586572461729E+00 -9.6355180540295E-01
54  5.3000000000000E-01  1.2802175720973E+00  1.2509550657819E+00 -9.4439731837017E-01
55  5.4000000000000E-01  1.2253176887519E+00  1.3357911969217E+00 -9.1317033536344E-01
56  5.5000000000000E-01  1.1696142445518E+00  1.4127161811174E+00 -8.7013708384338E-01
57  5.6000000000000E-01  1.1134173172164E+00  1.4813630248884E+00 -8.1570105269032E-01
58  5.7000000000000E-01  1.0570250324733E+00  1.5414484273795E+00 -7.5039582038868E-01
59  5.8000000000000E-01  1.0007217719207E+00  1.5927730431437E+00 -6.7487610312680E-01
60  5.9000000000000E-01  9.4477659691575E-01  1.6352208131120E+00 -5.8990718884606E-01
61  6.0000000000000E-01  8.8944189286932E-01  1.6687574067722E+00 -4.9635294825694E-01
62  6.1000000000000E-01  8.3495223577879E-01  1.6934278275009E+00 -3.9516263546616E-01
63  6.2000000000000E-01  7.8152348040944E-01  1.7093532407933E+00 -2.8735670875709E-01
64  6.3000000000000E-01  7.2935206725718E-01  1.7167270917695E+00 -1.7401191594614E-01
65  6.4000000000000E-01  6.7861454331208E-01  1.7158105837868E+00 -5.6245898353821E-02
66  6.5000000000000E-01  6.2946728970569E-01  1.7069275942540E+00  6.4798427371898E-02
67  6.6000000000000E-01  5.8204644757723E-01  1.6904591068484E+00  1.8796844966115E-01
68  6.7000000000000E-01  5.3646803194089E-01  1.6668372413142E+00  3.1211714858536E-01
69  6.8000000000000E-01  4.9282822198450E-01  1.6365389629222E+00  4.3611784082650E-01
70  6.9000000000000E-01  4.5120381507895E-01  1.6000795535625E+00  5.5887814795963E-01
71  7.0000000000000E-01  4.1165283082787E-01  1.5580059253970E+00  6.7935296974524E-01
72  7.1000000000000E-01  3.7421525073404E-01  1.5108898560966E+00  7.9655626477638E-01
73  7.2000000000000E-01  3.3891387849827E-01  1.4593212220237E+00  9.0957146498080E-01
74  7.3000000000000E-01  3.0575530558974E-01  1.4039013023746E+00  1.0175603777479E+00
75  7.4000000000000E-01  2.7473096652621E-01  1.3452362233736E+00  1.1197704593625E+00
76  7.5000000000000E-01  2.4581826826791E-01  1.2839306071926E+00  1.2155403754820E+00
77  7.6000000000000E-01  2.1898177824916E-01  1.2205814854497E+00  1.3043037980375E+00
78  7.7000000000000E-01  1.9417445583631E-01  1.1557725320058E+00  1.3855914225896E+00
79  7.8000000000000E-01  1.7133891239610E-01  1.0900686644031E+00  1.4590312252295E+00
80  7.9000000000000E-01  1.5040868567472E-01  1.0240110577573E+00  1.5243470129508E+00
81  8.0000000000000E-01  1.3130951481083E-01  9.5811260927795E-01  1.5813553554347E+00
82  8.1000000000000E-01  1.1396060302463E-01  8.9285388592905E-01  1.6299610187483E+00
83  8.2000000000000E-01  9.8275855827403E-02  8.2867958208569E-01  1.6701510519804E+00
84  8.3000000000000E-01  8.4165083470592E-02  7.6599550845194E-01  1.7019877057651E+00
85  8.4000000000000E-01  7.1535157288798E-02  7.0516612801101E-01  1.7256003864356E+00
86  8.5000000000000E-01  6.0291110576709E-02  6.4651264941310E-01  1.7411768707517E+00
87  8.6000000000000E-01  5.0337175665497E-02  5.9031168299414E-01  1.7489540233308E+00
88  8.7000000000000E-01  4.1577749919528E-02  5.3679445957985E-01  1.7492082717422E+00
89  8.8000000000000E-01  3.3918284450063E-02  4.8614660737870E-01  1.7422461024313E+00
90  8.9000000000000E-01  2.7266090429714E-02  4.3850847761680E-01  1.7283948440346E+00
91  9.0000000000000E-01  2.1531058980986E-02  3.9397600512679E-01  1.7079940031358E+00
92  9.1000000000000E-01  1.6626291695915E-02  3.5260208587893E-01  1.6813874110751E+00
93  9.2000000000000E-01  1.2468639913276E-02  3.1439844944410E-01  1.6489164291741E+00
94  9.3000000000000E-01  8.9791519273576E-03  2.7933800061097E-01  1.6109144438094E+00
95  9.4000000000000E-01  6.0834283199199E-03  2.4735760085379E-01  1.5677028624806E+00
96  9.5000000000000E-01  3.7118865873940E-03  2.1836125707042E-01  1.5195887976828E+00
97  9.6000000000000E-01  1.7999371714717E-03  1.9222368199531E-01  1.4668645974766E+00
98  9.7000000000000E-01  2.8807388553497E-04  1.6879418795245E-01  1.4098093506504E+00
99  9.8000000000000E-01 -8.7811744428714E-04  1.4790087316324E-01  1.3486924608624E+00
100  9.9000000000000E-01 -1.7480275433987E-03  1.2935505768370E-01  1.2837793487822E+00
101  1.0000000000000E+00 -2.3661641874911E-03  1.1295592422969E-01  1.2153393046691E+00
102  1.0100000000000E+00 -2.7723587509003E-03  9.8495317682399E-02  1.1436554767434E+00