Rg    ONCVPSP-4.0.1  r_core=   1.10118   1.20456   1.20456   1.15516
111.0000     51.0000      231012    zatom,zion,pspd
8   -1012   3     4   600     0    pspcod,pspxc,lmax,lloc,mmax,r2well
5.99000000  3.50000000  0.00000000    rchrg fchrg qchrg
3     2     2     2     0    nproj
1     1           extension_switch
0                        -1.6978894603803E+01  1.2559574524053E+01 -9.0784330039417E-01
1  0.0000000000000E+00  2.3371116153470E-10  8.0042075190079E-09 -4.7614182402400E-08
2  1.0000000000000E-02  8.1031003301771E-02  2.1049823530461E-01 -7.6996162772811E-03
3  2.0000000000000E-02  1.6187821469579E-01  4.1861325255243E-01 -1.5670103911127E-02
4  3.0000000000000E-02  2.4235805635306E-01  6.2199012319698E-01 -2.4174271090177E-02
5  4.0000000000000E-02  3.2228738383107E-01  8.1833022946377E-01 -3.3459086987069E-02
6  5.0000000000000E-02  4.0148371578882E-01  1.0054187461241E+00 -4.3748466968292E-02
7  6.0000000000000E-02  4.7976547918305E-01  1.1811513059714E+00 -5.5236866128474E-02
8  7.0000000000000E-02  5.5695227485503E-01  1.3435595648356E+00 -6.8083890404129E-02
9  8.0000000000000E-02  6.3286516818338E-01  1.4908353739690E+00 -8.2410086907689E-02
10  9.0000000000000E-02  7.0732700916518E-01  1.6213532603807E+00 -9.8294020333739E-02
11  1.0000000000000E-01  7.8016278588373E-01  1.7336909107784E+00 -1.1577068311864E-01
12  1.1000000000000E-01  8.5120001481528E-01  1.8266473538471E+00 -1.3483122649988E-01
13  1.2000000000000E-01  9.2026917081059E-01  1.8992585402937E+00 -1.5542394080773E-01
14  1.3000000000000E-01  9.8720415885251E-01  1.9508100319180E+00 -1.7745635922801E-01
15  1.4000000000000E-01  1.0518428288361E+00  1.9808465311816E+00 -2.0079831265374E-01
16  1.5000000000000E-01  1.1140275336442E+00  1.9891780122772E+00 -2.2528572646757E-01
17  1.6000000000000E-01  1.1736057297062E+00  1.9758822540458E+00 -2.5072492502577E-01
18  1.7000000000000E-01  1.2304306180466E+00  1.9413036243008E+00 -2.7689719750773E-01
19  1.8000000000000E-01  1.2843618225664E+00  1.8860480237139E+00 -3.0356338023359E-01
20  1.9000000000000E-01  1.3352661009893E+00  1.8109739644121E+00 -3.3046822541850E-01
21  2.0000000000000E-01  1.3830180825650E+00  1.7171798323334E+00 -3.5734435379602E-01
22  2.1000000000000E-01  1.4275010253029E+00  1.6059874612379E+00 -3.8391562711738E-01
23  2.2000000000000E-01  1.4686075842371E+00  1.4789222277309E+00 -4.0989982413090E-01
24  2.3000000000000E-01  1.5062405810488E+00  1.3376899580751E+00 -4.3501055769332E-01
25  2.4000000000000E-01  1.5403137643327E+00  1.1841510161337E+00 -4.5895842822209E-01
26  2.5000000000000E-01  1.5707525489346E+00  1.0202920145700E+00 -4.8145146661485E-01
27  2.6000000000000E-01  1.5974947221364E+00  8.4819565562143E-01 -5.0219497482742E-01
28  2.7000000000000E-01  1.6204911040746E+00  6.7000926069606E-01 -5.2089092142203E-01
29  2.8000000000000E-01  1.6397061496549E+00  4.8791258739745E-01 -5.3723708973331E-01
30  2.9000000000000E-01  1.6551184794061E+00  3.0408555647007E-01 -5.5092620544949E-01
31  3.0000000000000E-01  1.6667213272017E+00  1.2067651821195E-01 -5.6164528649194E-01
32  3.1000000000000E-01  1.6745228935781E+00 -6.0228322625737E-02 -5.6907545988661E-01
33  3.2000000000000E-01  1.6785465944738E+00 -2.3663373263445E-01 -5.7289247735517E-01
34  3.3000000000000E-01  1.6788311965994E+00 -4.0666198071418E-01 -5.7276813386869E-01
35  3.4000000000000E-01  1.6754308322853E+00 -5.6857658980339E-01 -5.6837275242546E-01
36  3.5000000000000E-01  1.6684148885080E+00 -7.2080290002740E-01 -5.5937884556044E-01
37  3.6000000000000E-01  1.6578677668234E+00 -8.6194512045900E-01 -5.4546600195927E-01
38  3.7000000000000E-01  1.6438885130811E+00 -9.9079964178084E-01 -5.2632697794001E-01
39  3.8000000000000E-01  1.6265903180047E+00 -1.1063644825056E+00 -5.0167490181188E-01
40  3.9000000000000E-01  1.6060998919324E+00 -1.2078448435476E+00 -4.7125142778219E-01
41  4.0000000000000E-01  1.5825567191720E+00 -1.2946548462645E+00 -4.3483560881100E-01
42  4.1000000000000E-01  1.5561121994617E+00 -1.3664156241002E+00 -3.9225319814555E-01
43  4.2000000000000E-01  1.5269286859015E+00 -1.4229500243667E+00 -3.4338604047632E-01
44  4.3000000000000E-01  1.4951784303711E+00 -1.4642742515873E+00 -2.8818117856535E-01
45  4.4000000000000E-01  1.4610424488396E+00 -1.4905868447392E+00 -2.2665928205177E-01
46  4.5000000000000E-01  1.4247093200755E+00 -1.5022554258278E+00 -1.5892200346988E-01
47  4.6000000000000E-01  1.3863739320451E+00 -1.4998016853131E+00 -8.5157883066332E-02
48  4.7000000000000E-01  1.3462361907462E+00 -1.4838850805181E+00 -5.6464586644026E-03
49  4.8000000000000E-01  1.3044997063552E+00 -1.4552857165250E+00  7.9239711366329E-02
50  4.9000000000000E-01  1.2613704713793E+00 -1.4148868562059E+00  1.6903533681790E-01
51  5.0000000000000E-01  1.2170555450264E+00 -1.3636574685521E+00  2.6318514086505E-01
52  5.1000000000000E-01  1.1717617572580E+00 -1.3026351746210E+00  3.6104911712116E-01
53  5.2000000000000E-01  1.1256944450231E+00 -1.2329098909112E+00  4.6191025851653E-01
54  5.3000000000000E-01  1.0790562320133E+00 -1.1556084039007E+00  5.6498462093374E-01
55  5.4000000000000E-01  1.0320458619964E+00 -1.0718800401293E+00  6.6943349004701E-01
56  5.5000000000000E-01  9.8485709441259E-01 -9.8288352695200E-01  7.7437733214930E-01
57  5.6000000000000E-01  9.3767766951662E-01 -8.8977507320149E-01  8.7891113296307E-01
58  5.7000000000000E-01  8.9068834896059E-01 -7.9369763952555E-01  9.8212066615702E-01
59  5.8000000000000E-01  8.4406203638470E-01 -6.9577131775639E-01  1.0830991885972E+00
60  5.9000000000000E-01  7.9796298135151E-01 -5.9708469948666E-01  1.1809640345767E+00
61  6.0000000000000E-01  7.5254606885568E-01 -4.9868708761882E-01  1.2748725778755E+00
62  6.1000000000000E-01  7.0795619568679E-01 -4.0158139190173E-01  1.3640370490455E+00
63  6.2000000000000E-01  6.6432773412963E-01 -3.0671755053346E-01  1.4477377353727E+00
64  6.3000000000000E-01  6.2178408285836E-01 -2.1498633423688E-01  1.5253341511268E+00
65  6.4000000000000E-01  5.8043730441122E-01 -1.2721341555316E-01  1.5962738436545E+00
66  6.5000000000000E-01  5.4038784830602E-01 -4.4153622564602E-02  1.6600985934178E+00
67  6.6000000000000E-01  5.0172435865178E-01  3.3514659571493E-02  1.7164478693810E+00
68  6.7000000000000E-01  4.6452356499907E-01  1.0519492687341E-01  1.7650595107508E+00
69  6.8000000000000E-01  4.2885025511868E-01  1.7037777142408E-01  1.8057677172407E+00
70  6.9000000000000E-01  3.9475732836928E-01  2.2864576055402E-01  1.8384985378151E+00
71  7.0000000000000E-01  3.6228592827442E-01  2.7967782355741E-01  1.8632631474542E+00
72  7.1000000000000E-01  3.3146565284282E-01  3.2325295257340E-01  1.8801492883142E+00
73  7.2000000000000E-01  3.0231484100373E-01  3.5925299816158E-01  1.8893113217121E+00
74  7.3000000000000E-01  2.7484093326593E-01  3.8766432668175E-01  1.8909593873133E+00
75  7.4000000000000E-01  2.4904090432684E-01  4.0857810743499E-01  1.8853481932661E+00
76  7.5000000000000E-01  2.2490176484820E-01  4.2218901349174E-01  1.8727659643539E+00
77  7.6000000000000E-01  2.0240112897633E-01  4.2879215132446E-01  1.8535240541089E+00
78  7.7000000000000E-01  1.8150784342740E-01  4.2877808006268E-01  1.8279476819790E+00
79  7.8000000000000E-01  1.6218267309966E-01  4.2262583990968E-01  1.7963681898843E+00
80  7.9000000000000E-01  1.4437903724378E-01  4.1089397876591E-01  1.7591171266932E+00
81  8.0000000000000E-01  1.2804378925287E-01  3.9420964351769E-01  1.7165223680906E+00
82  8.1000000000000E-01  1.1311803216799E-01  3.7325588434012E-01  1.6689063675724E+00
83  8.2000000000000E-01  9.9537961078438E-02  3.4875740292974E-01  1.6165865170255E+00
84  8.3000000000000E-01  8.7235722776506E-02  3.2146505479409E-01  1.5598774780627E+00
85  8.4000000000000E-01  7.6140282351854E-02  2.9213948751627E-01  1.4990952336100E+00
86  8.5000000000000E-01  6.6178285926788E-02  2.6153435737551E-01  1.4345625086812E+00
87  8.6000000000000E-01  5.7274908480474E-02  2.3037961227186E-01  1.3666151249406E+00
88  8.7000000000000E-01  4.9354675721352E-02  1.9936535653326E-01  1.2956087900271E+00
89  8.8000000000000E-01  4.2342249266697E-02  1.6912682051425E-01  1.2219257833342E+00
90  8.9000000000000E-01  3.6163164989944E-02  1.4023094338460E-01  1.1459809876252E+00
91  9.0000000000000E-01  3.0744515301548E-02  1.1316504052310E-01  1.0682267319519E+00
92  9.1000000000000E-01  2.6015567326631E-02  8.8327967825877E-02  9.8915595603558E-01
93  9.2000000000000E-01  2.1908310408466E-02  6.6024115353658E-02  9.0930327844504E-01
94  9.3000000000000E-01  1.8357928064692E-02  4.6460464391074E-02  8.2924364819558E-01
95  9.4000000000000E-01  1.5303191405322E-02  2.9746828387625E-02  7.4958837822160E-01
96  9.5000000000000E-01  1.2686773030467E-02  1.5899273409292E-02  6.7097849488716E-01
97  9.6000000000000E-01  1.0455482496642E-02  4.8465822481916E-03  5.9407548483684E-01
98  9.7000000000000E-01  8.5604265021978E-03 -3.5605066318662E-03  5.1954967281437E-01
99  9.8000000000000E-01  6.9570989229088E-03 -9.5376833208361E-03  4.4806661511721E-01
100  9.9000000000000E-01  5.6054076543343E-03 -1.3353591832405E-02  3.8027203635463E-01
101  1.0000000000000E+00  4.4696468212014E-03 -1.5315120299755E-02  3.1677596579555E-01
102  1.0100000000000E+00  3.5184242315355E-03 -1.5752166306529E-02  2.5813683769443E-01
103  1.0200000000000E+00  2.7245549323683E-03 -1.5002651203947E-02  2.0484640238042E-01
104  1.0300000000000E+00  2.0649337954176E-03 -1.3398608047203E-02  1.5731635578257E-01
105  1.0400000000000E+00  1.5203880380749E-03 -1.1254020937807E-02  1.1586751002257E-01
106  1.0500000000000E+00  1.0742838445919E-03 -8.8441120777002E-03  8.0715536440128E-02
107  1.0600000000000E+00  7.0559244011266E-04 -6.3258433086473E-03  5.1920186865137E-02
108  1.0700000000000E+00  4.1135781687647E-04 -3.9485099948040E-03  2.9520044792270E-02
109  1.0800000000000E+00  1.9350119320835E-04 -1.9620758023057E-03  1.3487226048816E-02
110  1.0900000000000E+00  5.4919183388366E-05 -5.8206573904086E-04  3.7038256380160E-03
111  1.1000000000000E+00  1.3503628156296E-06 -1.4819135583383E-05  8.7057102432808E-05
112  1.1100000000000E+00  2.7033880334414E-07 -2.9747750028893E-06  1.7695189290860E-05
113  1.1200000000000E+00 -2.3914322213766E-08  2.5890409003214E-07 -1.5907216827887E-06
114  1.13  0.  0.  0.
115  1.14  0.  0.  0.
116  1.15  0.  0.  0.
117  1.16  0.  0.  0.
118  1.17  0.  0.  0.
119  1.18  0.  0.  0.
120  1.19  0.  0.  0.
121  1.20  0.  0.  0.
122  1.21  0.  0.  0.
123  1.22  0.  0.  0.
124  1.23  0.  0.  0.
125  1.24  0.  0.  0.
126  1.25  0.  0.  0.
127  1.26  0.  0.  0.
128  1.27  0.  0.  0.
129  1.28  0.  0.  0.
130  1.29  0.  0.  0.
131  1.30  0.  0.  0.
132  1.31  0.  0.  0.
133  1.32  0.  0.  0.
134  1.33  0.  0.  0.
135  1.34  0.  0.  0.
136  1.35  0.  0.  0.
137  1.36  0.  0.  0.
138  1.37  0.  0.  0.
139  1.38  0.  0.  0.
140  1.39  0.  0.  0.
141  1.40  0.  0.  0.
142  1.41  0.  0.  0.
143  1.42  0.  0.  0.
144  1.43  0.  0.  0.
145  1.44  0.  0.  0.
146  1.45  0.  0.  0.
147  1.46  0.  0.  0.
148  1.47  0.  0.  0.
149  1.48  0.  0.  0.
150  1.49  0.  0.  0.
151  1.50  0.  0.  0.
152  1.51  0.  0.  0.
153  1.52  0.  0.  0.
154  1.53  0.  0.  0.
155  1.54  0.  0.  0.
156  1.55  0.  0.  0.
157  1.56  0.  0.  0.
158  1.57  0.  0.  0.
159  1.58  0.  0.  0.
160  1.59  0.  0.  0.
161  1.60  0.  0.  0.
162  1.61  0.  0.  0.
163  1.62  0.  0.  0.
164  1.63  0.  0.  0.
165  1.64  0.  0.  0.
166  1.65  0.  0.  0.
167  1.66  0.  0.  0.
168  1.67  0.  0.  0.
169  1.68  0.  0.  0.
170  1.69  0.  0.  0.
171  1.70  0.  0.  0.
172  1.71  0.  0.  0.
173  1.72  0.  0.  0.
174  1.73  0.  0.  0.
175  1.74  0.  0.  0.
176  1.75  0.  0.  0.
177  1.76  0.  0.  0.
178  1.77  0.  0.  0.
179  1.78  0.  0.  0.
180  1.79  0.  0.  0.
181  1.80  0.  0.  0.
182  1.81  0.  0.  0.
183  1.82  0.  0.  0.
184  1.83  0.  0.  0.
185  1.84  0.  0.  0.
186  1.85  0.  0.  0.
187  1.86  0.  0.  0.
188  1.87  0.  0.  0.
189  1.88  0.  0.  0.
190  1.89  0.  0.  0.
191  1.90  0.  0.  0.
192  1.91  0.  0.  0.
193  1.92  0.  0.  0.
194  1.93  0.  0.  0.
195  1.94  0.  0.  0.
196  1.95  0.  0.  0.
197  1.96  0.  0.  0.
198  1.97  0.  0.  0.
199  1.98  0.  0.  0.
200  1.99  0.  0.  0.
201  2.00  0.  0.  0.
202  2.01  0.  0.  0.
203  2.02  0.  0.  0.
204  2.03  0.  0.  0.
205  2.04  0.  0.  0.
206  2.05  0.  0.  0.
207  2.06  0.  0.  0.
208  2.07  0.  0.  0.
209  2.08  0.  0.  0.
210  2.09  0.  0.  0.
211  2.10  0.  0.  0.
212  2.11  0.  0.  0.
213  2.12  0.  0.  0.
214  2.13  0.  0.  0.
215  2.14  0.  0.  0.
216  2.15  0.  0.  0.
217  2.16  0.  0.  0.
218  2.17  0.  0.  0.
219  2.18  0.  0.  0.
220  2.19  0.  0.  0.
221  2.20  0.  0.  0.
222  2.21  0.  0.  0.
223  2.22  0.  0.  0.
224  2.23  0.  0.  0.
225  2.24  0.  0.  0.
226  2.25  0.  0.  0.
227  2.26  0.  0.  0.
228  2.27  0.  0.  0.
229  2.28  0.  0.  0.
230  2.29  0.  0.  0.
231  2.30  0.  0.  0.
232  2.31  0.  0.  0.
233  2.32  0.  0.  0.
234  2.33  0.  0.  0.
235  2.34  0.  0.  0.
236  2.35  0.  0.  0.
237  2.36  0.  0.  0.
238  2.37  0.  0.  0.
239  2.38  0.  0.  0.
240  2.39  0.  0.  0.
241  2.40  0.  0.  0.
242  2.41  0.  0.  0.
243  2.42  0.  0.  0.
244  2.43  0.  0.  0.
245  2.44  0.  0.  0.
246  2.45  0.  0.  0.
247  2.46  0.  0.  0.
248  2.47  0.  0.  0.
249  2.48  0.  0.  0.
250  2.49  0.  0.  0.
251  2.50  0.  0.  0.
252  2.51  0.  0.  0.
253  2.52  0.  0.  0.
254  2.53  0.  0.  0.
255  2.54  0.  0.  0.
256  2.55  0.  0.  0.
257  2.56  0.  0.  0.
258  2.57  0.  0.  0.
259  2.58  0.  0.  0.
260  2.59  0.  0.  0.
261  2.60  0.  0.  0.
262  2.61  0.  0.  0.
263  2.62  0.  0.  0.
264  2.63  0.  0.  0.
265  2.64  0.  0.  0.
266  2.65  0.  0.  0.
267  2.66  0.  0.  0.
268  2.67  0.  0.  0.
269  2.68  0.  0.  0.
270  2.69  0.  0.  0.
271  2.70  0.  0.  0.
272  2.71  0.  0.  0.
273  2.72  0.  0.  0.
274  2.73  0.  0.  0.
275  2.74  0.  0.  0.
276  2.75  0.  0.  0.
277  2.76  0.  0.  0.
278  2.77  0.  0.  0.
279  2.78  0.  0.  0.
280  2.79  0.  0.  0.
281  2.80  0.  0.  0.
282  2.81  0.  0.  0.
283  2.82  0.  0.  0.
284  2.83  0.  0.  0.
285  2.84  0.  0.  0.
286  2.85  0.  0.  0.
287  2.86  0.  0.  0.
288  2.87  0.  0.  0.
289  2.88  0.  0.  0.
290  2.89  0.  0.  0.
291  2.90  0.  0.  0.
292  2.91  0.  0.  0.
293  2.92  0.  0.  0.
294  2.93  0.  0.  0.
295  2.94  0.  0.  0.
296  2.95  0.  0.  0.
297  2.96  0.  0.  0.
298  2.97  0.  0.  0.
299  2.98  0.  0.  0.
300  2.99  0.  0.  0.
301  3.00  0.  0.  0.
302  3.01  0.  0.  0.
303  3.02  0.  0.  0.
304  3.03  0.  0.  0.
305  3.04  0.  0.  0.
306  3.05  0.  0.  0.
307  3.06  0.  0.  0.
308  3.07  0.  0.  0.
309  3.08  0.  0.  0.
310  3.09  0.  0.  0.
311  3.10  0.  0.  0.
312  3.11  0.  0.  0.
313  3.12  0.  0.  0.
314  3.13  0.  0.  0.
315  3.14  0.  0.  0.
316  3.15  0.  0.  0.
317  3.16  0.  0.  0.
318  3.17  0.  0.  0.
319  3.18  0.  0.  0.
320  3.19  0.  0.  0.
321  3.20  0.  0.  0.
322  3.21  0.  0.  0.
323  3.22  0.  0.  0.
324  3.23  0.  0.  0.
325  3.24  0.  0.  0.
326  3.25  0.  0.  0.
327  3.26  0.  0.  0.
328  3.27  0.  0.  0.
329  3.28  0.  0.  0.
330  3.29  0.  0.  0.
331  3.30  0.  0.  0.
332  3.31  0.  0.  0.
333  3.32  0.  0.  0.
334  3.33  0.  0.  0.
335  3.34  0.  0.  0.
336  3.35  0.  0.  0.
337  3.36  0.  0.  0.
338  3.37  0.  0.  0.
339  3.38  0.  0.  0.
340  3.39  0.  0.  0.
341  3.40  0.  0.  0.
342  3.41  0.  0.  0.
343  3.42  0.  0.  0.
344  3.43  0.  0.  0.
345  3.44  0.  0.  0.
346  3.45  0.  0.  0.
347  3.46  0.  0.  0.
348  3.47  0.  0.  0.
349  3.48  0.  0.  0.
350  3.49  0.  0.  0.
351  3.50  0.  0.  0.
352  3.51  0.  0.  0.
353  3.52  0.  0.  0.
354  3.53  0.  0.  0.
355  3.54  0.  0.  0.
356  3.55  0.  0.  0.
357  3.56  0.  0.  0.
358  3.57  0.  0.  0.
359  3.58  0.  0.  0.
360  3.59  0.  0.  0.
361  3.60  0.  0.  0.
362  3.61  0.  0.  0.
363  3.62  0.  0.  0.
364  3.63  0.  0.  0.
365  3.64  0.  0.  0.
366  3.65  0.  0.  0.
367  3.66  0.  0.  0.
368  3.67  0.  0.  0.
369  3.68  0.  0.  0.
370  3.69  0.  0.  0.
371  3.70  0.  0.  0.
372  3.71  0.  0.  0.
373  3.72  0.  0.  0.
374  3.73  0.  0.  0.
375  3.74  0.  0.  0.
376  3.75  0.  0.  0.
377  3.76  0.  0.  0.
378  3.77  0.  0.  0.
379  3.78  0.  0.  0.
380  3.79  0.  0.  0.
381  3.80  0.  0.  0.
382  3.81  0.  0.  0.
383  3.82  0.  0.  0.
384  3.83  0.  0.  0.
385  3.84  0.  0.  0.
386  3.85  0.  0.  0.
387  3.86  0.  0.  0.
388  3.87  0.  0.  0.
389  3.88  0.  0.  0.
390  3.89  0.  0.  0.
391  3.90  0.  0.  0.
392  3.91  0.  0.  0.
393  3.92  0.  0.  0.
394  3.93  0.  0.  0.
395  3.94  0.  0.  0.
396  3.95  0.  0.  0.
397  3.96  0.  0.  0.
398  3.97  0.  0.  0.
399  3.98  0.  0.  0.
400  3.99  0.  0.  0.
401  4.00  0.  0.  0.
402  4.01  0.  0.  0.
403  4.02  0.  0.  0.
404  4.03  0.  0.  0.
405  4.04  0.  0.  0.
406  4.05  0.  0.  0.
407  4.06  0.  0.  0.
408  4.07  0.  0.  0.
409  4.08  0.  0.  0.
410  4.09  0.  0.  0.
411  4.10  0.  0.  0.
412  4.11  0.  0.  0.
413  4.12  0.  0.  0.
414  4.13  0.  0.  0.
415  4.14  0.  0.  0.
416  4.15  0.  0.  0.
417  4.16  0.  0.  0.
418  4.17  0.  0.  0.
419  4.18  0.  0.  0.
420  4.19  0.  0.  0.
421  4.20  0.  0.  0.
422  4.21  0.  0.  0.
423  4.22  0.  0.  0.
424  4.23  0.  0.  0.
425  4.24  0.  0.  0.
426  4.25  0.  0.  0.
427  4.26  0.  0.  0.
428  4.27  0.  0.  0.
429  4.28  0.  0.  0.
430  4.29  0.  0.  0.
431  4.30  0.  0.  0.
432  4.31  0.  0.  0.
433  4.32  0.  0.  0.
434  4.33  0.  0.  0.
435  4.34  0.  0.  0.
436  4.35  0.  0.  0.
437  4.36  0.  0.  0.
438  4.37  0.  0.  0.
439  4.38  0.  0.  0.
440  4.39  0.  0.  0.
441  4.40  0.  0.  0.
442  4.41  0.  0.  0.
443  4.42  0.  0.  0.
444  4.43  0.  0.  0.
445  4.44  0.  0.  0.
446  4.45  0.  0.  0.
447  4.46  0.  0.  0.
448  4.47  0.  0.  0.
449  4.48  0.  0.  0.
450  4.49  0.  0.  0.
451  4.50  0.  0.  0.
452  4.51  0.  0.  0.
453  4.52  0.  0.  0.
454  4.53  0.  0.  0.
455  4.54  0.  0.  0.
456  4.55  0.  0.  0.
457  4.56  0.  0.  0.
458  4.57  0.  0.  0.
459  4.58  0.  0.  0.
460  4.59  0.  0.  0.
461  4.60  0.  0.  0.
462  4.61  0.  0.  0.
463  4.62  0.  0.  0.
464  4.63  0.  0.  0.
465  4.64  0.  0.  0.
466  4.65  0.  0.  0.
467  4.66  0.  0.  0.
468  4.67  0.  0.  0.
469  4.68  0.  0.  0.
470  4.69  0.  0.  0.
471  4.70  0.  0.  0.
472  4.71  0.  0.  0.
473  4.72  0.  0.  0.
474  4.73  0.  0.  0.
475  4.74  0.  0.  0.
476  4.75  0.  0.  0.
477  4.76  0.  0.  0.
478  4.77  0.  0.  0.
479  4.78  0.  0.  0.
480  4.79  0.  0.  0.
481  4.80  0.  0.  0.
482  4.81  0.  0.  0.
483  4.82  0.  0.  0.
484  4.83  0.  0.  0.
485  4.84  0.  0.  0.
486  4.85  0.  0.  0.
487  4.86  0.  0.  0.
488  4.87  0.  0.  0.
489  4.88  0.  0.  0.
490  4.89  0.  0.  0.
491  4.90  0.  0.  0.
492  4.91  0.  0.  0.
493  4.92  0.  0.  0.
494  4.93  0.  0.  0.
495  4.94  0.  0.  0.
496  4.95  0.  0.  0.
497  4.96  0.  0.  0.
498  4.97  0.  0.  0.
499  4.98  0.  0.  0.
500  4.99  0.  0.  0.
501  5.00  0.  0.  0.
502  5.01  0.  0.  0.
503  5.02  0.  0.  0.
504  5.03  0.  0.  0.
505  5.04  0.  0.  0.
506  5.05  0.  0.  0.
507  5.06  0.  0.  0.
508  5.07  0.  0.  0.
509  5.08  0.  0.  0.
510  5.09  0.  0.  0.
511  5.10  0.  0.  0.
512  5.11  0.  0.  0.
513  5.12  0.  0.  0.
514  5.13  0.  0.  0.
515  5.14  0.  0.  0.
516  5.15  0.  0.  0.
517  5.16  0.  0.  0.
518  5.17  0.  0.  0.
519  5.18  0.  0.  0.
520  5.19  0.  0.  0.
521  5.20  0.  0.  0.
522  5.21  0.  0.  0.
523  5.22  0.  0.  0.
524  5.23  0.  0.  0.
525  5.24  0.  0.  0.
526  5.25  0.  0.  0.
527  5.26  0.  0.  0.
528  5.27  0.  0.  0.
529  5.28  0.  0.  0.
530  5.29  0.  0.  0.
531  5.30  0.  0.  0.
532  5.31  0.  0.  0.
533  5.32  0.  0.  0.
534  5.33  0.  0.  0.
535  5.34  0.  0.  0.
536  5.35  0.  0.  0.
537  5.36  0.  0.  0.
538  5.37  0.  0.  0.
539  5.38  0.  0.  0.
540  5.39  0.  0.  0.
541  5.40  0.  0.  0.
542  5.41  0.  0.  0.
543  5.42  0.  0.  0.
544  5.43  0.  0.  0.
545  5.44  0.  0.  0.
546  5.45  0.  0.  0.
547  5.46  0.  0.  0.
548  5.47  0.  0.  0.
549  5.48  0.  0.  0.
550  5.49  0.  0.  0.
551  5.50  0.  0.  0.
552  5.51  0.  0.  0.
553  5.52  0.  0.  0.
554  5.53  0.  0.  0.
555  5.54  0.  0.  0.
556  5.55  0.  0.  0.
557  5.56  0.  0.  0.
558  5.57  0.  0.  0.
559  5.58  0.  0.  0.
560  5.59  0.  0.  0.
561  5.60  0.  0.  0.
562  5.61  0.  0.  0.
563  5.62  0.  0.  0.
564  5.63  0.  0.  0.
565  5.64  0.  0.  0.
566  5.65  0.  0.  0.
567  5.66  0.  0.  0.
568  5.67  0.  0.  0.
569  5.68  0.  0.  0.
570  5.69  0.  0.  0.
571  5.70  0.  0.  0.
572  5.71  0.  0.  0.
573  5.72  0.  0.  0.
574  5.73  0.  0.  0.
575  5.74  0.  0.  0.
576  5.75  0.  0.  0.
577  5.76  0.  0.  0.
578  5.77  0.  0.  0.
579  5.78  0.  0.  0.
580  5.79  0.  0.  0.
581  5.80  0.  0.  0.
582  5.81  0.  0.  0.
583  5.82  0.  0.  0.
584  5.83  0.  0.  0.
585  5.84  0.  0.  0.
586  5.85  0.  0.  0.
587  5.86  0.  0.  0.
588  5.87  0.  0.  0.
589  5.88  0.  0.  0.
590  5.89  0.  0.  0.
591  5.90  0.  0.  0.
592  5.91  0.  0.  0.
593  5.92  0.  0.  0.
594  5.93  0.  0.  0.
595  5.94  0.  0.  0.
596  5.95  0.  0.  0.
597  5.96  0.  0.  0.
598  5.97  0.  0.  0.
599  5.98  0.  0.  0.
600  5.99  0.  0.  0.
1                        -1.4077983215212E+01 -1.3664190618566E+00
1  0.0000000000000E+00  5.1531721112497E-09 -1.7042216221563E-08
2  1.0000000000000E-02  3.2722241948098E-03 -3.9461502675802E-03
3  2.0000000000000E-02  1.3062844429221E-02 -1.5731691163867E-02
4  3.0000000000000E-02  2.9293952875766E-02 -3.5198574807006E-02
5  4.0000000000000E-02  5.1836531009401E-02 -6.2085651082385E-02
6  5.0000000000000E-02  8.0511681320742E-02 -9.6032028140073E-02
7  6.0000000000000E-02  1.1509233172107E-01 -1.3658170959323E-01
8  7.0000000000000E-02  1.5530539297537E-01 -1.8318944224365E-01
9  8.0000000000000E-02  2.0083434434637E-01 -2.3522769111827E-01
10  9.0000000000000E-02  2.5132221781820E-01 -2.9199464290879E-01
11  1.0000000000000E-01  3.0637494685617E-01 -3.5272312481267E-01
12  1.1000000000000E-01  3.6556504170806E-01 -4.1659031349867E-01
13  1.2000000000000E-01  4.2843554981168E-01 -4.8272809864676E-01
14  1.3000000000000E-01  4.9450425698671E-01 -5.5023395739211E-01
15  1.4000000000000E-01  5.6326808278936E-01 -6.1818219014403E-01
16  1.5000000000000E-01  6.3420762172123E-01 -6.8563536472460E-01
17  1.6000000000000E-01  7.0679178092477E-01 -7.5165581460552E-01
18  1.7000000000000E-01  7.8048246457232E-01 -8.1531703820275E-01
19  1.8000000000000E-01  8.5473925536138E-01 -8.7571484966315E-01
20  1.9000000000000E-01  9.2902404435205E-01 -9.3197813725342E-01
21  2.0000000000000E-01  1.0028055618026E+00 -9.8327909320917E-01
22  2.1000000000000E-01  1.0755637636457E+00 -1.0288427885592E+00
23  2.2000000000000E-01  1.1467940307624E+00 -1.0679559778143E+00
24  2.3000000000000E-01  1.2160111412113E+00 -1.0999750312797E+00
25  2.4000000000000E-01  1.2827529790022E+00 -1.1243329068848E+00
26  2.5000000000000E-01  1.3465839468104E+00 -1.1405450885503E+00
27  2.6000000000000E-01  1.4070980541578E+00 -1.1482144339854E+00
28  2.7000000000000E-01  1.4639216569586E+00 -1.1470348911346E+00
29  2.8000000000000E-01  1.5167158288982E+00 -1.1367940590095E+00
30  2.9000000000000E-01  1.5651783497936E+00 -1.1173745850769E+00
31  3.0000000000000E-01  1.6090453008249E+00 -1.0887544074640E+00
32  3.1000000000000E-01  1.6480922612518E+00 -1.0510058657434E+00
33  3.2000000000000E-01  1.6821351058806E+00 -1.0042937187434E+00
34  3.3000000000000E-01  1.7110304070619E+00 -9.4887212148350E-01
35  3.4000000000000E-01  1.7346754493203E+00 -8.8508062578512E-01
36  3.5000000000000E-01  1.7530078687990E+00 -8.1333928018905E-01
37  3.6000000000000E-01  1.7660049334900E+00 -7.3414291440663E-01
38  3.7000000000000E-01  1.7736824836788E+00 -6.4805470154181E-01
39  3.8000000000000E-01  1.7760935551297E+00 -5.5569909768266E-01
40  3.9000000000000E-01  1.7733267102399E+00 -4.5775426314254E-01
41  4.0000000000000E-01  1.7655041046816E+00 -3.5494407263063E-01
42  4.1000000000000E-01  1.7527793189192E+00 -2.4802982297637E-01
43  4.2000000000000E-01  1.7353349854214E+00 -1.3780174677896E-01
44  4.3000000000000E-01  1.7133802433892E+00 -2.5070438582112E-02
45  4.4000000000000E-01  1.6871480533960E+00  8.9341703011334E-02
46  4.5000000000000E-01  1.6568924044957E+00  2.0460891834474E-01
47  4.6000000000000E-01  1.6228854461180E+00  3.1991032151959E-01
48  4.7000000000000E-01  1.5854145764600E+00  4.3443784032389E-01
49  4.8000000000000E-01  1.5447795181204E+00  5.4740378204783E-01
50  4.9000000000000E-01  1.5012894104486E+00  6.5804795408672E-01
51  5.0000000000000E-01  1.4552599465172E+00  7.6564427686174E-01
52  5.1000000000000E-01  1.4070105808161E+00  8.6950683555316E-01
53  5.2000000000000E-01  1.3568618317407E+00  9.6899532627640E-01
54  5.3000000000000E-01  1.3051327007548E+00  1.0635198614861E+00
55  5.4000000000000E-01  1.2521382277670E+00  1.1525451084235E+00
56  5.5000000000000E-01  1.1981871998362E+00  1.2355937431998E+00
57  5.6000000000000E-01  1.1435800278189E+00  1.3122492115190E+00
58  5.7000000000000E-01  1.0886068030578E+00  1.3821577949882E+00
59  5.8000000000000E-01  1.0335455436912E+00  1.4450299893684E+00
60  5.9000000000000E-01  9.7866063768812E-01  1.5006412079159E+00
61  6.0000000000000E-01  9.2420148730036E-01  1.5488318291150E+00
62  6.1000000000000E-01  8.7040135730176E-01  1.5895066135872E+00
63  6.2000000000000E-01  8.1747642717314E-01  1.6226335197574E+00
64  6.3000000000000E-01  7.6562504531345E-01  1.6482419519954E+00
65  6.4000000000000E-01  7.1502718142392E-01  1.6664204784291E+00
66  6.5000000000000E-01  6.6584407143759E-01  1.6773140585022E+00
67  6.6000000000000E-01  6.1821804775925E-01  1.6811208226485E+00
68  6.7000000000000E-01  5.7227254614769E-01  1.6780884482496E+00
69  6.8000000000000E-01  5.2811227931547E-01  1.6685101773738E+00
70  6.9000000000000E-01  4.8582356624275E-01  1.6527205227368E+00
71  7.0000000000000E-01  4.4547480529894E-01  1.6310907089309E+00
72  7.1000000000000E-01  4.0711707853603E-01  1.6040238963054E+00
73  7.2000000000000E-01  3.7078487395448E-01  1.5719502349971E+00
74  7.3000000000000E-01  3.3649691214022E-01  1.5353217965601E+00
75  7.4000000000000E-01  3.0425706342160E-01  1.4946074304637E+00
76  7.5000000000000E-01  2.7405534158884E-01  1.4502875924566E+00
77  7.6000000000000E-01  2.4586896024734E-01  1.4028491914463E+00
78  7.7000000000000E-01  2.1966343802867E-01  1.3527805011341E+00
79  7.8000000000000E-01  1.9539373915110E-01  1.3005661821730E+00
80  7.9000000000000E-01  1.7300543619358E-01  1.2466824600678E+00
81  8.0000000000000E-01  1.5243588241478E-01  1.1915925033927E+00
82  8.1000000000000E-01  1.3361538150120E-01  1.1357420461336E+00
83  8.2000000000000E-01  1.1646834325798E-01  1.0795552970239E+00
84  8.3000000000000E-01  1.0091441445253E-01  1.0234311775989E+00
85  8.4000000000000E-01  8.6869574777323E-02  9.6773992929250E-01
86  8.5000000000000E-01  7.4247188705830E-02  9.1282012818431E-01
87  8.6000000000000E-01  6.2959004866769E-02  8.5897614393992E-01
88  8.7000000000000E-01  5.2916095450189E-02  8.0647607701007E-01
89  8.8000000000000E-01  4.4029729076673E-02  7.5555020523534E-01
90  8.9000000000000E-01  3.6212171502089E-02  7.0638996760321E-01
91  9.0000000000000E-01  2.9377409487594E-02  6.5914750900206E-01
92  9.1000000000000E-01  2.3441794132086E-02  6.1393580540080E-01
93  9.2000000000000E-01  1.8324600934834E-02  5.7082938395417E-01
94  9.3000000000000E-01  1.3948504823291E-02  5.2986564711196E-01
95  9.4000000000000E-01  1.0239969338106E-02  4.9104680392574E-01
96  9.5000000000000E-01  7.1295501071071E-03  4.5434240545042E-01
97  9.6000000000000E-01  4.5521136555411E-03  4.1969247449530E-01
98  9.7000000000000E-01  2.4469734835919E-03  3.8701121306877E-01
99  9.8000000000000E-01  7.5794618683352E-04  3.5619126378178E-01
100  9.9000000000000E-01 -5.6666880683192E-04  3.2710849433381E-01
101  1.0000000000000E+00 -1.5741815661867E-03  2.9962726711823E-01
102  1.0100000000000E+00 -2.3076710518662E-03  2.7360614908287E-01
103  1.0200000000000E+00 -2.8062059642765E-03  2.4890401039837E-01
104  1.0300000000000E+00 -3.1051208928802E-03  2.2538645435433E-01
105  1.0400000000000E+00 -3.2363411589515E-03  2.0293251535503E-01
106  1.0500000000000E+00 -3.2287493756699E-03  1.8144155705975E-01
107  1.0600000000000E+00 -3.1085864731095E-03  1.6084029871806E-01
108  1.0700000000000E+00 -2.8998797562491E-03  1.4108989470487E-01
109  1.0800000000000E+00 -2.6248904843949E-03  1.2219299026228E-01
110  1.0900000000000E+00 -2.3045738516864E-03  1.0420068562227E-01
111  1.1000000000000E+00 -1.9590402033935E-03  8.7219227132698E-02
112  1.1100000000000E+00 -1.6079221432911E-03  7.1413915038350E-02
113  1.1200000000000E+00 -1.2691414248489E-03  5.6969387154585E-02
114  1.1300000000000E+00 -9.5703914387140E-04  4.4034941668570E-02
115  1.1400000000000E+00 -6.8222621027771E-04  3.2719375685537E-02
116  1.1500000000000E+00 -4.5239994011033E-04  2.3083569251602E-02
117  1.1600000000000E+00 -2.7366174055587E-04  1.5137818307938E-02
118  1.1700000000000E+00 -1.4507965308725E-04  8.9097455387473E-03
119  1.1800000000000E+00 -6.2149876360413E-05  4.3818736718730E-03
120  1.1900000000000E+00 -1.7515793544158E-05  1.4926664218291E-03
121  1.2000000000000E+00 -1.3528969894367E-06  1.5391396421372E-04
122  1.2100000000000E+00  6.1310158597544E-08 -8.8843394232514E-06
123  1.2200000000000E+00  4.1054721107695E-09 -4.2087557283734E-07
124  1.23 -0. -0.
125  1.24  0.  0.
126  1.25  0.  0.
127  1.26  0.  0.
128  1.27  0.  0.
129  1.28  0.  0.
130  1.29  0.  0.
131  1.30  0.  0.
132  1.31  0.  0.
133  1.32  0.  0.
134  1.33  0.  0.
135  1.34  0.  0.
136  1.35  0.  0.
137  1.36  0.  0.
138  1.37  0.  0.
139  1.38  0.  0.
140  1.39  0.  0.
141  1.40  0.  0.
142  1.41  0.  0.
143  1.42  0.  0.
144  1.43  0.  0.
145  1.44  0.  0.
146  1.45  0.  0.
147  1.46  0.  0.
148  1.47  0.  0.
149  1.48  0.  0.
150  1.49  0.  0.
151  1.50  0.  0.
152  1.51  0.  0.
153  1.52  0.  0.
154  1.53  0.  0.
155  1.54  0.  0.
156  1.55  0.  0.
157  1.56  0.  0.
158  1.57  0.  0.
159  1.58  0.  0.
160  1.59  0.  0.
161  1.60  0.  0.
162  1.61  0.  0.
163  1.62  0.  0.
164  1.63  0.  0.
165  1.64  0.  0.
166  1.65  0.  0.
167  1.66  0.  0.
168  1.67  0.  0.
169  1.68  0.  0.