Mc    ONCVPSP-4.0.1  r_core=   1.40796   1.40796   1.40796   1.60600
115.0000     23.0000      231012    zatom,zion,pspd
8   -1012   3     4   600     0    pspcod,pspxc,lmax,lloc,mmax,r2well
5.99000000  5.00000000  0.00000000    rchrg fchrg qchrg
2     2     2     1     0    nproj
1     1           extension_switch
0                         1.5343948873019E+01 -2.4248287780955E-01
1  0.0000000000000E+00  3.3388281028834E-10  1.0766720598410E-08
2  1.0000000000000E-02  7.8141734901465E-02  1.6047667326069E-02
3  2.0000000000000E-02  1.5611498114834E-01  3.2288683173134E-02
4  3.0000000000000E-02  2.3375148604384E-01  4.8910097141758E-02
5  4.0000000000000E-02  3.1088347234869E-01  6.6086498340320E-02
6  5.0000000000000E-02  3.8734388477677E-01  8.3974125675220E-02
7  6.0000000000000E-02  4.6296664676728E-01  1.0270537890350E-01
8  7.0000000000000E-02  5.3758693055727E-01  1.2238385107346E-01
9  8.0000000000000E-02  6.1104144324486E-01  1.4307999221210E-01
10  9.0000000000000E-02  6.8316873112842E-01  1.6482750108011E-01
11  1.0000000000000E-01  7.5380950413904E-01  1.8762052677373E-01
12  1.1000000000000E-01  8.2280698166204E-01  2.1141174521775E-01
13  1.2000000000000E-01  8.9000726047794E-01  2.3611135750809E-01
14  1.3000000000000E-01  9.5525970495544E-01  2.6158703799812E-01
15  1.4000000000000E-01  1.0184173590110E+00  2.8766484037299E-01
16  1.5000000000000E-01  1.0793373787222E+00  3.1413105012385E-01
17  1.6000000000000E-01  1.1378814838599E+00  3.4073495222777E-01
18  1.7000000000000E-01  1.1939164259964E+00  3.6719246386434E-01
19  1.8000000000000E-01  1.2473144702697E+00  3.9319056404503E-01
20  1.9000000000000E-01  1.2979538873427E+00  4.1839243546986E-01
21  2.0000000000000E-01  1.3457194516111E+00  4.4244321909628E-01
22  2.1000000000000E-01  1.3905029412803E+00  4.6497626911674E-01
23  2.2000000000000E-01  1.4322036355769E+00  4.8561978555565E-01
24  2.3000000000000E-01  1.4707288040722E+00  5.0400369373245E-01
25  2.4000000000000E-01  1.5059941828938E+00  5.1976663455855E-01
26  2.5000000000000E-01  1.5379244324865E+00  5.3256292715151E-01
27  2.6000000000000E-01  1.5664535715521E+00  5.4206936561170E-01
28  2.7000000000000E-01  1.5915253818627E+00  5.4799171500588E-01
29  2.8000000000000E-01  1.6130937787882E+00  5.5007077757362E-01
30  2.9000000000000E-01  1.6311231426167E+00  5.4808790878833E-01
31  3.0000000000000E-01  1.6455886060631E+00  5.4186987398868E-01
32  3.1000000000000E-01  1.6564762937554E+00  5.3129294961367E-01
33  3.2000000000000E-01  1.6637835099509E+00  5.1628618834695E-01
34  3.3000000000000E-01  1.6675188712586E+00  4.9683378438556E-01
35  3.4000000000000E-01  1.6677023817195E+00  4.7297649323726E-01
36  3.5000000000000E-01  1.6643654482130E+00  4.4481207953910E-01
37  3.6000000000000E-01  1.6575508348048E+00  4.1249478597576E-01
38  3.7000000000000E-01  1.6473125553155E+00  3.7623383604666E-01
39  3.8000000000000E-01  1.6337157040656E+00  3.3629100277311E-01
40  3.9000000000000E-01  1.6168362254147E+00  2.9297729404075E-01
41  4.0000000000000E-01  1.5967606233705E+00  2.4664882274623E-01
42  4.1000000000000E-01  1.5735856131645E+00  1.9770194589189E-01
43  4.2000000000000E-01  1.5474177172814E+00  1.4656777090995E-01
44  4.3000000000000E-01  1.5183728089692E+00  9.3706139498119E-02
45  4.4000000000000E-01  1.4865756067445E+00  3.9599208860749E-02
46  4.5000000000000E-01  1.4521591238337E+00 -1.5255242729978E-02
47  4.6000000000000E-01  1.4152640768470E+00 -7.0350654859201E-02
48  4.7000000000000E-01  1.3760382582702E+00 -1.2517853573228E-01
49  4.8000000000000E-01  1.3346358775704E+00 -1.7923519352761E-01
50  4.9000000000000E-01  1.2912168758512E+00 -2.3202822131093E-01
51  5.0000000000000E-01  1.2459462190550E+00 -2.8308261542439E-01
52  5.1000000000000E-01  1.1989931747010E+00 -3.3194641677164E-01
53  5.2000000000000E-01  1.1505305770713E+00 -3.7819577628158E-01
54  5.3000000000000E-01  1.1007340856151E+00 -4.2143935978462E-01
55  5.4000000000000E-01  1.0497814411428E+00 -4.6132202326106E-01
56  5.5000000000000E-01  9.9785172413391E-01 -4.9752770657440E-01
57  5.6000000000000E-01  9.4512461919148E-01 -5.2978151199463E-01
58  5.7000000000000E-01  8.9177968935369E-01 -5.5785095264072E-01
59  5.8000000000000E-01  8.3799566362518E-01 -5.8154637500184E-01
60  5.9000000000000E-01  7.8394974073145E-01 -6.0072057850509E-01
61  6.0000000000000E-01  7.2981691173412E-01 -6.1526767325140E-01
62  6.1000000000000E-01  6.7576930378599E-01 -6.2512123413060E-01
63  6.2000000000000E-01  6.2197554695903E-01 -6.3025182515557E-01
64  6.3000000000000E-01  5.6860016575614E-01 -6.3066398166215E-01
65  6.4000000000000E-01  5.1580299662438E-01 -6.2639274968288E-01
66  6.5000000000000E-01  4.6373863253073E-01 -6.1749989104559E-01
67  6.6000000000000E-01  4.1255589544621E-01 -6.0406986934328E-01
68  6.7000000000000E-01  3.6239733741387E-01 -5.8620573571091E-01
69  6.8000000000000E-01  3.1339877075312E-01 -5.6402503422541E-01
70  6.9000000000000E-01  2.6568882787842E-01 -5.3765584467756E-01
71  7.0000000000000E-01  2.1938855118242E-01 -5.0723307548856E-01
72  7.1000000000000E-01  1.7461101345188E-01 -4.7289511174823E-01
73  7.2000000000000E-01  1.3146096934321E-01 -4.3478091291176E-01
74  7.3000000000000E-01  9.0034538539715E-02 -3.9302764182551E-01
75  7.4000000000000E-01  5.0418921337571E-02 -3.4776889175027E-01
76  7.5000000000000E-01  1.2692147554224E-02 -2.9913356124937E-01
77  7.6000000000000E-01 -2.3077140186074E-02 -2.4724540858997E-01
78  7.7000000000000E-01 -5.6829867569828E-02 -1.9222329809115E-01
79  7.8000000000000E-01 -8.8516672734923E-02 -1.3418213109091E-01
80  7.9000000000000E-01 -1.1809801190900E-01 -7.3234434358487E-02
81  8.0000000000000E-01 -1.4554422489969E-01 -9.4925593294090E-03
82  8.1000000000000E-01 -1.7083555870457E-01  5.6928573046344E-02
83  8.2000000000000E-01 -1.9396214746520E-01  1.2590826431243E-01
84  8.3000000000000E-01 -2.1492394699796E-01  1.9731646534370E-01
85  8.4000000000000E-01 -2.3373062220021E-01  2.7100994932846E-01
86  8.5000000000000E-01 -2.5040138576060E-01  3.4682835303710E-01
87  8.6000000000000E-01 -2.6496478680041E-01  4.2459021652363E-01
88  8.7000000000000E-01 -2.7745844834173E-01  5.0408915634401E-01
89  8.8000000000000E-01 -2.8792875283843E-01  5.8509030906963E-01
90  8.9000000000000E-01 -2.9643047541633E-01  6.6732718021293E-01
91  9.0000000000000E-01 -3.0302636494674E-01  7.5049902863976E-01
92  9.1000000000000E-01 -3.0778667361711E-01  8.3426890815806E-01
93  9.2000000000000E-01 -3.1078863625782E-01  9.1826247636874E-01
94  9.3000000000000E-01 -3.1211590132575E-01  1.0020676662376E+00
95  9.4000000000000E-01 -3.1185791612277E-01  1.0852352984693E+00
96  9.5000000000000E-01 -3.1010926952969E-01  1.1672806929654E+00
97  9.6000000000000E-01 -3.0696899624922E-01  1.2476863158300E+00
98  9.7000000000000E-01 -3.0253984726168E-01  1.3259054750000E+00
99  9.8000000000000E-01 -2.9692753188923E-01  1.4013670531087E+00
100  9.9000000000000E-01 -2.9023993752323E-01  1.4734812411843E+00
101  1.0000000000000E+00 -2.8258633367925E-01  1.5416462117646E+00
102  1.0100000000000E+00 -2.7407656759006E-01  1.6052556455619E+00
103  1.0200000000000E+00 -2.6482025901388E-01  1.6637070024865E+00
104  1.0300000000000E+00 -2.5492600230989E-01  1.7164104061715E+00
105  1.0400000000000E+00 -2.4450058410249E-01  1.7627979916621E+00
106  1.0500000000000E+00 -2.3364822500932E-01  1.8023335491358E+00
107  1.0600000000000E+00 -2.2246985393700E-01  1.8345222828002E+00
108  1.0700000000000E+00 -2.1106242334463E-01  1.8589204938912E+00
109  1.0800000000000E+00 -1.9951827363630E-01  1.8751449902357E+00
110  1.0900000000000E+00 -1.8792455446382E-01  1.8828820224031E+00
111  1.1000000000000E+00 -1.7636271020582E-01  1.8818955481758E+00
112  1.1100000000000E+00 -1.6490803623647E-01  1.8720346330061E+00
113  1.1200000000000E+00 -1.5362931181714E-01  1.8532398042394E+00
114  1.1300000000000E+00 -1.4258851454355E-01  1.8255481910774E+00
115  1.1400000000000E+00 -1.3184062027043E-01  1.7890973003120E+00
116  1.1500000000000E+00 -1.2143349133100E-01  1.7441272994878E+00
117  1.1600000000000E+00 -1.1140785468363E-01  1.6909817039831E+00
118  1.1700000000000E+00 -1.0179737037081E-01  1.6301063921008E+00
119  1.1800000000000E+00 -9.2628789389146E-02  1.5620469020560E+00
120  1.1900000000000E+00 -8.3922198755895E-02  1.4874439963471E+00
121  1.2000000000000E+00 -7.5691350253968E-02  1.4070275114561E+00
122  1.2100000000000E+00 -6.7944068044928E-02  1.3216085440087E+00
123  1.2200000000000E+00 -6.0682729105577E-02  1.2320700571646E+00
124  1.2300000000000E+00 -5.3904809266910E-02  1.1393560230237E+00
125  1.2400000000000E+00 -4.7603486551964E-02  1.0444592471833E+00
126  1.2500000000000E+00 -4.1768292537587E-02  9.4840804970401E-01
127  1.2600000000000E+00 -3.6385801615610E-02  8.5225200229176E-01
128  1.2700000000000E+00 -3.1440347331392E-02  7.5704694353358E-01
129  1.2800000000000E+00 -2.6914754435158E-02  6.6383951237865E-01
130  1.2900000000000E+00 -2.2791074910479E-02  5.7365145421618E-01
131  1.3000000000000E+00 -1.9051316055026E-02  4.8746396345217E-01
132  1.3100000000000E+00 -1.5678148682489E-02  4.0620233133878E-01
133  1.3200000000000E+00 -1.2655588707458E-02  3.3072103435989E-01
134  1.3300000000000E+00 -9.9696023157385E-03  2.6179048256102E-01
135  1.3400000000000E+00 -7.6092033283471E-03  2.0007022928978E-01
136  1.3500000000000E+00 -5.5715740092727E-03  1.4595989750161E-01
137  1.3600000000000E+00 -3.8504713884427E-03  9.9925836350792E-02
138  1.3700000000000E+00 -2.4407830458689E-03  6.2396433466250E-02
139  1.3800000000000E+00 -1.3430511936073E-03  3.3635703377587E-02
140  1.3900000000000E+00 -5.6339831591177E-04  1.3748800782138E-02
141  1.4000000000000E+00 -1.1329742021158E-04  2.6802641421928E-03
142  1.4100000000000E+00  5.5622386765101E-06 -1.2792577439907E-04
143  1.4200000000000E+00 -1.8873815722865E-06  4.3865414900724E-05
144  1.43  0. -0.
145  1.44 -0. -0.
146  1.45  0.  0.
147  1.46  0.  0.
148  1.47  0.  0.
149  1.48  0.  0.
150  1.49  0.  0.
151  1.50  0.  0.
152  1.51  0.  0.
153  1.52  0.  0.
154  1.53  0.  0.
155  1.54  0.  0.
156  1.55  0.  0.
157  1.56  0.  0.
158  1.57  0.  0.
159  1.58  0.  0.
160  1.59  0.  0.
161  1.60  0.  0.
162  1.61  0.  0.
163  1.62  0.  0.
164  1.63  0.  0.
165  1.64  0.  0.
166  1.65  0.  0.
167  1.66  0.  0.
168  1.67  0.  0.
169  1.68  0.  0.
170  1.69  0.  0.
171  1.70  0.  0.
172  1.71  0.  0.
173  1.72  0.  0.
174  1.73  0.  0.
175  1.74  0.  0.
176  1.75  0.  0.
177  1.76  0.  0.
178  1.77  0.  0.
179  1.78  0.  0.
180  1.79  0.  0.
181  1.80  0.  0.
182  1.81  0.  0.
183  1.82  0.  0.
184  1.83  0.  0.
185  1.84  0.  0.
186  1.85  0.  0.
187  1.86  0.  0.
188  1.87  0.  0.
189  1.88  0.  0.
190  1.89  0.  0.
191  1.90  0.  0.
192  1.91  0.  0.
193  1.92  0.  0.
194  1.93  0.  0.
195  1.94  0.  0.
196  1.95  0.  0.
197  1.96  0.  0.
198  1.97  0.  0.
199  1.98  0.  0.
200  1.99  0.  0.
201  2.00  0.  0.
202  2.01  0.  0.
203  2.02  0.  0.
204  2.03  0.  0.
205  2.04  0.  0.
206  2.05  0.  0.
207  2.06  0.  0.
208  2.07  0.  0.
209  2.08  0.  0.
210  2.09  0.  0.
211  2.10  0.  0.
212  2.11  0.  0.
213  2.12  0.  0.
214  2.13  0.  0.
215  2.14  0.  0.
216  2.15  0.  0.
217  2.16  0.  0.
218  2.17  0.  0.
219  2.18  0.  0.
220  2.19  0.  0.
221  2.20  0.  0.
222  2.21  0.  0.
223  2.22  0.  0.
224  2.23  0.  0.
225  2.24  0.  0.
226  2.25  0.  0.
227  2.26  0.  0.
228  2.27  0.  0.
229  2.28  0.  0.
230  2.29  0.  0.
231  2.30  0.  0.
232  2.31  0.  0.
233  2.32  0.  0.
234  2.33  0.  0.
235  2.34  0.  0.
236  2.35  0.  0.
237  2.36  0.  0.
238  2.37  0.  0.
239  2.38  0.  0.
240  2.39  0.  0.
241  2.40  0.  0.
242  2.41  0.  0.
243  2.42  0.  0.
244  2.43  0.  0.
245  2.44  0.  0.
246  2.45  0.  0.
247  2.46  0.  0.
248  2.47  0.  0.
249  2.48  0.  0.
250  2.49  0.  0.
251  2.50  0.  0.
252  2.51  0.  0.
253  2.52  0.  0.
254  2.53  0.  0.
255  2.54  0.  0.
256  2.55  0.  0.
257  2.56  0.  0.
258  2.57  0.  0.
259  2.58  0.  0.
260  2.59  0.  0.
261  2.60  0.  0.
262  2.61  0.  0.
263  2.62  0.  0.
264  2.63  0.  0.
265  2.64  0.  0.
266  2.65  0.  0.
267  2.66  0.  0.
268  2.67  0.  0.
269  2.68  0.  0.
270  2.69  0.  0.
271  2.70  0.  0.
272  2.71  0.  0.
273  2.72  0.  0.
274  2.73  0.  0.
275  2.74  0.  0.
276  2.75  0.  0.
277  2.76  0.  0.
278  2.77  0.  0.
279  2.78  0.  0.
280  2.79  0.  0.
281  2.80  0.  0.
282  2.81  0.  0.
283  2.82  0.  0.
284  2.83  0.  0.
285  2.84  0.  0.
286  2.85  0.  0.
287  2.86  0.  0.
288  2.87  0.  0.
289  2.88  0.  0.
290  2.89  0.  0.
291  2.90  0.  0.
292  2.91  0.  0.
293  2.92  0.  0.
294  2.93  0.  0.
295  2.94  0.  0.
296  2.95  0.  0.
297  2.96  0.  0.
298  2.97  0.  0.
299  2.98  0.  0.
300  2.99  0.  0.
301  3.00  0.  0.
302  3.01  0.  0.
303  3.02  0.  0.
304  3.03  0.  0.
305  3.04  0.  0.
306  3.05  0.  0.
307  3.06  0.  0.
308  3.07  0.  0.
309  3.08  0.  0.
310  3.09  0.  0.
311  3.10  0.  0.
312  3.11  0.  0.
313  3.12  0.  0.
314  3.13  0.  0.
315  3.14  0.  0.
316  3.15  0.  0.
317  3.16  0.  0.
318  3.17  0.  0.
319  3.18  0.  0.
320  3.19  0.  0.
321  3.20  0.  0.
322  3.21  0.  0.
323  3.22  0.  0.
324  3.23  0.  0.
325  3.24  0.  0.
326  3.25  0.  0.
327  3.26  0.  0.
328  3.27  0.  0.
329  3.28  0.  0.
330  3.29  0.  0.
331  3.30  0.  0.
332  3.31  0.  0.
333  3.32  0.  0.
334  3.33  0.  0.
335  3.34  0.  0.
336  3.35  0.  0.
337  3.36  0.  0.
338  3.37  0.  0.
339  3.38  0.  0.
340  3.39  0.  0.
341  3.40  0.  0.
342  3.41  0.  0.
343  3.42  0.  0.
344  3.43  0.  0.
345  3.44  0.  0.
346  3.45  0.  0.
347  3.46  0.  0.
348  3.47  0.  0.
349  3.48  0.  0.
350  3.49  0.  0.
351  3.50  0.  0.
352  3.51  0.  0.
353  3.52  0.  0.
354  3.53  0.  0.
355  3.54  0.  0.
356  3.55  0.  0.
357  3.56  0.  0.
358  3.57  0.  0.
359  3.58  0.  0.
360  3.59  0.  0.
361  3.60  0.  0.
362  3.61  0.  0.
363  3.62  0.  0.
364  3.63  0.  0.
365  3.64  0.  0.
366  3.65  0.  0.
367  3.66  0.  0.
368  3.67  0.  0.
369  3.68  0.  0.
370  3.69  0.  0.
371  3.70  0.  0.
372  3.71  0.  0.
373  3.72  0.  0.
374  3.73  0.  0.
375  3.74  0.  0.
376  3.75  0.  0.
377  3.76  0.  0.
378  3.77  0.  0.
379  3.78  0.  0.
380  3.79  0.  0.
381  3.80  0.  0.
382  3.81  0.  0.
383  3.82  0.  0.
384  3.83  0.  0.
385  3.84  0.  0.
386  3.85  0.  0.
387  3.86  0.  0.
388  3.87  0.  0.
389  3.88  0.  0.
390  3.89  0.  0.
391  3.90  0.  0.
392  3.91  0.  0.
393  3.92  0.  0.
394  3.93  0.  0.
395  3.94  0.  0.
396  3.95  0.  0.
397  3.96  0.  0.
398  3.97  0.  0.
399  3.98  0.  0.
400  3.99  0.  0.
401  4.00  0.  0.
402  4.01  0.  0.
403  4.02  0.  0.
404  4.03  0.  0.
405  4.04  0.  0.
406  4.05  0.  0.
407  4.06  0.  0.
408  4.07  0.  0.
409  4.08  0.  0.
410  4.09  0.  0.
411  4.10  0.  0.
412  4.11  0.  0.
413  4.12  0.  0.
414  4.13  0.  0.
415  4.14  0.  0.
416  4.15  0.  0.
417  4.16  0.  0.
418  4.17  0.  0.
419  4.18  0.  0.
420  4.19  0.  0.
421  4.20  0.  0.
422  4.21  0.  0.
423  4.22  0.  0.
424  4.23  0.  0.
425  4.24  0.  0.
426  4.25  0.  0.
427  4.26  0.  0.
428  4.27  0.  0.
429  4.28  0.  0.
430  4.29  0.  0.
431  4.30  0.  0.
432  4.31  0.  0.
433  4.32  0.  0.
434  4.33  0.  0.
435  4.34  0.  0.
436  4.35  0.  0.
437  4.36  0.  0.
438  4.37  0.  0.
439  4.38  0.  0.
440  4.39  0.  0.
441  4.40  0.  0.
442  4.41  0.  0.
443  4.42  0.  0.
444  4.43  0.  0.
445  4.44  0.  0.
446  4.45  0.  0.
447  4.46  0.  0.
448  4.47  0.  0.
449  4.48  0.  0.
450  4.49  0.  0.
451  4.50  0.  0.
452  4.51  0.  0.
453  4.52  0.  0.
454  4.53  0.  0.
455  4.54  0.  0.
456  4.55  0.  0.
457  4.56  0.  0.
458  4.57  0.  0.
459  4.58  0.  0.
460  4.59  0.  0.
461  4.60  0.  0.
462  4.61  0.  0.
463  4.62  0.  0.
464  4.63  0.  0.
465  4.64  0.  0.
466  4.65  0.  0.
467  4.66  0.  0.
468  4.67  0.  0.
469  4.68  0.  0.
470  4.69  0.  0.
471  4.70  0.  0.
472  4.71  0.  0.
473  4.72  0.  0.
474  4.73  0.  0.
475  4.74  0.  0.
476  4.75  0.  0.
477  4.76  0.  0.
478  4.77  0.  0.
479  4.78  0.  0.
480  4.79  0.  0.
481  4.80  0.  0.
482  4.81  0.  0.
483  4.82  0.  0.
484  4.83  0.  0.
485  4.84  0.  0.
486  4.85  0.  0.
487  4.86  0.  0.
488  4.87  0.  0.
489  4.88  0.  0.
490  4.89  0.  0.
491  4.90  0.  0.
492  4.91  0.  0.
493  4.92  0.  0.
494  4.93  0.  0.
495  4.94  0.  0.
496  4.95  0.  0.
497  4.96  0.  0.
498  4.97  0.  0.
499  4.98  0.  0.
500  4.99  0.  0.
501  5.00  0.  0.
502  5.01  0.  0.
503  5.02  0.  0.
504  5.03  0.  0.
505  5.04  0.  0.
506  5.05  0.  0.
507  5.06  0.  0.
508  5.07  0.  0.
509  5.08  0.  0.
510  5.09  0.  0.
511  5.10  0.  0.
512  5.11  0.  0.
513  5.12  0.  0.
514  5.13  0.  0.
515  5.14  0.  0.
516  5.15  0.  0.
517  5.16  0.  0.
518  5.17  0.  0.
519  5.18  0.  0.
520  5.19  0.  0.
521  5.20  0.  0.
522  5.21  0.  0.
523  5.22  0.  0.
524  5.23  0.  0.
525  5.24  0.  0.
526  5.25  0.  0.
527  5.26  0.  0.
528  5.27  0.  0.
529  5.28  0.  0.
530  5.29  0.  0.
531  5.30  0.  0.
532  5.31  0.  0.
533  5.32  0.  0.
534  5.33  0.  0.
535  5.34  0.  0.
536  5.35  0.  0.
537  5.36  0.  0.
538  5.37  0.  0.
539  5.38  0.  0.
540  5.39  0.  0.
541  5.40  0.  0.
542  5.41  0.  0.
543  5.42  0.  0.
544  5.43  0.  0.
545  5.44  0.  0.
546  5.45  0.  0.
547  5.46  0.  0.
548  5.47  0.  0.
549  5.48  0.  0.
550  5.49  0.  0.
551  5.50  0.  0.
552  5.51  0.  0.
553  5.52  0.  0.
554  5.53  0.  0.
555  5.54  0.  0.
556  5.55  0.  0.
557  5.56  0.  0.
558  5.57  0.  0.
559  5.58  0.  0.
560  5.59  0.  0.
561  5.60  0.  0.
562  5.61  0.  0.
563  5.62  0.  0.
564  5.63  0.  0.
565  5.64  0.  0.
566  5.65  0.  0.
567  5.66  0.  0.
568  5.67  0.  0.
569  5.68  0.  0.
570  5.69  0.  0.
571  5.70  0.  0.
572  5.71  0.  0.
573  5.72  0.  0.
574  5.73  0.  0.
575  5.74  0.  0.
576  5.75  0.  0.
577  5.76  0.  0.
578  5.77  0.  0.
579  5.78  0.  0.
580  5.79  0.  0.
581  5.80  0.  0.
582  5.81  0.  0.
583  5.82  0.  0.
584  5.83  0.  0.
585  5.84  0.  0.
586  5.85  0.  0.
587  5.86  0.  0.
588  5.87  0.  0.
589  5.88  0.  0.
590  5.89  0.  0.
591  5.90  0.  0.
592  5.91  0.  0.
593  5.92  0.  0.
594  5.93  0.  0.
595  5.94  0.  0.
596  5.95  0.  0.
597  5.96  0.  0.
598  5.97  0.  0.
599  5.98  0.  0.
600  5.99  0.  0.
1                         1.3167865014530E+01  1.0275671430217E+00
1  0.0000000000000E+00 -2.6048731505135E-09  1.1884276229779E-08
2  1.0000000000000E-02  1.6822660118416E-03 -7.9840604591373E-04
3  2.0000000000000E-02  6.7242627490865E-03 -3.1959312415169E-03
4  3.0000000000000E-02  1.5111547544291E-02 -7.1992509471761E-03
5  4.0000000000000E-02  2.6819921685857E-02 -1.2818678859766E-02
6  5.0000000000000E-02  4.1815244725169E-02 -2.0066975117011E-02
7  6.0000000000000E-02  6.0053185761467E-02 -2.8957728856996E-02
8  7.0000000000000E-02  8.1478922597074E-02 -3.9503364815952E-02
9  8.0000000000000E-02  1.0602680226043E-01 -5.1712835431733E-02
10  9.0000000000000E-02  1.3361997863635E-01 -6.5589070172364E-02
11  1.0000000000000E-01  1.6417004476032E-01 -8.1126262153762E-02
12  1.1000000000000E-01  1.9757667867562E-01 -9.8307078319076E-02
13  1.2000000000000E-01  2.3372732257929E-01 -1.1709988335200E-01
14  1.3000000000000E-01  2.7249691527011E-01 -1.3745606897327E-01
15  1.4000000000000E-01  3.1374769764569E-01 -1.5930757927044E-01
16  1.5000000000000E-01  3.5732911017839E-01 -1.8256471924828E-01
17  1.6000000000000E-01  4.0307779994735E-01 -2.0711432793388E-01
18  1.7000000000000E-01  4.5081775294467E-01 -2.3281838926539E-01
19  1.8000000000000E-01  5.0036056505093E-01 -2.5951314382835E-01
20  1.9000000000000E-01  5.5150586234255E-01 -2.8700875253130E-01
21  2.0000000000000E-01  6.0404187831624E-01 -3.1508954982602E-01
22  2.1000000000000E-01  6.5774619226767E-01 -3.4351490941802E-01
23  2.2000000000000E-01  7.1238662952406E-01 -3.7202072994726E-01
24  2.3000000000000E-01  7.6772232059023E-01 -4.0032153224097E-01
25  2.4000000000000E-01  8.2350491261428E-01 -4.2811314385672E-01
26  2.5000000000000E-01  8.7947992300310E-01 -4.5507593115255E-01
27  2.6000000000000E-01  9.3538822160957E-01 -4.8087852444403E-01
28  2.7000000000000E-01  9.9096762475632E-01 -5.0518196832150E-01
29  2.8000000000000E-01  1.0459545815378E+00 -5.2764421725834E-01
30  2.9000000000000E-01  1.1000859304235E+00 -5.4792488656710E-01
31  3.0000000000000E-01  1.1531007022328E+00 -5.6569016082727E-01
32  3.1000000000000E-01  1.2047419441213E+00 -5.8061775634048E-01
33  3.2000000000000E-01  1.2547585383407E+00 -5.9240183113181E-01
34  3.3000000000000E-01  1.3029069892450E+00 -6.0075773560972E-01
35  3.4000000000000E-01  1.3489531523146E+00 -6.0542649925879E-01
36  3.5000000000000E-01  1.3926738798629E+00 -6.0617895363687E-01
37  3.6000000000000E-01  1.4338585595504E+00 -6.0281939938225E-01
38  3.7000000000000E-01  1.4723105238349E+00 -5.9518873474139E-01
39  3.8000000000000E-01  1.5078483109760E+00 -5.8316697507896E-01
40  3.9000000000000E-01  1.5403067611386E+00 -5.6667510664445E-01
41  4.0000000000000E-01  1.5695379344305E+00 -5.4567623321015E-01
42  4.1000000000000E-01  1.5954118412788E+00 -5.2017599068995E-01
43  4.2000000000000E-01  1.6178169793191E+00 -4.9022222208634E-01
44  4.3000000000000E-01  1.6366606748467E+00 -4.5590392266478E-01
45  4.4000000000000E-01  1.6518692307568E+00 -4.1734948267452E-01
46  4.5000000000000E-01  1.6633878867013E+00 -3.7472427178024E-01
47  4.6000000000000E-01  1.6711806007998E+00 -3.2822762520188E-01
48  4.7000000000000E-01  1.6752296655891E+00 -2.7808930597074E-01
49  4.8000000000000E-01  1.6755351738823E+00 -2.2456553031288E-01
50  4.9000000000000E-01  1.6721143527722E+00 -1.6793465363056E-01
51  5.0000000000000E-01  1.6650007860773E+00 -1.0849262257786E-01
52  5.1000000000000E-01  1.6542435470537E+00 -4.6548304089858E-02
53  5.2000000000000E-01  1.6399062641363E+00  1.7581195236707E-02
54  5.3000000000000E-01  1.6220661428046E+00  8.3575106394300E-02
55  5.4000000000000E-01  1.6008129663927E+00  1.5111336214646E-01
56  5.5000000000000E-01  1.5762480977780E+00  2.1988064463800E-01
57  5.6000000000000E-01  1.5484835024209E+00  2.8957002187793E-01
58  5.7000000000000E-01  1.5176408112261E+00  3.5988609003023E-01
59  5.8000000000000E-01  1.4838504392062E+00  4.3054755221471E-01
60  5.9000000000000E-01  1.4472507730242E+00  5.0128918022242E-01
61  6.0000000000000E-01  1.4079874372453E+00  5.7186312280729E-01
62  6.1000000000000E-01  1.3662126456388E+00  6.4203954258541E-01
63  6.2000000000000E-01  1.3220846402203E+00  7.1160658259428E-01
64  6.3000000000000E-01  1.2757672170316E+00  7.8036968273759E-01
65  6.4000000000000E-01  1.2274293340117E+00  8.4815028516947E-01
66  6.5000000000000E-01  1.1772447928259E+00  9.1478398564782E-01
67  6.6000000000000E-01  1.1253919832949E+00  9.8011820452667E-01
68  6.7000000000000E-01  1.0720536761913E+00  1.0440094658987E+00
69  6.8000000000000E-01  1.0174168477426E+00  1.1063203860214E+00
70  6.9000000000000E-01  9.6167251726487E-01  1.1669164821919E+00
71  7.0000000000000E-01  9.0501557802281E-01  1.2256629203698E+00
72  7.1000000000000E-01  8.4764460071291E-01  1.2824213238370E+00
73  7.2000000000000E-01  7.8976158893224E-01  1.3370467658745E+00
74  7.3000000000000E-01  7.3157166664294E-01  1.3893850667423E+00
75  7.4000000000000E-01  6.7328267896744E-01  1.4392705091731E+00
76  7.5000000000000E-01  6.1510468963174E-01  1.4865240772358E+00
77  7.6000000000000E-01  5.5724936097629E-01  1.5309523109541E+00
78  7.7000000000000E-01  4.9992920561820E-01  1.5723468537606E+00
79  7.8000000000000E-01  4.4335670250305E-01  1.6104847520467E+00
80  7.9000000000000E-01  3.8774327414227E-01  1.6451295461652E+00
81  8.0000000000000E-01  3.3329812619232E-01  1.6760331707120E+00
82  8.1000000000000E-01  2.8022695508443E-01  1.7029386592901E+00
83  8.2000000000000E-01  2.2873053404020E-01  1.7255836258037E+00
84  8.3000000000000E-01  1.7900319238514E-01  1.7437044712248E+00
85  8.4000000000000E-01  1.3123120747438E-01  1.7570412423268E+00
86  8.5000000000000E-01  8.5591132648357E-02  1.7653430476749E+00
87  8.6000000000000E-01  4.2248088321195E-02  1.7683739167842E+00
88  8.7000000000000E-01  1.3540464602291E-03  1.7659189713367E+00
89  8.8000000000000E-01 -3.6953858761252E-02  1.7577907631892E+00
90  8.9000000000000E-01 -7.2554959550446E-02  1.7438356230327E+00
91  9.0000000000000E-01 -1.0534658671894E-01  1.7239398563365E+00
92  9.1000000000000E-01 -1.3524546977219E-01  1.6980356199105E+00
93  9.2000000000000E-01 -1.6218896980079E-01  1.6661063132183E+00
94  9.3000000000000E-01 -1.8613611170915E-01  1.6281913235703E+00
95  9.4000000000000E-01 -2.0706838479739E-01  1.5843899734865E+00
96  9.5000000000000E-01 -2.2499028404333E-01  1.5348645317404E+00
97  9.6000000000000E-01 -2.3992956855877E-01  1.4798421666358E+00
98  9.7000000000000E-01 -2.5193721854444E-01  1.4196157406227E+00
99  9.8000000000000E-01 -2.6108707754640E-01  1.3545433689994E+00
100  9.9000000000000E-01 -2.6747517280999E-01  1.2850466916715E+00
101  1.0000000000000E+00 -2.7121871291326E-01  1.2116078351971E+00
102  1.0100000000000E+00 -2.7245476849488E-01  1.1347650719738E+00
103  1.0200000000000E+00 -2.7133864862318E-01  1.0551072137490E+00
104  1.0300000000000E+00 -2.6804199203283E-01  9.7326680696463E-01
105  1.0400000000000E+00 -2.6275059892186E-01  8.8991222703432E-01
106  1.0500000000000E+00 -2.5566203509370E-01  8.0573879676586E-01
107  1.0600000000000E+00 -2.4698304580766E-01  7.2145908011964E-01
108  1.0700000000000E+00 -2.3692682161283E-01  6.3779252563604E-01
109  1.0800000000000E+00 -2.2571016255651E-01  5.5545465355554E-01
110  1.0900000000000E+00 -2.1355059037609E-01  4.7514599641826E-01
111  1.1000000000000E+00 -2.0066346048865E-01  3.9754101421181E-01
112  1.1100000000000E+00 -1.8725912673085E-01  3.2327721167956E-01
113  1.1200000000000E+00 -1.7354021180812E-01  2.5294468687662E-01
114  1.1300000000000E+00 -1.5969903527102E-01  1.8707633638173E-01
115  1.1400000000000E+00 -1.4591524854281E-01  1.2613893368862E-01
116  1.1500000000000E+00 -1.3235372310813E-01  7.0525283335779E-02
117  1.1600000000000E+00 -1.1916273348959E-01  2.0547634502236E-02
118  1.1700000000000E+00 -1.0647247116241E-01 -2.3567485579286E-02
119  1.1800000000000E+00 -9.4393919209519E-02 -6.1682885428204E-02
120  1.1900000000000E+00 -8.3018110379923E-02 -9.3752668423536E-02
121  1.2000000000000E+00 -7.2415783511682E-02 -1.1982246898670E-01
122  1.2100000000000E+00 -6.2637445049601E-02 -1.4002793379671E-01
123  1.2200000000000E+00 -5.3713833958932E-02 -1.5459145319507E-01
124  1.2300000000000E+00 -4.5656779737868E-02 -1.6381718601651E-01
125  1.2400000000000E+00 -3.8460434754413E-02 -1.6808445873848E-01
126  1.2500000000000E+00 -3.2102853949668E-02 -1.6783965629548E-01
127  1.2600000000000E+00 -2.6547887166418E-02 -1.6358675666603E-01
128  1.2700000000000E+00 -2.1747342277829E-02 -1.5587669306607E-01
129  1.2800000000000E+00 -1.7643370970826E-02 -1.4529575596750E-01
130  1.2900000000000E+00 -1.4171023656428E-02 -1.3245327141769E-01
131  1.3000000000000E+00 -1.1260915696515E-02 -1.1796881152627E-01
132  1.3100000000000E+00 -8.8419440104129E-03 -1.0245920724235E-01
133  1.3200000000000E+00 -6.8440063572522E-03 -8.6525591464704E-02
134  1.3300000000000E+00 -5.2005574660915E-03 -7.0741090414579E-02
135  1.3400000000000E+00 -3.8526922918351E-03 -5.5633546405951E-02
136  1.3500000000000E+00 -2.7683149585839E-03 -4.1615997956803E-02
137  1.3600000000000E+00 -1.9046691337196E-03 -2.9111458407233E-02
138  1.3700000000000E+00 -1.2196743683812E-03 -1.8514026570270E-02
139  1.3800000000000E+00 -6.8745903778585E-04 -1.0133818383760E-02
140  1.3900000000000E+00 -2.9906334649422E-04 -4.1937902347469E-03
141  1.4000000000000E+00 -6.3004439942870E-05 -8.2536949963242E-04
142  1.4100000000000E+00  3.2062954957273E-06  3.9735478675172E-05
143  1.4200000000000E+00 -1.0739453922618E-06 -1.3589316200272E-05
144  1.43  0.  0.
145  1.44 -0. -0.
146  1.45  0.  0.
147  1.46  0.  0.
148  1.47  0.  0.
149  1.48  0.  0.
150  1.49  0.  0.
151  1.50  0.  0.
152  1.51  0.  0.
153  1.52  0.  0.
154  1.53  0.  0.
155  1.54  0.  0.
156  1.55  0.  0.
157  1.56  0.  0.
158  1.57  0.  0.
159  1.58  0.  0.
160  1.59  0.  0.
161  1.60  0.  0.
162  1.61  0.  0.
163  1.62  0.  0.
164  1.63  0.  0.
165  1.64  0.  0.
166  1.65  0.  0.
167  1.66  0.  0.
168  1.67  0.  0.
169  1.68  0.  0.
170  1.69  0.  0.
171  1.70  0.  0.
172  1.71  0.  0.
173  1.72  0.  0.
174  1.73  0.  0.
175  1.74  0.  0.
176  1.75  0.  0.
177  1.76  0.  0.
178  1.77  0.  0.
179  1.78  0.  0.
180  1.79  0.  0.
181  1.80  0.  0.
182  1.81  0.  0.
183  1.82  0.  0.
184  1.83  0.  0.
185  1.84  0.  0.
186  1.85  0.  0.
187  1.86  0.  0.
188  1.87  0.  0.
189  1.88  0.  0.
190  1.89  0.  0.
191  1.90  0.  0.
192  1.91  0.  0.
193  1.92  0.  0.
194  1.93  0.  0.
195  1.94  0.  0.
196  1.95  0.  0.
197  1.96  0.  0.
198  1.97  0.  0.
199  1.98  0.  0.
200  1.99  0.  0.
201  2.00  0.  0.
202  2.01  0.  0.
203  2.02  0.  0.
204  2.03  0.  0.
205  2.04  0.  0.
206  2.05  0.  0.
207  2.06  0.  0.
208  2.07  0.  0.
209  2.08  0.  0.
210  2.09  0.  0.
211  2.10  0.  0.
212  2.11  0.  0.
213  2.12  0.  0.
214  2.13  0.  0.
215  2.14  0.  0.
216  2.15  0.  0.
217  2.16  0.  0.
218  2.17  0.  0.
219  2.18  0.  0.
220  2.19  0.  0.
221  2.20  0.  0.
222  2.21  0.  0.
223  2.22  0.  0.
224  2.23  0.  0.
225  2.24  0.  0.
226  2.25  0.  0.
227  2.26  0.  0.
228  2.27  0.  0.
229  2.28  0.  0.
230  2.29  0.  0.
231  2.30  0.  0.
232  2.31  0.  0.
233  2.32  0.  0.
234  2.33  0.  0.
235  2.34  0.  0.
236  2.35  0.  0.
237  2.36  0.  0.
238  2.37  0.  0.
239  2.38  0.  0.
240  2.39  0.  0.
241  2.40  0.  0.
242  2.41  0.  0.
243  2.42  0.  0.
244  2.43  0.  0.
245  2.44  0.  0.
246  2.45  0.  0.
247  2.46  0.  0.
248  2.47  0.  0.
249  2.48  0.  0.
250  2.49  0.  0.
251  2.50  0.  0.
252  2.51  0.  0.
253  2.52  0.  0.
254  2.53  0.  0.
255  2.54  0.  0.
256  2.55  0.  0.
257  2.56  0.  0.
258  2.57  0.  0.
259  2.58  0.  0.
260  2.59  0.  0.
261  2.60  0.  0.
262  2.61  0.  0.
263  2.62  0.  0.
264  2.63  0.  0.
265  2.64  0.  0.
266  2.65  0.  0.
267  2.66  0.  0.
268  2.67  0.  0.
269  2.68  0.  0.
270  2.69  0.  0.
271  2.70  0.  0.
272  2.71  0.  0.
273  2.72  0.  0.
274  2.73  0.  0.
275  2.74  0.  0.