Mc    ONCVPSP-4.0.1  r_core=   1.40796   1.45071   1.40796   1.60600
115.0000     23.0000      231012    zatom,zion,pspd
8   -1012   3     4   600     0    pspcod,pspxc,lmax,lloc,mmax,r2well
5.99000000  5.00000000  0.00000000    rchrg fchrg qchrg
2     3     3     2    nproj
3     1           extension_switch
4     3     2    nprojso
0                         1.5492375015429E+01 -2.3700913062231E-01
1  0.0000000000000E+00  3.2391977988766E-10  1.1139805633498E-08
2  1.0000000000000E-02  7.7660405730850E-02  1.5030966704911E-02
3  2.0000000000000E-02  1.5515491844831E-01  3.0273566114102E-02
4  3.0000000000000E-02  2.3231787362589E-01  4.5932824579836E-02
5  4.0000000000000E-02  3.0898406718094E-01  6.2200698375302E-02
6  5.0000000000000E-02  3.8498899428639E-01  7.9249892283975E-02
7  6.0000000000000E-02  4.6016909825384E-01  9.7228094389895E-02
8  7.0000000000000E-02  5.3436203245560E-01  1.1625275239189E-01
9  8.0000000000000E-02  6.0740693792954E-01  1.3640650562495E-01
10  9.0000000000000E-02  6.7914473891774E-01  1.5773337348070E-01
11  1.0000000000000E-01  7.4941845813567E-01  1.8023578535539E-01
12  1.1000000000000E-01  8.1807355306249E-01  2.0387251993396E-01
13  1.2000000000000E-01  8.8495827399374E-01  2.2855760290163E-01
14  1.3000000000000E-01  9.4992404401727E-01  2.5416019244081E-01
15  1.4000000000000E-01  1.0128258604724E+00  2.8050546152877E-01
16  1.5000000000000E-01  1.0735227168422E+00  3.0737646551681E-01
17  1.6000000000000E-01  1.1318780434236E+00  3.3451696316673E-01
18  1.7000000000000E-01  1.1877601645271E+00  3.6163513966336E-01
19  1.8000000000000E-01  1.2410427693968E+00  3.8840816151640E-01
20  1.9000000000000E-01  1.2916053935117E+00  4.1448747609318E-01
21  2.0000000000000E-01  1.3393339064538E+00  4.3950475314085E-01
22  2.1000000000000E-01  1.3841210021081E+00  4.6307835237781E-01
23  2.2000000000000E-01  1.4258666866024E+00  4.8482019033277E-01
24  2.3000000000000E-01  1.4644787591189E+00  5.0434287131161E-01
25  2.4000000000000E-01  1.4998732805007E+00  5.2126694184598E-01
26  2.5000000000000E-01  1.5319750244629E+00  5.3522812533885E-01
27  2.6000000000000E-01  1.5607179061775E+00  5.4588439392157E-01
28  2.7000000000000E-01  1.5860453830591E+00  5.5292273777055E-01
29  2.8000000000000E-01  1.6079108227108E+00  5.5606549822723E-01
30  2.9000000000000E-01  1.6262778332141E+00  5.5507613989737E-01
31  3.0000000000000E-01  1.6411205512456E+00  5.4976434828783E-01
32  3.1000000000000E-01  1.6524238838763E+00  5.3999035323216E-01
33  3.2000000000000E-01  1.6601837003539E+00  5.2566839407538E-01
34  3.3000000000000E-01  1.6644069706655E+00  5.0676925999928E-01
35  3.4000000000000E-01  1.6651118482331E+00  4.8332185761178E-01
36  3.5000000000000E-01  1.6623276946829E+00  4.5541377759842E-01
37  3.6000000000000E-01  1.6560950452545E+00  4.2319085243170E-01
38  3.7000000000000E-01  1.6464655140531E+00  3.8685571742429E-01
39  3.8000000000000E-01  1.6335016390001E+00  3.4666540737333E-01
40  3.9000000000000E-01  1.6172766669798E+00  3.0292804024728E-01
41  4.0000000000000E-01  1.5978742803122E+00  2.5599865741618E-01
42  4.1000000000000E-01  1.5753882662887E+00  2.0627430643173E-01
43  4.2000000000000E-01  1.5499221320757E+00  1.5418846698358E-01
44  4.3000000000000E-01  1.5215886678231E+00  1.0020493307882E-01
45  4.4000000000000E-01  1.4905094612873E+00  4.4811274454052E-02
46  4.5000000000000E-01  1.4568143676973E+00 -1.1487992477946E-02
47  4.6000000000000E-01  1.4206409389464E+00 -6.8178389371140E-02
48  4.7000000000000E-01  1.3821338164771E+00 -1.2474248004488E-01
49  4.8000000000000E-01  1.3414440924442E+00 -1.8066675898167E-01
50  4.9000000000000E-01  1.2987286438827E+00 -2.3544829355617E-01
51  5.0000000000000E-01  1.2541494446811E+00 -2.8860099641655E-01
52  5.1000000000000E-01  1.2078728601672E+00 -3.3966141417756E-01
53  5.2000000000000E-01  1.1600689290461E+00 -3.8819393074945E-01
54  5.3000000000000E-01  1.1109106373145E+00 -4.3379529794479E-01
55  5.4000000000000E-01  1.0605731885914E+00 -4.7609842215743E-01
56  5.5000000000000E-01  1.0092332750838E+00 -5.1477535353121E-01
57  5.6000000000000E-01  9.5706835313681E-01 -5.4953944273358E-01
58  5.7000000000000E-01  9.0425592702156E-01 -5.8014664980193E-01
59  5.8000000000000E-01  8.5097284429024E-01 -6.0639600909723E-01
60  5.9000000000000E-01  7.9739460569530E-01 -6.2812927374158E-01
61  6.0000000000000E-01  7.4369469232756E-01 -6.4522978158670E-01
62  6.1000000000000E-01  6.9004391229321E-01 -6.5762060233779E-01
63  6.2000000000000E-01  6.3660976892629E-01 -6.6526204153138E-01
64  6.3000000000000E-01  5.8355585223063E-01 -6.6814859126627E-01
65  6.4000000000000E-01  5.3104125497018E-01 -6.6630542958102E-01
66  6.5000000000000E-01  4.7922001458525E-01 -6.5978457987087E-01
67  6.6000000000000E-01  4.2824058190908E-01 -6.4866084851980E-01
68  6.7000000000000E-01  3.7824531749798E-01 -6.3302766280774E-01
69  6.8000000000000E-01  3.2937001627121E-01 -6.1299293204975E-01
70  6.9000000000000E-01  2.8174346108450E-01 -5.8867505278225E-01
71  7.0000000000000E-01  2.3548700583289E-01 -5.6019917367322E-01
72  7.1000000000000E-01  1.9071418869208E-01 -5.2769382779721E-01
73  7.2000000000000E-01  1.4753037615932E-01 -4.9128802914978E-01
74  7.3000000000000E-01  1.0603243863983E-01 -4.5110891701958E-01
75  7.4000000000000E-01  6.6308458437113E-02 -4.0728001637473E-01
76  7.5000000000000E-01  2.8437471137320E-02 -3.5992016511067E-01
77  7.6000000000000E-01 -7.5107584776777E-03 -3.0914314023793E-01
78  7.7000000000000E-01 -4.1475924707084E-02 -2.5505799529552E-01
79  7.8000000000000E-01 -7.3407331974865E-02 -1.9777010091935E-01
80  7.9000000000000E-01 -1.0326400709153E-01 -1.3738286006037E-01
81  8.0000000000000E-01 -1.3101477108388E-01 -7.4000049317581E-02
82  8.1000000000000E-01 -1.5663826887496E-01 -7.7287187161499E-03
83  8.2000000000000E-01 -1.8012295507043E-01  6.1317435504722E-02
84  8.3000000000000E-01 -2.0146703413208E-01  1.3301432648201E-01
85  8.4000000000000E-01 -2.2067835329868E-01  2.0722347580803E-01
86  8.5000000000000E-01 -2.3777424675654E-01  2.8378788233664E-01
87  8.6000000000000E-01 -2.5278132976887E-01  3.6252789516941E-01
88  8.7000000000000E-01 -2.6573524174782E-01  4.4323723032899E-01
89  8.8000000000000E-01 -2.7668033759608E-01  5.2567927233262E-01
90  8.9000000000000E-01 -2.8566932705450E-01  6.0958380012529E-01
91  9.0000000000000E-01 -2.9276286226620E-01  6.9464427159258E-01
92  9.1000000000000E-01 -2.9802907429988E-01  7.8051579218239E-01
93  9.2000000000000E-01 -3.0154305995989E-01  8.6681388116023E-01
94  9.3000000000000E-01 -3.0338632083877E-01  9.5311413389532E-01
95  9.4000000000000E-01 -3.0364615722956E-01  1.0389528606142E+00
96  9.5000000000000E-01 -3.0241502019892E-01  1.1238287615994E+00
97  9.6000000000000E-01 -2.9978982581498E-01  1.2072056762705E+00
98  9.7000000000000E-01 -2.9587123621205E-01  1.2885164194288E+00
99  9.8000000000000E-01 -2.9076291284389E-01  1.3671676926724E+00
100  9.9000000000000E-01 -2.8457074791262E-01  1.4425460331669E+00
101  1.0000000000000E+00 -2.7740208054776E-01  1.5140247361130E+00
102  1.0100000000000E+00 -2.6936490483326E-01  1.5809716620096E+00
103  1.0200000000000E+00 -2.6056707722670E-01  1.6427578157244E+00
104  1.0300000000000E+00 -2.5111553127086E-01  1.6987665620048E+00
105  1.0400000000000E+00 -2.4111550775048E-01  1.7484033219542E+00
106  1.0500000000000E+00 -2.3066980858773E-01  1.7911055776433E+00
107  1.0600000000000E+00 -2.1987808278806E-01  1.8263529978628E+00
108  1.0700000000000E+00 -2.0883615263848E-01  1.8536774874563E+00
109  1.0800000000000E+00 -1.9763538811843E-01  1.8726729560054E+00
110  1.0900000000000E+00 -1.8636213710596E-01  1.8830045991047E+00
111  1.1000000000000E+00 -1.7509721845250E-01  1.8844174872285E+00
112  1.1100000000000E+00 -1.6391548435724E-01  1.8767442633096E+00
113  1.1200000000000E+00 -1.5288545770764E-01  1.8599117605871E+00
114  1.1300000000000E+00 -1.4206904916959E-01  1.8339463669327E+00
115  1.1400000000000E+00 -1.3152135782449E-01  1.7989779805043E+00
116  1.1500000000000E+00 -1.2129055807075E-01  1.7552424239044E+00
117  1.1600000000000E+00 -1.1141787435265E-01  1.7030822096612E+00
118  1.1700000000000E+00 -1.0193764406352E-01  1.6429455783559E+00
119  1.1800000000000E+00 -9.2877467718252E-02  1.5753837614870E+00
120  1.1900000000000E+00 -8.4258444211638E-02  1.5010464538052E+00
121  1.2000000000000E+00 -7.6095487711678E-02  1.4206755133795E+00
122  1.2100000000000E+00 -6.8397721480463E-02  1.3350969419437E+00
123  1.2200000000000E+00 -6.1168942716223E-02  1.2452112317928E+00
124  1.2300000000000E+00 -5.4408151367042E-02  1.1519821985934E+00
125  1.2400000000000E+00 -4.8110134816040E-02  1.0564244508363E+00
126  1.2500000000000E+00 -4.2266099394719E-02  9.5958967574292E-01
127  1.2600000000000E+00 -3.6864338857082E-02  8.6255194785864E-01
128  1.2700000000000E+00 -3.1890929270589E-02  7.6639228936500E-01
129  1.2800000000000E+00 -2.7330439254225E-02  6.7218273014360E-01
130  1.2900000000000E+00 -2.3166644134703E-02  5.8097013030191E-01
131  1.3000000000000E+00 -1.9383232409120E-02  4.9376003779054E-01
132  1.3100000000000E+00 -1.5964492897417E-02  4.1150085880807E-01
133  1.3200000000000E+00 -1.2895976155493E-02  3.3506847939101E-01
134  1.3300000000000E+00 -1.0165080701783E-02  2.6525260791865E-01
135  1.3400000000000E+00 -7.7621328393185E-03  2.0272896399657E-01
136  1.3500000000000E+00 -5.6854999788129E-03  1.4790355871567E-01
137  1.3600000000000E+00 -3.9299751817366E-03  1.0125415775935E-01
138  1.3700000000000E+00 -2.4913109549855E-03  6.3221268069781E-02
139  1.3800000000000E+00 -1.3707381555496E-03  3.4076131337366E-02
140  1.3900000000000E+00 -5.7489101422088E-04  1.3926384008028E-02
141  1.4000000000000E+00 -1.1557419886814E-04  2.7142726520651E-03
142  1.4100000000000E+00  5.6674350883566E-06 -1.2950765569730E-04
143  1.4200000000000E+00 -1.9242561279551E-06  4.4414144653909E-05
144  1.43  0.  0.
145  1.44  0.  0.
146  1.45  0.  0.
147  1.46  0.  0.
148  1.47  0.  0.
149  1.48  0.  0.
150  1.49  0.  0.
151  1.50  0.  0.
152  1.51  0.  0.
153  1.52  0.  0.
154  1.53  0.  0.
155  1.54  0.  0.
156  1.55  0.  0.
157  1.56  0.  0.
158  1.57  0.  0.
159  1.58  0.  0.
160  1.59  0.  0.
161  1.60  0.  0.
162  1.61  0.  0.
163  1.62  0.  0.
164  1.63  0.  0.
165  1.64  0.  0.
166  1.65  0.  0.
167  1.66  0.  0.
168  1.67  0.  0.
169  1.68  0.  0.
170  1.69  0.  0.
171  1.70  0.  0.
172  1.71  0.  0.
173  1.72  0.  0.
174  1.73  0.  0.
175  1.74  0.  0.
176  1.75  0.  0.
177  1.76  0.  0.
178  1.77  0.  0.
179  1.78  0.  0.
180  1.79  0.  0.
181  1.80  0.  0.
182  1.81  0.  0.
183  1.82  0.  0.
184  1.83  0.  0.
185  1.84  0.  0.
186  1.85  0.  0.
187  1.86  0.  0.
188  1.87  0.  0.
189  1.88  0.  0.
190  1.89  0.  0.
191  1.90  0.  0.
192  1.91  0.  0.
193  1.92  0.  0.
194  1.93  0.  0.
195  1.94  0.  0.
196  1.95  0.  0.
197  1.96  0.  0.
198  1.97  0.  0.
199  1.98  0.  0.
200  1.99  0.  0.
201  2.00  0.  0.
202  2.01  0.  0.
203  2.02  0.  0.
204  2.03  0.  0.
205  2.04  0.  0.
206  2.05  0.  0.
207  2.06  0.  0.
208  2.07  0.  0.
209  2.08  0.  0.
210  2.09  0.  0.
211  2.10  0.  0.
212  2.11  0.  0.
213  2.12  0.  0.
214  2.13  0.  0.
215  2.14  0.  0.
216  2.15  0.  0.
217  2.16  0.  0.
218  2.17  0.  0.
219  2.18  0.  0.
220  2.19  0.  0.
221  2.20  0.  0.
222  2.21  0.  0.
223  2.22  0.  0.
224  2.23  0.  0.
225  2.24  0.  0.
226  2.25  0.  0.
227  2.26  0.  0.
228  2.27  0.  0.
229  2.28  0.  0.
230  2.29  0.  0.
231  2.30  0.  0.
232  2.31  0.  0.
233  2.32  0.  0.
234  2.33  0.  0.
235  2.34  0.  0.
236  2.35  0.  0.
237  2.36  0.  0.
238  2.37  0.  0.
239  2.38  0.  0.
240  2.39  0.  0.
241  2.40  0.  0.
242  2.41  0.  0.
243  2.42  0.  0.
244  2.43  0.  0.
245  2.44  0.  0.
246  2.45  0.  0.
247  2.46  0.  0.
248  2.47  0.  0.
249  2.48  0.  0.
250  2.49  0.  0.
251  2.50  0.  0.
252  2.51  0.  0.
253  2.52  0.  0.
254  2.53  0.  0.
255  2.54  0.  0.
256  2.55  0.  0.
257  2.56  0.  0.
258  2.57  0.  0.
259  2.58  0.  0.
260  2.59  0.  0.
261  2.60  0.  0.
262  2.61  0.  0.
263  2.62  0.  0.
264  2.63  0.  0.
265  2.64  0.  0.
266  2.65  0.  0.
267  2.66  0.  0.
268  2.67  0.  0.
269  2.68  0.  0.
270  2.69  0.  0.
271  2.70  0.  0.
272  2.71  0.  0.
273  2.72  0.  0.
274  2.73  0.  0.
275  2.74  0.  0.
276  2.75  0.  0.
277  2.76  0.  0.
278  2.77  0.  0.
279  2.78  0.  0.
280  2.79  0.  0.
281  2.80  0.  0.
282  2.81  0.  0.
283  2.82  0.  0.
284  2.83  0.  0.
285  2.84  0.  0.
286  2.85  0.  0.
287  2.86  0.  0.
288  2.87  0.  0.
289  2.88  0.  0.
290  2.89  0.  0.
291  2.90  0.  0.
292  2.91  0.  0.
293  2.92  0.  0.
294  2.93  0.  0.
295  2.94  0.  0.
296  2.95  0.  0.
297  2.96  0.  0.
298  2.97  0.  0.
299  2.98  0.  0.
300  2.99  0.  0.
301  3.00  0.  0.
302  3.01  0.  0.
303  3.02  0.  0.
304  3.03  0.  0.
305  3.04  0.  0.
306  3.05  0.  0.
307  3.06  0.  0.
308  3.07  0.  0.
309  3.08  0.  0.
310  3.09  0.  0.
311  3.10  0.  0.
312  3.11  0.  0.
313  3.12  0.  0.
314  3.13  0.  0.
315  3.14  0.  0.
316  3.15  0.  0.
317  3.16  0.  0.
318  3.17  0.  0.
319  3.18  0.  0.
320  3.19  0.  0.
321  3.20  0.  0.
322  3.21  0.  0.
323  3.22  0.  0.
324  3.23  0.  0.
325  3.24  0.  0.
326  3.25  0.  0.
327  3.26  0.  0.
328  3.27  0.  0.
329  3.28  0.  0.
330  3.29  0.  0.
331  3.30  0.  0.
332  3.31  0.  0.
333  3.32  0.  0.
334  3.33  0.  0.
335  3.34  0.  0.
336  3.35  0.  0.
337  3.36  0.  0.
338  3.37  0.  0.
339  3.38  0.  0.
340  3.39  0.  0.
341  3.40  0.  0.
342  3.41  0.  0.
343  3.42  0.  0.
344  3.43  0.  0.
345  3.44  0.  0.
346  3.45  0.  0.
347  3.46  0.  0.
348  3.47  0.  0.
349  3.48  0.  0.
350  3.49  0.  0.
351  3.50  0.  0.
352  3.51  0.  0.
353  3.52  0.  0.
354  3.53  0.  0.
355  3.54  0.  0.
356  3.55  0.  0.
357  3.56  0.  0.
358  3.57  0.  0.
359  3.58  0.  0.
360  3.59  0.  0.
361  3.60  0.  0.
362  3.61  0.  0.
363  3.62  0.  0.
364  3.63  0.  0.
365  3.64  0.  0.
366  3.65  0.  0.
367  3.66  0.  0.
368  3.67  0.  0.
369  3.68  0.  0.
370  3.69  0.  0.
371  3.70  0.  0.
372  3.71  0.  0.
373  3.72  0.  0.
374  3.73  0.  0.
375  3.74  0.  0.
376  3.75  0.  0.
377  3.76  0.  0.
378  3.77  0.  0.
379  3.78  0.  0.
380  3.79  0.  0.
381  3.80  0.  0.
382  3.81  0.  0.
383  3.82  0.  0.
384  3.83  0.  0.
385  3.84  0.  0.
386  3.85  0.  0.
387  3.86  0.  0.
388  3.87  0.  0.
389  3.88  0.  0.
390  3.89  0.  0.
391  3.90  0.  0.
392  3.91  0.  0.
393  3.92  0.  0.
394  3.93  0.  0.
395  3.94  0.  0.
396  3.95  0.  0.
397  3.96  0.  0.
398  3.97  0.  0.
399  3.98  0.  0.
400  3.99  0.  0.
401  4.00  0.  0.
402  4.01  0.  0.
403  4.02  0.  0.
404  4.03  0.  0.
405  4.04  0.  0.
406  4.05  0.  0.
407  4.06  0.  0.
408  4.07  0.  0.
409  4.08  0.  0.
410  4.09  0.  0.
411  4.10  0.  0.
412  4.11  0.  0.
413  4.12  0.  0.
414  4.13  0.  0.
415  4.14  0.  0.
416  4.15  0.  0.
417  4.16  0.  0.
418  4.17  0.  0.
419  4.18  0.  0.
420  4.19  0.  0.
421  4.20  0.  0.
422  4.21  0.  0.
423  4.22  0.  0.
424  4.23  0.  0.
425  4.24  0.  0.
426  4.25  0.  0.
427  4.26  0.  0.
428  4.27  0.  0.
429  4.28  0.  0.
430  4.29  0.  0.
431  4.30  0.  0.
432  4.31  0.  0.
433  4.32  0.  0.
434  4.33  0.  0.
435  4.34  0.  0.
436  4.35  0.  0.
437  4.36  0.  0.
438  4.37  0.  0.
439  4.38  0.  0.
440  4.39  0.  0.
441  4.40  0.  0.
442  4.41  0.  0.
443  4.42  0.  0.
444  4.43  0.  0.
445  4.44  0.  0.
446  4.45  0.  0.
447  4.46  0.  0.
448  4.47  0.  0.
449  4.48  0.  0.
450  4.49  0.  0.
451  4.50  0.  0.
452  4.51  0.  0.
453  4.52  0.  0.
454  4.53  0.  0.
455  4.54  0.  0.
456  4.55  0.  0.
457  4.56  0.  0.
458  4.57  0.  0.
459  4.58  0.  0.
460  4.59  0.  0.
461  4.60  0.  0.
462  4.61  0.  0.
463  4.62  0.  0.
464  4.63  0.  0.
465  4.64  0.  0.
466  4.65  0.  0.
467  4.66  0.  0.
468  4.67  0.  0.
469  4.68  0.  0.
470  4.69  0.  0.
471  4.70  0.  0.
472  4.71  0.  0.
473  4.72  0.  0.
474  4.73  0.  0.
475  4.74  0.  0.
476  4.75  0.  0.
477  4.76  0.  0.
478  4.77  0.  0.
479  4.78  0.  0.
480  4.79  0.  0.
481  4.80  0.  0.
482  4.81  0.  0.
483  4.82  0.  0.
484  4.83  0.  0.
485  4.84  0.  0.
486  4.85  0.  0.
487  4.86  0.  0.
488  4.87  0.  0.
489  4.88  0.  0.
490  4.89  0.  0.
491  4.90  0.  0.
492  4.91  0.  0.
493  4.92  0.  0.
494  4.93  0.  0.
495  4.94  0.  0.
496  4.95  0.  0.
497  4.96  0.  0.
498  4.97  0.  0.
499  4.98  0.  0.
500  4.99  0.  0.
501  5.00  0.  0.
502  5.01  0.  0.
503  5.02  0.  0.
504  5.03  0.  0.
505  5.04  0.  0.
506  5.05  0.  0.
507  5.06  0.  0.
508  5.07  0.  0.
509  5.08  0.  0.
510  5.09  0.  0.
511  5.10  0.  0.
512  5.11  0.  0.
513  5.12  0.  0.
514  5.13  0.  0.
515  5.14  0.  0.
516  5.15  0.  0.
517  5.16  0.  0.
518  5.17  0.  0.
519  5.18  0.  0.
520  5.19  0.  0.
521  5.20  0.  0.
522  5.21  0.  0.
523  5.22  0.  0.
524  5.23  0.  0.
525  5.24  0.  0.
526  5.25  0.  0.
527  5.26  0.  0.
528  5.27  0.  0.
529  5.28  0.  0.
530  5.29  0.  0.
531  5.30  0.  0.
532  5.31  0.  0.
533  5.32  0.  0.
534  5.33  0.  0.
535  5.34  0.  0.
536  5.35  0.  0.
537  5.36  0.  0.
538  5.37  0.  0.
539  5.38  0.  0.
540  5.39  0.  0.
541  5.40  0.  0.
542  5.41  0.  0.
543  5.42  0.  0.
544  5.43  0.  0.
545  5.44  0.  0.
546  5.45  0.  0.
547  5.46  0.  0.
548  5.47  0.  0.
549  5.48  0.  0.
550  5.49  0.  0.
551  5.50  0.  0.
552  5.51  0.  0.
553  5.52  0.  0.
554  5.53  0.  0.
555  5.54  0.  0.
556  5.55  0.  0.
557  5.56  0.  0.
558  5.57  0.  0.
559  5.58  0.  0.
560  5.59  0.  0.
561  5.60  0.  0.
562  5.61  0.  0.
563  5.62  0.  0.
564  5.63  0.  0.
565  5.64  0.  0.
566  5.65  0.  0.
567  5.66  0.  0.
568  5.67  0.  0.
569  5.68  0.  0.
570  5.69  0.  0.
571  5.70  0.  0.
572  5.71  0.  0.
573  5.72  0.  0.
574  5.73  0.  0.
575  5.74  0.  0.
576  5.75  0.  0.
577  5.76  0.  0.
578  5.77  0.  0.
579  5.78  0.  0.
580  5.79  0.  0.
581  5.80  0.  0.
582  5.81  0.  0.
583  5.82  0.  0.
584  5.83  0.  0.
585  5.84  0.  0.
586  5.85  0.  0.
587  5.86  0.  0.
588  5.87  0.  0.
589  5.88  0.  0.
590  5.89  0.  0.
591  5.90  0.  0.
592  5.91  0.  0.
593  5.92  0.  0.
594  5.93  0.  0.
595  5.94  0.  0.
596  5.95  0.  0.
597  5.96  0.  0.
598  5.97  0.  0.
599  5.98  0.  0.
600  5.99  0.  0.
1                         1.0558890227573E+01  6.9248507814360E-01 -1.9289553390497E-01
1  0.0000000000000E+00 -8.8884886950691E-10  1.7903687976606E-09 -1.9427138342465E-08
2  1.0000000000000E-02  1.5601771564462E-03 -7.3081503435219E-04  1.1150277046179E-03
3  2.0000000000000E-02  6.2357308002290E-03 -2.9202097581502E-03  4.4654519923714E-03
4  3.0000000000000E-02  1.4011722201277E-02 -6.5590047708980E-03  1.0066884807071E-02
5  4.0000000000000E-02  2.4863236517332E-02 -1.1631807967632E-02  1.7943986201095E-02
6  5.0000000000000E-02  3.8755359275662E-02 -1.8116878722631E-02  2.8128466506139E-02
7  6.0000000000000E-02  5.5643147237604E-02 -2.5985945330026E-02  4.0656372188736E-02
8  7.0000000000000E-02  7.5471597321123E-02 -3.5203983061808E-02  5.5564735697336E-02
9  8.0000000000000E-02  9.8175618145451E-02 -4.5728961994095E-02  7.2887689034917E-02
10  9.0000000000000E-02  1.2368000953488E-01 -5.7511575318369E-02  9.2652157695412E-02
11  1.0000000000000E-01  1.5189945595570E-01 -7.0494960156020E-02  1.1487326555045E-01
12  1.1000000000000E-01  1.8273854034402E-01 -8.4614423899964E-02  1.3954959189778E-01
13  1.2000000000000E-01  2.1609178509914E-01 -9.9797189788230E-02  1.6665842890424E-01
14  1.3000000000000E-01  2.5184372715747E-01 -1.1596217575421E-01  1.9615119089198E-01
15  1.4000000000000E-01  2.8986903401963E-01 -1.3301982058427E-01  2.2794912622404E-01
16  1.5000000000000E-01  3.3003266737786E-01 -1.5087197104345E-01  2.6193947793089E-01
17  1.6000000000000E-01  3.7219010058274E-01 -1.6941184290918E-01  2.9797223076756E-01
18  1.7000000000000E-01  4.1618759560714E-01 -1.8852406779452E-01  3.3585757027891E-01
19  1.8000000000000E-01  4.6186254441931E-01 -2.0808483626900E-01  3.7536416394409E-01
20  1.9000000000000E-01  5.0904387878329E-01 -2.2796214612234E-01  4.1621835592408E-01
21  2.0000000000000E-01  5.5755255147924E-01 -2.4801616270428E-01  4.5810434577237E-01
22  2.1000000000000E-01  6.0720209080218E-01 -2.6809969614859E-01  5.0066539818402E-01
23  2.2000000000000E-01  6.5779922897723E-01 -2.8805879800220E-01  5.4350610600018E-01
24  2.3000000000000E-01  7.0914460384944E-01 -3.0773347737823E-01  5.8619570284415E-01
25  2.4000000000000E-01  7.6103353189384E-01 -3.2695853428993E-01  6.2827239556159E-01
26  2.5000000000000E-01  8.1325684927512E-01 -3.4556450535512E-01  6.6924866070334E-01
27  2.6000000000000E-01  8.6560181639376E-01 -3.6337871464329E-01  7.0861742425927E-01
28  2.7000000000000E-01  9.1785308011595E-01 -3.8022642012431E-01  7.4585902034014E-01
29  2.8000000000000E-01  9.6979368672448E-01 -3.9593204402183E-01  7.8044880309940E-01
30  2.9000000000000E-01  1.0212061375720E+00 -4.1032047342355E-01  8.1186526742824E-01
31  3.0000000000000E-01  1.0718734784912E+00 -4.2321841580114E-01  8.3959851832996E-01
32  3.1000000000000E-01  1.1215804132370E+00 -4.3445579268206E-01  8.6315891679494E-01
33  3.2000000000000E-01  1.1701144306224E+00 -4.4386715362778E-01  8.8208572179107E-01
34  3.3000000000000E-01  1.2172669345755E+00 -4.5129309193302E-01  8.9595554389834E-01
35  3.4000000000000E-01  1.2628343660992E+00 -4.5658164308661E-01  9.0439042630093E-01
36  3.5000000000000E-01  1.3066193060633E+00 -4.5958964703592E-01  9.0706537335272E-01
37  3.6000000000000E-01  1.3484315479017E+00 -4.6018405567470E-01  9.0371515570141E-01
38  3.7000000000000E-01  1.3880891296241E+00 -4.5824316772138E-01  8.9414023383577E-01
39  3.8000000000000E-01  1.4254193150704E+00 -4.5365777425516E-01  8.7821165865717E-01
40  3.9000000000000E-01  1.4602595150300E+00 -4.4633219960746E-01  8.5587482792227E-01
41  4.0000000000000E-01  1.4924581396987E+00 -4.3618522403470E-01  8.2715200072262E-01
42  4.1000000000000E-01  1.5218753749365E+00 -4.2315087658683E-01  7.9214349805000E-01
43  4.2000000000000E-01  1.5483838758973E+00 -4.0717908879080E-01  7.5102754536040E-01
44  4.3000000000000E-01  1.5718693728001E+00 -3.8823620213956E-01  7.0405874226889E-01
45  4.4000000000000E-01  1.5922311848826E+00 -3.6630532486321E-01  6.5156517440775E-01
46  4.5000000000000E-01  1.6093826398793E+00 -3.4138653600314E-01  5.9394421236979E-01
47  4.6000000000000E-01  1.6232513976889E+00 -3.1349693735655E-01  5.3165707183693E-01
48  4.7000000000000E-01  1.6337796781924E+00 -2.8267055635001E-01  4.6522223676942E-01
49  4.8000000000000E-01  1.6409243944412E+00 -2.4895810528234E-01  3.9520787323629E-01
50  4.9000000000000E-01  1.6446571936173E+00 -2.1242660459485E-01  3.2222338448214E-01
51  5.0000000000000E-01  1.6449644092567E+00 -1.7315887983399E-01  2.4691027757769E-01
52  5.1000000000000E-01  1.6418469292005E+00 -1.3125294372197E-01  1.6993252799942E-01
53  5.2000000000000E-01  1.6353199845696E+00 -8.6821276209441E-02  9.1966640311716E-02
54  5.3000000000000E-01  1.6254128657468E+00 -3.9990016518370E-02  1.3691610465533E-02
55  5.4000000000000E-01  1.6121685718690E+00  9.1019180274036E-03 -6.4221002134618E-02
56  5.5000000000000E-01  1.5956434006818E+00  6.0303771158917E-02 -1.4111668681525E-01
57  5.6000000000000E-01  1.5759064857898E+00  1.1345392951701E-01 -2.1636707906740E-01
58  5.7000000000000E-01  1.5530392883368E+00  1.6838093221609E-01 -2.8937835588433E-01
59  5.8000000000000E-01  1.5271350499952E+00  2.2490449377462E-01 -3.5959875777109E-01
60  5.9000000000000E-01  1.4982982138241E+00  2.8283652704655E-01 -4.2652508641297E-01
61  6.0000000000000E-01  1.4666438190975E+00  3.4198215406207E-01 -4.8970805087893E-01
62  6.1000000000000E-01  1.4322968756262E+00  4.0214069422149E-01 -5.4875636225793E-01
63  6.2000000000000E-01  1.3953917224044E+00  4.6310662103975E-01 -6.0333950616425E-01
64  6.3000000000000E-01  1.3560713746535E+00  5.2467048056022E-01 -6.5318915392457E-01
65  6.4000000000000E-01  1.3144868625100E+00  5.8661976659238E-01 -6.9809920573587E-01
66  6.5000000000000E-01  1.2707965637613E+00  6.4873975002166E-01 -7.3792449189539E-01
67  6.6000000000000E-01  1.2251655321842E+00  7.1081426153132E-01 -7.7257819056333E-01
68  6.7000000000000E-01  1.1777648222232E+00  7.7262642910836E-01 -8.0202805164532E-01
69  6.8000000000000E-01  1.1287708099831E+00  8.3395937361876E-01 -8.2629154550862E-01
70  6.9000000000000E-01  1.0783645098263E+00  8.9459686747780E-01 -8.4543008165304E-01
71  7.0000000000000E-01  1.0267308852900E+00  9.5432396295654E-01 -8.5954246547249E-01
72  7.1000000000000E-01  9.7405815258142E-01  1.0129275979116E+00 -8.6875778027720E-01
73  7.2000000000000E-01  9.2053707460390E-01  1.0701971876620E+00 -8.7322789628728E-01
74  7.3000000000000E-01  8.6636024330563E-01  1.1259252123324E+00 -8.7311981795895E-01
75  7.4000000000000E-01  8.1172134815785E-01  1.1799078092165E+00 -8.6860808546608E-01
76  7.5000000000000E-01  7.5681442874540E-01  1.2319453795716E+00 -8.5986744526695E-01
77  7.6000000000000E-01  7.0183310980210E-01  1.2818432187317E+00 -8.4706599839463E-01
78  7.7000000000000E-01  6.4696981753509E-01  1.3294121775354E+00 -8.3035902350168E-01
79  7.8000000000000E-01  5.9241497674825E-01  1.3744693618117E+00 -8.0988365498745E-01
80  7.9000000000000E-01  5.3835618907903E-01  1.4168388750904E+00 -7.8575457507489E-01
81  8.0000000000000E-01  4.8497739358757E-01  1.4563526078304E+00 -7.5806085294973E-01
82  8.1000000000000E-01  4.3245801195699E-01  1.4928510743451E+00 -7.2686403459343E-01
83  8.2000000000000E-01  3.8097208165395E-01  1.5261842962843E+00 -6.9219755440897E-01
84  8.3000000000000E-01  3.3068738152754E-01  1.5562127290916E+00 -6.5406750490245E-01
85  8.4000000000000E-01  2.8176455546216E-01  1.5828082253277E+00 -6.1245476436707E-01
86  8.5000000000000E-01  2.3435624081113E-01  1.6058550262358E+00 -5.6731844558469E-01
87  8.6000000000000E-01  1.8860620938936E-01  1.6252507704646E+00 -5.1860059191321E-01
88  8.7000000000000E-01  1.4464852976140E-01  1.6409075065500E+00 -4.6623201166440E-01
89  8.8000000000000E-01  1.0260676039253E-01  1.6527526936465E+00 -4.1013910828961E-01
90  8.9000000000000E-01  6.2593183904812E-02  1.6607301731643E+00 -3.5025153342940E-01
91  9.0000000000000E-01  2.4708093169169E-02  1.6648010924657E+00 -2.8651046314695E-01
92  9.1000000000000E-01 -1.0960859756330E-02  1.6649447606652E+00 -2.1887727537254E-01
93  9.2000000000000E-01 -4.4339240781826E-02  1.6611594159016E+00 -1.4734238936287E-01
94  9.3000000000000E-01 -7.5366326170292E-02  1.6534628832520E+00 -7.1934016338818E-02
95  9.4000000000000E-01 -1.0399549973672E-01  1.6418931027570E+00  7.2734351997005E-03
96  9.5000000000000E-01 -1.3019454515619E-01  1.6265085078458E+00  9.0151555426987E-02
97  9.6000000000000E-01 -1.5394582463990E-01  1.6073882357882E+00  1.7651097946032E-01
98  9.7000000000000E-01 -1.7524633645127E-01  1.5846321536484E+00  2.6609551980473E-01
99  9.8000000000000E-01 -1.9410764518012E-01  1.5583606855580E+00  3.5857760153329E-01
100  9.9000000000000E-01 -2.1055568035044E-01  1.5287144299169E+00  4.5355519171166E-01
101  1.0000000000000E+00 -2.2463040078150E-01  1.4958535583386E+00  5.5055038421484E-01
102  1.0100000000000E+00 -2.3638532411857E-01  1.4599569917096E+00  6.4900976606535E-01
103  1.0200000000000E+00 -2.4588692306316E-01  1.4212213525767E+00  7.4830665247039E-01
104  1.0300000000000E+00 -2.5321389202226E-01  1.3798596971234E+00  8.4774523567248E-01
105  1.0400000000000E+00 -2.5845629011874E-01  1.3361000341731E+00  9.4656664848417E-01
106  1.0500000000000E+00 -2.6171456871095E-01  1.2901836428652E+00  1.0439568980013E+00
107  1.0600000000000E+00 -2.6309849371692E-01  1.2423632048064E+00  1.1390565794147E+00
108  1.0700000000000E+00 -2.6272597507533E-01  1.1929007705009E+00  1.2309722352087E+00
109  1.0800000000000E+00 -2.6072181755384E-01  1.1420655836187E+00  1.3187891824269E+00
110  1.0900000000000E+00 -2.5721640879834E-01  1.0901317900905E+00  1.4015855909607E+00
111  1.1000000000000E+00 -2.5234436194999E-01  1.0373760620087E+00  1.4784475602216E+00
112  1.1100000000000E+00 -2.4624313131554E-01  9.8407516882249E-01  1.5484849106974E+00
113  1.1200000000000E+00 -2.3905162041728E-01  9.3050353023623E-01  1.6108473818165E+00
114  1.1300000000000E+00 -2.3090880225201E-01  8.7693078652196E-01  1.6647409087599E+00
115  1.1400000000000E+00 -2.2195237172847E-01  8.2361942257226E-01  1.7094436390332E+00
116  1.1500000000000E+00 -2.1231745002000E-01  7.7082248192712E-01  1.7443213450574E+00
117  1.1600000000000E+00 -2.0213535995505E-01  7.1878140618182E-01  1.7688418920589E+00
118  1.1700000000000E+00 -1.9153249057672E-01  6.6772403361933E-01  1.7825884311745E+00
119  1.1800000000000E+00 -1.8062926764538E-01  6.1786278862892E-01  1.7852710057990E+00
120  1.1900000000000E+00 -1.6953924514503E-01  5.6939309047941E-01  1.7767362846801E+00
121  1.2000000000000E+00 -1.5836833083120E-01  5.2249200639503E-01  1.7569751673137E+00
122  1.2100000000000E+00 -1.4721415652392E-01  4.7731716962684E-01  1.7261280457901E+00
123  1.2200000000000E+00 -1.3616560128964E-01  4.3400597847813E-01  1.6844875508864E+00
124  1.2300000000000E+00 -1.2530247287073E-01  3.9267508702947E-01  1.6324986587730E+00
125  1.2400000000000E+00 -1.1469534979204E-01  3.5342019276718E-01  1.5707560867118E+00
126  1.2500000000000E+00 -1.0440558355553E-01  3.1631612055519E-01  1.4999989604529E+00
127  1.2600000000000E+00 -9.4485457252496E-02  2.8141719645090E-01  1.4211027921449E+00
128  1.2700000000000E+00 -8.4978493886329E-02  2.4875789896184E-01  1.3350688633607E+00
129  1.2800000000000E+00 -7.5919904731685E-02  2.1835376951988E-01  1.2430111627592E+00
130  1.2900000000000E+00 -6.7337165222885E-02  1.9020255833933E-01  1.1461410806761E+00
131  1.3000000000000E+00 -5.9250703243300E-02  1.6428557658091E-01  1.0457501119878E+00
132  1.3100000000000E+00 -5.1674682313420E-02  1.4056922093782E-01  9.4319086322703E-01
133  1.3200000000000E+00 -4.4617860096152E-02  1.1900663248760E-01  8.3985669912847E-01
134  1.3300000000000E+00 -3.8084500918660E-02  9.9539448052275E-02  7.3716039630540E-01
135  1.3400000000000E+00 -3.2075319670092E-02  8.2099599420242E-02  6.3651219715247E-01