Ra    ONCVPSP-4.0.1  r_core=   1.60343   1.60343   1.75396
88.0000     28.0000      231012    zatom,zion,pspd
8   -1012   2     4   600     0    pspcod,pspxc,lmax,lloc,mmax,r2well
5.99000000  5.00000000  0.00000000    rchrg fchrg qchrg
3     2     2     0     0    nproj
1     1           extension_switch
0                         9.1988680304355E+00 -3.8724115355518E+00  5.3771436077913E-01
1  0.0000000000000E+00 -1.8312611427262E-09 -4.8689885456810E-11 -6.4474787175861E-09
2  1.0000000000000E-02  1.1813987776718E-01  3.3323766805039E-02  4.8302285436139E-02
3  2.0000000000000E-02  2.3568001464933E-01  6.6632378455864E-02  9.5977378682821E-02
4  3.0000000000000E-02  3.5202471929212E-01  9.9910656621465E-02  1.4240568291540E-01
5  4.0000000000000E-02  4.6658636146678E-01  1.3314337630217E-01  1.8698268589318E-01
6  5.0000000000000E-02  5.7878930826915E-01  1.6631524172059E-01  2.2912623857123E-01
7  6.0000000000000E-02  6.8807374840709E-01  1.9941086131855E-01  2.6828352198057E-01
8  7.0000000000000E-02  7.9389936945966E-01  2.3241472162112E-01  3.0393760618986E-01
9  8.0000000000000E-02  8.9574885482226E-01  2.6531115977689E-01  3.3561351160894E-01
10  9.0000000000000E-02  9.9313116928917E-01  2.9808433464331E-01  3.6288369074734E-01
11  1.0000000000000E-01  1.0855846048330E+00  3.3071819635262E-01  3.8537285766165E-01
12  1.1000000000000E-01  1.1726795610800E+00  3.6319645436960E-01  4.0276210255741E-01
13  1.2000000000000E-01  1.2540210382088E+00  3.9550254413211E-01  4.1479224018664E-01
14  1.3000000000000E-01  1.3292508234672E+00  4.2761959244994E-01  4.2126635260214E-01
15  1.4000000000000E-01  1.3980493561580E+00  4.5953038192321E-01  4.2205149930000E-01
16  1.5000000000000E-01  1.4601372597348E+00  4.9121731472740E-01  4.1707958059172E-01
17  1.6000000000000E-01  1.5152765335176E+00  5.2266237619523E-01  4.0634735297332E-01
18  1.7000000000000E-01  1.5632714004312E+00  5.5384709870511E-01  3.8991560809924E-01
19  1.8000000000000E-01  1.6039688110296E+00  5.8475252645834E-01  3.6790753949644E-01
20  1.9000000000000E-01  1.6372586078415E+00  6.1535918179247E-01  3.4050633317148E-01
21  2.0000000000000E-01  1.6630733577067E+00  6.4564703373283E-01  3.0795202956898E-01
22  2.1000000000000E-01  1.6813878632204E+00  6.7559546952809E-01  2.7053771475487E-01
23  2.2000000000000E-01  1.6922183676121E+00  7.0518326994627E-01  2.2860510805171E-01
24  2.3000000000000E-01  1.6956214703241E+00  7.3438858912505E-01  1.8253962150193E-01
25  2.4000000000000E-01  1.6916927731807E+00  7.6318893977202E-01  1.3276497335572E-01
26  2.5000000000000E-01  1.6805652793231E+00  7.9156118449781E-01  7.9737443163704E-02
27  2.6000000000000E-01  1.6624075690029E+00  8.1948153403640E-01  2.3939859941799E-02
28  2.7000000000000E-01  1.6374217778633E+00  8.4692555306234E-01 -3.4124582803289E-02
29  2.8000000000000E-01  1.6058414044723E+00  8.7386817425542E-01 -9.3938590643432E-02
30  2.9000000000000E-01  1.5679289746130E+00  9.0028372118870E-01 -1.5497701666488E-01
31  3.0000000000000E-01  1.5239735901695E+00  9.2614594052778E-01 -2.1671300339843E-01
32  3.1000000000000E-01  1.4742883903988E+00  9.5142804392820E-01 -2.7862393068984E-01
33  3.2000000000000E-01  1.4192079529412E+00  9.7610275990565E-01 -3.4019708717791E-01
34  3.3000000000000E-01  1.3590856611390E+00  1.0001423958320E+00 -4.0093498953763E-01
35  3.4000000000000E-01  1.2942910631048E+00  1.0235189100800E+00 -4.6036028129575E-01
36  3.5000000000000E-01  1.2252072465653E+00  1.0462039942045E+00 -5.1802015167020E-01
37  3.6000000000000E-01  1.1522282518041E+00  1.0681691649088E+00 -5.7349022437595E-01
38  3.7000000000000E-01  1.0757565431147E+00  1.0893858654030E+00 -6.2637787648179E-01
39  3.8000000000000E-01  9.9620055705242E-01  1.1098255756241E+00 -6.7632495803037E-01
40  3.9000000000000E-01  9.1397234352161E-01  1.1294599306473E+00 -7.2300989403550E-01
41  4.0000000000000E-01  8.2948531336579E-01  1.1482608464910E+00 -7.6614916146043E-01
42  4.1000000000000E-01  7.4315210370677E-01  1.1662006523901E+00 -8.0549814466909E-01
43  4.2000000000000E-01  6.5538256983902E-01  1.1832522285040E+00 -8.4085138342973E-01
44  4.3000000000000E-01  5.6658191007425E-01  1.1993891479180E+00 -8.7204223765486E-01
45  4.4000000000000E-01  4.7714892758613E-01  1.2145858217136E+00 -8.9894200252483E-01
46  4.5000000000000E-01  3.8747443106671E-01  1.2288176458074E+00 -9.2145851629314E-01
47  4.6000000000000E-01  2.9793977390958E-01  1.2420611482026E+00 -9.3953431077316E-01
48  4.7000000000000E-01  2.0891552971065E-01  1.2542941352585E+00 -9.5314436113681E-01
49  4.8000000000000E-01  1.2076030015176E-01  1.2654958355619E+00 -9.6229349711988E-01
50  4.9000000000000E-01  3.3819649830587E-02  1.2756470399848E+00 -9.6701354193496E-01
51  5.0000000000000E-01 -5.1574838661927E-02  1.2847302365275E+00 -9.6736024809265E-01
52  5.1000000000000E-01 -1.3510639712676E-01  1.2927297385852E+00 -9.6341010090096E-01
53  5.2000000000000E-01 -2.1647380006392E-01  1.2996318053305E+00 -9.5525706062362E-01
54  5.3000000000000E-01 -2.9539199785060E-01  1.3054247529758E+00 -9.4300931317137E-01
55  5.4000000000000E-01 -3.7159266396886E-01  1.3100990557725E+00 -9.2678609679799E-01
56  5.5000000000000E-01 -4.4482466544273E-01  1.3136474357059E+00 -9.0671466865524E-01
57  5.6000000000000E-01 -5.1485446538467E-01  1.3160649399663E+00 -8.8292747028987E-01
58  5.7000000000000E-01 -5.8146646607560E-01  1.3173490054078E+00 -8.5555954537776E-01
59  5.8000000000000E-01 -6.4446330032340E-01  1.3174995093483E+00 -8.2474625627120E-01
60  5.9000000000000E-01 -7.0366607799450E-01  1.3165188062148E+00 -7.9062133845452E-01
61  6.0000000000000E-01 -7.5891459361263E-01  1.3144117496937E+00 -7.5331532388191E-01
62  6.1000000000000E-01 -8.1006749980392E-01  1.3111857002059E+00 -7.1295435559350E-01
63  6.2000000000000E-01 -8.5700245016425E-01  1.3068505176890E+00 -6.6965940711296E-01
64  6.3000000000000E-01 -8.9961621387180E-01  1.3014185398269E+00 -6.2354591111772E-01
65  6.4000000000000E-01 -9.3782476309002E-01  1.2949045460251E+00 -5.7472379287506E-01
66  6.5000000000000E-01 -9.7156333294695E-01  1.2873257075818E+00 -5.2329789516759E-01
67  6.6000000000000E-01 -1.0007864526577E+00  1.2787015246458E+00 -4.6936877300505E-01
68  6.7000000000000E-01 -1.0254679452159E+00  1.2690537506875E+00 -4.1303382852476E-01
69  6.8000000000000E-01 -1.0456008920398E+00  1.2584063053309E+00 -3.5438874923803E-01
70  6.9000000000000E-01 -1.0611975580535E+00  1.2467851765001E+00 -2.9352920634203E-01
71  7.0000000000000E-01 -1.0722892719222E+00  1.2342183129307E+00 -2.3055276425802E-01
72  7.1000000000000E-01 -1.0789262555801E+00  1.2207355081696E+00 -1.6556094802424E-01
73  7.2000000000000E-01 -1.0811773967887E+00  1.2063682772526E+00 -9.8661411700770E-02
74  7.3000000000000E-01 -1.0791299582666E+00  1.1911497272846E+00 -2.9970148612154E-02
75  7.4000000000000E-01 -1.0728892169370E+00  1.1751144231795E+00  4.0386316901154E-02
76  7.5000000000000E-01 -1.0625780270573E+00  1.1582982498185E+00  1.1226881652694E-01
77  7.6000000000000E-01 -1.0483363014148E+00  1.1407382718778E+00  1.8552356291463E-01
78  7.7000000000000E-01 -1.0303204054017E+00  1.1224725925466E+00  2.5998036922978E-01
79  7.8000000000000E-01 -1.0087024595972E+00  1.1035402123140E+00  3.3545111659571E-01
80  7.9000000000000E-01 -9.8366954747564E-01  1.0839808889423E+00  4.1172851818661E-01
81  8.0000000000000E-01 -9.5542282601971E-01  1.0638349996712E+00  4.8858522328273E-01
82  8.1000000000000E-01 -9.2417653830524E-01  1.0431434066105E+00  5.6577329829738E-01
83  8.2000000000000E-01 -8.9015692853483E-01  1.0219473261832E+00  6.4302411475555E-01
84  8.3000000000000E-01 -8.5360106149325E-01  1.0002882033730E+00  7.2004866657360E-01
85  8.4000000000000E-01 -8.1475554995384E-01  9.7820759141903E-01  7.9653833089823E-01
86  8.5000000000000E-01 -7.7387519515208E-01  9.5574703748007E-01  8.7216607836175E-01
87  8.6000000000000E-01 -7.3122154702822E-01  9.3294797467253E-01  9.4658813004819E-01
88  8.7000000000000E-01 -6.8706139249476E-01  9.0985162076209E-01  1.0194460499030E+00
89  8.8000000000000E-01 -6.4166518147593E-01  8.8649888366998E-01  1.0903692529052E+00
90  8.9000000000000E-01 -5.9530540186438E-01  8.6293027383770E-01  1.1589779012148E+00
91  9.0000000000000E-01 -5.4825491581760E-01  8.3918582338203E-01  1.2248861528469E+00
92  9.1000000000000E-01 -5.0078527094329E-01  8.1530501186857E-01  1.2877057203630E+00
93  9.2000000000000E-01 -4.5316500087875E-01  7.9132669843601E-01  1.3470496907125E+00
94  9.3000000000000E-01 -4.0565793052954E-01  7.6728905991926E-01  1.4025365518408E+00
95  9.4000000000000E-01 -3.5852150177883E-01  7.4322953454587E-01  1.4537943670965E+00
96  9.5000000000000E-01 -3.1200513579815E-01  7.1918477072072E-01  1.5004650348973E+00
97  9.6000000000000E-01 -2.6634864817023E-01  6.9519058036708E-01  1.5422085686317E+00
98  9.7000000000000E-01 -2.2178073286899E-01  6.7128189626061E-01  1.5787073304118E+00
99  9.8000000000000E-01 -1.7851753072598E-01  6.4749273277544E-01  1.6096701521032E+00
100  9.9000000000000E-01 -1.3676129735314E-01  6.2385614945909E-01  1.6348362780161E+00
101  1.0000000000000E+00 -9.6699184590019E-02  6.0040421686500E-01  1.6539790657622E+00
102  1.0100000000000E+00 -5.8502148410575E-02  5.7716798409781E-01  1.6669093850221E+00
103  1.0200000000000E+00 -2.2323994879312E-02  5.5417744756596E-01  1.6734786582600E+00
104  1.0300000000000E+00  1.1699425798529E-02  5.3146152048824E-01  1.6735814927220E+00
105  1.0400000000000E+00  4.3450868805806E-02  5.0904800276387E-01  1.6671578592364E+00
106  1.0500000000000E+00  7.2832181363774E-02  4.8696355088882E-01  1.6541947803354E+00
107  1.0600000000000E+00  9.9764622030583E-02  4.6523364768171E-01  1.6347274978565E+00
108  1.0700000000000E+00  1.2418901025660E-01  4.4388257167030E-01  1.6088400983992E+00
109  1.0800000000000E+00  1.4606570593282E-01  4.2293336608103E-01  1.5766655835805E+00
110  1.0900000000000E+00  1.6537442082559E-01  4.0240780746844E-01  1.5383853808727E+00
111  1.1000000000000E+00  1.8211386592868E-01  3.8232637411573E-01  1.4942282997035E+00
112  1.1100000000000E+00  1.9630124084843E-01  3.6270821443037E-01  1.4444689463128E+00
113  1.1200000000000E+00  2.0797157334186E-01  3.4357111564758E-01  1.3894256194425E+00
114  1.1300000000000E+00  2.1717691899707E-01  3.2493147323715E-01  1.3294577170651E+00
115  1.1400000000000E+00  2.2398543277083E-01  3.0680426148396E-01  1.2649626919722E+00
116  1.1500000000000E+00  2.2848032561857E-01  2.8920300577719E-01  1.1963726008711E+00
117  1.1600000000000E+00  2.3075872076718E-01  2.7213975719660E-01  1.1241502976691E+00
118  1.1700000000000E+00  2.3093042523279E-01  2.5562507002359E-01  1.0487853265931E+00
119  1.1800000000000E+00  2.2911663297966E-01  2.3966798283011E-01  9.7078957471313E-01
120  1.1900000000000E+00  2.2544857660712E-01  2.2427600380709E-01  8.9069274610097E-01
121  1.2000000000000E+00  2.2006614463859E-01  2.0945510098645E-01  8.0903772124701E-01
122  1.2100000000000E+00  2.1311648135227E-01  1.9520969798490E-01  7.2637586539041E-01
123  1.2200000000000E+00  2.0475258563039E-01  1.8154267585400E-01  6.4326234804661E-01
124  1.2300000000000E+00  1.9513192450639E-01  1.6845538155911E-01  5.6025153321234E-01
125  1.2400000000000E+00  1.8441507597263E-01  1.5594764352993E-01  4.7789249553338E-01
126  1.2500000000000E+00  1.7276441416202E-01  1.4401779462742E-01  3.9672471208508E-01
127  1.2600000000000E+00  1.6034284826222E-01  1.3266270275726E-01  3.1727397243716E-01
128  1.2700000000000E+00  1.4731262448400E-01  1.2187780923016E-01  2.4004854144705E-01
129  1.2800000000000E+00  1.3383419807525E-01  1.1165717482339E-01  1.6553559970629E-01
130  1.2900000000000E+00  1.2006517981408E-01  1.0199353334038E-01  9.4197976015938E-02
131  1.3000000000000E+00  1.0615935864383E-01  9.2878352295994E-02  2.6471174761721E-02
132  1.3100000000000E+00  9.2265799135209E-02  8.4301900176184E-02 -3.7239311380554E-02
133  1.3200000000000E+00  7.8528009361650E-02  7.6253319535189E-02 -9.6560425991906E-02
134  1.3300000000000E+00  6.5083171563803E-02  6.8720705003871E-02 -1.5115374682745E-01
135  1.3400000000000E+00  5.2061424688250E-02  6.1691185089698E-02 -2.0071750714627E-01
136  1.3500000000000E+00  3.9585184587668E-02  5.5151006457400E-02 -2.4498850449488E-01
137  1.3600000000000E+00  2.7768484383160E-02  4.9085619190257E-02 -2.8374397496744E-01
138  1.3700000000000E+00  1.6716314284696E-02  4.3479761349672E-02 -3.1680352463256E-01
139  1.3800000000000E+00  6.5239370393770E-03  3.8317540974963E-02 -3.4403122316557E-01
140  1.3900000000000E+00 -2.7238477642985E-03  3.3582513502491E-02 -3.6533797730463E-01
141  1.4000000000000E+00 -1.0953520075601E-02  2.9257752432657E-02 -3.8068431358949E-01
142  1.4100000000000E+00 -1.8103768506455E-02  2.5325910939236E-02 -3.9008371063535E-01
143  1.4200000000000E+00 -2.4126566527203E-02  2.1769271998843E-02 -3.9360663087235E-01
144  1.4300000000000E+00 -2.8988432010218E-02  1.8569784521977E-02 -3.9138541000687E-01
145  1.4400000000000E+00 -3.2671908017907E-02  1.5709082892426E-02 -3.8362016934975E-01
146  1.4500000000000E+00 -3.5177303994151E-02  1.3168487270013E-02 -3.7058592148488E-01
147  1.4600000000000E+00 -3.6524737398335E-02  1.0928981984425E-02 -3.5264104340992E-01
148  1.4700000000000E+00 -3.6756516308062E-02  8.9711693453875E-03 -3.3023729322102E-01
149  1.4800000000000E+00 -3.5939905992945E-02  7.2751960717532E-03 -3.0393155949972E-01
150  1.4900000000000E+00 -3.4170315663302E-02  5.8206499842224E-03 -2.7439949502744E-01
151  1.5000000000000E+00 -3.1574865714260E-02  4.5864297340473E-03 -2.4245079701422E-01
152  1.5100000000000E+00 -2.8315923666594E-02  3.5506087684840E-03 -2.0904375295326E-01
153  1.5200000000000E+00 -2.4579112449782E-02  2.6912544292908E-03 -1.7521646303220E-01
154  1.5300000000000E+00 -2.0563522070113E-02  1.9864350601843E-03 -1.4201665949253E-01
155  1.5400000000000E+00 -1.6477803835781E-02  1.4142210136042E-03 -1.1048183400085E-01
156  1.5500000000000E+00 -1.2492427160749E-02  9.5904049064139E-04 -8.1461211221074E-02
157  1.5600000000000E+00 -8.7790013052400E-03  6.0690816157245E-04 -5.5757963407903E-02
158  1.5700000000000E+00 -5.5097932112825E-03  3.4533899810950E-04 -3.4127354664738E-02
159  1.5800000000000E+00 -2.8574205054200E-03  1.6348535838536E-04 -1.7278211154276E-02
160  1.5900000000000E+00 -9.7948191760885E-04  5.1581808630813E-05 -5.7892871600303E-03
161  1.6000000000000E+00 -9.3287577012733E-05  4.5275440273849E-06 -5.3831117642222E-04
162  1.6100000000000E+00  1.7794253489155E-05 -8.2242609321712E-07  1.0150004208062E-04
163  1.6200000000000E+00 -5.5421883639937E-06  2.6622678855750E-07 -3.1962658380158E-05
164  1.63  0. -0.  0.
165  1.64 -0. -0. -0.
166  1.65  0.  0.  0.
167  1.66  0.  0.  0.
168  1.67  0.  0.  0.
169  1.68  0.  0.  0.
170  1.69  0.  0.  0.
171  1.70  0.  0.  0.
172  1.71  0.  0.  0.
173  1.72  0.  0.  0.
174  1.73  0.  0.  0.
175  1.74  0.  0.  0.
176  1.75  0.  0.  0.
177  1.76  0.  0.  0.
178  1.77  0.  0.  0.
179  1.78  0.  0.  0.
180  1.79  0.  0.  0.
181  1.80  0.  0.  0.
182  1.81  0.  0.  0.
183  1.82  0.  0.  0.
184  1.83  0.  0.  0.
185  1.84  0.  0.  0.
186  1.85  0.  0.  0.
187  1.86  0.  0.  0.
188  1.87  0.  0.  0.
189  1.88  0.  0.  0.
190  1.89  0.  0.  0.
191  1.90  0.  0.  0.
192  1.91  0.  0.  0.
193  1.92  0.  0.  0.
194  1.93  0.  0.  0.
195  1.94  0.  0.  0.
196  1.95  0.  0.  0.
197  1.96  0.  0.  0.
198  1.97  0.  0.  0.
199  1.98  0.  0.  0.
200  1.99  0.  0.  0.
201  2.00  0.  0.  0.
202  2.01  0.  0.  0.
203  2.02  0.  0.  0.
204  2.03  0.  0.  0.
205  2.04  0.  0.  0.
206  2.05  0.  0.  0.
207  2.06  0.  0.  0.
208  2.07  0.  0.  0.
209  2.08  0.  0.  0.
210  2.09  0.  0.  0.
211  2.10  0.  0.  0.
212  2.11  0.  0.  0.
213  2.12  0.  0.  0.
214  2.13  0.  0.  0.
215  2.14  0.  0.  0.
216  2.15  0.  0.  0.
217  2.16  0.  0.  0.
218  2.17  0.  0.  0.
219  2.18  0.  0.  0.
220  2.19  0.  0.  0.
221  2.20  0.  0.  0.
222  2.21  0.  0.  0.
223  2.22  0.  0.  0.
224  2.23  0.  0.  0.
225  2.24  0.  0.  0.
226  2.25  0.  0.  0.
227  2.26  0.  0.  0.
228  2.27  0.  0.  0.
229  2.28  0.  0.  0.
230  2.29  0.  0.  0.
231  2.30  0.  0.  0.
232  2.31  0.  0.  0.
233  2.32  0.  0.  0.
234  2.33  0.  0.  0.
235  2.34  0.  0.  0.
236  2.35  0.  0.  0.
237  2.36  0.  0.  0.
238  2.37  0.  0.  0.
239  2.38  0.  0.  0.
240  2.39  0.  0.  0.
241  2.40  0.  0.  0.
242  2.41  0.  0.  0.
243  2.42  0.  0.  0.
244  2.43  0.  0.  0.
245  2.44  0.  0.  0.
246  2.45  0.  0.  0.
247  2.46  0.  0.  0.
248  2.47  0.  0.  0.
249  2.48  0.  0.  0.
250  2.49  0.  0.  0.
251  2.50  0.  0.  0.
252  2.51  0.  0.  0.
253  2.52  0.  0.  0.
254  2.53  0.  0.  0.
255  2.54  0.  0.  0.
256  2.55  0.  0.  0.
257  2.56  0.  0.  0.
258  2.57  0.  0.  0.
259  2.58  0.  0.  0.
260  2.59  0.  0.  0.
261  2.60  0.  0.  0.
262  2.61  0.  0.  0.
263  2.62  0.  0.  0.
264  2.63  0.  0.  0.
265  2.64  0.  0.  0.
266  2.65  0.  0.  0.
267  2.66  0.  0.  0.
268  2.67  0.  0.  0.
269  2.68  0.  0.  0.
270  2.69  0.  0.  0.
271  2.70  0.  0.  0.
272  2.71  0.  0.  0.
273  2.72  0.  0.  0.
274  2.73  0.  0.  0.
275  2.74  0.  0.  0.
276  2.75  0.  0.  0.
277  2.76  0.  0.  0.
278  2.77  0.  0.  0.
279  2.78  0.  0.  0.
280  2.79  0.  0.  0.
281  2.80  0.  0.  0.
282  2.81  0.  0.  0.
283  2.82  0.  0.  0.
284  2.83  0.  0.  0.
285  2.84  0.  0.  0.
286  2.85  0.  0.  0.
287  2.86  0.  0.  0.
288  2.87  0.  0.  0.
289  2.88  0.  0.  0.
290  2.89  0.  0.  0.
291  2.90  0.  0.  0.
292  2.91  0.  0.  0.
293  2.92  0.  0.  0.
294  2.93  0.  0.  0.
295  2.94  0.  0.  0.
296  2.95  0.  0.  0.
297  2.96  0.  0.  0.
298  2.97  0.  0.  0.
299  2.98  0.  0.  0.
300  2.99  0.  0.  0.
301  3.00  0.  0.  0.
302  3.01  0.  0.  0.
303  3.02  0.  0.  0.
304  3.03  0.  0.  0.
305  3.04  0.  0.  0.
306  3.05  0.  0.  0.
307  3.06  0.  0.  0.
308  3.07  0.  0.  0.
309  3.08  0.  0.  0.
310  3.09  0.  0.  0.
311  3.10  0.  0.  0.
312  3.11  0.  0.  0.
313  3.12  0.  0.  0.
314  3.13  0.  0.  0.
315  3.14  0.  0.  0.
316  3.15  0.  0.  0.
317  3.16  0.  0.  0.
318  3.17  0.  0.  0.
319  3.18  0.  0.  0.
320  3.19  0.  0.  0.
321  3.20  0.  0.  0.
322  3.21  0.  0.  0.
323  3.22  0.  0.  0.
324  3.23  0.  0.  0.
325  3.24  0.  0.  0.
326  3.25  0.  0.  0.
327  3.26  0.  0.  0.
328  3.27  0.  0.  0.
329  3.28  0.  0.  0.
330  3.29  0.  0.  0.
331  3.30  0.  0.  0.
332  3.31  0.  0.  0.
333  3.32  0.  0.  0.
334  3.33  0.  0.  0.
335  3.34  0.  0.  0.
336  3.35  0.  0.  0.
337  3.36  0.  0.  0.
338  3.37  0.  0.  0.
339  3.38  0.  0.  0.
340  3.39  0.  0.  0.
341  3.40  0.  0.  0.
342  3.41  0.  0.  0.
343  3.42  0.  0.  0.
344  3.43  0.  0.  0.
345  3.44  0.  0.  0.
346  3.45  0.  0.  0.
347  3.46  0.  0.  0.
348  3.47  0.  0.  0.
349  3.48  0.  0.  0.
350  3.49  0.  0.  0.
351  3.50  0.  0.  0.
352  3.51  0.  0.  0.
353  3.52  0.  0.  0.
354  3.53  0.  0.  0.
355  3.54  0.  0.  0.
356  3.55  0.  0.  0.
357  3.56  0.  0.  0.
358  3.57  0.  0.  0.
359  3.58  0.  0.  0.
360  3.59  0.  0.  0.
361  3.60  0.  0.  0.
362  3.61  0.  0.  0.
363  3.62  0.  0.  0.
364  3.63  0.  0.  0.
365  3.64  0.  0.  0.
366  3.65  0.  0.  0.
367  3.66  0.  0.  0.
368  3.67  0.  0.  0.
369  3.68  0.  0.  0.
370  3.69  0.  0.  0.
371  3.70  0.  0.  0.
372  3.71  0.  0.  0.
373  3.72  0.  0.  0.
374  3.73  0.  0.  0.
375  3.74  0.  0.  0.
376  3.75  0.  0.  0.
377  3.76  0.  0.  0.
378  3.77  0.  0.  0.
379  3.78  0.  0.  0.
380  3.79  0.  0.  0.
381  3.80  0.  0.  0.
382  3.81  0.  0.  0.
383  3.82  0.  0.  0.
384  3.83  0.  0.  0.
385  3.84  0.  0.  0.
386  3.85  0.  0.  0.
387  3.86  0.  0.  0.
388  3.87  0.  0.  0.
389  3.88  0.  0.  0.
390  3.89  0.  0.  0.
391  3.90  0.  0.  0.
392  3.91  0.  0.  0.
393  3.92  0.  0.  0.
394  3.93  0.  0.  0.
395  3.94  0.  0.  0.
396  3.95  0.  0.  0.
397  3.96  0.  0.  0.
398  3.97  0.  0.  0.
399  3.98  0.  0.  0.
400  3.99  0.  0.  0.
401  4.00  0.  0.  0.
402  4.01  0.  0.  0.
403  4.02  0.  0.  0.
404  4.03  0.  0.  0.
405  4.04  0.  0.  0.
406  4.05  0.  0.  0.
407  4.06  0.  0.  0.
408  4.07  0.  0.  0.
409  4.08  0.  0.  0.
410  4.09  0.  0.  0.
411  4.10  0.  0.  0.
412  4.11  0.  0.  0.
413  4.12  0.  0.  0.
414  4.13  0.  0.  0.
415  4.14  0.  0.  0.
416  4.15  0.  0.  0.
417  4.16  0.  0.  0.
418  4.17  0.  0.  0.
419  4.18  0.  0.  0.
420  4.19  0.  0.  0.
421  4.20  0.  0.  0.
422  4.21  0.  0.  0.
423  4.22  0.  0.  0.
424  4.23  0.  0.  0.
425  4.24  0.  0.  0.
426  4.25  0.  0.  0.
427  4.26  0.  0.  0.
428  4.27  0.  0.  0.
429  4.28  0.  0.  0.
430  4.29  0.  0.  0.
431  4.30  0.  0.  0.
432  4.31  0.  0.  0.
433  4.32  0.  0.  0.
434  4.33  0.  0.  0.
435  4.34  0.  0.  0.
436  4.35  0.  0.  0.
437  4.36  0.  0.  0.
438  4.37  0.  0.  0.
439  4.38  0.  0.  0.
440  4.39  0.  0.  0.
441  4.40  0.  0.  0.
442  4.41  0.  0.  0.
443  4.42  0.  0.  0.
444  4.43  0.  0.  0.
445  4.44  0.  0.  0.
446  4.45  0.  0.  0.
447  4.46  0.  0.  0.
448  4.47  0.  0.  0.
449  4.48  0.  0.  0.
450  4.49  0.  0.  0.
451  4.50  0.  0.  0.
452  4.51  0.  0.  0.
453  4.52  0.  0.  0.
454  4.53  0.  0.  0.
455  4.54  0.  0.  0.
456  4.55  0.  0.  0.
457  4.56  0.  0.  0.
458  4.57  0.  0.  0.
459  4.58  0.  0.  0.
460  4.59  0.  0.  0.
461  4.60  0.  0.  0.
462  4.61  0.  0.  0.
463  4.62  0.  0.  0.
464  4.63  0.  0.  0.
465  4.64  0.  0.  0.
466  4.65  0.  0.  0.
467  4.66  0.  0.  0.
468  4.67  0.  0.  0.
469  4.68  0.  0.  0.
470  4.69  0.  0.  0.
471  4.70  0.  0.  0.
472  4.71  0.  0.  0.
473  4.72  0.  0.  0.
474  4.73  0.  0.  0.
475  4.74  0.  0.  0.
476  4.75  0.  0.  0.
477  4.76  0.  0.  0.
478  4.77  0.  0.  0.
479  4.78  0.  0.  0.
480  4.79  0.  0.  0.
481  4.80  0.  0.  0.
482  4.81  0.  0.  0.
483  4.82  0.  0.  0.
484  4.83  0.  0.  0.
485  4.84  0.  0.  0.
486  4.85  0.  0.  0.
487  4.86  0.  0.  0.
488  4.87  0.  0.  0.
489  4.88  0.  0.  0.
490  4.89  0.  0.  0.
491  4.90  0.  0.  0.
492  4.91  0.  0.  0.
493  4.92  0.  0.  0.
494  4.93  0.  0.  0.
495  4.94  0.  0.  0.
496  4.95  0.  0.  0.
497  4.96  0.  0.  0.
498  4.97  0.  0.  0.
499  4.98  0.  0.  0.
500  4.99  0.  0.  0.
501  5.00  0.  0.  0.
502  5.01  0.  0.  0.
503  5.02  0.  0.  0.
504  5.03  0.  0.  0.
505  5.04  0.  0.  0.
506  5.05  0.  0.  0.
507  5.06  0.  0.  0.
508  5.07  0.  0.  0.
509  5.08  0.  0.  0.
510  5.09  0.  0.  0.
511  5.10  0.  0.  0.
512  5.11  0.  0.  0.
513  5.12  0.  0.  0.
514  5.13  0.  0.  0.
515  5.14  0.  0.  0.
516  5.15  0.  0.  0.
517  5.16  0.  0.  0.
518  5.17  0.  0.  0.
519  5.18  0.  0.  0.
520  5.19  0.  0.  0.
521  5.20  0.  0.  0.
522  5.21  0.  0.  0.
523  5.22  0.  0.  0.
524  5.23  0.  0.  0.
525  5.24  0.  0.  0.
526  5.25  0.  0.  0.
527  5.26  0.  0.  0.
528  5.27  0.  0.  0.
529  5.28  0.  0.  0.
530  5.29  0.  0.  0.
531  5.30  0.  0.  0.
532  5.31  0.  0.  0.
533  5.32  0.  0.  0.
534  5.33  0.  0.  0.
535  5.34  0.  0.  0.
536  5.35  0.  0.  0.
537  5.36  0.  0.  0.
538  5.37  0.  0.  0.
539  5.38  0.  0.  0.
540  5.39  0.  0.  0.
541  5.40  0.  0.  0.
542  5.41  0.  0.  0.
543  5.42  0.  0.  0.
544  5.43  0.  0.  0.
545  5.44  0.  0.  0.
546  5.45  0.  0.  0.
547  5.46  0.  0.  0.
548  5.47  0.  0.  0.
549  5.48  0.  0.  0.
550  5.49  0.  0.  0.
551  5.50  0.  0.  0.
552  5.51  0.  0.  0.
553  5.52  0.  0.  0.
554  5.53  0.  0.  0.
555  5.54  0.  0.  0.
556  5.55  0.  0.  0.
557  5.56  0.  0.  0.
558  5.57  0.  0.  0.
559  5.58  0.  0.  0.
560  5.59  0.  0.  0.
561  5.60  0.  0.  0.
562  5.61  0.  0.  0.
563  5.62  0.  0.  0.
564  5.63  0.  0.  0.
565  5.64  0.  0.  0.
566  5.65  0.  0.  0.
567  5.66  0.  0.  0.
568  5.67  0.  0.  0.
569  5.68  0.  0.  0.
570  5.69  0.  0.  0.
571  5.70  0.  0.  0.
572  5.71  0.  0.  0.
573  5.72  0.  0.  0.
574  5.73  0.  0.  0.
575  5.74  0.  0.  0.
576  5.75  0.  0.  0.
577  5.76  0.  0.  0.
578  5.77  0.  0.  0.
579  5.78  0.  0.  0.
580  5.79  0.  0.  0.
581  5.80  0.  0.  0.
582  5.81  0.  0.  0.
583  5.82  0.  0.  0.
584  5.83  0.  0.  0.
585  5.84  0.  0.  0.
586  5.85  0.  0.  0.
587  5.86  0.  0.  0.
588  5.87  0.  0.  0.
589  5.88  0.  0.  0.
590  5.89  0.  0.  0.
591  5.90  0.  0.  0.
592  5.91  0.  0.  0.
593  5.92  0.  0.  0.
594  5.93  0.  0.  0.
595  5.94  0.  0.  0.
596  5.95  0.  0.  0.
597  5.96  0.  0.  0.
598  5.97  0.  0.  0.
599  5.98  0.  0.  0.
600  5.99  0.  0.  0.
1                        -4.1820144627630E+00 -4.9256033009661E-01
1  0.0000000000000E+00  1.2848454244985E-10  3.9846496657781E-09
2  1.0000000000000E-02  1.2214090390236E-03 -1.8998684905739E-03
3  2.0000000000000E-02  4.8812035241630E-03 -7.5908871062046E-03
4  3.0000000000000E-02  1.0966103685765E-02 -1.7047247274799E-02
5  4.0000000000000E-02  1.9454036933023E-02 -3.0225777158115E-02
6  5.0000000000000E-02  3.0314228175079E-02 -4.7065713876586E-02
7  6.0000000000000E-02  4.3507325835819E-02 -6.7488401514377E-02
8  7.0000000000000E-02  5.8985563124937E-02 -9.1396931295701E-02
9  8.0000000000000E-02  7.6692953999387E-02 -1.1867574430806E-01
10  9.0000000000000E-02  9.6565523118292E-02 -1.4919022062839E-01
11  1.0000000000000E-01  1.1853156896072E-01 -1.8278628159416E-01
12  1.1000000000000E-01  1.4251195913931E-01 -2.1929003417946E-01
13  1.2000000000000E-01  1.6842045680334E-01 -2.5850748792096E-01
14  1.3000000000000E-01  1.9616407688352E-01 -3.0022437554596E-01
15  1.4000000000000E-01  2.2564347078636E-01 -3.4420610835378E-01
16  1.5000000000000E-01  2.5675333800173E-01 -3.9019789648398E-01
17  1.6000000000000E-01  2.8938286294071E-01 -4.3792506247055E-01
18  1.7000000000000E-01  3.2341617517640E-01 -4.8709357396195E-01
19  1.8000000000000E-01  3.5873283111655E-01 -5.3739081821867E-01
20  1.9000000000000E-01  3.9520831499706E-01 -5.8848663704249E-01
21  2.0000000000000E-01  4.3271455694971E-01 -6.4003463622224E-01
22  2.1000000000000E-01  4.7112046576876E-01 -6.9167377848229E-01
23  2.2000000000000E-01  5.1029247388018E-01 -7.4303026339759E-01
24  2.3000000000000E-01  5.5009509190655E-01 -7.9371969190094E-01
25  2.4000000000000E-01  5.9039147012219E-01 -8.4334950697470E-01
26  2.5000000000000E-01  6.3104396400783E-01 -8.9152169601529E-01
27  2.6000000000000E-01  6.7191470104507E-01 -9.3783573431109E-01
28  2.7000000000000E-01  7.1286614583900E-01 -9.8189174321436E-01
29  2.8000000000000E-01  7.5376166062406E-01 -1.0232938310388E+00
30  2.9000000000000E-01  7.9446605819620E-01 -1.0616535796010E+00
31  3.0000000000000E-01  8.3484614432305E-01 -1.0965936347577E+00
32  3.1000000000000E-01  8.7477124671595E-01 -1.1277513553848E+00
33  3.2000000000000E-01  9.1411372770264E-01 -1.1547824720745E+00
34  3.3000000000000E-01  9.5274947781885E-01 -1.1773647044987E+00
35  3.4000000000000E-01  9.9055838763990E-01 -1.1952012849360E+00
36  3.5000000000000E-01  1.0274247953006E+00 -1.2080243349573E+00
37  3.6000000000000E-01  1.0632379073024E+00 -1.2155980427231E+00
38  3.7000000000000E-01  1.0978921903788E+00 -1.2177215897831E+00
39  3.8000000000000E-01  1.1312877323864E+00 -1.2142317786753E+00
40  3.9000000000000E-01  1.1633305703996E+00 -1.2050053159668E+00
41  4.0000000000000E-01  1.1939329844243E+00 -1.1899607096167E+00
42  4.1000000000000E-01  1.2230137553881E+00 -1.1690597446098E+00
43  4.2000000000000E-01  1.2504983863316E+00 -1.1423085066227E+00
44  4.3000000000000E-01  1.2763192859943E+00 -1.1097579299495E+00
45  4.4000000000000E-01  1.3004159142708E+00 -1.0715038529149E+00
46  4.5000000000000E-01  1.3227348892989E+00 -1.0276865714234E+00
47  4.6000000000000E-01  1.3432300562280E+00 -9.7848988900096E-01
48  4.7000000000000E-01  1.3618625180028E+00 -9.2413966953410E-01
49  4.8000000000000E-01  1.3786006287800E+00 -8.6490190677221E-01
50  4.9000000000000E-01  1.3934199508702E+00 -8.0108033237629E-01
51  5.0000000000000E-01  1.4063031763586E+00 -7.3301359173329E-01
52  5.1000000000000E-01  1.4172400148109E+00 -6.6107202377143E-01
53  5.2000000000000E-01  1.4262270487020E+00 -5.8565408747655E-01
54  5.3000000000000E-01  1.4332675584198E+00 -5.0718248359557E-01
55  5.4000000000000E-01  1.4383713188881E+00 -4.2610002501847E-01
56  5.5000000000000E-01  1.4415543700224E+00 -3.4286531344572E-01
57  5.6000000000000E-01  1.4428387633738E+00 -2.5794828310453E-01
58  5.7000000000000E-01  1.4422522874342E+00 -1.7182567440099E-01
59  5.8000000000000E-01  1.4398281741631E+00 -8.4976501446703E-02
60  5.9000000000000E-01  1.4356047893566E+00  2.1224226505230E-03
61  6.0000000000000E-01  1.4296253095109E+00  8.9000839995765E-02
62  6.1000000000000E-01  1.4219373878331E+00  1.7519922112359E-01
63  6.2000000000000E-01  1.4125928120289E+00  2.6027270002772E-01
64  6.3000000000000E-01  1.4016471564422E+00  3.4379471810430E-01
65  6.4000000000000E-01  1.3891594310439E+00  4.2536032933369E-01
66  6.5000000000000E-01  1.3751917296653E+00  5.0458912507530E-01
67  6.6000000000000E-01  1.3598088797448E+00  5.8112774363344E-01
68  6.7000000000000E-01  1.3430780957158E+00  6.5465193713060E-01
69  6.8000000000000E-01  1.3250686379978E+00  7.2486817608025E-01
70  6.9000000000000E-01  1.3058514793808E+00  7.9151478022676E-01
71  7.0000000000000E-01  1.2854989804037E+00  8.5436257257989E-01
72  7.1000000000000E-01  1.2640845751312E+00  9.1321506194801E-01
73  7.2000000000000E-01  1.2416824685334E+00  9.6790816752429E-01
74  7.3000000000000E-01  1.2183673464689E+00  1.0183095070445E+00
75  7.4000000000000E-01  1.1942140990689E+00  1.0643172775654E+00
76  7.5000000000000E-01  1.1692975581221E+00  1.1058587648713E+00
77  7.6000000000000E-01  1.1436922488665E+00  1.1428885237700E+00
78  7.7000000000000E-01  1.1174721564139E+00  1.1753862769662E+00
79  7.8000000000000E-01  1.0907105068610E+00  1.2033545847101E+00
80  7.9000000000000E-01  1.0634795629832E+00  1.2268163409019E+00
81  8.0000000000000E-01  1.0358504342688E+00  1.2458121537483E+00
82  8.1000000000000E-01  1.0078929009262E+00  1.2603976703443E+00
83  8.2000000000000E-01  9.7967525139360E-01  1.2706409046801E+00
84  8.3000000000000E-01  9.5126413279343E-01  1.2766196275326E+00
85  8.4000000000000E-01  9.2272441371217E-01  1.2784188745234E+00
86  8.5000000000000E-01  8.9411905863852E-01  1.2761286253349E+00