Ra    ONCVPSP-4.0.1  r_core=   1.60343   1.60343   1.75396
88.0000     28.0000      231012    zatom,zion,pspd
8   -1012   2     4   600     0    pspcod,pspxc,lmax,lloc,mmax,r2well
5.99000000  5.00000000  0.00000000    rchrg fchrg qchrg
3     3     2     0    nproj
3     1           extension_switch
4     4     0    nprojso
0                         9.1767024846383E+00 -3.8286310712895E+00  5.2977569634251E-01
1  0.0000000000000E+00 -1.8460715178747E-09 -5.3668069988078E-11 -6.6261405806678E-09
2  1.0000000000000E-02  1.1804094209648E-01  3.3024502751801E-02  4.9048004516813E-02
3  2.0000000000000E-02  2.3548443586281E-01  6.6034472796396E-02  9.7462033083565E-02
4  3.0000000000000E-02  3.5173706709669E-01  9.9015355683053E-02  1.4461580708396E-01
5  4.0000000000000E-02  4.6621345190212E-01  1.3195255309694E-01  1.8989833432590E-01
6  5.0000000000000E-02  5.7834015744907E-01  1.6483139999858E-01  2.3272128337640E-01
7  6.0000000000000E-02  6.8755951079705E-01  1.9763714068865E-01  2.7252604006019E-01
8  7.0000000000000E-02  7.9333326067586E-01  2.3035490350448E-01  3.0879034811517E-01
9  8.0000000000000E-02  8.9514605896271E-01  2.6296967390869E-01  3.4103444262438E-01
10  9.0000000000000E-02  9.9250873084974E-01  2.9546626579472E-01  3.6882659291263E-01
11  1.0000000000000E-01  1.0849613053229E+00  3.2782929090913E-01  3.9178798096115E-01
12  1.1000000000000E-01  1.1720757805350E+00  3.6004312637260E-01  4.0959685190363E-01
13  1.2000000000000E-01  1.2534586019050E+00  3.9209188037062E-01  4.2199188462903E-01
14  1.3000000000000E-01  1.3287528342638E+00  4.2395935617786E-01  4.2877474274938E-01
15  1.4000000000000E-01  1.3976400130462E+00  4.5562901477485E-01  4.2981177896956E-01
16  1.5000000000000E-01  1.4598416633335E+00  4.8708393641100E-01  4.2503487901834E-01
17  1.6000000000000E-01  1.5151204794394E+00  5.1830678155993E-01  4.1444144453007E-01
18  1.7000000000000E-01  1.5632811616381E+00  5.4927975180161E-01  3.9809352739529E-01
19  1.8000000000000E-01  1.6041709104970E+00  5.7998455124647E-01  3.7611614088919E-01
20  1.9000000000000E-01  1.6376795830616E+00  6.1040234918982E-01  3.4869478514917E-01
21  2.0000000000000E-01  1.6637395187652E+00  6.4051374474634E-01  3.1607223607632E-01
22  2.1000000000000E-01  1.6823250463809E+00  6.7029873426449E-01  2.7854465732499E-01
23  2.2000000000000E-01  1.6934516865318E+00  6.9973668235628E-01  2.3645710451796E-01
24  2.3000000000000E-01  1.6971750671929E+00  7.2880629739900E-01  1.9019849905810E-01
25  2.4000000000000E-01  1.6935895722232E+00  7.5748561237046E-01  1.4019615576226E-01
26  2.5000000000000E-01  1.6828267452197E+00  7.8575197186756E-01  8.6909953911039E-02
27  2.6000000000000E-01  1.6650534728723E+00  8.1358202612991E-01  3.0826245137738E-02
28  2.7000000000000E-01  1.6404699734916E+00  8.4095173284461E-01 -2.7548406202600E-02
29  2.8000000000000E-01  1.6093076174800E+00  8.6783636744635E-01 -8.7693553940190E-02
30  2.9000000000000E-01  1.5718266072084E+00  8.9421054254951E-01 -1.4908117702949E-01
31  3.0000000000000E-01  1.5283135440516E+00  9.2004823705547E-01 -2.1118186985640E-01
32  3.1000000000000E-01  1.4790789102339E+00  9.4532283537238E-01 -2.7347082732187E-01
33  3.2000000000000E-01  1.4244544926561E+00  9.7000717706545E-01 -3.3543354160593E-01
34  3.3000000000000E-01  1.3647907750425E+00  9.9407361712667E-01 -3.9657113430471E-01
35  3.4000000000000E-01  1.3004543235762E+00  1.0174940969153E+00 -4.5640525558233E-01
36  3.5000000000000E-01  1.2318251897306E+00  1.0402402256760E+00 -5.1448249093936E-01
37  3.6000000000000E-01  1.1592943522714E+00  1.0622833723949E+00 -5.7037822598902E-01
38  3.7000000000000E-01  1.0832612184552E+00  1.0835947676018E+00 -6.2369993007321E-01
39  3.8000000000000E-01  1.0041312023078E+00  1.1041456145813E+00 -6.7408983045276E-01
40  3.9000000000000E-01  9.2231339559106E-01  1.1239072093079E+00 -7.2122695996023E-01
41  4.0000000000000E-01  8.3821834469257E-01  1.1428510682825E+00 -7.6482857221750E-01
42  4.1000000000000E-01  7.5225594424639E-01  1.1609490633150E+00 -8.0465092959258E-01
43  4.2000000000000E-01  6.6483345586226E-01  1.1781735621794E+00 -8.4048947980388E-01
44  4.3000000000000E-01  5.7635365794262E-01  1.1944975739571E+00 -8.7217844729381E-01
45  4.4000000000000E-01  4.8721313024793E-01  1.2098948977941E+00 -8.9958987500701E-01
46  4.5000000000000E-01  3.9780067466505E-01  1.2243402737157E+00 -9.2263216086760E-01
47  4.6000000000000E-01  3.0849587157431E-01  1.2378095340888E+00 -9.4124814092556E-01
48  4.7000000000000E-01  2.1966776933840E-01  1.2502797542754E+00 -9.5541277766955E-01
49  4.8000000000000E-01  1.3167370276135E-01  1.2617294010025E+00 -9.6513051734983E-01
50  4.9000000000000E-01  4.4858234924753E-02  1.2721384769727E+00 -9.7043238418116E-01
51  5.0000000000000E-01 -4.0447784390449E-02  1.2814886602558E+00 -9.7137288198405E-01
52  5.1000000000000E-01 -1.2392805143264E-01  1.2897634370452E+00 -9.6802677514222E-01
53  5.2000000000000E-01 -2.0528154077595E-01  1.2969482264161E+00 -9.6048582069198E-01
54  5.3000000000000E-01 -2.8422314602334E-01  1.3030304958056E+00 -9.4885552195620E-01
55  5.4000000000000E-01 -3.6048423791618E-01  1.3079998660244E+00 -9.3325197141537E-01
56  5.5000000000000E-01 -4.3381314876684E-01  1.3118482047254E+00 -9.1379884656957E-01
57  5.6000000000000E-01 -5.0397559181178E-01  1.3145697073777E+00 -8.9062461745887E-01
58  5.7000000000000E-01 -5.7075502354908E-01  1.3161609649340E+00 -8.6386001839430E-01
59  5.8000000000000E-01 -6.3395295639863E-01  1.3166210175288E+00 -8.3363582944036E-01
60  5.9000000000000E-01 -6.9338922813073E-01  1.3159513937007E+00 -8.0008100542359E-01
61  6.0000000000000E-01 -7.4890223347716E-01  1.3141561347982E+00 -7.6332118186779E-01
62  6.1000000000000E-01 -8.0034912220151E-01  1.3112418043923E+00 -7.2347757846195E-01
63  6.2000000000000E-01 -8.4760596669101E-01  1.3072174826895E+00 -6.8066631159490E-01
64  6.3000000000000E-01 -8.9056790087628E-01  1.3020947461023E+00 -6.3499811833515E-01
65  6.4000000000000E-01 -9.2914923102093E-01  1.2958876323003E+00 -5.8657848516384E-01
66  6.5000000000000E-01 -9.6328351768054E-01  1.2886125912161E+00 -5.3550816594086E-01
67  6.6000000000000E-01 -9.9292362694670E-01  1.2802884226325E+00 -4.8188406518906E-01
68  6.7000000000000E-01 -1.0180417479891E+00  1.2709362011086E+00 -4.2580045493511E-01
69  6.8000000000000E-01 -1.0386293729240E+00  1.2605791891303E+00 -3.6735048623224E-01
70  6.9000000000000E-01 -1.0546972341853E+00  1.2492427394778E+00 -3.0662795019591E-01
71  7.0000000000000E-01 -1.0662751938875E+00  1.2369541878961E+00 -2.4372923805435E-01
72  7.1000000000000E-01 -1.0734120791565E+00  1.2237427372322E+00 -1.7875544541923E-01
73  7.2000000000000E-01 -1.0761754570834E+00  1.2096393342601E+00 -1.1181456280131E-01
74  7.3000000000000E-01 -1.0746513428396E+00  1.1946765404555E+00 -4.3023692383874E-02
75  7.4000000000000E-01 -1.0689438345780E+00  1.1788883980030E+00  2.7488769754293E-02
76  7.5000000000000E-01 -1.0591746690439E+00  1.1623102923224E+00  9.9581046392391E-02
77  7.6000000000000E-01 -1.0454826923187E+00  1.1449788123840E+00  1.7309604574678E-01
78  7.7000000000000E-01 -1.0280232408221E+00  1.1269316100503E+00  2.4785963800538E-01
79  7.8000000000000E-01 -1.0069674285787E+00  1.1082072596315E+00  3.2367919412316E-01
80  7.9000000000000E-01 -9.8250133781670E-01  1.0888451187765E+00  4.0034243434304E-01
81  8.0000000000000E-01 -9.5482511116635E-01  1.0688851917412E+00  4.7761662813961E-01
82  8.1000000000000E-01 -9.2415194506497E-01  1.0483679959842E+00  5.5524818069879E-01
83  8.2000000000000E-01 -8.9070698541328E-01  1.0273344329370E+00  6.3296263376897E-01
84  8.3000000000000E-01 -8.5472612804198E-01  1.0058256636841E+00  7.1046510088858E-01
85  8.4000000000000E-01 -8.1645472811077E-01  9.8388299016986E-01  7.8744114875004E-01
86  8.5000000000000E-01 -7.7614622414098E-01  9.6154774242775E-01  8.6355812795878E-01
87  8.6000000000000E-01 -7.3406068394789E-01  9.3886117220072E-01  9.3846694784121E-01
88  8.7000000000000E-01 -6.9046328125955E-01  9.1586435319867E-01  1.0118042814040E+00
89  8.8000000000000E-01 -6.4562271325334E-01  8.9259808811485E-01  1.0831951782070E+00
90  8.9000000000000E-01 -5.9980957058168E-01  8.6910282240566E-01  1.1522560549324E+00
91  9.0000000000000E-01 -5.5329467266494E-01  8.4541856472566E-01  1.2185980259608E+00
92  9.1000000000000E-01 -5.0634738208008E-01  8.2158481380637E-01  1.2818305294301E+00
93  9.2000000000000E-01 -4.5923391273985E-01  7.9764049147293E-01  1.3415651981867E+00
94  9.3000000000000E-01 -4.1221564722512E-01  7.7362388141077E-01  1.3974199198459E+00
95  9.4000000000000E-01 -3.6554747908173E-01  7.4957257322405E-01  1.4490230259487E+00
96  9.5000000000000E-01 -3.1947619611097E-01  7.2552341127202E-01  1.4960175470270E+00
97  9.6000000000000E-01 -2.7423892066267E-01  7.0151244772728E-01  1.5380654683048E+00
98  9.7000000000000E-01 -2.3006162267392E-01  6.7757489927385E-01  1.5748519198323E+00
99  9.8000000000000E-01 -1.8715772068731E-01  6.5374510685119E-01  1.6060892350690E+00
100  9.9000000000000E-01 -1.4572678533073E-01  6.3005649785423E-01  1.6315208133199E+00
101  1.0000000000000E+00 -1.0595335876074E-01  6.0654155021820E-01  1.6509247239368E+00
102  1.0100000000000E+00 -6.8005902364262E-02  5.8323175784980E-01  1.6641169938191E+00
103  1.0200000000000E+00 -3.2035883609719E-02  5.6015759691268E-01  1.6709545243829E+00
104  1.0300000000000E+00  1.8229886539404E-03  5.3734849253348E-01  1.6713375897616E+00
105  1.0400000000000E+00  3.3455372902276E-02  5.1483278556441E-01  1.6652118744473E+00
106  1.0500000000000E+00  6.2764741982633E-02  4.9263769911683E-01  1.6525700157753E+00
107  1.0600000000000E+00  8.9673664827888E-02  4.7078930466680E-01  1.6334526244375E+00
108  1.0700000000000E+00  1.1412392122698E-01  4.4931248762564E-01  1.6079487645085E+00
109  1.0800000000000E+00  1.3607645014004E-01  4.2823091236439E-01  1.5761958830482E+00
110  1.0900000000000E+00  1.5551113415381E-01  4.0756698677820E-01  1.5383791881313E+00
111  1.1000000000000E+00  1.7242642475037E-01  3.8734182657395E-01  1.4947304829422E+00
112  1.1100000000000E+00  1.8683881506771E-01  3.6757521955798E-01  1.4455264721915E+00
113  1.1200000000000E+00  1.9878216874835E-01  3.4828559029052E-01  1.3910865654723E+00
114  1.1300000000000E+00  2.0830691523668E-01  3.2948996555521E-01  1.3317702099805E+00
115  1.1400000000000E+00  2.1547912350573E-01  3.1120394116561E-01  1.2679737923168E+00
116  1.1500000000000E+00  2.2037946759433E-01  2.9344165069279E-01  1.2001271555038E+00
117  1.1600000000000E+00  2.2310209852978E-01  2.7621573674761E-01  1.1286897829655E+00
118  1.1700000000000E+00  2.2375343814043E-01  2.5953732548692E-01  1.0541467057311E+00
119  1.1800000000000E+00  2.2245091093185E-01  2.4341600503270E-01  9.7700419257475E-01
120  1.1900000000000E+00  2.1932163057157E-01  2.2785980849620E-01  8.9778528498321E-01
121  1.2000000000000E+00  2.1450105760133E-01  2.1287520228492E-01  8.1702523977219E-01
122  1.2100000000000E+00  2.0813164475446E-01  1.9846708033755E-01  7.3526694173108E-01
123  1.2200000000000E+00  2.0036148569989E-01  1.8463876488128E-01  6.5305634687722E-01
124  1.2300000000000E+00  1.9134298215586E-01  1.7139201423568E-01  5.7093801368927E-01
125  1.2400000000000E+00  1.8123154313375E-01  1.5872703810068E-01  4.8945077513588E-01
126  1.2500000000000E+00  1.7018432857497E-01  1.4664252065976E-01  4.0912359836744E-01
127  1.2600000000000E+00  1.5835904786112E-01  1.3513565170773E-01  3.3047167171623E-01
128  1.2700000000000E+00  1.4591282162903E-01  1.2420216587497E-01  2.5399275022617E-01
129  1.2800000000000E+00  1.3300111300699E-01  1.1383638986726E-01  1.8016378130938E-01
130  1.2900000000000E+00  1.1977673186060E-01  1.0403129747587E-01  1.0943782152372E-01
131  1.3000000000000E+00  1.0638891292020E-01  9.4778571937798E-02  4.2241243993650E-02
132  1.3100000000000E+00  9.2982465761309E-02  8.6068675041220E-02 -2.1028776330189E-02
133  1.3200000000000E+00  7.9696991600692E-02  7.7890922181107E-02 -8.0006525223501E-02
134  1.3300000000000E+00  6.6666158776374E-02  7.0233562376473E-02 -1.3435979847620E-01
135  1.3400000000000E+00  5.4017025615831E-02  6.3083862064107E-02 -1.8379179045619E-01
136  1.3500000000000E+00  4.1869396243937E-02  5.6428191289841E-02 -2.2804288810244E-01
137  1.3600000000000E+00  3.0335191750031E-02  5.0252110727526E-02 -2.6689245006023E-01
138  1.3700000000000E+00  1.9517816093311E-02  4.4540457772605E-02 -3.0016066386052E-01
139  1.3800000000000E+00  9.5114931709719E-03  3.9277429781275E-02 -3.2771058688597E-01
140  1.3900000000000E+00  4.0054870534301E-04  3.4446662363814E-02 -3.4945048891218E-01
141  1.4000000000000E+00 -7.7413919883320E-03  3.0031300491200E-02 -3.6533662530981E-01
142  1.4100000000000E+00 -1.4852321645186E-02  2.6014060041719E-02 -3.7537658024141E-01
143  1.4200000000000E+00 -2.0882917496553E-02  2.2377277299806E-02 -3.7963332832364E-01
144  1.4300000000000E+00 -2.5797791711128E-02  1.9102943825552E-02 -3.7823017104804E-01
145  1.4400000000000E+00 -2.9576962504289E-02  1.6172724041624E-02 -3.7135671065369E-01
146  1.4500000000000E+00 -3.2217583730234E-02  1.3567952835738E-02 -3.5927602904614E-01
147  1.4600000000000E+00 -3.3735971549217E-02  1.1269610452911E-02 -3.4233324263352E-01
148  1.4700000000000E+00 -3.4169967168894E-02  9.2582719526934E-03 -3.2096560557847E-01
149  1.4800000000000E+00 -3.3581676998033E-02  7.5140283849580E-03 -2.9571434665249E-01
150  1.4900000000000E+00 -3.2060624945182E-02  6.0163772890038E-03 -2.6723838762813E-01
151  1.5000000000000E+00 -2.9727277857514E-02  4.7440853511745E-03 -2.3632970508697E-01
152  1.5100000000000E+00 -2.6736547774722E-02  3.6750446972968E-03 -2.0392798645827E-01
153  1.5200000000000E+00 -2.3266270169827E-02  2.7871006863515E-03 -1.7105289189789E-01
154  1.5300000000000E+00 -1.9508131633452E-02  2.0580455730825E-03 -1.3873587754252E-01
155  1.5400000000000E+00 -1.5664006304239E-02  1.4656167724345E-03 -1.0800100440623E-01
156  1.5500000000000E+00 -1.1898099788643E-02  9.9401256626694E-04 -7.9683987977670E-02
157  1.5600000000000E+00 -8.3763551889261E-03  6.2899607270822E-04 -5.4576765656833E-02
158  1.5700000000000E+00 -5.2660435378371E-03  3.5780652893039E-04 -3.3425888127637E-02
159  1.5800000000000E+00 -2.7354612272675E-03  1.6930021658667E-04 -1.6933976821332E-02
160  1.5900000000000E+00 -9.3913251458903E-04  5.3377093591055E-05 -5.6775759941066E-03
161  1.6000000000000E+00 -8.9617663336631E-05  4.6818320413616E-06 -5.2833587715023E-04
162  1.6100000000000E+00  1.7092100040576E-05 -8.4904178548420E-07  9.9629662413672E-05
163  1.6200000000000E+00 -5.3203559566174E-06  2.7506373373740E-07 -3.1364639524772E-05
164  1.63  0.  0.  0.
165  1.64  0.  0.  0.
166  1.65  0.  0.  0.
167  1.66  0.  0.  0.
168  1.67  0.  0.  0.
169  1.68  0.  0.  0.
170  1.69  0.  0.  0.
171  1.70  0.  0.  0.
172  1.71  0.  0.  0.
173  1.72  0.  0.  0.
174  1.73  0.  0.  0.
175  1.74  0.  0.  0.
176  1.75  0.  0.  0.
177  1.76  0.  0.  0.
178  1.77  0.  0.  0.
179  1.78  0.  0.  0.
180  1.79  0.  0.  0.
181  1.80  0.  0.  0.
182  1.81  0.  0.  0.
183  1.82  0.  0.  0.
184  1.83  0.  0.  0.
185  1.84  0.  0.  0.
186  1.85  0.  0.  0.
187  1.86  0.  0.  0.
188  1.87  0.  0.  0.
189  1.88  0.  0.  0.
190  1.89  0.  0.  0.
191  1.90  0.  0.  0.
192  1.91  0.  0.  0.
193  1.92  0.  0.  0.
194  1.93  0.  0.  0.
195  1.94  0.  0.  0.
196  1.95  0.  0.  0.
197  1.96  0.  0.  0.
198  1.97  0.  0.  0.
199  1.98  0.  0.  0.
200  1.99  0.  0.  0.
201  2.00  0.  0.  0.
202  2.01  0.  0.  0.
203  2.02  0.  0.  0.
204  2.03  0.  0.  0.
205  2.04  0.  0.  0.
206  2.05  0.  0.  0.
207  2.06  0.  0.  0.
208  2.07  0.  0.  0.
209  2.08  0.  0.  0.
210  2.09  0.  0.  0.
211  2.10  0.  0.  0.
212  2.11  0.  0.  0.
213  2.12  0.  0.  0.
214  2.13  0.  0.  0.
215  2.14  0.  0.  0.
216  2.15  0.  0.  0.
217  2.16  0.  0.  0.
218  2.17  0.  0.  0.
219  2.18  0.  0.  0.
220  2.19  0.  0.  0.
221  2.20  0.  0.  0.
222  2.21  0.  0.  0.
223  2.22  0.  0.  0.
224  2.23  0.  0.  0.
225  2.24  0.  0.  0.
226  2.25  0.  0.  0.
227  2.26  0.  0.  0.
228  2.27  0.  0.  0.
229  2.28  0.  0.  0.
230  2.29  0.  0.  0.
231  2.30  0.  0.  0.
232  2.31  0.  0.  0.
233  2.32  0.  0.  0.
234  2.33  0.  0.  0.
235  2.34  0.  0.  0.
236  2.35  0.  0.  0.
237  2.36  0.  0.  0.
238  2.37  0.  0.  0.
239  2.38  0.  0.  0.
240  2.39  0.  0.  0.
241  2.40  0.  0.  0.
242  2.41  0.  0.  0.
243  2.42  0.  0.  0.
244  2.43  0.  0.  0.
245  2.44  0.  0.  0.
246  2.45  0.  0.  0.
247  2.46  0.  0.  0.
248  2.47  0.  0.  0.
249  2.48  0.  0.  0.
250  2.49  0.  0.  0.
251  2.50  0.  0.  0.
252  2.51  0.  0.  0.
253  2.52  0.  0.  0.
254  2.53  0.  0.  0.
255  2.54  0.  0.  0.
256  2.55  0.  0.  0.
257  2.56  0.  0.  0.
258  2.57  0.  0.  0.
259  2.58  0.  0.  0.
260  2.59  0.  0.  0.
261  2.60  0.  0.  0.
262  2.61  0.  0.  0.
263  2.62  0.  0.  0.
264  2.63  0.  0.  0.
265  2.64  0.  0.  0.
266  2.65  0.  0.  0.
267  2.66  0.  0.  0.
268  2.67  0.  0.  0.
269  2.68  0.  0.  0.
270  2.69  0.  0.  0.
271  2.70  0.  0.  0.
272  2.71  0.  0.  0.
273  2.72  0.  0.  0.
274  2.73  0.  0.  0.
275  2.74  0.  0.  0.
276  2.75  0.  0.  0.
277  2.76  0.  0.  0.
278  2.77  0.  0.  0.
279  2.78  0.  0.  0.
280  2.79  0.  0.  0.
281  2.80  0.  0.  0.
282  2.81  0.  0.  0.
283  2.82  0.  0.  0.
284  2.83  0.  0.  0.
285  2.84  0.  0.  0.
286  2.85  0.  0.  0.
287  2.86  0.  0.  0.
288  2.87  0.  0.  0.
289  2.88  0.  0.  0.
290  2.89  0.  0.  0.
291  2.90  0.  0.  0.
292  2.91  0.  0.  0.
293  2.92  0.  0.  0.
294  2.93  0.  0.  0.
295  2.94  0.  0.  0.
296  2.95  0.  0.  0.
297  2.96  0.  0.  0.
298  2.97  0.  0.  0.
299  2.98  0.  0.  0.
300  2.99  0.  0.  0.
301  3.00  0.  0.  0.
302  3.01  0.  0.  0.
303  3.02  0.  0.  0.
304  3.03  0.  0.  0.
305  3.04  0.  0.  0.
306  3.05  0.  0.  0.
307  3.06  0.  0.  0.
308  3.07  0.  0.  0.
309  3.08  0.  0.  0.
310  3.09  0.  0.  0.
311  3.10  0.  0.  0.
312  3.11  0.  0.  0.
313  3.12  0.  0.  0.
314  3.13  0.  0.  0.
315  3.14  0.  0.  0.
316  3.15  0.  0.  0.
317  3.16  0.  0.  0.
318  3.17  0.  0.  0.
319  3.18  0.  0.  0.
320  3.19  0.  0.  0.
321  3.20  0.  0.  0.
322  3.21  0.  0.  0.
323  3.22  0.  0.  0.
324  3.23  0.  0.  0.
325  3.24  0.  0.  0.
326  3.25  0.  0.  0.
327  3.26  0.  0.  0.
328  3.27  0.  0.  0.
329  3.28  0.  0.  0.
330  3.29  0.  0.  0.
331  3.30  0.  0.  0.
332  3.31  0.  0.  0.
333  3.32  0.  0.  0.
334  3.33  0.  0.  0.
335  3.34  0.  0.  0.
336  3.35  0.  0.  0.
337  3.36  0.  0.  0.
338  3.37  0.  0.  0.
339  3.38  0.  0.  0.
340  3.39  0.  0.  0.
341  3.40  0.  0.  0.
342  3.41  0.  0.  0.
343  3.42  0.  0.  0.
344  3.43  0.  0.  0.
345  3.44  0.  0.  0.
346  3.45  0.  0.  0.
347  3.46  0.  0.  0.
348  3.47  0.  0.  0.
349  3.48  0.  0.  0.
350  3.49  0.  0.  0.
351  3.50  0.  0.  0.
352  3.51  0.  0.  0.
353  3.52  0.  0.  0.
354  3.53  0.  0.  0.
355  3.54  0.  0.  0.
356  3.55  0.  0.  0.
357  3.56  0.  0.  0.
358  3.57  0.  0.  0.
359  3.58  0.  0.  0.
360  3.59  0.  0.  0.
361  3.60  0.  0.  0.
362  3.61  0.  0.  0.
363  3.62  0.  0.  0.
364  3.63  0.  0.  0.
365  3.64  0.  0.  0.
366  3.65  0.  0.  0.
367  3.66  0.  0.  0.
368  3.67  0.  0.  0.
369  3.68  0.  0.  0.
370  3.69  0.  0.  0.
371  3.70  0.  0.  0.
372  3.71  0.  0.  0.
373  3.72  0.  0.  0.
374  3.73  0.  0.  0.
375  3.74  0.  0.  0.
376  3.75  0.  0.  0.
377  3.76  0.  0.  0.
378  3.77  0.  0.  0.
379  3.78  0.  0.  0.
380  3.79  0.  0.  0.
381  3.80  0.  0.  0.
382  3.81  0.  0.  0.
383  3.82  0.  0.  0.
384  3.83  0.  0.  0.
385  3.84  0.  0.  0.
386  3.85  0.  0.  0.
387  3.86  0.  0.  0.
388  3.87  0.  0.  0.
389  3.88  0.  0.  0.
390  3.89  0.  0.  0.
391  3.90  0.  0.  0.
392  3.91  0.  0.  0.
393  3.92  0.  0.  0.
394  3.93  0.  0.  0.
395  3.94  0.  0.  0.
396  3.95  0.  0.  0.
397  3.96  0.  0.  0.
398  3.97  0.  0.  0.
399  3.98  0.  0.  0.
400  3.99  0.  0.  0.
401  4.00  0.  0.  0.
402  4.01  0.  0.  0.
403  4.02  0.  0.  0.
404  4.03  0.  0.  0.
405  4.04  0.  0.  0.
406  4.05  0.  0.  0.
407  4.06  0.  0.  0.
408  4.07  0.  0.  0.
409  4.08  0.  0.  0.
410  4.09  0.  0.  0.
411  4.10  0.  0.  0.
412  4.11  0.  0.  0.
413  4.12  0.  0.  0.
414  4.13  0.  0.  0.
415  4.14  0.  0.  0.
416  4.15  0.  0.  0.
417  4.16  0.  0.  0.
418  4.17  0.  0.  0.
419  4.18  0.  0.  0.
420  4.19  0.  0.  0.
421  4.20  0.  0.  0.
422  4.21  0.  0.  0.
423  4.22  0.  0.  0.
424  4.23  0.  0.  0.
425  4.24  0.  0.  0.
426  4.25  0.  0.  0.
427  4.26  0.  0.  0.
428  4.27  0.  0.  0.
429  4.28  0.  0.  0.
430  4.29  0.  0.  0.
431  4.30  0.  0.  0.
432  4.31  0.  0.  0.
433  4.32  0.  0.  0.
434  4.33  0.  0.  0.
435  4.34  0.  0.  0.
436  4.35  0.  0.  0.
437  4.36  0.  0.  0.
438  4.37  0.  0.  0.
439  4.38  0.  0.  0.
440  4.39  0.  0.  0.
441  4.40  0.  0.  0.
442  4.41  0.  0.  0.
443  4.42  0.  0.  0.
444  4.43  0.  0.  0.
445  4.44  0.  0.  0.
446  4.45  0.  0.  0.
447  4.46  0.  0.  0.
448  4.47  0.  0.  0.
449  4.48  0.  0.  0.
450  4.49  0.  0.  0.
451  4.50  0.  0.  0.
452  4.51  0.  0.  0.
453  4.52  0.  0.  0.
454  4.53  0.  0.  0.
455  4.54  0.  0.  0.
456  4.55  0.  0.  0.
457  4.56  0.  0.  0.
458  4.57  0.  0.  0.
459  4.58  0.  0.  0.
460  4.59  0.  0.  0.
461  4.60  0.  0.  0.
462  4.61  0.  0.  0.
463  4.62  0.  0.  0.
464  4.63  0.  0.  0.
465  4.64  0.  0.  0.
466  4.65  0.  0.  0.
467  4.66  0.  0.  0.
468  4.67  0.  0.  0.
469  4.68  0.  0.  0.
470  4.69  0.  0.  0.
471  4.70  0.  0.  0.
472  4.71  0.  0.  0.
473  4.72  0.  0.  0.
474  4.73  0.  0.  0.
475  4.74  0.  0.  0.
476  4.75  0.  0.  0.
477  4.76  0.  0.  0.
478  4.77  0.  0.  0.
479  4.78  0.  0.  0.
480  4.79  0.  0.  0.
481  4.80  0.  0.  0.
482  4.81  0.  0.  0.
483  4.82  0.  0.  0.
484  4.83  0.  0.  0.
485  4.84  0.  0.  0.
486  4.85  0.  0.  0.
487  4.86  0.  0.  0.
488  4.87  0.  0.  0.
489  4.88  0.  0.  0.
490  4.89  0.  0.  0.
491  4.90  0.  0.  0.
492  4.91  0.  0.  0.
493  4.92  0.  0.  0.
494  4.93  0.  0.  0.
495  4.94  0.  0.  0.
496  4.95  0.  0.  0.
497  4.96  0.  0.  0.
498  4.97  0.  0.  0.
499  4.98  0.  0.  0.
500  4.99  0.  0.  0.
501  5.00  0.  0.  0.
502  5.01  0.  0.  0.
503  5.02  0.  0.  0.
504  5.03  0.  0.  0.
505  5.04  0.  0.  0.
506  5.05  0.  0.  0.
507  5.06  0.  0.  0.
508  5.07  0.  0.  0.
509  5.08  0.  0.  0.
510  5.09  0.  0.  0.
511  5.10  0.  0.  0.
512  5.11  0.  0.  0.
513  5.12  0.  0.  0.
514  5.13  0.  0.  0.
515  5.14  0.  0.  0.
516  5.15  0.  0.  0.
517  5.16  0.  0.  0.
518  5.17  0.  0.  0.
519  5.18  0.  0.  0.
520  5.19  0.  0.  0.
521  5.20  0.  0.  0.
522  5.21  0.  0.  0.
523  5.22  0.  0.  0.
524  5.23  0.  0.  0.
525  5.24  0.  0.  0.
526  5.25  0.  0.  0.
527  5.26  0.  0.  0.
528  5.27  0.  0.  0.
529  5.28  0.  0.  0.
530  5.29  0.  0.  0.
531  5.30  0.  0.  0.
532  5.31  0.  0.  0.
533  5.32  0.  0.  0.
534  5.33  0.  0.  0.
535  5.34  0.  0.  0.
536  5.35  0.  0.  0.
537  5.36  0.  0.  0.
538  5.37  0.  0.  0.
539  5.38  0.  0.  0.
540  5.39  0.  0.  0.
541  5.40  0.  0.  0.
542  5.41  0.  0.  0.
543  5.42  0.  0.  0.
544  5.43  0.  0.  0.
545  5.44  0.  0.  0.
546  5.45  0.  0.  0.
547  5.46  0.  0.  0.
548  5.47  0.  0.  0.
549  5.48  0.  0.  0.
550  5.49  0.  0.  0.
551  5.50  0.  0.  0.
552  5.51  0.  0.  0.
553  5.52  0.  0.  0.
554  5.53  0.  0.  0.
555  5.54  0.  0.  0.
556  5.55  0.  0.  0.
557  5.56  0.  0.  0.
558  5.57  0.  0.  0.
559  5.58  0.  0.  0.
560  5.59  0.  0.  0.
561  5.60  0.  0.  0.
562  5.61  0.  0.  0.
563  5.62  0.  0.  0.
564  5.63  0.  0.  0.
565  5.64  0.  0.  0.
566  5.65  0.  0.  0.
567  5.66  0.  0.  0.
568  5.67  0.  0.  0.
569  5.68  0.  0.  0.
570  5.69  0.  0.  0.
571  5.70  0.  0.  0.
572  5.71  0.  0.  0.
573  5.72  0.  0.  0.
574  5.73  0.  0.  0.
575  5.74  0.  0.  0.
576  5.75  0.  0.  0.
577  5.76  0.  0.  0.
578  5.77  0.  0.  0.
579  5.78  0.  0.  0.
580  5.79  0.  0.  0.
581  5.80  0.  0.  0.
582  5.81  0.  0.  0.
583  5.82  0.  0.  0.
584  5.83  0.  0.  0.
585  5.84  0.  0.  0.
586  5.85  0.  0.  0.
587  5.86  0.  0.  0.
588  5.87  0.  0.  0.
589  5.88  0.  0.  0.
590  5.89  0.  0.  0.
591  5.90  0.  0.  0.
592  5.91  0.  0.  0.
593  5.92  0.  0.  0.
594  5.93  0.  0.  0.
595  5.94  0.  0.  0.
596  5.95  0.  0.  0.
597  5.96  0.  0.  0.
598  5.97  0.  0.  0.
599  5.98  0.  0.  0.
600  5.99  0.  0.  0.
1                        -4.2151258543019E+00  9.2775000035346E-01 -4.0209155884680E-02
1  0.0000000000000E+00  3.1931769728377E-10 -1.9849289711882E-09 -7.7140333357151E-09
2  1.0000000000000E-02  1.0936919781004E-03  2.1394321137063E-03 -2.9084957105659E-04
3  2.0000000000000E-02  4.3709803968375E-03  8.5462054934692E-03 -1.1551712893615E-03
4  3.0000000000000E-02  9.8205220179989E-03  1.9185760483569E-02 -2.5684917623517E-03
5  4.0000000000000E-02  1.7423475624910E-02  3.4000529689218E-02 -4.4907093655599E-03
6  5.0000000000000E-02  2.7153597661243E-02  5.2909990434779E-02 -6.8671092478927E-03
7  6.0000000000000E-02  3.8977374871852E-02  7.5810746899452E-02 -9.6297526054725E-03
8  7.0000000000000E-02  5.2854192715074E-02  1.0257665032894E-01 -1.2699209291583E-02
9  8.0000000000000E-02  6.8736537996569E-02  1.3305896770653E-01 -1.5986595116224E-02
10  9.0000000000000E-02  8.6570233878876E-02  1.6708661095346E-01 -1.9395868287698E-02
11  1.0000000000000E-01  1.0629470515253E-01  2.0446644006418E-01 -2.2826333504687E-02
12  1.1000000000000E-01  1.2784327141776E-01  2.4498365452254E-01 -2.6175297347400E-02
13  1.2000000000000E-01  1.5114346562372E-01  2.8840228785467E-01 -2.9340814944712E-02
14  1.3000000000000E-01  1.7611737524690E-01  3.3446582022727E-01 -3.2224465488498E-02
15  1.4000000000000E-01  2.0268200326515E-01  3.8289792358049E-01 -3.4734093084571E-02
16  1.5000000000000E-01  2.3074964599733E-01  4.3340335288829E-01 -3.6786449692831E-02
17  1.6000000000000E-01  2.6022828483457E-01  4.8566899577244E-01 -3.8309678520502E-02
18  1.7000000000000E-01  2.9102198888404E-01  5.3936509087547E-01 -3.9245579160806E-02
19  1.8000000000000E-01  3.2303132558152E-01  5.9414662315222E-01 -3.9551599959139E-02
20  1.9000000000000E-01  3.5615377640157E-01  6.4965490160613E-01 -3.9202508457825E-02
21  2.0000000000000E-01  3.9028415490212E-01  7.0551932202289E-01 -3.8191697213124E-02
22  2.1000000000000E-01  4.2531502448077E-01  7.6135931399681E-01 -3.6532089662670E-02
23  2.2000000000000E-01  4.6113711338929E-01  8.1678646806766E-01 -3.4256618903869E-02
24  2.3000000000000E-01  4.9763972474710E-01  8.7140683515682E-01 -3.1418261052933E-02
25  2.4000000000000E-01  5.3471113950876E-01  9.2482338678695E-01 -2.8089614117484E-02
26  2.5000000000000E-01  5.7223901057151E-01  9.7663862086526E-01 -2.4362022838288E-02
27  2.6000000000000E-01  6.1011074645005E-01  1.0264572941869E+00 -2.0344259549008E-02
28  2.7000000000000E-01  6.4821388319323E-01  1.0738892593519E+00 -1.6160780564772E-02
29  2.8000000000000E-01  6.8643644346602E-01  1.1185523805617E+00 -1.1949586749832E-02
30  2.9000000000000E-01  7.2466728196461E-01  1.1600754998473E+00 -7.8597255412605E-03
31  3.0000000000000E-01  7.6279641656886E-01  1.1981014227475E+00 -4.0484796394308E-03
32  3.1000000000000E-01  8.0071534485935E-01  1.2322898903658E+00 -6.7829465188970E-04
33  3.2000000000000E-01  8.3831734583263E-01  1.2623205031461E+00  2.0864959545366E-03
34  3.3000000000000E-01  8.7549776683395E-01  1.2878955606645E+00  4.0830853075517E-03
35  3.4000000000000E-01  9.1215429588901E-01  1.3087427812746E+00  5.1536800181968E-03
36  3.5000000000000E-01  9.4818721975188E-01  1.3246178655926E+00  5.1489901734152E-03
37  3.6000000000000E-01  9.8349966809477E-01  1.3353068685827E+00  3.9316521286495E-03
38  3.7000000000000E-01  1.0179978443436E+00  1.3406283463989E+00  1.3795142327055E-03
39  3.8000000000000E-01  1.0515912437129E+00  1.3404352461565E+00 -2.6112825306680E-03
40  3.9000000000000E-01  1.0841928590121E+00  1.3346165094111E+00 -8.1234937629740E-03
41  4.0000000000000E-01  1.1157193747876E+00  1.3230983632959E+00 -1.5216290945611E-02
42  4.1000000000000E-01  1.1460913503256E+00  1.3058452769494E+00 -2.3923165205350E-02
43  4.2000000000000E-01  1.1752333919814E+00  1.2828605650127E+00 -3.4250262994312E-02
44  4.3000000000000E-01  1.2030743152138E+00  1.2541866245171E+00 -4.6175193162127E-02
45  4.4000000000000E-01  1.2295472965994E+00  1.2199047963436E+00 -5.9646336079114E-02
46  4.5000000000000E-01  1.2545900159834E+00  1.1801348475448E+00 -7.4582675958907E-02
47  4.6000000000000E-01  1.2781447887861E+00  1.1350340760799E+00 -9.0874167516253E-02
48  4.7000000000000E-01  1.3001586883498E+00  1.0847960448394E+00 -1.0838263777561E-01
49  4.8000000000000E-01  1.3205836580621E+00  1.0296489571423E+00 -1.2694321341654E-01
50  4.9000000000000E-01  1.3393766128512E+00  9.6985369106549E-01 -1.4636625371406E-01
51  5.0000000000000E-01  1.3564995295111E+00  9.0570151494027E-01 -1.6643975910634E-01
52  5.1000000000000E-01  1.3719195251862E+00  8.3751151101922E-01 -1.8693221589993E-01
53  5.2000000000000E-01  1.3856089232306E+00  7.6562773860322E-01 -2.0759582879601E-01
54  5.3000000000000E-01  1.3975453055639E+00  6.9041617174149E-01 -2.2817008496580E-01
55  5.4000000000000E-01  1.4077115505667E+00  6.1226144990651E-01 -2.4838558648477E-01
56  5.5000000000000E-01  1.4160958555133E+00  5.3156348273867E-01 -2.6796808219606E-01
57  5.6000000000000E-01  1.4226917425108E+00  4.4873395200409E-01 -2.8664262563160E-01
58  5.7000000000000E-01  1.4274980469237E+00  3.6419275526795E-01 -3.0413778257708E-01
59  5.8000000000000E-01  1.4305188872950E+00  2.7836443643394E-01 -3.2018981028609E-01
60  5.9000000000000E-01  1.4317636158439E+00  1.9167464821514E-01 -3.3454673028061E-01
61  6.0000000000000E-01  1.4312467487146E+00  1.0454669078893E-01 -3.4697221812131E-01
62  6.1000000000000E-01  1.4289878752804E+00  1.7398169352207E-02 -3.5724923648421E-01
63  6.2000000000000E-01  1.4250115459615E+00 -6.9362188936618E-02 -3.6518334228855E-01
64  6.3000000000000E-01  1.4193471381978E+00 -1.5533752103274E-01 -3.7060560441088E-01
65  6.4000000000000E-01  1.4120287004245E+00 -2.4014558300065E-01 -3.7337507559066E-01