Bh    ONCVPSP-4.0.1  r_core=   1.10207   1.10207   1.10207   1.20554
107.0000     47.0000      220327    zatom,zion,pspd
8      11   3     4   600     0    pspcod,pspxc,lmax,lloc,mmax,r2well
5.99000000  5.00000000  0.00000000    rchrg fchrg qchrg
3     2     2     2     0    nproj
1     1           extension_switch
0                         1.6449705953584E+01 -7.8986413358439E+00  1.4334499020079E+00
1  0.0000000000000E+00 -5.4331981136357E-09  4.2606124184275E-10 -6.8186263302294E-09
2  1.0000000000000E-02  1.7982336336004E-01  6.2541414258047E-02  4.6418699804300E-02
3  2.0000000000000E-02  3.5799581833850E-01  1.2498549398807E-01  9.1732623399681E-02
4  3.0000000000000E-02  5.3288447604441E-01  1.8723493182064E-01  1.3485684935720E-01
5  4.0000000000000E-02  7.0289227303640E-01  2.4919247816491E-01  1.7474584879423E-01
6  5.0000000000000E-02  8.6647535125656E-01  3.1076097863085E-01  2.1041238992287E-01
7  6.0000000000000E-02  1.0221598016560E+00  3.7184342135894E-01  2.4094549517076E-01
8  7.0000000000000E-02  1.1685575648716E+00  4.3234299702415E-01  2.6552714057015E-01
9  8.0000000000000E-02  1.3043812877468E+00  4.9216317385428E-01  2.8344739392983E-01
10  9.0000000000000E-02  1.4284579421435E+00  5.5120778951056E-01  2.9411769924269E-01
11  1.0000000000000E-01  1.5397410228309E+00  6.0938116114067E-01  2.9708203112619E-01
12  1.1000000000000E-01  1.6373211547030E+00  6.6658821435894E-01  2.9202566610183E-01
13  1.2000000000000E-01  1.7204349565638E+00  7.2273463135769E-01  2.7878134828617E-01
14  1.3000000000000E-01  1.7884720295147E+00  7.7772701783297E-01  2.5733266640370E-01
15  1.4000000000000E-01  1.8409799627142E+00  8.3147308793816E-01  2.2781450734844E-01
16  1.5000000000000E-01  1.8776672779263E+00  8.8388186607718E-01  1.9051050874550E-01
17  1.6000000000000E-01  1.8984042665791E+00  9.3486390402984E-01  1.4584749845374E-01
18  1.7000000000000E-01  1.9032217085537E+00  9.8433151167144E-01  9.4386981479898E-02
19  1.8000000000000E-01  1.8923074999287E+00  1.0321989994110E+00  3.6813812523527E-02
20  1.9000000000000E-01  1.8660012565183E+00  1.0783829304222E+00 -2.6077727038568E-02
21  2.0000000000000E-01  1.8247870001760E+00  1.1228023807714E+00 -9.3400148340093E-02
22  2.1000000000000E-01  1.7692840742574E+00  1.1653792056407E+00 -1.6419089364782E-01
23  2.2000000000000E-01  1.7002364720096E+00  1.2060383099882E+00 -2.3743194701460E-01
24  2.3000000000000E-01  1.6185007956118E+00  1.2447079221555E+00 -3.1207040907532E-01
25  2.4000000000000E-01  1.5250330927601E+00  1.2813198691066E+00 -3.8703948118956E-01
26  2.5000000000000E-01  1.4208748408270E+00  1.3158098521389E+00 -4.6127927388633E-01
27  2.6000000000000E-01  1.3071383645994E+00  1.3481177220216E+00 -5.3375684354910E-01
28  2.7000000000000E-01  1.1849919815289E+00  1.3781877525778E+00 -6.0348487143875E-01
29  2.8000000000000E-01  1.0556451677007E+00  1.4059689117124E+00 -6.6953843157370E-01
30  2.9000000000000E-01  9.2033402803131E-01  1.4314151287917E+00 -7.3106934887596E-01
31  3.0000000000000E-01  7.8030733561878E-01  1.4544855571060E+00 -7.8731772550755E-01
32  3.1000000000000E-01  6.3681337809857E-01  1.4751448298806E+00 -8.3762030962441E-01
33  3.2000000000000E-01  4.9108781411783E-01  1.4933633079706E+00 -8.8141549398117E-01
34  3.3000000000000E-01  3.4434270176868E-01  1.5091173169874E+00 -9.1824485813192E-01
35  3.4000000000000E-01  1.9775681449512E-01  1.5223893711784E+00 -9.4775130273315E-01
36  3.5000000000000E-01  5.2467310334645E-02  1.5331683809546E+00 -9.6967396240196E-01
37  3.6000000000000E-01 -9.0437230680988E-02  1.5414498405498E+00 -9.8384021894678E-01
38  3.7000000000000E-01 -2.2992243650897E-01  1.5472359919433E+00 -9.9015526364653E-01
39  3.8000000000000E-01 -3.6501252360501E-01  1.5505359609070E+00 -9.8858976969516E-01
40  3.9000000000000E-01 -4.9479355389644E-01  1.5513658608908E+00 -9.7916632839610E-01
41  4.0000000000000E-01 -6.1841573025241E-01  1.5497488604496E+00 -9.6194537019779E-01
42  4.1000000000000E-01 -7.3509492023325E-01  1.5457152100760E+00 -9.3701133009406E-01
43  4.2000000000000E-01 -8.4411361596589E-01  1.5393022246425E+00 -9.0445982321898E-01
44  4.3000000000000E-01 -9.4482154543302E-01  1.5305542181847E+00 -8.6438656887102E-01
45  4.4000000000000E-01 -1.0366361467796E+00  1.5195223884717E+00 -8.1687873933014E-01
46  4.5000000000000E-01 -1.1190431024215E+00  1.5062646497000E+00 -7.6200931481606E-01
47  4.6000000000000E-01 -1.1915971042652E+00  1.4908454126898E+00 -6.9983490039329E-01
48  4.7000000000000E-01 -1.2539229862003E+00  1.4733353131311E+00 -6.3039730866728E-01
49  4.8000000000000E-01 -1.3057173166465E+00  1.4538108896781E+00 -5.5372903916612E-01
50  4.9000000000000E-01 -1.3467504941919E+00  1.4323542149820E+00 -4.6986259798663E-01
51  5.0000000000000E-01 -1.3768693354614E+00  1.4090524840341E+00 -3.7884340713482E-01
52  5.1000000000000E-01 -1.3960000887744E+00  1.3839975654006E+00 -2.8074586020340E-01
53  5.2000000000000E-01 -1.4041517525311E+00  1.3572855220285E+00 -1.7569189808892E-01
54  5.3000000000000E-01 -1.4014195262834E+00  1.3290161092139E+00 -6.3871313824212E-02
55  5.4000000000000E-01 -1.3879881777257E+00  1.2992922580232E+00  5.4437142678118E-02
56  5.5000000000000E-01 -1.3641350728046E+00  1.2682195528814E+00  1.7884489383677E-01
57  5.6000000000000E-01 -1.3302325909310E+00  1.2359057121713E+00  3.0883399633252E-01
58  5.7000000000000E-01 -1.2867496346028E+00  1.2024600804954E+00  4.4374005495055E-01
59  5.8000000000000E-01 -1.2342519438488E+00  1.1679931407256E+00  5.8273868046338E-01
60  5.9000000000000E-01 -1.1734009414360E+00  1.1326160531188E+00  7.2483650800575E-01
61  6.0000000000000E-01 -1.1049508648007E+00  1.0964402276222E+00  8.6886766899528E-01
62  6.1000000000000E-01 -1.0297439845670E+00  1.0595769340613E+00  1.0134964414955E+00
63  6.2000000000000E-01 -9.4870376607704E-01  1.0221369532601E+00  1.1572265959666E+00
64  6.3000000000000E-01 -8.6282589772938E-01  9.8423027032413E-01  1.2984177124754E+00
65  6.4000000000000E-01 -7.7316718573086E-01  9.4596580941705E-01  1.4353084801694E+00
66  6.5000000000000E-01 -6.8083239624226E-01  9.0745120744321E-01  1.5660467100674E+00
67  6.6000000000000E-01 -5.8695920964518E-01  8.6879262220284E-01  1.6887255088928E+00
68  6.7000000000000E-01 -4.9270153432043E-01  8.3009456889926E-01  1.8014247862953E+00
69  6.8000000000000E-01 -3.9921150538233E-01  7.9145977742749E-01  1.9022570119624E+00
70  6.9000000000000E-01 -3.0762056377613E-01  7.5298906174161E-01  1.9894159140987E+00
71  7.0000000000000E-01 -2.1902006975629E-01  7.1478119184876E-01  2.0612266269233E+00
72  7.1000000000000E-01 -1.3444194911407E-01  6.7693275866528E-01  2.1161956612807E+00
73  7.2000000000000E-01 -5.4839898207351E-02  6.3953802213222E-01  2.1530589964609E+00
74  7.3000000000000E-01  1.8928316924255E-02  6.0268873364028E-01  2.1708265780486E+00
75  7.4000000000000E-01  8.6116942369004E-02  5.6647392495683E-01  2.1688215587704E+00
76  7.5000000000000E-01  1.4610620417541E-01  5.3097965745353E-01  2.1467127369372E+00
77  7.6000000000000E-01  1.9841371663667E-01  4.9628872745589E-01  2.1045388274959E+00
78  7.7000000000000E-01  2.4270295263146E-01  4.6248032590788E-01  2.0427234384708E+00
79  7.8000000000000E-01  2.7878848043898E-01  4.2962965317621E-01  1.9620799126182E+00
80  7.9000000000000E-01  3.0663776694981E-01  3.9780749260670E-01  1.8638055200187E+00
81  8.0000000000000E-01  3.2636945179221E-01  3.6707974927028E-01  1.7494648396249E+00
82  8.1000000000000E-01  3.3824810648588E-01  3.3750696307191E-01  1.6209625324665E+00
83  8.2000000000000E-01  3.4267560284941E-01  3.0914380791052E-01  1.4805060712079E+00
84  8.3000000000000E-01  3.4017932089821E-01  2.8203859074344E-01  1.3305593346047E+00
85  8.4000000000000E-01  3.3139752374561E-01  2.5623276610035E-01  1.1737882858224E+00
86  8.5000000000000E-01  3.1706231116064E-01  2.3176048270092E-01  1.0130002161668E+00
87  8.6000000000000E-01  2.9798063043886E-01  2.0864817926402E-01  8.5107823762463E-01
88  8.7000000000000E-01  2.7501386971038E-01  1.8691424628511E-01  6.9091283793285E-01
89  8.8000000000000E-01  2.4905658209270E-01  1.6656876946014E-01  5.3533236251696E-01
90  8.9000000000000E-01  2.2101488745338E-01  1.4761336853555E-01  3.8703425348140E-01
91  9.0000000000000E-01  1.9178507122424E-01  1.3004114268507E-01  2.4851875517626E-01
92  9.1000000000000E-01  1.6223284702373E-01  1.1383673010619E-01  1.2202659058521E-01
93  9.2000000000000E-01  1.3317367318384E-01  9.8976485478015E-02  9.4818283329686E-03
94  9.3000000000000E-01  1.0535441508136E-01  8.5428774341059E-02 -8.7559194571120E-02
95  9.4000000000000E-01  7.9436528888945E-02  7.3154378492174E-02 -1.6795244178953E-01
96  9.5000000000000E-01  5.5980812202697E-02  6.2107001294708E-02 -2.3100424193664E-01
97  9.6000000000000E-01  3.5433628018637E-02  5.2233856569418E-02 -2.7650333317872E-01
98  9.7000000000000E-01  1.8114366132250E-02  4.3476319642319E-02 -3.0474786216782E-01
99  9.8000000000000E-01  4.2037660147577E-03  3.5770614375823E-02 -3.1656878778030E-01
100  9.9000000000000E-01 -6.2674089515266E-03  2.9048505716604E-02 -3.1335159538513E-01
101  1.0000000000000E+00 -1.3429923091807E-02  2.3237965235546E-02 -2.9705837919663E-01
102  1.0100000000000E+00 -1.7586045801672E-02  1.8263844933647E-02 -2.7024088417527E-01
103  1.0200000000000E+00 -1.9171452729352E-02  1.4049926805624E-02 -2.3582762595063E-01
104  1.0300000000000E+00 -1.8681292380135E-02  1.0522217121324E-02 -1.9676673577231E-01
105  1.0400000000000E+00 -1.6640575266927E-02  7.6110143653147E-03 -1.5590058756180E-01
106  1.0500000000000E+00 -1.3584476416254E-02  5.2513079337035E-03 -1.1588942529356E-01
107  1.0600000000000E+00 -1.0036196351361E-02  3.3723575860652E-03 -7.9142998706702E-02
108  1.0700000000000E+00 -6.4725798485447E-03  1.9330286563993E-03 -4.7689851742111E-02
109  1.0800000000000E+00 -3.3471190998397E-03  9.0572146459545E-04 -2.3226508874006E-02
110  1.0900000000000E+00 -1.0762081928292E-03  2.6845304104285E-04 -7.0761495067300E-03
111  1.1000000000000E+00 -5.0083830076070E-05  1.1664615694364E-05 -3.1253387322171E-04
112  1.1100000000000E+00 -3.4839643385839E-06  8.0943880114040E-07 -2.1791265851384E-05
113  1.1200000000000E+00  6.8103845449353E-07 -1.6290352261925E-07  4.3497174571580E-06
114  1.13  0.  0.  0.
115  1.14  0.  0.  0.
116  1.15  0.  0.  0.
117  1.16  0.  0.  0.
118  1.17  0.  0.  0.
119  1.18  0.  0.  0.
120  1.19  0.  0.  0.
121  1.20  0.  0.  0.
122  1.21  0.  0.  0.
123  1.22  0.  0.  0.
124  1.23  0.  0.  0.
125  1.24  0.  0.  0.
126  1.25  0.  0.  0.
127  1.26  0.  0.  0.
128  1.27  0.  0.  0.
129  1.28  0.  0.  0.
130  1.29  0.  0.  0.
131  1.30  0.  0.  0.
132  1.31  0.  0.  0.
133  1.32  0.  0.  0.
134  1.33  0.  0.  0.
135  1.34  0.  0.  0.
136  1.35  0.  0.  0.
137  1.36  0.  0.  0.
138  1.37  0.  0.  0.
139  1.38  0.  0.  0.
140  1.39  0.  0.  0.
141  1.40  0.  0.  0.
142  1.41  0.  0.  0.
143  1.42  0.  0.  0.
144  1.43  0.  0.  0.
145  1.44  0.  0.  0.
146  1.45  0.  0.  0.
147  1.46  0.  0.  0.
148  1.47  0.  0.  0.
149  1.48  0.  0.  0.
150  1.49  0.  0.  0.
151  1.50  0.  0.  0.
152  1.51  0.  0.  0.
153  1.52  0.  0.  0.
154  1.53  0.  0.  0.
155  1.54  0.  0.  0.
156  1.55  0.  0.  0.
157  1.56  0.  0.  0.
158  1.57  0.  0.  0.
159  1.58  0.  0.  0.
160  1.59  0.  0.  0.
161  1.60  0.  0.  0.
162  1.61  0.  0.  0.
163  1.62  0.  0.  0.
164  1.63  0.  0.  0.
165  1.64  0.  0.  0.
166  1.65  0.  0.  0.
167  1.66  0.  0.  0.
168  1.67  0.  0.  0.
169  1.68  0.  0.  0.
170  1.69  0.  0.  0.
171  1.70  0.  0.  0.
172  1.71  0.  0.  0.
173  1.72  0.  0.  0.
174  1.73  0.  0.  0.
175  1.74  0.  0.  0.
176  1.75  0.  0.  0.
177  1.76  0.  0.  0.
178  1.77  0.  0.  0.
179  1.78  0.  0.  0.
180  1.79  0.  0.  0.
181  1.80  0.  0.  0.
182  1.81  0.  0.  0.
183  1.82  0.  0.  0.
184  1.83  0.  0.  0.
185  1.84  0.  0.  0.
186  1.85  0.  0.  0.
187  1.86  0.  0.  0.
188  1.87  0.  0.  0.
189  1.88  0.  0.  0.
190  1.89  0.  0.  0.
191  1.90  0.  0.  0.
192  1.91  0.  0.  0.
193  1.92  0.  0.  0.
194  1.93  0.  0.  0.
195  1.94  0.  0.  0.
196  1.95  0.  0.  0.
197  1.96  0.  0.  0.
198  1.97  0.  0.  0.
199  1.98  0.  0.  0.
200  1.99  0.  0.  0.
201  2.00  0.  0.  0.
202  2.01  0.  0.  0.
203  2.02  0.  0.  0.
204  2.03  0.  0.  0.
205  2.04  0.  0.  0.
206  2.05  0.  0.  0.
207  2.06  0.  0.  0.
208  2.07  0.  0.  0.
209  2.08  0.  0.  0.
210  2.09  0.  0.  0.
211  2.10  0.  0.  0.
212  2.11  0.  0.  0.
213  2.12  0.  0.  0.
214  2.13  0.  0.  0.
215  2.14  0.  0.  0.
216  2.15  0.  0.  0.
217  2.16  0.  0.  0.
218  2.17  0.  0.  0.
219  2.18  0.  0.  0.
220  2.19  0.  0.  0.
221  2.20  0.  0.  0.
222  2.21  0.  0.  0.
223  2.22  0.  0.  0.
224  2.23  0.  0.  0.
225  2.24  0.  0.  0.
226  2.25  0.  0.  0.
227  2.26  0.  0.  0.
228  2.27  0.  0.  0.
229  2.28  0.  0.  0.
230  2.29  0.  0.  0.
231  2.30  0.  0.  0.
232  2.31  0.  0.  0.
233  2.32  0.  0.  0.
234  2.33  0.  0.  0.
235  2.34  0.  0.  0.
236  2.35  0.  0.  0.
237  2.36  0.  0.  0.
238  2.37  0.  0.  0.
239  2.38  0.  0.  0.
240  2.39  0.  0.  0.
241  2.40  0.  0.  0.
242  2.41  0.  0.  0.
243  2.42  0.  0.  0.
244  2.43  0.  0.  0.
245  2.44  0.  0.  0.
246  2.45  0.  0.  0.
247  2.46  0.  0.  0.
248  2.47  0.  0.  0.
249  2.48  0.  0.  0.
250  2.49  0.  0.  0.
251  2.50  0.  0.  0.
252  2.51  0.  0.  0.
253  2.52  0.  0.  0.
254  2.53  0.  0.  0.
255  2.54  0.  0.  0.
256  2.55  0.  0.  0.
257  2.56  0.  0.  0.
258  2.57  0.  0.  0.
259  2.58  0.  0.  0.
260  2.59  0.  0.  0.
261  2.60  0.  0.  0.
262  2.61  0.  0.  0.
263  2.62  0.  0.  0.
264  2.63  0.  0.  0.
265  2.64  0.  0.  0.
266  2.65  0.  0.  0.
267  2.66  0.  0.  0.
268  2.67  0.  0.  0.
269  2.68  0.  0.  0.
270  2.69  0.  0.  0.
271  2.70  0.  0.  0.
272  2.71  0.  0.  0.
273  2.72  0.  0.  0.
274  2.73  0.  0.  0.
275  2.74  0.  0.  0.
276  2.75  0.  0.  0.
277  2.76  0.  0.  0.
278  2.77  0.  0.  0.
279  2.78  0.  0.  0.
280  2.79  0.  0.  0.
281  2.80  0.  0.  0.
282  2.81  0.  0.  0.
283  2.82  0.  0.  0.
284  2.83  0.  0.  0.
285  2.84  0.  0.  0.
286  2.85  0.  0.  0.
287  2.86  0.  0.  0.
288  2.87  0.  0.  0.
289  2.88  0.  0.  0.
290  2.89  0.  0.  0.
291  2.90  0.  0.  0.
292  2.91  0.  0.  0.
293  2.92  0.  0.  0.
294  2.93  0.  0.  0.
295  2.94  0.  0.  0.
296  2.95  0.  0.  0.
297  2.96  0.  0.  0.
298  2.97  0.  0.  0.
299  2.98  0.  0.  0.
300  2.99  0.  0.  0.
301  3.00  0.  0.  0.
302  3.01  0.  0.  0.
303  3.02  0.  0.  0.
304  3.03  0.  0.  0.
305  3.04  0.  0.  0.
306  3.05  0.  0.  0.
307  3.06  0.  0.  0.
308  3.07  0.  0.  0.
309  3.08  0.  0.  0.
310  3.09  0.  0.  0.
311  3.10  0.  0.  0.
312  3.11  0.  0.  0.
313  3.12  0.  0.  0.
314  3.13  0.  0.  0.
315  3.14  0.  0.  0.
316  3.15  0.  0.  0.
317  3.16  0.  0.  0.
318  3.17  0.  0.  0.
319  3.18  0.  0.  0.
320  3.19  0.  0.  0.
321  3.20  0.  0.  0.
322  3.21  0.  0.  0.
323  3.22  0.  0.  0.
324  3.23  0.  0.  0.
325  3.24  0.  0.  0.
326  3.25  0.  0.  0.
327  3.26  0.  0.  0.
328  3.27  0.  0.  0.
329  3.28  0.  0.  0.
330  3.29  0.  0.  0.
331  3.30  0.  0.  0.
332  3.31  0.  0.  0.
333  3.32  0.  0.  0.
334  3.33  0.  0.  0.
335  3.34  0.  0.  0.
336  3.35  0.  0.  0.
337  3.36  0.  0.  0.
338  3.37  0.  0.  0.
339  3.38  0.  0.  0.
340  3.39  0.  0.  0.
341  3.40  0.  0.  0.
342  3.41  0.  0.  0.
343  3.42  0.  0.  0.
344  3.43  0.  0.  0.
345  3.44  0.  0.  0.
346  3.45  0.  0.  0.
347  3.46  0.  0.  0.
348  3.47  0.  0.  0.
349  3.48  0.  0.  0.
350  3.49  0.  0.  0.
351  3.50  0.  0.  0.
352  3.51  0.  0.  0.
353  3.52  0.  0.  0.
354  3.53  0.  0.  0.
355  3.54  0.  0.  0.
356  3.55  0.  0.  0.
357  3.56  0.  0.  0.
358  3.57  0.  0.  0.
359  3.58  0.  0.  0.
360  3.59  0.  0.  0.
361  3.60  0.  0.  0.
362  3.61  0.  0.  0.
363  3.62  0.  0.  0.
364  3.63  0.  0.  0.
365  3.64  0.  0.  0.
366  3.65  0.  0.  0.
367  3.66  0.  0.  0.
368  3.67  0.  0.  0.
369  3.68  0.  0.  0.
370  3.69  0.  0.  0.
371  3.70  0.  0.  0.
372  3.71  0.  0.  0.
373  3.72  0.  0.  0.
374  3.73  0.  0.  0.
375  3.74  0.  0.  0.
376  3.75  0.  0.  0.
377  3.76  0.  0.  0.
378  3.77  0.  0.  0.
379  3.78  0.  0.  0.
380  3.79  0.  0.  0.
381  3.80  0.  0.  0.
382  3.81  0.  0.  0.
383  3.82  0.  0.  0.
384  3.83  0.  0.  0.
385  3.84  0.  0.  0.
386  3.85  0.  0.  0.
387  3.86  0.  0.  0.
388  3.87  0.  0.  0.
389  3.88  0.  0.  0.
390  3.89  0.  0.  0.
391  3.90  0.  0.  0.
392  3.91  0.  0.  0.
393  3.92  0.  0.  0.
394  3.93  0.  0.  0.
395  3.94  0.  0.  0.
396  3.95  0.  0.  0.
397  3.96  0.  0.  0.
398  3.97  0.  0.  0.
399  3.98  0.  0.  0.
400  3.99  0.  0.  0.
401  4.00  0.  0.  0.
402  4.01  0.  0.  0.
403  4.02  0.  0.  0.
404  4.03  0.  0.  0.
405  4.04  0.  0.  0.
406  4.05  0.  0.  0.
407  4.06  0.  0.  0.
408  4.07  0.  0.  0.
409  4.08  0.  0.  0.
410  4.09  0.  0.  0.
411  4.10  0.  0.  0.
412  4.11  0.  0.  0.
413  4.12  0.  0.  0.
414  4.13  0.  0.  0.
415  4.14  0.  0.  0.
416  4.15  0.  0.  0.
417  4.16  0.  0.  0.
418  4.17  0.  0.  0.
419  4.18  0.  0.  0.
420  4.19  0.  0.  0.
421  4.20  0.  0.  0.
422  4.21  0.  0.  0.
423  4.22  0.  0.  0.
424  4.23  0.  0.  0.
425  4.24  0.  0.  0.
426  4.25  0.  0.  0.
427  4.26  0.  0.  0.
428  4.27  0.  0.  0.
429  4.28  0.  0.  0.
430  4.29  0.  0.  0.
431  4.30  0.  0.  0.
432  4.31  0.  0.  0.
433  4.32  0.  0.  0.
434  4.33  0.  0.  0.
435  4.34  0.  0.  0.
436  4.35  0.  0.  0.
437  4.36  0.  0.  0.
438  4.37  0.  0.  0.
439  4.38  0.  0.  0.
440  4.39  0.  0.  0.
441  4.40  0.  0.  0.
442  4.41  0.  0.  0.
443  4.42  0.  0.  0.
444  4.43  0.  0.  0.
445  4.44  0.  0.  0.
446  4.45  0.  0.  0.
447  4.46  0.  0.  0.
448  4.47  0.  0.  0.
449  4.48  0.  0.  0.
450  4.49  0.  0.  0.
451  4.50  0.  0.  0.
452  4.51  0.  0.  0.
453  4.52  0.  0.  0.
454  4.53  0.  0.  0.
455  4.54  0.  0.  0.
456  4.55  0.  0.  0.
457  4.56  0.  0.  0.
458  4.57  0.  0.  0.
459  4.58  0.  0.  0.
460  4.59  0.  0.  0.
461  4.60  0.  0.  0.
462  4.61  0.  0.  0.
463  4.62  0.  0.  0.
464  4.63  0.  0.  0.
465  4.64  0.  0.  0.
466  4.65  0.  0.  0.
467  4.66  0.  0.  0.
468  4.67  0.  0.  0.
469  4.68  0.  0.  0.
470  4.69  0.  0.  0.
471  4.70  0.  0.  0.
472  4.71  0.  0.  0.
473  4.72  0.  0.  0.
474  4.73  0.  0.  0.
475  4.74  0.  0.  0.
476  4.75  0.  0.  0.
477  4.76  0.  0.  0.
478  4.77  0.  0.  0.
479  4.78  0.  0.  0.
480  4.79  0.  0.  0.
481  4.80  0.  0.  0.
482  4.81  0.  0.  0.
483  4.82  0.  0.  0.
484  4.83  0.  0.  0.
485  4.84  0.  0.  0.
486  4.85  0.  0.  0.
487  4.86  0.  0.  0.
488  4.87  0.  0.  0.
489  4.88  0.  0.  0.
490  4.89  0.  0.  0.
491  4.90  0.  0.  0.
492  4.91  0.  0.  0.
493  4.92  0.  0.  0.
494  4.93  0.  0.  0.
495  4.94  0.  0.  0.
496  4.95  0.  0.  0.
497  4.96  0.  0.  0.
498  4.97  0.  0.  0.
499  4.98  0.  0.  0.
500  4.99  0.  0.  0.
501  5.00  0.  0.  0.
502  5.01  0.  0.  0.
503  5.02  0.  0.  0.
504  5.03  0.  0.  0.
505  5.04  0.  0.  0.
506  5.05  0.  0.  0.
507  5.06  0.  0.  0.
508  5.07  0.  0.  0.
509  5.08  0.  0.  0.
510  5.09  0.  0.  0.
511  5.10  0.  0.  0.
512  5.11  0.  0.  0.
513  5.12  0.  0.  0.
514  5.13  0.  0.  0.
515  5.14  0.  0.  0.
516  5.15  0.  0.  0.
517  5.16  0.  0.  0.
518  5.17  0.  0.  0.
519  5.18  0.  0.  0.
520  5.19  0.  0.  0.
521  5.20  0.  0.  0.
522  5.21  0.  0.  0.
523  5.22  0.  0.  0.
524  5.23  0.  0.  0.
525  5.24  0.  0.  0.
526  5.25  0.  0.  0.
527  5.26  0.  0.  0.
528  5.27  0.  0.  0.
529  5.28  0.  0.  0.
530  5.29  0.  0.  0.
531  5.30  0.  0.  0.
532  5.31  0.  0.  0.
533  5.32  0.  0.  0.
534  5.33  0.  0.  0.
535  5.34  0.  0.  0.
536  5.35  0.  0.  0.
537  5.36  0.  0.  0.
538  5.37  0.  0.  0.
539  5.38  0.  0.  0.
540  5.39  0.  0.  0.
541  5.40  0.  0.  0.
542  5.41  0.  0.  0.
543  5.42  0.  0.  0.
544  5.43  0.  0.  0.
545  5.44  0.  0.  0.
546  5.45  0.  0.  0.
547  5.46  0.  0.  0.
548  5.47  0.  0.  0.
549  5.48  0.  0.  0.
550  5.49  0.  0.  0.
551  5.50  0.  0.  0.
552  5.51  0.  0.  0.
553  5.52  0.  0.  0.
554  5.53  0.  0.  0.
555  5.54  0.  0.  0.
556  5.55  0.  0.  0.
557  5.56  0.  0.  0.
558  5.57  0.  0.  0.
559  5.58  0.  0.  0.
560  5.59  0.  0.  0.
561  5.60  0.  0.  0.
562  5.61  0.  0.  0.
563  5.62  0.  0.  0.
564  5.63  0.  0.  0.
565  5.64  0.  0.  0.
566  5.65  0.  0.  0.
567  5.66  0.  0.  0.
568  5.67  0.  0.  0.
569  5.68  0.  0.  0.
570  5.69  0.  0.  0.
571  5.70  0.  0.  0.
572  5.71  0.  0.  0.
573  5.72  0.  0.  0.
574  5.73  0.  0.  0.
575  5.74  0.  0.  0.
576  5.75  0.  0.  0.
577  5.76  0.  0.  0.
578  5.77  0.  0.  0.
579  5.78  0.  0.  0.
580  5.79  0.  0.  0.
581  5.80  0.  0.  0.
582  5.81  0.  0.  0.
583  5.82  0.  0.  0.
584  5.83  0.  0.  0.
585  5.84  0.  0.  0.
586  5.85  0.  0.  0.
587  5.86  0.  0.  0.
588  5.87  0.  0.  0.
589  5.88  0.  0.  0.
590  5.89  0.  0.  0.
591  5.90  0.  0.  0.
592  5.91  0.  0.  0.
593  5.92  0.  0.  0.
594  5.93  0.  0.  0.
595  5.94  0.  0.  0.
596  5.95  0.  0.  0.
597  5.96  0.  0.  0.
598  5.97  0.  0.  0.
599  5.98  0.  0.  0.
600  5.99  0.  0.  0.
1                        -6.3896886554666E+00  2.7923943288047E+00
1  0.0000000000000E+00  8.6193316095606E-09  4.7001358249865E-08
2  1.0000000000000E-02  2.5454221290404E-03 -3.5892378717778E-03
3  2.0000000000000E-02  1.0161827213078E-02 -1.4334993678416E-02
4  3.0000000000000E-02  2.2789888222359E-02 -3.2170874963273E-02
5  4.0000000000000E-02  4.0331577340476E-02 -5.6984533850558E-02
6  5.0000000000000E-02  6.2651422051589E-02 -8.8615251801942E-02
7  6.0000000000000E-02  8.9578224786300E-02 -1.2685080311048E-01
8  7.0000000000000E-02  1.2090720873853E-01 -1.7142382818209E-01
9  8.0000000000000E-02  1.5640254384647E-01 -2.2200799465629E-01
10  9.0000000000000E-02  1.9580019974960E-01 -2.7821425831432E-01
11  1.0000000000000E-01  2.3881106699523E-01 -3.3958755482597E-01
12  1.1000000000000E-01  2.8512428401476E-01 -4.0560425665318E-01
13  1.2000000000000E-01  3.3441070549761E-01 -4.7567071651463E-01
14  1.3000000000000E-01  3.8632644776756E-01 -5.4912319008800E-01
15  1.4000000000000E-01  4.4051644855104E-01 -6.2522938714848E-01
16  1.5000000000000E-01  4.9661798199504E-01 -7.0319184383467E-01
17  1.6000000000000E-01  5.5426407476069E-01 -7.8215324149243E-01
18  1.7000000000000E-01  6.1308677525172E-01 -8.6120372235998E-01
19  1.8000000000000E-01  6.7272023526367E-01 -9.3939017236836E-01
20  1.9000000000000E-01  7.3280357125458E-01 -1.0157273599224E+00
21  2.0000000000000E-01  7.9298348072507E-01 -1.0892107401606E+00
22  2.1000000000000E-01  8.5291659753386E-01 -1.1588306602774E+00
23  2.2000000000000E-01  9.1227157805325E-01 -1.2235876362190E+00
24  2.3000000000000E-01  9.7073091760142E-01 -1.2825083172973E+00
25  2.4000000000000E-01  1.0279925033208E+00 -1.3346617153874E+00
26  2.5000000000000E-01  1.0837709153950E+00 -1.3791752512091E+00
27  2.6000000000000E-01  1.1377984930532E+00 -1.4152501629129E+00
28  2.7000000000000E-01  1.1898261850965E+00 -1.4421758322756E+00
29  2.8000000000000E-01  1.2396242066601E+00 -1.4593426110172E+00
30  2.9000000000000E-01  1.2869825246045E+00 -1.4662527731199E+00
31  3.0000000000000E-01  1.3317111933996E+00 -1.4625292769414E+00
32  3.1000000000000E-01  1.3736405617378E+00 -1.4479220911230E+00
33  3.2000000000000E-01  1.4126213675759E+00 -1.4223119180570E+00
34  3.3000000000000E-01  1.4485247360607E+00 -1.3857112348292E+00
35  3.4000000000000E-01  1.4812420910814E+00 -1.3382626606819E+00
36  3.5000000000000E-01  1.5106849872670E+00 -1.2802347485665E+00
37  3.6000000000000E-01  1.5367848653628E+00 -1.2120153827547E+00
38  3.7000000000000E-01  1.5594927303264E+00 -1.1341030413452E+00
39  3.8000000000000E-01  1.5787787484046E+00 -1.0470962487771E+00
40  3.9000000000000E-01  1.5946317570938E+00 -9.5168159647205E-01
41  4.0000000000000E-01  1.6070586803930E+00 -8.4862074737539E-01
42  4.1000000000000E-01  1.6160838412547E+00 -7.3873686095453E-01
43  4.2000000000000E-01  1.6217481636744E+00 -6.2290087835651E-01
44  4.3000000000000E-01  1.6241082584397E+00 -5.0201809285186E-01
45  4.4000000000000E-01  1.6232353891388E+00 -3.7701539906738E-01
46  4.5000000000000E-01  1.6192143184906E+00 -2.4882956720904E-01
47  4.6000000000000E-01  1.6121420392610E+00 -1.1839682752705E-01
48  4.7000000000000E-01  1.6021263987658E+00  1.3356021713853E-02
49  4.8000000000000E-01  1.5892846310026E+00  1.4551884944672E-01
50  4.9000000000000E-01  1.5737418155490E+00  2.7720372136596E-01
51  5.0000000000000E-01  1.5556292872365E+00  4.0754876037988E-01
52  5.1000000000000E-01  1.5350830249961E+00  5.3572045703751E-01
53  5.2000000000000E-01  1.5122420519099E+00  6.6091462512034E-01
54  5.3000000000000E-01  1.4872468811577E+00  7.8235626386438E-01
55  5.4000000000000E-01  1.4602380440220E+00  8.9929864171248E-01
56  5.5000000000000E-01  1.4313547362465E+00  1.0110219545858E+00
57  5.6000000000000E-01  1.4007336177304E+00  1.1168319325141E+00
58  5.7000000000000E-01  1.3685077977451E+00  1.2160587708879E+00
59  5.8000000000000E-01  1.3348060335858E+00  1.3080567461566E+00
60  5.9000000000000E-01  1.2997521649206E+00  1.3922048408580E+00
61  6.0000000000000E-01  1.2634647992011E+00  1.4679086505745E+00
62  6.1000000000000E-01  1.2260572555747E+00  1.5346037776697E+00
63  6.2000000000000E-01  1.1876377660407E+00  1.5917608360781E+00
64  6.3000000000000E-01  1.1483099234294E+00  1.6388921011950E+00
65  6.4000000000000E-01  1.1081733564952E+00  1.6755597427382E+00
66  6.5000000000000E-01  1.0673246033604E+00  1.7013854803740E+00
67  6.6000000000000E-01  1.0258581461007E+00  1.7160614061303E+00
68  6.7000000000000E-01  9.8386756178088E-01  1.7193616284408E+00
69  6.8000000000000E-01  9.4144673907753E-01  1.7111543141602E+00
70  6.9000000000000E-01  8.9869110506431E-01  1.6914136408748E+00
71  7.0000000000000E-01  8.5569880404240E-01  1.6602311256038E+00
72  7.1000000000000E-01  8.1257176966263E-01  1.6178257702407E+00
73  7.2000000000000E-01  7.6941663312988E-01  1.5645524607495E+00
74  7.3000000000000E-01  7.2634541404221E-01  1.5009080772849E+00
75  7.4000000000000E-01  6.8347594635281E-01  1.4275348162149E+00
76  7.5000000000000E-01  6.4093199992060E-01  1.3452202916689E+00
77  7.6000000000000E-01  5.9884306791761E-01  1.2548940719690E+00
78  7.7000000000000E-01  5.5734380169365E-01  1.1576204124509E+00
79  7.8000000000000E-01  5.1657308719046E-01  1.0545870672143E+00
80  7.9000000000000E-01  4.7667277022224E-01  9.4709019404103E-01
81  8.0000000000000E-01  4.3778605142255E-01  8.3651550424269E-01
82  8.1000000000000E-01  4.0005558489570E-01  7.2431594734390E-01
83  8.2000000000000E-01  3.6362132708999E-01  6.1198635381049E-01
84  8.3000000000000E-01  3.2861819362590E-01  5.0103558208122E-01
85  8.4000000000000E-01  2.9517359128827E-01  3.9295682372012E-01
86  8.5000000000000E-01  2.6340489969955E-01  2.8919680779554E-01
87  8.6000000000000E-01  2.3341698197198E-01  1.9112470845591E-01
88  8.7000000000000E-01  2.0529980561082E-01  1.0000159478882E-01
89  8.8000000000000E-01  1.7912625393099E-01  1.6951267072397E-02
90  8.9000000000000E-01  1.5495020418172E-01 -5.7066702775170E-02
91  9.0000000000000E-01  1.3280494149130E-01 -1.2128096641539E-01
92  9.1000000000000E-01  1.1270196780591E-01 -1.7512875769978E-01
93  9.2000000000000E-01  9.4630252475659E-02 -2.1827205801279E-01
94  9.3000000000000E-01  7.8555956418773E-02 -2.5060915151988E-01
95  9.4000000000000E-01  6.4422645350564E-02 -2.7228131286268E-01
96  9.5000000000000E-01  5.2151989948822E-02 -2.8367454331472E-01
97  9.6000000000000E-01  4.1644932668283E-02 -2.8541645265809E-01
98  9.7000000000000E-01  3.2783282863026E-02 -2.7836856645299E-01
99  9.8000000000000E-01  2.5431684601347E-02 -2.6361451499197E-01
100  9.9000000000000E-01  1.9439885480853E-02 -2.4244472818632E-01
101  1.0000000000000E+00  1.4645226271725E-02 -2.1633831488619E-01
102  1.0100000000000E+00  1.0875518188510E-02 -1.8693848352444E-01
103  1.0200000000000E+00  7.9570381242338E-03 -1.5594231924543E-01
104  1.0300000000000E+00  5.7258311971963E-03 -1.2494742182701E-01
105  1.0400000000000E+00  4.0338124154643E-03 -9.5395106065067E-02
106  1.0500000000000E+00  2.7545740066241E-03 -6.8517300694792E-02
107  1.0600000000000E+00  1.7956126543477E-03 -4.5166419275917E-02
108  1.0700000000000E+00  1.0741120774434E-03 -2.6205269649082E-02
109  1.0800000000000E+00  5.3820969377926E-04 -1.2252839015570E-02
110  1.0900000000000E+00  1.7386613419661E-04 -3.5714932526130E-03
111  1.1000000000000E+00  8.3836091113055E-06 -1.4995074842895E-04
112  1.1100000000000E+00  5.7681735630163E-07 -1.0474971784564E-05
113  1.1200000000000E+00 -1.1155711020059E-07  2.1343777726160E-06
114  1.13  0.  0.
115  1.14  0.  0.
116  1.15  0.  0.
117  1.16  0.  0.
118  1.17  0.  0.
119  1.18  0.  0.
120  1.19  0.  0.
121  1.20  0.  0.
122  1.21  0.  0.
123  1.22  0.  0.
124  1.23  0.  0.
125  1.24  0.  0.
126  1.25  0.  0.
127  1.26  0.  0.
128  1.27  0.  0.
129  1.28  0.  0.
130  1.29  0.  0.
131  1.30  0.  0.
132  1.31  0.  0.
133  1.32  0.  0.
134  1.33  0.  0.
135  1.34  0.  0.
136  1.35  0.  0.
137  1.36  0.  0.
138  1.37  0.  0.
139  1.38  0.  0.
140  1.39  0.  0.
141  1.40  0.  0.
142  1.41  0.  0.
143  1.42  0.  0.
144  1.43  0.  0.
145  1.44  0.  0.
146  1.45  0.  0.
147  1.46  0.  0.
148  1.47  0.  0.
149  1.48  0.  0.
150  1.49  0.  0.
151  1.50  0.  0.
152  1.51  0.  0.
153  1.52  0.  0.
154  1.53  0.  0.
155  1.54  0.  0.
156  1.55  0.  0.
157  1.56  0.  0.
158  1.57  0.  0.
159  1.58  0.  0.
160  1.59  0.  0.
161  1.60  0.  0.
162  1.61  0.  0.
163  1.62  0.  0.
164  1.63  0.  0.
165  1.64  0.  0.
166  1.65  0.  0.
167  1.66  0.  0.
168  1.67  0.  0.
169  1.68  0.  0.
170  1.69  0.  0.
171  1.70  0.  0.
172  1.71  0.  0.
173  1.72  0.  0.
174  1.73  0.  0.
175  1.74  0.  0.
176  1.75  0.  0.
177  1.76  0.  0.
178  1.77  0.  0.
179  1.78  0.  0.
180  1.79  0.  0.
181  1.80  0.  0.
182  1.81  0.  0.
183  1.82  0.  0.
184  1.83  0.  0.
185  1.84  0.  0.
186  1.85  0.  0.
187  1.86  0.  0.
188  1.87  0.  0.
189  1.88  0.  0.
190  1.89  0.  0.
191  1.90  0.  0.
192  1.91  0.  0.
193  1.92  0.  0.
194  1.93  0.  0.
195  1.94  0.  0.
196  1.95  0.  0.
197  1.96  0.  0.