Bh    ONCVPSP-4.0.1  r_core=   1.15610   1.15610   1.15610   1.20554
107.0000     47.0000      220328    zatom,zion,pspd
8      11   3     4   600     0    pspcod,pspxc,lmax,lloc,mmax,r2well
5.99000000  3.80000000  0.00000000    rchrg fchrg qchrg
3     2     2     2     0    nproj
1     1           extension_switch
0                         1.4258238263750E+01 -7.9415814367880E+00  1.4941163884619E+00
1  0.0000000000000E+00  4.1596981414926E-09  2.8237412408316E-12  2.4558092115434E-08
2  1.0000000000000E-02  1.6696584988049E-01  6.8182673476164E-02  3.9783670892247E-02
3  2.0000000000000E-02  3.3250939948700E-01  1.3622254513674E-01  7.8801620034885E-02
4  3.0000000000000E-02  4.9522135757635E-01  2.0397725766110E-01  1.1629656763588E-01
5  4.0000000000000E-02  6.5371835510417E-01  2.7130534125171E-01  1.5152813877261E-01
6  5.0000000000000E-02  8.0665566526665E-01  3.3806665372841E-01  1.8378136099617E-01
7  6.0000000000000E-02  9.5273963050093E-01  4.0412281622133E-01  2.1237519637875E-01
8  7.0000000000000E-02  1.0907396929160E+00  4.6933764299354E-01  2.3667108786008E-01
9  8.0000000000000E-02  1.2194999204656E+00  5.3357756392163E-01  2.5608147519089E-01
10  9.0000000000000E-02  1.3379499169844E+00  5.9671203815758E-01  2.7007820810294E-01
11  1.0000000000000E-01  1.4451150005709E+00  6.5861395748744E-01  2.7820075534484E-01
12  1.1000000000000E-01  1.5401255323431E+00  7.1916003789171E-01  2.8006407983699E-01
13  1.2000000000000E-01  1.6222252769374E+00  7.7823119779857E-01  2.7536602437951E-01
14  1.3000000000000E-01  1.6907786778533E+00  8.3571292150381E-01  2.6389403099789E-01
15  1.4000000000000E-01  1.7452769353802E+00  8.9149560621367E-01  2.4553100185571E-01
16  1.5000000000000E-01  1.7853427827787E+00  9.4547489114699E-01  2.2026010217931E-01
17  1.6000000000000E-01  1.8107338678990E+00  9.9755196711707E-01  1.8816830694039E-01
18  1.7000000000000E-01  1.8213446626024E+00  1.0476338650011E+00  1.4944850384518E-01
19  1.8000000000000E-01  1.8172068411466E+00  1.0956337215017E+00  1.0439998573101E-01
20  1.9000000000000E-01  1.7984880908443E+00  1.1414710206149E+00  5.3427195531500E-02
21  2.0000000000000E-01  1.7654893433772E+00  1.1850718092429E+00 -2.9633741735894E-03
22  2.1000000000000E-01  1.7186404425424E+00  1.2263688854421E+00 -6.4168178567806E-02
23  2.2000000000000E-01  1.6584942931686E+00  1.2653019578660E+00 -1.2949351408786E-01
24  2.3000000000000E-01  1.5857195655946E+00  1.3018177750741E+00 -1.9816425069128E-01
25  2.4000000000000E-01  1.5010920594894E+00  1.3358702235132E+00 -2.6933428742243E-01
26  2.5000000000000E-01  1.4054848588869E+00  1.3674203931609E+00 -3.4209855829060E-01
27  2.6000000000000E-01  1.2998574361125E+00  1.3964366100363E+00 -4.1550636112979E-01
28  2.7000000000000E-01  1.1852438847894E+00  1.4228944350461E+00 -4.8857573337194E-01
29  2.8000000000000E-01  1.0627404804498E+00  1.4467766289324E+00 -5.6030855781781E-01
30  2.9000000000000E-01  9.3349278066579E-01  1.4680730834272E+00 -6.2970605054786E-01
31  3.0000000000000E-01  7.9868248443897E-01  1.4867807190908E+00 -6.9578426371830E-01
32  3.1000000000000E-01  6.5951427244805E-01  1.5029033507108E+00 -7.5758922933398E-01
33  3.2000000000000E-01  5.1720284543671E-01  1.5164515215547E+00 -8.1421137684620E-01
34  3.3000000000000E-01  3.7296036757919E-01  1.5274423082037E+00 -8.6479887770787E-01
35  3.4000000000000E-01  2.2798450535288E-01  1.5358990981180E+00 -9.0856960335718E-01
36  3.5000000000000E-01  8.3447230785329E-02  1.5418513425065E+00 -9.4482142845946E-01
37  3.6000000000000E-01 -5.9515468349039E-02  1.5453342874602E+00 -9.7294066702461E-01
38  3.7000000000000E-01 -1.9981285881539E-01  1.5463886866640E+00 -9.9240849317415E-01
39  3.8000000000000E-01 -3.3640763276717E-01  1.5450604993037E+00 -1.0028052683774E+00
40  3.9000000000000E-01 -4.6832293332956E-01  1.5414005770200E+00 -1.0038127701377E+00
41  4.0000000000000E-01 -5.9464822336067E-01  1.5354643439256E+00 -9.9521439040340E-01
42  4.1000000000000E-01 -7.1454401899801E-01  1.5273114737779E+00 -9.7689344236496E-01
43  4.2000000000000E-01 -8.2724554039694E-01  1.5170055683838E+00 -9.4882977879667E-01
44  4.3000000000000E-01 -9.3206535932818E-01  1.5046138411962E+00 -9.1109498090122E-01
45  4.4000000000000E-01 -1.0283951459846E+00  1.4902068098500E+00 -8.6384642124923E-01
46  4.5000000000000E-01 -1.1157066345869E+00  1.4738580010645E+00 -8.0732053580285E-01
47  4.6000000000000E-01 -1.1935519385296E+00  1.4556436709259E+00 -7.4182565664744E-01
48  4.7000000000000E-01 -1.2615633504665E+00  1.4356425430619E+00 -6.6773475798611E-01
49  4.8000000000000E-01 -1.3194527607735E+00  1.4139355666318E+00 -5.8547845290175E-01
50  4.9000000000000E-01 -1.3670108193755E+00  1.3906056954062E+00 -4.9553854775528E-01
51  5.0000000000000E-01 -1.4041059514188E+00  1.3657376885079E+00 -3.9844241594433E-01
52  5.1000000000000E-01 -1.4306833173688E+00  1.3394179326500E+00 -2.9475839481987E-01
53  5.2000000000000E-01 -1.4467637837658E+00  1.3117342849597E+00 -1.8509234116615E-01
54  5.3000000000000E-01 -1.4524429431726E+00  1.2827759347396E+00 -7.0085404620438E-02
55  5.4000000000000E-01 -1.4478901921131E+00  1.2526332818123E+00  4.9587002031411E-02
56  5.5000000000000E-01 -1.4333478454169E+00  1.2213978284421E+00  1.7321513808855E-01
57  5.6000000000000E-01 -1.4091302358143E+00  1.1891620812534E+00  3.0005395670370E-01
58  5.7000000000000E-01 -1.3756227203210E+00  1.1560194590855E+00  4.2932146641808E-01
59  5.8000000000000E-01 -1.3332804913088E+00  1.1220642023587E+00  5.6019674807569E-01
60  5.9000000000000E-01 -1.2826270714349E+00  1.0873912792923E+00  6.9181799210591E-01
61  6.0000000000000E-01 -1.2242523588992E+00  1.0520962842189E+00  8.2328095483261E-01
62  6.1000000000000E-01 -1.1588100836618E+00  1.0162753232985E+00  9.5363824829341E-01
63  6.2000000000000E-01 -1.0870145368859E+00  9.8002488313995E-01  1.0818998745928E+00
64  6.3000000000000E-01 -1.0096364452495E+00  9.4344167820211E-01  1.2070353923763E+00
65  6.4000000000000E-01 -9.2749787886265E-01  9.0662247335123E-01  1.3279780597292E+00
66  6.5000000000000E-01 -8.4146610597675E-01  8.6966387859700E-01  1.4436312356257E+00
67  6.6000000000000E-01 -7.5244633877746E-01  8.3266211379449E-01  1.5528772427605E+00
68  6.7000000000000E-01 -6.6137335133375E-01  7.9571274196950E-01  1.6545888007299E+00
69  6.8000000000000E-01 -5.6920199195627E-01  7.5891037087490E-01  1.7476430333163E+00
70  6.9000000000000E-01 -4.7689665630878E-01  7.2234832339305E-01  1.8309379408932E+00
71  7.0000000000000E-01 -3.8541983294636E-01  6.8611827843422E-01  1.9034111129372E+00
72  7.1000000000000E-01 -2.9571987774301E-01  6.5030988501658E-01  1.9640603408480E+00
73  7.2000000000000E-01 -2.0871821609997E-01  6.1501035321805E-01  2.0119656823541E+00
74  7.3000000000000E-01 -1.2529621010465E-01  5.8030402663663E-01  2.0463124302649E+00
75  7.4000000000000E-01 -4.6281960261718E-02  5.4627194185469E-01  2.0664143544725E+00
76  7.5000000000000E-01  2.7562663462588E-02  5.1299138114821E-01  2.0717365207290E+00
77  7.6000000000000E-01  9.5554449999316E-02  4.8053542529222E-01  2.0619169459696E+00
78  7.7000000000000E-01  1.5710041663932E-01  4.4897251376771E-01  2.0367863302262E+00
79  7.8000000000000E-01  2.1170820439426E-01  4.1836601996047E-01  1.9963851109420E+00
80  7.9000000000000E-01  2.5899499744980E-01  3.8877384904614E-01  1.9409771172281E+00
81  8.0000000000000E-01  2.9869468838477E-01  3.6024806617623E-01  1.8710591587154E+00
82  8.1000000000000E-01  3.3066304375529E-01  3.3283456231522E-01  1.7873659645067E+00
83  8.2000000000000E-01  3.5488066595750E-01  3.0657276463713E-01  1.6908699896232E+00
84  8.3000000000000E-01  3.7145359556554E-01  2.8149539778154E-01  1.5827757256332E+00
85  8.4000000000000E-01  3.8061145182964E-01  2.5762830151070E-01  1.4645082843489E+00
86  8.5000000000000E-01  3.8270306568274E-01  2.3499030942219E-01  1.3376961634076E+00
87  8.6000000000000E-01  3.7818961721402E-01  2.1359319237944E-01  1.2041482445427E+00
88  8.7000000000000E-01  3.6763534578392E-01  1.9344166925365E-01  1.0658252134409E+00
89  8.8000000000000E-01  3.5169595341795E-01  1.7453348645477E-01  9.2480571830016E-01
90  8.9000000000000E-01  3.3110486854201E-01  1.5685956659636E-01  7.8324769674297E-01
91  9.0000000000000E-01  3.0665757540199E-01  1.4040422552129E-01  6.4334539228836E-01
92  9.1000000000000E-01  2.7919424280078E-01  1.2514545584165E-01  5.0728264749852E-01
93  9.2000000000000E-01  2.4958090259435E-01  1.1105527414529E-01  3.7718309745600E-01
94  9.3000000000000E-01  2.1868943264417E-01  9.8100128119039E-02  2.5505789175654E-01
95  9.4000000000000E-01  1.8737659004309E-01  8.6241359055803E-02  1.4275154432892E-01
96  9.5000000000000E-01  1.5646231833547E-01  7.5435714568141E-02  4.1886448023308E-02
97  9.6000000000000E-01  1.2670751762135E-01  6.5635905836726E-02 -4.6193503609015E-02
98  9.7000000000000E-01  9.8791419861746E-02  5.6791203386644E-02 -1.2047986893205E-01
99  9.8000000000000E-01  7.3288654906425E-02  4.8848065210004E-02 -1.8035701631863E-01
100  9.9000000000000E-01  5.0646025730165E-02  4.1750791043638E-02 -2.2565989692324E-01
101  1.0000000000000E+00  3.1158984370935E-02  3.5442196565731E-02 -2.5673223879829E-01
102  1.0100000000000E+00  1.4949856968794E-02  2.9864292096866E-02 -2.7447626669569E-01
103  1.0200000000000E+00  1.9884587284748E-03  2.4958835763117E-02 -2.8022533055749E-01
104  1.0300000000000E+00 -7.8543730362508E-03  2.0668012309281E-02 -2.7550206421916E-01
105  1.0400000000000E+00 -1.4789024085324E-02  1.6935394445191E-02 -2.6195046322183E-01
106  1.0500000000000E+00 -1.9094755505222E-02  1.3706839189861E-02 -2.4129641944950E-01
107  1.0600000000000E+00 -2.1106187465866E-02  1.0931272756130E-02 -2.1530656724850E-01
108  1.0700000000000E+00 -2.1199037119345E-02  8.5613660634086E-03 -1.8574640943646E-01
109  1.0800000000000E+00 -1.9775594833497E-02  6.5541075294040E-03 -1.5433891666493E-01
110  1.0900000000000E+00 -1.7250349204735E-02  4.8712494087634E-03 -1.2272465937529E-01
111  1.1000000000000E+00 -1.4035709904924E-02  3.4792336557629E-03 -9.2423961720367E-02
112  1.1100000000000E+00 -1.0506077484552E-02  2.3394797947762E-03 -6.4767079755404E-02
113  1.1200000000000E+00 -7.0259240699361E-03  1.4318227444735E-03 -4.0920435252211E-02
114  1.1300000000000E+00 -3.9500559013327E-03  7.4880690780985E-04 -2.1887808193780E-02
115  1.1400000000000E+00 -1.5979619022720E-03  2.8588726235001E-04 -8.4695420256859E-03
116  1.1500000000000E+00 -2.4466698077088E-04  4.1857991998748E-05 -1.2454616164534E-03
117  1.1600000000000E+00  1.3694668853620E-05 -2.2677472973498E-06  6.7745014553231E-05
118  1.1700000000000E+00 -2.0949915615934E-08  3.5076561986218E-09 -1.0478169698162E-07
119  1.18 -0. -0. -0.
120  1.19  0.  0.  0.
121  1.20  0.  0.  0.
122  1.21  0.  0.  0.
123  1.22  0.  0.  0.
124  1.23  0.  0.  0.
125  1.24  0.  0.  0.
126  1.25  0.  0.  0.
127  1.26  0.  0.  0.
128  1.27  0.  0.  0.
129  1.28  0.  0.  0.
130  1.29  0.  0.  0.
131  1.30  0.  0.  0.
132  1.31  0.  0.  0.
133  1.32  0.  0.  0.
134  1.33  0.  0.  0.
135  1.34  0.  0.  0.
136  1.35  0.  0.  0.
137  1.36  0.  0.  0.
138  1.37  0.  0.  0.
139  1.38  0.  0.  0.
140  1.39  0.  0.  0.
141  1.40  0.  0.  0.
142  1.41  0.  0.  0.
143  1.42  0.  0.  0.
144  1.43  0.  0.  0.
145  1.44  0.  0.  0.
146  1.45  0.  0.  0.
147  1.46  0.  0.  0.
148  1.47  0.  0.  0.
149  1.48  0.  0.  0.
150  1.49  0.  0.  0.
151  1.50  0.  0.  0.
152  1.51  0.  0.  0.
153  1.52  0.  0.  0.
154  1.53  0.  0.  0.
155  1.54  0.  0.  0.
156  1.55  0.  0.  0.
157  1.56  0.  0.  0.
158  1.57  0.  0.  0.
159  1.58  0.  0.  0.
160  1.59  0.  0.  0.
161  1.60  0.  0.  0.
162  1.61  0.  0.  0.
163  1.62  0.  0.  0.
164  1.63  0.  0.  0.
165  1.64  0.  0.  0.
166  1.65  0.  0.  0.
167  1.66  0.  0.  0.
168  1.67  0.  0.  0.
169  1.68  0.  0.  0.
170  1.69  0.  0.  0.
171  1.70  0.  0.  0.
172  1.71  0.  0.  0.
173  1.72  0.  0.  0.
174  1.73  0.  0.  0.
175  1.74  0.  0.  0.
176  1.75  0.  0.  0.
177  1.76  0.  0.  0.
178  1.77  0.  0.  0.
179  1.78  0.  0.  0.
180  1.79  0.  0.  0.
181  1.80  0.  0.  0.
182  1.81  0.  0.  0.
183  1.82  0.  0.  0.
184  1.83  0.  0.  0.
185  1.84  0.  0.  0.
186  1.85  0.  0.  0.
187  1.86  0.  0.  0.
188  1.87  0.  0.  0.
189  1.88  0.  0.  0.
190  1.89  0.  0.  0.
191  1.90  0.  0.  0.
192  1.91  0.  0.  0.
193  1.92  0.  0.  0.
194  1.93  0.  0.  0.
195  1.94  0.  0.  0.
196  1.95  0.  0.  0.
197  1.96  0.  0.  0.
198  1.97  0.  0.  0.
199  1.98  0.  0.  0.
200  1.99  0.  0.  0.
201  2.00  0.  0.  0.
202  2.01  0.  0.  0.
203  2.02  0.  0.  0.
204  2.03  0.  0.  0.
205  2.04  0.  0.  0.
206  2.05  0.  0.  0.
207  2.06  0.  0.  0.
208  2.07  0.  0.  0.
209  2.08  0.  0.  0.
210  2.09  0.  0.  0.
211  2.10  0.  0.  0.
212  2.11  0.  0.  0.
213  2.12  0.  0.  0.
214  2.13  0.  0.  0.
215  2.14  0.  0.  0.
216  2.15  0.  0.  0.
217  2.16  0.  0.  0.
218  2.17  0.  0.  0.
219  2.18  0.  0.  0.
220  2.19  0.  0.  0.
221  2.20  0.  0.  0.
222  2.21  0.  0.  0.
223  2.22  0.  0.  0.
224  2.23  0.  0.  0.
225  2.24  0.  0.  0.
226  2.25  0.  0.  0.
227  2.26  0.  0.  0.
228  2.27  0.  0.  0.
229  2.28  0.  0.  0.
230  2.29  0.  0.  0.
231  2.30  0.  0.  0.
232  2.31  0.  0.  0.
233  2.32  0.  0.  0.
234  2.33  0.  0.  0.
235  2.34  0.  0.  0.
236  2.35  0.  0.  0.
237  2.36  0.  0.  0.
238  2.37  0.  0.  0.
239  2.38  0.  0.  0.
240  2.39  0.  0.  0.
241  2.40  0.  0.  0.
242  2.41  0.  0.  0.
243  2.42  0.  0.  0.
244  2.43  0.  0.  0.
245  2.44  0.  0.  0.
246  2.45  0.  0.  0.
247  2.46  0.  0.  0.
248  2.47  0.  0.  0.
249  2.48  0.  0.  0.
250  2.49  0.  0.  0.
251  2.50  0.  0.  0.
252  2.51  0.  0.  0.
253  2.52  0.  0.  0.
254  2.53  0.  0.  0.
255  2.54  0.  0.  0.
256  2.55  0.  0.  0.
257  2.56  0.  0.  0.
258  2.57  0.  0.  0.
259  2.58  0.  0.  0.
260  2.59  0.  0.  0.
261  2.60  0.  0.  0.
262  2.61  0.  0.  0.
263  2.62  0.  0.  0.
264  2.63  0.  0.  0.
265  2.64  0.  0.  0.
266  2.65  0.  0.  0.
267  2.66  0.  0.  0.
268  2.67  0.  0.  0.
269  2.68  0.  0.  0.
270  2.69  0.  0.  0.
271  2.70  0.  0.  0.
272  2.71  0.  0.  0.
273  2.72  0.  0.  0.
274  2.73  0.  0.  0.
275  2.74  0.  0.  0.
276  2.75  0.  0.  0.
277  2.76  0.  0.  0.
278  2.77  0.  0.  0.
279  2.78  0.  0.  0.
280  2.79  0.  0.  0.
281  2.80  0.  0.  0.
282  2.81  0.  0.  0.
283  2.82  0.  0.  0.
284  2.83  0.  0.  0.
285  2.84  0.  0.  0.
286  2.85  0.  0.  0.
287  2.86  0.  0.  0.
288  2.87  0.  0.  0.
289  2.88  0.  0.  0.
290  2.89  0.  0.  0.
291  2.90  0.  0.  0.
292  2.91  0.  0.  0.
293  2.92  0.  0.  0.
294  2.93  0.  0.  0.
295  2.94  0.  0.  0.
296  2.95  0.  0.  0.
297  2.96  0.  0.  0.
298  2.97  0.  0.  0.
299  2.98  0.  0.  0.
300  2.99  0.  0.  0.
301  3.00  0.  0.  0.
302  3.01  0.  0.  0.
303  3.02  0.  0.  0.
304  3.03  0.  0.  0.
305  3.04  0.  0.  0.
306  3.05  0.  0.  0.
307  3.06  0.  0.  0.
308  3.07  0.  0.  0.
309  3.08  0.  0.  0.
310  3.09  0.  0.  0.
311  3.10  0.  0.  0.
312  3.11  0.  0.  0.
313  3.12  0.  0.  0.
314  3.13  0.  0.  0.
315  3.14  0.  0.  0.
316  3.15  0.  0.  0.
317  3.16  0.  0.  0.
318  3.17  0.  0.  0.
319  3.18  0.  0.  0.
320  3.19  0.  0.  0.
321  3.20  0.  0.  0.
322  3.21  0.  0.  0.
323  3.22  0.  0.  0.
324  3.23  0.  0.  0.
325  3.24  0.  0.  0.
326  3.25  0.  0.  0.
327  3.26  0.  0.  0.
328  3.27  0.  0.  0.
329  3.28  0.  0.  0.
330  3.29  0.  0.  0.
331  3.30  0.  0.  0.
332  3.31  0.  0.  0.
333  3.32  0.  0.  0.
334  3.33  0.  0.  0.
335  3.34  0.  0.  0.
336  3.35  0.  0.  0.
337  3.36  0.  0.  0.
338  3.37  0.  0.  0.
339  3.38  0.  0.  0.
340  3.39  0.  0.  0.
341  3.40  0.  0.  0.
342  3.41  0.  0.  0.
343  3.42  0.  0.  0.
344  3.43  0.  0.  0.
345  3.44  0.  0.  0.
346  3.45  0.  0.  0.
347  3.46  0.  0.  0.
348  3.47  0.  0.  0.
349  3.48  0.  0.  0.
350  3.49  0.  0.  0.
351  3.50  0.  0.  0.
352  3.51  0.  0.  0.
353  3.52  0.  0.  0.
354  3.53  0.  0.  0.
355  3.54  0.  0.  0.
356  3.55  0.  0.  0.
357  3.56  0.  0.  0.
358  3.57  0.  0.  0.
359  3.58  0.  0.  0.
360  3.59  0.  0.  0.
361  3.60  0.  0.  0.
362  3.61  0.  0.  0.
363  3.62  0.  0.  0.
364  3.63  0.  0.  0.
365  3.64  0.  0.  0.
366  3.65  0.  0.  0.
367  3.66  0.  0.  0.
368  3.67  0.  0.  0.
369  3.68  0.  0.  0.
370  3.69  0.  0.  0.
371  3.70  0.  0.  0.
372  3.71  0.  0.  0.
373  3.72  0.  0.  0.
374  3.73  0.  0.  0.
375  3.74  0.  0.  0.
376  3.75  0.  0.  0.
377  3.76  0.  0.  0.
378  3.77  0.  0.  0.
379  3.78  0.  0.  0.
380  3.79  0.  0.  0.
381  3.80  0.  0.  0.
382  3.81  0.  0.  0.
383  3.82  0.  0.  0.
384  3.83  0.  0.  0.
385  3.84  0.  0.  0.
386  3.85  0.  0.  0.
387  3.86  0.  0.  0.
388  3.87  0.  0.  0.
389  3.88  0.  0.  0.
390  3.89  0.  0.  0.
391  3.90  0.  0.  0.
392  3.91  0.  0.  0.
393  3.92  0.  0.  0.
394  3.93  0.  0.  0.
395  3.94  0.  0.  0.
396  3.95  0.  0.  0.
397  3.96  0.  0.  0.
398  3.97  0.  0.  0.
399  3.98  0.  0.  0.
400  3.99  0.  0.  0.
401  4.00  0.  0.  0.
402  4.01  0.  0.  0.
403  4.02  0.  0.  0.
404  4.03  0.  0.  0.
405  4.04  0.  0.  0.
406  4.05  0.  0.  0.
407  4.06  0.  0.  0.
408  4.07  0.  0.  0.
409  4.08  0.  0.  0.
410  4.09  0.  0.  0.
411  4.10  0.  0.  0.
412  4.11  0.  0.  0.
413  4.12  0.  0.  0.
414  4.13  0.  0.  0.
415  4.14  0.  0.  0.
416  4.15  0.  0.  0.
417  4.16  0.  0.  0.
418  4.17  0.  0.  0.
419  4.18  0.  0.  0.
420  4.19  0.  0.  0.
421  4.20  0.  0.  0.
422  4.21  0.  0.  0.
423  4.22  0.  0.  0.
424  4.23  0.  0.  0.
425  4.24  0.  0.  0.
426  4.25  0.  0.  0.
427  4.26  0.  0.  0.
428  4.27  0.  0.  0.
429  4.28  0.  0.  0.
430  4.29  0.  0.  0.
431  4.30  0.  0.  0.
432  4.31  0.  0.  0.
433  4.32  0.  0.  0.
434  4.33  0.  0.  0.
435  4.34  0.  0.  0.
436  4.35  0.  0.  0.
437  4.36  0.  0.  0.
438  4.37  0.  0.  0.
439  4.38  0.  0.  0.
440  4.39  0.  0.  0.
441  4.40  0.  0.  0.
442  4.41  0.  0.  0.
443  4.42  0.  0.  0.
444  4.43  0.  0.  0.
445  4.44  0.  0.  0.
446  4.45  0.  0.  0.
447  4.46  0.  0.  0.
448  4.47  0.  0.  0.
449  4.48  0.  0.  0.
450  4.49  0.  0.  0.
451  4.50  0.  0.  0.
452  4.51  0.  0.  0.
453  4.52  0.  0.  0.
454  4.53  0.  0.  0.
455  4.54  0.  0.  0.
456  4.55  0.  0.  0.
457  4.56  0.  0.  0.
458  4.57  0.  0.  0.
459  4.58  0.  0.  0.
460  4.59  0.  0.  0.
461  4.60  0.  0.  0.
462  4.61  0.  0.  0.
463  4.62  0.  0.  0.
464  4.63  0.  0.  0.
465  4.64  0.  0.  0.
466  4.65  0.  0.  0.
467  4.66  0.  0.  0.
468  4.67  0.  0.  0.
469  4.68  0.  0.  0.
470  4.69  0.  0.  0.
471  4.70  0.  0.  0.
472  4.71  0.  0.  0.
473  4.72  0.  0.  0.
474  4.73  0.  0.  0.
475  4.74  0.  0.  0.
476  4.75  0.  0.  0.
477  4.76  0.  0.  0.
478  4.77  0.  0.  0.
479  4.78  0.  0.  0.
480  4.79  0.  0.  0.
481  4.80  0.  0.  0.
482  4.81  0.  0.  0.
483  4.82  0.  0.  0.
484  4.83  0.  0.  0.
485  4.84  0.  0.  0.
486  4.85  0.  0.  0.
487  4.86  0.  0.  0.
488  4.87  0.  0.  0.
489  4.88  0.  0.  0.
490  4.89  0.  0.  0.
491  4.90  0.  0.  0.
492  4.91  0.  0.  0.
493  4.92  0.  0.  0.
494  4.93  0.  0.  0.
495  4.94  0.  0.  0.
496  4.95  0.  0.  0.
497  4.96  0.  0.  0.
498  4.97  0.  0.  0.
499  4.98  0.  0.  0.
500  4.99  0.  0.  0.
501  5.00  0.  0.  0.
502  5.01  0.  0.  0.
503  5.02  0.  0.  0.
504  5.03  0.  0.  0.
505  5.04  0.  0.  0.
506  5.05  0.  0.  0.
507  5.06  0.  0.  0.
508  5.07  0.  0.  0.
509  5.08  0.  0.  0.
510  5.09  0.  0.  0.
511  5.10  0.  0.  0.
512  5.11  0.  0.  0.
513  5.12  0.  0.  0.
514  5.13  0.  0.  0.
515  5.14  0.  0.  0.
516  5.15  0.  0.  0.
517  5.16  0.  0.  0.
518  5.17  0.  0.  0.
519  5.18  0.  0.  0.
520  5.19  0.  0.  0.
521  5.20  0.  0.  0.
522  5.21  0.  0.  0.
523  5.22  0.  0.  0.
524  5.23  0.  0.  0.
525  5.24  0.  0.  0.
526  5.25  0.  0.  0.
527  5.26  0.  0.  0.
528  5.27  0.  0.  0.
529  5.28  0.  0.  0.
530  5.29  0.  0.  0.
531  5.30  0.  0.  0.
532  5.31  0.  0.  0.
533  5.32  0.  0.  0.
534  5.33  0.  0.  0.
535  5.34  0.  0.  0.
536  5.35  0.  0.  0.
537  5.36  0.  0.  0.
538  5.37  0.  0.  0.
539  5.38  0.  0.  0.
540  5.39  0.  0.  0.
541  5.40  0.  0.  0.
542  5.41  0.  0.  0.
543  5.42  0.  0.  0.
544  5.43  0.  0.  0.
545  5.44  0.  0.  0.
546  5.45  0.  0.  0.
547  5.46  0.  0.  0.
548  5.47  0.  0.  0.
549  5.48  0.  0.  0.
550  5.49  0.  0.  0.
551  5.50  0.  0.  0.
552  5.51  0.  0.  0.
553  5.52  0.  0.  0.
554  5.53  0.  0.  0.
555  5.54  0.  0.  0.
556  5.55  0.  0.  0.
557  5.56  0.  0.  0.
558  5.57  0.  0.  0.
559  5.58  0.  0.  0.
560  5.59  0.  0.  0.
561  5.60  0.  0.  0.
562  5.61  0.  0.  0.
563  5.62  0.  0.  0.
564  5.63  0.  0.  0.
565  5.64  0.  0.  0.
566  5.65  0.  0.  0.
567  5.66  0.  0.  0.
568  5.67  0.  0.  0.
569  5.68  0.  0.  0.
570  5.69  0.  0.  0.
571  5.70  0.  0.  0.
572  5.71  0.  0.  0.
573  5.72  0.  0.  0.
574  5.73  0.  0.  0.
575  5.74  0.  0.  0.
576  5.75  0.  0.  0.
577  5.76  0.  0.  0.
578  5.77  0.  0.  0.
579  5.78  0.  0.  0.
580  5.79  0.  0.  0.
581  5.80  0.  0.  0.
582  5.81  0.  0.  0.
583  5.82  0.  0.  0.
584  5.83  0.  0.  0.
585  5.84  0.  0.  0.
586  5.85  0.  0.  0.
587  5.86  0.  0.  0.
588  5.87  0.  0.  0.
589  5.88  0.  0.  0.
590  5.89  0.  0.  0.
591  5.90  0.  0.  0.
592  5.91  0.  0.  0.
593  5.92  0.  0.  0.
594  5.93  0.  0.  0.
595  5.94  0.  0.  0.
596  5.95  0.  0.  0.
597  5.96  0.  0.  0.
598  5.97  0.  0.  0.
599  5.98  0.  0.  0.
600  5.99  0.  0.  0.
1                        -6.4787883161743E+00  2.2435693599306E+00
1  0.0000000000000E+00  6.9568341087844E-09  2.0130111105798E-08
2  1.0000000000000E-02  2.7744049046665E-03 -2.7612368365589E-03
3  2.0000000000000E-02  1.1075124439912E-02 -1.1029542052726E-02
4  3.0000000000000E-02  2.4834932366310E-02 -2.4758458225253E-02
5  4.0000000000000E-02  4.3942645108891E-02 -4.3869765384540E-02
6  5.0000000000000E-02  6.8244397503338E-02 -6.8252343815132E-02
7  6.0000000000000E-02  9.7545400178135E-02 -9.7760678435184E-02
8  7.0000000000000E-02  1.3161215064192E-01 -1.3221309677185E-01
9  8.0000000000000E-02  1.7017506318846E-01 -1.7138985267972E-01
10  9.0000000000000E-02  2.1293147650425E-01 -2.1503118377659E-01
11  1.0000000000000E-01  2.5954899248796E-01 -2.6283548147450E-01
12  1.1000000000000E-01  3.0966909536494E-01 -3.1445771802710E-01
13  1.2000000000000E-01  3.6291099677980E-01 -3.6950827495647E-01
14  1.3000000000000E-01  4.1887565022298E-01 -4.2755231152928E-01
15  1.4000000000000E-01  4.7714987691544E-01 -4.8810980079538E-01
16  1.5000000000000E-01  5.3731054513370E-01 -5.5065634445252E-01
17  1.6000000000000E-01  5.9892874587452E-01 -6.1462485701491E-01
18  1.7000000000000E-01  6.6157390967818E-01 -6.7940818515929E-01
19  1.8000000000000E-01  7.2481781227535E-01 -7.4436270055503E-01
20  1.9000000000000E-01  7.8823842039645E-01 -8.0881287491357E-01
21  2.0000000000000E-01  8.5142353347330E-01 -8.7205681544384E-01
22  2.1000000000000E-01  9.1397418194441E-01 -9.3337270843126E-01
23  2.2000000000000E-01  9.7550774831618E-01 -9.9202608931755E-01
24  2.3000000000000E-01  1.0356607828940E+00 -1.0472778304478E+00
25  2.4000000000000E-01  1.0940914920436E+00 -1.0983927134915E+00
26  2.5000000000000E-01  1.1504818828412E+00 -1.1446484332369E+00
27  2.6000000000000E-01  1.2045395538916E+00 -1.1853448636702E+00
28  2.7000000000000E-01  1.2559991278243E+00 -1.2198134064718E+00
29  2.8000000000000E-01  1.3046233264144E+00 -1.2474262366160E+00
30  2.9000000000000E-01  1.3502036943262E+00 -1.2676052597648E+00
31  3.0000000000000E-01  1.3925609820772E+00 -1.2798306015436E+00
32  3.1000000000000E-01  1.4315452029080E+00 -1.2836484593150E+00
33  3.2000000000000E-01  1.4670353817898E+00 -1.2786781623090E+00
34  3.3000000000000E-01  1.4989390177751E+00 -1.2646183053286E+00
35  3.4000000000000E-01  1.5271912833100E+00 -1.2412518440240E+00
36  3.5000000000000E-01  1.5517539859749E+00 -1.2084500650875E+00
37  3.6000000000000E-01  1.5726143194407E+00 -1.1661753717728E+00
38  3.7000000000000E-01  1.5897834312460E+00 -1.1144828529580E+00
39  3.8000000000000E-01  1.6032948353703E+00 -1.0535206316088E+00
40  3.9000000000000E-01  1.6132026975375E+00 -9.8352901505814E-01
41  4.0000000000000E-01  1.6195800208013E+00 -9.0483849414911E-01
42  4.1000000000000E-01  1.6225167582768E+00 -8.1786666025143E-01
43  4.2000000000000E-01  1.6221178789603E+00 -7.2311412781684E-01
44  4.3000000000000E-01  1.6185014114618E+00 -6.2115956500375E-01
45  4.4000000000000E-01  1.6117964892091E+00 -5.1265394564009E-01
46  4.5000000000000E-01  1.6021414193115E+00 -3.9831414224040E-01
47  4.6000000000000E-01  1.5896817958222E+00 -2.7891598195119E-01
48  4.7000000000000E-01  1.5745686766352E+00 -1.5528688533892E-01
49  4.8000000000000E-01  1.5569568417163E+00 -2.8298202185630E-02
50  4.9000000000000E-01  1.5370031487979E+00  1.0114265061169E-01
51  5.0000000000000E-01  1.5148650010709E+00  2.3210015573382E-01
52  5.1000000000000E-01  1.4906989397837E+00  3.6361868724566E-01
53  5.2000000000000E-01  1.4646593729826E+00  4.9473046313240E-01
54  5.3000000000000E-01  1.4368974499111E+00  6.2446340974693E-01
55  5.4000000000000E-01  1.4075600887932E+00  7.5184890457472E-01
56  5.5000000000000E-01  1.3767891638561E+00  8.7592937782778E-01
57  5.6000000000000E-01  1.3447208554938E+00  9.9576576563815E-01
58  5.7000000000000E-01  1.3114851654127E+00  1.1104448173969E+00
59  5.8000000000000E-01  1.2772055964531E+00  1.2190862665534E+00
60  5.9000000000000E-01  1.2419989945356E+00  1.3208498775613E+00
61  6.0000000000000E-01  1.2059755478623E+00  1.4149423814012E+00
62  6.1000000000000E-01  1.1692389361280E+00  1.5006243081507E+00
63  6.2000000000000E-01  1.1318866200943E+00  1.5772167175214E+00
64  6.3000000000000E-01  1.0940102594972E+00  1.6441078173994E+00
65  6.4000000000000E-01  1.0556962449301E+00  1.7007594466601E+00
66  6.5000000000000E-01  1.0170263271345E+00  1.7467133824562E+00
67  6.6000000000000E-01  9.7807832509312E-01  1.7815974145203E+00
68  6.7000000000000E-01  9.3892689250891E-01  1.8051311105992E+00
69  6.8000000000000E-01  8.9964432075137E-01  1.8171311788461E+00
70  6.9000000000000E-01  8.6030135519286E-01  1.8175163157736E+00
71  7.0000000000000E-01  8.2096800112470E-01  1.8063114131617E+00
72  7.1000000000000E-01  7.8171429517007E-01  1.7836509850347E+00
73  7.2000000000000E-01  7.4261101834863E-01  1.7497816673031E+00
74  7.3000000000000E-01  7.0373032772370E-01  1.7050636386593E+00
75  7.4000000000000E-01  6.6514628489497E-01  1.6499708124057E+00
76  7.5000000000000E-01  6.2693526148969E-01  1.5850896555045E+00
77  7.6000000000000E-01  5.8917620423732E-01  1.5111165035132E+00
78  7.7000000000000E-01  5.5195074515476E-01  1.4288532582075E+00
79  7.8000000000000E-01  5.1534314576989E-01  1.3392013784049E+00
80  7.9000000000000E-01  4.7944006810243E-01  1.2431541033386E+00
81  8.0000000000000E-01  4.4433016921764E-01  1.1417868812464E+00
82  8.1000000000000E-01  4.1010352047075E-01  1.0362460127631E+00
83  8.2000000000000E-01  3.7685085695519E-01  9.2773555819267E-01
84  8.3000000000000E-01  3.4466266703493E-01  8.1750259857894E-01
85  8.4000000000000E-01  3.1362813605155E-01  7.0682098137219E-01
86  8.5000000000000E-01  2.8383396222155E-01  5.9697372101605E-01
87  8.6000000000000E-01  2.5536306624988E-01  4.8923426152194E-01
88  8.7000000000000E-01  2.2829321916297E-01  3.8484684068415E-01
89  8.8000000000000E-01  2.0269561519695E-01  2.8500622269367E-01
90  8.9000000000000E-01  1.7863341817246E-01  1.9083708636730E-01
91  9.0000000000000E-01  1.5616031057113E-01  1.0337336902218E-01
92  9.1000000000000E-01  1.3531907444957E-01  2.3537870432924E-02
93  9.2000000000000E-01  1.1614023236041E-01 -4.7877583185844E-02
94  9.3000000000000E-01  9.8640774598386E-02 -1.1023112883166E-01
95  9.4000000000000E-01  8.2822996387926E-02 -1.6304874624209E-01
96  9.5000000000000E-01  6.8673465136032E-02 -2.0604079467494E-01
97  9.6000000000000E-01  5.6162133684306E-02 -2.3911701322459E-01
98  9.7000000000000E-01  4.5241610722294E-02 -2.6239983658106E-01
99  9.8000000000000E-01  3.5846594312388E-02 -2.7623592912050E-01
100  9.9000000000000E-01  2.7893468744820E-02 -2.8120589913573E-01
101  1.0000000000000E+00  2.1280064696697E-02 -2.7813211657340E-01
102  1.0100000000000E+00  1.5885837416557E-02 -2.6807994972100E-01
103  1.0200000000000E+00  1.1577318147276E-02 -2.5226834502299E-01
104  1.0300000000000E+00  8.2170923442503E-03 -2.3193339932564E-01
105  1.0400000000000E+00  5.6678023998414E-03 -2.0829114021686E-01
106  1.0500000000000E+00  3.7951515895486E-03 -1.8251723456135E-01
107  1.0600000000000E+00  2.4707581837806E-03 -1.5572726330755E-01
108  1.0700000000000E+00  1.5748325849465E-03 -1.2895778679050E-01
109  1.0800000000000E+00  9.9864488443348E-04 -1.0314855853368E-01
110  1.0900000000000E+00  6.4676176734181E-04 -7.9125929082972E-02
111  1.1000000000000E+00  4.3921724618704E-04 -5.7583460465848E-02
112  1.1100000000000E+00  3.1621684730138E-04 -3.8974350256309E-02
113  1.1200000000000E+00  2.2994907732190E-04 -2.3738871906884E-02
114  1.1300000000000E+00  1.5128105119191E-04 -1.2214474250574E-02
115  1.1400000000000E+00  7.3976917373087E-05 -4.5344100030616E-03
116  1.1500000000000E+00  1.3806095554160E-05 -6.3760805944721E-04
117  1.1600000000000E+00 -8.7518994698376E-07  3.3432227817804E-05
118  1.1700000000000E+00  1.2681948531157E-09 -5.2490219039464E-08
119  1.18  0.  0.
120  1.19  0.  0.
121  1.20  0.  0.
122  1.21  0.  0.
123  1.22  0.  0.
124  1.23  0.  0.
125  1.24  0.  0.
126  1.25  0.  0.
127  1.26  0.  0.
128  1.27  0.  0.
129  1.28  0.  0.
130  1.29  0.  0.
131  1.30  0.  0.
132  1.31  0.  0.
133  1.32  0.  0.
134  1.33  0.  0.
135  1.34  0.  0.
136  1.35  0.  0.
137  1.36  0.  0.
138  1.37  0.  0.
139  1.38  0.  0.
140  1.39  0.  0.
141  1.40  0.  0.
142  1.41  0.  0.
143  1.42  0.  0.
144  1.43  0.  0.
145  1.44  0.  0.
146  1.45  0.  0.
147  1.46  0.  0.
148  1.47  0.  0.
149  1.48  0.  0.
150  1.49  0.  0.
151  1.50  0.  0.
152  1.51  0.  0.
153  1.52  0.  0.
154  1.53  0.  0.
155  1.54  0.  0.
156  1.55  0.  0.
157  1.56  0.  0.
158  1.57  0.  0.
159  1.58  0.  0.
160  1.59  0.  0.
161  1.60  0.  0.
162  1.61  0.  0.
163  1.62  0.  0.
164  1.63  0.  0.
165  1.64  0.  0.