Bh    ONCVPSP-4.0.1  r_core=   1.10207   1.30303   1.20554   1.20554
    107.0000     47.0000      211119    zatom,zion,pspd
     8      11   3     4   600     0    pspcod,pspxc,lmax,lloc,mmax,r2well
  5.99000000  5.00000000  0.00000000    rchrg fchrg qchrg
     3     2     2     2     0    nproj
     1     1           extension_switch
   0                         1.8673655802079E+01 -1.1817166951801E+01 -4.1466764822084E-01
     1  0.0000000000000E+00 -2.0541478962244E-08  1.1085898865559E-09  7.0512541361367E-09
     2  1.0000000000000E-02  2.1378717590589E-01  5.7580150648561E-02 -3.9724413317832E-02
     3  2.0000000000000E-02  4.2531136546742E-01  1.1513997403110E-01 -7.8810627825696E-02
     4  3.0000000000000E-02  6.3233778869489E-01  1.7265813048531E-01 -1.1663491895901E-01
     5  4.0000000000000E-02  8.3268768787868E-01  2.3011127271114E-01 -1.5260224041229E-01
     6  5.0000000000000E-02  1.0242653678698E+00  2.8747308454428E-01 -1.8615988879173E-01
     7  6.0000000000000E-02  1.2050840858982E+00  3.4471337002274E-01 -2.1681036225959E-01
     8  7.0000000000000E-02  1.3732904316300E+00  4.0179720816889E-01 -2.4412315091888E-01
     9  8.0000000000000E-02  1.5271868587084E+00  4.5868418780106E-01 -2.6774520373730E-01
    10  9.0000000000000E-02  1.6652520544381E+00  5.1532773535278E-01 -2.8740982740819E-01
    11  1.0000000000000E-01  1.7861588643719E+00  5.7167454714640E-01 -3.0294378764893E-01
    12  1.1000000000000E-01  1.8887895230650E+00  6.2766413587388E-01 -3.1427240398907E-01
    13  1.2000000000000E-01  1.9722479808538E+00  6.8322849921947E-01 -3.2142245592385E-01
    14  1.3000000000000E-01  2.0358691587676E+00  7.3829191665343E-01 -3.2452275203801E-01
    15  1.4000000000000E-01  2.0792250090852E+00  7.9277087847248E-01 -3.2380225466497E-01
    16  1.5000000000000E-01  2.1021273070263E+00  8.4657414919725E-01 -3.1958570082831E-01
    17  1.6000000000000E-01  2.1046271489079E+00  8.9960296549508E-01 -3.1228671517530E-01
    18  1.7000000000000E-01  2.0870111830499E+00  9.5175136690924E-01 -3.0239847147642E-01
    19  1.8000000000000E-01  2.0497946509211E+00  1.0029066558718E+00 -2.9048202471512E-01
    20  1.9000000000000E-01  1.9937113665613E+00  1.0529499817795E+00 -2.7715250405200E-01
    21  2.0000000000000E-01  1.9197008112553E+00  1.1017570423397E+00 -2.6306342590730E-01
    22  2.1000000000000E-01  1.8288925667635E+00  1.1491988939597E+00 -2.4888945359192E-01
    23  2.2000000000000E-01  1.7225883531869E+00  1.1951428616710E+00 -2.3530799269582E-01
    24  2.3000000000000E-01  1.6022419757813E+00  1.2394535379473E+00 -2.2298006705043E-01
    25  2.4000000000000E-01  1.4694375178816E+00  1.2819938588063E+00 -2.1253096580037E-01
    26  2.5000000000000E-01  1.3258661437398E+00  1.3226262447634E+00 -2.0453118540391E-01
    27  2.6000000000000E-01  1.1733018948592E+00  1.3612137935410E+00 -1.9947820897414E-01
    28  2.7000000000000E-01  1.0135768757928E+00  1.3976215109172E+00 -1.9777966747963E-01
    29  2.8000000000000E-01  8.4855623002257E-01  1.4317175657165E+00 -1.9973841167132E-01
    30  2.9000000000000E-01  6.8011330327806E-01  1.4633745547028E+00 -2.0553998958464E-01
    31  3.0000000000000E-01  5.1010538053707E-01  1.4924707630185E+00 -2.1524297220189E-01
    32  3.1000000000000E-01  3.4035036422075E-01  1.5188914058275E+00 -2.2877250019317E-01
    33  3.2000000000000E-01  1.7260473521562E-01  1.5425298369526E+00 -2.4591733923609E-01
    34  3.3000000000000E-01  8.5431059727131E-03  1.5632887105583E+00 -2.6633063259415E-01
    35  3.4000000000000E-01 -1.5026036310787E-01  1.5810810823117E+00 -2.8953443045111E-01
    36  3.5000000000000E-01 -3.0234845550777E-01  1.5958314369631E+00 -3.1492795955279E-01
    37  3.6000000000000E-01 -4.4639511639056E-01  1.6074766299253E+00 -3.4179947803704E-01
    38  3.7000000000000E-01 -5.8121726270318E-01  1.6159667312043E+00 -3.6934144327621E-01
    39  3.8000000000000E-01 -7.0578410154685E-01  1.6212657609388E+00 -3.9666860952657E-01
    40  3.9000000000000E-01 -8.1922392219270E-01  1.6233523068578E+00 -4.2283857156674E-01
    41  4.0000000000000E-01 -9.2082837504663E-01  1.6222200151483E+00 -4.4687418437622E-01
    42  4.1000000000000E-01 -1.0100542961366E+00  1.6178779475521E+00 -4.6778722092531E-01
    43  4.2000000000000E-01 -1.0865231772364E+00  1.6103507989668E+00 -4.8460258332749E-01
    44  4.3000000000000E-01 -1.1500184186325E+00  1.5996789714040E+00 -4.9638235920715E-01
    45  4.4000000000000E-01 -1.2004805330383E+00  1.5859185018476E+00 -5.0224901652680E-01
    46  4.5000000000000E-01 -1.2380004947203E+00  1.5691408433308E+00 -5.0140705669003E-01
    47  4.6000000000000E-01 -1.2628114471990E+00  1.5494325003967E+00 -4.9316249687556E-01
    48  4.7000000000000E-01 -1.2752789958001E+00  1.5268945219914E+00 -4.7693962662654E-01
    49  4.8000000000000E-01 -1.2758903179990E+00  1.5016418567288E+00 -4.5229457811431E-01
    50  4.9000000000000E-01 -1.2652423252115E+00  1.4738025773308E+00 -4.1892536073701E-01
    51  5.0000000000000E-01 -1.2440291049759E+00  1.4435169828435E+00 -3.7667813455999E-01
    52  5.1000000000000E-01 -1.2130288630043E+00  1.4109365889256E+00 -3.2554962873387E-01
    53  5.2000000000000E-01 -1.1730905711565E+00  1.3762230180537E+00 -2.6568574523005E-01
    54  5.3000000000000E-01 -1.1251205109199E+00  1.3395468028607E+00 -1.9737651961503E-01
    55  5.4000000000000E-01 -1.0700688833895E+00  1.3010861169789E+00 -1.2104773381366E-01
    56  5.5000000000000E-01 -1.0089166370068E+00  1.2610254486674E+00 -3.7249585834254E-02
    57  5.6000000000000E-01 -9.4266264434579E-01  1.2195542331428E+00  5.3357086292770E-02
    58  5.7000000000000E-01 -8.7231133987781E-01  1.1768654598814E+00  1.5001645840885E-01
    59  5.8000000000000E-01 -7.9886091264297E-01  1.1331542712116E+00  2.5189463780434E-01
    60  5.9000000000000E-01 -7.2329213169775E-01  1.0886165682639E+00  3.5809721053580E-01
    61  6.0000000000000E-01 -6.4655786852704E-01  1.0434476397973E+00  4.6768679192151E-01
    62  6.1000000000000E-01 -5.6957336955515E-01  9.9784082859502E-01  5.7969998776233E-01
    63  6.2000000000000E-01 -4.9320732352991E-01  9.5198624904115E-01  6.9316323307954E-01
    64  6.3000000000000E-01 -4.1827376276401E-01  9.0606956817971E-01  8.0710705677173E-01
    65  6.4000000000000E-01 -3.4552483370723E-01  8.6027086106947E-01  9.2057842079411E-01
    66  6.5000000000000E-01 -2.7564447064565E-01  8.1476354961380E-01  1.0326508965882E+00
    67  6.6000000000000E-01 -2.0924300590878E-01  7.6971343232319E-01  1.1424325641931E+00
    68  6.7000000000000E-01 -1.4685275015138E-01  7.2527781070476E-01  1.2490716449297E+00
    69  6.8000000000000E-01 -8.8924576350193E-02  6.8160471622338E-01  1.3517600007752E+00
    70  6.9000000000000E-01 -3.5825540394918E-02  6.3883224009152E-01  1.4497347465755E+00
    71  7.0000000000000E-01  1.2162431132144E-02  5.9708796656865E-01  1.5422783194835E+00
    72  7.1000000000000E-01  5.4842759813626E-02  5.5648850902682E-01  1.6287174284545E+00
    73  7.2000000000000E-01  9.2103321770903E-02  5.1713914680326E-01  1.7084213611178E+00
    74  7.3000000000000E-01  1.2391443246410E-01  4.7913355983985E-01  1.7808001527845E+00
    75  7.4000000000000E-01  1.5032571400758E-01  4.4255365732082E-01  1.8453031208558E+00
    76  7.5000000000000E-01  1.7146186538416E-01  4.0746949597142E-01  1.9014182369483E+00
    77  7.6000000000000E-01  1.8751737511504E-01  3.7393928336825E-01  1.9486727495269E+00
    78  7.7000000000000E-01  1.9875023754885E-01  3.4200946152262E-01  1.9866353840025E+00
    79  7.8000000000000E-01  2.0547475732456E-01  3.1171486610808E-01  2.0149203387639E+00
    80  7.9000000000000E-01  2.0805355092128E-01  2.8307895697928E-01  2.0331931692903E+00
    81  8.0000000000000E-01  2.0688887855822E-01  2.5611411603178E-01  2.0411785142538E+00
    82  8.1000000000000E-01  2.0241346297576E-01  2.3082200893397E-01  2.0386694740192E+00
    83  8.2000000000000E-01  1.9508097266684E-01  2.0719400777437E-01  2.0255383104504E+00
    84  8.3000000000000E-01  1.8535636478681E-01  1.8521167215721E-01  2.0017480048394E+00
    85  8.4000000000000E-01  1.7370629613437E-01  1.6484728669573E-01  1.9673640954384E+00
    86  8.5000000000000E-01  1.6058981825323E-01  1.4606445314896E-01  1.9225661243884E+00
    87  8.6000000000000E-01  1.4644957398700E-01  1.2881873557994E-01  1.8676579619260E+00
    88  8.7000000000000E-01  1.3170370706347E-01  1.1305835684789E-01  1.8030762486803E+00
    89  8.8000000000000E-01  1.1673868306235E-01  9.8724944457260E-02  1.7293962083805E+00
    90  8.9000000000000E-01  1.0190319928328E-01  8.5754323258879E-02  1.6473341355803E+00
    91  9.0000000000000E-01  8.7503332722790E-02  7.4077351729504E-02  1.5577459565649E+00
    92  9.1000000000000E-01  7.3799040047558E-02  6.3620797556200E-02  1.4616213951623E+00
    93  9.2000000000000E-01  6.1002081874791E-02  5.4308247043392E-02  1.3600734456587E+00
    94  9.3000000000000E-01  4.9275396890546E-02  4.6061041477780E-02  1.2543230576454E+00
    95  9.4000000000000E-01  3.8733900679000E-02  3.8799232075434E-02  1.1456791659477E+00
    96  9.5000000000000E-01  2.9446631110900E-02  3.2442543550588E-02  1.0355144452036E+00
    97  9.6000000000000E-01  2.1440108487038E-02  2.6911334750476E-02  9.2523742415628E-01
    98  9.7000000000000E-01  1.4702726140902E-02  2.2127543261532E-02  8.1626184986148E-01
    99  9.8000000000000E-01  9.1899377472068E-03  1.8015599479980E-02  7.0997443670849E-01
   100  9.9000000000000E-01  4.8299629825714E-03  1.4503294423199E-02  6.0770235949295E-01
   101  1.0000000000000E+00  1.5296951471925E-03  1.1522584602772E-02  5.1068204430680E-01
   102  1.0100000000000E+00 -8.1953553870469E-04  9.0103166460006E-03  4.2003096687910E-01
   103  1.0200000000000E+00 -2.3367097238730E-03  6.9088540890038E-03  3.3672427785687E-01
   104  1.0300000000000E+00 -3.1467531876742E-03  5.1665912661476E-03  2.6157812521141E-01
   105  1.0400000000000E+00 -3.3774139395031E-03  3.7383186721729E-03  1.9524150310138E-01
   106  1.0500000000000E+00 -3.1585247171780E-03  2.5845952895244E-03  1.3820197633136E-01
   107  1.0600000000000E+00 -2.6186740207579E-03  1.6639364811706E-03  9.0793975377202E-02
   108  1.0700000000000E+00 -1.8749122429222E-03  9.5580542466918E-04  5.3157090723960E-02
   109  1.0800000000000E+00 -1.0702415674403E-03  4.4847846260873E-04  2.5404923748799E-02
   110  1.0900000000000E+00 -3.7883687268922E-04  1.3296865474985E-04  7.6720129386495E-03
   111  1.1000000000000E+00 -1.9475673650933E-05  5.7737311172443E-06  3.3916858010594E-04
   112  1.1100000000000E+00 -1.3447013530303E-06  4.0035650862001E-07  2.3611283623767E-05
   113  1.1200000000000E+00  2.5344307526832E-07 -8.0595208153629E-08 -4.7158061365953E-06
   114  1.13  0.  0.  0.
   115  1.14  0.  0.  0.
   116  1.15  0.  0.  0.
   117  1.16  0.  0.  0.
   118  1.17  0.  0.  0.
   119  1.18  0.  0.  0.
   120  1.19  0.  0.  0.
   121  1.20  0.  0.  0.
   122  1.21  0.  0.  0.
   123  1.22  0.  0.  0.
   124  1.23  0.  0.  0.
   125  1.24  0.  0.  0.
   126  1.25  0.  0.  0.
   127  1.26  0.  0.  0.
   128  1.27  0.  0.  0.
   129  1.28  0.  0.  0.
   130  1.29  0.  0.  0.
   131  1.30  0.  0.  0.
   132  1.31  0.  0.  0.
   133  1.32  0.  0.  0.
   134  1.33  0.  0.  0.
   135  1.34  0.  0.  0.
   136  1.35  0.  0.  0.
   137  1.36  0.  0.  0.
   138  1.37  0.  0.  0.
   139  1.38  0.  0.  0.
   140  1.39  0.  0.  0.
   141  1.40  0.  0.  0.
   142  1.41  0.  0.  0.
   143  1.42  0.  0.  0.
   144  1.43  0.  0.  0.
   145  1.44  0.  0.  0.
   146  1.45  0.  0.  0.
   147  1.46  0.  0.  0.
   148  1.47  0.  0.  0.
   149  1.48  0.  0.  0.
   150  1.49  0.  0.  0.
   151  1.50  0.  0.  0.
   152  1.51  0.  0.  0.
   153  1.52  0.  0.  0.
   154  1.53  0.  0.  0.
   155  1.54  0.  0.  0.
   156  1.55  0.  0.  0.
   157  1.56  0.  0.  0.
   158  1.57  0.  0.  0.
   159  1.58  0.  0.  0.
   160  1.59  0.  0.  0.
   161  1.60  0.  0.  0.
   162  1.61  0.  0.  0.
   163  1.62  0.  0.  0.
   164  1.63  0.  0.  0.
   165  1.64  0.  0.  0.
   166  1.65  0.  0.  0.
   167  1.66  0.  0.  0.
   168  1.67  0.  0.  0.
   169  1.68  0.  0.  0.
   170  1.69  0.  0.  0.
   171  1.70  0.  0.  0.
   172  1.71  0.  0.  0.
   173  1.72  0.  0.  0.
   174  1.73  0.  0.  0.
   175  1.74  0.  0.  0.
   176  1.75  0.  0.  0.
   177  1.76  0.  0.  0.
   178  1.77  0.  0.  0.
   179  1.78  0.  0.  0.
   180  1.79  0.  0.  0.
   181  1.80  0.  0.  0.
   182  1.81  0.  0.  0.
   183  1.82  0.  0.  0.
   184  1.83  0.  0.  0.
   185  1.84  0.  0.  0.
   186  1.85  0.  0.  0.
   187  1.86  0.  0.  0.
   188  1.87  0.  0.  0.
   189  1.88  0.  0.  0.
   190  1.89  0.  0.  0.
   191  1.90  0.  0.  0.
   192  1.91  0.  0.  0.
   193  1.92  0.  0.  0.
   194  1.93  0.  0.  0.
   195  1.94  0.  0.  0.
   196  1.95  0.  0.  0.
   197  1.96  0.  0.  0.
   198  1.97  0.  0.  0.
   199  1.98  0.  0.  0.
   200  1.99  0.  0.  0.
   201  2.00  0.  0.  0.
   202  2.01  0.  0.  0.
   203  2.02  0.  0.  0.
   204  2.03  0.  0.  0.
   205  2.04  0.  0.  0.
   206  2.05  0.  0.  0.
   207  2.06  0.  0.  0.
   208  2.07  0.  0.  0.
   209  2.08  0.  0.  0.
   210  2.09  0.  0.  0.
   211  2.10  0.  0.  0.
   212  2.11  0.  0.  0.
   213  2.12  0.  0.  0.
   214  2.13  0.  0.  0.
   215  2.14  0.  0.  0.
   216  2.15  0.  0.  0.
   217  2.16  0.  0.  0.
   218  2.17  0.  0.  0.
   219  2.18  0.  0.  0.
   220  2.19  0.  0.  0.
   221  2.20  0.  0.  0.
   222  2.21  0.  0.  0.
   223  2.22  0.  0.  0.
   224  2.23  0.  0.  0.
   225  2.24  0.  0.  0.
   226  2.25  0.  0.  0.
   227  2.26  0.  0.  0.
   228  2.27  0.  0.  0.
   229  2.28  0.  0.  0.
   230  2.29  0.  0.  0.
   231  2.30  0.  0.  0.
   232  2.31  0.  0.  0.
   233  2.32  0.  0.  0.
   234  2.33  0.  0.  0.
   235  2.34  0.  0.  0.
   236  2.35  0.  0.  0.
   237  2.36  0.  0.  0.
   238  2.37  0.  0.  0.
   239  2.38  0.  0.  0.
   240  2.39  0.  0.  0.
   241  2.40  0.  0.  0.
   242  2.41  0.  0.  0.
   243  2.42  0.  0.  0.
   244  2.43  0.  0.  0.
   245  2.44  0.  0.  0.
   246  2.45  0.  0.  0.
   247  2.46  0.  0.  0.
   248  2.47  0.  0.  0.
   249  2.48  0.  0.  0.
   250  2.49  0.  0.  0.
   251  2.50  0.  0.  0.
   252  2.51  0.  0.  0.
   253  2.52  0.  0.  0.
   254  2.53  0.  0.  0.
   255  2.54  0.  0.  0.
   256  2.55  0.  0.  0.
   257  2.56  0.  0.  0.
   258  2.57  0.  0.  0.
   259  2.58  0.  0.  0.
   260  2.59  0.  0.  0.
   261  2.60  0.  0.  0.
   262  2.61  0.  0.  0.
   263  2.62  0.  0.  0.
   264  2.63  0.  0.  0.
   265  2.64  0.  0.  0.
   266  2.65  0.  0.  0.
   267  2.66  0.  0.  0.
   268  2.67  0.  0.  0.
   269  2.68  0.  0.  0.
   270  2.69  0.  0.  0.
   271  2.70  0.  0.  0.
   272  2.71  0.  0.  0.
   273  2.72  0.  0.  0.
   274  2.73  0.  0.  0.
   275  2.74  0.  0.  0.
   276  2.75  0.  0.  0.
   277  2.76  0.  0.  0.
   278  2.77  0.  0.  0.
   279  2.78  0.  0.  0.
   280  2.79  0.  0.  0.
   281  2.80  0.  0.  0.
   282  2.81  0.  0.  0.
   283  2.82  0.  0.  0.
   284  2.83  0.  0.  0.
   285  2.84  0.  0.  0.
   286  2.85  0.  0.  0.
   287  2.86  0.  0.  0.
   288  2.87  0.  0.  0.
   289  2.88  0.  0.  0.
   290  2.89  0.  0.  0.
   291  2.90  0.  0.  0.
   292  2.91  0.  0.  0.
   293  2.92  0.  0.  0.
   294  2.93  0.  0.  0.
   295  2.94  0.  0.  0.
   296  2.95  0.  0.  0.
   297  2.96  0.  0.  0.
   298  2.97  0.  0.  0.
   299  2.98  0.  0.  0.
   300  2.99  0.  0.  0.
   301  3.00  0.  0.  0.
   302  3.01  0.  0.  0.
   303  3.02  0.  0.  0.
   304  3.03  0.  0.  0.
   305  3.04  0.  0.  0.
   306  3.05  0.  0.  0.
   307  3.06  0.  0.  0.
   308  3.07  0.  0.  0.
   309  3.08  0.  0.  0.
   310  3.09  0.  0.  0.
   311  3.10  0.  0.  0.
   312  3.11  0.  0.  0.
   313  3.12  0.  0.  0.
   314  3.13  0.  0.  0.
   315  3.14  0.  0.  0.
   316  3.15  0.  0.  0.
   317  3.16  0.  0.  0.
   318  3.17  0.  0.  0.
   319  3.18  0.  0.  0.
   320  3.19  0.  0.  0.
   321  3.20  0.  0.  0.
   322  3.21  0.  0.  0.
   323  3.22  0.  0.  0.
   324  3.23  0.  0.  0.
   325  3.24  0.  0.  0.
   326  3.25  0.  0.  0.
   327  3.26  0.  0.  0.
   328  3.27  0.  0.  0.
   329  3.28  0.  0.  0.
   330  3.29  0.  0.  0.
   331  3.30  0.  0.  0.
   332  3.31  0.  0.  0.
   333  3.32  0.  0.  0.
   334  3.33  0.  0.  0.
   335  3.34  0.  0.  0.
   336  3.35  0.  0.  0.
   337  3.36  0.  0.  0.
   338  3.37  0.  0.  0.
   339  3.38  0.  0.  0.
   340  3.39  0.  0.  0.
   341  3.40  0.  0.  0.
   342  3.41  0.  0.  0.
   343  3.42  0.  0.  0.
   344  3.43  0.  0.  0.
   345  3.44  0.  0.  0.
   346  3.45  0.  0.  0.
   347  3.46  0.  0.  0.
   348  3.47  0.  0.  0.
   349  3.48  0.  0.  0.
   350  3.49  0.  0.  0.
   351  3.50  0.  0.  0.
   352  3.51  0.  0.  0.
   353  3.52  0.  0.  0.
   354  3.53  0.  0.  0.
   355  3.54  0.  0.  0.
   356  3.55  0.  0.  0.
   357  3.56  0.  0.  0.
   358  3.57  0.  0.  0.
   359  3.58  0.  0.  0.
   360  3.59  0.  0.  0.
   361  3.60  0.  0.  0.
   362  3.61  0.  0.  0.
   363  3.62  0.  0.  0.
   364  3.63  0.  0.  0.
   365  3.64  0.  0.  0.
   366  3.65  0.  0.  0.
   367  3.66  0.  0.  0.
   368  3.67  0.  0.  0.
   369  3.68  0.  0.  0.
   370  3.69  0.  0.  0.
   371  3.70  0.  0.  0.
   372  3.71  0.  0.  0.
   373  3.72  0.  0.  0.
   374  3.73  0.  0.  0.
   375  3.74  0.  0.  0.
   376  3.75  0.  0.  0.
   377  3.76  0.  0.  0.
   378  3.77  0.  0.  0.
   379  3.78  0.  0.  0.
   380  3.79  0.  0.  0.
   381  3.80  0.  0.  0.
   382  3.81  0.  0.  0.
   383  3.82  0.  0.  0.
   384  3.83  0.  0.  0.
   385  3.84  0.  0.  0.
   386  3.85  0.  0.  0.
   387  3.86  0.  0.  0.
   388  3.87  0.  0.  0.
   389  3.88  0.  0.  0.
   390  3.89  0.  0.  0.
   391  3.90  0.  0.  0.
   392  3.91  0.  0.  0.
   393  3.92  0.  0.  0.
   394  3.93  0.  0.  0.
   395  3.94  0.  0.  0.
   396  3.95  0.  0.  0.
   397  3.96  0.  0.  0.
   398  3.97  0.  0.  0.
   399  3.98  0.  0.  0.
   400  3.99  0.  0.  0.
   401  4.00  0.  0.  0.
   402  4.01  0.  0.  0.
   403  4.02  0.  0.  0.
   404  4.03  0.  0.  0.
   405  4.04  0.  0.  0.
   406  4.05  0.  0.  0.
   407  4.06  0.  0.  0.
   408  4.07  0.  0.  0.
   409  4.08  0.  0.  0.
   410  4.09  0.  0.  0.
   411  4.10  0.  0.  0.
   412  4.11  0.  0.  0.
   413  4.12  0.  0.  0.
   414  4.13  0.  0.  0.
   415  4.14  0.  0.  0.
   416  4.15  0.  0.  0.
   417  4.16  0.  0.  0.
   418  4.17  0.  0.  0.
   419  4.18  0.  0.  0.
   420  4.19  0.  0.  0.
   421  4.20  0.  0.  0.
   422  4.21  0.  0.  0.
   423  4.22  0.  0.  0.
   424  4.23  0.  0.  0.
   425  4.24  0.  0.  0.
   426  4.25  0.  0.  0.
   427  4.26  0.  0.  0.
   428  4.27  0.  0.  0.
   429  4.28  0.  0.  0.
   430  4.29  0.  0.  0.
   431  4.30  0.  0.  0.
   432  4.31  0.  0.  0.
   433  4.32  0.  0.  0.
   434  4.33  0.  0.  0.
   435  4.34  0.  0.  0.
   436  4.35  0.  0.  0.
   437  4.36  0.  0.  0.
   438  4.37  0.  0.  0.
   439  4.38  0.  0.  0.
   440  4.39  0.  0.  0.
   441  4.40  0.  0.  0.
   442  4.41  0.  0.  0.
   443  4.42  0.  0.  0.
   444  4.43  0.  0.  0.
   445  4.44  0.  0.  0.
   446  4.45  0.  0.  0.
   447  4.46  0.  0.  0.
   448  4.47  0.  0.  0.
   449  4.48  0.  0.  0.
   450  4.49  0.  0.  0.
   451  4.50  0.  0.  0.
   452  4.51  0.  0.  0.
   453  4.52  0.  0.  0.
   454  4.53  0.  0.  0.
   455  4.54  0.  0.  0.
   456  4.55  0.  0.  0.
   457  4.56  0.  0.  0.
   458  4.57  0.  0.  0.
   459  4.58  0.  0.  0.
   460  4.59  0.  0.  0.
   461  4.60  0.  0.  0.
   462  4.61  0.  0.  0.
   463  4.62  0.  0.  0.
   464  4.63  0.  0.  0.
   465  4.64  0.  0.  0.
   466  4.65  0.  0.  0.
   467  4.66  0.  0.  0.
   468  4.67  0.  0.  0.
   469  4.68  0.  0.  0.
   470  4.69  0.  0.  0.
   471  4.70  0.  0.  0.
   472  4.71  0.  0.  0.
   473  4.72  0.  0.  0.
   474  4.73  0.  0.  0.
   475  4.74  0.  0.  0.
   476  4.75  0.  0.  0.
   477  4.76  0.  0.  0.
   478  4.77  0.  0.  0.
   479  4.78  0.  0.  0.
   480  4.79  0.  0.  0.
   481  4.80  0.  0.  0.
   482  4.81  0.  0.  0.
   483  4.82  0.  0.  0.
   484  4.83  0.  0.  0.
   485  4.84  0.  0.  0.
   486  4.85  0.  0.  0.
   487  4.86  0.  0.  0.
   488  4.87  0.  0.  0.
   489  4.88  0.  0.  0.
   490  4.89  0.  0.  0.
   491  4.90  0.  0.  0.
   492  4.91  0.  0.  0.
   493  4.92  0.  0.  0.
   494  4.93  0.  0.  0.
   495  4.94  0.  0.  0.
   496  4.95  0.  0.  0.
   497  4.96  0.  0.  0.
   498  4.97  0.  0.  0.
   499  4.98  0.  0.  0.
   500  4.99  0.  0.  0.
   501  5.00  0.  0.  0.
   502  5.01  0.  0.  0.
   503  5.02  0.  0.  0.
   504  5.03  0.  0.  0.
   505  5.04  0.  0.  0.
   506  5.05  0.  0.  0.
   507  5.06  0.  0.  0.
   508  5.07  0.  0.  0.
   509  5.08  0.  0.  0.
   510  5.09  0.  0.  0.
   511  5.10  0.  0.  0.
   512  5.11  0.  0.  0.
   513  5.12  0.  0.  0.
   514  5.13  0.  0.  0.
   515  5.14  0.  0.  0.
   516  5.15  0.  0.  0.
   517  5.16  0.  0.  0.
   518  5.17  0.  0.  0.
   519  5.18  0.  0.  0.
   520  5.19  0.  0.  0.
   521  5.20  0.  0.  0.
   522  5.21  0.  0.  0.
   523  5.22  0.  0.  0.
   524  5.23  0.  0.  0.
   525  5.24  0.  0.  0.
   526  5.25  0.  0.  0.
   527  5.26  0.  0.  0.
   528  5.27  0.  0.  0.
   529  5.28  0.  0.  0.
   530  5.29  0.  0.  0.
   531  5.30  0.  0.  0.
   532  5.31  0.  0.  0.
   533  5.32  0.  0.  0.
   534  5.33  0.  0.  0.
   535  5.34  0.  0.  0.
   536  5.35  0.  0.  0.
   537  5.36  0.  0.  0.
   538  5.37  0.  0.  0.
   539  5.38  0.  0.  0.
   540  5.39  0.  0.  0.
   541  5.40  0.  0.  0.
   542  5.41  0.  0.  0.
   543  5.42  0.  0.  0.
   544  5.43  0.  0.  0.
   545  5.44  0.  0.  0.
   546  5.45  0.  0.  0.
   547  5.46  0.  0.  0.
   548  5.47  0.  0.  0.
   549  5.48  0.  0.  0.
   550  5.49  0.  0.  0.
   551  5.50  0.  0.  0.
   552  5.51  0.  0.  0.
   553  5.52  0.  0.  0.
   554  5.53  0.  0.  0.
   555  5.54  0.  0.  0.
   556  5.55  0.  0.  0.
   557  5.56  0.  0.  0.
   558  5.57  0.  0.  0.
   559  5.58  0.  0.  0.
   560  5.59  0.  0.  0.
   561  5.60  0.  0.  0.
   562  5.61  0.  0.  0.
   563  5.62  0.  0.  0.
   564  5.63  0.  0.  0.
   565  5.64  0.  0.  0.
   566  5.65  0.  0.  0.
   567  5.66  0.  0.  0.
   568  5.67  0.  0.  0.
   569  5.68  0.  0.  0.
   570  5.69  0.  0.  0.
   571  5.70  0.  0.  0.
   572  5.71  0.  0.  0.
   573  5.72  0.  0.  0.
   574  5.73  0.  0.  0.
   575  5.74  0.  0.  0.
   576  5.75  0.  0.  0.
   577  5.76  0.  0.  0.
   578  5.77  0.  0.  0.
   579  5.78  0.  0.  0.
   580  5.79  0.  0.  0.
   581  5.80  0.  0.  0.
   582  5.81  0.  0.  0.
   583  5.82  0.  0.  0.
   584  5.83  0.  0.  0.
   585  5.84  0.  0.  0.
   586  5.85  0.  0.  0.
   587  5.86  0.  0.  0.
   588  5.87  0.  0.  0.
   589  5.88  0.  0.  0.
   590  5.89  0.  0.  0.
   591  5.90  0.  0.  0.
   592  5.91  0.  0.  0.
   593  5.92  0.  0.  0.
   594  5.93  0.  0.  0.
   595  5.94  0.  0.  0.
   596  5.95  0.  0.  0.
   597  5.96  0.  0.  0.
   598  5.97  0.  0.  0.
   599  5.98  0.  0.  0.
   600  5.99  0.  0.  0.
   1                        -1.0209171039628E+01 -4.4502836926249E-01
     1  0.0000000000000E+00  3.0983910159765E-09 -2.2146118272559E-08
     2  1.0000000000000E-02  2.7288602395790E-03 -4.9385432297217E-03
     3  2.0000000000000E-02  1.0896362439657E-02 -1.9686569606851E-02
     4  3.0000000000000E-02  2.4445434347148E-02 -4.4042163156869E-02
     5  4.0000000000000E-02  4.3281498165132E-02 -7.7671764599143E-02
     6  5.0000000000000E-02  6.7273278498408E-02 -1.2011457869854E-01
     7  6.0000000000000E-02  9.6253921570760E-02 -1.7078865789503E-01
     8  7.0000000000000E-02  1.3002241398610E-01 -2.2899857708928E-01
     9  8.0000000000000E-02  1.6834528620728E-01 -2.9394459231596E-01
    10  9.0000000000000E-02  2.1095858301217E-01 -3.6473315547676E-01
    11  1.0000000000000E-01  2.5757008049262E-01 -4.4038863863114E-01
    12  1.1000000000000E-01  3.0786172671972E-01 -5.1986610483236E-01
    13  1.2000000000000E-01  3.6149228103826E-01 -6.0206494838650E-01
    14  1.3000000000000E-01  4.1810012509845E-01 -6.8584321590956E-01
    15  1.4000000000000E-01  4.7730621720490E-01 -7.7003241082447E-01
    16  1.5000000000000E-01  5.3871716037743E-01 -8.5345257809986E-01
    17  1.6000000000000E-01  6.0192835368674E-01 -9.3492746316195E-01
    18  1.7000000000000E-01  6.6652719595701E-01 -1.0132995390420E+00
    19  1.8000000000000E-01  7.3209631081769E-01 -1.0874446989416E+00
    20  1.9000000000000E-01  7.9821676233623E-01 -1.1562864174472E+00
    21  2.0000000000000E-01  8.6447123106204E-01 -1.2188091924950E+00
    22  2.1000000000000E-01  9.3044712124872E-01 -1.2740710917384E+00
    23  2.2000000000000E-01  9.9573957127726E-01 -1.3212152410046E+00
    24  2.3000000000000E-01  1.0599543408586E+00 -1.3594801088228E+00
    25  2.4000000000000E-01  1.1227105504212E+00 -1.3882084593054E+00
    26  2.5000000000000E-01  1.1836432501650E+00 -1.4068548656661E+00
    27  2.6000000000000E-01  1.2424057985475E+00 -1.4149916980597E+00
    28  2.7000000000000E-01  1.2986720324408E+00 -1.4123135218802E+00
    29  2.8000000000000E-01  1.3521382138076E+00 -1.3986398658114E+00
    30  2.9000000000000E-01  1.4025247404693E+00 -1.3739163424272E+00
    31  3.0000000000000E-01  1.4495776113327E+00 -1.3382141276176E+00
    32  3.1000000000000E-01  1.4930696392703E+00 -1.2917278282179E+00
    33  3.2000000000000E-01  1.5328014076748E+00 -1.2347717895850E+00
    34  3.3000000000000E-01  1.5686019694950E+00 -1.1677749161577E+00
    35  3.4000000000000E-01  1.6003292902769E+00 -1.0912740979518E+00
    36  3.5000000000000E-01  1.6278704393404E+00 -1.0059063541641E+00
    37  3.6000000000000E-01  1.6511415356974E+00 -9.1239982134918E-01
    38  3.7000000000000E-01  1.6700874576291E+00 -8.1156372775542E-01
    39  3.8000000000000E-01  1.6846813269641E+00 -7.0427750716808E-01
    40  3.9000000000000E-01  1.6949237810178E+00 -5.9147921487234E-01
    41  4.0000000000000E-01  1.7008420468476E+00 -4.7415341500238E-01
    42  4.1000000000000E-01  1.7024888339362E+00 -3.5331871253495E-01
    43  4.2000000000000E-01  1.6999410626239E+00 -2.3001510449781E-01
    44  4.3000000000000E-01  1.6932984465713E+00 -1.0529132363100E-01
    45  4.4000000000000E-01  1.6826819482382E+00  1.9807656161822E-02
    46  4.5000000000000E-01  1.6682321268187E+00  1.4425278958413E-01
    47  4.6000000000000E-01  1.6501073982808E+00  2.6704265059230E-01
    48  4.7000000000000E-01  1.6284822271302E+00  3.8721450030193E-01
    49  4.8000000000000E-01  1.6035452692661E+00  5.0385460114085E-01
    50  4.9000000000000E-01  1.5754974848340E+00  6.1610766044700E-01
    51  5.0000000000000E-01  1.5445502393258E+00  7.2318530225188E-01
    52  5.1000000000000E-01  1.5109234103486E+00  8.2437348257478E-01
    53  5.2000000000000E-01  1.4748435165047E+00  9.1903878086913E-01
    54  5.3000000000000E-01  1.4365418837093E+00  1.0066335180018E+00
    55  5.4000000000000E-01  1.3962528630588E+00  1.0866996690014E+00
    56  5.5000000000000E-01  1.3542121130494E+00  1.1588715564804E+00
    57  5.6000000000000E-01  1.3106549575850E+00  1.2228773278292E+00
    58  5.7000000000000E-01  1.2658148297996E+00  1.2785392357328E+00
    59  5.8000000000000E-01  1.2199218102935E+00  1.3257727570200E+00
    60  5.9000000000000E-01  1.1732012669578E+00  1.3645845991137E+00
    61  6.0000000000000E-01  1.1258726021537E+00  1.3950696562116E+00
    62  6.1000000000000E-01  1.0781481116422E+00  1.4174069886496E+00
    63  6.2000000000000E-01  1.0302319583466E+00  1.4318549085657E+00
    64  6.3000000000000E-01  9.8231926277252E-01  1.4387452629169E+00
    65  6.4000000000000E-01  9.3459531073789E-01  1.4384770110712E+00
    66  6.5000000000000E-01  8.8723487796897E-01  1.4315091986021E+00
    67  6.6000000000000E-01  8.4040167011980E-01  1.4183534315950E+00
    68  6.7000000000000E-01  7.9424787586379E-01  1.3995659568080E+00
    69  6.8000000000000E-01  7.4891382989679E-01  1.3757394525243E+00
    70  6.9000000000000E-01  7.0452778197821E-01  1.3474946330156E+00
    71  7.0000000000000E-01  6.6120576751920E-01  1.3154717663866E+00
    72  7.1000000000000E-01  6.1905157470199E-01  1.2803222013361E+00
    73  7.2000000000000E-01  5.7815680267692E-01  1.2426999932854E+00
    74  7.3000000000000E-01  5.3860100502840E-01  1.2032537145509E+00
    75  7.4000000000000E-01  5.0045191242107E-01  1.1626185270152E+00
    76  7.5000000000000E-01  4.6376572812607E-01  1.1214085892588E+00
    77  7.6000000000000E-01  4.2858748997658E-01  1.0802098635606E+00
    78  7.7000000000000E-01  3.9495149220499E-01  1.0395733817432E+00
    79  7.8000000000000E-01  3.6288176056262E-01  1.0000090226791E+00
    80  7.9000000000000E-01  3.3239257411139E-01  9.6197984855348E-01
    81  8.0000000000000E-01  3.0348902709717E-01  9.2589704179053E-01
    82  8.1000000000000E-01  2.7616762436233E-01  8.9211548000003E-01
    83  8.2000000000000E-01  2.5041690382443E-01  8.6092998244189E-01
    84  8.3000000000000E-01  2.2621807963622E-01  8.3257225836609E-01
    85  8.4000000000000E-01  2.0354569974439E-01  8.0720858516103E-01
    86  8.5000000000000E-01  1.8236831168145E-01  7.8493824249959E-01
    87  8.6000000000000E-01  1.6264913055329E-01  7.6579272754664E-01
    88  8.7000000000000E-01  1.4434670332623E-01  7.4973577568825E-01
    89  8.8000000000000E-01  1.2741556367170E-01  7.3666421105178E-01
    90  8.9000000000000E-01  1.1180687179627E-01  7.2640965116717E-01
    91  9.0000000000000E-01  9.7469033871070E-02  7.1874109032475E-01
    92  9.1000000000000E-01  8.4348295881900E-02  7.1336838635027E-01
    93  9.2000000000000E-01  7.2389306950769E-02  7.0994667547593E-01
    94  9.3000000000000E-01  6.1535647435916E-02  7.0808173957138E-01
    95  9.4000000000000E-01  5.1730317402596E-02  7.0733634904609E-01
    96  9.5000000000000E-01  4.2916181374380E-02  7.0723760309670E-01
    97  9.6000000000000E-01  3.5036365626615E-02  7.0728528650968E-01
    98  9.7000000000000E-01  2.8034604671545E-02  7.0696125883520E-01
    99  9.8000000000000E-01  2.1855534009800E-02  7.0573988732544E-01
   100  9.9000000000000E-01  1.6444926684986E-02  7.0309952952791E-01