Bh    ONCVPSP-4.0.1  r_core=   1.10207   1.10207   1.10207   1.20554
107.0000     47.0000      220206    zatom,zion,pspd
8      11   3     4   600     0    pspcod,pspxc,lmax,lloc,mmax,r2well
5.99000000  5.00000000  0.00000000    rchrg fchrg qchrg
3     2     2     2     0    nproj
1     1           extension_switch
0                         1.2082739815521E+01 -1.1860812569303E+01 -2.0904671789797E-01
1  0.0000000000000E+00 -4.0589389627144E-09  6.8425043409093E-11  8.3961255448184E-08
2  1.0000000000000E-02  1.8338390667415E-01  6.5982231557156E-02 -5.6365917052602E-02
3  2.0000000000000E-02  3.6502632422449E-01  1.3186455403779E-01 -1.1132130759416E-01
4  3.0000000000000E-02  5.4320495207040E-01  1.9754693763567E-01 -1.6349758447389E-01
5  4.0000000000000E-02  7.1623564836645E-01  2.6292911531101E-01 -2.1160892369535E-01
6  5.0000000000000E-02  8.8249096413587E-01  3.2791047472700E-01 -2.5449087759831E-01
7  6.0000000000000E-02  1.0404180250815E+00  3.9238996281523E-01 -2.9113572364241E-01
8  7.0000000000000E-02  1.1885555473518E+00  4.5626600711516E-01 -3.2072355739430E-01
9  8.0000000000000E-02  1.3255497775983E+00  5.1943645796392E-01 -3.4264822228097E-01
10  9.0000000000000E-02  1.4501691537429E+00  5.8179855551241E-01 -3.5653727457402E-01
11  1.0000000000000E-01  1.5613174915283E+00  6.4324892540151E-01 -3.6226531001495E-01
12  1.1000000000000E-01  1.6580455137017E+00  7.0368360674019E-01 -3.5996012813594E-01
13  1.2000000000000E-01  1.7395605540751E+00  7.6299811577574E-01 -3.5000138067591E-01
14  1.3000000000000E-01  1.8052342881186E+00  8.2108754832707E-01 -3.3301153972918E-01
15  1.4000000000000E-01  1.8546083654143E+00  8.7784672365815E-01 -3.0983922661372E-01
16  1.5000000000000E-01  1.8873978473023E+00  9.3317037199534E-01 -2.8153516006113E-01
17  1.6000000000000E-01  1.9034923852321E+00  9.8695336733702E-01 -2.4932120728903E-01
18  1.7000000000000E-01  1.9029551113010E+00  1.0390910065673E+00 -2.1455324780958E-01
19  1.8000000000000E-01  1.8860192516010E+00  1.0894793351713E+00 -1.7867878052688E-01
20  1.9000000000000E-01  1.8530825144380E+00  1.1380155190646E+00 -1.4319041206714E-01
21  2.0000000000000E-01  1.8046993481656E+00  1.1845982612054E+00 -1.0957655017922E-01
22  2.1000000000000E-01  1.7415712060514E+00  1.2291282607672E+00 -7.9270782056464E-02
23  2.2000000000000E-01  1.6645349968867E+00  1.2715087117328E+00 -5.3601535399118E-02
24  2.3000000000000E-01  1.5745499385229E+00  1.3116458368400E+00 -3.3743692409697E-02
25  2.4000000000000E-01  1.4726830657207E+00  1.3494494518988E+00 -2.0673847164665E-02
26  2.5000000000000E-01  1.3600936722481E+00  1.3848335546214E+00 -1.5130859895118E-02
27  2.6000000000000E-01  1.2380169888079E+00  1.4177169312894E+00 -1.7583264402245E-02
28  2.7000000000000E-01  1.1077474120659E+00  1.4480237738531E+00 -2.8204926102951E-02
29  2.8000000000000E-01  9.7062160500002E-01  1.4756842994357E+00 -4.6860129417008E-02
30  2.9000000000000E-01  8.2800178451713E-01  1.5006353637232E+00 -7.3098998327955E-02
31  3.0000000000000E-01  6.8125949867291E-01  1.5228210593779E+00 -1.0616382957143E-01
32  3.1000000000000E-01  5.3176017311522E-01  1.5421932904368E+00 -1.4500655315287E-01
33  3.2000000000000E-01  3.8084867519725E-01  1.5587123136554E+00 -1.8831714125032E-01
34  3.3000000000000E-01  2.2983610556102E-01  1.5723472379389E+00 -2.3456237753563E-01
35  3.4000000000000E-01  7.9987982217343E-02  1.5830764733760E+00 -2.8203398959728E-01
36  3.5000000000000E-01 -6.7486067124333E-02  1.5908881219391E+00 -3.2890475359089E-01
37  3.6000000000000E-01 -2.1144104063006E-01  1.5957803026467E+00 -3.7329081896870E-01
38  3.7000000000000E-01 -3.5080371449642E-01  1.5977614048727E+00 -4.1331818833524E-01
39  3.8000000000000E-01 -4.8457825140884E-01  1.5968502645211E+00 -4.4719103834389E-01
40  3.9000000000000E-01 -6.1185035252171E-01  1.5930762589436E+00 -4.7325939552442E-01
41  4.0000000000000E-01 -7.3179008216481E-01  1.5864793177252E+00 -4.9008359705664E-01
42  4.1000000000000E-01 -8.4365352919654E-01  1.5771098477863E+00 -4.9649297879802E-01
43  4.2000000000000E-01 -9.4678349490275E-01  1.5650285725954E+00 -4.9163634578443E-01
44  4.3000000000000E-01 -1.0406094134671E+00  1.5503062866488E+00 -4.7502199453209E-01
45  4.4000000000000E-01 -1.1246467166275E+00  1.5330235276897E+00 -4.4654536813595E-01
46  4.5000000000000E-01 -1.1984958489545E+00  1.5132701704067E+00 -4.0650282659823E-01
47  4.6000000000000E-01 -1.2618411244965E+00  1.4911449465123E+00 -3.5559049409192E-01
48  4.7000000000000E-01 -1.3144495900767E+00  1.4667548971523E+00 -2.9488768627174E-01
49  4.8000000000000E-01 -1.3561700264955E+00  1.4402147644954E+00 -2.2582500527458E-01
50  4.9000000000000E-01 -1.3869321779212E+00  1.4116463300851E+00 -1.5013779601439E-01
51  5.0000000000000E-01 -1.4067462538057E+00  1.3811777080951E+00 -6.9806261227826E-02
52  5.1000000000000E-01 -1.4157026990127E+00  1.3489426019893E+00  1.3015890061476E-02
53  5.2000000000000E-01 -1.4139721789055E+00  1.3150795332618E+00  9.6081859910680E-02
54  5.3000000000000E-01 -1.4018056794318E+00  1.2797310509110E+00  1.7713839242051E-01
55  5.4000000000000E-01 -1.3795345802131E+00  1.2430429300959E+00  2.5401541053839E-01
56  5.5000000000000E-01 -1.3475705236174E+00  1.2051633680498E+00  3.2471520972859E-01
57  5.6000000000000E-01 -1.3064048767997E+00  1.1662421847957E+00  3.8749764700055E-01
58  5.7000000000000E-01 -1.2566075684265E+00  1.1264300355498E+00  4.4095778962832E-01
59  5.8000000000000E-01 -1.1988250784695E+00  1.0858776409360E+00  4.8409265649354E-01
60  5.9000000000000E-01 -1.1337773687852E+00  1.0447350402939E+00  5.1635399507161E-01
61  6.0000000000000E-01 -1.0622535643043E+00  1.0031508724794E+00  5.3768448151599E-01
62  6.1000000000000E-01 -9.8510622910131E-01  9.6127168765719E-01  5.4853529716758E-01
63  6.2000000000000E-01 -9.0324412733577E-01  9.1924129270238E-01  5.4986370378765E-01
64  6.3000000000000E-01 -8.1762341445756E-01  8.7720013199473E-01  5.4310998859615E-01
65  6.4000000000000E-01 -7.2923726702044E-01  8.3528470462510E-01  5.3015395144043E-01
66  6.5000000000000E-01 -6.3910402741795E-01  7.9362701837207E-01  5.1325192959592E-01
67  6.6000000000000E-01 -5.4825400996542E-01  7.5235408025996E-01  4.9495616832573E-01
68  6.7000000000000E-01 -4.5771518391963E-01  7.1158742309751E-01  4.7801911413926E-01
69  6.8000000000000E-01 -3.6849801409540E-01  6.7144266712670E-01  4.6528590014202E-01
70  6.9000000000000E-01 -2.8157979759525E-01  6.3202911578981E-01  4.5957887827151E-01
71  7.0000000000000E-01 -1.9788888290908E-01  5.9344938464675E-01  4.6357850430016E-01
72  7.1000000000000E-01 -1.1828919268526E-01  5.5579906263812E-01  4.7970517544503E-01
73  7.2000000000000E-01 -4.3565491698361E-02  5.1916640517860E-01  5.1000674011686E-01
74  7.3000000000000E-01  2.5590154620278E-02  4.8363205896279E-01  5.5605633412940E-01
75  7.4000000000000E-01  8.8590299180539E-02  4.4926881884866E-01  6.1886494408351E-01
76  7.5000000000000E-01  1.4496200881124E-01  4.1614141772635E-01  6.9881266074637E-01
77  7.6000000000000E-01  1.9435438339798E-01  3.8430635085217E-01  7.9560197471543E-01
78  7.7000000000000E-01  2.3654340918587E-01  3.5381173669909E-01  9.0823570257018E-01
79  7.8000000000000E-01  2.7143393418263E-01  3.2469721691222E-01  1.0350212400165E+00
80  7.9000000000000E-01  2.9905864200725E-01  2.9699389843012E-01  1.1736018511012E+00
81  8.0000000000000E-01  3.1957399682869E-01  2.7072434120836E-01  1.3210146562510E+00
82  8.1000000000000E-01  3.3325323261127E-01  2.4590259523377E-01  1.4737739169644E+00
83  8.2000000000000E-01  3.4047656080590E-01  2.2253429061991E-01  1.6279771738794E+00
84  8.3000000000000E-01  3.4171886784844E-01  2.0061678450831E-01  1.7794308202918E+00
85  8.4000000000000E-01  3.3753526332314E-01  1.8013936824920E-01  1.9237908263444E+00
86  8.5000000000000E-01  3.2854491759238E-01  1.6108353789250E-01  2.0567136082802E+00
87  8.6000000000000E-01  3.1541369062436E-01  1.4342333038118E-01  2.1740114958450E+00
88  8.7000000000000E-01  2.9883609872961E-01  1.2712572701076E-01  2.2718069164044E+00
89  8.8000000000000E-01  2.7951719066103E-01  1.1215112471032E-01  2.3466793063852E+00
90  8.9000000000000E-01  2.5815490752944E-01  9.8453874532053E-02  2.3957988905404E+00
91  9.0000000000000E-01  2.3542348157653E-01  8.5982885431477E-02  2.4170418393279E+00
92  9.1000000000000E-01  2.1195838726771E-01  7.4682290010555E-02  2.4090819169784E+00
93  9.2000000000000E-01  1.8834329557078E-01  6.4492167416041E-02  2.3714545506738E+00
94  9.3000000000000E-01  1.6509940069827E-01  5.5349317076169E-02  2.3045902588417E+00
95  9.4000000000000E-01  1.4267739089023E-01  4.7188075463027E-02  2.2098155394704E+00
96  9.5000000000000E-01  1.2145222451649E-01  3.9941166629980E-02  2.0893205970090E+00
97  9.6000000000000E-01  1.0172075409658E-01  3.3540575939541E-02  1.9460946314555E+00
98  9.7000000000000E-01  8.3702118293365E-02  2.7918435210690E-02  1.7838307757848E+00
99  9.8000000000000E-01  6.7540700372967E-02  2.3007906518198E-02  1.6068040952824E+00
100  9.9000000000000E-01  5.3311335893993E-02  1.8744051108080E-02  1.4197273026303E+00
101  1.0000000000000E+00  4.1026347134580E-02  1.5064669385880E-02  1.2275899464945E+00
102  1.0100000000000E+00  3.0643891411189E-02  1.1911097715331E-02  1.0354877526632E+00
103  1.0200000000000E+00  2.2077038725473E-02  9.2289478526831E-03  8.4844949703014E-01
104  1.0300000000000E+00  1.5202945490048E-02  6.9687775380946E-03  6.7126922770944E-01
105  1.0400000000000E+00  9.8714834714823E-03  5.0866597447246E-03  5.0835179271393E-01
106  1.0500000000000E+00  5.9119118874395E-03  3.5438441775785E-03  3.6358438902662E-01
107  1.0600000000000E+00  3.1423889455729E-03  2.2991395240130E-03  2.4023072914606E-01
108  1.0700000000000E+00  1.3853025088575E-03  1.3316616388786E-03  1.4076077013770E-01
109  1.0800000000000E+00  4.3580118937253E-04  6.3045306650533E-04  6.6982651386118E-02
110  1.0900000000000E+00  6.0827280697639E-05  1.8874854051240E-04  2.0034228305321E-02
111  1.1000000000000E+00 -7.1639458628500E-07  8.2835735359062E-06  8.7209788640197E-04
112  1.1100000000000E+00 -3.7585855858822E-08  5.7473011837079E-07  6.0784096814036E-05
113  1.1200000000000E+00 -1.1478251002159E-08 -1.1518538909968E-07 -1.2210884602760E-05
114  1.13  0.  0.  0.
115  1.14  0.  0.  0.
116  1.15  0.  0.  0.
117  1.16  0.  0.  0.
118  1.17  0.  0.  0.
119  1.18  0.  0.  0.
120  1.19  0.  0.  0.
121  1.20  0.  0.  0.
122  1.21  0.  0.  0.
123  1.22  0.  0.  0.
124  1.23  0.  0.  0.
125  1.24  0.  0.  0.
126  1.25  0.  0.  0.
127  1.26  0.  0.  0.
128  1.27  0.  0.  0.
129  1.28  0.  0.  0.
130  1.29  0.  0.  0.
131  1.30  0.  0.  0.
132  1.31  0.  0.  0.
133  1.32  0.  0.  0.
134  1.33  0.  0.  0.
135  1.34  0.  0.  0.
136  1.35  0.  0.  0.
137  1.36  0.  0.  0.
138  1.37  0.  0.  0.
139  1.38  0.  0.  0.
140  1.39  0.  0.  0.
141  1.40  0.  0.  0.
142  1.41  0.  0.  0.
143  1.42  0.  0.  0.
144  1.43  0.  0.  0.
145  1.44  0.  0.  0.
146  1.45  0.  0.  0.
147  1.46  0.  0.  0.
148  1.47  0.  0.  0.
149  1.48  0.  0.  0.
150  1.49  0.  0.  0.
151  1.50  0.  0.  0.
152  1.51  0.  0.  0.
153  1.52  0.  0.  0.
154  1.53  0.  0.  0.
155  1.54  0.  0.  0.
156  1.55  0.  0.  0.
157  1.56  0.  0.  0.
158  1.57  0.  0.  0.
159  1.58  0.  0.  0.
160  1.59  0.  0.  0.
161  1.60  0.  0.  0.
162  1.61  0.  0.  0.
163  1.62  0.  0.  0.
164  1.63  0.  0.  0.
165  1.64  0.  0.  0.
166  1.65  0.  0.  0.
167  1.66  0.  0.  0.
168  1.67  0.  0.  0.
169  1.68  0.  0.  0.
170  1.69  0.  0.  0.
171  1.70  0.  0.  0.
172  1.71  0.  0.  0.
173  1.72  0.  0.  0.
174  1.73  0.  0.  0.
175  1.74  0.  0.  0.
176  1.75  0.  0.  0.
177  1.76  0.  0.  0.
178  1.77  0.  0.  0.
179  1.78  0.  0.  0.
180  1.79  0.  0.  0.
181  1.80  0.  0.  0.
182  1.81  0.  0.  0.
183  1.82  0.  0.  0.
184  1.83  0.  0.  0.
185  1.84  0.  0.  0.
186  1.85  0.  0.  0.
187  1.86  0.  0.  0.
188  1.87  0.  0.  0.
189  1.88  0.  0.  0.
190  1.89  0.  0.  0.
191  1.90  0.  0.  0.
192  1.91  0.  0.  0.
193  1.92  0.  0.  0.
194  1.93  0.  0.  0.
195  1.94  0.  0.  0.
196  1.95  0.  0.  0.
197  1.96  0.  0.  0.
198  1.97  0.  0.  0.
199  1.98  0.  0.  0.
200  1.99  0.  0.  0.
201  2.00  0.  0.  0.
202  2.01  0.  0.  0.
203  2.02  0.  0.  0.
204  2.03  0.  0.  0.
205  2.04  0.  0.  0.
206  2.05  0.  0.  0.
207  2.06  0.  0.  0.
208  2.07  0.  0.  0.
209  2.08  0.  0.  0.
210  2.09  0.  0.  0.
211  2.10  0.  0.  0.
212  2.11  0.  0.  0.
213  2.12  0.  0.  0.
214  2.13  0.  0.  0.
215  2.14  0.  0.  0.
216  2.15  0.  0.  0.
217  2.16  0.  0.  0.
218  2.17  0.  0.  0.
219  2.18  0.  0.  0.
220  2.19  0.  0.  0.
221  2.20  0.  0.  0.
222  2.21  0.  0.  0.
223  2.22  0.  0.  0.
224  2.23  0.  0.  0.
225  2.24  0.  0.  0.
226  2.25  0.  0.  0.
227  2.26  0.  0.  0.
228  2.27  0.  0.  0.
229  2.28  0.  0.  0.
230  2.29  0.  0.  0.
231  2.30  0.  0.  0.
232  2.31  0.  0.  0.
233  2.32  0.  0.  0.
234  2.33  0.  0.  0.
235  2.34  0.  0.  0.
236  2.35  0.  0.  0.
237  2.36  0.  0.  0.
238  2.37  0.  0.  0.
239  2.38  0.  0.  0.
240  2.39  0.  0.  0.
241  2.40  0.  0.  0.
242  2.41  0.  0.  0.
243  2.42  0.  0.  0.
244  2.43  0.  0.  0.
245  2.44  0.  0.  0.
246  2.45  0.  0.  0.
247  2.46  0.  0.  0.
248  2.47  0.  0.  0.
249  2.48  0.  0.  0.
250  2.49  0.  0.  0.
251  2.50  0.  0.  0.
252  2.51  0.  0.  0.
253  2.52  0.  0.  0.
254  2.53  0.  0.  0.
255  2.54  0.  0.  0.
256  2.55  0.  0.  0.
257  2.56  0.  0.  0.
258  2.57  0.  0.  0.
259  2.58  0.  0.  0.
260  2.59  0.  0.  0.
261  2.60  0.  0.  0.
262  2.61  0.  0.  0.
263  2.62  0.  0.  0.
264  2.63  0.  0.  0.
265  2.64  0.  0.  0.
266  2.65  0.  0.  0.
267  2.66  0.  0.  0.
268  2.67  0.  0.  0.
269  2.68  0.  0.  0.
270  2.69  0.  0.  0.
271  2.70  0.  0.  0.
272  2.71  0.  0.  0.
273  2.72  0.  0.  0.
274  2.73  0.  0.  0.
275  2.74  0.  0.  0.
276  2.75  0.  0.  0.
277  2.76  0.  0.  0.
278  2.77  0.  0.  0.
279  2.78  0.  0.  0.
280  2.79  0.  0.  0.
281  2.80  0.  0.  0.
282  2.81  0.  0.  0.
283  2.82  0.  0.  0.
284  2.83  0.  0.  0.
285  2.84  0.  0.  0.
286  2.85  0.  0.  0.
287  2.86  0.  0.  0.
288  2.87  0.  0.  0.
289  2.88  0.  0.  0.
290  2.89  0.  0.  0.
291  2.90  0.  0.  0.
292  2.91  0.  0.  0.
293  2.92  0.  0.  0.
294  2.93  0.  0.  0.
295  2.94  0.  0.  0.
296  2.95  0.  0.  0.
297  2.96  0.  0.  0.
298  2.97  0.  0.  0.
299  2.98  0.  0.  0.
300  2.99  0.  0.  0.
301  3.00  0.  0.  0.
302  3.01  0.  0.  0.
303  3.02  0.  0.  0.
304  3.03  0.  0.  0.
305  3.04  0.  0.  0.
306  3.05  0.  0.  0.
307  3.06  0.  0.  0.
308  3.07  0.  0.  0.
309  3.08  0.  0.  0.
310  3.09  0.  0.  0.
311  3.10  0.  0.  0.
312  3.11  0.  0.  0.
313  3.12  0.  0.  0.
314  3.13  0.  0.  0.
315  3.14  0.  0.  0.
316  3.15  0.  0.  0.
317  3.16  0.  0.  0.
318  3.17  0.  0.  0.
319  3.18  0.  0.  0.
320  3.19  0.  0.  0.
321  3.20  0.  0.  0.
322  3.21  0.  0.  0.
323  3.22  0.  0.  0.
324  3.23  0.  0.  0.
325  3.24  0.  0.  0.
326  3.25  0.  0.  0.
327  3.26  0.  0.  0.
328  3.27  0.  0.  0.
329  3.28  0.  0.  0.
330  3.29  0.  0.  0.
331  3.30  0.  0.  0.
332  3.31  0.  0.  0.
333  3.32  0.  0.  0.
334  3.33  0.  0.  0.
335  3.34  0.  0.  0.
336  3.35  0.  0.  0.
337  3.36  0.  0.  0.
338  3.37  0.  0.  0.
339  3.38  0.  0.  0.
340  3.39  0.  0.  0.
341  3.40  0.  0.  0.
342  3.41  0.  0.  0.
343  3.42  0.  0.  0.
344  3.43  0.  0.  0.
345  3.44  0.  0.  0.
346  3.45  0.  0.  0.
347  3.46  0.  0.  0.
348  3.47  0.  0.  0.
349  3.48  0.  0.  0.
350  3.49  0.  0.  0.
351  3.50  0.  0.  0.
352  3.51  0.  0.  0.
353  3.52  0.  0.  0.
354  3.53  0.  0.  0.
355  3.54  0.  0.  0.
356  3.55  0.  0.  0.
357  3.56  0.  0.  0.
358  3.57  0.  0.  0.
359  3.58  0.  0.  0.
360  3.59  0.  0.  0.
361  3.60  0.  0.  0.
362  3.61  0.  0.  0.
363  3.62  0.  0.  0.
364  3.63  0.  0.  0.
365  3.64  0.  0.  0.
366  3.65  0.  0.  0.
367  3.66  0.  0.  0.
368  3.67  0.  0.  0.
369  3.68  0.  0.  0.
370  3.69  0.  0.  0.
371  3.70  0.  0.  0.
372  3.71  0.  0.  0.
373  3.72  0.  0.  0.
374  3.73  0.  0.  0.
375  3.74  0.  0.  0.
376  3.75  0.  0.  0.
377  3.76  0.  0.  0.
378  3.77  0.  0.  0.
379  3.78  0.  0.  0.
380  3.79  0.  0.  0.
381  3.80  0.  0.  0.
382  3.81  0.  0.  0.
383  3.82  0.  0.  0.
384  3.83  0.  0.  0.
385  3.84  0.  0.  0.
386  3.85  0.  0.  0.
387  3.86  0.  0.  0.
388  3.87  0.  0.  0.
389  3.88  0.  0.  0.
390  3.89  0.  0.  0.
391  3.90  0.  0.  0.
392  3.91  0.  0.  0.
393  3.92  0.  0.  0.
394  3.93  0.  0.  0.
395  3.94  0.  0.  0.
396  3.95  0.  0.  0.
397  3.96  0.  0.  0.
398  3.97  0.  0.  0.
399  3.98  0.  0.  0.
400  3.99  0.  0.  0.
401  4.00  0.  0.  0.
402  4.01  0.  0.  0.
403  4.02  0.  0.  0.
404  4.03  0.  0.  0.
405  4.04  0.  0.  0.
406  4.05  0.  0.  0.
407  4.06  0.  0.  0.
408  4.07  0.  0.  0.
409  4.08  0.  0.  0.
410  4.09  0.  0.  0.
411  4.10  0.  0.  0.
412  4.11  0.  0.  0.
413  4.12  0.  0.  0.
414  4.13  0.  0.  0.
415  4.14  0.  0.  0.
416  4.15  0.  0.  0.
417  4.16  0.  0.  0.
418  4.17  0.  0.  0.
419  4.18  0.  0.  0.
420  4.19  0.  0.  0.
421  4.20  0.  0.  0.
422  4.21  0.  0.  0.
423  4.22  0.  0.  0.
424  4.23  0.  0.  0.
425  4.24  0.  0.  0.
426  4.25  0.  0.  0.
427  4.26  0.  0.  0.
428  4.27  0.  0.  0.
429  4.28  0.  0.  0.
430  4.29  0.  0.  0.
431  4.30  0.  0.  0.
432  4.31  0.  0.  0.
433  4.32  0.  0.  0.
434  4.33  0.  0.  0.
435  4.34  0.  0.  0.
436  4.35  0.  0.  0.
437  4.36  0.  0.  0.
438  4.37  0.  0.  0.
439  4.38  0.  0.  0.
440  4.39  0.  0.  0.
441  4.40  0.  0.  0.
442  4.41  0.  0.  0.
443  4.42  0.  0.  0.
444  4.43  0.  0.  0.
445  4.44  0.  0.  0.
446  4.45  0.  0.  0.
447  4.46  0.  0.  0.
448  4.47  0.  0.  0.
449  4.48  0.  0.  0.
450  4.49  0.  0.  0.
451  4.50  0.  0.  0.
452  4.51  0.  0.  0.
453  4.52  0.  0.  0.
454  4.53  0.  0.  0.
455  4.54  0.  0.  0.
456  4.55  0.  0.  0.
457  4.56  0.  0.  0.
458  4.57  0.  0.  0.
459  4.58  0.  0.  0.
460  4.59  0.  0.  0.
461  4.60  0.  0.  0.
462  4.61  0.  0.  0.
463  4.62  0.  0.  0.
464  4.63  0.  0.  0.
465  4.64  0.  0.  0.
466  4.65  0.  0.  0.
467  4.66  0.  0.  0.
468  4.67  0.  0.  0.
469  4.68  0.  0.  0.
470  4.69  0.  0.  0.
471  4.70  0.  0.  0.
472  4.71  0.  0.  0.
473  4.72  0.  0.  0.
474  4.73  0.  0.  0.
475  4.74  0.  0.  0.
476  4.75  0.  0.  0.
477  4.76  0.  0.  0.
478  4.77  0.  0.  0.
479  4.78  0.  0.  0.
480  4.79  0.  0.  0.
481  4.80  0.  0.  0.
482  4.81  0.  0.  0.
483  4.82  0.  0.  0.
484  4.83  0.  0.  0.
485  4.84  0.  0.  0.
486  4.85  0.  0.  0.
487  4.86  0.  0.  0.
488  4.87  0.  0.  0.
489  4.88  0.  0.  0.
490  4.89  0.  0.  0.
491  4.90  0.  0.  0.
492  4.91  0.  0.  0.
493  4.92  0.  0.  0.
494  4.93  0.  0.  0.
495  4.94  0.  0.  0.
496  4.95  0.  0.  0.
497  4.96  0.  0.  0.
498  4.97  0.  0.  0.
499  4.98  0.  0.  0.
500  4.99  0.  0.  0.
501  5.00  0.  0.  0.
502  5.01  0.  0.  0.
503  5.02  0.  0.  0.
504  5.03  0.  0.  0.
505  5.04  0.  0.  0.
506  5.05  0.  0.  0.
507  5.06  0.  0.  0.
508  5.07  0.  0.  0.
509  5.08  0.  0.  0.
510  5.09  0.  0.  0.
511  5.10  0.  0.  0.
512  5.11  0.  0.  0.
513  5.12  0.  0.  0.
514  5.13  0.  0.  0.
515  5.14  0.  0.  0.
516  5.15  0.  0.  0.
517  5.16  0.  0.  0.
518  5.17  0.  0.  0.
519  5.18  0.  0.  0.
520  5.19  0.  0.  0.
521  5.20  0.  0.  0.
522  5.21  0.  0.  0.
523  5.22  0.  0.  0.
524  5.23  0.  0.  0.
525  5.24  0.  0.  0.
526  5.25  0.  0.  0.
527  5.26  0.  0.  0.
528  5.27  0.  0.  0.
529  5.28  0.  0.  0.
530  5.29  0.  0.  0.
531  5.30  0.  0.  0.
532  5.31  0.  0.  0.
533  5.32  0.  0.  0.
534  5.33  0.  0.  0.
535  5.34  0.  0.  0.
536  5.35  0.  0.  0.
537  5.36  0.  0.  0.
538  5.37  0.  0.  0.
539  5.38  0.  0.  0.
540  5.39  0.  0.  0.
541  5.40  0.  0.  0.
542  5.41  0.  0.  0.
543  5.42  0.  0.  0.
544  5.43  0.  0.  0.
545  5.44  0.  0.  0.
546  5.45  0.  0.  0.
547  5.46  0.  0.  0.
548  5.47  0.  0.  0.
549  5.48  0.  0.  0.
550  5.49  0.  0.  0.
551  5.50  0.  0.  0.
552  5.51  0.  0.  0.
553  5.52  0.  0.  0.
554  5.53  0.  0.  0.
555  5.54  0.  0.  0.
556  5.55  0.  0.  0.
557  5.56  0.  0.  0.
558  5.57  0.  0.  0.
559  5.58  0.  0.  0.
560  5.59  0.  0.  0.
561  5.60  0.  0.  0.
562  5.61  0.  0.  0.
563  5.62  0.  0.  0.
564  5.63  0.  0.  0.
565  5.64  0.  0.  0.
566  5.65  0.  0.  0.
567  5.66  0.  0.  0.
568  5.67  0.  0.  0.
569  5.68  0.  0.  0.
570  5.69  0.  0.  0.
571  5.70  0.  0.  0.
572  5.71  0.  0.  0.
573  5.72  0.  0.  0.
574  5.73  0.  0.  0.
575  5.74  0.  0.  0.
576  5.75  0.  0.  0.
577  5.76  0.  0.  0.
578  5.77  0.  0.  0.
579  5.78  0.  0.  0.
580  5.79  0.  0.  0.
581  5.80  0.  0.  0.
582  5.81  0.  0.  0.
583  5.82  0.  0.  0.
584  5.83  0.  0.  0.
585  5.84  0.  0.  0.
586  5.85  0.  0.  0.
587  5.86  0.  0.  0.
588  5.87  0.  0.  0.
589  5.88  0.  0.  0.
590  5.89  0.  0.  0.
591  5.90  0.  0.  0.
592  5.91  0.  0.  0.
593  5.92  0.  0.  0.
594  5.93  0.  0.  0.
595  5.94  0.  0.  0.
596  5.95  0.  0.  0.
597  5.96  0.  0.  0.
598  5.97  0.  0.  0.
599  5.98  0.  0.  0.
600  5.99  0.  0.  0.
1                        -1.0119010163305E+01 -3.8661266037726E-01
1  0.0000000000000E+00  1.0132552047404E-08 -5.2708140735325E-07
2  1.0000000000000E-02  2.6766451690343E-03 -7.3274382867727E-03
3  2.0000000000000E-02  1.0686136570104E-02 -2.9069825192551E-02
4  3.0000000000000E-02  2.3967413374793E-02 -6.4516681614658E-02
5  4.0000000000000E-02  4.2419605456171E-02 -1.1251450278567E-01
6  5.0000000000000E-02  6.5903355871771E-02 -1.7151135460058E-01
7  6.0000000000000E-02  9.4242624471614E-02 -2.3961667868687E-01
8  7.0000000000000E-02  1.2722692688780E-01 -3.1467381101636E-01
9  8.0000000000000E-02  1.6461395302963E-01 -3.9434219177600E-01
10  9.0000000000000E-02  2.0613250111126E-01 -4.7618584555127E-01
11  1.0000000000000E-01  2.5148565745291E-01 -5.5776445756775E-01
12  1.1000000000000E-01  3.0035414900218E-01 -6.3672327454419E-01
13  1.2000000000000E-01  3.5239979479909E-01 -7.1087812175702E-01
14  1.3000000000000E-01  4.0726898443181E-01 -7.7829204851069E-01
15  1.4000000000000E-01  4.6459611577196E-01 -8.3734048295194E-01
16  1.5000000000000E-01  5.2400693071547E-01 -8.8676227835407E-01
17  1.6000000000000E-01  5.8512169597403E-01 -9.2569464527639E-01
18  1.7000000000000E-01  6.4755818578065E-01 -9.5369066127447E-01
19  1.8000000000000E-01  7.1093443424715E-01 -9.7071880236039E-01
20  1.9000000000000E-01  7.7487123656366E-01 -9.7714471606089E-01
21  2.0000000000000E-01  8.3899438976262E-01 -9.7369622154875E-01
22  2.1000000000000E-01  9.0293667488992E-01 -9.6141324515561E-01
23  2.2000000000000E-01  9.6633959266488E-01 -9.4158504861123E-01
24  2.3000000000000E-01  1.0288548736453E+00 -9.1567765467789E-01
25  2.4000000000000E-01  1.0901457911822E+00 -8.8525479680831E-01
26  2.5000000000000E-01  1.1498883107667E+00 -8.5189599769028E-01
27  2.6000000000000E-01  1.2077721125455E+00 -8.1711550374645E-01
28  2.7000000000000E-01  1.2635015247124E+00 -7.8228576314348E-01
29  2.8000000000000E-01  1.3167964041776E+00 -7.4856893479048E-01
30  2.9000000000000E-01  1.3673929974778E+00 -7.1685956317051E-01
31  3.0000000000000E-01  1.4150448095175E+00 -6.8774106315793E-01
32  3.1000000000000E-01  1.4595235007181E+00 -6.6145805066217E-01
33  3.2000000000000E-01  1.5006198248536E+00 -6.3790585452458E-01
34  3.3000000000000E-01  1.5381446106930E+00 -6.1663778213095E-01
35  3.4000000000000E-01  1.5719297810136E+00 -5.9688991804849E-01
36  3.5000000000000E-01  1.6018293930742E+00 -5.7762244547241E-01
37  3.6000000000000E-01  1.6277206757269E+00 -5.5757572825263E-01
38  3.7000000000000E-01  1.6495050304579E+00 -5.3533870927177E-01
39  3.8000000000000E-01  1.6671089572011E+00 -5.0942659874183E-01
40  3.9000000000000E-01  1.6804848611174E+00 -4.7836436936823E-01
41  4.0000000000000E-01  1.6896116939621E+00 -4.4077226499438E-01
42  4.1000000000000E-01  1.6944953833561E+00 -3.9544938000991E-01
43  4.2000000000000E-01  1.6951690053369E+00 -3.4145138655856E-01
44  4.3000000000000E-01  1.6916926599691E+00 -2.7815867649296E-01
45  4.4000000000000E-01  1.6841530164351E+00 -2.0533153903976E-01
46  4.5000000000000E-01  1.6726625026822E+00 -1.2314950030544E-01
47  4.6000000000000E-01  1.6573581250641E+00 -3.2232587661181E-02
48  4.7000000000000E-01  1.6383999150908E+00  6.6356974394854E-02
49  4.8000000000000E-01  1.6159690129362E+00  1.7113330990069E-01
50  4.9000000000000E-01  1.5902654102362E+00  2.8022548772280E-01
51  5.0000000000000E-01  1.5615053874175E+00  3.9143510572129E-01
52  5.1000000000000E-01  1.5299186927836E+00  5.0231095652668E-01
53  5.2000000000000E-01  1.4957455213310E+00  6.1023808911137E-01
54  5.3000000000000E-01  1.4592333602952E+00  7.1253789818744E-01
55  5.4000000000000E-01  1.4206337753030E+00  8.0657531859958E-01
56  5.5000000000000E-01  1.3801992153963E+00  8.8986879941363E-01
57  5.6000000000000E-01  1.3381799168361E+00  9.6019850155101E-01
58  5.7000000000000E-01  1.2948209843442E+00  1.0157081160969E+00
59  5.8000000000000E-01  1.2503597242708E+00  1.0549958430192E+00
60  5.9000000000000E-01  1.2050232971542E+00  1.0771903995746E+00
61  6.0000000000000E-01  1.1590267474837E+00  1.0820084341323E+00
62  6.1000000000000E-01  1.1125714564751E+00  1.0697903872032E+00
63  6.2000000000000E-01  1.0658440497487E+00  1.0415126430785E+00
64  6.3000000000000E-01  1.0190157764377E+00  9.9877472279296E-01
65  6.4000000000000E-01  9.7224236002656E-01  9.4376124750063E-01
66  6.5000000000000E-01  9.2566430472250E-01  8.7917941275979E-01
67  6.6000000000000E-01  8.7940762503124E-01  8.0817371866963E-01
68  6.7000000000000E-01  8.3358495107466E-01  7.3422065783628E-01
69  6.8000000000000E-01  7.8829694865210E-01  6.6100693362061E-01
70  6.9000000000000E-01  7.4363398166563E-01  5.9229552851786E-01
71  7.0000000000000E-01  6.9967793578241E-01  5.3178453467484E-01
72  7.1000000000000E-01  6.5650411648306E-01  4.8296406883756E-01
73  7.2000000000000E-01  6.1418313222076E-01  4.4897680254218E-01
74  7.3000000000000E-01  5.7278267444712E-01  4.3248763287232E-01
75  7.4000000000000E-01  5.3236911076933E-01  4.3556779552532E-01
76  7.5000000000000E-01  4.9300881537828E-01  4.5959828480318E-01
77  7.6000000000000E-01  4.5476917188135E-01  5.0519680740956E-01
78  7.7000000000000E-01  4.1771919741656E-01  5.7217167969594E-01
79  7.8000000000000E-01  3.8192975292778E-01  6.5950510984784E-01
80  7.9000000000000E-01  3.4747332215992E-01  7.6536722239068E-01
81  8.0000000000000E-01  3.1442336062622E-01  8.8716102253243E-01
82  8.1000000000000E-01  2.8285323479254E-01  1.0215973060847E+00
83  8.2000000000000E-01  2.5283479027275E-01  1.1647973430451E+00
84  8.3000000000000E-01  2.2443660519777E-01  1.3124200455221E+00
85  8.4000000000000E-01  1.9772200039819E-01  1.4598093183137E+00
86  8.5000000000000E-01  1.7274689097790E-01  1.6021564245147E+00
87  8.6000000000000E-01  1.4955757368810E-01  1.7346715155171E+00
88  8.7000000000000E-01  1.2818855078331E-01  1.8527580046483E+00
89  8.8000000000000E-01  1.0866049342453E-01  1.9521832287203E+00
90  8.9000000000000E-01  9.0978446008862E-02  2.0292388553739E+00
91  9.0000000000000E-01  7.5130367018566E-02  2.0808847603542E+00
92  9.1000000000000E-01  6.1086092226641E-02  2.1048706119749E+00
93  9.2000000000000E-01  4.8796792655334E-02  2.0998301446033E+00
94  9.3000000000000E-01  3.8194982991156E-02  2.0653440543870E+00
95  9.4000000000000E-01  2.9195116788535E-02  2.0019685752173E+00
96  9.5000000000000E-01  2.1694783416755E-02  1.9112280512327E+00
97  9.6000000000000E-01  1.5576499107610E-02  1.7955711670541E+00
98  9.7000000000000E-01  1.0710061470024E-02  1.6582918786246E+00
99  9.8000000000000E-01  6.9554143255755E-03  1.5034174531307E+00
100  9.9000000000000E-01  4.1659485504976E-03  1.3355673232858E+00
101  1.0000000000000E+00  2.1921456051601E-03  1.1597876390409E+00
102  1.0100000000000E+00  8.8545436797573E-04  9.8136741072733E-01
103  1.0200000000000E+00  1.0227941851907E-04  8.0564294126699E-01
104  1.0300000000000E+00 -2.9205067075986E-04  6.3779792711706E-01
105  1.0400000000000E+00 -4.1946231255015E-04  4.8266589783000E-01
106  1.0500000000000E+00 -3.8513440695708E-04  3.4450027657807E-01
107  1.0600000000000E+00 -2.7109865642140E-04  2.2642457385787E-01
108  1.0700000000000E+00 -1.4557210407025E-04  1.3144804632714E-01
109  1.0800000000000E+00 -5.2368967982804E-05  6.1711702218867E-02
110  1.0900000000000E+00 -7.5404536248014E-06  1.8126249608358E-02
111  1.1000000000000E+00  1.8601941890493E-07  7.7035856401932E-04
112  1.1100000000000E+00  8.5288034098713E-09  5.3746497844108E-05
113  1.1200000000000E+00  1.0169348950150E-09 -1.0900228106027E-05
114  1.13  0.  0.
115  1.14  0.  0.
116  1.15  0.  0.
117  1.16  0.  0.
118  1.17  0.  0.
119  1.18  0.  0.
120  1.19  0.  0.
121  1.20  0.  0.
122  1.21  0.  0.
123  1.22  0.  0.
124  1.23  0.  0.
125  1.24  0.  0.
126  1.25  0.  0.
127  1.26  0.  0.
128  1.27  0.  0.
129  1.28  0.  0.
130  1.29  0.  0.
131  1.30  0.  0.
132  1.31  0.  0.
133  1.32  0.  0.
134  1.33  0.  0.
135  1.34  0.  0.
136  1.35  0.  0.
137  1.36  0.  0.
138  1.37  0.  0.
139  1.38  0.  0.
140  1.39  0.  0.
141  1.40  0.  0.
142  1.41  0.  0.
143  1.42  0.  0.
144  1.43  0.  0.
145  1.44  0.  0.
146  1.45  0.  0.
147  1.46  0.  0.
148  1.47  0.  0.
149  1.48  0.  0.
150  1.49  0.  0.
151  1.50  0.  0.
152  1.51  0.  0.
153  1.52  0.  0.
154  1.53  0.  0.
155  1.54  0.  0.
156  1.55  0.  0.
157  1.56  0.  0.
158  1.57  0.  0.
159  1.58  0.  0.
160  1.59  0.  0.
161  1.60  0.  0.
162  1.61  0.  0.
163  1.62  0.  0.
164  1.63  0.  0.
165  1.64  0.  0.
166  1.65  0.  0.
167  1.66  0.  0.
168  1.67  0.  0.
169  1.68  0.  0.
170  1.69  0.  0.
171  1.70  0.  0.
172  1.71  0.  0.
173  1.72  0.  0.
174  1.73  0.  0.
175  1.74  0.  0.
176  1.75  0.  0.
177  1.76  0.  0.
178  1.77  0.  0.
179  1.78  0.  0.
180  1.79  0.  0.
181  1.80  0.  0.
182  1.81  0.  0.
183  1.82  0.  0.
184  1.83  0.  0.
185  1.84  0.  0.
186  1.85  0.  0.
187  1.86  0.  0.
188  1.87  0.  0.
189  1.88  0.  0.
190  1.89  0.  0.
191  1.90  0.  0.
192  1.91  0.  0.
193  1.92  0.  0.
194  1.93  0.  0.
195  1.94  0.  0.
196  1.95  0.  0.
197  1.96  0.  0.