Bh    ONCVPSP-4.0.1  r_core=   1.00148   1.00148   0.95468   1.10207
107.0000     47.0000      220326    zatom,zion,pspd
8      11   3     4   600     0    pspcod,pspxc,lmax,lloc,mmax,r2well
5.99000000  5.00000000  0.00000000    rchrg fchrg qchrg
3     2     2     2     0    nproj
1     1           extension_switch
0                         2.7494688264311E+01 -3.6675537046724E+00  2.3800198326651E+00
1  0.0000000000000E+00 -1.5143321085986E-07 -4.0895282826803E-08 -5.2980003345526E-07
2  1.0000000000000E-02  2.0578089459984E-01  4.4973248183210E-02  7.4745980752894E-02
3  2.0000000000000E-02  4.0939064651833E-01  8.9811599304385E-02  1.4704781620187E-01
4  3.0000000000000E-02  6.0869534883243E-01  1.3438522344826E-01  2.1454181375126E-01
5  4.0000000000000E-02  8.0163449203078E-01  1.7857418363693E-01  2.7502189807361E-01
6  5.0000000000000E-02  9.8625501998883E-01  2.2227279050967E-01  3.2651034914327E-01
7  6.0000000000000E-02  1.1607423318318E+00  2.6539327877230E-01  3.6731926777055E-01
8  7.0000000000000E-02  1.3234474012414E+00  3.0786863085754E-01  3.9610034377827E-01
9  8.0000000000000E-02  1.4729093361959E+00  3.4965441413307E-01  4.1188103176334E-01
10  9.0000000000000E-02  1.6078728782105E+00  3.9072954522745E-01  4.1408585272389E-01
11  1.0000000000000E-01  1.7273005330024E+00  4.3109594631456E-01  4.0254220766585E-01
12  1.1000000000000E-01  1.8303792255885E+00  4.7077711101301E-01  3.7747078011520E-01
13  1.2000000000000E-01  1.9165215732869E+00  5.0981564935973E-01  3.3946128579163E-01
14  1.3000000000000E-01  1.9853620612409E+00  5.4826992960843E-01  2.8943496770542E-01
15  1.4000000000000E-01  2.0367485787305E+00  5.8620997706553E-01  2.2859580393933E-01
16  1.5000000000000E-01  2.0707299234488E+00  6.2371282478999E-01  1.5837286725882E-01
17  1.6000000000000E-01  2.0875399990723E+00  6.6085753611739E-01  8.0356629144970E-02
18  1.7000000000000E-01  2.0875795143669E+00  6.9772013346724E-01 -3.7677796576299E-03
19  1.8000000000000E-01  2.0713960369384E+00  7.3436867111860E-01 -9.2287263475668E-02
20  1.9000000000000E-01  2.0396632605789E+00  7.7085868150975E-01 -1.8352439096547E-01
21  2.0000000000000E-01  1.9931603128123E+00  8.0722920559864E-01 -2.7589514840223E-01
22  2.1000000000000E-01  1.9327518612940E+00  8.4349958889973E-01 -3.6795834424956E-01
23  2.2000000000000E-01  1.8593696783728E+00  8.7966718744999E-01 -4.5845464212252E-01
24  2.3000000000000E-01  1.7739961979397E+00  9.1570608400232E-01 -5.4633373840148E-01
25  2.4000000000000E-01  1.6776504543228E+00  9.5156686635446E-01 -6.3076880272071E-01
26  2.5000000000000E-01  1.5713766368521E+00  9.8717746923874E-01 -7.1115793524613E-01
27  2.6000000000000E-01  1.4562353335938E+00  1.0224450310485E+00 -7.8711303367418E-01
28  2.7000000000000E-01  1.3332973814418E+00  1.0572586692421E+00 -8.5843707504017E-01
29  2.8000000000000E-01  1.2036400946934E+00  1.0914930357769E+00 -9.2509137413674E-01
30  2.9000000000000E-01  1.0683455171576E+00  1.1250124783466E+00 -9.8715485596483E-01
31  3.0000000000000E-01  9.2850023946397E-01  1.1576756061555E+00 -1.0447777526331E+00
32  3.1000000000000E-01  7.8519624803242E-01  1.1893400416477E+00 -1.0981323889961E+00
33  3.2000000000000E-01  6.3953222814265E-01  1.2198671327494E+00 -1.1473638453544E+00
34  3.3000000000000E-01  4.9261473217230E-01  1.2491264039917E+00 -1.1925432751678E+00
35  3.4000000000000E-01  3.4555864523920E-01  1.2769995390852E+00 -1.2336265126927E+00
36  3.5000000000000E-01  1.9948643250371E-01  1.3033837113373E+00 -1.2704203376013E+00
37  3.6000000000000E-01  5.5525732156387E-02  1.3281941105381E+00 -1.3025583844887E+00
38  3.7000000000000E-01 -8.5195038741204E-02  1.3513655540033E+00 -1.3294882131995E+00
39  3.8000000000000E-01 -2.2155327727917E-01  1.3728531134693E+00 -1.3504705136060E+00
40  3.9000000000000E-01 -3.5244106537157E-01  1.3926317364012E+00 -1.3645908312961E+00
41  4.0000000000000E-01 -4.7677625872697E-01  1.4106948878058E+00 -1.3707835957517E+00
42  4.1000000000000E-01 -5.9351559816835E-01  1.4270522846479E+00 -1.3678676376843E+00
43  4.2000000000000E-01 -7.0166951886420E-01  1.4417268373560E+00 -1.3545918241269E+00
44  4.3000000000000E-01 -8.0031821873646E-01  1.4547509497756E+00 -1.3296889435538E+00
45  4.4000000000000E-01 -8.8862845255733E-01  1.4661623586596E+00 -1.2919355606015E+00
46  4.5000000000000E-01 -9.6587044739560E-01  1.4759997151139E+00 -1.2402152487370E+00
47  4.6000000000000E-01 -1.0314342913403E+00  1.4842981224505E+00 -1.1735824126814E+00
48  4.7000000000000E-01 -1.0848451327474E+00  1.4910848472181E+00 -1.0913238384930E+00
49  4.8000000000000E-01 -1.1257765422219E+00  1.4963754127606E+00 -9.9301516045939E-01
50  4.9000000000000E-01 -1.1540614334216E+00  1.5001702679538E+00 -8.7856960736327E-01
51  5.0000000000000E-01 -1.1697000095315E+00  1.5024521986163E+00 -7.4827667800778E-01
52  5.1000000000000E-01 -1.1728642967283E+00  1.5031846167057E+00 -6.0282878405988E-01
53  5.2000000000000E-01 -1.1638989399556E+00  1.5023108242933E+00 -4.4333437003911E-01
54  5.3000000000000E-01 -1.1433180648903E+00  1.4997543072086E+00 -2.7131655503963E-01
55  5.4000000000000E-01 -1.1117981475677E+00  1.4954200690437E+00 -8.8696915494212E-02
56  5.5000000000000E-01 -1.0701669739168E+00  1.4891969718573E+00  1.0223538146624E-01
57  5.6000000000000E-01 -1.0193889095447E+00  1.4809610073519E+00  2.9886830350903E-01
58  5.7000000000000E-01 -9.6054682984317E-01  1.4705793833247E+00  4.9832419921418E-01
59  5.8000000000000E-01 -8.9482117663797E-01  1.4579152764520E+00  6.9752773452607E-01
60  5.9000000000000E-01 -8.2346670561153E-01  1.4428330753328E+00  8.9328227256287E-01
61  6.0000000000000E-01 -7.4778756489908E-01  1.4252039182543E+00  1.0823521247417E+00
62  6.1000000000000E-01 -6.6911139686227E-01  1.4049113190704E+00  1.2615478799728E+00
63  6.2000000000000E-01 -5.8876318045336E-01  1.3818566722419E+00  1.4278119090737E+00
64  6.3000000000000E-01 -5.0803953029634E-01  1.3559644344268E+00  1.5783011465140E+00
65  6.4000000000000E-01 -4.2818414125704E-01  1.3271867946085E+00  1.7104643692865E+00
66  6.5000000000000E-01 -3.5036501556779E-01  1.2955076668397E+00  1.8221114165776E+00
67  6.6000000000000E-01 -2.7565403621364E-01  1.2609458681582E+00  1.9114721131045E+00
68  6.7000000000000E-01 -2.0500935884111E-01  1.2235573777545E+00  1.9772430587575E+00
69  6.8000000000000E-01 -1.3926098916763E-01  1.1834366104773E+00  2.0186209095863E+00
70  6.9000000000000E-01 -7.9099798512531E-02  1.1407166765571E+00  2.0353212798091E+00
71  7.0000000000000E-01 -2.5070111698289E-02  1.0955686382613E+00  2.0275829193928E+00
72  7.1000000000000E-01  2.2434115673454E-02  1.0481998113128E+00  1.9961573441840E+00
73  7.2000000000000E-01  6.3169624659348E-02  9.9885119265850E-01  1.9422845930817E+00
74  7.3000000000000E-01  9.7040879457724E-02  9.4779412503552E-01  1.8676562379769E+00
75  7.4000000000000E-01  1.2409407248758E-01  8.9532633146738E-01  1.7743671577890E+00
76  7.5000000000000E-01  1.4450845427279E-01  8.4176746826569E-01  1.6648578911626E+00
77  7.6000000000000E-01  1.5858537973415E-01  7.8745435258265E-01  1.5418495899993E+00
78  7.7000000000000E-01  1.6673548477390E-01  7.3273601962183E-01  1.4082736984500E+00
79  7.8000000000000E-01  1.6946440532619E-01  6.7796875518372E-01  1.2671984740616E+00
80  7.9000000000000E-01  1.6735742541123E-01  6.2351123154202E-01  1.1217543485298E+00
81  8.0000000000000E-01  1.6106339219121E-01  5.6971984928203E-01  9.7505989850293E-01
82  8.1000000000000E-01  1.5127816647353E-01  5.1694435554013E-01  8.3014986979967E-01
83  8.2000000000000E-01  1.3872778924431E-01  4.6552377118121E-01  6.8990628295443E-01
84  8.3000000000000E-01  1.2415144201166E-01  4.1578261716370E-01  5.5699315927980E-01
85  8.4000000000000E-01  1.0828416490307E-01  3.6802738515316E-01  4.3379486262149E-01
86  8.5000000000000E-01  9.1839175890244E-02  3.2254315094128E-01  3.2235747285342E-01
87  8.6000000000000E-01  7.5489511709865E-02  2.7959018303103E-01  2.2433201446729E-01
88  8.7000000000000E-01  5.9848590564375E-02  2.3940035446709E-01  1.4091777952428E-01
89  8.8000000000000E-01  4.5449182948944E-02  2.0217312515140E-01  7.2803430654838E-02
90  8.9000000000000E-01  3.2720173394670E-02  1.6807082582641E-01  2.0103063576695E-02
91  9.0000000000000E-01  2.1960424166087E-02  1.3721294620005E-01 -1.7715930640113E-02
92  9.1000000000000E-01  1.3309292283310E-02  1.0966913183185E-01 -4.1914971135349E-02
93  9.2000000000000E-01  6.7409924043701E-03  8.5453514975219E-02 -5.4427222571544E-02
94  9.3000000000000E-01  2.1228054344499E-03  6.4529385214265E-02 -5.7469523694311E-02
95  9.4000000000000E-01 -7.5409419405548E-04  4.6818425501941E-02 -5.3346458889180E-02
96  9.5000000000000E-01 -2.1613240768540E-03  3.2209635915012E-02 -4.4364815202534E-02
97  9.6000000000000E-01 -2.4883731752168E-03  2.0516800274759E-02 -3.2960700142452E-02
98  9.7000000000000E-01 -2.1143647711788E-03  1.1561451705969E-02 -2.1290328704927E-02
99  9.8000000000000E-01 -1.3223004634942E-03  5.2529062060869E-03 -1.0929306322479E-02
100  9.9000000000000E-01 -4.7828007444764E-04  1.4597603042838E-03 -3.3894775323589E-03
101  1.0000000000000E+00 -1.6687628756921E-05  4.0286299478150E-05 -1.0364569012521E-04
102  1.0100000000000E+00 -2.3365831783752E-06  5.7066530871715E-06 -1.4650034262508E-05
103  1.0200000000000E+00 -5.7290833351620E-11 -2.9179788629815E-11 -1.8836092369508E-10
104  1.03  0.  0.  0.
105  1.04  0.  0.  0.
106  1.05  0.  0.  0.
107  1.06  0.  0.  0.
108  1.07  0.  0.  0.
109  1.08  0.  0.  0.
110  1.09  0.  0.  0.
111  1.10  0.  0.  0.
112  1.11  0.  0.  0.
113  1.12  0.  0.  0.
114  1.13  0.  0.  0.
115  1.14  0.  0.  0.
116  1.15  0.  0.  0.
117  1.16  0.  0.  0.
118  1.17  0.  0.  0.
119  1.18  0.  0.  0.
120  1.19  0.  0.  0.
121  1.20  0.  0.  0.
122  1.21  0.  0.  0.
123  1.22  0.  0.  0.
124  1.23  0.  0.  0.
125  1.24  0.  0.  0.
126  1.25  0.  0.  0.
127  1.26  0.  0.  0.
128  1.27  0.  0.  0.
129  1.28  0.  0.  0.
130  1.29  0.  0.  0.
131  1.30  0.  0.  0.
132  1.31  0.  0.  0.
133  1.32  0.  0.  0.
134  1.33  0.  0.  0.
135  1.34  0.  0.  0.
136  1.35  0.  0.  0.
137  1.36  0.  0.  0.
138  1.37  0.  0.  0.
139  1.38  0.  0.  0.
140  1.39  0.  0.  0.
141  1.40  0.  0.  0.
142  1.41  0.  0.  0.
143  1.42  0.  0.  0.
144  1.43  0.  0.  0.
145  1.44  0.  0.  0.
146  1.45  0.  0.  0.
147  1.46  0.  0.  0.
148  1.47  0.  0.  0.
149  1.48  0.  0.  0.
150  1.49  0.  0.  0.
151  1.50  0.  0.  0.
152  1.51  0.  0.  0.
153  1.52  0.  0.  0.
154  1.53  0.  0.  0.
155  1.54  0.  0.  0.
156  1.55  0.  0.  0.
157  1.56  0.  0.  0.
158  1.57  0.  0.  0.
159  1.58  0.  0.  0.
160  1.59  0.  0.  0.
161  1.60  0.  0.  0.
162  1.61  0.  0.  0.
163  1.62  0.  0.  0.
164  1.63  0.  0.  0.
165  1.64  0.  0.  0.
166  1.65  0.  0.  0.
167  1.66  0.  0.  0.
168  1.67  0.  0.  0.
169  1.68  0.  0.  0.
170  1.69  0.  0.  0.
171  1.70  0.  0.  0.
172  1.71  0.  0.  0.
173  1.72  0.  0.  0.
174  1.73  0.  0.  0.
175  1.74  0.  0.  0.
176  1.75  0.  0.  0.
177  1.76  0.  0.  0.
178  1.77  0.  0.  0.
179  1.78  0.  0.  0.
180  1.79  0.  0.  0.
181  1.80  0.  0.  0.
182  1.81  0.  0.  0.
183  1.82  0.  0.  0.
184  1.83  0.  0.  0.
185  1.84  0.  0.  0.
186  1.85  0.  0.  0.
187  1.86  0.  0.  0.
188  1.87  0.  0.  0.
189  1.88  0.  0.  0.
190  1.89  0.  0.  0.
191  1.90  0.  0.  0.
192  1.91  0.  0.  0.
193  1.92  0.  0.  0.
194  1.93  0.  0.  0.
195  1.94  0.  0.  0.
196  1.95  0.  0.  0.
197  1.96  0.  0.  0.
198  1.97  0.  0.  0.
199  1.98  0.  0.  0.
200  1.99  0.  0.  0.
201  2.00  0.  0.  0.
202  2.01  0.  0.  0.
203  2.02  0.  0.  0.
204  2.03  0.  0.  0.
205  2.04  0.  0.  0.
206  2.05  0.  0.  0.
207  2.06  0.  0.  0.
208  2.07  0.  0.  0.
209  2.08  0.  0.  0.
210  2.09  0.  0.  0.
211  2.10  0.  0.  0.
212  2.11  0.  0.  0.
213  2.12  0.  0.  0.
214  2.13  0.  0.  0.
215  2.14  0.  0.  0.
216  2.15  0.  0.  0.
217  2.16  0.  0.  0.
218  2.17  0.  0.  0.
219  2.18  0.  0.  0.
220  2.19  0.  0.  0.
221  2.20  0.  0.  0.
222  2.21  0.  0.  0.
223  2.22  0.  0.  0.
224  2.23  0.  0.  0.
225  2.24  0.  0.  0.
226  2.25  0.  0.  0.
227  2.26  0.  0.  0.
228  2.27  0.  0.  0.
229  2.28  0.  0.  0.
230  2.29  0.  0.  0.
231  2.30  0.  0.  0.
232  2.31  0.  0.  0.
233  2.32  0.  0.  0.
234  2.33  0.  0.  0.
235  2.34  0.  0.  0.
236  2.35  0.  0.  0.
237  2.36  0.  0.  0.
238  2.37  0.  0.  0.
239  2.38  0.  0.  0.
240  2.39  0.  0.  0.
241  2.40  0.  0.  0.
242  2.41  0.  0.  0.
243  2.42  0.  0.  0.
244  2.43  0.  0.  0.
245  2.44  0.  0.  0.
246  2.45  0.  0.  0.
247  2.46  0.  0.  0.
248  2.47  0.  0.  0.
249  2.48  0.  0.  0.
250  2.49  0.  0.  0.
251  2.50  0.  0.  0.
252  2.51  0.  0.  0.
253  2.52  0.  0.  0.
254  2.53  0.  0.  0.
255  2.54  0.  0.  0.
256  2.55  0.  0.  0.
257  2.56  0.  0.  0.
258  2.57  0.  0.  0.
259  2.58  0.  0.  0.
260  2.59  0.  0.  0.
261  2.60  0.  0.  0.
262  2.61  0.  0.  0.
263  2.62  0.  0.  0.
264  2.63  0.  0.  0.
265  2.64  0.  0.  0.
266  2.65  0.  0.  0.
267  2.66  0.  0.  0.
268  2.67  0.  0.  0.
269  2.68  0.  0.  0.
270  2.69  0.  0.  0.
271  2.70  0.  0.  0.
272  2.71  0.  0.  0.
273  2.72  0.  0.  0.
274  2.73  0.  0.  0.
275  2.74  0.  0.  0.
276  2.75  0.  0.  0.
277  2.76  0.  0.  0.
278  2.77  0.  0.  0.
279  2.78  0.  0.  0.
280  2.79  0.  0.  0.
281  2.80  0.  0.  0.
282  2.81  0.  0.  0.
283  2.82  0.  0.  0.
284  2.83  0.  0.  0.
285  2.84  0.  0.  0.
286  2.85  0.  0.  0.
287  2.86  0.  0.  0.
288  2.87  0.  0.  0.
289  2.88  0.  0.  0.
290  2.89  0.  0.  0.
291  2.90  0.  0.  0.
292  2.91  0.  0.  0.
293  2.92  0.  0.  0.
294  2.93  0.  0.  0.
295  2.94  0.  0.  0.
296  2.95  0.  0.  0.
297  2.96  0.  0.  0.
298  2.97  0.  0.  0.
299  2.98  0.  0.  0.
300  2.99  0.  0.  0.
301  3.00  0.  0.  0.
302  3.01  0.  0.  0.
303  3.02  0.  0.  0.
304  3.03  0.  0.  0.
305  3.04  0.  0.  0.
306  3.05  0.  0.  0.
307  3.06  0.  0.  0.
308  3.07  0.  0.  0.
309  3.08  0.  0.  0.
310  3.09  0.  0.  0.
311  3.10  0.  0.  0.
312  3.11  0.  0.  0.
313  3.12  0.  0.  0.
314  3.13  0.  0.  0.
315  3.14  0.  0.  0.
316  3.15  0.  0.  0.
317  3.16  0.  0.  0.
318  3.17  0.  0.  0.
319  3.18  0.  0.  0.
320  3.19  0.  0.  0.
321  3.20  0.  0.  0.
322  3.21  0.  0.  0.
323  3.22  0.  0.  0.
324  3.23  0.  0.  0.
325  3.24  0.  0.  0.
326  3.25  0.  0.  0.
327  3.26  0.  0.  0.
328  3.27  0.  0.  0.
329  3.28  0.  0.  0.
330  3.29  0.  0.  0.
331  3.30  0.  0.  0.
332  3.31  0.  0.  0.
333  3.32  0.  0.  0.
334  3.33  0.  0.  0.
335  3.34  0.  0.  0.
336  3.35  0.  0.  0.
337  3.36  0.  0.  0.
338  3.37  0.  0.  0.
339  3.38  0.  0.  0.
340  3.39  0.  0.  0.
341  3.40  0.  0.  0.
342  3.41  0.  0.  0.
343  3.42  0.  0.  0.
344  3.43  0.  0.  0.
345  3.44  0.  0.  0.
346  3.45  0.  0.  0.
347  3.46  0.  0.  0.
348  3.47  0.  0.  0.
349  3.48  0.  0.  0.
350  3.49  0.  0.  0.
351  3.50  0.  0.  0.
352  3.51  0.  0.  0.
353  3.52  0.  0.  0.
354  3.53  0.  0.  0.
355  3.54  0.  0.  0.
356  3.55  0.  0.  0.
357  3.56  0.  0.  0.
358  3.57  0.  0.  0.
359  3.58  0.  0.  0.
360  3.59  0.  0.  0.
361  3.60  0.  0.  0.
362  3.61  0.  0.  0.
363  3.62  0.  0.  0.
364  3.63  0.  0.  0.
365  3.64  0.  0.  0.
366  3.65  0.  0.  0.
367  3.66  0.  0.  0.
368  3.67  0.  0.  0.
369  3.68  0.  0.  0.
370  3.69  0.  0.  0.
371  3.70  0.  0.  0.
372  3.71  0.  0.  0.
373  3.72  0.  0.  0.
374  3.73  0.  0.  0.
375  3.74  0.  0.  0.
376  3.75  0.  0.  0.
377  3.76  0.  0.  0.
378  3.77  0.  0.  0.
379  3.78  0.  0.  0.
380  3.79  0.  0.  0.
381  3.80  0.  0.  0.
382  3.81  0.  0.  0.
383  3.82  0.  0.  0.
384  3.83  0.  0.  0.
385  3.84  0.  0.  0.
386  3.85  0.  0.  0.
387  3.86  0.  0.  0.
388  3.87  0.  0.  0.
389  3.88  0.  0.  0.
390  3.89  0.  0.  0.
391  3.90  0.  0.  0.
392  3.91  0.  0.  0.
393  3.92  0.  0.  0.
394  3.93  0.  0.  0.
395  3.94  0.  0.  0.
396  3.95  0.  0.  0.
397  3.96  0.  0.  0.
398  3.97  0.  0.  0.
399  3.98  0.  0.  0.
400  3.99  0.  0.  0.
401  4.00  0.  0.  0.
402  4.01  0.  0.  0.
403  4.02  0.  0.  0.
404  4.03  0.  0.  0.
405  4.04  0.  0.  0.
406  4.05  0.  0.  0.
407  4.06  0.  0.  0.
408  4.07  0.  0.  0.
409  4.08  0.  0.  0.
410  4.09  0.  0.  0.
411  4.10  0.  0.  0.
412  4.11  0.  0.  0.
413  4.12  0.  0.  0.
414  4.13  0.  0.  0.
415  4.14  0.  0.  0.
416  4.15  0.  0.  0.
417  4.16  0.  0.  0.
418  4.17  0.  0.  0.
419  4.18  0.  0.  0.
420  4.19  0.  0.  0.
421  4.20  0.  0.  0.
422  4.21  0.  0.  0.
423  4.22  0.  0.  0.
424  4.23  0.  0.  0.
425  4.24  0.  0.  0.
426  4.25  0.  0.  0.
427  4.26  0.  0.  0.
428  4.27  0.  0.  0.
429  4.28  0.  0.  0.
430  4.29  0.  0.  0.
431  4.30  0.  0.  0.
432  4.31  0.  0.  0.
433  4.32  0.  0.  0.
434  4.33  0.  0.  0.
435  4.34  0.  0.  0.
436  4.35  0.  0.  0.
437  4.36  0.  0.  0.
438  4.37  0.  0.  0.
439  4.38  0.  0.  0.
440  4.39  0.  0.  0.
441  4.40  0.  0.  0.
442  4.41  0.  0.  0.
443  4.42  0.  0.  0.
444  4.43  0.  0.  0.
445  4.44  0.  0.  0.
446  4.45  0.  0.  0.
447  4.46  0.  0.  0.
448  4.47  0.  0.  0.
449  4.48  0.  0.  0.
450  4.49  0.  0.  0.
451  4.50  0.  0.  0.
452  4.51  0.  0.  0.
453  4.52  0.  0.  0.
454  4.53  0.  0.  0.
455  4.54  0.  0.  0.
456  4.55  0.  0.  0.
457  4.56  0.  0.  0.
458  4.57  0.  0.  0.
459  4.58  0.  0.  0.
460  4.59  0.  0.  0.
461  4.60  0.  0.  0.
462  4.61  0.  0.  0.
463  4.62  0.  0.  0.
464  4.63  0.  0.  0.
465  4.64  0.  0.  0.
466  4.65  0.  0.  0.
467  4.66  0.  0.  0.
468  4.67  0.  0.  0.
469  4.68  0.  0.  0.
470  4.69  0.  0.  0.
471  4.70  0.  0.  0.
472  4.71  0.  0.  0.
473  4.72  0.  0.  0.
474  4.73  0.  0.  0.
475  4.74  0.  0.  0.
476  4.75  0.  0.  0.
477  4.76  0.  0.  0.
478  4.77  0.  0.  0.
479  4.78  0.  0.  0.
480  4.79  0.  0.  0.
481  4.80  0.  0.  0.
482  4.81  0.  0.  0.
483  4.82  0.  0.  0.
484  4.83  0.  0.  0.
485  4.84  0.  0.  0.
486  4.85  0.  0.  0.
487  4.86  0.  0.  0.
488  4.87  0.  0.  0.
489  4.88  0.  0.  0.
490  4.89  0.  0.  0.
491  4.90  0.  0.  0.
492  4.91  0.  0.  0.
493  4.92  0.  0.  0.
494  4.93  0.  0.  0.
495  4.94  0.  0.  0.
496  4.95  0.  0.  0.
497  4.96  0.  0.  0.
498  4.97  0.  0.  0.
499  4.98  0.  0.  0.
500  4.99  0.  0.  0.
501  5.00  0.  0.  0.
502  5.01  0.  0.  0.
503  5.02  0.  0.  0.
504  5.03  0.  0.  0.
505  5.04  0.  0.  0.
506  5.05  0.  0.  0.
507  5.06  0.  0.  0.
508  5.07  0.  0.  0.
509  5.08  0.  0.  0.
510  5.09  0.  0.  0.
511  5.10  0.  0.  0.
512  5.11  0.  0.  0.
513  5.12  0.  0.  0.
514  5.13  0.  0.  0.
515  5.14  0.  0.  0.
516  5.15  0.  0.  0.
517  5.16  0.  0.  0.
518  5.17  0.  0.  0.
519  5.18  0.  0.  0.
520  5.19  0.  0.  0.
521  5.20  0.  0.  0.
522  5.21  0.  0.  0.
523  5.22  0.  0.  0.
524  5.23  0.  0.  0.
525  5.24  0.  0.  0.
526  5.25  0.  0.  0.
527  5.26  0.  0.  0.
528  5.27  0.  0.  0.
529  5.28  0.  0.  0.
530  5.29  0.  0.  0.
531  5.30  0.  0.  0.
532  5.31  0.  0.  0.
533  5.32  0.  0.  0.
534  5.33  0.  0.  0.
535  5.34  0.  0.  0.
536  5.35  0.  0.  0.
537  5.36  0.  0.  0.
538  5.37  0.  0.  0.
539  5.38  0.  0.  0.
540  5.39  0.  0.  0.
541  5.40  0.  0.  0.
542  5.41  0.  0.  0.
543  5.42  0.  0.  0.
544  5.43  0.  0.  0.
545  5.44  0.  0.  0.
546  5.45  0.  0.  0.
547  5.46  0.  0.  0.
548  5.47  0.  0.  0.
549  5.48  0.  0.  0.
550  5.49  0.  0.  0.
551  5.50  0.  0.  0.
552  5.51  0.  0.  0.
553  5.52  0.  0.  0.
554  5.53  0.  0.  0.
555  5.54  0.  0.  0.
556  5.55  0.  0.  0.
557  5.56  0.  0.  0.
558  5.57  0.  0.  0.
559  5.58  0.  0.  0.
560  5.59  0.  0.  0.
561  5.60  0.  0.  0.
562  5.61  0.  0.  0.
563  5.62  0.  0.  0.
564  5.63  0.  0.  0.
565  5.64  0.  0.  0.
566  5.65  0.  0.  0.
567  5.66  0.  0.  0.
568  5.67  0.  0.  0.
569  5.68  0.  0.  0.
570  5.69  0.  0.  0.
571  5.70  0.  0.  0.
572  5.71  0.  0.  0.
573  5.72  0.  0.  0.
574  5.73  0.  0.  0.
575  5.74  0.  0.  0.
576  5.75  0.  0.  0.
577  5.76  0.  0.  0.
578  5.77  0.  0.  0.
579  5.78  0.  0.  0.
580  5.79  0.  0.  0.
581  5.80  0.  0.  0.
582  5.81  0.  0.  0.
583  5.82  0.  0.  0.
584  5.83  0.  0.  0.
585  5.84  0.  0.  0.
586  5.85  0.  0.  0.
587  5.86  0.  0.  0.
588  5.87  0.  0.  0.
589  5.88  0.  0.  0.
590  5.89  0.  0.  0.
591  5.90  0.  0.  0.
592  5.91  0.  0.  0.
593  5.92  0.  0.  0.
594  5.93  0.  0.  0.
595  5.94  0.  0.  0.
596  5.95  0.  0.  0.
597  5.96  0.  0.  0.
598  5.97  0.  0.  0.
599  5.98  0.  0.  0.
600  5.99  0.  0.  0.
1                         7.4909921893908E+00 -2.2553804655677E+00
1  0.0000000000000E+00 -4.8308045508261E-08 -7.1825548841886E-09
2  1.0000000000000E-02  5.4055199049243E-03  1.4491139655230E-03
3  2.0000000000000E-02  2.1572000373177E-02  5.7904625898786E-03
4  3.0000000000000E-02  4.8348990255069E-02  1.3006016098771E-02
5  4.0000000000000E-02  8.5485071529701E-02  2.3065564939445E-02
6  5.0000000000000E-02  1.3262701573724E-01  3.5926502573631E-02
7  6.0000000000000E-02  1.8931890413542E-01  5.1533565335291E-02
8  7.0000000000000E-02  2.5500148989549E-01  6.9818570052861E-02
9  8.0000000000000E-02  3.2901212896080E-01  9.0700197318244E-02
10  9.0000000000000E-02  4.1058563348176E-01  1.1408387246213E-01
11  1.0000000000000E-01  4.9885640583969E-01  1.3986179714367E-01
12  1.1000000000000E-01  5.9286219129120E-01  1.6791318183826E-01
13  1.2000000000000E-01  6.9154974365734E-01  1.9810472345215E-01
14  1.3000000000000E-01  7.9378263302667E-01  2.3029136303899E-01
15  1.4000000000000E-01  8.9835134015796E-01  2.6431734654616E-01
16  1.5000000000000E-01  1.0039856832611E+00  3.0001759724475E-01
17  1.6000000000000E-01  1.1093695140861E+00  3.3721939269059E-01
18  1.7000000000000E-01  1.2131575073568E+00  3.7574432251626E-01
19  1.8000000000000E-01  1.3139937564748E+00  4.1541048691565E-01
20  1.9000000000000E-01  1.4105317850231E+00  4.5603488021558E-01
21  2.0000000000000E-01  1.5014554935661E+00  4.9743589027083E-01
22  2.1000000000000E-01  1.5855004896121E+00  5.3943583333430E-01
23  2.2000000000000E-01  1.6614751995545E+00  5.8186343620042E-01
24  2.3000000000000E-01  1.7282811380348E+00  6.2455617331072E-01
25  2.4000000000000E-01  1.7849317142890E+00  6.6736236649119E-01
26  2.5000000000000E-01  1.8305689871240E+00  7.1014295921642E-01
27  2.6000000000000E-01  1.8644778392704E+00  7.5277288572303E-01
28  2.7000000000000E-01  1.8860971256611E+00  7.9514196768272E-01
29  2.8000000000000E-01  1.8950274551277E+00  8.3715528706038E-01
30  2.9000000000000E-01  1.8910353864033E+00  8.7873300261987E-01
31  3.0000000000000E-01  1.8740539516479E+00  9.1980959854874E-01
32  3.1000000000000E-01  1.8441795578225E+00  9.6033257598594E-01
33  3.2000000000000E-01  1.8016654516974E+00  1.0002606209150E+00
34  3.3000000000000E-01  1.7469120616761E+00  1.0395613039525E+00
35  3.4000000000000E-01  1.6804546428631E+00  1.0782083880573E+00
36  3.5000000000000E-01  1.6029487454654E+00  1.1161788381908E+00
37  3.6000000000000E-01  1.5151540961815E+00  1.1534496416683E+00
38  3.7000000000000E-01  1.4179175242944E+00  1.1899945586552E+00
39  3.8000000000000E-01  1.3121555767181E+00  1.2257809284611E+00
40  3.9000000000000E-01  1.1988374485912E+00  1.2607666586391E+00
41  4.0000000000000E-01  1.0789688090360E+00  1.2948975202455E+00
42  4.1000000000000E-01  9.5357702767850E-01  1.3281048640565E+00
43  4.2000000000000E-01  8.2369821010255E-01  1.3603038593261E+00
44  4.3000000000000E-01  6.9036633440621E-01  1.3913923392874E+00
45  4.4000000000000E-01  5.5460465220915E-01  1.4212503166961E+00
46  4.5000000000000E-01  4.1741938230496E-01  1.4497402090848E+00
47  4.6000000000000E-01  2.7979559049577E-01  1.4767077879555E+00
48  4.7000000000000E-01  1.4269502189098E-01  1.5019838398792E+00
49  4.8000000000000E-01  7.0555387099207E-03  1.5253865014284E+00
50  4.9000000000000E-01 -1.2620827659448E-01  1.5467242050588E+00
51  5.0000000000000E-01 -2.5620386118379E-01  1.5657991504663E+00
52  5.1000000000000E-01 -3.8205930202000E-01  1.5824111964619E+00
53  5.2000000000000E-01 -5.0292241125508E-01  1.5963620527881E+00
54  5.3000000000000E-01 -6.1796077660958E-01  1.6074596401745E+00
55  5.4000000000000E-01 -7.2636325947189E-01  1.6155224807047E+00
56  5.5000000000000E-01 -8.2734332664376E-01  1.6203839794935E+00
57  5.6000000000000E-01 -9.2014448886640E-01  1.6218964627730E+00
58  5.7000000000000E-01 -1.0040479856466E+00  1.6199348465717E+00
59  5.8000000000000E-01 -1.0783827078097E+00  1.6143998238833E+00
60  5.9000000000000E-01 -1.1425371938821E+00  1.6052204759808E+00
61  6.0000000000000E-01 -1.1959733816797E+00  1.5923562346372E+00
62  6.1000000000000E-01 -1.2382416503857E+00  1.5757981456147E+00
63  6.2000000000000E-01 -1.2689965588206E+00  1.5555694089389E+00
64  6.3000000000000E-01 -1.2880125798536E+00  1.5317251972068E+00
65  6.4000000000000E-01 -1.2951990553780E+00  1.5043517784698E+00
66  6.5000000000000E-01 -1.2906135561004E+00  1.4735649941288E+00
67  6.6000000000000E-01 -1.2744728291675E+00  1.4395081638664E+00
68  6.7000000000000E-01 -1.2471605561660E+00  1.4023495081266E+00
69  6.8000000000000E-01 -1.2092312241759E+00  1.3622791933888E+00
70  6.9000000000000E-01 -1.1614095312252E+00  1.3195061159574E+00
71  7.0000000000000E-01 -1.1045849006238E+00  1.2742545459162E+00
72  7.1000000000000E-01 -1.0398008603702E+00  1.2267607541345E+00
73  7.2000000000000E-01 -9.6823924661793E-01  1.1772697418630E+00
74  7.3000000000000E-01 -8.9119940525675E-01  1.1260321847647E+00
75  7.4000000000000E-01 -8.1007278327286E-01  1.0733016916482E+00
76  7.5000000000000E-01 -7.2631351144640E-01  1.0193324632833E+00
77  7.6000000000000E-01 -6.4140577187933E-01  9.6437741919958E-01
78  7.7000000000000E-01 -5.5682890801620E-01  9.0868684109602E-01
79  7.8000000000000E-01 -4.7402136238464E-01  8.5250756126206E-01
80  7.9000000000000E-01 -3.9434461082819E-01  7.9608270409661E-01
81  8.0000000000000E-01 -3.1904829593241E-01  7.3965196922441E-01
82  8.1000000000000E-01 -2.4923774321933E-01  6.8345242661326E-01
83  8.2000000000000E-01 -1.8584497047173E-01  6.2771977814715E-01
84  8.3000000000000E-01 -1.2960417474671E-01  5.7269002683185E-01
85  8.4000000000000E-01 -8.1032507288326E-02  5.1860148458030E-01
86  8.5000000000000E-01 -4.0416730131255E-02  4.6569704255191E-01
87  8.6000000000000E-01 -7.8060983729168E-03  4.1422662434359E-01
88  8.7000000000000E-01  1.6988460598583E-02  3.6444974182040E-01
89  8.8000000000000E-01  3.4389083295126E-02  3.1663807574657E-01
90  8.9000000000000E-01  4.5040116843933E-02  2.7107800860870E-01
91  9.0000000000000E-01  4.9792418506358E-02  2.2807303430086E-01
92  9.1000000000000E-01  4.9683419046091E-02  1.8794580248606E-01
93  9.2000000000000E-01  4.5882409855010E-02  1.5102548662617E-01
94  9.3000000000000E-01  3.9568986385366E-02  1.1761043977894E-01
95  9.4000000000000E-01  3.1861004883499E-02  8.7961142119396E-02
96  9.5000000000000E-01  2.3770144637406E-02  6.2305355252125E-02
97  9.6000000000000E-01  1.6061500635661E-02  4.0842776078518E-02
98  9.7000000000000E-01  9.3667376975558E-03  2.3740474406268E-02
99  9.8000000000000E-01  4.3002568171166E-03  1.1148884787042E-02
100  9.9000000000000E-01  1.1778542348099E-03  3.2078739423931E-03
101  1.0000000000000E+00  3.1093475528389E-05  9.1933724432861E-05
102  1.0100000000000E+00  4.4458749111399E-06  1.2999508421369E-05
103  1.0200000000000E+00 -2.8238153182701E-11  7.4614032766770E-12
104  1.03  0.  0.
105  1.04  0.  0.
106  1.05  0.  0.
107  1.06  0.  0.
108  1.07  0.  0.
109  1.08  0.  0.
110  1.09  0.  0.
111  1.10  0.  0.
112  1.11  0.  0.
113  1.12  0.  0.
114  1.13  0.  0.
115  1.14  0.  0.
116  1.15  0.  0.
117  1.16  0.  0.
118  1.17  0.  0.
119  1.18  0.  0.
120  1.19  0.  0.
121  1.20  0.  0.
122  1.21  0.  0.
123  1.22  0.  0.
124  1.23  0.  0.
125  1.24  0.  0.
126  1.25  0.  0.
127  1.26  0.  0.
128  1.27  0.  0.
129  1.28  0.  0.
130  1.29  0.  0.
131  1.30  0.  0.
132  1.31  0.  0.
133  1.32  0.  0.
134  1.33  0.  0.
135  1.34  0.  0.
136  1.35  0.  0.
137  1.36  0.  0.
138  1.37  0.  0.
139  1.38  0.  0.
140  1.39  0.  0.
141  1.40  0.  0.
142  1.41  0.  0.
143  1.42  0.  0.
144  1.43  0.  0.
145  1.44  0.  0.
146  1.45  0.  0.
147  1.46  0.  0.
148  1.47  0.  0.
149  1.48  0.  0.
150  1.49  0.  0.
151  1.50  0.  0.
152  1.51  0.  0.
153  1.52  0.  0.
154  1.53  0.  0.
155  1.54  0.  0.
156  1.55  0.  0.
157  1.56  0.  0.
158  1.57  0.  0.
159  1.58  0.  0.
160  1.59  0.  0.
161  1.60  0.  0.
162  1.61  0.  0.
163  1.62  0.  0.
164  1.63  0.  0.
165  1.64  0.  0.
166  1.65  0.  0.
167  1.66  0.  0.
168  1.67  0.  0.
169  1.68  0.  0.
170  1.69  0.  0.
171  1.70  0.  0.
172  1.71  0.  0.
173  1.72  0.  0.
174  1.73  0.  0.
175  1.74  0.  0.
176  1.75  0.  0.
177  1.76  0.  0.
178  1.77  0.  0.
179  1.78  0.  0.
180  1.79  0.  0.
181  1.80  0.  0.
182  1.81  0.  0.
183  1.82  0.  0.
184  1.83  0.  0.
185  1.84  0.  0.
186  1.85  0.  0.
187  1.86  0.  0.
188  1.87  0.  0.
189  1.88  0.  0.
190  1.89  0.  0.
191  1.90  0.  0.
192  1.91  0.  0.
193  1.92  0.  0.
194  1.93  0.  0.
195  1.94  0.  0.
196  1.95  0.  0.
197  1.96  0.  0.
198  1.97  0.  0.
199  1.98  0.  0.
200  1.99  0.  0.
201  2.00  0.  0.
202  2.01  0.  0.
203  2.02  0.  0.
204  2.03  0.  0.
205  2.04  0.  0.
206  2.05  0.  0.
207  2.06  0.  0.
208  2.07  0.  0.
209  2.08  0.  0.
210  2.09  0.  0.
211  2.10  0.  0.
212  2.11  0.  0.
213  2.12  0.  0.
214  2.13  0.  0.
215  2.14  0.  0.
216  2.15  0.  0.
217  2.16  0.  0.
218  2.17  0.  0.
219  2.18  0.  0.
220  2.19  0.  0.
221  2.20  0.  0.
222  2.21  0.  0.
223  2.22  0.  0.
224  2.23  0.  0.
225  2.24  0.  0.
226  2.25  0.  0.
227  2.26  0.  0.
228  2.27  0.  0.
229  2.28  0.  0.
230  2.29  0.  0.
231  2.30  0.  0.
232  2.31  0.  0.
233  2.32  0.  0.
234  2.33  0.  0.
235  2.34  0.  0.
236  2.35  0.  0.
237  2.36  0.  0.
238  2.37  0.  0.
239  2.38  0.  0.
240  2.39  0.  0.
241  2.40  0.  0.
242  2.41  0.  0.
243  2.42  0.  0.
244  2.43  0.  0.
245  2.44  0.  0.
246  2.45  0.  0.
247  2.46  0.  0.
248  2.47  0.  0.
249  2.48  0.  0.
250  2.49  0.  0.
251  2.50  0.  0.
252  2.51  0.  0.
253  2.52  0.  0.
254  2.53  0.  0.
255  2.54  0.  0.
256  2.55  0.  0.
257  2.56  0.  0.
258  2.57  0.  0.
259  2.58  0.  0.
260  2.59  0.  0.
261  2.60  0.  0.