Bh    ONCVPSP-4.0.1  r_core=   1.10207   1.30303   1.20554   1.20554
107.0000     47.0000      220307    zatom,zion,pspd
8      11   3     4   600     0    pspcod,pspxc,lmax,lloc,mmax,r2well
5.99000000  5.00000000  0.00000000    rchrg fchrg qchrg
3     2     2     2     0    nproj
1     1           extension_switch
0                         1.8673658721435E+01 -1.1817166951784E+01 -4.1466759189417E-01
1  0.0000000000000E+00 -2.0541503387150E-08  1.1085974360725E-09  7.0510485783437E-09
2  1.0000000000000E-02  2.1378717764024E-01  5.7580151321753E-02 -3.9724433387619E-02
3  2.0000000000000E-02  4.2531136890256E-01  1.1513997536990E-01 -7.8810667652724E-02
4  3.0000000000000E-02  6.3233779376368E-01  1.7265813247462E-01 -1.1663497792032E-01
5  4.0000000000000E-02  8.3268769448038E-01  2.3011127532851E-01 -1.5260231757889E-01
6  5.0000000000000E-02  1.0242653758702E+00  2.8747308776014E-01 -1.8615998293549E-01
7  6.0000000000000E-02  1.2050840951296E+00  3.4471337380066E-01 -2.1681047186305E-01
8  7.0000000000000E-02  1.3732904418919E+00  4.0179721246601E-01 -2.4412327418825E-01
9  8.0000000000000E-02  1.5271868697682E+00  4.5868419256853E-01 -2.6774533861927E-01
10  9.0000000000000E-02  1.6652520660326E+00  5.1532774053627E-01 -2.8740997161080E-01
11  1.0000000000000E-01  1.7861588762087E+00  5.7167455268670E-01 -3.0294393866717E-01
12  1.1000000000000E-01  1.8887895348253E+00  6.2766414170762E-01 -3.1427255913501E-01
13  1.2000000000000E-01  1.9722479921963E+00  6.8322850527980E-01 -3.2142261236228E-01
14  1.3000000000000E-01  2.0358691693316E+00  7.3829192287082E-01 -3.2452290682661E-01
15  1.4000000000000E-01  2.0792250184967E+00  7.9277088477558E-01 -3.2380240479946E-01
16  1.5000000000000E-01  2.1021273149032E+00  8.4657415551380E-01 -3.1958584329203E-01
17  1.6000000000000E-01  2.1046271548669E+00  8.9960297175278E-01 -3.1228684699214E-01
18  1.7000000000000E-01  2.0870111867139E+00  9.5175137303671E-01 -3.0239858976699E-01
19  1.8000000000000E-01  2.0497946519270E+00  1.0029066617995E+00 -2.9048212675372E-01
20  1.9000000000000E-01  1.9937113645684E+00  1.0529499874408E+00 -2.7715258732501E-01
21  2.0000000000000E-01  1.9197008059535E+00  1.1017570476715E+00 -2.6306348816943E-01
22  2.1000000000000E-01  1.8288925578821E+00  1.1491988989036E+00 -2.4888949292028E-01
23  2.2000000000000E-01  1.7225883405024E+00  1.1951428661738E+00 -2.3530800753965E-01
24  2.3000000000000E-01  1.6022419591248E+00  1.2394535419621E+00 -2.2298005627463E-01
25  2.4000000000000E-01  1.4694374971457E+00  1.2819938622929E+00 -2.1253092872218E-01
26  2.5000000000000E-01  1.3258661188842E+00  1.3226262476887E+00 -2.0453112181995E-01
27  2.6000000000000E-01  1.1733018659148E+00  1.3612137958798E+00 -1.9947811917827E-01
28  2.7000000000000E-01  1.0135768428648E+00  1.3976215126521E+00 -1.9777955227001E-01
29  2.8000000000000E-01  8.4855619329143E-01  1.4317175668384E+00 -1.9973827234483E-01
30  2.9000000000000E-01  6.8011326299939E-01  1.4633745552106E+00 -2.0553982792141E-01
31  3.0000000000000E-01  5.1010533703912E-01  1.4924707629195E+00 -2.1524279043684E-01
32  3.1000000000000E-01  3.4035031790051E-01  1.5188914051366E+00 -2.2877230097694E-01
33  3.2000000000000E-01  1.7260468653323E-01  1.5425298356922E+00 -2.4591712558593E-01
34  3.3000000000000E-01  8.5430554442195E-03  1.5632887087578E+00 -2.6633040783526E-01
35  3.4000000000000E-01 -1.5026041491899E-01  1.5810810800069E+00 -2.8953419815093E-01
36  3.5000000000000E-01 -3.0234850800036E-01  1.5958314341956E+00 -3.1492772344898E-01
37  3.6000000000000E-01 -4.4639516893628E-01  1.6074766267416E+00 -3.4179924196213E-01
38  3.7000000000000E-01 -5.8121731465769E-01  1.6159667276550E+00 -3.6934121108009E-01
39  3.8000000000000E-01 -7.0578415226128E-01  1.6212657570779E+00 -3.9666838499938E-01
40  3.9000000000000E-01 -8.1922397102496E-01  1.6233523027416E+00 -4.2283835836484E-01
41  4.0000000000000E-01 -9.2082842137265E-01  1.6222200108346E+00 -4.4687398595138E-01
42  4.1000000000000E-01 -1.0100543393606E+00  1.6178779430994E+00 -4.6778704046164E-01
43  4.2000000000000E-01 -1.0865232168009E+00  1.6103507944333E+00 -4.8460242368512E-01
44  4.3000000000000E-01 -1.1500184540264E+00  1.5996789668470E+00 -4.9638222287573E-01
45  4.4000000000000E-01 -1.2004805638041E+00  1.5859184973227E+00 -5.0224890558921E-01
46  4.5000000000000E-01 -1.2380005204603E+00  1.5691408388911E+00 -5.0140697279616E-01
47  4.6000000000000E-01 -1.2628114675793E+00  1.5494324960922E+00 -4.9316244122774E-01
48  4.7000000000000E-01 -1.2752790105536E+00  1.5268945178688E+00 -4.7693959997551E-01
49  4.8000000000000E-01 -1.2758903269266E+00  1.5016418528308E+00 -4.5229458076498E-01
50  4.9000000000000E-01 -1.2652423281822E+00  1.4738025736958E+00 -4.1892539256418E-01
51  5.0000000000000E-01 -1.2440291019256E+00  1.4435169795055E+00 -3.7667819503199E-01
52  5.1000000000000E-01 -1.2130288539330E+00  1.4109365859139E+00 -3.2554971694270E-01
53  5.2000000000000E-01 -1.1730905561254E+00  1.3762230153928E+00 -2.6568585992734E-01
54  5.3000000000000E-01 -1.1251204900471E+00  1.3395468005702E+00 -1.9737665925141E-01
55  5.4000000000000E-01 -1.0700688568454E+00  1.3010861150737E+00 -1.2104789657987E-01
56  5.5000000000000E-01 -1.0089166050096E+00  1.2610254471578E+00 -3.7249769703268E-02
57  5.6000000000000E-01 -9.4266260715631E-01  1.2195542320344E+00  5.3356883524889E-02
58  5.7000000000000E-01 -8.7231129779471E-01  1.1768654591753E+00  1.5001623908456E-01
59  5.8000000000000E-01 -7.9886086599819E-01  1.1331542709049E+00  2.5189440436867E-01
60  5.9000000000000E-01 -7.2329208085226E-01  1.0886165683495E+00  3.5809696550509E-01
61  6.0000000000000E-01 -6.4655781386704E-01  1.0434476402642E+00  4.6768653785615E-01
62  6.1000000000000E-01 -5.6957331148864E-01  9.9784082942877E-01  5.7969972724380E-01
63  6.2000000000000E-01 -4.9320726248376E-01  9.5198625022386E-01  6.9316296869196E-01
64  6.3000000000000E-01 -4.1827369918142E-01  9.0606956969042E-01  8.0710679108723E-01
65  6.4000000000000E-01 -3.4552476804540E-01  8.6027086288435E-01  9.2057815636082E-01
66  6.5000000000000E-01 -2.7564440337370E-01  8.1476355170648E-01  1.0326506359208E+00
67  6.6000000000000E-01 -2.0924293750579E-01  7.6971343466501E-01  1.1424323097646E+00
68  6.7000000000000E-01 -1.4685268110412E-01  7.2527781326508E-01  1.2490713991629E+00
69  6.8000000000000E-01 -8.8924507150863E-02  6.8160471896992E-01  1.3517597660335E+00
70  6.9000000000000E-01 -3.5825471538352E-02  6.3883224299072E-01  1.4497345251517E+00
71  7.0000000000000E-01  1.2162499151657E-02  5.9708796958600E-01  1.5422781135861E+00
72  7.1000000000000E-01  5.4842826506181E-02  5.5648851212729E-01  1.6287172401897E+00
73  7.2000000000000E-01  9.2103386655341E-02  5.1713914995169E-01  1.7084211924688E+00
74  7.3000000000000E-01  1.2391449507307E-01  4.7913356300141E-01  1.7808000055870E+00
75  7.4000000000000E-01  1.5032577389313E-01  4.4255366046144E-01  1.8453029967689E+00
76  7.5000000000000E-01  1.7146192212390E-01  4.0746949905826E-01  1.9014181374238E+00
77  7.6000000000000E-01  1.8751742831863E-01  3.7393928637016E-01  1.9486726757758E+00
78  7.7000000000000E-01  1.9875028686470E-01  3.4200946441058E-01  1.9866353369610E+00
79  7.8000000000000E-01  2.0547480244657E-01  3.1171486885562E-01  2.0149203190596E+00
80  7.9000000000000E-01  2.0805359159521E-01  2.8307895956292E-01  2.0331931772116E+00
81  8.0000000000000E-01  2.0688891458775E-01  2.5611411843136E-01  2.0411785497218E+00
82  8.1000000000000E-01  2.0241349422765E-01  2.3082201113294E-01  2.0386695365660E+00
83  8.2000000000000E-01  1.9508099907512E-01  2.0719400976008E-01  2.0255383992046E+00
84  8.3000000000000E-01  1.8535638635567E-01  1.8521167392102E-01  2.0017481185202E+00
85  8.4000000000000E-01  1.7370631293963E-01  1.6484728823315E-01  1.9673642323595E+00
86  8.5000000000000E-01  1.6058983044211E-01  1.4606445445959E-01  1.9225662824731E+00
87  8.6000000000000E-01  1.4644958177613E-01  1.2881873666742E-01  1.8676581387337E+00
88  8.7000000000000E-01  1.3170371073510E-01  1.1305835771968E-01  1.8030764414442E+00
89  8.8000000000000E-01  1.1673868295864E-01  9.8724945124378E-02  1.7293964140574E+00
90  8.9000000000000E-01  1.0190319579890E-01  8.5754323735510E-02  1.6473343509097E+00
91  9.0000000000000E-01  8.7503326295903E-02  7.4077352032575E-02  1.5577461781383E+00
92  9.1000000000000E-01  7.3799031149371E-02  6.3620797704859E-02  1.4616216194988E+00
93  9.2000000000000E-01  6.1002070997909E-02  5.4308247058445E-02  1.3600736692872E+00
94  9.3000000000000E-01  4.9275384536577E-02  4.6061041381084E-02  1.2543232771884E+00
95  9.4000000000000E-01  3.8733887345709E-02  3.8799231889277E-02  1.1456793782061E+00
96  9.5000000000000E-01  2.9446617279306E-02  3.2442543297068E-02  1.0355146472379E+00
97  9.6000000000000E-01  2.1440094608899E-02  2.6911334450894E-02  9.2523761336274E-01
98  9.7000000000000E-01  1.4702712626976E-02  2.2127542935826E-02  8.1626202404055E-01
99  9.8000000000000E-01  9.1899249567786E-03  1.8015599146214E-02  7.0997459412099E-01
100  9.9000000000000E-01  4.8299512145948E-03  1.4503294097125E-02  6.0770249890396E-01
101  1.0000000000000E+00  1.5296846333673E-03  1.1522584297484E-02  5.1068216501404E-01
102  1.0100000000000E+00 -8.1954463858820E-04  9.0103163716797E-03  4.2003106872567E-01
103  1.0200000000000E+00 -2.3367173240331E-03  6.9088538527794E-03  3.3672436122582E-01
104  1.0300000000000E+00 -3.1467592758298E-03  5.1665910720689E-03  2.6157819100402E-01
105  1.0400000000000E+00 -3.3774185735415E-03  3.7383185213002E-03  1.9524155269777E-01
106  1.0500000000000E+00 -3.1585280189663E-03  2.5845951801327E-03  1.3820201153599E-01
107  1.0600000000000E+00 -2.6186761675144E-03  1.6639364090669E-03  9.0793998351520E-02
108  1.0700000000000E+00 -1.8749134570992E-03  9.5580538357891E-04  5.3157103904786E-02
109  1.0800000000000E+00 -1.0702421016157E-03  4.4847844469466E-04  2.5404929759843E-02
110  1.0900000000000E+00 -3.7883699216190E-04  1.3296865121597E-04  7.6720144945156E-03
111  1.1000000000000E+00 -1.9475637578347E-05  5.7737328765646E-06  3.3916841329691E-04
112  1.1100000000000E+00 -1.3447045782945E-06  4.0035636761907E-07  2.3611304097218E-05
113  1.1200000000000E+00  2.5344380328126E-07 -8.0595176077718E-08 -4.7158107142309E-06
114  1.13  0.  0.  0.
115  1.14  0.  0.  0.
116  1.15  0.  0.  0.
117  1.16  0.  0.  0.
118  1.17  0.  0.  0.
119  1.18  0.  0.  0.
120  1.19  0.  0.  0.
121  1.20  0.  0.  0.
122  1.21  0.  0.  0.
123  1.22  0.  0.  0.
124  1.23  0.  0.  0.
125  1.24  0.  0.  0.
126  1.25  0.  0.  0.
127  1.26  0.  0.  0.
128  1.27  0.  0.  0.
129  1.28  0.  0.  0.
130  1.29  0.  0.  0.
131  1.30  0.  0.  0.
132  1.31  0.  0.  0.
133  1.32  0.  0.  0.
134  1.33  0.  0.  0.
135  1.34  0.  0.  0.
136  1.35  0.  0.  0.
137  1.36  0.  0.  0.
138  1.37  0.  0.  0.
139  1.38  0.  0.  0.
140  1.39  0.  0.  0.
141  1.40  0.  0.  0.
142  1.41  0.  0.  0.
143  1.42  0.  0.  0.
144  1.43  0.  0.  0.
145  1.44  0.  0.  0.
146  1.45  0.  0.  0.
147  1.46  0.  0.  0.
148  1.47  0.  0.  0.
149  1.48  0.  0.  0.
150  1.49  0.  0.  0.
151  1.50  0.  0.  0.
152  1.51  0.  0.  0.
153  1.52  0.  0.  0.
154  1.53  0.  0.  0.
155  1.54  0.  0.  0.
156  1.55  0.  0.  0.
157  1.56  0.  0.  0.
158  1.57  0.  0.  0.
159  1.58  0.  0.  0.
160  1.59  0.  0.  0.
161  1.60  0.  0.  0.
162  1.61  0.  0.  0.
163  1.62  0.  0.  0.
164  1.63  0.  0.  0.
165  1.64  0.  0.  0.
166  1.65  0.  0.  0.
167  1.66  0.  0.  0.
168  1.67  0.  0.  0.
169  1.68  0.  0.  0.
170  1.69  0.  0.  0.
171  1.70  0.  0.  0.
172  1.71  0.  0.  0.
173  1.72  0.  0.  0.
174  1.73  0.  0.  0.
175  1.74  0.  0.  0.
176  1.75  0.  0.  0.
177  1.76  0.  0.  0.
178  1.77  0.  0.  0.
179  1.78  0.  0.  0.
180  1.79  0.  0.  0.
181  1.80  0.  0.  0.
182  1.81  0.  0.  0.
183  1.82  0.  0.  0.
184  1.83  0.  0.  0.
185  1.84  0.  0.  0.
186  1.85  0.  0.  0.
187  1.86  0.  0.  0.
188  1.87  0.  0.  0.
189  1.88  0.  0.  0.
190  1.89  0.  0.  0.
191  1.90  0.  0.  0.
192  1.91  0.  0.  0.
193  1.92  0.  0.  0.
194  1.93  0.  0.  0.
195  1.94  0.  0.  0.
196  1.95  0.  0.  0.
197  1.96  0.  0.  0.
198  1.97  0.  0.  0.
199  1.98  0.  0.  0.
200  1.99  0.  0.  0.
201  2.00  0.  0.  0.
202  2.01  0.  0.  0.
203  2.02  0.  0.  0.
204  2.03  0.  0.  0.
205  2.04  0.  0.  0.
206  2.05  0.  0.  0.
207  2.06  0.  0.  0.
208  2.07  0.  0.  0.
209  2.08  0.  0.  0.
210  2.09  0.  0.  0.
211  2.10  0.  0.  0.
212  2.11  0.  0.  0.
213  2.12  0.  0.  0.
214  2.13  0.  0.  0.
215  2.14  0.  0.  0.
216  2.15  0.  0.  0.
217  2.16  0.  0.  0.
218  2.17  0.  0.  0.
219  2.18  0.  0.  0.
220  2.19  0.  0.  0.
221  2.20  0.  0.  0.
222  2.21  0.  0.  0.
223  2.22  0.  0.  0.
224  2.23  0.  0.  0.
225  2.24  0.  0.  0.
226  2.25  0.  0.  0.
227  2.26  0.  0.  0.
228  2.27  0.  0.  0.
229  2.28  0.  0.  0.
230  2.29  0.  0.  0.
231  2.30  0.  0.  0.
232  2.31  0.  0.  0.
233  2.32  0.  0.  0.
234  2.33  0.  0.  0.
235  2.34  0.  0.  0.
236  2.35  0.  0.  0.
237  2.36  0.  0.  0.
238  2.37  0.  0.  0.
239  2.38  0.  0.  0.
240  2.39  0.  0.  0.
241  2.40  0.  0.  0.
242  2.41  0.  0.  0.
243  2.42  0.  0.  0.
244  2.43  0.  0.  0.
245  2.44  0.  0.  0.
246  2.45  0.  0.  0.
247  2.46  0.  0.  0.
248  2.47  0.  0.  0.
249  2.48  0.  0.  0.
250  2.49  0.  0.  0.
251  2.50  0.  0.  0.
252  2.51  0.  0.  0.
253  2.52  0.  0.  0.
254  2.53  0.  0.  0.
255  2.54  0.  0.  0.
256  2.55  0.  0.  0.
257  2.56  0.  0.  0.
258  2.57  0.  0.  0.
259  2.58  0.  0.  0.
260  2.59  0.  0.  0.
261  2.60  0.  0.  0.
262  2.61  0.  0.  0.
263  2.62  0.  0.  0.
264  2.63  0.  0.  0.
265  2.64  0.  0.  0.
266  2.65  0.  0.  0.
267  2.66  0.  0.  0.
268  2.67  0.  0.  0.
269  2.68  0.  0.  0.
270  2.69  0.  0.  0.
271  2.70  0.  0.  0.
272  2.71  0.  0.  0.
273  2.72  0.  0.  0.
274  2.73  0.  0.  0.
275  2.74  0.  0.  0.
276  2.75  0.  0.  0.
277  2.76  0.  0.  0.
278  2.77  0.  0.  0.
279  2.78  0.  0.  0.
280  2.79  0.  0.  0.
281  2.80  0.  0.  0.
282  2.81  0.  0.  0.
283  2.82  0.  0.  0.
284  2.83  0.  0.  0.
285  2.84  0.  0.  0.
286  2.85  0.  0.  0.
287  2.86  0.  0.  0.
288  2.87  0.  0.  0.
289  2.88  0.  0.  0.
290  2.89  0.  0.  0.
291  2.90  0.  0.  0.
292  2.91  0.  0.  0.
293  2.92  0.  0.  0.
294  2.93  0.  0.  0.
295  2.94  0.  0.  0.
296  2.95  0.  0.  0.
297  2.96  0.  0.  0.
298  2.97  0.  0.  0.
299  2.98  0.  0.  0.
300  2.99  0.  0.  0.
301  3.00  0.  0.  0.
302  3.01  0.  0.  0.
303  3.02  0.  0.  0.
304  3.03  0.  0.  0.
305  3.04  0.  0.  0.
306  3.05  0.  0.  0.
307  3.06  0.  0.  0.
308  3.07  0.  0.  0.
309  3.08  0.  0.  0.
310  3.09  0.  0.  0.
311  3.10  0.  0.  0.
312  3.11  0.  0.  0.
313  3.12  0.  0.  0.
314  3.13  0.  0.  0.
315  3.14  0.  0.  0.
316  3.15  0.  0.  0.
317  3.16  0.  0.  0.
318  3.17  0.  0.  0.
319  3.18  0.  0.  0.
320  3.19  0.  0.  0.
321  3.20  0.  0.  0.
322  3.21  0.  0.  0.
323  3.22  0.  0.  0.
324  3.23  0.  0.  0.
325  3.24  0.  0.  0.
326  3.25  0.  0.  0.
327  3.26  0.  0.  0.
328  3.27  0.  0.  0.
329  3.28  0.  0.  0.
330  3.29  0.  0.  0.
331  3.30  0.  0.  0.
332  3.31  0.  0.  0.
333  3.32  0.  0.  0.
334  3.33  0.  0.  0.
335  3.34  0.  0.  0.
336  3.35  0.  0.  0.
337  3.36  0.  0.  0.
338  3.37  0.  0.  0.
339  3.38  0.  0.  0.
340  3.39  0.  0.  0.
341  3.40  0.  0.  0.
342  3.41  0.  0.  0.
343  3.42  0.  0.  0.
344  3.43  0.  0.  0.
345  3.44  0.  0.  0.
346  3.45  0.  0.  0.
347  3.46  0.  0.  0.
348  3.47  0.  0.  0.
349  3.48  0.  0.  0.
350  3.49  0.  0.  0.
351  3.50  0.  0.  0.
352  3.51  0.  0.  0.
353  3.52  0.  0.  0.
354  3.53  0.  0.  0.
355  3.54  0.  0.  0.
356  3.55  0.  0.  0.
357  3.56  0.  0.  0.
358  3.57  0.  0.  0.
359  3.58  0.  0.  0.
360  3.59  0.  0.  0.
361  3.60  0.  0.  0.
362  3.61  0.  0.  0.
363  3.62  0.  0.  0.
364  3.63  0.  0.  0.
365  3.64  0.  0.  0.
366  3.65  0.  0.  0.
367  3.66  0.  0.  0.
368  3.67  0.  0.  0.
369  3.68  0.  0.  0.
370  3.69  0.  0.  0.
371  3.70  0.  0.  0.
372  3.71  0.  0.  0.
373  3.72  0.  0.  0.
374  3.73  0.  0.  0.
375  3.74  0.  0.  0.
376  3.75  0.  0.  0.
377  3.76  0.  0.  0.
378  3.77  0.  0.  0.
379  3.78  0.  0.  0.
380  3.79  0.  0.  0.
381  3.80  0.  0.  0.
382  3.81  0.  0.  0.
383  3.82  0.  0.  0.
384  3.83  0.  0.  0.
385  3.84  0.  0.  0.
386  3.85  0.  0.  0.
387  3.86  0.  0.  0.
388  3.87  0.  0.  0.
389  3.88  0.  0.  0.
390  3.89  0.  0.  0.
391  3.90  0.  0.  0.
392  3.91  0.  0.  0.
393  3.92  0.  0.  0.
394  3.93  0.  0.  0.
395  3.94  0.  0.  0.
396  3.95  0.  0.  0.
397  3.96  0.  0.  0.
398  3.97  0.  0.  0.
399  3.98  0.  0.  0.
400  3.99  0.  0.  0.
401  4.00  0.  0.  0.
402  4.01  0.  0.  0.
403  4.02  0.  0.  0.
404  4.03  0.  0.  0.
405  4.04  0.  0.  0.
406  4.05  0.  0.  0.
407  4.06  0.  0.  0.
408  4.07  0.  0.  0.
409  4.08  0.  0.  0.
410  4.09  0.  0.  0.
411  4.10  0.  0.  0.
412  4.11  0.  0.  0.
413  4.12  0.  0.  0.
414  4.13  0.  0.  0.
415  4.14  0.  0.  0.
416  4.15  0.  0.  0.
417  4.16  0.  0.  0.
418  4.17  0.  0.  0.
419  4.18  0.  0.  0.
420  4.19  0.  0.  0.
421  4.20  0.  0.  0.
422  4.21  0.  0.  0.
423  4.22  0.  0.  0.
424  4.23  0.  0.  0.
425  4.24  0.  0.  0.
426  4.25  0.  0.  0.
427  4.26  0.  0.  0.
428  4.27  0.  0.  0.
429  4.28  0.  0.  0.
430  4.29  0.  0.  0.
431  4.30  0.  0.  0.
432  4.31  0.  0.  0.
433  4.32  0.  0.  0.
434  4.33  0.  0.  0.
435  4.34  0.  0.  0.
436  4.35  0.  0.  0.
437  4.36  0.  0.  0.
438  4.37  0.  0.  0.
439  4.38  0.  0.  0.
440  4.39  0.  0.  0.
441  4.40  0.  0.  0.
442  4.41  0.  0.  0.
443  4.42  0.  0.  0.
444  4.43  0.  0.  0.
445  4.44  0.  0.  0.
446  4.45  0.  0.  0.
447  4.46  0.  0.  0.
448  4.47  0.  0.  0.
449  4.48  0.  0.  0.
450  4.49  0.  0.  0.
451  4.50  0.  0.  0.
452  4.51  0.  0.  0.
453  4.52  0.  0.  0.
454  4.53  0.  0.  0.
455  4.54  0.  0.  0.
456  4.55  0.  0.  0.
457  4.56  0.  0.  0.
458  4.57  0.  0.  0.
459  4.58  0.  0.  0.
460  4.59  0.  0.  0.
461  4.60  0.  0.  0.
462  4.61  0.  0.  0.
463  4.62  0.  0.  0.
464  4.63  0.  0.  0.
465  4.64  0.  0.  0.
466  4.65  0.  0.  0.
467  4.66  0.  0.  0.
468  4.67  0.  0.  0.
469  4.68  0.  0.  0.
470  4.69  0.  0.  0.
471  4.70  0.  0.  0.
472  4.71  0.  0.  0.
473  4.72  0.  0.  0.
474  4.73  0.  0.  0.
475  4.74  0.  0.  0.
476  4.75  0.  0.  0.
477  4.76  0.  0.  0.
478  4.77  0.  0.  0.
479  4.78  0.  0.  0.
480  4.79  0.  0.  0.
481  4.80  0.  0.  0.
482  4.81  0.  0.  0.
483  4.82  0.  0.  0.
484  4.83  0.  0.  0.
485  4.84  0.  0.  0.
486  4.85  0.  0.  0.
487  4.86  0.  0.  0.
488  4.87  0.  0.  0.
489  4.88  0.  0.  0.
490  4.89  0.  0.  0.
491  4.90  0.  0.  0.
492  4.91  0.  0.  0.
493  4.92  0.  0.  0.
494  4.93  0.  0.  0.
495  4.94  0.  0.  0.
496  4.95  0.  0.  0.
497  4.96  0.  0.  0.
498  4.97  0.  0.  0.
499  4.98  0.  0.  0.
500  4.99  0.  0.  0.
501  5.00  0.  0.  0.
502  5.01  0.  0.  0.
503  5.02  0.  0.  0.
504  5.03  0.  0.  0.
505  5.04  0.  0.  0.
506  5.05  0.  0.  0.
507  5.06  0.  0.  0.
508  5.07  0.  0.  0.
509  5.08  0.  0.  0.
510  5.09  0.  0.  0.
511  5.10  0.  0.  0.
512  5.11  0.  0.  0.
513  5.12  0.  0.  0.
514  5.13  0.  0.  0.
515  5.14  0.  0.  0.
516  5.15  0.  0.  0.
517  5.16  0.  0.  0.
518  5.17  0.  0.  0.
519  5.18  0.  0.  0.
520  5.19  0.  0.  0.
521  5.20  0.  0.  0.
522  5.21  0.  0.  0.
523  5.22  0.  0.  0.
524  5.23  0.  0.  0.
525  5.24  0.  0.  0.
526  5.25  0.  0.  0.
527  5.26  0.  0.  0.
528  5.27  0.  0.  0.
529  5.28  0.  0.  0.
530  5.29  0.  0.  0.
531  5.30  0.  0.  0.
532  5.31  0.  0.  0.
533  5.32  0.  0.  0.
534  5.33  0.  0.  0.
535  5.34  0.  0.  0.
536  5.35  0.  0.  0.
537  5.36  0.  0.  0.
538  5.37  0.  0.  0.
539  5.38  0.  0.  0.
540  5.39  0.  0.  0.
541  5.40  0.  0.  0.
542  5.41  0.  0.  0.
543  5.42  0.  0.  0.
544  5.43  0.  0.  0.
545  5.44  0.  0.  0.
546  5.45  0.  0.  0.
547  5.46  0.  0.  0.
548  5.47  0.  0.  0.
549  5.48  0.  0.  0.
550  5.49  0.  0.  0.
551  5.50  0.  0.  0.
552  5.51  0.  0.  0.
553  5.52  0.  0.  0.
554  5.53  0.  0.  0.
555  5.54  0.  0.  0.
556  5.55  0.  0.  0.
557  5.56  0.  0.  0.
558  5.57  0.  0.  0.
559  5.58  0.  0.  0.
560  5.59  0.  0.  0.
561  5.60  0.  0.  0.
562  5.61  0.  0.  0.
563  5.62  0.  0.  0.
564  5.63  0.  0.  0.
565  5.64  0.  0.  0.
566  5.65  0.  0.  0.
567  5.66  0.  0.  0.
568  5.67  0.  0.  0.
569  5.68  0.  0.  0.
570  5.69  0.  0.  0.
571  5.70  0.  0.  0.
572  5.71  0.  0.  0.
573  5.72  0.  0.  0.
574  5.73  0.  0.  0.
575  5.74  0.  0.  0.
576  5.75  0.  0.  0.
577  5.76  0.  0.  0.
578  5.77  0.  0.  0.
579  5.78  0.  0.  0.
580  5.79  0.  0.  0.
581  5.80  0.  0.  0.
582  5.81  0.  0.  0.
583  5.82  0.  0.  0.
584  5.83  0.  0.  0.
585  5.84  0.  0.  0.
586  5.85  0.  0.  0.
587  5.86  0.  0.  0.
588  5.87  0.  0.  0.
589  5.88  0.  0.  0.
590  5.89  0.  0.  0.
591  5.90  0.  0.  0.
592  5.91  0.  0.  0.
593  5.92  0.  0.  0.
594  5.93  0.  0.  0.
595  5.94  0.  0.  0.
596  5.95  0.  0.  0.
597  5.96  0.  0.  0.
598  5.97  0.  0.  0.
599  5.98  0.  0.  0.
600  5.99  0.  0.  0.
1                        -1.0209171041248E+01 -4.4502837975543E-01
1  0.0000000000000E+00  3.0983988152933E-09 -2.2146140143953E-08
2  1.0000000000000E-02  2.7288602407905E-03 -4.9385432780022E-03
3  2.0000000000000E-02  1.0896362444481E-02 -1.9686569799031E-02
4  3.0000000000000E-02  2.4445434357921E-02 -4.4042163586035E-02
5  4.0000000000000E-02  4.3281498184089E-02 -7.7671765354003E-02
6  5.0000000000000E-02  6.7273278527638E-02 -1.2011457986190E-01
7  6.0000000000000E-02  9.6253921612175E-02 -1.7078865954228E-01
8  7.0000000000000E-02  1.3002241404140E-01 -2.2899857928689E-01
9  8.0000000000000E-02  1.6834528627791E-01 -2.9394459512038E-01
10  9.0000000000000E-02  2.1095858309931E-01 -3.6473315893327E-01
11  1.0000000000000E-01  2.5757008059716E-01 -4.4038864277297E-01
12  1.1000000000000E-01  3.0786172684223E-01 -5.1986610968004E-01
13  1.2000000000000E-01  3.6149228117900E-01 -6.0206495394740E-01
14  1.3000000000000E-01  4.1810012525735E-01 -6.8584322217760E-01
15  1.4000000000000E-01  4.7730621738156E-01 -7.7003241778011E-01
16  1.5000000000000E-01  5.3871716057112E-01 -8.5345258571037E-01
17  1.6000000000000E-01  6.0192835389643E-01 -9.3492747138173E-01
18  1.7000000000000E-01  6.6652719618134E-01 -1.0132995478132E+00
19  1.8000000000000E-01  7.3209631105503E-01 -1.0874447081951E+00
20  1.9000000000000E-01  7.9821676258469E-01 -1.1562864271035E+00
21  2.0000000000000E-01  8.6447123131952E-01 -1.2188092024653E+00
22  2.1000000000000E-01  9.3044712151287E-01 -1.2740711019261E+00
23  2.2000000000000E-01  9.9573957154562E-01 -1.3212152513066E+00
24  2.3000000000000E-01  1.0599543411285E+00 -1.3594801191311E+00
25  2.4000000000000E-01  1.1227105506900E+00 -1.3882084695087E+00
26  2.5000000000000E-01  1.1836432504299E+00 -1.4068548756515E+00
27  2.6000000000000E-01  1.2424057988057E+00 -1.4149917077143E+00
28  2.7000000000000E-01  1.2986720326897E+00 -1.4123135310928E+00
29  2.8000000000000E-01  1.3521382140444E+00 -1.3986398744740E+00
30  2.9000000000000E-01  1.4025247406915E+00 -1.3739163504368E+00
31  3.0000000000000E-01  1.4495776115378E+00 -1.3382141348776E+00
32  3.1000000000000E-01  1.4930696394562E+00 -1.2917278346396E+00
33  3.2000000000000E-01  1.5328014078394E+00 -1.2347717950886E+00
34  3.3000000000000E-01  1.5686019696366E+00 -1.1677749206737E+00
35  3.4000000000000E-01  1.6003292903940E+00 -1.0912741014221E+00
36  3.5000000000000E-01  1.6278704394317E+00 -1.0059063565424E+00
37  3.6000000000000E-01  1.6511415357619E+00 -9.1239982260209E-01
38  3.7000000000000E-01  1.6700874576664E+00 -8.1156372786272E-01
39  3.8000000000000E-01  1.6846813269738E+00 -7.0427750612308E-01
40  3.9000000000000E-01  1.6949237810000E+00 -5.9147921268196E-01
41  4.0000000000000E-01  1.7008420468026E+00 -4.7415341168713E-01
42  4.1000000000000E-01  1.7024888338648E+00 -3.5331870812877E-01
43  4.2000000000000E-01  1.6999410625271E+00 -2.3001509904753E-01
44  4.3000000000000E-01  1.6932984464503E+00 -1.0529131719583E-01
45  4.4000000000000E-01  1.6826819480946E+00  1.9807663510887E-02
46  4.5000000000000E-01  1.6682321266544E+00  1.4425279776539E-01
47  4.6000000000000E-01  1.6501073980979E+00  2.6704265951411E-01
48  4.7000000000000E-01  1.6284822269310E+00  3.8721450986381E-01
49  4.8000000000000E-01  1.6035452690529E+00  5.0385461123480E-01
50  4.9000000000000E-01  1.5754974846095E+00  6.1610767095864E-01
51  5.0000000000000E-01  1.5445502390926E+00  7.2318531306172E-01
52  5.1000000000000E-01  1.5109234101095E+00  8.2437349355970E-01
53  5.2000000000000E-01  1.4748435162625E+00  9.1903879190368E-01
54  5.3000000000000E-01  1.4365418834669E+00  1.0066335289596E+00
55  5.4000000000000E-01  1.3962528628188E+00  1.0866996797565E+00
56  5.5000000000000E-01  1.3542121128146E+00  1.1588715669087E+00
57  5.6000000000000E-01  1.3106549573581E+00  1.2228773378099E+00
58  5.7000000000000E-01  1.2658148295829E+00  1.2785392451493E+00
59  5.8000000000000E-01  1.2199218100894E+00  1.3257727657614E+00
60  5.9000000000000E-01  1.1732012667685E+00  1.3645846070759E+00
61  6.0000000000000E-01  1.1258726019811E+00  1.3950696632983E+00
62  6.1000000000000E-01  1.0781481114880E+00  1.4174069947732E+00
63  6.2000000000000E-01  1.0302319582121E+00  1.4318549136481E+00
64  6.3000000000000E-01  9.8231926265902E-01  1.4387452668903E+00
65  6.4000000000000E-01  9.3459531064627E-01  1.4384770138785E+00
66  6.5000000000000E-01  8.8723487789983E-01  1.4315092001977E+00
67  6.6000000000000E-01  8.4040167007346E-01  1.4183534319447E+00
68  6.7000000000000E-01  7.9424787584029E-01  1.3995659558897E+00
69  6.8000000000000E-01  7.4891382989587E-01  1.3757394503273E+00
70  6.9000000000000E-01  7.0452778199933E-01  1.3474946295413E+00
71  7.0000000000000E-01  6.6120576756154E-01  1.3154717616477E+00
72  7.1000000000000E-01  6.1905157476449E-01  1.2803221953566E+00
73  7.2000000000000E-01  5.7815680275826E-01  1.2426999861000E+00
74  7.3000000000000E-01  5.3860100512705E-01  1.2032537062043E+00
75  7.4000000000000E-01  5.0045191253529E-01  1.1626185175616E+00
76  7.5000000000000E-01  4.6376572825393E-01  1.1214085787609E+00
77  7.6000000000000E-01  4.2858749011602E-01  1.0802098520891E+00
78  7.7000000000000E-01  3.9495149235381E-01  1.0395733693754E+00
79  7.8000000000000E-01  3.6288176071852E-01  1.0000090094982E+00
80  7.9000000000000E-01  3.3239257427203E-01  9.6197983464732E-01
81  8.0000000000000E-01  3.0348902726017E-01  9.2589702725067E-01
82  8.1000000000000E-01  2.7616762452528E-01  8.9211546492058E-01
83  8.2000000000000E-01  2.5041690398498E-01  8.6092996691854E-01
84  8.3000000000000E-01  2.2621807979206E-01  8.3257224249487E-01
85  8.4000000000000E-01  2.0354569989332E-01  8.0720856903745E-01
86  8.5000000000000E-01  1.8236831182138E-01  7.8493822621759E-01
87  8.6000000000000E-01  1.6264913068226E-01  7.6579271119775E-01
88  8.7000000000000E-01  1.4434670344246E-01  7.4973575936068E-01
89  8.8000000000000E-01  1.2741556377361E-01  7.3666419482981E-01
90  8.9000000000000E-01  1.1180687188249E-01  7.2640963513049E-01
91  9.0000000000000E-01  9.7469033940449E-02  7.1874107454793E-01
92  9.1000000000000E-01  8.4348295933540E-02  7.1336837090240E-01
93  9.2000000000000E-01  7.2389306984024E-02  7.0994666042035E-01
94  9.3000000000000E-01  6.1535647450398E-02  7.0808172496545E-01
95  9.4000000000000E-01  5.1730317398182E-02  7.0733633494125E-01
96  9.5000000000000E-01  4.2916181351208E-02  7.0723758953864E-01
97  9.6000000000000E-01  3.5036365585082E-02  7.0728527353803E-01
98  9.7000000000000E-01  2.8034604612300E-02  7.0696124648436E-01
99  9.8000000000000E-01  2.1855533933728E-02  7.0573987562434E-01
100  9.9000000000000E-01  1.6444926593194E-02  7.0309951850075E-01
101  1.0000000000000E+00  1.1749871570571E-02  6.9853505447447E-01
102  1.0100000000000E+00  7.7188925813241E-03  6.9157145673301E-01
103  1.0200000000000E+00  4.3020064142030E-03  6.8177838755979E-01
104  1.0300000000000E+00  1.4507205296443E-03  6.6878578987820E-01
105  1.0400000000000E+00 -8.8202974609046E-04  6.5230043744024E-01
106  1.0500000000000E+00 -2.7420034687737E-03  6.3212339467635E-01
107  1.0600000000000E+00 -4.1738341675573E-03  6.0816832530205E-01
108  1.0700000000000E+00 -5.2212655456799E-03  5.8048057651119E-01
109  1.0800000000000E+00 -5.9274399298072E-03  5.4925695321194E-01
110  1.0900000000000E+00 -6.3352362676236E-03  5.1486610327712E-01
111  1.1000000000000E+00 -6.4876495306831E-03  4.7786911598305E-01
112  1.1100000000000E+00 -6.4281461818699E-03  4.3903588747064E-01
113  1.1200000000000E+00 -6.1993206771272E-03  3.9924068701042E-01
114  1.1300000000000E+00 -5.8403247705877E-03  3.5928090467061E-01
115  1.1400000000000E+00 -5.3863556106191E-03  3.1984858565487E-01
116  1.1500000000000E+00 -4.8686355925241E-03  2.8153415183750E-01
117  1.1600000000000E+00 -4.3144525771264E-03  2.4483113919818E-01
118  1.1700000000000E+00 -3.7472525977976E-03  2.1014181136478E-01
119  1.1800000000000E+00 -3.1867759824482E-03  1.7778343442855E-01
120  1.1900000000000E+00 -2.6492281627002E-03  1.4799501860575E-01
121  1.2000000000000E+00 -2.1474765752688E-03  1.2094433209558E-01
122  1.2100000000000E+00 -1.6912653838607E-03  9.6735000341004E-02
123  1.2200000000000E+00 -1.2874401553018E-03  7.5413514546886E-02
124  1.2300000000000E+00 -9.4017690627417E-04  5.6976010211646E-02
125  1.2400000000000E+00 -6.5129636320918E-04  4.1370129444918E-02
126  1.2500000000000E+00 -4.2209310605717E-04  2.8448852622278E-02
127  1.2600000000000E+00 -2.5012712660161E-04  1.8118632675610E-02
128  1.2700000000000E+00 -1.2983963111474E-04  1.0283067445494E-02
129  1.2800000000000E+00 -5.4068740736498E-05  4.7946028441438E-03
130  1.2900000000000E+00 -1.4214447813740E-05  1.4602027659487E-03
131  1.3000000000000E+00 -7.7108356432138E-07  9.9086880002525E-05
132  1.3100000000000E+00  3.6784607301877E-08 -5.3887358675773E-06
133  1.3200000000000E+00  6.5576221344636E-09 -7.3934133436705E-07
134  1.33 -0. -0.
135  1.34  0.  0.
136  1.35  0.  0.
137  1.36  0.  0.
138  1.37  0.  0.
139  1.38  0.  0.
140  1.39  0.  0.
141  1.40  0.  0.
142  1.41  0.  0.