At    ONCVPSP-4.0.1  r_core=   1.40401   1.45532   1.40401   1.50851
85.0000     25.0000      231012    zatom,zion,pspd
8   -1012   3     4   600     0    pspcod,pspxc,lmax,lloc,mmax,r2well
5.99000000  5.00000000  0.00000000    rchrg fchrg qchrg
2     2     2     1     0    nproj
1     1           extension_switch
0                         1.0073946998676E+01 -3.6155254996763E-01
1  0.0000000000000E+00  7.5163764101660E-10  7.1950387314779E-09
2  1.0000000000000E-02  8.8110864986945E-02  2.1867514660065E-02
3  2.0000000000000E-02  1.7599098858584E-01  4.3771601620984E-02
4  3.0000000000000E-02  2.6341003496304E-01  6.5745745612967E-02
5  4.0000000000000E-02  3.5013848604175E-01  8.7817338996422E-02
6  5.0000000000000E-02  4.3594806680139E-01  1.1000484060408E-01
7  6.0000000000000E-02  5.2061218972980E-01  1.3231517533259E-01
8  7.0000000000000E-02  6.0390642390489E-01  1.5474144605264E-01
9  8.0000000000000E-02  6.8560899343087E-01  1.7726102221151E-01
10  9.0000000000000E-02  7.6550130904665E-01  1.9983406080912E-01
11  1.0000000000000E-01  8.4336853568137E-01  2.2240250542858E-01
12  1.1000000000000E-01  9.1900019757702E-01  2.4488959791538E-01
13  1.2000000000000E-01  9.9219082135811E-01  2.6719992536995E-01
14  1.3000000000000E-01  1.0627406161297E+00  2.8922001260962E-01
15  1.4000000000000E-01  1.1304561883593E+00  3.1081945744423E-01
16  1.5000000000000E-01  1.1951512879749E+00  3.3185259327985E-01
17  1.6000000000000E-01  1.2566475808185E+00  3.5216065100128E-01
18  1.7000000000000E-01  1.3147754413689E+00  3.7157438006775E-01
19  1.8000000000000E-01  1.3693747585094E+00  3.8991707755652E-01
20  1.9000000000000E-01  1.4202957460990E+00  4.0700796375776E-01
21  2.0000000000000E-01  1.4673997492316E+00  4.2266583409339E-01
22  2.1000000000000E-01  1.5105600363590E+00  4.3671290980221E-01
23  2.2000000000000E-01  1.5496625669281E+00  4.4897880417762E-01
24  2.3000000000000E-01  1.5846067238565E+00  4.5930451729514E-01
25  2.4000000000000E-01  1.6153060000508E+00  4.6754637022188E-01
26  2.5000000000000E-01  1.6416886282715E+00  4.7357978971462E-01
27  2.6000000000000E-01  1.6636981439576E+00  4.7730285639842E-01
28  2.7000000000000E-01  1.6812938711530E+00  4.7863953334454E-01
29  2.8000000000000E-01  1.6944513224072E+00  4.7754249776102E-01
30  2.9000000000000E-01  1.7031625044464E+00  4.7399550605752E-01
31  3.0000000000000E-01  1.7074361225182E+00  4.6801523169505E-01
32  3.1000000000000E-01  1.7072976775652E+00  4.5965252579158E-01
33  3.2000000000000E-01  1.7027894517856E+00  4.4899306220491E-01
34  3.3000000000000E-01  1.6939703796294E+00  4.3615734150751E-01
35  3.4000000000000E-01  1.6809158028672E+00  4.2130004163189E-01
36  3.5000000000000E-01  1.6637171099870E+00  4.0460871671369E-01
37  3.6000000000000E-01  1.6424812618227E+00  3.8630185949582E-01
38  3.7000000000000E-01  1.6173302069396E+00  3.6662635627834E-01
39  3.8000000000000E-01  1.5884001918799E+00  3.4585437650841E-01
40  3.9000000000000E-01  1.5558409728699E+00  3.2427975141080E-01
41  4.0000000000000E-01  1.5198149369716E+00  3.0221390729062E-01
42  4.1000000000000E-01  1.4804961419170E+00  2.7998142904155E-01
43  4.2000000000000E-01  1.4380692849445E+00  2.5791533774008E-01
44  4.3000000000000E-01  1.3927286118627E+00  2.3635217280699E-01
45  4.4000000000000E-01  1.3446767782680E+00  2.1562697391345E-01
46  4.5000000000000E-01  1.2941236753271E+00  1.9606826048626E-01
47  4.6000000000000E-01  1.2412852328016E+00  1.7799310725168E-01
48  4.7000000000000E-01  1.1863822120246E+00  1.6170241272152E-01
49  4.8000000000000E-01  1.1296390013479E+00  1.4747645388985E-01
50  4.9000000000000E-01  1.0712824261631E+00  1.3557081473552E-01
51  5.0000000000000E-01  1.0115405849766E+00  1.2621276852737E-01
52  5.1000000000000E-01  9.5064172219270E-01  1.1959818455648E-01
53  5.2000000000000E-01  8.8881314725971E-01  1.1588901896780E-01
54  5.3000000000000E-01  8.2628020867794E-01  1.1521143705973E-01
55  5.4000000000000E-01  7.6326533008215E-01  1.1765460102742E-01
56  5.5000000000000E-01  6.9998711422553E-01  1.2327014292868E-01
57  5.6000000000000E-01  6.3665951923706E-01  1.3207232795963E-01
58  5.7000000000000E-01  5.7349111003166E-01  1.4403889825864E-01
59  5.8000000000000E-01  5.1068438625671E-01  1.5911257274172E-01
60  5.9000000000000E-01  4.4843518669185E-01  1.7720316423423E-01
61  6.0000000000000E-01  3.8693216861471E-01  1.9819026172293E-01
62  6.1000000000000E-01  3.2635635933369E-01  2.2192641321325E-01
63  6.2000000000000E-01  2.6688077589946E-01  2.4824073372088E-01
64  6.3000000000000E-01  2.0867010796560E-01  2.7694285360904E-01
65  6.4000000000000E-01  1.5188045789780E-01  3.0782711502444E-01
66  6.5000000000000E-01  9.6659131549911E-02  3.4067691876552E-01
67  6.6000000000000E-01  4.3144472647113E-02  3.7526912067660E-01
68  6.7000000000000E-01 -8.5342665482918E-03  4.1137837568803E-01
69  6.8000000000000E-01 -5.8257025659997E-02  4.4878132896137E-01
70  6.9000000000000E-01 -1.0591301491177E-01  4.8726055723559E-01
71  7.0000000000000E-01 -1.5140077895382E-01  5.2660816934728E-01
72  7.1000000000000E-01 -1.9462825204222E-01  5.6662898290310E-01
73  7.2000000000000E-01 -2.3551281004720E-01  6.0714320405394E-01
74  7.3000000000000E-01 -2.7398132383762E-01  6.4798854905465E-01
75  7.4000000000000E-01 -3.0997021752112E-01  6.8902175954113E-01
76  7.5000000000000E-01 -3.4342553384063E-01  7.3011947793506E-01
77  7.6000000000000E-01 -3.7430300776879E-01  7.7117846478168E-01
78  7.7000000000000E-01 -4.0256814803708E-01  8.1211515579652E-01
79  7.8000000000000E-01 -4.2819632501903E-01  8.5286457259057E-01
80  7.9000000000000E-01 -4.5117286209503E-01  8.9337861709274E-01
81  8.0000000000000E-01 -4.7149312639307E-01  9.3362379522727E-01
82  8.1000000000000E-01 -4.8916261366229E-01  9.7357843007490E-01
83  8.2000000000000E-01 -5.0419702102627E-01  1.0132294382021E+00
84  8.3000000000000E-01 -5.1662230051074E-01  1.0525687547643E+00
85  8.4000000000000E-01 -5.2647468557501E-01  1.0915895030812E+00
86  8.5000000000000E-01 -5.3380068241857E-01  1.1302820123926E+00
87  8.6000000000000E-01 -5.3865701760520E-01  1.1686297932194E+00
88  8.7000000000000E-01 -5.4111053355819E-01  1.2066055830091E+00
89  8.8000000000000E-01 -5.4123802374181E-01  1.2441675754326E+00
90  8.9000000000000E-01 -5.3912599985682E-01  1.2812559447591E+00
91  9.0000000000000E-01 -5.3487038413892E-01  1.3177897721696E+00
92  9.1000000000000E-01 -5.2857612084929E-01  1.3536644737432E+00
93  9.2000000000000E-01 -5.2035670226901E-01  1.3887498202688E+00
94  9.3000000000000E-01 -5.1033360593473E-01  1.4228886271894E+00
95  9.4000000000000E-01 -4.9863564145420E-01  1.4558961790831E+00
96  9.5000000000000E-01 -4.8539820698603E-01  1.4875604374166E+00
97  9.6000000000000E-01 -4.7076245732352E-01  1.5176430631769E+00
98  9.7000000000000E-01 -4.5487438744821E-01  1.5458812677632E+00
99  9.8000000000000E-01 -4.3788383737418E-01  1.5719904865740E+00
100  9.9000000000000E-01 -4.1994342604517E-01  1.5956678504670E+00
101  1.0000000000000E+00 -4.0120742392933E-01  1.6165964111266E+00
102  1.0100000000000E+00 -3.8183057573662E-01  1.6344500577541E+00
103  1.0200000000000E+00 -3.6196688631998E-01  1.6488990448184E+00
104  1.0300000000000E+00 -3.4176838426932E-01  1.6596160342931E+00
105  1.0400000000000E+00 -3.2138387893196E-01  1.6662825412101E+00
106  1.0500000000000E+00 -3.0095772755991E-01  1.6685956588448E+00
107  1.0600000000000E+00 -2.8062862996088E-01  1.6662749297251E+00
108  1.0700000000000E+00 -2.6052846839695E-01  1.6590692211745E+00
109  1.0800000000000E+00 -2.4078121050882E-01  1.6467634594764E+00
110  1.0900000000000E+00 -2.2150189273874E-01  1.6291850751297E+00
111  1.1000000000000E+00 -2.0279570107052E-01  1.6062100131453E+00
112  1.1100000000000E+00 -1.8475716491050E-01  1.5777681669223E+00
113  1.1200000000000E+00 -1.6746947860021E-01  1.5438481019214E+00
114  1.1300000000000E+00 -1.5100396340574E-01  1.5045009459769E+00
115  1.1400000000000E+00 -1.3541968088522E-01  1.4598433365301E+00
116  1.1500000000000E+00 -1.2076320633363E-01  1.4100593310400E+00
117  1.1600000000000E+00 -1.0706856857046E-01  1.3554012051000E+00
118  1.1700000000000E+00 -9.4357359724008E-02  1.2961890829375E+00
119  1.1800000000000E+00 -8.2639015905254E-02  1.2328093667390E+00
120  1.1900000000000E+00 -7.1911266831619E-02  1.1657119539905E+00
121  1.2000000000000E+00 -6.2160749569207E-02  1.0954062556174E+00
122  1.2100000000000E+00 -5.3363778717692E-02  1.0224560512568E+00
123  1.2200000000000E+00 -4.5487262562845E-02  9.4747324148685E-01
124  1.2300000000000E+00 -3.8489752072224E-02  8.7111057937427E-01
125  1.2400000000000E+00 -3.2322607132593E-02  7.9405348506808E-01
126  1.2500000000000E+00 -2.6931262176383E-02  7.1701106688638E-01
127  1.2600000000000E+00 -2.2256571384449E-02  6.4070648983329E-01
128  1.2700000000000E+00 -1.8236211996504E-02  5.6586684760890E-01
129  1.2800000000000E+00 -1.4806122967080E-02  4.9321270641641E-01
130  1.2900000000000E+00 -1.1901955294330E-02  4.2344749801307E-01
131  1.3000000000000E+00 -9.4605098395414E-03  3.5724694533550E-01
132  1.3100000000000E+00 -7.4211357289450E-03  2.9524873289056E-01
133  1.3200000000000E+00 -5.7270935688721E-03  2.3804232906579E-01
134  1.3300000000000E+00 -4.3267314913402E-03  1.8616039092391E-01
135  1.3400000000000E+00 -3.1769177921326E-03  1.4004719357156E-01
136  1.3500000000000E+00 -2.2452734400158E-03  1.0003418471109E-01
137  1.3600000000000E+00 -1.4973811422898E-03  6.6474309739170E-02
138  1.3700000000000E+00 -9.0863927350976E-04  3.9631678732019E-02
139  1.3800000000000E+00 -4.6530251465936E-04  1.9672535919548E-02
140  1.3900000000000E+00 -1.6370329208513E-04  6.6286429753097E-03
141  1.4000000000000E+00 -1.7004253867421E-05  6.5049455157505E-04
142  1.4100000000000E+00  1.9116832582295E-06 -7.0777998756521E-05
143  1.4200000000000E+00 -2.6565892617254E-07  1.0102944420608E-05
144  1.43 -0. -0.
145  1.44  0.  0.
146  1.45  0.  0.
147  1.46  0.  0.
148  1.47  0.  0.
149  1.48  0.  0.
150  1.49  0.  0.
151  1.50  0.  0.
152  1.51  0.  0.
153  1.52  0.  0.
154  1.53  0.  0.
155  1.54  0.  0.
156  1.55  0.  0.
157  1.56  0.  0.
158  1.57  0.  0.
159  1.58  0.  0.
160  1.59  0.  0.
161  1.60  0.  0.
162  1.61  0.  0.
163  1.62  0.  0.
164  1.63  0.  0.
165  1.64  0.  0.
166  1.65  0.  0.
167  1.66  0.  0.
168  1.67  0.  0.
169  1.68  0.  0.
170  1.69  0.  0.
171  1.70  0.  0.
172  1.71  0.  0.
173  1.72  0.  0.
174  1.73  0.  0.
175  1.74  0.  0.
176  1.75  0.  0.
177  1.76  0.  0.
178  1.77  0.  0.
179  1.78  0.  0.
180  1.79  0.  0.
181  1.80  0.  0.
182  1.81  0.  0.
183  1.82  0.  0.
184  1.83  0.  0.
185  1.84  0.  0.
186  1.85  0.  0.
187  1.86  0.  0.
188  1.87  0.  0.
189  1.88  0.  0.
190  1.89  0.  0.
191  1.90  0.  0.
192  1.91  0.  0.
193  1.92  0.  0.
194  1.93  0.  0.
195  1.94  0.  0.
196  1.95  0.  0.
197  1.96  0.  0.
198  1.97  0.  0.
199  1.98  0.  0.
200  1.99  0.  0.
201  2.00  0.  0.
202  2.01  0.  0.
203  2.02  0.  0.
204  2.03  0.  0.
205  2.04  0.  0.
206  2.05  0.  0.
207  2.06  0.  0.
208  2.07  0.  0.
209  2.08  0.  0.
210  2.09  0.  0.
211  2.10  0.  0.
212  2.11  0.  0.
213  2.12  0.  0.
214  2.13  0.  0.
215  2.14  0.  0.
216  2.15  0.  0.
217  2.16  0.  0.
218  2.17  0.  0.
219  2.18  0.  0.
220  2.19  0.  0.
221  2.20  0.  0.
222  2.21  0.  0.
223  2.22  0.  0.
224  2.23  0.  0.
225  2.24  0.  0.
226  2.25  0.  0.
227  2.26  0.  0.
228  2.27  0.  0.
229  2.28  0.  0.
230  2.29  0.  0.
231  2.30  0.  0.
232  2.31  0.  0.
233  2.32  0.  0.
234  2.33  0.  0.
235  2.34  0.  0.
236  2.35  0.  0.
237  2.36  0.  0.
238  2.37  0.  0.
239  2.38  0.  0.
240  2.39  0.  0.
241  2.40  0.  0.
242  2.41  0.  0.
243  2.42  0.  0.
244  2.43  0.  0.
245  2.44  0.  0.
246  2.45  0.  0.
247  2.46  0.  0.
248  2.47  0.  0.
249  2.48  0.  0.
250  2.49  0.  0.
251  2.50  0.  0.
252  2.51  0.  0.
253  2.52  0.  0.
254  2.53  0.  0.
255  2.54  0.  0.
256  2.55  0.  0.
257  2.56  0.  0.
258  2.57  0.  0.
259  2.58  0.  0.
260  2.59  0.  0.
261  2.60  0.  0.
262  2.61  0.  0.
263  2.62  0.  0.
264  2.63  0.  0.
265  2.64  0.  0.
266  2.65  0.  0.
267  2.66  0.  0.
268  2.67  0.  0.
269  2.68  0.  0.
270  2.69  0.  0.
271  2.70  0.  0.
272  2.71  0.  0.
273  2.72  0.  0.
274  2.73  0.  0.
275  2.74  0.  0.
276  2.75  0.  0.
277  2.76  0.  0.
278  2.77  0.  0.
279  2.78  0.  0.
280  2.79  0.  0.
281  2.80  0.  0.
282  2.81  0.  0.
283  2.82  0.  0.
284  2.83  0.  0.
285  2.84  0.  0.
286  2.85  0.  0.
287  2.86  0.  0.
288  2.87  0.  0.
289  2.88  0.  0.
290  2.89  0.  0.
291  2.90  0.  0.
292  2.91  0.  0.
293  2.92  0.  0.
294  2.93  0.  0.
295  2.94  0.  0.
296  2.95  0.  0.
297  2.96  0.  0.
298  2.97  0.  0.
299  2.98  0.  0.
300  2.99  0.  0.
301  3.00  0.  0.
302  3.01  0.  0.
303  3.02  0.  0.
304  3.03  0.  0.
305  3.04  0.  0.
306  3.05  0.  0.
307  3.06  0.  0.
308  3.07  0.  0.
309  3.08  0.  0.
310  3.09  0.  0.
311  3.10  0.  0.
312  3.11  0.  0.
313  3.12  0.  0.
314  3.13  0.  0.
315  3.14  0.  0.
316  3.15  0.  0.
317  3.16  0.  0.
318  3.17  0.  0.
319  3.18  0.  0.
320  3.19  0.  0.
321  3.20  0.  0.
322  3.21  0.  0.
323  3.22  0.  0.
324  3.23  0.  0.
325  3.24  0.  0.
326  3.25  0.  0.
327  3.26  0.  0.
328  3.27  0.  0.
329  3.28  0.  0.
330  3.29  0.  0.
331  3.30  0.  0.
332  3.31  0.  0.
333  3.32  0.  0.
334  3.33  0.  0.
335  3.34  0.  0.
336  3.35  0.  0.
337  3.36  0.  0.
338  3.37  0.  0.
339  3.38  0.  0.
340  3.39  0.  0.
341  3.40  0.  0.
342  3.41  0.  0.
343  3.42  0.  0.
344  3.43  0.  0.
345  3.44  0.  0.
346  3.45  0.  0.
347  3.46  0.  0.
348  3.47  0.  0.
349  3.48  0.  0.
350  3.49  0.  0.
351  3.50  0.  0.
352  3.51  0.  0.
353  3.52  0.  0.
354  3.53  0.  0.
355  3.54  0.  0.
356  3.55  0.  0.
357  3.56  0.  0.
358  3.57  0.  0.
359  3.58  0.  0.
360  3.59  0.  0.
361  3.60  0.  0.
362  3.61  0.  0.
363  3.62  0.  0.
364  3.63  0.  0.
365  3.64  0.  0.
366  3.65  0.  0.
367  3.66  0.  0.
368  3.67  0.  0.
369  3.68  0.  0.
370  3.69  0.  0.
371  3.70  0.  0.
372  3.71  0.  0.
373  3.72  0.  0.
374  3.73  0.  0.
375  3.74  0.  0.
376  3.75  0.  0.
377  3.76  0.  0.
378  3.77  0.  0.
379  3.78  0.  0.
380  3.79  0.  0.
381  3.80  0.  0.
382  3.81  0.  0.
383  3.82  0.  0.
384  3.83  0.  0.
385  3.84  0.  0.
386  3.85  0.  0.
387  3.86  0.  0.
388  3.87  0.  0.
389  3.88  0.  0.
390  3.89  0.  0.
391  3.90  0.  0.
392  3.91  0.  0.
393  3.92  0.  0.
394  3.93  0.  0.
395  3.94  0.  0.
396  3.95  0.  0.
397  3.96  0.  0.
398  3.97  0.  0.
399  3.98  0.  0.
400  3.99  0.  0.
401  4.00  0.  0.
402  4.01  0.  0.
403  4.02  0.  0.
404  4.03  0.  0.
405  4.04  0.  0.
406  4.05  0.  0.
407  4.06  0.  0.
408  4.07  0.  0.
409  4.08  0.  0.
410  4.09  0.  0.
411  4.10  0.  0.
412  4.11  0.  0.
413  4.12  0.  0.
414  4.13  0.  0.
415  4.14  0.  0.
416  4.15  0.  0.
417  4.16  0.  0.
418  4.17  0.  0.
419  4.18  0.  0.
420  4.19  0.  0.
421  4.20  0.  0.
422  4.21  0.  0.
423  4.22  0.  0.
424  4.23  0.  0.
425  4.24  0.  0.
426  4.25  0.  0.
427  4.26  0.  0.
428  4.27  0.  0.
429  4.28  0.  0.
430  4.29  0.  0.
431  4.30  0.  0.
432  4.31  0.  0.
433  4.32  0.  0.
434  4.33  0.  0.
435  4.34  0.  0.
436  4.35  0.  0.
437  4.36  0.  0.
438  4.37  0.  0.
439  4.38  0.  0.
440  4.39  0.  0.
441  4.40  0.  0.
442  4.41  0.  0.
443  4.42  0.  0.
444  4.43  0.  0.
445  4.44  0.  0.
446  4.45  0.  0.
447  4.46  0.  0.
448  4.47  0.  0.
449  4.48  0.  0.
450  4.49  0.  0.
451  4.50  0.  0.
452  4.51  0.  0.
453  4.52  0.  0.
454  4.53  0.  0.
455  4.54  0.  0.
456  4.55  0.  0.
457  4.56  0.  0.
458  4.57  0.  0.
459  4.58  0.  0.
460  4.59  0.  0.
461  4.60  0.  0.
462  4.61  0.  0.
463  4.62  0.  0.
464  4.63  0.  0.
465  4.64  0.  0.
466  4.65  0.  0.
467  4.66  0.  0.
468  4.67  0.  0.
469  4.68  0.  0.
470  4.69  0.  0.
471  4.70  0.  0.
472  4.71  0.  0.
473  4.72  0.  0.
474  4.73  0.  0.
475  4.74  0.  0.
476  4.75  0.  0.
477  4.76  0.  0.
478  4.77  0.  0.
479  4.78  0.  0.
480  4.79  0.  0.
481  4.80  0.  0.
482  4.81  0.  0.
483  4.82  0.  0.
484  4.83  0.  0.
485  4.84  0.  0.
486  4.85  0.  0.
487  4.86  0.  0.
488  4.87  0.  0.
489  4.88  0.  0.
490  4.89  0.  0.
491  4.90  0.  0.
492  4.91  0.  0.
493  4.92  0.  0.
494  4.93  0.  0.
495  4.94  0.  0.
496  4.95  0.  0.
497  4.96  0.  0.
498  4.97  0.  0.
499  4.98  0.  0.
500  4.99  0.  0.
501  5.00  0.  0.
502  5.01  0.  0.
503  5.02  0.  0.
504  5.03  0.  0.
505  5.04  0.  0.
506  5.05  0.  0.
507  5.06  0.  0.
508  5.07  0.  0.
509  5.08  0.  0.
510  5.09  0.  0.
511  5.10  0.  0.
512  5.11  0.  0.
513  5.12  0.  0.
514  5.13  0.  0.
515  5.14  0.  0.
516  5.15  0.  0.
517  5.16  0.  0.
518  5.17  0.  0.
519  5.18  0.  0.
520  5.19  0.  0.
521  5.20  0.  0.
522  5.21  0.  0.
523  5.22  0.  0.
524  5.23  0.  0.
525  5.24  0.  0.
526  5.25  0.  0.
527  5.26  0.  0.
528  5.27  0.  0.
529  5.28  0.  0.
530  5.29  0.  0.
531  5.30  0.  0.
532  5.31  0.  0.
533  5.32  0.  0.
534  5.33  0.  0.
535  5.34  0.  0.
536  5.35  0.  0.
537  5.36  0.  0.
538  5.37  0.  0.
539  5.38  0.  0.
540  5.39  0.  0.
541  5.40  0.  0.
542  5.41  0.  0.
543  5.42  0.  0.
544  5.43  0.  0.
545  5.44  0.  0.
546  5.45  0.  0.
547  5.46  0.  0.
548  5.47  0.  0.
549  5.48  0.  0.
550  5.49  0.  0.
551  5.50  0.  0.
552  5.51  0.  0.
553  5.52  0.  0.
554  5.53  0.  0.
555  5.54  0.  0.
556  5.55  0.  0.
557  5.56  0.  0.
558  5.57  0.  0.
559  5.58  0.  0.
560  5.59  0.  0.
561  5.60  0.  0.
562  5.61  0.  0.
563  5.62  0.  0.
564  5.63  0.  0.
565  5.64  0.  0.
566  5.65  0.  0.
567  5.66  0.  0.
568  5.67  0.  0.
569  5.68  0.  0.
570  5.69  0.  0.
571  5.70  0.  0.
572  5.71  0.  0.
573  5.72  0.  0.
574  5.73  0.  0.
575  5.74  0.  0.
576  5.75  0.  0.
577  5.76  0.  0.
578  5.77  0.  0.
579  5.78  0.  0.
580  5.79  0.  0.
581  5.80  0.  0.
582  5.81  0.  0.
583  5.82  0.  0.
584  5.83  0.  0.
585  5.84  0.  0.
586  5.85  0.  0.
587  5.86  0.  0.
588  5.87  0.  0.
589  5.88  0.  0.
590  5.89  0.  0.
591  5.90  0.  0.
592  5.91  0.  0.
593  5.92  0.  0.
594  5.93  0.  0.
595  5.94  0.  0.
596  5.95  0.  0.
597  5.96  0.  0.
598  5.97  0.  0.
599  5.98  0.  0.
600  5.99  0.  0.
1                         4.7577338463825E+00 -2.4344738909107E-01
1  0.0000000000000E+00 -2.3055725939525E-09 -1.2390344836938E-08
2  1.0000000000000E-02  2.1313600767476E-03  1.4292359335065E-04
3  2.0000000000000E-02  8.5165027319181E-03  5.8048887575205E-04
4  3.0000000000000E-02  1.9128603884937E-02  1.3387899425583E-03
5  4.0000000000000E-02  3.3922920361588E-02  2.4603599098809E-03
6  5.0000000000000E-02  5.2836740465136E-02  4.0027619822159E-03
7  6.0000000000000E-02  7.5789324888010E-02  6.0366695344167E-03
8  7.0000000000000E-02  1.0268184773031E-01  8.6434862345096E-03
9  8.0000000000000E-02  1.3339734969693E-01  1.1912569624194E-02
10  9.0000000000000E-02  1.6780071750379E-01  1.5938132395370E-02
11  1.0000000000000E-01  2.0573870507540E-01  2.0815904582073E-02
12  1.1000000000000E-01  2.4704001321209E-01  2.6639646801594E-02
13  1.2000000000000E-01  2.9151544500682E-01  3.3497609347702E-02
14  1.3000000000000E-01  3.3895815437281E-01  4.1469034240542E-02
15  1.4000000000000E-01  3.8914400459150E-01  5.0620797203251E-02
16  1.5000000000000E-01  4.4183205280486E-01  6.1004283957356E-02
17  1.6000000000000E-01  4.9676517487147E-01  7.2652590257984E-02
18  1.7000000000000E-01  5.5367084300774E-01  8.5578127833565E-02
19  1.8000000000000E-01  6.1226206618423E-01  9.9770709018737E-02
20  1.9000000000000E-01  6.7223850039293E-01  1.1519617158789E-01
21  2.0000000000000E-01  7.3328773270567E-01  1.3179559237541E-01
22  2.1000000000000E-01  7.9508673957895E-01  1.4948512400933E-01
23  2.2000000000000E-01  8.5730351620282E-01  1.6815647382828E-01
24  2.3000000000000E-01  9.1959886992709E-01  1.8767802815993E-01
25  2.4000000000000E-01  9.8162836701418E-01  2.0789660899564E-01
26  2.5000000000000E-01  1.0430444182546E+00  2.2863983409149E-01
27  2.6000000000000E-01  1.1034984854284E+00  2.4971903605035E-01
28  2.7000000000000E-01  1.1626433872899E+00  2.7093268137356E-01
29  2.8000000000000E-01  1.2201356807787E+00  2.9207021717597E-01
30  2.9000000000000E-01  1.2756380905899E+00  3.1291626156844E-01
31  3.0000000000000E-01  1.3288219581434E+00  3.3325504392556E-01
32  3.1000000000000E-01  1.3793696794276E+00  3.5287499362850E-01
33  3.2000000000000E-01  1.4269771002108E+00  3.7157337060941E-01
34  3.3000000000000E-01  1.4713558367390E+00  3.8916082827588E-01
35  3.4000000000000E-01  1.5122354902995E+00  4.0546579925295E-01
36  3.5000000000000E-01  1.5493657249272E+00  4.2033859687849E-01
37  3.6000000000000E-01  1.5825181790548E+00  4.3365513049191E-01
38  3.7000000000000E-01  1.6114881840423E+00  4.4532014017318E-01
39  3.8000000000000E-01  1.6360962652188E+00  4.5526986656326E-01
40  3.9000000000000E-01  1.6561894042904E+00  4.6347408351529E-01
41  4.0000000000000E-01  1.6716420456397E+00  4.6993743532327E-01
42  4.1000000000000E-01  1.6823568330964E+00  4.7470003583692E-01
43  4.2000000000000E-01  1.6882650681139E+00  4.7783730354470E-01
44  4.3000000000000E-01  1.6893268848430E+00  4.7945902430588E-01
45  4.4000000000000E-01  1.6855311422676E+00  4.7970765142534E-01
46  4.5000000000000E-01  1.6768950382487E+00  4.7875587076980E-01
47  4.6000000000000E-01  1.6634634549171E+00  4.7680347618979E-01
48  4.7000000000000E-01  1.6453080492578E+00  4.7407361721860E-01
49  4.8000000000000E-01  1.6225261068541E+00  4.7080849645683E-01
50  4.9000000000000E-01  1.5952391805004E+00  4.6726460784114E-01
51  5.0000000000000E-01  1.5635915386860E+00  4.6370761878897E-01
52  5.1000000000000E-01  1.5277484517106E+00  4.6040700870573E-01
53  5.2000000000000E-01  1.4878943453645E+00  4.5763058328446E-01
54  5.3000000000000E-01  1.4442308536409E+00  4.5563898822606E-01
55  5.4000000000000E-01  1.3969748028115E+00  4.5468034732834E-01
56  5.5000000000000E-01  1.3463561593723E+00  4.5498514827051E-01
57  5.6000000000000E-01  1.2926159738558E+00  4.5676149485895E-01
58  5.7000000000000E-01  1.2360043513122E+00  4.6019083707397E-01
59  5.8000000000000E-01  1.1767784774285E+00  4.6542428010887E-01
60  5.9000000000000E-01  1.1152007268154E+00  4.7257956092961E-01
61  6.0000000000000E-01  1.0515368770089E+00  4.8173876597528E-01
62  6.1000000000000E-01  9.8605444828423E-01  4.9294684679694E-01
63  6.2000000000000E-01  9.1902118553583E-01  5.0621097206616E-01
64  6.3000000000000E-01  8.5070369434331E-01  5.2150073489796E-01
65  6.4000000000000E-01  7.8136623901298E-01  5.3874921427043E-01
66  6.5000000000000E-01  7.1126970596250E-01  5.5785486895868E-01
67  6.6000000000000E-01  6.4067073141440E-01  5.7868422231564E-01
68  6.7000000000000E-01  5.6982098808605E-01  6.0107527690451E-01
69  6.8000000000000E-01  4.9896662151757E-01  6.2484157989213E-01
70  6.9000000000000E-01  4.2834782296283E-01  6.4977684368961E-01
71  7.0000000000000E-01  3.5819852247683E-01  6.7566001199380E-01
72  7.1000000000000E-01  2.8874618304695E-01  7.0226064950486E-01
73  7.2000000000000E-01  2.2021167440693E-01  7.2934452448929E-01
74  7.3000000000000E-01  1.5280920359936E-01  7.5667924727813E-01
75  7.4000000000000E-01  8.6746278454853E-02  7.8403982491812E-01
76  7.5000000000000E-01  2.2223679962365E-02  8.1121399264973E-01
77  7.6000000000000E-01 -4.0564579979250E-02  8.3800718669541E-01
78  7.7000000000000E-01 -1.0143133771981E-01  8.6424702996976E-01
79  7.8000000000000E-01 -1.6019641432522E-01  8.8978721264090E-01
80  7.9000000000000E-01 -2.1668682722833E-01  9.1451066278435E-01
81  8.0000000000000E-01 -2.7073709184277E-01  9.3833191840095E-01
82  8.1000000000000E-01 -3.2218962432877E-01  9.6119863047905E-01
83  8.2000000000000E-01 -3.7089525270187E-01  9.8309214716703E-01
84  8.3000000000000E-01 -4.1671383917069E-01  1.0040271510283E+00
85  8.4000000000000E-01 -4.5951501208646E-01  1.0240503442844E+00
86  8.5000000000000E-01 -4.9917900130206E-01  1.0432382003815E+00
87  8.6000000000000E-01 -5.3559756619036E-01  1.0616938235940E+00
88  8.7000000000000E-01 -5.6867500118225E-01  1.0795429811580E+00
89  8.8000000000000E-01 -5.9832919957226E-01  1.0969293940473E+00
90  8.9000000000000E-01 -6.2449275261943E-01  1.1140093924523E+00
91  9.0000000000000E-01 -6.4711405774768E-01  1.1309460597819E+00
92  9.1000000000000E-01 -6.6615840702256E-01  1.1479030041469E+00
93  9.2000000000000E-01 -6.8160902513048E-01  1.1650379083794E+00
94  9.3000000000000E-01 -6.9346802488390E-01  1.1824960183860E+00
95  9.4000000000000E-01 -7.0175724787034E-01  1.2004037347393E+00
96  9.5000000000000E-01 -7.0651895829078E-01  1.2188624737231E+00
97  9.6000000000000E-01 -7.0781635930481E-01  1.2379429614530E+00
98  9.7000000000000E-01 -7.0573390331163E-01  1.2576801182009E+00
99  9.8000000000000E-01 -7.0037737052002E-01  1.2780686797392E+00
100  9.9000000000000E-01 -6.9187369384944E-01  1.2990596885659E+00
101  1.0000000000000E+00 -6.8037051259264E-01  1.3205579705394E+00
102  1.0100000000000E+00 -6.6603544227148E-01  1.3424206920908E+00
103  1.0200000000000E+00 -6.4905505363579E-01  1.3644570701918E+00
104  1.0300000000000E+00 -6.2963355966804E-01  1.3864292821488E+00
105  1.0400000000000E+00 -6.0799121563882E-01  1.4080545956144E+00
106  1.0500000000000E+00 -5.8436244358213E-01  1.4290087114852E+00
107  1.0600000000000E+00 -5.5899369886474E-01  1.4489302843043E+00
108  1.0700000000000E+00 -5.3214110268041E-01  1.4674265569595E+00
109  1.0800000000000E+00 -5.0406787016061E-01  1.4840800195162E+00
110  1.0900000000000E+00 -4.7504156919838E-01  1.4984559766619E+00
111  1.1000000000000E+00 -4.4533124993272E-01  1.5101108848918E+00
112  1.1100000000000E+00 -4.1520448896881E-01  1.5186013000094E+00
113  1.1200000000000E+00 -3.8492439574489E-01  1.5234932580611E+00
114  1.1300000000000E+00 -3.5474663087327E-01  1.5243718990614E+00
115  1.1400000000000E+00 -3.2491648772487E-01  1.5208511330625E+00
116  1.1500000000000E+00 -2.9566608892648E-01  1.5125831426201E+00
117  1.1600000000000E+00 -2.6721174876803E-01  1.4992675146592E+00
118  1.1700000000000E+00 -2.3975155076641E-01  1.4806597982454E+00
119  1.1800000000000E+00 -2.1346318680162E-01  1.4565792928452E+00
120  1.1900000000000E+00 -1.8850210040018E-01  1.4269158840831E+00
121  1.2000000000000E+00 -1.6499997189061E-01  1.3916357607842E+00
122  1.2100000000000E+00 -1.4306357747033E-01  1.3507858675706E+00
123  1.2200000000000E+00 -1.2277404769365E-01  1.3044969714879E+00
124  1.2300000000000E+00 -1.0418654374523E-01  1.2529852481775E+00
125  1.2400000000000E+00 -8.7330362182254E-02  1.1965523226665E+00
126  1.2500000000000E+00 -7.2209470746474E-02  1.1355837313504E+00
127  1.2600000000000E+00 -5.8803469617740E-02  1.0705458041961E+00
128  1.2700000000000E+00 -4.7068964153370E-02  1.0019809993539E+00
129  1.2800000000000E+00 -3.6941326987388E-02  9.3050175520398E-01
130  1.2900000000000E+00 -2.8336819524232E-02  8.5678295665140E-01
131  1.3000000000000E+00 -2.1155035446216E-02  7.8155314281966E-01
132  1.3100000000000E+00 -1.5281622105257E-02  7.0558461117541E-01
133  1.3200000000000E+00 -1.0591229700320E-02  6.2968259805383E-01
134  1.3300000000000E+00 -6.9506330709816E-03  5.5467373704589E-01
135  1.3400000000000E+00 -4.2219668983108E-03  4.8139401418223E-01
136  1.3500000000000E+00 -2.2660121967214E-03  4.1067645187123E-01
137  1.3600000000000E+00 -9.4546223950519E-04  3.4333878260176E-01
138  1.3700000000000E+00 -1.2817266928073E-04  2.8017117892187E-01
139  1.3800000000000E+00  3.0995897089121E-04  2.2192503992435E-01
140  1.3900000000000E+00  4.7285734319031E-04  1.6927774504448E-01
141  1.4000000000000E+00  4.4495044801440E-04  1.2282816573717E-01
142  1.4100000000000E+00  3.2297899728790E-04  8.3179019856857E-02
143  1.4200000000000E+00  1.8188719633034E-04  5.0844915930813E-02
144  1.4300000000000E+00  7.1041516133337E-05  2.6230786390127E-02
145  1.4400000000000E+00  1.2327296423593E-05  9.5896472458972E-03
146  1.4500000000000E+00 -9.8482759599740E-07  1.2767845307149E-03
147  1.4600000000000E+00  2.9522724138882E-07 -1.3727197278228E-04
148  1.4700000000000E+00 -4.3097357256902E-08  3.5974762964402E-05
149  1.48  0. -0.
150  1.49 -0.  0.
151  1.50  0.  0.
152  1.51  0.  0.
153  1.52  0.  0.
154  1.53  0.  0.
155  1.54  0.  0.
156  1.55  0.  0.
157  1.56  0.  0.
158  1.57  0.  0.
159  1.58  0.  0.
160  1.59  0.  0.
161  1.60  0.  0.
162  1.61  0.  0.
163  1.62  0.  0.
164  1.63  0.  0.
165  1.64  0.  0.
166  1.65  0.  0.
167  1.66  0.  0.
168  1.67  0.  0.
169  1.68  0.  0.
170  1.69  0.  0.
171  1.70  0.  0.
172  1.71  0.  0.
173  1.72  0.  0.
174  1.73  0.  0.
175  1.74  0.  0.
176  1.75  0.  0.
177  1.76  0.  0.
178  1.77  0.  0.
179  1.78  0.  0.
180  1.79  0.  0.
181  1.80  0.  0.
182  1.81  0.  0.
183  1.82  0.  0.
184  1.83  0.  0.
185  1.84  0.  0.
186  1.85  0.  0.
187  1.86  0.  0.
188  1.87  0.  0.
189  1.88  0.  0.
190  1.89  0.  0.
191  1.90  0.  0.
192  1.91  0.  0.
193  1.92  0.  0.
194  1.93  0.  0.
195  1.94  0.  0.
196  1.95  0.  0.
197  1.96  0.  0.
198  1.97  0.  0.
199  1.98  0.  0.
200  1.99  0.  0.
201  2.00  0.  0.
202  2.01  0.  0.
203  2.02  0.  0.
204  2.03  0.  0.
205  2.04  0.  0.
206  2.05  0.  0.
207  2.06  0.  0.
208  2.07  0.  0.
209  2.08  0.  0.
210  2.09  0.  0.
211  2.10  0.  0.
212  2.11  0.  0.
213  2.12  0.  0.
214  2.13  0.  0.
215  2.14  0.  0.
216  2.15  0.  0.
217  2.16  0.  0.
218  2.17  0.  0.
219  2.18  0.  0.
220  2.19  0.  0.
221  2.20  0.  0.
222  2.21  0.  0.
223  2.22  0.  0.
224  2.23  0.  0.
225  2.24  0.  0.
226  2.25  0.  0.
227  2.26  0.  0.
228  2.27  0.  0.
229  2.28  0.  0.
230  2.29  0.  0.
231  2.30  0.  0.
232  2.31  0.  0.
233  2.32  0.  0.
234  2.33  0.  0.
235  2.34  0.  0.
236  2.35  0.  0.
237  2.36  0.  0.
238  2.37  0.  0.
239  2.38  0.  0.
240  2.39  0.  0.
241  2.40  0.  0.
242  2.41  0.  0.
243  2.42  0.  0.
244  2.43  0.  0.
245  2.44  0.  0.
246  2.45  0.  0.
247  2.46  0.  0.
248  2.47  0.  0.
249  2.48  0.  0.
250  2.49  0.  0.
251  2.50  0.  0.
252  2.51  0.  0.
253  2.52  0.  0.
254  2.53  0.  0.
255  2.54  0.  0.
256  2.55  0.  0.
257  2.56  0.  0.
258  2.57  0.  0.
259  2.58  0.  0.
260  2.59  0.  0.
261  2.60  0.  0.