At    ONCVPSP-4.0.1  r_core=   1.40401   1.45532   1.40401   1.50851
85.0000     25.0000      231012    zatom,zion,pspd
8   -1012   3     4   600     0    pspcod,pspxc,lmax,lloc,mmax,r2well
5.99000000  5.00000000  0.00000000    rchrg fchrg qchrg
2     3     3     1    nproj
3     1           extension_switch
4     4     2    nprojso
0                         1.0114768376687E+01 -3.5642319695804E-01
1  0.0000000000000E+00  7.4187522791647E-10  7.3188121396672E-09
2  1.0000000000000E-02  8.7956750725366E-02  2.2230790701962E-02
3  2.0000000000000E-02  1.7568377679664E-01  4.4497371542875E-02
4  3.0000000000000E-02  2.6295175781793E-01  6.6832395002021E-02
5  4.0000000000000E-02  3.4953218846936E-01  8.9262322444223E-02
6  5.0000000000000E-02  4.3519780224803E-01  1.1180453714046E-01
7  6.0000000000000E-02  5.1972301410714E-01  1.3446470220816E-01
8  7.0000000000000E-02  6.0288438739700E-01  1.5723443628109E-01
9  8.0000000000000E-02  6.8446112976987E-01  1.8008937240011E-01
10  9.0000000000000E-02  7.6423562181478E-01  2.0298765677337E-01
11  1.0000000000000E-01  8.4199398115922E-01  2.2586893388283E-01
12  1.1000000000000E-01  9.1752666363502E-01  2.4865385313587E-01
13  1.2000000000000E-01  9.9062910188110E-01  2.7124412012623E-01
14  1.3000000000000E-01  1.0611023804744E+00  2.9352310284358E-01
15  1.4000000000000E-01  1.1287539453714E+00  3.1535699013870E-01
16  1.5000000000000E-01  1.1933983441354E+00  3.3659648669909E-01
17  1.6000000000000E-01  1.2548579921498E+00  3.5707901600892E-01
18  1.7000000000000E-01  1.3129639588066E+00  3.7663139054234E-01
19  1.8000000000000E-01  1.3675567665341E+00  3.9507289704443E-01
20  1.9000000000000E-01  1.4184871945257E+00  4.1221873444651E-01
21  2.0000000000000E-01  1.4656170781662E+00  4.2788373297599E-01
22  2.1000000000000E-01  1.5088200944522E+00  4.4188627556224E-01
23  2.2000000000000E-01  1.5479825231832E+00  4.5405233688194E-01
24  2.3000000000000E-01  1.5830039733773E+00  4.6421955146850E-01
25  2.4000000000000E-01  1.6137980642451E+00  4.7224122032749E-01
26  2.5000000000000E-01  1.6402930501528E+00  4.7799016550923E-01
27  2.6000000000000E-01  1.6624323793094E+00  4.8136234410587E-01
28  2.7000000000000E-01  1.6801751764329E+00  4.8228013712839E-01
29  2.8000000000000E-01  1.6934966403696E+00  4.8069523460957E-01
30  2.9000000000000E-01  1.7023883485535E+00  4.7659104595188E-01
31  3.0000000000000E-01  1.7068584612783E+00  4.6998457384139E-01
32  3.1000000000000E-01  1.7069318199969E+00  4.6092770078681E-01
33  3.2000000000000E-01  1.7026499352390E+00  4.4950784929194E-01
34  3.3000000000000E-01  1.6940708612134E+00  4.3584798957779E-01
35  3.4000000000000E-01  1.6812689557246E+00  4.2010598236296E-01
36  3.5000000000000E-01  1.6643345256329E+00  4.0247325819367E-01
37  3.6000000000000E-01  1.6433733597121E+00  3.8317284888866E-01
38  3.7000000000000E-01  1.6185061523596E+00  3.6245680052022E-01
39  3.8000000000000E-01  1.5898678231730E+00  3.4060301068814E-01
40  3.9000000000000E-01  1.5576067388830E+00  3.1791154536504E-01
41  4.0000000000000E-01  1.5218838455039E+00  2.9470050201745E-01
42  4.1000000000000E-01  1.4828717197936E+00  2.7130149578480E-01
43  4.2000000000000E-01  1.4407535501942E+00  2.4805485399399E-01
44  4.3000000000000E-01  1.3957220583131E+00  2.2530461100806E-01
45  4.4000000000000E-01  1.3479783727022E+00  2.0339340019234E-01
46  4.5000000000000E-01  1.2977308671751E+00  1.8265734251238E-01
47  4.6000000000000E-01  1.2451939761654E+00  1.6342103188236E-01
48  4.7000000000000E-01  1.1905869996668E+00  1.4599271583048E-01
49  4.8000000000000E-01  1.1341329101103E+00  1.3065976636019E-01
50  4.9000000000000E-01  1.0760571731301E+00  1.1768453012592E-01
51  5.0000000000000E-01  1.0165865935531E+00  1.0730063932437E-01
52  5.1000000000000E-01  9.5594819714513E-01  9.9709855179449E-02
53  5.2000000000000E-01  8.9436815765609E-01  9.5079504769525E-02
54  5.3000000000000E-01  8.3207077757768E-01  9.3540559441140E-02
55  5.4000000000000E-01  7.6927752975657E-01  9.5186389439944E-02
56  5.5000000000000E-01  7.0620616564672E-01  1.0007221495877E-01
57  5.6000000000000E-01  6.4306989455048E-01  1.0821525886600E-01
58  5.7000000000000E-01  5.8007663673038E-01  1.1959559126228E-01
59  5.8000000000000E-01  5.1742835180037E-01  1.3415764105064E-01
60  5.9000000000000E-01  4.5532044236161E-01  1.5181233522766E-01
61  6.0000000000000E-01  3.9394123146502E-01  1.7243981293615E-01
62  6.1000000000000E-01  3.3347151119076E-01  1.9589264877026E-01
63  6.2000000000000E-01  2.7408415846372E-01  2.2199950868157E-01
64  6.3000000000000E-01  2.1594381319737E-01  2.5056915235674E-01
65  6.4000000000000E-01  1.5920661300047E-01  2.8139468834807E-01
66  6.5000000000000E-01  1.0401997800897E-01  3.1425798272401E-01
67  6.6000000000000E-01  5.0522438933908E-02  3.4893411870473E-01
68  6.7000000000000E-01 -1.1564988458386E-03  3.8519580375341E-01
69  6.8000000000000E-01 -5.0896462365009E-02  4.2281762194715E-01
70  6.9000000000000E-01 -9.8586296380883E-02  4.6158003314360E-01
71  7.0000000000000E-01 -1.4412413358989E-01  5.0127302642798E-01
72  7.1000000000000E-01 -1.8741745586187E-01  5.4169934345744E-01
73  7.2000000000000E-01 -2.2838315185065E-01  5.8267719745233E-01
74  7.3000000000000E-01 -2.6694757542703E-01  6.2404242550826E-01
75  7.4000000000000E-01 -3.0304660833102E-01  6.6565002536690E-01
76  7.5000000000000E-01 -3.3662572928108E-01  7.0737504249961E-01
77  7.6000000000000E-01 -3.6764009054120E-01  7.4911278900557E-01
78  7.7000000000000E-01 -3.9605460166372E-01  7.9077839205977E-01
79  7.8000000000000E-01 -4.2184401883157E-01  8.3230568610754E-01
80  7.9000000000000E-01 -4.4499303695399E-01  8.7364547931634E-01
81  8.0000000000000E-01 -4.6549638045895E-01  9.1476324059210E-01
82  8.1000000000000E-01 -4.8335888760832E-01  9.5563626838162E-01
83  8.2000000000000E-01 -4.9859558217085E-01  9.9625041616128E-01
84  8.3000000000000E-01 -5.1123172545285E-01  1.0365964616313E+00
85  8.4000000000000E-01 -5.2130284103481E-01  1.0766662168952E+00
86  8.5000000000000E-01 -5.2885470411560E-01  1.1164484850465E+00
87  8.6000000000000E-01 -5.3394328714478E-01  1.1559249743951E+00
88  8.7000000000000E-01 -5.3663465343905E-01  1.1950662848748E+00
89  8.8000000000000E-01 -5.3700479074113E-01  1.2338280818700E+00
90  8.9000000000000E-01 -5.3513937718892E-01  1.2721475707244E+00
91  9.0000000000000E-01 -5.3113347291744E-01  1.3099403805546E+00
92  9.1000000000000E-01 -5.2509113150561E-01  1.3470979587361E+00
93  9.2000000000000E-01 -5.1712492668895E-01  1.3834855676933E+00
94  9.3000000000000E-01 -5.0735539116823E-01  1.4189409635707E+00
95  9.4000000000000E-01 -4.9591036592498E-01  1.4532738222308E+00
96  9.5000000000000E-01 -4.8292426017903E-01  1.4862659620814E+00
97  9.6000000000000E-01 -4.6853722395415E-01  1.5176723958236E+00
98  9.7000000000000E-01 -4.5289423711855E-01  1.5472232246707E+00
99  9.8000000000000E-01 -4.3614412069565E-01  1.5746263693222E+00
100  9.9000000000000E-01 -4.1843847815522E-01  1.5995711123958E+00
101  1.0000000000000E+00 -3.9993057625134E-01  1.6217324075446E+00
102  1.0100000000000E+00 -3.8077417672858E-01  1.6407758915570E+00
103  1.0200000000000E+00 -3.6112233182989E-01  1.6563635177565E+00
104  1.0300000000000E+00 -3.4112615796634E-01  1.6681597124256E+00
105  1.0400000000000E+00 -3.2093360311401E-01  1.6758379411415E+00
106  1.0500000000000E+00 -3.0068822445446E-01  1.6790875591728E+00
107  1.0600000000000E+00 -2.8052799343958E-01  1.6776208098014E+00
108  1.0700000000000E+00 -2.6058414581966E-01  1.6711798268165E+00
109  1.0800000000000E+00 -2.4098009420420E-01  1.6595434927314E+00
110  1.0900000000000E+00 -2.2183042041962E-01  1.6425340026260E+00
111  1.1000000000000E+00 -2.0323996427857E-01  1.6200229850273E+00
112  1.1100000000000E+00 -1.8530302438976E-01  1.5919370359060E+00
113  1.1200000000000E+00 -1.6810268531813E-01  1.5582625296789E+00
114  1.1300000000000E+00 -1.5171028377673E-01  1.5190495819188E+00
115  1.1400000000000E+00 -1.3618502461021E-01  1.4744150521399E+00
116  1.1500000000000E+00 -1.2157375515254E-01  1.4245444912843E+00
117  1.1600000000000E+00 -1.0791090413635E-01  1.3696929571177E+00
118  1.1700000000000E+00 -9.5218588750252E-02  1.3101846412436E+00
119  1.1800000000000E+00 -8.3506890712845E-02  1.2464112735886E+00
120  1.1900000000000E+00 -7.2774299433065E-02  1.1788292933520E+00
121  1.2000000000000E+00 -6.3008317470277E-02  1.1079557994195E+00
122  1.2100000000000E+00 -5.4186220697359E-02  1.0343633172012E+00
123  1.2200000000000E+00 -4.6275962805176E-02  9.5867344275173E-01
124  1.2300000000000E+00 -3.9237211169785E-02  8.8154944797006E-01
125  1.2400000000000E+00 -3.3022498657258E-02  8.0368795240846E-01
126  1.2500000000000E+00 -2.7578473717407E-02  7.2580978729637E-01
127  1.2600000000000E+00 -2.2847229181881E-02  6.4865019517813E-01
128  1.2700000000000E+00 -1.8767688546624E-02  5.7294852396292E-01
129  1.2800000000000E+00 -1.5277027241183E-02  4.9943758664481E-01
130  1.2900000000000E+00 -1.2312105488039E-02  4.2883286726145E-01
131  1.3000000000000E+00 -9.8108888519297E-03  3.6182175965443E-01
132  1.3100000000000E+00 -7.7138298624412E-03  2.9905305502053E-01
133  1.3200000000000E+00 -5.9652151277607E-03  2.4112658328597E-01
134  1.3300000000000E+00 -4.5143266538121E-03  1.8858446634670E-01
135  1.3400000000000E+00 -3.3188534913110E-03  1.4187894644121E-01
136  1.3500000000000E+00 -2.3471098826301E-03  1.0134746641073E-01
137  1.3600000000000E+00 -1.5652761836688E-03  6.7349630301366E-02
138  1.3700000000000E+00 -9.4920613249606E-04  4.0154744067100E-02
139  1.3800000000000E+00 -4.8546222878511E-04  1.9932600113094E-02
140  1.3900000000000E+00 -1.7049927448603E-04  6.7163597349872E-03
141  1.4000000000000E+00 -1.7676705033229E-05  6.5911593073489E-04
142  1.4100000000000E+00  1.9823014918463E-06 -7.1712096306088E-05
143  1.4200000000000E+00 -2.7582087832994E-07  1.0236405960987E-05
144  1.43  0.  0.
145  1.44  0.  0.
146  1.45  0.  0.
147  1.46  0.  0.
148  1.47  0.  0.
149  1.48  0.  0.
150  1.49  0.  0.
151  1.50  0.  0.
152  1.51  0.  0.
153  1.52  0.  0.
154  1.53  0.  0.
155  1.54  0.  0.
156  1.55  0.  0.
157  1.56  0.  0.
158  1.57  0.  0.
159  1.58  0.  0.
160  1.59  0.  0.
161  1.60  0.  0.
162  1.61  0.  0.
163  1.62  0.  0.
164  1.63  0.  0.
165  1.64  0.  0.
166  1.65  0.  0.
167  1.66  0.  0.
168  1.67  0.  0.
169  1.68  0.  0.
170  1.69  0.  0.
171  1.70  0.  0.
172  1.71  0.  0.
173  1.72  0.  0.
174  1.73  0.  0.
175  1.74  0.  0.
176  1.75  0.  0.
177  1.76  0.  0.
178  1.77  0.  0.
179  1.78  0.  0.
180  1.79  0.  0.
181  1.80  0.  0.
182  1.81  0.  0.
183  1.82  0.  0.
184  1.83  0.  0.
185  1.84  0.  0.
186  1.85  0.  0.
187  1.86  0.  0.
188  1.87  0.  0.
189  1.88  0.  0.
190  1.89  0.  0.
191  1.90  0.  0.
192  1.91  0.  0.
193  1.92  0.  0.
194  1.93  0.  0.
195  1.94  0.  0.
196  1.95  0.  0.
197  1.96  0.  0.
198  1.97  0.  0.
199  1.98  0.  0.
200  1.99  0.  0.
201  2.00  0.  0.
202  2.01  0.  0.
203  2.02  0.  0.
204  2.03  0.  0.
205  2.04  0.  0.
206  2.05  0.  0.
207  2.06  0.  0.
208  2.07  0.  0.
209  2.08  0.  0.
210  2.09  0.  0.
211  2.10  0.  0.
212  2.11  0.  0.
213  2.12  0.  0.
214  2.13  0.  0.
215  2.14  0.  0.
216  2.15  0.  0.
217  2.16  0.  0.
218  2.17  0.  0.
219  2.18  0.  0.
220  2.19  0.  0.
221  2.20  0.  0.
222  2.21  0.  0.
223  2.22  0.  0.
224  2.23  0.  0.
225  2.24  0.  0.
226  2.25  0.  0.
227  2.26  0.  0.
228  2.27  0.  0.
229  2.28  0.  0.
230  2.29  0.  0.
231  2.30  0.  0.
232  2.31  0.  0.
233  2.32  0.  0.
234  2.33  0.  0.
235  2.34  0.  0.
236  2.35  0.  0.
237  2.36  0.  0.
238  2.37  0.  0.
239  2.38  0.  0.
240  2.39  0.  0.
241  2.40  0.  0.
242  2.41  0.  0.
243  2.42  0.  0.
244  2.43  0.  0.
245  2.44  0.  0.
246  2.45  0.  0.
247  2.46  0.  0.
248  2.47  0.  0.
249  2.48  0.  0.
250  2.49  0.  0.
251  2.50  0.  0.
252  2.51  0.  0.
253  2.52  0.  0.
254  2.53  0.  0.
255  2.54  0.  0.
256  2.55  0.  0.
257  2.56  0.  0.
258  2.57  0.  0.
259  2.58  0.  0.
260  2.59  0.  0.
261  2.60  0.  0.
262  2.61  0.  0.
263  2.62  0.  0.
264  2.63  0.  0.
265  2.64  0.  0.
266  2.65  0.  0.
267  2.66  0.  0.
268  2.67  0.  0.
269  2.68  0.  0.
270  2.69  0.  0.
271  2.70  0.  0.
272  2.71  0.  0.
273  2.72  0.  0.
274  2.73  0.  0.
275  2.74  0.  0.
276  2.75  0.  0.
277  2.76  0.  0.
278  2.77  0.  0.
279  2.78  0.  0.
280  2.79  0.  0.
281  2.80  0.  0.
282  2.81  0.  0.
283  2.82  0.  0.
284  2.83  0.  0.
285  2.84  0.  0.
286  2.85  0.  0.
287  2.86  0.  0.
288  2.87  0.  0.
289  2.88  0.  0.
290  2.89  0.  0.
291  2.90  0.  0.
292  2.91  0.  0.
293  2.92  0.  0.
294  2.93  0.  0.
295  2.94  0.  0.
296  2.95  0.  0.
297  2.96  0.  0.
298  2.97  0.  0.
299  2.98  0.  0.
300  2.99  0.  0.
301  3.00  0.  0.
302  3.01  0.  0.
303  3.02  0.  0.
304  3.03  0.  0.
305  3.04  0.  0.
306  3.05  0.  0.
307  3.06  0.  0.
308  3.07  0.  0.
309  3.08  0.  0.
310  3.09  0.  0.
311  3.10  0.  0.
312  3.11  0.  0.
313  3.12  0.  0.
314  3.13  0.  0.
315  3.14  0.  0.
316  3.15  0.  0.
317  3.16  0.  0.
318  3.17  0.  0.
319  3.18  0.  0.
320  3.19  0.  0.
321  3.20  0.  0.
322  3.21  0.  0.
323  3.22  0.  0.
324  3.23  0.  0.
325  3.24  0.  0.
326  3.25  0.  0.
327  3.26  0.  0.
328  3.27  0.  0.
329  3.28  0.  0.
330  3.29  0.  0.
331  3.30  0.  0.
332  3.31  0.  0.
333  3.32  0.  0.
334  3.33  0.  0.
335  3.34  0.  0.
336  3.35  0.  0.
337  3.36  0.  0.
338  3.37  0.  0.
339  3.38  0.  0.
340  3.39  0.  0.
341  3.40  0.  0.
342  3.41  0.  0.
343  3.42  0.  0.
344  3.43  0.  0.
345  3.44  0.  0.
346  3.45  0.  0.
347  3.46  0.  0.
348  3.47  0.  0.
349  3.48  0.  0.
350  3.49  0.  0.
351  3.50  0.  0.
352  3.51  0.  0.
353  3.52  0.  0.
354  3.53  0.  0.
355  3.54  0.  0.
356  3.55  0.  0.
357  3.56  0.  0.
358  3.57  0.  0.
359  3.58  0.  0.
360  3.59  0.  0.
361  3.60  0.  0.
362  3.61  0.  0.
363  3.62  0.  0.
364  3.63  0.  0.
365  3.64  0.  0.
366  3.65  0.  0.
367  3.66  0.  0.
368  3.67  0.  0.
369  3.68  0.  0.
370  3.69  0.  0.
371  3.70  0.  0.
372  3.71  0.  0.
373  3.72  0.  0.
374  3.73  0.  0.
375  3.74  0.  0.
376  3.75  0.  0.
377  3.76  0.  0.
378  3.77  0.  0.
379  3.78  0.  0.
380  3.79  0.  0.
381  3.80  0.  0.
382  3.81  0.  0.
383  3.82  0.  0.
384  3.83  0.  0.
385  3.84  0.  0.
386  3.85  0.  0.
387  3.86  0.  0.
388  3.87  0.  0.
389  3.88  0.  0.
390  3.89  0.  0.
391  3.90  0.  0.
392  3.91  0.  0.
393  3.92  0.  0.
394  3.93  0.  0.
395  3.94  0.  0.
396  3.95  0.  0.
397  3.96  0.  0.
398  3.97  0.  0.
399  3.98  0.  0.
400  3.99  0.  0.
401  4.00  0.  0.
402  4.01  0.  0.
403  4.02  0.  0.
404  4.03  0.  0.
405  4.04  0.  0.
406  4.05  0.  0.
407  4.06  0.  0.
408  4.07  0.  0.
409  4.08  0.  0.
410  4.09  0.  0.
411  4.10  0.  0.
412  4.11  0.  0.
413  4.12  0.  0.
414  4.13  0.  0.
415  4.14  0.  0.
416  4.15  0.  0.
417  4.16  0.  0.
418  4.17  0.  0.
419  4.18  0.  0.
420  4.19  0.  0.
421  4.20  0.  0.
422  4.21  0.  0.
423  4.22  0.  0.
424  4.23  0.  0.
425  4.24  0.  0.
426  4.25  0.  0.
427  4.26  0.  0.
428  4.27  0.  0.
429  4.28  0.  0.
430  4.29  0.  0.
431  4.30  0.  0.
432  4.31  0.  0.
433  4.32  0.  0.
434  4.33  0.  0.
435  4.34  0.  0.
436  4.35  0.  0.
437  4.36  0.  0.
438  4.37  0.  0.
439  4.38  0.  0.
440  4.39  0.  0.
441  4.40  0.  0.
442  4.41  0.  0.
443  4.42  0.  0.
444  4.43  0.  0.
445  4.44  0.  0.
446  4.45  0.  0.
447  4.46  0.  0.
448  4.47  0.  0.
449  4.48  0.  0.
450  4.49  0.  0.
451  4.50  0.  0.
452  4.51  0.  0.
453  4.52  0.  0.
454  4.53  0.  0.
455  4.54  0.  0.
456  4.55  0.  0.
457  4.56  0.  0.
458  4.57  0.  0.
459  4.58  0.  0.
460  4.59  0.  0.
461  4.60  0.  0.
462  4.61  0.  0.
463  4.62  0.  0.
464  4.63  0.  0.
465  4.64  0.  0.
466  4.65  0.  0.
467  4.66  0.  0.
468  4.67  0.  0.
469  4.68  0.  0.
470  4.69  0.  0.
471  4.70  0.  0.
472  4.71  0.  0.
473  4.72  0.  0.
474  4.73  0.  0.
475  4.74  0.  0.
476  4.75  0.  0.
477  4.76  0.  0.
478  4.77  0.  0.
479  4.78  0.  0.
480  4.79  0.  0.
481  4.80  0.  0.
482  4.81  0.  0.
483  4.82  0.  0.
484  4.83  0.  0.
485  4.84  0.  0.
486  4.85  0.  0.
487  4.86  0.  0.
488  4.87  0.  0.
489  4.88  0.  0.
490  4.89  0.  0.
491  4.90  0.  0.
492  4.91  0.  0.
493  4.92  0.  0.
494  4.93  0.  0.
495  4.94  0.  0.
496  4.95  0.  0.
497  4.96  0.  0.
498  4.97  0.  0.
499  4.98  0.  0.
500  4.99  0.  0.
501  5.00  0.  0.
502  5.01  0.  0.
503  5.02  0.  0.
504  5.03  0.  0.
505  5.04  0.  0.
506  5.05  0.  0.
507  5.06  0.  0.
508  5.07  0.  0.
509  5.08  0.  0.
510  5.09  0.  0.
511  5.10  0.  0.
512  5.11  0.  0.
513  5.12  0.  0.
514  5.13  0.  0.
515  5.14  0.  0.
516  5.15  0.  0.
517  5.16  0.  0.
518  5.17  0.  0.
519  5.18  0.  0.
520  5.19  0.  0.
521  5.20  0.  0.
522  5.21  0.  0.
523  5.22  0.  0.
524  5.23  0.  0.
525  5.24  0.  0.
526  5.25  0.  0.
527  5.26  0.  0.
528  5.27  0.  0.
529  5.28  0.  0.
530  5.29  0.  0.
531  5.30  0.  0.
532  5.31  0.  0.
533  5.32  0.  0.
534  5.33  0.  0.
535  5.34  0.  0.
536  5.35  0.  0.
537  5.36  0.  0.
538  5.37  0.  0.
539  5.38  0.  0.
540  5.39  0.  0.
541  5.40  0.  0.
542  5.41  0.  0.
543  5.42  0.  0.
544  5.43  0.  0.
545  5.44  0.  0.
546  5.45  0.  0.
547  5.46  0.  0.
548  5.47  0.  0.
549  5.48  0.  0.
550  5.49  0.  0.
551  5.50  0.  0.
552  5.51  0.  0.
553  5.52  0.  0.
554  5.53  0.  0.
555  5.54  0.  0.
556  5.55  0.  0.
557  5.56  0.  0.
558  5.57  0.  0.
559  5.58  0.  0.
560  5.59  0.  0.
561  5.60  0.  0.
562  5.61  0.  0.
563  5.62  0.  0.
564  5.63  0.  0.
565  5.64  0.  0.
566  5.65  0.  0.
567  5.66  0.  0.
568  5.67  0.  0.
569  5.68  0.  0.
570  5.69  0.  0.
571  5.70  0.  0.
572  5.71  0.  0.
573  5.72  0.  0.
574  5.73  0.  0.
575  5.74  0.  0.
576  5.75  0.  0.
577  5.76  0.  0.
578  5.77  0.  0.
579  5.78  0.  0.
580  5.79  0.  0.
581  5.80  0.  0.
582  5.81  0.  0.
583  5.82  0.  0.
584  5.83  0.  0.
585  5.84  0.  0.
586  5.85  0.  0.
587  5.86  0.  0.
588  5.87  0.  0.
589  5.88  0.  0.
590  5.89  0.  0.
591  5.90  0.  0.
592  5.91  0.  0.
593  5.92  0.  0.
594  5.93  0.  0.
595  5.94  0.  0.
596  5.95  0.  0.
597  5.96  0.  0.
598  5.97  0.  0.
599  5.98  0.  0.
600  5.99  0.  0.
1                         4.5021729185391E+00 -2.5381140009169E-01 -2.7726798527878E-02
1  0.0000000000000E+00 -2.0564251690391E-09 -1.1249753302522E-08 -2.4937560619796E-08
2  1.0000000000000E-02  2.1324210899043E-03  1.3592544971503E-04 -1.6021793494959E-04
3  2.0000000000000E-02  8.5205596364370E-03  5.5179858695773E-04 -6.2206394290031E-04
4  3.0000000000000E-02  1.9137036088897E-02  1.2716466696022E-03 -1.3297129829898E-03
5  4.0000000000000E-02  3.3936201250025E-02  2.3346450642351E-03 -2.1921024647860E-03
6  5.0000000000000E-02  5.2854115954495E-02  3.7938363328878E-03 -3.0858475938496E-03
7  6.0000000000000E-02  7.5808531677414E-02  5.7143847036118E-03 -3.8592174427502E-03
8  7.0000000000000E-02  1.0269888081620E-01  8.1714122559227E-03 -4.3370694011183E-03
9  8.0000000000000E-02  1.3340628744563E-01  1.1247474401886E-02 -4.3266147207589E-03
10  9.0000000000000E-02  1.6779361108584E-01  1.5029742067803E-02 -3.6238660165450E-03
11  1.0000000000000E-01  2.0570553739303E-01  1.9606966134220E-02 -2.0205993519961E-03
12  1.1000000000000E-01  2.4696873063651E-01  2.5066305967372E-02  6.8835062598199E-04
13  1.2000000000000E-01  2.9139206333066E-01  3.1490108111508E-02  4.6976537769324E-03
14  1.3000000000000E-01  3.3876693842047E-01  3.8952723297350E-02  1.0184102128238E-02
15  1.4000000000000E-01  3.8886771896515E-01  4.7517449795277E-02  1.7299478714185E-02
16  1.5000000000000E-01  4.4145227932460E-01  5.7233688796282E-02  2.6163869629128E-02
17  1.6000000000000E-01  4.9626269044166E-01  6.8134392984559E-02  3.6859602023460E-02
18  1.7000000000000E-01  5.5302604995372E-01  8.0233882871848E-02  4.9425976922009E-02
19  1.8000000000000E-01  6.1145546559626E-01  9.3526096944920E-02  6.3854947682598E-02
20  1.9000000000000E-01  6.7125119772521E-01  1.0798333142956E-01  8.0087873037303E-02
21  2.0000000000000E-01  7.3210196384166E-01  1.2355551373722E-01  9.8013448489693E-02
22  2.1000000000000E-01  7.9368640481523E-01  1.4017004071009E-01  1.1746689196224E-01
23  2.2000000000000E-01  8.5567470914509E-01  1.5773219892456E-01  1.3823042965494E-01
24  2.3000000000000E-01  9.1773038814528E-01  1.7612616988244E-01  1.6003509679740E-01
25  2.4000000000000E-01  9.7951219147623E-01  1.9521660826203E-01  1.8256383609703E-01
26  2.5000000000000E-01  1.0406761490482E+00  2.1485076687129E-01  2.0545584496593E-01
27  2.6000000000000E-01  1.1008777220778E+00  2.3486112789847E-01  2.2831209181140E-01
28  2.7000000000000E-01  1.1597740430640E+00  2.5506848683596E-01  2.5070189254482E-01
29  2.8000000000000E-01  1.2170262217444E+00  2.7528542339141E-01  2.7217041171103E-01
30  2.9000000000000E-01  1.2723016917581E+00  2.9532008309669E-01  2.9224692892254E-01
31  3.0000000000000E-01  1.3252765708524E+00  3.1498018445417E-01  3.1045369118711E-01
32  3.1000000000000E-01  1.3756380060630E+00  3.3407715954983E-01  3.2631515575548E-01
33  3.2000000000000E-01  1.4230864744332E+00  3.5243033130275E-01  3.3936741669752E-01
34  3.3000000000000E-01  1.4673380095259E+00  3.6987102804613E-01  3.4916760184375E-01
35  3.4000000000000E-01  1.5081263242630E+00  3.8624653603068E-01  3.5530302520870E-01
36  3.5000000000000E-01  1.5452048014833E+00  4.0142379273424E-01  3.5739988360614E-01
37  3.6000000000000E-01  1.5783483250540E+00  4.1529272852257E-01  3.5513129483717E-01
38  3.7000000000000E-01  1.6073549263659E+00  4.2776917114992E-01  3.4822448840912E-01
39  3.8000000000000E-01  1.6320472235607E+00  4.3879723667241E-01  3.3646697794033E-01
40  3.9000000000000E-01  1.6522736338342E+00  4.4835114137910E-01  3.1971156682972E-01
41  4.0000000000000E-01  1.6679093425728E+00  4.5643638208272E-01  2.9788006491197E-01
42  4.1000000000000E-01  1.6788570168382E+00  4.6309024626962E-01  2.7096562309493E-01
43  4.2000000000000E-01  1.6850472547583E+00  4.6838162886423E-01  2.3903362469833E-01
44  4.3000000000000E-01  1.6864387665995E+00  4.7241014836660E-01  2.0222110565797E-01
45  4.4000000000000E-01  1.6830182876302E+00  4.7530457149862E-01  1.6073471012983E-01
46  4.5000000000000E-01  1.6748002272170E+00  4.7722057186118E-01  1.1484722251345E-01
47  4.6000000000000E-01  1.6618260628553E+00  4.7833786406903E-01  6.4892750690244E-02
48  4.7000000000000E-01  1.6441634919129E+00  4.7885677001037E-01  1.1260667517896E-02
49  4.8000000000000E-01  1.6219053576889E+00  4.7899428790232E-01 -4.5611552445148E-02
50  4.9000000000000E-01  1.5951683698660E+00  4.7897974733620E-01 -1.0524643713639E-01
51  5.0000000000000E-01  1.5640916424883E+00  4.7905014421135E-01 -1.6713537511071E-01
52  5.1000000000000E-01  1.5288350751706E+00  4.7944525806945E-01 -2.3074802177028E-01
53  5.2000000000000E-01  1.4895776052728E+00  4.8040266063192E-01 -2.9554203387622E-01
54  5.3000000000000E-01  1.4465153602174E+00  4.8215272813571E-01 -3.6097290371681E-01
55  5.4000000000000E-01  1.3998597399563E+00  4.8491377123719E-01 -4.2650366096975E-01
56  5.5000000000000E-01  1.3498354597904E+00  4.8888739475123E-01 -4.9161421256313E-01
57  5.6000000000000E-01  1.2966785833082E+00  4.9425419531687E-01 -5.5581009871993E-01
58  5.7000000000000E-01  1.2406345741489E+00  5.0116989829816E-01 -6.1863045672204E-01
59  5.8000000000000E-01  1.1819563936441E+00  5.0976202596997E-01 -6.7965500250032E-01
60  5.9000000000000E-01  1.1209026691826E+00  5.2012717749210E-01 -7.3850986354997E-01
61  6.0000000000000E-01  1.0577359554384E+00  5.3232898758752E-01 -7.9487212437286E-01
62  6.1000000000000E-01  9.9272110745811E-01  5.4639681550992E-01 -8.4847297704286E-01
63  6.2000000000000E-01  9.2612378110520E-01  5.6232519915292E-01 -8.9909940385665E-01
64  6.3000000000000E-01  8.5820907258893E-01  5.8007409140031E-01 -9.4659435557089E-01
65  6.4000000000000E-01  7.8924030484723E-01  5.9956987744937E-01 -9.9085542658117E-01
66  6.5000000000000E-01  7.1947796451688E-01  6.2070715328813E-01 -1.0318320666580E+00
67  6.6000000000000E-01  6.4917878919622E-01  6.4335122720974E-01 -1.0695214066038E+00
68  6.7000000000000E-01  5.7859500079111E-01  6.6734128863967E-01 -1.1039628114931E+00
69  6.8000000000000E-01  5.0797367702775E-01  6.9249417206254E-01 -1.1352313091198E+00
70  6.9000000000000E-01  4.3755624980849E-01  7.1860862886973E-01 -1.1634300720188E+00
71  7.0000000000000E-01  3.6757811606339E-01  7.4547000688241E-01 -1.1886821581758E+00
72  7.1000000000000E-01  2.9826834418674E-01  7.7285522647206E-01 -1.2111217375671E+00
73  7.2000000000000E-01  2.2984945710942E-01  8.0053793388894E-01 -1.2308850483744E+00
74  7.3000000000000E-01  1.6253727159666E-01  8.2829370684910E-01 -1.2481013376028E+00
75  7.4000000000000E-01  9.6540772515086E-02  8.5590518479173E-01 -1.2628840455444E+00
76  7.5000000000000E-01  3.2062000606645E-02  8.8316699660267E-01 -1.2753224918470E+00
77  7.6000000000000E-01 -3.0704067252801E-02  9.0989036204069E-01 -1.2854743127988E+00
78  7.7000000000000E-01 -9.1569665253358E-02  9.3590724955860E-01 -1.2933588849295E+00
79  7.8000000000000E-01 -1.5035443155984E-01  9.6107398257306E-01 -1.2989519493724E+00
80  7.9000000000000E-01 -2.0688566291265E-01  9.8527419832289E-01 -1.3021816250302E+00
81  8.0000000000000E-01 -2.6099864411815E-01  1.0084210780170E+00 -1.3029259669806E+00
82  8.1000000000000E-01 -3.1253706238934E-01  1.0304587837018E+00 -1.3010121903993E+00
83  8.2000000000000E-01 -3.6135351289148E-01  1.0513630558085E+00 -1.2962176403560E+00
84  8.3000000000000E-01 -4.0731009796315E-01  1.0711409452582E+00 -1.2882725450556E+00
85  8.4000000000000E-01 -4.5027911841971E-01  1.0898296748620E+00 -1.2768645453979E+00
86  8.5000000000000E-01 -4.9014385121000E-01  1.1074946460673E+00 -1.2616449481781E+00
87  8.6000000000000E-01 -5.2679940359673E-01  1.1242266283781E+00 -1.2422366048937E+00
88  8.7000000000000E-01 -5.6015363007670E-01  1.1401381895126E+00 -1.2182432740681E+00
89  8.8000000000000E-01 -5.9012809455715E-01  1.1553594440562E+00 -1.1892602833058E+00
90  8.9000000000000E-01 -6.1665905696308E-01  1.1700332165405E+00 -1.1548862690120E+00
91  9.0000000000000E-01 -6.3969846056433E-01  1.1843097310831E+00 -1.1147357378079E+00
92  9.1000000000000E-01 -6.5921489396786E-01  1.1983409535348E+00 -1.0684521650511E+00
93  9.2000000000000E-01 -6.7519449999675E-01  1.2122747231559E+00 -1.0157213233036E+00
94  9.3000000000000E-01 -6.8764180263343E-01  1.2262488188528E+00 -9.5628451775701E-01
95  9.4000000000000E-01 -6.9658042288929E-01  1.2403851097408E+00 -8.8995139700367E-01
96  9.5000000000000E-01 -7.0205365490397E-01  1.2547839410717E+00 -8.1661200652792E-01
97  9.6000000000000E-01 -7.0412487478867E-01  1.2695189043018E+00 -7.3624775903594E-01
98  9.7000000000000E-01 -7.0287775670082E-01  1.2846321342740E+00 -6.4894101026364E-01
99  9.8000000000000E-01 -6.9841627334895E-01  1.3001302672118E+00 -5.5488295104112E-01
100  9.9000000000000E-01 -6.9086446153165E-01  1.3159811806473E+00 -4.5437955577326E-01
101  1.0000000000000E+00 -6.8036593735218E-01  1.3321116207527E+00 -3.4785536361827E-01
102  1.0100000000000E+00 -6.6708315034222E-01  1.3484058041470E+00 -2.3585491079610E-01
103  1.0200000000000E+00 -6.5119637078489E-01  1.3647050604554E+00 -1.1904167983885E-01
104  1.0300000000000E+00 -6.3290240993789E-01  1.3808085591824E+00  1.8055168080975E-03
105  1.0400000000000E+00 -6.1241307850575E-01  1.3964751403052E+00  1.2579874671550E-01
106  1.0500000000000E+00 -5.8995339448076E-01  1.4114262428882E+00  2.5194973204141E-01
107  1.0600000000000E+00 -5.6575955721662E-01  1.4253499006103E+00  3.7918110247027E-01
108  1.0700000000000E+00 -5.4007671019999E-01  1.4379057478756E+00  5.0633998334566E-01
109  1.0800000000000E+00 -5.1315652030715E-01  1.4487309557473E+00  6.3221372073599E-01
110  1.0900000000000E+00 -4.8525460623154E-01  1.4574469939442E+00  7.5554749332655E-01
111  1.1000000000000E+00 -4.5662785315122E-01  1.4636670939551E+00  8.7506351331136E-01
112  1.1100000000000E+00 -4.2753165442232E-01  1.4670042696702E+00  9.8948147642856E-01
113  1.1200000000000E+00 -3.9821712406955E-01  1.4670797360653E+00  1.0975398855754E+00
114  1.1300000000000E+00 -3.6892832598563E-01  1.4635315539613E+00  1.1980178442839E+00
115  1.1400000000000E+00 -3.3989956699549E-01  1.4560233199387E+00  1.2897568962711E+00
116  1.1500000000000E+00 -3.1135280122911E-01  1.4442527154415E+00  1.3716824760264E+00
117  1.1600000000000E+00 -2.8349519255263E-01  1.4279597280877E+00  1.4428245332828E+00
118  1.1700000000000E+00 -2.5651688012453E-01  1.4069343612998E+00  1.5023369014685E+00
119  1.1800000000000E+00 -2.3058898947341E-01  1.3810236556075E+00  1.5495149969094E+00
120  1.1900000000000E+00 -2.0586192790078E-01  1.3501378561501E+00  1.5838114612410E+00
121  1.2000000000000E+00 -1.8246399849781E-01  1.3142555760156E+00  1.6048493941955E+00
122  1.2100000000000E+00 -1.6050036179001E-01  1.2734278235179E+00  1.6124328663869E+00
123  1.2200000000000E+00 -1.4005236798094E-01  1.2277807833450E+00  1.6065544519624E+00
124  1.2300000000000E+00 -1.2117727616552E-01  1.1775172659119E+00  1.5873995772614E+00
125  1.2400000000000E+00 -1.0390836979847E-01  1.1229167659188E+00  1.5553475432501E+00
126  1.2500000000000E+00 -8.8255470259903E-02  1.0643340995586E+00  1.5109691453856E+00
127  1.2600000000000E+00 -7.4205842788141E-02  1.0021966191054E+00  1.4550208826264E+00
128  1.2700000000000E+00 -6.1725481398152E-02  9.3700003355384E-01  1.3884358170944E+00
129  1.2800000000000E+00 -5.0760751903833E-02  8.6930289362084E-01  1.3123112152837E+00
130  1.2900000000000E+00 -4.1240364974612E-02  7.9971982811449E-01  1.2278931691944E+00
131  1.3000000000000E+00 -3.3077644366288E-02  7.2891364605541E-01  1.1365584605216E+00
132  1.3100000000000E+00 -2.6173049294597E-02  6.5758644409706E-01  1.0397939909740E+00
133  1.3200000000000E+00 -2.0416904470944E-02  5.8646988129044E-01  9.3917415586417E-01
134  1.3300000000000E+00 -1.5692286701515E-02  5.1631480262092E-01  8.3633658527234E-01
135  1.3400000000000E+00 -1.1878013284742E-02  4.4788040849779E-01  7.3295671610362E-01