Db    ONCVPSP-4.0.1  r_core=   1.15026   1.15026   1.15026   1.20665
105.0000     45.0000      220328    zatom,zion,pspd
8      11   3     4   600     0    pspcod,pspxc,lmax,lloc,mmax,r2well
5.99000000  3.80000000  0.00000000    rchrg fchrg qchrg
3     2     2     2     0    nproj
1     1           extension_switch
0                         1.6546120828031E+01 -5.8799216421955E+00  1.5454695623623E+00
1  0.0000000000000E+00 -8.4517717269250E-09  3.6059166763636E-10 -8.4225519891845E-09
2  1.0000000000000E-02  1.7142621201762E-01  5.6846156465932E-02  4.5960574572063E-02
3  2.0000000000000E-02  3.4141005468404E-01  1.1361155623896E-01  9.0987684811301E-02
4  3.0000000000000E-02  5.0852380946068E-01  1.7021549017937E-01  1.3416196524443E-01
5  4.0000000000000E-02  6.7136888234104E-01  2.2657734682695E-01  1.7459204399256E-01
6  5.0000000000000E-02  8.2858992550054E-01  2.8261666757272E-01  2.1142803120159E-01
7  6.0000000000000E-02  9.7888843613152E-01  3.3825320915108E-01  2.4387440294648E-01
8  7.0000000000000E-02  1.1210356680654E+00  3.9340701544233E-01  2.7120208849021E-01
9  8.0000000000000E-02  1.2538847002348E+00  4.4799850021505E-01  2.9275957720103E-01
10  9.0000000000000E-02  1.3763815165687E+00  5.0194854201691E-01  3.0798287238229E-01
11  1.0000000000000E-01  1.4875749644969E+00  5.5517859196081E-01  3.1640413295231E-01
12  1.1000000000000E-01  1.5866254738146E+00  6.0761079466811E-01  3.1765886051460E-01
13  1.2000000000000E-01  1.6728124341130E+00  6.5916812214484E-01  3.1149150900502E-01
14  1.3000000000000E-01  1.7455401471909E+00  7.0977451989852E-01  2.9775941684502E-01
15  1.4000000000000E-01  1.8043422906337E+00  7.5935506417307E-01  2.7643498730190E-01
16  1.5000000000000E-01  1.8488848498489E+00  8.0783612880266E-01  2.4760607136948E-01
17  1.6000000000000E-01  1.8789674979904E+00  8.5514555987792E-01  2.1147453860126E-01
18  1.7000000000000E-01  1.8945234260461E+00  9.0121285618920E-01  1.6835305445690E-01
19  1.8000000000000E-01  1.8956176485158E+00  9.4596935326915E-01  1.1866011722982E-01
20  1.9000000000000E-01  1.8824438331300E+00  9.8934840880304E-01  6.2913442713528E-02
21  2.0000000000000E-01  1.8553197254937E+00  1.0312855872082E+00  1.7218195341406E-03
22  2.1000000000000E-01  1.8146812608804E+00  1.0717188412984E+00 -6.4224408483227E-02
23  2.2000000000000E-01  1.7610754751639E+00  1.1105886891367E+00 -1.3416404550568E-01
24  2.3000000000000E-01  1.6951523445573E+00  1.1478383844218E+00 -2.0727671748103E-01
25  2.4000000000000E-01  1.6176556989729E+00  1.1834140790492E+00 -2.8269527856508E-01
26  2.5000000000000E-01  1.5294133659955E+00  1.2172649767952E+00 -3.5951869477599E-01
27  2.6000000000000E-01  1.4313267113250E+00  1.2493434774060E+00 -4.3682513842300E-01
28  2.7000000000000E-01  1.3243597468000E+00  1.2796053106813E+00 -5.1368502292365E-01
29  2.8000000000000E-01  1.2095279785871E+00  1.3080096604364E+00 -5.8917371128350E-01
30  2.9000000000000E-01  1.0878871657232E+00  1.3345192784708E+00 -6.6238364299338E-01
31  3.0000000000000E-01  9.6052215296225E-01  1.3591005888668E+00 -7.3243564336717E-01
32  3.1000000000000E-01  8.2853593196351E-01  1.3817237830695E+00 -7.9848920605272E-01
33  3.2000000000000E-01  6.9303907152866E-01  1.4023629062605E+00 -8.5975157296983E-01
34  3.3000000000000E-01  5.5513964124619E-01  1.4209959355288E+00 -9.1548547533551E-01
35  3.4000000000000E-01  4.1593373401972E-01  1.4376048502605E+00 -9.6501544353711E-01
36  3.5000000000000E-01  2.7649667213612E-01  1.4521756950329E+00 -1.0077326409724E+00
37  3.6000000000000E-01  1.3787495942684E-01  1.4646986351032E+00 -1.0430982259779E+00
38  3.7000000000000E-01  1.0790194108298E-03  1.4751680043571E+00 -1.0706452948516E+00
39  3.8000000000000E-01 -1.3292326317630E-01  1.4835823453277E+00 -1.0899795059259E+00
40  3.9000000000000E-01 -2.6321220161424E-01  1.4899444406452E+00 -1.1007785278219E+00
41  4.0000000000000E-01 -3.8892119123505E-01  1.4942613350357E+00 -1.1027904926737E+00
42  4.1000000000000E-01 -5.0924085987743E-01  1.4965443467819E+00 -1.0958316656405E+00
43  4.2000000000000E-01 -6.2342254101417E-01  1.4968090674062E+00 -1.0797835640236E+00
44  4.3000000000000E-01 -7.3078113703888E-01  1.4950753482435E+00 -1.0545897716845E+00
45  4.4000000000000E-01 -8.3069744764139E-01  1.4913672725625E+00 -1.0202526964286E+00
46  4.5000000000000E-01 -9.2262004163445E-01  1.4857131119689E+00 -9.7683050920433E-01
47  4.6000000000000E-01 -1.0060667499382E+00  1.4781452659896E+00 -9.2443448438616E-01
48  4.7000000000000E-01 -1.0806258527698E+00  1.4687001839894E+00 -8.6322693053062E-01
49  4.8000000000000E-01 -1.1459570256633E+00  1.4574182689155E+00 -7.9341986169278E-01
50  4.9000000000000E-01 -1.2017920971639E+00  1.4443437627689E+00 -7.1527451197888E-01
51  5.0000000000000E-01 -1.2479356564290E+00  1.4295246141790E+00 -6.2910174215477E-01
52  5.1000000000000E-01 -1.2842655322075E+00  1.4130123289573E+00 -5.3526332884056E-01
53  5.2000000000000E-01 -1.3107331465049E+00  1.3948618050330E+00 -4.3417406635452E-01
54  5.3000000000000E-01 -1.3273637275351E+00  1.3751311536850E+00 -3.2630455106691E-01
55  5.4000000000000E-01 -1.3342563481800E+00  1.3538815094584E+00 -2.1218446072375E-01
56  5.5000000000000E-01 -1.3315837390262E+00  1.3311768315704E+00 -9.2406089120537E-02
57  5.6000000000000E-01 -1.3195918099865E+00  1.3070836999328E+00  3.2372147824065E-02
58  5.7000000000000E-01 -1.2985988023552E+00  1.2816711091329E+00  1.6142255290778E-01
59  5.8000000000000E-01 -1.2689939845918E+00  1.2550102637977E+00  2.9394567619090E-01
60  5.9000000000000E-01 -1.2312358007782E+00  1.2271743787037E+00  4.2906888110211E-01
61  6.0000000000000E-01 -1.1858493809641E+00  1.1982384867812E+00  5.6584629252563E-01
62  6.1000000000000E-01 -1.1334233277799E+00  1.1682792577876E+00  7.0326045081546E-01
63  6.2000000000000E-01 -1.0746057038094E+00  1.1373748299054E+00  8.4022596017652E-01
64  6.3000000000000E-01 -1.0100991591486E+00  1.1056046558590E+00  9.7559536990487E-01
65  6.4000000000000E-01 -9.4065515800218E-01  1.0730493643633E+00  1.1081674637751E+00
66  6.5000000000000E-01 -8.6706728654440E-01  1.0397906368473E+00  1.2366980581357E+00
67  6.6000000000000E-01 -7.9016365090843E-01  1.0059110984586E+00  1.3599133252748E+00
68  6.7000000000000E-01 -7.1079840317697E-01  9.7149422139866E-01  1.4765255680565E+00
69  6.8000000000000E-01 -6.2984246365612E-01  9.3662423769738E-01  1.5852512777369E+00
70  6.9000000000000E-01 -5.4817353841551E-01  9.0138605765043E-01  1.6848312125855E+00
71  7.0000000000000E-01 -4.6666556093916E-01  8.6586518936478E-01  1.7740521438727E+00
72  7.1000000000000E-01 -3.8617771459450E-01  8.3014765421825E-01  1.8517698314023E+00
73  7.2000000000000E-01 -3.0754321737513E-01  7.9431989258251E-01  1.9169327163659E+00
74  7.3000000000000E-01 -2.3155807096615E-01  7.5846865391456E-01  1.9686057579225E+00
75  7.4000000000000E-01 -1.5896999171142E-01  7.2268086531514E-01  2.0059937942042E+00
76  7.5000000000000E-01 -9.0467750779226E-02  6.8704347290010E-01  2.0284637805426E+00
77  7.6000000000000E-01 -2.6671154186665E-02  6.5164325083806E-01  2.0355652491103E+00
78  7.7000000000000E-01  3.1878109958739E-02  6.1656657366956E-01  2.0270483456686E+00
79  7.8000000000000E-01  8.4724539670038E-02  5.8189914852319E-01  2.0028788307509E+00
80  7.9000000000000E-01  1.3150560195926E-01  5.4772570505323E-01  1.9632494836142E+00
81  8.0000000000000E-01  1.7195705219023E-01  5.1412964230235E-01  1.9085874161141E+00
82  8.1000000000000E-01  2.0591663961813E-01  4.8119263318988E-01  1.8395568879504E+00
83  8.2000000000000E-01  2.3332608107975E-01  4.4899418888356E-01  1.7570573114832E+00
84  8.3000000000000E-01  2.5423122021377E-01  4.1761118686085E-01  1.6622162398554E+00
85  8.4000000000000E-01  2.6878032682299E-01  3.8711736793560E-01  1.5563772423647E+00
86  8.5000000000000E-01  2.7722052856634E-01  3.5758280884029E-01  1.4410826813974E+00
87  8.6000000000000E-01  2.7989240354919E-01  3.2907337804142E-01  1.3180515111205E+00
88  8.7000000000000E-01  2.7722279601288E-01  3.0165018325324E-01  1.1891523148424E+00
89  8.8000000000000E-01  2.6971594671378E-01  2.7536901954104E-01  1.0563718810268E+00
90  8.9000000000000E-01  2.5794305334113E-01  2.5027982691423E-01  9.2177968326064E-01
91  9.0000000000000E-01  2.4253039324204E-01  2.2642616585903E-01  7.8748867347220E-01
92  9.1000000000000E-01  2.2414614981722E-01  2.0384471832554E-01  6.5561281753061E-01
93  9.2000000000000E-01  2.0348608451337E-01  1.8256482025151E-01  5.2822179602860E-01
94  9.3000000000000E-01  1.8125818797749E-01  1.6260802978524E-01  4.0729325955413E-01
95  9.4000000000000E-01  1.5816642659183E-01  1.4398773298864E-01  2.9466296707673E-01
96  9.5000000000000E-01  1.3489367458482E-01  1.2670878600457E-01  1.9197304935370E-01
97  9.6000000000000E-01  1.1208388786039E-01  1.1076718952540E-01  1.0061852864788E-01
98  9.7000000000000E-01  9.0323534594036E-02  9.6149787982022E-02  2.1692094743650E-02
99  9.8000000000000E-01  7.0122250840938E-02  8.2833982282500E-02 -4.4073010526533E-02
100  9.9000000000000E-01  5.1892638062515E-02  7.0787441259875E-02 -9.6362309216459E-02
101  1.0000000000000E+00  3.5929099993103E-02  5.9967794477841E-02 -1.3534190915179E-01
102  1.0100000000000E+00  2.2386603136035E-02  5.0322320182753E-02 -1.6171814795096E-01
103  1.0200000000000E+00  1.1290577354351E-02  4.1788774109618E-02 -1.7664412765862E-01
104  1.0300000000000E+00  2.5823563751721E-03  3.4298137859957E-02 -1.8147398467322E-01
105  1.0400000000000E+00 -3.8646374295654E-03  2.7776951699565E-02 -1.7768507493245E-01
106  1.0500000000000E+00 -8.2356084232127E-03  2.2149370673112E-02 -1.6683987674262E-01
107  1.0600000000000E+00 -1.0764313455725E-02  1.7339121179804E-02 -1.5054690884607E-01
108  1.0700000000000E+00 -1.1722537593311E-02  1.3271332960894E-02 -1.3042163889353E-01
109  1.0800000000000E+00 -1.1409499710263E-02  9.8742072465428E-03 -1.0804851332779E-01
110  1.0900000000000E+00 -1.0141412956110E-02  7.0806050114597E-03 -8.4944761317747E-02
111  1.1000000000000E+00 -8.2461943818619E-03  4.8225984858485E-03 -6.2543289821864E-02
112  1.1100000000000E+00 -6.0427973539337E-03  3.0357596512671E-03 -4.2134923778995E-02
113  1.1200000000000E+00 -3.8268747698226E-03  1.6861903691351E-03 -2.4806092895589E-02
114  1.1300000000000E+00 -1.8940780585814E-03  7.4508083008831E-04 -1.1508791167852E-02
115  1.1400000000000E+00 -5.2595114592578E-04  1.8774736679518E-04 -3.0158710650730E-03
116  1.1500000000000E+00 -2.9321867825562E-06  9.8696788385023E-07 -1.5974716707742E-05
117  1.1600000000000E+00 -3.7431137182664E-06  1.2391123064477E-06 -2.0519740042165E-05
118  1.1700000000000E+00  2.8428624723836E-07 -9.8021184900987E-08  1.5974571368301E-06
119  1.18  0.  0.  0.
120  1.19  0.  0.  0.
121  1.20  0.  0.  0.
122  1.21  0.  0.  0.
123  1.22  0.  0.  0.
124  1.23  0.  0.  0.
125  1.24  0.  0.  0.
126  1.25  0.  0.  0.
127  1.26  0.  0.  0.
128  1.27  0.  0.  0.
129  1.28  0.  0.  0.
130  1.29  0.  0.  0.
131  1.30  0.  0.  0.
132  1.31  0.  0.  0.
133  1.32  0.  0.  0.
134  1.33  0.  0.  0.
135  1.34  0.  0.  0.
136  1.35  0.  0.  0.
137  1.36  0.  0.  0.
138  1.37  0.  0.  0.
139  1.38  0.  0.  0.
140  1.39  0.  0.  0.
141  1.40  0.  0.  0.
142  1.41  0.  0.  0.
143  1.42  0.  0.  0.
144  1.43  0.  0.  0.
145  1.44  0.  0.  0.
146  1.45  0.  0.  0.
147  1.46  0.  0.  0.
148  1.47  0.  0.  0.
149  1.48  0.  0.  0.
150  1.49  0.  0.  0.
151  1.50  0.  0.  0.
152  1.51  0.  0.  0.
153  1.52  0.  0.  0.
154  1.53  0.  0.  0.
155  1.54  0.  0.  0.
156  1.55  0.  0.  0.
157  1.56  0.  0.  0.
158  1.57  0.  0.  0.
159  1.58  0.  0.  0.
160  1.59  0.  0.  0.
161  1.60  0.  0.  0.
162  1.61  0.  0.  0.
163  1.62  0.  0.  0.
164  1.63  0.  0.  0.
165  1.64  0.  0.  0.
166  1.65  0.  0.  0.
167  1.66  0.  0.  0.
168  1.67  0.  0.  0.
169  1.68  0.  0.  0.
170  1.69  0.  0.  0.
171  1.70  0.  0.  0.
172  1.71  0.  0.  0.
173  1.72  0.  0.  0.
174  1.73  0.  0.  0.
175  1.74  0.  0.  0.
176  1.75  0.  0.  0.
177  1.76  0.  0.  0.
178  1.77  0.  0.  0.
179  1.78  0.  0.  0.
180  1.79  0.  0.  0.
181  1.80  0.  0.  0.
182  1.81  0.  0.  0.
183  1.82  0.  0.  0.
184  1.83  0.  0.  0.
185  1.84  0.  0.  0.
186  1.85  0.  0.  0.
187  1.86  0.  0.  0.
188  1.87  0.  0.  0.
189  1.88  0.  0.  0.
190  1.89  0.  0.  0.
191  1.90  0.  0.  0.
192  1.91  0.  0.  0.
193  1.92  0.  0.  0.
194  1.93  0.  0.  0.
195  1.94  0.  0.  0.
196  1.95  0.  0.  0.
197  1.96  0.  0.  0.
198  1.97  0.  0.  0.
199  1.98  0.  0.  0.
200  1.99  0.  0.  0.
201  2.00  0.  0.  0.
202  2.01  0.  0.  0.
203  2.02  0.  0.  0.
204  2.03  0.  0.  0.
205  2.04  0.  0.  0.
206  2.05  0.  0.  0.
207  2.06  0.  0.  0.
208  2.07  0.  0.  0.
209  2.08  0.  0.  0.
210  2.09  0.  0.  0.
211  2.10  0.  0.  0.
212  2.11  0.  0.  0.
213  2.12  0.  0.  0.
214  2.13  0.  0.  0.
215  2.14  0.  0.  0.
216  2.15  0.  0.  0.
217  2.16  0.  0.  0.
218  2.17  0.  0.  0.
219  2.18  0.  0.  0.
220  2.19  0.  0.  0.
221  2.20  0.  0.  0.
222  2.21  0.  0.  0.
223  2.22  0.  0.  0.
224  2.23  0.  0.  0.
225  2.24  0.  0.  0.
226  2.25  0.  0.  0.
227  2.26  0.  0.  0.
228  2.27  0.  0.  0.
229  2.28  0.  0.  0.
230  2.29  0.  0.  0.
231  2.30  0.  0.  0.
232  2.31  0.  0.  0.
233  2.32  0.  0.  0.
234  2.33  0.  0.  0.
235  2.34  0.  0.  0.
236  2.35  0.  0.  0.
237  2.36  0.  0.  0.
238  2.37  0.  0.  0.
239  2.38  0.  0.  0.
240  2.39  0.  0.  0.
241  2.40  0.  0.  0.
242  2.41  0.  0.  0.
243  2.42  0.  0.  0.
244  2.43  0.  0.  0.
245  2.44  0.  0.  0.
246  2.45  0.  0.  0.
247  2.46  0.  0.  0.
248  2.47  0.  0.  0.
249  2.48  0.  0.  0.
250  2.49  0.  0.  0.
251  2.50  0.  0.  0.
252  2.51  0.  0.  0.
253  2.52  0.  0.  0.
254  2.53  0.  0.  0.
255  2.54  0.  0.  0.
256  2.55  0.  0.  0.
257  2.56  0.  0.  0.
258  2.57  0.  0.  0.
259  2.58  0.  0.  0.
260  2.59  0.  0.  0.
261  2.60  0.  0.  0.
262  2.61  0.  0.  0.
263  2.62  0.  0.  0.
264  2.63  0.  0.  0.
265  2.64  0.  0.  0.
266  2.65  0.  0.  0.
267  2.66  0.  0.  0.
268  2.67  0.  0.  0.
269  2.68  0.  0.  0.
270  2.69  0.  0.  0.
271  2.70  0.  0.  0.
272  2.71  0.  0.  0.
273  2.72  0.  0.  0.
274  2.73  0.  0.  0.
275  2.74  0.  0.  0.
276  2.75  0.  0.  0.
277  2.76  0.  0.  0.
278  2.77  0.  0.  0.
279  2.78  0.  0.  0.
280  2.79  0.  0.  0.
281  2.80  0.  0.  0.
282  2.81  0.  0.  0.
283  2.82  0.  0.  0.
284  2.83  0.  0.  0.
285  2.84  0.  0.  0.
286  2.85  0.  0.  0.
287  2.86  0.  0.  0.
288  2.87  0.  0.  0.
289  2.88  0.  0.  0.
290  2.89  0.  0.  0.
291  2.90  0.  0.  0.
292  2.91  0.  0.  0.
293  2.92  0.  0.  0.
294  2.93  0.  0.  0.
295  2.94  0.  0.  0.
296  2.95  0.  0.  0.
297  2.96  0.  0.  0.
298  2.97  0.  0.  0.
299  2.98  0.  0.  0.
300  2.99  0.  0.  0.
301  3.00  0.  0.  0.
302  3.01  0.  0.  0.
303  3.02  0.  0.  0.
304  3.03  0.  0.  0.
305  3.04  0.  0.  0.
306  3.05  0.  0.  0.
307  3.06  0.  0.  0.
308  3.07  0.  0.  0.
309  3.08  0.  0.  0.
310  3.09  0.  0.  0.
311  3.10  0.  0.  0.
312  3.11  0.  0.  0.
313  3.12  0.  0.  0.
314  3.13  0.  0.  0.
315  3.14  0.  0.  0.
316  3.15  0.  0.  0.
317  3.16  0.  0.  0.
318  3.17  0.  0.  0.
319  3.18  0.  0.  0.
320  3.19  0.  0.  0.
321  3.20  0.  0.  0.
322  3.21  0.  0.  0.
323  3.22  0.  0.  0.
324  3.23  0.  0.  0.
325  3.24  0.  0.  0.
326  3.25  0.  0.  0.
327  3.26  0.  0.  0.
328  3.27  0.  0.  0.
329  3.28  0.  0.  0.
330  3.29  0.  0.  0.
331  3.30  0.  0.  0.
332  3.31  0.  0.  0.
333  3.32  0.  0.  0.
334  3.33  0.  0.  0.
335  3.34  0.  0.  0.
336  3.35  0.  0.  0.
337  3.36  0.  0.  0.
338  3.37  0.  0.  0.
339  3.38  0.  0.  0.
340  3.39  0.  0.  0.
341  3.40  0.  0.  0.
342  3.41  0.  0.  0.
343  3.42  0.  0.  0.
344  3.43  0.  0.  0.
345  3.44  0.  0.  0.
346  3.45  0.  0.  0.
347  3.46  0.  0.  0.
348  3.47  0.  0.  0.
349  3.48  0.  0.  0.
350  3.49  0.  0.  0.
351  3.50  0.  0.  0.
352  3.51  0.  0.  0.
353  3.52  0.  0.  0.
354  3.53  0.  0.  0.
355  3.54  0.  0.  0.
356  3.55  0.  0.  0.
357  3.56  0.  0.  0.
358  3.57  0.  0.  0.
359  3.58  0.  0.  0.
360  3.59  0.  0.  0.
361  3.60  0.  0.  0.
362  3.61  0.  0.  0.
363  3.62  0.  0.  0.
364  3.63  0.  0.  0.
365  3.64  0.  0.  0.
366  3.65  0.  0.  0.
367  3.66  0.  0.  0.
368  3.67  0.  0.  0.
369  3.68  0.  0.  0.
370  3.69  0.  0.  0.
371  3.70  0.  0.  0.
372  3.71  0.  0.  0.
373  3.72  0.  0.  0.
374  3.73  0.  0.  0.
375  3.74  0.  0.  0.
376  3.75  0.  0.  0.
377  3.76  0.  0.  0.
378  3.77  0.  0.  0.
379  3.78  0.  0.  0.
380  3.79  0.  0.  0.
381  3.80  0.  0.  0.
382  3.81  0.  0.  0.
383  3.82  0.  0.  0.
384  3.83  0.  0.  0.
385  3.84  0.  0.  0.
386  3.85  0.  0.  0.
387  3.86  0.  0.  0.
388  3.87  0.  0.  0.
389  3.88  0.  0.  0.
390  3.89  0.  0.  0.
391  3.90  0.  0.  0.
392  3.91  0.  0.  0.
393  3.92  0.  0.  0.
394  3.93  0.  0.  0.
395  3.94  0.  0.  0.
396  3.95  0.  0.  0.
397  3.96  0.  0.  0.
398  3.97  0.  0.  0.
399  3.98  0.  0.  0.
400  3.99  0.  0.  0.
401  4.00  0.  0.  0.
402  4.01  0.  0.  0.
403  4.02  0.  0.  0.
404  4.03  0.  0.  0.
405  4.04  0.  0.  0.
406  4.05  0.  0.  0.
407  4.06  0.  0.  0.
408  4.07  0.  0.  0.
409  4.08  0.  0.  0.
410  4.09  0.  0.  0.
411  4.10  0.  0.  0.
412  4.11  0.  0.  0.
413  4.12  0.  0.  0.
414  4.13  0.  0.  0.
415  4.14  0.  0.  0.
416  4.15  0.  0.  0.
417  4.16  0.  0.  0.
418  4.17  0.  0.  0.
419  4.18  0.  0.  0.
420  4.19  0.  0.  0.
421  4.20  0.  0.  0.
422  4.21  0.  0.  0.
423  4.22  0.  0.  0.
424  4.23  0.  0.  0.
425  4.24  0.  0.  0.
426  4.25  0.  0.  0.
427  4.26  0.  0.  0.
428  4.27  0.  0.  0.
429  4.28  0.  0.  0.
430  4.29  0.  0.  0.
431  4.30  0.  0.  0.
432  4.31  0.  0.  0.
433  4.32  0.  0.  0.
434  4.33  0.  0.  0.
435  4.34  0.  0.  0.
436  4.35  0.  0.  0.
437  4.36  0.  0.  0.
438  4.37  0.  0.  0.
439  4.38  0.  0.  0.
440  4.39  0.  0.  0.
441  4.40  0.  0.  0.
442  4.41  0.  0.  0.
443  4.42  0.  0.  0.
444  4.43  0.  0.  0.
445  4.44  0.  0.  0.
446  4.45  0.  0.  0.
447  4.46  0.  0.  0.
448  4.47  0.  0.  0.
449  4.48  0.  0.  0.
450  4.49  0.  0.  0.
451  4.50  0.  0.  0.
452  4.51  0.  0.  0.
453  4.52  0.  0.  0.
454  4.53  0.  0.  0.
455  4.54  0.  0.  0.
456  4.55  0.  0.  0.
457  4.56  0.  0.  0.
458  4.57  0.  0.  0.
459  4.58  0.  0.  0.
460  4.59  0.  0.  0.
461  4.60  0.  0.  0.
462  4.61  0.  0.  0.
463  4.62  0.  0.  0.
464  4.63  0.  0.  0.
465  4.64  0.  0.  0.
466  4.65  0.  0.  0.
467  4.66  0.  0.  0.
468  4.67  0.  0.  0.
469  4.68  0.  0.  0.
470  4.69  0.  0.  0.
471  4.70  0.  0.  0.
472  4.71  0.  0.  0.
473  4.72  0.  0.  0.
474  4.73  0.  0.  0.
475  4.74  0.  0.  0.
476  4.75  0.  0.  0.
477  4.76  0.  0.  0.
478  4.77  0.  0.  0.
479  4.78  0.  0.  0.
480  4.79  0.  0.  0.
481  4.80  0.  0.  0.
482  4.81  0.  0.  0.
483  4.82  0.  0.  0.
484  4.83  0.  0.  0.
485  4.84  0.  0.  0.
486  4.85  0.  0.  0.
487  4.86  0.  0.  0.
488  4.87  0.  0.  0.
489  4.88  0.  0.  0.
490  4.89  0.  0.  0.
491  4.90  0.  0.  0.
492  4.91  0.  0.  0.
493  4.92  0.  0.  0.
494  4.93  0.  0.  0.
495  4.94  0.  0.  0.
496  4.95  0.  0.  0.
497  4.96  0.  0.  0.
498  4.97  0.  0.  0.
499  4.98  0.  0.  0.
500  4.99  0.  0.  0.
501  5.00  0.  0.  0.
502  5.01  0.  0.  0.
503  5.02  0.  0.  0.
504  5.03  0.  0.  0.
505  5.04  0.  0.  0.
506  5.05  0.  0.  0.
507  5.06  0.  0.  0.
508  5.07  0.  0.  0.
509  5.08  0.  0.  0.
510  5.09  0.  0.  0.
511  5.10  0.  0.  0.
512  5.11  0.  0.  0.
513  5.12  0.  0.  0.
514  5.13  0.  0.  0.
515  5.14  0.  0.  0.
516  5.15  0.  0.  0.
517  5.16  0.  0.  0.
518  5.17  0.  0.  0.
519  5.18  0.  0.  0.
520  5.19  0.  0.  0.
521  5.20  0.  0.  0.
522  5.21  0.  0.  0.
523  5.22  0.  0.  0.
524  5.23  0.  0.  0.
525  5.24  0.  0.  0.
526  5.25  0.  0.  0.
527  5.26  0.  0.  0.
528  5.27  0.  0.  0.
529  5.28  0.  0.  0.
530  5.29  0.  0.  0.
531  5.30  0.  0.  0.
532  5.31  0.  0.  0.
533  5.32  0.  0.  0.
534  5.33  0.  0.  0.
535  5.34  0.  0.  0.
536  5.35  0.  0.  0.
537  5.36  0.  0.  0.
538  5.37  0.  0.  0.
539  5.38  0.  0.  0.
540  5.39  0.  0.  0.
541  5.40  0.  0.  0.
542  5.41  0.  0.  0.
543  5.42  0.  0.  0.
544  5.43  0.  0.  0.
545  5.44  0.  0.  0.
546  5.45  0.  0.  0.
547  5.46  0.  0.  0.
548  5.47  0.  0.  0.
549  5.48  0.  0.  0.
550  5.49  0.  0.  0.
551  5.50  0.  0.  0.
552  5.51  0.  0.  0.
553  5.52  0.  0.  0.
554  5.53  0.  0.  0.
555  5.54  0.  0.  0.
556  5.55  0.  0.  0.
557  5.56  0.  0.  0.
558  5.57  0.  0.  0.
559  5.58  0.  0.  0.
560  5.59  0.  0.  0.
561  5.60  0.  0.  0.
562  5.61  0.  0.  0.
563  5.62  0.  0.  0.
564  5.63  0.  0.  0.
565  5.64  0.  0.  0.
566  5.65  0.  0.  0.
567  5.66  0.  0.  0.
568  5.67  0.  0.  0.
569  5.68  0.  0.  0.
570  5.69  0.  0.  0.
571  5.70  0.  0.  0.
572  5.71  0.  0.  0.
573  5.72  0.  0.  0.
574  5.73  0.  0.  0.
575  5.74  0.  0.  0.
576  5.75  0.  0.  0.
577  5.76  0.  0.  0.
578  5.77  0.  0.  0.
579  5.78  0.  0.  0.
580  5.79  0.  0.  0.
581  5.80  0.  0.  0.
582  5.81  0.  0.  0.
583  5.82  0.  0.  0.
584  5.83  0.  0.  0.
585  5.84  0.  0.  0.
586  5.85  0.  0.  0.
587  5.86  0.  0.  0.
588  5.87  0.  0.  0.
589  5.88  0.  0.  0.
590  5.89  0.  0.  0.
591  5.90  0.  0.  0.
592  5.91  0.  0.  0.
593  5.92  0.  0.  0.
594  5.93  0.  0.  0.
595  5.94  0.  0.  0.
596  5.95  0.  0.  0.
597  5.96  0.  0.  0.
598  5.97  0.  0.  0.
599  5.98  0.  0.  0.
600  5.99  0.  0.  0.
1                        -4.8473988533321E+00  3.1081234805332E+00
1  0.0000000000000E+00  5.9938681795657E-09  1.1390468179773E-08
2  1.0000000000000E-02  2.3653595923618E-03 -3.5640439899523E-03
3  2.0000000000000E-02  9.4434660094160E-03 -1.4227049062578E-02
4  3.0000000000000E-02  2.1180613228823E-02 -3.1901653059013E-02
5  4.0000000000000E-02  3.7487991069985E-02 -5.6442323140390E-02
6  5.0000000000000E-02  5.8242722223957E-02 -8.7645492934384E-02
7  6.0000000000000E-02  8.3289288896799E-02 -1.2524981501570E-01
8  7.0000000000000E-02  1.1244132458522E-01 -1.6893658566614E-01
9  8.0000000000000E-02  1.4548374050958E-01 -2.1833041025020E-01
10  9.0000000000000E-02  1.8217515094432E-01 -2.7300018555108E-01
11  1.0000000000000E-01  2.2225055722393E-01 -3.3246047958131E-01
12  1.1000000000000E-01  2.6542424665181E-01 -3.9617338941384E-01
13  1.2000000000000E-01  3.1139285996388E-01 -4.6355095334582E-01
14  1.3000000000000E-01  3.5983857943267E-01 -5.3395818525520E-01
15  1.4000000000000E-01  4.1043238914879E-01 -6.0671678656513E-01
16  1.5000000000000E-01  4.6283735946301E-01 -6.8110957518331E-01
17  1.6000000000000E-01  5.1671190896797E-01 -7.5638565167620E-01
18  1.7000000000000E-01  5.7171299967065E-01 -8.3176630144618E-01
19  1.8000000000000E-01  6.2749922406464E-01 -9.0645160858341E-01
20  1.9000000000000E-01  6.8373374654260E-01 -9.7962773321826E-01
21  2.0000000000000E-01  7.4008706587236E-01 -1.0504747805008E+00
22  2.1000000000000E-01  7.9623957016145E-01 -1.1181751666849E+00
23  2.2000000000000E-01  8.5188386071658E-01 -1.1819223670705E+00
24  2.3000000000000E-01  9.0672682633133E-01 -1.2409299125712E+00
25  2.4000000000000E-01  9.6049145467204E-01 -1.2944404871432E+00
26  2.5000000000000E-01  1.0129183724566E+00 -1.3417349678353E+00
27  2.6000000000000E-01  1.0637671109196E+00 -1.3821412432430E+00
28  2.7000000000000E-01  1.1128170975342E+00 -1.4150426449714E+00
29  2.8000000000000E-01  1.1598683790343E+00 -1.4398858304364E+00
30  2.9000000000000E-01  1.2047420843953E+00 -1.4561879639066E+00
31  3.0000000000000E-01  1.2472806395343E+00 -1.4635430558657E+00
32  3.1000000000000E-01  1.2873477480788E+00 -1.4616273381484E+00
33  3.2000000000000E-01  1.3248281546047E+00 -1.4502035733222E+00
34  3.3000000000000E-01  1.3596272082892E+00 -1.4291242207518E+00
35  3.4000000000000E-01  1.3916702459914E+00 -1.3983334079050E+00
36  3.5000000000000E-01  1.4209018143977E+00 -1.3578676828710E+00
37  3.6000000000000E-01  1.4472847511214E+00 -1.3078555518416E+00
38  3.7000000000000E-01  1.4707991445727E+00 -1.2485158325396E+00
39  3.8000000000000E-01  1.4914411920944E+00 -1.1801548803700E+00
40  3.9000000000000E-01  1.5092219753436E+00 -1.1031627675709E+00
41  4.0000000000000E-01  1.5241661712695E+00 -1.0180085161138E+00
42  4.1000000000000E-01  1.5363107163312E+00 -9.2523450190783E-01
43  4.2000000000000E-01  1.5457034408846E+00 -8.2545016050373E-01
44  4.3000000000000E-01  1.5524016899672E+00 -7.1932513264203E-01
45  4.4000000000000E-01  1.5564709460657E+00 -6.0758199146830E-01
46  4.5000000000000E-01  1.5579834688653E+00 -4.9098869205960E-01
47  4.6000000000000E-01  1.5570169664658E+00 -3.7035087824771E-01
48  4.7000000000000E-01  1.5536533120882E+00 -2.4650417193290E-01
49  4.8000000000000E-01  1.5479773198689E+00 -1.2030655665585E-01
50  4.9000000000000E-01  1.5400755929186E+00  7.3690492315792E-03
51  5.0000000000000E-01  1.5300354563595E+00  1.3564195314259E-01
52  5.1000000000000E-01  1.5179439875156E+00  2.6363052604442E-01
53  5.2000000000000E-01  1.5038871547590E+00  3.9045868160694E-01
54  5.3000000000000E-01  1.4879490756674E+00  5.1526198120566E-01
55  5.4000000000000E-01  1.4702114040798E+00  6.3719336841634E-01
56  5.5000000000000E-01  1.4507528543106E+00  7.5542855374784E-01
57  5.6000000000000E-01  1.4296488691662E+00  8.6917108469668E-01
58  5.7000000000000E-01  1.4069714364904E+00  9.7765714713896E-01
59  5.8000000000000E-01  1.3827890567340E+00  1.0801601511094E+00
60  5.9000000000000E-01  1.3571668615162E+00  1.1759951568189E+00
61  6.0000000000000E-01  1.3301668803489E+00  1.2645231951672E+00
62  6.1000000000000E-01  1.3018484496656E+00  1.3451555310364E+00
63  6.2000000000000E-01  1.2722687550999E+00  1.4173579075066E+00
64  6.3000000000000E-01  1.2414834946686E+00  1.4806547952044E+00
65  6.4000000000000E-01  1.2095476472107E+00  1.5346336538235E+00
66  6.5000000000000E-01  1.1765163272229E+00  1.5789491931588E+00
67  6.6000000000000E-01  1.1424457042103E+00  1.6133275995937E+00
68  6.7000000000000E-01  1.1073939619575E+00  1.6375706718104E+00
69  6.8000000000000E-01  1.0714222708163E+00  1.6515597875520E+00
70  6.9000000000000E-01  1.0345957443184E+00  1.6552596025729E+00
71  7.0000000000000E-01  9.9698435024743E-01  1.6487213644932E+00
72  7.1000000000000E-01  9.5866374582696E-01  1.6320857090818E+00
73  7.2000000000000E-01  9.1971600696981E-01  1.6055847954142E+00
74  7.3000000000000E-01  8.8023022263970E-01  1.5695436301298E+00
75  7.4000000000000E-01  8.4030292731638E-01  1.5243804302521E+00
76  7.5000000000000E-01  8.0003834733525E-01  1.4706058791197E+00
77  7.6000000000000E-01  7.5954844045850E-01  1.4088211411196E+00
78  7.7000000000000E-01  7.1895271237083E-01  1.3397145180642E+00
79  7.8000000000000E-01  6.7837779879178E-01  1.2640566529509E+00
80  7.9000000000000E-01  6.3795680744605E-01  1.1826942149762E+00
81  8.0000000000000E-01  5.9782842009271E-01  1.0965420323239E+00
82  8.1000000000000E-01  5.5813576102539E-01  1.0065736754546E+00
83  8.2000000000000E-01  5.1902504473906E-01  9.1381053229843E-01
84  8.3000000000000E-01  4.8064402162554E-01  8.1930945659850E-01
85  8.4000000000000E-01  4.4314024641179E-01  7.2414911032723E-01
86  8.5000000000000E-01  4.0665919939641E-01  6.2941515915371E-01
87  8.6000000000000E-01  3.7134229517929E-01  5.3618451495057E-01
88  8.7000000000000E-01  3.3732481734114E-01  4.4550884990301E-01
89  8.8000000000000E-01  3.0473382025720E-01  3.5839763163243E-01
90  8.9000000000000E-01  2.7368604079362E-01  2.7580094673720E-01
91  9.0000000000000E-01  2.4428586293871E-01  1.9859239035055E-01
92  9.1000000000000E-01  2.1662337740647E-01  1.2755230103394E-01
93  9.2000000000000E-01  1.9077257589742E-01  6.3351613152026E-02
94  9.3000000000000E-01  1.6678971604042E-01  6.5365827234166E-03
95  9.4000000000000E-01  1.4471188813734E-01 -4.2485382183989E-02
96  9.5000000000000E-01  1.2455580880839E-01 -8.3458588573887E-02
97  9.6000000000000E-01  1.0631685964575E-01 -1.1629046569920E-01
98  9.7000000000000E-01  8.9968381222443E-02 -1.4106140149910E-01
99  9.8000000000000E-01  7.5461224504561E-02 -1.5803294888881E-01
100  9.9000000000000E-01  6.2723553082462E-02 -1.6765439767896E-01
101  1.0000000000000E+00  5.1660885047844E-02 -1.7056769887371E-01
102  1.0100000000000E+00  4.2156477905458E-02 -1.6760882013270E-01
103  1.0200000000000E+00  3.4075745044952E-02 -1.5974952810519E-01
104  1.0300000000000E+00  2.7275129490233E-02 -1.4798909596089E-01
105  1.0400000000000E+00  2.1607457032473E-02 -1.3331813984014E-01
106  1.0500000000000E+00  1.6926229361647E-02 -1.1669923846838E-01
107  1.0600000000000E+00  1.3089737976200E-02 -9.9048013710746E-02
108  1.0700000000000E+00  9.9649439093359E-03 -8.1214972795354E-02
109  1.0800000000000E+00  7.4310780404579E-03 -6.3968339807871E-02
110  1.0900000000000E+00  5.3828405218635E-03 -4.7978984554956E-02
111  1.1000000000000E+00  3.7370161053757E-03 -3.3758104180587E-02
112  1.1100000000000E+00  2.4312129507168E-03 -2.1673516689381E-02
113  1.1200000000000E+00  1.4135737915148E-03 -1.2120217602043E-02
114  1.1300000000000E+00  6.6103482641758E-04 -5.3203127182484E-03
115  1.1400000000000E+00  1.7770794172771E-04 -1.3135026131768E-03
116  1.1500000000000E+00  9.9580988891683E-07 -6.5941059937626E-06
117  1.1600000000000E+00  1.2423030109962E-06 -8.4655309578511E-06
118  1.1700000000000E+00 -9.5228015528319E-08  6.7895314485224E-07
119  1.18  0.  0.
120  1.19  0.  0.
121  1.20  0.  0.
122  1.21  0.  0.
123  1.22  0.  0.
124  1.23  0.  0.
125  1.24  0.  0.
126  1.25  0.  0.
127  1.26  0.  0.
128  1.27  0.  0.
129  1.28  0.  0.
130  1.29  0.  0.
131  1.30  0.  0.
132  1.31  0.  0.
133  1.32  0.  0.
134  1.33  0.  0.
135  1.34  0.  0.
136  1.35  0.  0.
137  1.36  0.  0.
138  1.37  0.  0.
139  1.38  0.  0.
140  1.39  0.  0.
141  1.40  0.  0.
142  1.41  0.  0.
143  1.42  0.  0.
144  1.43  0.  0.
145  1.44  0.  0.
146  1.45  0.  0.
147  1.46  0.  0.
148  1.47  0.  0.
149  1.48  0.  0.
150  1.49  0.  0.
151  1.50  0.  0.
152  1.51  0.  0.
153  1.52  0.  0.
154  1.53  0.  0.
155  1.54  0.  0.
156  1.55  0.  0.
157  1.56  0.  0.
158  1.57  0.  0.
159  1.58  0.  0.
160  1.59  0.  0.
161  1.60  0.  0.
162  1.61  0.  0.
163  1.62  0.  0.
164  1.63  0.  0.
165  1.64  0.  0.