Db    ONCVPSP-4.0.1  r_core=   1.10309   1.10309   1.10309   1.20665
105.0000     45.0000      220327    zatom,zion,pspd
8      11   3     4   600     0    pspcod,pspxc,lmax,lloc,mmax,r2well
5.99000000  5.00000000  0.00000000    rchrg fchrg qchrg
3     2     2     2     0    nproj
1     1           extension_switch
0                         1.8872036734604E+01 -5.9014622831461E+00  1.4921912534056E+00
1  0.0000000000000E+00 -3.4137947801938E-08 -2.0394964050929E-09 -1.0537009165201E-07
2  1.0000000000000E-02  1.8370725723794E-01  5.1640849147170E-02  5.8052590419797E-02
3  2.0000000000000E-02  3.6573223840601E-01  1.0322779494661E-01  1.1465435762924E-01
4  3.0000000000000E-02  5.4441363918965E-01  1.5470715521896E-01  1.6838773356616E-01
5  4.0000000000000E-02  7.1813172119458E-01  2.0602567692493E-01  2.1790074355629E-01
6  5.0000000000000E-02  8.8532816010323E-01  2.5713071830317E-01  2.6193753935563E-01
7  6.0000000000000E-02  1.0445247974888E+00  3.0797039363560E-01  2.9936629501683E-01
8  7.0000000000000E-02  1.1943409724390E+00  3.5849367069963E-01  3.2920371577538E-01
9  8.0000000000000E-02  1.3335091432785E+00  4.0865041300614E-01  3.5063551552120E-01
10  9.0000000000000E-02  1.4608885505094E+00  4.5839136132878E-01  3.6303234356919E-01
11  1.0000000000000E-01  1.5754767184530E+00  5.0766805171632E-01  3.6596078230127E-01
12  1.1000000000000E-01  1.6764186436888E+00  5.5643267004606E-01  3.5918918925427E-01
13  1.2000000000000E-01  1.7630135718169E+00  6.0463784611724E-01  3.4268831542780E-01
14  1.3000000000000E-01  1.8347193188414E+00  6.5223639318825E-01  3.1662679085718E-01
15  1.4000000000000E-01  1.8911541480725E+00  6.9918100162068E-01  2.8136172365327E-01
16  1.5000000000000E-01  1.9320962663731E+00  7.4542389780008E-01  2.3742480472530E-01
17  1.6000000000000E-01  1.9574810534002E+00  7.9091648165953E-01  1.8550444253060E-01
18  1.7000000000000E-01  1.9673961828887E+00  8.3560895784935E-01  1.2642456615568E-01
19  1.8000000000000E-01  1.9620748348062E+00  8.7944997680090E-01  6.1120827143423E-02
20  1.9000000000000E-01  1.9418872303669E+00  9.2238630256886E-01 -9.3850022272598E-03
21  2.0000000000000E-01  1.9073307476461E+00  9.6436252436504E-01 -8.4011596166842E-02
22  2.1000000000000E-01  1.8590188933068E+00  1.0053208281029E+00 -1.6164475793828E-01
23  2.2000000000000E-01  1.7976694154356E+00  1.0452008430587E+00 -2.4116338398157E-01
24  2.3000000000000E-01  1.7240918436295E+00  1.0839395769516E+00 -3.2146392008969E-01
25  2.4000000000000E-01  1.6391747354691E+00  1.1214714503933E+00 -4.0148259068884E-01
26  2.5000000000000E-01  1.5438728938306E+00  1.1577284388358E+00 -4.8021477666651E-01
27  2.6000000000000E-01  1.4391947977980E+00  1.1926403269296E+00 -5.5673103212980E-01
28  2.7000000000000E-01  1.3261904621475E+00  1.2261350766994E+00 -6.3018936198812E-01
29  2.8000000000000E-01  1.2059399075765E+00  1.2581393072688E+00 -6.9984352576585E-01
30  2.9000000000000E-01  1.0795423872576E+00  1.2885788801332E+00 -7.6504728358782E-01
31  3.0000000000000E-01  9.4810647626418E-01  1.3173795803254E+00 -8.2525465258328E-01
32  3.1000000000000E-01  8.1274109033100E-01  1.3444678803644E+00 -8.8001639069183E-01
33  3.2000000000000E-01  6.7454746070191E-01  1.3697717707526E+00 -9.2897306477378E-01
34  3.3000000000000E-01  5.3461205385976E-01  1.3932216380977E+00 -9.7184518606204E-01
35  3.4000000000000E-01  3.9400039004706E-01  1.4147511697982E+00 -1.0084210037955E+00
36  3.5000000000000E-01  2.5375168385376E-01  1.4342982627137E+00 -1.0385426334191E+00
37  3.6000000000000E-01  1.1487420480218E-01  1.4518059124354E+00 -1.0620912558249E+00
38  3.7000000000000E-01 -2.1658763369087E-02  1.4672230596935E+00 -1.0789721564026E+00
39  3.8000000000000E-01 -1.5491249852360E-01  1.4805053711355E+00 -1.0891003757725E+00
40  3.9000000000000E-01 -2.8399409026666E-01  1.4916159331565E+00 -1.0923877176166E+00
41  4.0000000000000E-01 -4.0805550185559E-01  1.5005258396390E+00 -1.0887318036314E+00
42  4.1000000000000E-01 -5.2629657254021E-01  1.5072146573065E+00 -1.0780077829977E+00
43  4.2000000000000E-01 -6.3796807360713E-01  1.5116707558276E+00 -1.0600631965342E+00
44  4.3000000000000E-01 -7.4237491009463E-01  1.5138914937302E+00 -1.0347163674480E+00
45  4.4000000000000E-01 -8.3887953381574E-01  1.5138832554651E+00 -1.0017585456690E+00
46  4.5000000000000E-01 -9.2690560307668E-01  1.5116613394666E+00 -9.6095987619526E-01
47  4.6000000000000E-01 -1.0059418915562E+00  1.5072497016430E+00 -9.1207909917895E-01
48  4.7000000000000E-01 -1.0755464145983E+00  1.5006805632331E+00 -8.5487672651955E-01
49  4.8000000000000E-01 -1.1353507071031E+00  1.4919938962324E+00 -7.8913128243463E-01
50  4.9000000000000E-01 -1.1850641547379E+00  1.4812368034801E+00 -7.1465804975436E-01
51  5.0000000000000E-01 -1.2244782507612E+00  1.4684628138431E+00 -6.3132963510420E-01
52  5.1000000000000E-01 -1.2534706256845E+00  1.4537311156352E+00 -5.3909755982041E-01
53  5.2000000000000E-01 -1.2720086774960E+00  1.4371057533367E+00 -4.3801400380049E-01
54  5.3000000000000E-01 -1.2801526172482E+00  1.4186548137641E+00 -3.2825278011476E-01
55  5.4000000000000E-01 -1.2780577392524E+00  1.3984496280183E+00 -2.1012860167955E-01
56  5.5000000000000E-01 -1.2659757274618E+00  1.3765640147876E+00 -8.4113719111181E-02
57  5.6000000000000E-01 -1.2442548200965E+00  1.3530735889100E+00  4.9148938659336E-02
58  5.7000000000000E-01 -1.2133386731190E+00  1.3280551565402E+00  1.8883690324007E-01
59  5.8000000000000E-01 -1.1737637894304E+00  1.3015862148987E+00  3.3394424955314E-01
60  5.9000000000000E-01 -1.1261554139685E+00  1.2737445705051E+00  4.8328314093369E-01
61  6.0000000000000E-01 -1.0712218342882E+00  1.2446080851403E+00  6.3549118504418E-01
62  6.1000000000000E-01 -1.0097470704816E+00  1.2142545537131E+00  7.8904476069471E-01
63  6.2000000000000E-01 -9.4258198601644E-01  1.1827617128818E+00  9.4227827494334E-01
64  6.3000000000000E-01 -8.7063390062659E-01  1.1502073739070E+00  1.0934091035954E+00
65  6.4000000000000E-01 -7.9485483604319E-01  1.1166696679783E+00  1.2405677635937E+00
66  6.5000000000000E-01 -7.1622857332158E-01  1.0822273873579E+00  1.3818326700675E+00
67  6.6000000000000E-01 -6.3575674500550E-01  1.0469604013209E+00  1.5152686511775E+00
68  6.7000000000000E-01 -5.5444422465690E-01  1.0109501222107E+00  1.6389682371213E+00
69  6.8000000000000E-01 -4.7328410878658E-01  9.7427999413757E-01  1.7510946119070E+00
70  6.9000000000000E-01 -3.9324261056057E-01  9.3703597504200E-01  1.8499250230077E+00
71  7.0000000000000E-01 -3.1524419970774E-01  8.9930698214039E-01  1.9338933889444E+00
72  7.1000000000000E-01 -2.4015732799680E-01  8.6118527120295E-01  2.0016308310601E+00
73  7.2000000000000E-01 -1.6878107401859E-01  8.2276672171852E-01  2.0520028846901E+00
74  7.3000000000000E-01 -1.0183302471708E-01  7.8415100273916E-01  2.0841422164761E+00
75  7.4000000000000E-01 -3.9938684466034E-02  7.4544159800104E-01  2.0974757870461E+00
76  7.5000000000000E-01  1.6377333802604E-02  7.0674567367012E-01  2.0917455484027E+00
77  7.6000000000000E-01  6.6698125752277E-02  6.6817377760357E-01  2.0670219483663E+00
78  7.7000000000000E-01  1.1071916335353E-01  6.2983936515621E-01  2.0237097241632E+00
79  7.8000000000000E-01  1.4825071269779E-01  5.9185815306845E-01  1.9625456963560E+00
80  7.9000000000000E-01  1.7921796202511E-01  5.5434730959870E-01  1.8845885144772E+00
81  8.0000000000000E-01  2.0365888171921E-01  5.1742449554084E-01  1.7912005479272E+00
82  8.1000000000000E-01  2.2171989839774E-01  4.8120677682448E-01  1.6840223505404E+00
83  8.2000000000000E-01  2.3364952196075E-01  4.4580943476221E-01  1.5649403452789E+00
84  8.3000000000000E-01  2.3979011523807E-01  4.1134470442758E-01  1.4360485676551E+00
85  8.4000000000000E-01  2.4056803852967E-01  3.7792047488976E-01  1.2996054642681E+00
86  8.5000000000000E-01  2.3648243392575E-01  3.4563898689680E-01  1.1579868588163E+00
87  8.6000000000000E-01  2.2809293520752E-01  3.1459556393532E-01  1.0136362660033E+00
88  8.7000000000000E-01  2.1600659713395E-01  2.8487741129550E-01  8.6901374936657E-01
89  8.8000000000000E-01  2.0086433223388E-01  2.5656251478854E-01  7.2654447954390E-01
90  8.9000000000000E-01  1.8332712355627E-01  2.2971866611364E-01  5.8856805414564E-01
91  9.0000000000000E-01  1.6406224841525E-01  2.0440263562700E-01  4.5728949060854E-01
92  9.1000000000000E-01  1.4372970176099E-01  1.8065950556713E-01  3.3473260265362E-01
93  9.2000000000000E-01  1.2296894967846E-01  1.5852216783464E-01  2.2269622475012E-01
94  9.3000000000000E-01  1.0238607543691E-01  1.3801098046665E-01  1.2271346477324E-01
95  9.4000000000000E-01  8.2541304633297E-02  1.1913356628177E-01  3.6013851769284E-02
96  9.5000000000000E-01  6.3936814871211E-02  1.0188472614345E-01 -3.6512085998107E-02
97  9.6000000000000E-01  4.7004651874174E-02  8.6246428258120E-02 -9.4346616428748E-02
98  9.7000000000000E-01  3.2094490931496E-02  7.2187824267549E-02 -1.3737811004829E-01
99  9.8000000000000E-01  1.9460903183478E-02  5.9665232993095E-02 -1.6593531190260E-01
100  9.9000000000000E-01  9.2497129812864E-03  4.8622023860930E-02 -1.8082432321842E-01
101  1.0000000000000E+00  1.4830080851117E-03  3.8988328149491E-02 -1.8337007260508E-01
102  1.0100000000000E+00 -3.9564894657030E-03  3.0680607523395E-02 -1.7545777962229E-01
103  1.0200000000000E+00 -7.3061662271610E-03  2.3604345870266E-02 -1.5938597403679E-01
104  1.0300000000000E+00 -8.8651890597993E-03  1.7660874880338E-02 -1.3753222193735E-01
105  1.0400000000000E+00 -8.9719609560042E-03  1.2751412065854E-02 -1.1223499572300E-01
106  1.0500000000000E+00 -7.9935819691352E-03  8.7790329571148E-03 -8.5738971673419E-02
107  1.0600000000000E+00 -6.3457040278588E-03  5.6332598129821E-03 -6.0239014285472E-02
108  1.0700000000000E+00 -4.3814961223049E-03  3.2387114189484E-03 -3.7531038059899E-02
109  1.0800000000000E+00 -2.4423780769814E-03  1.5394448121546E-03 -1.9140277351781E-02
110  1.0900000000000E+00 -8.8249378815158E-04  4.8377345054874E-04 -6.3911224023038E-03
111  1.1000000000000E+00 -6.6318707270720E-05  3.2037660902156E-05 -4.4609041286353E-04
112  1.1100000000000E+00 -6.7384049850715E-07  3.2242737039593E-07 -4.5190405362686E-06
113  1.1200000000000E+00  6.1631093807817E-07 -3.0995350583520E-07  4.2506848231158E-06
114  1.13  0.  0.  0.
115  1.14  0.  0.  0.
116  1.15  0.  0.  0.
117  1.16  0.  0.  0.
118  1.17  0.  0.  0.
119  1.18  0.  0.  0.
120  1.19  0.  0.  0.
121  1.20  0.  0.  0.
122  1.21  0.  0.  0.
123  1.22  0.  0.  0.
124  1.23  0.  0.  0.
125  1.24  0.  0.  0.
126  1.25  0.  0.  0.
127  1.26  0.  0.  0.
128  1.27  0.  0.  0.
129  1.28  0.  0.  0.
130  1.29  0.  0.  0.
131  1.30  0.  0.  0.
132  1.31  0.  0.  0.
133  1.32  0.  0.  0.
134  1.33  0.  0.  0.
135  1.34  0.  0.  0.
136  1.35  0.  0.  0.
137  1.36  0.  0.  0.
138  1.37  0.  0.  0.
139  1.38  0.  0.  0.
140  1.39  0.  0.  0.
141  1.40  0.  0.  0.
142  1.41  0.  0.  0.
143  1.42  0.  0.  0.
144  1.43  0.  0.  0.
145  1.44  0.  0.  0.
146  1.45  0.  0.  0.
147  1.46  0.  0.  0.
148  1.47  0.  0.  0.
149  1.48  0.  0.  0.
150  1.49  0.  0.  0.
151  1.50  0.  0.  0.
152  1.51  0.  0.  0.
153  1.52  0.  0.  0.
154  1.53  0.  0.  0.
155  1.54  0.  0.  0.
156  1.55  0.  0.  0.
157  1.56  0.  0.  0.
158  1.57  0.  0.  0.
159  1.58  0.  0.  0.
160  1.59  0.  0.  0.
161  1.60  0.  0.  0.
162  1.61  0.  0.  0.
163  1.62  0.  0.  0.
164  1.63  0.  0.  0.
165  1.64  0.  0.  0.
166  1.65  0.  0.  0.
167  1.66  0.  0.  0.
168  1.67  0.  0.  0.
169  1.68  0.  0.  0.
170  1.69  0.  0.  0.
171  1.70  0.  0.  0.
172  1.71  0.  0.  0.
173  1.72  0.  0.  0.
174  1.73  0.  0.  0.
175  1.74  0.  0.  0.
176  1.75  0.  0.  0.
177  1.76  0.  0.  0.
178  1.77  0.  0.  0.
179  1.78  0.  0.  0.
180  1.79  0.  0.  0.
181  1.80  0.  0.  0.
182  1.81  0.  0.  0.
183  1.82  0.  0.  0.
184  1.83  0.  0.  0.
185  1.84  0.  0.  0.
186  1.85  0.  0.  0.
187  1.86  0.  0.  0.
188  1.87  0.  0.  0.
189  1.88  0.  0.  0.
190  1.89  0.  0.  0.
191  1.90  0.  0.  0.
192  1.91  0.  0.  0.
193  1.92  0.  0.  0.
194  1.93  0.  0.  0.
195  1.94  0.  0.  0.
196  1.95  0.  0.  0.
197  1.96  0.  0.  0.
198  1.97  0.  0.  0.
199  1.98  0.  0.  0.
200  1.99  0.  0.  0.
201  2.00  0.  0.  0.
202  2.01  0.  0.  0.
203  2.02  0.  0.  0.
204  2.03  0.  0.  0.
205  2.04  0.  0.  0.
206  2.05  0.  0.  0.
207  2.06  0.  0.  0.
208  2.07  0.  0.  0.
209  2.08  0.  0.  0.
210  2.09  0.  0.  0.
211  2.10  0.  0.  0.
212  2.11  0.  0.  0.
213  2.12  0.  0.  0.
214  2.13  0.  0.  0.
215  2.14  0.  0.  0.
216  2.15  0.  0.  0.
217  2.16  0.  0.  0.
218  2.17  0.  0.  0.
219  2.18  0.  0.  0.
220  2.19  0.  0.  0.
221  2.20  0.  0.  0.
222  2.21  0.  0.  0.
223  2.22  0.  0.  0.
224  2.23  0.  0.  0.
225  2.24  0.  0.  0.
226  2.25  0.  0.  0.
227  2.26  0.  0.  0.
228  2.27  0.  0.  0.
229  2.28  0.  0.  0.
230  2.29  0.  0.  0.
231  2.30  0.  0.  0.
232  2.31  0.  0.  0.
233  2.32  0.  0.  0.
234  2.33  0.  0.  0.
235  2.34  0.  0.  0.
236  2.35  0.  0.  0.
237  2.36  0.  0.  0.
238  2.37  0.  0.  0.
239  2.38  0.  0.  0.
240  2.39  0.  0.  0.
241  2.40  0.  0.  0.
242  2.41  0.  0.  0.
243  2.42  0.  0.  0.
244  2.43  0.  0.  0.
245  2.44  0.  0.  0.
246  2.45  0.  0.  0.
247  2.46  0.  0.  0.
248  2.47  0.  0.  0.
249  2.48  0.  0.  0.
250  2.49  0.  0.  0.
251  2.50  0.  0.  0.
252  2.51  0.  0.  0.
253  2.52  0.  0.  0.
254  2.53  0.  0.  0.
255  2.54  0.  0.  0.
256  2.55  0.  0.  0.
257  2.56  0.  0.  0.
258  2.57  0.  0.  0.
259  2.58  0.  0.  0.
260  2.59  0.  0.  0.
261  2.60  0.  0.  0.
262  2.61  0.  0.  0.
263  2.62  0.  0.  0.
264  2.63  0.  0.  0.
265  2.64  0.  0.  0.
266  2.65  0.  0.  0.
267  2.66  0.  0.  0.
268  2.67  0.  0.  0.
269  2.68  0.  0.  0.
270  2.69  0.  0.  0.
271  2.70  0.  0.  0.
272  2.71  0.  0.  0.
273  2.72  0.  0.  0.
274  2.73  0.  0.  0.
275  2.74  0.  0.  0.
276  2.75  0.  0.  0.
277  2.76  0.  0.  0.
278  2.77  0.  0.  0.
279  2.78  0.  0.  0.
280  2.79  0.  0.  0.
281  2.80  0.  0.  0.
282  2.81  0.  0.  0.
283  2.82  0.  0.  0.
284  2.83  0.  0.  0.
285  2.84  0.  0.  0.
286  2.85  0.  0.  0.
287  2.86  0.  0.  0.
288  2.87  0.  0.  0.
289  2.88  0.  0.  0.
290  2.89  0.  0.  0.
291  2.90  0.  0.  0.
292  2.91  0.  0.  0.
293  2.92  0.  0.  0.
294  2.93  0.  0.  0.
295  2.94  0.  0.  0.
296  2.95  0.  0.  0.
297  2.96  0.  0.  0.
298  2.97  0.  0.  0.
299  2.98  0.  0.  0.
300  2.99  0.  0.  0.
301  3.00  0.  0.  0.
302  3.01  0.  0.  0.
303  3.02  0.  0.  0.
304  3.03  0.  0.  0.
305  3.04  0.  0.  0.
306  3.05  0.  0.  0.
307  3.06  0.  0.  0.
308  3.07  0.  0.  0.
309  3.08  0.  0.  0.
310  3.09  0.  0.  0.
311  3.10  0.  0.  0.
312  3.11  0.  0.  0.
313  3.12  0.  0.  0.
314  3.13  0.  0.  0.
315  3.14  0.  0.  0.
316  3.15  0.  0.  0.
317  3.16  0.  0.  0.
318  3.17  0.  0.  0.
319  3.18  0.  0.  0.
320  3.19  0.  0.  0.
321  3.20  0.  0.  0.
322  3.21  0.  0.  0.
323  3.22  0.  0.  0.
324  3.23  0.  0.  0.
325  3.24  0.  0.  0.
326  3.25  0.  0.  0.
327  3.26  0.  0.  0.
328  3.27  0.  0.  0.
329  3.28  0.  0.  0.
330  3.29  0.  0.  0.
331  3.30  0.  0.  0.
332  3.31  0.  0.  0.
333  3.32  0.  0.  0.
334  3.33  0.  0.  0.
335  3.34  0.  0.  0.
336  3.35  0.  0.  0.
337  3.36  0.  0.  0.
338  3.37  0.  0.  0.
339  3.38  0.  0.  0.
340  3.39  0.  0.  0.
341  3.40  0.  0.  0.
342  3.41  0.  0.  0.
343  3.42  0.  0.  0.
344  3.43  0.  0.  0.
345  3.44  0.  0.  0.
346  3.45  0.  0.  0.
347  3.46  0.  0.  0.
348  3.47  0.  0.  0.
349  3.48  0.  0.  0.
350  3.49  0.  0.  0.
351  3.50  0.  0.  0.
352  3.51  0.  0.  0.
353  3.52  0.  0.  0.
354  3.53  0.  0.  0.
355  3.54  0.  0.  0.
356  3.55  0.  0.  0.
357  3.56  0.  0.  0.
358  3.57  0.  0.  0.
359  3.58  0.  0.  0.
360  3.59  0.  0.  0.
361  3.60  0.  0.  0.
362  3.61  0.  0.  0.
363  3.62  0.  0.  0.
364  3.63  0.  0.  0.
365  3.64  0.  0.  0.
366  3.65  0.  0.  0.
367  3.66  0.  0.  0.
368  3.67  0.  0.  0.
369  3.68  0.  0.  0.
370  3.69  0.  0.  0.
371  3.70  0.  0.  0.
372  3.71  0.  0.  0.
373  3.72  0.  0.  0.
374  3.73  0.  0.  0.
375  3.74  0.  0.  0.
376  3.75  0.  0.  0.
377  3.76  0.  0.  0.
378  3.77  0.  0.  0.
379  3.78  0.  0.  0.
380  3.79  0.  0.  0.
381  3.80  0.  0.  0.
382  3.81  0.  0.  0.
383  3.82  0.  0.  0.
384  3.83  0.  0.  0.
385  3.84  0.  0.  0.
386  3.85  0.  0.  0.
387  3.86  0.  0.  0.
388  3.87  0.  0.  0.
389  3.88  0.  0.  0.
390  3.89  0.  0.  0.
391  3.90  0.  0.  0.
392  3.91  0.  0.  0.
393  3.92  0.  0.  0.
394  3.93  0.  0.  0.
395  3.94  0.  0.  0.
396  3.95  0.  0.  0.
397  3.96  0.  0.  0.
398  3.97  0.  0.  0.
399  3.98  0.  0.  0.
400  3.99  0.  0.  0.
401  4.00  0.  0.  0.
402  4.01  0.  0.  0.
403  4.02  0.  0.  0.
404  4.03  0.  0.  0.
405  4.04  0.  0.  0.
406  4.05  0.  0.  0.
407  4.06  0.  0.  0.
408  4.07  0.  0.  0.
409  4.08  0.  0.  0.
410  4.09  0.  0.  0.
411  4.10  0.  0.  0.
412  4.11  0.  0.  0.
413  4.12  0.  0.  0.
414  4.13  0.  0.  0.
415  4.14  0.  0.  0.
416  4.15  0.  0.  0.
417  4.16  0.  0.  0.
418  4.17  0.  0.  0.
419  4.18  0.  0.  0.
420  4.19  0.  0.  0.
421  4.20  0.  0.  0.
422  4.21  0.  0.  0.
423  4.22  0.  0.  0.
424  4.23  0.  0.  0.
425  4.24  0.  0.  0.
426  4.25  0.  0.  0.
427  4.26  0.  0.  0.
428  4.27  0.  0.  0.
429  4.28  0.  0.  0.
430  4.29  0.  0.  0.
431  4.30  0.  0.  0.
432  4.31  0.  0.  0.
433  4.32  0.  0.  0.
434  4.33  0.  0.  0.
435  4.34  0.  0.  0.
436  4.35  0.  0.  0.
437  4.36  0.  0.  0.
438  4.37  0.  0.  0.
439  4.38  0.  0.  0.
440  4.39  0.  0.  0.
441  4.40  0.  0.  0.
442  4.41  0.  0.  0.
443  4.42  0.  0.  0.
444  4.43  0.  0.  0.
445  4.44  0.  0.  0.
446  4.45  0.  0.  0.
447  4.46  0.  0.  0.
448  4.47  0.  0.  0.
449  4.48  0.  0.  0.
450  4.49  0.  0.  0.
451  4.50  0.  0.  0.
452  4.51  0.  0.  0.
453  4.52  0.  0.  0.
454  4.53  0.  0.  0.
455  4.54  0.  0.  0.
456  4.55  0.  0.  0.
457  4.56  0.  0.  0.
458  4.57  0.  0.  0.
459  4.58  0.  0.  0.
460  4.59  0.  0.  0.
461  4.60  0.  0.  0.
462  4.61  0.  0.  0.
463  4.62  0.  0.  0.
464  4.63  0.  0.  0.
465  4.64  0.  0.  0.
466  4.65  0.  0.  0.
467  4.66  0.  0.  0.
468  4.67  0.  0.  0.
469  4.68  0.  0.  0.
470  4.69  0.  0.  0.
471  4.70  0.  0.  0.
472  4.71  0.  0.  0.
473  4.72  0.  0.  0.
474  4.73  0.  0.  0.
475  4.74  0.  0.  0.
476  4.75  0.  0.  0.
477  4.76  0.  0.  0.
478  4.77  0.  0.  0.
479  4.78  0.  0.  0.
480  4.79  0.  0.  0.
481  4.80  0.  0.  0.
482  4.81  0.  0.  0.
483  4.82  0.  0.  0.
484  4.83  0.  0.  0.
485  4.84  0.  0.  0.
486  4.85  0.  0.  0.
487  4.86  0.  0.  0.
488  4.87  0.  0.  0.
489  4.88  0.  0.  0.
490  4.89  0.  0.  0.
491  4.90  0.  0.  0.
492  4.91  0.  0.  0.
493  4.92  0.  0.  0.
494  4.93  0.  0.  0.
495  4.94  0.  0.  0.
496  4.95  0.  0.  0.
497  4.96  0.  0.  0.
498  4.97  0.  0.  0.
499  4.98  0.  0.  0.
500  4.99  0.  0.  0.
501  5.00  0.  0.  0.
502  5.01  0.  0.  0.
503  5.02  0.  0.  0.
504  5.03  0.  0.  0.
505  5.04  0.  0.  0.
506  5.05  0.  0.  0.
507  5.06  0.  0.  0.
508  5.07  0.  0.  0.
509  5.08  0.  0.  0.
510  5.09  0.  0.  0.
511  5.10  0.  0.  0.
512  5.11  0.  0.  0.
513  5.12  0.  0.  0.
514  5.13  0.  0.  0.
515  5.14  0.  0.  0.
516  5.15  0.  0.  0.
517  5.16  0.  0.  0.
518  5.17  0.  0.  0.
519  5.18  0.  0.  0.
520  5.19  0.  0.  0.
521  5.20  0.  0.  0.
522  5.21  0.  0.  0.
523  5.22  0.  0.  0.
524  5.23  0.  0.  0.
525  5.24  0.  0.  0.
526  5.25  0.  0.  0.
527  5.26  0.  0.  0.
528  5.27  0.  0.  0.
529  5.28  0.  0.  0.
530  5.29  0.  0.  0.
531  5.30  0.  0.  0.
532  5.31  0.  0.  0.
533  5.32  0.  0.  0.
534  5.33  0.  0.  0.
535  5.34  0.  0.  0.
536  5.35  0.  0.  0.
537  5.36  0.  0.  0.
538  5.37  0.  0.  0.
539  5.38  0.  0.  0.
540  5.39  0.  0.  0.
541  5.40  0.  0.  0.
542  5.41  0.  0.  0.
543  5.42  0.  0.  0.
544  5.43  0.  0.  0.
545  5.44  0.  0.  0.
546  5.45  0.  0.  0.
547  5.46  0.  0.  0.
548  5.47  0.  0.  0.
549  5.48  0.  0.  0.
550  5.49  0.  0.  0.
551  5.50  0.  0.  0.
552  5.51  0.  0.  0.
553  5.52  0.  0.  0.
554  5.53  0.  0.  0.
555  5.54  0.  0.  0.
556  5.55  0.  0.  0.
557  5.56  0.  0.  0.
558  5.57  0.  0.  0.
559  5.58  0.  0.  0.
560  5.59  0.  0.  0.
561  5.60  0.  0.  0.
562  5.61  0.  0.  0.
563  5.62  0.  0.  0.
564  5.63  0.  0.  0.
565  5.64  0.  0.  0.
566  5.65  0.  0.  0.
567  5.66  0.  0.  0.
568  5.67  0.  0.  0.
569  5.68  0.  0.  0.
570  5.69  0.  0.  0.
571  5.70  0.  0.  0.
572  5.71  0.  0.  0.
573  5.72  0.  0.  0.
574  5.73  0.  0.  0.
575  5.74  0.  0.  0.
576  5.75  0.  0.  0.
577  5.76  0.  0.  0.
578  5.77  0.  0.  0.
579  5.78  0.  0.  0.
580  5.79  0.  0.  0.
581  5.80  0.  0.  0.
582  5.81  0.  0.  0.
583  5.82  0.  0.  0.
584  5.83  0.  0.  0.
585  5.84  0.  0.  0.
586  5.85  0.  0.  0.
587  5.86  0.  0.  0.
588  5.87  0.  0.  0.
589  5.88  0.  0.  0.
590  5.89  0.  0.  0.
591  5.90  0.  0.  0.
592  5.91  0.  0.  0.
593  5.92  0.  0.  0.
594  5.93  0.  0.  0.
595  5.94  0.  0.  0.
596  5.95  0.  0.  0.
597  5.96  0.  0.  0.
598  5.97  0.  0.  0.
599  5.98  0.  0.  0.
600  5.99  0.  0.  0.
1                        -4.7785329645262E+00  3.7201706309463E+00
1  0.0000000000000E+00  6.5284660177856E-09 -2.8903345383746E-08
2  1.0000000000000E-02  2.0561091211752E-03  4.2129951433938E-03
3  2.0000000000000E-02  8.2104413418837E-03  1.6817047545926E-02
4  3.0000000000000E-02  1.8421192276609E-02  3.7707211744782E-02
5  4.0000000000000E-02  3.2619286988672E-02  6.6708114293468E-02
6  5.0000000000000E-02  5.0709263172941E-02  1.0357333860822E-01
7  6.0000000000000E-02  7.2570477408433E-02  1.4798472217198E-01
8  7.0000000000000E-02  9.8058605536385E-02  1.9955171468090E-01
9  8.0000000000000E-02  1.2700740169091E-01  2.5781097462139E-01
10  9.0000000000000E-02  1.5923067519070E-01  3.2222640135605E-01
11  1.0000000000000E-01  1.9452444055789E-01  3.9218980890207E-01
12  1.1000000000000E-01  2.3266919347630E-01  4.6702244551012E-01
13  1.2000000000000E-01  2.7343226458995E-01  5.4597754970839E-01
14  1.3000000000000E-01  3.1657020366729E-01  6.2824410900003E-01
15  1.4000000000000E-01  3.6183114875141E-01  7.1295195273505E-01
16  1.5000000000000E-01  4.0895713836020E-01  7.9917826713879E-01
17  1.6000000000000E-01  4.5768632942133E-01  8.8595556980531E-01
18  1.7000000000000E-01  5.0775508920978E-01  9.7228112524245E-01
19  1.8000000000000E-01  5.5889993585485E-01  1.0571277246259E+00
20  1.9000000000000E-01  6.1085930872658E-01  1.1394556942864E+00
21  2.0000000000000E-01  6.6337515692016E-01  1.2182259411646E+00
22  2.1000000000000E-01  7.1619434084954E-01  1.2924137920169E+00
23  2.2000000000000E-01  7.6906984837178E-01  1.3610233388646E+00
24  2.3000000000000E-01  8.2176183264882E-01  1.4231019680993E+00
25  2.4000000000000E-01  8.7403848390279E-01  1.4777547264951E+00
26  2.5000000000000E-01  9.2567675116870E-01  1.5241581653843E+00
27  2.6000000000000E-01  9.7646293297389E-01  1.5615733052016E+00
28  2.7000000000000E-01  1.0261931575130E+00  1.5893573767447E+00
29  2.8000000000000E-01  1.0746737733271E+00  1.6069740225189E+00
30  2.9000000000000E-01  1.1217216707827E+00  1.6140016806187E+00
31  3.0000000000000E-01  1.1671645528706E+00  1.6101399233965E+00
32  3.1000000000000E-01  1.2108411711560E+00  1.5952135819029E+00
33  3.2000000000000E-01  1.2526015392827E+00  1.5691745525776E+00
34  3.3000000000000E-01  1.2923071324855E+00  1.5321012524690E+00
35  3.4000000000000E-01  1.3298310773256E+00  1.4841957607031E+00
36  3.5000000000000E-01  1.3650583315852E+00  1.4257787542673E+00
37  3.6000000000000E-01  1.3978858501696E+00  1.3572824126986E+00
38  3.7000000000000E-01  1.4282227292182E+00  1.2792415263885E+00
39  3.8000000000000E-01  1.4559903176120E+00  1.1922830945914E+00
40  3.9000000000000E-01  1.4811222828678E+00  1.0971147398469E+00
41  4.0000000000000E-01  1.5035646171705E+00  9.9451229381270E-01
42  4.1000000000000E-01  1.5232755690856E+00  8.8530692435724E-01
43  4.2000000000000E-01  1.5402254873771E+00  7.7037217461821E-01
44  4.3000000000000E-01  1.5543965652899E+00  6.5061127158946E-01
45  4.4000000000000E-01  1.5657824765878E+00  5.2694503522025E-01
46  4.5000000000000E-01  1.5743878984465E+00  4.0030068009853E-01
47  4.6000000000000E-01  1.5802279208065E+00  2.7160175215686E-01
48  4.7000000000000E-01  1.5833273468031E+00  1.4175938453439E-01
49  4.8000000000000E-01  1.5837198941666E+00  1.1664992166106E-02
50  4.9000000000000E-01  1.5814473127580E+00 -1.1781554346863E-01
51  5.0000000000000E-01  1.5765584384276E+00 -2.4584621687836E-01
52  5.1000000000000E-01  1.5691082078676E+00 -3.7162385252579E-01
53  5.2000000000000E-01  1.5591566628380E+00 -4.9437981611113E-01
54  5.3000000000000E-01  1.5467679748487E+00 -6.1338068315854E-01
55  5.4000000000000E-01  1.5320095228839E+00 -7.2792810901704E-01
56  5.5000000000000E-01  1.5149510569184E+00 -8.3735817656922E-01
57  5.6000000000000E-01  1.4956639787098E+00 -9.4104051669205E-01
58  5.7000000000000E-01  1.4742207686134E+00 -1.0383775008804E+00
59  5.8000000000000E-01  1.4506945830031E+00 -1.1288037950623E+00
60  5.9000000000000E-01  1.4251590413703E+00 -1.2117865387483E+00
61  6.0000000000000E-01  1.3976882154866E+00 -1.2868263751216E+00
62  6.1000000000000E-01  1.3683568253501E+00 -1.3534595069265E+00
63  6.2000000000000E-01  1.3372406382778E+00 -1.4112608920374E+00
64  6.3000000000000E-01  1.3044170587403E+00 -1.4598486238230E+00
65  6.4000000000000E-01  1.2699658877263E+00 -1.4988894677072E+00
66  6.5000000000000E-01  1.2339702219090E+00 -1.5281054497535E+00
67  6.6000000000000E-01  1.1965174550414E+00 -1.5472813189328E+00
68  6.7000000000000E-01  1.1577003371839E+00 -1.5562726352633E+00
69  6.8000000000000E-01  1.1176180418969E+00 -1.5550141744003E+00
70  6.9000000000000E-01  1.0763771876975E+00 -1.5435282884757E+00
71  7.0000000000000E-01  1.0340927581405E+00 -1.5219328256032E+00
72  7.1000000000000E-01  9.9088886499501E-01 -1.4904481886068E+00
73  7.2000000000000E-01  9.4689930127448E-01 -1.4494031087294E+00
74  7.3000000000000E-01  9.0226783534331E-01 -1.3992387232263E+00
75  7.4000000000000E-01  8.5714820392499E-01 -1.3405105770328E+00
76  7.5000000000000E-01  8.1170377041009E-01 -1.2738882175647E+00
77  7.6000000000000E-01  7.6610682518827E-01 -1.2001521168736E+00
78  7.7000000000000E-01  7.2053751648940E-01 -1.1201877348583E+00
79  7.8000000000000E-01  6.7518241303681E-01 -1.0349766283719E+00
80  7.9000000000000E-01  6.3023271325057E-01 -9.4558461066641E-01
81  8.0000000000000E-01  5.8588212930917E-01 -8.5314707001309E-01
82  8.1000000000000E-01  5.4232448757277E-01 -7.5885166155333E-01
83  8.2000000000000E-01  4.9975109917463E-01 -6.6391868830100E-01
84  8.3000000000000E-01  4.5834796549027E-01 -5.6957958156462E-01
85  8.4000000000000E-01  4.1829289222383E-01 -4.7705397386173E-01
86  8.5000000000000E-01  3.7975259258206E-01 -3.8752592495195E-01
87  8.6000000000000E-01  3.4287986408474E-01 -3.0211991068745E-01
88  8.7000000000000E-01  3.0781092471708E-01 -2.2187721235797E-01
89  8.8000000000000E-01  2.7466299219580E-01 -1.4773334922416E-01
90  8.9000000000000E-01  2.4353218503672E-01 -8.0497177960895E-02
91  9.0000000000000E-01  2.1449181593630E-01 -2.0832239654725E-02
92  9.1000000000000E-01  1.8759113688700E-01  3.0759131353866E-02
93  9.2000000000000E-01  1.6285458172988E-01  7.3948510364935E-02
94  9.3000000000000E-01  1.4028153591032E-01  1.0859057723073E-01
95  9.4000000000000E-01  1.1984664553671E-01  1.3472860565898E-01
96  9.5000000000000E-01  1.0150065903457E-01  1.5259618252476E-01
97  9.6000000000000E-01  8.5171775375398E-02  1.6261523250299E-01
98  9.7000000000000E-01  7.0767453718941E-02  1.6539056435102E-01
99  9.8000000000000E-01  5.8176621041099E-02  1.6170129214726E-01
100  9.9000000000000E-01  4.7272197554016E-02  1.5248961320504E-01
101  1.0000000000000E+00  3.7913848349309E-02  1.3884747539400E-01
102  1.0100000000000E+00  2.9950955147550E-02  1.2199987198601E-01
103  1.0200000000000E+00  2.3228681871647E-02  1.0323148839815E-01
104  1.0300000000000E+00  1.7597609754720E-02  8.3766532242767E-02
105  1.0400000000000E+00  1.2920505337255E-02  6.4719583061756E-02
106  1.0500000000000E+00  9.0786067547381E-03  4.7057818904199E-02
107  1.0600000000000E+00  5.9880482628739E-03  3.1450083790144E-02
108  1.0700000000000E+00  3.5707210073857E-03  1.8566896915104E-02
109  1.0800000000000E+00  1.7746671725872E-03  8.9323457191229E-03
110  1.0900000000000E+00  5.8718542056274E-04  2.7985091124055E-03
111  1.1000000000000E+00  4.1242300765662E-05  1.8167735757835E-04
112  1.1100000000000E+00  4.1623376491955E-07  1.8338725293466E-06
113  1.1200000000000E+00 -3.9094638943652E-07 -1.7753262759366E-06
114  1.13  0.  0.
115  1.14  0.  0.
116  1.15  0.  0.
117  1.16  0.  0.
118  1.17  0.  0.
119  1.18  0.  0.
120  1.19  0.  0.
121  1.20  0.  0.
122  1.21  0.  0.
123  1.22  0.  0.
124  1.23  0.  0.
125  1.24  0.  0.
126  1.25  0.  0.
127  1.26  0.  0.
128  1.27  0.  0.
129  1.28  0.  0.
130  1.29  0.  0.
131  1.30  0.  0.
132  1.31  0.  0.
133  1.32  0.  0.
134  1.33  0.  0.
135  1.34  0.  0.
136  1.35  0.  0.
137  1.36  0.  0.
138  1.37  0.  0.
139  1.38  0.  0.
140  1.39  0.  0.
141  1.40  0.  0.
142  1.41  0.  0.
143  1.42  0.  0.
144  1.43  0.  0.
145  1.44  0.  0.
146  1.45  0.  0.
147  1.46  0.  0.
148  1.47  0.  0.
149  1.48  0.  0.
150  1.49  0.  0.
151  1.50  0.  0.
152  1.51  0.  0.
153  1.52  0.  0.
154  1.53  0.  0.
155  1.54  0.  0.
156  1.55  0.  0.
157  1.56  0.  0.
158  1.57  0.  0.
159  1.58  0.  0.
160  1.59  0.  0.
161  1.60  0.  0.
162  1.61  0.  0.
163  1.62  0.  0.
164  1.63  0.  0.
165  1.64  0.  0.
166  1.65  0.  0.
167  1.66  0.  0.
168  1.67  0.  0.
169  1.68  0.  0.
170  1.69  0.  0.
171  1.70  0.  0.
172  1.71  0.  0.
173  1.72  0.  0.
174  1.73  0.  0.
175  1.74  0.  0.
176  1.75  0.  0.
177  1.76  0.  0.
178  1.77  0.  0.
179  1.78  0.  0.
180  1.79  0.  0.
181  1.80  0.  0.
182  1.81  0.  0.
183  1.82  0.  0.
184  1.83  0.  0.
185  1.84  0.  0.
186  1.85  0.  0.
187  1.86  0.  0.
188  1.87  0.  0.
189  1.88  0.  0.
190  1.89  0.  0.
191  1.90  0.  0.
192  1.91  0.  0.
193  1.92  0.  0.
194  1.93  0.  0.
195  1.94  0.  0.
196  1.95  0.  0.
197  1.96  0.  0.