Db    ONCVPSP-4.0.1  r_core=   1.10309   1.10309   1.10309   1.20665
105.0000     45.0000      220322    zatom,zion,pspd
8      11   3     4   600     0    pspcod,pspxc,lmax,lloc,mmax,r2well
5.99000000  5.00000000  0.00000000    rchrg fchrg qchrg
3     2     2     2     0    nproj
1     1           extension_switch
0                         1.4390897910094E+01 -9.6415079957378E+00 -1.8301444999957E-01
1  0.0000000000000E+00 -2.7813243930197E-08 -3.8378333844236E-10  5.8179562356653E-07
2  1.0000000000000E-02  1.8560692570576E-01  5.4541174892630E-02 -1.4717927464551E-01
3  2.0000000000000E-02  3.6949371476703E-01  1.0904976229362E-01 -2.9016931066882E-01
4  3.0000000000000E-02  5.4996080582275E-01  1.6349270656372E-01 -4.2491509295342E-01
5  4.0000000000000E-02  7.2534945156612E-01  2.1783601908779E-01 -5.4762548391764E-01
6  5.0000000000000E-02  8.9406129193940E-01  2.7204432019876E-01 -6.5489389762448E-01
7  6.0000000000000E-02  1.0545769473858E+00  3.2608039150621E-01 -7.4380589604615E-01
8  7.0000000000000E-02  1.2054733393372E+00  3.7990474259424E-01 -8.1203006465637E-01
9  8.0000000000000E-02  1.3454394729298E+00  4.3347519643679E-01 -8.5788910631928E-01
10  9.0000000000000E-02  1.4732904502722E+00  4.8674649830859E-01 -8.8040878063173E-01
11  1.0000000000000E-01  1.5879795205469E+00  5.3966995341527E-01 -8.7934308642217E-01
12  1.1000000000000E-01  1.6886080147997E+00  5.9219309889484E-01 -8.5517491110766E-01
13  1.2000000000000E-01  1.7744330573572E+00  6.4425941621807E-01 -8.0909222318151E-01
14  1.3000000000000E-01  1.8448729912615E+00  6.9580809030410E-01 -7.4294073345042E-01
15  1.4000000000000E-01  1.8995105007421E+00  7.4677382183459E-01 -6.5915476702755E-01
16  1.5000000000000E-01  1.9380934583981E+00  7.9708669926519E-01 -5.6066884292863E-01
17  1.6000000000000E-01  1.9605335673244E+00  8.4667213686997E-01 -4.5081312494477E-01
18  1.7000000000000E-01  1.9669029078359E+00  8.9545088479221E-01 -3.3319646284296E-01
19  1.8000000000000E-01  1.9574285338165E+00  9.4333911649974E-01 -2.1158116736038E-01
20  1.9000000000000E-01  1.9324852942275E+00  9.9024859824792E-01 -8.9753940869585E-02
21  2.0000000000000E-01  1.8925870803367E+00  1.0360869441409E+00  2.8602491831312E-02
22  2.1000000000000E-01  1.8383767183038E+00  1.0807579591615E+00  1.4003254592738E-01
23  2.2000000000000E-01  1.7706147396041E+00  1.1241620711326E+00  2.4142142242897E-01
24  2.3000000000000E-01  1.6901672683047E+00  1.1661968510012E+00  3.3009527701809E-01
25  2.4000000000000E-01  1.5979932645344E+00  1.2067576191425E+00  4.0390444110552E-01
26  2.5000000000000E-01  1.4951313578868E+00  1.2457381335963E+00  4.6128683715892E-01
27  2.6000000000000E-01  1.3826864934388E+00  1.2830313543297E+00  5.0130944503173E-01
28  2.7000000000000E-01  1.2618165971514E+00  1.3185302758088E+00  5.2368646737215E-01
29  2.8000000000000E-01  1.1337194474027E+00  1.3521288184173E+00  5.2877368241412E-01
30  2.9000000000000E-01  9.9961991612193E-01  1.3837227676336E+00  5.1753933185636E-01
31  3.0000000000000E-01  8.6075771737799E-01  1.4132107484212E+00  4.9151273966895E-01
32  3.1000000000000E-01  7.1837577428790E-01  1.4404952210467E+00  4.5271266437294E-01
33  3.2000000000000E-01  5.7370928773017E-01  1.4654834835701E+00  4.0355812377821E-01
34  3.3000000000000E-01  4.2797556352265E-01  1.4880886655749E+00  3.4676507084710E-01
35  3.4000000000000E-01  2.8236462935762E-01  1.5082306973676E+00  2.8523281909438E-01
36  3.5000000000000E-01  1.3803064968804E-01  1.5258372388850E+00  2.2192449664671E-01
37  3.6000000000000E-01 -3.9158733688654E-03  1.5408445529248E+00  1.5974603550433E-01
38  3.7000000000000E-01 -1.4241514163531E-01  1.5531983080488E+00  1.0142826772951E-01
39  3.8000000000000E-01 -2.7646438614735E-01  1.5628542976025E+00  4.9416599975842E-02
40  3.9000000000000E-01 -4.0512352570198E-01  1.5697790627125E+00  5.7724745519145E-03
41  4.0000000000000E-01 -5.2752021243978E-01  1.5739504088438E+00 -2.7909592585091E-02
42  4.1000000000000E-01 -6.4285431820436E-01  1.5753578074771E+00 -5.0566164970027E-02
43  4.2000000000000E-01 -7.5040191147895E-01  1.5740026766482E+00 -6.1707678164831E-02
44  4.3000000000000E-01 -8.4951876725916E-01  1.5698985364243E+00 -6.1438098380114E-02
45  4.4000000000000E-01 -9.3964344183449E-01  1.5630710378171E+00 -5.0450523527489E-02
46  4.5000000000000E-01 -1.0202999317966E+00  1.5535578660687E+00 -2.9998693943629E-02
47  4.6000000000000E-01 -1.0910999224306E+00  1.5414085216485E+00 -1.8452806484656E-03
48  4.7000000000000E-01 -1.1517446158048E+00  1.5266839845809E+00  3.1811302985960E-02
49  4.8000000000000E-01 -1.2020261142051E+00  1.5094562698351E+00  6.8428996615772E-02
50  4.9000000000000E-01 -1.2418283209130E+00  1.4898078833823E+00  1.0522978672370E-01
51  5.0000000000000E-01 -1.2711273085147E+00  1.4678311901186E+00  1.3931906321454E-01
52  5.1000000000000E-01 -1.2899910956820E+00  1.4436277061135E+00  1.6781221216083E-01
53  5.2000000000000E-01 -1.2985787673424E+00  1.4173073285473E+00  1.8796368234898E-01
54  5.3000000000000E-01 -1.2971388708479E+00  1.3889875172223E+00  1.9729359693338E-01
55  5.4000000000000E-01 -1.2860070225392E+00  1.3587924416644E+00  1.9370699279581E-01
56  5.5000000000000E-01 -1.2656026651719E+00  1.3268521075755E+00  1.7560096115658E-01
57  5.6000000000000E-01 -1.2364249270487E+00  1.2933014757710E+00  1.4195532931137E-01
58  5.7000000000000E-01 -1.1990475482220E+00  1.2582795857700E+00  9.2403054498810E-02
59  5.8000000000000E-01 -1.1541128574529E+00  1.2219286949322E+00  2.7277180264862E-02
60  5.9000000000000E-01 -1.1023248052233E+00  1.1843934425139E+00 -5.2367988793187E-02
61  6.0000000000000E-01 -1.0444410823278E+00  1.1458200462952E+00 -1.4476293323473E-01
62  6.1000000000000E-01 -9.8126437962074E-01  1.1063555375816E+00 -2.4745665205368E-01
63  6.2000000000000E-01 -9.1363287144506E-01  1.0661470384726E+00 -3.5737754124948E-01
64  6.3000000000000E-01 -8.4241003214814E-01  1.0253410833920E+00 -4.7091986889032E-01
65  6.4000000000000E-01 -7.6847392085848E-01  9.8408298505053E-01 -5.8405332784741E-01
66  6.5000000000000E-01 -6.9270609333540E-01  9.4251624334724E-01 -6.9245224975524E-01
67  6.6000000000000E-01 -6.1598032021563E-01  9.0078199425100E-01 -7.9164027204917E-01
68  6.7000000000000E-01 -5.3915130744650E-01  8.5901849451530E-01 -8.7714559446455E-01
69  6.8000000000000E-01 -4.6304362630965E-01  8.1736063719640E-01 -9.4466146818292E-01
70  6.9000000000000E-01 -3.8844106653603E-01  7.7593949241058E-01 -9.9020625068650E-01
71  7.0000000000000E-01 -3.1607662610293E-01  7.3488186759819E-01 -1.0102772469825E+00
72  7.1000000000000E-01 -2.4662334509518E-01  6.9430988176728E-01 -1.0019926510858E+00
73  7.2000000000000E-01 -1.8068617842308E-01  6.5434054876277E-01 -9.6321620134192E-01
74  7.3000000000000E-01 -1.1879508336990E-01  6.1508536552382E-01 -8.9265966264045E-01
75  7.4000000000000E-01 -6.1399473256888E-02  5.7664990251944E-01 -7.8995893417925E-01
76  7.5000000000000E-01 -8.8641585586490E-03  5.3913339503950E-01 -6.5572043232682E-01
77  7.6000000000000E-01  3.8533137625668E-02  5.0262833570617E-01 -4.9153538726104E-01
78  7.7000000000000E-01  8.0602640768234E-02  4.6722007038914E-01 -2.9996078704608E-01
79  7.8000000000000E-01  1.1724175408380E-01  4.3298640157919E-01 -8.4466866356677E-02
80  7.9000000000000E-01  1.4843268838588E-01  3.9999720511698E-01  1.5064777090633E-01
81  8.0000000000000E-01  1.7423856652091E-01  3.6831406790311E-01  4.0037112771235E-01
82  8.1000000000000E-01  1.9479811588504E-01  3.3798995574910E-01  6.5911949963351E-01
83  8.2000000000000E-01  2.1031909922222E-01  3.0906892178709E-01  9.2090145764972E-01
84  8.3000000000000E-01  2.2107066640132E-01  2.8158586676907E-01  1.1794988292883E+00
85  8.4000000000000E-01  2.2737483700625E-01  2.5556636309067E-01  1.4286586656685E+00
86  8.5000000000000E-01  2.2959734433508E-01  2.3102655442272E-01  1.6622896706673E+00
87  8.6000000000000E-01  2.2813808497382E-01  2.0797314239105E-01  1.8746562828605E+00
88  8.7000000000000E-01  2.2342142390197E-01  1.8640347079380E-01  2.0605635569928E+00
89  8.8000000000000E-01  2.1588660276538E-01  1.6630571638621E-01  2.2155261973637E+00
90  8.9000000000000E-01  2.0597848845984E-01  1.4765919331451E-01  2.3359155497473E+00
91  9.0000000000000E-01  1.9413888072658E-01  1.3043477587960E-01  2.4190790516764E+00
92  9.1000000000000E-01  1.8079857156966E-01  1.1459544151349E-01  2.4634275548169E+00
93  9.2000000000000E-01  1.6637031673050E-01  1.0009693272748E-01  2.4684870413137E+00
94  9.3000000000000E-01  1.5124284121754E-01  8.6888533428257E-02  2.4349125242793E+00
95  9.4000000000000E-01  1.3577595819870E-01  7.4913951492959E-02  2.3644633112530E+00
96  9.5000000000000E-01  1.2029683483953E-01  6.4112295955795E-02  2.2599402725730E+00
97  9.6000000000000E-01  1.0509739142035E-01  5.4419133698781E-02  2.1250872457321E+00
98  9.7000000000000E-01  9.0432772892884E-02  4.5767607273099E-02  1.9644601710955E+00
99  9.8000000000000E-01  7.6520786569947E-02  3.8089592519046E-02  1.7832689424460E+00
100  9.9000000000000E-01  6.3542157415014E-02  3.1316872106716E-02  1.5871982197079E+00
101  1.0000000000000E+00  5.1641414930838E-02  2.5382299086498E-02  1.3822145437216E+00
102  1.0100000000000E+00  4.0928194224368E-02  2.0220923100166E-02  1.1743679745420E+00
103  1.0200000000000E+00  3.1478709572426E-02  1.5771051127303E-02  9.6959711136474E-01
104  1.0300000000000E+00  2.3337151460506E-02  1.1975217631735E-02  7.7354661515252E-01
105  1.0400000000000E+00  1.6516682634458E-02  8.7810115904783E-03  5.9140725544548E-01
106  1.0500000000000E+00  1.0998141974891E-02  6.1412411119205E-03  4.2780593825658E-01
107  1.0600000000000E+00  6.7074342160116E-03  4.0048447509844E-03  2.8698727285630E-01
108  1.0700000000000E+00  3.5852720126348E-03  2.3410141939857E-03  1.7194497010760E-01
109  1.0800000000000E+00  1.5398078750933E-03  1.1314056881263E-03  8.4896992507099E-02
110  1.0900000000000E+00  4.2032525627662E-04  3.6137745384200E-04  2.7626701703537E-02
111  1.1000000000000E+00  2.2613999690542E-05  2.4318129791430E-05  1.8901601131479E-03
112  1.1100000000000E+00  2.2621756523785E-07  2.4509346281401E-07  1.9110617534245E-05
113  1.1200000000000E+00 -2.3766263828881E-07 -2.3405876167395E-07 -1.8124575811684E-05
114  1.13  0.  0.  0.
115  1.14  0.  0.  0.
116  1.15  0.  0.  0.
117  1.16  0.  0.  0.
118  1.17  0.  0.  0.
119  1.18  0.  0.  0.
120  1.19  0.  0.  0.
121  1.20  0.  0.  0.
122  1.21  0.  0.  0.
123  1.22  0.  0.  0.
124  1.23  0.  0.  0.
125  1.24  0.  0.  0.
126  1.25  0.  0.  0.
127  1.26  0.  0.  0.
128  1.27  0.  0.  0.
129  1.28  0.  0.  0.
130  1.29  0.  0.  0.
131  1.30  0.  0.  0.
132  1.31  0.  0.  0.
133  1.32  0.  0.  0.
134  1.33  0.  0.  0.
135  1.34  0.  0.  0.
136  1.35  0.  0.  0.
137  1.36  0.  0.  0.
138  1.37  0.  0.  0.
139  1.38  0.  0.  0.
140  1.39  0.  0.  0.
141  1.40  0.  0.  0.
142  1.41  0.  0.  0.
143  1.42  0.  0.  0.
144  1.43  0.  0.  0.
145  1.44  0.  0.  0.
146  1.45  0.  0.  0.
147  1.46  0.  0.  0.
148  1.47  0.  0.  0.
149  1.48  0.  0.  0.
150  1.49  0.  0.  0.
151  1.50  0.  0.  0.
152  1.51  0.  0.  0.
153  1.52  0.  0.  0.
154  1.53  0.  0.  0.
155  1.54  0.  0.  0.
156  1.55  0.  0.  0.
157  1.56  0.  0.  0.
158  1.57  0.  0.  0.
159  1.58  0.  0.  0.
160  1.59  0.  0.  0.
161  1.60  0.  0.  0.
162  1.61  0.  0.  0.
163  1.62  0.  0.  0.
164  1.63  0.  0.  0.
165  1.64  0.  0.  0.
166  1.65  0.  0.  0.
167  1.66  0.  0.  0.
168  1.67  0.  0.  0.
169  1.68  0.  0.  0.
170  1.69  0.  0.  0.
171  1.70  0.  0.  0.
172  1.71  0.  0.  0.
173  1.72  0.  0.  0.
174  1.73  0.  0.  0.
175  1.74  0.  0.  0.
176  1.75  0.  0.  0.
177  1.76  0.  0.  0.
178  1.77  0.  0.  0.
179  1.78  0.  0.  0.
180  1.79  0.  0.  0.
181  1.80  0.  0.  0.
182  1.81  0.  0.  0.
183  1.82  0.  0.  0.
184  1.83  0.  0.  0.
185  1.84  0.  0.  0.
186  1.85  0.  0.  0.
187  1.86  0.  0.  0.
188  1.87  0.  0.  0.
189  1.88  0.  0.  0.
190  1.89  0.  0.  0.
191  1.90  0.  0.  0.
192  1.91  0.  0.  0.
193  1.92  0.  0.  0.
194  1.93  0.  0.  0.
195  1.94  0.  0.  0.
196  1.95  0.  0.  0.
197  1.96  0.  0.  0.
198  1.97  0.  0.  0.
199  1.98  0.  0.  0.
200  1.99  0.  0.  0.
201  2.00  0.  0.  0.
202  2.01  0.  0.  0.
203  2.02  0.  0.  0.
204  2.03  0.  0.  0.
205  2.04  0.  0.  0.
206  2.05  0.  0.  0.
207  2.06  0.  0.  0.
208  2.07  0.  0.  0.
209  2.08  0.  0.  0.
210  2.09  0.  0.  0.
211  2.10  0.  0.  0.
212  2.11  0.  0.  0.
213  2.12  0.  0.  0.
214  2.13  0.  0.  0.
215  2.14  0.  0.  0.
216  2.15  0.  0.  0.
217  2.16  0.  0.  0.
218  2.17  0.  0.  0.
219  2.18  0.  0.  0.
220  2.19  0.  0.  0.
221  2.20  0.  0.  0.
222  2.21  0.  0.  0.
223  2.22  0.  0.  0.
224  2.23  0.  0.  0.
225  2.24  0.  0.  0.
226  2.25  0.  0.  0.
227  2.26  0.  0.  0.
228  2.27  0.  0.  0.
229  2.28  0.  0.  0.
230  2.29  0.  0.  0.
231  2.30  0.  0.  0.
232  2.31  0.  0.  0.
233  2.32  0.  0.  0.
234  2.33  0.  0.  0.
235  2.34  0.  0.  0.
236  2.35  0.  0.  0.
237  2.36  0.  0.  0.
238  2.37  0.  0.  0.
239  2.38  0.  0.  0.
240  2.39  0.  0.  0.
241  2.40  0.  0.  0.
242  2.41  0.  0.  0.
243  2.42  0.  0.  0.
244  2.43  0.  0.  0.
245  2.44  0.  0.  0.
246  2.45  0.  0.  0.
247  2.46  0.  0.  0.
248  2.47  0.  0.  0.
249  2.48  0.  0.  0.
250  2.49  0.  0.  0.
251  2.50  0.  0.  0.
252  2.51  0.  0.  0.
253  2.52  0.  0.  0.
254  2.53  0.  0.  0.
255  2.54  0.  0.  0.
256  2.55  0.  0.  0.
257  2.56  0.  0.  0.
258  2.57  0.  0.  0.
259  2.58  0.  0.  0.
260  2.59  0.  0.  0.
261  2.60  0.  0.  0.
262  2.61  0.  0.  0.
263  2.62  0.  0.  0.
264  2.63  0.  0.  0.
265  2.64  0.  0.  0.
266  2.65  0.  0.  0.
267  2.66  0.  0.  0.
268  2.67  0.  0.  0.
269  2.68  0.  0.  0.
270  2.69  0.  0.  0.
271  2.70  0.  0.  0.
272  2.71  0.  0.  0.
273  2.72  0.  0.  0.
274  2.73  0.  0.  0.
275  2.74  0.  0.  0.
276  2.75  0.  0.  0.
277  2.76  0.  0.  0.
278  2.77  0.  0.  0.
279  2.78  0.  0.  0.
280  2.79  0.  0.  0.
281  2.80  0.  0.  0.
282  2.81  0.  0.  0.
283  2.82  0.  0.  0.
284  2.83  0.  0.  0.
285  2.84  0.  0.  0.
286  2.85  0.  0.  0.
287  2.86  0.  0.  0.
288  2.87  0.  0.  0.
289  2.88  0.  0.  0.
290  2.89  0.  0.  0.
291  2.90  0.  0.  0.
292  2.91  0.  0.  0.
293  2.92  0.  0.  0.
294  2.93  0.  0.  0.
295  2.94  0.  0.  0.
296  2.95  0.  0.  0.
297  2.96  0.  0.  0.
298  2.97  0.  0.  0.
299  2.98  0.  0.  0.
300  2.99  0.  0.  0.
301  3.00  0.  0.  0.
302  3.01  0.  0.  0.
303  3.02  0.  0.  0.
304  3.03  0.  0.  0.
305  3.04  0.  0.  0.
306  3.05  0.  0.  0.
307  3.06  0.  0.  0.
308  3.07  0.  0.  0.
309  3.08  0.  0.  0.
310  3.09  0.  0.  0.
311  3.10  0.  0.  0.
312  3.11  0.  0.  0.
313  3.12  0.  0.  0.
314  3.13  0.  0.  0.
315  3.14  0.  0.  0.
316  3.15  0.  0.  0.
317  3.16  0.  0.  0.
318  3.17  0.  0.  0.
319  3.18  0.  0.  0.
320  3.19  0.  0.  0.
321  3.20  0.  0.  0.
322  3.21  0.  0.  0.
323  3.22  0.  0.  0.
324  3.23  0.  0.  0.
325  3.24  0.  0.  0.
326  3.25  0.  0.  0.
327  3.26  0.  0.  0.
328  3.27  0.  0.  0.
329  3.28  0.  0.  0.
330  3.29  0.  0.  0.
331  3.30  0.  0.  0.
332  3.31  0.  0.  0.
333  3.32  0.  0.  0.
334  3.33  0.  0.  0.
335  3.34  0.  0.  0.
336  3.35  0.  0.  0.
337  3.36  0.  0.  0.
338  3.37  0.  0.  0.
339  3.38  0.  0.  0.
340  3.39  0.  0.  0.
341  3.40  0.  0.  0.
342  3.41  0.  0.  0.
343  3.42  0.  0.  0.
344  3.43  0.  0.  0.
345  3.44  0.  0.  0.
346  3.45  0.  0.  0.
347  3.46  0.  0.  0.
348  3.47  0.  0.  0.
349  3.48  0.  0.  0.
350  3.49  0.  0.  0.
351  3.50  0.  0.  0.
352  3.51  0.  0.  0.
353  3.52  0.  0.  0.
354  3.53  0.  0.  0.
355  3.54  0.  0.  0.
356  3.55  0.  0.  0.
357  3.56  0.  0.  0.
358  3.57  0.  0.  0.
359  3.58  0.  0.  0.
360  3.59  0.  0.  0.
361  3.60  0.  0.  0.
362  3.61  0.  0.  0.
363  3.62  0.  0.  0.
364  3.63  0.  0.  0.
365  3.64  0.  0.  0.
366  3.65  0.  0.  0.
367  3.66  0.  0.  0.
368  3.67  0.  0.  0.
369  3.68  0.  0.  0.
370  3.69  0.  0.  0.
371  3.70  0.  0.  0.
372  3.71  0.  0.  0.
373  3.72  0.  0.  0.
374  3.73  0.  0.  0.
375  3.74  0.  0.  0.
376  3.75  0.  0.  0.
377  3.76  0.  0.  0.
378  3.77  0.  0.  0.
379  3.78  0.  0.  0.
380  3.79  0.  0.  0.
381  3.80  0.  0.  0.
382  3.81  0.  0.  0.
383  3.82  0.  0.  0.
384  3.83  0.  0.  0.
385  3.84  0.  0.  0.
386  3.85  0.  0.  0.
387  3.86  0.  0.  0.
388  3.87  0.  0.  0.
389  3.88  0.  0.  0.
390  3.89  0.  0.  0.
391  3.90  0.  0.  0.
392  3.91  0.  0.  0.
393  3.92  0.  0.  0.
394  3.93  0.  0.  0.
395  3.94  0.  0.  0.
396  3.95  0.  0.  0.
397  3.96  0.  0.  0.
398  3.97  0.  0.  0.
399  3.98  0.  0.  0.
400  3.99  0.  0.  0.
401  4.00  0.  0.  0.
402  4.01  0.  0.  0.
403  4.02  0.  0.  0.
404  4.03  0.  0.  0.
405  4.04  0.  0.  0.
406  4.05  0.  0.  0.
407  4.06  0.  0.  0.
408  4.07  0.  0.  0.
409  4.08  0.  0.  0.
410  4.09  0.  0.  0.
411  4.10  0.  0.  0.
412  4.11  0.  0.  0.
413  4.12  0.  0.  0.
414  4.13  0.  0.  0.
415  4.14  0.  0.  0.
416  4.15  0.  0.  0.
417  4.16  0.  0.  0.
418  4.17  0.  0.  0.
419  4.18  0.  0.  0.
420  4.19  0.  0.  0.
421  4.20  0.  0.  0.
422  4.21  0.  0.  0.
423  4.22  0.  0.  0.
424  4.23  0.  0.  0.
425  4.24  0.  0.  0.
426  4.25  0.  0.  0.
427  4.26  0.  0.  0.
428  4.27  0.  0.  0.
429  4.28  0.  0.  0.
430  4.29  0.  0.  0.
431  4.30  0.  0.  0.
432  4.31  0.  0.  0.
433  4.32  0.  0.  0.
434  4.33  0.  0.  0.
435  4.34  0.  0.  0.
436  4.35  0.  0.  0.
437  4.36  0.  0.  0.
438  4.37  0.  0.  0.
439  4.38  0.  0.  0.
440  4.39  0.  0.  0.
441  4.40  0.  0.  0.
442  4.41  0.  0.  0.
443  4.42  0.  0.  0.
444  4.43  0.  0.  0.
445  4.44  0.  0.  0.
446  4.45  0.  0.  0.
447  4.46  0.  0.  0.
448  4.47  0.  0.  0.
449  4.48  0.  0.  0.
450  4.49  0.  0.  0.
451  4.50  0.  0.  0.
452  4.51  0.  0.  0.
453  4.52  0.  0.  0.
454  4.53  0.  0.  0.
455  4.54  0.  0.  0.
456  4.55  0.  0.  0.
457  4.56  0.  0.  0.
458  4.57  0.  0.  0.
459  4.58  0.  0.  0.
460  4.59  0.  0.  0.
461  4.60  0.  0.  0.
462  4.61  0.  0.  0.
463  4.62  0.  0.  0.
464  4.63  0.  0.  0.
465  4.64  0.  0.  0.
466  4.65  0.  0.  0.
467  4.66  0.  0.  0.
468  4.67  0.  0.  0.
469  4.68  0.  0.  0.
470  4.69  0.  0.  0.
471  4.70  0.  0.  0.
472  4.71  0.  0.  0.
473  4.72  0.  0.  0.
474  4.73  0.  0.  0.
475  4.74  0.  0.  0.
476  4.75  0.  0.  0.
477  4.76  0.  0.  0.
478  4.77  0.  0.  0.
479  4.78  0.  0.  0.
480  4.79  0.  0.  0.
481  4.80  0.  0.  0.
482  4.81  0.  0.  0.
483  4.82  0.  0.  0.
484  4.83  0.  0.  0.
485  4.84  0.  0.  0.
486  4.85  0.  0.  0.
487  4.86  0.  0.  0.
488  4.87  0.  0.  0.
489  4.88  0.  0.  0.
490  4.89  0.  0.  0.
491  4.90  0.  0.  0.
492  4.91  0.  0.  0.
493  4.92  0.  0.  0.
494  4.93  0.  0.  0.
495  4.94  0.  0.  0.
496  4.95  0.  0.  0.
497  4.96  0.  0.  0.
498  4.97  0.  0.  0.
499  4.98  0.  0.  0.
500  4.99  0.  0.  0.
501  5.00  0.  0.  0.
502  5.01  0.  0.  0.
503  5.02  0.  0.  0.
504  5.03  0.  0.  0.
505  5.04  0.  0.  0.
506  5.05  0.  0.  0.
507  5.06  0.  0.  0.
508  5.07  0.  0.  0.
509  5.08  0.  0.  0.
510  5.09  0.  0.  0.
511  5.10  0.  0.  0.
512  5.11  0.  0.  0.
513  5.12  0.  0.  0.
514  5.13  0.  0.  0.
515  5.14  0.  0.  0.
516  5.15  0.  0.  0.
517  5.16  0.  0.  0.
518  5.17  0.  0.  0.
519  5.18  0.  0.  0.
520  5.19  0.  0.  0.
521  5.20  0.  0.  0.
522  5.21  0.  0.  0.
523  5.22  0.  0.  0.
524  5.23  0.  0.  0.
525  5.24  0.  0.  0.
526  5.25  0.  0.  0.
527  5.26  0.  0.  0.
528  5.27  0.  0.  0.
529  5.28  0.  0.  0.
530  5.29  0.  0.  0.
531  5.30  0.  0.  0.
532  5.31  0.  0.  0.
533  5.32  0.  0.  0.
534  5.33  0.  0.  0.
535  5.34  0.  0.  0.
536  5.35  0.  0.  0.
537  5.36  0.  0.  0.
538  5.37  0.  0.  0.
539  5.38  0.  0.  0.
540  5.39  0.  0.  0.
541  5.40  0.  0.  0.
542  5.41  0.  0.  0.
543  5.42  0.  0.  0.
544  5.43  0.  0.  0.
545  5.44  0.  0.  0.
546  5.45  0.  0.  0.
547  5.46  0.  0.  0.
548  5.47  0.  0.  0.
549  5.48  0.  0.  0.
550  5.49  0.  0.  0.
551  5.50  0.  0.  0.
552  5.51  0.  0.  0.
553  5.52  0.  0.  0.
554  5.53  0.  0.  0.
555  5.54  0.  0.  0.
556  5.55  0.  0.  0.
557  5.56  0.  0.  0.
558  5.57  0.  0.  0.
559  5.58  0.  0.  0.
560  5.59  0.  0.  0.
561  5.60  0.  0.  0.
562  5.61  0.  0.  0.
563  5.62  0.  0.  0.
564  5.63  0.  0.  0.
565  5.64  0.  0.  0.
566  5.65  0.  0.  0.
567  5.66  0.  0.  0.
568  5.67  0.  0.  0.
569  5.68  0.  0.  0.
570  5.69  0.  0.  0.
571  5.70  0.  0.  0.
572  5.71  0.  0.  0.
573  5.72  0.  0.  0.
574  5.73  0.  0.  0.
575  5.74  0.  0.  0.
576  5.75  0.  0.  0.
577  5.76  0.  0.  0.
578  5.77  0.  0.  0.
579  5.78  0.  0.  0.
580  5.79  0.  0.  0.
581  5.80  0.  0.  0.
582  5.81  0.  0.  0.
583  5.82  0.  0.  0.
584  5.83  0.  0.  0.
585  5.84  0.  0.  0.
586  5.85  0.  0.  0.
587  5.86  0.  0.  0.
588  5.87  0.  0.  0.
589  5.88  0.  0.  0.
590  5.89  0.  0.  0.
591  5.90  0.  0.  0.
592  5.91  0.  0.  0.
593  5.92  0.  0.  0.
594  5.93  0.  0.  0.
595  5.94  0.  0.  0.
596  5.95  0.  0.  0.
597  5.96  0.  0.  0.
598  5.97  0.  0.  0.
599  5.98  0.  0.  0.
600  5.99  0.  0.  0.
1                        -8.3679367207009E+00 -2.1906357430452E+00
1  0.0000000000000E+00  1.2163114682107E-09 -6.4009510303276E-08
2  1.0000000000000E-02  2.3482240154801E-03  5.7892733655601E-03
3  2.0000000000000E-02  9.3786251482850E-03  2.3094814055016E-02
4  3.0000000000000E-02  2.1048489102971E-02  5.1729511025153E-02
5  4.0000000000000E-02  3.7286952988481E-02  9.1380657527676E-02
6  5.0000000000000E-02  5.7995494786550E-02  1.4160885601200E-01
7  6.0000000000000E-02  8.3048614711885E-02  2.0184684928034E-01
8  7.0000000000000E-02  1.1229470450495E-01  2.7139861808010E-01
9  8.0000000000000E-02  1.4555709948185E-01  3.4943914932829E-01
10  9.0000000000000E-02  1.8263530689577E-01  4.3501532040876E-01
11  1.0000000000000E-01  2.2330640283905E-01  5.2704836066193E-01
12  1.1000000000000E-01  2.6732658853825E-01  6.2433833967536E-01
13  1.2000000000000E-01  3.1443289547695E-01  7.2557109294915E-01
14  1.3000000000000E-01  3.6434502733737E-01  8.2932792991282E-01
15  1.4000000000000E-01  4.1676732530472E-01  9.3409837935179E-01
16  1.5000000000000E-01  4.7139084185398E-01  1.0382961164878E+00
17  1.6000000000000E-01  5.2789550676778E-01  1.1402780887242E+00
18  1.7000000000000E-01  5.8595236785230E-01  1.2383667187537E+00
19  1.8000000000000E-01  6.4522588766085E-01  1.3308749202993E+00
20  1.9000000000000E-01  7.0537627654019E-01  1.4161335195878E+00
21  2.0000000000000E-01  7.6606184151945E-01  1.4925205411811E+00
22  2.1000000000000E-01  8.2694133000000E-01  1.5584916963169E+00
23  2.2000000000000E-01  8.8767624690791E-01  1.6126113112635E+00
24  2.3000000000000E-01  9.4793312396491E-01  1.6535828574962E+00
25  2.4000000000000E-01  1.0073857200375E+00  1.6802781989367E+00
26  2.5000000000000E-01  1.0657171321508E+00  1.6917646571093E+00
27  2.6000000000000E-01  1.1226217977057E+00  1.6873290146045E+00
28  2.7000000000000E-01  1.1778073697128E+00  1.6664976310941E+00
29  2.8000000000000E-01  1.2309964484371E+00  1.6290519332589E+00
30  2.9000000000000E-01  1.2819281547150E+00  1.5750386579469E+00
31  3.0000000000000E-01  1.3303595323228E+00  1.5047743729180E+00
32  3.1000000000000E-01  1.3760667691134E+00  1.4188439667222E+00
33  3.2000000000000E-01  1.4188462291353E+00  1.3180929826813E+00
34  3.3000000000000E-01  1.4585152905737E+00  1.2036138649057E+00
35  3.4000000000000E-01  1.4949129870288E+00  1.0767263795915E+00
36  3.5000000000000E-01  1.5279004523347E+00  9.3895266510249E-01
37  3.6000000000000E-01  1.5573611717494E+00  7.9198754222134E-01
38  3.7000000000000E-01  1.5832010448634E+00  6.3766487451271E-01
39  3.8000000000000E-01  1.6053482679244E+00  4.7792090169035E-01
40  3.9000000000000E-01  1.6237530454045E+00  3.1475557086636E-01
41  4.0000000000000E-01  1.6383871425080E+00  1.5019295736562E-01
42  4.1000000000000E-01  1.6492432918876E+00 -1.3758104471135E-02
43  4.2000000000000E-01  1.6563344690814E+00 -1.7514207082885E-01
44  4.3000000000000E-01  1.6596930520808E+00 -3.3209235879465E-01
45  4.4000000000000E-01  1.6593698809875E+00 -4.8286366598648E-01
46  4.5000000000000E-01  1.6554332339049E+00 -6.2586009043203E-01
47  4.6000000000000E-01  1.6479677350611E+00 -7.5965835443870E-01
48  4.7000000000000E-01  1.6370732106901E+00 -8.8302561340405E-01
49  4.8000000000000E-01  1.6228635074304E+00 -9.9493152550003E-01
50  4.9000000000000E-01  1.6054652869841E+00 -1.0945544634993E+00
51  5.0000000000000E-01  1.5850168095472E+00 -1.1812819578285E+00
52  5.1000000000000E-01  1.5616667171258E+00 -1.2547056622190E+00
53  5.2000000000000E-01  1.5355728263467E+00 -1.3146113222547E+00
54  5.3000000000000E-01  1.5069009388019E+00 -1.3609643953321E+00
55  5.4000000000000E-01  1.4758236753931E+00 -1.3938921115059E+00
56  5.5000000000000E-01  1.4425193396105E+00 -1.4136628728597E+00
57  5.6000000000000E-01  1.4071708132382E+00 -1.4206639601964E+00
58  5.7000000000000E-01  1.3699644866741E+00 -1.4153785471824E+00
59  5.8000000000000E-01  1.3310892249092E+00 -1.3983630124012E+00
60  5.9000000000000E-01  1.2907353692733E+00 -1.3702254894976E+00
61  6.0000000000000E-01  1.2490937743264E+00 -1.3316065067721E+00
62  6.1000000000000E-01  1.2063548787835E+00 -1.2831624438405E+00
63  6.2000000000000E-01  1.1627078090986E+00 -1.2255523793680E+00
64  6.3000000000000E-01  1.1183395142993E+00 -1.1594287267039E+00
65  6.4000000000000E-01  1.0734339308432E+00 -1.0854318608187E+00
66  6.5000000000000E-01  1.0281711766433E+00 -1.0041887382955E+00
67  6.6000000000000E-01  9.8272677394352E-01 -9.1631531071464E-01
68  6.7000000000000E-01  9.3727090139721E-01 -8.2242233912895E-01
69  6.8000000000000E-01  8.9196767646766E-01 -7.2312404171159E-01
70  6.9000000000000E-01  8.4697447008390E-01 -6.1904885576644E-01
71  7.0000000000000E-01  8.0244125631958E-01 -5.1085147585953E-01
72  7.1000000000000E-01  7.5851000066319E-01 -3.9922524744750E-01
73  7.2000000000000E-01  7.1531409118256E-01 -2.8491395415502E-01
74  7.3000000000000E-01  6.7297781751495E-01 -1.6872203929516E-01
75  7.4000000000000E-01  6.3161590310546E-01 -5.1522349081541E-02
76  7.5000000000000E-01  5.9133309644228E-01  6.5739424823698E-02
77  7.6000000000000E-01  5.5222382717747E-01  1.8204429513036E-01
78  7.7000000000000E-01  5.1437193296126E-01  2.9630404627688E-01
79  7.8000000000000E-01  4.7785046254895E-01  4.0737014827272E-01
80  7.9000000000000E-01  4.4272156026250E-01  5.1404762757952E-01
81  8.0000000000000E-01  4.0903643621020E-01  6.1511377363311E-01
82  8.1000000000000E-01  3.7683542580127E-01  7.0934132347362E-01
83  8.2000000000000E-01  3.4614814105699E-01  7.9552553640945E-01
84  8.3000000000000E-01  3.1699371504110E-01  8.7251435551045E-01
85  8.4000000000000E-01  2.8938113943917E-01  9.3924066243596E-01
86  8.5000000000000E-01  2.6330969394121E-01  9.9475547535699E-01
87  8.6000000000000E-01  2.3876946465937E-01  1.0382608241161E+00
88  8.7000000000000E-01  2.1574194737875E-01  1.0691409684333E+00
89  8.8000000000000E-01  1.9420073002864E-01  1.0869906083590E+00
90  8.9000000000000E-01  1.7411224741014E-01  1.0916387738026E+00
91  9.0000000000000E-01  1.5543659995391E-01  1.0831671722841E+00
92  9.1000000000000E-01  1.3812842713943E-01  1.0619219193580E+00
93  9.2000000000000E-01  1.2213782520828E-01  1.0285177706443E+00
94  9.3000000000000E-01  1.0741129797072E-01  9.8383421218825E-01
95  9.4000000000000E-01  9.3892728850763E-02  9.2900303934976E-01
96  9.5000000000000E-01  8.1524361853374E-02  8.6538735422650E-01
97  9.6000000000000E-01  7.0247778871984E-02  7.9455222726774E-01
98  9.7000000000000E-01  6.0004860687477E-02  7.1822758882254E-01
99  9.8000000000000E-01  5.0738719136524E-02  6.3826422885640E-01
100  9.9000000000000E-01  4.2394588240756E-02  5.5658407636223E-01
101  1.0000000000000E+00  3.4920662576694E-02  4.7512619228118E-01
102  1.0100000000000E+00  2.8268871815676E-02  3.9579013070188E-01
103  1.0200000000000E+00  2.2395581156032E-02  3.2037849342862E-01
104  1.0300000000000E+00  1.7262208944876E-02  2.5054071764151E-01
105  1.0400000000000E+00  1.2835746544563E-02  1.8771927909860E-01
106  1.0500000000000E+00  9.0890851329769E-03  1.3308324476284E-01
107  1.0600000000000E+00  5.9987480912302E-03  8.7179224275030E-02
108  1.0700000000000E+00  3.5500226569685E-03  5.0700203953017E-02
109  1.0800000000000E+00  1.7373172766350E-03  2.4144255749969E-02
110  1.0900000000000E+00  5.6194528301572E-04  7.5250000537363E-03
111  1.1000000000000E+00  3.8305895226549E-05  4.8853054057949E-04
112  1.1100000000000E+00  3.8656221676751E-07  4.9270500532574E-06
113  1.1200000000000E+00 -3.6723441193538E-07 -4.7714725056156E-06
114  1.13  0.  0.
115  1.14  0.  0.
116  1.15  0.  0.
117  1.16  0.  0.
118  1.17  0.  0.
119  1.18  0.  0.
120  1.19  0.  0.
121  1.20  0.  0.
122  1.21  0.  0.
123  1.22  0.  0.
124  1.23  0.  0.
125  1.24  0.  0.
126  1.25  0.  0.
127  1.26  0.  0.
128  1.27  0.  0.
129  1.28  0.  0.
130  1.29  0.  0.
131  1.30  0.  0.
132  1.31  0.  0.
133  1.32  0.  0.
134  1.33  0.  0.
135  1.34  0.  0.
136  1.35  0.  0.
137  1.36  0.  0.
138  1.37  0.  0.
139  1.38  0.  0.
140  1.39  0.  0.
141  1.40  0.  0.
142  1.41  0.  0.
143  1.42  0.  0.
144  1.43  0.  0.
145  1.44  0.  0.
146  1.45  0.  0.
147  1.46  0.  0.
148  1.47  0.  0.
149  1.48  0.  0.
150  1.49  0.  0.
151  1.50  0.  0.
152  1.51  0.  0.
153  1.52  0.  0.
154  1.53  0.  0.
155  1.54  0.  0.
156  1.55  0.  0.
157  1.56  0.  0.
158  1.57  0.  0.
159  1.58  0.  0.
160  1.59  0.  0.
161  1.60  0.  0.
162  1.61  0.  0.
163  1.62  0.  0.
164  1.63  0.  0.
165  1.64  0.  0.
166  1.65  0.  0.
167  1.66  0.  0.
168  1.67  0.  0.
169  1.68  0.  0.
170  1.69  0.  0.
171  1.70  0.  0.
172  1.71  0.  0.
173  1.72  0.  0.
174  1.73  0.  0.
175  1.74  0.  0.
176  1.75  0.  0.
177  1.76  0.  0.
178  1.77  0.  0.
179  1.78  0.  0.
180  1.79  0.  0.
181  1.80  0.  0.
182  1.81  0.  0.
183  1.82  0.  0.
184  1.83  0.  0.
185  1.84  0.  0.
186  1.85  0.  0.
187  1.86  0.  0.
188  1.87  0.  0.
189  1.88  0.  0.
190  1.89  0.  0.
191  1.90  0.  0.
192  1.91  0.  0.
193  1.92  0.  0.
194  1.93  0.  0.
195  1.94  0.  0.
196  1.95  0.  0.
197  1.96  0.  0.