Db    ONCVPSP-4.0.1  r_core=   1.10309   1.10309   1.10309   1.20665
105.0000     45.0000      220206    zatom,zion,pspd
8      11   3     4   600     0    pspcod,pspxc,lmax,lloc,mmax,r2well
5.99000000  5.00000000  0.00000000    rchrg fchrg qchrg
3     2     2     2     0    nproj
1     1           extension_switch
0                         1.4390897910094E+01 -9.6415079957378E+00 -1.8301444999957E-01
1  0.0000000000000E+00 -2.7813243930197E-08 -3.8378333844236E-10  5.8179562356653E-07
2  1.0000000000000E-02  1.8560692570576E-01  5.4541174892630E-02 -1.4717927464551E-01
3  2.0000000000000E-02  3.6949371476703E-01  1.0904976229362E-01 -2.9016931066882E-01
4  3.0000000000000E-02  5.4996080582275E-01  1.6349270656372E-01 -4.2491509295342E-01
5  4.0000000000000E-02  7.2534945156612E-01  2.1783601908779E-01 -5.4762548391764E-01
6  5.0000000000000E-02  8.9406129193940E-01  2.7204432019876E-01 -6.5489389762448E-01
7  6.0000000000000E-02  1.0545769473858E+00  3.2608039150621E-01 -7.4380589604615E-01
8  7.0000000000000E-02  1.2054733393372E+00  3.7990474259424E-01 -8.1203006465637E-01
9  8.0000000000000E-02  1.3454394729298E+00  4.3347519643679E-01 -8.5788910631928E-01
10  9.0000000000000E-02  1.4732904502722E+00  4.8674649830859E-01 -8.8040878063173E-01
11  1.0000000000000E-01  1.5879795205469E+00  5.3966995341527E-01 -8.7934308642217E-01
12  1.1000000000000E-01  1.6886080147997E+00  5.9219309889484E-01 -8.5517491110766E-01
13  1.2000000000000E-01  1.7744330573572E+00  6.4425941621807E-01 -8.0909222318151E-01
14  1.3000000000000E-01  1.8448729912615E+00  6.9580809030410E-01 -7.4294073345042E-01
15  1.4000000000000E-01  1.8995105007421E+00  7.4677382183459E-01 -6.5915476702755E-01
16  1.5000000000000E-01  1.9380934583981E+00  7.9708669926519E-01 -5.6066884292863E-01
17  1.6000000000000E-01  1.9605335673244E+00  8.4667213686997E-01 -4.5081312494477E-01
18  1.7000000000000E-01  1.9669029078359E+00  8.9545088479221E-01 -3.3319646284296E-01
19  1.8000000000000E-01  1.9574285338165E+00  9.4333911649974E-01 -2.1158116736038E-01
20  1.9000000000000E-01  1.9324852942275E+00  9.9024859824792E-01 -8.9753940869585E-02
21  2.0000000000000E-01  1.8925870803367E+00  1.0360869441409E+00  2.8602491831312E-02
22  2.1000000000000E-01  1.8383767183038E+00  1.0807579591615E+00  1.4003254592738E-01
23  2.2000000000000E-01  1.7706147396041E+00  1.1241620711326E+00  2.4142142242897E-01
24  2.3000000000000E-01  1.6901672683047E+00  1.1661968510012E+00  3.3009527701809E-01
25  2.4000000000000E-01  1.5979932645344E+00  1.2067576191425E+00  4.0390444110552E-01
26  2.5000000000000E-01  1.4951313578868E+00  1.2457381335963E+00  4.6128683715892E-01
27  2.6000000000000E-01  1.3826864934388E+00  1.2830313543297E+00  5.0130944503173E-01
28  2.7000000000000E-01  1.2618165971514E+00  1.3185302758088E+00  5.2368646737215E-01
29  2.8000000000000E-01  1.1337194474027E+00  1.3521288184173E+00  5.2877368241412E-01
30  2.9000000000000E-01  9.9961991612193E-01  1.3837227676336E+00  5.1753933185636E-01
31  3.0000000000000E-01  8.6075771737799E-01  1.4132107484212E+00  4.9151273966895E-01
32  3.1000000000000E-01  7.1837577428790E-01  1.4404952210467E+00  4.5271266437294E-01
33  3.2000000000000E-01  5.7370928773017E-01  1.4654834835701E+00  4.0355812377821E-01
34  3.3000000000000E-01  4.2797556352265E-01  1.4880886655749E+00  3.4676507084710E-01
35  3.4000000000000E-01  2.8236462935762E-01  1.5082306973676E+00  2.8523281909438E-01
36  3.5000000000000E-01  1.3803064968804E-01  1.5258372388850E+00  2.2192449664671E-01
37  3.6000000000000E-01 -3.9158733688654E-03  1.5408445529248E+00  1.5974603550433E-01
38  3.7000000000000E-01 -1.4241514163531E-01  1.5531983080488E+00  1.0142826772951E-01
39  3.8000000000000E-01 -2.7646438614735E-01  1.5628542976025E+00  4.9416599975842E-02
40  3.9000000000000E-01 -4.0512352570198E-01  1.5697790627125E+00  5.7724745519145E-03
41  4.0000000000000E-01 -5.2752021243978E-01  1.5739504088438E+00 -2.7909592585091E-02
42  4.1000000000000E-01 -6.4285431820436E-01  1.5753578074771E+00 -5.0566164970027E-02
43  4.2000000000000E-01 -7.5040191147895E-01  1.5740026766482E+00 -6.1707678164831E-02
44  4.3000000000000E-01 -8.4951876725916E-01  1.5698985364243E+00 -6.1438098380114E-02
45  4.4000000000000E-01 -9.3964344183449E-01  1.5630710378171E+00 -5.0450523527489E-02
46  4.5000000000000E-01 -1.0202999317966E+00  1.5535578660687E+00 -2.9998693943629E-02
47  4.6000000000000E-01 -1.0910999224306E+00  1.5414085216485E+00 -1.8452806484656E-03
48  4.7000000000000E-01 -1.1517446158048E+00  1.5266839845809E+00  3.1811302985960E-02
49  4.8000000000000E-01 -1.2020261142051E+00  1.5094562698351E+00  6.8428996615772E-02
50  4.9000000000000E-01 -1.2418283209130E+00  1.4898078833823E+00  1.0522978672370E-01
51  5.0000000000000E-01 -1.2711273085147E+00  1.4678311901186E+00  1.3931906321454E-01
52  5.1000000000000E-01 -1.2899910956820E+00  1.4436277061135E+00  1.6781221216083E-01
53  5.2000000000000E-01 -1.2985787673424E+00  1.4173073285473E+00  1.8796368234898E-01
54  5.3000000000000E-01 -1.2971388708479E+00  1.3889875172223E+00  1.9729359693338E-01
55  5.4000000000000E-01 -1.2860070225392E+00  1.3587924416644E+00  1.9370699279581E-01
56  5.5000000000000E-01 -1.2656026651719E+00  1.3268521075755E+00  1.7560096115658E-01
57  5.6000000000000E-01 -1.2364249270487E+00  1.2933014757710E+00  1.4195532931137E-01
58  5.7000000000000E-01 -1.1990475482220E+00  1.2582795857700E+00  9.2403054498810E-02
59  5.8000000000000E-01 -1.1541128574529E+00  1.2219286949322E+00  2.7277180264862E-02
60  5.9000000000000E-01 -1.1023248052233E+00  1.1843934425139E+00 -5.2367988793187E-02
61  6.0000000000000E-01 -1.0444410823278E+00  1.1458200462952E+00 -1.4476293323473E-01
62  6.1000000000000E-01 -9.8126437962074E-01  1.1063555375816E+00 -2.4745665205368E-01
63  6.2000000000000E-01 -9.1363287144506E-01  1.0661470384726E+00 -3.5737754124948E-01
64  6.3000000000000E-01 -8.4241003214814E-01  1.0253410833920E+00 -4.7091986889032E-01
65  6.4000000000000E-01 -7.6847392085848E-01  9.8408298505053E-01 -5.8405332784741E-01
66  6.5000000000000E-01 -6.9270609333540E-01  9.4251624334724E-01 -6.9245224975524E-01
67  6.6000000000000E-01 -6.1598032021563E-01  9.0078199425100E-01 -7.9164027204917E-01
68  6.7000000000000E-01 -5.3915130744650E-01  8.5901849451530E-01 -8.7714559446455E-01
69  6.8000000000000E-01 -4.6304362630965E-01  8.1736063719640E-01 -9.4466146818292E-01
70  6.9000000000000E-01 -3.8844106653603E-01  7.7593949241058E-01 -9.9020625068650E-01
71  7.0000000000000E-01 -3.1607662610293E-01  7.3488186759819E-01 -1.0102772469825E+00
72  7.1000000000000E-01 -2.4662334509518E-01  6.9430988176728E-01 -1.0019926510858E+00
73  7.2000000000000E-01 -1.8068617842308E-01  6.5434054876277E-01 -9.6321620134192E-01
74  7.3000000000000E-01 -1.1879508336990E-01  6.1508536552382E-01 -8.9265966264045E-01
75  7.4000000000000E-01 -6.1399473256888E-02  5.7664990251944E-01 -7.8995893417925E-01
76  7.5000000000000E-01 -8.8641585586490E-03  5.3913339503950E-01 -6.5572043232682E-01
77  7.6000000000000E-01  3.8533137625668E-02  5.0262833570617E-01 -4.9153538726104E-01
78  7.7000000000000E-01  8.0602640768234E-02  4.6722007038914E-01 -2.9996078704608E-01
79  7.8000000000000E-01  1.1724175408380E-01  4.3298640157919E-01 -8.4466866356677E-02
80  7.9000000000000E-01  1.4843268838588E-01  3.9999720511698E-01  1.5064777090633E-01
81  8.0000000000000E-01  1.7423856652091E-01  3.6831406790311E-01  4.0037112771235E-01
82  8.1000000000000E-01  1.9479811588504E-01  3.3798995574910E-01  6.5911949963351E-01
83  8.2000000000000E-01  2.1031909922222E-01  3.0906892178709E-01  9.2090145764972E-01
84  8.3000000000000E-01  2.2107066640132E-01  2.8158586676907E-01  1.1794988292883E+00
85  8.4000000000000E-01  2.2737483700625E-01  2.5556636309067E-01  1.4286586656685E+00
86  8.5000000000000E-01  2.2959734433508E-01  2.3102655442272E-01  1.6622896706673E+00
87  8.6000000000000E-01  2.2813808497382E-01  2.0797314239105E-01  1.8746562828605E+00
88  8.7000000000000E-01  2.2342142390197E-01  1.8640347079380E-01  2.0605635569928E+00
89  8.8000000000000E-01  2.1588660276538E-01  1.6630571638621E-01  2.2155261973637E+00
90  8.9000000000000E-01  2.0597848845984E-01  1.4765919331451E-01  2.3359155497473E+00
91  9.0000000000000E-01  1.9413888072658E-01  1.3043477587960E-01  2.4190790516764E+00
92  9.1000000000000E-01  1.8079857156966E-01  1.1459544151349E-01  2.4634275548169E+00
93  9.2000000000000E-01  1.6637031673050E-01  1.0009693272748E-01  2.4684870413137E+00
94  9.3000000000000E-01  1.5124284121754E-01  8.6888533428257E-02  2.4349125242793E+00
95  9.4000000000000E-01  1.3577595819870E-01  7.4913951492959E-02  2.3644633112530E+00
96  9.5000000000000E-01  1.2029683483953E-01  6.4112295955795E-02  2.2599402725730E+00
97  9.6000000000000E-01  1.0509739142035E-01  5.4419133698781E-02  2.1250872457321E+00
98  9.7000000000000E-01  9.0432772892884E-02  4.5767607273099E-02  1.9644601710955E+00
99  9.8000000000000E-01  7.6520786569947E-02  3.8089592519046E-02  1.7832689424460E+00
100  9.9000000000000E-01  6.3542157415014E-02  3.1316872106716E-02  1.5871982197079E+00
101  1.0000000000000E+00  5.1641414930838E-02  2.5382299086498E-02  1.3822145437216E+00
102  1.0100000000000E+00  4.0928194224368E-02  2.0220923100166E-02  1.1743679745420E+00
103  1.0200000000000E+00  3.1478709572426E-02  1.5771051127303E-02  9.6959711136474E-01
104  1.0300000000000E+00  2.3337151460506E-02  1.1975217631735E-02  7.7354661515252E-01
105  1.0400000000000E+00  1.6516682634458E-02  8.7810115904783E-03  5.9140725544548E-01
106  1.0500000000000E+00  1.0998141974891E-02  6.1412411119205E-03  4.2780593825658E-01
107  1.0600000000000E+00  6.7074342160116E-03  4.0048447509844E-03  2.8698727285630E-01
108  1.0700000000000E+00  3.5852720126348E-03  2.3410141939857E-03  1.7194497010760E-01
109  1.0800000000000E+00  1.5398078750933E-03  1.1314056881263E-03  8.4896992507099E-02
110  1.0900000000000E+00  4.2032525627662E-04  3.6137745384200E-04  2.7626701703537E-02
111  1.1000000000000E+00  2.2613999690542E-05  2.4318129791430E-05  1.8901601131479E-03
112  1.1100000000000E+00  2.2621756523785E-07  2.4509346281401E-07  1.9110617534245E-05
113  1.1200000000000E+00 -2.3766263828881E-07 -2.3405876167395E-07 -1.8124575811684E-05
114  1.13  0.  0.  0.
115  1.14  0.  0.  0.
116  1.15  0.  0.  0.
117  1.16  0.  0.  0.
118  1.17  0.  0.  0.
119  1.18  0.  0.  0.
120  1.19  0.  0.  0.
121  1.20  0.  0.  0.
122  1.21  0.  0.  0.
123  1.22  0.  0.  0.
124  1.23  0.  0.  0.
125  1.24  0.  0.  0.
126  1.25  0.  0.  0.
127  1.26  0.  0.  0.
128  1.27  0.  0.  0.
129  1.28  0.  0.  0.
130  1.29  0.  0.  0.
131  1.30  0.  0.  0.
132  1.31  0.  0.  0.
133  1.32  0.  0.  0.
134  1.33  0.  0.  0.
135  1.34  0.  0.  0.
136  1.35  0.  0.  0.
137  1.36  0.  0.  0.
138  1.37  0.  0.  0.
139  1.38  0.  0.  0.
140  1.39  0.  0.  0.
141  1.40  0.  0.  0.
142  1.41  0.  0.  0.
143  1.42  0.  0.  0.
144  1.43  0.  0.  0.
145  1.44  0.  0.  0.
146  1.45  0.  0.  0.
147  1.46  0.  0.  0.
148  1.47  0.  0.  0.
149  1.48  0.  0.  0.
150  1.49  0.  0.  0.
151  1.50  0.  0.  0.
152  1.51  0.  0.  0.
153  1.52  0.  0.  0.
154  1.53  0.  0.  0.
155  1.54  0.  0.  0.
156  1.55  0.  0.  0.
157  1.56  0.  0.  0.
158  1.57  0.  0.  0.
159  1.58  0.  0.  0.
160  1.59  0.  0.  0.
161  1.60  0.  0.  0.
162  1.61  0.  0.  0.
163  1.62  0.  0.  0.
164  1.63  0.  0.  0.
165  1.64  0.  0.  0.
166  1.65  0.  0.  0.
167  1.66  0.  0.  0.
168  1.67  0.  0.  0.
169  1.68  0.  0.  0.
170  1.69  0.  0.  0.
171  1.70  0.  0.  0.
172  1.71  0.  0.  0.
173  1.72  0.  0.  0.
174  1.73  0.  0.  0.
175  1.74  0.  0.  0.
176  1.75  0.  0.  0.
177  1.76  0.  0.  0.
178  1.77  0.  0.  0.
179  1.78  0.  0.  0.
180  1.79  0.  0.  0.
181  1.80  0.  0.  0.
182  1.81  0.  0.  0.
183  1.82  0.  0.  0.
184  1.83  0.  0.  0.
185  1.84  0.  0.  0.
186  1.85  0.  0.  0.
187  1.86  0.  0.  0.
188  1.87  0.  0.  0.
189  1.88  0.  0.  0.
190  1.89  0.  0.  0.
191  1.90  0.  0.  0.
192  1.91  0.  0.  0.
193  1.92  0.  0.  0.
194  1.93  0.  0.  0.
195  1.94  0.  0.  0.
196  1.95  0.  0.  0.
197  1.96  0.  0.  0.
198  1.97  0.  0.  0.
199  1.98  0.  0.  0.
200  1.99  0.  0.  0.
201  2.00  0.  0.  0.
202  2.01  0.  0.  0.
203  2.02  0.  0.  0.
204  2.03  0.  0.  0.
205  2.04  0.  0.  0.
206  2.05  0.  0.  0.
207  2.06  0.  0.  0.
208  2.07  0.  0.  0.
209  2.08  0.  0.  0.
210  2.09  0.  0.  0.
211  2.10  0.  0.  0.
212  2.11  0.  0.  0.
213  2.12  0.  0.  0.
214  2.13  0.  0.  0.
215  2.14  0.  0.  0.
216  2.15  0.  0.  0.
217  2.16  0.  0.  0.
218  2.17  0.  0.  0.
219  2.18  0.  0.  0.
220  2.19  0.  0.  0.
221  2.20  0.  0.  0.
222  2.21  0.  0.  0.
223  2.22  0.  0.  0.
224  2.23  0.  0.  0.
225  2.24  0.  0.  0.
226  2.25  0.  0.  0.
227  2.26  0.  0.  0.
228  2.27  0.  0.  0.
229  2.28  0.  0.  0.
230  2.29  0.  0.  0.
231  2.30  0.  0.  0.
232  2.31  0.  0.  0.
233  2.32  0.  0.  0.
234  2.33  0.  0.  0.
235  2.34  0.  0.  0.
236  2.35  0.  0.  0.
237  2.36  0.  0.  0.
238  2.37  0.  0.  0.
239  2.38  0.  0.  0.
240  2.39  0.  0.  0.
241  2.40  0.  0.  0.
242  2.41  0.  0.  0.
243  2.42  0.  0.  0.
244  2.43  0.  0.  0.
245  2.44  0.  0.  0.
246  2.45  0.  0.  0.
247  2.46  0.  0.  0.
248  2.47  0.  0.  0.
249  2.48  0.  0.  0.
250  2.49  0.  0.  0.
251  2.50  0.  0.  0.
252  2.51  0.  0.  0.
253  2.52  0.  0.  0.
254  2.53  0.  0.  0.
255  2.54  0.  0.  0.
256  2.55  0.  0.  0.
257  2.56  0.  0.  0.
258  2.57  0.  0.  0.
259  2.58  0.  0.  0.
260  2.59  0.  0.  0.
261  2.60  0.  0.  0.
262  2.61  0.  0.  0.
263  2.62  0.  0.  0.
264  2.63  0.  0.  0.
265  2.64  0.  0.  0.
266  2.65  0.  0.  0.
267  2.66  0.  0.  0.
268  2.67  0.  0.  0.
269  2.68  0.  0.  0.
270  2.69  0.  0.  0.
271  2.70  0.  0.  0.
272  2.71  0.  0.  0.
273  2.72  0.  0.  0.
274  2.73  0.  0.  0.
275  2.74  0.  0.  0.
276  2.75  0.  0.  0.
277  2.76  0.  0.  0.
278  2.77  0.  0.  0.
279  2.78  0.  0.  0.
280  2.79  0.  0.  0.
281  2.80  0.  0.  0.
282  2.81  0.  0.  0.
283  2.82  0.  0.  0.
284  2.83  0.  0.  0.
285  2.84  0.  0.  0.
286  2.85  0.  0.  0.
287  2.86  0.  0.  0.
288  2.87  0.  0.  0.
289  2.88  0.  0.  0.
290  2.89  0.  0.  0.
291  2.90  0.  0.  0.
292  2.91  0.  0.  0.
293  2.92  0.  0.  0.
294  2.93  0.  0.  0.
295  2.94  0.  0.  0.
296  2.95  0.  0.  0.
297  2.96  0.  0.  0.
298  2.97  0.  0.  0.
299  2.98  0.  0.  0.
300  2.99  0.  0.  0.
301  3.00  0.  0.  0.
302  3.01  0.  0.  0.
303  3.02  0.  0.  0.
304  3.03  0.  0.  0.
305  3.04  0.  0.  0.
306  3.05  0.  0.  0.
307  3.06  0.  0.  0.
308  3.07  0.  0.  0.
309  3.08  0.  0.  0.
310  3.09  0.  0.  0.
311  3.10  0.  0.  0.
312  3.11  0.  0.  0.
313  3.12  0.  0.  0.
314  3.13  0.  0.  0.
315  3.14  0.  0.  0.
316  3.15  0.  0.  0.
317  3.16  0.  0.  0.
318  3.17  0.  0.  0.
319  3.18  0.  0.  0.
320  3.19  0.  0.  0.
321  3.20  0.  0.  0.
322  3.21  0.  0.  0.
323  3.22  0.  0.  0.
324  3.23  0.  0.  0.
325  3.24  0.  0.  0.
326  3.25  0.  0.  0.
327  3.26  0.  0.  0.
328  3.27  0.  0.  0.
329  3.28  0.  0.  0.
330  3.29  0.  0.  0.
331  3.30  0.  0.  0.
332  3.31  0.  0.  0.
333  3.32  0.  0.  0.
334  3.33  0.  0.  0.
335  3.34  0.  0.  0.
336  3.35  0.  0.  0.
337  3.36  0.  0.  0.
338  3.37  0.  0.  0.
339  3.38  0.  0.  0.
340  3.39  0.  0.  0.
341  3.40  0.  0.  0.
342  3.41  0.  0.  0.
343  3.42  0.  0.  0.
344  3.43  0.  0.  0.
345  3.44  0.  0.  0.
346  3.45  0.  0.  0.
347  3.46  0.  0.  0.
348  3.47  0.  0.  0.
349  3.48  0.  0.  0.
350  3.49  0.  0.  0.
351  3.50  0.  0.  0.
352  3.51  0.  0.  0.
353  3.52  0.  0.  0.
354  3.53  0.  0.  0.
355  3.54  0.  0.  0.
356  3.55  0.  0.  0.
357  3.56  0.  0.  0.
358  3.57  0.  0.  0.
359  3.58  0.  0.  0.
360  3.59  0.  0.  0.
361  3.60  0.  0.  0.
362  3.61  0.  0.  0.
363  3.62  0.  0.  0.
364  3.63  0.  0.  0.
365  3.64  0.  0.  0.
366  3.65  0.  0.  0.
367  3.66  0.  0.  0.
368  3.67  0.  0.  0.
369  3.68  0.  0.  0.
370  3.69  0.  0.  0.
371  3.70  0.  0.  0.
372  3.71  0.  0.  0.
373  3.72  0.  0.  0.
374  3.73  0.  0.  0.
375  3.74  0.  0.  0.
376  3.75  0.  0.  0.
377  3.76  0.  0.  0.
378  3.77  0.  0.  0.
379  3.78  0.  0.  0.
380  3.79  0.  0.  0.
381  3.80  0.  0.  0.
382  3.81  0.  0.  0.
383  3.82  0.  0.  0.
384  3.83  0.  0.  0.
385  3.84  0.  0.  0.
386  3.85  0.  0.  0.
387  3.86  0.  0.  0.
388  3.87  0.  0.  0.
389  3.88  0.  0.  0.
390  3.89  0.  0.  0.
391  3.90  0.  0.  0.
392  3.91  0.  0.  0.
393  3.92  0.  0.  0.
394  3.93  0.  0.  0.
395  3.94  0.  0.  0.
396  3.95  0.  0.  0.
397  3.96  0.  0.  0.
398  3.97  0.  0.  0.
399  3.98  0.  0.  0.
400  3.99  0.  0.  0.
401  4.00  0.  0.  0.
402  4.01  0.  0.  0.
403  4.02  0.  0.  0.
404  4.03  0.  0.  0.
405  4.04  0.  0.  0.
406  4.05  0.  0.  0.
407  4.06  0.  0.  0.
408  4.07  0.  0.  0.
409  4.08  0.  0.  0.
410  4.09  0.  0.  0.
411  4.10  0.  0.  0.
412  4.11  0.  0.  0.
413  4.12  0.  0.  0.
414  4.13  0.  0.  0.
415  4.14  0.  0.  0.
416  4.15  0.  0.  0.
417  4.16  0.  0.  0.
418  4.17  0.  0.  0.
419  4.18  0.  0.  0.
420  4.19  0.  0.  0.
421  4.20  0.  0.  0.
422  4.21  0.  0.  0.
423  4.22  0.  0.  0.
424  4.23  0.  0.  0.
425  4.24  0.  0.  0.
426  4.25  0.  0.  0.
427  4.26  0.  0.  0.
428  4.27  0.  0.  0.
429  4.28  0.  0.  0.
430  4.29  0.  0.  0.
431  4.30  0.  0.  0.
432  4.31  0.  0.  0.
433  4.32  0.  0.  0.
434  4.33  0.  0.  0.
435  4.34  0.  0.  0.
436  4.35  0.  0.  0.
437  4.36  0.  0.  0.
438  4.37  0.  0.  0.
439  4.38  0.  0.  0.
440  4.39  0.  0.  0.
441  4.40  0.  0.  0.
442  4.41  0.  0.  0.
443  4.42  0.  0.  0.
444  4.43  0.  0.  0.
445  4.44  0.  0.  0.
446  4.45  0.  0.  0.
447  4.46  0.  0.  0.
448  4.47  0.  0.  0.
449  4.48  0.  0.  0.
450  4.49  0.  0.  0.
451  4.50  0.  0.  0.
452  4.51  0.  0.  0.
453  4.52  0.  0.  0.
454  4.53  0.  0.  0.
455  4.54  0.  0.  0.
456  4.55  0.  0.  0.
457  4.56  0.  0.  0.
458  4.57  0.  0.  0.
459  4.58  0.  0.  0.
460  4.59  0.  0.  0.
461  4.60  0.  0.  0.
462  4.61  0.  0.  0.
463  4.62  0.  0.  0.
464  4.63  0.  0.  0.
465  4.64  0.  0.  0.
466  4.65  0.  0.  0.
467  4.66  0.  0.  0.
468  4.67  0.  0.  0.
469  4.68  0.  0.  0.
470  4.69  0.  0.  0.
471  4.70  0.  0.  0.
472  4.71  0.  0.  0.
473  4.72  0.  0.  0.
474  4.73  0.  0.  0.
475  4.74  0.  0.  0.
476  4.75  0.  0.  0.
477  4.76  0.  0.  0.
478  4.77  0.  0.  0.
479  4.78  0.  0.  0.
480  4.79  0.  0.  0.
481  4.80  0.  0.  0.
482  4.81  0.  0.  0.
483  4.82  0.  0.  0.
484  4.83  0.  0.  0.
485  4.84  0.  0.  0.
486  4.85  0.  0.  0.
487  4.86  0.  0.  0.
488  4.87  0.  0.  0.
489  4.88  0.  0.  0.
490  4.89  0.  0.  0.
491  4.90  0.  0.  0.
492  4.91  0.  0.  0.
493  4.92  0.  0.  0.
494  4.93  0.  0.  0.
495  4.94  0.  0.  0.
496  4.95  0.  0.  0.
497  4.96  0.  0.  0.
498  4.97  0.  0.  0.
499  4.98  0.  0.  0.
500  4.99  0.  0.  0.
501  5.00  0.  0.  0.
502  5.01  0.  0.  0.
503  5.02  0.  0.  0.
504  5.03  0.  0.  0.
505  5.04  0.  0.  0.
506  5.05  0.  0.  0.
507  5.06  0.  0.  0.
508  5.07  0.  0.  0.
509  5.08  0.  0.  0.
510  5.09  0.  0.  0.
511  5.10  0.  0.  0.
512  5.11  0.  0.  0.
513  5.12  0.  0.  0.
514  5.13  0.  0.  0.
515  5.14  0.  0.  0.
516  5.15  0.  0.  0.
517  5.16  0.  0.  0.
518  5.17  0.  0.  0.
519  5.18  0.  0.  0.
520  5.19  0.  0.  0.
521  5.20  0.  0.  0.
522  5.21  0.  0.  0.
523  5.22  0.  0.  0.
524  5.23  0.  0.  0.
525  5.24  0.  0.  0.
526  5.25  0.  0.  0.
527  5.26  0.  0.  0.
528  5.27  0.  0.  0.
529  5.28  0.  0.  0.
530  5.29  0.  0.  0.
531  5.30  0.  0.  0.
532  5.31  0.  0.  0.
533  5.32  0.  0.  0.
534  5.33  0.  0.  0.
535  5.34  0.  0.  0.
536  5.35  0.  0.  0.
537  5.36  0.  0.  0.
538  5.37  0.  0.  0.
539  5.38  0.  0.  0.
540  5.39  0.  0.  0.
541  5.40  0.  0.  0.
542  5.41  0.  0.  0.
543  5.42  0.  0.  0.
544  5.43  0.  0.  0.
545  5.44  0.  0.  0.
546  5.45  0.  0.  0.
547  5.46  0.  0.  0.
548  5.47  0.  0.  0.
549  5.48  0.  0.  0.
550  5.49  0.  0.  0.
551  5.50  0.  0.  0.
552  5.51  0.  0.  0.
553  5.52  0.  0.  0.
554  5.53  0.  0.  0.
555  5.54  0.  0.  0.
556  5.55  0.  0.  0.
557  5.56  0.  0.  0.
558  5.57  0.  0.  0.
559  5.58  0.  0.  0.
560  5.59  0.  0.  0.
561  5.60  0.  0.  0.
562  5.61  0.  0.  0.
563  5.62  0.  0.  0.
564  5.63  0.  0.  0.
565  5.64  0.  0.  0.
566  5.65  0.  0.  0.
567  5.66  0.  0.  0.
568  5.67  0.  0.  0.
569  5.68  0.  0.  0.
570  5.69  0.  0.  0.
571  5.70  0.  0.  0.
572  5.71  0.  0.  0.
573  5.72  0.  0.  0.
574  5.73  0.  0.  0.
575  5.74  0.  0.  0.
576  5.75  0.  0.  0.
577  5.76  0.  0.  0.
578  5.77  0.  0.  0.
579  5.78  0.  0.  0.
580  5.79  0.  0.  0.
581  5.80  0.  0.  0.
582  5.81  0.  0.  0.
583  5.82  0.  0.  0.
584  5.83  0.  0.  0.
585  5.84  0.  0.  0.
586  5.85  0.  0.  0.
587  5.86  0.  0.  0.
588  5.87  0.  0.  0.
589  5.88  0.  0.  0.
590  5.89  0.  0.  0.
591  5.90  0.  0.  0.
592  5.91  0.  0.  0.
593  5.92  0.  0.  0.
594  5.93  0.  0.  0.
595  5.94  0.  0.  0.
596  5.95  0.  0.  0.
597  5.96  0.  0.  0.
598  5.97  0.  0.  0.
599  5.98  0.  0.  0.
600  5.99  0.  0.  0.
1                        -8.4122459064869E+00 -8.3488939813766E-01
1  0.0000000000000E+00  3.4903528400854E-09 -7.0905681298639E-07
2  1.0000000000000E-02  2.4307880405964E-03 -4.3199778293816E-03
3  2.0000000000000E-02  9.7071789013838E-03 -1.7018641606521E-02
4  3.0000000000000E-02  2.1781397480195E-02 -3.7324208289061E-02
5  4.0000000000000E-02  3.8574298700088E-02 -6.3989933682987E-02
6  5.0000000000000E-02  5.9976080089365E-02 -9.5351635062610E-02
7  6.0000000000000E-02  8.5847264474412E-02 -1.2940466595399E-01
8  7.0000000000000E-02  1.1601993832749E-01 -1.6389697054637E-01
9  8.0000000000000E-02  1.5029922782130E-01 -1.9643413613921E-01
10  9.0000000000000E-02  1.8846499160074E-01 -2.2459182881547E-01
11  1.0000000000000E-01  2.3027370675625E-01 -2.4603066329961E-01
12  1.1000000000000E-01  2.7546052252057E-01 -2.5860843737090E-01
13  1.2000000000000E-01  3.2374145484127E-01 -2.6048475979850E-01
14  1.3000000000000E-01  3.7481569421336E-01 -2.5021341472033E-01
15  1.4000000000000E-01  4.2836799897946E-01 -2.2681832167321E-01
16  1.5000000000000E-01  4.8407114668890E-01 -1.8984964739293E-01
17  1.6000000000000E-01  5.4158841700496E-01 -1.3941747358130E-01
18  1.7000000000000E-01  6.0057608099796E-01 -7.6201388105267E-02
19  1.8000000000000E-01  6.6068587338761E-01 -1.4354045689353E-03
20  1.9000000000000E-01  7.2156742631634E-01  8.3131317369258E-02
21  2.0000000000000E-01  7.8287064545734E-01  1.7529642683218E-01
22  2.1000000000000E-01  8.4424801159692E-01  2.7248649670801E-01
23  2.2000000000000E-01  9.0535679319147E-01  3.7185589638826E-01
24  2.3000000000000E-01  9.6586115770180E-01  4.7039827441967E-01
25  2.4000000000000E-01  1.0254341716792E+00  5.6506593226587E-01
26  2.5000000000000E-01  1.0837596815542E+00  6.5289199915174E-01
27  2.6000000000000E-01  1.1405340688162E+00  7.3111016336318E-01
28  2.7000000000000E-01  1.1954678747302E+00  7.9726678517211E-01
29  2.8000000000000E-01  1.2482872909108E+00  8.4932050905206E-01
30  2.9000000000000E-01  1.2987355129509E+00  8.8572499690763E-01
31  3.0000000000000E-01  1.3465739549102E+00  9.0549109952364E-01
32  3.1000000000000E-01  1.3915833228298E+00  9.0822564200702E-01
33  3.2000000000000E-01  1.4335645456060E+00  8.9414498526682E-01
34  3.3000000000000E-01  1.4723395615686E+00  8.6406259856924E-01
35  3.4000000000000E-01  1.5077519590466E+00  8.1935099303065E-01
36  3.5000000000000E-01  1.5396674691133E+00  7.6187947561901E-01
37  3.6000000000000E-01  1.5679743086600E+00  6.9393024076909E-01
38  3.7000000000000E-01  1.5925833720127E+00  6.1809627687106E-01
39  3.8000000000000E-01  1.6134282695338E+00  5.3716538619660E-01
40  3.9000000000000E-01  1.6304652120870E+00  4.5399526329991E-01
41  4.0000000000000E-01  1.6436727409276E+00  3.7138501960016E-01
42  4.1000000000000E-01  1.6530513035285E+00  2.9194876000453E-01
43  4.2000000000000E-01  1.6586226770738E+00  2.1799679952389E-01
44  4.3000000000000E-01  1.6604292428323E+00  1.5142985204131E-01
45  4.4000000000000E-01  1.6585331163416E+00  9.3651037752440E-02
46  4.5000000000000E-01  1.6530151402444E+00  4.5499857955575E-02
47  4.6000000000000E-01  1.6439737486680E+00  7.2114024449646E-03
48  4.7000000000000E-01  1.6315237141550E+00 -2.1596979681390E-02
49  4.8000000000000E-01  1.6157947902702E+00 -4.1910459270525E-02
50  4.9000000000000E-01  1.5969302650334E+00 -5.5273077846632E-02
51  5.0000000000000E-01  1.5750854421810E+00 -6.3717013569222E-02
52  5.1000000000000E-01  1.5504260688588E+00 -6.9667292324732E-02
53  5.2000000000000E-01  1.5231267296100E+00 -7.5825574251862E-02
54  5.3000000000000E-01  1.4933692273858E+00 -8.5037613842863E-02
55  5.4000000000000E-01  1.4613409727004E+00 -1.0014978511210E-01
56  5.5000000000000E-01  1.4272334019514E+00 -1.2386064676988E-01
57  5.6000000000000E-01  1.3912404452893E+00 -1.5857386852562E-01
58  5.7000000000000E-01  1.3535570632491E+00 -2.0625893047415E-01
59  5.8000000000000E-01  1.3143778696683E+00 -2.6832583496495E-01
60  5.9000000000000E-01  1.2738958562315E+00 -3.4551963693645E-01
61  6.0000000000000E-01  1.2323012313733E+00 -4.3783991749362E-01
62  6.1000000000000E-01  1.1897803832934E+00 -5.4448941977915E-01
63  6.2000000000000E-01  1.1465149735934E+00 -6.6385496858558E-01
64  6.3000000000000E-01  1.1026811646243E+00 -7.9352254653618E-01
65  6.4000000000000E-01  1.0584489801557E+00 -9.3032704761960E-01
66  6.5000000000000E-01  1.0139817955570E+00 -1.0704358258293E+00
67  6.6000000000000E-01  9.6943595043346E-01 -1.2094637580629E+00
68  6.7000000000000E-01  9.2496047370214E-01 -1.3426162024142E+00
69  6.8000000000000E-01  8.8069690853877E-01 -1.4648550101294E+00
70  6.9000000000000E-01  8.3677922255595E-01 -1.5710816929982E+00
71  7.0000000000000E-01  7.9333378708406E-01 -1.6563310029612E+00
72  7.1000000000000E-01  7.5047940856436E-01 -1.7159675851428E+00
73  7.2000000000000E-01  7.0832739487395E-01 -1.7458780478199E+00
74  7.3000000000000E-01  6.6698163989512E-01 -1.7426507711635E+00
75  7.4000000000000E-01  6.2653871080524E-01 -1.7037360577005E+00
76  7.5000000000000E-01  5.8708792435976E-01 -1.6275798063097E+00
77  7.6000000000000E-01  5.4871140080638E-01 -1.5137247512824E+00
78  7.7000000000000E-01  5.1148408691701E-01 -1.3628744205604E+00
79  7.8000000000000E-01  4.7547374284854E-01 -1.1769162939114E+00
80  7.9000000000000E-01  4.4074089101937E-01 -9.5890213499019E-01
81  8.0000000000000E-01  4.0733872877941E-01 -7.1298507579158E-01
82  8.1000000000000E-01  3.7531301021208E-01 -4.4431468754498E-01
83  8.2000000000000E-01  3.4470190578995E-01 -1.5889291507519E-01
84  8.3000000000000E-01  3.1553585166744E-01  1.3660468221115E-01
85  8.4000000000000E-01  2.8783740299764E-01  4.3503651259064E-01
86  8.5000000000000E-01  2.6162110768503E-01  7.2902425778996E-01
87  8.6000000000000E-01  2.3689341832808E-01  1.0111958217043E+00
88  8.7000000000000E-01  2.1365266068687E-01  1.2744331522922E+00
89  8.8000000000000E-01  1.9188907677796E-01  1.5121158014135E+00
90  8.9000000000000E-01  1.7158495963033E-01  1.7183510658745E+00
91  9.0000000000000E-01  1.5271489484107E-01  1.8881818825787E+00
92  9.1000000000000E-01  1.3524612138917E-01  2.0177643251498E+00
93  9.2000000000000E-01  1.1913902077222E-01  2.1045075489730E+00
94  9.3000000000000E-01  1.0434773952815E-01  2.1471703232877E+00
95  9.4000000000000E-01  9.0820945717710E-02  2.1459098287136E+00
96  9.5000000000000E-01  7.8502715126973E-02  2.1022801308297E+00
97  9.6000000000000E-01  6.7333537969108E-02  2.0191796023244E+00
98  9.7000000000000E-01  5.7251431899287E-02  1.9007484885543E+00
99  9.8000000000000E-01  4.8193142392924E-02  1.7522197205342E+00
100  9.9000000000000E-01  4.0095407152026E-02  1.5797279039924E+00
101  1.0000000000000E+00  3.2896257375477E-02  1.3900830800169E+00
102  1.0100000000000E+00  2.6536325610493E-02  1.1905172974104E+00
103  1.0200000000000E+00  2.0960127630040E-02  9.8841320048857E-01
104  1.0300000000000E+00  1.6117284344119E-02  7.9102485215689E-01
105  1.0400000000000E+00  1.1963649043030E-02  6.0519988024940E-01
106  1.0500000000000E+00  8.4623470649432E-03  4.3708343149020E-01
107  1.0600000000000E+00  5.5843564883162E-03  2.9133365199507E-01
108  1.0700000000000E+00  3.3080318041651E-03  1.7233085614287E-01
109  1.0800000000000E+00  1.6222062172001E-03  8.3448118905370E-02
110  1.0900000000000E+00  5.2630839516014E-04  2.6440957131287E-02
111  1.1000000000000E+00  3.6022687770111E-05  1.7461661937421E-03
112  1.1100000000000E+00  3.6353398253242E-07  1.7628757305541E-05
113  1.1200000000000E+00 -3.4481877243650E-07 -1.6951815443150E-05
114  1.13  0.  0.
115  1.14  0.  0.
116  1.15  0.  0.
117  1.16  0.  0.
118  1.17  0.  0.
119  1.18  0.  0.
120  1.19  0.  0.
121  1.20  0.  0.
122  1.21  0.  0.
123  1.22  0.  0.
124  1.23  0.  0.
125  1.24  0.  0.
126  1.25  0.  0.
127  1.26  0.  0.
128  1.27  0.  0.
129  1.28  0.  0.
130  1.29  0.  0.
131  1.30  0.  0.
132  1.31  0.  0.
133  1.32  0.  0.
134  1.33  0.  0.
135  1.34  0.  0.
136  1.35  0.  0.
137  1.36  0.  0.
138  1.37  0.  0.
139  1.38  0.  0.
140  1.39  0.  0.
141  1.40  0.  0.
142  1.41  0.  0.
143  1.42  0.  0.
144  1.43  0.  0.
145  1.44  0.  0.
146  1.45  0.  0.
147  1.46  0.  0.
148  1.47  0.  0.
149  1.48  0.  0.
150  1.49  0.  0.
151  1.50  0.  0.
152  1.51  0.  0.
153  1.52  0.  0.
154  1.53  0.  0.
155  1.54  0.  0.
156  1.55  0.  0.
157  1.56  0.  0.
158  1.57  0.  0.
159  1.58  0.  0.
160  1.59  0.  0.
161  1.60  0.  0.
162  1.61  0.  0.
163  1.62  0.  0.
164  1.63  0.  0.
165  1.64  0.  0.
166  1.65  0.  0.
167  1.66  0.  0.
168  1.67  0.  0.
169  1.68  0.  0.
170  1.69  0.  0.
171  1.70  0.  0.
172  1.71  0.  0.
173  1.72  0.  0.
174  1.73  0.  0.
175  1.74  0.  0.
176  1.75  0.  0.
177  1.76  0.  0.
178  1.77  0.  0.
179  1.78  0.  0.
180  1.79  0.  0.
181  1.80  0.  0.
182  1.81  0.  0.
183  1.82  0.  0.
184  1.83  0.  0.
185  1.84  0.  0.
186  1.85  0.  0.
187  1.86  0.  0.
188  1.87  0.  0.
189  1.88  0.  0.
190  1.89  0.  0.
191  1.90  0.  0.
192  1.91  0.  0.
193  1.92  0.  0.
194  1.93  0.  0.
195  1.94  0.  0.
196  1.95  0.  0.
197  1.96  0.  0.