Db    ONCVPSP-4.0.1  r_core=   1.00240   1.00240   1.00240   1.10309
105.0000     45.0000      220326    zatom,zion,pspd
8      11   3     4   600     0    pspcod,pspxc,lmax,lloc,mmax,r2well
5.99000000  5.00000000  0.00000000    rchrg fchrg qchrg
3     2     2     2     0    nproj
1     1           extension_switch
0                         3.1246701300085E+01  2.6555497257201E+00 -2.1868092708572E+00
1  0.0000000000000E+00 -2.1841680797330E-07 -8.0134780433561E-07 -1.0152134494179E-07
2  1.0000000000000E-02  2.0557265620794E-01  8.7772234232748E-02  3.9762798692645E-02
3  2.0000000000000E-02  4.0896569560557E-01  1.7258830620374E-01  7.9230023634304E-02
4  3.0000000000000E-02  6.0804152323437E-01  2.5159808757060E-01  1.1811847725077E-01
5  4.0000000000000E-02  8.0074518284551E-01  3.2215882176707E-01  1.5616913123684E-01
6  5.0000000000000E-02  9.8514222572937E-01  3.8192729806332E-01  1.9315778247335E-01
7  6.0000000000000E-02  1.1594526093663E+00  4.2893883919880E-01  2.2890407417314E-01
8  7.0000000000000E-02  1.3220795776430E+00  4.6166971932762E-01  2.6327846575167E-01
9  8.0000000000000E-02  1.4716326927958E+00  4.7908043036464E-01  2.9620683643890E-01
10  9.0000000000000E-02  1.6069444415544E+00  4.8063813775152E-01  3.2767252439604E-01
11  1.0000000000000E-01  1.7270801119454E+00  4.6631766476736E-01  3.5771572910066E-01
12  1.1000000000000E-01  1.8313409196809E+00  4.3658136776697E-01  3.8643033359526E-01
13  1.2000000000000E-01  1.9192606405163E+00  3.9233926208313E-01  4.1395832831683E-01
14  1.3000000000000E-01  1.9905962642929E+00  3.3489168030152E-01  4.4048213332656E-01
15  1.4000000000000E-01  2.0453134155236E+00  2.6585754583376E-01  4.6621521507658E-01
16  1.5000000000000E-01  2.0835674738882E+00  1.8709198619925E-01  4.9139147247367E-01
17  1.6000000000000E-01  2.1056814676002E+00  1.0059746155325E-01  5.1625392111250E-01
18  1.7000000000000E-01  2.1121218975213E+00  8.4328239733554E-03  5.4104323162758E-01
19  1.8000000000000E-01  2.1034736772072E+00 -8.7375258109813E-02  5.6598667703627E-01
20  1.9000000000000E-01  2.0804153436991E+00 -1.8491427690977E-01  5.9128801505173E-01
21  2.0000000000000E-01  2.0436956086870E+00 -2.8245743870825E-01  6.1711877639680E-01
22  2.1000000000000E-01  1.9941121851705E+00 -3.7852156193057E-01  6.4361135222546E-01
23  2.2000000000000E-01  1.9324936488219E+00 -4.7190883436182E-01  6.7085417708416E-01
24  2.3000000000000E-01  1.8596848857337E+00 -5.6173080418497E-01  6.9888919355874E-01
25  2.4000000000000E-01  1.7765364503360E+00 -6.4741390924211E-01  7.2771166663234E-01
26  2.5000000000000E-01  1.6838979210115E+00 -7.2868680079145E-01  7.5727229593285E-01
27  2.6000000000000E-01  1.5826151085462E+00 -8.0555064413355E-01  7.8748145859716E-01
28  2.7000000000000E-01  1.4735307557949E+00 -8.7823443278510E-01  8.1821531024092E-01
29  2.8000000000000E-01  1.3574881765558E+00 -9.4713809354658E-01  8.4932338171256E-01
30  2.9000000000000E-01  1.2353371268280E+00 -1.0127667512319E+00  8.8063723928862E-01
31  3.0000000000000E-01  1.1079410895559E+00 -1.0756599363617E+00  9.1197972901459E-01
32  3.1000000000000E-01  9.7618508951615E-01 -1.1363197383007E+00  9.4317430407450E-01
33  3.2000000000000E-01  8.4098314052178E-01 -1.1951419217355E+00  9.7405393812354E-01
34  3.3000000000000E-01  7.0328446235445E-01 -1.2523538378394E+00  1.0044691568593E+00
35  3.4000000000000E-01  5.6407768700406E-01 -1.3079625848529E+00  1.0342947728663E+00
36  3.5000000000000E-01  4.2439239778370E-01 -1.3617163271850E+00  1.0634349819152E+00
37  3.6000000000000E-01  2.8529750353457E-01 -1.4130809967393E+00  1.0918265684099E+00
38  3.7000000000000E-01  1.4789613466467E-01 -1.4612338105880E+00  1.1194400687540E+00
39  3.8000000000000E-01  1.3316948237336E-02 -1.5050741856283E+00  1.1462788487564E+00
40  3.9000000000000E-01 -1.1729806481508E-01 -1.5432517561785E+00  1.1723761592748E+00
41  4.0000000000000E-01 -2.4280897667376E-01 -1.5742103477350E+00  1.1977903376211E+00
42  4.1000000000000E-01 -3.6209604496014E-01 -1.5962459706148E+00  1.2225984156872E+00
43  4.2000000000000E-01 -4.7407992103238E-01 -1.6075762085106E+00  1.2468884747209E+00
44  4.3000000000000E-01 -5.7774317680354E-01 -1.6064178210450E+00  1.2707511474628E+00
45  4.4000000000000E-01 -6.7215229305234E-01 -1.5910689812014E+00  1.2942707081636E+00
46  4.5000000000000E-01 -7.5647920509163E-01 -1.5599923448417E+00  1.3175162082167E+00
47  4.6000000000000E-01 -8.3002149883956E-01 -1.5118951085012E+00  1.3405331092669E+00
48  4.7000000000000E-01 -8.9222039134772E-01 -1.4458023523037E+00  1.3633358374090E+00
49  4.8000000000000E-01 -9.4267571207388E-01 -1.3611202775138E+00  1.3859016332946E+00
50  4.9000000000000E-01 -9.8115722002773E-01 -1.2576864151035E+00  1.4081660064395E+00
51  5.0000000000000E-01 -1.0076117410385E+00 -1.1358044779084E+00  1.4300200214615E+00
52  5.1000000000000E-01 -1.0221657810924E+00 -9.9626222387877E-01  1.4513095536763E+00
53  5.2000000000000E-01 -1.0251234573136E+00 -8.4033145693946E-01  1.4718365561767E+00
54  5.3000000000000E-01 -1.0169597785674E+00 -6.6975007804072E-01  1.4913622850991E+00
55  5.4000000000000E-01 -9.9830949365429E-01 -4.8668687466147E-01  1.5096123390369E+00
56  5.5000000000000E-01 -9.6995189789953E-01 -2.9369046620630E-01  1.5262832869567E+00
57  5.6000000000000E-01 -9.3279214071354E-01 -9.3624472420633E-02  1.5410505904109E+00
58  5.7000000000000E-01 -8.8783970074436E-01  1.1040848626525E-01  1.5535774734793E+00
59  5.8000000000000E-01 -8.3618478644008E-01  3.1515093613335E-01  1.5635243599689E+00
60  5.9000000000000E-01 -7.7897347481404E-01  5.1727955957541E-01  1.5705584832241E+00
61  6.0000000000000E-01 -7.1738241848493E-01  7.1349566952584E-01  1.5743632796631E+00
62  6.1000000000000E-01 -6.5259393108332E-01  9.0061379543172E-01  1.5746472020465E+00
63  6.2000000000000E-01 -5.8577220616633E-01  1.0756452184273E+00  1.5711516307021E+00
64  6.3000000000000E-01 -5.1804133883937E-01  1.2358736182629E+00  1.5636576178144E+00
65  6.4000000000000E-01 -4.5046570777725E-01  1.3789204330347E+00  1.5519912680571E+00
66  6.5000000000000E-01 -3.8403314482252E-01  1.5027980598073E+00  1.5360276343944E+00
67  6.6000000000000E-01 -3.1964117715644E-01  1.6059496111105E+00  1.5156930865828E+00
68  6.7000000000000E-01 -2.5808648090677E-01  1.6872745581773E+00  1.4909661874489E+00
69  6.8000000000000E-01 -2.0005754265721E-01  1.7461402053775E+00  1.4618771842347E+00
70  6.9000000000000E-01 -1.4613039395350E-01  1.7823795211196E+00  1.4285062853418E+00
71  7.0000000000000E-01 -9.6767170038167E-02  1.7962763707558E+00  1.3909809434187E+00
72  7.1000000000000E-01 -5.2317153118328E-02  1.7885396324973E+00  1.3494724013116E+00
73  7.2000000000000E-01 -1.3019896534540E-02  1.7602680088215E+00  1.3041917762214E+00
74  7.3000000000000E-01  2.0990008169958E-02  1.7129075595671E+00  1.2553859586116E+00
75  7.4000000000000E-01  4.9676963118120E-02  1.6482040713842E+00  1.2033335860891E+00
76  7.5000000000000E-01  7.3097610665215E-02  1.5681523400670E+00  1.1483413196073E+00
77  7.6000000000000E-01  9.1393656555716E-02  1.4749442824077E+00  1.0907406017456E+00
78  7.7000000000000E-01  1.0478455335784E-01  1.3709175229101E+00  1.0308850170007E+00
79  7.8000000000000E-01  1.1356022989274E-01  1.2585057333303E+00  9.6914830508811E-01
80  7.9000000000000E-01  1.1807394000482E-01  1.1401915586789E+00  9.0592300361942E-01
81  8.0000000000000E-01  1.1873518312038E-01  1.0184624639485E+00  8.4161961983635E-01
82  8.1000000000000E-01  1.1600252562927E-01  8.9576930482555E-01  7.7666615592596E-01
83  8.2000000000000E-01  1.1037603202210E-01  7.7448688663772E-01  7.1150774217650E-01
84  8.3000000000000E-01  1.0238890326249E-01  6.5687525149376E-01  6.4660606982028E-01
85  8.4000000000000E-01  9.2597821616577E-02  5.4503994456957E-01  5.8243826323472E-01
86  8.5000000000000E-01  8.1571419673749E-02  4.4088907440977E-01  5.1949479096012E-01
87  8.6000000000000E-01  6.9876229000357E-02  3.4608461285169E-01  4.5827598771285E-01
88  8.7000000000000E-01  5.8059421994019E-02  2.6198508748384E-01  3.9928674543218E-01
89  8.8000000000000E-01  4.6627639065185E-02  1.8957660882528E-01  3.4302892985441E-01
90  8.9000000000000E-01  3.6021189024255E-02  1.2938903474443E-01  2.8999108934694E-01
91  9.0000000000000E-01  2.6582943933890E-02  8.1394130591716E-02  2.4063503855329E-01
92  9.1000000000000E-01  1.8525697901640E-02  4.4908073108813E-02  1.9537779868592E-01
93  9.2000000000000E-01  1.1945973942440E-02  1.8764596969854E-02  1.5456195308005E-01
94  9.3000000000000E-01  6.8626386599331E-03  1.5968176765698E-03  1.1843915152104E-01
95  9.4000000000000E-01  3.2236771011752E-03 -8.0885882870148E-03  8.7173477651738E-02
96  9.5000000000000E-01  9.0971287794889E-04 -1.1862858144148E-02  6.0846775436993E-02
97  9.6000000000000E-01 -3.4379570701824E-04 -1.1592039323830E-02  3.9381033609213E-02
98  9.7000000000000E-01 -8.5105931154241E-04 -9.1142400338026E-03  2.2625777739537E-02
99  9.8000000000000E-01 -7.6206571590143E-04 -5.5181650285730E-03  1.0591600232994E-02
100  9.9000000000000E-01 -3.5469796002842E-04 -2.0559099005256E-03  3.1652083073351E-03
101  1.0000000000000E+00 -2.3996589573333E-05 -1.1908687096955E-04  1.4993594511564E-04
102  1.0100000000000E+00 -1.4098975030465E-06 -7.0023692121470E-06  8.7739351202442E-06
103  1.0200000000000E+00  7.1588419081005E-08  3.7357204444915E-07 -5.0378002514853E-07
104  1.03  0.  0.  0.
105  1.04  0.  0.  0.
106  1.05  0.  0.  0.
107  1.06  0.  0.  0.
108  1.07  0.  0.  0.
109  1.08  0.  0.  0.
110  1.09  0.  0.  0.
111  1.10  0.  0.  0.
112  1.11  0.  0.  0.
113  1.12  0.  0.  0.
114  1.13  0.  0.  0.
115  1.14  0.  0.  0.
116  1.15  0.  0.  0.
117  1.16  0.  0.  0.
118  1.17  0.  0.  0.
119  1.18  0.  0.  0.
120  1.19  0.  0.  0.
121  1.20  0.  0.  0.
122  1.21  0.  0.  0.
123  1.22  0.  0.  0.
124  1.23  0.  0.  0.
125  1.24  0.  0.  0.
126  1.25  0.  0.  0.
127  1.26  0.  0.  0.
128  1.27  0.  0.  0.
129  1.28  0.  0.  0.
130  1.29  0.  0.  0.
131  1.30  0.  0.  0.
132  1.31  0.  0.  0.
133  1.32  0.  0.  0.
134  1.33  0.  0.  0.
135  1.34  0.  0.  0.
136  1.35  0.  0.  0.
137  1.36  0.  0.  0.
138  1.37  0.  0.  0.
139  1.38  0.  0.  0.
140  1.39  0.  0.  0.
141  1.40  0.  0.  0.
142  1.41  0.  0.  0.
143  1.42  0.  0.  0.
144  1.43  0.  0.  0.
145  1.44  0.  0.  0.
146  1.45  0.  0.  0.
147  1.46  0.  0.  0.
148  1.47  0.  0.  0.
149  1.48  0.  0.  0.
150  1.49  0.  0.  0.
151  1.50  0.  0.  0.
152  1.51  0.  0.  0.
153  1.52  0.  0.  0.
154  1.53  0.  0.  0.
155  1.54  0.  0.  0.
156  1.55  0.  0.  0.
157  1.56  0.  0.  0.
158  1.57  0.  0.  0.
159  1.58  0.  0.  0.
160  1.59  0.  0.  0.
161  1.60  0.  0.  0.
162  1.61  0.  0.  0.
163  1.62  0.  0.  0.
164  1.63  0.  0.  0.
165  1.64  0.  0.  0.
166  1.65  0.  0.  0.
167  1.66  0.  0.  0.
168  1.67  0.  0.  0.
169  1.68  0.  0.  0.
170  1.69  0.  0.  0.
171  1.70  0.  0.  0.
172  1.71  0.  0.  0.
173  1.72  0.  0.  0.
174  1.73  0.  0.  0.
175  1.74  0.  0.  0.
176  1.75  0.  0.  0.
177  1.76  0.  0.  0.
178  1.77  0.  0.  0.
179  1.78  0.  0.  0.
180  1.79  0.  0.  0.
181  1.80  0.  0.  0.
182  1.81  0.  0.  0.
183  1.82  0.  0.  0.
184  1.83  0.  0.  0.
185  1.84  0.  0.  0.
186  1.85  0.  0.  0.
187  1.86  0.  0.  0.
188  1.87  0.  0.  0.
189  1.88  0.  0.  0.
190  1.89  0.  0.  0.
191  1.90  0.  0.  0.
192  1.91  0.  0.  0.
193  1.92  0.  0.  0.
194  1.93  0.  0.  0.
195  1.94  0.  0.  0.
196  1.95  0.  0.  0.
197  1.96  0.  0.  0.
198  1.97  0.  0.  0.
199  1.98  0.  0.  0.
200  1.99  0.  0.  0.
201  2.00  0.  0.  0.
202  2.01  0.  0.  0.
203  2.02  0.  0.  0.
204  2.03  0.  0.  0.
205  2.04  0.  0.  0.
206  2.05  0.  0.  0.
207  2.06  0.  0.  0.
208  2.07  0.  0.  0.
209  2.08  0.  0.  0.
210  2.09  0.  0.  0.
211  2.10  0.  0.  0.
212  2.11  0.  0.  0.
213  2.12  0.  0.  0.
214  2.13  0.  0.  0.
215  2.14  0.  0.  0.
216  2.15  0.  0.  0.
217  2.16  0.  0.  0.
218  2.17  0.  0.  0.
219  2.18  0.  0.  0.
220  2.19  0.  0.  0.
221  2.20  0.  0.  0.
222  2.21  0.  0.  0.
223  2.22  0.  0.  0.
224  2.23  0.  0.  0.
225  2.24  0.  0.  0.
226  2.25  0.  0.  0.
227  2.26  0.  0.  0.
228  2.27  0.  0.  0.
229  2.28  0.  0.  0.
230  2.29  0.  0.  0.
231  2.30  0.  0.  0.
232  2.31  0.  0.  0.
233  2.32  0.  0.  0.
234  2.33  0.  0.  0.
235  2.34  0.  0.  0.
236  2.35  0.  0.  0.
237  2.36  0.  0.  0.
238  2.37  0.  0.  0.
239  2.38  0.  0.  0.
240  2.39  0.  0.  0.
241  2.40  0.  0.  0.
242  2.41  0.  0.  0.
243  2.42  0.  0.  0.
244  2.43  0.  0.  0.
245  2.44  0.  0.  0.
246  2.45  0.  0.  0.
247  2.46  0.  0.  0.
248  2.47  0.  0.  0.
249  2.48  0.  0.  0.
250  2.49  0.  0.  0.
251  2.50  0.  0.  0.
252  2.51  0.  0.  0.
253  2.52  0.  0.  0.
254  2.53  0.  0.  0.
255  2.54  0.  0.  0.
256  2.55  0.  0.  0.
257  2.56  0.  0.  0.
258  2.57  0.  0.  0.
259  2.58  0.  0.  0.
260  2.59  0.  0.  0.
261  2.60  0.  0.  0.
262  2.61  0.  0.  0.
263  2.62  0.  0.  0.
264  2.63  0.  0.  0.
265  2.64  0.  0.  0.
266  2.65  0.  0.  0.
267  2.66  0.  0.  0.
268  2.67  0.  0.  0.
269  2.68  0.  0.  0.
270  2.69  0.  0.  0.
271  2.70  0.  0.  0.
272  2.71  0.  0.  0.
273  2.72  0.  0.  0.
274  2.73  0.  0.  0.
275  2.74  0.  0.  0.
276  2.75  0.  0.  0.
277  2.76  0.  0.  0.
278  2.77  0.  0.  0.
279  2.78  0.  0.  0.
280  2.79  0.  0.  0.
281  2.80  0.  0.  0.
282  2.81  0.  0.  0.
283  2.82  0.  0.  0.
284  2.83  0.  0.  0.
285  2.84  0.  0.  0.
286  2.85  0.  0.  0.
287  2.86  0.  0.  0.
288  2.87  0.  0.  0.
289  2.88  0.  0.  0.
290  2.89  0.  0.  0.
291  2.90  0.  0.  0.
292  2.91  0.  0.  0.
293  2.92  0.  0.  0.
294  2.93  0.  0.  0.
295  2.94  0.  0.  0.
296  2.95  0.  0.  0.
297  2.96  0.  0.  0.
298  2.97  0.  0.  0.
299  2.98  0.  0.  0.
300  2.99  0.  0.  0.
301  3.00  0.  0.  0.
302  3.01  0.  0.  0.
303  3.02  0.  0.  0.
304  3.03  0.  0.  0.
305  3.04  0.  0.  0.
306  3.05  0.  0.  0.
307  3.06  0.  0.  0.
308  3.07  0.  0.  0.
309  3.08  0.  0.  0.
310  3.09  0.  0.  0.
311  3.10  0.  0.  0.
312  3.11  0.  0.  0.
313  3.12  0.  0.  0.
314  3.13  0.  0.  0.
315  3.14  0.  0.  0.
316  3.15  0.  0.  0.
317  3.16  0.  0.  0.
318  3.17  0.  0.  0.
319  3.18  0.  0.  0.
320  3.19  0.  0.  0.
321  3.20  0.  0.  0.
322  3.21  0.  0.  0.
323  3.22  0.  0.  0.
324  3.23  0.  0.  0.
325  3.24  0.  0.  0.
326  3.25  0.  0.  0.
327  3.26  0.  0.  0.
328  3.27  0.  0.  0.
329  3.28  0.  0.  0.
330  3.29  0.  0.  0.
331  3.30  0.  0.  0.
332  3.31  0.  0.  0.
333  3.32  0.  0.  0.
334  3.33  0.  0.  0.
335  3.34  0.  0.  0.
336  3.35  0.  0.  0.
337  3.36  0.  0.  0.
338  3.37  0.  0.  0.
339  3.38  0.  0.  0.
340  3.39  0.  0.  0.
341  3.40  0.  0.  0.
342  3.41  0.  0.  0.
343  3.42  0.  0.  0.
344  3.43  0.  0.  0.
345  3.44  0.  0.  0.
346  3.45  0.  0.  0.
347  3.46  0.  0.  0.
348  3.47  0.  0.  0.
349  3.48  0.  0.  0.
350  3.49  0.  0.  0.
351  3.50  0.  0.  0.
352  3.51  0.  0.  0.
353  3.52  0.  0.  0.
354  3.53  0.  0.  0.
355  3.54  0.  0.  0.
356  3.55  0.  0.  0.
357  3.56  0.  0.  0.
358  3.57  0.  0.  0.
359  3.58  0.  0.  0.
360  3.59  0.  0.  0.
361  3.60  0.  0.  0.
362  3.61  0.  0.  0.
363  3.62  0.  0.  0.
364  3.63  0.  0.  0.
365  3.64  0.  0.  0.
366  3.65  0.  0.  0.
367  3.66  0.  0.  0.
368  3.67  0.  0.  0.
369  3.68  0.  0.  0.
370  3.69  0.  0.  0.
371  3.70  0.  0.  0.
372  3.71  0.  0.  0.
373  3.72  0.  0.  0.
374  3.73  0.  0.  0.
375  3.74  0.  0.  0.
376  3.75  0.  0.  0.
377  3.76  0.  0.  0.
378  3.77  0.  0.  0.
379  3.78  0.  0.  0.
380  3.79  0.  0.  0.
381  3.80  0.  0.  0.
382  3.81  0.  0.  0.
383  3.82  0.  0.  0.
384  3.83  0.  0.  0.
385  3.84  0.  0.  0.
386  3.85  0.  0.  0.
387  3.86  0.  0.  0.
388  3.87  0.  0.  0.
389  3.88  0.  0.  0.
390  3.89  0.  0.  0.
391  3.90  0.  0.  0.
392  3.91  0.  0.  0.
393  3.92  0.  0.  0.
394  3.93  0.  0.  0.
395  3.94  0.  0.  0.
396  3.95  0.  0.  0.
397  3.96  0.  0.  0.
398  3.97  0.  0.  0.
399  3.98  0.  0.  0.
400  3.99  0.  0.  0.
401  4.00  0.  0.  0.
402  4.01  0.  0.  0.
403  4.02  0.  0.  0.
404  4.03  0.  0.  0.
405  4.04  0.  0.  0.
406  4.05  0.  0.  0.
407  4.06  0.  0.  0.
408  4.07  0.  0.  0.
409  4.08  0.  0.  0.
410  4.09  0.  0.  0.
411  4.10  0.  0.  0.
412  4.11  0.  0.  0.
413  4.12  0.  0.  0.
414  4.13  0.  0.  0.
415  4.14  0.  0.  0.
416  4.15  0.  0.  0.
417  4.16  0.  0.  0.
418  4.17  0.  0.  0.
419  4.18  0.  0.  0.
420  4.19  0.  0.  0.
421  4.20  0.  0.  0.
422  4.21  0.  0.  0.
423  4.22  0.  0.  0.
424  4.23  0.  0.  0.
425  4.24  0.  0.  0.
426  4.25  0.  0.  0.
427  4.26  0.  0.  0.
428  4.27  0.  0.  0.
429  4.28  0.  0.  0.
430  4.29  0.  0.  0.
431  4.30  0.  0.  0.
432  4.31  0.  0.  0.
433  4.32  0.  0.  0.
434  4.33  0.  0.  0.
435  4.34  0.  0.  0.
436  4.35  0.  0.  0.
437  4.36  0.  0.  0.
438  4.37  0.  0.  0.
439  4.38  0.  0.  0.
440  4.39  0.  0.  0.
441  4.40  0.  0.  0.
442  4.41  0.  0.  0.
443  4.42  0.  0.  0.
444  4.43  0.  0.  0.
445  4.44  0.  0.  0.
446  4.45  0.  0.  0.
447  4.46  0.  0.  0.
448  4.47  0.  0.  0.
449  4.48  0.  0.  0.
450  4.49  0.  0.  0.
451  4.50  0.  0.  0.
452  4.51  0.  0.  0.
453  4.52  0.  0.  0.
454  4.53  0.  0.  0.
455  4.54  0.  0.  0.
456  4.55  0.  0.  0.
457  4.56  0.  0.  0.
458  4.57  0.  0.  0.
459  4.58  0.  0.  0.
460  4.59  0.  0.  0.
461  4.60  0.  0.  0.
462  4.61  0.  0.  0.
463  4.62  0.  0.  0.
464  4.63  0.  0.  0.
465  4.64  0.  0.  0.
466  4.65  0.  0.  0.
467  4.66  0.  0.  0.
468  4.67  0.  0.  0.
469  4.68  0.  0.  0.
470  4.69  0.  0.  0.
471  4.70  0.  0.  0.
472  4.71  0.  0.  0.
473  4.72  0.  0.  0.
474  4.73  0.  0.  0.
475  4.74  0.  0.  0.
476  4.75  0.  0.  0.
477  4.76  0.  0.  0.
478  4.77  0.  0.  0.
479  4.78  0.  0.  0.
480  4.79  0.  0.  0.
481  4.80  0.  0.  0.
482  4.81  0.  0.  0.
483  4.82  0.  0.  0.
484  4.83  0.  0.  0.
485  4.84  0.  0.  0.
486  4.85  0.  0.  0.
487  4.86  0.  0.  0.
488  4.87  0.  0.  0.
489  4.88  0.  0.  0.
490  4.89  0.  0.  0.
491  4.90  0.  0.  0.
492  4.91  0.  0.  0.
493  4.92  0.  0.  0.
494  4.93  0.  0.  0.
495  4.94  0.  0.  0.
496  4.95  0.  0.  0.
497  4.96  0.  0.  0.
498  4.97  0.  0.  0.
499  4.98  0.  0.  0.
500  4.99  0.  0.  0.
501  5.00  0.  0.  0.
502  5.01  0.  0.  0.
503  5.02  0.  0.  0.
504  5.03  0.  0.  0.
505  5.04  0.  0.  0.
506  5.05  0.  0.  0.
507  5.06  0.  0.  0.
508  5.07  0.  0.  0.
509  5.08  0.  0.  0.
510  5.09  0.  0.  0.
511  5.10  0.  0.  0.
512  5.11  0.  0.  0.
513  5.12  0.  0.  0.
514  5.13  0.  0.  0.
515  5.14  0.  0.  0.
516  5.15  0.  0.  0.
517  5.16  0.  0.  0.
518  5.17  0.  0.  0.
519  5.18  0.  0.  0.
520  5.19  0.  0.  0.
521  5.20  0.  0.  0.
522  5.21  0.  0.  0.
523  5.22  0.  0.  0.
524  5.23  0.  0.  0.
525  5.24  0.  0.  0.
526  5.25  0.  0.  0.
527  5.26  0.  0.  0.
528  5.27  0.  0.  0.
529  5.28  0.  0.  0.
530  5.29  0.  0.  0.
531  5.30  0.  0.  0.
532  5.31  0.  0.  0.
533  5.32  0.  0.  0.
534  5.33  0.  0.  0.
535  5.34  0.  0.  0.
536  5.35  0.  0.  0.
537  5.36  0.  0.  0.
538  5.37  0.  0.  0.
539  5.38  0.  0.  0.
540  5.39  0.  0.  0.
541  5.40  0.  0.  0.
542  5.41  0.  0.  0.
543  5.42  0.  0.  0.
544  5.43  0.  0.  0.
545  5.44  0.  0.  0.
546  5.45  0.  0.  0.
547  5.46  0.  0.  0.
548  5.47  0.  0.  0.
549  5.48  0.  0.  0.
550  5.49  0.  0.  0.
551  5.50  0.  0.  0.
552  5.51  0.  0.  0.
553  5.52  0.  0.  0.
554  5.53  0.  0.  0.
555  5.54  0.  0.  0.
556  5.55  0.  0.  0.
557  5.56  0.  0.  0.
558  5.57  0.  0.  0.
559  5.58  0.  0.  0.
560  5.59  0.  0.  0.
561  5.60  0.  0.  0.
562  5.61  0.  0.  0.
563  5.62  0.  0.  0.
564  5.63  0.  0.  0.
565  5.64  0.  0.  0.
566  5.65  0.  0.  0.
567  5.66  0.  0.  0.
568  5.67  0.  0.  0.
569  5.68  0.  0.  0.
570  5.69  0.  0.  0.
571  5.70  0.  0.  0.
572  5.71  0.  0.  0.
573  5.72  0.  0.  0.
574  5.73  0.  0.  0.
575  5.74  0.  0.  0.
576  5.75  0.  0.  0.
577  5.76  0.  0.  0.
578  5.77  0.  0.  0.
579  5.78  0.  0.  0.
580  5.79  0.  0.  0.
581  5.80  0.  0.  0.
582  5.81  0.  0.  0.
583  5.82  0.  0.  0.
584  5.83  0.  0.  0.
585  5.84  0.  0.  0.
586  5.85  0.  0.  0.
587  5.86  0.  0.  0.
588  5.87  0.  0.  0.
589  5.88  0.  0.  0.
590  5.89  0.  0.  0.
591  5.90  0.  0.  0.
592  5.91  0.  0.  0.
593  5.92  0.  0.  0.
594  5.93  0.  0.  0.
595  5.94  0.  0.  0.
596  5.95  0.  0.  0.
597  5.96  0.  0.  0.
598  5.97  0.  0.  0.
599  5.98  0.  0.  0.
600  5.99  0.  0.  0.
1                         9.0628025237980E+00 -1.1036489339624E+00
1  0.0000000000000E+00 -3.0952612251056E-08 -5.1417437793577E-08
2  1.0000000000000E-02  5.4463544913906E-03  1.1288896944108E-03
3  2.0000000000000E-02  2.1733048313102E-02  4.5192212049374E-03
4  3.0000000000000E-02  4.8703001051803E-02  1.0181293307854E-02
5  4.0000000000000E-02  8.6094537940278E-02  1.8130019142010E-02
6  5.0000000000000E-02  1.3354168439915E-01  2.8381698951947E-02
7  6.0000000000000E-02  1.9057478243885E-01  4.0949793435384E-02
8  7.0000000000000E-02  2.5662161640559E-01  5.5839969949987E-02
9  8.0000000000000E-02  3.3100926650748E-01  7.3044745251827E-02
10  9.0000000000000E-02  4.1296692431387E-01  9.2538081999491E-02
11  1.0000000000000E-01  5.0162990344685E-01  1.1427031000511E-01
12  1.1000000000000E-01  5.9604506039217E-01  1.3816373622873E-01
13  1.2000000000000E-01  6.9517780514736E-01  1.6410927996935E-01
14  1.3000000000000E-01  7.9792083067229E-01  1.9196442285978E-01
15  1.4000000000000E-01  9.0310462609546E-01  2.2155269940486E-01
16  1.5000000000000E-01  1.0095097644345E+00  2.5266487609863E-01
17  1.6000000000000E-01  1.1158808749270E+00  2.8506187954975E-01
18  1.7000000000000E-01  1.2209421270918E+00  3.1847944101495E-01
19  1.8000000000000E-01  1.3234139727380E+00  3.5263433108495E-01
20  1.9000000000000E-01  1.4220308176792E+00  3.8723196885766E-01
21  2.0000000000000E-01  1.5155592310461E+00  4.2197510946578E-01
22  2.1000000000000E-01  1.6028162504865E+00  4.5657324658354E-01
23  2.2000000000000E-01  1.6826873092392E+00  4.9075231616763E-01
24  2.3000000000000E-01  1.7541432982560E+00  5.2426425702061E-01
25  2.4000000000000E-01  1.8162562844858E+00  5.5689597466007E-01
26  2.5000000000000E-01  1.8682134353490E+00  5.8847726823191E-01
27  2.6000000000000E-01  1.9093287485120E+00  6.1888731550589E-01
28  2.7000000000000E-01  1.9390522534675E+00  6.4805936692388E-01
29  2.8000000000000E-01  1.9569764343758E+00  6.7598337378670E-01
30  2.9000000000000E-01  1.9628397185290E+00  7.0270636459660E-01
31  3.0000000000000E-01  1.9565269774436E+00  7.2833048319341E-01
32  3.1000000000000E-01  1.9380670933093E+00  7.5300870794690E-01
33  3.2000000000000E-01  1.9076277474497E+00  7.7693837787638E-01
34  3.3000000000000E-01  1.8655076847550E+00  8.0035275404832E-01
35  3.4000000000000E-01  1.8121267941487E+00  8.2351093799813E-01
36  3.5000000000000E-01  1.7480144159874E+00  8.4668654867009E-01
37  3.6000000000000E-01  1.6737963394855E+00  8.7015562152488E-01
38  3.7000000000000E-01  1.5901809843097E+00  8.9418423488933E-01
39  3.8000000000000E-01  1.4979452689021E+00  9.1901638714226E-01
40  3.9000000000000E-01  1.3979206534466E+00  9.4486264283887E-01
41  4.0000000000000E-01  1.2909798084026E+00  9.7189003639836E-01
42  4.1000000000000E-01  1.1780243019717E+00  1.0002136696733E+00
43  4.2000000000000E-01  1.0599736245603E+00  1.0298903668288E+00
44  4.3000000000000E-01  9.3775577893422E-01  1.0609146597177E+00
45  4.4000000000000E-01  8.1229956577342E-01  1.0932172734146E+00
46  4.5000000000000E-01  6.8452859063866E-01  1.1266661695031E+00
47  4.6000000000000E-01  5.5535691519636E-01  1.1610700892611E+00
48  4.7000000000000E-01  4.2568617815431E-01  1.1961844254336E+00
49  4.8000000000000E-01  2.9640392478381E-01  1.2317191451551E+00
50  4.9000000000000E-01  1.6838281271050E-01  1.2673483928041E+00
51  5.0000000000000E-01  4.2480309725912E-02  1.3027213246604E+00
52  5.1000000000000E-01 -8.0461530309233E-02  1.3374736709369E+00
53  5.2000000000000E-01 -1.9961663289945E-01  1.3712394879159E+00
54  5.3000000000000E-01 -3.1417620966692E-01  1.4036625552981E+00
55  5.4000000000000E-01 -4.2335116246711E-01  1.4344068920860E+00
56  5.5000000000000E-01 -5.2637587418124E-01  1.4631659077708E+00
57  5.6000000000000E-01 -6.2251358884458E-01  1.4896697725130E+00
58  5.7000000000000E-01 -7.1106348112954E-01  1.5136906774780E+00
59  5.8000000000000E-01 -7.9136940142206E-01  1.5350457606429E+00
60  5.9000000000000E-01 -8.6283016335141E-01  1.5535975894670E+00
61  6.0000000000000E-01 -9.2491112164561E-01  1.5692522144944E+00
62  6.1000000000000E-01 -9.7715667575120E-01  1.5819549314660E+00
63  6.2000000000000E-01 -1.0192032348229E+00  1.5916840080251E+00
64  6.3000000000000E-01 -1.0507920980876E+00  1.5984427388803E+00
65  6.4000000000000E-01 -1.0717816461533E+00  1.6022502850610E+00
66  6.5000000000000E-01 -1.0821582075522E+00  1.6031318240524E+00
67  6.6000000000000E-01 -1.0820449634654E+00  1.6011085844181E+00
68  6.7000000000000E-01 -1.0717082836334E+00  1.5961883584073E+00
69  6.8000000000000E-01 -1.0515609478736E+00  1.5883570776295E+00
70  6.9000000000000E-01 -1.0221617988463E+00  1.5775720001321E+00
71  7.0000000000000E-01 -9.8421148969675E-01  1.5637569934573E+00
72  7.1000000000000E-01 -9.3854413045187E-01  1.5468003101381E+00
73  7.2000000000000E-01 -8.8611479387902E-01  1.5265551434867E+00
74  7.3000000000000E-01 -8.2798300813548E-01  1.5028431273831E+00
75  7.4000000000000E-01 -7.6529253250703E-01  1.4754608098508E+00
76  7.5000000000000E-01 -6.9924787592603E-01  1.4441889929068E+00
77  7.6000000000000E-01 -6.3108816785031E-01  1.4088046971419E+00
78  7.7000000000000E-01 -5.6205911988357E-01  1.3690953853496E+00
79  7.8000000000000E-01 -4.9338391731150E-01  1.3248749715641E+00
80  7.9000000000000E-01 -4.2623394671679E-01  1.2760010556880E+00
81  8.0000000000000E-01 -3.6170029457846E-01  1.2223927641114E+00
82  8.1000000000000E-01 -3.0076693948074E-01  1.1640485467844E+00
83  8.2000000000000E-01 -2.4428650631372E-01  1.1010632830907E+00
84  8.3000000000000E-01 -1.9295935566444E-01  1.0336440830485E+00
85  8.4000000000000E-01 -1.4731664845919E-01  9.6212423567272E-01
86  8.5000000000000E-01 -1.0770785970835E-01  8.8697485004308E-01
87  8.6000000000000E-01 -7.4293022523639E-02  8.0881385249824E-01
88  8.7000000000000E-01 -4.7039772477174E-02  7.2841213989042E-01
89  8.8000000000000E-01 -2.5725042009635E-02  6.4669683739426E-01
90  8.9000000000000E-01 -9.9410327942535E-03  5.6475176673012E-01
91  9.0000000000000E-01  8.9509770637659E-04  4.8381534537743E-01
92  9.1000000000000E-01  7.5241924699902E-03  4.0526707571683E-01
93  9.2000000000000E-01  1.0777367205047E-02  3.3051584569923E-01
94  9.3000000000000E-01  1.1494276500774E-02  2.6088189013792E-01
95  9.4000000000000E-01  1.0481167508800E-02  1.9757313992254E-01
96  9.5000000000000E-01  8.4753148539956E-03  1.4167159619305E-01
97  9.6000000000000E-01  6.0425266477186E-03  9.4085103782857E-02
98  9.7000000000000E-01  3.6183712679696E-03  5.5556710836917E-02
99  9.8000000000000E-01  1.6768885428378E-03  2.6773201016692E-02
100  9.9000000000000E-01  4.6882051083916E-04  8.2498970302790E-03
101  1.0000000000000E+00  1.9202953556528E-05  4.0406113032585E-04
102  1.0100000000000E+00  1.1319982464391E-06  2.3666816861182E-05
103  1.0200000000000E+00 -6.8711875962219E-08 -1.3414741446060E-06
104  1.03  0.  0.
105  1.04  0.  0.
106  1.05  0.  0.
107  1.06  0.  0.
108  1.07  0.  0.
109  1.08  0.  0.
110  1.09  0.  0.
111  1.10  0.  0.
112  1.11  0.  0.
113  1.12  0.  0.
114  1.13  0.  0.
115  1.14  0.  0.
116  1.15  0.  0.
117  1.16  0.  0.
118  1.17  0.  0.
119  1.18  0.  0.
120  1.19  0.  0.
121  1.20  0.  0.
122  1.21  0.  0.
123  1.22  0.  0.
124  1.23  0.  0.
125  1.24  0.  0.
126  1.25  0.  0.
127  1.26  0.  0.
128  1.27  0.  0.
129  1.28  0.  0.
130  1.29  0.  0.
131  1.30  0.  0.
132  1.31  0.  0.
133  1.32  0.  0.
134  1.33  0.  0.
135  1.34  0.  0.
136  1.35  0.  0.
137  1.36  0.  0.
138  1.37  0.  0.
139  1.38  0.  0.
140  1.39  0.  0.
141  1.40  0.  0.
142  1.41  0.  0.
143  1.42  0.  0.
144  1.43  0.  0.
145  1.44  0.  0.
146  1.45  0.  0.
147  1.46  0.  0.
148  1.47  0.  0.
149  1.48  0.  0.
150  1.49  0.  0.
151  1.50  0.  0.
152  1.51  0.  0.
153  1.52  0.  0.
154  1.53  0.  0.
155  1.54  0.  0.
156  1.55  0.  0.
157  1.56  0.  0.
158  1.57  0.  0.
159  1.58  0.  0.
160  1.59  0.  0.
161  1.60  0.  0.
162  1.61  0.  0.
163  1.62  0.  0.
164  1.63  0.  0.
165  1.64  0.  0.
166  1.65  0.  0.
167  1.66  0.  0.
168  1.67  0.  0.
169  1.68  0.  0.
170  1.69  0.  0.
171  1.70  0.  0.
172  1.71  0.  0.
173  1.72  0.  0.
174  1.73  0.  0.
175  1.74  0.  0.
176  1.75  0.  0.
177  1.76  0.  0.
178  1.77  0.  0.
179  1.78  0.  0.
180  1.79  0.  0.
181  1.80  0.  0.
182  1.81  0.  0.
183  1.82  0.  0.
184  1.83  0.  0.
185  1.84  0.  0.
186  1.85  0.  0.
187  1.86  0.  0.
188  1.87  0.  0.
189  1.88  0.  0.
190  1.89  0.  0.
191  1.90  0.  0.
192  1.91  0.  0.
193  1.92  0.  0.
194  1.93  0.  0.
195  1.94  0.  0.
196  1.95  0.  0.
197  1.96  0.  0.
198  1.97  0.  0.
199  1.98  0.  0.
200  1.99  0.  0.
201  2.00  0.  0.
202  2.01  0.  0.
203  2.02  0.  0.
204  2.03  0.  0.
205  2.04  0.  0.
206  2.05  0.  0.
207  2.06  0.  0.
208  2.07  0.  0.
209  2.08  0.  0.
210  2.09  0.  0.
211  2.10  0.  0.
212  2.11  0.  0.
213  2.12  0.  0.
214  2.13  0.  0.
215  2.14  0.  0.
216  2.15  0.  0.
217  2.16  0.  0.
218  2.17  0.  0.
219  2.18  0.  0.
220  2.19  0.  0.
221  2.20  0.  0.
222  2.21  0.  0.
223  2.22  0.  0.
224  2.23  0.  0.
225  2.24  0.  0.
226  2.25  0.  0.
227  2.26  0.  0.
228  2.27  0.  0.
229  2.28  0.  0.
230  2.29  0.  0.
231  2.30  0.  0.
232  2.31  0.  0.
233  2.32  0.  0.
234  2.33  0.  0.
235  2.34  0.  0.
236  2.35  0.  0.
237  2.36  0.  0.
238  2.37  0.  0.
239  2.38  0.  0.
240  2.39  0.  0.
241  2.40  0.  0.
242  2.41  0.  0.
243  2.42  0.  0.
244  2.43  0.  0.
245  2.44  0.  0.
246  2.45  0.  0.
247  2.46  0.  0.
248  2.47  0.  0.
249  2.48  0.  0.
250  2.49  0.  0.
251  2.50  0.  0.
252  2.51  0.  0.
253  2.52  0.  0.
254  2.53  0.  0.
255  2.54  0.  0.
256  2.55  0.  0.
257  2.56  0.  0.
258  2.57  0.  0.
259  2.58  0.  0.
260  2.59  0.  0.
261  2.60  0.  0.