Db    ONCVPSP-4.0.1  r_core=   1.10309   1.30423   1.20665   1.20665
    105.0000     45.0000      211119    zatom,zion,pspd
     8      11   3     4   600     0    pspcod,pspxc,lmax,lloc,mmax,r2well
  5.99000000  5.00000000  0.00000000    rchrg fchrg qchrg
     3     2     2     2     0    nproj
     1     1           extension_switch
   0                         2.2279351440246E+01 -9.6852251527139E+00 -3.0910613671662E-01
     1  0.0000000000000E+00 -2.8891774528361E-08 -2.1069812561336E-10  1.2373554458822E-07
     2  1.0000000000000E-02  2.1342068964771E-01  4.6355544836229E-02 -8.4479620507401E-02
     3  2.0000000000000E-02  4.2466491142786E-01  9.2741399611259E-02 -1.6715847592777E-01
     4  3.0000000000000E-02  6.3158362822862E-01  1.3918690477443E-01 -2.4628052485373E-01
     5  4.0000000000000E-02  8.3208224671093E-01  1.8571946919380E-01 -3.2017799103142E-01
     6  5.0000000000000E-02  1.0241468024790E+00  2.3236362292654E-01 -3.8731257382517E-01
     7  6.0000000000000E-02  1.2058689223936E+00  2.7914009244424E-01 -4.4631324466742E-01
     8  7.0000000000000E-02  1.3754691912520E+00  3.2606490608327E-01 -4.9600964270216E-01
     9  8.0000000000000E-02  1.5313185789494E+00  3.7314853770135E-01 -5.3546020656558E-01
    10  9.0000000000000E-02  1.6719576191654E+00  4.2039509674385E-01 -5.6397432679392E-01
    11  1.0000000000000E-01  1.7961130708311E+00  4.6780157313324E-01 -5.8112797028532E-01
    12  1.1000000000000E-01  1.9027118382784E+00  5.1535714556550E-01 -5.8677240959358E-01
    13  1.2000000000000E-01  1.9908919741115E+00  5.6304256189855E-01 -5.8103588020369E-01
    14  1.3000000000000E-01  2.0600106394598E+00  6.1082960032265E-01 -5.6431818270749E-01
    15  1.4000000000000E-01  2.1096489483420E+00  6.5868061988228E-01 -5.3727843826651E-01
    16  1.5000000000000E-01  2.1396136753239E+00  7.0654820864939E-01 -5.0081638934705E-01
    17  1.6000000000000E-01  2.1499358574486E+00  7.5437493740606E-01 -4.5604780813877E-01
    18  1.7000000000000E-01  2.1408663715534E+00  8.0209322606508E-01 -4.0427472748794E-01
    19  1.8000000000000E-01  2.1128686156025E+00  8.4962532922712E-01 -3.4695133932888E-01
    20  1.9000000000000E-01  2.0666084666969E+00  8.9688344623877E-01 -2.8564650997210E-01
    21  2.0000000000000E-01  2.0029417282009E+00  9.4376995987872E-01 -2.2200393748147E-01
    22  2.1000000000000E-01  1.9228993132882E+00  9.9017780636814E-01 -1.5770102197257E-01
    23  2.2000000000000E-01  1.8276704416311E+00  1.0359909777934E+00 -9.4407534107379E-02
    24  2.3000000000000E-01  1.7185841495411E+00  1.0810851562669E+00 -3.3745150493833E-02
    25  2.4000000000000E-01  1.5970894313599E+00  1.1253284772663E+00  2.2751121851005E-02
    26  2.5000000000000E-01  1.4647343411854E+00  1.1685824176178E+00  7.3668684355425E-02
    27  2.6000000000000E-01  1.3231443891271E+00  1.2107028015703E+00  1.1774940120031E-01
    28  2.7000000000000E-01  1.1740005653721E+00  1.2515409163810E+00  1.5391724265133E-01
    29  2.8000000000000E-01  1.0190173186956E+00  1.2909447268597E+00  1.8130092998114E-01
    30  2.9000000000000E-01  8.5992080406420E-01  1.3287601764300E+00  1.9925114649853E-01
    31  3.0000000000000E-01  6.9842769714311E-01  1.3648325605270E+00  2.0735203921012E-01
    32  3.1000000000000E-01  5.3622485240509E-01  1.3990079565937E+00  2.0542689864792E-01
    33  3.2000000000000E-01  3.7495005678870E-01  1.4311346936161E+00  1.9353806535958E-01
    34  3.3000000000000E-01  2.1617410313267E-01  1.4610648430830E+00  1.7198126564280E-01
    35  3.4000000000000E-01  6.1384377635628E-02  1.4886557125032E+00  1.4127472174876E-01
    36  3.5000000000000E-01 -8.8029875947111E-02  1.5137713221867E+00  1.0214350898667E-01
    37  3.6000000000000E-01 -2.3079048505757E-01  1.5362838459181E+00  5.5499740445692E-02
    38  3.7000000000000E-01 -3.6574137232802E-01  1.5560749964171E+00  2.4192466923669E-03
    39  3.8000000000000E-01 -4.9185760928569E-01  1.5730373371110E+00 -5.5884519152961E-02
    40  3.9000000000000E-01 -6.0825246545022E-01  1.5870755027049E+00 -1.1808858225475E-01
    41  4.0000000000000E-01 -7.1418244824546E-01  1.5981073123321E+00 -1.8278977080919E-01
    42  4.1000000000000E-01 -8.0905035700710E-01  1.6060647606503E+00 -2.4853449382489E-01
    43  4.2000000000000E-01 -8.9240640000907E-01  1.6108948741051E+00 -3.1384823526177E-01
    44  4.3000000000000E-01 -9.6394744660579E-01  1.6125604216482E+00 -3.7726408297960E-01
    45  4.4000000000000E-01 -1.0235145071230E+00  1.6110404714454E+00 -4.3734968423357E-01
    46  4.5000000000000E-01 -1.0710885509358E+00  1.6063307874720E+00 -4.9273210757227E-01
    47  4.6000000000000E-01 -1.1067847882304E+00  1.5984440623271E+00 -5.4212019020067E-01
    48  4.7000000000000E-01 -1.1308455533013E+00  1.5874099850390E+00 -5.8432405615673E-01
    49  4.8000000000000E-01 -1.1436319369920E+00  1.5732751450345E+00 -6.1827159985287E-01
    50  4.9000000000000E-01 -1.1456143231890E+00  1.5561027757475E+00 -6.4302183756109E-01
    51  5.0000000000000E-01 -1.1373619893072E+00  1.5359723434961E+00 -6.5777513230153E-01
    52  5.1000000000000E-01 -1.1195319336641E+00  1.5129789892274E+00 -6.6188039172417E-01
    53  5.2000000000000E-01 -1.0928570937350E+00  1.4872328324646E+00 -6.5483942075668E-01
    54  5.3000000000000E-01 -1.0581341187334E+00  1.4588581482766E+00 -6.3630867843187E-01
    55  5.4000000000000E-01 -1.0162108579648E+00  1.4279924292915E+00 -6.0609873939793E-01
    56  5.5000000000000E-01 -9.6797372313567E-01  1.3947853456875E+00 -5.6417179395379E-01
    57  5.6000000000000E-01 -9.1433507843592E-01  1.3593976167155E+00 -5.1063753549731E-01
    58  5.7000000000000E-01 -8.5622080685351E-01  1.3219998076322E+00 -4.4574778133066E-01
    59  5.8000000000000E-01 -7.9455819494491E-01  1.2827710659812E+00 -3.6989015285187E-01
    60  5.9000000000000E-01 -7.3026427121234E-01  1.2418978109611E+00 -2.8358110599616E-01
    61  6.0000000000000E-01 -6.6423472537007E-01  1.1995723891996E+00 -1.8745855476027E-01
    62  6.1000000000000E-01 -5.9733352711344E-01  1.1559917096485E+00 -8.2274272622161E-02
    63  6.2000000000000E-01 -5.3038335351267E-01  1.1113558695622E+00  3.1113807994544E-02
    64  6.3000000000000E-01 -4.6415692380582E-01  1.0658667826645E+00  1.5174934579813E-01
    65  6.4000000000000E-01 -3.9936932911296E-01  1.0197268196957E+00  2.7858540486498E-01
    66  6.5000000000000E-01 -3.3667143239836E-01  9.7313747060064E-01  4.1049241029339E-01
    67  6.6000000000000E-01 -2.7664440083754E-01  9.2629803671203E-01  5.4626637720874E-01
    68  6.7000000000000E-01 -2.1979541859344E-01  8.7940436044355E-01  6.8463758855186E-01
    69  6.8000000000000E-01 -1.6655461289031E-01  8.3264759926062E-01  8.2427992663986E-01
    70  6.9000000000000E-01 -1.1727321025723E-01  7.8621305007292E-01  9.6382107693510E-01
    71  7.0000000000000E-01 -7.2222922995890E-02  7.4027902970748E-01  1.1018538183199E+00
    72  7.1000000000000E-01 -3.1596548464927E-02  6.9501581678454E-01  1.2369485917622E+00
    73  7.2000000000000E-01  4.4902541325224E-03  6.5058466013061E-01  1.3676674986877E+00
    74  7.3000000000000E-01  3.5996062860604E-02  6.0713685881440E-01  1.4925798226603E+00
    75  7.4000000000000E-01  6.2949739436088E-02  5.6481291896465E-01  1.6102790949019E+00
    76  7.5000000000000E-01  8.5445511760552E-02  5.2374179269689E-01  1.7194016384193E+00
    77  7.6000000000000E-01  1.0363719811456E-01  4.8404020470563E-01  1.8186464303622E+00
    78  7.7000000000000E-01  1.1773169389841E-01  4.4581207232882E-01  1.9067960216926E+00
    79  7.8000000000000E-01  1.2798185546922E-01  4.0914802511809E-01  1.9827381517396E+00
    80  7.9000000000000E-01  1.3467892715407E-01  3.7412503010313E-01  2.0454875975293E+00
    81  8.0000000000000E-01  1.3814466649392E-01  3.4080612897340E-01  2.0942077088259E+00
    82  8.1000000000000E-01  1.3872332880322E-01  3.0924029326725E-01  2.1282310045192E+00
    83  8.2000000000000E-01  1.3677367486985E-01  2.7946240331261E-01  2.1470781489936E+00
    84  8.3000000000000E-01  1.3266116478479E-01  2.5149335606692E-01  2.1504745926958E+00
    85  8.4000000000000E-01  1.2675049627144E-01  2.2534030612326E-01  2.1383641529281E+00
    86  8.5000000000000E-01  1.1939863735981E-01  2.0099704296374E-01  2.1109188318433E+00
    87  8.6000000000000E-01  1.1094849079877E-01  1.7844450603624E-01  2.0685442206860E+00
    88  8.7000000000000E-01  1.0172331130506E-01  1.5765143740751E-01  2.0118799234888E+00
    89  8.8000000000000E-01  9.2021976809980E-02  1.3857516961528E-01  1.9417945495255E+00
    90  8.9000000000000E-01  8.2115191591935E-02  1.2116254393052E-01  1.8593749705610E+00
    91  9.0000000000000E-01  7.2242672999744E-02  1.0535095158513E-01  1.7659097138242E+00
    92  9.1000000000000E-01  6.2611344902580E-02  9.1069487671357E-02  1.6628665610802E+00
    93  9.2000000000000E-01  5.3394530667843E-02  7.8240204437316E-02  1.5518646435355E+00
    94  9.3000000000000E-01  4.4732107074084E-02  6.6779447661145E-02  1.4346415559345E+00
    95  9.4000000000000E-01  3.6731548864090E-02  5.6599256761038E-02  1.3130162548301E+00
    96  9.5000000000000E-01  2.9469762454099E-02  4.7608806377176E-02  1.1888487485395E+00
    97  9.6000000000000E-01  2.2995577451476E-02  3.9715864429841E-02  1.0639978224883E+00
    98  9.7000000000000E-01  1.7332736918825E-02  3.2828239204599E-02  9.4027826600702E-01
    99  9.8000000000000E-01  1.2483202553240E-02  2.6855185925744E-02  8.1941926773776E-01
   100  9.9000000000000E-01  8.4305698392886E-03  2.1708741631130E-02  7.0302581980979E-01
   101  1.0000000000000E+00  5.1433714571673E-03  1.7304956027560E-02  5.9254510930261E-01
   102  1.0100000000000E+00  2.5780353187249E-03  1.3564985444481E-02  4.8923997379516E-01
   103  1.0200000000000E+00  6.8125698440169E-04  1.0416017059440E-02  3.9417155162354E-01
   104  1.0300000000000E+00 -6.0844457132865E-04  7.7919951173568E-03  3.0819319020885E-01
   105  1.0400000000000E+00 -1.3602932267999E-03  5.6340880827665E-03  2.3195821260309E-01
   106  1.0500000000000E+00 -1.6540401720307E-03  3.8902312198180E-03  1.6595668948912E-01
   107  1.0600000000000E+00 -1.6081396036153E-03  2.5034558607144E-03  1.1074668842116E-01
   108  1.0700000000000E+00 -1.3014108565325E-03  1.4416422873815E-03  6.6424932139489E-02
   109  1.0800000000000E+00 -8.2931284657286E-04  6.8505223197063E-04  3.3043909647890E-02
   110  1.0900000000000E+00 -3.3742566129595E-04  2.1464323402479E-04  1.0903535652304E-02
   111  1.1000000000000E+00 -2.8356239996323E-05  1.4124673441977E-05  7.6150223531010E-04
   112  1.1100000000000E+00 -2.8854427700031E-07  1.4206155752130E-07  7.7024852949642E-06
   113  1.1200000000000E+00  2.5389804667063E-07 -1.3689969469388E-07 -7.2487698334964E-06
   114  1.13  0.  0.  0.
   115  1.14  0.  0.  0.
   116  1.15  0.  0.  0.
   117  1.16  0.  0.  0.
   118  1.17  0.  0.  0.
   119  1.18  0.  0.  0.
   120  1.19  0.  0.  0.
   121  1.20  0.  0.  0.
   122  1.21  0.  0.  0.
   123  1.22  0.  0.  0.
   124  1.23  0.  0.  0.
   125  1.24  0.  0.  0.
   126  1.25  0.  0.  0.
   127  1.26  0.  0.  0.
   128  1.27  0.  0.  0.
   129  1.28  0.  0.  0.
   130  1.29  0.  0.  0.
   131  1.30  0.  0.  0.
   132  1.31  0.  0.  0.
   133  1.32  0.  0.  0.
   134  1.33  0.  0.  0.
   135  1.34  0.  0.  0.
   136  1.35  0.  0.  0.
   137  1.36  0.  0.  0.
   138  1.37  0.  0.  0.
   139  1.38  0.  0.  0.
   140  1.39  0.  0.  0.
   141  1.40  0.  0.  0.
   142  1.41  0.  0.  0.
   143  1.42  0.  0.  0.
   144  1.43  0.  0.  0.
   145  1.44  0.  0.  0.
   146  1.45  0.  0.  0.
   147  1.46  0.  0.  0.
   148  1.47  0.  0.  0.
   149  1.48  0.  0.  0.
   150  1.49  0.  0.  0.
   151  1.50  0.  0.  0.
   152  1.51  0.  0.  0.
   153  1.52  0.  0.  0.
   154  1.53  0.  0.  0.
   155  1.54  0.  0.  0.
   156  1.55  0.  0.  0.
   157  1.56  0.  0.  0.
   158  1.57  0.  0.  0.
   159  1.58  0.  0.  0.
   160  1.59  0.  0.  0.
   161  1.60  0.  0.  0.
   162  1.61  0.  0.  0.
   163  1.62  0.  0.  0.
   164  1.63  0.  0.  0.
   165  1.64  0.  0.  0.
   166  1.65  0.  0.  0.
   167  1.66  0.  0.  0.
   168  1.67  0.  0.  0.
   169  1.68  0.  0.  0.
   170  1.69  0.  0.  0.
   171  1.70  0.  0.  0.
   172  1.71  0.  0.  0.
   173  1.72  0.  0.  0.
   174  1.73  0.  0.  0.
   175  1.74  0.  0.  0.
   176  1.75  0.  0.  0.
   177  1.76  0.  0.  0.
   178  1.77  0.  0.  0.
   179  1.78  0.  0.  0.
   180  1.79  0.  0.  0.
   181  1.80  0.  0.  0.
   182  1.81  0.  0.  0.
   183  1.82  0.  0.  0.
   184  1.83  0.  0.  0.
   185  1.84  0.  0.  0.
   186  1.85  0.  0.  0.
   187  1.86  0.  0.  0.
   188  1.87  0.  0.  0.
   189  1.88  0.  0.  0.
   190  1.89  0.  0.  0.
   191  1.90  0.  0.  0.
   192  1.91  0.  0.  0.
   193  1.92  0.  0.  0.
   194  1.93  0.  0.  0.
   195  1.94  0.  0.  0.
   196  1.95  0.  0.  0.
   197  1.96  0.  0.  0.
   198  1.97  0.  0.  0.
   199  1.98  0.  0.  0.
   200  1.99  0.  0.  0.
   201  2.00  0.  0.  0.
   202  2.01  0.  0.  0.
   203  2.02  0.  0.  0.
   204  2.03  0.  0.  0.
   205  2.04  0.  0.  0.
   206  2.05  0.  0.  0.
   207  2.06  0.  0.  0.
   208  2.07  0.  0.  0.
   209  2.08  0.  0.  0.
   210  2.09  0.  0.  0.
   211  2.10  0.  0.  0.
   212  2.11  0.  0.  0.
   213  2.12  0.  0.  0.
   214  2.13  0.  0.  0.
   215  2.14  0.  0.  0.
   216  2.15  0.  0.  0.
   217  2.16  0.  0.  0.
   218  2.17  0.  0.  0.
   219  2.18  0.  0.  0.
   220  2.19  0.  0.  0.
   221  2.20  0.  0.  0.
   222  2.21  0.  0.  0.
   223  2.22  0.  0.  0.
   224  2.23  0.  0.  0.
   225  2.24  0.  0.  0.
   226  2.25  0.  0.  0.
   227  2.26  0.  0.  0.
   228  2.27  0.  0.  0.
   229  2.28  0.  0.  0.
   230  2.29  0.  0.  0.
   231  2.30  0.  0.  0.
   232  2.31  0.  0.  0.
   233  2.32  0.  0.  0.
   234  2.33  0.  0.  0.
   235  2.34  0.  0.  0.
   236  2.35  0.  0.  0.
   237  2.36  0.  0.  0.
   238  2.37  0.  0.  0.
   239  2.38  0.  0.  0.
   240  2.39  0.  0.  0.
   241  2.40  0.  0.  0.
   242  2.41  0.  0.  0.
   243  2.42  0.  0.  0.
   244  2.43  0.  0.  0.
   245  2.44  0.  0.  0.
   246  2.45  0.  0.  0.
   247  2.46  0.  0.  0.
   248  2.47  0.  0.  0.
   249  2.48  0.  0.  0.
   250  2.49  0.  0.  0.
   251  2.50  0.  0.  0.
   252  2.51  0.  0.  0.
   253  2.52  0.  0.  0.
   254  2.53  0.  0.  0.
   255  2.54  0.  0.  0.
   256  2.55  0.  0.  0.
   257  2.56  0.  0.  0.
   258  2.57  0.  0.  0.
   259  2.58  0.  0.  0.
   260  2.59  0.  0.  0.
   261  2.60  0.  0.  0.
   262  2.61  0.  0.  0.
   263  2.62  0.  0.  0.
   264  2.63  0.  0.  0.
   265  2.64  0.  0.  0.
   266  2.65  0.  0.  0.
   267  2.66  0.  0.  0.
   268  2.67  0.  0.  0.
   269  2.68  0.  0.  0.
   270  2.69  0.  0.  0.
   271  2.70  0.  0.  0.
   272  2.71  0.  0.  0.
   273  2.72  0.  0.  0.
   274  2.73  0.  0.  0.
   275  2.74  0.  0.  0.
   276  2.75  0.  0.  0.
   277  2.76  0.  0.  0.
   278  2.77  0.  0.  0.
   279  2.78  0.  0.  0.
   280  2.79  0.  0.  0.
   281  2.80  0.  0.  0.
   282  2.81  0.  0.  0.
   283  2.82  0.  0.  0.
   284  2.83  0.  0.  0.
   285  2.84  0.  0.  0.
   286  2.85  0.  0.  0.
   287  2.86  0.  0.  0.
   288  2.87  0.  0.  0.
   289  2.88  0.  0.  0.
   290  2.89  0.  0.  0.
   291  2.90  0.  0.  0.
   292  2.91  0.  0.  0.
   293  2.92  0.  0.  0.
   294  2.93  0.  0.  0.
   295  2.94  0.  0.  0.
   296  2.95  0.  0.  0.
   297  2.96  0.  0.  0.
   298  2.97  0.  0.  0.
   299  2.98  0.  0.  0.
   300  2.99  0.  0.  0.
   301  3.00  0.  0.  0.
   302  3.01  0.  0.  0.
   303  3.02  0.  0.  0.
   304  3.03  0.  0.  0.
   305  3.04  0.  0.  0.
   306  3.05  0.  0.  0.
   307  3.06  0.  0.  0.
   308  3.07  0.  0.  0.
   309  3.08  0.  0.  0.
   310  3.09  0.  0.  0.
   311  3.10  0.  0.  0.
   312  3.11  0.  0.  0.
   313  3.12  0.  0.  0.
   314  3.13  0.  0.  0.
   315  3.14  0.  0.  0.
   316  3.15  0.  0.  0.
   317  3.16  0.  0.  0.
   318  3.17  0.  0.  0.
   319  3.18  0.  0.  0.
   320  3.19  0.  0.  0.
   321  3.20  0.  0.  0.
   322  3.21  0.  0.  0.
   323  3.22  0.  0.  0.
   324  3.23  0.  0.  0.
   325  3.24  0.  0.  0.
   326  3.25  0.  0.  0.
   327  3.26  0.  0.  0.
   328  3.27  0.  0.  0.
   329  3.28  0.  0.  0.
   330  3.29  0.  0.  0.
   331  3.30  0.  0.  0.
   332  3.31  0.  0.  0.
   333  3.32  0.  0.  0.
   334  3.33  0.  0.  0.
   335  3.34  0.  0.  0.
   336  3.35  0.  0.  0.
   337  3.36  0.  0.  0.
   338  3.37  0.  0.  0.
   339  3.38  0.  0.  0.
   340  3.39  0.  0.  0.
   341  3.40  0.  0.  0.
   342  3.41  0.  0.  0.
   343  3.42  0.  0.  0.
   344  3.43  0.  0.  0.
   345  3.44  0.  0.  0.
   346  3.45  0.  0.  0.
   347  3.46  0.  0.  0.
   348  3.47  0.  0.  0.
   349  3.48  0.  0.  0.
   350  3.49  0.  0.  0.
   351  3.50  0.  0.  0.
   352  3.51  0.  0.  0.
   353  3.52  0.  0.  0.
   354  3.53  0.  0.  0.
   355  3.54  0.  0.  0.
   356  3.55  0.  0.  0.
   357  3.56  0.  0.  0.
   358  3.57  0.  0.  0.
   359  3.58  0.  0.  0.
   360  3.59  0.  0.  0.
   361  3.60  0.  0.  0.
   362  3.61  0.  0.  0.
   363  3.62  0.  0.  0.
   364  3.63  0.  0.  0.
   365  3.64  0.  0.  0.
   366  3.65  0.  0.  0.
   367  3.66  0.  0.  0.
   368  3.67  0.  0.  0.
   369  3.68  0.  0.  0.
   370  3.69  0.  0.  0.
   371  3.70  0.  0.  0.
   372  3.71  0.  0.  0.
   373  3.72  0.  0.  0.
   374  3.73  0.  0.  0.
   375  3.74  0.  0.  0.
   376  3.75  0.  0.  0.
   377  3.76  0.  0.  0.
   378  3.77  0.  0.  0.
   379  3.78  0.  0.  0.
   380  3.79  0.  0.  0.
   381  3.80  0.  0.  0.
   382  3.81  0.  0.  0.
   383  3.82  0.  0.  0.
   384  3.83  0.  0.  0.
   385  3.84  0.  0.  0.
   386  3.85  0.  0.  0.
   387  3.86  0.  0.  0.
   388  3.87  0.  0.  0.
   389  3.88  0.  0.  0.
   390  3.89  0.  0.  0.
   391  3.90  0.  0.  0.
   392  3.91  0.  0.  0.
   393  3.92  0.  0.  0.
   394  3.93  0.  0.  0.
   395  3.94  0.  0.  0.
   396  3.95  0.  0.  0.
   397  3.96  0.  0.  0.
   398  3.97  0.  0.  0.
   399  3.98  0.  0.  0.
   400  3.99  0.  0.  0.
   401  4.00  0.  0.  0.
   402  4.01  0.  0.  0.
   403  4.02  0.  0.  0.
   404  4.03  0.  0.  0.
   405  4.04  0.  0.  0.
   406  4.05  0.  0.  0.
   407  4.06  0.  0.  0.
   408  4.07  0.  0.  0.
   409  4.08  0.  0.  0.
   410  4.09  0.  0.  0.
   411  4.10  0.  0.  0.
   412  4.11  0.  0.  0.
   413  4.12  0.  0.  0.
   414  4.13  0.  0.  0.
   415  4.14  0.  0.  0.
   416  4.15  0.  0.  0.
   417  4.16  0.  0.  0.
   418  4.17  0.  0.  0.
   419  4.18  0.  0.  0.
   420  4.19  0.  0.  0.
   421  4.20  0.  0.  0.
   422  4.21  0.  0.  0.
   423  4.22  0.  0.  0.
   424  4.23  0.  0.  0.
   425  4.24  0.  0.  0.
   426  4.25  0.  0.  0.
   427  4.26  0.  0.  0.
   428  4.27  0.  0.  0.
   429  4.28  0.  0.  0.
   430  4.29  0.  0.  0.
   431  4.30  0.  0.  0.
   432  4.31  0.  0.  0.
   433  4.32  0.  0.  0.
   434  4.33  0.  0.  0.
   435  4.34  0.  0.  0.
   436  4.35  0.  0.  0.
   437  4.36  0.  0.  0.
   438  4.37  0.  0.  0.
   439  4.38  0.  0.  0.
   440  4.39  0.  0.  0.
   441  4.40  0.  0.  0.
   442  4.41  0.  0.  0.
   443  4.42  0.  0.  0.
   444  4.43  0.  0.  0.
   445  4.44  0.  0.  0.
   446  4.45  0.  0.  0.
   447  4.46  0.  0.  0.
   448  4.47  0.  0.  0.
   449  4.48  0.  0.  0.
   450  4.49  0.  0.  0.
   451  4.50  0.  0.  0.
   452  4.51  0.  0.  0.
   453  4.52  0.  0.  0.
   454  4.53  0.  0.  0.
   455  4.54  0.  0.  0.
   456  4.55  0.  0.  0.
   457  4.56  0.  0.  0.
   458  4.57  0.  0.  0.
   459  4.58  0.  0.  0.
   460  4.59  0.  0.  0.
   461  4.60  0.  0.  0.
   462  4.61  0.  0.  0.
   463  4.62  0.  0.  0.
   464  4.63  0.  0.  0.
   465  4.64  0.  0.  0.
   466  4.65  0.  0.  0.
   467  4.66  0.  0.  0.
   468  4.67  0.  0.  0.
   469  4.68  0.  0.  0.
   470  4.69  0.  0.  0.
   471  4.70  0.  0.  0.
   472  4.71  0.  0.  0.
   473  4.72  0.  0.  0.
   474  4.73  0.  0.  0.
   475  4.74  0.  0.  0.
   476  4.75  0.  0.  0.
   477  4.76  0.  0.  0.
   478  4.77  0.  0.  0.
   479  4.78  0.  0.  0.
   480  4.79  0.  0.  0.
   481  4.80  0.  0.  0.
   482  4.81  0.  0.  0.
   483  4.82  0.  0.  0.
   484  4.83  0.  0.  0.
   485  4.84  0.  0.  0.
   486  4.85  0.  0.  0.
   487  4.86  0.  0.  0.
   488  4.87  0.  0.  0.
   489  4.88  0.  0.  0.
   490  4.89  0.  0.  0.
   491  4.90  0.  0.  0.
   492  4.91  0.  0.  0.
   493  4.92  0.  0.  0.
   494  4.93  0.  0.  0.
   495  4.94  0.  0.  0.
   496  4.95  0.  0.  0.
   497  4.96  0.  0.  0.
   498  4.97  0.  0.  0.
   499  4.98  0.  0.  0.
   500  4.99  0.  0.  0.
   501  5.00  0.  0.  0.
   502  5.01  0.  0.  0.
   503  5.02  0.  0.  0.
   504  5.03  0.  0.  0.
   505  5.04  0.  0.  0.
   506  5.05  0.  0.  0.
   507  5.06  0.  0.  0.
   508  5.07  0.  0.  0.
   509  5.08  0.  0.  0.
   510  5.09  0.  0.  0.
   511  5.10  0.  0.  0.
   512  5.11  0.  0.  0.
   513  5.12  0.  0.  0.
   514  5.13  0.  0.  0.
   515  5.14  0.  0.  0.
   516  5.15  0.  0.  0.
   517  5.16  0.  0.  0.
   518  5.17  0.  0.  0.
   519  5.18  0.  0.  0.
   520  5.19  0.  0.  0.
   521  5.20  0.  0.  0.
   522  5.21  0.  0.  0.
   523  5.22  0.  0.  0.
   524  5.23  0.  0.  0.
   525  5.24  0.  0.  0.
   526  5.25  0.  0.  0.
   527  5.26  0.  0.  0.
   528  5.27  0.  0.  0.
   529  5.28  0.  0.  0.
   530  5.29  0.  0.  0.
   531  5.30  0.  0.  0.
   532  5.31  0.  0.  0.
   533  5.32  0.  0.  0.
   534  5.33  0.  0.  0.
   535  5.34  0.  0.  0.
   536  5.35  0.  0.  0.
   537  5.36  0.  0.  0.
   538  5.37  0.  0.  0.
   539  5.38  0.  0.  0.
   540  5.39  0.  0.  0.
   541  5.40  0.  0.  0.
   542  5.41  0.  0.  0.
   543  5.42  0.  0.  0.
   544  5.43  0.  0.  0.
   545  5.44  0.  0.  0.
   546  5.45  0.  0.  0.
   547  5.46  0.  0.  0.
   548  5.47  0.  0.  0.
   549  5.48  0.  0.  0.
   550  5.49  0.  0.  0.
   551  5.50  0.  0.  0.
   552  5.51  0.  0.  0.
   553  5.52  0.  0.  0.
   554  5.53  0.  0.  0.
   555  5.54  0.  0.  0.
   556  5.55  0.  0.  0.
   557  5.56  0.  0.  0.
   558  5.57  0.  0.  0.
   559  5.58  0.  0.  0.
   560  5.59  0.  0.  0.
   561  5.60  0.  0.  0.
   562  5.61  0.  0.  0.
   563  5.62  0.  0.  0.
   564  5.63  0.  0.  0.
   565  5.64  0.  0.  0.
   566  5.65  0.  0.  0.
   567  5.66  0.  0.  0.
   568  5.67  0.  0.  0.
   569  5.68  0.  0.  0.
   570  5.69  0.  0.  0.
   571  5.70  0.  0.  0.
   572  5.71  0.  0.  0.
   573  5.72  0.  0.  0.
   574  5.73  0.  0.  0.
   575  5.74  0.  0.  0.
   576  5.75  0.  0.  0.
   577  5.76  0.  0.  0.
   578  5.77  0.  0.  0.
   579  5.78  0.  0.  0.
   580  5.79  0.  0.  0.
   581  5.80  0.  0.  0.
   582  5.81  0.  0.  0.
   583  5.82  0.  0.  0.
   584  5.83  0.  0.  0.
   585  5.84  0.  0.  0.
   586  5.85  0.  0.  0.
   587  5.86  0.  0.  0.
   588  5.87  0.  0.  0.
   589  5.88  0.  0.  0.
   590  5.89  0.  0.  0.
   591  5.90  0.  0.  0.
   592  5.91  0.  0.  0.
   593  5.92  0.  0.  0.
   594  5.93  0.  0.  0.
   595  5.94  0.  0.  0.
   596  5.95  0.  0.  0.
   597  5.96  0.  0.  0.
   598  5.97  0.  0.  0.
   599  5.98  0.  0.  0.
   600  5.99  0.  0.  0.
   1                        -8.4678527459886E+00 -1.6796091353222E-01
     1  0.0000000000000E+00  1.9822464225605E-09  3.9912455424007E-09
     2  1.0000000000000E-02  2.4236011892364E-03  1.4908745310851E-03
     3  2.0000000000000E-02  9.6791482949816E-03  5.9508225850771E-03
     4  3.0000000000000E-02  2.1720988352002E-02  1.3341938238239E-02
     5  4.0000000000000E-02  3.8473420068554E-02  2.3601444537667E-02
     6  5.0000000000000E-02  5.9831270515436E-02  3.6642283426519E-02
     7  6.0000000000000E-02  8.5660694960742E-02  5.2353923071760E-02
     8  7.0000000000000E-02  1.1580019241985E-01  7.0603364817391E-02
     9  8.0000000000000E-02  1.5006182750798E-01  9.1236327994878E-02
    10  9.0000000000000E-02  1.8823264730351E-01  1.1407858760996E-01
    11  1.0000000000000E-01  2.3007628017489E-01  1.3893743758067E-01
    12  1.1000000000000E-01  2.7533470191025E-01  1.6560325082701E-01
    13  1.2000000000000E-01  3.2373015303550E-01  1.9385110714406E-01
    14  1.3000000000000E-01  3.7496718992651E-01  2.2344246044131E-01
    15  1.4000000000000E-01  4.2873485122930E-01  2.5412681858044E-01
    16  1.5000000000000E-01  4.8470892020792E-01  2.8564341161906E-01
    17  1.6000000000000E-01  5.4255426295185E-01  3.1772282768781E-01
    18  1.7000000000000E-01  6.0192722189920E-01  3.5008859984842E-01
    19  1.8000000000000E-01  6.6247804387129E-01  3.8245873195863E-01
    20  1.9000000000000E-01  7.2385332176954E-01  4.1454715662293E-01
    21  2.0000000000000E-01  7.8569842925460E-01  4.4606512354469E-01
    22  2.1000000000000E-01  8.4765992810580E-01  4.7672252181069E-01
    23  2.2000000000000E-01  9.0938792853923E-01  5.0622914463312E-01
    24  2.3000000000000E-01  9.7053838353586E-01  5.3429590963928E-01
    25  2.4000000000000E-01  1.0307752991850E+00  5.6063605175376E-01
    26  2.5000000000000E-01  1.0897728441699E+00  5.8496630888361E-01
    27  2.6000000000000E-01  1.1472173427951E+00  6.0700812285699E-01
    28  2.7000000000000E-01  1.2028091373633E+00  6.2648887925555E-01
    29  2.8000000000000E-01  1.2562643072333E+00  6.4314320984510E-01
    30  2.9000000000000E-01  1.3073162335090E+00  6.5671438020382E-01
    31  3.0000000000000E-01  1.3557170000089E+00  6.6695578286805E-01
    32  3.1000000000000E-01  1.4012386229105E+00  6.7363255290227E-01
    33  3.2000000000000E-01  1.4436741032542E+00  6.7652331833515E-01
    34  3.3000000000000E-01  1.4828382982805E+00  6.7542209249479E-01
    35  3.4000000000000E-01  1.5185686093668E+00  6.7014030909661E-01
    36  3.5000000000000E-01  1.5507254860831E+00  6.6050899414484E-01
    37  3.6000000000000E-01  1.5791927475972E+00  6.4638106154486E-01
    38  3.7000000000000E-01  1.6038777242994E+00  6.2763371198787E-01
    39  3.8000000000000E-01  1.6247112240756E+00  6.0417090742812E-01
    40  3.9000000000000E-01  1.6416473291146E+00  5.7592588655210E-01
    41  4.0000000000000E-01  1.6546630304788E+00  5.4286368029515E-01
    42  4.1000000000000E-01  1.6637577088904E+00  5.0498358090907E-01
    43  4.2000000000000E-01  1.6689524712688E+00  4.6232151354340E-01
    44  4.3000000000000E-01  1.6702893534974E+00  4.1495225595095E-01
    45  4.4000000000000E-01  1.6678304006997E+00  3.6299144990742E-01
    46  4.5000000000000E-01  1.6616566369454E+00  3.0659734736360E-01
    47  4.6000000000000E-01  1.6518669368068E+00  2.4597223527991E-01
    48  4.7000000000000E-01  1.6385768115303E+00  1.8136348555221E-01
    49  4.8000000000000E-01  1.6219171227856E+00  1.1306418039088E-01
    50  4.9000000000000E-01  1.6020327370142E+00  4.1413268882993E-02
    51  5.0000000000000E-01  1.5790811333192E+00 -3.3204782872402E-02
    52  5.1000000000000E-01  1.5532309776359E+00 -1.1036087788362E-01
    53  5.2000000000000E-01  1.5246606755984E+00 -1.8958273176669E-01
    54  5.3000000000000E-01  1.4935569160939E+00 -2.7035688537332E-01
    55  5.4000000000000E-01  1.4601132169701E+00 -3.5213128849026E-01
    56  5.5000000000000E-01  1.4245284837584E+00 -4.3431844661450E-01
    57  5.6000000000000E-01  1.3870055916036E+00 -5.1629911300597E-01
    58  5.7000000000000E-01  1.3477499998555E+00 -5.9742649884363E-01
    59  5.8000000000000E-01  1.3069684080081E+00 -6.7703096562267E-01
    60  5.9000000000000E-01  1.2648674608618E+00 -7.5442515618046E-01
    61  6.0000000000000E-01  1.2216525099623E+00 -8.2890951414018E-01
    62  6.1000000000000E-01  1.1775264375333E+00 -8.9977813628455E-01
    63  6.2000000000000E-01  1.1326885482889E+00 -9.6632489855274E-01
    64  6.3000000000000E-01  1.0873335336957E+00 -1.0278497940582E+00
    65  6.4000000000000E-01  1.0416505124486E+00 -1.0836654207814E+00
    66  6.5000000000000E-01  9.9582215015714E-01 -1.1331035573494E+00
    67  6.6000000000000E-01  9.5002386049883E-01 -1.1755217674820E+00
    68  6.7000000000000E-01  9.0442308939152E-01 -1.2103099771004E+00
    69  6.8000000000000E-01  8.5917868308124E-01 -1.2368969725445E+00
    70  6.9000000000000E-01  8.1444034042197E-01 -1.2547567735785E+00
    71  7.0000000000000E-01  7.7034814905375E-01 -1.2634148405619E+00
    72  7.1000000000000E-01  7.2703220465787E-01 -1.2624540810115E+00
    73  7.2000000000000E-01  6.8461231198536E-01 -1.2515206264063E+00
    74  7.3000000000000E-01  6.4319776591454E-01 -1.2303293551361E+00
    75  7.4000000000000E-01  6.0288721039304E-01 -1.1986691415954E+00
    76  7.5000000000000E-01  5.6376857275767E-01 -1.1564078142391E+00
    77  7.6000000000000E-01  5.2591907059717E-01 -1.1034968066138E+00
    78  7.7000000000000E-01  4.8940528802649E-01 -1.0399754846912E+00
    79  7.8000000000000E-01  4.5428331797283E-01 -9.6597513102557E-01
    80  7.9000000000000E-01  4.2059896683046E-01 -8.8172256117648E-01
    81  8.0000000000000E-01  3.8838801762019E-01 -7.8754334039642E-01
    82  8.1000000000000E-01  3.5767654758828E-01 -6.8386455876154E-01
    83  8.2000000000000E-01  3.2848129599655E-01 -5.7121711081907E-01
    84  8.3000000000000E-01  3.0081007768815E-01 -4.5023741157789E-01
    85  8.4000000000000E-01  2.7466223786312E-01 -3.2166846456109E-01
    86  8.5000000000000E-01  2.5002914336170E-01 -1.8636017999068E-01
    87  8.6000000000000E-01  2.2689470563422E-01 -4.5268822421345E-02
    88  8.7000000000000E-01  2.0523593047381E-01  1.0054455222773E-01
    89  8.8000000000000E-01  1.8502348950435E-01  2.4991682971777E-01
    90  8.9000000000000E-01  1.6622230835341E-01  4.0158691894593E-01
    91  9.0000000000000E-01  1.4879216640021E-01  5.5420137781746E-01
    92  9.1000000000000E-01  1.3268830297558E-01  7.0632179531895E-01
    93  9.2000000000000E-01  1.1786202490676E-01  8.5643415484881E-01
    94  9.3000000000000E-01  1.0426131034839E-01  1.0029604139166E+00
    95  9.4000000000000E-01  9.1831403924433E-02  1.1442725415914E+00
    96  9.5000000000000E-01  8.0515398327656E-02  1.2787092569773E+00
    97  9.6000000000000E-01  7.0254797685145E-02  1.4045957090262E+00
    98  9.7000000000000E-01  6.0990058202662E-02  1.5202663297868E+00
    99  9.8000000000000E-01  5.2661101848231E-02  1.6240910794171E+00
   100  9.9000000000000E-01  4.5207799127076E-02  1.7145052817696E+00