Db    ONCVPSP-4.0.1  r_core=   1.10309   1.30423   1.20665   1.20665
105.0000     45.0000      220307    zatom,zion,pspd
8      11   3     4   600     0    pspcod,pspxc,lmax,lloc,mmax,r2well
5.99000000  5.00000000  0.00000000    rchrg fchrg qchrg
3     2     2     2     0    nproj
1     1           extension_switch
0                         2.2279347853721E+01 -9.6852251596668E+00 -3.0910616778634E-01
1  0.0000000000000E+00 -2.8891808279141E-08 -2.1065799105102E-10  1.2373575608571E-07
2  1.0000000000000E-02  2.1342068827213E-01  4.6355543493364E-02 -8.4479586386978E-02
3  2.0000000000000E-02  4.2466490870191E-01  9.2741396940064E-02 -1.6715840827587E-01
4  3.0000000000000E-02  6.3158362420302E-01  1.3918690080386E-01 -2.4628042484300E-01
5  4.0000000000000E-02  8.3208224146231E-01  1.8571946396699E-01 -3.2017786040749E-01
6  5.0000000000000E-02  1.0241467961106E+00  2.3236361650046E-01 -3.8731241489019E-01
7  6.0000000000000E-02  1.2058689150358E+00  2.7914008488918E-01 -4.4631306025749E-01
8  7.0000000000000E-02  1.3754691830630E+00  3.2606489748225E-01 -4.9600943615809E-01
9  8.0000000000000E-02  1.5313185701155E+00  3.7314852814937E-01 -5.3545998169672E-01
10  9.0000000000000E-02  1.6719576099012E+00  4.2039508634695E-01 -5.6397408783426E-01
11  1.0000000000000E-01  1.7961130613789E+00  4.6780156200750E-01 -5.8112772184163E-01
12  1.1000000000000E-01  1.9027118289071E+00  5.1535713383585E-01 -5.8677215658543E-01
13  1.2000000000000E-01  1.9908919651146E+00  5.6304254969741E-01 -5.8103562779562E-01
14  1.3000000000000E-01  2.0600106311527E+00  6.1082958778846E-01 -5.6431793623282E-01
15  1.4000000000000E-01  2.1096489410587E+00  6.5868060715794E-01 -5.3727820314431E-01
16  1.5000000000000E-01  2.1396136694118E+00  7.0654819588048E-01 -5.0081617099259E-01
17  1.6000000000000E-01  2.1499358532634E+00  7.5437492473908E-01 -4.5604761186883E-01
18  1.7000000000000E-01  2.1408663694528E+00  8.0209321364554E-01 -4.0427455842222E-01
19  1.8000000000000E-01  2.1128686159390E+00  8.4962531719761E-01 -3.4695120229083E-01
20  1.9000000000000E-01  2.0666084698100E+00  8.9688343473702E-01 -2.8564640938864E-01
21  2.0000000000000E-01  2.0029417344094E+00  9.4376994903566E-01 -2.2200387728731E-01
22  2.1000000000000E-01  1.9228993228816E+00  9.9017779630607E-01 -1.5770100551786E-01
23  2.2000000000000E-01  1.8276704548617E+00  1.0359909686242E+00 -9.4407564074756E-02
24  2.3000000000000E-01  1.7185841666164E+00  1.0810851480903E+00 -3.3745228825095E-02
25  2.4000000000000E-01  1.5970894524348E+00  1.1253284701686E+00  2.2750994015643E-02
26  2.5000000000000E-01  1.4647343663562E+00  1.1685824116706E+00  7.3668506723162E-02
27  2.6000000000000E-01  1.3231444184262E+00  1.2107027968291E+00  1.1774917435530E-01
28  2.7000000000000E-01  1.1740005987638E+00  1.2515409128849E+00  1.5391696806623E-01
29  2.8000000000000E-01  1.0190173560734E+00  1.2909447246306E+00  1.8130061000980E-01
30  2.9000000000000E-01  8.5992084525034E-01  1.3287601754727E+00  1.9925078434971E-01
31  3.0000000000000E-01  6.9842774188862E-01  1.3648325608290E+00  2.0735163890268E-01
32  3.1000000000000E-01  5.3622490039247E-01  1.3990079581256E+00  2.0542646494620E-01
33  3.2000000000000E-01  3.7495010763570E-01  1.4311346963325E+00  1.9353760369471E-01
34  3.3000000000000E-01  2.1617415639790E-01  1.4610648469234E+00  1.7198078201625E-01
35  3.4000000000000E-01  6.1384432825536E-02  1.4886557173930E+00  1.4127422262422E-01
36  3.5000000000000E-01 -8.8029819370174E-02  1.5137713280391E+00  1.0214300117236E-01
37  3.6000000000000E-01 -2.3079042766621E-01  1.5362838526349E+00  5.5499230969630E-02
38  3.7000000000000E-01 -3.6574131471980E-01  1.5560750038913E+00  2.4187426726258E-03
39  3.8000000000000E-01 -4.9185755207294E-01  1.5730373452281E+00 -5.5885010636362E-02
40  3.9000000000000E-01 -6.0825240924934E-01  1.5870755113452E+00 -1.1808905428789E-01
41  4.0000000000000E-01 -7.1418239366667E-01  1.5981073213721E+00 -1.8279021676320E-01
42  4.1000000000000E-01 -8.0905030464439E-01  1.6060647699651E+00 -2.4853490746828E-01
43  4.2000000000000E-01 -8.9240635043081E-01  1.6108948835701E+00 -3.1384861086077E-01
44  4.3000000000000E-01 -9.6394740034629E-01  1.6125604311408E+00 -3.7726441538411E-01
45  4.4000000000000E-01 -1.0235144646751E+00  1.6110404808466E+00 -4.3734996894909E-01
46  4.5000000000000E-01 -1.0710885127447E+00  1.6063307966678E+00 -4.9273234081397E-01
47  4.6000000000000E-01 -1.1067847546886E+00  1.5984440712100E+00 -5.4212036893279E-01
48  4.7000000000000E-01 -1.1308455247451E+00  1.5874099935087E+00 -5.8432417811262E-01
49  4.8000000000000E-01 -1.1436319136993E+00  1.5732751529993E+00 -6.1827166354129E-01
50  4.9000000000000E-01 -1.1456143053781E+00  1.5561027831247E+00 -6.4302184225529E-01
51  5.0000000000000E-01 -1.1373619771373E+00  1.5359723502128E+00 -6.5777507801618E-01
52  5.1000000000000E-01 -1.1195319272360E+00  1.5129789952203E+00 -6.6188027917932E-01
53  5.2000000000000E-01 -1.0928570930935E+00  1.4872328376809E+00 -6.5483925133352E-01
54  5.3000000000000E-01 -1.0581341238700E+00  1.4588581526736E+00 -6.3630845411931E-01
55  5.4000000000000E-01 -1.0162108688205E+00  1.4279924328365E+00 -6.0609846273617E-01
56  5.5000000000000E-01 -9.6797373960526E-01  1.3947853483581E+00 -5.6417146797321E-01
57  5.6000000000000E-01 -9.1433510037082E-01  1.3593976184988E+00 -5.1063716365778E-01
58  5.7000000000000E-01 -8.5622083406578E-01  1.3219998085248E+00 -4.4574736746176E-01
59  5.8000000000000E-01 -7.9455822721054E-01  1.2827710659887E+00 -3.6988970109514E-01
60  5.9000000000000E-01 -7.3026430827432E-01  1.2418978100978E+00 -2.8358062075233E-01
61  6.0000000000000E-01 -6.6423476694127E-01  1.1995723874880E+00 -1.8745804063954E-01
62  6.1000000000000E-01 -5.9733357287890E-01  1.1559917071190E+00 -8.2273734400822E-02
63  6.2000000000000E-01 -5.3038340313171E-01  1.1113558662524E+00  3.1114365414270E-02
64  6.3000000000000E-01 -4.6415697691379E-01  1.0658667786190E+00  1.5174991742298E-01
65  6.4000000000000E-01 -3.9936938532273E-01  1.0197268149654E+00  2.7858598564272E-01
66  6.5000000000000E-01 -3.3667149130177E-01  9.7313746524251E-01  4.1049299514272E-01
67  6.6000000000000E-01 -2.7664446200687E-01  9.2629803078830E-01  5.4626696104791E-01
68  6.7000000000000E-01 -2.1979548158301E-01  8.7940435402125E-01  6.8463816632771E-01
69  6.8000000000000E-01 -1.6655467723840E-01  8.3264759241094E-01  8.2428049335848E-01
70  6.9000000000000E-01 -1.1727327548853E-01  7.8621304287050E-01  9.6382162769559E-01
71  7.0000000000000E-01 -7.2222988624398E-02  7.4027902222967E-01  1.1018543483521E+00
72  7.1000000000000E-01 -3.1596613997618E-02  6.9501580911054E-01  1.2369490964685E+00
73  7.2000000000000E-01  4.4901891914014E-03  6.5058465234058E-01  1.3676679736900E+00
74  7.3000000000000E-01  3.5995999004444E-02  6.0713685098851E-01  1.4925802638516E+00
75  7.4000000000000E-01  6.2949677150144E-02  5.6481291118203E-01  1.6102794985022E+00
76  7.5000000000000E-01  8.5445451515550E-02  5.2374178503456E-01  1.7194020010345E+00
77  7.6000000000000E-01  1.0363714035979E-01  4.8404019723741E-01  1.8186467490445E+00
78  7.7000000000000E-01  1.1773163905444E-01  4.4581206512423E-01  1.9067962940010E+00
79  7.8000000000000E-01  1.2798180392050E-01  4.0914801824127E-01  1.9827383757985E+00
80  7.9000000000000E-01  1.3467887924169E-01  3.7412502361180E-01  2.0454877720806E+00
81  8.0000000000000E-01  1.3814462250854E-01  3.4080612291792E-01  2.0942078332758E+00
82  8.1000000000000E-01  1.3872328897882E-01  3.0924028768980E-01  2.1282310789738E+00
83  8.2000000000000E-01  1.3677363937825E-01  2.7946239824645E-01  2.1470781742825E+00
84  8.3000000000000E-01  1.3266113373124E-01  2.5149335153590E-01  2.1504745703817E+00
85  8.4000000000000E-01  1.2675046969179E-01  2.2534030214146E-01  2.1383640852989E+00
86  8.5000000000000E-01  1.1939861521908E-01  2.0099703953537E-01  2.1109187218873E+00
87  8.6000000000000E-01  1.1094847299141E-01  1.7844450315571E-01  2.0685440720490E+00
88  8.7000000000000E-01  1.0172329765722E-01  1.5765143505980E-01  2.0118797404111E+00
89  8.8000000000000E-01  9.2021967083402E-02  1.3857516777647E-01  1.9417943367631E+00
90  8.9000000000000E-01  8.2115185489801E-02  1.2116254256861E-01  1.8593747332878E+00
91  9.0000000000000E-01  7.2242670174166E-02  1.0535095066102E-01  1.7659094575210E+00
92  9.1000000000000E-01  6.2611344963712E-02  9.1069487140033E-02  1.6628662914115E+00
93  9.2000000000000E-01  5.3394533194200E-02  7.8240204249191E-02  1.5518643662171E+00
94  9.3000000000000E-01  4.4732111623984E-02  6.6779447763503E-02  1.4346412765970E+00
95  9.4000000000000E-01  3.6731554987704E-02  5.6599257099555E-02  1.3130159788812E+00
96  9.5000000000000E-01  2.9469769705839E-02  4.7608806897477E-02  1.1888484810301E+00
97  9.6000000000000E-01  2.2995585402320E-02  3.9715865079025E-02  1.0639975679866E+00
98  9.7000000000000E-01  1.7332745168007E-02  3.2828239932697E-02  9.4027802848614E-01
99  9.8000000000000E-01  1.2483210739197E-02  2.6855186687065E-02  8.1941905047773E-01
100  9.9000000000000E-01  8.4305776490377E-03  2.1708742385422E-02  7.0302562532289E-01
101  1.0000000000000E+00  5.1433786341785E-03  1.7304956740990E-02  5.9254493927875E-01
102  1.0100000000000E+00  2.5780416685686E-03  1.3564986090344E-02  4.8923982907501E-01
103  1.0200000000000E+00  6.8126237818527E-04  1.0416017618617E-02  3.9417143219739E-01
104  1.0300000000000E+00 -6.0844019616785E-04  7.7919955784633E-03  3.0819309524310E-01
105  1.0400000000000E+00 -1.3602898684879E-03  5.6340884419844E-03  2.3195814049445E-01
106  1.0500000000000E+00 -1.6540377694571E-03  3.8902314804055E-03  1.6595663794298E-01
107  1.0600000000000E+00 -1.6081380476892E-03  2.5034560319394E-03  1.1074665455634E-01
108  1.0700000000000E+00 -1.3014099939473E-03  1.4416423839119E-03  6.6424912604782E-02
109  1.0800000000000E+00 -8.2931249256287E-04  6.8505227253717E-04  3.3043900760405E-02
110  1.0900000000000E+00 -3.3742561842837E-04  2.1464323955499E-04  1.0903533549114E-02
111  1.1000000000000E+00 -2.8356324383395E-05  1.4124664440978E-05  7.6150307243990E-04
112  1.1100000000000E+00 -2.8854246213432E-07  1.4206175165924E-07  7.7024637752967E-06
113  1.1200000000000E+00  2.5389617928872E-07 -1.3689989457623E-07 -7.2487477839343E-06
114  1.13  0.  0.  0.
115  1.14  0.  0.  0.
116  1.15  0.  0.  0.
117  1.16  0.  0.  0.
118  1.17  0.  0.  0.
119  1.18  0.  0.  0.
120  1.19  0.  0.  0.
121  1.20  0.  0.  0.
122  1.21  0.  0.  0.
123  1.22  0.  0.  0.
124  1.23  0.  0.  0.
125  1.24  0.  0.  0.
126  1.25  0.  0.  0.
127  1.26  0.  0.  0.
128  1.27  0.  0.  0.
129  1.28  0.  0.  0.
130  1.29  0.  0.  0.
131  1.30  0.  0.  0.
132  1.31  0.  0.  0.
133  1.32  0.  0.  0.
134  1.33  0.  0.  0.
135  1.34  0.  0.  0.
136  1.35  0.  0.  0.
137  1.36  0.  0.  0.
138  1.37  0.  0.  0.
139  1.38  0.  0.  0.
140  1.39  0.  0.  0.
141  1.40  0.  0.  0.
142  1.41  0.  0.  0.
143  1.42  0.  0.  0.
144  1.43  0.  0.  0.
145  1.44  0.  0.  0.
146  1.45  0.  0.  0.
147  1.46  0.  0.  0.
148  1.47  0.  0.  0.
149  1.48  0.  0.  0.
150  1.49  0.  0.  0.
151  1.50  0.  0.  0.
152  1.51  0.  0.  0.
153  1.52  0.  0.  0.
154  1.53  0.  0.  0.
155  1.54  0.  0.  0.
156  1.55  0.  0.  0.
157  1.56  0.  0.  0.
158  1.57  0.  0.  0.
159  1.58  0.  0.  0.
160  1.59  0.  0.  0.
161  1.60  0.  0.  0.
162  1.61  0.  0.  0.
163  1.62  0.  0.  0.
164  1.63  0.  0.  0.
165  1.64  0.  0.  0.
166  1.65  0.  0.  0.
167  1.66  0.  0.  0.
168  1.67  0.  0.  0.
169  1.68  0.  0.  0.
170  1.69  0.  0.  0.
171  1.70  0.  0.  0.
172  1.71  0.  0.  0.
173  1.72  0.  0.  0.
174  1.73  0.  0.  0.
175  1.74  0.  0.  0.
176  1.75  0.  0.  0.
177  1.76  0.  0.  0.
178  1.77  0.  0.  0.
179  1.78  0.  0.  0.
180  1.79  0.  0.  0.
181  1.80  0.  0.  0.
182  1.81  0.  0.  0.
183  1.82  0.  0.  0.
184  1.83  0.  0.  0.
185  1.84  0.  0.  0.
186  1.85  0.  0.  0.
187  1.86  0.  0.  0.
188  1.87  0.  0.  0.
189  1.88  0.  0.  0.
190  1.89  0.  0.  0.
191  1.90  0.  0.  0.
192  1.91  0.  0.  0.
193  1.92  0.  0.  0.
194  1.93  0.  0.  0.
195  1.94  0.  0.  0.
196  1.95  0.  0.  0.
197  1.96  0.  0.  0.
198  1.97  0.  0.  0.
199  1.98  0.  0.  0.
200  1.99  0.  0.  0.
201  2.00  0.  0.  0.
202  2.01  0.  0.  0.
203  2.02  0.  0.  0.
204  2.03  0.  0.  0.
205  2.04  0.  0.  0.
206  2.05  0.  0.  0.
207  2.06  0.  0.  0.
208  2.07  0.  0.  0.
209  2.08  0.  0.  0.
210  2.09  0.  0.  0.
211  2.10  0.  0.  0.
212  2.11  0.  0.  0.
213  2.12  0.  0.  0.
214  2.13  0.  0.  0.
215  2.14  0.  0.  0.
216  2.15  0.  0.  0.
217  2.16  0.  0.  0.
218  2.17  0.  0.  0.
219  2.18  0.  0.  0.
220  2.19  0.  0.  0.
221  2.20  0.  0.  0.
222  2.21  0.  0.  0.
223  2.22  0.  0.  0.
224  2.23  0.  0.  0.
225  2.24  0.  0.  0.
226  2.25  0.  0.  0.
227  2.26  0.  0.  0.
228  2.27  0.  0.  0.
229  2.28  0.  0.  0.
230  2.29  0.  0.  0.
231  2.30  0.  0.  0.
232  2.31  0.  0.  0.
233  2.32  0.  0.  0.
234  2.33  0.  0.  0.
235  2.34  0.  0.  0.
236  2.35  0.  0.  0.
237  2.36  0.  0.  0.
238  2.37  0.  0.  0.
239  2.38  0.  0.  0.
240  2.39  0.  0.  0.
241  2.40  0.  0.  0.
242  2.41  0.  0.  0.
243  2.42  0.  0.  0.
244  2.43  0.  0.  0.
245  2.44  0.  0.  0.
246  2.45  0.  0.  0.
247  2.46  0.  0.  0.
248  2.47  0.  0.  0.
249  2.48  0.  0.  0.
250  2.49  0.  0.  0.
251  2.50  0.  0.  0.
252  2.51  0.  0.  0.
253  2.52  0.  0.  0.
254  2.53  0.  0.  0.
255  2.54  0.  0.  0.
256  2.55  0.  0.  0.
257  2.56  0.  0.  0.
258  2.57  0.  0.  0.
259  2.58  0.  0.  0.
260  2.59  0.  0.  0.
261  2.60  0.  0.  0.
262  2.61  0.  0.  0.
263  2.62  0.  0.  0.
264  2.63  0.  0.  0.
265  2.64  0.  0.  0.
266  2.65  0.  0.  0.
267  2.66  0.  0.  0.
268  2.67  0.  0.  0.
269  2.68  0.  0.  0.
270  2.69  0.  0.  0.
271  2.70  0.  0.  0.
272  2.71  0.  0.  0.
273  2.72  0.  0.  0.
274  2.73  0.  0.  0.
275  2.74  0.  0.  0.
276  2.75  0.  0.  0.
277  2.76  0.  0.  0.
278  2.77  0.  0.  0.
279  2.78  0.  0.  0.
280  2.79  0.  0.  0.
281  2.80  0.  0.  0.
282  2.81  0.  0.  0.
283  2.82  0.  0.  0.
284  2.83  0.  0.  0.
285  2.84  0.  0.  0.
286  2.85  0.  0.  0.
287  2.86  0.  0.  0.
288  2.87  0.  0.  0.
289  2.88  0.  0.  0.
290  2.89  0.  0.  0.
291  2.90  0.  0.  0.
292  2.91  0.  0.  0.
293  2.92  0.  0.  0.
294  2.93  0.  0.  0.
295  2.94  0.  0.  0.
296  2.95  0.  0.  0.
297  2.96  0.  0.  0.
298  2.97  0.  0.  0.
299  2.98  0.  0.  0.
300  2.99  0.  0.  0.
301  3.00  0.  0.  0.
302  3.01  0.  0.  0.
303  3.02  0.  0.  0.
304  3.03  0.  0.  0.
305  3.04  0.  0.  0.
306  3.05  0.  0.  0.
307  3.06  0.  0.  0.
308  3.07  0.  0.  0.
309  3.08  0.  0.  0.
310  3.09  0.  0.  0.
311  3.10  0.  0.  0.
312  3.11  0.  0.  0.
313  3.12  0.  0.  0.
314  3.13  0.  0.  0.
315  3.14  0.  0.  0.
316  3.15  0.  0.  0.
317  3.16  0.  0.  0.
318  3.17  0.  0.  0.
319  3.18  0.  0.  0.
320  3.19  0.  0.  0.
321  3.20  0.  0.  0.
322  3.21  0.  0.  0.
323  3.22  0.  0.  0.
324  3.23  0.  0.  0.
325  3.24  0.  0.  0.
326  3.25  0.  0.  0.
327  3.26  0.  0.  0.
328  3.27  0.  0.  0.
329  3.28  0.  0.  0.
330  3.29  0.  0.  0.
331  3.30  0.  0.  0.
332  3.31  0.  0.  0.
333  3.32  0.  0.  0.
334  3.33  0.  0.  0.
335  3.34  0.  0.  0.
336  3.35  0.  0.  0.
337  3.36  0.  0.  0.
338  3.37  0.  0.  0.
339  3.38  0.  0.  0.
340  3.39  0.  0.  0.
341  3.40  0.  0.  0.
342  3.41  0.  0.  0.
343  3.42  0.  0.  0.
344  3.43  0.  0.  0.
345  3.44  0.  0.  0.
346  3.45  0.  0.  0.
347  3.46  0.  0.  0.
348  3.47  0.  0.  0.
349  3.48  0.  0.  0.
350  3.49  0.  0.  0.
351  3.50  0.  0.  0.
352  3.51  0.  0.  0.
353  3.52  0.  0.  0.
354  3.53  0.  0.  0.
355  3.54  0.  0.  0.
356  3.55  0.  0.  0.
357  3.56  0.  0.  0.
358  3.57  0.  0.  0.
359  3.58  0.  0.  0.
360  3.59  0.  0.  0.
361  3.60  0.  0.  0.
362  3.61  0.  0.  0.
363  3.62  0.  0.  0.
364  3.63  0.  0.  0.
365  3.64  0.  0.  0.
366  3.65  0.  0.  0.
367  3.66  0.  0.  0.
368  3.67  0.  0.  0.
369  3.68  0.  0.  0.
370  3.69  0.  0.  0.
371  3.70  0.  0.  0.
372  3.71  0.  0.  0.
373  3.72  0.  0.  0.
374  3.73  0.  0.  0.
375  3.74  0.  0.  0.
376  3.75  0.  0.  0.
377  3.76  0.  0.  0.
378  3.77  0.  0.  0.
379  3.78  0.  0.  0.
380  3.79  0.  0.  0.
381  3.80  0.  0.  0.
382  3.81  0.  0.  0.
383  3.82  0.  0.  0.
384  3.83  0.  0.  0.
385  3.84  0.  0.  0.
386  3.85  0.  0.  0.
387  3.86  0.  0.  0.
388  3.87  0.  0.  0.
389  3.88  0.  0.  0.
390  3.89  0.  0.  0.
391  3.90  0.  0.  0.
392  3.91  0.  0.  0.
393  3.92  0.  0.  0.
394  3.93  0.  0.  0.
395  3.94  0.  0.  0.
396  3.95  0.  0.  0.
397  3.96  0.  0.  0.
398  3.97  0.  0.  0.
399  3.98  0.  0.  0.
400  3.99  0.  0.  0.
401  4.00  0.  0.  0.
402  4.01  0.  0.  0.
403  4.02  0.  0.  0.
404  4.03  0.  0.  0.
405  4.04  0.  0.  0.
406  4.05  0.  0.  0.
407  4.06  0.  0.  0.
408  4.07  0.  0.  0.
409  4.08  0.  0.  0.
410  4.09  0.  0.  0.
411  4.10  0.  0.  0.
412  4.11  0.  0.  0.
413  4.12  0.  0.  0.
414  4.13  0.  0.  0.
415  4.14  0.  0.  0.
416  4.15  0.  0.  0.
417  4.16  0.  0.  0.
418  4.17  0.  0.  0.
419  4.18  0.  0.  0.
420  4.19  0.  0.  0.
421  4.20  0.  0.  0.
422  4.21  0.  0.  0.
423  4.22  0.  0.  0.
424  4.23  0.  0.  0.
425  4.24  0.  0.  0.
426  4.25  0.  0.  0.
427  4.26  0.  0.  0.
428  4.27  0.  0.  0.
429  4.28  0.  0.  0.
430  4.29  0.  0.  0.
431  4.30  0.  0.  0.
432  4.31  0.  0.  0.
433  4.32  0.  0.  0.
434  4.33  0.  0.  0.
435  4.34  0.  0.  0.
436  4.35  0.  0.  0.
437  4.36  0.  0.  0.
438  4.37  0.  0.  0.
439  4.38  0.  0.  0.
440  4.39  0.  0.  0.
441  4.40  0.  0.  0.
442  4.41  0.  0.  0.
443  4.42  0.  0.  0.
444  4.43  0.  0.  0.
445  4.44  0.  0.  0.
446  4.45  0.  0.  0.
447  4.46  0.  0.  0.
448  4.47  0.  0.  0.
449  4.48  0.  0.  0.
450  4.49  0.  0.  0.
451  4.50  0.  0.  0.
452  4.51  0.  0.  0.
453  4.52  0.  0.  0.
454  4.53  0.  0.  0.
455  4.54  0.  0.  0.
456  4.55  0.  0.  0.
457  4.56  0.  0.  0.
458  4.57  0.  0.  0.
459  4.58  0.  0.  0.
460  4.59  0.  0.  0.
461  4.60  0.  0.  0.
462  4.61  0.  0.  0.
463  4.62  0.  0.  0.
464  4.63  0.  0.  0.
465  4.64  0.  0.  0.
466  4.65  0.  0.  0.
467  4.66  0.  0.  0.
468  4.67  0.  0.  0.
469  4.68  0.  0.  0.
470  4.69  0.  0.  0.
471  4.70  0.  0.  0.
472  4.71  0.  0.  0.
473  4.72  0.  0.  0.
474  4.73  0.  0.  0.
475  4.74  0.  0.  0.
476  4.75  0.  0.  0.
477  4.76  0.  0.  0.
478  4.77  0.  0.  0.
479  4.78  0.  0.  0.
480  4.79  0.  0.  0.
481  4.80  0.  0.  0.
482  4.81  0.  0.  0.
483  4.82  0.  0.  0.
484  4.83  0.  0.  0.
485  4.84  0.  0.  0.
486  4.85  0.  0.  0.
487  4.86  0.  0.  0.
488  4.87  0.  0.  0.
489  4.88  0.  0.  0.
490  4.89  0.  0.  0.
491  4.90  0.  0.  0.
492  4.91  0.  0.  0.
493  4.92  0.  0.  0.
494  4.93  0.  0.  0.
495  4.94  0.  0.  0.
496  4.95  0.  0.  0.
497  4.96  0.  0.  0.
498  4.97  0.  0.  0.
499  4.98  0.  0.  0.
500  4.99  0.  0.  0.
501  5.00  0.  0.  0.
502  5.01  0.  0.  0.
503  5.02  0.  0.  0.
504  5.03  0.  0.  0.
505  5.04  0.  0.  0.
506  5.05  0.  0.  0.
507  5.06  0.  0.  0.
508  5.07  0.  0.  0.
509  5.08  0.  0.  0.
510  5.09  0.  0.  0.
511  5.10  0.  0.  0.
512  5.11  0.  0.  0.
513  5.12  0.  0.  0.
514  5.13  0.  0.  0.
515  5.14  0.  0.  0.
516  5.15  0.  0.  0.
517  5.16  0.  0.  0.
518  5.17  0.  0.  0.
519  5.18  0.  0.  0.
520  5.19  0.  0.  0.
521  5.20  0.  0.  0.
522  5.21  0.  0.  0.
523  5.22  0.  0.  0.
524  5.23  0.  0.  0.
525  5.24  0.  0.  0.
526  5.25  0.  0.  0.
527  5.26  0.  0.  0.
528  5.27  0.  0.  0.
529  5.28  0.  0.  0.
530  5.29  0.  0.  0.
531  5.30  0.  0.  0.
532  5.31  0.  0.  0.
533  5.32  0.  0.  0.
534  5.33  0.  0.  0.
535  5.34  0.  0.  0.
536  5.35  0.  0.  0.
537  5.36  0.  0.  0.
538  5.37  0.  0.  0.
539  5.38  0.  0.  0.
540  5.39  0.  0.  0.
541  5.40  0.  0.  0.
542  5.41  0.  0.  0.
543  5.42  0.  0.  0.
544  5.43  0.  0.  0.
545  5.44  0.  0.  0.
546  5.45  0.  0.  0.
547  5.46  0.  0.  0.
548  5.47  0.  0.  0.
549  5.48  0.  0.  0.
550  5.49  0.  0.  0.
551  5.50  0.  0.  0.
552  5.51  0.  0.  0.
553  5.52  0.  0.  0.
554  5.53  0.  0.  0.
555  5.54  0.  0.  0.
556  5.55  0.  0.  0.
557  5.56  0.  0.  0.
558  5.57  0.  0.  0.
559  5.58  0.  0.  0.
560  5.59  0.  0.  0.
561  5.60  0.  0.  0.
562  5.61  0.  0.  0.
563  5.62  0.  0.  0.
564  5.63  0.  0.  0.
565  5.64  0.  0.  0.
566  5.65  0.  0.  0.
567  5.66  0.  0.  0.
568  5.67  0.  0.  0.
569  5.68  0.  0.  0.
570  5.69  0.  0.  0.
571  5.70  0.  0.  0.
572  5.71  0.  0.  0.
573  5.72  0.  0.  0.
574  5.73  0.  0.  0.
575  5.74  0.  0.  0.
576  5.75  0.  0.  0.
577  5.76  0.  0.  0.
578  5.77  0.  0.  0.
579  5.78  0.  0.  0.
580  5.79  0.  0.  0.
581  5.80  0.  0.  0.
582  5.81  0.  0.  0.
583  5.82  0.  0.  0.
584  5.83  0.  0.  0.
585  5.84  0.  0.  0.
586  5.85  0.  0.  0.
587  5.86  0.  0.  0.
588  5.87  0.  0.  0.
589  5.88  0.  0.  0.
590  5.89  0.  0.  0.
591  5.90  0.  0.  0.
592  5.91  0.  0.  0.
593  5.92  0.  0.  0.
594  5.93  0.  0.  0.
595  5.94  0.  0.  0.
596  5.95  0.  0.  0.
597  5.96  0.  0.  0.
598  5.97  0.  0.  0.
599  5.98  0.  0.  0.
600  5.99  0.  0.  0.
1                        -8.4678527463728E+00 -1.6796092423143E-01
1  0.0000000000000E+00  1.9822152252935E-09  3.9849123584235E-09
2  1.0000000000000E-02  2.4236011916809E-03  1.4908748310154E-03
3  2.0000000000000E-02  9.6791483047300E-03  5.9508237799577E-03
4  3.0000000000000E-02  2.1720988373825E-02  1.3341940909125E-02
5  4.0000000000000E-02  3.8473420107073E-02  2.3601449242576E-02
6  5.0000000000000E-02  5.9831270575072E-02  3.6642290691513E-02
7  6.0000000000000E-02  8.5660695045658E-02  5.2353933383090E-02
8  7.0000000000000E-02  1.1580019253390E-01  7.0603378613176E-02
9  8.0000000000000E-02  1.5006182765465E-01  9.1236345658630E-02
10  9.0000000000000E-02  1.8823264748592E-01  1.1407860946430E-01
11  1.0000000000000E-01  2.3007628039568E-01  1.3893746388197E-01
12  1.1000000000000E-01  2.7533470217163E-01  1.6560328176135E-01
13  1.2000000000000E-01  3.2373015333915E-01  1.9385114282368E-01
14  1.3000000000000E-01  3.7496719027361E-01  2.2344250090284E-01
15  1.4000000000000E-01  4.2873485162048E-01  2.5412686378346E-01
16  1.5000000000000E-01  4.8470892064328E-01  2.8564346144658E-01
17  1.6000000000000E-01  5.4255426343092E-01  3.1772288194721E-01
18  1.7000000000000E-01  6.0192722242097E-01  3.5008865827391E-01
19  1.8000000000000E-01  6.6247804443422E-01  3.8245879421441E-01
20  1.9000000000000E-01  7.2385332237155E-01  4.1454722230782E-01
21  2.0000000000000E-01  7.8569842989312E-01  4.4606519219720E-01
22  2.1000000000000E-01  8.4765992877777E-01  4.7672259291526E-01
23  2.2000000000000E-01  9.0938792924114E-01  5.0622921762695E-01
24  2.3000000000000E-01  9.7053838426379E-01  5.3429598392004E-01
25  2.4000000000000E-01  1.0307752999347E+00  5.6063612668745E-01
26  2.5000000000000E-01  1.0897728449366E+00  5.8496638381328E-01
27  2.6000000000000E-01  1.1472173435740E+00  6.0700819711143E-01
28  2.7000000000000E-01  1.2028091381493E+00  6.2648895215832E-01
29  2.8000000000000E-01  1.2562643080209E+00  6.4314328072340E-01
30  2.9000000000000E-01  1.3073162342929E+00  6.5671444839754E-01
31  3.0000000000000E-01  1.3557170007835E+00  6.6695584773842E-01
32  3.1000000000000E-01  1.4012386236702E+00  6.7363261384037E-01
33  3.2000000000000E-01  1.4436741039934E+00  6.7652337476944E-01
34  3.3000000000000E-01  1.4828382989938E+00  6.7542214389912E-01
35  3.4000000000000E-01  1.5185686100488E+00  6.7014035499617E-01
36  3.5000000000000E-01  1.5507254867288E+00  6.6050903412270E-01
37  3.6000000000000E-01  1.5791927482015E+00  6.4638109524697E-01
38  3.7000000000000E-01  1.6038777248576E+00  6.2763373912728E-01
39  3.8000000000000E-01  1.6247112245835E+00  6.0417092778829E-01
40  3.9000000000000E-01  1.6416473295681E+00  5.7592589998963E-01
41  4.0000000000000E-01  1.6546630308742E+00  5.4286368674092E-01
42  4.1000000000000E-01  1.6637577092246E+00  5.0498358036874E-01
43  4.2000000000000E-01  1.6689524715390E+00  4.6232150609700E-01
44  4.3000000000000E-01  1.6702893537013E+00  4.1495224175131E-01
45  4.4000000000000E-01  1.6678304008354E+00  3.6299142917788E-01
46  4.5000000000000E-01  1.6616566370117E+00  3.0659732039450E-01
47  4.6000000000000E-01  1.6518669368028E+00  2.4597220242470E-01
48  4.7000000000000E-01  1.6385768114557E+00  1.8136344722241E-01
49  4.8000000000000E-01  1.6219171226406E+00  1.1306413705063E-01
50  4.9000000000000E-01  1.6020327367994E+00  4.1413221042746E-02
51  5.0000000000000E-01  1.5790811330358E+00 -3.3204834662345E-02
52  5.1000000000000E-01  1.5532309772855E+00 -1.1036093304046E-01
53  5.2000000000000E-01  1.5246606751831E+00 -1.8958278968236E-01
54  5.3000000000000E-01  1.4935569156164E+00 -2.7035694542223E-01
55  5.4000000000000E-01  1.4601132164332E+00 -3.5213135003736E-01
56  5.5000000000000E-01  1.4245284831655E+00 -4.3431850902267E-01
57  5.6000000000000E-01  1.3870055909584E+00 -5.1629917564396E-01
58  5.7000000000000E-01  1.3477499991620E+00 -5.9742656109385E-01
59  5.8000000000000E-01  1.3069684072706E+00 -6.7703102688806E-01
60  5.9000000000000E-01  1.2648674600850E+00 -7.5442521589199E-01
61  6.0000000000000E-01  1.2216525091510E+00 -8.2890957176309E-01
62  6.1000000000000E-01  1.1775264366924E+00 -8.9977819132475E-01
63  6.2000000000000E-01  1.1326885474236E+00 -9.6632495056173E-01
64  6.3000000000000E-01  1.0873335328113E+00 -1.0278498426385E+00
65  6.4000000000000E-01  1.0416505115503E+00 -1.0836654655907E+00
66  6.5000000000000E-01  9.9582214925041E-01 -1.1331035981038E+00
67  6.6000000000000E-01  9.5002385958898E-01 -1.1755218039590E+00
68  6.7000000000000E-01  9.0442308848385E-01 -1.2103100091405E+00
69  6.8000000000000E-01  8.5917868218097E-01 -1.2368970000530E+00
70  6.9000000000000E-01  8.1444033953422E-01 -1.2547567965252E+00
71  7.0000000000000E-01  7.7034814818349E-01 -1.2634148589811E+00
72  7.1000000000000E-01  7.2703220380989E-01 -1.2624540950004E+00
73  7.2000000000000E-01  6.8461231116426E-01 -1.2515206361235E+00
74  7.3000000000000E-01  6.4319776512468E-01 -1.2303293607986E+00
75  7.4000000000000E-01  6.0288720963853E-01 -1.1986691434750E+00
76  7.5000000000000E-01  5.6376857204235E-01 -1.1564078126587E+00
77  7.6000000000000E-01  5.2591906992458E-01 -1.1034968019420E+00
78  7.7000000000000E-01  4.8940528739984E-01 -1.0399754773376E+00
79  7.8000000000000E-01  4.5428331739503E-01 -9.6597512143479E-01
80  7.9000000000000E-01  4.2059896630406E-01 -8.8172254982187E-01
81  8.0000000000000E-01  3.8838801714738E-01 -7.8754332777314E-01
82  8.1000000000000E-01  3.5767654717091E-01 -6.8386454537997E-01
83  8.2000000000000E-01  3.2848129563607E-01 -5.7121709719741E-01
84  8.3000000000000E-01  3.0081007738565E-01 -4.5023739823493E-01
85  8.4000000000000E-01  2.7466223761930E-01 -3.2166845200858E-01
86  8.5000000000000E-01  2.5002914317687E-01 -1.8636016872627E-01
87  8.6000000000000E-01  2.2689470550832E-01 -4.5268812921102E-02
88  8.7000000000000E-01  2.0523593040638E-01  1.0054455951656E-01
89  8.8000000000000E-01  1.8502348949454E-01  2.4991683438311E-01
90  8.9000000000000E-01  1.6622230840000E-01  4.0158692061807E-01
91  9.0000000000000E-01  1.4879216650159E-01  5.5420137617423E-01
92  9.1000000000000E-01  1.3268830312977E-01  7.0632179009180E-01
93  9.2000000000000E-01  1.1786202511141E-01  8.5643414582718E-01
94  9.3000000000000E-01  1.0426131060079E-01  1.0029604009523E+00
95  9.4000000000000E-01  9.1831404221534E-02  1.1442725246020E+00
96  9.5000000000000E-01  8.0515398666070E-02  1.2787092359480E+00
97  9.6000000000000E-01  7.0254798061167E-02  1.4045956840115E+00
98  9.7000000000000E-01  6.0990058612293E-02  1.5202663009115E+00
99  9.8000000000000E-01  5.2661102287197E-02  1.6240910468738E+00
100  9.9000000000000E-01  4.5207799590861E-02  1.7145052458194E+00
101  1.0000000000000E+00  3.8570417819008E-02  1.7900431850548E+00
102  1.0100000000000E+00  3.2690031554922E-02  1.8493756215908E+00
103  1.0200000000000E+00  2.7508892591892E-02  1.8913513011632E+00
104  1.0300000000000E+00  2.2970756918332E-02  1.9150425543969E+00
105  1.0400000000000E+00  1.9021166890038E-02  1.9197949883883E+00
106  1.0500000000000E+00  1.5607687229099E-02  1.9052812417758E+00
107  1.0600000000000E+00  1.2680094026677E-02  1.8715587179247E+00
108  1.0700000000000E+00  1.0190516478654E-02  1.8191311550992E+00
109  1.0800000000000E+00  8.0935316436879E-03  1.7490138352496E+00
110  1.0900000000000E+00  6.3462130742658E-03  1.6628021773220E+00
111  1.1000000000000E+00  4.9081344013434E-03  1.5627427827086E+00
112  1.1100000000000E+00  3.7413262137942E-03  1.4517995101889E+00
113  1.1200000000000E+00  2.8100463228116E-03  1.3333690851846E+00
114  1.1300000000000E+00  2.0805560927395E-03  1.2106342659840E+00
115  1.1400000000000E+00  1.5213063477068E-03  1.0864201361370E+00
116  1.1500000000000E+00  1.1031568506729E-03  9.6319822201806E-01
117  1.1600000000000E+00  7.9953611449202E-04  8.4309483630381E-01
118  1.1700000000000E+00  5.8654762794985E-04  7.2790346764180E-01
119  1.1800000000000E+00  4.4302849948109E-04  6.1910037575703E-01
120  1.1900000000000E+00  3.5056675562229E-04  5.1786271095563E-01
121  1.2000000000000E+00  2.9348354102151E-04  4.2508845898931E-01
122  1.2100000000000E+00  2.5878638844833E-04  3.4141752954084E-01
123  1.2200000000000E+00  2.3610010999038E-04  2.6725340075879E-01
124  1.2300000000000E+00  2.1757544536838E-04  2.0278416827345E-01
125  1.2400000000000E+00  1.9773105131282E-04  1.4799424323083E-01
126  1.2500000000000E+00  1.7105058323939E-04  1.0242627008727E-01
127  1.2600000000000E+00  1.3624008860487E-04  6.5769126754590E-02
128  1.2700000000000E+00  9.6465510427793E-05  3.7804343052454E-02
129  1.2800000000000E+00  5.6466087324462E-05  1.8069608885794E-02
130  1.2900000000000E+00  2.2459040137130E-05  5.8974987653121E-03
131  1.3000000000000E+00  2.6267269419879E-06  5.6221242037073E-04
132  1.3100000000000E+00 -2.2888930834731E-07 -4.3893966580243E-05
133  1.3200000000000E+00 -6.7062439382943E-10 -1.5556851752318E-07
134  1.33 -0. -0.
135  1.34  0.  0.
136  1.35  0.  0.
137  1.36  0.  0.
138  1.37  0.  0.
139  1.38  0.  0.
140  1.39  0.  0.
141  1.40  0.  0.
142  1.41  0.  0.