Bh    ONCVPSP-4.0.1  r_core=   1.10207   1.20554   1.10207   1.20554
107.0000     47.0000      231012    zatom,zion,pspd
8   -1012   3     4   600     0    pspcod,pspxc,lmax,lloc,mmax,r2well
5.99000000  3.00000000  0.00000000    rchrg fchrg qchrg
3     3     2     2    nproj
3     1           extension_switch
4     4     3    nprojso
0                         1.2297106088315E+01 -1.1630011475751E+01 -1.9576288695867E-01
1  0.0000000000000E+00 -6.0560245707109E-09  9.4178109755205E-11  1.1028923790901E-07
2  1.0000000000000E-02  1.8341009167463E-01  6.5117859303636E-02 -6.5237391284081E-02
3  2.0000000000000E-02  3.6508374509470E-01  1.3014135856994E-01 -1.2881527356072E-01
4  3.0000000000000E-02  5.4330376428390E-01  1.9497597832872E-01 -1.8912322815247E-01
5  4.0000000000000E-02  7.1639121050328E-01  2.5952688481764E-01 -2.4464767918374E-01
6  5.0000000000000E-02  8.8272396379226E-01  3.2369878425108E-01 -2.9401699799456E-01
7  6.0000000000000E-02  1.0407546075560E+00  3.8739579073189E-01 -3.3604270460563E-01
8  7.0000000000000E-02  1.1890274168089E+00  4.5052131225661E-01 -3.6975559424703E-01
9  8.0000000000000E-02  1.3261942367389E+00  5.1297795917012E-01 -3.9443572725216E-01
10  9.0000000000000E-02  1.4510290466217E+00  5.7466747929585E-01 -4.0963535782582E-01
11  1.0000000000000E-01  1.5624410152006E+00  6.3549072379300E-01 -4.1519404042171E-01
12  1.1000000000000E-01  1.6594858678845E+00  6.9534764756721E-01 -4.1124534023653E-01
13  1.2000000000000E-01  1.7413754038403E+00  7.5413734777648E-01 -3.9821478442582E-01
14  1.3000000000000E-01  1.8074850225468E+00  8.1175814362439E-01 -3.7680891997726E-01
15  1.4000000000000E-01  1.8573591447513E+00  8.6810770021060E-01 -3.4799558865650E-01
16  1.5000000000000E-01  1.8907144419890E+00  9.2308319871228E-01 -3.1297578395672E-01
17  1.6000000000000E-01  1.9074408216613E+00  9.7658155459542E-01 -2.7314771338751E-01
18  1.7000000000000E-01  1.9076001506821E+00  1.0284996849053E+00 -2.3006394462322E-01
19  1.8000000000000E-01  1.8914227392446E+00  1.0787348249621E+00 -1.8538275809440E-01
20  1.9000000000000E-01  1.8593016464972E+00  1.1271848939985E+00 -1.4081505303462E-01
21  2.0000000000000E-01  1.8117849108089E+00  1.1737489084327E+00 -9.8068350004068E-02
22  2.1000000000000E-01  1.7495658477050E+00  1.2183274405813E+00 -5.8789591739769E-02
23  2.2000000000000E-01  1.6734715971780E+00  1.2608231197009E+00 -2.4508557533769E-02
24  2.3000000000000E-01  1.5844501376230E+00  1.3011411713260E+00  3.4162332464004E-03
25  2.4000000000000E-01  1.4835560148035E+00  1.3391899899537E+00  2.3847251566624E-02
26  2.5000000000000E-01  1.3719350597902E+00  1.3748817392504E+00  3.5911508385227E-02
27  2.6000000000000E-01  1.2508083886392E+00  1.4081329731289E+00  3.9036237117396E-02
28  2.7000000000000E-01  1.1214559877814E+00  1.4388652703018E+00  3.2975216710362E-02
29  2.8000000000000E-01  9.8520019203133E-01  1.4670058742727E+00  1.7824500853274E-02
30  2.9000000000000E-01  8.4338935642470E-01  1.4924883302069E+00 -5.9733652310248E-03
31  3.0000000000000E-01  6.9738200872341E-01  1.5152531097423E+00 -3.7637192810904E-02
32  3.1000000000000E-01  5.4853174668730E-01  1.5352482145824E+00 -7.6067209078400E-02
33  3.2000000000000E-01  3.9817311375162E-01  1.5524297496581E+00 -1.1987704202953E-01
34  3.3000000000000E-01  2.4760864955008E-01  1.5667624567753E+00 -1.6743690041491E-01
35  3.4000000000000E-01  9.8097269070446E-02  1.5782201999747E+00 -2.1692677846529E-01
36  3.5000000000000E-01 -4.9155922334621E-02  1.5867863943227E+00 -2.6639809689980E-01
37  3.6000000000000E-01 -1.9300831958879E-01  1.5924543705238E+00 -3.1384181269628E-01
38  3.7000000000000E-01 -3.3238700471336E-01  1.5952276685805E+00 -3.5726070716280E-01
39  3.8000000000000E-01 -4.6629446773913E-01  1.5951202547143E+00 -3.9474331064532E-01
40  3.9000000000000E-01 -5.9381294346469E-01  1.5921566568825E+00 -4.2453675639084E-01
41  4.0000000000000E-01 -7.1410748434259E-01  1.5863720154505E+00 -4.4511578658116E-01
42  4.1000000000000E-01 -8.2642792139312E-01  1.5778120468883E+00 -4.5524516801280E-01
43  4.2000000000000E-01 -9.3010988844488E-01  1.5665329197174E+00 -4.5403291709301E-01
44  4.3000000000000E-01 -1.0245750992064E+00  1.5526010433133E+00 -4.4097198338924E-01
45  4.4000000000000E-01 -1.1093310711021E+00  1.5360927715295E+00 -4.1596839311698E-01
46  4.5000000000000E-01 -1.1839704843027E+00  1.5170940244296E+00 -3.7935429948592E-01
47  4.6000000000000E-01 -1.2481703492362E+00  1.4956998326513E+00 -3.3188491229286E-01
48  4.7000000000000E-01 -1.3016911318107E+00  1.4720138100604E+00 -2.7471886720556E-01
49  4.8000000000000E-01 -1.3443759537742E+00  1.4461475613490E+00 -2.0938222510995E-01
50  4.9000000000000E-01 -1.3761499476077E+00  1.4182200320754E+00 -1.3771694031633E-01
51  5.0000000000000E-01 -1.3970198029546E+00  1.3883568093055E+00 -6.1815278188376E-02
52  5.1000000000000E-01 -1.4070734969216E+00  1.3566893814953E+00  1.6057728171969E-02
53  5.2000000000000E-01 -1.4064801559073E+00  1.3233543665288E+00  9.3551141959934E-02
54  5.3000000000000E-01 -1.3954899542142E+00  1.2884927169077E+00  1.6832119963096E-01
55  5.4000000000000E-01 -1.3744339168499E+00  1.2522489109715E+00  2.3812713061275E-01
56  5.5000000000000E-01 -1.3437234627252E+00  1.2147701387220E+00  3.0092601119446E-01
57  5.6000000000000E-01 -1.3038495017606E+00  1.1762054903528E+00  3.5496284413179E-01
58  5.7000000000000E-01 -1.2553808867284E+00  1.1367051549565E+00  3.9885210358609E-01
59  5.8000000000000E-01 -1.1989620190745E+00  1.0964196361275E+00  4.3164718488249E-01
60  5.9000000000000E-01 -1.1353094180740E+00  1.0554989903253E+00  4.5289454800807E-01
61  6.0000000000000E-01 -1.0652070845529E+00  1.0140920929380E+00  4.6266983440639E-01
62  6.1000000000000E-01 -9.8950052358431E-01  9.7234593603133E-01  4.6159385402183E-01
63  6.2000000000000E-01 -9.0908933401628E-01  9.3040496080070E-01  4.5082706358831E-01
64  6.3000000000000E-01 -8.2491832488160E-01  8.8841042681626E-01  4.3204196263462E-01
65  6.4000000000000E-01 -7.3796717768769E-01  8.4649981927688E-01  4.0737369116701E-01
66  6.5000000000000E-01 -6.4923873689836E-01  8.0480629470826E-01  3.7934998989768E-01
67  6.6000000000000E-01 -5.5974607593029E-01  7.6345816487345E-01  3.5080254564036E-01
68  6.7000000000000E-01 -4.7049854983072E-01  7.2257841813246E-01  3.2476255593117E-01
69  6.8000000000000E-01 -3.8248710555736E-01  6.8228427710722E-01  3.0434407370455E-01
70  6.9000000000000E-01 -2.9666917358426E-01  6.4268679128786E-01  2.9261930282536E-01
71  7.0000000000000E-01 -2.1395350773604E-01  6.0389046316028E-01  2.9249047994603E-01
72  7.1000000000000E-01 -1.3518537135261E-01  5.6599290653940E-01  3.0656327396084E-01
73  7.2000000000000E-01 -6.1132485176646E-02  5.2908453604880E-01  3.3702674369075E-01
74  7.3000000000000E-01  7.5278456671643E-03  4.9324828707925E-01  3.8554480678412E-01
75  7.4000000000000E-01  7.0220022369017E-02  4.5855936606503E-01  4.5316388513988E-01
76  7.5000000000000E-01  1.2647948796460E-01  4.2508503151191E-01  5.4024090951924E-01
77  7.6000000000000E-01  1.7595978095786E-01  3.9288440686220E-01  6.4639520139526E-01
78  7.7000000000000E-01  2.1843704087675E-01  3.6200832695823E-01  7.7048692432859E-01
79  7.8000000000000E-01  2.5381177278053E-01  3.3249922052882E-01  9.1062383826954E-01
80  7.9000000000000E-01  2.8210776103580E-01  3.0439103173705E-01  1.0641970323877E+00
81  8.0000000000000E-01  3.0346811310806E-01  2.7770918435610E-01  1.2279451946729E+00
82  8.1000000000000E-01  3.1814850829986E-01  2.5247059254797E-01  1.3980458425385E+00
83  8.2000000000000E-01  3.2650782064694E-01  2.2868372247620E-01  1.5702308330503E+00
84  8.3000000000000E-01  3.2899637579857E-01  2.0634870906102E-01  1.7399224393391E+00
85  8.4000000000000E-01  3.2614218491981E-01  1.8545753206251E-01  1.9023853649184E+00
86  8.5000000000000E-01  3.1853557091760E-01  1.6599425533806E-01  2.0528893103101E+00
87  8.6000000000000E-01  3.0681266041511E-01  1.4793533255794E-01  2.1868761417338E+00
88  8.7000000000000E-01  2.9163825616874E-01  1.3124998187609E-01  2.3001253681945E+00
89  8.8000000000000E-01  2.7368862694793E-01  1.1590063105083E-01  2.3889115315981E+00
90  8.9000000000000E-01  2.5363475390116E-01  1.0184343330794E-01  2.4501472660591E+00
91  9.0000000000000E-01  2.3212655353049E-01  8.9028852861347E-02  2.4815061890343E+00
92  9.1000000000000E-01  2.0977855784238E-01  7.7402317485465E-02  2.4815204400146E+00
93  9.2000000000000E-01  1.8715747313477E-01  6.6904933907077E-02  2.4496485638516E+00
94  9.3000000000000E-01  1.6477196212743E-01  5.7474260097946E-02  2.3863105176188E+00
95  9.4000000000000E-01  1.4306490244618E-01  4.9045126850385E-02  2.2928878253735E+00
96  9.5000000000000E-01  1.2240827111578E-01  4.1550499358663E-02  2.1716882710419E+00
97  9.6000000000000E-01  1.0310069363912E-01  3.4922367962986E-02  2.0258759554144E+00
98  9.7000000000000E-01  8.5367581650254E-02  2.9092655792418E-02  1.8593689959347E+00
99  9.8000000000000E-01  6.9363669538533E-02  2.3994129819491E-02  1.6767085616622E+00
100  9.9000000000000E-01  5.5177652363257E-02  1.9561300859759E-02  1.4829042553408E+00
101  1.0000000000000E+00  4.2838529130460E-02  1.5731297355297E-02  1.2832620277324E+00
102  1.0100000000000E+00  3.2323171195433E-02  1.2444697407606E-02  1.0832017873261E+00
103  1.0200000000000E+00  2.3564568657175E-02  9.6463034977518E-03  8.8807261053891E-01
104  1.0300000000000E+00  1.6460162778050E-02  7.2858469764834E-03  7.0297391684609E-01
105  1.0400000000000E+00  1.0879661541865E-02  5.3185881786008E-03  5.3259114129706E-01
106  1.0500000000000E+00  6.6708067475253E-03  3.7049973653264E-03  3.8106062704918E-01
107  1.0600000000000E+00  3.6664439635667E-03  2.4030897489790E-03  2.5186712069227E-01
108  1.0700000000000E+00  1.7040940534362E-03  1.3913838209102E-03  1.4763309018541E-01
109  1.0800000000000E+00  5.9242477774210E-04  6.5843132224159E-04  7.0280245657494E-02
110  1.0900000000000E+00  1.0894818540739E-04  1.9701750309078E-04  2.1029483830491E-02
111  1.1000000000000E+00  1.3788040962974E-06  8.6434399530897E-06  9.1600120545820E-04
112  1.1100000000000E+00  1.1611806548887E-07  5.9930530679416E-07  6.3823916204534E-05
113  1.1200000000000E+00 -4.2135269329090E-08 -1.2013782863224E-07 -1.2818791943789E-05
114  1.13  0.  0.  0.
115  1.14  0.  0.  0.
116  1.15  0.  0.  0.
117  1.16  0.  0.  0.
118  1.17  0.  0.  0.
119  1.18  0.  0.  0.
120  1.19  0.  0.  0.
121  1.20  0.  0.  0.
122  1.21  0.  0.  0.
123  1.22  0.  0.  0.
124  1.23  0.  0.  0.
125  1.24  0.  0.  0.
126  1.25  0.  0.  0.
127  1.26  0.  0.  0.
128  1.27  0.  0.  0.
129  1.28  0.  0.  0.
130  1.29  0.  0.  0.
131  1.30  0.  0.  0.
132  1.31  0.  0.  0.
133  1.32  0.  0.  0.
134  1.33  0.  0.  0.
135  1.34  0.  0.  0.
136  1.35  0.  0.  0.
137  1.36  0.  0.  0.
138  1.37  0.  0.  0.
139  1.38  0.  0.  0.
140  1.39  0.  0.  0.
141  1.40  0.  0.  0.
142  1.41  0.  0.  0.
143  1.42  0.  0.  0.
144  1.43  0.  0.  0.
145  1.44  0.  0.  0.
146  1.45  0.  0.  0.
147  1.46  0.  0.  0.
148  1.47  0.  0.  0.
149  1.48  0.  0.  0.
150  1.49  0.  0.  0.
151  1.50  0.  0.  0.
152  1.51  0.  0.  0.
153  1.52  0.  0.  0.
154  1.53  0.  0.  0.
155  1.54  0.  0.  0.
156  1.55  0.  0.  0.
157  1.56  0.  0.  0.
158  1.57  0.  0.  0.
159  1.58  0.  0.  0.
160  1.59  0.  0.  0.
161  1.60  0.  0.  0.
162  1.61  0.  0.  0.
163  1.62  0.  0.  0.
164  1.63  0.  0.  0.
165  1.64  0.  0.  0.
166  1.65  0.  0.  0.
167  1.66  0.  0.  0.
168  1.67  0.  0.  0.
169  1.68  0.  0.  0.
170  1.69  0.  0.  0.
171  1.70  0.  0.  0.
172  1.71  0.  0.  0.
173  1.72  0.  0.  0.
174  1.73  0.  0.  0.
175  1.74  0.  0.  0.
176  1.75  0.  0.  0.
177  1.76  0.  0.  0.
178  1.77  0.  0.  0.
179  1.78  0.  0.  0.
180  1.79  0.  0.  0.
181  1.80  0.  0.  0.
182  1.81  0.  0.  0.
183  1.82  0.  0.  0.
184  1.83  0.  0.  0.
185  1.84  0.  0.  0.
186  1.85  0.  0.  0.
187  1.86  0.  0.  0.
188  1.87  0.  0.  0.
189  1.88  0.  0.  0.
190  1.89  0.  0.  0.
191  1.90  0.  0.  0.
192  1.91  0.  0.  0.
193  1.92  0.  0.  0.
194  1.93  0.  0.  0.
195  1.94  0.  0.  0.
196  1.95  0.  0.  0.
197  1.96  0.  0.  0.
198  1.97  0.  0.  0.
199  1.98  0.  0.  0.
200  1.99  0.  0.  0.
201  2.00  0.  0.  0.
202  2.01  0.  0.  0.
203  2.02  0.  0.  0.
204  2.03  0.  0.  0.
205  2.04  0.  0.  0.
206  2.05  0.  0.  0.
207  2.06  0.  0.  0.
208  2.07  0.  0.  0.
209  2.08  0.  0.  0.
210  2.09  0.  0.  0.
211  2.10  0.  0.  0.
212  2.11  0.  0.  0.
213  2.12  0.  0.  0.
214  2.13  0.  0.  0.
215  2.14  0.  0.  0.
216  2.15  0.  0.  0.
217  2.16  0.  0.  0.
218  2.17  0.  0.  0.
219  2.18  0.  0.  0.
220  2.19  0.  0.  0.
221  2.20  0.  0.  0.
222  2.21  0.  0.  0.
223  2.22  0.  0.  0.
224  2.23  0.  0.  0.
225  2.24  0.  0.  0.
226  2.25  0.  0.  0.
227  2.26  0.  0.  0.
228  2.27  0.  0.  0.
229  2.28  0.  0.  0.
230  2.29  0.  0.  0.
231  2.30  0.  0.  0.
232  2.31  0.  0.  0.
233  2.32  0.  0.  0.
234  2.33  0.  0.  0.
235  2.34  0.  0.  0.
236  2.35  0.  0.  0.
237  2.36  0.  0.  0.
238  2.37  0.  0.  0.
239  2.38  0.  0.  0.
240  2.39  0.  0.  0.
241  2.40  0.  0.  0.
242  2.41  0.  0.  0.
243  2.42  0.  0.  0.
244  2.43  0.  0.  0.
245  2.44  0.  0.  0.
246  2.45  0.  0.  0.
247  2.46  0.  0.  0.
248  2.47  0.  0.  0.
249  2.48  0.  0.  0.
250  2.49  0.  0.  0.
251  2.50  0.  0.  0.
252  2.51  0.  0.  0.
253  2.52  0.  0.  0.
254  2.53  0.  0.  0.
255  2.54  0.  0.  0.
256  2.55  0.  0.  0.
257  2.56  0.  0.  0.
258  2.57  0.  0.  0.
259  2.58  0.  0.  0.
260  2.59  0.  0.  0.
261  2.60  0.  0.  0.
262  2.61  0.  0.  0.
263  2.62  0.  0.  0.
264  2.63  0.  0.  0.
265  2.64  0.  0.  0.
266  2.65  0.  0.  0.
267  2.66  0.  0.  0.
268  2.67  0.  0.  0.
269  2.68  0.  0.  0.
270  2.69  0.  0.  0.
271  2.70  0.  0.  0.
272  2.71  0.  0.  0.
273  2.72  0.  0.  0.
274  2.73  0.  0.  0.
275  2.74  0.  0.  0.
276  2.75  0.  0.  0.
277  2.76  0.  0.  0.
278  2.77  0.  0.  0.
279  2.78  0.  0.  0.
280  2.79  0.  0.  0.
281  2.80  0.  0.  0.
282  2.81  0.  0.  0.
283  2.82  0.  0.  0.
284  2.83  0.  0.  0.
285  2.84  0.  0.  0.
286  2.85  0.  0.  0.
287  2.86  0.  0.  0.
288  2.87  0.  0.  0.
289  2.88  0.  0.  0.
290  2.89  0.  0.  0.
291  2.90  0.  0.  0.
292  2.91  0.  0.  0.
293  2.92  0.  0.  0.
294  2.93  0.  0.  0.
295  2.94  0.  0.  0.
296  2.95  0.  0.  0.
297  2.96  0.  0.  0.
298  2.97  0.  0.  0.
299  2.98  0.  0.  0.
300  2.99  0.  0.  0.
301  3.00  0.  0.  0.
302  3.01  0.  0.  0.
303  3.02  0.  0.  0.
304  3.03  0.  0.  0.
305  3.04  0.  0.  0.
306  3.05  0.  0.  0.
307  3.06  0.  0.  0.
308  3.07  0.  0.  0.
309  3.08  0.  0.  0.
310  3.09  0.  0.  0.
311  3.10  0.  0.  0.
312  3.11  0.  0.  0.
313  3.12  0.  0.  0.
314  3.13  0.  0.  0.
315  3.14  0.  0.  0.
316  3.15  0.  0.  0.
317  3.16  0.  0.  0.
318  3.17  0.  0.  0.
319  3.18  0.  0.  0.
320  3.19  0.  0.  0.
321  3.20  0.  0.  0.
322  3.21  0.  0.  0.
323  3.22  0.  0.  0.
324  3.23  0.  0.  0.
325  3.24  0.  0.  0.
326  3.25  0.  0.  0.
327  3.26  0.  0.  0.
328  3.27  0.  0.  0.
329  3.28  0.  0.  0.
330  3.29  0.  0.  0.
331  3.30  0.  0.  0.
332  3.31  0.  0.  0.
333  3.32  0.  0.  0.
334  3.33  0.  0.  0.
335  3.34  0.  0.  0.
336  3.35  0.  0.  0.
337  3.36  0.  0.  0.
338  3.37  0.  0.  0.
339  3.38  0.  0.  0.
340  3.39  0.  0.  0.
341  3.40  0.  0.  0.
342  3.41  0.  0.  0.
343  3.42  0.  0.  0.
344  3.43  0.  0.  0.
345  3.44  0.  0.  0.
346  3.45  0.  0.  0.
347  3.46  0.  0.  0.
348  3.47  0.  0.  0.
349  3.48  0.  0.  0.
350  3.49  0.  0.  0.
351  3.50  0.  0.  0.
352  3.51  0.  0.  0.
353  3.52  0.  0.  0.
354  3.53  0.  0.  0.
355  3.54  0.  0.  0.
356  3.55  0.  0.  0.
357  3.56  0.  0.  0.
358  3.57  0.  0.  0.
359  3.58  0.  0.  0.
360  3.59  0.  0.  0.
361  3.60  0.  0.  0.
362  3.61  0.  0.  0.
363  3.62  0.  0.  0.
364  3.63  0.  0.  0.
365  3.64  0.  0.  0.
366  3.65  0.  0.  0.
367  3.66  0.  0.  0.
368  3.67  0.  0.  0.
369  3.68  0.  0.  0.
370  3.69  0.  0.  0.
371  3.70  0.  0.  0.
372  3.71  0.  0.  0.
373  3.72  0.  0.  0.
374  3.73  0.  0.  0.
375  3.74  0.  0.  0.
376  3.75  0.  0.  0.
377  3.76  0.  0.  0.
378  3.77  0.  0.  0.
379  3.78  0.  0.  0.
380  3.79  0.  0.  0.
381  3.80  0.  0.  0.
382  3.81  0.  0.  0.
383  3.82  0.  0.  0.
384  3.83  0.  0.  0.
385  3.84  0.  0.  0.
386  3.85  0.  0.  0.
387  3.86  0.  0.  0.
388  3.87  0.  0.  0.
389  3.88  0.  0.  0.
390  3.89  0.  0.  0.
391  3.90  0.  0.  0.
392  3.91  0.  0.  0.
393  3.92  0.  0.  0.
394  3.93  0.  0.  0.
395  3.94  0.  0.  0.
396  3.95  0.  0.  0.
397  3.96  0.  0.  0.
398  3.97  0.  0.  0.
399  3.98  0.  0.  0.
400  3.99  0.  0.  0.
401  4.00  0.  0.  0.
402  4.01  0.  0.  0.
403  4.02  0.  0.  0.
404  4.03  0.  0.  0.
405  4.04  0.  0.  0.
406  4.05  0.  0.  0.
407  4.06  0.  0.  0.
408  4.07  0.  0.  0.
409  4.08  0.  0.  0.
410  4.09  0.  0.  0.
411  4.10  0.  0.  0.
412  4.11  0.  0.  0.
413  4.12  0.  0.  0.
414  4.13  0.  0.  0.
415  4.14  0.  0.  0.
416  4.15  0.  0.  0.
417  4.16  0.  0.  0.
418  4.17  0.  0.  0.
419  4.18  0.  0.  0.
420  4.19  0.  0.  0.
421  4.20  0.  0.  0.
422  4.21  0.  0.  0.
423  4.22  0.  0.  0.
424  4.23  0.  0.  0.
425  4.24  0.  0.  0.
426  4.25  0.  0.  0.
427  4.26  0.  0.  0.
428  4.27  0.  0.  0.
429  4.28  0.  0.  0.
430  4.29  0.  0.  0.
431  4.30  0.  0.  0.
432  4.31  0.  0.  0.
433  4.32  0.  0.  0.
434  4.33  0.  0.  0.
435  4.34  0.  0.  0.
436  4.35  0.  0.  0.
437  4.36  0.  0.  0.
438  4.37  0.  0.  0.
439  4.38  0.  0.  0.
440  4.39  0.  0.  0.
441  4.40  0.  0.  0.
442  4.41  0.  0.  0.
443  4.42  0.  0.  0.
444  4.43  0.  0.  0.
445  4.44  0.  0.  0.
446  4.45  0.  0.  0.
447  4.46  0.  0.  0.
448  4.47  0.  0.  0.
449  4.48  0.  0.  0.
450  4.49  0.  0.  0.
451  4.50  0.  0.  0.
452  4.51  0.  0.  0.
453  4.52  0.  0.  0.
454  4.53  0.  0.  0.
455  4.54  0.  0.  0.
456  4.55  0.  0.  0.
457  4.56  0.  0.  0.
458  4.57  0.  0.  0.
459  4.58  0.  0.  0.
460  4.59  0.  0.  0.
461  4.60  0.  0.  0.
462  4.61  0.  0.  0.
463  4.62  0.  0.  0.
464  4.63  0.  0.  0.
465  4.64  0.  0.  0.
466  4.65  0.  0.  0.
467  4.66  0.  0.  0.
468  4.67  0.  0.  0.
469  4.68  0.  0.  0.
470  4.69  0.  0.  0.
471  4.70  0.  0.  0.
472  4.71  0.  0.  0.
473  4.72  0.  0.  0.
474  4.73  0.  0.  0.
475  4.74  0.  0.  0.
476  4.75  0.  0.  0.
477  4.76  0.  0.  0.
478  4.77  0.  0.  0.
479  4.78  0.  0.  0.
480  4.79  0.  0.  0.
481  4.80  0.  0.  0.
482  4.81  0.  0.  0.
483  4.82  0.  0.  0.
484  4.83  0.  0.  0.
485  4.84  0.  0.  0.
486  4.85  0.  0.  0.
487  4.86  0.  0.  0.
488  4.87  0.  0.  0.
489  4.88  0.  0.  0.
490  4.89  0.  0.  0.
491  4.90  0.  0.  0.
492  4.91  0.  0.  0.
493  4.92  0.  0.  0.
494  4.93  0.  0.  0.
495  4.94  0.  0.  0.
496  4.95  0.  0.  0.
497  4.96  0.  0.  0.
498  4.97  0.  0.  0.
499  4.98  0.  0.  0.
500  4.99  0.  0.  0.
501  5.00  0.  0.  0.
502  5.01  0.  0.  0.
503  5.02  0.  0.  0.
504  5.03  0.  0.  0.
505  5.04  0.  0.  0.
506  5.05  0.  0.  0.
507  5.06  0.  0.  0.
508  5.07  0.  0.  0.
509  5.08  0.  0.  0.
510  5.09  0.  0.  0.
511  5.10  0.  0.  0.
512  5.11  0.  0.  0.
513  5.12  0.  0.  0.
514  5.13  0.  0.  0.
515  5.14  0.  0.  0.
516  5.15  0.  0.  0.
517  5.16  0.  0.  0.
518  5.17  0.  0.  0.
519  5.18  0.  0.  0.
520  5.19  0.  0.  0.
521  5.20  0.  0.  0.
522  5.21  0.  0.  0.
523  5.22  0.  0.  0.
524  5.23  0.  0.  0.
525  5.24  0.  0.  0.
526  5.25  0.  0.  0.
527  5.26  0.  0.  0.
528  5.27  0.  0.  0.
529  5.28  0.  0.  0.
530  5.29  0.  0.  0.
531  5.30  0.  0.  0.
532  5.31  0.  0.  0.
533  5.32  0.  0.  0.
534  5.33  0.  0.  0.
535  5.34  0.  0.  0.
536  5.35  0.  0.  0.
537  5.36  0.  0.  0.
538  5.37  0.  0.  0.
539  5.38  0.  0.  0.
540  5.39  0.  0.  0.
541  5.40  0.  0.  0.
542  5.41  0.  0.  0.
543  5.42  0.  0.  0.
544  5.43  0.  0.  0.
545  5.44  0.  0.  0.
546  5.45  0.  0.  0.
547  5.46  0.  0.  0.
548  5.47  0.  0.  0.
549  5.48  0.  0.  0.
550  5.49  0.  0.  0.
551  5.50  0.  0.  0.
552  5.51  0.  0.  0.
553  5.52  0.  0.  0.
554  5.53  0.  0.  0.
555  5.54  0.  0.  0.
556  5.55  0.  0.  0.
557  5.56  0.  0.  0.
558  5.57  0.  0.  0.
559  5.58  0.  0.  0.
560  5.59  0.  0.  0.
561  5.60  0.  0.  0.
562  5.61  0.  0.  0.
563  5.62  0.  0.  0.
564  5.63  0.  0.  0.
565  5.64  0.  0.  0.
566  5.65  0.  0.  0.
567  5.66  0.  0.  0.
568  5.67  0.  0.  0.
569  5.68  0.  0.  0.
570  5.69  0.  0.  0.
571  5.70  0.  0.  0.
572  5.71  0.  0.  0.
573  5.72  0.  0.  0.
574  5.73  0.  0.  0.
575  5.74  0.  0.  0.
576  5.75  0.  0.  0.
577  5.76  0.  0.  0.
578  5.77  0.  0.  0.
579  5.78  0.  0.  0.
580  5.79  0.  0.  0.
581  5.80  0.  0.  0.
582  5.81  0.  0.  0.
583  5.82  0.  0.  0.
584  5.83  0.  0.  0.
585  5.84  0.  0.  0.
586  5.85  0.  0.  0.
587  5.86  0.  0.  0.
588  5.87  0.  0.  0.
589  5.88  0.  0.  0.
590  5.89  0.  0.  0.
591  5.90  0.  0.  0.
592  5.91  0.  0.  0.
593  5.92  0.  0.  0.
594  5.93  0.  0.  0.
595  5.94  0.  0.  0.
596  5.95  0.  0.  0.
597  5.96  0.  0.  0.
598  5.97  0.  0.  0.
599  5.98  0.  0.  0.
600  5.99  0.  0.  0.
1                        -1.0754499664613E+01  1.3456404914271E+00 -3.3887233636596E-01
1  0.0000000000000E+00  5.1226359543133E-09  5.5719428168621E-08 -8.7909323598367E-08
2  1.0000000000000E-02  2.7690381799940E-03 -1.2063231723201E-03 -5.4524304407772E-03
3  2.0000000000000E-02  1.1055658180998E-02 -4.8414214418937E-03 -2.1704308989483E-02
4  3.0000000000000E-02  2.4798582915990E-02 -1.0952646047207E-02 -4.8441637701420E-02
5  4.0000000000000E-02  4.3896369267336E-02 -1.9615503489138E-02 -8.5148497883795E-02
6  5.0000000000000E-02  6.8208425441088E-02 -3.0928668299676E-02 -1.3111797011324E-01
7  6.0000000000000E-02  9.7556414125619E-02 -4.5007258503694E-02 -1.8546703456944E-01
8  7.0000000000000E-02  1.3172602086170E-01 -6.1974620690086E-02 -2.4715507761365E-01
9  8.0000000000000E-02  1.7046906190851E-01 -8.1952927328011E-02 -3.1500554263135E-01
10  9.0000000000000E-02  2.1350590130894E-01 -1.0505293427869E-01 -3.8773018862745E-01
11  1.0000000000000E-01  2.6052814290739E-01 -1.3136327980203E-01 -4.6395536099236E-01
12  1.1000000000000E-01  3.1120155982631E-01 -1.6093972660646E-01 -5.4224963682430E-01
13  1.2000000000000E-01  3.6516922141642E-01 -1.9379475494935E-01 -6.2115218324136E-01
14  1.3000000000000E-01  4.2205477599425E-01 -2.2988790724866E-01 -6.9920116172350E-01
15  1.4000000000000E-01  4.8146584678063E-01 -2.6911726338944E-01 -7.7496152457445E-01
16  1.5000000000000E-01  5.4299749834799E-01 -3.1131239163290E-01 -8.4705158041728E-01
17  1.6000000000000E-01  6.0623573154371E-01 -3.5622907395019E-01 -9.1416775300605E-01
18  1.7000000000000E-01  6.7076096623675E-01 -4.0354604829195E-01 -9.7510701983066E-01
19  1.8000000000000E-01  7.3615147326942E-01 -4.5286394569824E-01 -1.0287865918540E+00
20  1.9000000000000E-01  8.0198671961108E-01 -5.0370652946193E-01 -1.0742604807311E+00
21  2.0000000000000E-01  8.6785059381326E-01 -5.5552426919372E-01 -1.1107326922193E+00
22  2.1000000000000E-01  9.3333448236101E-01 -6.0770020711907E-01 -1.1375668812330E+00
23  2.2000000000000E-01  9.9804017129751E-01 -6.5955799983159E-01 -1.1542924020561E+00
24  2.3000000000000E-01  1.0615825514637E+00 -7.1037194851812E-01 -1.1606067835867E+00
25  2.4000000000000E-01  1.1235921097372E+00 -7.5937876671877E-01 -1.1563747512242E+00
26  2.5000000000000E-01  1.1837171926726E+00 -8.0579077910855E-01 -1.1416240014354E+00
27  2.6000000000000E-01  1.2416260328499E+00 -8.4881019941541E-01 -1.1165380097585E+00
28  2.7000000000000E-01  1.2970085319385E+00 -8.8764410189162E-01 -1.0814462159966E+00
29  2.8000000000000E-01  1.3495777979149E+00 -9.2151967978711E-01 -1.0368119800455E+00
30  2.9000000000000E-01  1.3990714369729E+00 -9.4969937665723E-01 -9.8321873708983E-01
31  3.0000000000000E-01  1.4452526033909E+00 -9.7149548222481E-01 -9.2135480118915E-01
32  3.1000000000000E-01  1.4879108129442E+00 -9.8628380360329E-01 -8.5199727150906E-01
33  3.2000000000000E-01  1.5268625273608E+00 -9.9351605421479E-01 -7.7599548604876E-01
34  3.3000000000000E-01  1.5619515188156E+00 -9.9273064552333E-01 -6.9425444462671E-01
35  3.4000000000000E-01  1.5930490245602E+00 -9.8356161919472E-01 -6.0771858746391E-01
36  3.5000000000000E-01  1.6200537025229E+00 -9.6574551760356E-01 -5.1735626972749E-01
37  3.6000000000000E-01  1.6428913991234E+00 -9.3912605660838E-01 -4.2414521793247E-01
38  3.7000000000000E-01  1.6615147406822E+00 -9.0365653388078E-01 -3.2905919348656E-01
39  3.8000000000000E-01  1.6759025597232E+00 -8.5939997639755E-01 -2.3305602436629E-01
40  3.9000000000000E-01  1.6860591672185E+00 -8.0652709955277E-01 -1.3706710048501E-01
41  4.0000000000000E-01  1.6920134814865E+00 -7.4531221535911E-01 -4.1988364267791E-02
42  4.1000000000000E-01  1.6938180240669E+00 -6.7612728617624E-01  5.1327232313344E-02
43  4.2000000000000E-01  1.6915477925340E+00 -5.9943437134882E-01  1.4207588726825E-01
44  4.3000000000000E-01  1.6852990199065E+00 -5.1577675536526E-01  2.2950785407420E-01
45  4.4000000000000E-01  1.6751878301249E+00 -4.2576907633318E-01  3.1293125939101E-01
46  4.5000000000000E-01  1.6613487990144E+00 -3.3008679176552E-01  3.9171502548117E-01
47  4.6000000000000E-01  1.6439334302659E+00 -2.2945532437720E-01  4.6529110458548E-01
48  4.7000000000000E-01  1.6231085562509E+00 -1.2463922374377E-01  5.3315623555737E-01
49  4.8000000000000E-01  1.5990546739420E+00 -1.6431660653714E-02  5.9487342455740E-01
50  4.9000000000000E-01  1.5719642268206E+00  9.4355459387480E-02  6.5007333217719E-01
51  5.0000000000000E-01  1.5420398443962E+00  2.0690051754765E-01  6.9845572005408E-01
52  5.1000000000000E-01  1.5094925518022E+00  3.2038014105424E-01  7.3979107228915E-01
53  5.2000000000000E-01  1.4745399628208E+00  4.3397595939178E-01  7.7392246257240E-01
54  5.3000000000000E-01  1.4374044705869E+00  5.4688007637122E-01  8.0076768888608E-01
55  5.4000000000000E-01  1.3983114510603E+00  6.5829923960717E-01  8.2032164624069E-01
56  5.5000000000000E-01  1.3574874950875E+00  7.6745775126740E-01  8.3265885643433E-01
57  5.6000000000000E-01  1.3151586854344E+00  8.7359922374132E-01  8.3793602469479E-01
58  5.7000000000000E-01  1.2715489355178E+00  9.7598733881301E-01  8.3639444855645E-01
59  5.8000000000000E-01  1.2268784066245E+00  1.0739058168615E+00  8.2836206660708E-01
60  5.9000000000000E-01  1.1813620201637E+00  1.1666578416405E+00  8.1425490573154E-01
61  6.0000000000000E-01  1.1352080808991E+00  1.2535652147033E+00  7.9457766680203E-01
62  6.1000000000000E-01  1.0886170261360E+00  1.3339675302985E+00  7.6992318167379E-01
63  6.2000000000000E-01  1.0417803144849E+00  1.4072216657312E+00  7.4097047967278E-01
64  6.3000000000000E-01  9.9487946608932E-01  1.4727018733915E+00  7.0848121988761E-01
65  6.4000000000000E-01  9.4808526410420E-01  1.5298007389628E+00  6.7329427640353E-01
66  6.5000000000000E-01  9.0155712477697E-01  1.5779312363021E+00  6.3631830655367E-01
67  6.6000000000000E-01  8.5544264075825E-01  1.6165300641199E+00  5.9852218626154E-01
68  6.7000000000000E-01  8.0987729930624E-01  1.6450623943264E+00  5.6092326009899E-01
69  6.8000000000000E-01  7.6498437391923E-01  1.6630280985625E+00  5.2457342488742E-01
70  6.9000000000000E-01  7.2087498470668E-01  1.6699694501454E+00  4.9054314227127E-01
71  7.0000000000000E-01  6.7764831957654E-01  1.6654802258447E+00  4.5990355516974E-01
72  7.1000000000000E-01  6.3539200516055E-01  1.6492160581468E+00  4.3370696264828E-01
73  7.2000000000000E-01  5.9418261341070E-01  1.6209058166608E+00  4.1296598472286E-01
74  7.3000000000000E-01  5.5408628706681E-01  1.5803637297610E+00  3.9863182008799E-01
75  7.4000000000000E-01  5.1515946480043E-01  1.5275018970511E+00  3.9157206300926E-01
76  7.5000000000000E-01  4.7744968486327E-01  1.4623427922262E+00  3.9254859807952E-01
77  7.6000000000000E-01  4.4099644457407E-01  1.3850313165463E+00  4.0219613093937E-01
78  7.7000000000000E-01  4.0583209202384E-01  1.2958459372624E+00  4.2100193749207E-01
79  7.8000000000000E-01  3.7198272600521E-01  1.1952084343478E+00  4.4928742213052E-01
80  7.9000000000000E-01  3.3946908040196E-01  1.0836917837299E+00  4.8719206607570E-01
81  8.0000000000000E-01  3.0830737011732E-01  9.6202572628921E-01  5.3466031968724E-01
82  8.1000000000000E-01  2.7851007706238E-01  8.3109960908601E-01  5.9143194770641E-01
83  8.2000000000000E-01  2.5008665673893E-01  6.9196213787665E-01  6.5703627460045E-01
84  8.3000000000000E-01  2.2304414848651E-01  5.4581774677875E-01  7.3079069983124E-01
85  8.4000000000000E-01  1.9738767545540E-01  3.9401937016430E-01  8.1180376187927E-01
86  8.5000000000000E-01  1.7312082373459E-01  2.3805749127763E-01  8.9898292762686E-01
87  8.6000000000000E-01  1.5024589371208E-01  7.9545439033279E-02  9.9104717311320E-01
88  8.7000000000000E-01  1.2876402056774E-01 -7.9798994027591E-02  1.0865443059300E+00
89  8.8000000000000E-01  1.0867516468328E-01 -2.3817543680133E-01  1.1838728621424E+00
90  8.9000000000000E-01  8.9977976581800E-02 -3.9372605108652E-01  1.2813082952324E+00
91  9.0000000000000E-01  7.2669544661115E-02 -5.4456349749728E-01  1.3770330648817E+00
92  9.1000000000000E-01  5.6745037345879E-02 -6.8880129733319E-01  1.4691701330494E+00
93  9.2000000000000E-01  4.2197254243837E-02 -8.2458605730540E-01  1.5558192871775E+00
94  9.3000000000000E-01  2.9016103352842E-02 -9.5013096417882E-01  1.6350956385702E+00
95  9.4000000000000E-01  1.7188023243185E-02 -1.0637499137445E+00  1.7051695907155E+00
96  9.5000000000000E-01  6.6953703673593E-03 -1.1638916149966E+00  1.7643075396662E+00
97  9.6000000000000E-01 -2.4842078220179E-03 -1.2491730073148E+00  1.8109125581055E+00
98  9.7000000000000E-01 -1.0378393460934E-02 -1.3184113465335E+00  1.8435643272182E+00
99  9.8000000000000E-01 -1.7020793006844E-02 -1.3706543550267E+00  1.8610576160538E+00
100  9.9000000000000E-01 -2.2451488181919E-02 -1.4052078906570E+00  1.8624386660603E+00
101  1.0000000000000E+00 -2.6717527483865E-02 -1.4216606682707E+00  1.8470389174888E+00
102  1.0100000000000E+00 -2.9873345507299E-02 -1.4199056632910E+00  1.8145056123046E+00