Bh    ONCVPSP-4.0.1  r_core=   1.10207   1.20554   1.10207   1.20554
107.0000     47.0000      231012    zatom,zion,pspd
8   -1012   3     4   600     0    pspcod,pspxc,lmax,lloc,mmax,r2well
5.99000000  3.00000000  0.00000000    rchrg fchrg qchrg
3     2     2     2     0    nproj
1     1           extension_switch
0                         1.2107786848451E+01 -1.1827232319192E+01 -2.0361774631610E-01
1  0.0000000000000E+00 -3.7085843285212E-09  6.5284999628545E-11  8.3671752193482E-08
2  1.0000000000000E-02  1.8318064677058E-01  6.6074040540704E-02 -5.9123061751862E-02
3  2.0000000000000E-02  3.6462413568169E-01  1.3204762406218E-01 -1.1677212844501E-01
4  3.0000000000000E-02  5.4261238712396E-01  1.9782017584096E-01 -1.7151642252878E-01
5  4.0000000000000E-02  7.1546526279365E-01  2.6329088995147E-01 -2.2201046594178E-01
6  5.0000000000000E-02  8.8155899890881E-01  3.2835862417047E-01 -2.6703391138126E-01
7  6.0000000000000E-02  1.0393439961985E+00  3.9292180745567E-01 -3.0552804862308E-01
8  7.0000000000000E-02  1.1873617555476E+00  4.5687836412952E-01 -3.3662797368197E-01
9  8.0000000000000E-02  1.3242607518872E+00  5.2012565883383E-01 -3.5968949227369E-01
10  9.0000000000000E-02  1.4488110445866E+00  5.8256046622317E-01 -3.7430993487415E-01
11  1.0000000000000E-01  1.5599174307794E+00  6.4407896922709E-01 -3.8034218892173E-01
12  1.1000000000000E-01  1.6566309593205E+00  7.0457678952150E-01 -3.7790140420071E-01
13  1.2000000000000E-01  1.7381586379191E+00  7.6394905360059E-01 -3.6736399932211E-01
14  1.3000000000000E-01  1.8038711848522E+00  8.2209049752281E-01 -3.4935878879852E-01
15  1.4000000000000E-01  1.8533086997875E+00  8.7889561301061E-01 -3.2475025879089E-01
16  1.5000000000000E-01  1.8861841557239E+00  9.3425883710960E-01 -2.9461424138495E-01
17  1.6000000000000E-01  1.9023846457548E+00  9.8807478705460E-01 -2.6020646727463E-01
18  1.7000000000000E-01  1.9019703538982E+00  1.0402385413501E+00 -2.2292470891127E-01
19  1.8000000000000E-01  1.8851712580140E+00  1.0906459673533E+00 -1.8426545343105E-01
20  1.9000000000000E-01  1.8523816139925E+00  1.1391940948563E+00 -1.4577625908833E-01
21  2.0000000000000E-01  1.8041523128846E+00  1.1857815343153E+00 -1.0900514204277E-01
22  2.1000000000000E-01  1.7411812452276E+00  1.2303089374746E+00 -7.5448503488198E-02
23  2.2000000000000E-01  1.6643018481223E+00  1.2726794972098E+00 -4.6499231774836E-02
24  2.3000000000000E-01  1.5744700492007E+00  1.3127994824812E+00 -2.3396692457864E-02
25  2.4000000000000E-01  1.4727498560392E+00  1.3505788033672E+00 -7.1803442477404E-03
26  2.5000000000000E-01  1.3602978684294E+00  1.3859316002701E+00  1.3513147322406E-03
27  2.6000000000000E-01  1.2383470129552E+00  1.4187768505660E+00  1.6748616635335E-03
28  2.7000000000000E-01  1.1081898134867E+00  1.4490389852425E+00 -6.4323249440086E-03
29  2.8000000000000E-01  9.7116151667397E-01  1.4766485074499E+00 -2.2875956401955E-02
30  2.9000000000000E-01  8.2862338782625E-01  1.5015426044026E+00 -4.7239291225909E-02
31  3.0000000000000E-01  6.8194647954149E-01  1.5236657437387E+00 -7.8788776795561E-02
32  3.1000000000000E-01  5.3249615334001E-01  1.5429702452766E+00 -1.1649111999927E-01
33  3.2000000000000E-01  3.8161760396326E-01  1.5594168191208E+00 -1.5904162763119E-01
34  3.3000000000000E-01  2.3062259790045E-01  1.5729750612710E+00 -2.0490323662621E-01
35  3.4000000000000E-01  8.0777593421530E-02  1.5836238982715E+00 -2.5235523227369E-01
36  3.5000000000000E-01 -6.6706639462823E-02  1.5913519730135E+00 -2.9955024594454E-01
37  3.6000000000000E-01 -2.1068383227745E-01  1.5961579645461E+00 -3.4457774964190E-01
38  3.7000000000000E-01 -3.5007945006233E-01  1.5980508356621E+00 -3.8553193960150E-01
39  3.8000000000000E-01 -4.8389637846466E-01  1.5970500030738E+00 -4.2058164098851E-01
40  3.9000000000000E-01 -6.1121914986630E-01  1.5931854261668E+00 -4.4803968444752E-01
41  4.0000000000000E-01 -7.3121683459549E-01  1.5864976115796E+00 -4.6642911441196E-01
42  4.1000000000000E-01 -8.4314475825053E-01  1.5770375321832E+00 -4.7454359707092E-01
43  4.2000000000000E-01 -9.4634523251679E-01  1.5648664603918E+00 -4.7149950753275E-01
44  4.3000000000000E-01 -1.0402475034654E+00  1.5500557170874E+00 -4.5677739175258E-01
45  4.4000000000000E-01 -1.1243671274781E+00  1.5326863387595E+00 -4.3025081566187E-01
46  4.5000000000000E-01 -1.1983049804002E+00  1.5128486667113E+00 -3.9220102376059E-01
47  4.6000000000000E-01 -1.2617460905176E+00  1.4906418633353E+00 -3.4331632005325E-01
48  4.7000000000000E-01 -1.3144584611994E+00  1.4661733614887E+00 -2.8467563957095E-01
49  4.8000000000000E-01 -1.3562920157226E+00  1.4395582538744E+00 -2.1771637929549E-01
50  4.9000000000000E-01 -1.3871777564950E+00  1.4109186300467E+00 -1.4418718079494E-01
51  5.0000000000000E-01 -1.4071271855702E+00  1.3803828691845E+00 -6.6086979049063E-02
52  5.1000000000000E-01 -1.4162319852322E+00  1.3480848971139E+00  1.4407772521531E-02
53  5.2000000000000E-01 -1.4146639089243E+00  1.3141634162065E+00  9.5025247187605E-02
54  5.3000000000000E-01 -1.4026747863952E+00  1.2787611167306E+00  1.7348683913689E-01
55  5.4000000000000E-01 -1.3805965050832E+00  1.2420238780064E+00  2.4759891659967E-01
56  5.5000000000000E-01 -1.3488407947466E+00  1.2040999673197E+00  3.1534419190647E-01
57  5.6000000000000E-01 -1.3078986162296E+00  1.1651392440057E+00  3.7496904703595E-01
58  5.7000000000000E-01 -1.2583389396931E+00  1.1252923754420E+00  4.2506317618596E-01
59  5.8000000000000E-01 -1.2008066938780E+00  1.0847100709241E+00  4.6462807700190E-01
60  5.9000000000000E-01 -1.1360196767246E+00  1.0435423385569E+00  4.9313123815709E-01
61  6.0000000000000E-01 -1.0647642390932E+00  1.0019377694180E+00  5.1054332578145E-01
62  6.1000000000000E-01 -9.8788958698286E-01  9.6004285236221E-01  5.1735625160970E-01
63  6.2000000000000E-01 -9.0630059251621E-01  9.1800132197464E-01  5.1458069284803E-01
64  6.3000000000000E-01 -8.2094905845493E-01  8.7595354136461E-01  5.0372240374086E-01
65  6.4000000000000E-01 -7.3282344306177E-01  8.3403592076085E-01  4.8673748349713E-01
66  6.5000000000000E-01 -6.4293711921550E-01  7.9238037223259E-01  4.6596761318113E-01
67  6.6000000000000E-01 -5.5231531097869E-01  7.5111380034767E-01  4.4405711188980E-01
68  6.7000000000000E-01 -4.6198091926344E-01  7.1035762819751E-01  4.2385445571355E-01
69  6.8000000000000E-01 -3.7293951270836E-01  6.7022735798018E-01  4.0830161799517E-01
70  6.9000000000000E-01 -2.8616381728934E-01  6.3083216523918E-01  4.0031519455817E-01
71  7.0000000000000E-01 -2.0257808565037E-01  5.9227452590440E-01  4.0266374464892E-01
72  7.1000000000000E-01 -1.2304276209615E-01  5.5464987546459E-01  4.1784608371669E-01
73  7.2000000000000E-01 -4.8339879518949E-02  5.1804629990437E-01  4.4797539002872E-01
74  7.3000000000000E-01  2.0840371320910E-02  4.8254425844367E-01  4.9467392242824E-01
75  7.4000000000000E-01  8.3911472702603E-02  4.4821633860160E-01  5.5898288752245E-01
76  7.5000000000000E-01  1.4040041386409E-01  4.1512704464300E-01  6.4129154540774E-01
77  7.6000000000000E-01  1.8995517785176E-01  3.8333262102483E-01  7.4128901556224E-01
78  7.7000000000000E-01  2.3234959387560E-01  3.5288091301149E-01  8.5794145838480E-01
79  7.8000000000000E-01  2.6748534401145E-01  3.2381126713960E-01  9.8949638967970E-01
80  7.9000000000000E-01  2.9539100037345E-01  2.9615447465509E-01  1.1335148680462E+00
81  8.0000000000000E-01  3.1621806403301E-01  2.6993276138712E-01  1.2869312165412E+00
82  8.1000000000000E-01  3.3023407640808E-01  2.4515982773899E-01  1.4461388417210E+00
83  8.2000000000000E-01  3.3781297370956E-01  2.2184094254190E-01  1.6070996389894E+00
84  8.3000000000000E-01  3.3942295130328E-01  1.9997309441546E-01  1.7654734670785E+00
85  8.4000000000000E-01  3.3561219353722E-01  1.7954520399436E-01  1.9167632791790E+00
86  8.5000000000000E-01  3.2699290190307E-01  1.6053839990876E-01  2.0564707531919E+00
87  8.6000000000000E-01  3.1422411691674E-01  1.4292636074312E-01  2.1802567034433E+00
88  8.7000000000000E-01  2.9799387389751E-01  1.2667572435238E-01  2.2841002091789E+00
89  8.8000000000000E-01  2.7900125762897E-01  1.1174656489625E-01  2.3644502817575E+00
90  8.9000000000000E-01  2.5793892418937E-01  9.8092936782439E-02  2.4183640243871E+00
91  9.0000000000000E-01  2.3547663937978E-01  8.5663483411105E-02  2.4436256177414E+00
92  9.1000000000000E-01  2.1224634237756E-01  7.4402107218251E-02  2.4388410842673E+00
93  9.2000000000000E-01  1.8882918163176E-01  6.4248696058870E-02  2.4035046260789E+00
94  9.3000000000000E-01  1.6574488958702E-01  5.5139899491672E-02  2.3380333694287E+00
95  9.4000000000000E-01  1.4344376641611E-01  4.7009947067764E-02  2.2437685474036E+00
96  9.5000000000000E-01  1.2230143402858E-01  3.9791499328919E-02  2.1229424698940E+00
97  9.6000000000000E-01  1.0261640436955E-01  3.3416520931295E-02  1.9786120171620E+00
98  9.7000000000000E-01  8.4610384897612E-02  2.7817164169817E-02  1.8145607990392E+00
99  9.8000000000000E-01  6.8431123924026E-02  2.2926650227204E-02  1.6351734915935E+00
100  9.9000000000000E-01  5.4157484008515E-02  1.8680134746140E-02  1.4452871433118E+00
101  1.0000000000000E+00  4.1806327437373E-02  1.5015543854406E-02  1.2500253826432E+00
102  1.0100000000000E+00  3.1340708335508E-02  1.1874366586682E-02  1.0546224103505E+00
103  1.0200000000000E+00  2.2678794890523E-02  9.2023897601610E-03  8.6424438383485E-01
104  1.0300000000000E+00  1.5702896713040E-02  6.9503640768038E-03  6.8381625434419E-01
105  1.0400000000000E+00  1.0267966053660E-02  5.0745691706383E-03  5.1786225744805E-01
106  1.0500000000000E+00  6.2082220045983E-03  3.5364708605122E-03  3.7037300082037E-01
107  1.0600000000000E+00  3.3470539608610E-03  2.2950871698727E-03  2.4469404077054E-01
108  1.0700000000000E+00  1.5108687788147E-03  1.3297575644120E-03  1.4335498979732E-01
109  1.0800000000000E+00  4.9848265881028E-04  6.2976832697907E-04  6.8203292425417E-02
110  1.0900000000000E+00  8.0529357919448E-05  1.8860975638935E-04  2.0394063080985E-02
111  1.1000000000000E+00  1.8286149329950E-07  8.2806574095496E-06  8.8749968556035E-04
112  1.1100000000000E+00  2.5839892149834E-08  5.7450739788249E-07  6.1854891977464E-05
113  1.1200000000000E+00 -2.3961589989406E-08 -1.1512304829450E-07 -1.2427543415104E-05
114  1.13  0.  0.  0.
115  1.14  0.  0.  0.
116  1.15  0.  0.  0.
117  1.16  0.  0.  0.
118  1.17  0.  0.  0.
119  1.18  0.  0.  0.
120  1.19  0.  0.  0.
121  1.20  0.  0.  0.
122  1.21  0.  0.  0.
123  1.22  0.  0.  0.
124  1.23  0.  0.  0.
125  1.24  0.  0.  0.
126  1.25  0.  0.  0.
127  1.26  0.  0.  0.
128  1.27  0.  0.  0.
129  1.28  0.  0.  0.
130  1.29  0.  0.  0.
131  1.30  0.  0.  0.
132  1.31  0.  0.  0.
133  1.32  0.  0.  0.
134  1.33  0.  0.  0.
135  1.34  0.  0.  0.
136  1.35  0.  0.  0.
137  1.36  0.  0.  0.
138  1.37  0.  0.  0.
139  1.38  0.  0.  0.
140  1.39  0.  0.  0.
141  1.40  0.  0.  0.
142  1.41  0.  0.  0.
143  1.42  0.  0.  0.
144  1.43  0.  0.  0.
145  1.44  0.  0.  0.
146  1.45  0.  0.  0.
147  1.46  0.  0.  0.
148  1.47  0.  0.  0.
149  1.48  0.  0.  0.
150  1.49  0.  0.  0.
151  1.50  0.  0.  0.
152  1.51  0.  0.  0.
153  1.52  0.  0.  0.
154  1.53  0.  0.  0.
155  1.54  0.  0.  0.
156  1.55  0.  0.  0.
157  1.56  0.  0.  0.
158  1.57  0.  0.  0.
159  1.58  0.  0.  0.
160  1.59  0.  0.  0.
161  1.60  0.  0.  0.
162  1.61  0.  0.  0.
163  1.62  0.  0.  0.
164  1.63  0.  0.  0.
165  1.64  0.  0.  0.
166  1.65  0.  0.  0.
167  1.66  0.  0.  0.
168  1.67  0.  0.  0.
169  1.68  0.  0.  0.
170  1.69  0.  0.  0.
171  1.70  0.  0.  0.
172  1.71  0.  0.  0.
173  1.72  0.  0.  0.
174  1.73  0.  0.  0.
175  1.74  0.  0.  0.
176  1.75  0.  0.  0.
177  1.76  0.  0.  0.
178  1.77  0.  0.  0.
179  1.78  0.  0.  0.
180  1.79  0.  0.  0.
181  1.80  0.  0.  0.
182  1.81  0.  0.  0.
183  1.82  0.  0.  0.
184  1.83  0.  0.  0.
185  1.84  0.  0.  0.
186  1.85  0.  0.  0.
187  1.86  0.  0.  0.
188  1.87  0.  0.  0.
189  1.88  0.  0.  0.
190  1.89  0.  0.  0.
191  1.90  0.  0.  0.
192  1.91  0.  0.  0.
193  1.92  0.  0.  0.
194  1.93  0.  0.  0.
195  1.94  0.  0.  0.
196  1.95  0.  0.  0.
197  1.96  0.  0.  0.
198  1.97  0.  0.  0.
199  1.98  0.  0.  0.
200  1.99  0.  0.  0.
201  2.00  0.  0.  0.
202  2.01  0.  0.  0.
203  2.02  0.  0.  0.
204  2.03  0.  0.  0.
205  2.04  0.  0.  0.
206  2.05  0.  0.  0.
207  2.06  0.  0.  0.
208  2.07  0.  0.  0.
209  2.08  0.  0.  0.
210  2.09  0.  0.  0.
211  2.10  0.  0.  0.
212  2.11  0.  0.  0.
213  2.12  0.  0.  0.
214  2.13  0.  0.  0.
215  2.14  0.  0.  0.
216  2.15  0.  0.  0.
217  2.16  0.  0.  0.
218  2.17  0.  0.  0.
219  2.18  0.  0.  0.
220  2.19  0.  0.  0.
221  2.20  0.  0.  0.
222  2.21  0.  0.  0.
223  2.22  0.  0.  0.
224  2.23  0.  0.  0.
225  2.24  0.  0.  0.
226  2.25  0.  0.  0.
227  2.26  0.  0.  0.
228  2.27  0.  0.  0.
229  2.28  0.  0.  0.
230  2.29  0.  0.  0.
231  2.30  0.  0.  0.
232  2.31  0.  0.  0.
233  2.32  0.  0.  0.
234  2.33  0.  0.  0.
235  2.34  0.  0.  0.
236  2.35  0.  0.  0.
237  2.36  0.  0.  0.
238  2.37  0.  0.  0.
239  2.38  0.  0.  0.
240  2.39  0.  0.  0.
241  2.40  0.  0.  0.
242  2.41  0.  0.  0.
243  2.42  0.  0.  0.
244  2.43  0.  0.  0.
245  2.44  0.  0.  0.
246  2.45  0.  0.  0.
247  2.46  0.  0.  0.
248  2.47  0.  0.  0.
249  2.48  0.  0.  0.
250  2.49  0.  0.  0.
251  2.50  0.  0.  0.
252  2.51  0.  0.  0.
253  2.52  0.  0.  0.
254  2.53  0.  0.  0.
255  2.54  0.  0.  0.
256  2.55  0.  0.  0.
257  2.56  0.  0.  0.
258  2.57  0.  0.  0.
259  2.58  0.  0.  0.
260  2.59  0.  0.  0.
261  2.60  0.  0.  0.
262  2.61  0.  0.  0.
263  2.62  0.  0.  0.
264  2.63  0.  0.  0.
265  2.64  0.  0.  0.
266  2.65  0.  0.  0.
267  2.66  0.  0.  0.
268  2.67  0.  0.  0.
269  2.68  0.  0.  0.
270  2.69  0.  0.  0.
271  2.70  0.  0.  0.
272  2.71  0.  0.  0.
273  2.72  0.  0.  0.
274  2.73  0.  0.  0.
275  2.74  0.  0.  0.
276  2.75  0.  0.  0.
277  2.76  0.  0.  0.
278  2.77  0.  0.  0.
279  2.78  0.  0.  0.
280  2.79  0.  0.  0.
281  2.80  0.  0.  0.
282  2.81  0.  0.  0.
283  2.82  0.  0.  0.
284  2.83  0.  0.  0.
285  2.84  0.  0.  0.
286  2.85  0.  0.  0.
287  2.86  0.  0.  0.
288  2.87  0.  0.  0.
289  2.88  0.  0.  0.
290  2.89  0.  0.  0.
291  2.90  0.  0.  0.
292  2.91  0.  0.  0.
293  2.92  0.  0.  0.
294  2.93  0.  0.  0.
295  2.94  0.  0.  0.
296  2.95  0.  0.  0.
297  2.96  0.  0.  0.
298  2.97  0.  0.  0.
299  2.98  0.  0.  0.
300  2.99  0.  0.  0.
301  3.00  0.  0.  0.
302  3.01  0.  0.  0.
303  3.02  0.  0.  0.
304  3.03  0.  0.  0.
305  3.04  0.  0.  0.
306  3.05  0.  0.  0.
307  3.06  0.  0.  0.
308  3.07  0.  0.  0.
309  3.08  0.  0.  0.
310  3.09  0.  0.  0.
311  3.10  0.  0.  0.
312  3.11  0.  0.  0.
313  3.12  0.  0.  0.
314  3.13  0.  0.  0.
315  3.14  0.  0.  0.
316  3.15  0.  0.  0.
317  3.16  0.  0.  0.
318  3.17  0.  0.  0.
319  3.18  0.  0.  0.
320  3.19  0.  0.  0.
321  3.20  0.  0.  0.
322  3.21  0.  0.  0.
323  3.22  0.  0.  0.
324  3.23  0.  0.  0.
325  3.24  0.  0.  0.
326  3.25  0.  0.  0.
327  3.26  0.  0.  0.
328  3.27  0.  0.  0.
329  3.28  0.  0.  0.
330  3.29  0.  0.  0.
331  3.30  0.  0.  0.
332  3.31  0.  0.  0.
333  3.32  0.  0.  0.
334  3.33  0.  0.  0.
335  3.34  0.  0.  0.
336  3.35  0.  0.  0.
337  3.36  0.  0.  0.
338  3.37  0.  0.  0.
339  3.38  0.  0.  0.
340  3.39  0.  0.  0.
341  3.40  0.  0.  0.
342  3.41  0.  0.  0.
343  3.42  0.  0.  0.
344  3.43  0.  0.  0.
345  3.44  0.  0.  0.
346  3.45  0.  0.  0.
347  3.46  0.  0.  0.
348  3.47  0.  0.  0.
349  3.48  0.  0.  0.
350  3.49  0.  0.  0.
351  3.50  0.  0.  0.
352  3.51  0.  0.  0.
353  3.52  0.  0.  0.
354  3.53  0.  0.  0.
355  3.54  0.  0.  0.
356  3.55  0.  0.  0.
357  3.56  0.  0.  0.
358  3.57  0.  0.  0.
359  3.58  0.  0.  0.
360  3.59  0.  0.  0.
361  3.60  0.  0.  0.
362  3.61  0.  0.  0.
363  3.62  0.  0.  0.
364  3.63  0.  0.  0.
365  3.64  0.  0.  0.
366  3.65  0.  0.  0.
367  3.66  0.  0.  0.
368  3.67  0.  0.  0.
369  3.68  0.  0.  0.
370  3.69  0.  0.  0.
371  3.70  0.  0.  0.
372  3.71  0.  0.  0.
373  3.72  0.  0.  0.
374  3.73  0.  0.  0.
375  3.74  0.  0.  0.
376  3.75  0.  0.  0.
377  3.76  0.  0.  0.
378  3.77  0.  0.  0.
379  3.78  0.  0.  0.
380  3.79  0.  0.  0.
381  3.80  0.  0.  0.
382  3.81  0.  0.  0.
383  3.82  0.  0.  0.
384  3.83  0.  0.  0.
385  3.84  0.  0.  0.
386  3.85  0.  0.  0.
387  3.86  0.  0.  0.
388  3.87  0.  0.  0.
389  3.88  0.  0.  0.
390  3.89  0.  0.  0.
391  3.90  0.  0.  0.
392  3.91  0.  0.  0.
393  3.92  0.  0.  0.
394  3.93  0.  0.  0.
395  3.94  0.  0.  0.
396  3.95  0.  0.  0.
397  3.96  0.  0.  0.
398  3.97  0.  0.  0.
399  3.98  0.  0.  0.
400  3.99  0.  0.  0.
401  4.00  0.  0.  0.
402  4.01  0.  0.  0.
403  4.02  0.  0.  0.
404  4.03  0.  0.  0.
405  4.04  0.  0.  0.
406  4.05  0.  0.  0.
407  4.06  0.  0.  0.
408  4.07  0.  0.  0.
409  4.08  0.  0.  0.
410  4.09  0.  0.  0.
411  4.10  0.  0.  0.
412  4.11  0.  0.  0.
413  4.12  0.  0.  0.
414  4.13  0.  0.  0.
415  4.14  0.  0.  0.
416  4.15  0.  0.  0.
417  4.16  0.  0.  0.
418  4.17  0.  0.  0.
419  4.18  0.  0.  0.
420  4.19  0.  0.  0.
421  4.20  0.  0.  0.
422  4.21  0.  0.  0.
423  4.22  0.  0.  0.
424  4.23  0.  0.  0.
425  4.24  0.  0.  0.
426  4.25  0.  0.  0.
427  4.26  0.  0.  0.
428  4.27  0.  0.  0.
429  4.28  0.  0.  0.
430  4.29  0.  0.  0.
431  4.30  0.  0.  0.
432  4.31  0.  0.  0.
433  4.32  0.  0.  0.
434  4.33  0.  0.  0.
435  4.34  0.  0.  0.
436  4.35  0.  0.  0.
437  4.36  0.  0.  0.
438  4.37  0.  0.  0.
439  4.38  0.  0.  0.
440  4.39  0.  0.  0.
441  4.40  0.  0.  0.
442  4.41  0.  0.  0.
443  4.42  0.  0.  0.
444  4.43  0.  0.  0.
445  4.44  0.  0.  0.
446  4.45  0.  0.  0.
447  4.46  0.  0.  0.
448  4.47  0.  0.  0.
449  4.48  0.  0.  0.
450  4.49  0.  0.  0.
451  4.50  0.  0.  0.
452  4.51  0.  0.  0.
453  4.52  0.  0.  0.
454  4.53  0.  0.  0.
455  4.54  0.  0.  0.
456  4.55  0.  0.  0.
457  4.56  0.  0.  0.
458  4.57  0.  0.  0.
459  4.58  0.  0.  0.
460  4.59  0.  0.  0.
461  4.60  0.  0.  0.
462  4.61  0.  0.  0.
463  4.62  0.  0.  0.
464  4.63  0.  0.  0.
465  4.64  0.  0.  0.
466  4.65  0.  0.  0.
467  4.66  0.  0.  0.
468  4.67  0.  0.  0.
469  4.68  0.  0.  0.
470  4.69  0.  0.  0.
471  4.70  0.  0.  0.
472  4.71  0.  0.  0.
473  4.72  0.  0.  0.
474  4.73  0.  0.  0.
475  4.74  0.  0.  0.
476  4.75  0.  0.  0.
477  4.76  0.  0.  0.
478  4.77  0.  0.  0.
479  4.78  0.  0.  0.
480  4.79  0.  0.  0.
481  4.80  0.  0.  0.
482  4.81  0.  0.  0.
483  4.82  0.  0.  0.
484  4.83  0.  0.  0.
485  4.84  0.  0.  0.
486  4.85  0.  0.  0.
487  4.86  0.  0.  0.
488  4.87  0.  0.  0.
489  4.88  0.  0.  0.
490  4.89  0.  0.  0.
491  4.90  0.  0.  0.
492  4.91  0.  0.  0.
493  4.92  0.  0.  0.
494  4.93  0.  0.  0.
495  4.94  0.  0.  0.
496  4.95  0.  0.  0.
497  4.96  0.  0.  0.
498  4.97  0.  0.  0.
499  4.98  0.  0.  0.
500  4.99  0.  0.  0.
501  5.00  0.  0.  0.
502  5.01  0.  0.  0.
503  5.02  0.  0.  0.
504  5.03  0.  0.  0.
505  5.04  0.  0.  0.
506  5.05  0.  0.  0.
507  5.06  0.  0.  0.
508  5.07  0.  0.  0.
509  5.08  0.  0.  0.
510  5.09  0.  0.  0.
511  5.10  0.  0.  0.
512  5.11  0.  0.  0.
513  5.12  0.  0.  0.
514  5.13  0.  0.  0.
515  5.14  0.  0.  0.
516  5.15  0.  0.  0.
517  5.16  0.  0.  0.
518  5.17  0.  0.  0.
519  5.18  0.  0.  0.
520  5.19  0.  0.  0.
521  5.20  0.  0.  0.
522  5.21  0.  0.  0.
523  5.22  0.  0.  0.
524  5.23  0.  0.  0.
525  5.24  0.  0.  0.
526  5.25  0.  0.  0.
527  5.26  0.  0.  0.
528  5.27  0.  0.  0.
529  5.28  0.  0.  0.
530  5.29  0.  0.  0.
531  5.30  0.  0.  0.
532  5.31  0.  0.  0.
533  5.32  0.  0.  0.
534  5.33  0.  0.  0.
535  5.34  0.  0.  0.
536  5.35  0.  0.  0.
537  5.36  0.  0.  0.
538  5.37  0.  0.  0.
539  5.38  0.  0.  0.
540  5.39  0.  0.  0.
541  5.40  0.  0.  0.
542  5.41  0.  0.  0.
543  5.42  0.  0.  0.
544  5.43  0.  0.  0.
545  5.44  0.  0.  0.
546  5.45  0.  0.  0.
547  5.46  0.  0.  0.
548  5.47  0.  0.  0.
549  5.48  0.  0.  0.
550  5.49  0.  0.  0.
551  5.50  0.  0.  0.
552  5.51  0.  0.  0.
553  5.52  0.  0.  0.
554  5.53  0.  0.  0.
555  5.54  0.  0.  0.
556  5.55  0.  0.  0.
557  5.56  0.  0.  0.
558  5.57  0.  0.  0.
559  5.58  0.  0.  0.
560  5.59  0.  0.  0.
561  5.60  0.  0.  0.
562  5.61  0.  0.  0.
563  5.62  0.  0.  0.
564  5.63  0.  0.  0.
565  5.64  0.  0.  0.
566  5.65  0.  0.  0.
567  5.66  0.  0.  0.
568  5.67  0.  0.  0.
569  5.68  0.  0.  0.
570  5.69  0.  0.  0.
571  5.70  0.  0.  0.
572  5.71  0.  0.  0.
573  5.72  0.  0.  0.
574  5.73  0.  0.  0.
575  5.74  0.  0.  0.
576  5.75  0.  0.  0.
577  5.76  0.  0.  0.
578  5.77  0.  0.  0.
579  5.78  0.  0.  0.
580  5.79  0.  0.  0.
581  5.80  0.  0.  0.
582  5.81  0.  0.  0.
583  5.82  0.  0.  0.
584  5.83  0.  0.  0.
585  5.84  0.  0.  0.
586  5.85  0.  0.  0.
587  5.86  0.  0.  0.
588  5.87  0.  0.  0.
589  5.88  0.  0.  0.
590  5.89  0.  0.  0.
591  5.90  0.  0.  0.
592  5.91  0.  0.  0.
593  5.92  0.  0.  0.
594  5.93  0.  0.  0.
595  5.94  0.  0.  0.
596  5.95  0.  0.  0.
597  5.96  0.  0.  0.
598  5.97  0.  0.  0.
599  5.98  0.  0.  0.
600  5.99  0.  0.  0.
1                        -1.0231156962301E+01 -2.6595211013743E-01
1  0.0000000000000E+00  3.7609928227322E-09 -5.7541270082062E-08
2  1.0000000000000E-02  2.7953871720738E-03 -5.1008638323376E-03
3  2.0000000000000E-02  1.1161405596540E-02 -2.0318267731951E-02
4  3.0000000000000E-02  2.5037808110783E-02 -4.5398236263900E-02
5  4.0000000000000E-02  4.4324787680639E-02 -7.9922731715456E-02
6  5.0000000000000E-02  6.8883877303620E-02 -1.2331740933205E-01
7  6.0000000000000E-02  9.8539195087760E-02 -1.7486222467330E-01
8  7.0000000000000E-02  1.3307901999439E-01 -2.3370465137908E-01
9  8.0000000000000E-02  1.7225767997217E-01 -2.9887521009450E-01
10  9.0000000000000E-02  2.1579773072676E-01 -3.6930495990498E-01
11  1.0000000000000E-01  2.6339240021618E-01 -4.4384456366375E-01
12  1.1000000000000E-01  3.1470827117920E-01 -5.2128450904347E-01
13  1.2000000000000E-01  3.6938817163061E-01 -6.0037604868764E-01
14  1.3000000000000E-01  4.2705424132018E-01 -6.7985241581574E-01
15  1.4000000000000E-01  4.8731114067288E-01 -7.5844987604238E-01
16  1.5000000000000E-01  5.4974936771783E-01 -8.3492819166220E-01
17  1.6000000000000E-01  6.1394864797590E-01 -9.0809010056310E-01
18  1.7000000000000E-01  6.7948136220540E-01 -9.7679944728898E-01
19  1.8000000000000E-01  7.4591597729010E-01 -1.0399976473528E+00
20  1.9000000000000E-01  8.1282044637176E-01 -1.0967182162477E+00
21  2.0000000000000E-01  8.7976554555507E-01 -1.1460991500897E+00
22  2.1000000000000E-01  9.4632811611191E-01 -1.1873930037190E+00
23  2.2000000000000E-01  1.0120941830472E+00 -1.2199745725718E+00
24  2.3000000000000E-01  1.0766619231179E+00 -1.2433461449272E+00
25  2.4000000000000E-01  1.1396444578741E+00 -1.2571403494739E+00
26  2.5000000000000E-01  1.2006724499729E+00 -1.2611206779044E+00
27  2.6000000000000E-01  1.2593964838493E+00 -1.2551798119620E+00
28  2.7000000000000E-01  1.3154892147710E+00 -1.2393359277647E+00
29  2.8000000000000E-01  1.3686472733071E+00 -1.2137271863016E+00
30  2.9000000000000E-01  1.4185929152590E+00 -1.1786046469805E+00
31  3.0000000000000E-01  1.4650754100974E+00 -1.1343238605449E+00
32  3.1000000000000E-01  1.5078721638779E+00 -1.0813354084043E+00
33  3.2000000000000E-01  1.5467895754431E+00 -1.0201746575702E+00
34  3.3000000000000E-01  1.5816636274212E+00 -9.5145099435769E-01
35  3.4000000000000E-01  1.6123602160852E+00 -8.7583678649021E-01
36  3.5000000000000E-01  1.6387752265112E+00 -7.9405630311600E-01
37  3.6000000000000E-01  1.6608343616611E+00 -7.0687479661667E-01
38  3.7000000000000E-01  1.6784927359971E+00 -6.1508792020253E-01
39  3.8000000000000E-01  1.6917342460034E+00 -5.1951162248906E-01
40  3.9000000000000E-01  1.7005707315506E+00 -4.2097262594291E-01
41  4.0000000000000E-01  1.7050409433716E+00 -3.2029956166154E-01
42  4.1000000000000E-01  1.7052093330449E+00 -2.1831479977292E-01
43  4.2000000000000E-01  1.7011646827958E+00 -1.1582698404784E-01
44  4.3000000000000E-01  1.6930185931383E+00 -1.3624252234223E-02
45  4.4000000000000E-01  1.6809038468940E+00  8.7531898927880E-02
46  4.5000000000000E-01  1.6649726684614E+00  1.8691216233860E-01
47  4.6000000000000E-01  1.6453948973580E+00  2.8382445268568E-01
48  4.7000000000000E-01  1.6223560950517E+00  3.7761849751284E-01
49  4.8000000000000E-01  1.5960556039279E+00  4.6769006217744E-01
50  4.9000000000000E-01  1.5667045769281E+00  5.5348487749223E-01
51  5.0000000000000E-01  1.5345239959434E+00  6.3450232744808E-01
52  5.1000000000000E-01  1.4997426964688E+00  7.1029893849430E-01
53  5.2000000000000E-01  1.4625954153252E+00  7.8049169230934E-01
54  5.3000000000000E-01  1.4233208774441E+00  8.4476116188135E-01
55  5.4000000000000E-01  1.3821599367924E+00  9.0285444719143E-01
56  5.5000000000000E-01  1.3393537854998E+00  9.5458786308275E-01
57  5.6000000000000E-01  1.2951422441445E+00  9.9984930925463E-01
58  5.7000000000000E-01  1.2497621449623E+00  1.0386002319564E+00
59  5.8000000000000E-01  1.2034458184761E+00  1.0708770700234E+00
60  5.9000000000000E-01  1.1564196927080E+00  1.0967920654156E+00
61  6.0000000000000E-01  1.1089030127423E+00  1.1165333112515E+00
62  6.1000000000000E-01  1.0611066869644E+00  1.1303639091594E+00
63  6.2000000000000E-01  1.0132322648205E+00  1.1386201130152E+00
64  6.3000000000000E-01  9.6547104944074E-01  1.1417083480345E+00
65  6.4000000000000E-01  9.1800334694890E-01  1.1401010126495E+00
66  6.5000000000000E-01  8.7099785277863E-01  1.1343309953357E+00
67  6.6000000000000E-01  8.2461117382145E-01  1.1249848689747E+00
68  6.7000000000000E-01  7.7898748378535E-01  1.1126947606397E+00
69  6.8000000000000E-01  7.3425830774777E-01  1.0981289338380E+00
70  6.9000000000000E-01  6.9054243056839E-01  1.0819811620269E+00
71  7.0000000000000E-01  6.4794592260132E-01  1.0649590152692E+00
72  7.1000000000000E-01  6.0656227503149E-01  1.0477712247428E+00
73  7.2000000000000E-01  5.6647263617316E-01  1.0311143309527E+00
74  7.3000000000000E-01  5.2774613922492E-01  1.0156588593714E+00
75  7.4000000000000E-01  4.9044031128864E-01  1.0020353004021E+00
76  7.5000000000000E-01  4.5460155294172E-01  9.9082019762540E-01
77  7.6000000000000E-01  4.2026567731066E-01  9.8252266805327E-01
78  7.7000000000000E-01  3.8745849743446E-01  9.7757168954632E-01
79  7.8000000000000E-01  3.5619645073191E-01  9.7630449288376E-01
80  7.9000000000000E-01  3.2648724959433E-01  9.7895638870416E-01
81  8.0000000000000E-01  2.9833054751013E-01  9.8565234246827E-01
82  8.1000000000000E-01  2.7171861067991E-01  9.9640058384579E-01
83  8.2000000000000E-01  2.4663698578742E-01  1.0110885009495E+00
84  8.3000000000000E-01  2.2306515543588E-01  1.0294810253866E+00
85  8.4000000000000E-01  2.0097717372044E-01  1.0512216622488E+00
86  8.5000000000000E-01  1.8034227546301E-01  1.0758362612507E+00
87  8.6000000000000E-01  1.6112545375968E-01  1.1027395628581E+00
88  8.7000000000000E-01  1.4328800165586E-01  1.1312444881885E+00
89  8.8000000000000E-01  1.2678801494200E-01  1.1605740756570E+00
90  8.9000000000000E-01  1.1158085422390E-01  1.1898759027908E+00
91  9.0000000000000E-01  9.7619565537957E-02  1.2182387703725E+00
92  9.1000000000000E-01  8.4855259825570E-02  1.2447113700799E+00
93  9.2000000000000E-01  7.3237452527305E-02  1.2683226079467E+00
94  9.3000000000000E-01  6.2714365383022E-02  1.2881032159494E+00
95  9.4000000000000E-01  5.3233193210299E-02  1.3031082542979E+00
96  9.5000000000000E-01  4.4740338964593E-02  1.3124400887041E+00
97  9.6000000000000E-01  3.7181620750029E-02  1.3152714208601E+00
98  9.7000000000000E-01  3.0502454643689E-02  1.3108679569889E+00
99  9.8000000000000E-01  2.4648017218282E-02  1.2986103186871E+00
100  9.9000000000000E-01  1.9563391502922E-02  1.2780148319480E+00
101  1.0000000000000E+00  1.5193699818698E-02  1.2487528734949E+00
102  1.0100000000000E+00  1.1484226480153E-02  1.2106685071286E+00
103  1.0200000000000E+00  8.3805327849098E-03  1.1637942051458E+00
104  1.0300000000000E+00  5.8285660440684E-03  1.1083645192055E+00
105  1.0400000000000E+00  3.7747636625154E-03  1.0448276391120E+00
106  1.0500000000000E+00  2.1661524905259E-03  9.7385485444255E-01
107  1.0600000000000E+00  9.5044286394322E-04  8.9634801051817E-01
108  1.0700000000000E+00  7.6115962882274E-05  8.1344512414429E-01
109  1.0800000000000E+00 -5.0749762260772E-04  7.2652439347632E-01
110  1.0900000000000E+00 -8.5015113387740E-04  6.3720692424331E-01
111  1.1000000000000E+00 -1.0006265202230E-03  5.4735811978349E-01
112  1.1100000000000E+00 -1.0066425833480E-03  4.5908211000159E-01
113  1.1200000000000E+00 -9.1329161767720E-04  3.7454770815561E-01
114  1.1300000000000E+00 -7.6039892915787E-04  2.9570740388673E-01
115  1.1400000000000E+00 -5.8164698946010E-04  2.2423069356418E-01
116  1.1500000000000E+00 -4.0422067246575E-04  1.6142565709353E-01
117  1.1600000000000E+00 -2.4922498386746E-04  1.0808961242950E-01
118  1.1700000000000E+00 -1.3006475613390E-04  6.5119727390520E-02
119  1.1800000000000E+00 -5.1923707038194E-05  3.3038167821228E-02
120  1.1900000000000E+00 -1.2125118943601E-05  1.1934437049180E-02
121  1.2000000000000E+00 -4.6345803045973E-07  1.5256172601908E-03
122  1.2100000000000E+00 -2.1684983454066E-08 -9.3528440533943E-05
123  1.2200000000000E+00 -2.7774822090342E-11  6.1176220037559E-07
124  1.23 -0. -0.
125  1.24  0.  0.
126  1.25  0.  0.
127  1.26  0.  0.
128  1.27  0.  0.
129  1.28  0.  0.
130  1.29  0.  0.
131  1.30  0.  0.
132  1.31  0.  0.
133  1.32  0.  0.
134  1.33  0.  0.
135  1.34  0.  0.
136  1.35  0.  0.
137  1.36  0.  0.
138  1.37  0.  0.
139  1.38  0.  0.
140  1.39  0.  0.
141  1.40  0.  0.
142  1.41  0.  0.
143  1.42  0.  0.
144  1.43  0.  0.
145  1.44  0.  0.
146  1.45  0.  0.
147  1.46  0.  0.
148  1.47  0.  0.
149  1.48  0.  0.
150  1.49  0.  0.
151  1.50  0.  0.
152  1.51  0.  0.
153  1.52  0.  0.
154  1.53  0.  0.
155  1.54  0.  0.
156  1.55  0.  0.
157  1.56  0.  0.
158  1.57  0.  0.
159  1.58  0.  0.
160  1.59  0.  0.
161  1.60  0.  0.
162  1.61  0.  0.
163  1.62  0.  0.
164  1.63  0.  0.
165  1.64  0.  0.
166  1.65  0.  0.
167  1.66  0.  0.
168  1.67  0.  0.
169  1.68  0.  0.