Uu    ONCVPSP-4.0.1  r_core=   1.70790   1.60873   1.85710
    119.0000     27.0000      211120    zatom,zion,pspd
     8      11   2     4   600     0    pspcod,pspxc,lmax,lloc,mmax,r2well
  5.99000000  5.00000000  0.00000000    rchrg fchrg qchrg
     3     2     2     0     0    nproj
     1     1           extension_switch
   0                         7.6385805917602E+00 -3.9310824875027E+00 -2.7910434858944E-01
     1  0.0000000000000E+00 -2.4345503391032E-10  4.2574666014872E-11  3.2974294406074E-09
     2  1.0000000000000E-02  1.0234256713833E-01  2.3878551892189E-02 -1.0068829157887E-01
     3  2.0000000000000E-02  2.0428431097390E-01  4.7776037472994E-02 -2.0047762022631E-01
     4  3.0000000000000E-02  3.0542629120499E-01  7.1711177834225E-02 -2.9847712806608E-01
     5  4.0000000000000E-02  4.0537332330773E-01  9.5702270328678E-02 -3.9381208817468E-01
     6  5.0000000000000E-02  5.0373583092669E-01  1.1976698032627E-01 -4.8563177301208E-01
     7  6.0000000000000E-02  6.0013166784017E-01  1.4392213729057E-01 -5.7311708876470E-01
     8  7.0000000000000E-02  6.9418789964542E-01  1.6818353656553E-01 -6.5548790148532E-01
     9  8.0000000000000E-02  7.8554253555238E-01  1.9256574821965E-01 -7.3200998421222E-01
    10  9.0000000000000E-02  8.7384620097592E-01  2.1708193424228E-01 -8.0200151829759E-01
    11  1.0000000000000E-01  9.5876374197401E-01  2.4174367532484E-01 -8.6483908692728E-01
    12  1.1000000000000E-01  1.0399757529899E+00  2.6656080838864E-01 -9.1996310421720E-01
    13  1.2000000000000E-01  1.1171800198182E+00  2.9154127594187E-01 -9.6688262925784E-01
    14  1.3000000000000E-01  1.1900928702254E+00  3.1669098826127E-01 -1.0051795209877E+00
    15  1.4000000000000E-01  1.2584504252075E+00  3.4201369930027E-01 -1.0345118967207E+00
    16  1.5000000000000E-01  1.3220097444658E+00  3.6751089712539E-01 -1.0546168644656E+00
    17  1.6000000000000E-01  1.3805498603118E+00  3.9318170957739E-01 -1.0653125067681E+00
    18  1.7000000000000E-01  1.4338726948796E+00  4.1902282574445E-01 -1.0664991015795E+00
    19  1.8000000000000E-01  1.4818038562162E+00  4.4502843372116E-01 -1.0581595735531E+00
    20  1.9000000000000E-01  1.5241933095420E+00  4.7119017501203E-01 -1.0403591770602E+00
    21  2.0000000000000E-01  1.5609159207088E+00  4.9749711582088E-01 -1.0132444200516E+00
    22  2.1000000000000E-01  1.5918718696365E+00  5.2393573534988E-01 -9.7704124555279E-01
    23  2.2000000000000E-01  1.6169869322742E+00  5.5048993111463E-01 -9.3205249500309E-01
    24  2.3000000000000E-01  1.6362126303978E+00  5.7714104116559E-01 -8.7865468474614E-01
    25  2.4000000000000E-01  1.6495262493245E+00  6.0386788299249E-01 -8.1729413366328E-01
    26  2.5000000000000E-01  1.6569307243898E+00  6.3064680877697E-01 -7.4848248616430E-01
    27  2.6000000000000E-01  1.6584543977850E+00  6.5745177655261E-01 -6.7279168042636E-01
    28  2.7000000000000E-01  1.6541506480937E+00  6.8425443672840E-01 -5.9084841684558E-01
    29  2.8000000000000E-01  1.6440973955873E+00  7.1102423333557E-01 -5.0332818610439E-01
    30  2.9000000000000E-01  1.6283964870340E+00  7.3772851926656E-01 -4.1094891999338E-01
    31  3.0000000000000E-01  1.6071729644502E+00  7.6433268469125E-01 -3.1446433114281E-01
    32  3.1000000000000E-01  1.5805742228545E+00  7.9080029775853E-01 -2.1465701008798E-01
    33  3.2000000000000E-01  1.5487690626920E+00  8.1709325662254E-01 -1.1233134958852E-01
    34  3.3000000000000E-01  1.5119466431544E+00  8.4317195177195E-01 -8.3063668599482E-03
    35  3.4000000000000E-01  1.4703153431430E+00  8.6899543758813E-01  9.6591505679195E-02
    36  3.5000000000000E-01  1.4241015370954E+00  8.9452161201440E-01  2.0153559132078E-01
    37  3.6000000000000E-01  1.3735482933188E+00  9.1970740318355E-01  3.0570603337430E-01
    38  3.7000000000000E-01  1.3189140028502E+00  9.4450896182467E-01  4.0829668682856E-01
    39  3.8000000000000E-01  1.2604709471825E+00  9.6888185825329E-01  5.0852177425594E-01
    40  3.9000000000000E-01  1.1985038134622E+00  9.9278128274026E-01  6.0562224639166E-01
    41  4.0000000000000E-01  1.1333081659753E+00  1.0161622480552E+00  6.9887179193962E-01
    42  4.1000000000000E-01  1.0651888828910E+00  1.0389797929891E+00  7.8758244580815E-01
    43  4.2000000000000E-01  9.9445856733027E-01  1.0611891856766E+00  8.7110975006640E-01
    44  4.3000000000000E-01  9.2143594186438E-01  1.0827461255647E+00  9.4885742742648E-01
    45  4.4000000000000E-01  8.4644423553222E-01  1.1036069429049E+00  1.0202815328507E+00
    46  4.5000000000000E-01  7.6980957238994E-01  1.1237287946844E+00  1.0848940549634E+00
    47  4.6000000000000E-01  6.9185937047836E-01  1.1430698559594E+00  1.1422659451795E+00
    48  4.7000000000000E-01  6.1292075991036E-01  1.1615895056008E+00  1.1920295587994E+00
    49  4.8000000000000E-01  5.3331902854593E-01  1.1792485055229E+00  1.2338804986929E+00
    50  4.9000000000000E-01  4.5337610343826E-01  1.1960091725221E+00  1.2675788585006E+00
    51  5.0000000000000E-01  3.7340907590244E-01  1.2118355419210E+00  1.2929498684876E+00
    52  5.1000000000000E-01  2.9372877768243E-01  1.2266935222795E+00  1.3098839531808E+00
    53  5.2000000000000E-01  2.1463841527437E-01  1.2405510405051E+00  1.3183362156914E+00
    54  5.3000000000000E-01  1.3643226900853E-01  1.2533781767698E+00  1.3183253690511E+00
    55  5.4000000000000E-01  5.9394463002198E-02  1.2651472887112E+00  1.3099321399730E+00
    56  5.5000000000000E-01 -1.6202188425606E-02  1.2758331244750E+00  1.2932971751025E+00
    57  5.6000000000000E-01 -9.0097252834592E-02  1.2854129242291E+00  1.2686184840116E+00
    58  5.7000000000000E-01 -1.6204366576681E-01  1.2938665098534E+00  1.2361484569009E+00
    59  5.8000000000000E-01 -2.3180862699171E-01  1.3011763625876E+00  1.1961904981254E+00
    60  5.9000000000000E-01 -2.9917440361453E-01  1.3073276884865E+00  1.1490953193026E+00
    61  6.0000000000000E-01 -3.6393903738580E-01  1.3123084716084E+00  1.0952569378021E+00
    62  6.1000000000000E-01 -4.2591695416958E-01  1.3161095149266E+00  1.0351084279151E+00
    63  6.2000000000000E-01 -4.8493947415158E-01  1.3187244690226E+00  9.6911747290933E-01
    64  6.3000000000000E-01 -5.4085522198843E-01  1.3201498486803E+00  8.9778176653607E-01
    65  6.4000000000000E-01 -5.9353043671327E-01  1.3203850375612E+00  8.2162431234796E-01
    66  6.5000000000000E-01 -6.4284918181676E-01  1.3194322811959E+00  7.4118866846395E-01
    67  6.6000000000000E-01 -6.8871345651170E-01  1.3172966685785E+00  6.5703418418762E-01
    68  6.7000000000000E-01 -7.3104320976083E-01  1.3139861026994E+00  5.6973127317761E-01
    69  6.8000000000000E-01 -7.6977625919776E-01  1.3095112603955E+00  4.7985676573642E-01
    70  6.9000000000000E-01 -8.0486811759583E-01  1.3038855419355E+00  3.8798938025481E-01
    71  7.0000000000000E-01 -8.3629173003771E-01  1.2971250107950E+00  2.9470535097345E-01
    72  7.1000000000000E-01 -8.6403712540536E-01  1.2892483241066E+00  2.0057424604714E-01
    73  7.2000000000000E-01 -8.8811098624446E-01  1.2802766542971E+00  1.0615500648028E-01
    74  7.3000000000000E-01 -9.0853614145591E-01  1.2702336024460E+00  1.1992232872258E-02
    75  7.4000000000000E-01 -9.2535098662905E-01  1.2591451039227E+00 -8.1387256830286E-02
    76  7.5000000000000E-01 -9.3860883715421E-01  1.2470393268683E+00 -1.7347757925704E-01
    77  7.6000000000000E-01 -9.4837721953479E-01  1.2339465641072E+00 -2.6379663175905E-01
    78  7.7000000000000E-01 -9.5473710656119E-01  1.2198991190744E+00 -3.5188862121713E-01
    79  7.8000000000000E-01 -9.5778210220884E-01  1.2049311863562E+00 -4.3732626776938E-01
    80  7.9000000000000E-01 -9.5761758228005E-01  1.1890787274390E+00 -5.1971267941683E-01
    81  8.0000000000000E-01 -9.5435979692562E-01  1.1723793422612E+00 -5.9868289704191E-01
    82  8.1000000000000E-01 -9.4813494125519E-01  1.1548721371620E+00 -6.7390511273601E-01
    83  8.2000000000000E-01 -9.3907820027773E-01  1.1365975898106E+00 -7.4508156749790E-01
    84  8.3000000000000E-01 -9.2733277440501E-01  1.1175974116964E+00 -8.1194913725574E-01
    85  8.4000000000000E-01 -9.1304889170261E-01  1.0979144087453E+00 -8.7427961880567E-01
    86  8.5000000000000E-01 -8.9638281298690E-01  1.0775923406200E+00 -9.3187972958008E-01
    87  8.6000000000000E-01 -8.7749583574311E-01  1.0566757792476E+00 -9.8459083718975E-01
    88  8.7000000000000E-01 -8.5655330268174E-01  1.0352099671004E+00 -1.0322884363892E+00
    89  8.8000000000000E-01 -8.3372362055968E-01  1.0132406757449E+00 -1.0748813924957E+00
    90  8.9000000000000E-01 -8.0917729467080E-01  9.9081406515420E-01 -1.1123109713670E+00
    91  9.0000000000000E-01 -7.8308598416050E-01  9.6797654426082E-01 -1.1445496767855E+00
    92  9.1000000000000E-01 -7.5562158304306E-01  9.4477463321168E-01 -1.1715999165648E+00
    93  9.2000000000000E-01 -7.2695533150091E-01  9.2125482776506E-01 -1.1934925188486E+00
    94  9.3000000000000E-01 -6.9725696172512E-01  8.9746346625187E-01 -1.2102851199927E+00
    95  9.4000000000000E-01 -6.6669388221782E-01  8.7344659950271E-01 -1.2220604450654E+00
    96  9.5000000000000E-01 -6.3543040412497E-01  8.4924986412259E-01 -1.2289245014705E+00
    97  9.6000000000000E-01 -6.0362701280100E-01  8.2491835947438E-01 -1.2310047054376E+00
    98  9.7000000000000E-01 -5.7143968743270E-01  8.0049652871126E-01 -1.2284479602444E+00
    99  9.8000000000000E-01 -5.3901927116713E-01  7.7602804417769E-01 -1.2214187040096E+00
   100  9.9000000000000E-01 -5.0651089380234E-01  7.5155569747682E-01 -1.2100969437760E+00
   101  1.0000000000000E+00 -4.7405344871232E-01  7.2712129448109E-01 -1.1946762914381E+00
   102  1.0100000000000E+00 -4.4177912529146E-01  7.0276555554082E-01 -1.1753620158549E+00
   103  1.0200000000000E+00 -4.0981299782110E-01  6.7852802112397E-01 -1.1523691242816E+00
   104  1.0300000000000E+00 -3.7827267128450E-01  6.5444696309804E-01 -1.1259204850714E+00
   105  1.0400000000000E+00 -3.4726798428865E-01  6.3055930184272E-01 -1.0962450024668E+00
   106  1.0500000000000E+00 -3.1690076889365E-01  6.0690052935966E-01 -1.0635758532378E+00
   107  1.0600000000000E+00 -2.8726466680554E-01  5.8350463852287E-01 -1.0281487939561E+00
   108  1.0700000000000E+00 -2.5844500105746E-01  5.6040405859058E-01 -9.9020054681441E-01
   109  1.0800000000000E+00 -2.3051870198929E-01  5.3762959707654E-01 -9.4996727116640E-01
   110  1.0900000000000E+00 -2.0355428603805E-01  5.1521038805553E-01 -9.0768312730138E-01
   111  1.1000000000000E+00 -1.7761188557251E-01  4.9317384695513E-01 -8.6357893846650E-01
   112  1.1100000000000E+00 -1.5274332774573E-01  4.7154563186253E-01 -8.1788095673691E-01
   113  1.1200000000000E+00 -1.2899226010077E-01  4.5034961135250E-01 -7.7080973803453E-01
   114  1.1300000000000E+00 -1.0639432044628E-01  4.2960783881979E-01 -7.2257913138799E-01
   115  1.1400000000000E+00 -8.4977348323607E-02  4.0934053327705E-01 -6.7339538739117E-01
   116  1.1500000000000E+00 -6.4761635211880E-02  3.8956606655723E-01 -6.2345639072519E-01
   117  1.1600000000000E+00 -4.5760210466540E-02  3.7030095683818E-01 -5.7295102155521E-01
   118  1.1700000000000E+00 -2.7979159855988E-02  3.5155986838628E-01 -5.2205865053262E-01
   119  1.1800000000000E+00 -1.1417973453573E-02  3.3335561739625E-01 -4.7094877203536E-01
   120  1.1900000000000E+00  3.9300804449220E-03  3.1569918378514E-01 -4.1978078008834E-01
   121  1.2000000000000E+00  1.8077558773530E-02  2.9859972878094E-01 -3.6870389112554E-01
   122  1.2100000000000E+00  3.1042427959198E-02  2.8206461812975E-01 -3.1785721729503E-01
   123  1.2200000000000E+00  4.2847632462347E-02  2.6609945073027E-01 -2.6736999340405E-01
   124  1.2300000000000E+00  5.3520651069404E-02  2.5070809249125E-01 -2.1736195973875E-01
   125  1.2400000000000E+00  6.3093044401646E-02  2.3589271519585E-01 -1.6794390187828E-01
   126  1.2500000000000E+00  7.1599997077975E-02  2.2165384014703E-01 -1.1921834723955E-01
   127  1.2600000000000E+00  7.9079857928141E-02  2.0799038636084E-01 -7.1280416339776E-02
   128  1.2700000000000E+00  8.5573681596481E-02  1.9489972306879E-01 -2.4218824698764E-02
   129  1.2800000000000E+00  9.1124774808694E-02  1.8237772628744E-01  2.1882971162300E-02
   130  1.2900000000000E+00  9.5778250493820E-02  1.7041883921275E-01  6.6945493008904E-02
   131  1.3000000000000E+00  9.9580592864103E-02  1.5901613619847E-01  1.1089183812095E-01
   132  1.3100000000000E+00  1.0257923645705E-01  1.4816139008193E-01  1.5364617077987E-01
   133  1.3200000000000E+00  1.0482216203814E-01  1.3784514262766E-01  1.9513212840830E-01
   134  1.3300000000000E+00  1.0635751215100E-01  1.2805677786853E-01  2.3527116727489E-01
   135  1.3400000000000E+00  1.0723322898514E-01  1.1878459813586E-01  2.7398087754914E-01
   136  1.3500000000000E+00  1.0749671711196E-01  1.1001590258427E-01  3.1117330274820E-01
   137  1.3600000000000E+00  1.0719453351696E-01  1.0173706803392E-01  3.4675330424146E-01
   138  1.3700000000000E+00  1.0637210723321E-01  9.3933631971213E-02  3.8061701738396E-01
   139  1.3800000000000E+00  1.0507349075729E-01  8.6590377570683E-02  4.1265045204813E-01
   140  1.3900000000000E+00  1.0334114530708E-01  7.9691420622968E-02  4.4272829670520E-01
   141  1.4000000000000E+00  1.0121576185949E-01  7.3220298279062E-02  4.7071299179131E-01
   142  1.4100000000000E+00  9.8736119788449E-02  6.7160059546792E-02  4.9645414476253E-01
   143  1.4200000000000E+00  9.5938984808803E-02  6.1493357503079E-02  5.1978836593127E-01
   144  1.4300000000000E+00  9.2859047820792E-02  5.6202543213854E-02  5.4053961086257E-01
   145  1.4400000000000E+00  8.9528906144110E-02  5.1269761382647E-02  5.5852012164348E-01
   146  1.4500000000000E+00  8.5979088528383E-02  4.6677047778392E-02  5.7353206572960E-01
   147  1.4600000000000E+00  8.2238125231792E-02  4.2406428522712E-02  5.8536997717714E-01
   148  1.4700000000000E+00  7.8332664368336E-02  3.8440021346261E-02  5.9382411081937E-01
   149  1.4800000000000E+00  7.4287635639951E-02  3.4760138952722E-02  5.9868482529927E-01
   150  1.4900000000000E+00  7.0126462490339E-02  3.1349394657102E-02  5.9974811570895E-01
   151  1.5000000000000E+00  6.5871323644245E-02  2.8190810491907E-02  5.9682242085511E-01
   152  1.5100000000000E+00  6.1543464928288E-02  2.5267928000200E-02  5.8973683379557E-01
   153  1.5200000000000E+00  5.7163562207634E-02  2.2564921958460E-02  5.7835084722976E-01
   154  1.5300000000000E+00  5.2752136215667E-02  2.0066717293661E-02  5.6256576745667E-01
   155  1.5400000000000E+00  4.8330020003055E-02  1.7759109478652E-02  5.4233793197809E-01
   156  1.5500000000000E+00  4.3918879685207E-02  1.5628888706719E-02  5.1769386628248E-01
   157  1.5600000000000E+00  3.9541789125721E-02  1.3663968160620E-02  4.8874751494735E-01
   158  1.5700000000000E+00  3.5223859154716E-02  1.1853516702592E-02  4.5571968083622E-01
   159  1.5800000000000E+00  3.0992921887948E-02  1.0188096320364E-02  4.1895980391695E-01
   160  1.5900000000000E+00  2.6880271554394E-02  8.6598049053774E-03  3.7897022588223E-01
   161  1.6000000000000E+00  2.2921448656906E-02  7.2624213117408E-03  3.3643279056596E-01
   162  1.6100000000000E+00  1.9157153448625E-02  5.9915707581241E-03  2.9223961921578E-01
   163  1.6200000000000E+00  1.5633087067049E-02  4.8447474478509E-03  2.4750060848912E-01
   164  1.6300000000000E+00  1.2394340891661E-02  3.8198349770362E-03  2.0343830955766E-01
   165  1.6400000000000E+00  9.4800733879960E-03  2.9145760693263E-03  1.6124170332523E-01
   166  1.6500000000000E+00  6.9219326285406E-03  2.1293287810370E-03  1.2195391794552E-01
   167  1.6600000000000E+00  4.7450193153005E-03  1.4648257034061E-03  8.6580855063044E-02
   168  1.6700000000000E+00  2.9679610258417E-03  9.2214853341097E-04  5.6083416068062E-02
   169  1.6800000000000E+00  1.6033006014741E-03  5.0281591135110E-04  3.1378837822376E-02
   170  1.6900000000000E+00  6.5427099420068E-04  2.0768467418356E-04  1.3262148426358E-02
   171  1.7000000000000E+00  1.3161781687889E-04  4.2433875117614E-05  2.7670497429744E-03
   172  1.7100000000000E+00 -8.3792717095829E-06 -2.7235657602632E-06 -1.8103114469176E-04
   173  1.7200000000000E+00  1.9957922372331E-06  6.4630718212289E-07  4.2605087991223E-05
   174  1.73 -0. -0. -0.
   175  1.74  0. -0.  0.
   176  1.75  0.  0.  0.
   177  1.76  0.  0.  0.
   178  1.77  0.  0.  0.
   179  1.78  0.  0.  0.
   180  1.79  0.  0.  0.
   181  1.80  0.  0.  0.
   182  1.81  0.  0.  0.
   183  1.82  0.  0.  0.
   184  1.83  0.  0.  0.
   185  1.84  0.  0.  0.
   186  1.85  0.  0.  0.
   187  1.86  0.  0.  0.
   188  1.87  0.  0.  0.
   189  1.88  0.  0.  0.
   190  1.89  0.  0.  0.
   191  1.90  0.  0.  0.
   192  1.91  0.  0.  0.
   193  1.92  0.  0.  0.
   194  1.93  0.  0.  0.
   195  1.94  0.  0.  0.
   196  1.95  0.  0.  0.
   197  1.96  0.  0.  0.
   198  1.97  0.  0.  0.
   199  1.98  0.  0.  0.
   200  1.99  0.  0.  0.
   201  2.00  0.  0.  0.
   202  2.01  0.  0.  0.
   203  2.02  0.  0.  0.
   204  2.03  0.  0.  0.
   205  2.04  0.  0.  0.
   206  2.05  0.  0.  0.
   207  2.06  0.  0.  0.
   208  2.07  0.  0.  0.
   209  2.08  0.  0.  0.
   210  2.09  0.  0.  0.
   211  2.10  0.  0.  0.
   212  2.11  0.  0.  0.
   213  2.12  0.  0.  0.
   214  2.13  0.  0.  0.
   215  2.14  0.  0.  0.
   216  2.15  0.  0.  0.
   217  2.16  0.  0.  0.
   218  2.17  0.  0.  0.
   219  2.18  0.  0.  0.
   220  2.19  0.  0.  0.
   221  2.20  0.  0.  0.
   222  2.21  0.  0.  0.
   223  2.22  0.  0.  0.
   224  2.23  0.  0.  0.
   225  2.24  0.  0.  0.
   226  2.25  0.  0.  0.
   227  2.26  0.  0.  0.
   228  2.27  0.  0.  0.
   229  2.28  0.  0.  0.
   230  2.29  0.  0.  0.
   231  2.30  0.  0.  0.
   232  2.31  0.  0.  0.
   233  2.32  0.  0.  0.
   234  2.33  0.  0.  0.
   235  2.34  0.  0.  0.
   236  2.35  0.  0.  0.
   237  2.36  0.  0.  0.
   238  2.37  0.  0.  0.
   239  2.38  0.  0.  0.
   240  2.39  0.  0.  0.
   241  2.40  0.  0.  0.
   242  2.41  0.  0.  0.
   243  2.42  0.  0.  0.
   244  2.43  0.  0.  0.
   245  2.44  0.  0.  0.
   246  2.45  0.  0.  0.
   247  2.46  0.  0.  0.
   248  2.47  0.  0.  0.
   249  2.48  0.  0.  0.
   250  2.49  0.  0.  0.
   251  2.50  0.  0.  0.
   252  2.51  0.  0.  0.
   253  2.52  0.  0.  0.
   254  2.53  0.  0.  0.
   255  2.54  0.  0.  0.
   256  2.55  0.  0.  0.
   257  2.56  0.  0.  0.
   258  2.57  0.  0.  0.
   259  2.58  0.  0.  0.
   260  2.59  0.  0.  0.
   261  2.60  0.  0.  0.
   262  2.61  0.  0.  0.
   263  2.62  0.  0.  0.
   264  2.63  0.  0.  0.
   265  2.64  0.  0.  0.
   266  2.65  0.  0.  0.
   267  2.66  0.  0.  0.
   268  2.67  0.  0.  0.
   269  2.68  0.  0.  0.
   270  2.69  0.  0.  0.
   271  2.70  0.  0.  0.
   272  2.71  0.  0.  0.
   273  2.72  0.  0.  0.
   274  2.73  0.  0.  0.
   275  2.74  0.  0.  0.
   276  2.75  0.  0.  0.
   277  2.76  0.  0.  0.
   278  2.77  0.  0.  0.
   279  2.78  0.  0.  0.
   280  2.79  0.  0.  0.
   281  2.80  0.  0.  0.
   282  2.81  0.  0.  0.
   283  2.82  0.  0.  0.
   284  2.83  0.  0.  0.
   285  2.84  0.  0.  0.
   286  2.85  0.  0.  0.
   287  2.86  0.  0.  0.
   288  2.87  0.  0.  0.
   289  2.88  0.  0.  0.
   290  2.89  0.  0.  0.
   291  2.90  0.  0.  0.
   292  2.91  0.  0.  0.
   293  2.92  0.  0.  0.
   294  2.93  0.  0.  0.
   295  2.94  0.  0.  0.
   296  2.95  0.  0.  0.
   297  2.96  0.  0.  0.
   298  2.97  0.  0.  0.
   299  2.98  0.  0.  0.
   300  2.99  0.  0.  0.
   301  3.00  0.  0.  0.
   302  3.01  0.  0.  0.
   303  3.02  0.  0.  0.
   304  3.03  0.  0.  0.
   305  3.04  0.  0.  0.
   306  3.05  0.  0.  0.
   307  3.06  0.  0.  0.
   308  3.07  0.  0.  0.
   309  3.08  0.  0.  0.
   310  3.09  0.  0.  0.
   311  3.10  0.  0.  0.
   312  3.11  0.  0.  0.
   313  3.12  0.  0.  0.
   314  3.13  0.  0.  0.
   315  3.14  0.  0.  0.
   316  3.15  0.  0.  0.
   317  3.16  0.  0.  0.
   318  3.17  0.  0.  0.
   319  3.18  0.  0.  0.
   320  3.19  0.  0.  0.
   321  3.20  0.  0.  0.
   322  3.21  0.  0.  0.
   323  3.22  0.  0.  0.
   324  3.23  0.  0.  0.
   325  3.24  0.  0.  0.
   326  3.25  0.  0.  0.
   327  3.26  0.  0.  0.
   328  3.27  0.  0.  0.
   329  3.28  0.  0.  0.
   330  3.29  0.  0.  0.
   331  3.30  0.  0.  0.
   332  3.31  0.  0.  0.
   333  3.32  0.  0.  0.
   334  3.33  0.  0.  0.
   335  3.34  0.  0.  0.
   336  3.35  0.  0.  0.
   337  3.36  0.  0.  0.
   338  3.37  0.  0.  0.
   339  3.38  0.  0.  0.
   340  3.39  0.  0.  0.
   341  3.40  0.  0.  0.
   342  3.41  0.  0.  0.
   343  3.42  0.  0.  0.
   344  3.43  0.  0.  0.
   345  3.44  0.  0.  0.
   346  3.45  0.  0.  0.
   347  3.46  0.  0.  0.
   348  3.47  0.  0.  0.
   349  3.48  0.  0.  0.
   350  3.49  0.  0.  0.
   351  3.50  0.  0.  0.
   352  3.51  0.  0.  0.
   353  3.52  0.  0.  0.
   354  3.53  0.  0.  0.
   355  3.54  0.  0.  0.
   356  3.55  0.  0.  0.
   357  3.56  0.  0.  0.
   358  3.57  0.  0.  0.
   359  3.58  0.  0.  0.
   360  3.59  0.  0.  0.
   361  3.60  0.  0.  0.
   362  3.61  0.  0.  0.
   363  3.62  0.  0.  0.
   364  3.63  0.  0.  0.
   365  3.64  0.  0.  0.
   366  3.65  0.  0.  0.
   367  3.66  0.  0.  0.
   368  3.67  0.  0.  0.
   369  3.68  0.  0.  0.
   370  3.69  0.  0.  0.
   371  3.70  0.  0.  0.
   372  3.71  0.  0.  0.
   373  3.72  0.  0.  0.
   374  3.73  0.  0.  0.
   375  3.74  0.  0.  0.
   376  3.75  0.  0.  0.
   377  3.76  0.  0.  0.
   378  3.77  0.  0.  0.
   379  3.78  0.  0.  0.
   380  3.79  0.  0.  0.
   381  3.80  0.  0.  0.
   382  3.81  0.  0.  0.
   383  3.82  0.  0.  0.
   384  3.83  0.  0.  0.
   385  3.84  0.  0.  0.
   386  3.85  0.  0.  0.
   387  3.86  0.  0.  0.
   388  3.87  0.  0.  0.
   389  3.88  0.  0.  0.
   390  3.89  0.  0.  0.
   391  3.90  0.  0.  0.
   392  3.91  0.  0.  0.
   393  3.92  0.  0.  0.
   394  3.93  0.  0.  0.
   395  3.94  0.  0.  0.
   396  3.95  0.  0.  0.
   397  3.96  0.  0.  0.
   398  3.97  0.  0.  0.
   399  3.98  0.  0.  0.
   400  3.99  0.  0.  0.
   401  4.00  0.  0.  0.
   402  4.01  0.  0.  0.
   403  4.02  0.  0.  0.
   404  4.03  0.  0.  0.
   405  4.04  0.  0.  0.
   406  4.05  0.  0.  0.
   407  4.06  0.  0.  0.
   408  4.07  0.  0.  0.
   409  4.08  0.  0.  0.
   410  4.09  0.  0.  0.
   411  4.10  0.  0.  0.
   412  4.11  0.  0.  0.
   413  4.12  0.  0.  0.
   414  4.13  0.  0.  0.
   415  4.14  0.  0.  0.
   416  4.15  0.  0.  0.
   417  4.16  0.  0.  0.
   418  4.17  0.  0.  0.
   419  4.18  0.  0.  0.
   420  4.19  0.  0.  0.
   421  4.20  0.  0.  0.
   422  4.21  0.  0.  0.
   423  4.22  0.  0.  0.
   424  4.23  0.  0.  0.
   425  4.24  0.  0.  0.
   426  4.25  0.  0.  0.
   427  4.26  0.  0.  0.
   428  4.27  0.  0.  0.
   429  4.28  0.  0.  0.
   430  4.29  0.  0.  0.
   431  4.30  0.  0.  0.
   432  4.31  0.  0.  0.
   433  4.32  0.  0.  0.
   434  4.33  0.  0.  0.
   435  4.34  0.  0.  0.
   436  4.35  0.  0.  0.
   437  4.36  0.  0.  0.
   438  4.37  0.  0.  0.
   439  4.38  0.  0.  0.
   440  4.39  0.  0.  0.
   441  4.40  0.  0.  0.
   442  4.41  0.  0.  0.
   443  4.42  0.  0.  0.
   444  4.43  0.  0.  0.
   445  4.44  0.  0.  0.
   446  4.45  0.  0.  0.
   447  4.46  0.  0.  0.
   448  4.47  0.  0.  0.
   449  4.48  0.  0.  0.
   450  4.49  0.  0.  0.
   451  4.50  0.  0.  0.
   452  4.51  0.  0.  0.
   453  4.52  0.  0.  0.
   454  4.53  0.  0.  0.
   455  4.54  0.  0.  0.
   456  4.55  0.  0.  0.
   457  4.56  0.  0.  0.
   458  4.57  0.  0.  0.
   459  4.58  0.  0.  0.
   460  4.59  0.  0.  0.
   461  4.60  0.  0.  0.
   462  4.61  0.  0.  0.
   463  4.62  0.  0.  0.
   464  4.63  0.  0.  0.
   465  4.64  0.  0.  0.
   466  4.65  0.  0.  0.
   467  4.66  0.  0.  0.
   468  4.67  0.  0.  0.
   469  4.68  0.  0.  0.
   470  4.69  0.  0.  0.
   471  4.70  0.  0.  0.
   472  4.71  0.  0.  0.
   473  4.72  0.  0.  0.
   474  4.73  0.  0.  0.
   475  4.74  0.  0.  0.
   476  4.75  0.  0.  0.
   477  4.76  0.  0.  0.
   478  4.77  0.  0.  0.
   479  4.78  0.  0.  0.
   480  4.79  0.  0.  0.
   481  4.80  0.  0.  0.
   482  4.81  0.  0.  0.
   483  4.82  0.  0.  0.
   484  4.83  0.  0.  0.
   485  4.84  0.  0.  0.
   486  4.85  0.  0.  0.
   487  4.86  0.  0.  0.
   488  4.87  0.  0.  0.
   489  4.88  0.  0.  0.
   490  4.89  0.  0.  0.
   491  4.90  0.  0.  0.
   492  4.91  0.  0.  0.
   493  4.92  0.  0.  0.
   494  4.93  0.  0.  0.
   495  4.94  0.  0.  0.
   496  4.95  0.  0.  0.
   497  4.96  0.  0.  0.
   498  4.97  0.  0.  0.
   499  4.98  0.  0.  0.
   500  4.99  0.  0.  0.
   501  5.00  0.  0.  0.
   502  5.01  0.  0.  0.
   503  5.02  0.  0.  0.
   504  5.03  0.  0.  0.
   505  5.04  0.  0.  0.
   506  5.05  0.  0.  0.
   507  5.06  0.  0.  0.
   508  5.07  0.  0.  0.
   509  5.08  0.  0.  0.
   510  5.09  0.  0.  0.
   511  5.10  0.  0.  0.
   512  5.11  0.  0.  0.
   513  5.12  0.  0.  0.
   514  5.13  0.  0.  0.
   515  5.14  0.  0.  0.
   516  5.15  0.  0.  0.
   517  5.16  0.  0.  0.
   518  5.17  0.  0.  0.
   519  5.18  0.  0.  0.
   520  5.19  0.  0.  0.
   521  5.20  0.  0.  0.
   522  5.21  0.  0.  0.
   523  5.22  0.  0.  0.
   524  5.23  0.  0.  0.
   525  5.24  0.  0.  0.
   526  5.25  0.  0.  0.
   527  5.26  0.  0.  0.
   528  5.27  0.  0.  0.
   529  5.28  0.  0.  0.
   530  5.29  0.  0.  0.
   531  5.30  0.  0.  0.
   532  5.31  0.  0.  0.
   533  5.32  0.  0.  0.
   534  5.33  0.  0.  0.
   535  5.34  0.  0.  0.
   536  5.35  0.  0.  0.
   537  5.36  0.  0.  0.
   538  5.37  0.  0.  0.
   539  5.38  0.  0.  0.
   540  5.39  0.  0.  0.
   541  5.40  0.  0.  0.
   542  5.41  0.  0.  0.
   543  5.42  0.  0.  0.
   544  5.43  0.  0.  0.
   545  5.44  0.  0.  0.
   546  5.45  0.  0.  0.
   547  5.46  0.  0.  0.
   548  5.47  0.  0.  0.
   549  5.48  0.  0.  0.
   550  5.49  0.  0.  0.
   551  5.50  0.  0.  0.
   552  5.51  0.  0.  0.
   553  5.52  0.  0.  0.
   554  5.53  0.  0.  0.
   555  5.54  0.  0.  0.
   556  5.55  0.  0.  0.
   557  5.56  0.  0.  0.
   558  5.57  0.  0.  0.
   559  5.58  0.  0.  0.
   560  5.59  0.  0.  0.
   561  5.60  0.  0.  0.
   562  5.61  0.  0.  0.
   563  5.62  0.  0.  0.
   564  5.63  0.  0.  0.
   565  5.64  0.  0.  0.
   566  5.65  0.  0.  0.
   567  5.66  0.  0.  0.
   568  5.67  0.  0.  0.
   569  5.68  0.  0.  0.
   570  5.69  0.  0.  0.
   571  5.70  0.  0.  0.
   572  5.71  0.  0.  0.
   573  5.72  0.  0.  0.
   574  5.73  0.  0.  0.
   575  5.74  0.  0.  0.
   576  5.75  0.  0.  0.
   577  5.76  0.  0.  0.
   578  5.77  0.  0.  0.
   579  5.78  0.  0.  0.
   580  5.79  0.  0.  0.
   581  5.80  0.  0.  0.
   582  5.81  0.  0.  0.
   583  5.82  0.  0.  0.
   584  5.83  0.  0.  0.
   585  5.84  0.  0.  0.
   586  5.85  0.  0.  0.
   587  5.86  0.  0.  0.
   588  5.87  0.  0.  0.
   589  5.88  0.  0.  0.
   590  5.89  0.  0.  0.
   591  5.90  0.  0.  0.
   592  5.91  0.  0.  0.
   593  5.92  0.  0.  0.
   594  5.93  0.  0.  0.
   595  5.94  0.  0.  0.
   596  5.95  0.  0.  0.
   597  5.96  0.  0.  0.
   598  5.97  0.  0.  0.
   599  5.98  0.  0.  0.
   600  5.99  0.  0.  0.
   1                         6.1126357142514E+00 -1.6355174966070E+00
     1  0.0000000000000E+00  4.6468331960092E-10 -3.6584039096732E-10
     2  1.0000000000000E-02  2.5312259701170E-03  8.3839276791780E-05
     3  2.0000000000000E-02  1.0110292599420E-02  3.3717332149237E-04
     4  3.0000000000000E-02  2.2693441820280E-02  7.6543261659202E-04
     5  4.0000000000000E-02  4.0207995910599E-02  1.3776076385268E-03
     6  5.0000000000000E-02  6.2552735393946E-02  2.1861590881891E-03
     7  6.0000000000000E-02  8.9598426710683E-02  3.2068936467283E-03
     8  7.0000000000000E-02  1.2118849823048E-01  4.4588066639442E-03
     9  8.0000000000000E-02  1.5713986271191E-01  5.9638935524156E-03
    10  9.0000000000000E-02  1.9724388381041E-01  7.7469319999347E-03
    11  1.0000000000000E-01  2.4126748368598E-01  9.8352374210909E-03
    12  1.1000000000000E-01  2.8895438816190E-01  1.2258394341433E-02
    13  1.2000000000000E-01  3.4002650523346E-01  1.5047966640950E-02
    14  1.3000000000000E-01  3.9418543201975E-01  1.8237189774475E-02
    15  1.4000000000000E-01  4.5111408449405E-01  2.1860648232784E-02
    16  1.5000000000000E-01  5.1047844352265E-01  2.5953941607996E-02
    17  1.6000000000000E-01  5.7192940989341E-01  3.0553342679652E-02
    18  1.7000000000000E-01  6.3510476013212E-01  3.5695450943607E-02
    19  1.8000000000000E-01  6.9963119399648E-01  4.1416844965298E-02
    20  1.9000000000000E-01  7.6512646361545E-01  4.7753736853827E-02
    21  2.0000000000000E-01  8.3120157331995E-01  5.4741632025770E-02
    22  2.1000000000000E-01  8.9746303830323E-01  6.2414997260745E-02
    23  2.2000000000000E-01  9.6351518937202E-01  7.0806939848246E-02
    24  2.3000000000000E-01  1.0289625102197E+00  7.9948900391149E-02
    25  2.4000000000000E-01  1.0934119928870E+00  8.9870361570329E-02
    26  2.5000000000000E-01  1.1564754963913E+00  1.0059857489204E-01
    27  2.6000000000000E-01  1.2177720929219E+00  1.1215830714037E-01
    28  2.7000000000000E-01  1.2769303855269E+00  1.2457160794687E-01
    29  2.8000000000000E-01  1.3335907808816E+00  1.3785759957351E-01
    30  2.9000000000000E-01  1.3874077005331E+00  1.5203228968981E-01
    31  3.0000000000000E-01  1.4380517139826E+00  1.6710840761481E-01
    32  3.1000000000000E-01  1.4852115771000E+00  1.8309526419544E-01
    33  3.2000000000000E-01  1.5285961596763E+00  1.9999863520936E-01
    34  3.3000000000000E-01  1.5679362464131E+00  2.1782066791726E-01
    35  3.4000000000000E-01  1.6029861963286E+00  2.3655981015027E-01
    36  3.5000000000000E-01  1.6335254464229E+00  2.5621076110692E-01
    37  3.6000000000000E-01  1.6593598464960E+00  2.7676444285331E-01
    38  3.7000000000000E-01  1.6803228132342E+00  2.9820799137154E-01
    39  3.8000000000000E-01  1.6962762930762E+00  3.2052476588783E-01
    40  3.9000000000000E-01  1.7071115249148E+00  3.4369437513208E-01
    41  4.0000000000000E-01  1.7127495953816E+00  3.6769271913671E-01
    42  4.1000000000000E-01  1.7131417812715E+00  3.9249204517259E-01
    43  4.2000000000000E-01  1.7082696755787E+00  4.1806101644256E-01
    44  4.3000000000000E-01  1.6981450956067E+00  4.4436479220737E-01