Uu    ONCVPSP-4.0.1  r_core=   1.70790   1.60873   1.85710
119.0000     27.0000      230611    zatom,zion,pspd
8      11   2     4   600     0    pspcod,pspxc,lmax,lloc,mmax,r2well
5.99000000  5.00000000  0.00000000    rchrg fchrg qchrg
3     2     2     0     0    nproj
1     1           extension_switch
0                         7.6385808126709E+00 -3.9310824864742E+00 -2.7910413414952E-01
1  0.0000000000000E+00 -2.4345181426355E-10  4.2578524039882E-11  3.2985945086494E-09
2  1.0000000000000E-02  1.0234257001451E-01  2.3878552522793E-02 -1.0068830167727E-01
3  2.0000000000000E-02  2.0428431670115E-01  4.7776038729601E-02 -2.0047764027184E-01
4  3.0000000000000E-02  3.0542629973328E-01  7.1711179707668E-02 -2.9847715775831E-01
5  4.0000000000000E-02  4.0537333456255E-01  9.5702272805297E-02 -3.9381212706810E-01
6  5.0000000000000E-02  5.0373584480969E-01  1.1976698338802E-01 -4.8563182052236E-01
7  6.0000000000000E-02  6.0013168422996E-01  1.4392214091515E-01 -5.7311714417675E-01
8  7.0000000000000E-02  6.9418791839862E-01  1.6818354072658E-01 -6.5548796396291E-01
9  8.0000000000000E-02  7.8554255650479E-01  1.9256575288693E-01 -7.3201005280993E-01
10  9.0000000000000E-02  8.7384622394396E-01  2.1708193938192E-01 -8.0200159197337E-01
11  1.0000000000000E-01  9.5876376675622E-01  2.4174368089960E-01 -8.6483916455722E-01
12  1.1000000000000E-01  1.0399757793686E+00  2.6656081435819E-01 -9.1996318461058E-01
13  1.2000000000000E-01  1.1171800475615E+00  2.9154128226312E-01 -9.6688271117394E-01
14  1.3000000000000E-01  1.1900928990888E+00  3.1669099488868E-01 -1.0051796031523E+00
15  1.4000000000000E-01  1.2584504549362E+00  3.4201370618622E-01 -1.0345119778435E+00
16  1.5000000000000E-01  1.3220097747968E+00  3.6751090422053E-01 -1.0546169432587E+00
17  1.6000000000000E-01  1.3805498909760E+00  3.9318171683102E-01 -1.0653125819625E+00
18  1.7000000000000E-01  1.4338727256041E+00  4.1902283310491E-01 -1.0664991719427E+00
19  1.8000000000000E-01  1.4818038867265E+00  4.4502844113622E-01 -1.0581596379064E+00
20  1.9000000000000E-01  1.5241933395644E+00  4.7119018242928E-01 -1.0403592342941E+00
21  2.0000000000000E-01  1.5609159499724E+00  4.9749712318813E-01 -1.0132444691408E+00
22  2.1000000000000E-01  1.5918718978756E+00  5.2393574261554E-01 -9.7704128556994E-01
23  2.2000000000000E-01  1.6169869592305E+00  5.5048993822809E-01 -9.3205252513200E-01
24  2.3000000000000E-01  1.6362126558224E+00  5.7714104807762E-01 -8.7865470429227E-01
25  2.4000000000000E-01  1.6495262729798E+00  6.0386788965556E-01 -8.1729414206273E-01
26  2.5000000000000E-01  1.6569307460517E+00  6.3064681514562E-01 -7.4848248299232E-01
27  2.6000000000000E-01  1.6584544172444E+00  6.5745178258377E-01 -6.7279166540206E-01
28  2.7000000000000E-01  1.6541506651584E+00  6.8425444238168E-01 -5.9084838983638E-01
29  2.8000000000000E-01  1.6440974100831E+00  7.1102423857354E-01 -5.0332814712785E-01
30  2.9000000000000E-01  1.6283964988066E+00  7.3772852405503E-01 -4.1094886921737E-01
31  3.0000000000000E-01  1.6071729733658E+00  7.6433268899947E-01 -3.1446426888265E-01
32  3.1000000000000E-01  1.5805742288013E+00  7.9080030155939E-01 -2.1465693680352E-01
33  3.2000000000000E-01  1.5487690655806E+00  8.1709325989277E-01 -1.1233126587858E-01
34  3.3000000000000E-01  1.5119466429185E+00  8.4317195449220E-01 -8.3062734536396E-03
35  3.4000000000000E-01  1.4703153397402E+00  8.6899543974312E-01  9.6591607929782E-02
36  3.5000000000000E-01  1.4241015305069E+00  8.9452161359297E-01  2.0153570145197E-01
37  3.6000000000000E-01  1.3735482835496E+00  9.1970740417870E-01  3.0570615032262E-01
38  3.7000000000000E-01  1.3189139899291E+00  9.4450896223358E-01  4.0829680944313E-01
39  3.8000000000000E-01  1.2604709311615E+00  9.6888185807727E-01  5.0852190131213E-01
40  3.9000000000000E-01  1.1985037944162E+00  9.9278128198471E-01  6.0562237660635E-01
41  4.0000000000000E-01  1.1333081440012E+00  1.0161622467295E+00  6.9887192398620E-01
42  4.1000000000000E-01  1.0651888581069E+00  1.0389797911065E+00  7.8758257833117E-01
43  4.2000000000000E-01  9.9445853987427E-01  1.0611891832541E+00  8.7110988169819E-01
44  4.3000000000000E-01  9.2143591189358E-01  1.0827461226230E+00  9.4885755680213E-01
45  4.4000000000000E-01  8.4644420322129E-01  1.1036069394678E+00  1.0202816586242E+00
46  4.5000000000000E-01  7.6980953792966E-01  1.1237287907789E+00  1.0848941758223E+00
47  4.6000000000000E-01  6.9185933407405E-01  1.1430698516154E+00  1.1422660598582E+00
48  4.7000000000000E-01  6.1292072178025E-01  1.1615895008509E+00  1.1920296660947E+00
49  4.8000000000000E-01  5.3331898891941E-01  1.1792485004021E+00  1.2338805974753E+00
50  4.9000000000000E-01  4.5337606255408E-01  1.1960091670673E+00  1.2675789477274E+00
51  5.0000000000000E-01  3.7340903400685E-01  1.2118355361710E+00  1.2929499472111E+00
52  5.1000000000000E-01  2.9372873502735E-01  1.2266935162745E+00  1.3098840205602E+00
53  5.2000000000000E-01  2.1463837211546E-01  1.2405510342866E+00  1.3183362709992E+00
54  5.3000000000000E-01  1.3643222560334E-01  1.2533781703800E+00  1.3183254116800E+00
55  5.4000000000000E-01  5.9394419608321E-02  1.2651472821928E+00  1.3099321694417E+00
56  5.5000000000000E-01 -1.6202231552393E-02  1.2758331178710E+00  1.2932971910582E+00
57  5.6000000000000E-01 -9.0097295442044E-02  1.2854129175823E+00  1.2686184862340E+00
58  5.7000000000000E-01 -1.6204370760799E-01  1.2938665032065E+00  1.2361484453010E+00
59  5.8000000000000E-01 -2.3180866782654E-01  1.3011763559824E+00  1.1961904727465E+00
60  5.9000000000000E-01 -2.9917444321142E-01  1.3073276819639E+00  1.1490952803178E+00
61  6.0000000000000E-01 -3.6393907552299E-01  1.3123084652082E+00  1.0952568855121E+00
62  6.1000000000000E-01 -4.2591699063656E-01  1.3161095086871E+00  1.0351083627417E+00
63  6.2000000000000E-01 -4.8493950875025E-01  1.3187244629804E+00  9.6911739539241E-01
64  6.3000000000000E-01 -5.4085525453421E-01  1.3201498428702E+00  8.9778167732515E-01
65  6.4000000000000E-01 -5.9353046703605E-01  1.3203850320159E+00  8.2162421219601E-01
66  6.5000000000000E-01 -6.4284920976175E-01  1.3194322759460E+00  7.4118855821891E-01
67  6.6000000000000E-01 -6.8871348194009E-01  1.3172966636520E+00  6.5703406478305E-01
68  6.7000000000000E-01 -7.3104323255035E-01  1.3139860981221E+00  5.6973114562386E-01
69  6.8000000000000E-01 -7.6977627924312E-01  1.3095112561904E+00  4.7985663111035E-01
70  6.9000000000000E-01 -8.0486813480897E-01  1.3038855381229E+00  3.8798923968978E-01
71  7.0000000000000E-01 -8.3629174434795E-01  1.2971250073926E+00  2.9470520564850E-01
72  7.1000000000000E-01 -8.6403713675943E-01  1.2892483211294E+00  2.0057409717720E-01
73  7.2000000000000E-01 -8.8811099460638E-01  1.2802766517571E+00  1.0615485530373E-01
74  7.3000000000000E-01 -9.0853614680674E-01  1.2702336003527E+00  1.1992080642995E-02
75  7.4000000000000E-01 -9.2535098896660E-01  1.2591451022826E+00 -8.1387408855209E-02
76  7.5000000000000E-01 -9.3860883649253E-01  1.2470393256856E+00 -1.7347772982686E-01
77  7.6000000000000E-01 -9.4837721590366E-01  1.2339465633829E+00 -2.6379677963898E-01
78  7.7000000000000E-01 -9.5473710000550E-01  1.2198991188073E+00 -3.5188876519815E-01
79  7.8000000000000E-01 -9.5778209278783E-01  1.2049311865427E+00 -4.3732640667661E-01
80  7.9000000000000E-01 -9.5761757006660E-01  1.1890787280729E+00 -5.1971281211935E-01
81  8.0000000000000E-01 -9.5435978200533E-01  1.1723793433341E+00 -5.9868302245858E-01
82  8.1000000000000E-01 -9.4813492372553E-01  1.1548721386634E+00 -6.7390522984526E-01
83  8.2000000000000E-01 -9.3907818024713E-01  1.1365975917281E+00 -7.4508167534302E-01
84  8.3000000000000E-01 -9.2733275199182E-01  1.1175974140156E+00 -8.1194923495173E-01
85  8.4000000000000E-01 -9.1304886703418E-01  1.0979144114501E+00 -8.7427970554491E-01
86  8.5000000000000E-01 -8.9638278619855E-01  1.0775923436929E+00 -9.3187980463716E-01
87  8.6000000000000E-01 -8.7749580697713E-01  1.0566757826695E+00 -9.8459089992611E-01
88  8.7000000000000E-01 -8.5655327208639E-01  1.0352099708509E+00 -1.0322884862569E+00
89  8.8000000000000E-01 -8.3372358828819E-01  1.0132406798027E+00 -1.0748814290404E+00
90  8.9000000000000E-01 -8.0917726088041E-01  9.9081406949687E-01 -1.1123109942313E+00
91  9.0000000000000E-01 -7.8308594901146E-01  9.6797654886524E-01 -1.1445496857096E+00
92  9.1000000000000E-01 -7.5562154669777E-01  9.4477463805402E-01 -1.1715999113884E+00
93  9.2000000000000E-01 -7.2695529412302E-01  9.2125483282099E-01 -1.1934924995125E+00
94  9.3000000000000E-01 -6.9725692347860E-01  8.9746347149667E-01 -1.2102850865375E+00
95  9.4000000000000E-01 -6.6669384326625E-01  8.7344660491144E-01 -1.2220603976316E+00
96  9.5000000000000E-01 -6.3543036463069E-01  8.4924986967019E-01 -1.2289244402972E+00
97  9.6000000000000E-01 -6.0362697292445E-01  8.2491836513580E-01 -1.2310046308610E+00
98  9.7000000000000E-01 -5.7143964733171E-01  8.0049653446159E-01 -1.2284478726955E+00
99  9.8000000000000E-01 -5.3901923099629E-01  7.7602804999224E-01 -1.2214186040103E+00
100  9.9000000000000E-01 -5.0651085371241E-01  7.5155570333126E-01 -1.2100968319359E+00
101  1.0000000000000E+00 -4.7405340884975E-01  7.2712130035152E-01 -1.1946761684506E+00
102  1.0100000000000E+00 -4.4177908579784E-01  7.0276556140386E-01 -1.1753618824920E+00
103  1.0200000000000E+00 -4.0981295883277E-01  6.7852802695687E-01 -1.1523689813877E+00
104  1.0300000000000E+00 -3.7827263293214E-01  6.5444696887872E-01 -1.1259203335576E+00
105  1.0400000000000E+00 -3.4726794669694E-01  6.3055930754989E-01 -1.0962448433041E+00
106  1.0500000000000E+00 -3.1690073218095E-01  6.0690053497283E-01 -1.0635756874497E+00
107  1.0600000000000E+00 -2.8726463108363E-01  5.8350464402244E-01 -1.0281486226092E+00
108  1.0700000000000E+00 -2.5844496643135E-01  5.6040406395790E-01 -9.9020037101215E-01
109  1.0800000000000E+00 -2.3051866855700E-01  5.3762960229393E-01 -9.4996709203772E-01
110  1.0900000000000E+00 -2.0355425389045E-01  5.1521039310634E-01 -9.0768294599178E-01
111  1.1000000000000E+00 -1.7761185479323E-01  4.9317385182378E-01 -8.6357875612839E-01
112  1.1100000000000E+00 -1.5274329841106E-01  4.7154563653453E-01 -8.1788077451872E-01
113  1.1200000000000E+00 -1.2899223227960E-01  4.5034961581449E-01 -7.7080955706965E-01
114  1.1300000000000E+00 -1.0639429420010E-01  4.2960784305955E-01 -7.2257895278484E-01
115  1.1400000000000E+00 -8.4977323706441E-02  4.0934053728353E-01 -6.7339521222026E-01
116  1.1500000000000E+00 -6.4761612270405E-02  3.8956607032055E-01 -6.2345622001088E-01
117  1.1600000000000E+00 -4.5760189240055E-02  3.7030096034966E-01 -5.7295085626222E-01
118  1.1700000000000E+00 -2.7979140376515E-02  3.5155987163843E-01 -5.2205849155661E-01
119  1.1800000000000E+00 -1.1417955745942E-02  3.3335562038277E-01 -4.7094862019201E-01
120  1.1900000000000E+00  3.9300963629432E-03  3.1569918650092E-01 -4.1978063610497E-01
121  1.2000000000000E+00  1.8077572891153E-02  2.9859973122206E-01 -3.6870375562975E-01
122  1.2100000000000E+00  3.1042440272430E-02  2.8206462029348E-01 -3.1785709080802E-01
123  1.2200000000000E+00  4.2847642973844E-02  2.6609945261503E-01 -2.6736987633338E-01
124  1.2300000000000E+00  5.3520659788316E-02  2.5070809409662E-01 -2.1736185237073E-01
125  1.2400000000000E+00  6.3093051343407E-02  2.3589271652253E-01 -1.6794380437505E-01
126  1.2500000000000E+00  7.1600002264135E-02  2.2165384119682E-01 -1.1921825963415E-01
127  1.2600000000000E+00  7.9079861386149E-02  2.0799038713663E-01 -7.1280338534484E-02
128  1.2700000000000E+00  8.5573683359505E-02  1.9489972357453E-01 -2.4218756465195E-02
129  1.2800000000000E+00  9.1124774915406E-02  1.8237772652808E-01  2.1883030182399E-02
130  1.2900000000000E+00  9.5778248988180E-02  1.7041883919426E-01  6.6945543299561E-02
131  1.3000000000000E+00  9.9580589795183E-02  1.5901613592776E-01  1.1089188028769E-01
132  1.3100000000000E+00  1.0257923187879E-01  1.4816138956685E-01  1.5364620554088E-01
133  1.3200000000000E+00  1.0482215600923E-01  1.3784514187694E-01  1.9513215658712E-01
134  1.3300000000000E+00  1.0635750473462E-01  1.2805677689177E-01  2.3527118978741E-01
135  1.3400000000000E+00  1.0723322024884E-01  1.1878459694347E-01  2.7398089539165E-01
136  1.3500000000000E+00  1.0749670712747E-01  1.1001590118746E-01  3.1117331698183E-01
137  1.3600000000000E+00  1.0719452236011E-01  1.0173706644464E-01  3.4675331597518E-01
138  1.3700000000000E+00  1.0637209498371E-01  9.3933630202152E-02  3.8061702775630E-01
139  1.3800000000000E+00  1.0507347749868E-01  8.6590375635212E-02  4.1265046220768E-01
140  1.3900000000000E+00  1.0334113112660E-01  7.9691418535121E-02  4.4272830778842E-01
141  1.4000000000000E+00  1.0121574684798E-01  7.3220296053498E-02  4.7071300490120E-01
142  1.4100000000000E+00  9.8736104040290E-02  6.7160057198777E-02  4.9645416094631E-01
143  1.4200000000000E+00  9.5938968421766E-02  6.1493355048438E-02  5.1978838615579E-01
144  1.4300000000000E+00  9.2859030896021E-02  5.6202540668959E-02  5.4053963599356E-01
145  1.4400000000000E+00  8.9528888785918E-02  5.1269758764362E-02  5.5852015242124E-01
146  1.4500000000000E+00  8.5979070844198E-02  4.6677045104055E-02  5.7353210274963E-01
147  1.4600000000000E+00  8.2238107331888E-02  4.2406425810073E-02  5.8537002086875E-01
148  1.4700000000000E+00  7.8332646365620E-02  3.8440018613435E-02  5.9382416142870E-01
149  1.4800000000000E+00  7.4287617649685E-02  3.4760136218134E-02  5.9868488287586E-01
150  1.4900000000000E+00  7.0126444629628E-02  3.1349391939399E-02  5.9974818009256E-01
151  1.5000000000000E+00  6.5871306031534E-02  2.8190807809864E-02  5.9682249166948E-01
152  1.5100000000000E+00  6.1543447682672E-02  2.5267925372610E-02  5.8973691044649E-01
153  1.5200000000000E+00  5.7163545447917E-02  2.2564919403981E-02  5.7835092890761E-01
154  1.5300000000000E+00  5.2752120059308E-02  2.0066714830654E-02  5.6256585314786E-01
155  1.5400000000000E+00  4.8330004564747E-02  1.7759107124959E-02  5.4233802048071E-01
156  1.5500000000000E+00  4.3918865075224E-02  1.5628886479414E-02  5.1769395623275E-01
157  1.5600000000000E+00  3.9541775447883E-02  1.3663966075701E-02  4.8874760485369E-01
158  1.5700000000000E+00  3.5223846503966E-02  1.1853514774620E-02  4.5571976912416E-01
159  1.5800000000000E+00  3.0992910347452E-02  1.0188094562032E-02  4.1895988898419E-01
160  1.5900000000000E+00  2.6880261192197E-02  8.6598033270110E-03  3.7897030616743E-01
161  1.6000000000000E+00  2.2921439521934E-02  7.2624199207133E-03  3.3643286462837E-01
162  1.6100000000000E+00  1.9157145566123E-02  5.9915695581755E-03  2.9223968583128E-01
163  1.6200000000000E+00  1.5633080433736E-02  4.8447464383772E-03  2.4750066674832E-01
164  1.6300000000000E+00  1.2394335473244E-02  3.8198341527282E-03  2.0343835892047E-01
165  1.6400000000000E+00  9.4800691211026E-03  2.9145754204492E-03  1.6124174364224E-01
166  1.6500000000000E+00  6.9219294234019E-03  2.1293282938548E-03  1.2195394939056E-01
167  1.6600000000000E+00  4.7450170581505E-03  1.4648253605282E-03  8.6580878163881E-02
168  1.6700000000000E+00  2.9679595791303E-03  9.2214831385620E-04  5.6083431677113E-02
169  1.6800000000000E+00  1.6032998063040E-03  5.0281579089801E-04  3.1378847143073E-02
170  1.6900000000000E+00  6.5427067281315E-04  2.0768462575902E-04  1.3262152961872E-02
171  1.7000000000000E+00  1.3161776977648E-04  4.2433868402430E-05  2.7670514898752E-03
172  1.7100000000000E+00 -8.3792480514458E-06 -2.7235618242647E-06 -1.8103043594985E-04
173  1.7200000000000E+00  1.9957894864510E-06  6.4630673451447E-07  4.2605033871987E-05
174  1.73 -0. -0. -0.
175  1.74  0. -0.  0.
176  1.75  0.  0.  0.
177  1.76  0.  0.  0.
178  1.77  0.  0.  0.
179  1.78  0.  0.  0.
180  1.79  0.  0.  0.
181  1.80  0.  0.  0.
182  1.81  0.  0.  0.
183  1.82  0.  0.  0.
184  1.83  0.  0.  0.
185  1.84  0.  0.  0.
186  1.85  0.  0.  0.
187  1.86  0.  0.  0.
188  1.87  0.  0.  0.
189  1.88  0.  0.  0.
190  1.89  0.  0.  0.
191  1.90  0.  0.  0.
192  1.91  0.  0.  0.
193  1.92  0.  0.  0.
194  1.93  0.  0.  0.
195  1.94  0.  0.  0.
196  1.95  0.  0.  0.
197  1.96  0.  0.  0.
198  1.97  0.  0.  0.
199  1.98  0.  0.  0.
200  1.99  0.  0.  0.
201  2.00  0.  0.  0.
202  2.01  0.  0.  0.
203  2.02  0.  0.  0.
204  2.03  0.  0.  0.
205  2.04  0.  0.  0.
206  2.05  0.  0.  0.
207  2.06  0.  0.  0.
208  2.07  0.  0.  0.
209  2.08  0.  0.  0.
210  2.09  0.  0.  0.
211  2.10  0.  0.  0.
212  2.11  0.  0.  0.
213  2.12  0.  0.  0.
214  2.13  0.  0.  0.
215  2.14  0.  0.  0.
216  2.15  0.  0.  0.
217  2.16  0.  0.  0.
218  2.17  0.  0.  0.
219  2.18  0.  0.  0.
220  2.19  0.  0.  0.
221  2.20  0.  0.  0.
222  2.21  0.  0.  0.
223  2.22  0.  0.  0.
224  2.23  0.  0.  0.
225  2.24  0.  0.  0.
226  2.25  0.  0.  0.
227  2.26  0.  0.  0.
228  2.27  0.  0.  0.
229  2.28  0.  0.  0.
230  2.29  0.  0.  0.
231  2.30  0.  0.  0.
232  2.31  0.  0.  0.
233  2.32  0.  0.  0.
234  2.33  0.  0.  0.
235  2.34  0.  0.  0.
236  2.35  0.  0.  0.
237  2.36  0.  0.  0.
238  2.37  0.  0.  0.
239  2.38  0.  0.  0.
240  2.39  0.  0.  0.
241  2.40  0.  0.  0.
242  2.41  0.  0.  0.
243  2.42  0.  0.  0.
244  2.43  0.  0.  0.
245  2.44  0.  0.  0.
246  2.45  0.  0.  0.
247  2.46  0.  0.  0.
248  2.47  0.  0.  0.
249  2.48  0.  0.  0.
250  2.49  0.  0.  0.
251  2.50  0.  0.  0.
252  2.51  0.  0.  0.
253  2.52  0.  0.  0.
254  2.53  0.  0.  0.
255  2.54  0.  0.  0.
256  2.55  0.  0.  0.
257  2.56  0.  0.  0.
258  2.57  0.  0.  0.
259  2.58  0.  0.  0.
260  2.59  0.  0.  0.
261  2.60  0.  0.  0.
262  2.61  0.  0.  0.
263  2.62  0.  0.  0.
264  2.63  0.  0.  0.
265  2.64  0.  0.  0.
266  2.65  0.  0.  0.
267  2.66  0.  0.  0.
268  2.67  0.  0.  0.
269  2.68  0.  0.  0.
270  2.69  0.  0.  0.
271  2.70  0.  0.  0.
272  2.71  0.  0.  0.
273  2.72  0.  0.  0.
274  2.73  0.  0.  0.
275  2.74  0.  0.  0.
276  2.75  0.  0.  0.
277  2.76  0.  0.  0.
278  2.77  0.  0.  0.
279  2.78  0.  0.  0.
280  2.79  0.  0.  0.
281  2.80  0.  0.  0.
282  2.81  0.  0.  0.
283  2.82  0.  0.  0.
284  2.83  0.  0.  0.
285  2.84  0.  0.  0.
286  2.85  0.  0.  0.
287  2.86  0.  0.  0.
288  2.87  0.  0.  0.
289  2.88  0.  0.  0.
290  2.89  0.  0.  0.
291  2.90  0.  0.  0.
292  2.91  0.  0.  0.
293  2.92  0.  0.  0.
294  2.93  0.  0.  0.
295  2.94  0.  0.  0.
296  2.95  0.  0.  0.
297  2.96  0.  0.  0.
298  2.97  0.  0.  0.
299  2.98  0.  0.  0.
300  2.99  0.  0.  0.
301  3.00  0.  0.  0.
302  3.01  0.  0.  0.
303  3.02  0.  0.  0.
304  3.03  0.  0.  0.
305  3.04  0.  0.  0.
306  3.05  0.  0.  0.
307  3.06  0.  0.  0.
308  3.07  0.  0.  0.
309  3.08  0.  0.  0.
310  3.09  0.  0.  0.
311  3.10  0.  0.  0.
312  3.11  0.  0.  0.
313  3.12  0.  0.  0.
314  3.13  0.  0.  0.
315  3.14  0.  0.  0.
316  3.15  0.  0.  0.
317  3.16  0.  0.  0.
318  3.17  0.  0.  0.
319  3.18  0.  0.  0.
320  3.19  0.  0.  0.
321  3.20  0.  0.  0.
322  3.21  0.  0.  0.
323  3.22  0.  0.  0.
324  3.23  0.  0.  0.
325  3.24  0.  0.  0.
326  3.25  0.  0.  0.
327  3.26  0.  0.  0.
328  3.27  0.  0.  0.
329  3.28  0.  0.  0.
330  3.29  0.  0.  0.
331  3.30  0.  0.  0.
332  3.31  0.  0.  0.
333  3.32  0.  0.  0.
334  3.33  0.  0.  0.
335  3.34  0.  0.  0.
336  3.35  0.  0.  0.
337  3.36  0.  0.  0.
338  3.37  0.  0.  0.
339  3.38  0.  0.  0.
340  3.39  0.  0.  0.
341  3.40  0.  0.  0.
342  3.41  0.  0.  0.
343  3.42  0.  0.  0.
344  3.43  0.  0.  0.
345  3.44  0.  0.  0.
346  3.45  0.  0.  0.
347  3.46  0.  0.  0.
348  3.47  0.  0.  0.
349  3.48  0.  0.  0.
350  3.49  0.  0.  0.
351  3.50  0.  0.  0.
352  3.51  0.  0.  0.
353  3.52  0.  0.  0.
354  3.53  0.  0.  0.
355  3.54  0.  0.  0.
356  3.55  0.  0.  0.
357  3.56  0.  0.  0.
358  3.57  0.  0.  0.
359  3.58  0.  0.  0.
360  3.59  0.  0.  0.
361  3.60  0.  0.  0.
362  3.61  0.  0.  0.
363  3.62  0.  0.  0.
364  3.63  0.  0.  0.
365  3.64  0.  0.  0.
366  3.65  0.  0.  0.
367  3.66  0.  0.  0.
368  3.67  0.  0.  0.
369  3.68  0.  0.  0.
370  3.69  0.  0.  0.
371  3.70  0.  0.  0.
372  3.71  0.  0.  0.
373  3.72  0.  0.  0.
374  3.73  0.  0.  0.
375  3.74  0.  0.  0.
376  3.75  0.  0.  0.
377  3.76  0.  0.  0.
378  3.77  0.  0.  0.
379  3.78  0.  0.  0.
380  3.79  0.  0.  0.
381  3.80  0.  0.  0.
382  3.81  0.  0.  0.
383  3.82  0.  0.  0.
384  3.83  0.  0.  0.
385  3.84  0.  0.  0.
386  3.85  0.  0.  0.
387  3.86  0.  0.  0.
388  3.87  0.  0.  0.
389  3.88  0.  0.  0.
390  3.89  0.  0.  0.
391  3.90  0.  0.  0.
392  3.91  0.  0.  0.
393  3.92  0.  0.  0.
394  3.93  0.  0.  0.
395  3.94  0.  0.  0.
396  3.95  0.  0.  0.
397  3.96  0.  0.  0.
398  3.97  0.  0.  0.
399  3.98  0.  0.  0.
400  3.99  0.  0.  0.
401  4.00  0.  0.  0.
402  4.01  0.  0.  0.
403  4.02  0.  0.  0.
404  4.03  0.  0.  0.
405  4.04  0.  0.  0.
406  4.05  0.  0.  0.
407  4.06  0.  0.  0.
408  4.07  0.  0.  0.
409  4.08  0.  0.  0.
410  4.09  0.  0.  0.
411  4.10  0.  0.  0.
412  4.11  0.  0.  0.
413  4.12  0.  0.  0.
414  4.13  0.  0.  0.
415  4.14  0.  0.  0.
416  4.15  0.  0.  0.
417  4.16  0.  0.  0.
418  4.17  0.  0.  0.
419  4.18  0.  0.  0.
420  4.19  0.  0.  0.
421  4.20  0.  0.  0.
422  4.21  0.  0.  0.
423  4.22  0.  0.  0.
424  4.23  0.  0.  0.
425  4.24  0.  0.  0.
426  4.25  0.  0.  0.
427  4.26  0.  0.  0.
428  4.27  0.  0.  0.
429  4.28  0.  0.  0.
430  4.29  0.  0.  0.
431  4.30  0.  0.  0.
432  4.31  0.  0.  0.
433  4.32  0.  0.  0.
434  4.33  0.  0.  0.
435  4.34  0.  0.  0.
436  4.35  0.  0.  0.
437  4.36  0.  0.  0.
438  4.37  0.  0.  0.
439  4.38  0.  0.  0.
440  4.39  0.  0.  0.
441  4.40  0.  0.  0.
442  4.41  0.  0.  0.
443  4.42  0.  0.  0.
444  4.43  0.  0.  0.
445  4.44  0.  0.  0.
446  4.45  0.  0.  0.
447  4.46  0.  0.  0.
448  4.47  0.  0.  0.
449  4.48  0.  0.  0.
450  4.49  0.  0.  0.
451  4.50  0.  0.  0.
452  4.51  0.  0.  0.
453  4.52  0.  0.  0.
454  4.53  0.  0.  0.
455  4.54  0.  0.  0.
456  4.55  0.  0.  0.
457  4.56  0.  0.  0.
458  4.57  0.  0.  0.
459  4.58  0.  0.  0.
460  4.59  0.  0.  0.
461  4.60  0.  0.  0.
462  4.61  0.  0.  0.
463  4.62  0.  0.  0.
464  4.63  0.  0.  0.
465  4.64  0.  0.  0.
466  4.65  0.  0.  0.
467  4.66  0.  0.  0.
468  4.67  0.  0.  0.
469  4.68  0.  0.  0.
470  4.69  0.  0.  0.
471  4.70  0.  0.  0.
472  4.71  0.  0.  0.
473  4.72  0.  0.  0.
474  4.73  0.  0.  0.
475  4.74  0.  0.  0.
476  4.75  0.  0.  0.
477  4.76  0.  0.  0.
478  4.77  0.  0.  0.
479  4.78  0.  0.  0.
480  4.79  0.  0.  0.
481  4.80  0.  0.  0.
482  4.81  0.  0.  0.
483  4.82  0.  0.  0.
484  4.83  0.  0.  0.
485  4.84  0.  0.  0.
486  4.85  0.  0.  0.
487  4.86  0.  0.  0.
488  4.87  0.  0.  0.
489  4.88  0.  0.  0.
490  4.89  0.  0.  0.
491  4.90  0.  0.  0.
492  4.91  0.  0.  0.
493  4.92  0.  0.  0.
494  4.93  0.  0.  0.
495  4.94  0.  0.  0.
496  4.95  0.  0.  0.
497  4.96  0.  0.  0.
498  4.97  0.  0.  0.
499  4.98  0.  0.  0.
500  4.99  0.  0.  0.
501  5.00  0.  0.  0.
502  5.01  0.  0.  0.
503  5.02  0.  0.  0.
504  5.03  0.  0.  0.
505  5.04  0.  0.  0.
506  5.05  0.  0.  0.
507  5.06  0.  0.  0.
508  5.07  0.  0.  0.
509  5.08  0.  0.  0.
510  5.09  0.  0.  0.
511  5.10  0.  0.  0.
512  5.11  0.  0.  0.
513  5.12  0.  0.  0.
514  5.13  0.  0.  0.
515  5.14  0.  0.  0.
516  5.15  0.  0.  0.
517  5.16  0.  0.  0.
518  5.17  0.  0.  0.
519  5.18  0.  0.  0.
520  5.19  0.  0.  0.
521  5.20  0.  0.  0.
522  5.21  0.  0.  0.
523  5.22  0.  0.  0.
524  5.23  0.  0.  0.
525  5.24  0.  0.  0.
526  5.25  0.  0.  0.
527  5.26  0.  0.  0.
528  5.27  0.  0.  0.
529  5.28  0.  0.  0.
530  5.29  0.  0.  0.
531  5.30  0.  0.  0.
532  5.31  0.  0.  0.
533  5.32  0.  0.  0.
534  5.33  0.  0.  0.
535  5.34  0.  0.  0.
536  5.35  0.  0.  0.
537  5.36  0.  0.  0.
538  5.37  0.  0.  0.
539  5.38  0.  0.  0.
540  5.39  0.  0.  0.
541  5.40  0.  0.  0.
542  5.41  0.  0.  0.
543  5.42  0.  0.  0.
544  5.43  0.  0.  0.
545  5.44  0.  0.  0.
546  5.45  0.  0.  0.
547  5.46  0.  0.  0.
548  5.47  0.  0.  0.
549  5.48  0.  0.  0.
550  5.49  0.  0.  0.
551  5.50  0.  0.  0.
552  5.51  0.  0.  0.
553  5.52  0.  0.  0.
554  5.53  0.  0.  0.
555  5.54  0.  0.  0.
556  5.55  0.  0.  0.
557  5.56  0.  0.  0.
558  5.57  0.  0.  0.
559  5.58  0.  0.  0.
560  5.59  0.  0.  0.
561  5.60  0.  0.  0.
562  5.61  0.  0.  0.
563  5.62  0.  0.  0.
564  5.63  0.  0.  0.
565  5.64  0.  0.  0.
566  5.65  0.  0.  0.
567  5.66  0.  0.  0.
568  5.67  0.  0.  0.
569  5.68  0.  0.  0.
570  5.69  0.  0.  0.
571  5.70  0.  0.  0.
572  5.71  0.  0.  0.
573  5.72  0.  0.  0.
574  5.73  0.  0.  0.
575  5.74  0.  0.  0.
576  5.75  0.  0.  0.
577  5.76  0.  0.  0.
578  5.77  0.  0.  0.
579  5.78  0.  0.  0.
580  5.79  0.  0.  0.
581  5.80  0.  0.  0.
582  5.81  0.  0.  0.
583  5.82  0.  0.  0.
584  5.83  0.  0.  0.
585  5.84  0.  0.  0.
586  5.85  0.  0.  0.
587  5.86  0.  0.  0.
588  5.87  0.  0.  0.
589  5.88  0.  0.  0.
590  5.89  0.  0.  0.
591  5.90  0.  0.  0.
592  5.91  0.  0.  0.
593  5.92  0.  0.  0.
594  5.93  0.  0.  0.
595  5.94  0.  0.  0.
596  5.95  0.  0.  0.
597  5.96  0.  0.  0.
598  5.97  0.  0.  0.
599  5.98  0.  0.  0.
600  5.99  0.  0.  0.
1                         6.1126357822848E+00 -1.6355174965737E+00
1  0.0000000000000E+00  4.6467021896923E-10 -3.6586961585372E-10
2  1.0000000000000E-02  2.5312259719691E-03  8.3839278910186E-05
3  2.0000000000000E-02  1.0110292606812E-02  3.3717332995285E-04
4  3.0000000000000E-02  2.2693441836843E-02  7.6543263557876E-04
5  4.0000000000000E-02  4.0207995939874E-02  1.3776076721577E-03
6  5.0000000000000E-02  6.2552735439346E-02  2.1861591404887E-03
7  6.0000000000000E-02  8.9598426775461E-02  3.2068937216054E-03
8  7.0000000000000E-02  1.2118849831769E-01  4.4588067651647E-03
9  8.0000000000000E-02  1.5713986282439E-01  5.9638936835786E-03
10  9.0000000000000E-02  1.9724388395073E-01  7.7469321644480E-03
11  1.0000000000000E-01  2.4126748385642E-01  9.8352376221522E-03
12  1.1000000000000E-01  2.8895438836442E-01  1.2258394582004E-02
13  1.2000000000000E-01  3.4002650546969E-01  1.5047966923741E-02
14  1.3000000000000E-01  3.9418543229096E-01  1.8237190101925E-02
15  1.4000000000000E-01  4.5111408480110E-01  2.1860648607042E-02
16  1.5000000000000E-01  5.1047844386602E-01  2.5953942030905E-02
17  1.6000000000000E-01  5.7192941027315E-01  3.0553343152741E-02
18  1.7000000000000E-01  6.3510476054786E-01  3.5695451468074E-02
19  1.8000000000000E-01  6.9963119444741E-01  4.1416845541998E-02
20  1.9000000000000E-01  7.6512646410030E-01  4.7753737483272E-02
21  2.0000000000000E-01  8.3120157383702E-01  5.4741632708118E-02
22  2.1000000000000E-01  8.9746303885035E-01  6.2414997995796E-02
23  2.2000000000000E-01  9.6351518994660E-01  7.0806940635444E-02
24  2.3000000000000E-01  1.0289625108187E+00  7.9948901229579E-02
25  2.4000000000000E-01  1.0934119935069E+00  8.9870362458724E-02
26  2.5000000000000E-01  1.1564754970284E+00  1.0059857582878E-01
27  2.6000000000000E-01  1.2177720935718E+00  1.1215830812351E-01
28  2.7000000000000E-01  1.2769303861850E+00  1.2457160897411E-01
29  2.8000000000000E-01  1.3335907815430E+00  1.3785760064226E-01
30  2.9000000000000E-01  1.3874077011924E+00  1.5203229079716E-01
31  3.0000000000000E-01  1.4380517146343E+00  1.6710840875757E-01
32  3.1000000000000E-01  1.4852115777383E+00  1.8309526537014E-01
33  3.2000000000000E-01  1.5285961602951E+00  1.9999863641230E-01
34  3.3000000000000E-01  1.5679362470062E+00  2.1782066914453E-01
35  3.4000000000000E-01  1.6029861968897E+00  2.3655981139773E-01
36  3.5000000000000E-01  1.6335254469456E+00  2.5621076237028E-01
37  3.6000000000000E-01  1.6593598469737E+00  2.7676444412811E-01
38  3.7000000000000E-01  1.6803228136605E+00  2.9820799265322E-01
39  3.8000000000000E-01  1.6962762934447E+00  3.2052476717175E-01
40  3.9000000000000E-01  1.7071115252192E+00  3.4369437641352E-01
41  4.0000000000000E-01  1.7127495956157E+00  3.6769272041095E-01
42  4.1000000000000E-01  1.7131417814294E+00  3.9249204643488E-01
43  4.2000000000000E-01  1.7082696756545E+00  4.1806101768820E-01
44  4.3000000000000E-01  1.6981450955951E+00  4.4436479343173E-01
45  4.4000000000000E-01  1.6828097735644E+00  4.7136511929905E-01
46  4.5000000000000E-01  1.6623348327647E+00  4.9902042666435E-01
47  4.6000000000000E-01  1.6368200530226E+00  5.2728594005591E-01
48  4.7000000000000E-01  1.6063929331078E+00  5.5611379175410E-01
49  4.8000000000000E-01  1.5712075583729E+00  5.8545314287200E-01
50  4.9000000000000E-01  1.5314432843706E+00  6.1525031038426E-01
51  5.0000000000000E-01  1.4873032489255E+00  6.4544889974132E-01
52  5.1000000000000E-01  1.4390127268203E+00  6.7598994287643E-01
53  5.2000000000000E-01  1.3868173427842E+00  7.0681204157747E-01
54  5.3000000000000E-01  1.3309811598208E+00  7.3785151634988E-01
55  5.4000000000000E-01  1.2717846610630E+00  7.6904256103689E-01
56  5.5000000000000E-01  1.2095226442785E+00  8.0031740358437E-01
57  5.6000000000000E-01  1.1445020488570E+00  8.3160647343688E-01
58  5.7000000000000E-01  1.0770397355765E+00  8.6283857612568E-01
59  5.8000000000000E-01  1.0074602396698E+00  8.9394107565587E-01
60  5.9000000000000E-01  9.3609351768446E-01  9.2484008531702E-01
61  6.0000000000000E-01  8.6327270835464E-01  9.5546066752808E-01
62  6.1000000000000E-01  7.8933192718286E-01  9.8572704328218E-01
63  6.2000000000000E-01  7.1460411367697E-01  1.0155628116813E+00
64  6.3000000000000E-01  6.3941894920674E-01  1.0448911799440E+00
65  6.4000000000000E-01  5.6410086225874E-01  1.0736352041340E+00
66  6.5000000000000E-01  4.8896713648958E-01  1.1017180406965E+00
67  6.6000000000000E-01  4.1432613543223E-01  1.1290632087004E+00
68  6.7000000000000E-01  3.4047565601817E-01  1.1555948624809E+00
69  6.8000000000000E-01  2.6770142126891E-01  1.1812380741517E+00
70  6.9000000000000E-01  1.9627572060898E-01  1.2059191252179E+00
71  7.0000000000000E-01  1.2645620428998E-01  1.2295658062798E+00
72  7.1000000000000E-01  5.8484836420614E-02  1.2521077235665E+00
73  7.2000000000000E-01 -7.4129908990663E-03  1.2734766107938E+00
74  7.3000000000000E-01 -7.1029181809340E-02  1.2936066446018E+00
75  7.4000000000000E-01 -1.3217350066943E-01  1.3124347615979E+00
76  7.5000000000000E-01 -1.9067397899003E-01  1.3299009748248E+00