Uu    ONCVPSP-4.0.1  r_core=   1.70790   1.60873   1.85710
119.0000     27.0000      230612    zatom,zion,pspd
8      11   2     4   600     0    pspcod,pspxc,lmax,lloc,mmax,r2well
5.99000000  5.00000000  0.00000000    rchrg fchrg qchrg
3     3     2     0    nproj
3     1           extension_switch
3     4     0    nprojso
0                         7.5633713821435E+00 -3.8134073481205E+00 -3.8573087315626E-01
1  0.0000000000000E+00 -1.4866097242106E-10  5.9971999588626E-11  3.8889949038889E-09
2  1.0000000000000E-02  1.0029188172925E-01  2.2307248636224E-02 -1.0334964546771E-01
3  2.0000000000000E-02  2.0020466380671E-01  4.4640247992662E-02 -2.0577829373162E-01
4  3.0000000000000E-02  2.9936093173430E-01  6.7024492737191E-02 -3.0637341618731E-01
5  4.0000000000000E-02  3.9738663313445E-01  8.9484967277130E-02 -4.0423933478900E-01
6  5.0000000000000E-02  4.9391273837998E-01  1.1204589522389E-01 -4.9850543173335E-01
7  6.0000000000000E-02  5.8857687681221E-01  1.3473049432865E-01 -5.8833410322870E-01
8  7.0000000000000E-02  6.8102494058363E-01  1.5756073864157E-01 -6.7292837667284E-01
9  8.0000000000000E-02  7.7091264831049E-01  1.8055712958742E-01 -7.5153911445151E-01
10  9.0000000000000E-02  8.5790706090572E-01  2.0373847757612E-01 -8.2347173233420E-01
11  1.0000000000000E-01  9.4168804218422E-01  2.2712169568053E-01 -8.8809236602669E-01
12  1.1000000000000E-01  1.0219496570901E+00  2.5072160681399E-01 -9.4483342575745E-01
13  1.2000000000000E-01  1.0984015006883E+00  2.7455076573037E-01 -9.9319848576474E-01
14  1.3000000000000E-01  1.1707699513891E+00  2.9861929704860E-01 -1.0327664630984E+00
15  1.4000000000000E-01  1.2387993422376E+00  3.2293475037450E-01 -1.0631950481869E+00
16  1.5000000000000E-01  1.3022530444907E+00  3.4750197345559E-01 -1.0842233580136E+00
17  1.6000000000000E-01  1.3609144581325E+00  3.7232300416144E-01 -1.0956737914215E+00
18  1.7000000000000E-01  1.4145879044315E+00  3.9739698193381E-01 -1.0974530748815E+00
19  1.8000000000000E-01  1.4630994161309E+00  4.2272007919917E-01 -1.0895524959413E+00
20  1.9000000000000E-01  1.5062974213700E+00  4.4828545308245E-01 -1.0720473303706E+00
21  2.0000000000000E-01  1.5440533179757E+00  4.7408321760640E-01 -1.0450954776669E+00
22  2.1000000000000E-01  1.5762619353159E+00  5.0010043640767E-01 -1.0089353279483E+00
23  2.2000000000000E-01  1.6028418814922E+00  5.2632113584875E-01 -9.6388289125041E-01
24  2.3000000000000E-01  1.6237357742411E+00  5.5272633825768E-01 -9.1032822777412E-01
25  2.4000000000000E-01  1.6389103545249E+00  5.7929411488374E-01 -8.4873122460422E-01
26  2.5000000000000E-01  1.6483564824198E+00  6.0599965802056E-01 -7.7961677075693E-01
27  2.6000000000000E-01  1.6520890155355E+00  6.3281537161805E-01 -7.0356938806628E-01
28  2.7000000000000E-01  1.6501465708392E+00  6.5971097958232E-01 -6.2122738030336E-01
29  2.8000000000000E-01  1.6425911713934E+00  6.8665365085040E-01 -5.3327656700952E-01
30  2.9000000000000E-01  1.6295077801504E+00  7.1360814022286E-01 -4.4044367177047E-01
31  3.0000000000000E-01  1.6110037235742E+00  7.4053694384545E-01 -3.4348943703838E-01
32  3.1000000000000E-01  1.5872080084767E+00  7.6740046814892E-01 -2.4320153911685E-01
33  3.2000000000000E-01  1.5582705360561E+00  7.9415721098621E-01 -1.4038737755262E-01
34  3.3000000000000E-01  1.5243612177084E+00  8.2076395364785E-01 -3.5866812935967E-02
35  3.4000000000000E-01  1.4856689977390E+00  8.4717596239015E-01  6.9535073966128E-02
36  3.5000000000000E-01  1.4424007886368E+00  8.7334719807578E-01  1.7499513071657E-01
37  3.6000000000000E-01  1.3947803250667E+00  8.9923053250440E-01  2.7969912099487E-01
38  3.7000000000000E-01  1.3430469432069E+00  9.2477796999943E-01  3.8284848667941E-01
39  3.8000000000000E-01  1.2874542924759E+00  9.4994087281780E-01  4.8366682329472E-01
40  3.9000000000000E-01  1.2282689870817E+00  9.7467018896069E-01  5.8140601251392E-01
41  4.0000000000000E-01  1.1657692051587E+00  9.9891668098502E-01  6.7535196056421E-01
42  4.1000000000000E-01  1.1002432435455E+00  1.0226311544471E+00  7.6482989698133E-01
43  4.2000000000000E-01  1.0319880364950E+00  1.0457646846502E+00  8.4920919409264E-01
44  4.3000000000000E-01  9.6130764678916E-01  1.0682688404175E+00  9.2790767385762E-01
45  4.4000000000000E-01  8.8851173785867E-01  1.0900959036686E+00  1.0003953750895E+00
46  4.5000000000000E-01  8.1391403557822E-01  1.1111990836390E+00  1.0661977606042E+00
47  4.6000000000000E-01  7.3783078842261E-01  1.1315327246574E+00  1.1248983503931E+00
48  4.7000000000000E-01  6.6057923462276E-01  1.1510525064611E+00  1.1761407733690E+00
49  4.8000000000000E-01  5.8247608485915E-01  1.1697156361185E+00  1.2196302365854E+00
50  4.9000000000000E-01  5.0383602887088E-01  1.1874810307010E+00  1.2551344169438E+00
51  5.0000000000000E-01  4.2497027414197E-01  1.2043094899370E+00  1.2824837862293E+00
52  5.1000000000000E-01  3.4618512455724E-01  1.2201638581634E+00  1.3015713858191E+00
53  5.2000000000000E-01  2.6778060659686E-01  1.2350091749788E+00  1.3123520724813E+00
54  5.3000000000000E-01  1.9004915026641E-01  1.2488128140870E+00  1.3148412613303E+00
55  5.4000000000000E-01  1.1327433153956E-01  1.2615446099084E+00  1.3091131961453E+00
56  5.5000000000000E-01  3.7729682627709E-02  1.2731769716193E+00  1.2952987808918E+00
57  5.6000000000000E-01 -3.6322424112033E-02  1.2836849843623E+00  1.2735830093637E+00
58  5.7000000000000E-01 -1.0863181335756E-01  1.2930464974522E+00  1.2442020323875E+00
59  5.8000000000000E-01 -1.7896146038766E-01  1.3012421994773E+00  1.2074399039850E+00
60  5.9000000000000E-01 -2.4708835692575E-01  1.3082556802710E+00  1.1636250492829E+00
61  6.0000000000000E-01 -3.1280428577188E-01  1.3140734797984E+00  1.1131264977874E+00
62  6.1000000000000E-01 -3.7591650136735E-01  1.3186851240658E+00  1.0563499259452E+00
63  6.2000000000000E-01 -4.3624831408209E-01  1.3220831482289E+00  9.9373355268240E-01
64  6.3000000000000E-01 -4.9363957666666E-01  1.3242631071236E+00  9.2574393090764E-01
65  6.4000000000000E-01 -5.4794707196254E-01  1.3252235735043E+00  8.5287167681868E-01
66  6.5000000000000E-01 -5.9904480161366E-01  1.3249661243180E+00  7.7562717726140E-01
67  6.6000000000000E-01 -6.4682417616024E-01  1.3234953153864E+00  6.9453631346710E-01
68  6.7000000000000E-01 -6.9119410752030E-01  1.3208186449077E+00  6.1013623723657E-01
69  6.8000000000000E-01 -7.3208100547045E-01  1.3169465062261E+00  5.2297123309592E-01
70  6.9000000000000E-01 -7.6942868031885E-01  1.3118921303437E+00  4.3358869720802E-01
71  7.0000000000000E-01 -8.0319815451783E-01  1.3056715186788E+00  3.4253526089678E-01
72  7.1000000000000E-01 -8.3336738648633E-01  1.2983033665959E+00  2.5035308359464E-01
73  7.2000000000000E-01 -8.5993091040034E-01  1.2898089782512E+00  1.5757633690524E-01
74  7.3000000000000E-01 -8.8289939615845E-01  1.2802121733135E+00  6.4727898347501E-02
75  7.4000000000000E-01 -9.0229913413966E-01  1.2695391861320E+00 -2.7683729795428E-02
76  7.5000000000000E-01 -9.1817144973536E-01  1.2578185579310E+00 -1.1916726413835E-01
77  7.6000000000000E-01 -9.3057205295909E-01  1.2450810226200E+00 -2.0925123694583E-01
78  7.7000000000000E-01 -9.3957032871253E-01  1.2313593868098E+00 -2.9748633938454E-01
79  7.8000000000000E-01 -9.4524857351386E-01  1.2166884046266E+00 -3.8344750733969E-01
80  7.9000000000000E-01 -9.4770118467550E-01  1.2011046479188E+00 -4.6673574834318E-01
81  8.0000000000000E-01 -9.4703380805075E-01  1.1846463724446E+00 -5.4697971042425E-01
82  8.1000000000000E-01 -9.4336245055541E-01  1.1673533806280E+00 -6.2383699575300E-01
83  8.2000000000000E-01 -9.3681256371027E-01  1.1492668814643E+00 -6.9699522376188E-01
84  8.3000000000000E-01 -9.2751810444529E-01  1.1304293481487E+00 -7.6617285002299E-01
85  8.4000000000000E-01 -9.1562057935858E-01  1.1108843739934E+00 -8.3111974851692E-01
86  8.5000000000000E-01 -9.0126807853332E-01  1.0906765271910E+00 -8.9161756605374E-01
87  8.6000000000000E-01 -8.8461430488816E-01  1.0698512049686E+00 -9.4747985852797E-01
88  8.7000000000000E-01 -8.6581760487084E-01  1.0484544876678E+00 -9.9855201938956E-01
89  8.8000000000000E-01 -8.4504000610673E-01  1.0265329932715E+00 -1.0447110112347E+00
90  8.9000000000000E-01 -8.2244626738417E-01  1.0041337328851E+00 -1.0858649117740E+00
91  9.0000000000000E-01 -7.9820294610126E-01  9.8130396766530E-01 -1.1219522856367E+00
92  9.1000000000000E-01 -7.7247748801665E-01  9.5809106767253E-01 -1.1529413935399E+00
93  9.2000000000000E-01 -7.4543734384446E-01  9.3454237310773E-01 -1.1788292503506E+00
94  9.3000000000000E-01 -7.1724911691095E-01  9.1070505837450E-01 -1.1996405434414E+00
95  9.4000000000000E-01 -6.8807774575577E-01  8.8662599938966E-01 -1.2154264226123E+00
96  9.5000000000000E-01 -6.5808572521233E-01  8.6235164454431E-01 -1.2262631726648E+00
97  9.6000000000000E-01 -6.2743236914615E-01  8.3792788969647E-01 -1.2322507795247E+00
98  9.7000000000000E-01 -5.9627311766840E-01  8.1339995755354E-01 -1.2335114006466E+00
99  9.8000000000000E-01 -5.6475889127873E-01  7.8881228177947E-01 -1.2301877502994E+00
100  9.9000000000000E-01 -5.3303549402706E-01  7.6420839613681E-01 -1.2224414102285E+00
101  1.0000000000000E+00 -5.0124306742392E-01  7.3963082894777E-01 -1.2104510761833E+00
102  1.0100000000000E+00 -4.6951559647339E-01  7.1512100313228E-01 -1.1944107508295E+00
103  1.0200000000000E+00 -4.3798046885416E-01  6.9071914205289E-01 -1.1745278936921E+00
104  1.0300000000000E+00 -4.0675808793518E-01  6.6646418136832E-01 -1.1510215389673E+00
105  1.0400000000000E+00 -3.7596153998480E-01  6.4239368706824E-01 -1.1241203923340E+00
106  1.0500000000000E+00 -3.4569631561588E-01  6.1854377983230E-01 -1.0940609182221E+00
107  1.0600000000000E+00 -3.1606008520684E-01  5.9494906582639E-01 -1.0610854294202E+00
108  1.0700000000000E+00 -2.8714252775163E-01  5.7164257401914E-01 -1.0254401913611E+00
109  1.0800000000000E+00 -2.5902521231782E-01  5.4865570007106E-01 -9.8737355391186E-01
110  1.0900000000000E+00 -2.3178153103525E-01  5.2601815681919E-01 -9.4713412400217E-01
111  1.1000000000000E+00 -2.0547668229715E-01  5.0375793135037E-01 -9.0496899292939E-01
112  1.1100000000000E+00 -1.8016770262923E-01  4.8190124862736E-01 -8.6112203262547E-01
113  1.1200000000000E+00 -1.5590354547470E-01  4.6047254160420E-01 -8.1583227559057E-01
114  1.1300000000000E+00 -1.3272520494823E-01  4.3949442774040E-01 -7.6933239350247E-01
115  1.1400000000000E+00 -1.1066588243503E-01  4.1898769179836E-01 -7.2184728970470E-01
116  1.1500000000000E+00 -8.9751193746868E-02  3.9897127478448E-01 -6.7359282082981E-01
117  1.1600000000000E+00 -6.9999414398791E-02  3.7946226887336E-01 -6.2477466267829E-01
118  1.1700000000000E+00 -5.1421760433482E-02  3.6047591813428E-01 -5.7558733513069E-01
119  1.1800000000000E+00 -3.4022702098382E-02  3.4202562486283E-01 -5.2621340030140E-01
120  1.1900000000000E+00 -1.7800307568665E-02  3.2412296130577E-01 -4.7682284729384E-01
121  1.2000000000000E+00 -2.7466138097918E-03  3.0677768655588E-01 -4.2757267579758E-01
122  1.2100000000000E+00  1.1151978416872E-02  2.8999776838491E-01 -3.7860668932328E-01
123  1.2200000000000E+00  2.3914288482614E-02  2.7378940977786E-01 -3.3005550710143E-01
124  1.2300000000000E+00  3.5563921902931E-02  2.5815707992944E-01 -2.8203680157104E-01
125  1.2400000000000E+00  4.6128821645845E-02  2.4310354946541E-01 -2.3465576590006E-01
126  1.2500000000000E+00  5.5640808008027E-02  2.2862992965641E-01 -1.8800581315591E-01
127  1.2600000000000E+00  6.4135110380847E-02  2.1473571540036E-01 -1.4216950555004E-01
128  1.2700000000000E+00  7.1649894274583E-02  2.0141883176186E-01 -9.7219708599393E-02
129  1.2800000000000E+00  7.8225787009189E-02  1.8867568387241E-01 -5.3220961144821E-02
130  1.2900000000000E+00  8.3905405516137E-02  1.7650121001445E-01 -1.0231047892434E-02
131  1.3000000000000E+00  8.8732889728166E-02  1.6488893773483E-01  3.1697243467095E-02
132  1.3100000000000E+00  9.2753445061343E-02  1.5383104285866E-01  7.2514203398516E-02
133  1.3200000000000E+00  9.6012897518817E-02  1.4331841130331E-01  1.1217114795147E-01
134  1.3300000000000E+00  9.8557264966482E-02  1.3334070362395E-01  1.5061826595831E-01
135  1.3400000000000E+00  1.0043234814914E-01  1.2388642225600E-01  1.8780240514217E-01
136  1.3500000000000E+00  1.0168334503010E-01  1.1494298145631E-01  2.2366484209298E-01
137  1.3600000000000E+00  1.0235449204859E-01  1.0649677998325E-01  2.5813908706210E-01
138  1.3700000000000E+00  1.0248873589823E-01  9.8533276596357E-02  2.9114878058679E-01
139  1.3800000000000E+00  1.0212743943349E-01  9.1037068497397E-02  3.2260574504419E-01
140  1.3900000000000E+00  1.0131012531324E-01  8.3991972877432E-02  3.5240826033417E-01
141  1.4000000000000E+00  1.0007426098735E-01  7.7381111777573E-02  3.8043963891421E-01
142  1.4100000000000E+00  9.8455088625896E-02  7.1187000514672E-02  4.0656718132607E-01
143  1.4200000000000E+00  9.6485503579536E-02  6.5391639966350E-02  4.3064159907612E-01
144  1.4300000000000E+00  9.4195984944676E-02  5.9976613052759E-02  4.5249699726077E-01
145  1.4400000000000E+00  9.1614581786416E-02  5.4923185793987E-02  4.7195151452397E-01
146  1.4500000000000E+00  8.8766958547975E-02  5.0212413362991E-02  4.8880872286141E-01
147  1.4600000000000E+00  8.5676503144358E-02  4.5825251592465E-02  5.0285989426693E-01
148  1.4700000000000E+00  8.2364501202757E-02  4.1742674431057E-02  5.1388724529390E-01
149  1.4800000000000E+00  7.8850379870752E-02  3.7945797878664E-02  5.2166827419455E-01
150  1.4900000000000E+00  7.5152024565909E-02  3.4416010962259E-02  5.2598130835657E-01
151  1.5000000000000E+00  7.1286171987863E-02  3.1135114342332E-02  5.2661238226497E-01
152  1.5100000000000E+00  6.7268882653826E-02  2.8085467165307E-02  5.2336356810456E-01
153  1.5200000000000E+00  6.3116096153823E-02  2.5250142799108E-02  5.1606288240755E-01
154  1.5300000000000E+00  5.8844272249570E-02  2.2613094106932E-02  5.0457589275495E-01
155  1.5400000000000E+00  5.4471120863407E-02  2.0159328928260E-02  4.8881914849591E-01
156  1.5500000000000E+00  5.0016423919181E-02  1.7875096445891E-02  4.6877555870755E-01
157  1.5600000000000E+00  4.5502951906581E-02  1.5748085123383E-02  4.4451183918296E-01
158  1.5700000000000E+00  4.0957477944244E-02  1.3767632898367E-02  4.1619814811054E-01
159  1.5800000000000E+00  3.6411892014063E-02  1.1924950313956E-02  3.8413002728250E-01
160  1.5900000000000E+00  3.1904419100548E-02  1.0213357559818E-02  3.4875277847678E-01
161  1.6000000000000E+00  2.7480925450314E-02  8.6285317511033E-03  3.1068813300624E-01
162  1.6100000000000E+00  2.3196429906765E-02  7.1687888193338E-03  2.7076491851232E-01
163  1.6200000000000E+00  1.9115135626788E-02  5.8351385190879E-03  2.3002743122530E-01
164  1.6300000000000E+00  1.5303158259602E-02  4.6294549093530E-03  1.8964136969228E-01
165  1.6400000000000E+00  1.1820599009794E-02  3.5534248773485E-03  1.5075252390884E-01
166  1.6500000000000E+00  8.7174436029675E-03  2.6108272623941E-03  1.1435756613592E-01
167  1.6600000000000E+00  6.0369447960544E-03  1.8057551876142E-03  8.1427717050677E-02
168  1.6700000000000E+00  3.8155629026407E-03  1.1425683796133E-03  5.2901605848106E-02
169  1.6800000000000E+00  2.0833673520755E-03  6.2599234760380E-04  2.9686733534304E-02
170  1.6900000000000E+00  8.5954908919784E-04  2.5971551924868E-04  1.2584355061197E-02
171  1.7000000000000E+00  1.7494388237671E-04  5.3292349838401E-05  2.6339070061226E-03
172  1.7100000000000E+00 -1.1240835593820E-05 -3.4307429227051E-06 -1.7248388068142E-04
173  1.7200000000000E+00  2.6663649567445E-06  8.1315653509240E-07  4.0583225624628E-05
174  1.73  0.  0.  0.
175  1.74  0.  0.  0.
176  1.75  0.  0.  0.
177  1.76  0.  0.  0.
178  1.77  0.  0.  0.
179  1.78  0.  0.  0.
180  1.79  0.  0.  0.
181  1.80  0.  0.  0.
182  1.81  0.  0.  0.
183  1.82  0.  0.  0.
184  1.83  0.  0.  0.
185  1.84  0.  0.  0.
186  1.85  0.  0.  0.
187  1.86  0.  0.  0.
188  1.87  0.  0.  0.
189  1.88  0.  0.  0.
190  1.89  0.  0.  0.
191  1.90  0.  0.  0.
192  1.91  0.  0.  0.
193  1.92  0.  0.  0.
194  1.93  0.  0.  0.
195  1.94  0.  0.  0.
196  1.95  0.  0.  0.
197  1.96  0.  0.  0.
198  1.97  0.  0.  0.
199  1.98  0.  0.  0.
200  1.99  0.  0.  0.
201  2.00  0.  0.  0.
202  2.01  0.  0.  0.
203  2.02  0.  0.  0.
204  2.03  0.  0.  0.
205  2.04  0.  0.  0.
206  2.05  0.  0.  0.
207  2.06  0.  0.  0.
208  2.07  0.  0.  0.
209  2.08  0.  0.  0.
210  2.09  0.  0.  0.
211  2.10  0.  0.  0.
212  2.11  0.  0.  0.
213  2.12  0.  0.  0.
214  2.13  0.  0.  0.
215  2.14  0.  0.  0.
216  2.15  0.  0.  0.
217  2.16  0.  0.  0.
218  2.17  0.  0.  0.
219  2.18  0.  0.  0.
220  2.19  0.  0.  0.
221  2.20  0.  0.  0.
222  2.21  0.  0.  0.
223  2.22  0.  0.  0.
224  2.23  0.  0.  0.
225  2.24  0.  0.  0.
226  2.25  0.  0.  0.
227  2.26  0.  0.  0.
228  2.27  0.  0.  0.
229  2.28  0.  0.  0.
230  2.29  0.  0.  0.
231  2.30  0.  0.  0.
232  2.31  0.  0.  0.
233  2.32  0.  0.  0.
234  2.33  0.  0.  0.
235  2.34  0.  0.  0.
236  2.35  0.  0.  0.
237  2.36  0.  0.  0.
238  2.37  0.  0.  0.
239  2.38  0.  0.  0.
240  2.39  0.  0.  0.
241  2.40  0.  0.  0.
242  2.41  0.  0.  0.
243  2.42  0.  0.  0.
244  2.43  0.  0.  0.
245  2.44  0.  0.  0.
246  2.45  0.  0.  0.
247  2.46  0.  0.  0.
248  2.47  0.  0.  0.
249  2.48  0.  0.  0.
250  2.49  0.  0.  0.
251  2.50  0.  0.  0.
252  2.51  0.  0.  0.
253  2.52  0.  0.  0.
254  2.53  0.  0.  0.
255  2.54  0.  0.  0.
256  2.55  0.  0.  0.
257  2.56  0.  0.  0.
258  2.57  0.  0.  0.
259  2.58  0.  0.  0.
260  2.59  0.  0.  0.
261  2.60  0.  0.  0.
262  2.61  0.  0.  0.
263  2.62  0.  0.  0.
264  2.63  0.  0.  0.
265  2.64  0.  0.  0.
266  2.65  0.  0.  0.
267  2.66  0.  0.  0.
268  2.67  0.  0.  0.
269  2.68  0.  0.  0.
270  2.69  0.  0.  0.
271  2.70  0.  0.  0.
272  2.71  0.  0.  0.
273  2.72  0.  0.  0.
274  2.73  0.  0.  0.
275  2.74  0.  0.  0.
276  2.75  0.  0.  0.
277  2.76  0.  0.  0.
278  2.77  0.  0.  0.
279  2.78  0.  0.  0.
280  2.79  0.  0.  0.
281  2.80  0.  0.  0.
282  2.81  0.  0.  0.
283  2.82  0.  0.  0.
284  2.83  0.  0.  0.
285  2.84  0.  0.  0.
286  2.85  0.  0.  0.
287  2.86  0.  0.  0.
288  2.87  0.  0.  0.
289  2.88  0.  0.  0.
290  2.89  0.  0.  0.
291  2.90  0.  0.  0.
292  2.91  0.  0.  0.
293  2.92  0.  0.  0.
294  2.93  0.  0.  0.
295  2.94  0.  0.  0.
296  2.95  0.  0.  0.
297  2.96  0.  0.  0.
298  2.97  0.  0.  0.
299  2.98  0.  0.  0.
300  2.99  0.  0.  0.
301  3.00  0.  0.  0.
302  3.01  0.  0.  0.
303  3.02  0.  0.  0.
304  3.03  0.  0.  0.
305  3.04  0.  0.  0.
306  3.05  0.  0.  0.
307  3.06  0.  0.  0.
308  3.07  0.  0.  0.
309  3.08  0.  0.  0.
310  3.09  0.  0.  0.
311  3.10  0.  0.  0.
312  3.11  0.  0.  0.
313  3.12  0.  0.  0.
314  3.13  0.  0.  0.
315  3.14  0.  0.  0.
316  3.15  0.  0.  0.
317  3.16  0.  0.  0.
318  3.17  0.  0.  0.
319  3.18  0.  0.  0.
320  3.19  0.  0.  0.
321  3.20  0.  0.  0.
322  3.21  0.  0.  0.
323  3.22  0.  0.  0.
324  3.23  0.  0.  0.
325  3.24  0.  0.  0.
326  3.25  0.  0.  0.
327  3.26  0.  0.  0.
328  3.27  0.  0.  0.
329  3.28  0.  0.  0.
330  3.29  0.  0.  0.
331  3.30  0.  0.  0.
332  3.31  0.  0.  0.
333  3.32  0.  0.  0.
334  3.33  0.  0.  0.
335  3.34  0.  0.  0.
336  3.35  0.  0.  0.
337  3.36  0.  0.  0.
338  3.37  0.  0.  0.
339  3.38  0.  0.  0.
340  3.39  0.  0.  0.
341  3.40  0.  0.  0.
342  3.41  0.  0.  0.
343  3.42  0.  0.  0.
344  3.43  0.  0.  0.
345  3.44  0.  0.  0.
346  3.45  0.  0.  0.
347  3.46  0.  0.  0.
348  3.47  0.  0.  0.
349  3.48  0.  0.  0.
350  3.49  0.  0.  0.
351  3.50  0.  0.  0.
352  3.51  0.  0.  0.
353  3.52  0.  0.  0.
354  3.53  0.  0.  0.
355  3.54  0.  0.  0.
356  3.55  0.  0.  0.
357  3.56  0.  0.  0.
358  3.57  0.  0.  0.
359  3.58  0.  0.  0.
360  3.59  0.  0.  0.
361  3.60  0.  0.  0.
362  3.61  0.  0.  0.
363  3.62  0.  0.  0.
364  3.63  0.  0.  0.
365  3.64  0.  0.  0.
366  3.65  0.  0.  0.
367  3.66  0.  0.  0.
368  3.67  0.  0.  0.
369  3.68  0.  0.  0.
370  3.69  0.  0.  0.
371  3.70  0.  0.  0.
372  3.71  0.  0.  0.
373  3.72  0.  0.  0.
374  3.73  0.  0.  0.
375  3.74  0.  0.  0.
376  3.75  0.  0.  0.
377  3.76  0.  0.  0.
378  3.77  0.  0.  0.
379  3.78  0.  0.  0.
380  3.79  0.  0.  0.
381  3.80  0.  0.  0.
382  3.81  0.  0.  0.
383  3.82  0.  0.  0.
384  3.83  0.  0.  0.
385  3.84  0.  0.  0.
386  3.85  0.  0.  0.
387  3.86  0.  0.  0.
388  3.87  0.  0.  0.
389  3.88  0.  0.  0.
390  3.89  0.  0.  0.
391  3.90  0.  0.  0.
392  3.91  0.  0.  0.
393  3.92  0.  0.  0.
394  3.93  0.  0.  0.
395  3.94  0.  0.  0.
396  3.95  0.  0.  0.
397  3.96  0.  0.  0.
398  3.97  0.  0.  0.
399  3.98  0.  0.  0.
400  3.99  0.  0.  0.
401  4.00  0.  0.  0.
402  4.01  0.  0.  0.
403  4.02  0.  0.  0.
404  4.03  0.  0.  0.
405  4.04  0.  0.  0.
406  4.05  0.  0.  0.
407  4.06  0.  0.  0.
408  4.07  0.  0.  0.
409  4.08  0.  0.  0.
410  4.09  0.  0.  0.
411  4.10  0.  0.  0.
412  4.11  0.  0.  0.
413  4.12  0.  0.  0.
414  4.13  0.  0.  0.
415  4.14  0.  0.  0.
416  4.15  0.  0.  0.
417  4.16  0.  0.  0.
418  4.17  0.  0.  0.
419  4.18  0.  0.  0.
420  4.19  0.  0.  0.
421  4.20  0.  0.  0.
422  4.21  0.  0.  0.
423  4.22  0.  0.  0.
424  4.23  0.  0.  0.
425  4.24  0.  0.  0.
426  4.25  0.  0.  0.
427  4.26  0.  0.  0.
428  4.27  0.  0.  0.
429  4.28  0.  0.  0.
430  4.29  0.  0.  0.
431  4.30  0.  0.  0.
432  4.31  0.  0.  0.
433  4.32  0.  0.  0.
434  4.33  0.  0.  0.
435  4.34  0.  0.  0.
436  4.35  0.  0.  0.
437  4.36  0.  0.  0.
438  4.37  0.  0.  0.
439  4.38  0.  0.  0.
440  4.39  0.  0.  0.
441  4.40  0.  0.  0.
442  4.41  0.  0.  0.
443  4.42  0.  0.  0.
444  4.43  0.  0.  0.
445  4.44  0.  0.  0.
446  4.45  0.  0.  0.
447  4.46  0.  0.  0.
448  4.47  0.  0.  0.
449  4.48  0.  0.  0.
450  4.49  0.  0.  0.
451  4.50  0.  0.  0.
452  4.51  0.  0.  0.
453  4.52  0.  0.  0.
454  4.53  0.  0.  0.
455  4.54  0.  0.  0.
456  4.55  0.  0.  0.
457  4.56  0.  0.  0.
458  4.57  0.  0.  0.
459  4.58  0.  0.  0.
460  4.59  0.  0.  0.
461  4.60  0.  0.  0.
462  4.61  0.  0.  0.
463  4.62  0.  0.  0.
464  4.63  0.  0.  0.
465  4.64  0.  0.  0.
466  4.65  0.  0.  0.
467  4.66  0.  0.  0.
468  4.67  0.  0.  0.
469  4.68  0.  0.  0.
470  4.69  0.  0.  0.
471  4.70  0.  0.  0.
472  4.71  0.  0.  0.
473  4.72  0.  0.  0.
474  4.73  0.  0.  0.
475  4.74  0.  0.  0.
476  4.75  0.  0.  0.
477  4.76  0.  0.  0.
478  4.77  0.  0.  0.
479  4.78  0.  0.  0.
480  4.79  0.  0.  0.
481  4.80  0.  0.  0.
482  4.81  0.  0.  0.
483  4.82  0.  0.  0.
484  4.83  0.  0.  0.
485  4.84  0.  0.  0.
486  4.85  0.  0.  0.
487  4.86  0.  0.  0.
488  4.87  0.  0.  0.
489  4.88  0.  0.  0.
490  4.89  0.  0.  0.
491  4.90  0.  0.  0.
492  4.91  0.  0.  0.
493  4.92  0.  0.  0.
494  4.93  0.  0.  0.
495  4.94  0.  0.  0.
496  4.95  0.  0.  0.
497  4.96  0.  0.  0.
498  4.97  0.  0.  0.
499  4.98  0.  0.  0.
500  4.99  0.  0.  0.
501  5.00  0.  0.  0.
502  5.01  0.  0.  0.
503  5.02  0.  0.  0.
504  5.03  0.  0.  0.
505  5.04  0.  0.  0.
506  5.05  0.  0.  0.
507  5.06  0.  0.  0.
508  5.07  0.  0.  0.
509  5.08  0.  0.  0.
510  5.09  0.  0.  0.
511  5.10  0.  0.  0.
512  5.11  0.  0.  0.
513  5.12  0.  0.  0.
514  5.13  0.  0.  0.
515  5.14  0.  0.  0.
516  5.15  0.  0.  0.
517  5.16  0.  0.  0.
518  5.17  0.  0.  0.
519  5.18  0.  0.  0.
520  5.19  0.  0.  0.
521  5.20  0.  0.  0.
522  5.21  0.  0.  0.
523  5.22  0.  0.  0.
524  5.23  0.  0.  0.
525  5.24  0.  0.  0.
526  5.25  0.  0.  0.
527  5.26  0.  0.  0.
528  5.27  0.  0.  0.
529  5.28  0.  0.  0.
530  5.29  0.  0.  0.
531  5.30  0.  0.  0.
532  5.31  0.  0.  0.
533  5.32  0.  0.  0.
534  5.33  0.  0.  0.
535  5.34  0.  0.  0.
536  5.35  0.  0.  0.
537  5.36  0.  0.  0.
538  5.37  0.  0.  0.
539  5.38  0.  0.  0.
540  5.39  0.  0.  0.
541  5.40  0.  0.  0.
542  5.41  0.  0.  0.
543  5.42  0.  0.  0.
544  5.43  0.  0.  0.
545  5.44  0.  0.  0.
546  5.45  0.  0.  0.
547  5.46  0.  0.  0.
548  5.47  0.  0.  0.
549  5.48  0.  0.  0.
550  5.49  0.  0.  0.
551  5.50  0.  0.  0.
552  5.51  0.  0.  0.
553  5.52  0.  0.  0.
554  5.53  0.  0.  0.
555  5.54  0.  0.  0.
556  5.55  0.  0.  0.
557  5.56  0.  0.  0.
558  5.57  0.  0.  0.
559  5.58  0.  0.  0.
560  5.59  0.  0.  0.
561  5.60  0.  0.  0.
562  5.61  0.  0.  0.
563  5.62  0.  0.  0.
564  5.63  0.  0.  0.
565  5.64  0.  0.  0.
566  5.65  0.  0.  0.
567  5.66  0.  0.  0.
568  5.67  0.  0.  0.
569  5.68  0.  0.  0.
570  5.69  0.  0.  0.
571  5.70  0.  0.  0.
572  5.71  0.  0.  0.
573  5.72  0.  0.  0.
574  5.73  0.  0.  0.
575  5.74  0.  0.  0.
576  5.75  0.  0.  0.
577  5.76  0.  0.  0.
578  5.77  0.  0.  0.
579  5.78  0.  0.  0.
580  5.79  0.  0.  0.
581  5.80  0.  0.  0.
582  5.81  0.  0.  0.
583  5.82  0.  0.  0.
584  5.83  0.  0.  0.
585  5.84  0.  0.  0.
586  5.85  0.  0.  0.
587  5.86  0.  0.  0.
588  5.87  0.  0.  0.
589  5.88  0.  0.  0.
590  5.89  0.  0.  0.
591  5.90  0.  0.  0.
592  5.91  0.  0.  0.
593  5.92  0.  0.  0.
594  5.93  0.  0.  0.
595  5.94  0.  0.  0.
596  5.95  0.  0.  0.
597  5.96  0.  0.  0.
598  5.97  0.  0.  0.
599  5.98  0.  0.  0.
600  5.99  0.  0.  0.
1                         4.3346737027096E+00 -1.8427657800101E+00 -1.5467643705679E-01
1  0.0000000000000E+00  5.1279552826244E-10 -2.8351366827134E-10 -1.3126554843090E-09
2  1.0000000000000E-02  2.4713390527786E-03 -6.0562718763081E-05  1.4887687757891E-03
3  2.0000000000000E-02  9.8712294804939E-03 -2.3926710720301E-04  5.9434763166887E-03
4  3.0000000000000E-02  2.2157365211514E-02 -5.2718481679181E-04  1.3329363149822E-02
5  4.0000000000000E-02  3.9259482966105E-02 -9.0951163645443E-04  2.3588620673659E-02
6  5.0000000000000E-02  6.1079731714994E-02 -1.3656815335616E-03  3.6640580051063E-02
7  6.0000000000000E-02  8.7493188306119E-02 -1.8695252862198E-03  5.2381982773862E-02
8  7.0000000000000E-02  1.1834851761370E-01 -2.3894726871826E-03  7.0687338757159E-02
9  8.0000000000000E-02  1.5346877505097E-01 -2.8887970161934E-03  9.1409379134302E-02
10  9.0000000000000E-02  1.9265234874544E-01 -3.3259001999352E-03  1.1437961197922E-01
11  1.0000000000000E-01  2.3567403809881E-01 -3.6546368085437E-03  1.3940898993405E-01
12  1.1000000000000E-01  2.8228626484055E-01 -3.8246747760641E-03  1.6628869913182E-01
13  1.2000000000000E-01  3.3222041203182E-01 -3.7818904810665E-03  1.9479107884396E-01
14  1.3000000000000E-01  3.8518828578634E-01 -3.4687955840816E-03  2.2467068093334E-01
15  1.4000000000000E-01  4.4088369374824E-01 -2.8249927924483E-03  2.5566547744061E-01
16  1.5000000000000E-01  4.9898413360700E-01 -1.7876575119226E-03  2.8749822347674E-01
17  1.6000000000000E-01  5.5915258414266E-01 -2.9204214977520E-04  3.1987798104418E-01
18  1.7000000000000E-01  6.2103939048648E-01  1.7280003424002E-03  3.5250180748248E-01
19  1.8000000000000E-01  6.8428423446276E-01  4.3394772546303E-03  3.8505660995961E-01
20  1.9000000000000E-01  7.4851818005601E-01  7.6097049371038E-03  4.1722116484482E-01
21  2.0000000000000E-01  8.1336578323611E-01  1.1605749467600E-02  4.4866829794809E-01
22  2.1000000000000E-01  8.7844725458477E-01  1.6393863072217E-02  4.7906721854963E-01
23  2.2000000000000E-01  9.4338066241350E-01  2.2038920266283E-02  5.0808599692865E-01
24  2.3000000000000E-01  1.0077841633602E+00  2.8603857717805E-02  5.3539417180126E-01
25  2.4000000000000E-01  1.0712782468129E+00  3.6149121843381E-02  5.6066547076016E-01
26  2.5000000000000E-01  1.1334879789514E+00  4.4732128125108E-02  5.8358062354779E-01
27  2.6000000000000E-01  1.1940452317295E+00  5.4406736086148E-02  6.0383024486165E-01
28  2.7000000000000E-01  1.2525908817672E+00  6.5222743781653E-02  6.2111776045926E-01
29  2.8000000000000E-01  1.3087769638814E+00  7.7225405550631E-02  6.3516234767149E-01
30  2.9000000000000E-01  1.3622687638793E+00  9.0454976633128E-02  6.4570185911446E-01
31  3.0000000000000E-01  1.4127468352785E+00  1.0494628808607E-01  6.5249569647422E-01
32  3.1000000000000E-01  1.4599089248028E+00  1.2072835523113E-01  6.5532759978223E-01
33  3.2000000000000E-01  1.5034717918509E+00  1.3782402263992E-01  6.5400831665121E-01
34  3.3000000000000E-01  1.5431729076409E+00  1.5624964840708E-01  6.4837811554105E-01
35  3.4000000000000E-01  1.5787720204047E+00  1.7601483018198E-01  6.3830910730392E-01
36  3.5000000000000E-01  1.6100525738408E+00  1.9712217512700E-01  6.2370734003561E-01
37  3.6000000000000E-01  1.6368229670244E+00  2.1956711564672E-01  6.0451463364704E-01
38  3.7000000000000E-01  1.6589176451236E+00  2.4333777239037E-01  5.8071012256185E-01
39  3.8000000000000E-01  1.6761980115591E+00  2.6841486567314E-01  5.5231147753043E-01
40  3.9000000000000E-01  1.6885531536712E+00  2.9477167609215E-01  5.1937578070114E-01
41  4.0000000000000E-01  1.6959003755040E+00  3.2237405473495E-01  4.8200003176977E-01
42  4.1000000000000E-01  1.6981855329662E+00  3.5118048299451E-01  4.4032126719031E-01
43  4.2000000000000E-01  1.6953831683622E+00  3.8114218161944E-01  3.9451627901753E-01
44  4.3000000000000E-01  1.6874964430933E+00  4.1220326824433E-01  3.4480092489619E-01
45  4.4000000000000E-01  1.6745568691723E+00  4.4430096226783E-01  2.9142902594086E-01
46  4.5000000000000E-01  1.6566238420673E+00  4.7736583557732E-01  2.3469085468049E-01
47  4.6000000000000E-01  1.6337839792569E+00  5.1132210726446E-01  1.7491122078877E-01
48  4.7000000000000E-01  1.6061502707217E+00  5.4608798013761E-01  1.1244716789307E-01
49  4.8000000000000E-01  1.5738610493920E+00  5.8157601651952E-01  4.7685300259993E-02
50  4.9000000000000E-01  1.5370787912871E+00  6.1769355052446E-01 -1.8961236499187E-02
51  5.0000000000000E-01  1.4959887567064E+00  6.5434313374172E-01 -8.7056091465589E-02
52  5.1000000000000E-01  1.4507974853344E+00  6.9142301101451E-01 -1.5614332720064E-01
53  5.2000000000000E-01  1.4017311594822E+00  7.2882762279691E-01 -2.2575128296228E-01
54  5.3000000000000E-01  1.3490338508936E+00  7.6644813039962E-01 -2.9539664019870E-01
55  5.4000000000000E-01  1.2929656675677E+00  8.0417296029809E-01 -3.6458864491103E-01
56  5.5000000000000E-01  1.2338008178888E+00  8.4188836357697E-01 -4.3283343885288E-01
57  5.6000000000000E-01  1.1718256099840E+00  8.7947898652170E-01 -4.9963844959354E-01