Uu    ONCVPSP-4.0.1  r_core=   1.30483   1.45318   1.30483   1.60873
119.0000     27.0000      230612    zatom,zion,pspd
8      11   3     4   600     0    pspcod,pspxc,lmax,lloc,mmax,r2well
5.99000000  5.00000000  0.00000000    rchrg fchrg qchrg
3     4     3     1    nproj
3     1           extension_switch
4     3     2    nprojso
0                         2.8677810939226E+01  3.0658631664275E+00 -2.1063190756414E-01
1  0.0000000000000E+00 -7.0889806691454E-08  2.3900754142492E-07  2.8333363877309E-07
2  1.0000000000000E-02  1.1215675795478E-01 -8.2018928226373E-02 -9.2955222439958E-02
3  2.0000000000000E-02  2.2342148984727E-01 -1.6172240037653E-01 -1.8292204245498E-01
4  3.0000000000000E-02  3.3292292196521E-01 -2.3686382026175E-01 -2.6700033118769E-01
5  4.0000000000000E-02  4.3983066119777E-01 -3.0533220014128E-01 -3.4246391526995E-01
6  5.0000000000000E-02  5.4337409425329E-01 -3.6521475122062E-01 -4.0684115184721E-01
7  6.0000000000000E-02  6.4285949064913E-01 -4.1485339656243E-01 -4.5798803197675E-01
8  7.0000000000000E-02  7.3768479743932E-01 -4.5289347283283E-01 -4.9415166786318E-01
9  8.0000000000000E-02  8.2735168453580E-01 -4.7832312631340E-01 -5.1402230272791E-01
10  9.0000000000000E-02  9.1147448392521E-01 -4.9050219337993E-01 -5.1677232018881E-01
11  1.0000000000000E-01  9.8978576149829E-01 -4.8917967749296E-01 -5.0208111283929E-01
12  1.1000000000000E-01  1.0621383636662E+00 -4.7449928383083E-01 -4.7014508591733E-01
13  1.2000000000000E-01  1.1285038892678E+00 -4.4699283837359E-01 -4.2167250923385E-01
14  1.3000000000000E-01  1.1889676471507E+00 -4.0756178934350E-01 -3.5786337593466E-01
15  1.4000000000000E-01  1.2437202678654E+00 -3.5744735409971E-01 -2.8037486703680E-01
16  1.5000000000000E-01  1.2930462408375E+00 -2.9819022271901E-01 -1.9127344299265E-01
17  1.6000000000000E-01  1.3373097430060E+00 -2.3158104993611E-01 -9.2974975320477E-02
18  1.7000000000000E-01  1.3769382083517E+00 -1.5960325009024E-01  1.1825318939854E-02
19  1.8000000000000E-01  1.4124041574001E+00 -8.4369846570300E-02  1.2023107984780E-01
20  1.9000000000000E-01  1.4442058595531E+00 -8.0563107585735E-03  2.2922884789740E-01
21  2.0000000000000E-01  1.4728474373044E+00  6.7168549996379E-02  3.3577548346342E-01
22  2.1000000000000E-01  1.4988190389260E+00  1.3921153406166E-01  4.3688640236906E-01
23  2.2000000000000E-01  1.5225777045177E+00  2.0612169842848E-01  5.2972204780704E-01
24  2.3000000000000E-01  1.5445295294428E+00  2.6615267186794E-01  6.1167007510352E-01
25  2.4000000000000E-01  1.5650136897490E+00  3.1781870733110E-01  6.8042085633217E-01
26  2.5000000000000E-01  1.5842888374063E+00  3.5994274111795E-01  7.3403411254662E-01
27  2.6000000000000E-01  1.6025223007988E+00  3.9169496768609E-01  7.7099474634223E-01
28  2.7000000000000E-01  1.6197824401080E+00  4.1262072576358E-01  7.9025626858923E-01
29  2.8000000000000E-01  1.6360344106223E+00  4.2265681494067E-01  7.9127058088111E-01
30  2.9000000000000E-01  1.6511394825708E+00  4.2213571227964E-01  7.7400327851662E-01
31  3.0000000000000E-01  1.6648579569801E+00  4.1177752502740E-01  7.3893406564813E-01
32  3.1000000000000E-01  1.6768556066298E+00  3.9266988708898E-01  6.8704231189220E-01
33  3.2000000000000E-01  1.6867134628075E+00  3.6623637221244E-01  6.1977821520930E-01
34  3.3000000000000E-01  1.6939406655367E+00  3.3419434474598E-01  5.3902045632773E-01
35  3.4000000000000E-01  1.6979900004202E+00  2.9850348880034E-01  4.4702162300199E-01
36  3.5000000000000E-01  1.6982756620781E+00  2.6130653897489E-01  3.4634303638948E-01
37  3.6000000000000E-01  1.6941927148989E+00  2.2486397197216E-01  2.3978091646026E-01
38  3.7000000000000E-01  1.6851376685627E+00  1.9148460128955E-01  1.3028606973580E-01
39  3.8000000000000E-01  1.6705295501462E+00  1.6345414129174E-01  2.0879463719051E-02
40  3.9000000000000E-01  1.6498308376511E+00  1.4296386864653E-01 -8.5433837002894E-02
41  4.0000000000000E-01  1.6225676220024E+00  1.3204150658906E-01 -1.8574986083956E-01
42  4.1000000000000E-01  1.5883483858563E+00  1.3248639099683E-01 -2.7734757037572E-01
43  4.2000000000000E-01  1.5468808272512E+00  1.4581084893916E-01 -3.5776498946107E-01
44  4.3000000000000E-01  1.4979862130095E+00  1.7318953428857E-01 -4.2486743012997E-01
45  4.4000000000000E-01  1.4416108190688E+00  2.1541822693553E-01 -4.7690587596450E-01
46  4.5000000000000E-01  1.3778341003887E+00  2.7288331950495E-01 -5.1256387726792E-01
47  4.6000000000000E-01  1.3068733290875E+00  3.4554289697110E-01 -5.3099165906143E-01
48  4.7000000000000E-01  1.2290845430989E+00  4.3291996997026E-01 -5.3182652494799E-01
49  4.8000000000000E-01  1.1449597557124E+00  5.3410806249074E-01 -5.1519904673778E-01
50  4.9000000000000E-01  1.0551204856031E+00  6.4778898994494E-01 -4.8172494918251E-01
51  5.0000000000000E-01  9.6030777403353E-01  7.7226230550711E-01 -4.3248301864752E-01
52  5.1000000000000E-01  8.6136895760573E-01  9.0548555183266E-01 -3.6897977162974E-01
53  5.2000000000000E-01  7.5924155818554E-01  1.0451241421398E+00 -2.9310200164888E-01
54  5.3000000000000E-01  6.5493473364624E-01  1.1886094184656E+00 -2.0705867000248E-01
55  5.4000000000000E-01  5.4950880145077E-01  1.3332032038791E+00 -1.1331390710710E-01
56  5.5000000000000E-01  4.4405339983355E-01  1.4760669862659E+00 -1.4513138029603E-02
57  5.6000000000000E-01  3.3966488694888E-01  1.6143337491007E+00  8.6595468606034E-02
58  5.7000000000000E-01  2.3742359587040E-01  1.7451804026893E+00  1.8724190989360E-01
59  5.8000000000000E-01  1.3837156235880E-01  1.8658987691223E+00  2.8471524773799E-01
60  5.9000000000000E-01  4.3491323042686E-02  1.9739631351480E+00  3.7644214971764E-01
61  6.0000000000000E-01 -4.6313655176996E-02  2.0670925069624E+00  4.6006081299064E-01
62  6.1000000000000E-01 -1.3023640679853E-01  2.1433058753462E+00  5.3348816755843E-01
63  6.2000000000000E-01 -2.0758132037765E-01  2.2009690228007E+00  5.9497847070938E-01
64  6.3000000000000E-01 -2.7777605198220E-01  2.2388316690522E+00  6.4317167344240E-01
65  6.4000000000000E-01 -3.4038022885861E-01  2.2560540489382E+00  6.7713025352633E-01
66  6.5000000000000E-01 -3.9509076918990E-01  2.2522223378036E+00  6.9636355878841E-01
67  6.6000000000000E-01 -4.4174374409618E-01  2.2273526739543E+00  7.0083907742804E-01
68  6.7000000000000E-01 -4.8031280898129E-01  2.1818838650081E+00  6.9098043823310E-01
69  6.8000000000000E-01 -5.1090432983973E-01  2.1166591947081E+00  6.6765233087190E-01
70  6.9000000000000E-01 -5.3374942319120E-01  2.0328980588172E+00  6.3213291335525E-01
71  7.0000000000000E-01 -5.4919321310843E-01  1.9321584436873E+00  5.8607462923818E-01
72  7.1000000000000E-01 -5.5768168282099E-01  1.8162915104977E+00  5.3145468078267E-01
73  7.2000000000000E-01 -5.5974655948600E-01  1.6873897547706E+00  4.7051668696983E-01
74  7.3000000000000E-01 -5.5598871719174E-01  1.5477303687383E+00  4.0570528900201E-01
75  7.4000000000000E-01 -5.4706061389985E-01  1.3997155393194E+00  3.3959564458830E-01
76  7.5000000000000E-01 -5.3364829212134E-01  1.2458114643446E+00  2.7481987129501E-01
77  7.6000000000000E-01 -5.1645347051396E-01  1.0884878636237E+00  2.1399255600305E-01
78  7.7000000000000E-01 -4.9617623465366E-01  9.3015970057607E-01  1.5963744133874E-01
79  7.8000000000000E-01 -4.7349880087586E-01  7.7313271732908E-01  1.1411733210389E-01
80  7.9000000000000E-01 -4.4907077868565E-01  6.1955422593563E-01  7.9569138325111E-02
81  8.0000000000000E-01 -4.2349629662229E-01  4.7137039662207E-01  5.7845791433334E-02
82  8.1000000000000E-01 -3.9732328582641E-01  3.3029104800448E-01  5.0466542680289E-02
83  8.2000000000000E-01 -3.7103513737759E-01  1.9776268218769E-01  5.8576885916532E-02
84  8.3000000000000E-01 -3.4504486645363E-01  7.4950228590772E-02  8.2919049137215E-02
85  8.4000000000000E-01 -3.1969183131570E-01 -3.7272326444498E-02  1.2381368029611E-01
86  8.5000000000000E-01 -2.9524097088823E-01 -1.3832253221028E-01  1.8115302283941E-01
87  8.6000000000000E-01 -2.7188444404533E-01 -2.2790167026318E-01  2.5440554538759E-01
88  8.7000000000000E-01 -2.4974547924079E-01 -3.0597919119060E-01  3.4263166797617E-01
89  8.8000000000000E-01 -2.2888417718089E-01 -3.7277025397679E-01  4.4450992371013E-01
90  8.9000000000000E-01 -2.0930495387353E-01 -4.2870742216161E-01  5.5837261830262E-01
91  9.0000000000000E-01 -1.9096526823474E-01 -4.7440772242295E-01  6.8224980835985E-01
92  9.1000000000000E-01 -1.7378524869892E-01 -5.1063637816893E-01  8.1392021881041E-01
93  9.2000000000000E-01 -1.5765781769365E-01 -5.3826859056964E-01  9.5096756548230E-01
94  9.3000000000000E-01 -1.4245891163394E-01 -5.5825075122121E-01  1.0908406438138E+00
95  9.4000000000000E-01 -1.2805740700980E-01 -5.7156243495731E-01  1.2309154907859E+00
96  9.5000000000000E-01 -1.1432438943765E-01 -5.7918044048203E-01  1.3685579244045E+00
97  9.6000000000000E-01 -1.0114144103131E-01 -5.8204602425790E-01  1.5011848118821E+00
98  9.7000000000000E-01 -8.8407670529144E-02 -5.8103631454827E-01  1.6263225109950E+00
99  9.8000000000000E-01 -7.6045268331442E-02 -5.7694070404430E-01  1.7416610643933E+00
100  9.9000000000000E-01 -6.4003432791173E-02 -5.7044280815463E-01  1.8451028983810E+00
101  1.0000000000000E+00 -5.2260582304482E-02 -5.6210834986077E-01  1.9348049790992E+00
102  1.0100000000000E+00 -4.0824837476211E-02 -5.5237909924031E-01  2.0092136027892E+00
103  1.0200000000000E+00 -2.9732826377034E-02 -5.4157276464006E-01  2.0670912351297E+00
104  1.0300000000000E+00 -1.9046931205092E-02 -5.2988851120339E-01  2.1075350595483E+00
105  1.0400000000000E+00 -8.8511541610185E-03 -5.1741757888738E-01  2.1299871377351E+00
106  1.0500000000000E+00  7.5416793016090E-04 -5.0415829286248E-01  2.1342363201056E+00
107  1.0600000000000E+00  9.6585285746372E-03 -4.9003461039090E-01  2.1204122626324E+00
108  1.0700000000000E+00  1.7747993327576E-02 -4.7491723482266E-01  2.0889721027361E+00
109  1.0800000000000E+00  2.4912196192184E-02 -4.5864625225918E-01  2.0406805164943E+00
110  1.0900000000000E+00  3.1051261898226E-02 -4.4105421219610E-01  1.9765840173722E+00
111  1.1000000000000E+00  3.6082331023249E-02 -4.2198858008655E-01  1.8979804609621E+00
112  1.1100000000000E+00  3.9945382947358E-02 -4.0133253675468E-01  1.8063847890481E+00
113  1.1200000000000E+00  4.2608080871373E-02 -3.7902318378328E-01  1.7034920796549E+00
114  1.1300000000000E+00  4.4069402734579E-02 -3.5506633275314E-01  1.5911389686143E+00
115  1.1400000000000E+00  4.4361869691394E-02 -3.2954720281650E-01  1.4712644751956E+00
116  1.1500000000000E+00  4.3552238738431E-02 -3.0263652195240E-01  1.3458712021262E+00
117  1.1600000000000E+00  4.1740585071101E-02 -2.7459171269043E-01  1.2169877942331E+00
118  1.1700000000000E+00  3.9057761595554E-02 -2.4575303918281E-01  1.0866334332821E+00
119  1.1800000000000E+00  3.5661284323929E-02 -2.1653478833369E-01  9.5678502659261E-01
120  1.1900000000000E+00  3.1729751816907E-02 -1.8741174892783E-01  8.2934761738880E-01
121  1.2000000000000E+00  2.7455961435687E-02 -1.5890142971504E-01  7.0612841283664E-01
122  1.2100000000000E+00  2.3038933360583E-02 -1.3154261506772E-01  5.8881469577264E-01
123  1.2200000000000E+00  1.8675124862347E-02 -1.0587108507469E-01  4.7895575129360E-01
124  1.2300000000000E+00  1.4548855261497E-02 -8.2392537369343E-02  3.7794893886796E-01
125  1.2400000000000E+00  1.0821217810411E-02 -6.1550553165156E-02  2.8703025498224E-01
126  1.2500000000000E+00  7.5321332053549E-03 -4.3429435182630E-02  2.0730150268503E-01
127  1.2600000000000E+00  4.7533817788507E-03 -2.8218616234059E-02  1.3966565486593E-01
128  1.2700000000000E+00  2.6123912582500E-03 -1.6289063190447E-02  8.4816765139640E-02
129  1.2800000000000E+00  1.1522361592393E-03 -7.7684599935253E-03  4.3294544193149E-02
130  1.2900000000000E+00  3.3218293910863E-04 -2.5400119768300E-03  1.5474315215699E-02
131  1.3000000000000E+00  2.7414766114984E-05 -2.6311993402352E-04  1.8072899322835E-03
132  1.3100000000000E+00 -1.6466910392624E-06  1.9960685086700E-05 -1.4964089445324E-04
133  1.3200000000000E+00  1.5898735094977E-07 -1.6448345732016E-06  1.1657501441659E-05
134  1.33  0.  0.  0.
135  1.34  0.  0.  0.
136  1.35  0.  0.  0.
137  1.36  0.  0.  0.
138  1.37  0.  0.  0.
139  1.38  0.  0.  0.
140  1.39  0.  0.  0.
141  1.40  0.  0.  0.
142  1.41  0.  0.  0.
143  1.42  0.  0.  0.
144  1.43  0.  0.  0.
145  1.44  0.  0.  0.
146  1.45  0.  0.  0.
147  1.46  0.  0.  0.
148  1.47  0.  0.  0.
149  1.48  0.  0.  0.
150  1.49  0.  0.  0.
151  1.50  0.  0.  0.
152  1.51  0.  0.  0.
153  1.52  0.  0.  0.
154  1.53  0.  0.  0.
155  1.54  0.  0.  0.
156  1.55  0.  0.  0.
157  1.56  0.  0.  0.
158  1.57  0.  0.  0.
159  1.58  0.  0.  0.
160  1.59  0.  0.  0.
161  1.60  0.  0.  0.
162  1.61  0.  0.  0.
163  1.62  0.  0.  0.
164  1.63  0.  0.  0.
165  1.64  0.  0.  0.
166  1.65  0.  0.  0.
167  1.66  0.  0.  0.
168  1.67  0.  0.  0.
169  1.68  0.  0.  0.
170  1.69  0.  0.  0.
171  1.70  0.  0.  0.
172  1.71  0.  0.  0.
173  1.72  0.  0.  0.
174  1.73  0.  0.  0.
175  1.74  0.  0.  0.
176  1.75  0.  0.  0.
177  1.76  0.  0.  0.
178  1.77  0.  0.  0.
179  1.78  0.  0.  0.
180  1.79  0.  0.  0.
181  1.80  0.  0.  0.
182  1.81  0.  0.  0.
183  1.82  0.  0.  0.
184  1.83  0.  0.  0.
185  1.84  0.  0.  0.
186  1.85  0.  0.  0.
187  1.86  0.  0.  0.
188  1.87  0.  0.  0.
189  1.88  0.  0.  0.
190  1.89  0.  0.  0.
191  1.90  0.  0.  0.
192  1.91  0.  0.  0.
193  1.92  0.  0.  0.
194  1.93  0.  0.  0.
195  1.94  0.  0.  0.
196  1.95  0.  0.  0.
197  1.96  0.  0.  0.
198  1.97  0.  0.  0.
199  1.98  0.  0.  0.
200  1.99  0.  0.  0.
201  2.00  0.  0.  0.
202  2.01  0.  0.  0.
203  2.02  0.  0.  0.
204  2.03  0.  0.  0.
205  2.04  0.  0.  0.
206  2.05  0.  0.  0.
207  2.06  0.  0.  0.
208  2.07  0.  0.  0.
209  2.08  0.  0.  0.
210  2.09  0.  0.  0.
211  2.10  0.  0.  0.
212  2.11  0.  0.  0.
213  2.12  0.  0.  0.
214  2.13  0.  0.  0.
215  2.14  0.  0.  0.
216  2.15  0.  0.  0.
217  2.16  0.  0.  0.
218  2.17  0.  0.  0.
219  2.18  0.  0.  0.
220  2.19  0.  0.  0.
221  2.20  0.  0.  0.
222  2.21  0.  0.  0.
223  2.22  0.  0.  0.
224  2.23  0.  0.  0.
225  2.24  0.  0.  0.
226  2.25  0.  0.  0.
227  2.26  0.  0.  0.
228  2.27  0.  0.  0.
229  2.28  0.  0.  0.
230  2.29  0.  0.  0.
231  2.30  0.  0.  0.
232  2.31  0.  0.  0.
233  2.32  0.  0.  0.
234  2.33  0.  0.  0.
235  2.34  0.  0.  0.
236  2.35  0.  0.  0.
237  2.36  0.  0.  0.
238  2.37  0.  0.  0.
239  2.38  0.  0.  0.
240  2.39  0.  0.  0.
241  2.40  0.  0.  0.
242  2.41  0.  0.  0.
243  2.42  0.  0.  0.
244  2.43  0.  0.  0.
245  2.44  0.  0.  0.
246  2.45  0.  0.  0.
247  2.46  0.  0.  0.
248  2.47  0.  0.  0.
249  2.48  0.  0.  0.
250  2.49  0.  0.  0.
251  2.50  0.  0.  0.
252  2.51  0.  0.  0.
253  2.52  0.  0.  0.
254  2.53  0.  0.  0.
255  2.54  0.  0.  0.
256  2.55  0.  0.  0.
257  2.56  0.  0.  0.
258  2.57  0.  0.  0.
259  2.58  0.  0.  0.
260  2.59  0.  0.  0.
261  2.60  0.  0.  0.
262  2.61  0.  0.  0.
263  2.62  0.  0.  0.
264  2.63  0.  0.  0.
265  2.64  0.  0.  0.
266  2.65  0.  0.  0.
267  2.66  0.  0.  0.
268  2.67  0.  0.  0.
269  2.68  0.  0.  0.
270  2.69  0.  0.  0.
271  2.70  0.  0.  0.
272  2.71  0.  0.  0.
273  2.72  0.  0.  0.
274  2.73  0.  0.  0.
275  2.74  0.  0.  0.
276  2.75  0.  0.  0.
277  2.76  0.  0.  0.
278  2.77  0.  0.  0.
279  2.78  0.  0.  0.
280  2.79  0.  0.  0.
281  2.80  0.  0.  0.
282  2.81  0.  0.  0.
283  2.82  0.  0.  0.
284  2.83  0.  0.  0.
285  2.84  0.  0.  0.
286  2.85  0.  0.  0.
287  2.86  0.  0.  0.
288  2.87  0.  0.  0.
289  2.88  0.  0.  0.
290  2.89  0.  0.  0.
291  2.90  0.  0.  0.
292  2.91  0.  0.  0.
293  2.92  0.  0.  0.
294  2.93  0.  0.  0.
295  2.94  0.  0.  0.
296  2.95  0.  0.  0.
297  2.96  0.  0.  0.
298  2.97  0.  0.  0.
299  2.98  0.  0.  0.
300  2.99  0.  0.  0.
301  3.00  0.  0.  0.
302  3.01  0.  0.  0.
303  3.02  0.  0.  0.
304  3.03  0.  0.  0.
305  3.04  0.  0.  0.
306  3.05  0.  0.  0.
307  3.06  0.  0.  0.
308  3.07  0.  0.  0.
309  3.08  0.  0.  0.
310  3.09  0.  0.  0.
311  3.10  0.  0.  0.
312  3.11  0.  0.  0.
313  3.12  0.  0.  0.
314  3.13  0.  0.  0.
315  3.14  0.  0.  0.
316  3.15  0.  0.  0.
317  3.16  0.  0.  0.
318  3.17  0.  0.  0.
319  3.18  0.  0.  0.
320  3.19  0.  0.  0.
321  3.20  0.  0.  0.
322  3.21  0.  0.  0.
323  3.22  0.  0.  0.
324  3.23  0.  0.  0.
325  3.24  0.  0.  0.
326  3.25  0.  0.  0.
327  3.26  0.  0.  0.
328  3.27  0.  0.  0.
329  3.28  0.  0.  0.
330  3.29  0.  0.  0.
331  3.30  0.  0.  0.
332  3.31  0.  0.  0.
333  3.32  0.  0.  0.
334  3.33  0.  0.  0.
335  3.34  0.  0.  0.
336  3.35  0.  0.  0.
337  3.36  0.  0.  0.
338  3.37  0.  0.  0.
339  3.38  0.  0.  0.
340  3.39  0.  0.  0.
341  3.40  0.  0.  0.
342  3.41  0.  0.  0.
343  3.42  0.  0.  0.
344  3.43  0.  0.  0.
345  3.44  0.  0.  0.
346  3.45  0.  0.  0.
347  3.46  0.  0.  0.
348  3.47  0.  0.  0.
349  3.48  0.  0.  0.
350  3.49  0.  0.  0.
351  3.50  0.  0.  0.
352  3.51  0.  0.  0.
353  3.52  0.  0.  0.
354  3.53  0.  0.  0.
355  3.54  0.  0.  0.
356  3.55  0.  0.  0.
357  3.56  0.  0.  0.
358  3.57  0.  0.  0.
359  3.58  0.  0.  0.
360  3.59  0.  0.  0.
361  3.60  0.  0.  0.
362  3.61  0.  0.  0.
363  3.62  0.  0.  0.
364  3.63  0.  0.  0.
365  3.64  0.  0.  0.
366  3.65  0.  0.  0.
367  3.66  0.  0.  0.
368  3.67  0.  0.  0.
369  3.68  0.  0.  0.
370  3.69  0.  0.  0.
371  3.70  0.  0.  0.
372  3.71  0.  0.  0.
373  3.72  0.  0.  0.
374  3.73  0.  0.  0.
375  3.74  0.  0.  0.
376  3.75  0.  0.  0.
377  3.76  0.  0.  0.
378  3.77  0.  0.  0.
379  3.78  0.  0.  0.
380  3.79  0.  0.  0.
381  3.80  0.  0.  0.
382  3.81  0.  0.  0.
383  3.82  0.  0.  0.
384  3.83  0.  0.  0.
385  3.84  0.  0.  0.
386  3.85  0.  0.  0.
387  3.86  0.  0.  0.
388  3.87  0.  0.  0.
389  3.88  0.  0.  0.
390  3.89  0.  0.  0.
391  3.90  0.  0.  0.
392  3.91  0.  0.  0.
393  3.92  0.  0.  0.
394  3.93  0.  0.  0.
395  3.94  0.  0.  0.
396  3.95  0.  0.  0.
397  3.96  0.  0.  0.
398  3.97  0.  0.  0.
399  3.98  0.  0.  0.
400  3.99  0.  0.  0.
401  4.00  0.  0.  0.
402  4.01  0.  0.  0.
403  4.02  0.  0.  0.
404  4.03  0.  0.  0.
405  4.04  0.  0.  0.
406  4.05  0.  0.  0.
407  4.06  0.  0.  0.
408  4.07  0.  0.  0.
409  4.08  0.  0.  0.
410  4.09  0.  0.  0.
411  4.10  0.  0.  0.
412  4.11  0.  0.  0.
413  4.12  0.  0.  0.
414  4.13  0.  0.  0.
415  4.14  0.  0.  0.
416  4.15  0.  0.  0.
417  4.16  0.  0.  0.
418  4.17  0.  0.  0.
419  4.18  0.  0.  0.
420  4.19  0.  0.  0.
421  4.20  0.  0.  0.
422  4.21  0.  0.  0.
423  4.22  0.  0.  0.
424  4.23  0.  0.  0.
425  4.24  0.  0.  0.
426  4.25  0.  0.  0.
427  4.26  0.  0.  0.
428  4.27  0.  0.  0.
429  4.28  0.  0.  0.
430  4.29  0.  0.  0.
431  4.30  0.  0.  0.
432  4.31  0.  0.  0.
433  4.32  0.  0.  0.
434  4.33  0.  0.  0.
435  4.34  0.  0.  0.
436  4.35  0.  0.  0.
437  4.36  0.  0.  0.
438  4.37  0.  0.  0.
439  4.38  0.  0.  0.
440  4.39  0.  0.  0.
441  4.40  0.  0.  0.
442  4.41  0.  0.  0.
443  4.42  0.  0.  0.
444  4.43  0.  0.  0.
445  4.44  0.  0.  0.
446  4.45  0.  0.  0.
447  4.46  0.  0.  0.
448  4.47  0.  0.  0.
449  4.48  0.  0.  0.
450  4.49  0.  0.  0.
451  4.50  0.  0.  0.
452  4.51  0.  0.  0.
453  4.52  0.  0.  0.
454  4.53  0.  0.  0.
455  4.54  0.  0.  0.
456  4.55  0.  0.  0.
457  4.56  0.  0.  0.
458  4.57  0.  0.  0.
459  4.58  0.  0.  0.
460  4.59  0.  0.  0.
461  4.60  0.  0.  0.
462  4.61  0.  0.  0.
463  4.62  0.  0.  0.
464  4.63  0.  0.  0.
465  4.64  0.  0.  0.
466  4.65  0.  0.  0.
467  4.66  0.  0.  0.
468  4.67  0.  0.  0.
469  4.68  0.  0.  0.
470  4.69  0.  0.  0.
471  4.70  0.  0.  0.
472  4.71  0.  0.  0.
473  4.72  0.  0.  0.
474  4.73  0.  0.  0.
475  4.74  0.  0.  0.
476  4.75  0.  0.  0.
477  4.76  0.  0.  0.
478  4.77  0.  0.  0.
479  4.78  0.  0.  0.
480  4.79  0.  0.  0.
481  4.80  0.  0.  0.
482  4.81  0.  0.  0.
483  4.82  0.  0.  0.
484  4.83  0.  0.  0.
485  4.84  0.  0.  0.
486  4.85  0.  0.  0.
487  4.86  0.  0.  0.
488  4.87  0.  0.  0.
489  4.88  0.  0.  0.
490  4.89  0.  0.  0.
491  4.90  0.  0.  0.
492  4.91  0.  0.  0.
493  4.92  0.  0.  0.
494  4.93  0.  0.  0.
495  4.94  0.  0.  0.
496  4.95  0.  0.  0.
497  4.96  0.  0.  0.
498  4.97  0.  0.  0.
499  4.98  0.  0.  0.
500  4.99  0.  0.  0.
501  5.00  0.  0.  0.
502  5.01  0.  0.  0.
503  5.02  0.  0.  0.
504  5.03  0.  0.  0.
505  5.04  0.  0.  0.
506  5.05  0.  0.  0.
507  5.06  0.  0.  0.
508  5.07  0.  0.  0.
509  5.08  0.  0.  0.
510  5.09  0.  0.  0.
511  5.10  0.  0.  0.
512  5.11  0.  0.  0.
513  5.12  0.  0.  0.
514  5.13  0.  0.  0.
515  5.14  0.  0.  0.
516  5.15  0.  0.  0.
517  5.16  0.  0.  0.
518  5.17  0.  0.  0.
519  5.18  0.  0.  0.
520  5.19  0.  0.  0.
521  5.20  0.  0.  0.
522  5.21  0.  0.  0.
523  5.22  0.  0.  0.
524  5.23  0.  0.  0.
525  5.24  0.  0.  0.
526  5.25  0.  0.  0.
527  5.26  0.  0.  0.
528  5.27  0.  0.  0.
529  5.28  0.  0.  0.
530  5.29  0.  0.  0.
531  5.30  0.  0.  0.
532  5.31  0.  0.  0.
533  5.32  0.  0.  0.
534  5.33  0.  0.  0.
535  5.34  0.  0.  0.
536  5.35  0.  0.  0.
537  5.36  0.  0.  0.
538  5.37  0.  0.  0.
539  5.38  0.  0.  0.
540  5.39  0.  0.  0.
541  5.40  0.  0.  0.
542  5.41  0.  0.  0.
543  5.42  0.  0.  0.
544  5.43  0.  0.  0.
545  5.44  0.  0.  0.
546  5.45  0.  0.  0.
547  5.46  0.  0.  0.
548  5.47  0.  0.  0.
549  5.48  0.  0.  0.
550  5.49  0.  0.  0.
551  5.50  0.  0.  0.
552  5.51  0.  0.  0.
553  5.52  0.  0.  0.
554  5.53  0.  0.  0.
555  5.54  0.  0.  0.
556  5.55  0.  0.  0.
557  5.56  0.  0.  0.
558  5.57  0.  0.  0.
559  5.58  0.  0.  0.
560  5.59  0.  0.  0.
561  5.60  0.  0.  0.
562  5.61  0.  0.  0.
563  5.62  0.  0.  0.
564  5.63  0.  0.  0.
565  5.64  0.  0.  0.
566  5.65  0.  0.  0.
567  5.66  0.  0.  0.
568  5.67  0.  0.  0.
569  5.68  0.  0.  0.
570  5.69  0.  0.  0.
571  5.70  0.  0.  0.
572  5.71  0.  0.  0.
573  5.72  0.  0.  0.
574  5.73  0.  0.  0.
575  5.74  0.  0.  0.
576  5.75  0.  0.  0.
577  5.76  0.  0.  0.
578  5.77  0.  0.  0.
579  5.78  0.  0.  0.
580  5.79  0.  0.  0.
581  5.80  0.  0.  0.
582  5.81  0.  0.  0.
583  5.82  0.  0.  0.
584  5.83  0.  0.  0.
585  5.84  0.  0.  0.
586  5.85  0.  0.  0.
587  5.86  0.  0.  0.
588  5.87  0.  0.  0.
589  5.88  0.  0.  0.
590  5.89  0.  0.  0.
591  5.90  0.  0.  0.
592  5.91  0.  0.  0.
593  5.92  0.  0.  0.
594  5.93  0.  0.  0.
595  5.94  0.  0.  0.
596  5.95  0.  0.  0.
597  5.96  0.  0.  0.
598  5.97  0.  0.  0.
599  5.98  0.  0.  0.
600  5.99  0.  0.  0.
1                         1.2973189337180E+01  2.9891001364278E+00  1.9829524712228E-01  1.3319687382141E-02
1  0.0000000000000E+00 -3.4941774057495E-09  7.8878029871610E-09 -7.0569354804206E-09 -3.7279076159358E-08
2  1.0000000000000E-02  1.8506590376565E-03 -8.9670282340676E-04  1.2692249818393E-03 -4.6947912244227E-03
3  2.0000000000000E-02  7.3975313198046E-03 -3.5849414963476E-03  5.0704864228235E-03 -1.8707423915097E-02
4  3.0000000000000E-02  1.6625243239744E-02 -8.0589560929346E-03  1.1384449744443E-02 -4.1823854152450E-02
5  4.0000000000000E-02  2.9507977229037E-02 -1.4308649853066E-02  2.0178581601010E-02 -7.3691249944271E-02
6  5.0000000000000E-02  4.6009186917742E-02 -2.2318860871595E-02  3.1406701934693E-02 -1.1382377572400E-01
7  6.0000000000000E-02  6.6081213162560E-02 -3.2068376054290E-02  4.5008387660545E-02 -1.6161053766976E-01
8  7.0000000000000E-02  8.9664815311196E-02 -4.3528719918704E-02  6.0908257753364E-02 -2.1632554066896E-01
9  8.0000000000000E-02  1.1668863556539E-01 -5.6662758705868E-02  7.9015176565155E-02 -2.7713947047392E-01
10  9.0000000000000E-02  1.4706861736036E-01 -7.1423167136947E-02  9.9221418219761E-02 -3.4313308116281E-01
11  1.0000000000000E-01  1.8070740121749E-01 -8.7750810819845E-02  1.2140183973121E-01 -4.1331193912016E-01
12  1.1000000000000E-01  2.1749372348587E-01 -1.0557310163614E-01  1.4541311392918E-01 -4.8662225096846E-01
13  1.2000000000000E-01  2.5730184471400E-01 -1.2480238629972E-01  1.7109307523126E-01 -5.6196748469312E-01
14  1.3000000000000E-01  2.9999103504964E-01 -1.4533442959243E-01  1.9826023170163E-01 -6.3822548096252E-01
15  1.4000000000000E-01  3.4540514402995E-01 -1.6704705350173E-01  2.2671349563935E-01 -7.1426574558247E-01
16  1.5000000000000E-01  3.9337228139210E-01 -1.8979899160080E-01  2.5623218214705E-01 -7.8896661423319E-01
17  1.6000000000000E-01  4.4370463411387E-01 -2.1342901455296E-01  2.8657632078519E-01 -8.6123198708042E-01
18  1.7000000000000E-01  4.9619844281365E-01 -2.3775537765437E-01  3.1748731959674E-01 -9.3000734335330E-01
19  1.8000000000000E-01  5.5063415793886E-01 -2.6257563495584E-01  3.4868901361329E-01 -9.9429476424245E-01
20  1.9000000000000E-01  6.0677679290896E-01 -2.8766685686249E-01  3.7988912157867E-01 -1.0531667160587E+00
21  2.0000000000000E-01  6.6437648762312E-01 -3.1278627936757E-01  4.1078112523943E-01 -1.1057783739723E+00
22  2.1000000000000E-01  7.2316929157481E-01 -3.3767240342960E-01  4.4104657536479E-01 -1.1513782991754E+00
23  2.2000000000000E-01  7.8287817132767E-01 -3.6204655266935E-01  4.7035781791449E-01 -1.1893173182512E+00
24  2.3000000000000E-01  8.4321424239903E-01 -3.8561488678258E-01  4.9838112272350E-01 -1.2190554920854E+00
25  2.4000000000000E-01  9.0387822077475E-01 -4.0807085708676E-01  5.2478018599018E-01 -1.2401671019617E+00
26  2.5000000000000E-01  9.6456208445086E-01 -4.2909807970246E-01  5.4921996701030E-01 -1.2523436216571E+00
27  2.6000000000000E-01  1.0249509306736E+00 -4.4837359127298E-01  5.7137080926989E-01 -1.2553946854796E+00
28  2.7000000000000E-01  1.0847250100396E+00 -4.6557144210326E-01  5.9091278645987E-01 -1.2492471023696E+00
29  2.8000000000000E-01  1.1435619144243E+00 -4.8036657239596E-01  6.0754020545864E-01 -1.2339420045495E+00
30  2.9000000000000E-01  1.2011388919328E+00 -4.9243890910685E-01  6.2096619107935E-01 -1.2096302549007E+00
31  3.0000000000000E-01  1.2571352587939E+00 -5.0147761403928E-01  6.3092727160263E-01 -1.1765662695285E+00
32  3.1000000000000E-01  1.3112348754358E+00 -5.0718540832901E-01  6.3718787999124E-01 -1.1351004401354E+00
33  3.2000000000000E-01  1.3631286519455E+00 -5.0928289458373E-01  6.3954468335188E-01 -1.0856703642836E+00
34  3.3000000000000E-01  1.4125170467832E+00 -5.0751279575002E-01  6.3783065277182E-01 -1.0287911098984E+00
35  3.4000000000000E-01  1.4591125220311E+00 -5.0164402936013E-01  6.3191878717483E-01 -9.6504475309763E-01
36  3.5000000000000E-01  1.5026419186218E+00 -4.9147553719669E-01  6.2172540832692E-01 -8.9506943538161E-01
37  3.6000000000000E-01  1.5428487159221E+00 -4.7683979359916E-01  6.0721294954504E-01 -8.1954818731021E-01
38  3.7000000000000E-01  1.5794951417200E+00 -4.5760592057438E-01  5.8839216794752E-01 -7.3919776105180E-01
39  3.8000000000000E-01  1.6123641010574E+00 -4.3368234447472E-01  5.6532371910921E-01 -6.5475770380933E-01
40  3.9000000000000E-01  1.6412608954045E+00 -4.0501893714325E-01  5.3811904358599E-01 -5.6697988841581E-01
41  4.0000000000000E-01  1.6660147073336E+00 -3.7160859393017E-01  5.0694052674694E-01 -4.7661869679003E-01
42  4.1000000000000E-01  1.6864798300336E+00 -3.3348821165821E-01  4.7200090646084E-01 -3.8442202700682E-01
43  4.2000000000000E-01  1.7025366256237E+00 -2.9073904122916E-01  4.3356191715644E-01 -2.9112326612529E-01
44  4.3000000000000E-01  1.7140922011741E+00 -2.4348640186418E-01  3.9193217331873E-01 -1.9743433937971E-01
45  4.4000000000000E-01  1.7210807965149E+00 -1.9189875668637E-01  3.4746431028637E-01 -1.0403991269134E-01
46  4.5000000000000E-01  1.7234638831912E+00 -1.3618616219828E-01  3.0055141495030E-01 -1.1592790569233E-02
47  4.6000000000000E-01  1.7212299791919E+00 -7.6598116889988E-02  2.5162279329703E-01  7.9289483757533E-02
48  4.7000000000000E-01  1.7143941892143E+00 -1.3420846442846E-02  2.0113913536437E-01  1.6802685379586E-01
49  4.8000000000000E-01  1.7029974851182E+00  5.3025925513348E-02  1.4958715077102E-01  2.5407786184807E-01
50  4.9000000000000E-01  1.6871057457515E+00  1.2239266164560E-01  9.7473759247800E-02  3.3693973956012E-01
51  5.0000000000000E-01  1.6668085793982E+00  1.9430408149063E-01  4.5319930270532E-02  4.1614759658676E-01
52  5.1000000000000E-01  1.6422179556126E+00  2.6836354192869E-01 -6.3457262690362E-03  4.9127285088600E-01
53  5.2000000000000E-01  1.6134666760778E+00  3.4415764504816E-01 -5.6993510610425E-02  5.6192106354773E-01
54  5.3000000000000E-01  1.5807067163012E+00  4.2126098662941E-01 -1.0609921352891E-01  6.2772935544258E-01
55  5.4000000000000E-01  1.5441074713794E+00  4.9924095615043E-01 -1.5315061391439E-01  6.8836359194855E-01
56  5.5000000000000E-01  1.5038539397040E+00  5.7766249889194E-01 -1.9765378187202E-01  7.4351552531538E-01
57  5.6000000000000E-01  1.4601448783187E+00  6.5609275241989E-01 -2.3913907908118E-01  7.9290008174354E-01
58  5.7000000000000E-01  1.4131909626881E+00  7.3410547342021E-01 -2.7716675384505E-01  8.3625297202203E-01
59  5.8000000000000E-01  1.3632129819223E+00  8.1128517648265E-01 -3.1133203616469E-01  8.7332879076464E-01
60  5.9000000000000E-01  1.3104400980638E+00  8.8723091385466E-01 -3.4126964812122E-01  9.0389975024553E-01
61  6.0000000000000E-01  1.2551081949443E+00  9.6155963425164E-01 -3.6665765665043E-01  9.2775517102540E-01
62  6.1000000000000E-01  1.1974583384427E+00  1.0339090693071E+00 -3.8722060918602E-01  9.4470182358537E-01
63  6.2000000000000E-01  1.1377353658080E+00  1.1039401079382E+00 -4.0273190735766E-01  9.5456518376550E-01
64  6.3000000000000E-01  1.0761866171650E+00  1.1713386315101E+00 -4.1301538962117E-01  9.5719163075761E-01
65  6.4000000000000E-01  1.0130608175088E+00  1.2358167959161E+00 -4.1794611003617E-01  9.5245158063228E-01
66  6.5000000000000E-01  9.4860711254339E-01  1.2971137602251E+00 -4.1745031701433E-01  9.4024351184803E-01
67  6.6000000000000E-01  8.8307425675597E-01  1.3549958750626E+00 -4.1150465237081E-01  9.2049880290173E-01
68  6.7000000000000E-01  8.1670994727510E-01  1.4092563570539E+00 -4.0013460703830E-01  8.9318726724014E-01
69  6.8000000000000E-01  7.4976029246454E-01  1.4597144881418E+00 -3.8341228498198E-01  8.5832323777075E-01
70  6.9000000000000E-01  6.8246939997860E-01  1.5062143900858E+00 -3.6145354082548E-01  8.1597202374388E-01