Uu    ONCVPSP-4.0.1  r_core=   1.40194   1.30483   1.30483   1.60873
119.0000     27.0000      230612    zatom,zion,pspd
8      11   3     4   600     0    pspcod,pspxc,lmax,lloc,mmax,r2well
5.99000000  5.00000000  0.00000000    rchrg fchrg qchrg
3     2     2     1     0    nproj
1     1           extension_switch
0                         1.9886968459928E+01  1.6303389969714E+00 -8.0996912853895E-01
1  0.0000000000000E+00 -3.3966289780807E-08  1.2964746343158E-07 -2.5886964155619E-08
2  1.0000000000000E-02  1.2827755985139E-01 -9.6058457796506E-02  2.7009884091532E-02
3  2.0000000000000E-02  2.5563503239192E-01 -1.8996486743016E-01  5.3646088210170E-02
4  3.0000000000000E-02  3.8116733376757E-01 -2.7961839610403E-01  7.9544753525765E-02
5  4.0000000000000E-02  5.0399903574060E-01 -3.6301932769042E-01  1.0436140465892E-01
6  5.0000000000000E-02  6.2329832434536E-01 -4.3831637061769E-01  1.2778000125643E-01
7  6.0000000000000E-02  7.3828994077178E-01 -5.0385016146883E-01  1.4952124062078E-01
8  7.0000000000000E-02  8.4826680651271E-01 -5.5819185383634E-01  1.6934989323968E-01
9  8.0000000000000E-02  9.5260006877753E-01 -6.0017581162544E-01  1.8708097894848E-01
10  9.0000000000000E-02  1.0507473428940E+00 -6.2892558139523E-01  2.0258462246863E-01
11  1.0000000000000E-01  1.1422589748044E+00 -6.4387249530317E-01  2.1578946235435E-01
12  1.1000000000000E-01  1.2267821975711E+00 -6.4476645002167E-01  2.2668452598839E-01
13  1.2000000000000E-01  1.3040631096896E+00 -6.3167861244258E-01  2.3531952414793E-01
14  1.3000000000000E-01  1.3739464585240E+00 -6.0499601457408E-01  2.4180356070510E-01
15  1.4000000000000E-01  1.4363732678655E+00 -5.6540821211974E-01  2.4630229509465E-01
16  1.5000000000000E-01  1.4913764029884E+00 -5.1388638816501E-01  2.4903363614045E-01
17  1.6000000000000E-01  1.5390742182104E+00 -4.5165547967921E-01  2.5026208457670E-01
18  1.7000000000000E-01  1.5796624794963E+00 -3.8016008498586E-01  2.5029187709350E-01
19  1.8000000000000E-01  1.6134047968443E+00 -3.0102507019426E-01  2.4945911602835E-01
20  1.9000000000000E-01  1.6406218369574E+00 -2.1601192764833E-01  2.4812309508712E-01
21  2.0000000000000E-01  1.6616796151270E+00 -1.2697204621513E-01  2.4665705201903E-01
22  2.1000000000000E-01  1.6769771856225E+00 -3.5798128976557E-02  2.4543859345563E-01
23  2.2000000000000E-01  1.6869340616900E+00  5.5624963290818E-02  2.4484004479645E-01
24  2.3000000000000E-01  1.6919776992670E+00  1.4546865556867E-01  2.4521897890111E-01
25  2.4000000000000E-01  1.6925313726768E+00  2.3200712682296E-01  2.4690917143838E-01
26  2.5000000000000E-01  1.6890027561037E+00  3.1366059915845E-01  2.5021221823491E-01
27  2.6000000000000E-01  1.6817735019982E+00  3.8903433386689E-01  2.5539003123102E-01
28  2.7000000000000E-01  1.6711900773901E+00  4.5695233908981E-01  2.6265840522243E-01
29  2.8000000000000E-01  1.6575560822447E+00  5.1648493823831E-01  2.7218181813360E-01
30  2.9000000000000E-01  1.6411262315188E+00  5.6696951441036E-01  2.8406959394994E-01
31  3.0000000000000E-01  1.6221021356328E+00  6.0802392931649E-01  2.9837352056183E-01
32  3.1000000000000E-01  1.6006299639527E+00  6.3955231070429E-01  3.1508697565328E-01
33  3.2000000000000E-01  1.5768000239454E+00  6.6174310470405E-01  3.3414557347103E-01
34  3.3000000000000E-01  1.5506482363146E+00  6.7505949351661E-01  3.5542930492356E-01
35  3.4000000000000E-01  1.5221594350687E+00  6.8022247899383E-01  3.7876610407621E-01
36  3.5000000000000E-01  1.4912723724521E+00  6.7818712367551E-01  4.0393673677540E-01
37  3.6000000000000E-01  1.4578862633027E+00  6.7011261773720E-01  4.3068087284514E-01
38  3.7000000000000E-01  1.4218686628506E+00  6.5732699848765E-01  4.5870417295292E-01
39  3.8000000000000E-01  1.3830644372907E+00  6.4128748449623E-01  4.8768619562431E-01
40  3.9000000000000E-01  1.3413055585270E+00  6.2353749569543E-01  5.1728890965281E-01
41  4.0000000000000E-01  1.2964214339880E+00  6.0566151120686E-01  5.4716558280457E-01
42  4.1000000000000E-01  1.2482494698322E+00  5.8923896627662E-01  5.7696980959518E-01
43  4.2000000000000E-01  1.1966455614740E+00  5.7579840748570E-01  6.0636443918964E-01
44  4.3000000000000E-01  1.1414942092050E+00  5.6677311112643E-01  6.3503016913557E-01
45  4.4000000000000E-01  1.0827179685966E+00  5.6345932390412E-01  6.6267358151196E-01
46  4.5000000000000E-01  1.0202859649512E+00  5.6697820942844E-01  6.8903441480788E-01
47  4.6000000000000E-01  9.5422122773723E-01  5.7824248050411E-01  7.1389188694512E-01
48  4.7000000000000E-01  8.8460663392494E-01  5.9792856899781E-01  7.3706991167707E-01
49  4.8000000000000E-01  8.1158928749286E-01  6.2645503560428E-01  7.5844108137570E-01
50  4.9000000000000E-01  7.3538320503744E-01  6.6396775529984E-01  7.7792932308889E-01
51  5.0000000000000E-01  6.5627022321336E-01  7.1033223513624E-01  7.9551117078041E-01
52  5.1000000000000E-01  5.7459909140916E-01  7.6513323415031E-01  8.1121563385666E-01
53  5.2000000000000E-01  4.9078276134267E-01  8.2768166547806E-01  8.2512267943214E-01
54  5.3000000000000E-01  4.0529393285285E-01  8.9702857327573E-01  8.3736038228297E-01
55  5.4000000000000E-01  3.1865896080998E-01  9.7198579665546E-01  8.4810083110649E-01
56  5.5000000000000E-01  2.3145027057992E-01  1.0511527641651E+00  8.5755491163944E-01
57  5.6000000000000E-01  1.4427746775464E-01  1.1329487097019E+00  8.6596611554563E-01
58  5.7000000000000E-01  5.7777360937861E-02  1.2156494679443E+00  8.7360354804944E-01
59  5.8000000000000E-01 -2.7396856576366E-02  1.2974278976812E+00  8.8075432645569E-01
60  5.9000000000000E-01 -1.1058700002588E-01  1.3763968974389E+00  8.8771557549776E-01
61  6.0000000000000E-01 -1.9114158187442E-01  1.4506539214391E+00  8.9478623358149E-01
62  6.1000000000000E-01 -2.6842751074728E-01  1.5183258763362E+00  9.0225888628547E-01
63  6.2000000000000E-01 -3.4184151706898E-01  1.5776132807735E+00  9.1041183994327E-01
64  6.3000000000000E-01 -4.1082103091646E-01  1.6268326001511E+00  9.1950163893298E-01
65  6.4000000000000E-01 -4.7485425369397E-01  1.6644557270075E+00  9.2975621574925E-01
66  6.5000000000000E-01 -5.3348918786192E-01  1.6891456612005E+00  9.4136884348839E-01
67  6.6000000000000E-01 -5.8634141743283E-01  1.6997875511338E+00  9.5449303662783E-01
68  6.7000000000000E-01 -6.3310046545946E-01  1.6955143845020E+00  9.6923851862248E-01
69  6.8000000000000E-01 -6.7353459234182E-01  1.6757267608704E+00  9.8566834465795E-01
70  6.9000000000000E-01 -7.0749393940846E-01  1.6401063348149E+00  1.0037972357620E+00
71  7.0000000000000E-01 -7.3491196479143E-01  1.5886226831495E+00  1.0235911472678E+00
72  7.1000000000000E-01 -7.5580516193724E-01  1.5215335184502E+00  1.0449680612845E+00
73  7.2000000000000E-01 -7.7027109404156E-01  1.4393783392404E+00  1.0677999602621E+00
74  7.3000000000000E-01 -7.7848481911198E-01  1.3429657703916E+00  1.0919159078365E+00
75  7.4000000000000E-01 -7.8069381918600E-01  1.2333550013300E+00  1.1171061347285E+00
76  7.5000000000000E-01 -7.7721158245747E-01  1.1118318706106E+00  1.1431270023032E+00
77  7.6000000000000E-01 -7.6841001781614E-01  9.7988026982529E-01  1.1697066951254E+00
78  7.7000000000000E-01 -7.5471090682162E-01  8.3914964462046E-01  1.1965514770201E+00
79  7.8000000000000E-01 -7.3657661782452E-01  6.9141945339383E-01  1.2233523331613E+00
80  7.9000000000000E-01 -7.1450032036643E-01  5.3856150314931E-01  1.2497918138599E+00
81  8.0000000000000E-01 -6.8899594488753E-01  3.8250111589151E-01  1.2755508941041E+00
82  8.1000000000000E-01 -6.6058813306071E-01  2.2517808733327E-01  1.3003156665293E+00
83  8.2000000000000E-01 -6.2980241785898E-01  6.8508382802907E-02  1.3237836941654E+00
84  8.3000000000000E-01 -5.9715586002566E-01 -8.5652526046058E-02  1.3456698627417E+00
85  8.4000000000000E-01 -5.6314834939877E-01 -2.3554384425609E-01  1.3657115900675E+00
86  8.5000000000000E-01 -5.2825475613950E-01 -3.7953040171534E-01  1.3836732715095E+00
87  8.6000000000000E-01 -4.9291808906021E-01 -5.1612971476117E-01  1.3993498651798E+00
88  8.7000000000000E-01 -4.5754378678171E-01 -6.4403462745663E-01  1.4125695474128E+00
89  8.8000000000000E-01 -4.2249523330846E-01 -7.6213112813353E-01  1.4231953976245E+00
90  8.9000000000000E-01 -3.8809055378049E-01 -8.6951107394678E-01  1.4311261008929E+00
91  9.0000000000000E-01 -3.5460070967368E-01 -9.6547969721026E-01  1.4362956857114E+00
92  9.1000000000000E-01 -3.2224887660074E-01 -1.0495579082756E+00  1.4386723425121E+00
93  9.2000000000000E-01 -2.9121105312311E-01 -1.1214795467930E+00  1.4382563949232E+00
94  9.3000000000000E-01 -2.6161781656783E-01 -1.1811838626783E+00  1.4350775195692E+00
95  9.4000000000000E-01 -2.3355711263039E-01 -1.2288036265673E+00  1.4291913308638E+00
96  9.5000000000000E-01 -2.0707794030535E-01 -1.2646493739027E+00  1.4206754641203E+00
97  9.6000000000000E-01 -1.8219477306995E-01 -1.2891903744508E+00  1.4096253029345E+00
98  9.7000000000000E-01 -1.5889254176204E-01 -1.3030329878642E+00  1.3961495048628E+00
99  9.8000000000000E-01 -1.3713199459670E-01 -1.3068971143344E+00  1.3803654827036E+00
100  9.9000000000000E-01 -1.1685524545063E-01 -1.3015914764778E+00  1.3623949971452E+00
101  1.0000000000000E+00 -9.7991322944805E-02 -1.2879884739754E+00  1.3423600102323E+00
102  1.0100000000000E+00 -8.0461539829129E-02 -1.2669993364791E+00  1.3203789382608E+00
103  1.0200000000000E+00 -6.4184514431063E-02 -1.2395502637364E+00  1.2965634276708E+00
104  1.0300000000000E+00 -4.9080693039999E-02 -1.2065601861946E+00  1.2710157587365E+00
105  1.0400000000000E+00 -3.5076243461630E-02 -1.1689207065501E+00  1.2438269599496E+00
106  1.0500000000000E+00 -2.2106214918246E-02 -1.1274786951729E+00  1.2150756915994E+00
107  1.0600000000000E+00 -1.0116887228771E-02 -1.0830219127546E+00  1.1848279308879E+00
108  1.0700000000000E+00  9.3273816683049E-04 -1.0362679252951E+00  1.1531374638445E+00
109  1.0800000000000E+00  1.1070322029488E-02 -9.8785646243385E-01  1.1200471619959E+00
110  1.0900000000000E+00  2.0310431883524E-02 -9.3834525402619E-01  1.0855909951427E+00
111  1.1000000000000E+00  2.8655603184232E-02 -8.8820926484196E-01  1.0497967063987E+00
112  1.1100000000000E+00  3.6098144550579E-02 -8.3784313650047E-01  1.0126890525890E+00
113  1.1200000000000E+00  4.2622588665414E-02 -7.8756654281573E-01  9.7429349294074E-01
114  1.1300000000000E+00  4.8208667653511E-02 -7.3763207154917E-01  9.3464019215687E-01
115  1.1400000000000E+00  5.2834672880577E-02 -6.8823516561114E-01  8.9376819108905E-01
116  1.1500000000000E+00  5.6481044403619E-02 -6.3952559087869E-01  8.5172958950699E-01
117  1.1600000000000E+00  5.9134025316441E-02 -5.9161984852428E-01  8.0859358123925E-01
118  1.1700000000000E+00  6.0789211006680E-02 -5.4461391719929E-01  7.6445018225988E-01
119  1.1800000000000E+00  6.1454823006794E-02 -4.9859569556273E-01  7.1941349704820E-01
120  1.1900000000000E+00  6.1154541555200E-02 -4.5365651805904E-01  6.7362437762802E-01
121  1.2000000000000E+00  5.9929739902954E-02 -4.0990113592692E-01  6.2725234268436E-01
122  1.2100000000000E+00  5.7840976424858E-02 -3.6745558992022E-01  5.8049664065823E-01
123  1.2200000000000E+00  5.4968617275348E-02 -3.2647244975130E-01  5.3358636024929E-01
124  1.2300000000000E+00  5.1412481810471E-02 -2.8713295503418E-01  4.8677951341329E-01
125  1.2400000000000E+00  4.7290424951357E-02 -2.4964566232783E-01  4.4036103943423E-01
126  1.2500000000000E+00  4.2735793880056E-02 -2.1424127874686E-01  3.9463970274403E-01
127  1.2600000000000E+00  3.7893720417230E-02 -1.8116344263043E-01  3.4994388139216E-01
128  1.2700000000000E+00  3.2916234276454E-02 -1.5065529301208E-01  3.0661626659748E-01
129  1.2800000000000E+00  2.7956205111394E-02 -1.2294174855747E-01  2.6500751569222E-01
130  1.2900000000000E+00  2.3160140790467E-02 -9.8207483229740E-02  2.2546892101246E-01
131  1.3000000000000E+00  1.8659920926696E-02 -7.6570828199171E-02  1.8834416077510E-01
132  1.3100000000000E+00  1.4563428354241E-02 -5.8053130784319E-02  1.5396031165836E-01
133  1.3200000000000E+00  1.0949450661171E-02 -4.2572153795589E-02  1.2261580954673E-01
134  1.3300000000000E+00  7.8738474137916E-03 -2.9991575900523E-02  9.4567246597667E-02
135  1.3400000000000E+00  5.3334144808536E-03 -2.0018986422192E-02  6.9977414483742E-02
136  1.3500000000000E+00  3.2946103942898E-03 -1.2300396852252E-02  4.8948902350201E-02
137  1.3600000000000E+00  1.7853248691475E-03 -6.7209528042226E-03  3.1638106240949E-02
138  1.3700000000000E+00  7.8706618392644E-04 -3.0634134389725E-03  1.8125609850363E-02
139  1.3800000000000E+00  2.3644233103177E-04 -1.0139889441336E-03  8.4198227756947E-03
140  1.3900000000000E+00  2.5336324867139E-05 -1.6222044353944E-04  2.4285189189294E-03
141  1.4000000000000E+00 -1.3578738320052E-06 -2.3527457770749E-08  1.1234682386200E-04
142  1.4100000000000E+00  1.0799553047211E-07 -1.4080557700689E-07 -4.9259169196485E-06
143  1.4200000000000E+00 -4.1623515777399E-09  6.6986659133801E-08 -1.5132750233310E-06
144  1.43 -0.  0. -0.
145  1.44  0.  0.  0.
146  1.45  0.  0.  0.
147  1.46  0.  0.  0.
148  1.47  0.  0.  0.
149  1.48  0.  0.  0.
150  1.49  0.  0.  0.
151  1.50  0.  0.  0.
152  1.51  0.  0.  0.
153  1.52  0.  0.  0.
154  1.53  0.  0.  0.
155  1.54  0.  0.  0.
156  1.55  0.  0.  0.
157  1.56  0.  0.  0.
158  1.57  0.  0.  0.
159  1.58  0.  0.  0.
160  1.59  0.  0.  0.
161  1.60  0.  0.  0.
162  1.61  0.  0.  0.
163  1.62  0.  0.  0.
164  1.63  0.  0.  0.
165  1.64  0.  0.  0.
166  1.65  0.  0.  0.
167  1.66  0.  0.  0.
168  1.67  0.  0.  0.
169  1.68  0.  0.  0.
170  1.69  0.  0.  0.
171  1.70  0.  0.  0.
172  1.71  0.  0.  0.
173  1.72  0.  0.  0.
174  1.73  0.  0.  0.
175  1.74  0.  0.  0.
176  1.75  0.  0.  0.
177  1.76  0.  0.  0.
178  1.77  0.  0.  0.
179  1.78  0.  0.  0.
180  1.79  0.  0.  0.
181  1.80  0.  0.  0.
182  1.81  0.  0.  0.
183  1.82  0.  0.  0.
184  1.83  0.  0.  0.
185  1.84  0.  0.  0.
186  1.85  0.  0.  0.
187  1.86  0.  0.  0.
188  1.87  0.  0.  0.
189  1.88  0.  0.  0.
190  1.89  0.  0.  0.
191  1.90  0.  0.  0.
192  1.91  0.  0.  0.
193  1.92  0.  0.  0.
194  1.93  0.  0.  0.
195  1.94  0.  0.  0.
196  1.95  0.  0.  0.
197  1.96  0.  0.  0.
198  1.97  0.  0.  0.
199  1.98  0.  0.  0.
200  1.99  0.  0.  0.
201  2.00  0.  0.  0.
202  2.01  0.  0.  0.
203  2.02  0.  0.  0.
204  2.03  0.  0.  0.
205  2.04  0.  0.  0.
206  2.05  0.  0.  0.
207  2.06  0.  0.  0.
208  2.07  0.  0.  0.
209  2.08  0.  0.  0.
210  2.09  0.  0.  0.
211  2.10  0.  0.  0.
212  2.11  0.  0.  0.
213  2.12  0.  0.  0.
214  2.13  0.  0.  0.
215  2.14  0.  0.  0.
216  2.15  0.  0.  0.
217  2.16  0.  0.  0.
218  2.17  0.  0.  0.
219  2.18  0.  0.  0.
220  2.19  0.  0.  0.
221  2.20  0.  0.  0.
222  2.21  0.  0.  0.
223  2.22  0.  0.  0.
224  2.23  0.  0.  0.
225  2.24  0.  0.  0.
226  2.25  0.  0.  0.
227  2.26  0.  0.  0.
228  2.27  0.  0.  0.
229  2.28  0.  0.  0.
230  2.29  0.  0.  0.
231  2.30  0.  0.  0.
232  2.31  0.  0.  0.
233  2.32  0.  0.  0.
234  2.33  0.  0.  0.
235  2.34  0.  0.  0.
236  2.35  0.  0.  0.
237  2.36  0.  0.  0.
238  2.37  0.  0.  0.
239  2.38  0.  0.  0.
240  2.39  0.  0.  0.
241  2.40  0.  0.  0.
242  2.41  0.  0.  0.
243  2.42  0.  0.  0.
244  2.43  0.  0.  0.
245  2.44  0.  0.  0.
246  2.45  0.  0.  0.
247  2.46  0.  0.  0.
248  2.47  0.  0.  0.
249  2.48  0.  0.  0.
250  2.49  0.  0.  0.
251  2.50  0.  0.  0.
252  2.51  0.  0.  0.
253  2.52  0.  0.  0.
254  2.53  0.  0.  0.
255  2.54  0.  0.  0.
256  2.55  0.  0.  0.
257  2.56  0.  0.  0.
258  2.57  0.  0.  0.
259  2.58  0.  0.  0.
260  2.59  0.  0.  0.
261  2.60  0.  0.  0.
262  2.61  0.  0.  0.
263  2.62  0.  0.  0.
264  2.63  0.  0.  0.
265  2.64  0.  0.  0.
266  2.65  0.  0.  0.
267  2.66  0.  0.  0.
268  2.67  0.  0.  0.
269  2.68  0.  0.  0.
270  2.69  0.  0.  0.
271  2.70  0.  0.  0.
272  2.71  0.  0.  0.
273  2.72  0.  0.  0.
274  2.73  0.  0.  0.
275  2.74  0.  0.  0.
276  2.75  0.  0.  0.
277  2.76  0.  0.  0.
278  2.77  0.  0.  0.
279  2.78  0.  0.  0.
280  2.79  0.  0.  0.
281  2.80  0.  0.  0.
282  2.81  0.  0.  0.
283  2.82  0.  0.  0.
284  2.83  0.  0.  0.
285  2.84  0.  0.  0.
286  2.85  0.  0.  0.
287  2.86  0.  0.  0.
288  2.87  0.  0.  0.
289  2.88  0.  0.  0.
290  2.89  0.  0.  0.
291  2.90  0.  0.  0.
292  2.91  0.  0.  0.
293  2.92  0.  0.  0.
294  2.93  0.  0.  0.
295  2.94  0.  0.  0.
296  2.95  0.  0.  0.
297  2.96  0.  0.  0.
298  2.97  0.  0.  0.
299  2.98  0.  0.  0.
300  2.99  0.  0.  0.
301  3.00  0.  0.  0.
302  3.01  0.  0.  0.
303  3.02  0.  0.  0.
304  3.03  0.  0.  0.
305  3.04  0.  0.  0.
306  3.05  0.  0.  0.
307  3.06  0.  0.  0.
308  3.07  0.  0.  0.
309  3.08  0.  0.  0.
310  3.09  0.  0.  0.
311  3.10  0.  0.  0.
312  3.11  0.  0.  0.
313  3.12  0.  0.  0.
314  3.13  0.  0.  0.
315  3.14  0.  0.  0.
316  3.15  0.  0.  0.
317  3.16  0.  0.  0.
318  3.17  0.  0.  0.
319  3.18  0.  0.  0.
320  3.19  0.  0.  0.
321  3.20  0.  0.  0.
322  3.21  0.  0.  0.
323  3.22  0.  0.  0.
324  3.23  0.  0.  0.
325  3.24  0.  0.  0.
326  3.25  0.  0.  0.
327  3.26  0.  0.  0.
328  3.27  0.  0.  0.
329  3.28  0.  0.  0.
330  3.29  0.  0.  0.
331  3.30  0.  0.  0.
332  3.31  0.  0.  0.
333  3.32  0.  0.  0.
334  3.33  0.  0.  0.
335  3.34  0.  0.  0.
336  3.35  0.  0.  0.
337  3.36  0.  0.  0.
338  3.37  0.  0.  0.
339  3.38  0.  0.  0.
340  3.39  0.  0.  0.
341  3.40  0.  0.  0.
342  3.41  0.  0.  0.
343  3.42  0.  0.  0.
344  3.43  0.  0.  0.
345  3.44  0.  0.  0.
346  3.45  0.  0.  0.
347  3.46  0.  0.  0.
348  3.47  0.  0.  0.
349  3.48  0.  0.  0.
350  3.49  0.  0.  0.
351  3.50  0.  0.  0.
352  3.51  0.  0.  0.
353  3.52  0.  0.  0.
354  3.53  0.  0.  0.
355  3.54  0.  0.  0.
356  3.55  0.  0.  0.
357  3.56  0.  0.  0.
358  3.57  0.  0.  0.
359  3.58  0.  0.  0.
360  3.59  0.  0.  0.
361  3.60  0.  0.  0.
362  3.61  0.  0.  0.
363  3.62  0.  0.  0.
364  3.63  0.  0.  0.
365  3.64  0.  0.  0.
366  3.65  0.  0.  0.
367  3.66  0.  0.  0.
368  3.67  0.  0.  0.
369  3.68  0.  0.  0.
370  3.69  0.  0.  0.
371  3.70  0.  0.  0.
372  3.71  0.  0.  0.
373  3.72  0.  0.  0.
374  3.73  0.  0.  0.
375  3.74  0.  0.  0.
376  3.75  0.  0.  0.
377  3.76  0.  0.  0.
378  3.77  0.  0.  0.
379  3.78  0.  0.  0.
380  3.79  0.  0.  0.
381  3.80  0.  0.  0.
382  3.81  0.  0.  0.
383  3.82  0.  0.  0.
384  3.83  0.  0.  0.
385  3.84  0.  0.  0.
386  3.85  0.  0.  0.
387  3.86  0.  0.  0.
388  3.87  0.  0.  0.
389  3.88  0.  0.  0.
390  3.89  0.  0.  0.
391  3.90  0.  0.  0.
392  3.91  0.  0.  0.
393  3.92  0.  0.  0.
394  3.93  0.  0.  0.
395  3.94  0.  0.  0.
396  3.95  0.  0.  0.
397  3.96  0.  0.  0.
398  3.97  0.  0.  0.
399  3.98  0.  0.  0.
400  3.99  0.  0.  0.
401  4.00  0.  0.  0.
402  4.01  0.  0.  0.
403  4.02  0.  0.  0.
404  4.03  0.  0.  0.
405  4.04  0.  0.  0.
406  4.05  0.  0.  0.
407  4.06  0.  0.  0.
408  4.07  0.  0.  0.
409  4.08  0.  0.  0.
410  4.09  0.  0.  0.
411  4.10  0.  0.  0.
412  4.11  0.  0.  0.
413  4.12  0.  0.  0.
414  4.13  0.  0.  0.
415  4.14  0.  0.  0.
416  4.15  0.  0.  0.
417  4.16  0.  0.  0.
418  4.17  0.  0.  0.
419  4.18  0.  0.  0.
420  4.19  0.  0.  0.
421  4.20  0.  0.  0.
422  4.21  0.  0.  0.
423  4.22  0.  0.  0.
424  4.23  0.  0.  0.
425  4.24  0.  0.  0.
426  4.25  0.  0.  0.
427  4.26  0.  0.  0.
428  4.27  0.  0.  0.
429  4.28  0.  0.  0.
430  4.29  0.  0.  0.
431  4.30  0.  0.  0.
432  4.31  0.  0.  0.
433  4.32  0.  0.  0.
434  4.33  0.  0.  0.
435  4.34  0.  0.  0.
436  4.35  0.  0.  0.
437  4.36  0.  0.  0.
438  4.37  0.  0.  0.
439  4.38  0.  0.  0.
440  4.39  0.  0.  0.
441  4.40  0.  0.  0.
442  4.41  0.  0.  0.
443  4.42  0.  0.  0.
444  4.43  0.  0.  0.
445  4.44  0.  0.  0.
446  4.45  0.  0.  0.
447  4.46  0.  0.  0.
448  4.47  0.  0.  0.
449  4.48  0.  0.  0.
450  4.49  0.  0.  0.
451  4.50  0.  0.  0.
452  4.51  0.  0.  0.
453  4.52  0.  0.  0.
454  4.53  0.  0.  0.
455  4.54  0.  0.  0.
456  4.55  0.  0.  0.
457  4.56  0.  0.  0.
458  4.57  0.  0.  0.
459  4.58  0.  0.  0.
460  4.59  0.  0.  0.
461  4.60  0.  0.  0.
462  4.61  0.  0.  0.
463  4.62  0.  0.  0.
464  4.63  0.  0.  0.
465  4.64  0.  0.  0.
466  4.65  0.  0.  0.
467  4.66  0.  0.  0.
468  4.67  0.  0.  0.
469  4.68  0.  0.  0.
470  4.69  0.  0.  0.
471  4.70  0.  0.  0.
472  4.71  0.  0.  0.
473  4.72  0.  0.  0.
474  4.73  0.  0.  0.
475  4.74  0.  0.  0.
476  4.75  0.  0.  0.
477  4.76  0.  0.  0.
478  4.77  0.  0.  0.
479  4.78  0.  0.  0.
480  4.79  0.  0.  0.
481  4.80  0.  0.  0.
482  4.81  0.  0.  0.
483  4.82  0.  0.  0.
484  4.83  0.  0.  0.
485  4.84  0.  0.  0.
486  4.85  0.  0.  0.
487  4.86  0.  0.  0.
488  4.87  0.  0.  0.
489  4.88  0.  0.  0.
490  4.89  0.  0.  0.
491  4.90  0.  0.  0.
492  4.91  0.  0.  0.
493  4.92  0.  0.  0.
494  4.93  0.  0.  0.
495  4.94  0.  0.  0.
496  4.95  0.  0.  0.
497  4.96  0.  0.  0.
498  4.97  0.  0.  0.
499  4.98  0.  0.  0.
500  4.99  0.  0.  0.
501  5.00  0.  0.  0.
502  5.01  0.  0.  0.
503  5.02  0.  0.  0.
504  5.03  0.  0.  0.
505  5.04  0.  0.  0.
506  5.05  0.  0.  0.
507  5.06  0.  0.  0.
508  5.07  0.  0.  0.
509  5.08  0.  0.  0.
510  5.09  0.  0.  0.
511  5.10  0.  0.  0.
512  5.11  0.  0.  0.
513  5.12  0.  0.  0.
514  5.13  0.  0.  0.
515  5.14  0.  0.  0.
516  5.15  0.  0.  0.
517  5.16  0.  0.  0.
518  5.17  0.  0.  0.
519  5.18  0.  0.  0.
520  5.19  0.  0.  0.
521  5.20  0.  0.  0.
522  5.21  0.  0.  0.
523  5.22  0.  0.  0.
524  5.23  0.  0.  0.
525  5.24  0.  0.  0.
526  5.25  0.  0.  0.
527  5.26  0.  0.  0.
528  5.27  0.  0.  0.
529  5.28  0.  0.  0.
530  5.29  0.  0.  0.
531  5.30  0.  0.  0.
532  5.31  0.  0.  0.
533  5.32  0.  0.  0.
534  5.33  0.  0.  0.
535  5.34  0.  0.  0.
536  5.35  0.  0.  0.
537  5.36  0.  0.  0.
538  5.37  0.  0.  0.
539  5.38  0.  0.  0.
540  5.39  0.  0.  0.
541  5.40  0.  0.  0.
542  5.41  0.  0.  0.
543  5.42  0.  0.  0.
544  5.43  0.  0.  0.
545  5.44  0.  0.  0.
546  5.45  0.  0.  0.
547  5.46  0.  0.  0.
548  5.47  0.  0.  0.
549  5.48  0.  0.  0.
550  5.49  0.  0.  0.
551  5.50  0.  0.  0.
552  5.51  0.  0.  0.
553  5.52  0.  0.  0.
554  5.53  0.  0.  0.
555  5.54  0.  0.  0.
556  5.55  0.  0.  0.
557  5.56  0.  0.  0.
558  5.57  0.  0.  0.
559  5.58  0.  0.  0.
560  5.59  0.  0.  0.
561  5.60  0.  0.  0.
562  5.61  0.  0.  0.
563  5.62  0.  0.  0.
564  5.63  0.  0.  0.
565  5.64  0.  0.  0.
566  5.65  0.  0.  0.
567  5.66  0.  0.  0.
568  5.67  0.  0.  0.
569  5.68  0.  0.  0.
570  5.69  0.  0.  0.
571  5.70  0.  0.  0.
572  5.71  0.  0.  0.
573  5.72  0.  0.  0.
574  5.73  0.  0.  0.
575  5.74  0.  0.  0.
576  5.75  0.  0.  0.
577  5.76  0.  0.  0.
578  5.77  0.  0.  0.
579  5.78  0.  0.  0.
580  5.79  0.  0.  0.
581  5.80  0.  0.  0.
582  5.81  0.  0.  0.
583  5.82  0.  0.  0.
584  5.83  0.  0.  0.
585  5.84  0.  0.  0.
586  5.85  0.  0.  0.
587  5.86  0.  0.  0.
588  5.87  0.  0.  0.
589  5.88  0.  0.  0.
590  5.89  0.  0.  0.
591  5.90  0.  0.  0.
592  5.91  0.  0.  0.
593  5.92  0.  0.  0.
594  5.93  0.  0.  0.
595  5.94  0.  0.  0.
596  5.95  0.  0.  0.
597  5.96  0.  0.  0.
598  5.97  0.  0.  0.
599  5.98  0.  0.  0.
600  5.99  0.  0.  0.
1                         1.1205675997379E+01 -2.2902684117827E-01
1  0.0000000000000E+00  2.7978314109944E-10 -1.3203184805882E-07
2  1.0000000000000E-02  2.3887898549844E-03 -1.0912265812884E-05
3  2.0000000000000E-02  9.5417189928105E-03  1.2392665661927E-05
4  3.0000000000000E-02  2.1418537449533E-02  2.3553835971908E-04
5  4.0000000000000E-02  3.7952399650943E-02  9.2631343147697E-04
6  5.0000000000000E-02  5.9050220855973E-02  2.4426009590196E-03
7  6.0000000000000E-02  8.4593175913822E-02  5.2160802306792E-03
8  7.0000000000000E-02  1.1443733994870E-01  9.7322778369395E-03
9  8.0000000000000E-02  1.4841447030636E-01  1.6507677149286E-02
10  9.0000000000000E-02  1.8633292869879E-01  2.6064704073650E-02
11  1.0000000000000E-01  2.2797874195181E-01  3.8905488994960E-02
12  1.1000000000000E-01  2.7311679908339E-01  5.5485357269063E-02
13  1.2000000000000E-01  3.2149218161378E-01  7.6187021625020E-02
14  1.3000000000000E-01  3.7283162303390E-01  1.0129643856067E-01
15  1.4000000000000E-01  4.2684509224263E-01  1.3098124742426E-01
16  1.5000000000000E-01  4.8322749452292E-01  1.6527263656319E-01
17  1.6000000000000E-01  5.4166048227947E-01  2.0405137787241E-01
18  1.7000000000000E-01  6.0181436633542E-01  2.4703864238467E-01
19  1.8000000000000E-01  6.6335011711165E-01  2.9379205915079E-01
20  1.9000000000000E-01  7.2592144352581E-01  3.4370731219671E-01
21  2.0000000000000E-01  7.8917693598833E-01  3.9602539102636E-01
22  2.1000000000000E-01  8.5276225847816E-01  4.4984542458675E-01
23  2.2000000000000E-01  9.1632237339499E-01  5.0414284267961E-01
24  2.3000000000000E-01  9.7950378174677E-01  5.5779242840565E-01
25  2.4000000000000E-01  1.0419567602812E+00  6.0959565615366E-01
26  2.5000000000000E-01  1.1033375764435E+00  6.5831155737791E-01
27  2.6000000000000E-01  1.1633106615724E+00  7.0269022594823E-01
28  2.7000000000000E-01  1.2215507225574E+00  7.4150797058477E-01
29  2.8000000000000E-01  1.2777447722986E+00  7.7360304739574E-01
30  2.9000000000000E-01  1.3315940597388E+00  7.9791086353737E-01
31  3.0000000000000E-01  1.3828158809983E+00  8.1349753524137E-01
32  3.1000000000000E-01  1.4311452542165E+00  8.1959071059961E-01
33  3.2000000000000E-01  1.4763364420971E+00  8.1560662918525E-01
34  3.3000000000000E-01  1.5181643078371E+00  8.0117248538669E-01
35  3.4000000000000E-01  1.5564254920709E+00  7.7614328776573E-01
36  3.5000000000000E-01  1.5909394006543E+00  7.4061255939487E-01
37  3.6000000000000E-01  1.6215489954953E+00  6.9491639968001E-01
38  3.7000000000000E-01  1.6481213831810E+00  6.3963062158973E-01
39  3.8000000000000E-01  1.6705481987926E+00  5.7556088384756E-01
40  3.9000000000000E-01  1.6887457849919E+00  5.0372594941424E-01
41  4.0000000000000E-01  1.7026551691568E+00  4.2533441315965E-01
42  4.1000000000000E-01  1.7122418439746E+00  3.4175544658347E-01
43  4.2000000000000E-01  1.7174953594214E+00  2.5448429950490E-01
44  4.3000000000000E-01  1.7184287364148E+00  1.6510347182032E-01
45  4.4000000000000E-01  1.7150777145705E+00  7.5240617234039E-02
46  4.5000000000000E-01  1.7074998483812E+00 -1.3475639538337E-02
47  4.6000000000000E-01  1.6957734677332E+00 -9.9460704234722E-02
48  4.7000000000000E-01  1.6799965199488E+00 -1.8121851529931E-01
49  4.8000000000000E-01  1.6602853114656E+00 -2.5738421741226E-01
50  4.9000000000000E-01  1.6367731678333E+00 -3.2676370450990E-01
51  5.0000000000000E-01  1.6096090309037E+00 -3.8836879738736E-01
52  5.1000000000000E-01  1.5789560119276E+00 -4.4144692567058E-01
53  5.2000000000000E-01  1.5449899187583E+00 -4.8550432398259E-01
54  5.3000000000000E-01  1.5078977745130E+00 -5.2032192396601E-01
55  5.4000000000000E-01  1.4678763438982E+00 -5.4596332295078E-01
56  5.5000000000000E-01  1.4251306819910E+00 -5.6277443108841E-01
57  5.6000000000000E-01  1.3798727186255E+00 -5.7137463563089E-01
58  5.7000000000000E-01  1.3323198897201E+00 -5.7263956707204E-01
59  5.8000000000000E-01  1.2826938249317E+00 -5.6767580010034E-01
60  5.9000000000000E-01  1.2312190990039E+00 -5.5778806556613E-01
61  6.0000000000000E-01  1.1781220521316E+00 -5.4443978082168E-01
62  6.1000000000000E-01  1.1236296826560E+00 -5.2920791796491E-01
63  6.2000000000000E-01  1.0679686134763E+00 -5.1373341625468E-01
64  6.3000000000000E-01  1.0113641317664E+00 -4.9966850047036E-01
65  6.4000000000000E-01  9.5403929996978E-01 -4.8862238622903E-01
66  6.5000000000000E-01  8.9621413463534E-01 -4.8210693221349E-01
67  6.6000000000000E-01  8.3810484849774E-01 -4.8148383492093E-01
68  6.7000000000000E-01  7.7992315031175E-01 -4.8791495213167E-01
69  6.8000000000000E-01  7.2187559634249E-01 -5.0231728627745E-01
70  6.9000000000000E-01  6.6416298709597E-01 -5.2532405900924E-01
71  7.0000000000000E-01  6.0697980284779E-01 -5.5725316552978E-01
72  7.1000000000000E-01  5.5051367178120E-01 -5.9808411496122E-01
73  7.2000000000000E-01  4.9494486506085E-01 -6.4744434554697E-01
74  7.3000000000000E-01  4.4044581392022E-01 -7.0460555639171E-01
75  7.4000000000000E-01  3.8718064479510E-01 -7.6849042708159E-01
76  7.5000000000000E-01  3.3530472965524E-01 -8.3768981011040E-01
77  7.6000000000000E-01  2.8496424992653E-01 -9.1049018631772E-01
78  7.7000000000000E-01  2.3629577371167E-01 -9.8491087859541E-01
79  7.8000000000000E-01  1.8942584735684E-01 -1.0587502322371E+00
80  7.9000000000000E-01  1.4447060372867E-01 -1.1296396996475E+00
81  8.0000000000000E-01  1.0153539080749E-01 -1.1951045205609E+00
82  8.1000000000000E-01  6.0714425325970E-02 -1.2526294737793E+00
83  8.2000000000000E-01  2.2090477141409E-02 -1.2997279993186E+00
84  8.3000000000000E-01 -1.4265409212023E-02 -1.3340128564077E+00
85  8.4000000000000E-01 -4.8294148819572E-02 -1.3532663975566E+00
86  8.5000000000000E-01 -7.9948799292644E-02 -1.3555085051939E+00
87  8.6000000000000E-01 -1.0919468505611E-01 -1.3390602571029E+00
88  8.7000000000000E-01 -1.3600945607822E-01 -1.3026014605359E+00
89  8.8000000000000E-01 -1.6038307468027E-01 -1.2452203214787E+00
90  8.9000000000000E-01 -1.8231772491187E-01 -1.1664536925954E+00
91  9.0000000000000E-01 -2.0182764008248E-01 -1.0663165669987E+00
92  9.1000000000000E-01 -2.1893884537325E-01 -9.4531974992046E-01
93  9.2000000000000E-01 -2.3368881398166E-01 -8.0447494006731E-01
94  9.3000000000000E-01 -2.4612603693352E-01 -6.4528677942314E-01
95  9.4000000000000E-01 -2.5630950848567E-01 -4.6973177599014E-01
96  9.5000000000000E-01 -2.6430813088707E-01 -2.8022435932413E-01
97  9.6000000000000E-01 -2.7020004411075E-01 -7.9570684158046E-02
98  9.7000000000000E-01 -2.7407188796020E-01  1.2908885686511E-01
99  9.8000000000000E-01 -2.7601800563283E-01  3.4234712401465E-01
100  9.9000000000000E-01 -2.7613959933899E-01  5.5660613980203E-01
101  1.0000000000000E+00 -2.7454384987499E-01  7.6815957161927E-01
102  1.0100000000000E+00 -2.7134301308766E-01  9.7327972760068E-01
103  1.0200000000000E+00 -2.6665350690745E-01  1.1683068427885E+00
104  1.0300000000000E+00 -2.6059500303434E-01  1.3497383274758E+00
105  1.0400000000000E+00 -2.5328953741321E-01  1.5143156060477E+00
106  1.0500000000000E+00 -2.4486065332049E-01  1.6591061949979E+00