Uu    ONCVPSP-4.0.1  r_core=   1.30483   1.30483   1.30483   1.60873
119.0000     27.0000      230612    zatom,zion,pspd
8      11   3     4   600     0    pspcod,pspxc,lmax,lloc,mmax,r2well
5.99000000  5.00000000  0.00000000    rchrg fchrg qchrg
3     2     2     1     0    nproj
1     1           extension_switch
0                         2.8331259188028E+01  3.0665682173241E+00 -2.1402878145916E-01
1  0.0000000000000E+00 -6.8037606992810E-08  2.2829484352949E-07  2.7963549797949E-07
2  1.0000000000000E-02  1.1238420745017E-01 -8.0483990123834E-02 -9.1118352204710E-02
3  2.0000000000000E-02  2.2389468743572E-01 -1.5873703825706E-01 -1.7929566735744E-01
4  3.0000000000000E-02  3.3367768902131E-01 -2.3259406972380E-01 -2.6167791926267E-01
5  4.0000000000000E-02  4.4091881529903E-01 -3.0001972757548E-01 -3.3558254659624E-01
6  5.0000000000000E-02  5.4486122121748E-01 -3.5916825089568E-01 -3.9857786863475E-01
7  6.0000000000000E-02  6.4482208732597E-01 -4.0843754729975E-01 -4.4855512981348E-01
8  7.0000000000000E-02  7.4020687795924E-01 -4.4651580354408E-01 -4.8379105754400E-01
9  8.0000000000000E-02  8.3052096042584E-01 -4.7241920645493E-01 -5.0299909735737E-01
10  9.0000000000000E-02  9.1537824281054E-01 -4.8551961839150E-01 -5.0536782310121E-01
11  1.0000000000000E-01  9.9450657957525E-01 -4.8556135887580E-01 -4.9058539772967E-01
12  1.1000000000000E-01  1.0677497934338E+00 -4.7266657745930E-01 -4.5884937098544E-01
13  1.2000000000000E-01  1.1350662659403E+00 -4.4732905217941E-01 -4.1086153182590E-01
14  1.3000000000000E-01  1.1965241546792E+00 -4.1039660242251E-01 -3.4780797301980E-01
15  1.4000000000000E-01  1.2522933986437E+00 -3.6304265382598E-01 -2.7132495992486E-01
16  1.5000000000000E-01  1.3026347721531E+00 -3.0672782537616E-01 -1.8345161221906E-01
17  1.6000000000000E-01  1.3478863384608E+00 -2.4315271493111E-01 -8.6570793979551E-02
18  1.7000000000000E-01  1.3884477342548E+00 -1.7420332967240E-01  1.6660047410990E-02
19  1.8000000000000E-01  1.4247627830825E+00 -1.0189083420786E-01  1.2338605966769E-01
20  1.9000000000000E-01  1.4573009873074E+00 -2.8287464308290E-02  2.3063791437685E-01
21  2.0000000000000E-01  1.4865384829080E+00  4.4539426808530E-02  3.3541805326275E-01
22  2.1000000000000E-01  1.5129390582203E+00  1.1459316375066E-01  4.3478772507356E-01
23  2.2000000000000E-01  1.5369358360525E+00  1.8001136267062E-01  5.2595226683857E-01
24  2.3000000000000E-01  1.5589141985267E+00  2.3912540478773E-01  6.0634213895319E-01
25  2.4000000000000E-01  1.5791964961201E+00  2.9051393525923E-01  6.7368735255014E-01
26  2.5000000000000E-01  1.5980290278485E+00  3.3304873307497E-01  7.2608312597541E-01
27  2.6000000000000E-01  1.6155717100111E+00  3.6593152822644E-01  7.6204486889728E-01
28  2.7000000000000E-01  1.6318907685278E+00  3.8872061639044E-01  7.8055090975764E-01
29  2.8000000000000E-01  1.6469546971500E+00  4.0134643043753E-01  7.8107174543968E-01
30  2.9000000000000E-01  1.6606336235667E+00  4.0411556277796E-01  7.6358499028382E-01
31  3.0000000000000E-01  1.6727021206920E+00  3.9770308273394E-01  7.2857562310428E-01
32  3.1000000000000E-01  1.6828453944428E+00  3.8313334807736E-01  6.7702156305282E-01
33  3.2000000000000E-01  1.6906686752914E+00  3.6174985883325E-01  6.1036503526095E-01
34  3.3000000000000E-01  1.6957095420251E+00  3.3517503377915E-01  5.3047060239214E-01
35  3.4000000000000E-01  1.6974528154373E+00  3.0526109571212E-01  4.3957112633443E-01
36  3.5000000000000E-01  1.6953475799121E+00  2.7403352120803E-01  3.4020327380443E-01
37  3.6000000000000E-01  1.6888258244481E+00  2.4362873614427E-01  2.3513448042489E-01
38  3.7000000000000E-01  1.6773221436306E+00  2.1622791286397E-01  1.2728353109174E-01
39  3.8000000000000E-01  1.6602939049398E+00  1.9398884332248E-01  1.9637093186404E-02
40  3.9000000000000E-01  1.6372412726084E+00  1.7897792134813E-01 -8.4835351666248E-02
41  4.0000000000000E-01  1.6077264804813E+00  1.7310426460539E-01 -1.8326569498641E-01
42  4.1000000000000E-01  1.5713917669016E+00  1.7805794314868E-01 -2.7296806241224E-01
43  4.2000000000000E-01  1.5279754228967E+00  1.9525415868651E-01 -3.5151401136577E-01
44  4.3000000000000E-01  1.4773254596723E+00  2.2578504068947E-01 -4.1679990558522E-01
45  4.4000000000000E-01  1.4194104709568E+00  2.7038049782222E-01 -4.6710454658484E-01
46  4.5000000000000E-01  1.3543273479229E+00  3.2937929291849E-01 -5.0113543737002E-01
47  4.6000000000000E-01  1.2823055967296E+00  4.0271120516011E-01 -5.1806239536444E-01
48  4.7000000000000E-01  1.2037081083507E+00  4.8989081364380E-01 -5.1753760907708E-01
49  4.8000000000000E-01  1.1190283342350E+00  5.9002309219264E-01 -4.9970163516172E-01
50  4.9000000000000E-01  1.0288839263315E+00  7.0182065660050E-01 -4.6517524710431E-01
51  5.0000000000000E-01  9.3400700290654E-01  8.2363216308318E-01 -4.1503746142072E-01
52  5.1000000000000E-01  8.3523129929540E-01  9.5348103089716E-01 -3.5079046964964E-01
53  5.2000000000000E-01  7.3347655230706E-01  1.0891133626882E+00 -2.7431258268073E-01
54  5.3000000000000E-01  6.2973054578957E-01  1.2280536720744E+00 -1.8780063700701E-01
55  5.4000000000000E-01  5.2502931052288E-01  1.3676668070679E+00 -9.3703610363850E-02
56  5.5000000000000E-01  4.2043602223099E-01  1.5052242866354E+00  5.3505616123663E-03
57  5.6000000000000E-01  3.1701917565968E-01  1.6379731508576E+00  1.0663279245871E-01
58  5.7000000000000E-01  2.1583062942741E-01  1.7632053659409E+00  2.0739298237744E-01
59  5.8000000000000E-01  1.1788411534622E-01  1.8783258251316E+00  3.0494014329474E-01
60  5.9000000000000E-01  2.4134787302449E-02  1.9809170449158E+00  3.9672018851696E-01
61  6.0000000000000E-01 -6.4539650702990E-02  2.0687987704875E+00  4.8038915212642E-01
62  6.1000000000000E-01 -1.4735574889311E-01  2.1400808713389E+00  5.5387975634385E-01
63  6.2000000000000E-01 -2.2363862504879E-01  2.1932081213923E+00  6.1545945798880E-01
64  6.3000000000000E-01 -2.9283344034501E-01  2.2269957113514E+00  6.6377837095058E-01
65  6.4000000000000E-01 -3.5451377741981E-01  2.2406546257508E+00  6.9790577179607E-01
66  6.5000000000000E-01 -4.0838675322633E-01  2.2338063244624E+00  7.1735424059836E-01
67  6.6000000000000E-01 -4.5429479569347E-01  2.2064864884529E+00  7.2209085806342E-01
68  6.7000000000000E-01 -4.9221411036063E-01  2.1591379124375E+00  7.1253526186671E-01
69  6.8000000000000E-01 -5.2224995793899E-01  2.0925929427096E+00  6.8954474819902E-01
70  6.9000000000000E-01 -5.4462895329806E-01  2.0080461572184E+00  6.5438697744875E-01
71  7.0000000000000E-01 -5.5968867798845E-01  1.9070182579071E+00  6.0870119476108E-01
72  7.1000000000000E-01 -5.6786496965970E-01  1.7913123842666E+00  5.5444919663100E-01
73  7.2000000000000E-01 -5.6967731057104E-01  1.6629642551196E+00  4.9385755466505E-01
74  7.3000000000000E-01 -5.6571278216796E-01  1.5241876972168E+00  4.2935283933451E-01
75  7.4000000000000E-01 -5.5660908224339E-01  1.3773172203027E+00  3.6349176378810E-01
76  7.5000000000000E-01 -5.4303711484220E-01  1.2247493465280E+00  2.9888828610805E-01
77  7.6000000000000E-01 -5.2568366064706E-01  1.0688843967748E+00  2.3813976518161E-01
78  7.7000000000000E-01 -5.0523461746834E-01  9.1207037871930E-01  1.8375425994880E-01
79  7.8000000000000E-01 -4.8235926750743E-01  7.5655051397948E-01  1.3808099535968E-01
80  7.9000000000000E-01 -4.5769598161079E-01  6.0441578881271E-01  1.0324589403269E-01
81  8.0000000000000E-01 -4.3183971252034E-01  4.5756372019646E-01  8.1093895077099E-02
82  8.1000000000000E-01 -4.0533156127131E-01  3.1766430368099E-01  7.3139557191350E-02
83  8.2000000000000E-01 -3.7865062576603E-01  1.8613385895447E-01  8.0527179550163E-02
84  8.3000000000000E-01 -3.5220826076895E-01  6.4117222214940E-02  1.0400137989819E-01
85  8.4000000000000E-01 -3.2634479681354E-01 -4.7521539896010E-02  1.4388875407534E-01
86  8.5000000000000E-01 -3.0132868452474E-01 -1.4819999277660E-01  2.0009091486260E-01
87  8.6000000000000E-01 -2.7735795329104E-01 -2.3761013304058E-01  2.7208888056934E-01
88  8.7000000000000E-01 -2.5456380157825E-01 -3.1570372812206E-01  3.5895846506739E-01
89  8.8000000000000E-01 -2.3301607272273E-01 -3.8267101707516E-01  4.5939602036966E-01
90  8.9000000000000E-01 -2.1273031673029E-01 -4.3891377731542E-01  5.7175360894102E-01
91  9.0000000000000E-01 -1.9367609702090E-01 -4.8501390758512E-01  6.9408244328233E-01
92  9.1000000000000E-01 -1.7578617235226E-01 -5.2169878050893E-01  8.2418323122326E-01
93  9.2000000000000E-01 -1.5896616903691E-01 -5.4980467619735E-01  9.5966191170834E-01
94  9.3000000000000E-01 -1.4310435725625E-01 -5.7023962052265E-01  1.0979891609422E+00
95  9.4000000000000E-01 -1.2808115753195E-01 -5.8394691851629E-01  1.2365619943282E+00
96  9.5000000000000E-01 -1.1377802852248E-01 -5.9187059698578E-01  1.3727657857394E+00
97  9.6000000000000E-01 -1.0008542413051E-01 -5.9492385449163E-01  1.5040350707901E+00
98  9.7000000000000E-01 -8.6909554906545E-02 -5.9396146613355E-01  1.6279115919155E+00
99  9.8000000000000E-01 -7.4177744037844E-02 -5.8975691121156E-01  1.7420981757840E+00
100  9.9000000000000E-01 -6.1842229737420E-02 -5.8298479049441E-01  1.8445072024019E+00
101  1.0000000000000E+00 -4.9882331241331E-02 -5.7420888421572E-01  1.9333026235752E+00
102  1.0100000000000E+00 -3.8304962491468E-02 -5.6387597985560E-01  2.0069347089350E+00
103  1.0200000000000E+00 -2.7143543514287E-02 -5.5231537818107E-01  2.0641669328529E+00
104  1.0300000000000E+00 -1.6455422143895E-02 -5.3974377469865E-01  2.1040946574114E+00
105  1.0400000000000E+00 -6.3179758210854E-03 -5.2627501912743E-01  2.1261555070896E+00
106  1.0500000000000E+00  3.1763871687988E-03 -5.1193408406688E-01  2.1301315628152E+00
107  1.0600000000000E+00  1.1926067209392E-02 -4.9667443153770E-01  2.1161437196003E+00
108  1.0700000000000E+00  1.9826663913056E-02 -4.8039785721118E-01  2.0846387466106E+00
109  1.0800000000000E+00  2.6777609516337E-02 -4.6297581981682E-01  2.0363697569551E+00
110  1.0900000000000E+00  3.2688730423306E-02 -4.4427122979608E-01  1.9723709318669E+00
111  1.1000000000000E+00  3.7486427710210E-02 -4.2415967680050E-01  1.8939274482084E+00
112  1.1100000000000E+00  4.1119184665750E-02 -4.0254911963120E-01  1.8025416276061E+00
113  1.1200000000000E+00  4.3562137456366E-02 -3.7939714170042E-01  1.6998963599138E+00
114  1.1300000000000E+00  4.4820482960071E-02 -3.5472498753690E-01  1.5878168541168E+00
115  1.1400000000000E+00  4.4931543652031E-02 -3.2862773490543E-01  1.4682317387169E+00
116  1.1500000000000E+00  4.3965362072461E-02 -3.0128011930372E-01  1.3431344737078E+00
117  1.1600000000000E+00  4.2023753948525E-02 -2.7293770376610E-01  1.2145459526305E+00
118  1.1700000000000E+00  3.9237808316452E-02 -2.4393327327180E-01  1.0844790692049E+00
119  1.1800000000000E+00  3.5763881738042E-02 -2.1466851924417E-01  9.5490590570833E-01
120  1.1900000000000E+00  3.1778190662179E-02 -1.8560126151999E-01  8.2772807327705E-01
121  1.2000000000000E+00  2.7470158289123E-02 -1.5722862357445E-01  7.0475060474898E-01
122  1.2100000000000E+00  2.3034718459385E-02 -1.3006672683795E-01  5.8765967293168E-01
123  1.2200000000000E+00  1.8663847545206E-02 -1.0462768700420E-01  4.7800427337400E-01
124  1.2300000000000E+00  1.4537345193996E-02 -8.1393947251567E-02  3.7718201877158E-01
125  1.2400000000000E+00  1.0812164657192E-02 -6.0787877039002E-02  2.8642943708429E-01
126  1.2500000000000E+00  7.5287883553988E-03 -4.2889950291362E-02  2.0685100673978E-01
127  1.2600000000000E+00  4.7577576460523E-03 -2.7880269938765E-02  1.3934966915731E-01
128  1.2700000000000E+00  2.6218409093998E-03 -1.6109628001900E-02  8.4616187328101E-02
129  1.2800000000000E+00  1.1619910299155E-03 -7.6958475097984E-03  4.3187039758181E-02
130  1.2900000000000E+00  3.3796390594726E-04 -2.5228991276609E-03  1.5433801404347E-02
131  1.3000000000000E+00  2.8423715539619E-05 -2.6238989688918E-04  1.8023378510852E-03
132  1.3100000000000E+00 -1.7524940069540E-06  1.9995315720586E-05 -1.4918118649096E-04
133  1.3200000000000E+00  1.6622027094298E-07 -1.6434522898803E-06  1.1623136615727E-05
134  1.33 -0.  0. -0.
135  1.34  0.  0.  0.
136  1.35  0.  0.  0.
137  1.36  0.  0.  0.
138  1.37  0.  0.  0.
139  1.38  0.  0.  0.
140  1.39  0.  0.  0.
141  1.40  0.  0.  0.
142  1.41  0.  0.  0.
143  1.42  0.  0.  0.
144  1.43  0.  0.  0.
145  1.44  0.  0.  0.
146  1.45  0.  0.  0.
147  1.46  0.  0.  0.
148  1.47  0.  0.  0.
149  1.48  0.  0.  0.
150  1.49  0.  0.  0.
151  1.50  0.  0.  0.
152  1.51  0.  0.  0.
153  1.52  0.  0.  0.
154  1.53  0.  0.  0.
155  1.54  0.  0.  0.
156  1.55  0.  0.  0.
157  1.56  0.  0.  0.
158  1.57  0.  0.  0.
159  1.58  0.  0.  0.
160  1.59  0.  0.  0.
161  1.60  0.  0.  0.
162  1.61  0.  0.  0.
163  1.62  0.  0.  0.
164  1.63  0.  0.  0.
165  1.64  0.  0.  0.
166  1.65  0.  0.  0.
167  1.66  0.  0.  0.
168  1.67  0.  0.  0.
169  1.68  0.  0.  0.
170  1.69  0.  0.  0.
171  1.70  0.  0.  0.
172  1.71  0.  0.  0.
173  1.72  0.  0.  0.
174  1.73  0.  0.  0.
175  1.74  0.  0.  0.
176  1.75  0.  0.  0.
177  1.76  0.  0.  0.
178  1.77  0.  0.  0.
179  1.78  0.  0.  0.
180  1.79  0.  0.  0.
181  1.80  0.  0.  0.
182  1.81  0.  0.  0.
183  1.82  0.  0.  0.
184  1.83  0.  0.  0.
185  1.84  0.  0.  0.
186  1.85  0.  0.  0.
187  1.86  0.  0.  0.
188  1.87  0.  0.  0.
189  1.88  0.  0.  0.
190  1.89  0.  0.  0.
191  1.90  0.  0.  0.
192  1.91  0.  0.  0.
193  1.92  0.  0.  0.
194  1.93  0.  0.  0.
195  1.94  0.  0.  0.
196  1.95  0.  0.  0.
197  1.96  0.  0.  0.
198  1.97  0.  0.  0.
199  1.98  0.  0.  0.
200  1.99  0.  0.  0.
201  2.00  0.  0.  0.
202  2.01  0.  0.  0.
203  2.02  0.  0.  0.
204  2.03  0.  0.  0.
205  2.04  0.  0.  0.
206  2.05  0.  0.  0.
207  2.06  0.  0.  0.
208  2.07  0.  0.  0.
209  2.08  0.  0.  0.
210  2.09  0.  0.  0.
211  2.10  0.  0.  0.
212  2.11  0.  0.  0.
213  2.12  0.  0.  0.
214  2.13  0.  0.  0.
215  2.14  0.  0.  0.
216  2.15  0.  0.  0.
217  2.16  0.  0.  0.
218  2.17  0.  0.  0.
219  2.18  0.  0.  0.
220  2.19  0.  0.  0.
221  2.20  0.  0.  0.
222  2.21  0.  0.  0.
223  2.22  0.  0.  0.
224  2.23  0.  0.  0.
225  2.24  0.  0.  0.
226  2.25  0.  0.  0.
227  2.26  0.  0.  0.
228  2.27  0.  0.  0.
229  2.28  0.  0.  0.
230  2.29  0.  0.  0.
231  2.30  0.  0.  0.
232  2.31  0.  0.  0.
233  2.32  0.  0.  0.
234  2.33  0.  0.  0.
235  2.34  0.  0.  0.
236  2.35  0.  0.  0.
237  2.36  0.  0.  0.
238  2.37  0.  0.  0.
239  2.38  0.  0.  0.
240  2.39  0.  0.  0.
241  2.40  0.  0.  0.
242  2.41  0.  0.  0.
243  2.42  0.  0.  0.
244  2.43  0.  0.  0.
245  2.44  0.  0.  0.
246  2.45  0.  0.  0.
247  2.46  0.  0.  0.
248  2.47  0.  0.  0.
249  2.48  0.  0.  0.
250  2.49  0.  0.  0.
251  2.50  0.  0.  0.
252  2.51  0.  0.  0.
253  2.52  0.  0.  0.
254  2.53  0.  0.  0.
255  2.54  0.  0.  0.
256  2.55  0.  0.  0.
257  2.56  0.  0.  0.
258  2.57  0.  0.  0.
259  2.58  0.  0.  0.
260  2.59  0.  0.  0.
261  2.60  0.  0.  0.
262  2.61  0.  0.  0.
263  2.62  0.  0.  0.
264  2.63  0.  0.  0.
265  2.64  0.  0.  0.
266  2.65  0.  0.  0.
267  2.66  0.  0.  0.
268  2.67  0.  0.  0.
269  2.68  0.  0.  0.
270  2.69  0.  0.  0.
271  2.70  0.  0.  0.
272  2.71  0.  0.  0.
273  2.72  0.  0.  0.
274  2.73  0.  0.  0.
275  2.74  0.  0.  0.
276  2.75  0.  0.  0.
277  2.76  0.  0.  0.
278  2.77  0.  0.  0.
279  2.78  0.  0.  0.
280  2.79  0.  0.  0.
281  2.80  0.  0.  0.
282  2.81  0.  0.  0.
283  2.82  0.  0.  0.
284  2.83  0.  0.  0.
285  2.84  0.  0.  0.
286  2.85  0.  0.  0.
287  2.86  0.  0.  0.
288  2.87  0.  0.  0.
289  2.88  0.  0.  0.
290  2.89  0.  0.  0.
291  2.90  0.  0.  0.
292  2.91  0.  0.  0.
293  2.92  0.  0.  0.
294  2.93  0.  0.  0.
295  2.94  0.  0.  0.
296  2.95  0.  0.  0.
297  2.96  0.  0.  0.
298  2.97  0.  0.  0.
299  2.98  0.  0.  0.
300  2.99  0.  0.  0.
301  3.00  0.  0.  0.
302  3.01  0.  0.  0.
303  3.02  0.  0.  0.
304  3.03  0.  0.  0.
305  3.04  0.  0.  0.
306  3.05  0.  0.  0.
307  3.06  0.  0.  0.
308  3.07  0.  0.  0.
309  3.08  0.  0.  0.
310  3.09  0.  0.  0.
311  3.10  0.  0.  0.
312  3.11  0.  0.  0.
313  3.12  0.  0.  0.
314  3.13  0.  0.  0.
315  3.14  0.  0.  0.
316  3.15  0.  0.  0.
317  3.16  0.  0.  0.
318  3.17  0.  0.  0.
319  3.18  0.  0.  0.
320  3.19  0.  0.  0.
321  3.20  0.  0.  0.
322  3.21  0.  0.  0.
323  3.22  0.  0.  0.
324  3.23  0.  0.  0.
325  3.24  0.  0.  0.
326  3.25  0.  0.  0.
327  3.26  0.  0.  0.
328  3.27  0.  0.  0.
329  3.28  0.  0.  0.
330  3.29  0.  0.  0.
331  3.30  0.  0.  0.
332  3.31  0.  0.  0.
333  3.32  0.  0.  0.
334  3.33  0.  0.  0.
335  3.34  0.  0.  0.
336  3.35  0.  0.  0.
337  3.36  0.  0.  0.
338  3.37  0.  0.  0.
339  3.38  0.  0.  0.
340  3.39  0.  0.  0.
341  3.40  0.  0.  0.
342  3.41  0.  0.  0.
343  3.42  0.  0.  0.
344  3.43  0.  0.  0.
345  3.44  0.  0.  0.
346  3.45  0.  0.  0.
347  3.46  0.  0.  0.
348  3.47  0.  0.  0.
349  3.48  0.  0.  0.
350  3.49  0.  0.  0.
351  3.50  0.  0.  0.
352  3.51  0.  0.  0.
353  3.52  0.  0.  0.
354  3.53  0.  0.  0.
355  3.54  0.  0.  0.
356  3.55  0.  0.  0.
357  3.56  0.  0.  0.
358  3.57  0.  0.  0.
359  3.58  0.  0.  0.
360  3.59  0.  0.  0.
361  3.60  0.  0.  0.
362  3.61  0.  0.  0.
363  3.62  0.  0.  0.
364  3.63  0.  0.  0.
365  3.64  0.  0.  0.
366  3.65  0.  0.  0.
367  3.66  0.  0.  0.
368  3.67  0.  0.  0.
369  3.68  0.  0.  0.
370  3.69  0.  0.  0.
371  3.70  0.  0.  0.
372  3.71  0.  0.  0.
373  3.72  0.  0.  0.
374  3.73  0.  0.  0.
375  3.74  0.  0.  0.
376  3.75  0.  0.  0.
377  3.76  0.  0.  0.
378  3.77  0.  0.  0.
379  3.78  0.  0.  0.
380  3.79  0.  0.  0.
381  3.80  0.  0.  0.
382  3.81  0.  0.  0.
383  3.82  0.  0.  0.
384  3.83  0.  0.  0.
385  3.84  0.  0.  0.
386  3.85  0.  0.  0.
387  3.86  0.  0.  0.
388  3.87  0.  0.  0.
389  3.88  0.  0.  0.
390  3.89  0.  0.  0.
391  3.90  0.  0.  0.
392  3.91  0.  0.  0.
393  3.92  0.  0.  0.
394  3.93  0.  0.  0.
395  3.94  0.  0.  0.
396  3.95  0.  0.  0.
397  3.96  0.  0.  0.
398  3.97  0.  0.  0.
399  3.98  0.  0.  0.
400  3.99  0.  0.  0.
401  4.00  0.  0.  0.
402  4.01  0.  0.  0.
403  4.02  0.  0.  0.
404  4.03  0.  0.  0.
405  4.04  0.  0.  0.
406  4.05  0.  0.  0.
407  4.06  0.  0.  0.
408  4.07  0.  0.  0.
409  4.08  0.  0.  0.
410  4.09  0.  0.  0.
411  4.10  0.  0.  0.
412  4.11  0.  0.  0.
413  4.12  0.  0.  0.
414  4.13  0.  0.  0.
415  4.14  0.  0.  0.
416  4.15  0.  0.  0.
417  4.16  0.  0.  0.
418  4.17  0.  0.  0.
419  4.18  0.  0.  0.
420  4.19  0.  0.  0.
421  4.20  0.  0.  0.
422  4.21  0.  0.  0.
423  4.22  0.  0.  0.
424  4.23  0.  0.  0.
425  4.24  0.  0.  0.
426  4.25  0.  0.  0.
427  4.26  0.  0.  0.
428  4.27  0.  0.  0.
429  4.28  0.  0.  0.
430  4.29  0.  0.  0.
431  4.30  0.  0.  0.
432  4.31  0.  0.  0.
433  4.32  0.  0.  0.
434  4.33  0.  0.  0.
435  4.34  0.  0.  0.
436  4.35  0.  0.  0.
437  4.36  0.  0.  0.
438  4.37  0.  0.  0.
439  4.38  0.  0.  0.
440  4.39  0.  0.  0.
441  4.40  0.  0.  0.
442  4.41  0.  0.  0.
443  4.42  0.  0.  0.
444  4.43  0.  0.  0.
445  4.44  0.  0.  0.
446  4.45  0.  0.  0.
447  4.46  0.  0.  0.
448  4.47  0.  0.  0.
449  4.48  0.  0.  0.
450  4.49  0.  0.  0.
451  4.50  0.  0.  0.
452  4.51  0.  0.  0.
453  4.52  0.  0.  0.
454  4.53  0.  0.  0.
455  4.54  0.  0.  0.
456  4.55  0.  0.  0.
457  4.56  0.  0.  0.
458  4.57  0.  0.  0.
459  4.58  0.  0.  0.
460  4.59  0.  0.  0.
461  4.60  0.  0.  0.
462  4.61  0.  0.  0.
463  4.62  0.  0.  0.
464  4.63  0.  0.  0.
465  4.64  0.  0.  0.
466  4.65  0.  0.  0.
467  4.66  0.  0.  0.
468  4.67  0.  0.  0.
469  4.68  0.  0.  0.
470  4.69  0.  0.  0.
471  4.70  0.  0.  0.
472  4.71  0.  0.  0.
473  4.72  0.  0.  0.
474  4.73  0.  0.  0.
475  4.74  0.  0.  0.
476  4.75  0.  0.  0.
477  4.76  0.  0.  0.
478  4.77  0.  0.  0.
479  4.78  0.  0.  0.
480  4.79  0.  0.  0.
481  4.80  0.  0.  0.
482  4.81  0.  0.  0.
483  4.82  0.  0.  0.
484  4.83  0.  0.  0.
485  4.84  0.  0.  0.
486  4.85  0.  0.  0.
487  4.86  0.  0.  0.
488  4.87  0.  0.  0.
489  4.88  0.  0.  0.
490  4.89  0.  0.  0.
491  4.90  0.  0.  0.
492  4.91  0.  0.  0.
493  4.92  0.  0.  0.
494  4.93  0.  0.  0.
495  4.94  0.  0.  0.
496  4.95  0.  0.  0.
497  4.96  0.  0.  0.
498  4.97  0.  0.  0.
499  4.98  0.  0.  0.
500  4.99  0.  0.  0.
501  5.00  0.  0.  0.
502  5.01  0.  0.  0.
503  5.02  0.  0.  0.
504  5.03  0.  0.  0.
505  5.04  0.  0.  0.
506  5.05  0.  0.  0.
507  5.06  0.  0.  0.
508  5.07  0.  0.  0.
509  5.08  0.  0.  0.
510  5.09  0.  0.  0.
511  5.10  0.  0.  0.
512  5.11  0.  0.  0.
513  5.12  0.  0.  0.
514  5.13  0.  0.  0.
515  5.14  0.  0.  0.
516  5.15  0.  0.  0.
517  5.16  0.  0.  0.
518  5.17  0.  0.  0.
519  5.18  0.  0.  0.
520  5.19  0.  0.  0.
521  5.20  0.  0.  0.
522  5.21  0.  0.  0.
523  5.22  0.  0.  0.
524  5.23  0.  0.  0.
525  5.24  0.  0.  0.
526  5.25  0.  0.  0.
527  5.26  0.  0.  0.
528  5.27  0.  0.  0.
529  5.28  0.  0.  0.
530  5.29  0.  0.  0.
531  5.30  0.  0.  0.
532  5.31  0.  0.  0.
533  5.32  0.  0.  0.
534  5.33  0.  0.  0.
535  5.34  0.  0.  0.
536  5.35  0.  0.  0.
537  5.36  0.  0.  0.
538  5.37  0.  0.  0.
539  5.38  0.  0.  0.
540  5.39  0.  0.  0.
541  5.40  0.  0.  0.
542  5.41  0.  0.  0.
543  5.42  0.  0.  0.
544  5.43  0.  0.  0.
545  5.44  0.  0.  0.
546  5.45  0.  0.  0.
547  5.46  0.  0.  0.
548  5.47  0.  0.  0.
549  5.48  0.  0.  0.
550  5.49  0.  0.  0.
551  5.50  0.  0.  0.
552  5.51  0.  0.  0.
553  5.52  0.  0.  0.
554  5.53  0.  0.  0.
555  5.54  0.  0.  0.
556  5.55  0.  0.  0.
557  5.56  0.  0.  0.
558  5.57  0.  0.  0.
559  5.58  0.  0.  0.
560  5.59  0.  0.  0.
561  5.60  0.  0.  0.
562  5.61  0.  0.  0.
563  5.62  0.  0.  0.
564  5.63  0.  0.  0.
565  5.64  0.  0.  0.
566  5.65  0.  0.  0.
567  5.66  0.  0.  0.
568  5.67  0.  0.  0.
569  5.68  0.  0.  0.
570  5.69  0.  0.  0.
571  5.70  0.  0.  0.
572  5.71  0.  0.  0.
573  5.72  0.  0.  0.
574  5.73  0.  0.  0.
575  5.74  0.  0.  0.
576  5.75  0.  0.  0.
577  5.76  0.  0.  0.
578  5.77  0.  0.  0.
579  5.78  0.  0.  0.
580  5.79  0.  0.  0.
581  5.80  0.  0.  0.
582  5.81  0.  0.  0.
583  5.82  0.  0.  0.
584  5.83  0.  0.  0.
585  5.84  0.  0.  0.
586  5.85  0.  0.  0.
587  5.86  0.  0.  0.
588  5.87  0.  0.  0.
589  5.88  0.  0.  0.
590  5.89  0.  0.  0.
591  5.90  0.  0.  0.
592  5.91  0.  0.  0.
593  5.92  0.  0.  0.
594  5.93  0.  0.  0.
595  5.94  0.  0.  0.
596  5.95  0.  0.  0.
597  5.96  0.  0.  0.
598  5.97  0.  0.  0.
599  5.98  0.  0.  0.
600  5.99  0.  0.  0.
1                         1.5805778119795E+01  1.4010579231609E+00
1  0.0000000000000E+00 -6.5190375597712E-09  2.5828053890065E-08
2  1.0000000000000E-02  1.8596792853928E-03 -7.1757800712810E-04
3  2.0000000000000E-02  7.4344846996893E-03 -2.8780701554050E-03
4  3.0000000000000E-02  1.6711609414780E-02 -6.5042505242231E-03
5  4.0000000000000E-02  2.9669347959988E-02 -1.1632425137846E-02
6  5.0000000000000E-02  4.6276569836493E-02 -1.8310014423601E-02
7  6.0000000000000E-02  6.6492011618762E-02 -2.6592284049310E-02
8  7.0000000000000E-02  9.0263415526800E-02 -3.6538335288033E-02
9  8.0000000000000E-02  1.1752654897203E-01 -4.8206491886233E-02
10  9.0000000000000E-02  1.4820414505097E-01 -6.1649242036461E-02
11  1.0000000000000E-01  1.8220480821528E-01 -7.6907910802267E-02
12  1.1000000000000E-01  2.1942193225035E-01 -9.4007249682661E-02
13  1.2000000000000E-01  2.5973267915415E-01 -1.1295013556712E-01
14  1.3000000000000E-01  3.0299706746973E-01 -1.3371257092195E-01
15  1.4000000000000E-01  3.4905721708273E-01 -1.5623917064653E-01
16  1.5000000000000E-01  3.9773679448284E-01 -1.8043930880298E-01
17  1.6000000000000E-01  4.4884069808681E-01 -2.0618408069169E-01
18  1.7000000000000E-01  5.0215501754953E-01 -2.3330421301877E-01
19  1.8000000000000E-01  5.5744729420699E-01 -2.6158902783490E-01
20  1.9000000000000E-01  6.1446710209258E-01 -2.9078653530542E-01
21  2.0000000000000E-01  6.7294696056524E-01 -3.2060469709813E-01
22  2.1000000000000E-01  7.3260358072503E-01 -3.5071386723273E-01
23  2.2000000000000E-01  7.9313943872561E-01 -3.8075038166438E-01
24  2.3000000000000E-01  8.5424466008513E-01 -4.1032123274219E-01
25  2.4000000000000E-01  9.1559919041218E-01 -4.3900973105284E-01
26  2.5000000000000E-01  9.7687521985471E-01 -4.6638202605714E-01
27  2.6000000000000E-01  1.0377398212877E+00 -4.9199432931142E-01
28  2.7000000000000E-01  1.0978577559972E+00 -5.1540066079961E-01
29  2.8000000000000E-01  1.1568943955809E+00 -5.3616092072742E-01
30  2.9000000000000E-01  1.2145187051248E+00 -5.5384907664111E-01
31  3.0000000000000E-01  1.2704062305417E+00 -5.6806124936345E-01
32  3.1000000000000E-01  1.3242420323478E+00 -5.7842348124059E-01
33  3.2000000000000E-01  1.3757235091285E+00 -5.8459897663122E-01
34  3.3000000000000E-01  1.4245630564861E+00 -5.8629461731808E-01
35  3.4000000000000E-01  1.4704905113064E+00 -5.8326657426532E-01
36  3.5000000000000E-01  1.5132553366110E+00 -5.7532486138608E-01
37  3.6000000000000E-01  1.5526285089348E+00 -5.6233670605437E-01
38  3.7000000000000E-01  1.5884040778793E+00 -5.4422864417557E-01
39  3.8000000000000E-01  1.6204003760387E+00 -5.2098728377175E-01
40  3.9000000000000E-01  1.6484608666128E+00 -4.9265871919049E-01
41  4.0000000000000E-01  1.6724546254487E+00 -4.5934661708597E-01
42  4.1000000000000E-01  1.6922764637198E+00 -4.2120903408482E-01
43  4.2000000000000E-01  1.7078467066649E+00 -3.7845406336663E-01
44  4.3000000000000E-01  1.7191106525023E+00 -3.3133444212005E-01
45  4.4000000000000E-01  1.7260377435482E+00 -2.8014128289992E-01
46  4.5000000000000E-01  1.7286204884508E+00 -2.2519711832831E-01
47  4.6000000000000E-01  1.7268731801064E+00 -1.6684846949416E-01
48  4.7000000000000E-01  1.7208304580639E+00 -1.0545816311153E-01
49  4.8000000000000E-01  1.7105457669229E+00 -4.1397630466923E-02
50  4.9000000000000E-01  1.6960897632936E+00  2.4960577909517E-02
51  5.0000000000000E-01  1.6775487232776E+00  9.3249834198395E-02
52  5.1000000000000E-01  1.6550230001582E+00  1.6311581760649E-01
53  5.2000000000000E-01  1.6286255781144E+00  2.3422204695900E-01
54  5.3000000000000E-01  1.5984807624118E+00  3.0625439394452E-01
55  5.4000000000000E-01  1.5647230398299E+00  3.7892444141961E-01
56  5.5000000000000E-01  1.5274961352614E+00  4.5197158788755E-01
57  5.6000000000000E-01  1.4869522817038E+00  5.2516383960589E-01
58  5.7000000000000E-01  1.4432517115272E+00  5.9829727457506E-01
59  5.8000000000000E-01  1.3965623672363E+00  6.7119420664700E-01
60  5.9000000000000E-01  1.3470598202562E+00  7.4370012184233E-01
61  6.0000000000000E-01  1.2949273768757E+00  8.1567950132934E-01
62  6.1000000000000E-01  1.2403563416831E+00  8.8701068507198E-01
63  6.2000000000000E-01  1.1835464009315E+00  9.5757996562796E-01
64  6.3000000000000E-01  1.1247060815386E+00  1.0272751318038E+00
65  6.4000000000000E-01  1.0640532361070E+00  1.0959787058151E+00
66  6.5000000000000E-01  1.0018155006522E+00  1.1635611343924E+00
67  6.6000000000000E-01  9.3823066979374E-01  1.2298742032396E+00
68  6.7000000000000E-01  8.7354693412360E-01  1.2947449449559E+00
69  6.8000000000000E-01  8.0802292634755E-01  1.3579703027408E+00
70  6.9000000000000E-01  7.4192752660865E-01  1.4193127959754E+00
71  7.0000000000000E-01  6.7553938307062E-01  1.4784974093828E+00
72  7.1000000000000E-01  6.0914611124187E-01  1.5352098954613E+00
73  7.2000000000000E-01  5.4304314447846E-01  1.5890966410346E+00
74  7.3000000000000E-01  4.7753221838006E-01  1.6397662040691E+00
75  7.4000000000000E-01  4.1291948311410E-01  1.6867925775545E+00
76  7.5000000000000E-01  3.4951324974817E-01  1.7297201846005E+00
77  7.6000000000000E-01  2.8762138909523E-01  1.7680705544400E+00
78  7.7000000000000E-01  2.2754841401269E-01  1.8013505743282E+00
79  7.8000000000000E-01  1.6959228816772E-01  1.8290621589964E+00
80  7.9000000000000E-01  1.1404101560996E-01  1.8507131289758E+00
81  8.0000000000000E-01  6.1169075717544E-02  1.8658290433052E+00
82  8.1000000000000E-01  1.1233776858710E-02  1.8739656923463E+00
83  8.2000000000000E-01 -3.5528390865396E-02  1.8747219239756E+00
84  8.3000000000000E-01 -7.8905318427842E-02  1.8677524524372E+00
85  8.4000000000000E-01 -1.1871266809132E-01  1.8527802845614E+00
86  8.5000000000000E-01 -1.5479700250267E-01  1.8296083935380E+00
87  8.6000000000000E-01 -1.8703856622265E-01  1.7981302763911E+00
88  8.7000000000000E-01 -2.1535363782458E-01  1.7583390478336E+00
89  8.8000000000000E-01 -2.3969637771388E-01  1.7103347500957E+00
90  8.9000000000000E-01 -2.6006010615682E-01  1.6543295951235E+00
91  9.0000000000000E-01 -2.7647795746854E-01  1.5906509014513E+00
92  9.1000000000000E-01 -2.8902286964235E-01  1.5197415419976E+00
93  9.2000000000000E-01 -2.9780688358512E-01  1.4421577797057E+00
94  9.3000000000000E-01 -3.0297974219404E-01  1.3585644338196E+00
95  9.4000000000000E-01 -3.0472679635482E-01  1.2697273889392E+00
96  9.5000000000000E-01 -3.0326624212173E-01  1.1765035299890E+00
97  9.6000000000000E-01 -2.9884573039542E-01  1.0798282569429E+00
98  9.7000000000000E-01 -2.9173840687780E-01  9.8070080159773E-01
99  9.8000000000000E-01 -2.8223845549146E-01  8.8016763294940E-01
100  9.9000000000000E-01 -2.7065623236962E-01  7.7930429595713E-01
101  1.0000000000000E+00 -2.5731308953114E-01  6.7919607891559E-01
102  1.0100000000000E+00 -2.4253599709461E-01  5.8091794577252E-01
103  1.0200000000000E+00 -2.2665208004588E-01  4.8551420021900E-01
104  1.0300000000000E+00 -2.0998318990290E-01  3.9397836716659E-01
105  1.0400000000000E+00 -1.9284063294892E-01  3.0723378357355E-01
106  1.0500000000000E+00 -1.7552017493929E-01  2.2611538409833E-01
107  1.0600000000000E+00 -1.5829743729863E-01  1.5135314758908E-01
108  1.0700000000000E+00 -1.4142379191587E-01  8.3557638379295E-02
109  1.0800000000000E+00 -1.2512285082567E-01  2.3208032190899E-02
110  1.0900000000000E+00 -1.0958763361044E-01 -2.9357038720593E-02
111  1.1000000000000E+00 -9.4978479564819E-02 -7.3945551483356E-02
112  1.1100000000000E+00 -8.1421753870944E-02 -1.1051487321257E-01
113  1.1200000000000E+00 -6.9009377782285E-02 -1.3917113936151E-01
114  1.1300000000000E+00 -5.7799192405204E-02 -1.6016519720091E-01
115  1.1400000000000E+00 -4.7816144871409E-02 -1.7388516780011E-01