Uu    ONCVPSP-4.0.1  r_core=   1.50628   1.50628   1.70790   1.55201
119.0000     27.0000      230725    zatom,zion,pspd
8      11   3     4   600     0    pspcod,pspxc,lmax,lloc,mmax,r2well
5.99000000  5.00000000  0.00000000    rchrg fchrg qchrg
3     2     2     2     0    nproj
1     1           extension_switch
0                         1.0087145019596E+01 -3.0274821093758E+00 -1.9074703621227E+00
1  0.0000000000000E+00  9.8825125860458E-09  1.1339656200149E-08 -6.1634263914812E-08
2  1.0000000000000E-02  8.7107039913011E-02 -1.6448312333868E-02  1.6109295207920E-01
3  2.0000000000000E-02  1.7411187774525E-01 -3.2452608786663E-02  3.2002496230823E-01
4  3.0000000000000E-02  2.6090846589983E-01 -4.7575996091079E-02  4.7467239635668E-01
5  4.0000000000000E-02  3.4738317661552E-01 -6.1395686933457E-02  6.2298548385419E-01
6  5.0000000000000E-02  4.3341128643464E-01 -7.3509707747473E-02  7.6302338898903E-01
7  6.0000000000000E-02  5.1885378285575E-01 -8.3543200624969E-02  8.9298709276901E-01
8  7.0000000000000E-02  6.0355458862149E-01 -9.1154197742979E-02  1.0112494319336E+00
9  8.0000000000000E-02  6.8733828920917E-01 -9.6038758045648E-02  1.1163817011406E+00
10  9.0000000000000E-02  7.7000843717430E-01 -9.7935369607630E-02  1.2071762994398E+00
11  1.0000000000000E-01  8.5134649331945E-01 -9.6628536834653E-02  1.2826649875183E+00
12  1.1000000000000E-01  9.3111144953869E-01 -9.1951489073788E-02  1.3421324168272E+00
13  1.2000000000000E-01  1.0090401619709E+00 -8.3787965920609E-02  1.3851246933570E+00
14  1.3000000000000E-01  1.0848484061560E+00 -7.2073054103784E-02  1.4114528452315E+00
15  1.4000000000000E-01  1.1582326486194E+00 -5.6793070863608E-02  1.4211911720607E+00
16  1.5000000000000E-01  1.2288725121064E+00 -3.7984508771732E-02  1.4146705626978E+00
17  1.6000000000000E-01  1.2964338949494E+00 -1.5732076523212E-02  1.3924669742714E+00
18  1.7000000000000E-01  1.3605726891597E+00  9.8341110664946E-03  1.3553853667472E+00
19  1.8000000000000E-01  1.4209390271546E+00  3.8542123215187E-02  1.3044394815884E+00
20  1.9000000000000E-01  1.4771819739047E+00  7.0182497096012E-02  1.2408279382516E+00
21  2.0000000000000E-01  1.5289545700079E+00  1.0451311541824E-01  1.1659071964323E+00
22  2.1000000000000E-01  1.5759191220253E+00  1.4126456613589E-01  1.0811619935687E+00
23  2.2000000000000E-01  1.6177526295688E+00  1.8014586387826E-01  9.8817391480541E-01
24  2.3000000000000E-01  1.6541522342514E+00  2.2085040654642E-01  8.8858878546165E-01
25  2.4000000000000E-01  1.6848405738118E+00  2.6306203721588E-01  7.8408359336883E-01
26  2.5000000000000E-01  1.7095709255382E+00  3.0646108107824E-01  6.7633364998694E-01
27  2.6000000000000E-01  1.7281320265251E+00  3.5073022963375E-01  5.6698068503460E-01
28  2.7000000000000E-01  1.7403524642245E+00  3.9556014963155E-01  4.5760253992252E-01
29  2.8000000000000E-01  1.7461045390593E+00  4.4065470220574E-01  3.4968508133077E-01
30  2.9000000000000E-01  1.7453075113689E+00  4.8573566807140E-01  2.4459689893012E-01
31  3.0000000000000E-01  1.7379301574148E+00  5.3054688727116E-01  1.4356728189905E-01
32  3.1000000000000E-01  1.7239925733013E+00  5.7485773649393E-01  4.7667889218420E-02
33  3.2000000000000E-01  1.7035671811498E+00  6.1846588308103E-01 -4.2201559405420E-02
34  3.3000000000000E-01  1.6767789083588E+00  6.6119927211161E-01 -1.2532333965146E-01
35  3.4000000000000E-01  1.6438045279052E+00  7.0291732101778E-01 -2.0116739209493E-01
36  3.5000000000000E-01  1.6048711650265E+00  7.4351131460369E-01 -2.6939257210776E-01
37  3.6000000000000E-01  1.5602539928711E+00  7.8290401171089E-01 -3.2984354738214E-01
38  3.7000000000000E-01  1.5102731564424E+00  8.2104849266882E-01 -3.8254350790845E-01
39  3.8000000000000E-01  1.4552899800143E+00  8.5792629368923E-01 -4.2768294598361E-01
40  3.9000000000000E-01  1.3957025278202E+00  8.9354489013088E-01 -4.6560484967376E-01
41  4.0000000000000E-01  1.3319406008998E+00  9.2793460472722E-01 -4.9678673020427E-01
42  4.1000000000000E-01  1.2644602642374E+00  9.6114502912672E-01 -5.2181997033134E-01
43  4.2000000000000E-01  1.1937380075134E+00  9.9324105718373E-01 -5.4138703545141E-01
44  4.3000000000000E-01  1.1202646497255E+00  1.0242986361461E+00 -5.5623713088792E-01
45  4.4000000000000E-01  1.0445391024702E+00  1.0544003470622E+00 -5.6716091663615E-01
46  4.5000000000000E-01  9.6706210873800E-01  1.0836309282797E+00 -5.7496490435177E-01
47  4.6000000000000E-01  8.8833007362791E-01  1.1120728558022E+00 -5.8044616035330E-01
48  4.7000000000000E-01  8.0882910045977E-01  1.1398020915283E+00 -5.8436792306615E-01
49  4.8000000000000E-01  7.2902934044241E-01  1.1668841051179E+00 -5.8743671411799E-01
50  4.9000000000000E-01  6.4937975647434E-01  1.1933702675555E+00 -5.9028148006802E-01
51  5.0000000000000E-01  5.7030339199466E-01  1.2192947046011E+00 -5.9343524753489E-01
52  5.1000000000000E-01  4.9219322430241E-01  1.2446716865009E+00 -5.9731970972559E-01
53  5.2000000000000E-01  4.1540866868286E-01  1.2694936168410E+00 -6.0223308857923E-01
54  5.3000000000000E-01  3.4027278532601E-01  1.2937296686135E+00 -6.0834153574562E-01
55  5.4000000000000E-01  2.6707022572389E-01  1.3173250997618E+00 -6.1567424935084E-01
56  5.5000000000000E-01  1.9604593932817E-01  1.3402012640629E+00 -6.2412239395580E-01
57  5.6000000000000E-01  1.2740464510098E-01  1.3622563165656E+00 -6.3344182042245E-01
58  5.7000000000000E-01  6.1311056552056E-02  1.3833665963211E+00 -6.4325949263070E-01
59  5.8000000000000E-01 -2.1091667243360E-03  1.4033886531912E+00 -6.5308344118584E-01
60  5.9000000000000E-01 -6.2767782779377E-02  1.4221618704602E+00 -6.6231598240747E-01
61  6.0000000000000E-01 -1.2061170174193E-01  1.4395116211466E+00 -6.7026986579166E-01
62  6.1000000000000E-01 -1.7562015865246E-01  1.4552528836128E+00 -6.7618694649243E-01
63  6.2000000000000E-01 -2.2780140301401E-01  1.4691942315766E+00 -6.7925892255925E-01
64  6.3000000000000E-01 -2.7718899211868E-01  1.4811421051545E+00 -6.7864963097408E-01
65  6.4000000000000E-01 -3.2383778192057E-01  1.4909052632946E+00 -6.7351836282728E-01
66  6.5000000000000E-01 -3.6781971377853E-01  1.4982993140039E+00 -6.6304363696012E-01
67  6.6000000000000E-01 -4.0921949771562E-01  1.5031512172144E+00 -6.4644686342423E-01
68  6.7000000000000E-01 -4.4813029291664E-01  1.5053036559735E+00 -6.2301533321379E-01
69  6.8000000000000E-01 -4.8464948403642E-01  1.5046191748514E+00 -5.9212398869907E-01
70  6.9000000000000E-01 -5.1887464760117E-01  1.5009839899292E+00 -5.5325545946957E-01
71  7.0000000000000E-01 -5.5089979647575E-01  1.4943113823316E+00 -5.0601789010227E-01
72  7.1000000000000E-01 -5.8081198221324E-01  1.4845445967921E+00 -4.5016013861019E-01
73  7.2000000000000E-01 -6.0868832530187E-01  1.4716591779713E+00 -3.8558398575797E-01
74  7.3000000000000E-01 -6.3459353212719E-01  1.4556646898960E+00 -3.1235306451480E-01
75  7.4000000000000E-01 -6.5857794513626E-01  1.4366057776814E+00 -2.3069829406814E-01
76  7.5000000000000E-01 -6.8067615952236E-01  1.4145625452860E+00 -1.4101968224108E-01
77  7.6000000000000E-01 -7.0090622604812E-01  1.3896502381205E+00 -4.3884442019663E-02
78  7.7000000000000E-01 -7.1926944570181E-01  1.3620182345303E+00  5.9978549652831E-02
79  7.8000000000000E-01 -7.3575074805593E-01  1.3318483651590E+00  1.6968784151331E-01
80  7.9000000000000E-01 -7.5031963177131E-01  1.2993525936481E+00  2.8422185869314E-01
81  8.0000000000000E-01 -7.6293163296106E-01  1.2647701057117E+00  4.0243445393207E-01
82  8.1000000000000E-01 -7.7353027536900E-01  1.2283638660619E+00  5.2307323190202E-01
83  8.2000000000000E-01 -7.8204944577563E-01  1.1904167136764E+00  6.4480026027824E-01
84  8.3000000000000E-01 -7.8841612894012E-01  1.1512270752743E+00  7.6621473130450E-01
85  8.4000000000000E-01 -7.9255342889685E-01  1.1111043844094E+00  8.8587709777401E-01
86  8.5000000000000E-01 -7.9438379769946E-01  1.0703642991487E+00  1.0023341784022E+00
87  8.6000000000000E-01 -7.9383238883797E-01  1.0293238147990E+00  1.1141447099694E+00
88  8.7000000000000E-01 -7.9083045060917E-01  9.8829636949959E-01  1.2199048176512E+00
89  8.8000000000000E-01 -7.8531867470856E-01  9.4758703973631E-01  1.3182728806009E+00
90  8.9000000000000E-01 -7.7725041720517E-01  9.0748791998132E-01  1.4079932868338E+00
91  9.0000000000000E-01 -7.6659471278545E-01  8.6827377582333E-01  1.4879185992541E+00
92  9.1000000000000E-01 -7.5333900860229E-01  8.3019805325458E-01  1.5570296925225E+00
93  9.2000000000000E-01 -7.3749155108415E-01  7.9348931840503E-01  1.6144534673740E+00
94  9.3000000000000E-01 -7.1908336747547E-01  7.5834819216148E-01  1.6594778038361E+00
95  9.4000000000000E-01 -6.9816979347738E-01  7.2494483302509E-01  1.6915634762148E+00
96  9.5000000000000E-01 -6.7483150890774E-01  6.9341700950639E-01  1.7103528192634E+00
97  9.6000000000000E-01 -6.4917505455362E-01  6.6386879060962E-01  1.7156750050886E+00
98  9.7000000000000E-01 -6.2133281508562E-01  6.3636986981222E-01  1.7075478624772E+00
99  9.8000000000000E-01 -5.9146246477495E-01  6.1095552469439E-01  1.6861762428091E+00
100  9.9000000000000E-01 -5.5974588454238E-01  5.8762720130506E-01  1.6519470080077E+00
101  1.0000000000000E+00 -5.2638757030621E-01  5.6635369975442E-01  1.6054207844580E+00
102  1.0100000000000E+00 -4.9161256344475E-01  5.4707292565977E-01  1.5473206910925E+00
103  1.0200000000000E+00 -4.5566394421884E-01  5.2969416118783E-01  1.4785183085545E+00
104  1.0300000000000E+00 -4.1879993800872E-01  5.1410079974772E-01  1.4000172083284E+00
105  1.0400000000000E+00 -3.8129069201977E-01  5.0015348009172E-01  1.3129344049274E+00
106  1.0500000000000E+00 -3.4341478656952E-01  4.8769354881302E-01  1.2184801298985E+00
107  1.0600000000000E+00 -3.0545555005895E-01  4.7654677511680E-01  1.1179363528932E+00
108  1.0700000000000E+00 -2.6769725017321E-01  4.6652723835704E-01  1.0126344919618E+00
109  1.0800000000000E+00 -2.3042123571740E-01  4.5744130720404E-01  9.0393276244886E-01
110  1.0900000000000E+00 -1.9390210374797E-01  4.4909162944321E-01  7.9319361137577E-01
111  1.1000000000000E+00 -1.5840396535350E-01  4.4128105324610E-01  6.8176167235126E-01
112  1.1100000000000E+00 -1.2417688060932E-01  4.3381640423979E-01  5.7094265519620E-01
113  1.1200000000000E+00 -9.1453529004709E-02  4.2651204767821E-01  4.6198355548531E-01
114  1.1300000000000E+00 -6.0446176085886E-02  4.1919317140366E-01  3.5605453256629E-01
115  1.1400000000000E+00 -3.1343990398282E-02  4.1169873281534E-01  2.5423276181190E-01
116  1.1500000000000E+00 -4.3107571061708E-03  4.0388402166208E-01  1.5748851828295E-01
117  1.1600000000000E+00  2.0516973765861E-02  3.9562279978724E-01  6.6673696660317E-02
118  1.1700000000000E+00  4.3031275645502E-02  3.8680898892280E-01 -1.7487083477852E-02
119  1.1800000000000E+00  6.3153750901691E-02  3.7735788785566E-01 -9.4402694965876E-02
120  1.1900000000000E+00  8.0835943850518E-02  3.6720691070658E-01 -1.6361900875476E-01
121  1.2000000000000E+00  9.6059261288452E-02  3.5631584832031E-01 -2.2481971062454E-01
122  1.2100000000000E+00  1.0883441006126E-01  3.4466666472936E-01 -2.7782450650785E-01
123  1.2200000000000E+00  1.1920037032501E-01  3.3226285012816E-01 -3.2258484613131E-01
124  1.2300000000000E+00  1.2722293170372E-01  3.1912836051965E-01 -3.5917734247824E-01
125  1.2400000000000E+00  1.3299282750137E-01  3.0530618217237E-01 -3.8779510806626E-01
126  1.2500000000000E+00  1.3662350919431E-01  2.9085656596084E-01 -4.0873726663120E-01
127  1.2600000000000E+00  1.3824860963166E-01  2.7585498257852E-01 -4.2239693065031E-01
128  1.2700000000000E+00  1.3801914859616E-01  2.6038985440437E-01 -4.2924796065184E-01
129  1.2800000000000E+00  1.3610053854632E-01  2.4456012341047E-01 -4.2983084113774E-01
130  1.2900000000000E+00  1.3266945150189E-01  2.2847271695684E-01 -4.2473802041615E-01
131  1.3000000000000E+00  1.2791061011924E-01  2.1223997462407E-01 -4.1459906768069E-01
132  1.3100000000000E+00  1.2201356706233E-01  1.9597709944002E-01 -4.0006600062785E-01
133  1.3200000000000E+00  1.1516953687326E-01  1.7979969605101E-01 -3.8179913126391E-01
134  1.3300000000000E+00  1.0756834373261E-01  1.6382145664304E-01 -3.6045376674265E-01
135  1.3400000000000E+00  9.9395546873514E-02  1.4815205286917E-01 -3.3666808686849E-01
136  1.3500000000000E+00  9.0829803079972E-02  1.3289528881572E-01 -3.1105250102870E-01
137  1.3600000000000E+00  8.2040522743184E-02  1.1814756624808E-01 -2.8418076538491E-01
138  1.3700000000000E+00  7.3185872515273E-02  1.0399670919962E-01 -2.5658311719459E-01
139  1.3800000000000E+00  6.4411173784791E-02  9.0521190518488E-02 -2.2874165778252E-01
140  1.3900000000000E+00  5.5847742143485E-02  7.7789798433609E-02 -2.0108818988213E-01
141  1.4000000000000E+00  4.7612208795591E-02  6.5861776635390E-02 -1.7400468932920E-01
142  1.4100000000000E+00  3.9806357915573E-02  5.4787463685719E-02 -1.4782654612737E-01
143  1.4200000000000E+00  3.2517545013544E-02  4.4609493742451E-02 -1.2284894187808E-01
144  1.4300000000000E+00  2.5819726477733E-02  3.5364608963628E-02 -9.9336584463903E-02
145  1.4400000000000E+00  1.9797138761625E-02  2.7112411531685E-02 -7.7700318051698E-02
146  1.4500000000000E+00  1.4519105731308E-02  1.9904535624454E-02 -5.8305967040652E-02
147  1.4600000000000E+00  1.0005199694314E-02  1.3743733538050E-02 -4.1215831892879E-02
148  1.4700000000000E+00  6.2800663266733E-03  8.6505008730217E-03 -2.6596051769501E-02
149  1.4800000000000E+00  3.3746914146828E-03  4.6638710940089E-03 -1.4718361828997E-02
150  1.4900000000000E+00  1.3272980899099E-03  1.8409765760144E-03 -5.9682731152438E-03
151  1.5000000000000E+00  2.1694235093594E-04  3.0205786383118E-04 -1.0073079846655E-03
152  1.5100000000000E+00 -2.1023087329670E-05 -2.9339103059122E-05  9.9704084877817E-05
153  1.5200000000000E+00  6.1762497017270E-06  8.6086340061134E-06 -2.8966294695667E-05
154  1.53 -0. -0.  0.
155  1.54  0.  0. -0.
156  1.55  0.  0.  0.
157  1.56  0.  0.  0.
158  1.57  0.  0.  0.
159  1.58  0.  0.  0.
160  1.59  0.  0.  0.
161  1.60  0.  0.  0.
162  1.61  0.  0.  0.
163  1.62  0.  0.  0.
164  1.63  0.  0.  0.
165  1.64  0.  0.  0.
166  1.65  0.  0.  0.
167  1.66  0.  0.  0.
168  1.67  0.  0.  0.
169  1.68  0.  0.  0.
170  1.69  0.  0.  0.
171  1.70  0.  0.  0.
172  1.71  0.  0.  0.
173  1.72  0.  0.  0.
174  1.73  0.  0.  0.
175  1.74  0.  0.  0.
176  1.75  0.  0.  0.
177  1.76  0.  0.  0.
178  1.77  0.  0.  0.
179  1.78  0.  0.  0.
180  1.79  0.  0.  0.
181  1.80  0.  0.  0.
182  1.81  0.  0.  0.
183  1.82  0.  0.  0.
184  1.83  0.  0.  0.
185  1.84  0.  0.  0.
186  1.85  0.  0.  0.
187  1.86  0.  0.  0.
188  1.87  0.  0.  0.
189  1.88  0.  0.  0.
190  1.89  0.  0.  0.
191  1.90  0.  0.  0.
192  1.91  0.  0.  0.
193  1.92  0.  0.  0.
194  1.93  0.  0.  0.
195  1.94  0.  0.  0.
196  1.95  0.  0.  0.
197  1.96  0.  0.  0.
198  1.97  0.  0.  0.
199  1.98  0.  0.  0.
200  1.99  0.  0.  0.
201  2.00  0.  0.  0.
202  2.01  0.  0.  0.
203  2.02  0.  0.  0.
204  2.03  0.  0.  0.
205  2.04  0.  0.  0.
206  2.05  0.  0.  0.
207  2.06  0.  0.  0.
208  2.07  0.  0.  0.
209  2.08  0.  0.  0.
210  2.09  0.  0.  0.
211  2.10  0.  0.  0.
212  2.11  0.  0.  0.
213  2.12  0.  0.  0.
214  2.13  0.  0.  0.
215  2.14  0.  0.  0.
216  2.15  0.  0.  0.
217  2.16  0.  0.  0.
218  2.17  0.  0.  0.
219  2.18  0.  0.  0.
220  2.19  0.  0.  0.
221  2.20  0.  0.  0.
222  2.21  0.  0.  0.
223  2.22  0.  0.  0.
224  2.23  0.  0.  0.
225  2.24  0.  0.  0.
226  2.25  0.  0.  0.
227  2.26  0.  0.  0.
228  2.27  0.  0.  0.
229  2.28  0.  0.  0.
230  2.29  0.  0.  0.
231  2.30  0.  0.  0.
232  2.31  0.  0.  0.
233  2.32  0.  0.  0.
234  2.33  0.  0.  0.
235  2.34  0.  0.  0.
236  2.35  0.  0.  0.
237  2.36  0.  0.  0.
238  2.37  0.  0.  0.
239  2.38  0.  0.  0.
240  2.39  0.  0.  0.
241  2.40  0.  0.  0.
242  2.41  0.  0.  0.
243  2.42  0.  0.  0.
244  2.43  0.  0.  0.
245  2.44  0.  0.  0.
246  2.45  0.  0.  0.
247  2.46  0.  0.  0.
248  2.47  0.  0.  0.
249  2.48  0.  0.  0.
250  2.49  0.  0.  0.
251  2.50  0.  0.  0.
252  2.51  0.  0.  0.
253  2.52  0.  0.  0.
254  2.53  0.  0.  0.
255  2.54  0.  0.  0.
256  2.55  0.  0.  0.
257  2.56  0.  0.  0.
258  2.57  0.  0.  0.
259  2.58  0.  0.  0.
260  2.59  0.  0.  0.
261  2.60  0.  0.  0.
262  2.61  0.  0.  0.
263  2.62  0.  0.  0.
264  2.63  0.  0.  0.
265  2.64  0.  0.  0.
266  2.65  0.  0.  0.
267  2.66  0.  0.  0.
268  2.67  0.  0.  0.
269  2.68  0.  0.  0.
270  2.69  0.  0.  0.
271  2.70  0.  0.  0.
272  2.71  0.  0.  0.
273  2.72  0.  0.  0.
274  2.73  0.  0.  0.
275  2.74  0.  0.  0.
276  2.75  0.  0.  0.
277  2.76  0.  0.  0.
278  2.77  0.  0.  0.
279  2.78  0.  0.  0.
280  2.79  0.  0.  0.
281  2.80  0.  0.  0.
282  2.81  0.  0.  0.
283  2.82  0.  0.  0.
284  2.83  0.  0.  0.
285  2.84  0.  0.  0.
286  2.85  0.  0.  0.
287  2.86  0.  0.  0.
288  2.87  0.  0.  0.
289  2.88  0.  0.  0.
290  2.89  0.  0.  0.
291  2.90  0.  0.  0.
292  2.91  0.  0.  0.
293  2.92  0.  0.  0.
294  2.93  0.  0.  0.
295  2.94  0.  0.  0.
296  2.95  0.  0.  0.
297  2.96  0.  0.  0.
298  2.97  0.  0.  0.
299  2.98  0.  0.  0.
300  2.99  0.  0.  0.
301  3.00  0.  0.  0.
302  3.01  0.  0.  0.
303  3.02  0.  0.  0.
304  3.03  0.  0.  0.
305  3.04  0.  0.  0.
306  3.05  0.  0.  0.
307  3.06  0.  0.  0.
308  3.07  0.  0.  0.
309  3.08  0.  0.  0.
310  3.09  0.  0.  0.
311  3.10  0.  0.  0.
312  3.11  0.  0.  0.
313  3.12  0.  0.  0.
314  3.13  0.  0.  0.
315  3.14  0.  0.  0.
316  3.15  0.  0.  0.
317  3.16  0.  0.  0.
318  3.17  0.  0.  0.
319  3.18  0.  0.  0.
320  3.19  0.  0.  0.
321  3.20  0.  0.  0.
322  3.21  0.  0.  0.
323  3.22  0.  0.  0.
324  3.23  0.  0.  0.
325  3.24  0.  0.  0.
326  3.25  0.  0.  0.
327  3.26  0.  0.  0.
328  3.27  0.  0.  0.
329  3.28  0.  0.  0.
330  3.29  0.  0.  0.
331  3.30  0.  0.  0.
332  3.31  0.  0.  0.
333  3.32  0.  0.  0.
334  3.33  0.  0.  0.
335  3.34  0.  0.  0.
336  3.35  0.  0.  0.
337  3.36  0.  0.  0.
338  3.37  0.  0.  0.
339  3.38  0.  0.  0.
340  3.39  0.  0.  0.
341  3.40  0.  0.  0.
342  3.41  0.  0.  0.
343  3.42  0.  0.  0.
344  3.43  0.  0.  0.
345  3.44  0.  0.  0.
346  3.45  0.  0.  0.
347  3.46  0.  0.  0.
348  3.47  0.  0.  0.
349  3.48  0.  0.  0.
350  3.49  0.  0.  0.
351  3.50  0.  0.  0.
352  3.51  0.  0.  0.
353  3.52  0.  0.  0.
354  3.53  0.  0.  0.
355  3.54  0.  0.  0.
356  3.55  0.  0.  0.
357  3.56  0.  0.  0.
358  3.57  0.  0.  0.
359  3.58  0.  0.  0.
360  3.59  0.  0.  0.
361  3.60  0.  0.  0.
362  3.61  0.  0.  0.
363  3.62  0.  0.  0.
364  3.63  0.  0.  0.
365  3.64  0.  0.  0.
366  3.65  0.  0.  0.
367  3.66  0.  0.  0.
368  3.67  0.  0.  0.
369  3.68  0.  0.  0.
370  3.69  0.  0.  0.
371  3.70  0.  0.  0.
372  3.71  0.  0.  0.
373  3.72  0.  0.  0.
374  3.73  0.  0.  0.
375  3.74  0.  0.  0.
376  3.75  0.  0.  0.
377  3.76  0.  0.  0.
378  3.77  0.  0.  0.
379  3.78  0.  0.  0.
380  3.79  0.  0.  0.
381  3.80  0.  0.  0.
382  3.81  0.  0.  0.
383  3.82  0.  0.  0.
384  3.83  0.  0.  0.
385  3.84  0.  0.  0.
386  3.85  0.  0.  0.
387  3.86  0.  0.  0.
388  3.87  0.  0.  0.
389  3.88  0.  0.  0.
390  3.89  0.  0.  0.
391  3.90  0.  0.  0.
392  3.91  0.  0.  0.
393  3.92  0.  0.  0.
394  3.93  0.  0.  0.
395  3.94  0.  0.  0.
396  3.95  0.  0.  0.
397  3.96  0.  0.  0.
398  3.97  0.  0.  0.
399  3.98  0.  0.  0.
400  3.99  0.  0.  0.
401  4.00  0.  0.  0.
402  4.01  0.  0.  0.
403  4.02  0.  0.  0.
404  4.03  0.  0.  0.
405  4.04  0.  0.  0.
406  4.05  0.  0.  0.
407  4.06  0.  0.  0.
408  4.07  0.  0.  0.
409  4.08  0.  0.  0.
410  4.09  0.  0.  0.
411  4.10  0.  0.  0.
412  4.11  0.  0.  0.
413  4.12  0.  0.  0.
414  4.13  0.  0.  0.
415  4.14  0.  0.  0.
416  4.15  0.  0.  0.
417  4.16  0.  0.  0.
418  4.17  0.  0.  0.
419  4.18  0.  0.  0.
420  4.19  0.  0.  0.
421  4.20  0.  0.  0.
422  4.21  0.  0.  0.
423  4.22  0.  0.  0.
424  4.23  0.  0.  0.
425  4.24  0.  0.  0.
426  4.25  0.  0.  0.
427  4.26  0.  0.  0.
428  4.27  0.  0.  0.
429  4.28  0.  0.  0.
430  4.29  0.  0.  0.
431  4.30  0.  0.  0.
432  4.31  0.  0.  0.
433  4.32  0.  0.  0.
434  4.33  0.  0.  0.
435  4.34  0.  0.  0.
436  4.35  0.  0.  0.
437  4.36  0.  0.  0.
438  4.37  0.  0.  0.
439  4.38  0.  0.  0.
440  4.39  0.  0.  0.
441  4.40  0.  0.  0.
442  4.41  0.  0.  0.
443  4.42  0.  0.  0.
444  4.43  0.  0.  0.
445  4.44  0.  0.  0.
446  4.45  0.  0.  0.
447  4.46  0.  0.  0.
448  4.47  0.  0.  0.
449  4.48  0.  0.  0.
450  4.49  0.  0.  0.
451  4.50  0.  0.  0.
452  4.51  0.  0.  0.
453  4.52  0.  0.  0.
454  4.53  0.  0.  0.
455  4.54  0.  0.  0.
456  4.55  0.  0.  0.
457  4.56  0.  0.  0.
458  4.57  0.  0.  0.
459  4.58  0.  0.  0.
460  4.59  0.  0.  0.
461  4.60  0.  0.  0.
462  4.61  0.  0.  0.
463  4.62  0.  0.  0.
464  4.63  0.  0.  0.
465  4.64  0.  0.  0.
466  4.65  0.  0.  0.
467  4.66  0.  0.  0.
468  4.67  0.  0.  0.
469  4.68  0.  0.  0.
470  4.69  0.  0.  0.
471  4.70  0.  0.  0.
472  4.71  0.  0.  0.
473  4.72  0.  0.  0.
474  4.73  0.  0.  0.
475  4.74  0.  0.  0.
476  4.75  0.  0.  0.
477  4.76  0.  0.  0.
478  4.77  0.  0.  0.
479  4.78  0.  0.  0.
480  4.79  0.  0.  0.
481  4.80  0.  0.  0.
482  4.81  0.  0.  0.
483  4.82  0.  0.  0.
484  4.83  0.  0.  0.
485  4.84  0.  0.  0.
486  4.85  0.  0.  0.
487  4.86  0.  0.  0.
488  4.87  0.  0.  0.
489  4.88  0.  0.  0.
490  4.89  0.  0.  0.
491  4.90  0.  0.  0.
492  4.91  0.  0.  0.
493  4.92  0.  0.  0.
494  4.93  0.  0.  0.
495  4.94  0.  0.  0.
496  4.95  0.  0.  0.
497  4.96  0.  0.  0.
498  4.97  0.  0.  0.
499  4.98  0.  0.  0.
500  4.99  0.  0.  0.
501  5.00  0.  0.  0.
502  5.01  0.  0.  0.
503  5.02  0.  0.  0.
504  5.03  0.  0.  0.
505  5.04  0.  0.  0.
506  5.05  0.  0.  0.
507  5.06  0.  0.  0.
508  5.07  0.  0.  0.
509  5.08  0.  0.  0.
510  5.09  0.  0.  0.
511  5.10  0.  0.  0.
512  5.11  0.  0.  0.
513  5.12  0.  0.  0.
514  5.13  0.  0.  0.
515  5.14  0.  0.  0.
516  5.15  0.  0.  0.
517  5.16  0.  0.  0.
518  5.17  0.  0.  0.
519  5.18  0.  0.  0.
520  5.19  0.  0.  0.
521  5.20  0.  0.  0.
522  5.21  0.  0.  0.
523  5.22  0.  0.  0.
524  5.23  0.  0.  0.
525  5.24  0.  0.  0.
526  5.25  0.  0.  0.
527  5.26  0.  0.  0.
528  5.27  0.  0.  0.
529  5.28  0.  0.  0.
530  5.29  0.  0.  0.
531  5.30  0.  0.  0.
532  5.31  0.  0.  0.
533  5.32  0.  0.  0.
534  5.33  0.  0.  0.
535  5.34  0.  0.  0.
536  5.35  0.  0.  0.
537  5.36  0.  0.  0.
538  5.37  0.  0.  0.
539  5.38  0.  0.  0.
540  5.39  0.  0.  0.
541  5.40  0.  0.  0.
542  5.41  0.  0.  0.
543  5.42  0.  0.  0.
544  5.43  0.  0.  0.
545  5.44  0.  0.  0.
546  5.45  0.  0.  0.
547  5.46  0.  0.  0.
548  5.47  0.  0.  0.
549  5.48  0.  0.  0.
550  5.49  0.  0.  0.
551  5.50  0.  0.  0.
552  5.51  0.  0.  0.
553  5.52  0.  0.  0.
554  5.53  0.  0.  0.
555  5.54  0.  0.  0.
556  5.55  0.  0.  0.
557  5.56  0.  0.  0.
558  5.57  0.  0.  0.
559  5.58  0.  0.  0.
560  5.59  0.  0.  0.
561  5.60  0.  0.  0.
562  5.61  0.  0.  0.
563  5.62  0.  0.  0.
564  5.63  0.  0.  0.
565  5.64  0.  0.  0.
566  5.65  0.  0.  0.
567  5.66  0.  0.  0.
568  5.67  0.  0.  0.
569  5.68  0.  0.  0.
570  5.69  0.  0.  0.
571  5.70  0.  0.  0.
572  5.71  0.  0.  0.
573  5.72  0.  0.  0.
574  5.73  0.  0.  0.
575  5.74  0.  0.  0.
576  5.75  0.  0.  0.
577  5.76  0.  0.  0.
578  5.77  0.  0.  0.
579  5.78  0.  0.  0.
580  5.79  0.  0.  0.
581  5.80  0.  0.  0.
582  5.81  0.  0.  0.
583  5.82  0.  0.  0.
584  5.83  0.  0.  0.
585  5.84  0.  0.  0.
586  5.85  0.  0.  0.
587  5.86  0.  0.  0.
588  5.87  0.  0.  0.
589  5.88  0.  0.  0.
590  5.89  0.  0.  0.
591  5.90  0.  0.  0.
592  5.91  0.  0.  0.
593  5.92  0.  0.  0.
594  5.93  0.  0.  0.
595  5.94  0.  0.  0.
596  5.95  0.  0.  0.
597  5.96  0.  0.  0.
598  5.97  0.  0.  0.
599  5.98  0.  0.  0.
600  5.99  0.  0.  0.
1                         6.9136199017780E+00 -9.5173776421954E-01
1  0.0000000000000E+00 -8.3120096916467E-10 -2.1983208864373E-09
2  1.0000000000000E-02  2.4281558585459E-03 -1.4302231961139E-04
3  2.0000000000000E-02  9.6998586676373E-03 -5.6801216902128E-04
4  3.0000000000000E-02  2.1776855592143E-02 -1.2628027638513E-03
5  4.0000000000000E-02  3.8595530729766E-02 -2.2073299435569E-03
6  5.0000000000000E-02  6.0067115448329E-02 -3.3739482563759E-03
7  6.0000000000000E-02  8.6077986974929E-02 -4.7278643154699E-03
8  7.0000000000000E-02  1.1649005914920E-01 -6.2276785119300E-03
9  8.0000000000000E-02  1.5114127008414E-01 -7.8260239719888E-03
10  9.0000000000000E-02  1.8984617210489E-01 -9.4702896978995E-03
11  1.0000000000000E-01  2.3239662972418E-01 -1.1103413178363E-02
12  1.1000000000000E-01  2.7856263153515E-01 -1.2664726432099E-02
13  1.2000000000000E-01  3.2809322173748E-01 -1.4090838486801E-02
14  1.3000000000000E-01  3.8071755654805E-01 -1.5316536716502E-02
15  1.4000000000000E-01  4.3614608997794E-01 -1.6275689275942E-02
16  1.5000000000000E-01  4.9407189238782E-01 -1.6902131084508E-02
17  1.6000000000000E-01  5.5417210387451E-01 -1.7130516419044E-02
18  1.7000000000000E-01  6.1610952291466E-01 -1.6897122160137E-02
19  1.8000000000000E-01  6.7953432882338E-01 -1.6140587076912E-02
20  1.9000000000000E-01  7.4408593451353E-01 -1.4802574199971E-02
21  2.0000000000000E-01  8.0939496380591E-01 -1.2828345282086E-02
22  2.1000000000000E-01  8.7508534518968E-01 -1.0167238536425E-02
23  2.2000000000000E-01  9.4077651151836E-01 -6.7730432217318E-03
24  2.3000000000000E-01  1.0060856927046E+00 -2.6042671580294E-03
25  2.4000000000000E-01  1.0706302861042E+00  2.3757041534586E-03
26  2.5000000000000E-01  1.1340302870154E+00  8.1985555260263E-03
27  2.6000000000000E-01  1.1959107596183E+00  1.4891093356652E-02
28  2.7000000000000E-01  1.2559043268033E+00  2.2475393868257E-02
29  2.8000000000000E-01  1.3136536557259E+00  3.0969039727586E-02
30  2.9000000000000E-01  1.3688139146467E+00  4.0385434358919E-02
31  3.0000000000000E-01  1.4210551756840E+00  5.0734181455094E-02
32  3.1000000000000E-01  1.4700647375855E+00  6.2021515675126E-02
33  3.2000000000000E-01  1.5155493425204E+00  7.4250769347931E-02
34  3.3000000000000E-01  1.5572372612320E+00  8.7422859202634E-02
35  3.4000000000000E-01  1.5948802216847E+00  1.0153677673738E-01
36  3.5000000000000E-01  1.6282551575796E+00  1.1659006583145E-01
37  3.6000000000000E-01  1.6571657548018E+00  1.3257927160138E-01
38  3.7000000000000E-01  1.6814437759660E+00  1.4950034529372E-01
39  3.8000000000000E-01  1.7009501457311E+00  1.6734899117737E-01
40  3.9000000000000E-01  1.7155757824136E+00  1.8612094292346E-01
41  4.0000000000000E-01  1.7252421645939E+00  2.0581215880503E-01
42  4.1000000000000E-01  1.7299016248425E+00  2.2641892717274E-01
43  4.2000000000000E-01  1.7295373663125E+00  2.4793787601834E-01
44  4.3000000000000E-01  1.7241632017077E+00  2.7036588297099E-01
45  4.4000000000000E-01  1.7138230179595E+00  2.9369988472601E-01
46  4.5000000000000E-01  1.6985899737687E+00  3.1793658761995E-01
47  4.6000000000000E-01  1.6785654409118E+00  3.4307208377762E-01
48  4.7000000000000E-01  1.6538777038124E+00  3.6910137990262E-01
49  4.8000000000000E-01  1.6246804352625E+00  3.9601784830261E-01
50  4.9000000000000E-01  1.5911509692808E+00  4.2381261207160E-01
51  5.0000000000000E-01  1.5534883948600E+00  4.5247387844175E-01
52  5.1000000000000E-01  1.5119114967236E+00  4.8198623611232E-01
53  5.2000000000000E-01  1.4666565711395E+00  5.1232993382145E-01
54  5.3000000000000E-01  1.4179751462876E+00  5.4348015850821E-01
55  5.4000000000000E-01  1.3661316376187E+00  5.7540633208884E-01
56  5.5000000000000E-01  1.3114009690548E+00  6.0807144612206E-01
57  5.6000000000000E-01  1.2540661907617E+00  6.4143145345136E-01
58  5.7000000000000E-01  1.1944161235672E+00  6.7543473528573E-01
59  5.8000000000000E-01  1.1327430589276E+00  7.1002166112253E-01
60  5.9000000000000E-01  1.0693405416728E+00  7.4512425744348E-01
61  6.0000000000000E-01  1.0045012606253E+00  7.8066599925442E-01
62  6.1000000000000E-01  9.3851506964007E-01  8.1656173632663E-01
63  6.2000000000000E-01  8.7166715868484E-01  8.5271776347522E-01
64  6.3000000000000E-01  8.0423639135548E-01  8.8903204142933E-01
65  6.4000000000000E-01  7.3649382174331E-01  9.2539457186646E-01
66  6.5000000000000E-01  6.6870139992598E-01  9.6168792705975E-01
67  6.6000000000000E-01  6.0111087160700E-01  9.9778793138979E-01
68  6.7000000000000E-01  5.3396287366002E-01  1.0335644887670E+00
69  6.8000000000000E-01  4.6748622361912E-01  1.0688825468676E+00
70  6.9000000000000E-01  4.0189739757020E-01  1.1036031860704E+00
71  7.0000000000000E-01  3.3740018751494E-01  1.1375848181651E+00
72  7.1000000000000E-01  2.7418552616543E-01  1.1706844773386E+00
73  7.2000000000000E-01  2.1243146434778E-01  1.2027591837018E+00
74  7.3000000000000E-01  1.5230328380209E-01  1.2336673577411E+00
75  7.4000000000000E-01  9.3953726212585E-02  1.2632702626092E+00
76  7.5000000000000E-01  3.7523317822512E-02  1.2914334501537E+00
77  7.6000000000000E-01 -1.6859231987215E-02  1.3180281860342E+00
78  7.7000000000000E-01 -6.9076580231689E-02  1.3429328292277E+00
79  7.8000000000000E-01 -1.1902226997237E-01  1.3660341416689E+00
80  7.9000000000000E-01 -1.6660024149509E-01  1.3872285047159E+00
81  8.0000000000000E-01 -2.1172435532786E-01  1.4064230205551E+00
82  8.1000000000000E-01 -2.5431794583429E-01  1.4235364785494E+00
83  8.2000000000000E-01 -2.9431342210199E-01  1.4385001688381E+00
84  8.3000000000000E-01 -3.3165193043674E-01  1.4512585281947E+00
85  8.4000000000000E-01 -3.6628309002944E-01  1.4617696061704E+00
86  8.5000000000000E-01 -3.9816481034683E-01  1.4700053428481E+00
87  8.6000000000000E-01 -4.2726319558064E-01  1.4759516530368E+00
88  8.7000000000000E-01 -4.5355253814722E-01  1.4796083153769E+00
89  8.8000000000000E-01 -4.7701539984019E-01  1.4809886685352E+00
90  8.9000000000000E-01 -4.9764277588221E-01  1.4801191203604E+00
91  9.0000000000000E-01 -5.1543433387839E-01  1.4770384794813E+00
92  9.1000000000000E-01 -5.3039871662171E-01  1.4717971222723E+00
93  9.2000000000000E-01 -5.4255389491518E-01  1.4644560113237E+00
94  9.3000000000000E-01 -5.5192755412473E-01  1.4550855844605E+00
95  9.4000000000000E-01 -5.5855749612496E-01  1.4437645358992E+00
96  9.5000000000000E-01 -5.6249203670095E-01  1.4305785132508E+00