Sg    ONCVPSP-4.0.1  r_core=   1.10583   1.30748   1.20244   1.20244
106.0000     46.0000      231012    zatom,zion,pspd
8   -1012   3     4   600     0    pspcod,pspxc,lmax,lloc,mmax,r2well
5.99000000  5.00000000  0.00000000    rchrg fchrg qchrg
3     2     2     2     0    nproj
1     1           extension_switch
0                         2.0245472469156E+01 -1.0792496177601E+01 -3.5578905609803E-01
1  0.0000000000000E+00 -2.4318998592676E-08  7.4094747004594E-10  4.8235472505098E-08
2  1.0000000000000E-02  2.1331692404724E-01  5.2412381720446E-02 -5.7638862657068E-02
3  2.0000000000000E-02  4.2441901078164E-01  1.0483060226736E-01 -1.1418279512746E-01
4  3.0000000000000E-02  6.3111909419995E-01  1.5725943497861E-01 -1.6856277661075E-01
5  4.0000000000000E-02  8.3128495093144E-01  2.0970153688184E-01 -2.1976100482227E-01
6  5.0000000000000E-02  1.0228657779056E+00  2.6215642701274E-01 -2.6683501710915E-01
7  6.0000000000000E-02  1.2039174952365E+00  3.1461950796133E-01 -3.0894006062076E-01
8  7.0000000000000E-02  1.3726265117660E+00  3.6708114416628E-01 -3.4534918540022E-01
9  8.0000000000000E-02  1.5273316150304E+00  4.1952580973651E-01 -3.7547058249866E-01
10  9.0000000000000E-02  1.6665436771012E+00  4.7193131767864E-01 -3.9886174815820E-01
11  1.0000000000000E-01  1.7889629023545E+00  5.2426814136475E-01 -4.1524012383267E-01
12  1.1000000000000E-01  1.8934933821820E+00  5.7649883790457E-01 -4.2448993918200E-01
13  1.2000000000000E-01  1.9792547643563E+00  6.2857758180888E-01 -4.2666506983347E-01
14  1.3000000000000E-01  2.0455908905045E+00  6.8044981596645E-01 -4.2198781208933E-01
15  1.4000000000000E-01  2.0920753031727E+00  7.3205202552499E-01 -4.1084357111456E-01
16  1.5000000000000E-01  2.1185135734699E+00  7.8331163878730E-01 -3.9377155549169E-01
17  1.6000000000000E-01  2.1249424504244E+00  8.3414705772566E-01 -3.7145166728039E-01
18  1.7000000000000E-01  2.1116258830880E+00  8.8446781919803E-01 -3.4468787060348E-01
19  1.8000000000000E-01  2.0790480152122E+00  9.3417488643573E-01 -3.1438841098428E-01
20  1.9000000000000E-01  2.0279032991209E+00  9.8316106887729E-01 -2.8154333982122E-01
21  2.0000000000000E-01  1.9590839193675E+00  1.0313115669617E+00 -2.4719987119459E-01
22  2.1000000000000E-01  1.8736647570873E+00  1.0785046370756E+00 -2.1243615945437E-01
23  2.2000000000000E-01  1.7728861619014E+00  1.1246123704865E+00 -1.7833413372592E-01
24  2.3000000000000E-01  1.6581348291277E+00  1.1695015787905E+00 -1.4595205784206E-01
25  2.4000000000000E-01  1.5309231053505E+00  1.2130347771763E+00 -1.1629749986019E-01
26  2.5000000000000E-01  1.3928670646329E+00  1.2550712556516E+00 -9.0301393260134E-02
27  2.6000000000000E-01  1.2456637105096E+00  1.2954682273162E+00 -6.8793851620532E-02
28  2.7000000000000E-01  1.0910676651669E+00  1.3340820417905E+00 -5.2482360040663E-02
29  2.8000000000000E-01  9.3086770686818E-01  1.3707694510400E+00 -4.1932910367611E-02
30  2.9000000000000E-01  7.6686350980426E-01  1.4053889140749E+00 -3.7554574539403E-02
31  3.0000000000000E-01  6.0084292738870E-01  1.4378019263666E+00 -3.9587922734304E-02
32  3.1000000000000E-01  4.3456014095989E-01  1.4678743593109E+00 -4.8097592775674E-02
33  3.2000000000000E-01  2.6971497141379E-01  1.4954777947050E+00 -6.2969207067356E-02
34  3.3000000000000E-01  1.0793362210598E-01  1.5204908389889E+00 -8.3910716357446E-02
35  3.4000000000000E-01 -4.9248911829918E-02  1.5428004019554E+00 -1.1045812930128E-01
36  3.5000000000000E-01 -2.0040456898181E-01  1.5623029247609E+00 -1.4198546675946E-01
37  3.6000000000000E-01 -3.4422592190047E-01  1.5789055423805E+00 -1.7771866378705E-01
38  3.7000000000000E-01 -4.7953773209218E-01  1.5925271661628E+00 -2.1675303405118E-01
39  3.8000000000000E-01 -6.0530628032985E-01  1.6030994728421E+00 -2.5807381449232E-01
40  3.9000000000000E-01 -7.2064643297691E-01  1.6105677872785E+00 -3.0057922564386E-01
41  4.0000000000000E-01 -8.2482644384865E-01  1.6148918473049E+00 -3.4310541795199E-01
42  4.1000000000000E-01 -9.1727052788125E-01  1.6160464403639E+00 -3.8445262890206E-01
43  4.2000000000000E-01 -9.9755927682593E-01  1.6140219031079E+00 -4.2341185139469E-01
44  4.3000000000000E-01 -1.0654280177440E+00  1.6088244767917E+00 -4.5879131144528E-01
45  4.4000000000000E-01 -1.1207632417667E+00  1.6004765130936E+00 -4.8944207304343E-01
46  4.5000000000000E-01 -1.1635972530617E+00  1.5890165269277E+00 -5.1428212916056E-01
47  4.6000000000000E-01 -1.1941012060115E+00  1.5744990948274E+00 -5.3231839899434E-01
48  4.7000000000000E-01 -1.2125767121875E+00  1.5569945995556E+00 -5.4266613032529E-01
49  4.8000000000000E-01 -1.2194462078718E+00  1.5365888236878E+00 -5.4456529946090E-01
50  4.9000000000000E-01 -1.2152422778272E+00  1.5133823969850E+00 -5.3739370619176E-01
51  5.0000000000000E-01 -1.2005961320451E+00  1.4874901043725E+00 -5.2067657355952E-01
52  5.1000000000000E-01 -1.1762254297235E+00  1.4590400632382E+00 -4.9409257786331E-01
53  5.2000000000000E-01 -1.1429216391992E+00  1.4281727805088E+00 -4.5747634884754E-01
54  5.3000000000000E-01 -1.1015371145195E+00  1.3950401015168E+00 -4.1081758914904E-01
55  5.4000000000000E-01 -1.0529720593278E+00  1.3598040640055E+00 -3.5425706172344E-01
56  5.5000000000000E-01 -9.9816153731793E-01  1.3226356717011E+00 -2.8807978043752E-01
57  5.6000000000000E-01 -9.3806267620843E-01  1.2837136026816E+00 -2.1270580911103E-01
58  5.7000000000000E-01 -8.7364219949379E-01  1.2432228682885E+00 -1.2867912552903E-01
59  5.8000000000000E-01 -8.0586440757313E-01  1.2013534385357E+00 -3.6655037603356E-02
60  5.9000000000000E-01 -7.3567971758204E-01  1.1582988498850E+00  6.2613351923629E-02
61  6.0000000000000E-01 -6.6401385962605E-01  1.1142548108815E+00  1.6828914800693E-01
62  6.1000000000000E-01 -5.9175781629226E-01  1.0694178204900E+00  2.7946568141098E-01
63  6.2000000000000E-01 -5.1975858236698E-01  1.0239838130852E+00  3.9518014188959E-01
64  6.3000000000000E-01 -4.4881081257829E-01  9.7814684293470E-01  5.1442649291353E-01
65  6.4000000000000E-01 -3.7964941679527E-01  9.3209781974203E-01  6.3616741389241E-01
66  6.5000000000000E-01 -3.1294315425576E-01  8.8602330540288E-01  7.5934510379372E-01
67  6.6000000000000E-01 -2.4928927080848E-01  8.4010438064376E-01  8.8289087211960E-01
68  6.7000000000000E-01 -1.8920921555016E-01  7.9451558868979E-01  1.0057335347420E+00
69  6.8000000000000E-01 -1.3314546530461E-01  7.4942396160607E-01  1.1268067184774E+00
70  6.9000000000000E-01 -8.1459476822643E-02  7.0498813351673E-01  1.2450552550445E+00
71  7.0000000000000E-01 -3.4430777105828E-02  6.6135754357172E-01  1.3594409081241E+00
72  7.1000000000000E-01  7.7428083542507E-03  6.1867173033936E-01  1.4689477231247E+00
73  7.2000000000000E-01  4.4943801523694E-02  5.7705971828159E-01  1.5725873152371E+00
74  7.3000000000000E-01  7.7132617310097E-02  5.3663949614045E-01  1.6694044155701E+00
75  7.4000000000000E-01  1.0434404848601E-01  4.9751758643883E-01  1.7584829767971E+00
76  7.5000000000000E-01  1.2668274567453E-01  4.5978870487744E-01  1.8389530990421E+00
77  7.6000000000000E-01  1.4431776463686E-01  4.2353550818467E-01  1.9099989750624E+00
78  7.7000000000000E-01  1.5747627024703E-01  3.8882842892722E-01  1.9708679735849E+00
79  7.8000000000000E-01  1.6643650373765E-01  3.5572559588990E-01  2.0208808843708E+00
80  7.9000000000000E-01  1.7152013649169E-01  3.2427283884549E-01  2.0594432425742E+00
81  8.0000000000000E-01  1.7308414920805E-01  2.9450377681952E-01  2.0860575383148E+00
82  8.1000000000000E-01  1.7151238901332E-01  2.6643998926083E-01  2.1003360057246E+00
83  8.2000000000000E-01  1.6720696833781E-01  2.4009126980857E-01  2.1020135800044E+00
84  8.3000000000000E-01  1.6057967745066E-01  2.1545596254841E-01  2.0909605172366E+00
85  8.4000000000000E-01  1.5204358682776E-01  1.9252138072755E-01  2.0671940956757E+00
86  8.5000000000000E-01  1.4200501546381E-01  1.7126430780464E-01  2.0308887643114E+00
87  8.6000000000000E-01  1.3085603639395E-01  1.5165158040995E-01  1.9823840793442E+00
88  8.7000000000000E-01  1.1896768076447E-01  1.3364075225340E-01  1.9221897755119E+00
89  8.8000000000000E-01  1.0668398663933E-01  1.1718083722456E-01  1.8509873595578E+00
90  8.9000000000000E-01  9.4317018392371E-02  1.0221312887271E-01  1.7696276887577E+00
91  9.0000000000000E-01  8.2142957232704E-02  8.8672092140484E-02  1.6791241082343E+00
92  9.1000000000000E-01  7.0399333568524E-02  7.6486321671890E-02  1.5806408651066E+00
93  9.2000000000000E-01  5.9283438135406E-02  6.5579559253766E-02  1.4754766923279E+00
94  9.3000000000000E-01  4.8951911890651E-02  5.5871761023933E-02  1.3650436558110E+00
95  9.4000000000000E-01  3.9521475547659E-02  4.7280203043730E-02  1.2508415794012E+00
96  9.5000000000000E-01  3.1070719371028E-02  3.9720611750861E-02  1.1344285965470E+00
97  9.6000000000000E-01  2.3642833660670E-02  3.3108303752872E-02  1.0173886173355E+00
98  9.7000000000000E-01  1.7249121437759E-02  2.7359317466770E-02  9.0129673668107E-01
99  9.8000000000000E-01  1.1873098483759E-02  2.2391517335627E-02  7.8768383510859E-01
100  9.9000000000000E-01  7.4749532853185E-03  1.8125649834305E-02  6.7800182924685E-01
101  1.0000000000000E+00  3.9961117696270E-03  1.4486329287091E-02  5.7359120652900E-01
102  1.0100000000000E+00  1.3636299857108E-03  1.1402930724302E-02  4.7565262030417E-01
103  1.0200000000000E+00 -5.0587700224353E-04  8.8103666595030E-03  3.8522442091774E-01
104  1.0300000000000E+00 -1.7030671953886E-03  6.6497258728340E-03  3.0316803957310E-01
105  1.0400000000000E+00 -2.3237990710192E-03  4.8687353188124E-03  2.3016334439396E-01
106  1.0500000000000E+00 -2.4683977792130E-03  3.4220724954226E-03  1.6671554587005E-01
107  1.0600000000000E+00 -2.2538805793084E-03  2.2637248838284E-03  1.1324039444848E-01
108  1.0700000000000E+00 -1.7833063729647E-03  1.3601124160001E-03  6.9923517252171E-02
109  1.0800000000000E+00 -1.1617413030272E-03  6.9574068164111E-04  3.6811758568861E-02
110  1.0900000000000E+00 -5.3465222060818E-04  2.5760190382168E-04  1.4058849378538E-02
111  1.1000000000000E+00 -8.8629646728320E-05  3.4991765898649E-05  1.9755144053841E-03
112  1.1100000000000E+00  4.7875262154311E-06 -1.6471613416942E-06 -9.5826618246372E-05
113  1.1200000000000E+00  1.3036402024291E-07 -5.1871684547969E-08 -2.9321674754539E-06
114  1.13 -0. -0.  0.
115  1.14  0.  0.  0.
116  1.15  0.  0.  0.
117  1.16  0.  0.  0.
118  1.17  0.  0.  0.
119  1.18  0.  0.  0.
120  1.19  0.  0.  0.
121  1.20  0.  0.  0.
122  1.21  0.  0.  0.
123  1.22  0.  0.  0.
124  1.23  0.  0.  0.
125  1.24  0.  0.  0.
126  1.25  0.  0.  0.
127  1.26  0.  0.  0.
128  1.27  0.  0.  0.
129  1.28  0.  0.  0.
130  1.29  0.  0.  0.
131  1.30  0.  0.  0.
132  1.31  0.  0.  0.
133  1.32  0.  0.  0.
134  1.33  0.  0.  0.
135  1.34  0.  0.  0.
136  1.35  0.  0.  0.
137  1.36  0.  0.  0.
138  1.37  0.  0.  0.
139  1.38  0.  0.  0.
140  1.39  0.  0.  0.
141  1.40  0.  0.  0.
142  1.41  0.  0.  0.
143  1.42  0.  0.  0.
144  1.43  0.  0.  0.
145  1.44  0.  0.  0.
146  1.45  0.  0.  0.
147  1.46  0.  0.  0.
148  1.47  0.  0.  0.
149  1.48  0.  0.  0.
150  1.49  0.  0.  0.
151  1.50  0.  0.  0.
152  1.51  0.  0.  0.
153  1.52  0.  0.  0.
154  1.53  0.  0.  0.
155  1.54  0.  0.  0.
156  1.55  0.  0.  0.
157  1.56  0.  0.  0.
158  1.57  0.  0.  0.
159  1.58  0.  0.  0.
160  1.59  0.  0.  0.
161  1.60  0.  0.  0.
162  1.61  0.  0.  0.
163  1.62  0.  0.  0.
164  1.63  0.  0.  0.
165  1.64  0.  0.  0.
166  1.65  0.  0.  0.
167  1.66  0.  0.  0.
168  1.67  0.  0.  0.
169  1.68  0.  0.  0.
170  1.69  0.  0.  0.
171  1.70  0.  0.  0.
172  1.71  0.  0.  0.
173  1.72  0.  0.  0.
174  1.73  0.  0.  0.
175  1.74  0.  0.  0.
176  1.75  0.  0.  0.
177  1.76  0.  0.  0.
178  1.77  0.  0.  0.
179  1.78  0.  0.  0.
180  1.79  0.  0.  0.
181  1.80  0.  0.  0.
182  1.81  0.  0.  0.
183  1.82  0.  0.  0.
184  1.83  0.  0.  0.
185  1.84  0.  0.  0.
186  1.85  0.  0.  0.
187  1.86  0.  0.  0.
188  1.87  0.  0.  0.
189  1.88  0.  0.  0.
190  1.89  0.  0.  0.
191  1.90  0.  0.  0.
192  1.91  0.  0.  0.
193  1.92  0.  0.  0.
194  1.93  0.  0.  0.
195  1.94  0.  0.  0.
196  1.95  0.  0.  0.
197  1.96  0.  0.  0.
198  1.97  0.  0.  0.
199  1.98  0.  0.  0.
200  1.99  0.  0.  0.
201  2.00  0.  0.  0.
202  2.01  0.  0.  0.
203  2.02  0.  0.  0.
204  2.03  0.  0.  0.
205  2.04  0.  0.  0.
206  2.05  0.  0.  0.
207  2.06  0.  0.  0.
208  2.07  0.  0.  0.
209  2.08  0.  0.  0.
210  2.09  0.  0.  0.
211  2.10  0.  0.  0.
212  2.11  0.  0.  0.
213  2.12  0.  0.  0.
214  2.13  0.  0.  0.
215  2.14  0.  0.  0.
216  2.15  0.  0.  0.
217  2.16  0.  0.  0.
218  2.17  0.  0.  0.
219  2.18  0.  0.  0.
220  2.19  0.  0.  0.
221  2.20  0.  0.  0.
222  2.21  0.  0.  0.
223  2.22  0.  0.  0.
224  2.23  0.  0.  0.
225  2.24  0.  0.  0.
226  2.25  0.  0.  0.
227  2.26  0.  0.  0.
228  2.27  0.  0.  0.
229  2.28  0.  0.  0.
230  2.29  0.  0.  0.
231  2.30  0.  0.  0.
232  2.31  0.  0.  0.
233  2.32  0.  0.  0.
234  2.33  0.  0.  0.
235  2.34  0.  0.  0.
236  2.35  0.  0.  0.
237  2.36  0.  0.  0.
238  2.37  0.  0.  0.
239  2.38  0.  0.  0.
240  2.39  0.  0.  0.
241  2.40  0.  0.  0.
242  2.41  0.  0.  0.
243  2.42  0.  0.  0.
244  2.43  0.  0.  0.
245  2.44  0.  0.  0.
246  2.45  0.  0.  0.
247  2.46  0.  0.  0.
248  2.47  0.  0.  0.
249  2.48  0.  0.  0.
250  2.49  0.  0.  0.
251  2.50  0.  0.  0.
252  2.51  0.  0.  0.
253  2.52  0.  0.  0.
254  2.53  0.  0.  0.
255  2.54  0.  0.  0.
256  2.55  0.  0.  0.
257  2.56  0.  0.  0.
258  2.57  0.  0.  0.
259  2.58  0.  0.  0.
260  2.59  0.  0.  0.
261  2.60  0.  0.  0.
262  2.61  0.  0.  0.
263  2.62  0.  0.  0.
264  2.63  0.  0.  0.
265  2.64  0.  0.  0.
266  2.65  0.  0.  0.
267  2.66  0.  0.  0.
268  2.67  0.  0.  0.
269  2.68  0.  0.  0.
270  2.69  0.  0.  0.
271  2.70  0.  0.  0.
272  2.71  0.  0.  0.
273  2.72  0.  0.  0.
274  2.73  0.  0.  0.
275  2.74  0.  0.  0.
276  2.75  0.  0.  0.
277  2.76  0.  0.  0.
278  2.77  0.  0.  0.
279  2.78  0.  0.  0.
280  2.79  0.  0.  0.
281  2.80  0.  0.  0.
282  2.81  0.  0.  0.
283  2.82  0.  0.  0.
284  2.83  0.  0.  0.
285  2.84  0.  0.  0.
286  2.85  0.  0.  0.
287  2.86  0.  0.  0.
288  2.87  0.  0.  0.
289  2.88  0.  0.  0.
290  2.89  0.  0.  0.
291  2.90  0.  0.  0.
292  2.91  0.  0.  0.
293  2.92  0.  0.  0.
294  2.93  0.  0.  0.
295  2.94  0.  0.  0.
296  2.95  0.  0.  0.
297  2.96  0.  0.  0.
298  2.97  0.  0.  0.
299  2.98  0.  0.  0.
300  2.99  0.  0.  0.
301  3.00  0.  0.  0.
302  3.01  0.  0.  0.
303  3.02  0.  0.  0.
304  3.03  0.  0.  0.
305  3.04  0.  0.  0.
306  3.05  0.  0.  0.
307  3.06  0.  0.  0.
308  3.07  0.  0.  0.
309  3.08  0.  0.  0.
310  3.09  0.  0.  0.
311  3.10  0.  0.  0.
312  3.11  0.  0.  0.
313  3.12  0.  0.  0.
314  3.13  0.  0.  0.
315  3.14  0.  0.  0.
316  3.15  0.  0.  0.
317  3.16  0.  0.  0.
318  3.17  0.  0.  0.
319  3.18  0.  0.  0.
320  3.19  0.  0.  0.
321  3.20  0.  0.  0.
322  3.21  0.  0.  0.
323  3.22  0.  0.  0.
324  3.23  0.  0.  0.
325  3.24  0.  0.  0.
326  3.25  0.  0.  0.
327  3.26  0.  0.  0.
328  3.27  0.  0.  0.
329  3.28  0.  0.  0.
330  3.29  0.  0.  0.
331  3.30  0.  0.  0.
332  3.31  0.  0.  0.
333  3.32  0.  0.  0.
334  3.33  0.  0.  0.
335  3.34  0.  0.  0.
336  3.35  0.  0.  0.
337  3.36  0.  0.  0.
338  3.37  0.  0.  0.
339  3.38  0.  0.  0.
340  3.39  0.  0.  0.
341  3.40  0.  0.  0.
342  3.41  0.  0.  0.
343  3.42  0.  0.  0.
344  3.43  0.  0.  0.
345  3.44  0.  0.  0.
346  3.45  0.  0.  0.
347  3.46  0.  0.  0.
348  3.47  0.  0.  0.
349  3.48  0.  0.  0.
350  3.49  0.  0.  0.
351  3.50  0.  0.  0.
352  3.51  0.  0.  0.
353  3.52  0.  0.  0.
354  3.53  0.  0.  0.
355  3.54  0.  0.  0.
356  3.55  0.  0.  0.
357  3.56  0.  0.  0.
358  3.57  0.  0.  0.
359  3.58  0.  0.  0.
360  3.59  0.  0.  0.
361  3.60  0.  0.  0.
362  3.61  0.  0.  0.
363  3.62  0.  0.  0.
364  3.63  0.  0.  0.
365  3.64  0.  0.  0.
366  3.65  0.  0.  0.
367  3.66  0.  0.  0.
368  3.67  0.  0.  0.
369  3.68  0.  0.  0.
370  3.69  0.  0.  0.
371  3.70  0.  0.  0.
372  3.71  0.  0.  0.
373  3.72  0.  0.  0.
374  3.73  0.  0.  0.
375  3.74  0.  0.  0.
376  3.75  0.  0.  0.
377  3.76  0.  0.  0.
378  3.77  0.  0.  0.
379  3.78  0.  0.  0.
380  3.79  0.  0.  0.
381  3.80  0.  0.  0.
382  3.81  0.  0.  0.
383  3.82  0.  0.  0.
384  3.83  0.  0.  0.
385  3.84  0.  0.  0.
386  3.85  0.  0.  0.
387  3.86  0.  0.  0.
388  3.87  0.  0.  0.
389  3.88  0.  0.  0.
390  3.89  0.  0.  0.
391  3.90  0.  0.  0.
392  3.91  0.  0.  0.
393  3.92  0.  0.  0.
394  3.93  0.  0.  0.
395  3.94  0.  0.  0.
396  3.95  0.  0.  0.
397  3.96  0.  0.  0.
398  3.97  0.  0.  0.
399  3.98  0.  0.  0.
400  3.99  0.  0.  0.
401  4.00  0.  0.  0.
402  4.01  0.  0.  0.
403  4.02  0.  0.  0.
404  4.03  0.  0.  0.
405  4.04  0.  0.  0.
406  4.05  0.  0.  0.
407  4.06  0.  0.  0.
408  4.07  0.  0.  0.
409  4.08  0.  0.  0.
410  4.09  0.  0.  0.
411  4.10  0.  0.  0.
412  4.11  0.  0.  0.
413  4.12  0.  0.  0.
414  4.13  0.  0.  0.
415  4.14  0.  0.  0.
416  4.15  0.  0.  0.
417  4.16  0.  0.  0.
418  4.17  0.  0.  0.
419  4.18  0.  0.  0.
420  4.19  0.  0.  0.
421  4.20  0.  0.  0.
422  4.21  0.  0.  0.
423  4.22  0.  0.  0.
424  4.23  0.  0.  0.
425  4.24  0.  0.  0.
426  4.25  0.  0.  0.
427  4.26  0.  0.  0.
428  4.27  0.  0.  0.
429  4.28  0.  0.  0.
430  4.29  0.  0.  0.
431  4.30  0.  0.  0.
432  4.31  0.  0.  0.
433  4.32  0.  0.  0.
434  4.33  0.  0.  0.
435  4.34  0.  0.  0.
436  4.35  0.  0.  0.
437  4.36  0.  0.  0.
438  4.37  0.  0.  0.
439  4.38  0.  0.  0.
440  4.39  0.  0.  0.
441  4.40  0.  0.  0.
442  4.41  0.  0.  0.
443  4.42  0.  0.  0.
444  4.43  0.  0.  0.
445  4.44  0.  0.  0.
446  4.45  0.  0.  0.
447  4.46  0.  0.  0.
448  4.47  0.  0.  0.
449  4.48  0.  0.  0.
450  4.49  0.  0.  0.
451  4.50  0.  0.  0.
452  4.51  0.  0.  0.
453  4.52  0.  0.  0.
454  4.53  0.  0.  0.
455  4.54  0.  0.  0.
456  4.55  0.  0.  0.
457  4.56  0.  0.  0.
458  4.57  0.  0.  0.
459  4.58  0.  0.  0.
460  4.59  0.  0.  0.
461  4.60  0.  0.  0.
462  4.61  0.  0.  0.
463  4.62  0.  0.  0.
464  4.63  0.  0.  0.
465  4.64  0.  0.  0.
466  4.65  0.  0.  0.
467  4.66  0.  0.  0.
468  4.67  0.  0.  0.
469  4.68  0.  0.  0.
470  4.69  0.  0.  0.
471  4.70  0.  0.  0.
472  4.71  0.  0.  0.
473  4.72  0.  0.  0.
474  4.73  0.  0.  0.
475  4.74  0.  0.  0.
476  4.75  0.  0.  0.
477  4.76  0.  0.  0.
478  4.77  0.  0.  0.
479  4.78  0.  0.  0.
480  4.79  0.  0.  0.
481  4.80  0.  0.  0.
482  4.81  0.  0.  0.
483  4.82  0.  0.  0.
484  4.83  0.  0.  0.
485  4.84  0.  0.  0.
486  4.85  0.  0.  0.
487  4.86  0.  0.  0.
488  4.87  0.  0.  0.
489  4.88  0.  0.  0.
490  4.89  0.  0.  0.
491  4.90  0.  0.  0.
492  4.91  0.  0.  0.
493  4.92  0.  0.  0.
494  4.93  0.  0.  0.
495  4.94  0.  0.  0.
496  4.95  0.  0.  0.
497  4.96  0.  0.  0.
498  4.97  0.  0.  0.
499  4.98  0.  0.  0.
500  4.99  0.  0.  0.
501  5.00  0.  0.  0.
502  5.01  0.  0.  0.
503  5.02  0.  0.  0.
504  5.03  0.  0.  0.
505  5.04  0.  0.  0.
506  5.05  0.  0.  0.
507  5.06  0.  0.  0.
508  5.07  0.  0.  0.
509  5.08  0.  0.  0.
510  5.09  0.  0.  0.
511  5.10  0.  0.  0.
512  5.11  0.  0.  0.
513  5.12  0.  0.  0.
514  5.13  0.  0.  0.
515  5.14  0.  0.  0.
516  5.15  0.  0.  0.
517  5.16  0.  0.  0.
518  5.17  0.  0.  0.
519  5.18  0.  0.  0.
520  5.19  0.  0.  0.
521  5.20  0.  0.  0.
522  5.21  0.  0.  0.
523  5.22  0.  0.  0.
524  5.23  0.  0.  0.
525  5.24  0.  0.  0.
526  5.25  0.  0.  0.
527  5.26  0.  0.  0.
528  5.27  0.  0.  0.
529  5.28  0.  0.  0.
530  5.29  0.  0.  0.
531  5.30  0.  0.  0.
532  5.31  0.  0.  0.
533  5.32  0.  0.  0.
534  5.33  0.  0.  0.
535  5.34  0.  0.  0.
536  5.35  0.  0.  0.
537  5.36  0.  0.  0.
538  5.37  0.  0.  0.
539  5.38  0.  0.  0.
540  5.39  0.  0.  0.
541  5.40  0.  0.  0.
542  5.41  0.  0.  0.
543  5.42  0.  0.  0.
544  5.43  0.  0.  0.
545  5.44  0.  0.  0.
546  5.45  0.  0.  0.
547  5.46  0.  0.  0.
548  5.47  0.  0.  0.
549  5.48  0.  0.  0.
550  5.49  0.  0.  0.
551  5.50  0.  0.  0.
552  5.51  0.  0.  0.
553  5.52  0.  0.  0.
554  5.53  0.  0.  0.
555  5.54  0.  0.  0.
556  5.55  0.  0.  0.
557  5.56  0.  0.  0.
558  5.57  0.  0.  0.
559  5.58  0.  0.  0.
560  5.59  0.  0.  0.
561  5.60  0.  0.  0.
562  5.61  0.  0.  0.
563  5.62  0.  0.  0.
564  5.63  0.  0.  0.
565  5.64  0.  0.  0.
566  5.65  0.  0.  0.
567  5.66  0.  0.  0.
568  5.67  0.  0.  0.
569  5.68  0.  0.  0.
570  5.69  0.  0.  0.
571  5.70  0.  0.  0.
572  5.71  0.  0.  0.
573  5.72  0.  0.  0.
574  5.73  0.  0.  0.
575  5.74  0.  0.  0.
576  5.75  0.  0.  0.
577  5.76  0.  0.  0.
578  5.77  0.  0.  0.
579  5.78  0.  0.  0.
580  5.79  0.  0.  0.
581  5.80  0.  0.  0.
582  5.81  0.  0.  0.
583  5.82  0.  0.  0.
584  5.83  0.  0.  0.
585  5.84  0.  0.  0.
586  5.85  0.  0.  0.
587  5.86  0.  0.  0.
588  5.87  0.  0.  0.
589  5.88  0.  0.  0.
590  5.89  0.  0.  0.
591  5.90  0.  0.  0.
592  5.91  0.  0.  0.
593  5.92  0.  0.  0.
594  5.93  0.  0.  0.
595  5.94  0.  0.  0.
596  5.95  0.  0.  0.
597  5.96  0.  0.  0.
598  5.97  0.  0.  0.
599  5.98  0.  0.  0.
600  5.99  0.  0.  0.
1                        -9.3807004045002E+00 -2.0117557193898E-01
1  0.0000000000000E+00  2.5175806717126E-09  2.0104481746053E-08
2  1.0000000000000E-02  2.5764799368223E-03  4.6827967384141E-03
3  2.0000000000000E-02  1.0288774450053E-02  1.8667159573342E-02
4  3.0000000000000E-02  2.3085586916375E-02  4.1761843606240E-02
5  4.0000000000000E-02  4.0881885804024E-02  7.3650886923049E-02
6  5.0000000000000E-02  6.3559594093451E-02  1.1389774083319E-01
7  6.0000000000000E-02  9.0968544844938E-02  1.6195097446526E-01
8  7.0000000000000E-02  1.2292769342808E-01  2.1715147722098E-01
9  8.0000000000000E-02  1.5922657441045E-01  2.7874106248457E-01
10  9.0000000000000E-02  1.9962698872617E-01  3.4587235717165E-01
11  1.0000000000000E-01  2.4386490453652E-01  4.1761984442825E-01
12  1.1000000000000E-01  2.9165255318020E-01  4.9299191129707E-01
13  1.2000000000000E-01  3.4268069981165E-01  5.7094373966814E-01
14  1.3000000000000E-01  3.9662106676342E-01  6.5039086751594E-01
15  1.4000000000000E-01  4.5312888635842E-01  7.3022323845506E-01
16  1.5000000000000E-01  5.1184555885354E-01  8.0931955115987E-01
17  1.6000000000000E-01  5.7240139042832E-01  8.8656171628481E-01
18  1.7000000000000E-01  6.3441838564633E-01  9.6084922726500E-01
19  1.8000000000000E-01  6.9751306861578E-01  1.0311132527966E+00
20  1.9000000000000E-01  7.6129930715912E-01  1.0963302628917E+00
21  2.0000000000000E-01  8.2539111466356E-01  1.1555350071285E+00
22  2.1000000000000E-01  8.8940540491744E-01  1.2078326729899E+00
23  2.2000000000000E-01  9.5296467613107E-01  1.2524100638921E+00
24  2.3000000000000E-01  1.0156996014779E+00  1.2885456504801E+00
25  2.4000000000000E-01  1.0772515048572E+00  1.3156183648330E+00
26  2.5000000000000E-01  1.1372747021515E+00  1.3331150251417E+00
27  2.6000000000000E-01  1.1954386900079E+00  1.3406362979470E+00
28  2.7000000000000E-01  1.2514301660869E+00  1.3379011258749E+00
29  2.8000000000000E-01  1.3049548667731E+00  1.3247495706644E+00
30  2.9000000000000E-01  1.3557392104923E+00  1.3011440438380E+00
31  3.0000000000000E-01  1.4035317370130E+00  1.2671689202677E+00
32  3.1000000000000E-01  1.4481043353866E+00  1.2230285527937E+00
33  3.2000000000000E-01  1.4892532554796E+00  1.1690437286095E+00
34  3.3000000000000E-01  1.5267999003368E+00  1.1056466299858E+00
35  3.4000000000000E-01  1.5605913988675E+00  1.0333743827253E+00
36  3.5000000000000E-01  1.5905009605317E+00  9.5286129519398E-01
37  3.6000000000000E-01  1.6164280158027E+00  8.6482990856480E-01
38  3.7000000000000E-01  1.6382981481691E+00  7.7008099474424E-01
39  3.8000000000000E-01  1.6560628252929E+00  6.6948265210069E-01
40  3.9000000000000E-01  1.6696989386442E+00  5.6395866035322E-01
41  4.0000000000000E-01  1.6792081624704E+00  4.5447626464811E-01
42  4.1000000000000E-01  1.6846161443131E+00  3.4203356482131E-01
43  4.2000000000000E-01  1.6859715404567E+00  2.2764668904551E-01
44  4.3000000000000E-01  1.6833449106604E+00  1.1233693145464E-01
45  4.4000000000000E-01  1.6768274872998E+00 -2.8819690383636E-03
46  4.5000000000000E-01  1.6665298346118E+00 -1.1701623660418E-01
47  4.6000000000000E-01  1.6525804141063E+00 -2.2910398857932E-01
48  4.7000000000000E-01  1.6351240723857E+00 -3.3822653339492E-01
49  4.8000000000000E-01  1.6143204675989E+00 -4.4351889426429E-01
50  4.9000000000000E-01  1.5903424505685E+00 -5.4417943078347E-01
51  5.0000000000000E-01  1.5633744162724E+00 -6.3947844650736E-01
52  5.1000000000000E-01  1.5336106408549E+00 -7.2876568782760E-01
53  5.2000000000000E-01  1.5012536186935E+00 -8.1147665776289E-01
54  5.3000000000000E-01  1.4665124132856E+00 -8.8713768723256E-01
55  5.4000000000000E-01  1.4296010348448E+00 -9.5536972565652E-01
56  5.5000000000000E-01  1.3907368565431E+00 -1.0158908319692E+00
57  5.6000000000000E-01  1.3501390803102E+00 -1.0685173659904E+00
58  5.7000000000000E-01  1.3080272620263E+00 -1.1131638982481E+00
59  5.8000000000000E-01  1.2646199048384E+00 -1.1498418734840E+00
60  5.9000000000000E-01  1.2201331282066E+00 -1.1786570789172E+00
61  6.0000000000000E-01  1.1747794191618E+00 -1.1998059826658E+00
62  6.1000000000000E-01  1.1287664711485E+00 -1.2135710203190E+00
63  6.2000000000000E-01  1.0822961147418E+00 -1.2203149183780E+00
64  6.3000000000000E-01  1.0355633434826E+00 -1.2204741520302E+00
65  6.4000000000000E-01  9.8875543708176E-01 -1.2145516414385E+00
66  6.5000000000000E-01  9.4205118330025E-01 -1.2031087954166E+00
67  6.6000000000000E-01  8.9562019893687E-01 -1.1867570140708E+00
68  6.7000000000000E-01  8.4962234954418E-01 -1.1661487628116E+00
69  6.8000000000000E-01  8.0420726675169E-01 -1.1419683292219E+00
70  6.9000000000000E-01  7.5951396140540E-01 -1.1149223717943E+00
71  7.0000000000000E-01  7.1567053013276E-01 -1.0857303657203E+00
72  7.1000000000000E-01  6.7279395241042E-01 -1.0551150460028E+00
73  7.2000000000000E-01  6.3098997474661E-01 -1.0237929423945E+00
74  7.3000000000000E-01  5.9035307818561E-01 -9.9246509435597E-01
75  7.4000000000000E-01  5.5096652499436E-01 -9.6180802763074E-01
76  7.5000000000000E-01  5.1290248009621E-01 -9.3246506744117E-01
77  7.6000000000000E-01  4.7622220256716E-01 -9.0503805698538E-01
78  7.7000000000000E-01  4.4097630230129E-01 -8.8007954409893E-01
79  7.8000000000000E-01  4.0720505677843E-01 -8.5808549385999E-01
80  7.9000000000000E-01  3.7493878272309E-01 -8.3948858073999E-01
81  8.0000000000000E-01  3.4419825732473E-01 -8.2465211078106E-01
82  8.1000000000000E-01  3.1499518359161E-01 -8.1386462230679E-01
83  8.2000000000000E-01  2.8733269432994E-01 -8.0733521289827E-01
84  8.3000000000000E-01  2.6120588917486E-01 -8.0518964078394E-01
85  8.4000000000000E-01  2.3660239904802E-01 -8.0746725034849E-01
86  8.5000000000000E-01  2.1350297237770E-01 -8.1411877405678E-01
87  8.6000000000000E-01  1.9188207739157E-01 -8.2500506655735E-01
88  8.7000000000000E-01  1.7170851478099E-01 -8.3989683087902E-01
89  8.8000000000000E-01  1.5294603504063E-01 -8.5847540122669E-01
90  8.9000000000000E-01  1.3555395481102E-01 -8.8033465164183E-01
91  9.0000000000000E-01  1.1948776659809E-01 -9.0498410443066E-01
92  9.1000000000000E-01  1.0469973631572E-01 -9.3185331645349E-01
93  9.2000000000000E-01  9.1139483199521E-02 -9.6029762480136E-01
94  9.3000000000000E-01  7.8754536776088E-02 -9.8960533572902E-01
95  9.4000000000000E-01  6.7490865745784E-02 -1.0190064416675E+00
96  9.5000000000000E-01  5.7293373852511E-02 -1.0476829504069E+00
97  9.6000000000000E-01  4.8106358073740E-02 -1.0747809078753E+00
98  9.7000000000000E-01  3.9873924771057E-02 -1.0994241911107E+00
99  9.8000000000000E-01  3.2540359797043E-02 -1.1207301408757E+00
100  9.9000000000000E-01  2.6050448959292E-02 -1.1378270937683E+00
101  1.0000000000000E+00  2.0349745696086E-02 -1.1498738616013E+00
102  1.0100000000000E+00  1.5384783319531E-02 -1.1560811912440E+00
103  1.0200000000000E+00  1.1103229727779E-02 -1.1557352211449E+00
104  1.0300000000000E+00  7.4539830740822E-03 -1.1482229315071E+00
105  1.0400000000000E+00  4.3872075018857E-03 -1.1330595638171E+00
106  1.0500000000000E+00  1.8543087059987E-03 -1.1099179623331E+00
107  1.0600000000000E+00 -1.9215024929556E-04 -1.0786597656995E+00
108  1.0700000000000E+00 -1.7985917392507E-03 -1.0393683512805E+00
109  1.0800000000000E+00 -3.0106232111581E-03 -9.9238340869572E-01
110  1.0900000000000E+00 -3.8732912329827E-03 -9.3833700418101E-01
111  1.1000000000000E+00 -4.4313855648456E-03 -8.7819077559216E-01
112  1.1100000000000E+00 -4.7297926912486E-03 -8.1327454007997E-01
113  1.1200000000000E+00 -4.8131720333251E-03 -7.4522066887699E-01
114  1.1300000000000E+00 -4.7236472579453E-03 -6.7562033713514E-01
115  1.1400000000000E+00 -4.4996658858867E-03 -6.0587681673095E-01
116  1.1500000000000E+00 -4.1758784411507E-03 -5.3720805053544E-01
117  1.1600000000000E+00 -3.7830928399318E-03 -4.7065250660085E-01
118  1.1700000000000E+00 -3.3482911230469E-03 -4.0707725638385E-01
119  1.1800000000000E+00 -2.8946977861290E-03 -3.4718758187606E-01
120  1.1900000000000E+00 -2.4418911350383E-03 -2.9153775407605E-01
121  1.2000000000000E+00 -2.0059491202808E-03 -2.4054262335891E-01
122  1.2100000000000E+00 -1.5996212923410E-03 -1.9448967135505E-01
123  1.2200000000000E+00 -1.2325182486759E-03 -1.5355124042361E-01
124  1.2300000000000E+00 -9.1131641253278E-04 -1.1779609805113E-01
125  1.2400000000000E+00 -6.3994533451326E-04 -8.7202359517910E-02
126  1.2500000000000E+00 -4.2069467984660E-04 -6.1591645146686E-02
127  1.2600000000000E+00 -2.5402900488453E-04 -4.0715863839902E-02
128  1.2700000000000E+00 -1.3585271604970E-04 -2.4465313412565E-02
129  1.2800000000000E+00 -6.0035260607329E-05 -1.2621156667617E-02
130  1.2900000000000E+00 -1.8678122284031E-05 -4.8775248086604E-03
131  1.3000000000000E+00 -2.3356187503065E-06 -8.5138131058612E-04
132  1.3100000000000E+00  7.9334236680731E-08  4.2657643117448E-05
133  1.3200000000000E+00 -2.6197050770542E-08 -1.2166236950717E-05
134  1.33  0.  0.
135  1.34  0.  0.
136  1.35  0.  0.
137  1.36  0.  0.
138  1.37  0.  0.
139  1.38  0.  0.
140  1.39  0.  0.
141  1.40  0.  0.
142  1.41  0.  0.