Sg    ONCVPSP-4.0.1  r_core=   1.10583   1.30748   1.20244   1.20244
106.0000     46.0000      231012    zatom,zion,pspd
8   -1012   3     4   600     0    pspcod,pspxc,lmax,lloc,mmax,r2well
5.99000000  5.00000000  0.00000000    rchrg fchrg qchrg
3     3     2     2    nproj
3     1           extension_switch
4     3     3    nprojso
0                         2.0556317158259E+01 -1.0619393093491E+01 -3.4793754196092E-01
1  0.0000000000000E+00 -2.4837677248257E-08  6.5064326149056E-10  5.6063409248353E-08
2  1.0000000000000E-02  2.1331591651050E-01  5.1461500119142E-02 -6.1119056076519E-02
3  2.0000000000000E-02  4.2442389786468E-01  1.0293320733478E-01 -1.2105462404755E-01
4  3.0000000000000E-02  6.3114360773837E-01  1.5442426367587E-01 -1.7865135012623E-01
5  4.0000000000000E-02  8.3134950605457E-01  2.0594169501191E-01 -2.3280948497075E-01
6  5.0000000000000E-02  1.0229972500329E+00  2.5748938774281E-01 -2.8251104008476E-01
7  6.0000000000000E-02  1.2041489167579E+00  3.0906710674022E-01 -3.2684401001654E-01
8  7.0000000000000E-02  1.3729966841395E+00  3.6066956751251E-01 -3.6502408282918E-01
9  8.0000000000000E-02  1.5278846319787E+00  4.1228557491508E-01 -3.9641331737680E-01
10  9.0000000000000E-02  1.6673283551278E+00  4.6389723993393E-01 -4.2053533407934E-01
11  1.0000000000000E-01  1.7900321159641E+00  5.1547928514711E-01 -4.3708664485902E-01
12  1.1000000000000E-01  1.8949033029763E+00  5.6699844842732E-01 -4.4594383616936E-01
13  1.2000000000000E-01  1.9810640055466E+00  6.1841299330676E-01 -4.4716641485353E-01
14  1.3000000000000E-01  2.0478595612573E+00  6.6967233319579E-01 -4.4099522794652E-01
15  1.4000000000000E-01  2.0948639804750E+00  7.2071677534686E-01 -4.2784647231704E-01
16  1.5000000000000E-01  2.1218822027230E+00  7.7147738909920E-01 -4.0830141591078E-01
17  1.6000000000000E-01  2.1289491895859E+00  8.2187600154362E-01 -3.8309205685718E-01
18  1.7000000000000E-01  2.1163259087060E+00  8.7182532232395E-01 -3.5308304732426E-01
19  1.8000000000000E-01  2.0844923119466E+00  9.2122919785548E-01 -3.1925030320828E-01
20  1.9000000000000E-01  2.0341374571403E+00  9.6998299380460E-01 -2.8265680604909E-01
21  2.0000000000000E-01  1.9661469661845E+00  1.0179741032475E+00 -2.4442617759219E-01
22  2.1000000000000E-01  1.8815880517948E+00  1.0650825765213E+00 -2.0571466798829E-01
23  2.2000000000000E-01  1.7816923802826E+00  1.1111818674067E+00 -1.6768224382211E-01
24  2.3000000000000E-01  1.6678370676493E+00  1.1561396889494E+00 -1.3146349040011E-01
25  2.4000000000000E-01  1.5415241305681E+00  1.1998189709438E+00 -9.8139052824602E-02
26  2.5000000000000E-01  1.4043587320429E+00  1.2420789098785E+00 -6.8708331617050E-02
27  2.6000000000000E-01  1.2580265734173E+00  1.2827761009920E+00 -4.4064120825993E-02
28  2.7000000000000E-01  1.1042707898005E+00  1.3217657410096E+00 -2.4969829983826E-02
29  2.8000000000000E-01  9.4486870488097E-01  1.3589028891549E+00 -1.2039866888707E-02
30  2.9000000000000E-01  7.8160879364448E-01  1.3940437731478E+00 -5.7236774180705E-03
31  3.0000000000000E-01  6.1626818797258E-01  1.4270471261421E+00 -6.2938434563295E-03
32  3.1000000000000E-01  4.5059104088178E-01  1.4577755399276E+00 -1.3838533040032E-02
33  3.2000000000000E-01  2.8626804079465E-01  1.4860968192348E+00 -2.8258480934719E-02
34  3.3000000000000E-01  1.2491733835452E-01  1.5118853216597E+00 -4.9268556371645E-02
35  3.4000000000000E-01 -3.1932884368484E-02  1.5350232675764E+00 -7.6403851154900E-02
36  3.5000000000000E-01 -1.8286000807754E-01  1.5554020044426E+00 -1.0903009951506E-01
37  3.6000000000000E-01 -3.2656057742837E-01  1.5729232101430E+00 -1.4635812469082E-01
38  3.7000000000000E-01 -4.6186179178821E-01  1.5875000204592E+00 -1.8746189989221E-01
39  3.8000000000000E-01 -5.8773080757404E-01  1.5990580664175E+00 -2.3129971646432E-01
40  3.9000000000000E-01 -7.0328181308256E-01  1.6075364081430E+00 -2.7673787276960E-01
41  4.0000000000000E-01 -8.0778087433758E-01  1.6128883529409E+00 -3.2257623612630E-01
42  4.1000000000000E-01 -9.0064858605115E-01  1.6150821466283E+00 -3.6757498906212E-01
43  4.2000000000000E-01 -9.8146059466405E-01  1.6141015286388E+00 -4.1048185150800E-01
44  4.3000000000000E-01 -1.0499460900460E+00  1.6099461430995E+00 -4.5005907295643E-01
45  4.4000000000000E-01 -1.1059843883589E+00  1.6026317999135E+00 -4.8510951288583E-01
46  4.5000000000000E-01 -1.1495997505050E+00  1.5921905818495E+00 -5.1450117295664E-01
47  4.6000000000000E-01 -1.1809545983141E+00  1.5786707956931E+00 -5.3718960893863E-01
48  4.7000000000000E-01 -1.2003413041109E+00  1.5621367676399E+00 -5.5223773162899E-01
49  4.8000000000000E-01 -1.2081727386240E+00  1.5426684852448E+00 -5.5883260115116E-01
50  4.9000000000000E-01 -1.2049717675237E+00  1.5203610903568E+00 -5.5629892447368E-01
51  5.0000000000000E-01 -1.1913598885022E+00  1.4953242295167E+00 -5.4410907780237E-01
52  5.1000000000000E-01 -1.1680451991014E+00  1.4676812702289E+00 -5.2188958956955E-01
53  5.2000000000000E-01 -1.1358098808909E+00  1.4375683933029E+00 -4.8942413177787E-01
54  5.3000000000000E-01 -1.0954973785739E+00  1.4051335730501E+00 -4.4665317334511E-01
55  5.4000000000000E-01 -1.0479994436700E+00  1.3705354584823E+00 -3.9367054490542E-01
56  5.5000000000000E-01 -9.9424320207452E-01  1.3339421697688E+00 -3.3071724676963E-01
57  5.6000000000000E-01 -9.3517839352875E-01  1.2955300250331E+00 -2.5817289749576E-01
58  5.7000000000000E-01 -8.7176491927542E-01  1.2554822131050E+00 -1.7654526749434E-01
59  5.8000000000000E-01 -8.0496082232130E-01  1.2139874280757E+00 -8.6458368832919E-02
60  5.9000000000000E-01 -7.3571081308328E-01  1.1712384814356E+00  1.1360421739806E-02
61  6.0000000000000E-01 -6.6493544199651E-01  1.1274309072210E+00  1.1609374429312E-01
62  6.1000000000000E-01 -5.9352101005270E-01  1.0827615749672E+00  2.2684771372369E-01
63  6.2000000000000E-01 -5.2231029827320E-01  1.0374273244035E+00  3.4266507800910E-01
64  6.3000000000000E-01 -4.5209418777494E-01  9.9162363474528E-01  4.6253776692119E-01
65  6.4000000000000E-01 -3.8360423325343E-01  9.4554334019958E-01  5.8541859921631E-01
66  6.5000000000000E-01 -3.1750624421617E-01  8.9937540193399E-01  7.1023200149066E-01
67  6.6000000000000E-01 -2.5439491992995E-01  8.5330374531761E-01  8.3588368011462E-01
68  6.7000000000000E-01 -1.9478957554703E-01  8.0750616977720E-01  9.6126927446733E-01
69  6.8000000000000E-01 -1.3913098798279E-01  7.6215333716614E-01  1.0852821006011E+00
70  6.9000000000000E-01 -8.7779380576098E-02  7.1740784316682E-01  1.2068201652274E+00
71  7.0000000000000E-01 -4.1013555150929E-02  6.7342337497752E-01  1.3247926867062E+00
72  7.1000000000000E-01  9.6883136288629E-04  6.3034395740994E-01  1.4381263992889E+00
73  7.2000000000000E-01  3.8049861204835E-02  5.8830328856806E-01  1.5457719367401E+00
74  7.3000000000000E-01  7.0188850200440E-02  5.4742416551457E-01  1.6467105900581E+00
75  7.4000000000000E-01  9.7418786459179E-02  5.0781799976404E-01  1.7399617107449E+00
76  7.5000000000000E-01  1.1984177332364E-01  4.6958442207372E-01  1.8245909863940E+00
77  7.6000000000000E-01  1.3762355302819E-01  4.3281097582035E-01  1.8997197508193E+00
78  7.7000000000000E-01  1.5098720430128E-01  3.9757289823556E-01  1.9645354090954E+00
79  7.8000000000000E-01  1.6020612374600E-01  3.6393298889161E-01  2.0183029622811E+00
80  7.9000000000000E-01  1.6559641671888E-01  3.3194156504757E-01  2.0603775116045E+00
81  8.0000000000000E-01  1.6750883800320E-01  3.0163650373845E-01  2.0902175126098E+00
82  8.1000000000000E-01  1.6632043520878E-01  2.7304337076821E-01  2.1073984417250E+00
83  8.2000000000000E-01  1.6242605789034E-01  2.4617563700219E-01  2.1116264367504E+00
84  8.3000000000000E-01  1.5622990224056E-01  2.2103498249347E-01  2.1027513847366E+00
85  8.4000000000000E-01  1.4813726431751E-01  1.9761168897434E-01  2.0807788612347E+00
86  8.5000000000000E-01  1.3854667361866E-01  1.7588512105376E-01  2.0458802790852E+00
87  8.6000000000000E-01  1.2784257303349E-01  1.5582429604865E-01  1.9984005871986E+00
88  8.7000000000000E-01  1.1638870054346E-01  1.3738854171349E-01  1.9388628736047E+00
89  8.8000000000000E-01  1.0452231239315E-01  1.2052824020185E-01  1.8679692747608E+00
90  8.9000000000000E-01  9.2549366898981E-02  1.0518565539090E-01  1.7865976757188E+00
91  9.0000000000000E-01  8.0740762838018E-02  9.1295839233121E-02  1.6957938029453E+00
92  9.1000000000000E-01  6.9329696898052E-02  7.8787611090474E-02  1.5967584615306E+00
93  9.2000000000000E-01  5.8510171572889E-02  6.7584602088957E-02  1.4908298480288E+00
94  9.3000000000000E-01  4.8436648921736E-02  5.7606354453076E-02  1.3794610746301E+00
95  9.4000000000000E-01  3.9224807693386E-02  4.8769463598337E-02  1.2641932639630E+00
96  9.5000000000000E-01  3.0953322472823E-02  4.0988748542270E-02  1.1466248096871E+00
97  9.6000000000000E-01  2.3666544874427E-02  3.4178434016138E-02  1.0283776383889E+00
98  9.7000000000000E-01  1.7377929534163E-02  2.8253325597993E-02  9.1106154497183E-01
99  9.8000000000000E-01  1.2074012950515E-02  2.3129957325028E-02  7.9623789808453E-01
100  9.9000000000000E-01  7.7187222298086E-03  1.8727689657437E-02  6.8538421576240E-01
101  1.0000000000000E+00  4.2577645996629E-03  1.4969734432375E-02  5.7986128621637E-01
102  1.0100000000000E+00  1.6228281095787E-03  1.1784082630762E-02  4.8088464735131E-01
103  1.0200000000000E+00 -2.6468992351474E-04  9.1043104391892E-03  3.8950233463495E-01
104  1.0300000000000E+00 -1.4907146711015E-03  6.8702403548232E-03  3.0658084309158E-01
105  1.0400000000000E+00 -2.1466141185003E-03  5.0284166302397E-03  2.3280147666259E-01
106  1.0500000000000E+00 -2.3286309259502E-03  3.5324225005201E-03  1.6866861456546E-01
107  1.0600000000000E+00 -2.1519451474087E-03  2.3350098154810E-03  1.1460856621043E-01
108  1.0700000000000E+00 -1.7175101122549E-03  1.4016214464835E-03  7.0809406816603E-02
109  1.0800000000000E+00 -1.1263667248379E-03  7.1613848811328E-04  3.7307983606178E-02
110  1.0900000000000E+00 -5.2115665028947E-04  2.6478124084851E-04  1.4262951296715E-02
111  1.1000000000000E+00 -8.6802488809912E-05  3.5907531465326E-05  2.0067540121456E-03
112  1.1100000000000E+00  4.6847220293227E-06 -1.6876511495303E-06 -9.7393718573116E-05
113  1.1200000000000E+00  1.2717359757095E-07 -5.3224951103052E-08 -2.9770651954868E-06
114  1.13  0.  0.  0.
115  1.14  0.  0.  0.
116  1.15  0.  0.  0.
117  1.16  0.  0.  0.
118  1.17  0.  0.  0.
119  1.18  0.  0.  0.
120  1.19  0.  0.  0.
121  1.20  0.  0.  0.
122  1.21  0.  0.  0.
123  1.22  0.  0.  0.
124  1.23  0.  0.  0.
125  1.24  0.  0.  0.
126  1.25  0.  0.  0.
127  1.26  0.  0.  0.
128  1.27  0.  0.  0.
129  1.28  0.  0.  0.
130  1.29  0.  0.  0.
131  1.30  0.  0.  0.
132  1.31  0.  0.  0.
133  1.32  0.  0.  0.
134  1.33  0.  0.  0.
135  1.34  0.  0.  0.
136  1.35  0.  0.  0.
137  1.36  0.  0.  0.
138  1.37  0.  0.  0.
139  1.38  0.  0.  0.
140  1.39  0.  0.  0.
141  1.40  0.  0.  0.
142  1.41  0.  0.  0.
143  1.42  0.  0.  0.
144  1.43  0.  0.  0.
145  1.44  0.  0.  0.
146  1.45  0.  0.  0.
147  1.46  0.  0.  0.
148  1.47  0.  0.  0.
149  1.48  0.  0.  0.
150  1.49  0.  0.  0.
151  1.50  0.  0.  0.
152  1.51  0.  0.  0.
153  1.52  0.  0.  0.
154  1.53  0.  0.  0.
155  1.54  0.  0.  0.
156  1.55  0.  0.  0.
157  1.56  0.  0.  0.
158  1.57  0.  0.  0.
159  1.58  0.  0.  0.
160  1.59  0.  0.  0.
161  1.60  0.  0.  0.
162  1.61  0.  0.  0.
163  1.62  0.  0.  0.
164  1.63  0.  0.  0.
165  1.64  0.  0.  0.
166  1.65  0.  0.  0.
167  1.66  0.  0.  0.
168  1.67  0.  0.  0.
169  1.68  0.  0.  0.
170  1.69  0.  0.  0.
171  1.70  0.  0.  0.
172  1.71  0.  0.  0.
173  1.72  0.  0.  0.
174  1.73  0.  0.  0.
175  1.74  0.  0.  0.
176  1.75  0.  0.  0.
177  1.76  0.  0.  0.
178  1.77  0.  0.  0.
179  1.78  0.  0.  0.
180  1.79  0.  0.  0.
181  1.80  0.  0.  0.
182  1.81  0.  0.  0.
183  1.82  0.  0.  0.
184  1.83  0.  0.  0.
185  1.84  0.  0.  0.
186  1.85  0.  0.  0.
187  1.86  0.  0.  0.
188  1.87  0.  0.  0.
189  1.88  0.  0.  0.
190  1.89  0.  0.  0.
191  1.90  0.  0.  0.
192  1.91  0.  0.  0.
193  1.92  0.  0.  0.
194  1.93  0.  0.  0.
195  1.94  0.  0.  0.
196  1.95  0.  0.  0.
197  1.96  0.  0.  0.
198  1.97  0.  0.  0.
199  1.98  0.  0.  0.
200  1.99  0.  0.  0.
201  2.00  0.  0.  0.
202  2.01  0.  0.  0.
203  2.02  0.  0.  0.
204  2.03  0.  0.  0.
205  2.04  0.  0.  0.
206  2.05  0.  0.  0.
207  2.06  0.  0.  0.
208  2.07  0.  0.  0.
209  2.08  0.  0.  0.
210  2.09  0.  0.  0.
211  2.10  0.  0.  0.
212  2.11  0.  0.  0.
213  2.12  0.  0.  0.
214  2.13  0.  0.  0.
215  2.14  0.  0.  0.
216  2.15  0.  0.  0.
217  2.16  0.  0.  0.
218  2.17  0.  0.  0.
219  2.18  0.  0.  0.
220  2.19  0.  0.  0.
221  2.20  0.  0.  0.
222  2.21  0.  0.  0.
223  2.22  0.  0.  0.
224  2.23  0.  0.  0.
225  2.24  0.  0.  0.
226  2.25  0.  0.  0.
227  2.26  0.  0.  0.
228  2.27  0.  0.  0.
229  2.28  0.  0.  0.
230  2.29  0.  0.  0.
231  2.30  0.  0.  0.
232  2.31  0.  0.  0.
233  2.32  0.  0.  0.
234  2.33  0.  0.  0.
235  2.34  0.  0.  0.
236  2.35  0.  0.  0.
237  2.36  0.  0.  0.
238  2.37  0.  0.  0.
239  2.38  0.  0.  0.
240  2.39  0.  0.  0.
241  2.40  0.  0.  0.
242  2.41  0.  0.  0.
243  2.42  0.  0.  0.
244  2.43  0.  0.  0.
245  2.44  0.  0.  0.
246  2.45  0.  0.  0.
247  2.46  0.  0.  0.
248  2.47  0.  0.  0.
249  2.48  0.  0.  0.
250  2.49  0.  0.  0.
251  2.50  0.  0.  0.
252  2.51  0.  0.  0.
253  2.52  0.  0.  0.
254  2.53  0.  0.  0.
255  2.54  0.  0.  0.
256  2.55  0.  0.  0.
257  2.56  0.  0.  0.
258  2.57  0.  0.  0.
259  2.58  0.  0.  0.
260  2.59  0.  0.  0.
261  2.60  0.  0.  0.
262  2.61  0.  0.  0.
263  2.62  0.  0.  0.
264  2.63  0.  0.  0.
265  2.64  0.  0.  0.
266  2.65  0.  0.  0.
267  2.66  0.  0.  0.
268  2.67  0.  0.  0.
269  2.68  0.  0.  0.
270  2.69  0.  0.  0.
271  2.70  0.  0.  0.
272  2.71  0.  0.  0.
273  2.72  0.  0.  0.
274  2.73  0.  0.  0.
275  2.74  0.  0.  0.
276  2.75  0.  0.  0.
277  2.76  0.  0.  0.
278  2.77  0.  0.  0.
279  2.78  0.  0.  0.
280  2.79  0.  0.  0.
281  2.80  0.  0.  0.
282  2.81  0.  0.  0.
283  2.82  0.  0.  0.
284  2.83  0.  0.  0.
285  2.84  0.  0.  0.
286  2.85  0.  0.  0.
287  2.86  0.  0.  0.
288  2.87  0.  0.  0.
289  2.88  0.  0.  0.
290  2.89  0.  0.  0.
291  2.90  0.  0.  0.
292  2.91  0.  0.  0.
293  2.92  0.  0.  0.
294  2.93  0.  0.  0.
295  2.94  0.  0.  0.
296  2.95  0.  0.  0.
297  2.96  0.  0.  0.
298  2.97  0.  0.  0.
299  2.98  0.  0.  0.
300  2.99  0.  0.  0.
301  3.00  0.  0.  0.
302  3.01  0.  0.  0.
303  3.02  0.  0.  0.
304  3.03  0.  0.  0.
305  3.04  0.  0.  0.
306  3.05  0.  0.  0.
307  3.06  0.  0.  0.
308  3.07  0.  0.  0.
309  3.08  0.  0.  0.
310  3.09  0.  0.  0.
311  3.10  0.  0.  0.
312  3.11  0.  0.  0.
313  3.12  0.  0.  0.
314  3.13  0.  0.  0.
315  3.14  0.  0.  0.
316  3.15  0.  0.  0.
317  3.16  0.  0.  0.
318  3.17  0.  0.  0.
319  3.18  0.  0.  0.
320  3.19  0.  0.  0.
321  3.20  0.  0.  0.
322  3.21  0.  0.  0.
323  3.22  0.  0.  0.
324  3.23  0.  0.  0.
325  3.24  0.  0.  0.
326  3.25  0.  0.  0.
327  3.26  0.  0.  0.
328  3.27  0.  0.  0.
329  3.28  0.  0.  0.
330  3.29  0.  0.  0.
331  3.30  0.  0.  0.
332  3.31  0.  0.  0.
333  3.32  0.  0.  0.
334  3.33  0.  0.  0.
335  3.34  0.  0.  0.
336  3.35  0.  0.  0.
337  3.36  0.  0.  0.
338  3.37  0.  0.  0.
339  3.38  0.  0.  0.
340  3.39  0.  0.  0.
341  3.40  0.  0.  0.
342  3.41  0.  0.  0.
343  3.42  0.  0.  0.
344  3.43  0.  0.  0.
345  3.44  0.  0.  0.
346  3.45  0.  0.  0.
347  3.46  0.  0.  0.
348  3.47  0.  0.  0.
349  3.48  0.  0.  0.
350  3.49  0.  0.  0.
351  3.50  0.  0.  0.
352  3.51  0.  0.  0.
353  3.52  0.  0.  0.
354  3.53  0.  0.  0.
355  3.54  0.  0.  0.
356  3.55  0.  0.  0.
357  3.56  0.  0.  0.
358  3.57  0.  0.  0.
359  3.58  0.  0.  0.
360  3.59  0.  0.  0.
361  3.60  0.  0.  0.
362  3.61  0.  0.  0.
363  3.62  0.  0.  0.
364  3.63  0.  0.  0.
365  3.64  0.  0.  0.
366  3.65  0.  0.  0.
367  3.66  0.  0.  0.
368  3.67  0.  0.  0.
369  3.68  0.  0.  0.
370  3.69  0.  0.  0.
371  3.70  0.  0.  0.
372  3.71  0.  0.  0.
373  3.72  0.  0.  0.
374  3.73  0.  0.  0.
375  3.74  0.  0.  0.
376  3.75  0.  0.  0.
377  3.76  0.  0.  0.
378  3.77  0.  0.  0.
379  3.78  0.  0.  0.
380  3.79  0.  0.  0.
381  3.80  0.  0.  0.
382  3.81  0.  0.  0.
383  3.82  0.  0.  0.
384  3.83  0.  0.  0.
385  3.84  0.  0.  0.
386  3.85  0.  0.  0.
387  3.86  0.  0.  0.
388  3.87  0.  0.  0.
389  3.88  0.  0.  0.
390  3.89  0.  0.  0.
391  3.90  0.  0.  0.
392  3.91  0.  0.  0.
393  3.92  0.  0.  0.
394  3.93  0.  0.  0.
395  3.94  0.  0.  0.
396  3.95  0.  0.  0.
397  3.96  0.  0.  0.
398  3.97  0.  0.  0.
399  3.98  0.  0.  0.
400  3.99  0.  0.  0.
401  4.00  0.  0.  0.
402  4.01  0.  0.  0.
403  4.02  0.  0.  0.
404  4.03  0.  0.  0.
405  4.04  0.  0.  0.
406  4.05  0.  0.  0.
407  4.06  0.  0.  0.
408  4.07  0.  0.  0.
409  4.08  0.  0.  0.
410  4.09  0.  0.  0.
411  4.10  0.  0.  0.
412  4.11  0.  0.  0.
413  4.12  0.  0.  0.
414  4.13  0.  0.  0.
415  4.14  0.  0.  0.
416  4.15  0.  0.  0.
417  4.16  0.  0.  0.
418  4.17  0.  0.  0.
419  4.18  0.  0.  0.
420  4.19  0.  0.  0.
421  4.20  0.  0.  0.
422  4.21  0.  0.  0.
423  4.22  0.  0.  0.
424  4.23  0.  0.  0.
425  4.24  0.  0.  0.
426  4.25  0.  0.  0.
427  4.26  0.  0.  0.
428  4.27  0.  0.  0.
429  4.28  0.  0.  0.
430  4.29  0.  0.  0.
431  4.30  0.  0.  0.
432  4.31  0.  0.  0.
433  4.32  0.  0.  0.
434  4.33  0.  0.  0.
435  4.34  0.  0.  0.
436  4.35  0.  0.  0.
437  4.36  0.  0.  0.
438  4.37  0.  0.  0.
439  4.38  0.  0.  0.
440  4.39  0.  0.  0.
441  4.40  0.  0.  0.
442  4.41  0.  0.  0.
443  4.42  0.  0.  0.
444  4.43  0.  0.  0.
445  4.44  0.  0.  0.
446  4.45  0.  0.  0.
447  4.46  0.  0.  0.
448  4.47  0.  0.  0.
449  4.48  0.  0.  0.
450  4.49  0.  0.  0.
451  4.50  0.  0.  0.
452  4.51  0.  0.  0.
453  4.52  0.  0.  0.
454  4.53  0.  0.  0.
455  4.54  0.  0.  0.
456  4.55  0.  0.  0.
457  4.56  0.  0.  0.
458  4.57  0.  0.  0.
459  4.58  0.  0.  0.
460  4.59  0.  0.  0.
461  4.60  0.  0.  0.
462  4.61  0.  0.  0.
463  4.62  0.  0.  0.
464  4.63  0.  0.  0.
465  4.64  0.  0.  0.
466  4.65  0.  0.  0.
467  4.66  0.  0.  0.
468  4.67  0.  0.  0.
469  4.68  0.  0.  0.
470  4.69  0.  0.  0.
471  4.70  0.  0.  0.
472  4.71  0.  0.  0.
473  4.72  0.  0.  0.
474  4.73  0.  0.  0.
475  4.74  0.  0.  0.
476  4.75  0.  0.  0.
477  4.76  0.  0.  0.
478  4.77  0.  0.  0.
479  4.78  0.  0.  0.
480  4.79  0.  0.  0.
481  4.80  0.  0.  0.
482  4.81  0.  0.  0.
483  4.82  0.  0.  0.
484  4.83  0.  0.  0.
485  4.84  0.  0.  0.
486  4.85  0.  0.  0.
487  4.86  0.  0.  0.
488  4.87  0.  0.  0.
489  4.88  0.  0.  0.
490  4.89  0.  0.  0.
491  4.90  0.  0.  0.
492  4.91  0.  0.  0.
493  4.92  0.  0.  0.
494  4.93  0.  0.  0.
495  4.94  0.  0.  0.
496  4.95  0.  0.  0.
497  4.96  0.  0.  0.
498  4.97  0.  0.  0.
499  4.98  0.  0.  0.
500  4.99  0.  0.  0.
501  5.00  0.  0.  0.
502  5.01  0.  0.  0.
503  5.02  0.  0.  0.
504  5.03  0.  0.  0.
505  5.04  0.  0.  0.
506  5.05  0.  0.  0.
507  5.06  0.  0.  0.
508  5.07  0.  0.  0.
509  5.08  0.  0.  0.
510  5.09  0.  0.  0.
511  5.10  0.  0.  0.
512  5.11  0.  0.  0.
513  5.12  0.  0.  0.
514  5.13  0.  0.  0.
515  5.14  0.  0.  0.
516  5.15  0.  0.  0.
517  5.16  0.  0.  0.
518  5.17  0.  0.  0.
519  5.18  0.  0.  0.
520  5.19  0.  0.  0.
521  5.20  0.  0.  0.
522  5.21  0.  0.  0.
523  5.22  0.  0.  0.
524  5.23  0.  0.  0.
525  5.24  0.  0.  0.
526  5.25  0.  0.  0.
527  5.26  0.  0.  0.
528  5.27  0.  0.  0.
529  5.28  0.  0.  0.
530  5.29  0.  0.  0.
531  5.30  0.  0.  0.
532  5.31  0.  0.  0.
533  5.32  0.  0.  0.
534  5.33  0.  0.  0.
535  5.34  0.  0.  0.
536  5.35  0.  0.  0.
537  5.36  0.  0.  0.
538  5.37  0.  0.  0.
539  5.38  0.  0.  0.
540  5.39  0.  0.  0.
541  5.40  0.  0.  0.
542  5.41  0.  0.  0.
543  5.42  0.  0.  0.
544  5.43  0.  0.  0.
545  5.44  0.  0.  0.
546  5.45  0.  0.  0.
547  5.46  0.  0.  0.
548  5.47  0.  0.  0.
549  5.48  0.  0.  0.
550  5.49  0.  0.  0.
551  5.50  0.  0.  0.
552  5.51  0.  0.  0.
553  5.52  0.  0.  0.
554  5.53  0.  0.  0.
555  5.54  0.  0.  0.
556  5.55  0.  0.  0.
557  5.56  0.  0.  0.
558  5.57  0.  0.  0.
559  5.58  0.  0.  0.
560  5.59  0.  0.  0.
561  5.60  0.  0.  0.
562  5.61  0.  0.  0.
563  5.62  0.  0.  0.
564  5.63  0.  0.  0.
565  5.64  0.  0.  0.
566  5.65  0.  0.  0.
567  5.66  0.  0.  0.
568  5.67  0.  0.  0.
569  5.68  0.  0.  0.
570  5.69  0.  0.  0.
571  5.70  0.  0.  0.
572  5.71  0.  0.  0.
573  5.72  0.  0.  0.
574  5.73  0.  0.  0.
575  5.74  0.  0.  0.
576  5.75  0.  0.  0.
577  5.76  0.  0.  0.
578  5.77  0.  0.  0.
579  5.78  0.  0.  0.
580  5.79  0.  0.  0.
581  5.80  0.  0.  0.
582  5.81  0.  0.  0.
583  5.82  0.  0.  0.
584  5.83  0.  0.  0.
585  5.84  0.  0.  0.
586  5.85  0.  0.  0.
587  5.86  0.  0.  0.
588  5.87  0.  0.  0.
589  5.88  0.  0.  0.
590  5.89  0.  0.  0.
591  5.90  0.  0.  0.
592  5.91  0.  0.  0.
593  5.92  0.  0.  0.
594  5.93  0.  0.  0.
595  5.94  0.  0.  0.
596  5.95  0.  0.  0.
597  5.96  0.  0.  0.
598  5.97  0.  0.  0.
599  5.98  0.  0.  0.
600  5.99  0.  0.  0.
1                        -9.8735505756360E+00  5.1350953091657E-01 -2.8635627971726E-01
1  0.0000000000000E+00  2.3491389389285E-09  1.0307524944686E-08 -1.7499039384195E-08
2  1.0000000000000E-02  2.5643536844668E-03  2.5498853520422E-03 -4.2520982681308E-03
3  2.0000000000000E-02  1.0240508071389E-02  1.0170801727698E-02 -1.6948618672420E-02
4  3.0000000000000E-02  2.2977877713882E-02  2.2776886958174E-02 -3.7911010900730E-02
5  4.0000000000000E-02  4.0692600758347E-02  4.0226220678332E-02 -6.6844257864998E-02
6  5.0000000000000E-02  6.3268205301195E-02  6.2322577216841E-02 -1.0334069259279E-01
7  6.0000000000000E-02  9.0556533377904E-02  8.8817836213512E-02 -1.4688527571596E-01
8  7.0000000000000E-02  1.2237891378952E-01  1.1941500878653E-01 -1.9686226821285E-01
9  8.0000000000000E-02  1.5852757262263E-01  1.5377182676474E-01 -2.5256321656171E-01
10  9.0000000000000E-02  1.9876726808974E-01  1.9150483343906E-01 -3.1319615083078E-01
11  1.0000000000000E-01  2.4283713423238E-01  2.3219390666845E-01 -3.7789588066404E-01
12  1.1000000000000E-01  2.9045271611101E-01  2.7538713917203E-01 -4.4573525979672E-01
13  1.2000000000000E-01  3.4130817737449E-01  3.2060599656152E-01 -5.1573727683892E-01
14  1.3000000000000E-01  3.9507865957666E-01  3.6735067119725E-01 -5.8688781876590E-01
15  1.4000000000000E-01  4.5142277130283E-01  4.1510554930649E-01 -6.5814894401412E-01
16  1.5000000000000E-01  5.0998518410032E-01  4.6334470995779E-01 -7.2847249445756E-01
17  1.6000000000000E-01  5.7039931138385E-01  5.1153737737423E-01 -7.9681386995644E-01
18  1.7000000000000E-01  6.3229004591695E-01  5.5915325256197E-01 -8.6214578575866E-01
19  1.8000000000000E-01  6.9527653116061E-01  6.0566765617814E-01 -9.2347183188249E-01
20  1.9000000000000E-01  7.5897494173028E-01  6.5056642176306E-01 -9.7983965479261E-01
21  2.0000000000000E-01  8.2300124841311E-01  6.9335048668883E-01 -1.0303535852484E+00
22  2.1000000000000E-01  8.8697394366274E-01  7.3354013718376E-01 -1.0741865421633E+00
23  2.2000000000000E-01  9.5051670420380E-01  7.7067887330833E-01 -1.1105910506577E+00
24  2.3000000000000E-01  1.0132609683305E+00  8.0433686951745E-01 -1.1389092231520E+00
25  2.4000000000000E-01  1.0748484066617E+00  8.3411401616607E-01 -1.1585815652535E+00
26  2.5000000000000E-01  1.1349332665017E+00  8.5964253674212E-01 -1.1691544832029E+00
27  2.6000000000000E-01  1.1931845715354E+00  8.8058918448984E-01 -1.1702863866065E+00
28  2.7000000000000E-01  1.2492881603329E+00  8.9665703019641E-01 -1.1617522988812E+00
29  2.8000000000000E-01  1.3029485490391E+00  9.0758686005781E-01 -1.1434469080426E+00
30  2.9000000000000E-01  1.3538906056405E+00  9.1315820855893E-01 -1.1153860119039E+00
31  3.0000000000000E-01  1.4018610253229E+00  9.1319005607103E-01 -1.0777063341162E+00
32  3.1000000000000E-01  1.4466295986211E+00  9.0754122431710E-01 -1.0306637104455E+00
33  3.2000000000000E-01  1.4879902662976E+00  8.9611050493912E-01 -9.7462966789249E-01
34  3.3000000000000E-01  1.5257619571346E+00  8.7883655713208E-01 -9.1008644236276E-01
35  3.4000000000000E-01  1.5597892070644E+00  8.5569760974225E-01 -8.3762050320036E-01
36  3.5000000000000E-01  1.5899425602613E+00  8.2671100144968E-01 -7.5791467464350E-01
37  3.6000000000000E-01  1.6161187549568E+00  7.9193258979362E-01 -6.7173896477351E-01
38  3.7000000000000E-01  1.6382406987838E+00  7.5145605602296E-01 -5.7994023144720E-01
39  3.8000000000000E-01  1.6562572403922E+00  7.0541212823221E-01 -4.8343083170674E-01
40  3.9000000000000E-01  1.6701427458796E+00  6.5396774019625E-01 -3.8317641593042E-01
41  4.0000000000000E-01  1.6798964902279E+00  5.9732513794662E-01 -2.8018304026767E-01
42  4.1000000000000E-01  1.6855418754222E+00  5.3572094066690E-01 -1.7548378045749E-01
43  4.2000000000000E-01  1.6871254882219E+00  4.6942515713434E-01 -7.0125036790630E-02
44  4.3000000000000E-01  1.6847160116668E+00  3.9874015391062E-01  3.4847276384152E-02
45  4.4000000000000E-01  1.6784030053049E+00  3.2399956696637E-01  1.3840146265088E-01
46  4.5000000000000E-01  1.6682955698326E+00  2.4556714458243E-01  2.3953350558868E-01
47  4.6000000000000E-01  1.6545209123398E+00  1.6383550633514E-01  3.3728007504572E-01
48  4.7000000000000E-01  1.6372228286431E+00  7.9224800841654E-02  4.3073090024419E-01
49  4.8000000000000E-01  1.6165601192919E+00 -7.8187562144414E-03  5.1904034356170E-01
50  4.9000000000000E-01  1.5927049557370E+00 -9.6824482427028E-02  6.0143802256118E-01
51  5.0000000000000E-01  1.5658412128794E+00 -1.8729898521378E-01  6.7723834380375E-01
52  5.1000000000000E-01  1.5361627837740E+00 -2.7872809065874E-01  7.4584882983838E-01
53  5.2000000000000E-01  1.5038718916731E+00 -3.7057895816838E-01  8.0677714015958E-01
54  5.3000000000000E-01  1.4691774138612E+00 -4.6230239116300E-01  8.5963670746880E-01
55  5.4000000000000E-01  1.4322932308852E+00 -5.5333535015831E-01  9.0415093185620E-01
56  5.5000000000000E-01  1.3934366138362E+00 -6.4310367033050E-01  9.4015589710796E-01
57  5.6000000000000E-01  1.3528266613063E+00 -7.3102498116496E-01  9.6760159483940E-01
58  5.7000000000000E-01  1.3106827965542E+00 -8.1651182127987E-01  9.8655166312277E-01
59  5.8000000000000E-01  1.2672233342781E+00 -8.9897493715374E-01  9.9718166635898E-01
60  5.9000000000000E-01  1.2226641252351E+00 -9.7782675046648E-01  9.9977596196441E-01
61  6.0000000000000E-01  1.1772172857791E+00 -1.0524849752461E+00  9.9472321669618E-01
62  6.1000000000000E-01  1.1310900182357E+00 -1.1223763631298E+00  9.8251065086313E-01
63  6.2000000000000E-01  1.0844835268958E+00 -1.1869405529195E+00  9.6371710204625E-01
64  6.3000000000000E-01  1.0375920333156E+00 -1.2456339993007E+00  9.3900501113489E-01
65  6.4000000000000E-01  9.9060189356118E-01 -1.2979339551393E+00  9.0911144239438E-01
66  6.5000000000000E-01  9.4369081904292E-01 -1.3433424821657E+00  8.7483825588274E-01
67  6.6000000000000E-01  8.9702720165533E-01 -1.3813904660377E+00  8.3704155489530E-01
68  6.7000000000000E-01  8.5076954307571E-01 -1.4116416136547E+00  7.9662053332665E-01
69  6.8000000000000E-01  8.0506598728172E-01 -1.4336964130338E+00  7.5450584808736E-01
70  6.9000000000000E-01  7.6005395462551E-01 -1.4471960388724E+00  7.1164764021218E-01
71  7.0000000000000E-01  7.1585987514803E-01 -1.4518261899019E+00  6.6900332532873E-01
72  7.1000000000000E-01  6.7259901822804E-01 -1.4473208470511E+00  6.2752527002559E-01
73  7.2000000000000E-01  6.3037541513332E-01 -1.4334659440199E+00  5.8814846571392E-01
74  7.3000000000000E-01  5.8928187056890E-01 -1.4101029438540E+00  5.5177830616819E-01
75  7.4000000000000E-01  5.4940005889404E-01 -1.3771323162370E+00  5.1927856943332E-01
76  7.5000000000000E-01  5.1080070029884E-01 -1.3345169102313E+00  4.9145969954145E-01
77  7.6000000000000E-01  4.7354381188498E-01 -1.2822852158479E+00  4.6906747884969E-01
78  7.7000000000000E-01  4.3767902827746E-01 -1.2205345049251E+00  4.5277217808275E-01
79  7.8000000000000E-01  4.0324598609793E-01 -1.1494338371652E+00  4.4315826862264E-01
80  7.9000000000000E-01  3.7027476634983E-01 -1.0692269107029E+00  4.4071478044432E-01
81  8.0000000000000E-01  3.3878638849701E-01 -9.8023472821357E-01  4.4582638950992E-01
82  8.1000000000000E-01  3.0879334975593E-01 -8.8285803930259E-01  4.5876532049496E-01
83  8.2000000000000E-01  2.8030020286640E-01 -7.7757950783184E-01  4.7968415445135E-01
84  8.3000000000000E-01  2.5330416535552E-01 -6.6496553908611E-01  5.0860963634871E-01
85  8.4000000000000E-01  2.2779575306514E-01 -5.4566768646400E-01  5.4543758425590E-01
86  8.5000000000000E-01  2.0375943047807E-01 -4.2042354099756E-01  5.8992901001094E-01
87  8.6000000000000E-01  1.8117427015553E-01 -2.9005698980545E-01  6.4170757031042E-01
88  8.7000000000000E-01  1.6001461339436E-01 -1.5547771199465E-01  7.0025847687102E-01
89  8.8000000000000E-01  1.4025072403409E-01 -1.7679762993565E-02  7.6492900429604E-01
90  8.9000000000000E-01  1.2184942719851E-01  1.2226091863869E-01  8.3493074404429E-01
91  9.0000000000000E-01  1.0477472465338E-01  2.6319026370784E-01  9.0934376198534E-01
92  9.1000000000000E-01  8.8988378410567E-02  4.0388128010436E-01  9.8712282491404E-01
93  9.2000000000000E-01  7.4450454218098E-02  5.4304092356267E-01  1.0671058675784E+00
94  9.3000000000000E-01  6.1119816656259E-02  6.7931884837977E-01  1.1480248757453E+00
95  9.4000000000000E-01  4.8954567719202E-02  8.1131826079525E-01  1.2285193620926E+00
96  9.5000000000000E-01  3.7912421009237E-02  9.3760909973248E-01  1.3071526098425E+00
97  9.6000000000000E-01  2.7951004013166E-02  1.0567437673777E+00  1.3824308536345E+00
98  9.7000000000000E-01  1.9028081372576E-02  1.1672756252968E+00  1.4528255578559E+00
99  9.8000000000000E-01  1.1101692606603E-02  1.2677804601947E+00  1.5167989392551E+00
100  9.9000000000000E-01  4.1301983981629E-03  1.3568811068394E+00  1.5728328630009E+00
101  1.0000000000000E+00 -1.9277696880546E-03  1.4332753940747E+00  1.6194612193717E+00
102  1.0100000000000E+00 -7.1134603274641E-03  1.4957675532517E+00  1.6553058619936E+00