Fr    ONCVPSP-4.0.1  r_core=   1.60257   1.60257   1.75302   1.65123
87.0000     27.0000      231012    zatom,zion,pspd
8   -1012   3     4   600     0    pspcod,pspxc,lmax,lloc,mmax,r2well
5.99000000  5.00000000  0.00000000    rchrg fchrg qchrg
3     3     2     2    nproj
3     1           extension_switch
4     4     3    nprojso
0                         6.9843264777569E+00 -3.2750321981334E+00  8.3670196180889E-01
1  0.0000000000000E+00 -1.2692833450956E-08 -1.5936885144896E-10 -2.8996232304124E-08
2  1.0000000000000E-02  1.1065551829418E-01  3.5233009898746E-02  5.6850074039816E-02
3  2.0000000000000E-02  2.2055113502412E-01  7.0432867155669E-02  1.1258411604678E-01
4  3.0000000000000E-02  3.2893675710145E-01  1.0556655530865E-01  1.6610651366617E-01
5  4.0000000000000E-02  4.3508173566801E-01  1.4060132808542E-01  2.1636210413560E-01
6  5.0000000000000E-02  5.3828415974518E-01  1.7550483911651E-01  2.6235543229514E-01
7  6.0000000000000E-02  6.3787964500366E-01  2.1024526530623E-01  3.0316886964955E-01
8  7.0000000000000E-02  7.3324946462794E-01  2.4479142193918E-01  3.3797924970656E-01
9  8.0000000000000E-02  8.2382788194243E-01  2.7911286775943E-01  3.6607270381160E-01
10  9.0000000000000E-02  9.0910855985043E-01  3.1317999845234E-01  3.8685741684838E-01
11  1.0000000000000E-01  9.8864993990613E-01  3.4696412718283E-01  3.9987406277697E-01
12  1.1000000000000E-01  1.0620795036384E+00  3.8043755109285E-01  4.0480372523032E-01
13  1.2000000000000E-01  1.1290968501815E+00  4.1357360293071E-01  4.0147315738958E-01
14  1.3000000000000E-01  1.1894755469116E+00  4.4634668727103E-01  3.8985728713537E-01
15  1.4000000000000E-01  1.2430637331982E+00  4.7873230107915E-01  3.7007892700281E-01
16  1.5000000000000E-01  1.2897834810788E+00  5.1070703867438E-01  3.4240570269404E-01
17  1.6000000000000E-01  1.3296289402018E+00  5.4224858144447E-01  3.0724426775227E-01
18  1.7000000000000E-01  1.3626633172785E+00  5.7333567295480E-01  2.6513192441868E-01
19  1.8000000000000E-01  1.3890147620981E+00  6.0394808037380E-01  2.1672582064352E-01
20  1.9000000000000E-01  1.4088712524609E+00  6.3406654339571E-01  1.6278993973394E-01
21  2.0000000000000E-01  1.4224745887800E+00  6.6367271207769E-01  1.0418014127862E-01
22  2.1000000000000E-01  1.4301136252318E+00  6.9274907521658E-01  4.1827548982530E-02
23  2.2000000000000E-01  1.4321168778976E+00  7.2127888106678E-01 -2.3279387846782E-02
24  2.3000000000000E-01  1.4288446610663E+00  7.4924605234116E-01 -9.0113807785201E-02
25  2.4000000000000E-01  1.4206809105740E+00  7.7663509753990E-01 -1.5762995668306E-01
26  2.5000000000000E-01  1.4080248575905E+00  8.0343102071465E-01 -2.2478293346653E-01
27  2.6000000000000E-01  1.3912827175589E+00  8.2961923179705E-01 -2.9054827987639E-01
28  2.7000000000000E-01  1.3708595570436E+00  8.5518545960072E-01 -3.5394103616939E-01
29  2.8000000000000E-01  1.3471514960912E+00  8.8011566954483E-01 -4.1403389667016E-01
30  2.9000000000000E-01  1.3205383954909E+00  9.0439598804669E-01 -4.6997411802500E-01
31  3.0000000000000E-01  1.2913771672034E+00  9.2801263539239E-01 -5.2099885867416E-01
32  3.1000000000000E-01  1.2599958324539E+00  9.5095186872094E-01 -5.6644865989640E-01
33  3.2000000000000E-01  1.2266884358437E+00  9.7319993655227E-01 -6.0577881613296E-01
34  3.3000000000000E-01  1.1917109056570E+00  9.9474304605711E-01 -6.3856842441972E-01
35  3.4000000000000E-01  1.1552779307012E+00  1.0155673440106E+00 -6.6452694879298E-01
36  3.5000000000000E-01  1.1175609029223E+00  1.0356589120982E+00 -6.8349818456702E-01
37  3.6000000000000E-01  1.0786869531111E+00  1.0550037769558E+00 -6.9546155844167E-01
38  3.7000000000000E-01  1.0387390846935E+00  1.0735879350322E+00 -7.0053075247073E-01
39  3.8000000000000E-01  9.9775738833970E-01  1.0913973920658E+00 -6.9894969198665E-01
40  3.9000000000000E-01  9.5574129835715E-01  1.1084182166793E+00 -6.9108598862148E-01
41  4.0000000000000E-01  9.1265283098923E-01  1.1246366073087E+00 -6.7742197858567E-01
42  4.1000000000000E-01  8.6842072523571E-01  1.1400389714235E+00 -6.5854354243503E-01
43  4.2000000000000E-01  8.2294538900924E-01  1.1546120157415E+00 -6.3512693477789E-01
44  4.3000000000000E-01  7.7610453769844E-01  1.1683428459244E+00 -6.0792388995311E-01
45  4.4000000000000E-01  7.2775939881127E-01  1.1812190740451E+00 -5.7774530194475E-01
46  4.5000000000000E-01  6.7776134557751E-01  1.1932289319573E+00 -5.4544380308805E-01
47  4.6000000000000E-01  6.2595881438916E-01  1.2043613885720E+00 -5.1189558599521E-01
48  4.7000000000000E-01  5.7220435589284E-01  1.2146062689608E+00 -4.7798182623932E-01
49  4.8000000000000E-01  5.1636166749717E-01  1.2239543731518E+00 -4.4457006947029E-01
50  4.9000000000000E-01  4.5831245604177E-01  1.2323975924818E+00 -4.1249594572138E-01
51  5.0000000000000E-01  3.9796298334847E-01  1.2399290213962E+00 -3.8254556576894E-01
52  5.1000000000000E-01  3.3525015424417E-01  1.2465430626584E+00 -3.5543893972151E-01
53  5.2000000000000E-01  2.7014701624768E-01  1.2522355240434E+00 -3.3181473687655E-01
54  5.3000000000000E-01  2.0266755224244E-01  1.2570037047297E+00 -3.1221667874269E-01
55  5.4000000000000E-01  1.3287066185758E-01  1.2608464697849E+00 -2.9708182454467E-01
56  5.5000000000000E-01  6.0863243646492E-02  1.2637643113450E+00 -2.8673097118393E-01
57  5.6000000000000E-01 -1.3197691846101E-02  1.2657593953204E+00 -2.8136134826189E-01
58  5.7000000000000E-01 -8.9103928769480E-02  1.2668355927148E+00 -2.8104174421843E-01
59  5.8000000000000E-01 -1.6659600289749E-01  1.2669984949134E+00 -2.8571015277005E-01
60  5.9000000000000E-01 -2.4536421867048E-01  1.2662554125759E+00 -2.9517398057112E-01
61  6.0000000000000E-01 -3.2505071551399E-01  1.2646153580586E+00 -3.0911280829424E-01
62  6.1000000000000E-01 -4.0525255223339E-01  1.2620890115760E+00 -3.2708364907884E-01
63  6.2000000000000E-01 -4.8552575863977E-01  1.2586886715941E+00 -3.4852860143405E-01
64  6.3000000000000E-01 -5.6539028502284E-01  1.2544281902227E+00 -3.7278474909751E-01
65  6.4000000000000E-01 -6.4433576299613E-01  1.2493228946294E+00 -3.9909611886287E-01
66  6.5000000000000E-01 -7.2182797592031E-01  1.2433894957370E+00 -4.2662746976565E-01
67  6.6000000000000E-01 -7.9731592384107E-01  1.2366459856814E+00 -4.5447965393333E-01
68  6.7000000000000E-01 -8.7023935689515E-01  1.2291115256911E+00 -4.8170626144786E-01
69  6.8000000000000E-01 -9.4003664263298E-01  1.2208063262090E+00 -5.0733123921739E-01
70  6.9000000000000E-01 -1.0061528268187E+00  1.2117515211948E+00 -5.3036715747787E-01
71  7.0000000000000E-01 -1.0680477440827E+00  1.2019690386359E+00 -5.4983378739212E-01
72  7.1000000000000E-01 -1.1252040343562E+00  1.1914814693422E+00 -5.6477664941290E-01
73  7.2000000000000E-01 -1.1771349232817E+00  1.1803119361118E+00 -5.7428519463318E-01
74  7.3000000000000E-01 -1.2233916297117E+00  1.1684839653276E+00 -5.7751029014483E-01
75  7.4000000000000E-01 -1.2635702708326E+00  1.1560213629821E+00 -5.7368069423343E-01
76  7.5000000000000E-01 -1.2973181452361E+00  1.1429480970253E+00 -5.6211822770504E-01
77  7.6000000000000E-01 -1.3243392861712E+00  1.1292881878007E+00 -5.4225137332677E-01
78  7.7000000000000E-01 -1.3443991910065E+00  1.1150656081661E+00 -5.1362706572104E-01
79  7.8000000000000E-01 -1.3573286483196E+00  1.1003041947045E+00 -4.7592046846094E-01
80  7.9000000000000E-01 -1.3630266007035E+00  1.0850275712129E+00 -4.2894257288561E-01
81  8.0000000000000E-01 -1.3614619989939E+00  1.0692590854171E+00 -3.7264549353267E-01
82  8.1000000000000E-01 -1.3526746218416E+00  1.0530217596089E+00 -3.0712537729847E-01
83  8.2000000000000E-01 -1.3367748530140E+00  1.0363382556329E+00 -2.3262288666341E-01
84  8.3000000000000E-01 -1.3139424271662E+00  1.0192308543816E+00 -1.4952126075723E-01
85  8.4000000000000E-01 -1.2844241727223E+00  1.0017214496797E+00 -5.8342000866053E-02
86  8.5000000000000E-01 -1.2485307976224E+00  9.8383155617033E-01  4.0261731573433E-02
87  8.6000000000000E-01 -1.2066327797069E+00  9.6558233055043E-01  1.4551387714137E-01
88  8.7000000000000E-01 -1.1591554381447E+00  9.4699460525402E-01  2.5652623693401E-01
89  8.8000000000000E-01 -1.1065732753120E+00  9.2808893344730E-01  3.7231103054577E-01
90  8.9000000000000E-01 -1.0494036896693E+00  9.0888564398763E-01  4.9179502767941E-01
91  9.0000000000000E-01 -9.8820016930116E-01  8.8940490481040E-01  6.1383500300597E-01
92  9.1000000000000E-01 -9.2354508272930E-01  8.6966679304819E-01  7.3723424423257E-01
93  9.2000000000000E-01 -8.5604218829670E-01  8.4969137005739E-01  8.6075982881291E-01
94  9.3000000000000E-01 -7.8630898581243E-01  8.2949875943095E-01  9.8316037552860E-01
95  9.4000000000000E-01 -7.1496903423085E-01  8.0910922601393E-01  1.1031839733522E+00
96  9.5000000000000E-01 -6.4264435697005E-01  7.8854325391197E-01  1.2195959915540E+00
97  9.6000000000000E-01 -5.6994805214073E-01  7.6782162149144E-01  1.3311964817921E+00
98  9.7000000000000E-01 -4.9747721858249E-01  7.4696547141477E-01  1.4368368947198E+00
99  9.8000000000000E-01 -4.2580630036189E-01  7.2599637383311E-01  1.5354358501304E+00
100  9.9000000000000E-01 -3.5548094247174E-01  7.0493638097079E-01  1.6259937204488E+00
101  1.0000000000000E+00 -2.8701243911825E-01  6.8380807147896E-01  1.7076058119862E+00
102  1.0100000000000E+00 -2.2087284343376E-01  6.6263458310782E-01  1.7794739562969E+00
103  1.0200000000000E+00 -1.5749079398575E-01  6.4143963244417E-01  1.8409163546074E+00
104  1.0300000000000E+00 -9.7248099351550E-02  6.2024752068049E-01  1.8913755510080E+00
105  1.0400000000000E+00 -4.0477107573149E-02  5.9908312462026E-01  1.9304244442713E+00
106  1.0500000000000E+00  1.2541127218250E-02  5.7797187237666E-01  1.9577702831519E+00
107  1.0600000000000E+00  6.1577882999536E-02  5.5693970348472E-01  1.9732566250848E+00
108  1.0700000000000E+00  1.0645702868350E-01  5.3601301341593E-01  1.9768632728208E+00
109  1.0800000000000E+00  1.4705453243748E-01  5.1521858275449E-01  1.9687042369834E+00
110  1.0900000000000E+00  1.8329726042011E-01  4.9458349156164E-01  1.9490238042464E+00
111  1.1000000000000E+00  2.1516111776885E-01  4.7413501971477E-01  1.9181908203726E+00
112  1.1100000000000E+00  2.4266859316479E-01  4.5390053425586E-01  1.8766913240352E+00
113  1.1200000000000E+00  2.6588577633207E-01  4.3390736501738E-01  1.8251196910271E+00
114  1.1300000000000E+00  2.8491892418604E-01  4.1418267000690E-01  1.7641684685029E+00
115  1.1400000000000E+00  2.9991065603940E-01  3.9475329222297E-01  1.6946170953042E+00
116  1.1500000000000E+00  3.1103586120233E-01  3.7564560974004E-01  1.6173197167638E+00
117  1.1600000000000E+00  3.1849740351125E-01  3.5688538103767E-01  1.5331923107384E+00
118  1.1700000000000E+00  3.2252170680922E-01  3.3849758765559E-01  1.4431993458253E+00
119  1.1800000000000E+00  3.2335430322991E-01  3.2050627633161E-01  1.3483401928844E+00
120  1.1900000000000E+00  3.2125542245701E-01  3.0293440282069E-01  1.2496355072428E+00
121  1.2000000000000E+00  3.1649569498471E-01  2.8580367960172E-01  1.1481137914163E+00
122  1.2100000000000E+00  3.0935203604690E-01  2.6913442965277E-01  1.0447983372235E+00
123  1.2200000000000E+00  3.0010376939864E-01  2.5294544841621E-01  9.4069473197844E-01
124  1.2300000000000E+00  2.8902904174786E-01  2.3725387598335E-01  8.3677909643277E-01
125  1.2400000000000E+00  2.7640156960454E-01  2.2207508140579E-01  7.3398720281606E-01
126  1.2500000000000E+00  2.6248775070647E-01  2.0742256088781E-01  6.3320459982031E-01
127  1.2600000000000E+00  2.4754416238701E-01  1.9330785143554E-01  5.3525784852815E-01
128  1.2700000000000E+00  2.3181545934955E-01  1.7974046133476E-01  4.4090694927685E-01
129  1.2800000000000E+00  2.1553267353386E-01  1.6672781860394E-01  3.5083901477174E-01
130  1.2900000000000E+00  1.9891190936012E-01  1.5427523832579E-01  2.6566322005311E-01
131  1.3000000000000E+00  1.8215341871502E-01  1.4238590950276E-01  1.8590703541333E-01
132  1.3100000000000E+00  1.6544103177800E-01  1.3106090181208E-01  1.1201372449924E-01
133  1.3200000000000E+00  1.4894191235164E-01  1.2029919235898E-01  4.4341067114057E-02
134  1.3300000000000E+00  1.3280659984162E-01  1.1009771224792E-01 -1.6838755064753E-02
135  1.3400000000000E+00  1.1716929447494E-01  1.0045141250938E-01 -7.1338191392636E-02
136  1.3500000000000E+00  1.0214833790520E-01  9.1353348645491E-02 -1.1905237296527E-01
137  1.3600000000000E+00  8.7846837977241E-02  8.2794782788849E-02 -1.5995629590287E-01
138  1.3700000000000E+00  7.4353384157013E-02  7.4765302212232E-02 -1.9410126527953E-01
139  1.3800000000000E+00  6.1742798944833E-02  6.7252952684296E-02 -2.2161073872775E-01
140  1.3900000000000E+00  5.0076870444183E-02  6.0244384942363E-02 -2.4267571724571E-01
141  1.4000000000000E+00  3.9405012078578E-02  5.3725012349288E-02 -2.5754983689027E-01
142  1.4100000000000E+00  2.9764797136486E-02  4.7679177621654E-02 -2.6654431883048E-01
143  1.4200000000000E+00  2.1182318315156E-02  4.2090326360494E-02 -2.7002293681317E-01
144  1.4300000000000E+00  1.3672325556961E-02  3.6941184988925E-02 -2.6839716054258E-01
145  1.4400000000000E+00  7.2380991370289E-03  3.2213940601904E-02 -2.6212163101301E-01
146  1.4500000000000E+00  1.8710190262182E-03  2.7890420164470E-02 -2.5169011960412E-01
147  1.4600000000000E+00 -2.4502041431731E-03  2.3952266456605E-02 -2.3763211702287E-01
148  1.4700000000000E+00 -5.7606667214381E-03  2.0381108155337E-02 -2.2051019108569E-01
149  1.4800000000000E+00 -8.1108052988546E-03  1.7158721447294E-02 -2.0091824823746E-01
150  1.4900000000000E+00 -9.5683438231170E-03  1.4267180689996E-02 -1.7948080949123E-01
151  1.5000000000000E+00 -1.0220649679599E-02  1.1688996298931E-02 -1.5685334721968E-01
152  1.5100000000000E+00 -1.0176898375136E-02  9.4072459335111E-03 -1.3372170264796E-01
153  1.5200000000000E+00 -9.5608455856183E-03  7.4058743079942E-03 -1.1077092198877E-01
154  1.5300000000000E+00 -8.5118885667154E-03  5.6689942366502E-03 -8.8664979511940E-02
155  1.5400000000000E+00 -7.1779806615465E-03  4.1813485544659E-03 -6.8029324905389E-02
156  1.5500000000000E+00 -5.6750051864492E-03  2.9323024824386E-03 -4.9379558735434E-02
157  1.5600000000000E+00 -4.1245124192129E-03  1.9127880198169E-03 -3.3179225969594E-02
158  1.5700000000000E+00 -2.6525861040237E-03  1.1153755205388E-03 -1.9835832210051E-02
159  1.5800000000000E+00 -1.3898143433209E-03  5.3453126987305E-04 -9.7021481316024E-03
160  1.5900000000000E+00 -4.6306398891952E-04  1.6437899472198E-04 -3.0311495947799E-03
161  1.6000000000000E+00 -3.4414075698145E-05  1.1264847642807E-05 -2.1032733984746E-04
162  1.6100000000000E+00  7.2575087546018E-06 -2.2921152497734E-06  4.3178672375062E-05
163  1.6200000000000E+00 -2.1882713523309E-06  7.1822544851651E-07 -1.3449903503793E-05
164  1.63  0.  0.  0.
165  1.64  0.  0.  0.
166  1.65  0.  0.  0.
167  1.66  0.  0.  0.
168  1.67  0.  0.  0.
169  1.68  0.  0.  0.
170  1.69  0.  0.  0.
171  1.70  0.  0.  0.
172  1.71  0.  0.  0.
173  1.72  0.  0.  0.
174  1.73  0.  0.  0.
175  1.74  0.  0.  0.
176  1.75  0.  0.  0.
177  1.76  0.  0.  0.
178  1.77  0.  0.  0.
179  1.78  0.  0.  0.
180  1.79  0.  0.  0.
181  1.80  0.  0.  0.
182  1.81  0.  0.  0.
183  1.82  0.  0.  0.
184  1.83  0.  0.  0.
185  1.84  0.  0.  0.
186  1.85  0.  0.  0.
187  1.86  0.  0.  0.
188  1.87  0.  0.  0.
189  1.88  0.  0.  0.
190  1.89  0.  0.  0.
191  1.90  0.  0.  0.
192  1.91  0.  0.  0.
193  1.92  0.  0.  0.
194  1.93  0.  0.  0.
195  1.94  0.  0.  0.
196  1.95  0.  0.  0.
197  1.96  0.  0.  0.
198  1.97  0.  0.  0.
199  1.98  0.  0.  0.
200  1.99  0.  0.  0.
201  2.00  0.  0.  0.
202  2.01  0.  0.  0.
203  2.02  0.  0.  0.
204  2.03  0.  0.  0.
205  2.04  0.  0.  0.
206  2.05  0.  0.  0.
207  2.06  0.  0.  0.
208  2.07  0.  0.  0.
209  2.08  0.  0.  0.
210  2.09  0.  0.  0.
211  2.10  0.  0.  0.
212  2.11  0.  0.  0.
213  2.12  0.  0.  0.
214  2.13  0.  0.  0.
215  2.14  0.  0.  0.
216  2.15  0.  0.  0.
217  2.16  0.  0.  0.
218  2.17  0.  0.  0.
219  2.18  0.  0.  0.
220  2.19  0.  0.  0.
221  2.20  0.  0.  0.
222  2.21  0.  0.  0.
223  2.22  0.  0.  0.
224  2.23  0.  0.  0.
225  2.24  0.  0.  0.
226  2.25  0.  0.  0.
227  2.26  0.  0.  0.
228  2.27  0.  0.  0.
229  2.28  0.  0.  0.
230  2.29  0.  0.  0.
231  2.30  0.  0.  0.
232  2.31  0.  0.  0.
233  2.32  0.  0.  0.
234  2.33  0.  0.  0.
235  2.34  0.  0.  0.
236  2.35  0.  0.  0.
237  2.36  0.  0.  0.
238  2.37  0.  0.  0.
239  2.38  0.  0.  0.
240  2.39  0.  0.  0.
241  2.40  0.  0.  0.
242  2.41  0.  0.  0.
243  2.42  0.  0.  0.
244  2.43  0.  0.  0.
245  2.44  0.  0.  0.
246  2.45  0.  0.  0.
247  2.46  0.  0.  0.
248  2.47  0.  0.  0.
249  2.48  0.  0.  0.
250  2.49  0.  0.  0.
251  2.50  0.  0.  0.
252  2.51  0.  0.  0.
253  2.52  0.  0.  0.
254  2.53  0.  0.  0.
255  2.54  0.  0.  0.
256  2.55  0.  0.  0.
257  2.56  0.  0.  0.
258  2.57  0.  0.  0.
259  2.58  0.  0.  0.
260  2.59  0.  0.  0.
261  2.60  0.  0.  0.
262  2.61  0.  0.  0.
263  2.62  0.  0.  0.
264  2.63  0.  0.  0.
265  2.64  0.  0.  0.
266  2.65  0.  0.  0.
267  2.66  0.  0.  0.
268  2.67  0.  0.  0.
269  2.68  0.  0.  0.
270  2.69  0.  0.  0.
271  2.70  0.  0.  0.
272  2.71  0.  0.  0.
273  2.72  0.  0.  0.
274  2.73  0.  0.  0.
275  2.74  0.  0.  0.
276  2.75  0.  0.  0.
277  2.76  0.  0.  0.
278  2.77  0.  0.  0.
279  2.78  0.  0.  0.
280  2.79  0.  0.  0.
281  2.80  0.  0.  0.
282  2.81  0.  0.  0.
283  2.82  0.  0.  0.
284  2.83  0.  0.  0.
285  2.84  0.  0.  0.
286  2.85  0.  0.  0.
287  2.86  0.  0.  0.
288  2.87  0.  0.  0.
289  2.88  0.  0.  0.
290  2.89  0.  0.  0.
291  2.90  0.  0.  0.
292  2.91  0.  0.  0.
293  2.92  0.  0.  0.
294  2.93  0.  0.  0.
295  2.94  0.  0.  0.
296  2.95  0.  0.  0.
297  2.96  0.  0.  0.
298  2.97  0.  0.  0.
299  2.98  0.  0.  0.
300  2.99  0.  0.  0.
301  3.00  0.  0.  0.
302  3.01  0.  0.  0.
303  3.02  0.  0.  0.
304  3.03  0.  0.  0.
305  3.04  0.  0.  0.
306  3.05  0.  0.  0.
307  3.06  0.  0.  0.
308  3.07  0.  0.  0.
309  3.08  0.  0.  0.
310  3.09  0.  0.  0.
311  3.10  0.  0.  0.
312  3.11  0.  0.  0.
313  3.12  0.  0.  0.
314  3.13  0.  0.  0.
315  3.14  0.  0.  0.
316  3.15  0.  0.  0.
317  3.16  0.  0.  0.
318  3.17  0.  0.  0.
319  3.18  0.  0.  0.
320  3.19  0.  0.  0.
321  3.20  0.  0.  0.
322  3.21  0.  0.  0.
323  3.22  0.  0.  0.
324  3.23  0.  0.  0.
325  3.24  0.  0.  0.
326  3.25  0.  0.  0.
327  3.26  0.  0.  0.
328  3.27  0.  0.  0.
329  3.28  0.  0.  0.
330  3.29  0.  0.  0.
331  3.30  0.  0.  0.
332  3.31  0.  0.  0.
333  3.32  0.  0.  0.
334  3.33  0.  0.  0.
335  3.34  0.  0.  0.
336  3.35  0.  0.  0.
337  3.36  0.  0.  0.
338  3.37  0.  0.  0.
339  3.38  0.  0.  0.
340  3.39  0.  0.  0.
341  3.40  0.  0.  0.
342  3.41  0.  0.  0.
343  3.42  0.  0.  0.
344  3.43  0.  0.  0.
345  3.44  0.  0.  0.
346  3.45  0.  0.  0.
347  3.46  0.  0.  0.
348  3.47  0.  0.  0.
349  3.48  0.  0.  0.
350  3.49  0.  0.  0.
351  3.50  0.  0.  0.
352  3.51  0.  0.  0.
353  3.52  0.  0.  0.
354  3.53  0.  0.  0.
355  3.54  0.  0.  0.
356  3.55  0.  0.  0.
357  3.56  0.  0.  0.
358  3.57  0.  0.  0.
359  3.58  0.  0.  0.
360  3.59  0.  0.  0.
361  3.60  0.  0.  0.
362  3.61  0.  0.  0.
363  3.62  0.  0.  0.
364  3.63  0.  0.  0.
365  3.64  0.  0.  0.
366  3.65  0.  0.  0.
367  3.66  0.  0.  0.
368  3.67  0.  0.  0.
369  3.68  0.  0.  0.
370  3.69  0.  0.  0.
371  3.70  0.  0.  0.
372  3.71  0.  0.  0.
373  3.72  0.  0.  0.
374  3.73  0.  0.  0.
375  3.74  0.  0.  0.
376  3.75  0.  0.  0.
377  3.76  0.  0.  0.
378  3.77  0.  0.  0.
379  3.78  0.  0.  0.
380  3.79  0.  0.  0.
381  3.80  0.  0.  0.
382  3.81  0.  0.  0.
383  3.82  0.  0.  0.
384  3.83  0.  0.  0.
385  3.84  0.  0.  0.
386  3.85  0.  0.  0.
387  3.86  0.  0.  0.
388  3.87  0.  0.  0.
389  3.88  0.  0.  0.
390  3.89  0.  0.  0.
391  3.90  0.  0.  0.
392  3.91  0.  0.  0.
393  3.92  0.  0.  0.
394  3.93  0.  0.  0.
395  3.94  0.  0.  0.
396  3.95  0.  0.  0.
397  3.96  0.  0.  0.
398  3.97  0.  0.  0.
399  3.98  0.  0.  0.
400  3.99  0.  0.  0.
401  4.00  0.  0.  0.
402  4.01  0.  0.  0.
403  4.02  0.  0.  0.
404  4.03  0.  0.  0.
405  4.04  0.  0.  0.
406  4.05  0.  0.  0.
407  4.06  0.  0.  0.
408  4.07  0.  0.  0.
409  4.08  0.  0.  0.
410  4.09  0.  0.  0.
411  4.10  0.  0.  0.
412  4.11  0.  0.  0.
413  4.12  0.  0.  0.
414  4.13  0.  0.  0.
415  4.14  0.  0.  0.
416  4.15  0.  0.  0.
417  4.16  0.  0.  0.
418  4.17  0.  0.  0.
419  4.18  0.  0.  0.
420  4.19  0.  0.  0.
421  4.20  0.  0.  0.
422  4.21  0.  0.  0.
423  4.22  0.  0.  0.
424  4.23  0.  0.  0.
425  4.24  0.  0.  0.
426  4.25  0.  0.  0.
427  4.26  0.  0.  0.
428  4.27  0.  0.  0.
429  4.28  0.  0.  0.
430  4.29  0.  0.  0.
431  4.30  0.  0.  0.
432  4.31  0.  0.  0.
433  4.32  0.  0.  0.
434  4.33  0.  0.  0.
435  4.34  0.  0.  0.
436  4.35  0.  0.  0.
437  4.36  0.  0.  0.
438  4.37  0.  0.  0.
439  4.38  0.  0.  0.
440  4.39  0.  0.  0.
441  4.40  0.  0.  0.
442  4.41  0.  0.  0.
443  4.42  0.  0.  0.
444  4.43  0.  0.  0.
445  4.44  0.  0.  0.
446  4.45  0.  0.  0.
447  4.46  0.  0.  0.
448  4.47  0.  0.  0.
449  4.48  0.  0.  0.
450  4.49  0.  0.  0.
451  4.50  0.  0.  0.
452  4.51  0.  0.  0.
453  4.52  0.  0.  0.
454  4.53  0.  0.  0.
455  4.54  0.  0.  0.
456  4.55  0.  0.  0.
457  4.56  0.  0.  0.
458  4.57  0.  0.  0.
459  4.58  0.  0.  0.
460  4.59  0.  0.  0.
461  4.60  0.  0.  0.
462  4.61  0.  0.  0.
463  4.62  0.  0.  0.
464  4.63  0.  0.  0.
465  4.64  0.  0.  0.
466  4.65  0.  0.  0.
467  4.66  0.  0.  0.
468  4.67  0.  0.  0.
469  4.68  0.  0.  0.
470  4.69  0.  0.  0.
471  4.70  0.  0.  0.
472  4.71  0.  0.  0.
473  4.72  0.  0.  0.
474  4.73  0.  0.  0.
475  4.74  0.  0.  0.
476  4.75  0.  0.  0.
477  4.76  0.  0.  0.
478  4.77  0.  0.  0.
479  4.78  0.  0.  0.
480  4.79  0.  0.  0.
481  4.80  0.  0.  0.
482  4.81  0.  0.  0.
483  4.82  0.  0.  0.
484  4.83  0.  0.  0.
485  4.84  0.  0.  0.
486  4.85  0.  0.  0.
487  4.86  0.  0.  0.
488  4.87  0.  0.  0.
489  4.88  0.  0.  0.
490  4.89  0.  0.  0.
491  4.90  0.  0.  0.
492  4.91  0.  0.  0.
493  4.92  0.  0.  0.
494  4.93  0.  0.  0.
495  4.94  0.  0.  0.
496  4.95  0.  0.  0.
497  4.96  0.  0.  0.
498  4.97  0.  0.  0.
499  4.98  0.  0.  0.
500  4.99  0.  0.  0.
501  5.00  0.  0.  0.
502  5.01  0.  0.  0.
503  5.02  0.  0.  0.
504  5.03  0.  0.  0.
505  5.04  0.  0.  0.
506  5.05  0.  0.  0.
507  5.06  0.  0.  0.
508  5.07  0.  0.  0.
509  5.08  0.  0.  0.
510  5.09  0.  0.  0.
511  5.10  0.  0.  0.
512  5.11  0.  0.  0.
513  5.12  0.  0.  0.
514  5.13  0.  0.  0.
515  5.14  0.  0.  0.
516  5.15  0.  0.  0.
517  5.16  0.  0.  0.
518  5.17  0.  0.  0.
519  5.18  0.  0.  0.
520  5.19  0.  0.  0.
521  5.20  0.  0.  0.
522  5.21  0.  0.  0.
523  5.22  0.  0.  0.
524  5.23  0.  0.  0.
525  5.24  0.  0.  0.
526  5.25  0.  0.  0.
527  5.26  0.  0.  0.
528  5.27  0.  0.  0.
529  5.28  0.  0.  0.
530  5.29  0.  0.  0.
531  5.30  0.  0.  0.
532  5.31  0.  0.  0.
533  5.32  0.  0.  0.
534  5.33  0.  0.  0.
535  5.34  0.  0.  0.
536  5.35  0.  0.  0.
537  5.36  0.  0.  0.
538  5.37  0.  0.  0.
539  5.38  0.  0.  0.
540  5.39  0.  0.  0.
541  5.40  0.  0.  0.
542  5.41  0.  0.  0.
543  5.42  0.  0.  0.
544  5.43  0.  0.  0.
545  5.44  0.  0.  0.
546  5.45  0.  0.  0.
547  5.46  0.  0.  0.
548  5.47  0.  0.  0.
549  5.48  0.  0.  0.
550  5.49  0.  0.  0.
551  5.50  0.  0.  0.
552  5.51  0.  0.  0.
553  5.52  0.  0.  0.
554  5.53  0.  0.  0.
555  5.54  0.  0.  0.
556  5.55  0.  0.  0.
557  5.56  0.  0.  0.
558  5.57  0.  0.  0.
559  5.58  0.  0.  0.
560  5.59  0.  0.  0.
561  5.60  0.  0.  0.
562  5.61  0.  0.  0.
563  5.62  0.  0.  0.
564  5.63  0.  0.  0.
565  5.64  0.  0.  0.
566  5.65  0.  0.  0.
567  5.66  0.  0.  0.
568  5.67  0.  0.  0.
569  5.68  0.  0.  0.
570  5.69  0.  0.  0.
571  5.70  0.  0.  0.
572  5.71  0.  0.  0.
573  5.72  0.  0.  0.
574  5.73  0.  0.  0.
575  5.74  0.  0.  0.
576  5.75  0.  0.  0.
577  5.76  0.  0.  0.
578  5.77  0.  0.  0.
579  5.78  0.  0.  0.
580  5.79  0.  0.  0.
581  5.80  0.  0.  0.
582  5.81  0.  0.  0.
583  5.82  0.  0.  0.
584  5.83  0.  0.  0.
585  5.84  0.  0.  0.
586  5.85  0.  0.  0.
587  5.86  0.  0.  0.
588  5.87  0.  0.  0.
589  5.88  0.  0.  0.
590  5.89  0.  0.  0.
591  5.90  0.  0.  0.
592  5.91  0.  0.  0.
593  5.92  0.  0.  0.
594  5.93  0.  0.  0.
595  5.94  0.  0.  0.
596  5.95  0.  0.  0.
597  5.96  0.  0.  0.
598  5.97  0.  0.  0.
599  5.98  0.  0.  0.
600  5.99  0.  0.  0.
1                        -3.6584437858744E+00  4.3362627092855E-01 -6.6331291520215E-02
1  0.0000000000000E+00  8.6261636722540E-10  1.7965218142985E-08 -2.5041316853436E-08
2  1.0000000000000E-02  1.1375118232150E-03  6.1053971955951E-04 -3.9144957270174E-03
3  2.0000000000000E-02  4.5452931126730E-03  2.4176950204134E-03 -1.5606132498716E-02
4  3.0000000000000E-02  1.0209117879044E-02  5.3486017775085E-03 -3.4920172833331E-02
5  4.0000000000000E-02  1.8105397476032E-02  9.2835672895674E-03 -6.1601418669446E-02
6  5.0000000000000E-02  2.8201360857862E-02  1.4058654463452E-02 -9.5298206650670E-02
7  6.0000000000000E-02  4.0455303479199E-02  1.9469226287043E-02 -1.3556789989049E-01
8  7.0000000000000E-02  5.4816901451376E-02  2.5274378978648E-02 -1.8188377694417E-01
9  8.0000000000000E-02  7.1227586706185E-02  3.1202174235713E-02 -2.3364319367323E-01
10  9.0000000000000E-02  8.9620978131518E-02  3.6955564839476E-02 -2.9017687104411E-01
11  1.0000000000000E-01  1.0992336294581E-01  4.2218893835047E-02 -3.5075914209596E-01
12  1.1000000000000E-01  1.3205422198244E-01  4.6664835875799E-02 -4.1461897471741E-01
13  1.2000000000000E-01  1.5592679207109E-01  4.9961640335643E-02 -4.8095157380753E-01
14  1.3000000000000E-01  1.8144865833863E-01  5.1780529629086E-02 -5.4893035710437E-01
15  1.4000000000000E-01  2.0852236901249E-01  5.1803102965250E-02 -6.1771909361950E-01
16  1.5000000000000E-01  2.3704606519858E-01  4.9728595559685E-02 -6.8648399230960E-01
17  1.6000000000000E-01  2.6691411812388E-01  4.5280846144208E-02 -7.5440553136153E-01
18  1.7000000000000E-01  2.9801776647877E-01  3.8214831391429E-02 -8.2068982519947E-01
19  1.8000000000000E-01  3.3024574676304E-01  2.8322634492815E-02 -8.8457933689475E-01
20  1.9000000000000E-01  3.6348490992387E-01  1.5438726424082E-02 -9.4536275785528E-01
21  2.0000000000000E-01  3.9762081806709E-01 -5.5554782846016E-04 -1.0023838941964E+00
22  2.1000000000000E-01  4.3253831561275E-01 -1.9728369896601E-02 -1.0550494196952E+00
23  2.2000000000000E-01  4.6812206993961E-01 -4.2094809569836E-02 -1.1028353782932E+00
24  2.3000000000000E-01  5.0425707730821E-01 -6.7615202047849E-02 -1.1452923442681E+00
25  2.4000000000000E-01  5.4082913065079E-01 -9.6194575347961E-02 -1.1820491749487E+00
26  2.5000000000000E-01  5.7772524665437E-01 -1.2768314125236E-01 -1.2128153186549E+00
27  2.6000000000000E-01  6.1483405042257E-01 -1.6187784184912E-01 -1.2373816688610E+00
28  2.7000000000000E-01  6.5204611686502E-01 -1.9852492254643E-01 -1.2556199838320E+00
29  2.8000000000000E-01  6.8925426881411E-01 -2.3732348184643E-01 -1.2674809186229E+00
30  2.9000000000000E-01  7.2635383268943E-01 -2.7792992856968E-01 -1.2729907427997E+00
31  3.0000000000000E-01  7.6324285330533E-01 -3.1996325901810E-01 -1.2722468420239E+00
32  3.1000000000000E-01  7.9982227013123E-01 -3.6301105012100E-01 -1.2654121242519E+00
33  3.2000000000000E-01  8.3599605795407E-01 -4.0663605025864E-01 -1.2527084712897E+00
34  3.3000000000000E-01  8.7167133544520E-01 -4.5038323749082E-01 -1.2344093934278E+00
35  3.4000000000000E-01  9.0675844559086E-01 -4.9378720557825E-01 -1.2108320585275E+00
36  3.5000000000000E-01  9.4117101229665E-01 -5.3637973166292E-01 -1.1823288769809E+00
37  3.6000000000000E-01  9.7482597771761E-01 -5.7769737590494E-01 -1.1492788302320E+00
38  3.7000000000000E-01  1.0076436249918E+00 -6.1728896283254E-01 -1.1120787329122E+00
39  3.8000000000000E-01  1.0395475910666E+00 -6.5472279666581E-01 -1.0711346170801E+00
40  3.9000000000000E-01  1.0704648742030E+00 -6.8959346837506E-01 -1.0268534216025E+00
41  4.0000000000000E-01  1.1003258405308E+00 -7.2152812062786E-01 -9.7963516049907E-01
42  4.1000000000000E-01  1.1290642337062E+00 -7.5019204789813E-01 -9.2986573129261E-01
43  4.2000000000000E-01  1.1566171913107E+00 -7.7529352263982E-01 -8.7791050833476E-01
44  4.3000000000000E-01  1.1829252711248E+00 -7.9658775429378E-01 -8.2410884704173E-01
45  4.4000000000000E-01  1.2079324898358E+00 -8.1387990568689E-01 -7.6876960338542E-01
46  4.5000000000000E-01  1.2315863760993E+00 -8.2702711074110E-01 -7.1216774927647E-01
47  4.6000000000000E-01  1.2538380391879E+00 -8.3593945795029E-01 -6.5454213914768E-01
48  4.7000000000000E-01  1.2746422537458E+00 -8.4057992539385E-01 -5.9609445661789E-01
49  4.8000000000000E-01  1.2939575604375E+00 -8.4096327470805E-01 -5.3698934313551E-01
50  4.9000000000000E-01  1.3117463815492E+00 -8.3715393299514E-01 -4.7735568352480E-01
51  5.0000000000000E-01  1.3279751498913E+00 -8.2926291267680E-01 -4.1728899694759E-01
52  5.1000000000000E-01  1.3426144486777E+00 -8.1744383936964E-01 -3.5685485649321E-01
53  5.2000000000000E-01  1.3556391594301E+00 -8.0188817656309E-01 -2.9609323695008E-01
54  5.3000000000000E-01  1.3670286143999E+00 -7.8281975283152E-01 -2.3502366878880E-01
55  5.4000000000000E-01  1.3767667495176E+00 -7.6048871216342E-01 -1.7365105744923E-01
56  5.5000000000000E-01  1.3848422534917E+00 -7.3516502042741E-01 -1.1197201107908E-01
57  5.6000000000000E-01  1.3912487083869E+00 -7.0713167075673E-01 -4.9981507261597E-02
58  5.7000000000000E-01  1.3959847168323E+00 -6.7667773750718E-01  1.2320279729852E-02
59  5.8000000000000E-01  1.3990540109422E+00 -6.4409143227176E-01  7.4921174790022E-02
60  5.9000000000000E-01  1.4004655380785E+00 -6.0965331612430E-01  1.3779040582607E-01
61  6.0000000000000E-01  1.4002335187551E+00 -5.7362981977790E-01  2.0087239769010E-01
62  6.1000000000000E-01  1.3983774722649E+00 -5.3626721770968E-01  2.6408113156391E-01
63  6.2000000000000E-01  1.3949222060080E+00 -4.9778619361475E-01  3.2729523455720E-01
64  6.3000000000000E-01  1.3898977649999E+00 -4.5837712295739E-01  3.9035395000510E-01