Fr    ONCVPSP-4.0.1  r_core=   1.60257   1.60257   1.75302   1.65123
87.0000     27.0000      231012    zatom,zion,pspd
8   -1012   3     4   600     0    pspcod,pspxc,lmax,lloc,mmax,r2well
5.99000000  5.00000000  0.00000000    rchrg fchrg qchrg
3     2     2     2     0    nproj
1     1           extension_switch
0                         6.9428966830703E+00 -3.3143203446124E+00  8.3317859710881E-01
1  0.0000000000000E+00 -1.2521452430470E-08 -1.3560125244894E-10 -2.8532205487153E-08
2  1.0000000000000E-02  1.1037600796354E-01  3.5456391281197E-02  5.6219339294030E-02
3  2.0000000000000E-02  2.1999607744340E-01  7.0879746776467E-02  1.1133520845626E-01
4  3.0000000000000E-02  3.2811398736595E-01  1.0623715309829E-01  1.6426429430445E-01
5  4.0000000000000E-02  4.3400278079934E-01  1.4149593979282E-01  2.1396321344737E-01
6  5.0000000000000E-02  5.3696397362065E-01  1.7662379618444E-01  2.5944752441076E-01
7  6.0000000000000E-02  6.3633626425243E-01  2.1158888277263E-01  2.9980961729449E-01
8  7.0000000000000E-02  7.3150359321805E-01  2.4635993552822E-01  3.3423514111730E-01
9  8.0000000000000E-02  8.2190241378728E-01  2.8090636157164E-01  3.6201765753778E-01
10  9.0000000000000E-02  9.0702805016017E-01  3.1519832488038E-01  3.8257124422809E-01
11  1.0000000000000E-01  9.8644003716788E-01  3.4920682086297E-01  3.9544081113258E-01
12  1.1000000000000E-01  1.0597663550042E+00  3.8290373884901E-01  4.0030993737760E-01
13  1.2000000000000E-01  1.1267064936526E+00  4.1626191177474E-01  3.9700608482553E-01
14  1.3000000000000E-01  1.1870333040229E+00  4.4925515258734E-01  3.8550309523504E-01
15  1.4000000000000E-01  1.2405936159127E+00  4.8185827714296E-01  3.6592093068922E-01
16  1.5000000000000E-01  1.2873076263079E+00  5.1404711362988E-01  3.3852267034796E-01
17  1.6000000000000E-01  1.3271670847733E+00  5.4579849880269E-01  3.0370882961448E-01
18  1.7000000000000E-01  1.3602323252925E+00  5.7709026156231E-01  2.6200911944017E-01
19  1.8000000000000E-01  1.3866282154701E+00  6.0790119465474E-01  2.1407181271004E-01
20  1.9000000000000E-01  1.4065391140628E+00  6.3821101548344E-01  1.6065093049527E-01
21  2.0000000000000E-01  1.4202029459971E+00  6.6800031723364E-01  1.0259150253277E-01
22  2.1000000000000E-01  1.4279045199859E+00  6.9725051168535E-01  4.0813192790942E-02
23  2.2000000000000E-01  1.4299682272795E+00  7.2594376524442E-01 -2.3707388295745E-02
24  2.3000000000000E-01  1.4267502707282E+00  7.5406292984298E-01 -8.9955338985485E-02
25  2.4000000000000E-01  1.4186305809827E+00  7.8159147045045E-01 -1.5689672530653E-01
26  2.5000000000000E-01  1.4060045811968E+00  8.0851339099236E-01 -2.2349807018924E-01
27  2.6000000000000E-01  1.3892749629288E+00  8.3481316049534E-01 -2.8874569572249E-01
28  2.7000000000000E-01  1.3688436340772E+00  8.6047564126224E-01 -3.5166454589843E-01
29  2.8000000000000E-01  1.3451039946625E+00  8.8548602083209E-01 -4.1133612874908E-01
30  2.9000000000000E-01  1.3184336882171E+00  9.0982974939657E-01 -4.6691523531234E-01
31  3.0000000000000E-01  1.2891879656331E+00  9.3349248422886E-01 -5.1764511800237E-01
32  3.1000000000000E-01  1.2576937847788E+00  9.5646004253547E-01 -5.6287084217935E-01
33  3.2000000000000E-01  1.2242447533148E+00  9.7871836396876E-01 -6.0205056137949E-01
34  3.3000000000000E-01  1.1890970042463E+00  1.0002534838411E+00 -6.3476450803872E-01
35  3.4000000000000E-01  1.1524660742037E+00  1.0210515178657E+00 -6.6072153678981E-01
36  3.5000000000000E-01  1.1145248336534E+00  1.0410986590150E+00 -6.7976310563198E-01
37  3.6000000000000E-01  1.0754024966145E+00  1.0603811868469E+00 -6.9186463050693E-01
38  3.7000000000000E-01  1.0351847154396E+00  1.0788854893945E+00 -6.9713420007952E-01
39  3.8000000000000E-01  9.9391474423945E-01  1.0965980974654E+00 -6.9580868879889E-01
40  3.9000000000000E-01  9.5159563303105E-01  1.1135057309476E+00 -6.8824735662386E-01
41  4.0000000000000E-01  9.0819339408998E-01  1.1295953564733E+00 -6.7492307214007E-01
42  4.1000000000000E-01  8.6364106269086E-01  1.1448542555678E+00 -6.5641134126283E-01
43  4.2000000000000E-01  8.1784355679908E-01  1.1592701021926E+00 -6.3337736542698E-01
44  4.3000000000000E-01  7.7068322467021E-01  1.1728310484024E+00 -6.0656139033212E-01
45  4.4000000000000E-01  7.2202595601524E-01  1.1855258166660E+00 -5.7676263823864E-01
46  4.5000000000000E-01  6.7172772164885E-01  1.1973437972608E+00 -5.4482214290746E-01
47  4.6000000000000E-01  6.1964139854537E-01  1.2082751490386E+00 -5.1160482608044E-01
48  4.7000000000000E-01  5.6562373212757E-01  1.2183109017818E+00 -4.7798116755110E-01
49  4.8000000000000E-01  5.0954228548037E-01  1.2274430583236E+00 -4.4480882718005E-01
50  4.9000000000000E-01  4.5128222604212E-01  1.2356646945920E+00 -4.1291457657331E-01
51  5.0000000000000E-01  3.9075280413758E-01  1.2429700557629E+00 -3.8307689063402E-01
52  5.1000000000000E-01  3.2789338438530E-01  1.2493546467622E+00 -3.5600953500108E-01
53  5.2000000000000E-01  2.6267890038429E-01  1.2548153154449E+00 -3.3234646482766E-01
54  5.3000000000000E-01  1.9512461495717E-01  1.2593503269007E+00 -3.1262832386453E-01
55  5.4000000000000E-01  1.2529008234695E-01  1.2629594274835E+00 -2.9729080095125E-01
56  5.5000000000000E-01  5.3282224839696E-02  1.2656438973363E+00 -2.8665506443181E-01
57  5.6000000000000E-01 -2.0742546016535E-02  1.2674065903782E+00 -2.8092045444015E-01
58  5.7000000000000E-01 -9.6577214461305E-02  1.2682519609393E+00 -2.8015956924887E-01
59  5.8000000000000E-01 -1.7396408285612E-01  1.2681860764542E+00 -2.8431583580751E-01
60  5.9000000000000E-01 -2.5259574197892E-01  1.2672166158709E+00 -2.9320360710845E-01
61  6.0000000000000E-01 -3.3211707952491E-01  1.2653528536735E+00 -3.0651078103427E-01
62  6.1000000000000E-01 -4.1212829693740E-01  1.2626056296684E+00 -3.2380388777129E-01
63  6.2000000000000E-01 -4.9218888526629E-01  1.2589873049270E+00 -3.4453554662885E-01
64  6.3000000000000E-01 -5.7182249239321E-01  1.2545117045155E+00 -3.6805414904571E-01
65  6.4000000000000E-01 -6.5052259701712E-01  1.2491940478669E+00 -3.9361558351666E-01
66  6.5000000000000E-01 -7.2775888957671E-01  1.2430508678615E+00 -4.2039678087955E-01
67  6.6000000000000E-01 -8.0298424707587E-01  1.2360999198689E+00 -4.4751082554373E-01
68  6.7000000000000E-01 -8.7564217781009E-01  1.2283600821732E+00 -4.7402335039127E-01
69  6.8000000000000E-01 -9.4517460345545E-01  1.2198512493420E+00 -4.9896991072263E-01
70  6.9000000000000E-01 -1.0110298400171E+00  1.2105942202122E+00 -5.2137401611488E-01
71  7.0000000000000E-01 -1.0726706358315E+00  1.2006105822454E+00 -5.4026548867204E-01
72  7.1000000000000E-01 -1.1295821242087E+00  1.1899225940574E+00 -5.5469881199586E-01
73  7.2000000000000E-01 -1.1812795503717E+00  1.1785530679399E+00 -5.6377113731616E-01
74  7.3000000000000E-01 -1.2273156370358E+00  1.1665252541798E+00 -5.6663962148159E-01
75  7.4000000000000E-01 -1.2672874601397E+00  1.1538627289284E+00 -5.6253778569639E-01
76  7.5000000000000E-01 -1.3008427157464E+00  1.1405892872987E+00 -5.5079060368264E-01
77  7.6000000000000E-01 -1.3276852707432E+00  1.1267288432528E+00 -5.3082805289454E-01
78  7.7000000000000E-01 -1.3475799034659E+00  1.1123053377083E+00 -5.0219689200807E-01
79  7.8000000000000E-01 -1.3603561554481E+00  1.0973426561273E+00 -4.6457046153151E-01
80  7.9000000000000E-01 -1.3659112318633E+00  1.0818645566671E+00 -4.1775634136957E-01
81  8.0000000000000E-01 -1.3642119055525E+00  1.0658946097674E+00 -3.6170173878688E-01
82  8.1000000000000E-01 -1.3552953974651E+00  1.0494561498290E+00 -2.9649652169256E-01
83  8.2000000000000E-01 -1.3392692245558E+00  1.0325722394092E+00 -2.2237385471454E-01
84  8.3000000000000E-01 -1.3163100243027E+00  1.0152656461205E+00 -1.3970843834412E-01
85  8.4000000000000E-01 -1.2866613827269E+00  9.9755883217933E-01 -4.9012393719837E-02
86  8.5000000000000E-01 -1.2506307097513E+00  9.7947395631235E-01  4.9071123393302E-02
87  8.6000000000000E-01 -1.2085852216435E+00  9.6103288749281E-01  1.5377645692049E-01
88  8.7000000000000E-01 -1.1609471048547E+00  9.4225722975806E-01  2.6422597435037E-01
89  8.8000000000000E-01 -1.1081879485432E+00  9.2316835714681E-01  3.7944238854167E-01
90  8.9000000000000E-01 -1.0508225442417E+00  9.0378745760313E-01  4.9836265685518E-01
91  9.0000000000000E-01 -9.8940216031162E-01  8.8413558452129E-01  6.1985321238442E-01
92  9.1000000000000E-01 -9.2450740589247E-01  8.6423371445733E-01  7.4272626218688E-01
93  9.2000000000000E-01 -8.5674080390063E-01  8.4410280941043E-01  8.6575687257796E-01
94  9.3000000000000E-01 -7.8671919522086E-01  8.2376388198340E-01  9.8770055192426E-01
95  9.4000000000000E-01 -7.1506609655194E-01  8.0323806166712E-01  1.1073110370462E+00
96  9.5000000000000E-01 -6.4240413246295E-01  7.8254666046089E-01  1.2233579902974E+00
97  9.6000000000000E-01 -5.6934765817015E-01  7.6171123603874E-01  1.3346443205074E+00
98  9.7000000000000E-01 -4.9649568347770E-01  7.4075365070197E-01  1.4400228520537E+00
99  9.8000000000000E-01 -4.2442520040077E-01  7.1969612441946E-01  1.5384120820649E+00
100  9.9000000000000E-01 -3.5368500739775E-01  6.9856128034806E-01  1.6288107857685E+00
101  1.0000000000000E+00 -2.8479011210690E-01  6.7737218134562E-01  1.7103112538332E+00
102  1.0100000000000E+00 -2.1821678224628E-01  6.5615235613536E-01  1.7821109727043E+00
103  1.0200000000000E+00 -1.5439830116366E-01  6.3492581395074E-01  1.8435225888337E+00
104  1.0300000000000E+00 -9.3721470697347E-02  6.1371704668192E-01  1.8939820297288E+00
105  1.0400000000000E+00 -3.6523889796867E-02  5.9255101775477E-01  1.9330546882983E+00
106  1.0500000000000E+00  1.6907976959358E-02  5.7145313719827E-01  1.9604396113992E+00
107  1.0600000000000E+00  6.6339940922621E-02  5.5044922259160E-01  1.9759716680923E+00
108  1.0700000000000E+00  1.1159045466864E-01  5.2956544582533E-01  1.9796217073630E+00
109  1.0800000000000E+00  1.5253022765695E-01  5.0882826585738E-01  1.9714947482471E+00
110  1.0900000000000E+00  1.8908113091354E-01  4.8826434788941E-01  1.9518262768637E+00
111  1.1000000000000E+00  2.2121444031537E-01  4.6790046963059E-01  1.9209767543669E+00
112  1.1100000000000E+00  2.4894847760884E-01  4.4776341554708E-01  1.8794244665851E+00
113  1.1200000000000E+00  2.7234571643642E-01  4.2787986021595E-01  1.8277568699988E+00
114  1.1300000000000E+00  2.9150942715733E-01  4.0827624210554E-01  1.7666606090560E+00
115  1.1400000000000E+00  3.0657993913981E-01  3.8897862928930E-01  1.6969103966364E+00
116  1.1500000000000E+00  3.1773060236641E-01  3.7001257876249E-01  1.6193569623297E+00
117  1.1600000000000E+00  3.2516353166158E-01  3.5140299116910E-01  1.5349142821408E+00
118  1.1700000000000E+00  3.2910521663510E-01  3.3317396285688E-01  1.4445463080946E+00
119  1.1800000000000E+00  3.2980207858453E-01  3.1534863726070E-01  1.3492534171071E+00
120  1.1900000000000E+00  3.2751605224988E-01  2.9794905766599E-01  1.2500587954979E+00
121  1.2000000000000E+00  3.2252026551085E-01  2.8099602342493E-01  1.1479949687661E+00
122  1.2100000000000E+00  3.1509488409626E-01  2.6450895168723E-01  1.0440906760764E+00
123  1.2200000000000E+00  3.0552318122622E-01  2.4850574666503E-01  9.3935827550138E-01
124  1.2300000000000E+00  2.9408788403918E-01  2.3300267837803E-01  8.3478184979611E-01
125  1.2400000000000E+00  2.8106783992030E-01  2.1801427272196E-01  7.3130616386583E-01
126  1.2500000000000E+00  2.6673503650938E-01  2.0355321457105E-01  6.2982660423475E-01
127  1.2600000000000E+00  2.5135199960369E-01  1.8963026546641E-01  5.3118020854181E-01
128  1.2700000000000E+00  2.3516958346657E-01  1.7625419725924E-01  4.3613786956873E-01
129  1.2800000000000E+00  2.1842515841993E-01  1.6343174287102E-01  3.4539777400366E-01
130  1.2900000000000E+00  2.0134119130409E-01  1.5116756510894E-01  2.5958011171305E-01
131  1.3000000000000E+00  1.8412420551699E-01  1.3946424423347E-01  1.7922306694192E-01
132  1.3100000000000E+00  1.6696409908008E-01  1.2832228472059E-01  1.0478007904312E-01
133  1.3200000000000E+00  1.5003379169306E-01  1.1774014139836E-01  3.6618337535715E-02
134  1.3300000000000E+00  1.3348916511956E-01  1.0771426486900E-01 -2.4981545203086E-02
135  1.3400000000000E+00  1.1746925553854E-01  9.8239165855966E-02 -7.9824760377785E-02
136  1.3500000000000E+00  1.0209665186064E-01  8.9307497846671E-02 -1.2780052316558E-01
137  1.3600000000000E+00  8.7478050395710E-02  8.0910157137842E-02 -1.6887939799522E-01
138  1.3700000000000E+00  7.3704913717315E-02  7.3036399135895E-02 -2.0310985354811E-01
139  1.3800000000000E+00  6.0854180078966E-02  6.5673969521619E-02 -2.3061418395423E-01
140  1.3900000000000E+00  4.8988969263083E-02  5.8809248662557E-02 -2.5158394189006E-01
141  1.4000000000000E+00  3.8159231219971E-02  5.2427407448022E-02 -2.6627503621853E-01
142  1.4100000000000E+00  2.8402285190591E-02  4.6512572536136E-02 -2.7500265139916E-01
143  1.4200000000000E+00  1.9743199139998E-02  4.1047998838829E-02 -2.7813614828997E-01
144  1.4300000000000E+00  1.2194962107800E-02  3.6016246935473E-02 -2.7609410619766E-01
145  1.4400000000000E+00  5.7584054112302E-03  3.1399362997194E-02 -2.6933966434141E-01
146  1.4500000000000E+00  4.2183239348778E-04  2.7179058725189E-02 -2.5837631737540E-01
147  1.4600000000000E+00 -3.8396795698788E-03  2.3336888757807E-02 -2.4374431454497E-01
148  1.4700000000000E+00 -7.0653368795358E-03  1.9854422983627E-02 -2.2601780552968E-01
149  1.4800000000000E+00 -9.3100764161256E-03  1.6713411191836E-02 -2.0580287242707E-01
150  1.4900000000000E+00 -1.0646421577046E-02  1.3895937601850E-02 -1.8373656340947E-01
151  1.5000000000000E+00 -1.1166744948397E-02  1.1384563434059E-02 -1.6048697948477E-01
152  1.5100000000000E+00 -1.0985333147271E-02  9.1624628443505E-03 -1.3675242824035E-01
153  1.5200000000000E+00 -1.0230972985605E-02  7.2137150385363E-03 -1.1322985561028E-01
154  1.5300000000000E+00 -9.0476741244153E-03  5.5226168544422E-03 -9.0593844565250E-02
155  1.5400000000000E+00 -7.5874969402829E-03  4.0741325722144E-03 -6.9479002922285E-02
156  1.5500000000000E+00 -5.9703237970890E-03  2.8577960453833E-03 -5.0409556334827E-02
157  1.5600000000000E+00 -4.3211185790727E-03  1.8647329400627E-03 -3.3856013314887E-02
158  1.5700000000000E+00 -2.7687195954045E-03  1.0877306444664E-03 -2.0231033091175E-02
159  1.5800000000000E+00 -1.4457730599384E-03  5.2148983877526E-04 -9.8906833270690E-03
160  1.5900000000000E+00 -4.8023421742293E-04  1.6043703284644E-04 -3.0885366025676E-03
161  1.6000000000000E+00 -3.5565353504602E-05  1.0996650885310E-05 -2.1420351700526E-04
162  1.6100000000000E+00  7.4973264372092E-06 -2.2397455359689E-06  4.3956879302936E-05
163  1.6200000000000E+00 -2.2636570988995E-06  7.0155322882395E-07 -1.3696518612266E-05
164  1.63  0. -0.  0.
165  1.64 -0. -0. -0.
166  1.65  0.  0.  0.
167  1.66  0.  0.  0.
168  1.67  0.  0.  0.
169  1.68  0.  0.  0.
170  1.69  0.  0.  0.
171  1.70  0.  0.  0.
172  1.71  0.  0.  0.
173  1.72  0.  0.  0.
174  1.73  0.  0.  0.
175  1.74  0.  0.  0.
176  1.75  0.  0.  0.
177  1.76  0.  0.  0.
178  1.77  0.  0.  0.
179  1.78  0.  0.  0.
180  1.79  0.  0.  0.
181  1.80  0.  0.  0.
182  1.81  0.  0.  0.
183  1.82  0.  0.  0.
184  1.83  0.  0.  0.
185  1.84  0.  0.  0.
186  1.85  0.  0.  0.
187  1.86  0.  0.  0.
188  1.87  0.  0.  0.
189  1.88  0.  0.  0.
190  1.89  0.  0.  0.
191  1.90  0.  0.  0.
192  1.91  0.  0.  0.
193  1.92  0.  0.  0.
194  1.93  0.  0.  0.
195  1.94  0.  0.  0.
196  1.95  0.  0.  0.
197  1.96  0.  0.  0.
198  1.97  0.  0.  0.
199  1.98  0.  0.  0.
200  1.99  0.  0.  0.
201  2.00  0.  0.  0.
202  2.01  0.  0.  0.
203  2.02  0.  0.  0.
204  2.03  0.  0.  0.
205  2.04  0.  0.  0.
206  2.05  0.  0.  0.
207  2.06  0.  0.  0.
208  2.07  0.  0.  0.
209  2.08  0.  0.  0.
210  2.09  0.  0.  0.
211  2.10  0.  0.  0.
212  2.11  0.  0.  0.
213  2.12  0.  0.  0.
214  2.13  0.  0.  0.
215  2.14  0.  0.  0.
216  2.15  0.  0.  0.
217  2.16  0.  0.  0.
218  2.17  0.  0.  0.
219  2.18  0.  0.  0.
220  2.19  0.  0.  0.
221  2.20  0.  0.  0.
222  2.21  0.  0.  0.
223  2.22  0.  0.  0.
224  2.23  0.  0.  0.
225  2.24  0.  0.  0.
226  2.25  0.  0.  0.
227  2.26  0.  0.  0.
228  2.27  0.  0.  0.
229  2.28  0.  0.  0.
230  2.29  0.  0.  0.
231  2.30  0.  0.  0.
232  2.31  0.  0.  0.
233  2.32  0.  0.  0.
234  2.33  0.  0.  0.
235  2.34  0.  0.  0.
236  2.35  0.  0.  0.
237  2.36  0.  0.  0.
238  2.37  0.  0.  0.
239  2.38  0.  0.  0.
240  2.39  0.  0.  0.
241  2.40  0.  0.  0.
242  2.41  0.  0.  0.
243  2.42  0.  0.  0.
244  2.43  0.  0.  0.
245  2.44  0.  0.  0.
246  2.45  0.  0.  0.
247  2.46  0.  0.  0.
248  2.47  0.  0.  0.
249  2.48  0.  0.  0.
250  2.49  0.  0.  0.
251  2.50  0.  0.  0.
252  2.51  0.  0.  0.
253  2.52  0.  0.  0.
254  2.53  0.  0.  0.
255  2.54  0.  0.  0.
256  2.55  0.  0.  0.
257  2.56  0.  0.  0.
258  2.57  0.  0.  0.
259  2.58  0.  0.  0.
260  2.59  0.  0.  0.
261  2.60  0.  0.  0.
262  2.61  0.  0.  0.
263  2.62  0.  0.  0.
264  2.63  0.  0.  0.
265  2.64  0.  0.  0.
266  2.65  0.  0.  0.
267  2.66  0.  0.  0.
268  2.67  0.  0.  0.
269  2.68  0.  0.  0.
270  2.69  0.  0.  0.
271  2.70  0.  0.  0.
272  2.71  0.  0.  0.
273  2.72  0.  0.  0.
274  2.73  0.  0.  0.
275  2.74  0.  0.  0.
276  2.75  0.  0.  0.
277  2.76  0.  0.  0.
278  2.77  0.  0.  0.
279  2.78  0.  0.  0.
280  2.79  0.  0.  0.
281  2.80  0.  0.  0.
282  2.81  0.  0.  0.
283  2.82  0.  0.  0.
284  2.83  0.  0.  0.
285  2.84  0.  0.  0.
286  2.85  0.  0.  0.
287  2.86  0.  0.  0.
288  2.87  0.  0.  0.
289  2.88  0.  0.  0.
290  2.89  0.  0.  0.
291  2.90  0.  0.  0.
292  2.91  0.  0.  0.
293  2.92  0.  0.  0.
294  2.93  0.  0.  0.
295  2.94  0.  0.  0.
296  2.95  0.  0.  0.
297  2.96  0.  0.  0.
298  2.97  0.  0.  0.
299  2.98  0.  0.  0.
300  2.99  0.  0.  0.
301  3.00  0.  0.  0.
302  3.01  0.  0.  0.
303  3.02  0.  0.  0.
304  3.03  0.  0.  0.
305  3.04  0.  0.  0.
306  3.05  0.  0.  0.
307  3.06  0.  0.  0.
308  3.07  0.  0.  0.
309  3.08  0.  0.  0.
310  3.09  0.  0.  0.
311  3.10  0.  0.  0.
312  3.11  0.  0.  0.
313  3.12  0.  0.  0.
314  3.13  0.  0.  0.
315  3.14  0.  0.  0.
316  3.15  0.  0.  0.
317  3.16  0.  0.  0.
318  3.17  0.  0.  0.
319  3.18  0.  0.  0.
320  3.19  0.  0.  0.
321  3.20  0.  0.  0.
322  3.21  0.  0.  0.
323  3.22  0.  0.  0.
324  3.23  0.  0.  0.
325  3.24  0.  0.  0.
326  3.25  0.  0.  0.
327  3.26  0.  0.  0.
328  3.27  0.  0.  0.
329  3.28  0.  0.  0.
330  3.29  0.  0.  0.
331  3.30  0.  0.  0.
332  3.31  0.  0.  0.
333  3.32  0.  0.  0.
334  3.33  0.  0.  0.
335  3.34  0.  0.  0.
336  3.35  0.  0.  0.
337  3.36  0.  0.  0.
338  3.37  0.  0.  0.
339  3.38  0.  0.  0.
340  3.39  0.  0.  0.
341  3.40  0.  0.  0.
342  3.41  0.  0.  0.
343  3.42  0.  0.  0.
344  3.43  0.  0.  0.
345  3.44  0.  0.  0.
346  3.45  0.  0.  0.
347  3.46  0.  0.  0.
348  3.47  0.  0.  0.
349  3.48  0.  0.  0.
350  3.49  0.  0.  0.
351  3.50  0.  0.  0.
352  3.51  0.  0.  0.
353  3.52  0.  0.  0.
354  3.53  0.  0.  0.
355  3.54  0.  0.  0.
356  3.55  0.  0.  0.
357  3.56  0.  0.  0.
358  3.57  0.  0.  0.
359  3.58  0.  0.  0.
360  3.59  0.  0.  0.
361  3.60  0.  0.  0.
362  3.61  0.  0.  0.
363  3.62  0.  0.  0.
364  3.63  0.  0.  0.
365  3.64  0.  0.  0.
366  3.65  0.  0.  0.
367  3.66  0.  0.  0.
368  3.67  0.  0.  0.
369  3.68  0.  0.  0.
370  3.69  0.  0.  0.
371  3.70  0.  0.  0.
372  3.71  0.  0.  0.
373  3.72  0.  0.  0.
374  3.73  0.  0.  0.
375  3.74  0.  0.  0.
376  3.75  0.  0.  0.
377  3.76  0.  0.  0.
378  3.77  0.  0.  0.
379  3.78  0.  0.  0.
380  3.79  0.  0.  0.
381  3.80  0.  0.  0.
382  3.81  0.  0.  0.
383  3.82  0.  0.  0.
384  3.83  0.  0.  0.
385  3.84  0.  0.  0.
386  3.85  0.  0.  0.
387  3.86  0.  0.  0.
388  3.87  0.  0.  0.
389  3.88  0.  0.  0.
390  3.89  0.  0.  0.
391  3.90  0.  0.  0.
392  3.91  0.  0.  0.
393  3.92  0.  0.  0.
394  3.93  0.  0.  0.
395  3.94  0.  0.  0.
396  3.95  0.  0.  0.
397  3.96  0.  0.  0.
398  3.97  0.  0.  0.
399  3.98  0.  0.  0.
400  3.99  0.  0.  0.
401  4.00  0.  0.  0.
402  4.01  0.  0.  0.
403  4.02  0.  0.  0.
404  4.03  0.  0.  0.
405  4.04  0.  0.  0.
406  4.05  0.  0.  0.
407  4.06  0.  0.  0.
408  4.07  0.  0.  0.
409  4.08  0.  0.  0.
410  4.09  0.  0.  0.
411  4.10  0.  0.  0.
412  4.11  0.  0.  0.
413  4.12  0.  0.  0.
414  4.13  0.  0.  0.
415  4.14  0.  0.  0.
416  4.15  0.  0.  0.
417  4.16  0.  0.  0.
418  4.17  0.  0.  0.
419  4.18  0.  0.  0.
420  4.19  0.  0.  0.
421  4.20  0.  0.  0.
422  4.21  0.  0.  0.
423  4.22  0.  0.  0.
424  4.23  0.  0.  0.
425  4.24  0.  0.  0.
426  4.25  0.  0.  0.
427  4.26  0.  0.  0.
428  4.27  0.  0.  0.
429  4.28  0.  0.  0.
430  4.29  0.  0.  0.
431  4.30  0.  0.  0.
432  4.31  0.  0.  0.
433  4.32  0.  0.  0.
434  4.33  0.  0.  0.
435  4.34  0.  0.  0.
436  4.35  0.  0.  0.
437  4.36  0.  0.  0.
438  4.37  0.  0.  0.
439  4.38  0.  0.  0.
440  4.39  0.  0.  0.
441  4.40  0.  0.  0.
442  4.41  0.  0.  0.
443  4.42  0.  0.  0.
444  4.43  0.  0.  0.
445  4.44  0.  0.  0.
446  4.45  0.  0.  0.
447  4.46  0.  0.  0.
448  4.47  0.  0.  0.
449  4.48  0.  0.  0.
450  4.49  0.  0.  0.
451  4.50  0.  0.  0.
452  4.51  0.  0.  0.
453  4.52  0.  0.  0.
454  4.53  0.  0.  0.
455  4.54  0.  0.  0.
456  4.55  0.  0.  0.
457  4.56  0.  0.  0.
458  4.57  0.  0.  0.
459  4.58  0.  0.  0.
460  4.59  0.  0.  0.
461  4.60  0.  0.  0.
462  4.61  0.  0.  0.
463  4.62  0.  0.  0.
464  4.63  0.  0.  0.
465  4.64  0.  0.  0.
466  4.65  0.  0.  0.
467  4.66  0.  0.  0.
468  4.67  0.  0.  0.
469  4.68  0.  0.  0.
470  4.69  0.  0.  0.
471  4.70  0.  0.  0.
472  4.71  0.  0.  0.
473  4.72  0.  0.  0.
474  4.73  0.  0.  0.
475  4.74  0.  0.  0.
476  4.75  0.  0.  0.
477  4.76  0.  0.  0.
478  4.77  0.  0.  0.
479  4.78  0.  0.  0.
480  4.79  0.  0.  0.
481  4.80  0.  0.  0.
482  4.81  0.  0.  0.
483  4.82  0.  0.  0.
484  4.83  0.  0.  0.
485  4.84  0.  0.  0.
486  4.85  0.  0.  0.
487  4.86  0.  0.  0.
488  4.87  0.  0.  0.
489  4.88  0.  0.  0.
490  4.89  0.  0.  0.
491  4.90  0.  0.  0.
492  4.91  0.  0.  0.
493  4.92  0.  0.  0.
494  4.93  0.  0.  0.
495  4.94  0.  0.  0.
496  4.95  0.  0.  0.
497  4.96  0.  0.  0.
498  4.97  0.  0.  0.
499  4.98  0.  0.  0.
500  4.99  0.  0.  0.
501  5.00  0.  0.  0.
502  5.01  0.  0.  0.
503  5.02  0.  0.  0.
504  5.03  0.  0.  0.
505  5.04  0.  0.  0.
506  5.05  0.  0.  0.
507  5.06  0.  0.  0.
508  5.07  0.  0.  0.
509  5.08  0.  0.  0.
510  5.09  0.  0.  0.
511  5.10  0.  0.  0.
512  5.11  0.  0.  0.
513  5.12  0.  0.  0.
514  5.13  0.  0.  0.
515  5.14  0.  0.  0.
516  5.15  0.  0.  0.
517  5.16  0.  0.  0.
518  5.17  0.  0.  0.
519  5.18  0.  0.  0.
520  5.19  0.  0.  0.
521  5.20  0.  0.  0.
522  5.21  0.  0.  0.
523  5.22  0.  0.  0.
524  5.23  0.  0.  0.
525  5.24  0.  0.  0.
526  5.25  0.  0.  0.
527  5.26  0.  0.  0.
528  5.27  0.  0.  0.
529  5.28  0.  0.  0.
530  5.29  0.  0.  0.
531  5.30  0.  0.  0.
532  5.31  0.  0.  0.
533  5.32  0.  0.  0.
534  5.33  0.  0.  0.
535  5.34  0.  0.  0.
536  5.35  0.  0.  0.
537  5.36  0.  0.  0.
538  5.37  0.  0.  0.
539  5.38  0.  0.  0.
540  5.39  0.  0.  0.
541  5.40  0.  0.  0.
542  5.41  0.  0.  0.
543  5.42  0.  0.  0.
544  5.43  0.  0.  0.
545  5.44  0.  0.  0.
546  5.45  0.  0.  0.
547  5.46  0.  0.  0.
548  5.47  0.  0.  0.
549  5.48  0.  0.  0.
550  5.49  0.  0.  0.
551  5.50  0.  0.  0.
552  5.51  0.  0.  0.
553  5.52  0.  0.  0.
554  5.53  0.  0.  0.
555  5.54  0.  0.  0.
556  5.55  0.  0.  0.
557  5.56  0.  0.  0.
558  5.57  0.  0.  0.
559  5.58  0.  0.  0.
560  5.59  0.  0.  0.
561  5.60  0.  0.  0.
562  5.61  0.  0.  0.
563  5.62  0.  0.  0.
564  5.63  0.  0.  0.
565  5.64  0.  0.  0.
566  5.65  0.  0.  0.
567  5.66  0.  0.  0.
568  5.67  0.  0.  0.
569  5.68  0.  0.  0.
570  5.69  0.  0.  0.
571  5.70  0.  0.  0.
572  5.71  0.  0.  0.
573  5.72  0.  0.  0.
574  5.73  0.  0.  0.
575  5.74  0.  0.  0.
576  5.75  0.  0.  0.
577  5.76  0.  0.  0.
578  5.77  0.  0.  0.
579  5.78  0.  0.  0.
580  5.79  0.  0.  0.
581  5.80  0.  0.  0.
582  5.81  0.  0.  0.
583  5.82  0.  0.  0.
584  5.83  0.  0.  0.
585  5.84  0.  0.  0.
586  5.85  0.  0.  0.
587  5.86  0.  0.  0.
588  5.87  0.  0.  0.
589  5.88  0.  0.  0.
590  5.89  0.  0.  0.
591  5.90  0.  0.  0.
592  5.91  0.  0.  0.
593  5.92  0.  0.  0.
594  5.93  0.  0.  0.
595  5.94  0.  0.  0.
596  5.95  0.  0.  0.
597  5.96  0.  0.  0.
598  5.97  0.  0.  0.
599  5.98  0.  0.  0.
600  5.99  0.  0.  0.
1                        -3.5562724500323E+00  1.4027101363696E+00
1  0.0000000000000E+00  1.5301036548898E-09  2.2521722681246E-08
2  1.0000000000000E-02  1.1752186680843E-03  1.2603643424693E-03
3  2.0000000000000E-02  4.6951136922635E-03  5.0079113537965E-03
4  3.0000000000000E-02  1.0542458761140E-02  1.1142676860110E-02
5  4.0000000000000E-02  1.8688731221943E-02  1.9500286814296E-02
6  5.0000000000000E-02  2.9094390758693E-02  2.9855260238322E-02
7  6.0000000000000E-02  4.1709263359666E-02  4.1925541453689E-02
8  7.0000000000000E-02  5.6473024531782E-02  5.5378171916553E-02
9  8.0000000000000E-02  7.3315774189414E-02  6.9835989452343E-02
10  9.0000000000000E-02  9.2158694256953E-02  8.4885222402410E-02
11  1.0000000000000E-01  1.1291477880385E-01  1.0008382855844E-01
12  1.1000000000000E-01  1.3548962550032E-01  1.1497041412025E-01
13  1.2000000000000E-01  1.5978227636008E-01  1.2907355655951E-01
14  1.3000000000000E-01  1.8568609513797E-01  1.4192134743441E-01
15  1.4000000000000E-01  2.1308966838530E-01  1.5305096703024E-01
16  1.5000000000000E-01  2.4187771703991E-01  1.6201810228296E-01
17  1.6000000000000E-01  2.7193200554220E-01  1.6840602278139E-01
18  1.7000000000000E-01  3.0313223581862E-01  1.7183413667327E-01
19  1.8000000000000E-01  3.3535691405287E-01  1.7196585887361E-01
20  1.9000000000000E-01  3.6848417895821E-01  1.6851563788405E-01
21  2.0000000000000E-01  4.0239258125626E-01  1.6125500449139E-01
22  2.1000000000000E-01  4.3696180523619E-01  1.5001752528815E-01
23  2.2000000000000E-01  4.7207332459065E-01  1.3470256594595E-01
24  2.3000000000000E-01  5.0761098617246E-01  1.1527779303791E-01
25  2.4000000000000E-01  5.4346151686033E-01  9.1780368463496E-02
26  2.5000000000000E-01  5.7951495033184E-01  6.4316816677093E-02
27  2.6000000000000E-01  6.1566497218351E-01  3.3061571429770E-02
28  2.7000000000000E-01  6.5180918348002E-01 -1.7457649263372E-03
29  2.8000000000000E-01  6.8784928442338E-01 -3.9804390881149E-02
30  2.9000000000000E-01  7.2369118137647E-01 -8.0757420839875E-02
31  3.0000000000000E-01  7.5924502192374E-01 -1.2419803998675E-01
32  3.1000000000000E-01  7.9442516397556E-01 -1.6967657253802E-01
33  3.2000000000000E-01  8.2915008609716E-01 -2.1670831899527E-01
34  3.3000000000000E-01  8.6334224724426E-01 -2.6478200296075E-01
35  3.4000000000000E-01  8.9692790489694E-01 -3.1336865626514E-01
36  3.5000000000000E-01  9.2983690118611E-01 -3.6193076282621E-01
37  3.6000000000000E-01  9.6200242699110E-01 -4.0993147697267E-01
38  3.7000000000000E-01  9.9336077414707E-01 -4.5684373102484E-01
39  3.8000000000000E-01  1.0238510858348E+00 -5.0215904974726E-01
40  3.9000000000000E-01  1.0534151149354E+00 -5.4539589582018E-01
41  4.0000000000000E-01  1.0819969996268E+00 -5.8610738058910E-01
42  4.1000000000000E-01  1.1095430647874E+00 -6.2388818784443E-01
43  4.2000000000000E-01  1.1360016568756E+00 -6.5838057498529E-01
44  4.3000000000000E-01  1.1613230188821E+00 -6.8927933530351E-01
45  4.4000000000000E-01  1.1854592107428E+00 -7.1633562689537E-01
46  4.5000000000000E-01  1.2083640792653E+00 -7.3935959743454E-01
47  4.6000000000000E-01  1.2299932801972E+00 -7.5822175924167E-01
48  4.7000000000000E-01  1.2503043535861E+00 -7.7285309525783E-01
49  4.8000000000000E-01  1.2692568520635E+00 -7.8324390314167E-01
50  4.9000000000000E-01  1.2868125201828E+00 -7.8944141122309E-01
51  5.0000000000000E-01  1.3029355214694E+00 -7.9154622592622E-01
52  5.1000000000000E-01  1.3175927084383E+00 -7.8970769498662E-01
53  5.2000000000000E-01  1.3307539295347E+00 -7.8411829383448E-01
54  5.3000000000000E-01  1.3423923657754E+00 -7.7500716341451E-01
55  5.4000000000000E-01  1.3524848888510E+00 -7.6263294603792E-01
56  5.5000000000000E-01  1.3610124316020E+00 -7.4727608122135E-01
57  5.6000000000000E-01  1.3679603611360E+00 -7.2923073554416E-01
58  5.7000000000000E-01  1.3733188444155E+00 -7.0879654907530E-01
59  5.8000000000000E-01  1.3770831959356E+00 -6.8627038570240E-01
60  5.9000000000000E-01  1.3792541971261E+00 -6.6193827561051E-01
61  6.0000000000000E-01  1.3798383773640E+00 -6.3606773516664E-01
62  6.1000000000000E-01  1.3788482469605E+00 -6.0890064260273E-01
63  6.2000000000000E-01  1.3763024731916E+00 -5.8064683726148E-01
64  6.3000000000000E-01  1.3722259913520E+00 -5.5147859596964E-01
65  6.4000000000000E-01  1.3666500439208E+00 -5.2152612257976E-01
66  6.5000000000000E-01  1.3596121422115E+00 -4.9087416621244E-01
67  6.6000000000000E-01  1.3511559463092E+00 -4.5955986061252E-01
68  6.7000000000000E-01  1.3413310606546E+00 -4.2757185175245E-01
69  6.8000000000000E-01  1.3301927442854E+00 -3.9485075386176E-01
70  6.9000000000000E-01  1.3178015364532E+00 -3.6129094595370E-01
71  7.0000000000000E-01  1.3042228000725E+00 -3.2674369221534E-01
72  7.1000000000000E-01  1.2895261871882E+00 -2.9102154088957E-01
73  7.2000000000000E-01  1.2737850323348E+00 -2.5390392808484E-01
74  7.3000000000000E-01  1.2570756812690E+00 -2.1514388586438E-01
75  7.4000000000000E-01  1.2394767640592E+00 -1.7447572854932E-01
76  7.5000000000000E-01  1.2210684228682E+00 -1.3162356794026E-01
77  7.6000000000000E-01  1.2019315059530E+00 -8.6310487608767E-02
78  7.7000000000000E-01  1.1821467403894E+00 -3.8268188977536E-02
79  7.8000000000000E-01  1.1617938967955E+00  1.2753092025268E-02
80  7.9000000000000E-01  1.1409509598514E+00  6.6974609056848E-02
81  8.0000000000000E-01  1.1196933186826E+00  1.2457928754767E-01
82  8.1000000000000E-01  1.0980929911807E+00  1.8570228411891E-01
83  8.2000000000000E-01  1.0762178960688E+00  2.5042213979686E-01
84  8.3000000000000E-01  1.0541311859864E+00  3.1875273666992E-01
85  8.4000000000000E-01  1.0318906540724E+00  3.9063625642320E-01
86  8.5000000000000E-01  1.0095482254720E+00  4.6593732384368E-01