Ac    ONCVPSP-4.0.1  r_core=   1.30140   1.30140   1.40664   1.55722
89.0000     29.0000      231012    zatom,zion,pspd
8   -1012   3     4   600     0    pspcod,pspxc,lmax,lloc,mmax,r2well
5.99000000  5.00000000  0.00000000    rchrg fchrg qchrg
3     3     3     1    nproj
3     1           extension_switch
4     4     2    nprojso
0                         2.3504131635884E+01  2.4854688407338E+00 -7.8047324852287E-01
1  0.0000000000000E+00 -4.2465728933294E-08  1.4734814124395E-07  3.2151156736937E-09
2  1.0000000000000E-02  1.3574597658294E-01 -8.3874308910784E-02  2.2966577473161E-02
3  2.0000000000000E-02  2.7056637707288E-01 -1.6589348499106E-01  4.5873630100456E-02
4  3.0000000000000E-02  4.0355030588905E-01 -2.4424827085935E-01  6.8660981182723E-02
5  4.0000000000000E-02  5.3381584469584E-01 -3.1721983994462E-01  9.1267183462945E-02
6  5.0000000000000E-02  6.6052359305675E-01 -3.8322175148954E-01  1.1362896587194E-01
7  6.0000000000000E-02  7.8288910331744E-01 -4.4083810334479E-01  1.3568077634900E-01
8  7.0000000000000E-02  9.0019389306845E-01 -4.8885679533499E-01  1.5735444889040E-01
9  8.0000000000000E-02  1.0117947610043E+00 -5.2629696332529E-01  1.7857901976362E-01
10  9.0000000000000E-02  1.1171311825827E+00 -5.5242981968865E-01  1.9928071393391E-01
11  1.0000000000000E-01  1.2157306190479E+00 -5.6679233431864E-01  2.1938311826413E-01
12  1.1000000000000E-01  1.3072116353625E+00 -5.6919340559451E-01  2.3880755306445E-01
13  1.2000000000000E-01  1.3912847874965E+00 -5.5971239623098E-01  2.5747364819116E-01
14  1.3000000000000E-01  1.4677513053627E+00 -5.3869013785481E-01  2.7530012424094E-01
15  1.4000000000000E-01  1.5364996624465E+00 -5.0671273346944E-01  2.9220577358124E-01
16  1.5000000000000E-01  1.5975001848787E+00 -4.6458870183867E-01  3.0811063012954E-01
17  1.6000000000000E-01  1.6507979094525E+00 -4.1332020569266E-01  3.2293731107404E-01
18  1.7000000000000E-01  1.6965039501569E+00 -3.5406928051589E-01  3.3661250825027E-01
19  1.8000000000000E-01  1.7347856746613E+00 -2.8812012720334E-01  3.4906860178013E-01
20  1.9000000000000E-01  1.7658560245710E+00 -2.1683864562128E-01  3.6024536396715E-01
21  2.0000000000000E-01  1.7899623351908E+00 -1.4163046363718E-01  3.7009171744164E-01
22  2.1000000000000E-01  1.8073750213351E+00 -6.3898755166259E-02  3.7856750826704E-01
23  2.2000000000000E-01  1.8183764950875E+00  1.4996859940014E-02  3.8564525224926E-01
24  2.3000000000000E-01  1.8232506693853E+00  9.3779081683744E-02  3.9131181111038E-01
25  2.4000000000000E-01  1.8222733782682E+00  1.7128818760987E-01  3.9556995455957E-01
26  2.5000000000000E-01  1.8157040113289E+00  2.4651272319767E-01  3.9843976465776E-01
27  2.6000000000000E-01  1.8037786173750E+00  3.1861471266571E-01  3.9995984024978E-01
28  2.7000000000000E-01  1.7867046819006E+00  3.8694865258508E-01  4.0018826162852E-01
29  2.8000000000000E-01  1.7646577262464E+00  4.5107374774279E-01  3.9920327897508E-01
30  2.9000000000000E-01  1.7377798150825E+00  5.1075906202179E-01  3.9710369244274E-01
31  3.0000000000000E-01  1.7061799949855E+00  5.6598148007366E-01  3.9400889695136E-01
32  3.1000000000000E-01  1.6699366224099E+00  6.1691660136951E-01  3.9005857074307E-01
33  3.2000000000000E-01  1.6291014762842E+00  6.6392290985459E-01  3.8541199340890E-01
34  3.3000000000000E-01  1.5837054907766E+00  7.0751977305876E-01  3.8024698630118E-01
35  3.4000000000000E-01  1.5337658893355E+00  7.4836001764353E-01  3.7475847585235E-01
36  3.5000000000000E-01  1.4792944536415E+00  7.8719799802589E-01  3.6915668816892E-01
37  3.6000000000000E-01  1.4203066220830E+00  8.2485421569387E-01  3.6366499119110E-01
38  3.7000000000000E-01  1.3568310830391E+00  8.6217765477851E-01  3.5851740852833E-01
39  3.8000000000000E-01  1.2889195095369E+00  9.0000707104315E-01  3.5395583662054E-01
40  3.9000000000000E-01  1.2166560743510E+00  9.3913250451035E-01  3.5022700395777E-01
41  4.0000000000000E-01  1.1401663885893E+00  9.8025827947214E-01  3.4757921754466E-01
42  4.1000000000000E-01  1.0596255221423E+00  1.0239687098293E+00  3.4625894746081E-01
43  4.2000000000000E-01  9.7526479062161E-01  1.0706976440306E+00  3.4650730509428E-01
44  4.3000000000000E-01  8.8737702975752E-01  1.1207028649494E+00  3.4855647428449E-01
45  4.4000000000000E-01  7.9632012357368E-01  1.1740462095244E+00  3.5262615709442E-01
46  4.5000000000000E-01  7.0251860559436E-01  1.2305800955998E+00  3.5892009715592E-01
47  4.6000000000000E-01  6.0646321124680E-01  1.2899409446217E+00  3.6762274344229E-01
48  4.7000000000000E-01  5.0870832267342E-01  1.3515497748432E+00  3.7889611589088E-01
49  4.8000000000000E-01  4.0986731241827E-01  1.4146200170960E+00  3.9287693153279E-01
50  4.9000000000000E-01  3.1060585788368E-01  1.4781723808751E+00  4.0967404572268E-01
51  5.0000000000000E-01  2.1163336203750E-01  1.5410563793981E+00  4.2936625776923E-01
52  5.1000000000000E-01  1.1369267562904E-01  1.6019779151863E+00  4.5200052384623E-01
53  5.2000000000000E-01  1.7548370287843E-02  1.6595321389570E+00  4.7759061264523E-01
54  5.3000000000000E-01 -7.6026141334615E-02  1.7122406300044E+00  5.0611623096977E-01
55  5.4000000000000E-01 -1.6626230420617E-01  1.7585918108082E+00  5.3752263754834E-01
56  5.5000000000000E-01 -2.5241057609874E-01  1.7970834064756E+00  5.7172075395814E-01
57  5.6000000000000E-01 -3.3375465981399E-01  1.8262656938526E+00  6.0858777191865E-01
58  5.7000000000000E-01 -4.0962542701607E-01  1.8447842576787E+00  6.4796824655649E-01
59  5.8000000000000E-01 -4.7941415381029E-01  1.8514209827488E+00  6.8967565578974E-01
60  5.9000000000000E-01 -5.4258470509934E-01  1.8451320612106E+00  7.3349439695622E-01
61  6.0000000000000E-01 -5.9868433242784E-01  1.8250818811993E+00  7.7918218343466E-01
62  6.1000000000000E-01 -6.4735278763112E-01  1.7906717841926E+00  8.2647279648517E-01
63  6.2000000000000E-01 -6.8832950095771E-01  1.7415628298936E+00  8.7507914105022E-01
64  6.3000000000000E-01 -7.2145862601274E-01  1.6776918843558E+00  9.2469654897078E-01
65  6.4000000000000E-01 -7.4669181320739E-01  1.5992805439029E+00  9.7500626911528E-01
66  6.5000000000000E-01 -7.6408863658226E-01  1.5068366180364E+00  1.0256790813878E+00
67  6.6000000000000E-01 -7.7381466396677E-01  1.4011481124517E+00  1.0763789705392E+00
68  6.7000000000000E-01 -7.7613722546796E-01  1.2832698717850E+00  1.1267667961716E+00
69  6.8000000000000E-01 -7.7141899828347E-01  1.1545032541023E+00  1.1765038972820E+00
70  6.9000000000000E-01 -7.6010958492803E-01  1.0163694090033E+00  1.2252555730829E+00
71  7.0000000000000E-01 -7.4273531539348E-01  8.7057691251269E-01  1.2726943865583E+00
72  7.1000000000000E-01 -7.1988754997852E-01  7.1898466932818E-01  1.3185032431388E+00
73  7.2000000000000E-01 -6.9220979720304E-01  5.6356112189279E-01  1.3623782038301E+00
74  7.3000000000000E-01 -6.6038398932227E-01  4.0634090251507E-01  1.4040309999172E+00
75  7.4000000000000E-01 -6.2511627574698E-01  2.4938012676361E-01  1.4431912247568E+00
76  7.5000000000000E-01 -5.8712270175427E-01  9.4711552122549E-02  1.4796081869391E+00
77  7.6000000000000E-01 -5.4711513617039E-01 -5.5699184959098E-02  1.5130524179724E+00
78  7.7000000000000E-01 -5.0578779750231E-01 -1.9999508713023E-01  1.5433168363916E+00
79  7.8000000000000E-01 -4.6380470387351E-01 -3.3646598337731E-01  1.5702175785318E+00
80  7.9000000000000E-01 -4.2178833898848E-01 -4.6358241101211E-01  1.5935945139225E+00
81  8.0000000000000E-01 -3.8030978536619E-01 -5.8002435659649E-01  1.6133114701092E+00
82  8.1000000000000E-01 -3.3988052864069E-01 -6.8470418105831E-01  1.6292561974989E+00
83  8.2000000000000E-01 -3.0094608439673E-01 -7.7678323248208E-01  1.6413401093940E+00
84  8.3000000000000E-01 -2.6388154348142E-01 -8.5568183973682E-01  1.6494978355826E+00
85  8.4000000000000E-01 -2.2898907477585E-01 -9.2108257522816E-01  1.6536866296116E+00
86  8.5000000000000E-01 -1.9649736779202E-01 -9.7292686960360E-01  1.6538856701365E+00
87  8.6000000000000E-01 -1.6656294290711E-01 -1.0114052492746E+00  1.6500952955124E+00
88  8.7000000000000E-01 -1.3927320617580E-01 -1.0369416435797E+00  1.6423362081266E+00
89  8.8000000000000E-01 -1.1465107994128E-01 -1.0501723672037E+00  1.6306486809629E+00
90  8.9000000000000E-01 -9.2661001157577E-02 -1.0519205206745E+00  1.6150917936750E+00
91  9.0000000000000E-01 -7.3216047474787E-02 -1.0431666637291E+00  1.5957427192204E+00
92  9.1000000000000E-01 -5.6185927481977E-02 -1.0250167003316E+00  1.5726960750827E+00
93  9.2000000000000E-01 -4.1405556536612E-02 -9.9866796831463E-01  1.5460633455510E+00
94  9.3000000000000E-01 -2.8683933515177E-02 -9.6537455021618E-01  1.5159723736974E+00
95  9.4000000000000E-01 -1.7813036501523E-02 -9.2641281502664E-01  1.4825669139072E+00
96  9.5000000000000E-01 -8.5764664975060E-03 -8.8304816440877E-01  1.4460062283714E+00
97  9.6000000000000E-01 -7.5758706716562E-04 -8.3650389346088E-01  1.4064647041467E+00
98  9.7000000000000E-01  5.8530664585195E-03 -7.8793298806496E-01  1.3641314615468E+00
99  9.8000000000000E-01  1.1451303029679E-02 -7.3839357171242E-01  1.3192099200043E+00
100  9.9000000000000E-01  1.6213875786998E-02 -6.8882858839081E-01  1.2719172844304E+00
101  1.0000000000000E+00  2.0294284869202E-02 -6.4005016890094E-01  1.2224839136956E+00
102  1.0100000000000E+00  2.3819860536349E-02 -5.9272898028386E-01  1.1711525333811E+00
103  1.0200000000000E+00  2.6890161688493E-02 -5.4738870635608E-01  1.1181772575415E+00
104  1.0300000000000E+00  2.9576683060802E-02 -5.0440565597537E-01  1.0638223889758E+00
105  1.0400000000000E+00  3.1923824183431E-02 -4.6401334822839E-01  1.0083609744937E+00
106  1.0500000000000E+00  3.3951035685133E-02 -4.2631178401032E-01  9.5207310087824E-01
107  1.0600000000000E+00  3.5656024393718E-02 -3.9128098393363E-01  8.9524392861660E-01
108  1.0700000000000E+00  3.7018868468646E-02 -3.5879825504794E-01  8.3816147394864E-01
109  1.0800000000000E+00  3.8006867877153E-02 -3.2865854502385E-01  7.8111416513071E-01
110  1.0900000000000E+00  3.8579933758203E-02 -3.0059715188733E-01  7.2438821592596E-01
111  1.1000000000000E+00  3.8696302459300E-02 -2.7431397986947E-01  6.6826487789645E-01
112  1.1100000000000E+00  3.8318345650539E-02 -2.4949846551800E-01  6.1301765283774E-01
113  1.1200000000000E+00  3.7418236103253E-02 -2.2585424035053E-01  5.5890956739310E-01
114  1.1300000000000E+00  3.5983218427731E-02 -2.0312254381903E-01  5.0619063307083E-01
115  1.1400000000000E+00  3.4020223906754E-02 -1.8110334859824E-01  4.5509563638963E-01
116  1.1500000000000E+00  3.1559557160226E-02 -1.5967310495194E-01  4.0584242510558E-01
117  1.1600000000000E+00  2.8657367903185E-02 -1.3879794601013E-01  3.5863087732559E-01
118  1.1700000000000E+00  2.5396601954676E-02 -1.1854111634130E-01  3.1364276015762E-01
119  1.1800000000000E+00  2.1886099809032E-02 -9.9063285104808E-02  2.7104270328131E-01
120  1.1900000000000E+00  1.8257476864086E-02 -8.0614277122328E-02  2.3098052991264E-01
121  1.2000000000000E+00  1.4659374795551E-02 -6.3514593656211E-02  1.9359520288664E-01
122  1.2100000000000E+00  1.1248616605266E-02 -4.8124893015548E-02  1.5902065667833E-01
123  1.2200000000000E+00  8.1776640263030E-03 -3.4801164527972E-02  1.2739375895321E-01
124  1.2300000000000E+00  5.5782440885439E-03 -2.3834672416063E-02  9.8865017713287E-02
125  1.2400000000000E+00  3.5266939704385E-03 -1.5332947654404E-02  7.3603205628526E-02
126  1.2500000000000E+00  1.9501256236341E-03 -8.9195895894666E-03  5.1762015276654E-02
127  1.2600000000000E+00  8.4828039458790E-04 -4.4249199532877E-03  3.3580205334118E-02
128  1.2700000000000E+00  2.0381261806205E-04 -1.6628358101205E-03  1.9249394002798E-02
129  1.2800000000000E+00 -5.7597613778734E-05 -3.1729136225518E-04  8.8798420510848E-03
130  1.2900000000000E+00 -6.4120303923960E-05  4.9484552505255E-05  2.4770125868076E-03
131  1.3000000000000E+00 -3.9282313821199E-06  6.8645478064932E-06  7.8593319486480E-05
132  1.3100000000000E+00 -3.0195741604055E-07  4.9674720516934E-07  6.7172515813172E-06
133  1.3200000000000E+00  9.9399846591368E-08 -1.2724961298719E-07 -2.8907972440020E-06
134  1.33  0.  0.  0.
135  1.34  0.  0.  0.
136  1.35  0.  0.  0.
137  1.36  0.  0.  0.
138  1.37  0.  0.  0.
139  1.38  0.  0.  0.
140  1.39  0.  0.  0.
141  1.40  0.  0.  0.
142  1.41  0.  0.  0.
143  1.42  0.  0.  0.
144  1.43  0.  0.  0.
145  1.44  0.  0.  0.
146  1.45  0.  0.  0.
147  1.46  0.  0.  0.
148  1.47  0.  0.  0.
149  1.48  0.  0.  0.
150  1.49  0.  0.  0.
151  1.50  0.  0.  0.
152  1.51  0.  0.  0.
153  1.52  0.  0.  0.
154  1.53  0.  0.  0.
155  1.54  0.  0.  0.
156  1.55  0.  0.  0.
157  1.56  0.  0.  0.
158  1.57  0.  0.  0.
159  1.58  0.  0.  0.
160  1.59  0.  0.  0.
161  1.60  0.  0.  0.
162  1.61  0.  0.  0.
163  1.62  0.  0.  0.
164  1.63  0.  0.  0.
165  1.64  0.  0.  0.
166  1.65  0.  0.  0.
167  1.66  0.  0.  0.
168  1.67  0.  0.  0.
169  1.68  0.  0.  0.
170  1.69  0.  0.  0.
171  1.70  0.  0.  0.
172  1.71  0.  0.  0.
173  1.72  0.  0.  0.
174  1.73  0.  0.  0.
175  1.74  0.  0.  0.
176  1.75  0.  0.  0.
177  1.76  0.  0.  0.
178  1.77  0.  0.  0.
179  1.78  0.  0.  0.
180  1.79  0.  0.  0.
181  1.80  0.  0.  0.
182  1.81  0.  0.  0.
183  1.82  0.  0.  0.
184  1.83  0.  0.  0.
185  1.84  0.  0.  0.
186  1.85  0.  0.  0.
187  1.86  0.  0.  0.
188  1.87  0.  0.  0.
189  1.88  0.  0.  0.
190  1.89  0.  0.  0.
191  1.90  0.  0.  0.
192  1.91  0.  0.  0.
193  1.92  0.  0.  0.
194  1.93  0.  0.  0.
195  1.94  0.  0.  0.
196  1.95  0.  0.  0.
197  1.96  0.  0.  0.
198  1.97  0.  0.  0.
199  1.98  0.  0.  0.
200  1.99  0.  0.  0.
201  2.00  0.  0.  0.
202  2.01  0.  0.  0.
203  2.02  0.  0.  0.
204  2.03  0.  0.  0.
205  2.04  0.  0.  0.
206  2.05  0.  0.  0.
207  2.06  0.  0.  0.
208  2.07  0.  0.  0.
209  2.08  0.  0.  0.
210  2.09  0.  0.  0.
211  2.10  0.  0.  0.
212  2.11  0.  0.  0.
213  2.12  0.  0.  0.
214  2.13  0.  0.  0.
215  2.14  0.  0.  0.
216  2.15  0.  0.  0.
217  2.16  0.  0.  0.
218  2.17  0.  0.  0.
219  2.18  0.  0.  0.
220  2.19  0.  0.  0.
221  2.20  0.  0.  0.
222  2.21  0.  0.  0.
223  2.22  0.  0.  0.
224  2.23  0.  0.  0.
225  2.24  0.  0.  0.
226  2.25  0.  0.  0.
227  2.26  0.  0.  0.
228  2.27  0.  0.  0.
229  2.28  0.  0.  0.
230  2.29  0.  0.  0.
231  2.30  0.  0.  0.
232  2.31  0.  0.  0.
233  2.32  0.  0.  0.
234  2.33  0.  0.  0.
235  2.34  0.  0.  0.
236  2.35  0.  0.  0.
237  2.36  0.  0.  0.
238  2.37  0.  0.  0.
239  2.38  0.  0.  0.
240  2.39  0.  0.  0.
241  2.40  0.  0.  0.
242  2.41  0.  0.  0.
243  2.42  0.  0.  0.
244  2.43  0.  0.  0.
245  2.44  0.  0.  0.
246  2.45  0.  0.  0.
247  2.46  0.  0.  0.
248  2.47  0.  0.  0.
249  2.48  0.  0.  0.
250  2.49  0.  0.  0.
251  2.50  0.  0.  0.
252  2.51  0.  0.  0.
253  2.52  0.  0.  0.
254  2.53  0.  0.  0.
255  2.54  0.  0.  0.
256  2.55  0.  0.  0.
257  2.56  0.  0.  0.
258  2.57  0.  0.  0.
259  2.58  0.  0.  0.
260  2.59  0.  0.  0.
261  2.60  0.  0.  0.
262  2.61  0.  0.  0.
263  2.62  0.  0.  0.
264  2.63  0.  0.  0.
265  2.64  0.  0.  0.
266  2.65  0.  0.  0.
267  2.66  0.  0.  0.
268  2.67  0.  0.  0.
269  2.68  0.  0.  0.
270  2.69  0.  0.  0.
271  2.70  0.  0.  0.
272  2.71  0.  0.  0.
273  2.72  0.  0.  0.
274  2.73  0.  0.  0.
275  2.74  0.  0.  0.
276  2.75  0.  0.  0.
277  2.76  0.  0.  0.
278  2.77  0.  0.  0.
279  2.78  0.  0.  0.
280  2.79  0.  0.  0.
281  2.80  0.  0.  0.
282  2.81  0.  0.  0.
283  2.82  0.  0.  0.
284  2.83  0.  0.  0.
285  2.84  0.  0.  0.
286  2.85  0.  0.  0.
287  2.86  0.  0.  0.
288  2.87  0.  0.  0.
289  2.88  0.  0.  0.
290  2.89  0.  0.  0.
291  2.90  0.  0.  0.
292  2.91  0.  0.  0.
293  2.92  0.  0.  0.
294  2.93  0.  0.  0.
295  2.94  0.  0.  0.
296  2.95  0.  0.  0.
297  2.96  0.  0.  0.
298  2.97  0.  0.  0.
299  2.98  0.  0.  0.
300  2.99  0.  0.  0.
301  3.00  0.  0.  0.
302  3.01  0.  0.  0.
303  3.02  0.  0.  0.
304  3.03  0.  0.  0.
305  3.04  0.  0.  0.
306  3.05  0.  0.  0.
307  3.06  0.  0.  0.
308  3.07  0.  0.  0.
309  3.08  0.  0.  0.
310  3.09  0.  0.  0.
311  3.10  0.  0.  0.
312  3.11  0.  0.  0.
313  3.12  0.  0.  0.
314  3.13  0.  0.  0.
315  3.14  0.  0.  0.
316  3.15  0.  0.  0.
317  3.16  0.  0.  0.
318  3.17  0.  0.  0.
319  3.18  0.  0.  0.
320  3.19  0.  0.  0.
321  3.20  0.  0.  0.
322  3.21  0.  0.  0.
323  3.22  0.  0.  0.
324  3.23  0.  0.  0.
325  3.24  0.  0.  0.
326  3.25  0.  0.  0.
327  3.26  0.  0.  0.
328  3.27  0.  0.  0.
329  3.28  0.  0.  0.
330  3.29  0.  0.  0.
331  3.30  0.  0.  0.
332  3.31  0.  0.  0.
333  3.32  0.  0.  0.
334  3.33  0.  0.  0.
335  3.34  0.  0.  0.
336  3.35  0.  0.  0.
337  3.36  0.  0.  0.
338  3.37  0.  0.  0.
339  3.38  0.  0.  0.
340  3.39  0.  0.  0.
341  3.40  0.  0.  0.
342  3.41  0.  0.  0.
343  3.42  0.  0.  0.
344  3.43  0.  0.  0.
345  3.44  0.  0.  0.
346  3.45  0.  0.  0.
347  3.46  0.  0.  0.
348  3.47  0.  0.  0.
349  3.48  0.  0.  0.
350  3.49  0.  0.  0.
351  3.50  0.  0.  0.
352  3.51  0.  0.  0.
353  3.52  0.  0.  0.
354  3.53  0.  0.  0.
355  3.54  0.  0.  0.
356  3.55  0.  0.  0.
357  3.56  0.  0.  0.
358  3.57  0.  0.  0.
359  3.58  0.  0.  0.
360  3.59  0.  0.  0.
361  3.60  0.  0.  0.
362  3.61  0.  0.  0.
363  3.62  0.  0.  0.
364  3.63  0.  0.  0.
365  3.64  0.  0.  0.
366  3.65  0.  0.  0.
367  3.66  0.  0.  0.
368  3.67  0.  0.  0.
369  3.68  0.  0.  0.
370  3.69  0.  0.  0.
371  3.70  0.  0.  0.
372  3.71  0.  0.  0.
373  3.72  0.  0.  0.
374  3.73  0.  0.  0.
375  3.74  0.  0.  0.
376  3.75  0.  0.  0.
377  3.76  0.  0.  0.
378  3.77  0.  0.  0.
379  3.78  0.  0.  0.
380  3.79  0.  0.  0.
381  3.80  0.  0.  0.
382  3.81  0.  0.  0.
383  3.82  0.  0.  0.
384  3.83  0.  0.  0.
385  3.84  0.  0.  0.
386  3.85  0.  0.  0.
387  3.86  0.  0.  0.
388  3.87  0.  0.  0.
389  3.88  0.  0.  0.
390  3.89  0.  0.  0.
391  3.90  0.  0.  0.
392  3.91  0.  0.  0.
393  3.92  0.  0.  0.
394  3.93  0.  0.  0.
395  3.94  0.  0.  0.
396  3.95  0.  0.  0.
397  3.96  0.  0.  0.
398  3.97  0.  0.  0.
399  3.98  0.  0.  0.
400  3.99  0.  0.  0.
401  4.00  0.  0.  0.
402  4.01  0.  0.  0.
403  4.02  0.  0.  0.
404  4.03  0.  0.  0.
405  4.04  0.  0.  0.
406  4.05  0.  0.  0.
407  4.06  0.  0.  0.
408  4.07  0.  0.  0.
409  4.08  0.  0.  0.
410  4.09  0.  0.  0.
411  4.10  0.  0.  0.
412  4.11  0.  0.  0.
413  4.12  0.  0.  0.
414  4.13  0.  0.  0.
415  4.14  0.  0.  0.
416  4.15  0.  0.  0.
417  4.16  0.  0.  0.
418  4.17  0.  0.  0.
419  4.18  0.  0.  0.
420  4.19  0.  0.  0.
421  4.20  0.  0.  0.
422  4.21  0.  0.  0.
423  4.22  0.  0.  0.
424  4.23  0.  0.  0.
425  4.24  0.  0.  0.
426  4.25  0.  0.  0.
427  4.26  0.  0.  0.
428  4.27  0.  0.  0.
429  4.28  0.  0.  0.
430  4.29  0.  0.  0.
431  4.30  0.  0.  0.
432  4.31  0.  0.  0.
433  4.32  0.  0.  0.
434  4.33  0.  0.  0.
435  4.34  0.  0.  0.
436  4.35  0.  0.  0.
437  4.36  0.  0.  0.
438  4.37  0.  0.  0.
439  4.38  0.  0.  0.
440  4.39  0.  0.  0.
441  4.40  0.  0.  0.
442  4.41  0.  0.  0.
443  4.42  0.  0.  0.
444  4.43  0.  0.  0.
445  4.44  0.  0.  0.
446  4.45  0.  0.  0.
447  4.46  0.  0.  0.
448  4.47  0.  0.  0.
449  4.48  0.  0.  0.
450  4.49  0.  0.  0.
451  4.50  0.  0.  0.
452  4.51  0.  0.  0.
453  4.52  0.  0.  0.
454  4.53  0.  0.  0.
455  4.54  0.  0.  0.
456  4.55  0.  0.  0.
457  4.56  0.  0.  0.
458  4.57  0.  0.  0.
459  4.58  0.  0.  0.
460  4.59  0.  0.  0.
461  4.60  0.  0.  0.
462  4.61  0.  0.  0.
463  4.62  0.  0.  0.
464  4.63  0.  0.  0.
465  4.64  0.  0.  0.
466  4.65  0.  0.  0.
467  4.66  0.  0.  0.
468  4.67  0.  0.  0.
469  4.68  0.  0.  0.
470  4.69  0.  0.  0.
471  4.70  0.  0.  0.
472  4.71  0.  0.  0.
473  4.72  0.  0.  0.
474  4.73  0.  0.  0.
475  4.74  0.  0.  0.
476  4.75  0.  0.  0.
477  4.76  0.  0.  0.
478  4.77  0.  0.  0.
479  4.78  0.  0.  0.
480  4.79  0.  0.  0.
481  4.80  0.  0.  0.
482  4.81  0.  0.  0.
483  4.82  0.  0.  0.
484  4.83  0.  0.  0.
485  4.84  0.  0.  0.
486  4.85  0.  0.  0.
487  4.86  0.  0.  0.
488  4.87  0.  0.  0.
489  4.88  0.  0.  0.
490  4.89  0.  0.  0.
491  4.90  0.  0.  0.
492  4.91  0.  0.  0.
493  4.92  0.  0.  0.
494  4.93  0.  0.  0.
495  4.94  0.  0.  0.
496  4.95  0.  0.  0.
497  4.96  0.  0.  0.
498  4.97  0.  0.  0.
499  4.98  0.  0.  0.
500  4.99  0.  0.  0.
501  5.00  0.  0.  0.
502  5.01  0.  0.  0.
503  5.02  0.  0.  0.
504  5.03  0.  0.  0.
505  5.04  0.  0.  0.
506  5.05  0.  0.  0.
507  5.06  0.  0.  0.
508  5.07  0.  0.  0.
509  5.08  0.  0.  0.
510  5.09  0.  0.  0.
511  5.10  0.  0.  0.
512  5.11  0.  0.  0.
513  5.12  0.  0.  0.
514  5.13  0.  0.  0.
515  5.14  0.  0.  0.
516  5.15  0.  0.  0.
517  5.16  0.  0.  0.
518  5.17  0.  0.  0.
519  5.18  0.  0.  0.
520  5.19  0.  0.  0.
521  5.20  0.  0.  0.
522  5.21  0.  0.  0.
523  5.22  0.  0.  0.
524  5.23  0.  0.  0.
525  5.24  0.  0.  0.
526  5.25  0.  0.  0.
527  5.26  0.  0.  0.
528  5.27  0.  0.  0.
529  5.28  0.  0.  0.
530  5.29  0.  0.  0.
531  5.30  0.  0.  0.
532  5.31  0.  0.  0.
533  5.32  0.  0.  0.
534  5.33  0.  0.  0.
535  5.34  0.  0.  0.
536  5.35  0.  0.  0.
537  5.36  0.  0.  0.
538  5.37  0.  0.  0.
539  5.38  0.  0.  0.
540  5.39  0.  0.  0.
541  5.40  0.  0.  0.
542  5.41  0.  0.  0.
543  5.42  0.  0.  0.
544  5.43  0.  0.  0.
545  5.44  0.  0.  0.
546  5.45  0.  0.  0.
547  5.46  0.  0.  0.
548  5.47  0.  0.  0.
549  5.48  0.  0.  0.
550  5.49  0.  0.  0.
551  5.50  0.  0.  0.
552  5.51  0.  0.  0.
553  5.52  0.  0.  0.
554  5.53  0.  0.  0.
555  5.54  0.  0.  0.
556  5.55  0.  0.  0.
557  5.56  0.  0.  0.
558  5.57  0.  0.  0.
559  5.58  0.  0.  0.
560  5.59  0.  0.  0.
561  5.60  0.  0.  0.
562  5.61  0.  0.  0.
563  5.62  0.  0.  0.
564  5.63  0.  0.  0.
565  5.64  0.  0.  0.
566  5.65  0.  0.  0.
567  5.66  0.  0.  0.
568  5.67  0.  0.  0.
569  5.68  0.  0.  0.
570  5.69  0.  0.  0.
571  5.70  0.  0.  0.
572  5.71  0.  0.  0.
573  5.72  0.  0.  0.
574  5.73  0.  0.  0.
575  5.74  0.  0.  0.
576  5.75  0.  0.  0.
577  5.76  0.  0.  0.
578  5.77  0.  0.  0.
579  5.78  0.  0.  0.
580  5.79  0.  0.  0.
581  5.80  0.  0.  0.
582  5.81  0.  0.  0.
583  5.82  0.  0.  0.
584  5.83  0.  0.  0.
585  5.84  0.  0.  0.
586  5.85  0.  0.  0.
587  5.86  0.  0.  0.
588  5.87  0.  0.  0.
589  5.88  0.  0.  0.
590  5.89  0.  0.  0.
591  5.90  0.  0.  0.
592  5.91  0.  0.  0.
593  5.92  0.  0.  0.
594  5.93  0.  0.  0.
595  5.94  0.  0.  0.
596  5.95  0.  0.  0.
597  5.96  0.  0.  0.
598  5.97  0.  0.  0.
599  5.98  0.  0.  0.
600  5.99  0.  0.  0.
1                         6.8371287652021E+00 -6.5555622714094E-01  2.1909895570514E-02
1  0.0000000000000E+00 -6.4889649764588E-09 -1.6901234987064E-08  9.4279840323619E-09
2  1.0000000000000E-02  2.9853697981399E-03  7.3420402648461E-05 -3.5413702036091E-03
3  2.0000000000000E-02  1.1925421227594E-02  3.0291550073774E-04 -1.4126554917840E-02
4  3.0000000000000E-02  2.6771949629162E-02  7.1584940066484E-04 -3.1638933292893E-02
5  4.0000000000000E-02  4.7444515805410E-02  1.3567148246793E-03 -5.5884667574988E-02
6  5.0000000000000E-02  7.3830314287215E-02  2.2855004059357E-03 -8.6593524581662E-02
7  6.0000000000000E-02  1.0578401917809E-01  3.5754806335602E-03 -1.2342007642164E-01
8  7.0000000000000E-02  1.4312763656195E-01  5.3105013617976E-03 -1.6594532810448E-01
9  8.0000000000000E-02  1.8565039894886E-01  7.5818506985417E-03 -2.1367882911326E-01
10  9.0000000000000E-02  2.3310874245282E-01  1.0484819202146E-02 -2.6606133250340E-01
11  1.0000000000000E-01  2.8522641114394E-01  1.4115064196300E-02 -3.2246806819733E-01
12  1.1000000000000E-01  3.4169473513824E-01  1.8564900310734E-02 -3.8221269654310E-01
13  1.2000000000000E-01  4.0217312937484E-01  2.3919641828513E-02 -4.4455200370832E-01
14  1.3000000000000E-01  4.6628985862813E-01  3.0254121940188E-02 -5.0869139201787E-01
15  1.4000000000000E-01  5.3364311111384E-01  3.7629509562200E-02 -5.7379120601389E-01
16  1.5000000000000E-01  6.0380241812954E-01  4.6090536081666E-02 -6.3897391903467E-01
17  1.6000000000000E-01  6.7631045063286E-01  5.5663232469101E-02 -7.0333218584631E-01
18  1.7000000000000E-01  7.5068521566845E-01  6.6353261993323E-02 -7.6593774480378E-01
19  1.8000000000000E-01  8.2642266631591E-01  7.8144915717374E-02 -8.2585112877267E-01
20  1.9000000000000E-01  9.0299972859810E-01  9.1000817579995E-02 -8.8213211831675E-01
21  2.0000000000000E-01  9.7987773784723E-01  1.0486236377606E-01 -9.3385084422482E-01
22  2.1000000000000E-01  1.0565062656862E+00  1.1965089800099E-01 -9.8009942015186E-01
23  2.2000000000000E-01  1.1323273073750E+00  1.3526960061509E-01 -1.0200039608504E+00
24  2.3000000000000E-01  1.2067797881318E+00  1.5160604662811E-01 -1.0527368180305E+00
25  2.4000000000000E-01  1.2793043365030E+00  1.6853536531305E-01 -1.0775288451635E+00
26  2.5000000000000E-01  1.3493482632443E+00  1.8592391391564E-01 -1.0936814853206E+00
27  2.6000000000000E-01  1.4163706757945E+00  2.0363335997420E-01 -1.1005784631356E+00
28  2.7000000000000E-01  1.4798476515396E+00  2.2152505177723E-01 -1.0976968538192E+00
29  2.8000000000000E-01  1.5392773879120E+00  2.3946454495842E-01 -1.0846172993191E+00
30  2.9000000000000E-01  1.5941852441372E+00  2.5732614555445E-01 -1.0610331445806E+00
31  3.0000000000000E-01  1.6441285882591E+00  2.7499732631676E-01 -1.0267582756158E+00
32  3.1000000000000E-01  1.6887013640235E+00  2.9238287383729E-01 -9.8173345576722E-01
33  3.2000000000000E-01  1.7275382953012E+00  3.0940862916082E-01 -9.2603097703471E-01
34  3.3000000000000E-01  1.7603186509372E+00  3.2602469392026E-01 -8.5985746930999E-01
35  3.4000000000000E-01  1.7867695001277E+00  3.4220798742976E-01 -7.8355474137008E-01
36  3.5000000000000E-01  1.8066683974841E+00  3.5796405726146E-01 -6.9759856289449E-01
37  3.6000000000000E-01  1.8198454476361E+00  3.7332806616062E-01 -6.0259533582369E-01
38  3.7000000000000E-01  1.8261847112842E+00  3.8836490116234E-01 -4.9927664518222E-01
39  3.8000000000000E-01  1.8256249277399E+00  4.0316837581695E-01 -3.8849172305336E-01
40  3.9000000000000E-01  1.8181595428444E+00  4.1785952279629E-01 -2.7119790365069E-01
41  4.0000000000000E-01  1.8038360453765E+00  4.3258400107577E-01 -1.4844919127178E-01
42  4.1000000000000E-01  1.7827546292767E+00  4.4750866857842E-01 -2.1383105207003E-02
43  4.2000000000000E-01  1.7550662128358E+00  4.6281739683107E-01  1.0879399469923E-01
44  4.3000000000000E-01  1.7209698590711E+00  4.7870622804512E-01  2.4082286224798E-01
45  4.4000000000000E-01  1.6807096534706E+00  4.9537799636108E-01  3.7340832809478E-01
46  4.5000000000000E-01  1.6345711058180E+00  5.1303655311966E-01  5.0523697566734E-01
47  4.6000000000000E-01  1.5828771516215E+00  5.3188075035737E-01  6.3499521430406E-01
48  4.7000000000000E-01  1.5259838355285E+00  5.5209834679327E-01  7.6138742190036E-01
49  4.8000000000000E-01  1.4642757638286E+00  5.7386000601310E-01  8.8315382451193E-01
50  4.9000000000000E-01  1.3981614156013E+00  5.9731355713887E-01  9.9908778313813E-01
51  5.0000000000000E-01  1.3280684022066E+00  6.2257868390682E-01  1.1080521683340E+00
52  5.1000000000000E-01  1.2544387626326E+00  6.4974219881844E-01  1.2089945212022E+00
53  5.2000000000000E-01  1.1777243777990E+00  6.7885404508055E-01  1.3009607243292E+00
54  5.3000000000000E-01  1.0983825803927E+00  7.0992415075075E-01  1.3831069377841E+00
55  5.4000000000000E-01  1.0168720283906E+00  7.4292023733035E-01  1.4547095926518E+00
56  5.5000000000000E-01  9.3364890035544E-01  7.7776665959306E-01  1.5151732768242E+00
57  5.6000000000000E-01  8.4916345918654E-01  8.1434432540620E-01  1.5640363938643E+00
58  5.7000000000000E-01  7.6385701860179E-01  8.5249171447766E-01  1.6009745245572E+00
59  5.8000000000000E-01  6.7815933361179E-01  8.9200698419849E-01  1.6258014710112E+00
60  5.9000000000000E-01  5.9248642300040E-01  9.3265111993631E-01  1.6384680136064E+00
61  6.0000000000000E-01  5.0723881876209E-01  9.7415205717340E-01  1.6390584604192E+00
62  6.1000000000000E-01  4.2280022495681E-01  1.0162096746656E+00  1.6277851156991E+00
63  6.2000000000000E-01  3.3953655690966E-01  1.0585015321750E+00  1.6049808373562E+00
64  6.3000000000000E-01  2.5779532145806E-01  1.1006892040843E+00  1.5710898921094E+00
65  6.4000000000000E-01  1.7790529034485E-01  1.1424250420349E+00  1.5266573499764E+00
66  6.5000000000000E-01  1.0017641213548E-01  1.1833591862163E+00  1.4723172863294E+00
67  6.6000000000000E-01  2.4899903405514E-02  1.2231466365396E+00  1.4087800791479E+00
68  6.7000000000000E-01 -4.7651542458361E-02  1.2614541919425E+00  1.3368191009208E+00
69  6.8000000000000E-01 -1.1722349060533E-01  1.2979670686626E+00  1.2572571086693E+00
70  6.9000000000000E-01 -1.8357950378527E-01  1.3323950164510E+00  1.1709526317233E+00
71  7.0000000000000E-01 -2.4650094029021E-01  1.3644777652103E+00  1.0787866454369E+00
72  7.1000000000000E-01 -3.0578685944790E-01  1.3939896530814E+00  9.8164980034614E-01
73  7.2000000000000E-01 -3.6125407500461E-01  1.4207433100749E+00  8.8043045100835E-01
74  7.3000000000000E-01 -4.1273738681819E-01  1.4445922983111E+00  7.7600369768406E-01
75  7.4000000000000E-01 -4.6009001012154E-01  1.4654326400291E+00  6.6922161812432E-01
76  7.5000000000000E-01 -5.0318420958838E-01  1.4832031968893E+00  5.6090482707261E-01
77  7.6000000000000E-01 -5.4191213294547E-01  1.4978848977771E+00  4.5183545889028E-01
78  7.7000000000000E-01 -5.7618682636177E-01  1.5094988463268E+00  3.4275162521634E-01
79  7.8000000000000E-01 -6.0594340174058E-01  1.5181033727044E+00  2.3434335605341E-01
80  7.9000000000000E-01 -6.3114031477874E-01  1.5237901258107E+00  1.2724999040791E-01
81  8.0000000000000E-01 -6.5176070264803E-01  1.5266793310183E+00  2.2058942811774E-02
82  8.1000000000000E-01 -6.6781372177663E-01  1.5269143639499E+00 -8.0694264147458E-02
83  8.2000000000000E-01 -6.7933581979420E-01  1.5246558118159E+00 -1.8052484275968E-01
84  8.3000000000000E-01 -6.8639187152920E-01  1.5200752098031E+00 -2.7699662619398E-01
85  8.4000000000000E-01 -6.8907610721782E-01  1.5133486503823E+00 -3.6971918516997E-01
86  8.5000000000000E-01 -6.8751276193591E-01  1.5046504678204E+00 -4.5834437626464E-01
87  8.6000000000000E-01 -6.8185637875160E-01  1.4941471984397E+00 -5.4256252930130E-01