Ac    ONCVPSP-4.0.1  r_core=   1.30140   1.30140   1.40664   1.55722
89.0000     29.0000      231012    zatom,zion,pspd
8   -1012   3     4   600     0    pspcod,pspxc,lmax,lloc,mmax,r2well
5.99000000  5.00000000  0.00000000    rchrg fchrg qchrg
3     2     2     1     0    nproj
1     1           extension_switch
0                         2.3370234753287E+01  2.4738333208910E+00 -7.8983627636625E-01
1  0.0000000000000E+00 -4.1932513239473E-08  1.4561994310380E-07  2.7727459772642E-09
2  1.0000000000000E-02  1.3576454938030E-01 -8.3332865646487E-02  2.3197733951548E-02
3  2.0000000000000E-02  2.7060587015510E-01 -1.6482404124982E-01  4.6331776375935E-02
4  3.0000000000000E-02  4.0361528928692E-01 -2.4267727107905E-01  6.9337920120088E-02
5  4.0000000000000E-02  5.3391286551928E-01 -3.1518586244547E-01  9.2150955855436E-02
6  5.0000000000000E-02  6.6066081821470E-01 -3.8077424261638E-01  1.1470424295302E-01
7  6.0000000000000E-02  7.8307586312040E-01 -4.3803575517525E-01  1.3692936468969E-01
8  7.0000000000000E-02  9.0044014199169E-01 -4.8576562037478E-01  1.5875589256381E-01
9  8.0000000000000E-02  1.0121104749351E+00 -5.2298812964891E-01  1.8011128172640E-01
10  9.0000000000000E-02  1.1175257142875E+00 -5.4897731796696E-01  2.0092091617029E-01
11  1.0000000000000E-01  1.2162120352913E+00 -5.6327055384101E-01  2.2110831843330E-01
12  1.1000000000000E-01  1.3077860600383E+00 -5.6567469956128E-01  2.4059553423770E-01
13  1.2000000000000E-01  1.3919557752500E+00 -5.5626471715206E-01  2.5930369779622E-01
14  1.3000000000000E-01  1.4685192694962E+00 -5.3537482182039E-01  2.7715377856014E-01
15  1.4000000000000E-01  1.5373613794169E+00 -5.0358250742700E-01  2.9406750507111E-01
16  1.5000000000000E-01  1.5984483954705E+00 -4.6168598095321E-01  3.0996845641469E-01
17  1.6000000000000E-01  1.6518210338004E+00 -4.1067573861384E-01  3.2478330667177E-01
18  1.7000000000000E-01  1.6975859302997E+00 -3.5170118921847E-01  3.3844320283906E-01
19  1.8000000000000E-01  1.7359059543395E+00 -2.8603337536213E-01  3.5088525205490E-01
20  1.9000000000000E-01  1.7669896716565E+00 -2.1502495563422E-01  3.6205408973237E-01
21  2.0000000000000E-01  1.7910803076004E+00 -1.4006868786159E-01  3.7190349647455E-01
22  2.1000000000000E-01  1.8084445726745E+00 -6.2555692160494E-02  3.8039802852478E-01
23  2.2000000000000E-01  1.8193617117418E+00  1.6165227916622E-02  3.8751462407709E-01
24  2.3000000000000E-01  1.8241131264665E+00  9.4825967475473E-02  3.9324414611579E-01
25  2.4000000000000E-01  1.8229728978859E+00  1.7227404450342E-01  3.9759282163201E-01
26  2.5000000000000E-01  1.8161995031928E+00  2.4750301811225E-01  4.0058353712568E-01
27  2.6000000000000E-01  1.8040289788860E+00  3.1967749767744E-01  4.0225695127510E-01
28  2.7000000000000E-01  1.7866697327243E+00  3.8815201219523E-01  4.0267238755345E-01
29  2.8000000000000E-01  1.7642991509741E+00  4.5248320377077E-01  4.0190847238370E-01
30  2.9000000000000E-01  1.7370620870031E+00  5.1243501986533E-01  4.0006348812185E-01
31  3.0000000000000E-01  1.7050712542522E+00  5.6797679925679E-01  3.9725541469294E-01
32  3.1000000000000E-01  1.6684094829748E+00  6.1927436982304E-01  3.9362163900396E-01
33  3.2000000000000E-01  1.6271337378643E+00  6.6667449533850E-01  3.8931831723380E-01
34  3.3000000000000E-01  1.5812807347498E+00  7.1068321673290E-01  3.8451938164176E-01
35  3.4000000000000E-01  1.5308739407645E+00  7.5193882428235E-01  3.7941519051916E-01
36  3.5000000000000E-01  1.4759316954822E+00  7.9118036508362E-01  3.7421082719130E-01
37  3.6000000000000E-01  1.4164761519409E+00  8.2921272975522E-01  3.6912406140782E-01
38  3.7000000000000E-01  1.3525427074467E+00  8.6686946929752E-01  3.6438299387655E-01
39  3.8000000000000E-01  1.2841895755029E+00  9.0497456415591E-01  3.6022341193264E-01
40  3.9000000000000E-01  1.2115071427255E+00  9.4430440058907E-01  3.5688589122223E-01
41  4.0000000000000E-01  1.1346267584441E+00  9.8555120343617E-01  3.5461268465287E-01
42  4.1000000000000E-01  1.0537286197461E+00  1.0292891295315E+00  3.5364444555950E-01
43  4.2000000000000E-01  9.6904844054260E-01  1.0759441437277E+00  3.5421683690848E-01
44  4.3000000000000E-01  8.8088262904658E-01  1.1257686823298E+00  3.5655708227516E-01
45  4.4000000000000E-01  7.8959174274601E-01  1.1788219603557E+00  3.6088051716867E-01
46  4.5000000000000E-01  6.9560204215737E-01  1.2349566040471E+00  3.6738720094503E-01
47  4.6000000000000E-01  5.9940502275619E-01  1.2938120938474E+00  3.7625864997806E-01
48  4.7000000000000E-01  5.0155486669393E-01  1.3548152917769E+00  3.8765475190345E-01
49  4.8000000000000E-01  4.0266382031528E-01  1.4171881072513E+00  4.0171091860409E-01
50  4.9000000000000E-01  3.0339556808980E-01  1.4799621337461E+00  4.1853553218271E-01
51  5.0000000000000E-01  2.0445673636857E-01  1.5419998721379E+00  4.3820773351909E-01
52  5.1000000000000E-01  1.0658671943424E-01  1.6020219517197E+00  4.6077559721855E-01
53  5.2000000000000E-01  1.0546073798043E-02  1.6586395731143E+00  4.8625472993246E-01
54  5.3000000000000E-01 -8.2896227031526E-02  1.7103912343037E+00  5.1462732131416E-01
55  5.4000000000000E-01 -1.7297634746538E-01  1.7557826667542E+00  5.4584166842403E-01
56  5.5000000000000E-01 -2.5894959677391E-01  1.7933288072096E+00  5.7981218540659E-01
57  5.6000000000000E-01 -3.4010451323301E-01  1.8215965652146E+00  6.1641990092909E-01
58  5.7000000000000E-01 -4.1577664467777E-01  1.8392471187244E+00  6.5551343641429E-01
59  5.8000000000000E-01 -4.8536165004456E-01  1.8450764810289E+00  6.9691044874083E-01
60  5.9000000000000E-01 -5.4832736303618E-01  1.8380531312039E+00  7.4039951204774E-01
61  6.0000000000000E-01 -6.0422448625774E-01  1.8173515857787E+00  7.8574240478555E-01
62  6.1000000000000E-01 -6.5269562119172E-01  1.7823809085234E+00  8.3267676041335E-01
63  6.2000000000000E-01 -6.9348238505665E-01  1.7328073044153E+00  8.8091903334241E-01
64  6.3000000000000E-01 -7.2643041852072E-01  1.6685701182575E+00  9.3016772604434E-01
65  6.4000000000000E-01 -7.5149214677886E-01  1.5898907526156E+00  9.8010681881732E-01
66  6.5000000000000E-01 -7.6872721886390E-01  1.4972742276802E+00  1.0304093406527E+00
67  6.6000000000000E-01 -7.7830061434043E-01  1.3915033209193E+00  1.0807410180406E+00
68  6.7000000000000E-01 -7.8047847077655E-01  1.2736254403288E+00  1.1307639384398E+00
69  6.8000000000000E-01 -7.7562174766391E-01  1.1449325951311E+00  1.1801401665097E+00
70  6.9000000000000E-01 -7.6417790090631E-01  1.0069350255513E+00  1.2285352540243E+00
71  7.0000000000000E-01 -7.4667079488429E-01  8.6132923287391E-01  1.2756215885751E+00
72  7.1000000000000E-01 -7.2368912489817E-01  7.0996130705286E-01  1.3210815316044E+00
73  7.2000000000000E-01 -6.9587366018042E-01  5.5478657715940E-01  1.3646103028416E+00
74  7.3000000000000E-01 -6.6390364562251E-01  3.9782670629626E-01  1.4059185756468E+00
75  7.4000000000000E-01 -6.2848271815310E-01  2.4112541468696E-01  1.4447347558989E+00
76  7.5000000000000E-01 -5.9032470092710E-01  8.6704040952168E-02  1.4808069256568E+00
77  7.6000000000000E-01 -5.5013963507143E-01 -6.3481858245644E-02  1.5139044416241E+00
78  7.7000000000000E-01 -5.0862039494174E-01 -2.0758371522302E-01  1.5438191872116E+00
79  7.8000000000000E-01 -4.6643020925823E-01 -3.4389788873559E-01  1.5703664854581E+00
80  7.9000000000000E-01 -4.2419137798528E-01 -4.7089936504063E-01  1.5933856879877E+00
81  8.0000000000000E-01 -3.8247543453953E-01 -5.8727039198321E-01  1.6127404623306E+00
82  8.1000000000000E-01 -3.4179495622649E-01 -6.9192337406668E-01  1.6283188060922E+00
83  8.2000000000000E-01 -3.0259717425428E-01 -7.8401753211216E-01  1.6400328214512E+00
84  8.3000000000000E-01 -2.6525947992856E-01 -8.6296901820287E-01  1.6478182871526E+00
85  8.4000000000000E-01 -2.3008686742649E-01 -9.2845436926321E-01  1.6516340674314E+00
86  8.5000000000000E-01 -1.9731129763108E-01 -9.8040737486161E-01  1.6514613980995E+00
87  8.6000000000000E-01 -1.6709291357578E-01 -1.0190096208342E+00  1.6473030893322E+00
88  8.7000000000000E-01 -1.3952298770707E-01 -1.0446751445746E+00  1.6391826825464E+00
89  8.8000000000000E-01 -1.1462843586445E-01 -1.0580297953064E+00  1.6271435952371E+00
90  8.9000000000000E-01 -9.2377693855844E-02 -1.0598860289626E+00  1.6112482828776E+00
91  9.0000000000000E-01 -7.2687720794512E-02 -1.0512139788236E+00  1.5915774411497E+00
92  9.1000000000000E-01 -5.5431869716492E-02 -1.0331097270770E+00  1.5682292650734E+00
93  9.2000000000000E-01 -4.0448350900209E-02 -1.0067617571402E+00  1.5413187742935E+00
94  9.3000000000000E-01 -2.7549006951865E-02 -9.7341659110504E-01  1.5109772061245E+00
95  9.4000000000000E-01 -1.6528121012561E-02 -9.3434461114765E-01  1.4773514702513E+00
96  9.5000000000000E-01 -7.1709900117535E-03 -8.9080702928229E-01  1.4406036515334E+00
97  9.6000000000000E-01  7.3798687173277E-04 -8.4402490833362E-01  1.4009105404716E+00
98  9.7000000000000E-01  7.4079293275222E-03 -7.9515105119371E-01  1.3584631648797E+00
99  9.8000000000000E-01  1.3035000546478E-02 -7.4524546864429E-01  1.3134662914340E+00
100  9.9000000000000E-01  1.7796993832893E-02 -6.9525501214780E-01  1.2661378623383E+00
101  1.0000000000000E+00  2.1849100819730E-02 -6.4599762121355E-01  1.2167083305593E+00
102  1.0100000000000E+00  2.5320939995307E-02 -5.9815148956927E-01  1.1654198571715E+00
103  1.0200000000000E+00  2.8314882563657E-02 -5.5224930482143E-01  1.1125253364657E+00
104  1.0300000000000E+00  3.0905671442885E-02 -5.0867756679890E-01  1.0582872187083E+00
105  1.0400000000000E+00  3.3141289499488E-02 -4.6768084390984E-01  1.0029761068941E+00
106  1.0500000000000E+00  3.5044995990142E-02 -4.2937068833667E-01  9.4686911247972E-01
107  1.0600000000000E+00  3.6618416315505E-02 -3.9373880215792E-01  8.9024796589681E-01
108  1.0700000000000E+00  3.7845540112739E-02 -3.6067392942986E-01  8.3339689054146E-01
109  1.0800000000000E+00  3.8697456796085E-02 -3.2998184538228E-01  7.7660026372019E-01
110  1.0900000000000E+00  3.9137635773283E-02 -3.0140772286535E-01  7.2014010457834E-01
111  1.1000000000000E+00  3.9127540574761E-02 -2.7466007782060E-01  6.6429344704228E-01
112  1.1100000000000E+00  3.8632351415506E-02 -2.4943542794256E-01  6.0932967501863E-01
113  1.1200000000000E+00  3.7626558468710E-02 -2.2544273935386E-01  5.5550791723726E-01
114  1.1300000000000E+00  3.6099177351488E-02 -2.0242668192785E-01  5.0307461975728E-01
115  1.1400000000000E+00  3.4058327631295E-02 -1.8018866030062E-01  4.5226143509137E-01
116  1.1500000000000E+00  3.1534903221865E-02 -1.5860453051419E-01  4.0328358755198E-01
117  1.1600000000000E+00  2.8585048530770E-02 -1.3763784548950E-01  3.5633889466284E-01
118  1.1700000000000E+00  2.5291134639992E-02 -1.1734739145937E-01  3.1160764367880E-01
119  1.1800000000000E+00  2.1760903546572E-02 -9.7887675002585E-02  2.6925354029050E-01
120  1.1900000000000E+00  1.8124413980361E-02 -7.9500891377800E-02  2.2942596292118E-01
121  1.2000000000000E+00  1.4528377552561E-02 -6.2498742765488E-02  1.9226377043733E-01
122  1.2100000000000E+00  1.1127417036790E-02 -4.7232273384719E-02  1.5790092326559E-01
123  1.2200000000000E+00  8.0716455845068E-03 -3.4047454474404E-02  1.2647414973302E-01
124  1.2300000000000E+00  5.4904287662912E-03 -2.3225580101641E-02  9.8133259554392E-02
125  1.2400000000000E+00  3.4580263033142E-03 -1.4865196395813E-02  7.3045296057062E-02
126  1.2500000000000E+00  1.9007373350619E-03 -8.5849041156002E-03  5.1360841740599E-02
127  1.2600000000000E+00  8.1649373744480E-04 -4.2073616099997E-03  3.3314451010467E-02
128  1.2700000000000E+00  1.8631184305526E-04 -1.5398213031844E-03  1.9094011020298E-02
129  1.2800000000000E+00 -6.5060522244712E-05 -2.6225719509608E-04  8.8067986276069E-03
130  1.2900000000000E+00 -6.5955940495908E-05  6.4117811719836E-05  2.4562689123068E-03
131  1.3000000000000E+00 -3.9794077917106E-06  7.3389455645309E-06  7.7922881384305E-05
132  1.3100000000000E+00 -3.0599980265289E-07  5.3207224858040E-07  6.6600759676937E-06
133  1.3200000000000E+00  1.0130204009345E-07 -1.4287515170441E-07 -2.8664085226436E-06
134  1.33 -0.  0. -0.
135  1.34  0.  0.  0.
136  1.35  0.  0.  0.
137  1.36  0.  0.  0.
138  1.37  0.  0.  0.
139  1.38  0.  0.  0.
140  1.39  0.  0.  0.
141  1.40  0.  0.  0.
142  1.41  0.  0.  0.
143  1.42  0.  0.  0.
144  1.43  0.  0.  0.
145  1.44  0.  0.  0.
146  1.45  0.  0.  0.
147  1.46  0.  0.  0.
148  1.47  0.  0.  0.
149  1.48  0.  0.  0.
150  1.49  0.  0.  0.
151  1.50  0.  0.  0.
152  1.51  0.  0.  0.
153  1.52  0.  0.  0.
154  1.53  0.  0.  0.
155  1.54  0.  0.  0.
156  1.55  0.  0.  0.
157  1.56  0.  0.  0.
158  1.57  0.  0.  0.
159  1.58  0.  0.  0.
160  1.59  0.  0.  0.
161  1.60  0.  0.  0.
162  1.61  0.  0.  0.
163  1.62  0.  0.  0.
164  1.63  0.  0.  0.
165  1.64  0.  0.  0.
166  1.65  0.  0.  0.
167  1.66  0.  0.  0.
168  1.67  0.  0.  0.
169  1.68  0.  0.  0.
170  1.69  0.  0.  0.
171  1.70  0.  0.  0.
172  1.71  0.  0.  0.
173  1.72  0.  0.  0.
174  1.73  0.  0.  0.
175  1.74  0.  0.  0.
176  1.75  0.  0.  0.
177  1.76  0.  0.  0.
178  1.77  0.  0.  0.
179  1.78  0.  0.  0.
180  1.79  0.  0.  0.
181  1.80  0.  0.  0.
182  1.81  0.  0.  0.
183  1.82  0.  0.  0.
184  1.83  0.  0.  0.
185  1.84  0.  0.  0.
186  1.85  0.  0.  0.
187  1.86  0.  0.  0.
188  1.87  0.  0.  0.
189  1.88  0.  0.  0.
190  1.89  0.  0.  0.
191  1.90  0.  0.  0.
192  1.91  0.  0.  0.
193  1.92  0.  0.  0.
194  1.93  0.  0.  0.
195  1.94  0.  0.  0.
196  1.95  0.  0.  0.
197  1.96  0.  0.  0.
198  1.97  0.  0.  0.
199  1.98  0.  0.  0.
200  1.99  0.  0.  0.
201  2.00  0.  0.  0.
202  2.01  0.  0.  0.
203  2.02  0.  0.  0.
204  2.03  0.  0.  0.
205  2.04  0.  0.  0.
206  2.05  0.  0.  0.
207  2.06  0.  0.  0.
208  2.07  0.  0.  0.
209  2.08  0.  0.  0.
210  2.09  0.  0.  0.
211  2.10  0.  0.  0.
212  2.11  0.  0.  0.
213  2.12  0.  0.  0.
214  2.13  0.  0.  0.
215  2.14  0.  0.  0.
216  2.15  0.  0.  0.
217  2.16  0.  0.  0.
218  2.17  0.  0.  0.
219  2.18  0.  0.  0.
220  2.19  0.  0.  0.
221  2.20  0.  0.  0.
222  2.21  0.  0.  0.
223  2.22  0.  0.  0.
224  2.23  0.  0.  0.
225  2.24  0.  0.  0.
226  2.25  0.  0.  0.
227  2.26  0.  0.  0.
228  2.27  0.  0.  0.
229  2.28  0.  0.  0.
230  2.29  0.  0.  0.
231  2.30  0.  0.  0.
232  2.31  0.  0.  0.
233  2.32  0.  0.  0.
234  2.33  0.  0.  0.
235  2.34  0.  0.  0.
236  2.35  0.  0.  0.
237  2.36  0.  0.  0.
238  2.37  0.  0.  0.
239  2.38  0.  0.  0.
240  2.39  0.  0.  0.
241  2.40  0.  0.  0.
242  2.41  0.  0.  0.
243  2.42  0.  0.  0.
244  2.43  0.  0.  0.
245  2.44  0.  0.  0.
246  2.45  0.  0.  0.
247  2.46  0.  0.  0.
248  2.47  0.  0.  0.
249  2.48  0.  0.  0.
250  2.49  0.  0.  0.
251  2.50  0.  0.  0.
252  2.51  0.  0.  0.
253  2.52  0.  0.  0.
254  2.53  0.  0.  0.
255  2.54  0.  0.  0.
256  2.55  0.  0.  0.
257  2.56  0.  0.  0.
258  2.57  0.  0.  0.
259  2.58  0.  0.  0.
260  2.59  0.  0.  0.
261  2.60  0.  0.  0.
262  2.61  0.  0.  0.
263  2.62  0.  0.  0.
264  2.63  0.  0.  0.
265  2.64  0.  0.  0.
266  2.65  0.  0.  0.
267  2.66  0.  0.  0.
268  2.67  0.  0.  0.
269  2.68  0.  0.  0.
270  2.69  0.  0.  0.
271  2.70  0.  0.  0.
272  2.71  0.  0.  0.
273  2.72  0.  0.  0.
274  2.73  0.  0.  0.
275  2.74  0.  0.  0.
276  2.75  0.  0.  0.
277  2.76  0.  0.  0.
278  2.77  0.  0.  0.
279  2.78  0.  0.  0.
280  2.79  0.  0.  0.
281  2.80  0.  0.  0.
282  2.81  0.  0.  0.
283  2.82  0.  0.  0.
284  2.83  0.  0.  0.
285  2.84  0.  0.  0.
286  2.85  0.  0.  0.
287  2.86  0.  0.  0.
288  2.87  0.  0.  0.
289  2.88  0.  0.  0.
290  2.89  0.  0.  0.
291  2.90  0.  0.  0.
292  2.91  0.  0.  0.
293  2.92  0.  0.  0.
294  2.93  0.  0.  0.
295  2.94  0.  0.  0.
296  2.95  0.  0.  0.
297  2.96  0.  0.  0.
298  2.97  0.  0.  0.
299  2.98  0.  0.  0.
300  2.99  0.  0.  0.
301  3.00  0.  0.  0.
302  3.01  0.  0.  0.
303  3.02  0.  0.  0.
304  3.03  0.  0.  0.
305  3.04  0.  0.  0.
306  3.05  0.  0.  0.
307  3.06  0.  0.  0.
308  3.07  0.  0.  0.
309  3.08  0.  0.  0.
310  3.09  0.  0.  0.
311  3.10  0.  0.  0.
312  3.11  0.  0.  0.
313  3.12  0.  0.  0.
314  3.13  0.  0.  0.
315  3.14  0.  0.  0.
316  3.15  0.  0.  0.
317  3.16  0.  0.  0.
318  3.17  0.  0.  0.
319  3.18  0.  0.  0.
320  3.19  0.  0.  0.
321  3.20  0.  0.  0.
322  3.21  0.  0.  0.
323  3.22  0.  0.  0.
324  3.23  0.  0.  0.
325  3.24  0.  0.  0.
326  3.25  0.  0.  0.
327  3.26  0.  0.  0.
328  3.27  0.  0.  0.
329  3.28  0.  0.  0.
330  3.29  0.  0.  0.
331  3.30  0.  0.  0.
332  3.31  0.  0.  0.
333  3.32  0.  0.  0.
334  3.33  0.  0.  0.
335  3.34  0.  0.  0.
336  3.35  0.  0.  0.
337  3.36  0.  0.  0.
338  3.37  0.  0.  0.
339  3.38  0.  0.  0.
340  3.39  0.  0.  0.
341  3.40  0.  0.  0.
342  3.41  0.  0.  0.
343  3.42  0.  0.  0.
344  3.43  0.  0.  0.
345  3.44  0.  0.  0.
346  3.45  0.  0.  0.
347  3.46  0.  0.  0.
348  3.47  0.  0.  0.
349  3.48  0.  0.  0.
350  3.49  0.  0.  0.
351  3.50  0.  0.  0.
352  3.51  0.  0.  0.
353  3.52  0.  0.  0.
354  3.53  0.  0.  0.
355  3.54  0.  0.  0.
356  3.55  0.  0.  0.
357  3.56  0.  0.  0.
358  3.57  0.  0.  0.
359  3.58  0.  0.  0.
360  3.59  0.  0.  0.
361  3.60  0.  0.  0.
362  3.61  0.  0.  0.
363  3.62  0.  0.  0.
364  3.63  0.  0.  0.
365  3.64  0.  0.  0.
366  3.65  0.  0.  0.
367  3.66  0.  0.  0.
368  3.67  0.  0.  0.
369  3.68  0.  0.  0.
370  3.69  0.  0.  0.
371  3.70  0.  0.  0.
372  3.71  0.  0.  0.
373  3.72  0.  0.  0.
374  3.73  0.  0.  0.
375  3.74  0.  0.  0.
376  3.75  0.  0.  0.
377  3.76  0.  0.  0.
378  3.77  0.  0.  0.
379  3.78  0.  0.  0.
380  3.79  0.  0.  0.
381  3.80  0.  0.  0.
382  3.81  0.  0.  0.
383  3.82  0.  0.  0.
384  3.83  0.  0.  0.
385  3.84  0.  0.  0.
386  3.85  0.  0.  0.
387  3.86  0.  0.  0.
388  3.87  0.  0.  0.
389  3.88  0.  0.  0.
390  3.89  0.  0.  0.
391  3.90  0.  0.  0.
392  3.91  0.  0.  0.
393  3.92  0.  0.  0.
394  3.93  0.  0.  0.
395  3.94  0.  0.  0.
396  3.95  0.  0.  0.
397  3.96  0.  0.  0.
398  3.97  0.  0.  0.
399  3.98  0.  0.  0.
400  3.99  0.  0.  0.
401  4.00  0.  0.  0.
402  4.01  0.  0.  0.
403  4.02  0.  0.  0.
404  4.03  0.  0.  0.
405  4.04  0.  0.  0.
406  4.05  0.  0.  0.
407  4.06  0.  0.  0.
408  4.07  0.  0.  0.
409  4.08  0.  0.  0.
410  4.09  0.  0.  0.
411  4.10  0.  0.  0.
412  4.11  0.  0.  0.
413  4.12  0.  0.  0.
414  4.13  0.  0.  0.
415  4.14  0.  0.  0.
416  4.15  0.  0.  0.
417  4.16  0.  0.  0.
418  4.17  0.  0.  0.
419  4.18  0.  0.  0.
420  4.19  0.  0.  0.
421  4.20  0.  0.  0.
422  4.21  0.  0.  0.
423  4.22  0.  0.  0.
424  4.23  0.  0.  0.
425  4.24  0.  0.  0.
426  4.25  0.  0.  0.
427  4.26  0.  0.  0.
428  4.27  0.  0.  0.
429  4.28  0.  0.  0.
430  4.29  0.  0.  0.
431  4.30  0.  0.  0.
432  4.31  0.  0.  0.
433  4.32  0.  0.  0.
434  4.33  0.  0.  0.
435  4.34  0.  0.  0.
436  4.35  0.  0.  0.
437  4.36  0.  0.  0.
438  4.37  0.  0.  0.
439  4.38  0.  0.  0.
440  4.39  0.  0.  0.
441  4.40  0.  0.  0.
442  4.41  0.  0.  0.
443  4.42  0.  0.  0.
444  4.43  0.  0.  0.
445  4.44  0.  0.  0.
446  4.45  0.  0.  0.
447  4.46  0.  0.  0.
448  4.47  0.  0.  0.
449  4.48  0.  0.  0.
450  4.49  0.  0.  0.
451  4.50  0.  0.  0.
452  4.51  0.  0.  0.
453  4.52  0.  0.  0.
454  4.53  0.  0.  0.
455  4.54  0.  0.  0.
456  4.55  0.  0.  0.
457  4.56  0.  0.  0.
458  4.57  0.  0.  0.
459  4.58  0.  0.  0.
460  4.59  0.  0.  0.
461  4.60  0.  0.  0.
462  4.61  0.  0.  0.
463  4.62  0.  0.  0.
464  4.63  0.  0.  0.
465  4.64  0.  0.  0.
466  4.65  0.  0.  0.
467  4.66  0.  0.  0.
468  4.67  0.  0.  0.
469  4.68  0.  0.  0.
470  4.69  0.  0.  0.
471  4.70  0.  0.  0.
472  4.71  0.  0.  0.
473  4.72  0.  0.  0.
474  4.73  0.  0.  0.
475  4.74  0.  0.  0.
476  4.75  0.  0.  0.
477  4.76  0.  0.  0.
478  4.77  0.  0.  0.
479  4.78  0.  0.  0.
480  4.79  0.  0.  0.
481  4.80  0.  0.  0.
482  4.81  0.  0.  0.
483  4.82  0.  0.  0.
484  4.83  0.  0.  0.
485  4.84  0.  0.  0.
486  4.85  0.  0.  0.
487  4.86  0.  0.  0.
488  4.87  0.  0.  0.
489  4.88  0.  0.  0.
490  4.89  0.  0.  0.
491  4.90  0.  0.  0.
492  4.91  0.  0.  0.
493  4.92  0.  0.  0.
494  4.93  0.  0.  0.
495  4.94  0.  0.  0.
496  4.95  0.  0.  0.
497  4.96  0.  0.  0.
498  4.97  0.  0.  0.
499  4.98  0.  0.  0.
500  4.99  0.  0.  0.
501  5.00  0.  0.  0.
502  5.01  0.  0.  0.
503  5.02  0.  0.  0.
504  5.03  0.  0.  0.
505  5.04  0.  0.  0.
506  5.05  0.  0.  0.
507  5.06  0.  0.  0.
508  5.07  0.  0.  0.
509  5.08  0.  0.  0.
510  5.09  0.  0.  0.
511  5.10  0.  0.  0.
512  5.11  0.  0.  0.
513  5.12  0.  0.  0.
514  5.13  0.  0.  0.
515  5.14  0.  0.  0.
516  5.15  0.  0.  0.
517  5.16  0.  0.  0.
518  5.17  0.  0.  0.
519  5.18  0.  0.  0.
520  5.19  0.  0.  0.
521  5.20  0.  0.  0.
522  5.21  0.  0.  0.
523  5.22  0.  0.  0.
524  5.23  0.  0.  0.
525  5.24  0.  0.  0.
526  5.25  0.  0.  0.
527  5.26  0.  0.  0.
528  5.27  0.  0.  0.
529  5.28  0.  0.  0.
530  5.29  0.  0.  0.
531  5.30  0.  0.  0.
532  5.31  0.  0.  0.
533  5.32  0.  0.  0.
534  5.33  0.  0.  0.
535  5.34  0.  0.  0.
536  5.35  0.  0.  0.
537  5.36  0.  0.  0.
538  5.37  0.  0.  0.
539  5.38  0.  0.  0.
540  5.39  0.  0.  0.
541  5.40  0.  0.  0.
542  5.41  0.  0.  0.
543  5.42  0.  0.  0.
544  5.43  0.  0.  0.
545  5.44  0.  0.  0.
546  5.45  0.  0.  0.
547  5.46  0.  0.  0.
548  5.47  0.  0.  0.
549  5.48  0.  0.  0.
550  5.49  0.  0.  0.
551  5.50  0.  0.  0.
552  5.51  0.  0.  0.
553  5.52  0.  0.  0.
554  5.53  0.  0.  0.
555  5.54  0.  0.  0.
556  5.55  0.  0.  0.
557  5.56  0.  0.  0.
558  5.57  0.  0.  0.
559  5.58  0.  0.  0.
560  5.59  0.  0.  0.
561  5.60  0.  0.  0.
562  5.61  0.  0.  0.
563  5.62  0.  0.  0.
564  5.63  0.  0.  0.
565  5.64  0.  0.  0.
566  5.65  0.  0.  0.
567  5.66  0.  0.  0.
568  5.67  0.  0.  0.
569  5.68  0.  0.  0.
570  5.69  0.  0.  0.
571  5.70  0.  0.  0.
572  5.71  0.  0.  0.
573  5.72  0.  0.  0.
574  5.73  0.  0.  0.
575  5.74  0.  0.  0.
576  5.75  0.  0.  0.
577  5.76  0.  0.  0.
578  5.77  0.  0.  0.
579  5.78  0.  0.  0.
580  5.79  0.  0.  0.
581  5.80  0.  0.  0.
582  5.81  0.  0.  0.
583  5.82  0.  0.  0.
584  5.83  0.  0.  0.
585  5.84  0.  0.  0.
586  5.85  0.  0.  0.
587  5.86  0.  0.  0.
588  5.87  0.  0.  0.
589  5.88  0.  0.  0.
590  5.89  0.  0.  0.
591  5.90  0.  0.  0.
592  5.91  0.  0.  0.
593  5.92  0.  0.  0.
594  5.93  0.  0.  0.
595  5.94  0.  0.  0.
596  5.95  0.  0.  0.
597  5.96  0.  0.  0.
598  5.97  0.  0.  0.
599  5.98  0.  0.  0.
600  5.99  0.  0.  0.
1                         7.0952448183943E+00 -6.3246428323979E-01
1  0.0000000000000E+00 -6.5081088851393E-09 -1.8182957845989E-08
2  1.0000000000000E-02  2.9665513552331E-03  3.6751148144297E-05
3  2.0000000000000E-02  1.1850393501136E-02  1.5724245676635E-04
4  3.0000000000000E-02  2.6604057695002E-02  3.9182120215048E-04
5  4.0000000000000E-02  4.7148323875626E-02  7.8985703840194E-04
6  5.0000000000000E-02  7.3372077862571E-02  1.4179696218242E-03
7  6.0000000000000E-02  1.0513214174748E-01  2.3576286455557E-03
8  7.0000000000000E-02  1.4225310650867E-01  3.7022046325761E-03
9  8.0000000000000E-02  1.8452720238828E-01  5.5535670181498E-03
10  9.0000000000000E-02  2.3171424781389E-01  8.0183412550088E-03
11  1.0000000000000E-01  2.8354172142301E-01  1.1203948420114E-02
12  1.1000000000000E-01  3.3970500390250E-01  1.5214558715958E-02
13  1.2000000000000E-01  3.9986783677950E-01  2.0147094081159E-02
14  1.3000000000000E-01  4.6366304394110E-01  2.6087414717415E-02
15  1.4000000000000E-01  5.3069355851826E-01  3.3106819689907E-02
16  1.5000000000000E-01  6.0053379290201E-01  4.1258982983356E-02
17  1.6000000000000E-01  6.7273138317553E-01  5.0577433735986E-02
18  1.7000000000000E-01  7.4680933130846E-01  6.1073673188329E-02
19  1.8000000000000E-01  8.2226855927522E-01  7.2736001640488E-02
20  1.9000000000000E-01  8.9859087907946E-01  8.5529106973059E-02
21  2.0000000000000E-01  9.7524237177425E-01  9.9394442694773E-02
22  2.1000000000000E-01  1.0516771572724E+00  1.1425139873735E-01
23  2.2000000000000E-01  1.1273415253716E+00  1.2999924306748E-01
24  2.3000000000000E-01  1.2016783873090E+00  1.4651978738929E-01
25  2.4000000000000E-01  1.2741319966424E+00  1.6368070652656E-01
26  2.5000000000000E-01  1.3441528786537E+00  1.8133941923342E-01
27  2.6000000000000E-01  1.4112028990838E+00  1.9934741887084E-01
28  2.7000000000000E-01  1.4747603961072E+00  2.1755492621843E-01
29  2.8000000000000E-01  1.5343252942694E+00  2.3581572419526E-01
30  2.9000000000000E-01  1.5894241158326E+00  2.5399202586419E-01
31  3.0000000000000E-01  1.6396148037339E+00  2.7195922309798E-01
32  3.1000000000000E-01  1.6844912712330E+00  2.8961036387122E-01
33  3.2000000000000E-01  1.7236875963433E+00  3.0686021135413E-01
34  3.3000000000000E-01  1.7568817842471E+00  3.2364874773050E-01
35  3.4000000000000E-01  1.7837990279997E+00  3.3994399971210E-01
36  3.5000000000000E-01  1.8042144067722E+00  3.5574408071778E-01
37  3.6000000000000E-01  1.8179549714483E+00  3.7107836614340E-01
38  3.7000000000000E-01  1.8249011793269E+00  3.8600774247980E-01
39  3.8000000000000E-01  1.8249876526799E+00  4.0062389755467E-01
40  3.9000000000000E-01  1.8182032496421E+00  4.1504764712356E-01
41  4.0000000000000E-01  1.8045904500126E+00  4.2942632160433E-01
42  4.1000000000000E-01  1.7842440726428E+00  4.4393026509825E-01
43  4.2000000000000E-01  1.7573093548103E+00  4.5874852612499E-01
44  4.3000000000000E-01  1.7239794369575E+00  4.7408384489314E-01
45  4.4000000000000E-01  1.6844923080540E+00  4.9014706465143E-01
46  4.5000000000000E-01  1.6391272773159E+00  5.0715111400793E-01
47  4.6000000000000E-01  1.5882010467787E+00  5.2530472244162E-01
48  4.7000000000000E-01  1.5320634660618E+00  5.4480604205113E-01
49  4.8000000000000E-01  1.4710930553716E+00  5.6583635450411E-01
50  4.9000000000000E-01  1.4056923852699E+00  5.8855404292023E-01
51  5.0000000000000E-01  1.3362834019030E+00  6.1308900394449E-01
52  5.1000000000000E-01  1.2633027842656E+00  6.3953766560183E-01
53  5.2000000000000E-01  1.1871974157282E+00  6.6795876187936E-01
54  5.3000000000000E-01  1.1084200456260E+00  6.9836999572008E-01
55  5.4000000000000E-01  1.0274252083872E+00  7.3074569873423E-01
56  5.5000000000000E-01  9.4466545773016E-01  7.6501556907318E-01
57  5.6000000000000E-01  8.6058796217606E-01  8.0106453930875E-01
58  5.7000000000000E-01  7.7563149585428E-01  8.3873379465343E-01
59  5.8000000000000E-01  6.9022384569366E-01  8.7782292934685E-01
60  5.9000000000000E-01  6.0477964298503E-01  9.1809319646511E-01
61  6.0000000000000E-01  5.1969861436786E-01  9.5927177474288E-01
62  6.1000000000000E-01  4.3536423493172E-01  1.0010569461779E+00
63  6.2000000000000E-01  3.5214275470818E-01  1.0431240511182E+00
64  6.3000000000000E-01  2.7038255971199E-01  1.0851320640475E+00
65  6.4000000000000E-01  1.9041382017955E-01  1.1267306141214E+00
66  6.5000000000000E-01  1.1254837201163E-01  1.1675672602898E+00
67  6.6000000000000E-01  3.7079772857212E-02  1.2072948220404E+00
68  6.7000000000000E-01 -3.5716528082955E-02  1.2455785637539E+00
69  6.8000000000000E-01 -1.0558296753293E-01  1.2821030335158E+00
70  6.9000000000000E-01 -1.7227965169785E-01  1.3165783659778E+00
71  7.0000000000000E-01 -2.3558420029750E-01  1.3487458733061E+00
72  7.1000000000000E-01 -2.9529169901698E-01  1.3783827680254E+00
73  7.2000000000000E-01 -3.5121480001637E-01  1.4053058861484E+00
74  7.3000000000000E-01 -4.0318400027903E-01  1.4293743076726E+00
75  7.4000000000000E-01 -4.5104811648188E-01  1.4504908035342E+00
76  7.5000000000000E-01 -4.9467496311625E-01  1.4686020724991E+00
77  7.6000000000000E-01 -5.3395222817949E-01  1.4836977672432E+00
78  7.7000000000000E-01 -5.6878852832614E-01  1.4958083449668E+00
79  7.8000000000000E-01 -5.9911461334667E-01  1.5050018132209E+00
80  7.9000000000000E-01 -6.2488467866054E-01  1.5113794751194E+00
81  8.0000000000000E-01 -6.4607773457764E-01  1.5150708087462E+00
82  8.1000000000000E-01 -6.6269897277469E-01  1.5162276423743E+00
83  8.2000000000000E-01 -6.7478106407931E-01  1.5150178092458E+00
84  8.3000000000000E-01 -6.8238531752933E-01  1.5116184823968E+00
85  8.4000000000000E-01 -6.8560262898438E-01  1.5062094007683E+00
86  8.5000000000000E-01 -6.8455414844444E-01  1.4989662022374E+00
87  8.6000000000000E-01 -6.7939159872959E-01  1.4900540770195E+00
88  8.7000000000000E-01 -6.7029718426588E-01  1.4796219461138E+00
89  8.8000000000000E-01 -6.5748303729355E-01  1.4677973542837E+00
90  8.9000000000000E-01 -6.4119015966904E-01  1.4546822458568E+00
91  9.0000000000000E-01 -6.2168683130081E-01  1.4403497649705E+00
92  9.1000000000000E-01 -5.9926647079818E-01  1.4248421905144E+00
93  9.2000000000000E-01 -5.7424494971776E-01  1.4081700808377E+00
94  9.3000000000000E-01 -5.4695737840816E-01  1.3903126653082E+00
95  9.4000000000000E-01 -5.1775439838816E-01  1.3712194801759E+00
96  9.5000000000000E-01 -4.8699803292352E-01  1.3508132060926E+00
97  9.6000000000000E-01 -4.5505716347195E-01  1.3289936253064E+00
98  9.7000000000000E-01 -4.2230271441140E-01  1.3056425792338E+00
99  9.8000000000000E-01 -3.8910264145530E-01  1.2806297730039E+00
100  9.9000000000000E-01 -3.5581682991455E-01  1.2538192438250E+00
101  1.0000000000000E+00 -3.2279201707099E-01  1.2250762856713E+00
102  1.0100000000000E+00 -2.9035685801284E-01  1.1942746047491E+00
103  1.0200000000000E+00 -2.5881725605407E-01  1.1613034692535E+00
104  1.0300000000000E+00 -2.2845207711126E-01  1.1260746136370E+00
105  1.0400000000000E+00 -1.9950936199608E-01  1.0885286624084E+00
106  1.0500000000000E+00 -1.7220314147042E-01  1.0486408515610E+00
107  1.0600000000000E+00 -1.4671094616166E-01  1.0064258470665E+00
108  1.0700000000000E+00 -1.2317208713796E-01  9.6194148935159E-01
109  1.0800000000000E+00 -1.0168676340986E-01  9.1529132974146E-01
110  1.0900000000000E+00 -8.2316030050763E-02  8.6662586911924E-01
111  1.1000000000000E+00 -6.5082635481475E-02  8.1614245959421E-01
112  1.1100000000000E+00 -4.9972709152377E-02  7.6408388593889E-01
113  1.1200000000000E+00 -3.6938251813177E-02  7.1073570404956E-01
114  1.1300000000000E+00 -2.5900350474705E-02  6.5642247723914E-01
115  1.1400000000000E+00 -1.6753009343048E-02  6.0150311713174E-01