Rf    ONCVPSP-4.0.1  r_core=   1.15440   1.15440   1.15440   1.20376
104.0000     44.0000      220328    zatom,zion,pspd
8      11   3     4   600     0    pspcod,pspxc,lmax,lloc,mmax,r2well
5.99000000  3.80000000  0.00000000    rchrg fchrg qchrg
3     2     2     2     0    nproj
1     1           extension_switch
0                         1.7635205168160E+01 -4.8536601201863E+00  1.6126613095543E+00
1  0.0000000000000E+00 -1.3271904686363E-08 -9.3088037278477E-11 -2.3497607470890E-08
2  1.0000000000000E-02  1.7178980905031E-01  5.1831728066447E-02  4.8541130231301E-02
3  2.0000000000000E-02  3.4215787574645E-01  1.0359923477119E-01  9.6088713714816E-02
4  3.0000000000000E-02  5.0969730874302E-01  1.5523838927762E-01  1.4166535588139E-01
5  4.0000000000000E-02  6.7303071606618E-01  2.0668524089665E-01  1.8432567002512E-01
6  5.0000000000000E-02  8.3082445166181E-01  2.5787610692705E-01  2.2317154618301E-01
7  6.0000000000000E-02  9.8180226785207E-01  3.0874765788049E-01  2.5736655514102E-01
8  7.0000000000000E-02  1.1247581915988E+00  3.5923699932790E-01  2.8614922755013E-01
9  8.0000000000000E-02  1.2585684557447E+00  4.0928174969658E-01  3.0884497163358E-01
10  9.0000000000000E-02  1.3822023325199E+00  4.5882011346417E-01  3.2487642142350E-01
11  1.0000000000000E-01  1.4947317352658E+00  5.0779094933378E-01  3.3377204029395E-01
12  1.1000000000000E-01  1.5953394751756E+00  5.5613383313571E-01  3.3517284106556E-01
13  1.2000000000000E-01  1.6833260824941E+00  6.0378911538026E-01  3.2883712336514E-01
14  1.3000000000000E-01  1.7581151256153E+00  6.5069797358365E-01  3.1464317037736E-01
15  1.4000000000000E-01  1.8192569864010E+00  6.9680245969805E-01  2.9258988970559E-01
16  1.5000000000000E-01  1.8664310753291E+00  7.4204554319461E-01  2.6279542580934E-01
17  1.6000000000000E-01  1.8994464952711E+00  7.8637115056771E-01  2.2549381341415E-01
18  1.7000000000000E-01  1.9182411872869E+00  8.2972420224268E-01  1.8102978142019E-01
19  1.8000000000000E-01  1.9228796153262E+00  8.7205064806999E-01  1.2985185418835E-01
20  1.9000000000000E-01  1.9135490686682E+00  9.1329750276729E-01  7.2503930747863E-02
21  2.0000000000000E-01  1.8905546808637E+00  9.5341288281796E-01  9.6155515807139E-03
22  2.1000000000000E-01  1.8543132814893E+00  9.9234604644150E-01 -5.8108913547625E-02
23  2.2000000000000E-01  1.8053462118093E+00  1.0300474383085E+00 -1.2990190538527E-01
24  2.3000000000000E-01  1.7442712472084E+00  1.0664687406734E+00 -2.0494487987630E-01
25  2.4000000000000E-01  1.6717937777775E+00  1.1015629325347E+00 -2.8238081036381E-01
26  2.5000000000000E-01  1.5886974035736E+00  1.1352843583020E+00 -3.6132672228412E-01
27  2.6000000000000E-01  1.4958341027860E+00  1.1675888072448E+00 -4.4088600458744E-01
28  2.7000000000000E-01  1.3941141293466E+00  1.1984336047277E+00 -5.2016025809998E-01
29  2.8000000000000E-01  1.2844957915438E+00  1.2277777158955E+00 -5.9826046332805E-01
30  2.9000000000000E-01  1.1679752551494E+00  1.2555818620691E+00 -6.7431727817113E-01
31  3.0000000000000E-01  1.0455765037121E+00  1.2818086496614E+00 -7.4749030888746E-01
32  3.1000000000000E-01  9.1834157538738E-01  1.3064227109279E+00 -8.1697623447086E-01
33  3.2000000000000E-01  7.8732118037343E-01  1.3293908553494E+00 -8.8201570426056E-01
34  3.3000000000000E-01  6.5356578618889E-01  1.3506822299173E+00 -9.4189896990105E-01
35  3.4000000000000E-01  5.1811724018182E-01  1.3702684860803E+00 -9.9597025440772E-01
36  3.5000000000000E-01  3.8200098034320E-01  1.3881239506311E+00 -1.0436309017384E+00
37  3.6000000000000E-01  2.4621886727226E-01  1.4042257973812E+00 -1.0843413885885E+00
38  3.7000000000000E-01  1.1174265255027E-01  1.4185542161255E+00 -1.1176223148340E+00
39  3.8000000000000E-01 -2.0491917644406E-02  1.4310925751320E+00 -1.1430545189240E+00
40  3.9000000000000E-01 -1.4959037962402E-01  1.4418275732524E+00 -1.1602784885169E+00
41  4.0000000000000E-01 -2.7470423862356E-01  1.4507493777210E+00 -1.1689932538373E+00
42  4.1000000000000E-01 -3.9503510348116E-01  1.4578517438271E+00 -1.1689549609302E+00
43  4.2000000000000E-01 -5.0983831602230E-01  1.4631321129012E+00 -1.1599753237148E+00
44  4.3000000000000E-01 -6.1842612626591E-01  1.4665916854532E+00 -1.1419201473230E+00
45  4.4000000000000E-01 -7.2017046626261E-01  1.4682354668417E+00 -1.1147081006989E+00
46  4.5000000000000E-01 -8.1450537412464E-01  1.4680722835138E+00 -1.0783098942117E+00
47  4.6000000000000E-01 -9.0092911574598E-01  1.4661147686381E+00 -1.0327479887354E+00
48  4.7000000000000E-01 -9.7900604507154E-01  1.4623793168178E+00 -9.7809692717861E-01
49  4.8000000000000E-01 -1.0483682348921E+00  1.4568860085059E+00 -9.1448433898620E-01
50  4.9000000000000E-01 -1.1087168994303E+00  1.4496585057095E+00 -8.4209262403993E-01
51  5.0000000000000E-01 -1.1598236179367E+00  1.4407239215388E+00 -7.6116127622441E-01
52  5.1000000000000E-01 -1.2015313556805E+00  1.4301126670830E+00 -6.7198976038023E-01
53  5.2000000000000E-01 -1.2337552656829E+00  1.4178582799553E+00 -5.7494081119099E-01
54  5.3000000000000E-01 -1.2564832419167E+00  1.4039972395925E+00 -4.7044398052993E-01
55  5.4000000000000E-01 -1.2697761830672E+00  1.3885687749956E+00 -3.5899922264510E-01
56  5.5000000000000E-01 -1.2737679159231E+00  1.3716146710235E+00 -2.4118027592198E-01
57  5.6000000000000E-01 -1.2686647195453E+00  1.3531790795700E+00 -1.1763757727551E-01
58  5.7000000000000E-01 -1.2547443860304E+00  1.3333083419487E+00  1.0899568278012E-02
59  5.8000000000000E-01 -1.2323547513159E+00  1.3120508285710E+00  1.4362184368369E-01
60  5.9000000000000E-01 -1.2019116303437E+00  1.2894568015102E+00  2.7964007496356E-01
61  6.0000000000000E-01 -1.1638960951637E+00  1.2655783048219E+00  4.1798694036769E-01
62  6.1000000000000E-01 -1.1188510422749E+00  1.2404690865313E+00  5.5762045917719E-01
63  6.2000000000000E-01 -1.0673770065455E+00  1.2141845550399E+00  6.9742944597370E-01
64  6.3000000000000E-01 -1.0101271932400E+00  1.1867817713648E+00  8.3624106683362E-01
65  6.4000000000000E-01 -9.4780171662620E-01  1.1583194771515E+00  9.7283057624363E-01
66  6.5000000000000E-01 -8.8114105290026E-01  1.1288581568394E+00  1.1059332491598E+00
67  6.6000000000000E-01 -8.1091873617126E-01  1.0984601307588E+00  1.2342584534252E+00
68  6.7000000000000E-01 -7.3793334833180E-01  1.0671896743597E+00  1.3565057358435E+00
69  6.8000000000000E-01 -6.6299987609758E-01  1.0351131572697E+00  1.4713827228678E+00
70  6.9000000000000E-01 -5.8694053055995E-01  1.0022991945175E+00  1.5776245664893E+00
71  7.0000000000000E-01 -5.1057514549257E-01  9.6881880108873E-01  1.6740145998911E+00
72  7.1000000000000E-01 -4.3471128963123E-01  9.3474554005897E-01  1.7594058080841E+00
73  7.2000000000000E-01 -3.6013424449229E-01  9.0015565392431E-01  1.8327426682204E+00
74  7.3000000000000E-01 -2.8759701237524E-01  8.6512816844784E-01  1.8930828744729E+00
75  7.4000000000000E-01 -2.1781052846770E-01  8.2974495840014E-01  1.9396184348621E+00
76  7.5000000000000E-01 -1.5143425602801E-01  7.9409076499646E-01  1.9716956133548E+00
77  7.6000000000000E-01 -8.9067344189153E-02  7.5825315562547E-01  1.9888331906694E+00
78  7.7000000000000E-01 -3.1240523902359E-02  7.2232241760798E-01  1.9907385316910E+00
79  7.8000000000000E-01  2.1591091018942E-02  6.8639137918681E-01  1.9773209758940E+00
80  7.9000000000000E-01  6.9054143647521E-02  6.5055515268513E-01  1.9487021088104E+00
81  8.0000000000000E-01  1.1086197711393E-01  6.1491079671942E-01  1.9052225259557E+00
82  8.1000000000000E-01  1.4681826388155E-01  5.7955689644196E-01  1.8474447638180E+00
83  8.2000000000000E-01  1.7681922644462E-01  5.4459306293172E-01  1.7761521431699E+00
84  8.3000000000000E-01  2.0085437914808E-01  5.1011935496057E-01  1.6923433453337E+00
85  8.4000000000000E-01  2.1900574599888E-01  4.7623562833528E-01  1.5972226190855E+00
86  8.5000000000000E-01  2.3144553428789E-01  4.4304081975741E-01  1.4921855914141E+00
87  8.6000000000000E-01  2.3843226751975E-01  4.1063217355384E-01  1.3788007260570E+00
88  8.7000000000000E-01  2.4030540252152E-01  3.7910442062062E-01  1.2587865363840E+00
89  8.8000000000000E-01  2.3747847367544E-01  3.4854891940878E-01  1.1339847107305E+00
90  8.9000000000000E-01  2.3043082109887E-01  3.1905276869497E-01  1.0063293459371E+00
91  9.0000000000000E-01  2.1969796849550E-01  2.9069790116927E-01  8.7781250627405E-01
92  9.1000000000000E-01  2.0586071971425E-01  2.6356016550625E-01  7.5044632833496E-01
93  9.2000000000000E-01  1.8953304034718E-01  2.3770840255048E-01  6.2622187664134E-01
94  9.3000000000000E-01  1.7134878176630E-01  2.1320351856008E-01  5.0706491912511E-01
95  9.4000000000000E-01  1.5194728985689E-01  1.9009755514619E-01  3.9478873656180E-01
96  9.5000000000000E-01  1.3195791961148E-01  1.6843275168733E-01  2.9104400641246E-01
97  9.6000000000000E-01  1.1198345019181E-01  1.4824059166783E-01  1.9726571110588E-01
98  9.7000000000000E-01  9.2582363764897E-02  1.2954081969825E-01  1.1461691601235E-01
99  9.8000000000000E-01  7.4249916302172E-02  1.1234041104704E-01  4.3929146309685E-02
100  9.9000000000000E-01  5.7397884817633E-02  9.6632470157111E-02 -1.4361061555124E-02
101  1.0000000000000E+00  4.2332883390273E-02  8.2395032301507E-02 -6.0279746168070E-02
102  1.0100000000000E+00  2.9236533391631E-02  6.9589906442473E-02 -9.4369819315544E-02
103  1.0200000000000E+00  1.8184127727444E-02  5.8163720153380E-02 -1.1754848228024E-01
104  1.0300000000000E+00  9.1796688526178E-03  4.8051215143611E-02 -1.3090676877206E-01
105  1.0400000000000E+00  2.1648587802625E-03  3.9178010333460E-02 -1.3566270660758E-01
106  1.0500000000000E+00 -2.9739747013444E-03  3.1463212280671E-02 -1.3312931860163E-01
107  1.0600000000000E+00 -6.3982621045837E-03  2.4821941788860E-02 -1.2468183689652E-01
108  1.0700000000000E+00 -8.3091187560518E-03  1.9167741165448E-02 -1.1172475692650E-01
109  1.0800000000000E+00 -8.9390889112257E-03  1.4414829259783E-02 -9.5659586664780E-02
110  1.0900000000000E+00 -8.5439760156287E-03  1.0480151694910E-02 -7.7854128703882E-02
111  1.1000000000000E+00 -7.3976680180488E-03  7.2832667606758E-03 -5.9621822658788E-02
112  1.1100000000000E+00 -5.7971697301392E-03  4.7335303429458E-03 -4.2237393808707E-02
113  1.1200000000000E+00 -4.0018725952749E-03  2.7754267562713E-03 -2.6751547072281E-02
114  1.1300000000000E+00 -2.2736658944573E-03  1.3659314966612E-03 -1.4097946866935E-02
115  1.1400000000000E+00 -8.8116397820976E-04  4.6626745268607E-04 -5.1094297590496E-03
116  1.1500000000000E+00 -9.8495171308433E-05  4.6491312750963E-05 -5.3679976564759E-04
117  1.1600000000000E+00  4.7271433471587E-06 -2.0753427096950E-06  2.4832984248547E-05
118  1.1700000000000E+00  4.3218489417759E-07 -2.0900780525399E-07  2.3902532917275E-06
119  1.18 -0. -0. -0.
120  1.19  0.  0.  0.
121  1.20  0.  0.  0.
122  1.21  0.  0.  0.
123  1.22  0.  0.  0.
124  1.23  0.  0.  0.
125  1.24  0.  0.  0.
126  1.25  0.  0.  0.
127  1.26  0.  0.  0.
128  1.27  0.  0.  0.
129  1.28  0.  0.  0.
130  1.29  0.  0.  0.
131  1.30  0.  0.  0.
132  1.31  0.  0.  0.
133  1.32  0.  0.  0.
134  1.33  0.  0.  0.
135  1.34  0.  0.  0.
136  1.35  0.  0.  0.
137  1.36  0.  0.  0.
138  1.37  0.  0.  0.
139  1.38  0.  0.  0.
140  1.39  0.  0.  0.
141  1.40  0.  0.  0.
142  1.41  0.  0.  0.
143  1.42  0.  0.  0.
144  1.43  0.  0.  0.
145  1.44  0.  0.  0.
146  1.45  0.  0.  0.
147  1.46  0.  0.  0.
148  1.47  0.  0.  0.
149  1.48  0.  0.  0.
150  1.49  0.  0.  0.
151  1.50  0.  0.  0.
152  1.51  0.  0.  0.
153  1.52  0.  0.  0.
154  1.53  0.  0.  0.
155  1.54  0.  0.  0.
156  1.55  0.  0.  0.
157  1.56  0.  0.  0.
158  1.57  0.  0.  0.
159  1.58  0.  0.  0.
160  1.59  0.  0.  0.
161  1.60  0.  0.  0.
162  1.61  0.  0.  0.
163  1.62  0.  0.  0.
164  1.63  0.  0.  0.
165  1.64  0.  0.  0.
166  1.65  0.  0.  0.
167  1.66  0.  0.  0.
168  1.67  0.  0.  0.
169  1.68  0.  0.  0.
170  1.69  0.  0.  0.
171  1.70  0.  0.  0.
172  1.71  0.  0.  0.
173  1.72  0.  0.  0.
174  1.73  0.  0.  0.
175  1.74  0.  0.  0.
176  1.75  0.  0.  0.
177  1.76  0.  0.  0.
178  1.77  0.  0.  0.
179  1.78  0.  0.  0.
180  1.79  0.  0.  0.
181  1.80  0.  0.  0.
182  1.81  0.  0.  0.
183  1.82  0.  0.  0.
184  1.83  0.  0.  0.
185  1.84  0.  0.  0.
186  1.85  0.  0.  0.
187  1.86  0.  0.  0.
188  1.87  0.  0.  0.
189  1.88  0.  0.  0.
190  1.89  0.  0.  0.
191  1.90  0.  0.  0.
192  1.91  0.  0.  0.
193  1.92  0.  0.  0.
194  1.93  0.  0.  0.
195  1.94  0.  0.  0.
196  1.95  0.  0.  0.
197  1.96  0.  0.  0.
198  1.97  0.  0.  0.
199  1.98  0.  0.  0.
200  1.99  0.  0.  0.
201  2.00  0.  0.  0.
202  2.01  0.  0.  0.
203  2.02  0.  0.  0.
204  2.03  0.  0.  0.
205  2.04  0.  0.  0.
206  2.05  0.  0.  0.
207  2.06  0.  0.  0.
208  2.07  0.  0.  0.
209  2.08  0.  0.  0.
210  2.09  0.  0.  0.
211  2.10  0.  0.  0.
212  2.11  0.  0.  0.
213  2.12  0.  0.  0.
214  2.13  0.  0.  0.
215  2.14  0.  0.  0.
216  2.15  0.  0.  0.
217  2.16  0.  0.  0.
218  2.17  0.  0.  0.
219  2.18  0.  0.  0.
220  2.19  0.  0.  0.
221  2.20  0.  0.  0.
222  2.21  0.  0.  0.
223  2.22  0.  0.  0.
224  2.23  0.  0.  0.
225  2.24  0.  0.  0.
226  2.25  0.  0.  0.
227  2.26  0.  0.  0.
228  2.27  0.  0.  0.
229  2.28  0.  0.  0.
230  2.29  0.  0.  0.
231  2.30  0.  0.  0.
232  2.31  0.  0.  0.
233  2.32  0.  0.  0.
234  2.33  0.  0.  0.
235  2.34  0.  0.  0.
236  2.35  0.  0.  0.
237  2.36  0.  0.  0.
238  2.37  0.  0.  0.
239  2.38  0.  0.  0.
240  2.39  0.  0.  0.
241  2.40  0.  0.  0.
242  2.41  0.  0.  0.
243  2.42  0.  0.  0.
244  2.43  0.  0.  0.
245  2.44  0.  0.  0.
246  2.45  0.  0.  0.
247  2.46  0.  0.  0.
248  2.47  0.  0.  0.
249  2.48  0.  0.  0.
250  2.49  0.  0.  0.
251  2.50  0.  0.  0.
252  2.51  0.  0.  0.
253  2.52  0.  0.  0.
254  2.53  0.  0.  0.
255  2.54  0.  0.  0.
256  2.55  0.  0.  0.
257  2.56  0.  0.  0.
258  2.57  0.  0.  0.
259  2.58  0.  0.  0.
260  2.59  0.  0.  0.
261  2.60  0.  0.  0.
262  2.61  0.  0.  0.
263  2.62  0.  0.  0.
264  2.63  0.  0.  0.
265  2.64  0.  0.  0.
266  2.65  0.  0.  0.
267  2.66  0.  0.  0.
268  2.67  0.  0.  0.
269  2.68  0.  0.  0.
270  2.69  0.  0.  0.
271  2.70  0.  0.  0.
272  2.71  0.  0.  0.
273  2.72  0.  0.  0.
274  2.73  0.  0.  0.
275  2.74  0.  0.  0.
276  2.75  0.  0.  0.
277  2.76  0.  0.  0.
278  2.77  0.  0.  0.
279  2.78  0.  0.  0.
280  2.79  0.  0.  0.
281  2.80  0.  0.  0.
282  2.81  0.  0.  0.
283  2.82  0.  0.  0.
284  2.83  0.  0.  0.
285  2.84  0.  0.  0.
286  2.85  0.  0.  0.
287  2.86  0.  0.  0.
288  2.87  0.  0.  0.
289  2.88  0.  0.  0.
290  2.89  0.  0.  0.
291  2.90  0.  0.  0.
292  2.91  0.  0.  0.
293  2.92  0.  0.  0.
294  2.93  0.  0.  0.
295  2.94  0.  0.  0.
296  2.95  0.  0.  0.
297  2.96  0.  0.  0.
298  2.97  0.  0.  0.
299  2.98  0.  0.  0.
300  2.99  0.  0.  0.
301  3.00  0.  0.  0.
302  3.01  0.  0.  0.
303  3.02  0.  0.  0.
304  3.03  0.  0.  0.
305  3.04  0.  0.  0.
306  3.05  0.  0.  0.
307  3.06  0.  0.  0.
308  3.07  0.  0.  0.
309  3.08  0.  0.  0.
310  3.09  0.  0.  0.
311  3.10  0.  0.  0.
312  3.11  0.  0.  0.
313  3.12  0.  0.  0.
314  3.13  0.  0.  0.
315  3.14  0.  0.  0.
316  3.15  0.  0.  0.
317  3.16  0.  0.  0.
318  3.17  0.  0.  0.
319  3.18  0.  0.  0.
320  3.19  0.  0.  0.
321  3.20  0.  0.  0.
322  3.21  0.  0.  0.
323  3.22  0.  0.  0.
324  3.23  0.  0.  0.
325  3.24  0.  0.  0.
326  3.25  0.  0.  0.
327  3.26  0.  0.  0.
328  3.27  0.  0.  0.
329  3.28  0.  0.  0.
330  3.29  0.  0.  0.
331  3.30  0.  0.  0.
332  3.31  0.  0.  0.
333  3.32  0.  0.  0.
334  3.33  0.  0.  0.
335  3.34  0.  0.  0.
336  3.35  0.  0.  0.
337  3.36  0.  0.  0.
338  3.37  0.  0.  0.
339  3.38  0.  0.  0.
340  3.39  0.  0.  0.
341  3.40  0.  0.  0.
342  3.41  0.  0.  0.
343  3.42  0.  0.  0.
344  3.43  0.  0.  0.
345  3.44  0.  0.  0.
346  3.45  0.  0.  0.
347  3.46  0.  0.  0.
348  3.47  0.  0.  0.
349  3.48  0.  0.  0.
350  3.49  0.  0.  0.
351  3.50  0.  0.  0.
352  3.51  0.  0.  0.
353  3.52  0.  0.  0.
354  3.53  0.  0.  0.
355  3.54  0.  0.  0.
356  3.55  0.  0.  0.
357  3.56  0.  0.  0.
358  3.57  0.  0.  0.
359  3.58  0.  0.  0.
360  3.59  0.  0.  0.
361  3.60  0.  0.  0.
362  3.61  0.  0.  0.
363  3.62  0.  0.  0.
364  3.63  0.  0.  0.
365  3.64  0.  0.  0.
366  3.65  0.  0.  0.
367  3.66  0.  0.  0.
368  3.67  0.  0.  0.
369  3.68  0.  0.  0.
370  3.69  0.  0.  0.
371  3.70  0.  0.  0.
372  3.71  0.  0.  0.
373  3.72  0.  0.  0.
374  3.73  0.  0.  0.
375  3.74  0.  0.  0.
376  3.75  0.  0.  0.
377  3.76  0.  0.  0.
378  3.77  0.  0.  0.
379  3.78  0.  0.  0.
380  3.79  0.  0.  0.
381  3.80  0.  0.  0.
382  3.81  0.  0.  0.
383  3.82  0.  0.  0.
384  3.83  0.  0.  0.
385  3.84  0.  0.  0.
386  3.85  0.  0.  0.
387  3.86  0.  0.  0.
388  3.87  0.  0.  0.
389  3.88  0.  0.  0.
390  3.89  0.  0.  0.
391  3.90  0.  0.  0.
392  3.91  0.  0.  0.
393  3.92  0.  0.  0.
394  3.93  0.  0.  0.
395  3.94  0.  0.  0.
396  3.95  0.  0.  0.
397  3.96  0.  0.  0.
398  3.97  0.  0.  0.
399  3.98  0.  0.  0.
400  3.99  0.  0.  0.
401  4.00  0.  0.  0.
402  4.01  0.  0.  0.
403  4.02  0.  0.  0.
404  4.03  0.  0.  0.
405  4.04  0.  0.  0.
406  4.05  0.  0.  0.
407  4.06  0.  0.  0.
408  4.07  0.  0.  0.
409  4.08  0.  0.  0.
410  4.09  0.  0.  0.
411  4.10  0.  0.  0.
412  4.11  0.  0.  0.
413  4.12  0.  0.  0.
414  4.13  0.  0.  0.
415  4.14  0.  0.  0.
416  4.15  0.  0.  0.
417  4.16  0.  0.  0.
418  4.17  0.  0.  0.
419  4.18  0.  0.  0.
420  4.19  0.  0.  0.
421  4.20  0.  0.  0.
422  4.21  0.  0.  0.
423  4.22  0.  0.  0.
424  4.23  0.  0.  0.
425  4.24  0.  0.  0.
426  4.25  0.  0.  0.
427  4.26  0.  0.  0.
428  4.27  0.  0.  0.
429  4.28  0.  0.  0.
430  4.29  0.  0.  0.
431  4.30  0.  0.  0.
432  4.31  0.  0.  0.
433  4.32  0.  0.  0.
434  4.33  0.  0.  0.
435  4.34  0.  0.  0.
436  4.35  0.  0.  0.
437  4.36  0.  0.  0.
438  4.37  0.  0.  0.
439  4.38  0.  0.  0.
440  4.39  0.  0.  0.
441  4.40  0.  0.  0.
442  4.41  0.  0.  0.
443  4.42  0.  0.  0.
444  4.43  0.  0.  0.
445  4.44  0.  0.  0.
446  4.45  0.  0.  0.
447  4.46  0.  0.  0.
448  4.47  0.  0.  0.
449  4.48  0.  0.  0.
450  4.49  0.  0.  0.
451  4.50  0.  0.  0.
452  4.51  0.  0.  0.
453  4.52  0.  0.  0.
454  4.53  0.  0.  0.
455  4.54  0.  0.  0.
456  4.55  0.  0.  0.
457  4.56  0.  0.  0.
458  4.57  0.  0.  0.
459  4.58  0.  0.  0.
460  4.59  0.  0.  0.
461  4.60  0.  0.  0.
462  4.61  0.  0.  0.
463  4.62  0.  0.  0.
464  4.63  0.  0.  0.
465  4.64  0.  0.  0.
466  4.65  0.  0.  0.
467  4.66  0.  0.  0.
468  4.67  0.  0.  0.
469  4.68  0.  0.  0.
470  4.69  0.  0.  0.
471  4.70  0.  0.  0.
472  4.71  0.  0.  0.
473  4.72  0.  0.  0.
474  4.73  0.  0.  0.
475  4.74  0.  0.  0.
476  4.75  0.  0.  0.
477  4.76  0.  0.  0.
478  4.77  0.  0.  0.
479  4.78  0.  0.  0.
480  4.79  0.  0.  0.
481  4.80  0.  0.  0.
482  4.81  0.  0.  0.
483  4.82  0.  0.  0.
484  4.83  0.  0.  0.
485  4.84  0.  0.  0.
486  4.85  0.  0.  0.
487  4.86  0.  0.  0.
488  4.87  0.  0.  0.
489  4.88  0.  0.  0.
490  4.89  0.  0.  0.
491  4.90  0.  0.  0.
492  4.91  0.  0.  0.
493  4.92  0.  0.  0.
494  4.93  0.  0.  0.
495  4.94  0.  0.  0.
496  4.95  0.  0.  0.
497  4.96  0.  0.  0.
498  4.97  0.  0.  0.
499  4.98  0.  0.  0.
500  4.99  0.  0.  0.
501  5.00  0.  0.  0.
502  5.01  0.  0.  0.
503  5.02  0.  0.  0.
504  5.03  0.  0.  0.
505  5.04  0.  0.  0.
506  5.05  0.  0.  0.
507  5.06  0.  0.  0.
508  5.07  0.  0.  0.
509  5.08  0.  0.  0.
510  5.09  0.  0.  0.
511  5.10  0.  0.  0.
512  5.11  0.  0.  0.
513  5.12  0.  0.  0.
514  5.13  0.  0.  0.
515  5.14  0.  0.  0.
516  5.15  0.  0.  0.
517  5.16  0.  0.  0.
518  5.17  0.  0.  0.
519  5.18  0.  0.  0.
520  5.19  0.  0.  0.
521  5.20  0.  0.  0.
522  5.21  0.  0.  0.
523  5.22  0.  0.  0.
524  5.23  0.  0.  0.
525  5.24  0.  0.  0.
526  5.25  0.  0.  0.
527  5.26  0.  0.  0.
528  5.27  0.  0.  0.
529  5.28  0.  0.  0.
530  5.29  0.  0.  0.
531  5.30  0.  0.  0.
532  5.31  0.  0.  0.
533  5.32  0.  0.  0.
534  5.33  0.  0.  0.
535  5.34  0.  0.  0.
536  5.35  0.  0.  0.
537  5.36  0.  0.  0.
538  5.37  0.  0.  0.
539  5.38  0.  0.  0.
540  5.39  0.  0.  0.
541  5.40  0.  0.  0.
542  5.41  0.  0.  0.
543  5.42  0.  0.  0.
544  5.43  0.  0.  0.
545  5.44  0.  0.  0.
546  5.45  0.  0.  0.
547  5.46  0.  0.  0.
548  5.47  0.  0.  0.
549  5.48  0.  0.  0.
550  5.49  0.  0.  0.
551  5.50  0.  0.  0.
552  5.51  0.  0.  0.
553  5.52  0.  0.  0.
554  5.53  0.  0.  0.
555  5.54  0.  0.  0.
556  5.55  0.  0.  0.
557  5.56  0.  0.  0.
558  5.57  0.  0.  0.
559  5.58  0.  0.  0.
560  5.59  0.  0.  0.
561  5.60  0.  0.  0.
562  5.61  0.  0.  0.
563  5.62  0.  0.  0.
564  5.63  0.  0.  0.
565  5.64  0.  0.  0.
566  5.65  0.  0.  0.
567  5.66  0.  0.  0.
568  5.67  0.  0.  0.
569  5.68  0.  0.  0.
570  5.69  0.  0.  0.
571  5.70  0.  0.  0.
572  5.71  0.  0.  0.
573  5.72  0.  0.  0.
574  5.73  0.  0.  0.
575  5.74  0.  0.  0.
576  5.75  0.  0.  0.
577  5.76  0.  0.  0.
578  5.77  0.  0.  0.
579  5.78  0.  0.  0.
580  5.79  0.  0.  0.
581  5.80  0.  0.  0.
582  5.81  0.  0.  0.
583  5.82  0.  0.  0.
584  5.83  0.  0.  0.
585  5.84  0.  0.  0.
586  5.85  0.  0.  0.
587  5.86  0.  0.  0.
588  5.87  0.  0.  0.
589  5.88  0.  0.  0.
590  5.89  0.  0.  0.
591  5.90  0.  0.  0.
592  5.91  0.  0.  0.
593  5.92  0.  0.  0.
594  5.93  0.  0.  0.
595  5.94  0.  0.  0.
596  5.95  0.  0.  0.
597  5.96  0.  0.  0.
598  5.97  0.  0.  0.
599  5.98  0.  0.  0.
600  5.99  0.  0.  0.
1                        -3.9918318240317E+00  3.5807030113436E+00
1  0.0000000000000E+00  5.3619068074440E-09  6.7373517043112E-09
2  1.0000000000000E-02  2.1659927449381E-03 -3.7670947674172E-03
3  2.0000000000000E-02  8.6479493622171E-03 -1.5035725191181E-02
4  3.0000000000000E-02  1.9397993995341E-02 -3.3708046177099E-02
5  4.0000000000000E-02  3.4336960269745E-02 -5.9621376833343E-02
6  5.0000000000000E-02  5.3355320012156E-02 -9.2548811828523E-02
7  6.0000000000000E-02  7.6314461009291E-02 -1.3220011607577E-01
8  7.0000000000000E-02  1.0304829198310E-01 -1.7822293891969E-01
9  8.0000000000000E-02  1.3336514759791E-01 -2.3020439074034E-01
10  9.0000000000000E-02  1.6704996157209E-01 -2.8767302913750E-01
11  1.0000000000000E-01  2.0386667194360E-01 -3.5010130329108E-01
12  1.1000000000000E-01  2.4356081931371E-01 -4.1690850350019E-01
13  1.2000000000000E-01  2.8586229652279E-01 -4.8746425820487E-01
14  1.3000000000000E-01  3.3048820672948E-01 -5.6109261304579E-01
15  1.4000000000000E-01  3.7714578627773E-01 -6.3707671590430E-01
16  1.5000000000000E-01  4.2553534902971E-01 -7.1466411870239E-01
17  1.6000000000000E-01  4.7535320997812E-01 -7.9307269145623E-01
18  1.7000000000000E-01  5.2629454787078E-01 -8.7149712719350E-01
19  1.8000000000000E-01  5.7805616920376E-01 -9.4911599846894E-01
20  1.9000000000000E-01  6.3033913917702E-01 -1.0250993080007E+00
21  2.0000000000000E-01  6.8285124895046E-01 -1.0986164580910E+00
22  2.1000000000000E-01  7.3530929267809E-01 -1.1688445466764E+00
23  2.2000000000000E-01  7.8744113221464E-01 -1.2349768827417E+00
24  2.3000000000000E-01  8.3898753196518E-01 -1.2962316010363E+00
25  2.4000000000000E-01  8.8970375096940E-01 -1.3518602460974E+00
26  2.5000000000000E-01  9.3936088387003E-01 -1.4011561889451E+00
27  2.6000000000000E-01  9.8774694681109E-01 -1.4434627368019E+00
28  2.7000000000000E-01  1.0346677084601E+00 -1.4781807970036E+00
29  2.8000000000000E-01  1.0799472701772E+00 -1.5047759609709E+00
30  2.9000000000000E-01  1.1234284028062E+00 -1.5227848826337E+00
31  3.0000000000000E-01  1.1649726506008E+00 -1.5318208378219E+00
32  3.1000000000000E-01  1.2044602153941E+00 -1.5315783665279E+00
33  3.2000000000000E-01  1.2417896362698E+00 -1.5218369181437E+00
34  3.3000000000000E-01  1.2768772817036E+00 -1.5024634402194E+00
35  3.4000000000000E-01  1.3096566724290E+00 -1.4734138733446E+00
36  3.5000000000000E-01  1.3400776541830E+00 -1.4347335377277E+00
37  3.6000000000000E-01  1.3681054400347E+00 -1.3865564201992E+00
38  3.7000000000000E-01  1.3937195422453E+00 -1.3291033929822E+00
39  3.8000000000000E-01  1.4169126135984E+00 -1.2626794169201E+00
40  3.9000000000000E-01  1.4376892179242E+00 -1.1876698012911E+00
41  4.0000000000000E-01  1.4560645491676E+00 -1.1045356092546E+00
42  4.1000000000000E-01  1.4720631178677E+00 -1.0138083118804E+00
43  4.2000000000000E-01  1.4857174233480E+00 -9.1608380421810E-01
44  4.3000000000000E-01  1.4970666293142E+00 -8.1201590369381E-01
45  4.4000000000000E-01  1.5061552599155E+00 -7.0230945416078E-01
46  4.5000000000000E-01  1.5130319326796E+00 -5.8771315816824E-01
47  4.6000000000000E-01  1.5177481440624E+00 -4.6901225560639E-01
48  4.7000000000000E-01  1.5203571226723E+00 -3.4702115910115E-01
49  4.8000000000000E-01  1.5209127644988E+00 -2.2257614577146E-01
50  4.9000000000000E-01  1.5194686636910E+00 -9.6528191724693E-02
51  5.0000000000000E-01  1.5160772515492E+00  3.0263979455301E-02
52  5.1000000000000E-01  1.5107890553926E+00  1.5694057932399E-01
53  5.2000000000000E-01  1.5036520878020E+00  2.8264713027408E-01
54  5.3000000000000E-01  1.4947113753886E+00  4.0654051299491E-01
55  5.4000000000000E-01  1.4840086346697E+00  5.2779468019208E-01
56  5.5000000000000E-01  1.4715821008260E+00  6.4560604534004E-01
57  5.6000000000000E-01  1.4574665130531E+00  7.5919856736996E-01
58  5.7000000000000E-01  1.4416932579017E+00  8.6782856166641E-01
59  5.8000000000000E-01  1.4242906694397E+00  9.7078927415326E-01
60  5.9000000000000E-01  1.4052844822740E+00  1.0674152583082E+00
61  6.0000000000000E-01  1.3846984304942E+00  1.1570865945100E+00
62  6.1000000000000E-01  1.3625549824766E+00  1.2392329871880E+00
63  6.2000000000000E-01  1.3388761982881E+00  1.3133377679546E+00
64  6.3000000000000E-01  1.3136846932254E+00  1.3789418225423E+00
65  6.4000000000000E-01  1.2870046879028E+00  1.4356474463565E+00
66  6.5000000000000E-01  1.2588631223476E+00  1.4831221183457E+00
67  6.6000000000000E-01  1.2292908088862E+00  1.5211021663169E+00
68  6.7000000000000E-01  1.1983235962882E+00  1.5493962795269E+00
69  6.8000000000000E-01  1.1660035157951E+00  1.5678888071383E+00
70  6.9000000000000E-01  1.1323798783751E+00  1.5765427647632E+00
71  7.0000000000000E-01  1.0975102919068E+00  1.5754024566248E+00
72  7.1000000000000E-01  1.0614615670662E+00  1.5645956086467E+00
73  7.2000000000000E-01  1.0243104815337E+00  1.5443348987154E+00
74  7.3000000000000E-01  9.8614437378119E-01  1.5149187650955E+00
75  7.4000000000000E-01  9.4706154015589E-01  1.4767313729851E+00
76  7.5000000000000E-01  9.0717141223517E-01  1.4302416228391E+00
77  7.6000000000000E-01  8.6659449544717E-01  1.3760010925432E+00
78  7.7000000000000E-01  8.2546205466755E-01  1.3146408187908E+00
79  7.8000000000000E-01  7.8391553782361E-01  1.2468668409192E+00
80  7.9000000000000E-01  7.4210573434577E-01  1.1734544526377E+00
81  8.0000000000000E-01  7.0019167146216E-01  1.0952411329596E+00
82  8.1000000000000E-01  6.5833925767700E-01  1.0131181565283E+00
83  8.2000000000000E-01  6.1671968913080E-01  9.2802091452552E-01
84  8.3000000000000E-01  5.7550764072555E-01  8.4091800947164E-01
85  8.4000000000000E-01  5.3487926971870E-01  7.5279921939217E-01
86  8.5000000000000E-01  4.9501006475699E-01  6.6466245788847E-01
87  8.6000000000000E-01  4.5607257784963E-01  5.7749988545607E-01
88  8.7000000000000E-01  4.1823408040390E-01  4.9228335281513E-01
89  8.8000000000000E-01  3.8165418701227E-01  4.0994937799622E-01
90  8.9000000000000E-01  3.4648249206905E-01  3.3138387451664E-01
91  9.0000000000000E-01  3.1285626441295E-01  2.5740685739701E-01
92  9.1000000000000E-01  2.8089824398678E-01  1.8875735640744E-01
93  9.2000000000000E-01  2.5071458196202E-01  1.2607876141145E-01
94  9.3000000000000E-01  2.2239296192206E-01  6.9904812862795E-02
95  9.4000000000000E-01  1.9600093460536E-01  2.0646431518229E-02
96  9.5000000000000E-01  1.7158449249467E-01 -2.1420444344608E-02
97  9.6000000000000E-01  1.4916690335412E-01 -5.6165877841566E-02
98  9.7000000000000E-01  1.2874781385695E-01 -8.3615709341624E-02
99  9.8000000000000E-01  1.1030262593798E-01 -1.0396003140595E-01
100  9.9000000000000E-01  9.3782139143337E-02 -1.1756035912098E-01
101  1.0000000000000E+00  7.9112447842436E-02 -1.2495545732023E-01
102  1.0100000000000E+00  6.6195382101994E-02 -1.2685965992984E-01
103  1.0200000000000E+00  5.4912985892725E-02 -1.2409280740581E-01
104  1.0300000000000E+00  4.5134546016365E-02 -1.1749861135800E-01
105  1.0400000000000E+00  3.6721677453687E-02 -1.0792169486029E-01
106  1.0500000000000E+00  2.9533054220028E-02 -9.6190672117309E-02
107  1.0600000000000E+00  2.3428967891540E-02 -8.3101593814280E-02
108  1.0700000000000E+00  1.8275655650358E-02 -6.9401959494485E-02
109  1.0800000000000E+00  1.3949336907792E-02 -5.5775599163111E-02
110  1.0900000000000E+00  1.0339904959173E-02 -4.2828608732911E-02
111  1.1000000000000E+00  7.3552499417786E-03 -3.1066385355025E-02
112  1.1100000000000E+00  4.9299865625257E-03 -2.0809268054338E-02
113  1.1200000000000E+00  3.0059614247799E-03 -1.2413367675149E-02
114  1.1300000000000E+00  1.5497414740857E-03 -6.1333774965683E-03
115  1.1400000000000E+00  5.5759992654733E-04 -2.0726368396939E-03
116  1.1500000000000E+00  5.8943544826282E-05 -2.0140372127641E-04
117  1.1600000000000E+00 -2.7362826144883E-06  8.8291980325261E-06
118  1.1700000000000E+00 -2.6133252819921E-07  9.1372213757597E-07
119  1.18  0.  0.
120  1.19  0.  0.
121  1.20  0.  0.
122  1.21  0.  0.
123  1.22  0.  0.
124  1.23  0.  0.
125  1.24  0.  0.
126  1.25  0.  0.
127  1.26  0.  0.
128  1.27  0.  0.
129  1.28  0.  0.
130  1.29  0.  0.
131  1.30  0.  0.
132  1.31  0.  0.
133  1.32  0.  0.
134  1.33  0.  0.
135  1.34  0.  0.
136  1.35  0.  0.
137  1.36  0.  0.
138  1.37  0.  0.
139  1.38  0.  0.
140  1.39  0.  0.
141  1.40  0.  0.
142  1.41  0.  0.
143  1.42  0.  0.
144  1.43  0.  0.
145  1.44  0.  0.
146  1.45  0.  0.
147  1.46  0.  0.
148  1.47  0.  0.
149  1.48  0.  0.
150  1.49  0.  0.
151  1.50  0.  0.
152  1.51  0.  0.
153  1.52  0.  0.
154  1.53  0.  0.
155  1.54  0.  0.
156  1.55  0.  0.
157  1.56  0.  0.
158  1.57  0.  0.
159  1.58  0.  0.
160  1.59  0.  0.
161  1.60  0.  0.
162  1.61  0.  0.
163  1.62  0.  0.
164  1.63  0.  0.
165  1.64  0.  0.