Rf    ONCVPSP-4.0.1  r_core=   1.10045   1.10045   1.10045   1.20376
104.0000     44.0000      220328    zatom,zion,pspd
8      11   3     4   600     0    pspcod,pspxc,lmax,lloc,mmax,r2well
5.99000000  3.80000000  0.00000000    rchrg fchrg qchrg
3     2     2     2     0    nproj
1     1           extension_switch
0                         2.0442957102456E+01 -4.9198540783006E+00  1.5717011626724E+00
1  0.0000000000000E+00 -5.1627885966354E-08 -6.8093941041347E-09 -1.7474661889727E-07
2  1.0000000000000E-02  1.8545135508348E-01  4.6534889495670E-02  6.5078793465326E-02
3  2.0000000000000E-02  3.6919818711779E-01  9.3015229486621E-02  1.2846725207991E-01
4  3.0000000000000E-02  5.4955888058186E-01  1.3938746156701E-01  1.8851794492354E-01
5  4.0000000000000E-02  7.2489715449033E-01  1.8559996374637E-01  2.4366790300362E-01
6  5.0000000000000E-02  8.9364354246933E-01  2.3160390608859E-01  2.9247753353235E-01
7  6.0000000000000E-02  1.0543154872154E+00  2.7735397647693E-01  3.3366568716529E-01
8  7.0000000000000E-02  1.2055356510304E+00  3.2280894167018E-01  3.6613981208734E-01
9  8.0000000000000E-02  1.3460480957532E+00  3.6793201562463E-01  3.8902030357884E-01
10  9.0000000000000E-02  1.4747320465006E+00  4.1269101504015E-01  4.0165836337338E-01
11  1.0000000000000E-01  1.5906130220821E+00  4.5705829092718E-01  4.0364691197148E-01
12  1.1000000000000E-01  1.6928711884262E+00  5.0101043432964E-01  3.9482434049089E-01
13  1.2000000000000E-01  1.7808468673632E+00  5.4452776380286E-01  3.7527113749012E-01
14  1.3000000000000E-01  1.8540432090919E+00  5.8759361145694E-01  3.4529967121784E-01
15  1.4000000000000E-01  1.9121261101201E+00  6.3019343296552E-01  3.0543763982797E-01
16  1.5000000000000E-01  1.9549215270133E+00  6.7231377456439E-01  2.5640591272729E-01
17  1.6000000000000E-01  1.9824103977495E+00  7.1394113641872E-01  1.9909166772179E-01
18  1.7000000000000E-01  1.9947214349847E+00  7.5506077656782E-01  1.3451787450292E-01
19  1.8000000000000E-01  1.9921220975529E+00  7.9565550276888E-01  6.3810280166921E-02
20  1.9000000000000E-01  1.9750080769490E+00  8.3570450082998E-01 -1.1836886613961E-02
21  2.0000000000000E-01  1.9438916536952E+00  8.7518224739600E-01 -9.1195261247266E-02
22  2.1000000000000E-01  1.8993892841509E+00  9.1405755265045E-01 -1.7303553832602E-01
23  2.2000000000000E-01  1.8422087717438E+00  9.5229277411645E-01 -2.5615839127979E-01
24  2.3000000000000E-01  1.7731363584527E+00  9.8984323684731E-01 -3.3942210806492E-01
25  2.4000000000000E-01  1.6930240437508E+00  1.0266568880166E+00 -4.2176608680528E-01
26  2.5000000000000E-01  1.6027774005702E+00  1.0626742055316E+00 -5.0222951748587E-01
27  2.6000000000000E-01  1.5033441129155E+00  1.0978283711241E+00 -5.7996478046527E-01
28  2.7000000000000E-01  1.3957034095040E+00  1.1320457087696E+00 -6.5424531163194E-01
29  2.8000000000000E-01  1.2808565143516E+00  1.1652463796203E+00 -7.2446790893201E-01
30  2.9000000000000E-01  1.1598181807318E+00  1.1973453152729E+00 -7.9014967708226E-01
31  3.0000000000000E-01  1.0336093215615E+00  1.2282533624879E+00 -8.5092001807498E-01
32  3.1000000000000E-01  9.0325069905944E-01  1.2578786047590E+00 -9.0650826663457E-01
33  3.2000000000000E-01  7.6975759135273E-01  1.2861278196902E+00 -9.5672773497574E-01
34  3.3000000000000E-01  6.3413531519398E-01  1.3129080262099E+00 -1.0014570639739E+00
35  3.4000000000000E-01  4.9737545342744E-01  1.3381280724253E+00 -1.0406198734475E+00
36  3.5000000000000E-01  3.6045261427045E-01  1.3617002134971E+00 -1.0741637593571E+00
37  3.6000000000000E-01  2.2432153746977E-01  1.3835416293585E+00 -1.1020396986169E+00
38  3.7000000000000E-01  8.9914360151042E-02  1.4035758343747E+00 -1.1241828927662E+00
39  3.8000000000000E-01 -4.1862137472960E-02  1.4217339350566E+00 -1.1404960114469E+00
40  3.9000000000000E-01 -1.7012946998742E-01  1.4379556975446E+00 -1.1508356884474E+00
41  4.0000000000000E-01 -2.9404070720019E-01  1.4521903935521E+00 -1.1550029814445E+00
42  4.1000000000000E-01 -4.1278416461869E-01  1.4643974015365E+00 -1.1527383370549E+00
43  4.2000000000000E-01 -5.2558759460479E-01  1.4745465487461E+00 -1.1437214120517E+00
44  4.3000000000000E-01 -6.3172290813686E-01  1.4826181891433E+00 -1.1275758969097E+00
45  4.4000000000000E-01 -7.3051141438971E-01  1.4886030216773E+00 -1.1038792770437E+00
46  4.5000000000000E-01 -8.2132952243762E-01  1.4925016626302E+00 -1.0721772581558E+00
47  4.6000000000000E-01 -9.0361480811757E-01  1.4943239944414E+00 -1.0320023828631E+00
48  4.7000000000000E-01 -9.7687231119972E-01  1.4940883212229E+00 -9.8289618367661E-01
49  4.8000000000000E-01 -1.0406808950973E+00  1.4918203678179E+00 -9.2443405921917E-01
50  4.9000000000000E-01 -1.0946994747928E+00  1.4875521644990E+00 -8.5625193214814E-01
51  5.0000000000000E-01 -1.1386728996048E+00  1.4813208630649E+00 -7.7807365334974E-01
52  5.1000000000000E-01 -1.1724372667044E+00  1.4731675320410E+00 -6.8973806105878E-01
53  5.2000000000000E-01 -1.1959244394410E+00  1.4631359788674E+00 -5.9122458771106E-01
54  5.3000000000000E-01 -1.2091655517336E+00  1.4512716453640E+00 -4.8267633221789E-01
55  5.4000000000000E-01 -1.2122932958742E+00  1.4376206194546E+00 -3.6441958011828E-01
56  5.5000000000000E-01 -1.2055428155854E+00  1.4222288012532E+00 -2.3697885650411E-01
57  5.6000000000000E-01 -1.1892510582784E+00  1.4051412553295E+00 -1.0108673314893E-01
58  5.7000000000000E-01 -1.1638544790945E+00  1.3864017735242E+00  4.2312222844864E-02
59  5.8000000000000E-01 -1.1298850331682E+00  1.3660526643440E+00  1.9206378211032E-01
60  5.9000000000000E-01 -1.0879644401138E+00  1.3441347760365E+00  3.4681288458524E-01
61  6.0000000000000E-01 -1.0387967543765E+00  1.3206877512524E+00  5.0501897011696E-01
62  6.1000000000000E-01 -9.8315932508408E-01  1.2957505020787E+00  6.6497759005147E-01
63  6.2000000000000E-01 -9.2189227765336E-01  1.2693618855059E+00  8.2484786839783E-01
64  6.3000000000000E-01 -8.5588669496729E-01  1.2415615513816E+00  9.8268518040508E-01
65  6.4000000000000E-01 -7.8607171685771E-01  1.2123909279029E+00  1.1364782351471E+00
66  6.5000000000000E-01 -7.1340081148931E-01  1.1818943039614E+00  1.2841895932309E+00
67  6.6000000000000E-01 -6.3883749983060E-01  1.1501199633784E+00  1.4237985263494E+00
68  6.7000000000000E-01 -5.6334083375204E-01  1.1171213234310E+00  1.5533450363802E+00
69  6.8000000000000E-01 -4.8785093874038E-01  1.0829580291482E+00  1.6709738011118E+00
70  6.9000000000000E-01 -4.1327493338338E-01  1.0476969557135E+00  1.7749768031837E+00
71  7.0000000000000E-01 -3.4047352961715E-01  1.0114130738980E+00  1.8638334287895E+00
72  7.1000000000000E-01 -2.7024860050365E-01  9.7419013770180E-01  1.9362468920373E+00
73  7.2000000000000E-01 -2.0333197661333E-01  9.3612115913674E-01  1.9911759471466E+00
74  7.3000000000000E-01 -1.4037569879728E-01  8.9730864214750E-01  2.0278609901542E+00
75  7.4000000000000E-01 -8.1943915401465E-02  8.5786455578893E-01  2.0458438195863E+00
76  7.5000000000000E-01 -2.8506567172262E-02  8.1791003565765E-01  2.0449805156974E+00
77  7.6000000000000E-01  1.9565045211257E-02  7.7757481189748E-01  2.0254471036393E+00
78  7.7000000000000E-01  6.2000766173394E-02  7.3699637151183E-01  1.9877378799227E+00
79  7.8000000000000E-01  9.8632168218169E-02  6.9631887186861E-01  1.9326564960586E+00
80  7.9000000000000E-01  1.2939126665628E-01  6.5569183082151E-01  1.8613001004782E+00
81  8.0000000000000E-01  1.5430746484097E-01  6.1526862645682E-01  1.7750370320442E+00
82  8.1000000000000E-01  1.7350286848076E-01  5.7520484579257E-01  1.6754787284005E+00
83  8.2000000000000E-01  1.8718614077328E-01  5.3565652653051E-01  1.5644466534470E+00
84  8.3000000000000E-01  1.9564509535762E-01  4.9677833895931E-01  1.4439351546315E+00
85  8.4000000000000E-01  1.9923824037017E-01  4.5872175615165E-01  1.3160712278672E+00
86  8.5000000000000E-01  1.9838549345615E-01  4.2163325957351E-01  1.1830721923146E+00
87  8.6000000000000E-01  1.9355828399626E-01  3.8565262408041E-01  1.0472022570009E+00
88  8.7000000000000E-01  1.8526924494046E-01  3.5091132103234E-01  9.1072889573733E-01
89  8.8000000000000E-01  1.7406167273332E-01  3.1753107100465E-01  7.7587983701371E-01
90  8.9000000000000E-01  1.6049890042474E-01  2.8562256846399E-01  6.4480132396237E-01
91  9.0000000000000E-01  1.4515368707335E-01  2.5528439003683E-01  5.1951811000164E-01
92  9.1000000000000E-01  1.2859767714409E-01  2.2660208590289E-01  4.0189543364854E-01
93  9.2000000000000E-01  1.1139092821342E-01  1.9964744072721E-01  2.9360296764745E-01
94  9.3000000000000E-01  9.4071445581963E-02  1.7447787677236E-01  1.9608047043530E-01
95  9.4000000000000E-01  7.7144600167265E-02  1.5113595780675E-01  1.1050459020045E-01
96  9.5000000000000E-01  6.1072243247727E-02  1.2964893856482E-01  3.7755992136195E-02
97  9.6000000000000E-01  4.6261270206015E-02  1.1002829123734E-01 -2.1614293250665E-02
98  9.7000000000000E-01  3.3051327346184E-02  9.2269128190804E-02 -6.7420659826365E-02
99  9.8000000000000E-01  2.1701303003241E-02  7.6349429219134E-02 -9.9882445205662E-02
100  9.9000000000000E-01  1.2374191342890E-02  6.2228971513212E-02 -1.1966901016418E-01
101  1.0000000000000E+00  5.1199353105226E-03  4.9847861115864E-02 -1.2795206424093E-01
102  1.0100000000000E+00 -1.4011940391772E-04  3.9125097843427E-02 -1.2644422238832E-01
103  1.0200000000000E+00 -3.5843643727472E-03  2.9963193446286E-02 -1.1719013869034E-01
104  1.0300000000000E+00 -5.4447682244441E-03  2.2256367683050E-02 -1.0228775587366E-01
105  1.0400000000000E+00 -5.9933152788823E-03  1.5894973383747E-02 -8.3810887532844E-02
106  1.0500000000000E+00 -5.5447464009485E-03  1.0763413171989E-02 -6.3795316835226E-02
107  1.0600000000000E+00 -4.4764235540168E-03  6.7262749978621E-03 -4.4286686486761E-02
108  1.0700000000000E+00 -3.0702188633513E-03  3.7037907258206E-03 -2.6831798256252E-02
109  1.0800000000000E+00 -1.6305214726722E-03  1.6231197443684E-03 -1.2823549461548E-02
110  1.0900000000000E+00 -4.8787471667870E-04  4.0995110538032E-04 -3.5011622705977E-03
111  1.1000000000000E+00 -4.8343539542275E-06  3.4999701892660E-06 -3.1886511059161E-05
112  1.1100000000000E+00 -3.2225926954894E-06  2.3651138613644E-06 -2.1549092921327E-05
113  1.1200000000000E+00  8.9096165456315E-08 -7.0022848613932E-08  6.1727450303122E-07
114  1.13  0.  0.  0.
115  1.14  0.  0.  0.
116  1.15  0.  0.  0.
117  1.16  0.  0.  0.
118  1.17  0.  0.  0.
119  1.18  0.  0.  0.
120  1.19  0.  0.  0.
121  1.20  0.  0.  0.
122  1.21  0.  0.  0.
123  1.22  0.  0.  0.
124  1.23  0.  0.  0.
125  1.24  0.  0.  0.
126  1.25  0.  0.  0.
127  1.26  0.  0.  0.
128  1.27  0.  0.  0.
129  1.28  0.  0.  0.
130  1.29  0.  0.  0.
131  1.30  0.  0.  0.
132  1.31  0.  0.  0.
133  1.32  0.  0.  0.
134  1.33  0.  0.  0.
135  1.34  0.  0.  0.
136  1.35  0.  0.  0.
137  1.36  0.  0.  0.
138  1.37  0.  0.  0.
139  1.38  0.  0.  0.
140  1.39  0.  0.  0.
141  1.40  0.  0.  0.
142  1.41  0.  0.  0.
143  1.42  0.  0.  0.
144  1.43  0.  0.  0.
145  1.44  0.  0.  0.
146  1.45  0.  0.  0.
147  1.46  0.  0.  0.
148  1.47  0.  0.  0.
149  1.48  0.  0.  0.
150  1.49  0.  0.  0.
151  1.50  0.  0.  0.
152  1.51  0.  0.  0.
153  1.52  0.  0.  0.
154  1.53  0.  0.  0.
155  1.54  0.  0.  0.
156  1.55  0.  0.  0.
157  1.56  0.  0.  0.
158  1.57  0.  0.  0.
159  1.58  0.  0.  0.
160  1.59  0.  0.  0.
161  1.60  0.  0.  0.
162  1.61  0.  0.  0.
163  1.62  0.  0.  0.
164  1.63  0.  0.  0.
165  1.64  0.  0.  0.
166  1.65  0.  0.  0.
167  1.66  0.  0.  0.
168  1.67  0.  0.  0.
169  1.68  0.  0.  0.
170  1.69  0.  0.  0.
171  1.70  0.  0.  0.
172  1.71  0.  0.  0.
173  1.72  0.  0.  0.
174  1.73  0.  0.  0.
175  1.74  0.  0.  0.
176  1.75  0.  0.  0.
177  1.76  0.  0.  0.
178  1.77  0.  0.  0.
179  1.78  0.  0.  0.
180  1.79  0.  0.  0.
181  1.80  0.  0.  0.
182  1.81  0.  0.  0.
183  1.82  0.  0.  0.
184  1.83  0.  0.  0.
185  1.84  0.  0.  0.
186  1.85  0.  0.  0.
187  1.86  0.  0.  0.
188  1.87  0.  0.  0.
189  1.88  0.  0.  0.
190  1.89  0.  0.  0.
191  1.90  0.  0.  0.
192  1.91  0.  0.  0.
193  1.92  0.  0.  0.
194  1.93  0.  0.  0.
195  1.94  0.  0.  0.
196  1.95  0.  0.  0.
197  1.96  0.  0.  0.
198  1.97  0.  0.  0.
199  1.98  0.  0.  0.
200  1.99  0.  0.  0.
201  2.00  0.  0.  0.
202  2.01  0.  0.  0.
203  2.02  0.  0.  0.
204  2.03  0.  0.  0.
205  2.04  0.  0.  0.
206  2.05  0.  0.  0.
207  2.06  0.  0.  0.
208  2.07  0.  0.  0.
209  2.08  0.  0.  0.
210  2.09  0.  0.  0.
211  2.10  0.  0.  0.
212  2.11  0.  0.  0.
213  2.12  0.  0.  0.
214  2.13  0.  0.  0.
215  2.14  0.  0.  0.
216  2.15  0.  0.  0.
217  2.16  0.  0.  0.
218  2.17  0.  0.  0.
219  2.18  0.  0.  0.
220  2.19  0.  0.  0.
221  2.20  0.  0.  0.
222  2.21  0.  0.  0.
223  2.22  0.  0.  0.
224  2.23  0.  0.  0.
225  2.24  0.  0.  0.
226  2.25  0.  0.  0.
227  2.26  0.  0.  0.
228  2.27  0.  0.  0.
229  2.28  0.  0.  0.
230  2.29  0.  0.  0.
231  2.30  0.  0.  0.
232  2.31  0.  0.  0.
233  2.32  0.  0.  0.
234  2.33  0.  0.  0.
235  2.34  0.  0.  0.
236  2.35  0.  0.  0.
237  2.36  0.  0.  0.
238  2.37  0.  0.  0.
239  2.38  0.  0.  0.
240  2.39  0.  0.  0.
241  2.40  0.  0.  0.
242  2.41  0.  0.  0.
243  2.42  0.  0.  0.
244  2.43  0.  0.  0.
245  2.44  0.  0.  0.
246  2.45  0.  0.  0.
247  2.46  0.  0.  0.
248  2.47  0.  0.  0.
249  2.48  0.  0.  0.
250  2.49  0.  0.  0.
251  2.50  0.  0.  0.
252  2.51  0.  0.  0.
253  2.52  0.  0.  0.
254  2.53  0.  0.  0.
255  2.54  0.  0.  0.
256  2.55  0.  0.  0.
257  2.56  0.  0.  0.
258  2.57  0.  0.  0.
259  2.58  0.  0.  0.
260  2.59  0.  0.  0.
261  2.60  0.  0.  0.
262  2.61  0.  0.  0.
263  2.62  0.  0.  0.
264  2.63  0.  0.  0.
265  2.64  0.  0.  0.
266  2.65  0.  0.  0.
267  2.66  0.  0.  0.
268  2.67  0.  0.  0.
269  2.68  0.  0.  0.
270  2.69  0.  0.  0.
271  2.70  0.  0.  0.
272  2.71  0.  0.  0.
273  2.72  0.  0.  0.
274  2.73  0.  0.  0.
275  2.74  0.  0.  0.
276  2.75  0.  0.  0.
277  2.76  0.  0.  0.
278  2.77  0.  0.  0.
279  2.78  0.  0.  0.
280  2.79  0.  0.  0.
281  2.80  0.  0.  0.
282  2.81  0.  0.  0.
283  2.82  0.  0.  0.
284  2.83  0.  0.  0.
285  2.84  0.  0.  0.
286  2.85  0.  0.  0.
287  2.86  0.  0.  0.
288  2.87  0.  0.  0.
289  2.88  0.  0.  0.
290  2.89  0.  0.  0.
291  2.90  0.  0.  0.
292  2.91  0.  0.  0.
293  2.92  0.  0.  0.
294  2.93  0.  0.  0.
295  2.94  0.  0.  0.
296  2.95  0.  0.  0.
297  2.96  0.  0.  0.
298  2.97  0.  0.  0.
299  2.98  0.  0.  0.
300  2.99  0.  0.  0.
301  3.00  0.  0.  0.
302  3.01  0.  0.  0.
303  3.02  0.  0.  0.
304  3.03  0.  0.  0.
305  3.04  0.  0.  0.
306  3.05  0.  0.  0.
307  3.06  0.  0.  0.
308  3.07  0.  0.  0.
309  3.08  0.  0.  0.
310  3.09  0.  0.  0.
311  3.10  0.  0.  0.
312  3.11  0.  0.  0.
313  3.12  0.  0.  0.
314  3.13  0.  0.  0.
315  3.14  0.  0.  0.
316  3.15  0.  0.  0.
317  3.16  0.  0.  0.
318  3.17  0.  0.  0.
319  3.18  0.  0.  0.
320  3.19  0.  0.  0.
321  3.20  0.  0.  0.
322  3.21  0.  0.  0.
323  3.22  0.  0.  0.
324  3.23  0.  0.  0.
325  3.24  0.  0.  0.
326  3.25  0.  0.  0.
327  3.26  0.  0.  0.
328  3.27  0.  0.  0.
329  3.28  0.  0.  0.
330  3.29  0.  0.  0.
331  3.30  0.  0.  0.
332  3.31  0.  0.  0.
333  3.32  0.  0.  0.
334  3.33  0.  0.  0.
335  3.34  0.  0.  0.
336  3.35  0.  0.  0.
337  3.36  0.  0.  0.
338  3.37  0.  0.  0.
339  3.38  0.  0.  0.
340  3.39  0.  0.  0.
341  3.40  0.  0.  0.
342  3.41  0.  0.  0.
343  3.42  0.  0.  0.
344  3.43  0.  0.  0.
345  3.44  0.  0.  0.
346  3.45  0.  0.  0.
347  3.46  0.  0.  0.
348  3.47  0.  0.  0.
349  3.48  0.  0.  0.
350  3.49  0.  0.  0.
351  3.50  0.  0.  0.
352  3.51  0.  0.  0.
353  3.52  0.  0.  0.
354  3.53  0.  0.  0.
355  3.54  0.  0.  0.
356  3.55  0.  0.  0.
357  3.56  0.  0.  0.
358  3.57  0.  0.  0.
359  3.58  0.  0.  0.
360  3.59  0.  0.  0.
361  3.60  0.  0.  0.
362  3.61  0.  0.  0.
363  3.62  0.  0.  0.
364  3.63  0.  0.  0.
365  3.64  0.  0.  0.
366  3.65  0.  0.  0.
367  3.66  0.  0.  0.
368  3.67  0.  0.  0.
369  3.68  0.  0.  0.
370  3.69  0.  0.  0.
371  3.70  0.  0.  0.
372  3.71  0.  0.  0.
373  3.72  0.  0.  0.
374  3.73  0.  0.  0.
375  3.74  0.  0.  0.
376  3.75  0.  0.  0.
377  3.76  0.  0.  0.
378  3.77  0.  0.  0.
379  3.78  0.  0.  0.
380  3.79  0.  0.  0.
381  3.80  0.  0.  0.
382  3.81  0.  0.  0.
383  3.82  0.  0.  0.
384  3.83  0.  0.  0.
385  3.84  0.  0.  0.
386  3.85  0.  0.  0.
387  3.86  0.  0.  0.
388  3.87  0.  0.  0.
389  3.88  0.  0.  0.
390  3.89  0.  0.  0.
391  3.90  0.  0.  0.
392  3.91  0.  0.  0.
393  3.92  0.  0.  0.
394  3.93  0.  0.  0.
395  3.94  0.  0.  0.
396  3.95  0.  0.  0.
397  3.96  0.  0.  0.
398  3.97  0.  0.  0.
399  3.98  0.  0.  0.
400  3.99  0.  0.  0.
401  4.00  0.  0.  0.
402  4.01  0.  0.  0.
403  4.02  0.  0.  0.
404  4.03  0.  0.  0.
405  4.04  0.  0.  0.
406  4.05  0.  0.  0.
407  4.06  0.  0.  0.
408  4.07  0.  0.  0.
409  4.08  0.  0.  0.
410  4.09  0.  0.  0.
411  4.10  0.  0.  0.
412  4.11  0.  0.  0.
413  4.12  0.  0.  0.
414  4.13  0.  0.  0.
415  4.14  0.  0.  0.
416  4.15  0.  0.  0.
417  4.16  0.  0.  0.
418  4.17  0.  0.  0.
419  4.18  0.  0.  0.
420  4.19  0.  0.  0.
421  4.20  0.  0.  0.
422  4.21  0.  0.  0.
423  4.22  0.  0.  0.
424  4.23  0.  0.  0.
425  4.24  0.  0.  0.
426  4.25  0.  0.  0.
427  4.26  0.  0.  0.
428  4.27  0.  0.  0.
429  4.28  0.  0.  0.
430  4.29  0.  0.  0.
431  4.30  0.  0.  0.
432  4.31  0.  0.  0.
433  4.32  0.  0.  0.
434  4.33  0.  0.  0.
435  4.34  0.  0.  0.
436  4.35  0.  0.  0.
437  4.36  0.  0.  0.
438  4.37  0.  0.  0.
439  4.38  0.  0.  0.
440  4.39  0.  0.  0.
441  4.40  0.  0.  0.
442  4.41  0.  0.  0.
443  4.42  0.  0.  0.
444  4.43  0.  0.  0.
445  4.44  0.  0.  0.
446  4.45  0.  0.  0.
447  4.46  0.  0.  0.
448  4.47  0.  0.  0.
449  4.48  0.  0.  0.
450  4.49  0.  0.  0.
451  4.50  0.  0.  0.
452  4.51  0.  0.  0.
453  4.52  0.  0.  0.
454  4.53  0.  0.  0.
455  4.54  0.  0.  0.
456  4.55  0.  0.  0.
457  4.56  0.  0.  0.
458  4.57  0.  0.  0.
459  4.58  0.  0.  0.
460  4.59  0.  0.  0.
461  4.60  0.  0.  0.
462  4.61  0.  0.  0.
463  4.62  0.  0.  0.
464  4.63  0.  0.  0.
465  4.64  0.  0.  0.
466  4.65  0.  0.  0.
467  4.66  0.  0.  0.
468  4.67  0.  0.  0.
469  4.68  0.  0.  0.
470  4.69  0.  0.  0.
471  4.70  0.  0.  0.
472  4.71  0.  0.  0.
473  4.72  0.  0.  0.
474  4.73  0.  0.  0.
475  4.74  0.  0.  0.
476  4.75  0.  0.  0.
477  4.76  0.  0.  0.
478  4.77  0.  0.  0.
479  4.78  0.  0.  0.
480  4.79  0.  0.  0.
481  4.80  0.  0.  0.
482  4.81  0.  0.  0.
483  4.82  0.  0.  0.
484  4.83  0.  0.  0.
485  4.84  0.  0.  0.
486  4.85  0.  0.  0.
487  4.86  0.  0.  0.
488  4.87  0.  0.  0.
489  4.88  0.  0.  0.
490  4.89  0.  0.  0.
491  4.90  0.  0.  0.
492  4.91  0.  0.  0.
493  4.92  0.  0.  0.
494  4.93  0.  0.  0.
495  4.94  0.  0.  0.
496  4.95  0.  0.  0.
497  4.96  0.  0.  0.
498  4.97  0.  0.  0.
499  4.98  0.  0.  0.
500  4.99  0.  0.  0.
501  5.00  0.  0.  0.
502  5.01  0.  0.  0.
503  5.02  0.  0.  0.
504  5.03  0.  0.  0.
505  5.04  0.  0.  0.
506  5.05  0.  0.  0.
507  5.06  0.  0.  0.
508  5.07  0.  0.  0.
509  5.08  0.  0.  0.
510  5.09  0.  0.  0.
511  5.10  0.  0.  0.
512  5.11  0.  0.  0.
513  5.12  0.  0.  0.
514  5.13  0.  0.  0.
515  5.14  0.  0.  0.
516  5.15  0.  0.  0.
517  5.16  0.  0.  0.
518  5.17  0.  0.  0.
519  5.18  0.  0.  0.
520  5.19  0.  0.  0.
521  5.20  0.  0.  0.
522  5.21  0.  0.  0.
523  5.22  0.  0.  0.
524  5.23  0.  0.  0.
525  5.24  0.  0.  0.
526  5.25  0.  0.  0.
527  5.26  0.  0.  0.
528  5.27  0.  0.  0.
529  5.28  0.  0.  0.
530  5.29  0.  0.  0.
531  5.30  0.  0.  0.
532  5.31  0.  0.  0.
533  5.32  0.  0.  0.
534  5.33  0.  0.  0.
535  5.34  0.  0.  0.
536  5.35  0.  0.  0.
537  5.36  0.  0.  0.
538  5.37  0.  0.  0.
539  5.38  0.  0.  0.
540  5.39  0.  0.  0.
541  5.40  0.  0.  0.
542  5.41  0.  0.  0.
543  5.42  0.  0.  0.
544  5.43  0.  0.  0.
545  5.44  0.  0.  0.
546  5.45  0.  0.  0.
547  5.46  0.  0.  0.
548  5.47  0.  0.  0.
549  5.48  0.  0.  0.
550  5.49  0.  0.  0.
551  5.50  0.  0.  0.
552  5.51  0.  0.  0.
553  5.52  0.  0.  0.
554  5.53  0.  0.  0.
555  5.54  0.  0.  0.
556  5.55  0.  0.  0.
557  5.56  0.  0.  0.
558  5.57  0.  0.  0.
559  5.58  0.  0.  0.
560  5.59  0.  0.  0.
561  5.60  0.  0.  0.
562  5.61  0.  0.  0.
563  5.62  0.  0.  0.
564  5.63  0.  0.  0.
565  5.64  0.  0.  0.
566  5.65  0.  0.  0.
567  5.66  0.  0.  0.
568  5.67  0.  0.  0.
569  5.68  0.  0.  0.
570  5.69  0.  0.  0.
571  5.70  0.  0.  0.
572  5.71  0.  0.  0.
573  5.72  0.  0.  0.
574  5.73  0.  0.  0.
575  5.74  0.  0.  0.
576  5.75  0.  0.  0.
577  5.76  0.  0.  0.
578  5.77  0.  0.  0.
579  5.78  0.  0.  0.
580  5.79  0.  0.  0.
581  5.80  0.  0.  0.
582  5.81  0.  0.  0.
583  5.82  0.  0.  0.
584  5.83  0.  0.  0.
585  5.84  0.  0.  0.
586  5.85  0.  0.  0.
587  5.86  0.  0.  0.
588  5.87  0.  0.  0.
589  5.88  0.  0.  0.
590  5.89  0.  0.  0.
591  5.90  0.  0.  0.
592  5.91  0.  0.  0.
593  5.92  0.  0.  0.
594  5.93  0.  0.  0.
595  5.94  0.  0.  0.
596  5.95  0.  0.  0.
597  5.96  0.  0.  0.
598  5.97  0.  0.  0.
599  5.98  0.  0.  0.
600  5.99  0.  0.  0.
1                         4.3323934928619E+00 -3.9348444072396E+00
1  0.0000000000000E+00 -2.4668228848501E-08  5.1570021586400E-09
2  1.0000000000000E-02  4.4137059194263E-03  1.7618563128505E-03
3  2.0000000000000E-02  1.7616662179794E-02  7.0368059907388E-03
4  3.0000000000000E-02  3.9494326796541E-02  1.5793127219471E-02
5  4.0000000000000E-02  6.9855625519410E-02  2.7978399958311E-02
6  5.0000000000000E-02  1.0843276673850E-01  4.3520168028227E-02
7  6.0000000000000E-02  1.5488112105775E-01  6.2326841730915E-02
8  7.0000000000000E-02  2.0877929524245E-01  8.4288817765538E-02
9  8.0000000000000E-02  2.6962955491594E-01  1.0927978805314E-01
10  9.0000000000000E-02  3.3685876654602E-01  1.3715820494705E-01
11  1.0000000000000E-01  4.0982003586912E-01  1.6776886733984E-01
12  1.1000000000000E-01  4.8779521633574E-01  2.0094459046372E-01
13  1.2000000000000E-01  5.6999844728415E-01  2.3650792176019E-01
14  1.3000000000000E-01  6.5558085770099E-01  2.7427286605422E-01
15  1.4000000000000E-01  7.4363653841959E-01  3.1404658534164E-01
16  1.5000000000000E-01  8.3320984468879E-01  3.5563104167486E-01
17  1.6000000000000E-01  9.2330404385073E-01  3.9882455575343E-01
18  1.7000000000000E-01  1.0128912713487E+00  4.4342325870199E-01
19  1.8000000000000E-01  1.1009237046278E+00  4.8922241992852E-01
20  1.9000000000000E-01  1.1863458110161E+00  5.3601763966414E-01
21  2.0000000000000E-01  1.2681074747424E+00  5.8360590054707E-01
22  2.1000000000000E-01  1.3451777621544E+00  6.3178647818706E-01
23  2.2000000000000E-01  1.4165590450785E+00  6.8036171580543E-01
24  2.3000000000000E-01  1.4813011719843E+00  7.2913767258501E-01
25  2.4000000000000E-01  1.5385153567010E+00  7.7792465911217E-01
26  2.5000000000000E-01  1.5873874460159E+00  8.2653767611705E-01
27  2.6000000000000E-01  1.6271902311965E+00  8.7479677452828E-01
28  2.7000000000000E-01  1.6572944844943E+00  9.2252735561610E-01
29  2.8000000000000E-01  1.6771784296538E+00  9.6956042970914E-01
30  2.9000000000000E-01  1.6864353945088E+00  1.0157328506943E+00
31  3.0000000000000E-01  1.6847794426023E+00  1.0608875413456E+00
32  3.1000000000000E-01  1.6720488376688E+00  1.1048737216208E+00
33  3.2000000000000E-01  1.6482072576991E+00  1.1475471485867E+00
34  3.3000000000000E-01  1.6133427418213E+00  1.1887703727912E+00
35  3.4000000000000E-01  1.5676644208608E+00  1.2284130118986E+00
36  3.5000000000000E-01  1.5114971486035E+00  1.2663520384801E+00
37  3.6000000000000E-01  1.4452742129317E+00  1.3024720752080E+00
38  3.7000000000000E-01  1.3695283617244E+00  1.3366656875527E+00
39  3.8000000000000E-01  1.2848814255402E+00  1.3688336615976E+00
40  3.9000000000000E-01  1.1920328558022E+00  1.3988852529206E+00
41  4.0000000000000E-01  1.0917475220302E+00  1.4267383917454E+00
42  4.1000000000000E-01  9.8484312366938E-01  1.4523198298002E+00
43  4.2000000000000E-01  8.7217757077078E-01  1.4755652155572E+00
44  4.3000000000000E-01  7.5463667326860E-01  1.4964190867190E+00
45  4.4000000000000E-01  6.3312245147674E-01  1.5148347718850E+00
46  4.5000000000000E-01  5.0854234180008E-01  1.5307741971472E+00
47  4.6000000000000E-01  3.8179952311452E-01  1.5442075977469E+00
48  4.7000000000000E-01  2.5378453280129E-01  1.5551131396844E+00
49  4.8000000000000E-01  1.2536827935156E-01  1.5634764610632E+00
50  4.9000000000000E-01 -2.6035066493843E-03  1.5692901477413E+00
51  5.0000000000000E-01 -1.2931440678972E-01  1.5725531622923E+00
52  5.1000000000000E-01 -2.5398012101879E-01  1.5732702491139E+00
53  5.2000000000000E-01 -3.7585009040140E-01  1.5714513415254E+00
54  5.3000000000000E-01 -4.9420813152994E-01  1.5671109986842E+00
55  5.4000000000000E-01 -6.0837231841569E-01  1.5602679009498E+00
56  5.5000000000000E-01 -7.1769437689011E-01  1.5509444318301E+00
57  5.6000000000000E-01 -8.2155887288802E-01  1.5391663727902E+00
58  5.7000000000000E-01 -9.1938247862854E-01  1.5249627339912E+00
59  5.8000000000000E-01 -1.0106135893838E+00  1.5083657395025E+00
60  5.9000000000000E-01 -1.0947325385379E+00  1.4894109798275E+00
61  6.0000000000000E-01 -1.1712526208696E+00  1.4681377378516E+00
62  6.1000000000000E-01 -1.2397220848788E+00  1.4445894868154E+00
63  6.2000000000000E-01 -1.2997271964450E+00  1.4188145508808E+00
64  6.3000000000000E-01 -1.3508964105336E+00  1.3908669106210E+00
65  6.4000000000000E-01 -1.3929056177592E+00  1.3608071276535E+00
66  6.5000000000000E-01 -1.4254843613414E+00  1.3287033549894E+00
67  6.6000000000000E-01 -1.4484228504307E+00  1.2946323928461E+00
68  6.7000000000000E-01 -1.4615795310453E+00  1.2586807439874E+00
69  6.8000000000000E-01 -1.4648889189275E+00  1.2209456184207E+00
70  6.9000000000000E-01 -1.4583693522344E+00  1.1815358347485E+00
71  7.0000000000000E-01 -1.4421302885251E+00  1.1405725648507E+00
72  7.1000000000000E-01 -1.4163787519047E+00  1.0981898700006E+00
73  7.2000000000000E-01 -1.3814245338118E+00  1.0545349800527E+00
74  7.3000000000000E-01 -1.3376837655408E+00  1.0097682729800E+00
75  7.4000000000000E-01 -1.2856805122369E+00  9.6406291966449E-01
76  7.5000000000000E-01 -1.2260460861730E+00  9.1760416830135E-01
77  7.6000000000000E-01 -1.1595158403021E+00  8.7058825377428E-01
78  7.7000000000000E-01 -1.0869232793864E+00  8.2322092958879E-01
79  7.8000000000000E-01 -1.0091914128672E+00  7.7571563299079E-01
80  7.9000000000000E-01 -9.2732136794812E-01  7.2829130731317E-01
81  8.0000000000000E-01 -8.4237837961555E-01  6.8116991888987E-01
82  8.1000000000000E-01 -7.5547537271346E-01  6.3457371854995E-01
83  8.2000000000000E-01 -6.6775444578804E-01  5.8872230924813E-01
84  8.3000000000000E-01 -5.8036665330329E-01  5.4382959131331E-01
85  8.4000000000000E-01 -4.9445055823871E-01  5.0010066465448E-01
86  8.5000000000000E-01 -4.1111008758980E-01  4.5772877266173E-01
87  8.6000000000000E-01 -3.3139226594408E-01  4.1689237516059E-01
88  8.7000000000000E-01 -2.5626542474943E-01  3.7775243739495E-01
89  8.8000000000000E-01 -1.8659848550254E-01  3.4045001850144E-01
90  8.9000000000000E-01 -1.2314189304315E-01  3.0510423628390E-01
91  9.0000000000000E-01 -6.6510730494360E-02  2.7181067540395E-01
92  9.1000000000000E-01 -1.7170481086114E-02  2.4064029359305E-01
93  9.2000000000000E-01  2.4574184038234E-02  2.1163886549661E-01
94  9.3000000000000E-01  5.8587316235471E-02  1.8482698672002E-01
95  9.4000000000000E-01  8.4906139260824E-02  1.6020064208805E-01
96  9.5000000000000E-01  1.0374200664507E-01  1.3773232266162E-01
97  9.6000000000000E-01  1.1547796643706E-01  1.1737265632897E-01
98  9.7000000000000E-01  1.2066316532821E-01  9.9052497495979E-02
99  9.8000000000000E-01  1.2000445154922E-01  8.2685403230517E-02
100  9.9000000000000E-01  1.1435566319729E-01  6.8170406581000E-02
101  1.0000000000000E+00  1.0470511471823E-01  5.5394985874100E-02
102  1.0100000000000E+00  9.2155951644498E-02  4.4238243133698E-02
103  1.0200000000000E+00  7.7841542713658E-02  3.4575893261224E-02
104  1.0300000000000E+00  6.2831145949246E-02  2.6287193547667E-02
105  1.0400000000000E+00  4.8093865755336E-02  1.9261289503759E-02
106  1.0500000000000E+00  3.4444548826372E-02  1.3405986701322E-02
107  1.0600000000000E+00  2.2442131976912E-02  8.6598277189547E-03
108  1.0700000000000E+00  1.2700654724082E-02  4.9592076799123E-03
109  1.0800000000000E+00  5.6374173035492E-03  2.2727189902483E-03
110  1.0900000000000E+00  1.4202800117603E-03  6.0297442908404E-04
111  1.1000000000000E+00  1.1845763034991E-05  5.4215893239684E-06
112  1.1100000000000E+00  8.1070448166598E-06  3.6421208610862E-06
113  1.1200000000000E+00 -2.4138322180502E-07 -1.0531625391282E-07
114  1.13  0.  0.
115  1.14  0.  0.
116  1.15  0.  0.
117  1.16  0.  0.
118  1.17  0.  0.
119  1.18  0.  0.
120  1.19  0.  0.
121  1.20  0.  0.
122  1.21  0.  0.
123  1.22  0.  0.
124  1.23  0.  0.
125  1.24  0.  0.
126  1.25  0.  0.
127  1.26  0.  0.
128  1.27  0.  0.
129  1.28  0.  0.
130  1.29  0.  0.
131  1.30  0.  0.
132  1.31  0.  0.
133  1.32  0.  0.
134  1.33  0.  0.
135  1.34  0.  0.
136  1.35  0.  0.
137  1.36  0.  0.
138  1.37  0.  0.
139  1.38  0.  0.
140  1.39  0.  0.
141  1.40  0.  0.
142  1.41  0.  0.
143  1.42  0.  0.
144  1.43  0.  0.
145  1.44  0.  0.
146  1.45  0.  0.
147  1.46  0.  0.
148  1.47  0.  0.
149  1.48  0.  0.
150  1.49  0.  0.
151  1.50  0.  0.
152  1.51  0.  0.
153  1.52  0.  0.
154  1.53  0.  0.
155  1.54  0.  0.
156  1.55  0.  0.
157  1.56  0.  0.
158  1.57  0.  0.
159  1.58  0.  0.
160  1.59  0.  0.
161  1.60  0.  0.
162  1.61  0.  0.
163  1.62  0.  0.
164  1.63  0.  0.
165  1.64  0.  0.
166  1.65  0.  0.
167  1.66  0.  0.
168  1.67  0.  0.
169  1.68  0.  0.
170  1.69  0.  0.
171  1.70  0.  0.
172  1.71  0.  0.
173  1.72  0.  0.
174  1.73  0.  0.
175  1.74  0.  0.
176  1.75  0.  0.
177  1.76  0.  0.
178  1.77  0.  0.
179  1.78  0.  0.
180  1.79  0.  0.
181  1.80  0.  0.
182  1.81  0.  0.
183  1.82  0.  0.
184  1.83  0.  0.
185  1.84  0.  0.
186  1.85  0.  0.
187  1.86  0.  0.
188  1.87  0.  0.
189  1.88  0.  0.
190  1.89  0.  0.
191  1.90  0.  0.
192  1.91  0.  0.
193  1.92  0.  0.
194  1.93  0.  0.
195  1.94  0.  0.
196  1.95  0.  0.
197  1.96  0.  0.