Rf    ONCVPSP-4.0.1  r_core=   1.10045   1.15440   1.15440   1.20376
104.0000     44.0000      220205    zatom,zion,pspd
8      11   3     4   600     0    pspcod,pspxc,lmax,lloc,mmax,r2well
5.99000000  4.85450000  0.00000000    rchrg fchrg qchrg
3     2     2     2     0    nproj
1     1           extension_switch
0                         1.5454062086583E+01 -8.5351209615114E+00 -3.0750571313499E-01
1  0.0000000000000E+00 -2.8468249757552E-08 -1.0317134369053E-09  9.1323533224497E-07
2  1.0000000000000E-02  1.8407481090975E-01  4.8175252684047E-02 -1.8853741535724E-01
3  2.0000000000000E-02  3.6650879241893E-01  9.6351667686634E-02 -3.7154168990059E-01
4  3.0000000000000E-02  5.4568028807790E-01  1.4452981840319E-01 -5.4366333153093E-01
5  4.0000000000000E-02  7.2000566894064E-01  1.9270910087042E-01 -6.9991348997234E-01
6  5.0000000000000E-02  8.8795755904348E-01  2.4088714660274E-01 -8.3582789090206E-01
7  6.0000000000000E-02  1.0480821363317E+00  2.8905923806298E-01 -9.4761180239458E-01
8  7.0000000000000E-02  1.1990152357422E+00  3.3721772895736E-01 -1.0322608428587E+00
9  8.0000000000000E-02  1.3394970096180E+00  3.8535147257602E-01 -1.0876533528817E+00
10  9.0000000000000E-02  1.4683849344817E+00  4.3344526257959E-01 -1.1126111265771E+00
11  1.0000000000000E-01  1.5846649913636E+00  4.8147929189125E-01 -1.1069264895908E+00
12  1.1000000000000E-01  1.6874608881904E+00  5.2942863662069E-01 -1.0713549748067E+00
13  1.2000000000000E-01  1.7760412359258E+00  5.7726277314488E-01 -1.0075741342436E+00
14  1.3000000000000E-01  1.8498246339235E+00  6.2494513752472E-01 -9.1811028713728E-01
15  1.4000000000000E-01  1.9083826630318E+00  6.7243273727520E-01 -8.0623619140254E-01
16  1.5000000000000E-01  1.9514408261479E+00  7.1967582606416E-01 -6.7584369328098E-01
17  1.6000000000000E-01  1.9788775140518E+00  7.6661765213706E-01 -5.3129631753180E-01
18  1.7000000000000E-01  1.9907211084661E+00  8.1319429111034E-01 -3.7726747392410E-01
19  1.8000000000000E-01  1.9871453635886E+00  8.5933457321679E-01 -2.1857044864437E-01
20  1.9000000000000E-01  1.9684632312026E+00  9.0496011411229E-01 -5.9986603803972E-02
21  2.0000000000000E-01  1.9351193125061E+00  9.4998545697105E-01  9.3901783869983E-02
22  2.1000000000000E-01  1.8876811318010E+00  9.9431833182968E-01  2.3886785167265E-01
23  2.2000000000000E-01  1.8268294332147E+00  1.0378600360289E+00  3.7117992579329E-01
24  2.3000000000000E-01  1.7533477019081E+00  1.0805059372027E+00  4.8771970881926E-01
25  2.4000000000000E-01  1.6681111062103E+00  1.1221460976446E+00  5.8607472096630E-01
26  2.5000000000000E-01  1.5720750474007E+00  1.1626660161224E+00  6.6460186310626E-01
27  2.6000000000000E-01  1.4662634901900E+00  1.2019474804028E+00  7.2246010831919E-01
28  2.7000000000000E-01  1.3517572301627E+00  1.2398695209733E+00  7.5961153445997E-01
29  2.8000000000000E-01  1.2296822354560E+00  1.2763094538158E+00  7.7679113623149E-01
30  2.9000000000000E-01  1.1011981796896E+00  1.3111439976690E+00  7.7544705421783E-01
31  3.0000000000000E-01  9.6748726255549E-01  1.3442504491132E+00  7.5765398436246E-01
32  3.1000000000000E-01  8.2974339439249E-01  1.3755078970892E+00  7.2600354182038E-01
33  3.2000000000000E-01  6.8916180229897E-01  1.4047984571864E+00  6.8347620996161E-01
34  3.3000000000000E-01  5.4692909854756E-01  1.4320085052545E+00  6.3330017695382E-01
35  3.4000000000000E-01  4.0421383779778E-01  1.4570298896379E+00  5.7880282436582E-01
36  3.5000000000000E-01  2.6215757823698E-01  1.4797611016114E+00  5.2326086857616E-01
37  3.6000000000000E-01  1.2186645353747E-01  1.5001083844197E+00  4.6975515907615E-01
38  3.7000000000000E-01 -1.5596742550314E-02  1.5179867626435E+00  4.2103590967716E-01
39  3.8000000000000E-01 -1.4921995915021E-01  1.5333209754196E+00  3.7940368965708E-01
40  3.9000000000000E-01 -2.7804877813350E-01  1.5460462992520E+00  3.4661085074359E-01
41  4.0000000000000E-01 -4.0119278706628E-01  1.5561092487048E+00  3.2378723894765E-01
42  4.1000000000000E-01 -5.1783142624582E-01  1.5634681460870E+00  3.1139307030298E-01
43  4.2000000000000E-01 -6.2721929437162E-01  1.5680935542253E+00  3.0920077455841E-01
44  4.3000000000000E-01 -7.2869089023112E-01  1.5699685694867E+00  3.1630647230101E-01
45  4.4000000000000E-01 -8.2166476057651E-01  1.5690889752552E+00  3.3117059250222E-01
46  4.5000000000000E-01 -9.0564701777524E-01  1.5654632590007E+00  3.5168600309101E-01
47  4.6000000000000E-01 -9.8023418543939E-01  1.5591124988016E+00  3.7527095950842E-01
48  4.7000000000000E-01 -1.0451153266175E+00  1.5500701276283E+00  3.9898321520146E-01
49  4.8000000000000E-01 -1.1000734077133E+00  1.5383815857836E+00  4.1965081912960E-01
50  4.9000000000000E-01 -1.1449858524132E+00  1.5241038735774E+00  4.3401447851345E-01
51  5.0000000000000E-01 -1.1798242437688E+00  1.5073050175483E+00  4.3887591349747E-01
52  5.1000000000000E-01 -1.2046531392611E+00  1.4880634643005E+00  4.3124638994365E-01
53  5.2000000000000E-01 -1.2196279731136E+00  1.4664674163117E+00  4.0848959507295E-01
54  5.3000000000000E-01 -1.2249920321156E+00  1.4426141238796E+00  3.6845321783285E-01
55  5.4000000000000E-01 -1.2210725054484E+00  1.4166091467501E+00  3.0958400338786E-01
56  5.5000000000000E-01 -1.2082756250461E+00  1.3885655979472E+00  2.3102165296972E-01
57  5.6000000000000E-01 -1.1870809303337E+00  1.3586033809654E+00  1.3266771355415E-01
58  5.7000000000000E-01 -1.1580347091942E+00  1.3268484298416E+00  1.5226517375669E-02
59  5.8000000000000E-01 -1.1217426850708E+00  1.2934319597966E+00 -1.1978374483683E-01
60  5.9000000000000E-01 -1.0788620375668E+00  1.2584897341775E+00 -2.7005063851234E-01
61  6.0000000000000E-01 -1.0300928601212E+00  1.2221613514540E+00 -4.3251748417109E-01
62  6.1000000000000E-01 -9.7616917270095E-01  1.1845895540810E+00 -6.0346232189869E-01
63  6.2000000000000E-01 -9.1784961941871E-01  1.1459195592405E+00 -7.7860335769181E-01
64  6.3000000000000E-01 -8.5590799009251E-01  1.1062984098673E+00 -9.5322743132721E-01
65  6.4000000000000E-01 -7.9112371064636E-01  1.0658743430284E+00 -1.1223371916656E+00
66  6.5000000000000E-01 -7.2427244965389E-01  1.0247961717024E+00 -1.2808119645830E+00
67  6.6000000000000E-01 -6.5611698712699E-01  9.8321267534299E-01 -1.4235767754884E+00
68  6.7000000000000E-01 -5.8739848683803E-01  9.4127199432284E-01 -1.5457736608072E+00
69  6.8000000000000E-01 -5.1882830516499E-01  8.9912102346096E-01 -1.6429292819447E+00
70  6.9000000000000E-01 -4.5108045789827E-01  8.5690480032151E-01 -1.7111129450428E+00
71  7.0000000000000E-01 -3.8478485200019E-01  8.1476588481984E-01 -1.7470794267245E+00
72  7.1000000000000E-01 -3.2052137239922E-01  7.7284372784345E-01 -1.7483914994955E+00
73  7.2000000000000E-01 -2.5881489505689E-01  7.3127402804277E-01 -1.7135177229602E+00
74  7.3000000000000E-01 -2.0013127733195E-01  6.9018807761039E-01 -1.6419018953405E+00
75  7.4000000000000E-01 -1.4487435570028E-01  6.4971209967708E-01 -1.5340015150365E+00
76  7.5000000000000E-01 -9.3383959785863E-02  6.0996658183505E-01 -1.3912936513839E+00
77  7.6000000000000E-01 -4.5934931027957E-02  5.7106561217260E-01 -1.2162477313940E+00
78  7.7000000000000E-01 -2.7371147336066E-03  5.3311622599106E-01 -1.0122658771492E+00
79  7.8000000000000E-01  3.6063723732946E-02  4.9621777299486E-01 -7.8359253834857E-01
80  7.9000000000000E-01  7.0384123830588E-02  4.6046131612608E-01 -5.3519621849624E-01
81  8.0000000000000E-01  1.0020037453766E-01  4.2592907428836E-01 -2.7262705555746E-01
82  8.1000000000000E-01  1.2554526844474E-01  3.9269392191419E-01 -1.8548558307043E-03
83  8.2000000000000E-01  1.4650426276182E-01  3.6081895862803E-01  2.7090713530640E-01
84  8.3000000000000E-01  1.6321114970801E-01  3.3035716211284E-01  5.3938693385041E-01
85  8.4000000000000E-01  1.7584334072123E-01  3.0135113667858E-01  7.9744088309249E-01
86  8.5000000000000E-01  1.8461686801348E-01  2.7383296895604E-01  1.0392368715380E+00
87  8.6000000000000E-01  1.8978120338783E-01  2.4782420060613E-01  1.2594275925828E+00
88  8.7000000000000E-01  1.9161398818496E-01  2.2333592597153E-01  1.4533080481031E+00
89  8.8000000000000E-01  1.9041576005586E-01  2.0036902024248E-01  1.6169520112093E+00
90  8.9000000000000E-01  1.8650475232901E-01  1.7891450101579E-01  1.7473228623437E+00
91  9.0000000000000E-01  1.8021183044742E-01  1.5895402316001E-01  1.8423550769473E+00
92  9.1000000000000E-01  1.7187561770333E-01  1.4046050373494E-01  1.9010036461465E+00
93  9.2000000000000E-01  1.6183784970399E-01  1.2339887043272E-01  1.9232598239525E+00
94  9.3000000000000E-01  1.5043898405685E-01  1.0772692369876E-01  1.9101327815362E+00
95  9.4000000000000E-01  1.3801407903211E-01  9.3396299443019E-02  1.8635979751406E+00
96  9.5000000000000E-01  1.2488894278077E-01  8.0353516158932E-02  1.7865142613192E+00
97  9.6000000000000E-01  1.1137654333665E-01  6.8541087414666E-02  1.6825129843476E+00
98  9.7000000000000E-01  9.7773659353184E-02  5.7898678154551E-02  1.5558633786998E+00
99  9.8000000000000E-01  8.4357742497092E-02  4.8364281123752E-02  1.4113196401843E+00
100  9.9000000000000E-01  7.1383954770420E-02  3.9875388072701E-02  1.2539558912440E+00
101  1.0000000000000E+00  5.9082337831504E-02  3.2370129264994E-02  1.0889959718412E+00
102  1.0100000000000E+00  4.7655066656677E-02  2.5788354245099E-02  9.2164550511864E-01
103  1.0200000000000E+00  3.7273736609487E-02  2.0072626848562E-02  7.5693399946633E-01
104  1.0300000000000E+00  2.8076633384908E-02  1.5169108858829E-02  5.9957481092371E-01
105  1.0400000000000E+00  2.0165955479361E-02  1.1028305693161E-02  4.5385046029867E-01
106  1.0500000000000E+00  1.3597914232598E-02  7.6032482647631E-03  3.2363796557354E-01
107  1.0600000000000E+00  8.3643378763249E-03  4.8421413640963E-03  2.1262924524768E-01
108  1.0700000000000E+00  4.4734693429964E-03  2.7195893687538E-03  1.2301955460146E-01
109  1.0800000000000E+00  1.8740436092442E-03  1.2163005112431E-03  5.6621175683089E-02
110  1.0900000000000E+00  4.4387875501416E-04  3.1353763244299E-04  1.5012702938837E-02
111  1.1000000000000E+00  3.4357866236704E-06  2.7289150338555E-06  1.3372888018533E-04
112  1.1100000000000E+00  2.3852962017581E-06  1.8422954296922E-06  9.0505375901513E-05
113  1.1200000000000E+00 -7.3387884400584E-08 -5.4029273103581E-08 -2.6208319062716E-06
114  1.13  0.  0.  0.
115  1.14  0.  0.  0.
116  1.15  0.  0.  0.
117  1.16  0.  0.  0.
118  1.17  0.  0.  0.
119  1.18  0.  0.  0.
120  1.19  0.  0.  0.
121  1.20  0.  0.  0.
122  1.21  0.  0.  0.
123  1.22  0.  0.  0.
124  1.23  0.  0.  0.
125  1.24  0.  0.  0.
126  1.25  0.  0.  0.
127  1.26  0.  0.  0.
128  1.27  0.  0.  0.
129  1.28  0.  0.  0.
130  1.29  0.  0.  0.
131  1.30  0.  0.  0.
132  1.31  0.  0.  0.
133  1.32  0.  0.  0.
134  1.33  0.  0.  0.
135  1.34  0.  0.  0.
136  1.35  0.  0.  0.
137  1.36  0.  0.  0.
138  1.37  0.  0.  0.
139  1.38  0.  0.  0.
140  1.39  0.  0.  0.
141  1.40  0.  0.  0.
142  1.41  0.  0.  0.
143  1.42  0.  0.  0.
144  1.43  0.  0.  0.
145  1.44  0.  0.  0.
146  1.45  0.  0.  0.
147  1.46  0.  0.  0.
148  1.47  0.  0.  0.
149  1.48  0.  0.  0.
150  1.49  0.  0.  0.
151  1.50  0.  0.  0.
152  1.51  0.  0.  0.
153  1.52  0.  0.  0.
154  1.53  0.  0.  0.
155  1.54  0.  0.  0.
156  1.55  0.  0.  0.
157  1.56  0.  0.  0.
158  1.57  0.  0.  0.
159  1.58  0.  0.  0.
160  1.59  0.  0.  0.
161  1.60  0.  0.  0.
162  1.61  0.  0.  0.
163  1.62  0.  0.  0.
164  1.63  0.  0.  0.
165  1.64  0.  0.  0.
166  1.65  0.  0.  0.
167  1.66  0.  0.  0.
168  1.67  0.  0.  0.
169  1.68  0.  0.  0.
170  1.69  0.  0.  0.
171  1.70  0.  0.  0.
172  1.71  0.  0.  0.
173  1.72  0.  0.  0.
174  1.73  0.  0.  0.
175  1.74  0.  0.  0.
176  1.75  0.  0.  0.
177  1.76  0.  0.  0.
178  1.77  0.  0.  0.
179  1.78  0.  0.  0.
180  1.79  0.  0.  0.
181  1.80  0.  0.  0.
182  1.81  0.  0.  0.
183  1.82  0.  0.  0.
184  1.83  0.  0.  0.
185  1.84  0.  0.  0.
186  1.85  0.  0.  0.
187  1.86  0.  0.  0.
188  1.87  0.  0.  0.
189  1.88  0.  0.  0.
190  1.89  0.  0.  0.
191  1.90  0.  0.  0.
192  1.91  0.  0.  0.
193  1.92  0.  0.  0.
194  1.93  0.  0.  0.
195  1.94  0.  0.  0.
196  1.95  0.  0.  0.
197  1.96  0.  0.  0.
198  1.97  0.  0.  0.
199  1.98  0.  0.  0.
200  1.99  0.  0.  0.
201  2.00  0.  0.  0.
202  2.01  0.  0.  0.
203  2.02  0.  0.  0.
204  2.03  0.  0.  0.
205  2.04  0.  0.  0.
206  2.05  0.  0.  0.
207  2.06  0.  0.  0.
208  2.07  0.  0.  0.
209  2.08  0.  0.  0.
210  2.09  0.  0.  0.
211  2.10  0.  0.  0.
212  2.11  0.  0.  0.
213  2.12  0.  0.  0.
214  2.13  0.  0.  0.
215  2.14  0.  0.  0.
216  2.15  0.  0.  0.
217  2.16  0.  0.  0.
218  2.17  0.  0.  0.
219  2.18  0.  0.  0.
220  2.19  0.  0.  0.
221  2.20  0.  0.  0.
222  2.21  0.  0.  0.
223  2.22  0.  0.  0.
224  2.23  0.  0.  0.
225  2.24  0.  0.  0.
226  2.25  0.  0.  0.
227  2.26  0.  0.  0.
228  2.27  0.  0.  0.
229  2.28  0.  0.  0.
230  2.29  0.  0.  0.
231  2.30  0.  0.  0.
232  2.31  0.  0.  0.
233  2.32  0.  0.  0.
234  2.33  0.  0.  0.
235  2.34  0.  0.  0.
236  2.35  0.  0.  0.
237  2.36  0.  0.  0.
238  2.37  0.  0.  0.
239  2.38  0.  0.  0.
240  2.39  0.  0.  0.
241  2.40  0.  0.  0.
242  2.41  0.  0.  0.
243  2.42  0.  0.  0.
244  2.43  0.  0.  0.
245  2.44  0.  0.  0.
246  2.45  0.  0.  0.
247  2.46  0.  0.  0.
248  2.47  0.  0.  0.
249  2.48  0.  0.  0.
250  2.49  0.  0.  0.
251  2.50  0.  0.  0.
252  2.51  0.  0.  0.
253  2.52  0.  0.  0.
254  2.53  0.  0.  0.
255  2.54  0.  0.  0.
256  2.55  0.  0.  0.
257  2.56  0.  0.  0.
258  2.57  0.  0.  0.
259  2.58  0.  0.  0.
260  2.59  0.  0.  0.
261  2.60  0.  0.  0.
262  2.61  0.  0.  0.
263  2.62  0.  0.  0.
264  2.63  0.  0.  0.
265  2.64  0.  0.  0.
266  2.65  0.  0.  0.
267  2.66  0.  0.  0.
268  2.67  0.  0.  0.
269  2.68  0.  0.  0.
270  2.69  0.  0.  0.
271  2.70  0.  0.  0.
272  2.71  0.  0.  0.
273  2.72  0.  0.  0.
274  2.73  0.  0.  0.
275  2.74  0.  0.  0.
276  2.75  0.  0.  0.
277  2.76  0.  0.  0.
278  2.77  0.  0.  0.
279  2.78  0.  0.  0.
280  2.79  0.  0.  0.
281  2.80  0.  0.  0.
282  2.81  0.  0.  0.
283  2.82  0.  0.  0.
284  2.83  0.  0.  0.
285  2.84  0.  0.  0.
286  2.85  0.  0.  0.
287  2.86  0.  0.  0.
288  2.87  0.  0.  0.
289  2.88  0.  0.  0.
290  2.89  0.  0.  0.
291  2.90  0.  0.  0.
292  2.91  0.  0.  0.
293  2.92  0.  0.  0.
294  2.93  0.  0.  0.
295  2.94  0.  0.  0.
296  2.95  0.  0.  0.
297  2.96  0.  0.  0.
298  2.97  0.  0.  0.
299  2.98  0.  0.  0.
300  2.99  0.  0.  0.
301  3.00  0.  0.  0.
302  3.01  0.  0.  0.
303  3.02  0.  0.  0.
304  3.03  0.  0.  0.
305  3.04  0.  0.  0.
306  3.05  0.  0.  0.
307  3.06  0.  0.  0.
308  3.07  0.  0.  0.
309  3.08  0.  0.  0.
310  3.09  0.  0.  0.
311  3.10  0.  0.  0.
312  3.11  0.  0.  0.
313  3.12  0.  0.  0.
314  3.13  0.  0.  0.
315  3.14  0.  0.  0.
316  3.15  0.  0.  0.
317  3.16  0.  0.  0.
318  3.17  0.  0.  0.
319  3.18  0.  0.  0.
320  3.19  0.  0.  0.
321  3.20  0.  0.  0.
322  3.21  0.  0.  0.
323  3.22  0.  0.  0.
324  3.23  0.  0.  0.
325  3.24  0.  0.  0.
326  3.25  0.  0.  0.
327  3.26  0.  0.  0.
328  3.27  0.  0.  0.
329  3.28  0.  0.  0.
330  3.29  0.  0.  0.
331  3.30  0.  0.  0.
332  3.31  0.  0.  0.
333  3.32  0.  0.  0.
334  3.33  0.  0.  0.
335  3.34  0.  0.  0.
336  3.35  0.  0.  0.
337  3.36  0.  0.  0.
338  3.37  0.  0.  0.
339  3.38  0.  0.  0.
340  3.39  0.  0.  0.
341  3.40  0.  0.  0.
342  3.41  0.  0.  0.
343  3.42  0.  0.  0.
344  3.43  0.  0.  0.
345  3.44  0.  0.  0.
346  3.45  0.  0.  0.
347  3.46  0.  0.  0.
348  3.47  0.  0.  0.
349  3.48  0.  0.  0.
350  3.49  0.  0.  0.
351  3.50  0.  0.  0.
352  3.51  0.  0.  0.
353  3.52  0.  0.  0.
354  3.53  0.  0.  0.
355  3.54  0.  0.  0.
356  3.55  0.  0.  0.
357  3.56  0.  0.  0.
358  3.57  0.  0.  0.
359  3.58  0.  0.  0.
360  3.59  0.  0.  0.
361  3.60  0.  0.  0.
362  3.61  0.  0.  0.
363  3.62  0.  0.  0.
364  3.63  0.  0.  0.
365  3.64  0.  0.  0.
366  3.65  0.  0.  0.
367  3.66  0.  0.  0.
368  3.67  0.  0.  0.
369  3.68  0.  0.  0.
370  3.69  0.  0.  0.
371  3.70  0.  0.  0.
372  3.71  0.  0.  0.
373  3.72  0.  0.  0.
374  3.73  0.  0.  0.
375  3.74  0.  0.  0.
376  3.75  0.  0.  0.
377  3.76  0.  0.  0.
378  3.77  0.  0.  0.
379  3.78  0.  0.  0.
380  3.79  0.  0.  0.
381  3.80  0.  0.  0.
382  3.81  0.  0.  0.
383  3.82  0.  0.  0.
384  3.83  0.  0.  0.
385  3.84  0.  0.  0.
386  3.85  0.  0.  0.
387  3.86  0.  0.  0.
388  3.87  0.  0.  0.
389  3.88  0.  0.  0.
390  3.89  0.  0.  0.
391  3.90  0.  0.  0.
392  3.91  0.  0.  0.
393  3.92  0.  0.  0.
394  3.93  0.  0.  0.
395  3.94  0.  0.  0.
396  3.95  0.  0.  0.
397  3.96  0.  0.  0.
398  3.97  0.  0.  0.
399  3.98  0.  0.  0.
400  3.99  0.  0.  0.
401  4.00  0.  0.  0.
402  4.01  0.  0.  0.
403  4.02  0.  0.  0.
404  4.03  0.  0.  0.
405  4.04  0.  0.  0.
406  4.05  0.  0.  0.
407  4.06  0.  0.  0.
408  4.07  0.  0.  0.
409  4.08  0.  0.  0.
410  4.09  0.  0.  0.
411  4.10  0.  0.  0.
412  4.11  0.  0.  0.
413  4.12  0.  0.  0.
414  4.13  0.  0.  0.
415  4.14  0.  0.  0.
416  4.15  0.  0.  0.
417  4.16  0.  0.  0.
418  4.17  0.  0.  0.
419  4.18  0.  0.  0.
420  4.19  0.  0.  0.
421  4.20  0.  0.  0.
422  4.21  0.  0.  0.
423  4.22  0.  0.  0.
424  4.23  0.  0.  0.
425  4.24  0.  0.  0.
426  4.25  0.  0.  0.
427  4.26  0.  0.  0.
428  4.27  0.  0.  0.
429  4.28  0.  0.  0.
430  4.29  0.  0.  0.
431  4.30  0.  0.  0.
432  4.31  0.  0.  0.
433  4.32  0.  0.  0.
434  4.33  0.  0.  0.
435  4.34  0.  0.  0.
436  4.35  0.  0.  0.
437  4.36  0.  0.  0.
438  4.37  0.  0.  0.
439  4.38  0.  0.  0.
440  4.39  0.  0.  0.
441  4.40  0.  0.  0.
442  4.41  0.  0.  0.
443  4.42  0.  0.  0.
444  4.43  0.  0.  0.
445  4.44  0.  0.  0.
446  4.45  0.  0.  0.
447  4.46  0.  0.  0.
448  4.47  0.  0.  0.
449  4.48  0.  0.  0.
450  4.49  0.  0.  0.
451  4.50  0.  0.  0.
452  4.51  0.  0.  0.
453  4.52  0.  0.  0.
454  4.53  0.  0.  0.
455  4.54  0.  0.  0.
456  4.55  0.  0.  0.
457  4.56  0.  0.  0.
458  4.57  0.  0.  0.
459  4.58  0.  0.  0.
460  4.59  0.  0.  0.
461  4.60  0.  0.  0.
462  4.61  0.  0.  0.
463  4.62  0.  0.  0.
464  4.63  0.  0.  0.
465  4.64  0.  0.  0.
466  4.65  0.  0.  0.
467  4.66  0.  0.  0.
468  4.67  0.  0.  0.
469  4.68  0.  0.  0.
470  4.69  0.  0.  0.
471  4.70  0.  0.  0.
472  4.71  0.  0.  0.
473  4.72  0.  0.  0.
474  4.73  0.  0.  0.
475  4.74  0.  0.  0.
476  4.75  0.  0.  0.
477  4.76  0.  0.  0.
478  4.77  0.  0.  0.
479  4.78  0.  0.  0.
480  4.79  0.  0.  0.
481  4.80  0.  0.  0.
482  4.81  0.  0.  0.
483  4.82  0.  0.  0.
484  4.83  0.  0.  0.
485  4.84  0.  0.  0.
486  4.85  0.  0.  0.
487  4.86  0.  0.  0.
488  4.87  0.  0.  0.
489  4.88  0.  0.  0.
490  4.89  0.  0.  0.
491  4.90  0.  0.  0.
492  4.91  0.  0.  0.
493  4.92  0.  0.  0.
494  4.93  0.  0.  0.
495  4.94  0.  0.  0.
496  4.95  0.  0.  0.
497  4.96  0.  0.  0.
498  4.97  0.  0.  0.
499  4.98  0.  0.  0.
500  4.99  0.  0.  0.
501  5.00  0.  0.  0.
502  5.01  0.  0.  0.
503  5.02  0.  0.  0.
504  5.03  0.  0.  0.
505  5.04  0.  0.  0.
506  5.05  0.  0.  0.
507  5.06  0.  0.  0.
508  5.07  0.  0.  0.
509  5.08  0.  0.  0.
510  5.09  0.  0.  0.
511  5.10  0.  0.  0.
512  5.11  0.  0.  0.
513  5.12  0.  0.  0.
514  5.13  0.  0.  0.
515  5.14  0.  0.  0.
516  5.15  0.  0.  0.
517  5.16  0.  0.  0.
518  5.17  0.  0.  0.
519  5.18  0.  0.  0.
520  5.19  0.  0.  0.
521  5.20  0.  0.  0.
522  5.21  0.  0.  0.
523  5.22  0.  0.  0.
524  5.23  0.  0.  0.
525  5.24  0.  0.  0.
526  5.25  0.  0.  0.
527  5.26  0.  0.  0.
528  5.27  0.  0.  0.
529  5.28  0.  0.  0.
530  5.29  0.  0.  0.
531  5.30  0.  0.  0.
532  5.31  0.  0.  0.
533  5.32  0.  0.  0.
534  5.33  0.  0.  0.
535  5.34  0.  0.  0.
536  5.35  0.  0.  0.
537  5.36  0.  0.  0.
538  5.37  0.  0.  0.
539  5.38  0.  0.  0.
540  5.39  0.  0.  0.
541  5.40  0.  0.  0.
542  5.41  0.  0.  0.
543  5.42  0.  0.  0.
544  5.43  0.  0.  0.
545  5.44  0.  0.  0.
546  5.45  0.  0.  0.
547  5.46  0.  0.  0.
548  5.47  0.  0.  0.
549  5.48  0.  0.  0.
550  5.49  0.  0.  0.
551  5.50  0.  0.  0.
552  5.51  0.  0.  0.
553  5.52  0.  0.  0.
554  5.53  0.  0.  0.
555  5.54  0.  0.  0.
556  5.55  0.  0.  0.
557  5.56  0.  0.  0.
558  5.57  0.  0.  0.
559  5.58  0.  0.  0.
560  5.59  0.  0.  0.
561  5.60  0.  0.  0.
562  5.61  0.  0.  0.
563  5.62  0.  0.  0.
564  5.63  0.  0.  0.
565  5.64  0.  0.  0.
566  5.65  0.  0.  0.
567  5.66  0.  0.  0.
568  5.67  0.  0.  0.
569  5.68  0.  0.  0.
570  5.69  0.  0.  0.
571  5.70  0.  0.  0.
572  5.71  0.  0.  0.
573  5.72  0.  0.  0.
574  5.73  0.  0.  0.
575  5.74  0.  0.  0.
576  5.75  0.  0.  0.
577  5.76  0.  0.  0.
578  5.77  0.  0.  0.
579  5.78  0.  0.  0.
580  5.79  0.  0.  0.
581  5.80  0.  0.  0.
582  5.81  0.  0.  0.
583  5.82  0.  0.  0.
584  5.83  0.  0.  0.
585  5.84  0.  0.  0.
586  5.85  0.  0.  0.
587  5.86  0.  0.  0.
588  5.87  0.  0.  0.
589  5.88  0.  0.  0.
590  5.89  0.  0.  0.
591  5.90  0.  0.  0.
592  5.91  0.  0.  0.
593  5.92  0.  0.  0.
594  5.93  0.  0.  0.
595  5.94  0.  0.  0.
596  5.95  0.  0.  0.
597  5.96  0.  0.  0.
598  5.97  0.  0.  0.
599  5.98  0.  0.  0.
600  5.99  0.  0.  0.
1                        -7.4927806094889E+00  3.3424675802888E+00
1  0.0000000000000E+00  1.7184708239748E-08  2.5358991242314E-07
2  1.0000000000000E-02  2.4681342623179E-03  1.0089893389582E-03
3  2.0000000000000E-02  9.8508415910861E-03  3.9299193963450E-03
4  3.0000000000000E-02  2.2083428904370E-02  8.4492538741812E-03
5  4.0000000000000E-02  3.9059373507476E-02  1.4059510629375E-02
6  5.0000000000000E-02  6.0632230650982E-02  2.0081255352751E-02
7  6.0000000000000E-02  8.6618223432116E-02  2.5692670006044E-02
8  7.0000000000000E-02  1.1679943786934E-01  2.9965530622432E-02
9  8.0000000000000E-02  1.5092752879528E-01  3.1906175486263E-02
10  9.0000000000000E-02  1.8872782842015E-01  3.0499846380136E-02
11  1.0000000000000E-01  2.2990373949709E-01  2.4756650253715E-02
12  1.1000000000000E-01  2.7414128930779E-01  1.3757321623137E-02
13  1.2000000000000E-01  3.2111371935515E-01 -3.3030301129122E-03
14  1.3000000000000E-01  3.7048598870980E-01 -2.7074929572315E-02
15  1.4000000000000E-01  4.2191907625311E-01 -5.8019899013008E-02
16  1.5000000000000E-01  4.7507397827417E-01 -9.6382570140768E-02
17  1.6000000000000E-01  5.2961531255285E-01 -1.4217067801517E-01
18  1.7000000000000E-01  5.8521445760204E-01 -1.9514376698362E-01
19  1.8000000000000E-01  6.4155217545691E-01 -2.5481110193761E-01
20  1.9000000000000E-01  6.9832068751040E-01 -3.2043892195963E-01
21  2.0000000000000E-01  7.5522519458239E-01 -3.9106681144758E-01
22  2.1000000000000E-01  8.1198485383308E-01 -4.6553261013455E-01
23  2.2000000000000E-01  8.6833324546823E-01 -5.4250495182646E-01
24  2.3000000000000E-01  9.2401838065634E-01 -6.2052222507944E-01
25  2.4000000000000E-01  9.7880231798895E-01 -6.9803649901344E-01
26  2.5000000000000E-01  1.0324604685680E+00 -7.7346076380094E-01
27  2.6000000000000E-01  1.0847806789315E+00 -8.4521770570631E-01
28  2.7000000000000E-01  1.1355621862063E+00 -9.1178817603937E-01
29  2.8000000000000E-01  1.1846145409365E+00 -9.7175752452320E-01
30  2.9000000000000E-01  1.2317565899747E+00 -1.0238580500850E+00
31  3.0000000000000E-01  1.2768156047980E+00 -1.0670059729262E+00
32  3.1000000000000E-01  1.3196266299351E+00 -1.1003315452286E+00
33  3.2000000000000E-01  1.3600321123283E+00 -1.1232011858863E+00
34  3.3000000000000E-01  1.3978818559795E+00 -1.1352308369590E+00
35  3.4000000000000E-01  1.4330333278433E+00 -1.1362900841310E+00
36  3.5000000000000E-01  1.4653523213849E+00 -1.1264969470264E+00
37  3.6000000000000E-01  1.4947139643385E+00 -1.1062036137202E+00
38  3.7000000000000E-01  1.5210040378019E+00 -1.0759737528419E+00
39  3.8000000000000E-01  1.5441205557014E+00 -1.0365523722884E+00
40  3.9000000000000E-01  1.5639755376193E+00 -9.8882949250993E-01
41  4.0000000000000E-01  1.5804968946783E+00 -9.3379915277073E-01
42  4.1000000000000E-01  1.5936303382033E+00 -8.7251546060974E-01
43  4.2000000000000E-01  1.6033412146892E+00 -8.0604752006801E-01
44  4.3000000000000E-01  1.6096161684864E+00 -7.3543512770023E-01
45  4.4000000000000E-01  1.6124645357452E+00 -6.6164710427697E-01
46  4.5000000000000E-01  1.6119193794887E+00 -5.8554403455731E-01
47  4.6000000000000E-01  1.6080380860577E+00 -5.0784702057886E-01
48  4.7000000000000E-01  1.6009024572229E+00 -4.2911382131640E-01
49  4.8000000000000E-01  1.5906182495072E+00 -3.4972346162551E-01
50  4.9000000000000E-01  1.5773141320815E+00 -2.6987005668307E-01
51  5.0000000000000E-01  1.5611400562471E+00 -1.8956622714075E-01
52  5.1000000000000E-01  1.5422650521932E+00 -1.0865608882367E-01
53  5.2000000000000E-01  1.5208744915369E+00 -2.6837403882020E-02
54  5.3000000000000E-01  1.4971668762401E+00  5.6307906926696E-02
55  5.4000000000000E-01  1.4713502349633E+00  1.4127605362472E-01
56  5.5000000000000E-01  1.4436382259398E+00  2.2859795426235E-01
57  5.6000000000000E-01  1.4142460602773E+00  3.1879185747510E-01
58  5.7000000000000E-01  1.3833863705726E+00  4.1231397563306E-01
59  5.8000000000000E-01  1.3512651563441E+00  5.0950922920735E-01
60  5.9000000000000E-01  1.3180779396910E+00  6.1056425932860E-01
61  6.0000000000000E-01  1.2840062615784E+00  7.1546483921582E-01
62  6.1000000000000E-01  1.2492146412214E+00  8.2395970557948E-01
63  6.2000000000000E-01  1.2138481083634E+00  9.3553264070251E-01
64  6.3000000000000E-01  1.1780304011683E+00  1.0493843701697E+00
65  6.4000000000000E-01  1.1418629014929E+00  1.1644255085334E+00
66  6.5000000000000E-01  1.1054243551477E+00  1.2792813965815E+00
67  6.6000000000000E-01  1.0687713981990E+00  1.3923092425793E+00
68  6.7000000000000E-01  1.0319398823241E+00  1.5016275209889E+00
69  6.8000000000000E-01  9.9494696369047E-01  1.6051571121530E+00
70  6.9000000000000E-01  9.5779389181151E-01  1.7006732023350E+00
71  7.0000000000000E-01  9.2046940837339E-01  1.7858665226945E+00
72  7.1000000000000E-01  8.8295364211071E-01  1.8584121048827E+00
73  7.2000000000000E-01  8.4522236537634E-01  1.9160433857489E+00
74  7.3000000000000E-01  8.0725146190764E-01  1.9566292179896E+00
75  7.4000000000000E-01  7.6902144413232E-01  1.9782511492717E+00
76  7.5000000000000E-01  7.3052185269731E-01  1.9792782283717E+00
77  7.6000000000000E-01  6.9175537108001E-01  1.9584365891939E+00
78  7.7000000000000E-01  6.5274149428452E-01  1.9148711547533E+00
79  7.8000000000000E-01  6.1351960265850E-01  1.8481969924155E+00
80  7.9000000000000E-01  5.7415130949721E-01  1.7585381344488E+00
81  8.0000000000000E-01  5.3472197383317E-01  1.6465520463374E+00
82  8.1000000000000E-01  4.9534129695018E-01  1.5134383681605E+00
83  8.2000000000000E-01  4.5614295184502E-01  1.3609310575947E+00
84  8.3000000000000E-01  4.1728322807854E-01  1.1912736101821E+00
85  8.4000000000000E-01  3.7893870908505E-01  1.0071776049505E+00
86  8.5000000000000E-01  3.4130303384643E-01  8.1176540145639E-01
87  8.6000000000000E-01  3.0458282865018E-01  6.0849837743839E-01
88  8.7000000000000E-01  2.6899292621327E-01  4.0109262415282E-01
89  8.8000000000000E-01  2.3475101759392E-01  1.9342448959530E-01
90  8.9000000000000E-01  2.0207190595344E-01 -1.0571239807830E-02
91  9.0000000000000E-01  1.7116154942910E-01 -2.0700741662251E-01
92  9.1000000000000E-01  1.4221109236894E-01 -3.9215155620864E-01
93  9.2000000000000E-01  1.1539108939496E-01 -5.6253039499371E-01
94  9.3000000000000E-01  9.0846124868075E-02 -7.1502858914979E-01
95  9.4000000000000E-01  6.8690021232155E-02 -8.4697829631789E-01
96  9.5000000000000E-01  4.9001813585898E-02 -9.5623663615761E-01
97  9.6000000000000E-01  3.1822645077333E-02 -1.0412483886209E+00
98  9.7000000000000E-01  1.7153709002519E-02 -1.1010917512812E+00
99  9.8000000000000E-01  4.9553296994935E-03 -1.1355055245008E+00
100  9.9000000000000E-01 -4.8527634553960E-03 -1.1448967080362E+00
101  1.0000000000000E+00 -1.2389955169320E-02 -1.1303281544524E+00
102  1.0100000000000E+00 -1.7812084621868E-02 -1.0934866114204E+00
103  1.0200000000000E+00 -2.1307677130659E-02 -1.0366321725203E+00
104  1.0300000000000E+00 -2.3093177424655E-02 -9.6253082031836E-01
105  1.0400000000000E+00 -2.3407332279439E-02 -8.7437236386580E-01
106  1.0500000000000E+00 -2.2504903326584E-02 -7.7567662112826E-01
107  1.0600000000000E+00 -2.0649918401498E-02 -6.7019115632458E-01
108  1.0700000000000E+00 -1.8108690795481E-02 -5.6178423539268E-01
109  1.0800000000000E+00 -1.5142852323341E-02 -4.5433695007128E-01
110  1.0900000000000E+00 -1.2002634677398E-02 -3.5163819402210E-01
111  1.1000000000000E+00 -8.9184247107353E-03 -2.5724591518342E-01
112  1.1100000000000E+00 -6.0795647091327E-03 -1.7409744339435E-01
113  1.1200000000000E+00 -3.6700670399010E-03 -1.0517872467462E-01
114  1.1300000000000E+00 -1.8252295652650E-03 -5.2763125051886E-02
115  1.1400000000000E+00 -6.1742673192441E-04 -1.8154663418418E-02
116  1.1500000000000E+00 -5.9691769284271E-05 -1.8031625030492E-03
117  1.1600000000000E+00  2.6063435691157E-06  8.0285266483262E-05
118  1.1700000000000E+00  2.7140419769781E-07  8.1341381499275E-06
119  1.18  0.  0.
120  1.19  0.  0.
121  1.20  0.  0.
122  1.21  0.  0.
123  1.22  0.  0.
124  1.23  0.  0.
125  1.24  0.  0.
126  1.25  0.  0.
127  1.26  0.  0.
128  1.27  0.  0.
129  1.28  0.  0.
130  1.29  0.  0.
131  1.30  0.  0.
132  1.31  0.  0.
133  1.32  0.  0.
134  1.33  0.  0.
135  1.34  0.  0.
136  1.35  0.  0.
137  1.36  0.  0.
138  1.37  0.  0.
139  1.38  0.  0.
140  1.39  0.  0.
141  1.40  0.  0.
142  1.41  0.  0.
143  1.42  0.  0.
144  1.43  0.  0.
145  1.44  0.  0.
146  1.45  0.  0.
147  1.46  0.  0.
148  1.47  0.  0.
149  1.48  0.  0.
150  1.49  0.  0.
151  1.50  0.  0.
152  1.51  0.  0.
153  1.52  0.  0.
154  1.53  0.  0.
155  1.54  0.  0.
156  1.55  0.  0.
157  1.56  0.  0.
158  1.57  0.  0.
159  1.58  0.  0.
160  1.59  0.  0.
161  1.60  0.  0.
162  1.61  0.  0.
163  1.62  0.  0.
164  1.63  0.  0.
165  1.64  0.  0.
166  1.65  0.  0.
167  1.66  0.  0.
168  1.67  0.  0.
169  1.68  0.  0.
170  1.69  0.  0.
171  1.70  0.  0.
172  1.71  0.  0.
173  1.72  0.  0.
174  1.73  0.  0.
175  1.74  0.  0.
176  1.75  0.  0.
177  1.76  0.  0.
178  1.77  0.  0.
179  1.78  0.  0.
180  1.79  0.  0.
181  1.80  0.  0.
182  1.81  0.  0.
183  1.82  0.  0.