Rf    ONCVPSP-4.0.1  r_core=   1.10045   1.30111   1.20376   1.20376
    104.0000     44.0000      211119    zatom,zion,pspd
     8      11   3     4   600     0    pspcod,pspxc,lmax,lloc,mmax,r2well
  5.99000000  4.85450000  0.00000000    rchrg fchrg qchrg
     3     2     2     2     0    nproj
     1     1           extension_switch
   0                         2.4481727272592E+01 -8.6385361887408E+00 -2.8699273427374E-01
     1  0.0000000000000E+00 -3.3166440038812E-08 -1.9919268456903E-09  2.3805439064439E-07
     2  1.0000000000000E-02  2.1290584853315E-01  4.0859242052041E-02 -1.1952277592990E-01
     3  2.0000000000000E-02  4.2368069985250E-01  8.1761737833942E-02 -2.3631460325494E-01
     4  3.0000000000000E-02  6.3022062626789E-01  1.2275010134036E-01 -3.4771480276901E-01
     5  4.0000000000000E-02  8.3047540649294E-01  1.6386566080214E-01 -4.5120121601096E-01
     6  5.0000000000000E-02  1.0224743061024E+00  2.0514780062975E-01 -5.4445448572024E-01
     7  6.0000000000000E-02  1.2043505952821E+00  2.4663328668738E-01 -6.2541654065645E-01
     8  7.0000000000000E-02  1.3743644232522E+00  2.8835557183382E-01 -6.9234164643528E-01
     9  8.0000000000000E-02  1.5309237019116E+00  3.3034408065863E-01 -7.4383862208767E-01
    10  9.0000000000000E-02  1.6726026910594E+00  3.7262347465784E-01 -7.7890310330965E-01
    11  1.0000000000000E-01  1.7981580229720E+00  4.1521290162891E-01 -7.9693904788585E-01
    12  1.1000000000000E-01  1.9065419540135E+00  4.5812523570318E-01 -7.9776901550349E-01
    13  1.2000000000000E-01  1.9969126840672E+00  5.0136631705344E-01 -7.8163310137610E-01
    14  1.3000000000000E-01  2.0686416396188E+00  5.4493420279304E-01 -7.4917674879839E-01
    15  1.4000000000000E-01  2.1213176719663E+00  5.8881844280041E-01 -7.0142799817553E-01
    16  1.5000000000000E-01  2.1547481769961E+00  6.3299939605165E-01 -6.3976503809432E-01
    17  1.6000000000000E-01  2.1689571960117E+00  6.7744760442661E-01 -5.6587519753761E-01
    18  1.7000000000000E-01  2.1641806071081E+00  7.2212324179256E-01 -4.8170674873060E-01
    19  1.8000000000000E-01  2.1408585625264E+00  7.6697565640780E-01 -3.8941507040402E-01
    20  1.9000000000000E-01  2.0996253684575E+00  8.1194302428995E-01 -2.9130484644688E-01
    21  2.0000000000000E-01  2.0412970391936E+00  8.5695213015160E-01 -1.8977004211253E-01
    22  2.1000000000000E-01  1.9668567868459E+00  9.0191829083483E-01 -8.7233408398655E-02
    23  2.2000000000000E-01  1.8774387307476E+00  9.4674543391621E-01  1.3912783639560E-02
    24  2.3000000000000E-01  1.7743101270001E+00  9.9132634136800E-01  1.1136317958539E-01
    25  2.4000000000000E-01  1.6588524284665E+00  1.0355430649327E+00  2.0295150151539E-01
    26  2.5000000000000E-01  1.5325414890713E+00  1.0792675162981E+00  2.8669717588389E-01
    27  2.6000000000000E-01  1.3969272239192E+00  1.1223622313616E+00  3.6084540028430E-01
    28  2.7000000000000E-01  1.2536130289788E+00  1.1646813039674E+00  4.2389986988116E-01
    29  2.8000000000000E-01  1.1042352515086E+00  1.2060714806159E+00  4.7464764839527E-01
    30  2.9000000000000E-01  9.5044298569836E-01  1.2463734039061E+00  5.1217593672596E-01
    31  3.0000000000000E-01  7.9387844789045E-01  1.2854229889978E+00  5.3588075476800E-01
    32  3.1000000000000E-01  6.3615816297560E-01  1.3230529142800E+00  5.4546779950965E-01
    33  3.2000000000000E-01  4.7885516886643E-01  1.3590942048028E+00  5.4094596671045E-01
    34  3.3000000000000E-01  3.2348242003905E-01  1.3933778849469E+00  5.2261421732125E-01
    35  3.4000000000000E-01  1.7147754465862E-01  1.4257366753269E+00  4.9104262760660E-01
    36  3.5000000000000E-01  2.4189083344816E-02  1.4560067080849E+00  4.4704857972126E-01
    37  3.6000000000000E-01 -1.1713568831191E-01  1.4840292345468E+00  3.9166912497529E-01
    38  3.7000000000000E-01 -2.5136127639703E-01  1.5096522996675E+00  3.2613058472132E-01
    39  3.8000000000000E-01 -3.7747277118913E-01  1.5327323587568E+00  2.5181644492547E-01
    40  3.9000000000000E-01 -4.9458290460602E-01  1.5531358136001E+00  1.7023455293042E-01
    41  4.0000000000000E-01 -6.0193735241867E-01  1.5707404471955E+00  8.2984542927746E-02
    42  4.1000000000000E-01 -6.9891829024302E-01  1.5854367388386E+00 -8.2736942111902E-03
    43  4.2000000000000E-01 -7.8504622990506E-01  1.5971290441030E+00 -1.0184981443702E-01
    44  4.3000000000000E-01 -8.5998017885992E-01  1.6057366272836E+00 -1.9605056372892E-01
    45  4.4000000000000E-01 -9.2351618004976E-01  1.6111945369886E+00 -2.8920468401573E-01
    46  4.5000000000000E-01 -9.7558430305489E-01  1.6134543186810E+00 -3.7968496198917E-01
    47  4.6000000000000E-01 -1.0162441697786E+00  1.6124845609806E+00 -4.6592735159710E-01
    48  4.7000000000000E-01 -1.0456791093494E+00  1.6082712753612E+00 -5.4644723858800E-01
    49  4.8000000000000E-01 -1.0641890475466E+00  1.6008181114288E+00 -6.1985303438093E-01
    50  4.9000000000000E-01 -1.0721822459421E+00  1.5901464121969E+00 -6.8485738227573E-01
    51  5.0000000000000E-01 -1.0701660151416E+00  1.5762951156242E+00 -7.4028632825970E-01
    52  5.1000000000000E-01 -1.0587365350027E+00  1.5593205101390E+00 -7.8508684948369E-01
    53  5.2000000000000E-01 -1.0385679224491E+00  1.5392958529209E+00 -8.1833314532552E-01
    54  5.3000000000000E-01 -1.0104006943801E+00  1.5163108603653E+00 -8.3923207965250E-01
    55  5.4000000000000E-01 -9.7502977905491E-01  1.4904710804351E+00 -8.4712812057305E-01
    56  5.5000000000000E-01 -9.3329223401639E-01  1.4618971565638E+00 -8.4150805894512E-01
    57  5.6000000000000E-01 -8.8605483191023E-01  1.4307239924515E+00 -8.2200570349550E-01
    58  5.7000000000000E-01 -8.3420167721639E-01  1.3970998265720E+00 -7.8840665371583E-01
    59  5.8000000000000E-01 -7.7862201672538E-01  1.3611852245392E+00 -7.4065314737832E-01
    60  5.9000000000000E-01 -7.2019840434379E-01  1.3231519967521E+00 -6.7884887351977E-01
    61  6.0000000000000E-01 -6.5979537632141E-01  1.2831820480137E+00 -6.0326354002723E-01
    62  6.1000000000000E-01 -5.9824878611335E-01  1.2414661651716E+00 -5.1433689325059E-01
    63  6.2000000000000E-01 -5.3635593873550E-01  1.1982027483224E+00 -4.1268181060289E-01
    64  6.3000000000000E-01 -4.7486665261813E-01  1.1535964908057E+00 -2.9908603039464E-01
    65  6.4000000000000E-01 -4.1447536265543E-01  1.1078570131303E+00 -1.7451204980936E-01
    66  6.5000000000000E-01 -3.5581436151506E-01  1.0611974561526E+00 -4.0094714502766E-02
    67  6.6000000000000E-01 -2.9944825751297E-01  1.0138330392682E+00  1.0286395679608E-01
    68  6.7000000000000E-01 -2.4586970675564E-01  9.6597959009414E-01  2.5290312191081E-01
    69  6.8000000000000E-01 -1.9549645516003E-01  9.1785205307172E-01  4.0841497447259E-01
    70  6.9000000000000E-01 -1.4866970279594E-01  8.6966298559084E-01  5.6766035013760E-01
    71  7.0000000000000E-01 -1.0565377923506E-01  8.2162105156831E-01  7.2878819814095E-01
    72  7.1000000000000E-01 -6.6637094746005E-02  7.7392952385022E-01  8.8985890094728E-01
    73  7.2000000000000E-01 -3.1734308794395E-02  7.2678480828215E-01  1.0488712775869E+00
    74  7.3000000000000E-01 -9.8963493837544E-04  6.8037500372766E-01  1.2037929531396E+00
    75  7.4000000000000E-01  2.5618819591743E-02  6.3487851363615E-01  1.3525936238319E+00
    76  7.5000000000000E-01  4.8173800055729E-02  5.9046272588917E-01  1.4932806004699E+00
    77  7.6000000000000E-01  6.6812872674356E-02  5.4728277851304E-01  1.6239358785547E+00
    78  7.7000000000000E-01  8.1721765111059E-02  5.0548042936703E-01  1.7427538671917E+00
    79  7.8000000000000E-01  9.3127238436415E-02  4.6518304803885E-01  1.8480788160705E+00
    80  7.9000000000000E-01  1.0128965617193E-01  4.2650274785277E-01  1.9384409148936E+00
    81  8.0000000000000E-01  1.0649541829542E-01  3.8953567508418E-01  2.0125900063743E+00
    82  8.1000000000000E-01  1.0904942644625E-01  3.5436147115427E-01  2.0695258549617E+00
    83  8.2000000000000E-01  1.0926774099622E-01  3.2104292174387E-01  2.1085239504142E+00
    84  8.3000000000000E-01  1.0747058125847E-01  2.8962580442435E-01  2.1291558986709E+00
    85  8.4000000000000E-01  1.0397580709129E-01  2.6013894358221E-01  2.1313035615033E+00
    86  8.5000000000000E-01  9.9093003810122E-02  2.3259447815161E-01  2.1151662493492E+00
    87  8.6000000000000E-01  9.3118273022098E-02  2.0698834402112E-01  2.0812604457246E+00
    88  8.7000000000000E-01  8.6329810192328E-02  1.8330096901512E-01  2.0304117428187E+00
    89  8.8000000000000E-01  7.8984325941957E-02  1.6149817414366E-01  1.9637388917403E+00
    90  8.9000000000000E-01  7.1314342818456E-02  1.4153227045583E-01  1.8826301120324E+00
    91  9.0000000000000E-01  6.3526373148236E-02  1.2334333641263E-01  1.7887120577121E+00
    92  9.1000000000000E-01  5.5799957174646E-02  1.0686065631363E-01  1.6838120950667E+00
    93  9.2000000000000E-01  4.8287514597110E-02  9.2004296065009E-02  1.5699148044104E+00
    94  9.3000000000000E-01  4.1114937436722E-02  7.8686788561414E-02  1.4491138676906E+00
    95  9.4000000000000E-01  3.4382828408564E-02  6.6814897262434E-02  1.3235607401384E+00
    96  9.5000000000000E-01  2.8168267190442E-02  5.6291423263106E-02  1.1954117212903E+00
    97  9.6000000000000E-01  2.2526967589357E-02  4.7017018363314E-02  1.0667752334780E+00
    98  9.7000000000000E-01  1.7495672015131E-02  3.8891964401239E-02  9.3966127959523E-01
    99  9.8000000000000E-01  1.3094616193938E-02  3.1817877486608E-02  8.1593518270603E-01
   100  9.9000000000000E-01  9.3298869370449E-03  2.5699294792912E-02  6.9727780474089E-01
   101  1.0000000000000E+00  6.1954891863809E-03  2.0445101272229E-02  5.8515449789675E-01
   102  1.0100000000000E+00  3.6749355772492E-03  1.5969754057538E-02  4.8079505899107E-01
   103  1.0200000000000E+00  1.7421723999735E-03  1.2194263415229E-02  3.8518693342139E-01
   104  1.0300000000000E+00  3.6166319463903E-04  9.0468920512118E-03  2.9908382227650E-01
   105  1.0400000000000E+00 -5.1251567498810E-04  6.4635376050851E-03  2.2303155464040E-01
   106  1.0500000000000E+00 -9.4845648253156E-04  4.3842238943990E-03  1.5750452275194E-01
   107  1.0600000000000E+00 -1.0618872722936E-03  2.7423777110529E-03  1.0319207680435E-01
   108  1.0700000000000E+00 -9.0365890497952E-04  1.5088665072449E-03  5.9970738855501E-02
   109  1.0800000000000E+00 -5.6503008061605E-04  6.5900597163671E-04  2.7924939847449E-02
   110  1.0900000000000E+00 -1.9317743956727E-04  1.6530874837590E-04  7.5410799605642E-03
   111  1.1000000000000E+00 -2.1512145790739E-06  1.3993163345250E-06  6.8776400775425E-05
   112  1.1100000000000E+00 -1.4037707931201E-06  9.4507652355564E-07  4.6357709184492E-05
   113  1.1200000000000E+00  3.7096608725292E-08 -2.8102982062801E-08 -1.3295056695367E-06
   114  1.13  0.  0.  0.
   115  1.14  0.  0.  0.
   116  1.15  0.  0.  0.
   117  1.16  0.  0.  0.
   118  1.17  0.  0.  0.
   119  1.18  0.  0.  0.
   120  1.19  0.  0.  0.
   121  1.20  0.  0.  0.
   122  1.21  0.  0.  0.
   123  1.22  0.  0.  0.
   124  1.23  0.  0.  0.
   125  1.24  0.  0.  0.
   126  1.25  0.  0.  0.
   127  1.26  0.  0.  0.
   128  1.27  0.  0.  0.
   129  1.28  0.  0.  0.
   130  1.29  0.  0.  0.
   131  1.30  0.  0.  0.
   132  1.31  0.  0.  0.
   133  1.32  0.  0.  0.
   134  1.33  0.  0.  0.
   135  1.34  0.  0.  0.
   136  1.35  0.  0.  0.
   137  1.36  0.  0.  0.
   138  1.37  0.  0.  0.
   139  1.38  0.  0.  0.
   140  1.39  0.  0.  0.
   141  1.40  0.  0.  0.
   142  1.41  0.  0.  0.
   143  1.42  0.  0.  0.
   144  1.43  0.  0.  0.
   145  1.44  0.  0.  0.
   146  1.45  0.  0.  0.
   147  1.46  0.  0.  0.
   148  1.47  0.  0.  0.
   149  1.48  0.  0.  0.
   150  1.49  0.  0.  0.
   151  1.50  0.  0.  0.
   152  1.51  0.  0.  0.
   153  1.52  0.  0.  0.
   154  1.53  0.  0.  0.
   155  1.54  0.  0.  0.
   156  1.55  0.  0.  0.
   157  1.56  0.  0.  0.
   158  1.57  0.  0.  0.
   159  1.58  0.  0.  0.
   160  1.59  0.  0.  0.
   161  1.60  0.  0.  0.
   162  1.61  0.  0.  0.
   163  1.62  0.  0.  0.
   164  1.63  0.  0.  0.
   165  1.64  0.  0.  0.
   166  1.65  0.  0.  0.
   167  1.66  0.  0.  0.
   168  1.67  0.  0.  0.
   169  1.68  0.  0.  0.
   170  1.69  0.  0.  0.
   171  1.70  0.  0.  0.
   172  1.71  0.  0.  0.
   173  1.72  0.  0.  0.
   174  1.73  0.  0.  0.
   175  1.74  0.  0.  0.
   176  1.75  0.  0.  0.
   177  1.76  0.  0.  0.
   178  1.77  0.  0.  0.
   179  1.78  0.  0.  0.
   180  1.79  0.  0.  0.
   181  1.80  0.  0.  0.
   182  1.81  0.  0.  0.
   183  1.82  0.  0.  0.
   184  1.83  0.  0.  0.
   185  1.84  0.  0.  0.
   186  1.85  0.  0.  0.
   187  1.86  0.  0.  0.
   188  1.87  0.  0.  0.
   189  1.88  0.  0.  0.
   190  1.89  0.  0.  0.
   191  1.90  0.  0.  0.
   192  1.91  0.  0.  0.
   193  1.92  0.  0.  0.
   194  1.93  0.  0.  0.
   195  1.94  0.  0.  0.
   196  1.95  0.  0.  0.
   197  1.96  0.  0.  0.
   198  1.97  0.  0.  0.
   199  1.98  0.  0.  0.
   200  1.99  0.  0.  0.
   201  2.00  0.  0.  0.
   202  2.01  0.  0.  0.
   203  2.02  0.  0.  0.
   204  2.03  0.  0.  0.
   205  2.04  0.  0.  0.
   206  2.05  0.  0.  0.
   207  2.06  0.  0.  0.
   208  2.07  0.  0.  0.
   209  2.08  0.  0.  0.
   210  2.09  0.  0.  0.
   211  2.10  0.  0.  0.
   212  2.11  0.  0.  0.
   213  2.12  0.  0.  0.
   214  2.13  0.  0.  0.
   215  2.14  0.  0.  0.
   216  2.15  0.  0.  0.
   217  2.16  0.  0.  0.
   218  2.17  0.  0.  0.
   219  2.18  0.  0.  0.
   220  2.19  0.  0.  0.
   221  2.20  0.  0.  0.
   222  2.21  0.  0.  0.
   223  2.22  0.  0.  0.
   224  2.23  0.  0.  0.
   225  2.24  0.  0.  0.
   226  2.25  0.  0.  0.
   227  2.26  0.  0.  0.
   228  2.27  0.  0.  0.
   229  2.28  0.  0.  0.
   230  2.29  0.  0.  0.
   231  2.30  0.  0.  0.
   232  2.31  0.  0.  0.
   233  2.32  0.  0.  0.
   234  2.33  0.  0.  0.
   235  2.34  0.  0.  0.
   236  2.35  0.  0.  0.
   237  2.36  0.  0.  0.
   238  2.37  0.  0.  0.
   239  2.38  0.  0.  0.
   240  2.39  0.  0.  0.
   241  2.40  0.  0.  0.
   242  2.41  0.  0.  0.
   243  2.42  0.  0.  0.
   244  2.43  0.  0.  0.
   245  2.44  0.  0.  0.
   246  2.45  0.  0.  0.
   247  2.46  0.  0.  0.
   248  2.47  0.  0.  0.
   249  2.48  0.  0.  0.
   250  2.49  0.  0.  0.
   251  2.50  0.  0.  0.
   252  2.51  0.  0.  0.
   253  2.52  0.  0.  0.
   254  2.53  0.  0.  0.
   255  2.54  0.  0.  0.
   256  2.55  0.  0.  0.
   257  2.56  0.  0.  0.
   258  2.57  0.  0.  0.
   259  2.58  0.  0.  0.
   260  2.59  0.  0.  0.
   261  2.60  0.  0.  0.
   262  2.61  0.  0.  0.
   263  2.62  0.  0.  0.
   264  2.63  0.  0.  0.
   265  2.64  0.  0.  0.
   266  2.65  0.  0.  0.
   267  2.66  0.  0.  0.
   268  2.67  0.  0.  0.
   269  2.68  0.  0.  0.
   270  2.69  0.  0.  0.
   271  2.70  0.  0.  0.
   272  2.71  0.  0.  0.
   273  2.72  0.  0.  0.
   274  2.73  0.  0.  0.
   275  2.74  0.  0.  0.
   276  2.75  0.  0.  0.
   277  2.76  0.  0.  0.
   278  2.77  0.  0.  0.
   279  2.78  0.  0.  0.
   280  2.79  0.  0.  0.
   281  2.80  0.  0.  0.
   282  2.81  0.  0.  0.
   283  2.82  0.  0.  0.
   284  2.83  0.  0.  0.
   285  2.84  0.  0.  0.
   286  2.85  0.  0.  0.
   287  2.86  0.  0.  0.
   288  2.87  0.  0.  0.
   289  2.88  0.  0.  0.
   290  2.89  0.  0.  0.
   291  2.90  0.  0.  0.
   292  2.91  0.  0.  0.
   293  2.92  0.  0.  0.
   294  2.93  0.  0.  0.
   295  2.94  0.  0.  0.
   296  2.95  0.  0.  0.
   297  2.96  0.  0.  0.
   298  2.97  0.  0.  0.
   299  2.98  0.  0.  0.
   300  2.99  0.  0.  0.
   301  3.00  0.  0.  0.
   302  3.01  0.  0.  0.
   303  3.02  0.  0.  0.
   304  3.03  0.  0.  0.
   305  3.04  0.  0.  0.
   306  3.05  0.  0.  0.
   307  3.06  0.  0.  0.
   308  3.07  0.  0.  0.
   309  3.08  0.  0.  0.
   310  3.09  0.  0.  0.
   311  3.10  0.  0.  0.
   312  3.11  0.  0.  0.
   313  3.12  0.  0.  0.
   314  3.13  0.  0.  0.
   315  3.14  0.  0.  0.
   316  3.15  0.  0.  0.
   317  3.16  0.  0.  0.
   318  3.17  0.  0.  0.
   319  3.18  0.  0.  0.
   320  3.19  0.  0.  0.
   321  3.20  0.  0.  0.
   322  3.21  0.  0.  0.
   323  3.22  0.  0.  0.
   324  3.23  0.  0.  0.
   325  3.24  0.  0.  0.
   326  3.25  0.  0.  0.
   327  3.26  0.  0.  0.
   328  3.27  0.  0.  0.
   329  3.28  0.  0.  0.
   330  3.29  0.  0.  0.
   331  3.30  0.  0.  0.
   332  3.31  0.  0.  0.
   333  3.32  0.  0.  0.
   334  3.33  0.  0.  0.
   335  3.34  0.  0.  0.
   336  3.35  0.  0.  0.
   337  3.36  0.  0.  0.
   338  3.37  0.  0.  0.
   339  3.38  0.  0.  0.
   340  3.39  0.  0.  0.
   341  3.40  0.  0.  0.
   342  3.41  0.  0.  0.
   343  3.42  0.  0.  0.
   344  3.43  0.  0.  0.
   345  3.44  0.  0.  0.
   346  3.45  0.  0.  0.
   347  3.46  0.  0.  0.
   348  3.47  0.  0.  0.
   349  3.48  0.  0.  0.
   350  3.49  0.  0.  0.
   351  3.50  0.  0.  0.
   352  3.51  0.  0.  0.
   353  3.52  0.  0.  0.
   354  3.53  0.  0.  0.
   355  3.54  0.  0.  0.
   356  3.55  0.  0.  0.
   357  3.56  0.  0.  0.
   358  3.57  0.  0.  0.
   359  3.58  0.  0.  0.
   360  3.59  0.  0.  0.
   361  3.60  0.  0.  0.
   362  3.61  0.  0.  0.
   363  3.62  0.  0.  0.
   364  3.63  0.  0.  0.
   365  3.64  0.  0.  0.
   366  3.65  0.  0.  0.
   367  3.66  0.  0.  0.
   368  3.67  0.  0.  0.
   369  3.68  0.  0.  0.
   370  3.69  0.  0.  0.
   371  3.70  0.  0.  0.
   372  3.71  0.  0.  0.
   373  3.72  0.  0.  0.
   374  3.73  0.  0.  0.
   375  3.74  0.  0.  0.
   376  3.75  0.  0.  0.
   377  3.76  0.  0.  0.
   378  3.77  0.  0.  0.
   379  3.78  0.  0.  0.
   380  3.79  0.  0.  0.
   381  3.80  0.  0.  0.
   382  3.81  0.  0.  0.
   383  3.82  0.  0.  0.
   384  3.83  0.  0.  0.
   385  3.84  0.  0.  0.
   386  3.85  0.  0.  0.
   387  3.86  0.  0.  0.
   388  3.87  0.  0.  0.
   389  3.88  0.  0.  0.
   390  3.89  0.  0.  0.
   391  3.90  0.  0.  0.
   392  3.91  0.  0.  0.
   393  3.92  0.  0.  0.
   394  3.93  0.  0.  0.
   395  3.94  0.  0.  0.
   396  3.95  0.  0.  0.
   397  3.96  0.  0.  0.
   398  3.97  0.  0.  0.
   399  3.98  0.  0.  0.
   400  3.99  0.  0.  0.
   401  4.00  0.  0.  0.
   402  4.01  0.  0.  0.
   403  4.02  0.  0.  0.
   404  4.03  0.  0.  0.
   405  4.04  0.  0.  0.
   406  4.05  0.  0.  0.
   407  4.06  0.  0.  0.
   408  4.07  0.  0.  0.
   409  4.08  0.  0.  0.
   410  4.09  0.  0.  0.
   411  4.10  0.  0.  0.
   412  4.11  0.  0.  0.
   413  4.12  0.  0.  0.
   414  4.13  0.  0.  0.
   415  4.14  0.  0.  0.
   416  4.15  0.  0.  0.
   417  4.16  0.  0.  0.
   418  4.17  0.  0.  0.
   419  4.18  0.  0.  0.
   420  4.19  0.  0.  0.
   421  4.20  0.  0.  0.
   422  4.21  0.  0.  0.
   423  4.22  0.  0.  0.
   424  4.23  0.  0.  0.
   425  4.24  0.  0.  0.
   426  4.25  0.  0.  0.
   427  4.26  0.  0.  0.
   428  4.27  0.  0.  0.
   429  4.28  0.  0.  0.
   430  4.29  0.  0.  0.
   431  4.30  0.  0.  0.
   432  4.31  0.  0.  0.
   433  4.32  0.  0.  0.
   434  4.33  0.  0.  0.
   435  4.34  0.  0.  0.
   436  4.35  0.  0.  0.
   437  4.36  0.  0.  0.
   438  4.37  0.  0.  0.
   439  4.38  0.  0.  0.
   440  4.39  0.  0.  0.
   441  4.40  0.  0.  0.
   442  4.41  0.  0.  0.
   443  4.42  0.  0.  0.
   444  4.43  0.  0.  0.
   445  4.44  0.  0.  0.
   446  4.45  0.  0.  0.
   447  4.46  0.  0.  0.
   448  4.47  0.  0.  0.
   449  4.48  0.  0.  0.
   450  4.49  0.  0.  0.
   451  4.50  0.  0.  0.
   452  4.51  0.  0.  0.
   453  4.52  0.  0.  0.
   454  4.53  0.  0.  0.
   455  4.54  0.  0.  0.
   456  4.55  0.  0.  0.
   457  4.56  0.  0.  0.
   458  4.57  0.  0.  0.
   459  4.58  0.  0.  0.
   460  4.59  0.  0.  0.
   461  4.60  0.  0.  0.
   462  4.61  0.  0.  0.
   463  4.62  0.  0.  0.
   464  4.63  0.  0.  0.
   465  4.64  0.  0.  0.
   466  4.65  0.  0.  0.
   467  4.66  0.  0.  0.
   468  4.67  0.  0.  0.
   469  4.68  0.  0.  0.
   470  4.69  0.  0.  0.
   471  4.70  0.  0.  0.
   472  4.71  0.  0.  0.
   473  4.72  0.  0.  0.
   474  4.73  0.  0.  0.
   475  4.74  0.  0.  0.
   476  4.75  0.  0.  0.
   477  4.76  0.  0.  0.
   478  4.77  0.  0.  0.
   479  4.78  0.  0.  0.
   480  4.79  0.  0.  0.
   481  4.80  0.  0.  0.
   482  4.81  0.  0.  0.
   483  4.82  0.  0.  0.
   484  4.83  0.  0.  0.
   485  4.84  0.  0.  0.
   486  4.85  0.  0.  0.
   487  4.86  0.  0.  0.
   488  4.87  0.  0.  0.
   489  4.88  0.  0.  0.
   490  4.89  0.  0.  0.
   491  4.90  0.  0.  0.
   492  4.91  0.  0.  0.
   493  4.92  0.  0.  0.
   494  4.93  0.  0.  0.
   495  4.94  0.  0.  0.
   496  4.95  0.  0.  0.
   497  4.96  0.  0.  0.
   498  4.97  0.  0.  0.
   499  4.98  0.  0.  0.
   500  4.99  0.  0.  0.
   501  5.00  0.  0.  0.
   502  5.01  0.  0.  0.
   503  5.02  0.  0.  0.
   504  5.03  0.  0.  0.
   505  5.04  0.  0.  0.
   506  5.05  0.  0.  0.
   507  5.06  0.  0.  0.
   508  5.07  0.  0.  0.
   509  5.08  0.  0.  0.
   510  5.09  0.  0.  0.
   511  5.10  0.  0.  0.
   512  5.11  0.  0.  0.
   513  5.12  0.  0.  0.
   514  5.13  0.  0.  0.
   515  5.14  0.  0.  0.
   516  5.15  0.  0.  0.
   517  5.16  0.  0.  0.
   518  5.17  0.  0.  0.
   519  5.18  0.  0.  0.
   520  5.19  0.  0.  0.
   521  5.20  0.  0.  0.
   522  5.21  0.  0.  0.
   523  5.22  0.  0.  0.
   524  5.23  0.  0.  0.
   525  5.24  0.  0.  0.
   526  5.25  0.  0.  0.
   527  5.26  0.  0.  0.
   528  5.27  0.  0.  0.
   529  5.28  0.  0.  0.
   530  5.29  0.  0.  0.
   531  5.30  0.  0.  0.
   532  5.31  0.  0.  0.
   533  5.32  0.  0.  0.
   534  5.33  0.  0.  0.
   535  5.34  0.  0.  0.
   536  5.35  0.  0.  0.
   537  5.36  0.  0.  0.
   538  5.37  0.  0.  0.
   539  5.38  0.  0.  0.
   540  5.39  0.  0.  0.
   541  5.40  0.  0.  0.
   542  5.41  0.  0.  0.
   543  5.42  0.  0.  0.
   544  5.43  0.  0.  0.
   545  5.44  0.  0.  0.
   546  5.45  0.  0.  0.
   547  5.46  0.  0.  0.
   548  5.47  0.  0.  0.
   549  5.48  0.  0.  0.
   550  5.49  0.  0.  0.
   551  5.50  0.  0.  0.
   552  5.51  0.  0.  0.
   553  5.52  0.  0.  0.
   554  5.53  0.  0.  0.
   555  5.54  0.  0.  0.
   556  5.55  0.  0.  0.
   557  5.56  0.  0.  0.
   558  5.57  0.  0.  0.
   559  5.58  0.  0.  0.
   560  5.59  0.  0.  0.
   561  5.60  0.  0.  0.
   562  5.61  0.  0.  0.
   563  5.62  0.  0.  0.
   564  5.63  0.  0.  0.
   565  5.64  0.  0.  0.
   566  5.65  0.  0.  0.
   567  5.66  0.  0.  0.
   568  5.67  0.  0.  0.
   569  5.68  0.  0.  0.
   570  5.69  0.  0.  0.
   571  5.70  0.  0.  0.
   572  5.71  0.  0.  0.
   573  5.72  0.  0.  0.
   574  5.73  0.  0.  0.
   575  5.74  0.  0.  0.
   576  5.75  0.  0.  0.
   577  5.76  0.  0.  0.
   578  5.77  0.  0.  0.
   579  5.78  0.  0.  0.
   580  5.79  0.  0.  0.
   581  5.80  0.  0.  0.
   582  5.81  0.  0.  0.
   583  5.82  0.  0.  0.
   584  5.83  0.  0.  0.
   585  5.84  0.  0.  0.
   586  5.85  0.  0.  0.
   587  5.86  0.  0.  0.
   588  5.87  0.  0.  0.
   589  5.88  0.  0.  0.
   590  5.89  0.  0.  0.
   591  5.90  0.  0.  0.
   592  5.91  0.  0.  0.
   593  5.92  0.  0.  0.
   594  5.93  0.  0.  0.
   595  5.94  0.  0.  0.
   596  5.95  0.  0.  0.
   597  5.96  0.  0.  0.
   598  5.97  0.  0.  0.
   599  5.98  0.  0.  0.
   600  5.99  0.  0.  0.
   1                        -7.4807148900901E+00  2.1165326493605E+00
     1  0.0000000000000E+00  8.0217954501194E-10 -1.5944967679538E-08
     2  1.0000000000000E-02  2.0920745581817E-03 -4.3051204019177E-03
     3  2.0000000000000E-02  8.3570212176143E-03 -1.7168983173015E-02
     4  3.0000000000000E-02  1.8761077109711E-02 -3.8437726233817E-02
     5  4.0000000000000E-02  3.3248197637269E-02 -6.7857014262044E-02
     6  5.0000000000000E-02  5.1740395331659E-02 -1.0507515862390E-01
     7  6.0000000000000E-02  7.4138211417577E-02 -1.4964742130736E-01
     8  7.0000000000000E-02  1.0032131725418E-01 -2.0104144026663E-01
     9  8.0000000000000E-02  1.3014924201917E-01 -2.5864369764154E-01
    10  9.0000000000000E-02  1.6346222220654E-01 -3.2176693776687E-01
    11  1.0000000000000E-01  2.0008216772198E-01 -3.8965842897930E-01
    12  1.1000000000000E-01  2.3981373858595E-01 -4.6150895218206E-01
    13  1.2000000000000E-01  2.8244552549784E-01 -5.3646239010664E-01
    14  1.3000000000000E-01  3.2775132678004E-01 -6.1362578435491E-01
    15  1.4000000000000E-01  3.7549151351501E-01 -6.9207972269449E-01
    16  1.5000000000000E-01  4.2541447401765E-01 -7.7088891676026E-01
    17  1.6000000000000E-01  4.7725812815727E-01 -8.4911283027716E-01
    18  1.7000000000000E-01  5.3075150146624E-01 -9.2581622011406E-01
    19  1.8000000000000E-01  5.8561634845354E-01 -1.0000794568131E+00
    20  1.9000000000000E-01  6.4156881409127E-01 -1.0710084975772E+00
    21  2.0000000000000E-01  6.9832112206611E-01 -1.1377443928744E+00
    22  2.1000000000000E-01  7.5558327809755E-01 -1.1994722176242E+00
    23  2.2000000000000E-01  8.1306477642460E-01 -1.2554293291487E+00
    24  2.3000000000000E-01  8.7047629746192E-01 -1.3049128664424E+00
    25  2.4000000000000E-01  9.2753138462936E-01 -1.3472864185846E+00
    26  2.5000000000000E-01  9.8394808847088E-01 -1.3819858040149E+00
    27  2.6000000000000E-01  1.0394505664025E+00 -1.4085239166387E+00
    28  2.7000000000000E-01  1.0937706267662E+00 -1.4264946090668E+00
    29  2.8000000000000E-01  1.1466492063171E+00 -1.4355755974558E+00
    30  2.9000000000000E-01  1.1978377708315E+00 -1.4355303861673E+00
    31  3.0000000000000E-01  1.2470996291942E+00 -1.4262092235820E+00
    32  3.1000000000000E-01  1.2942111520886E+00 -1.4075491126910E+00
    33  3.2000000000000E-01  1.3389628872797E+00 -1.3795729113732E+00
    34  3.3000000000000E-01  1.3811605644245E+00 -1.3423875674186E+00
    35  3.4000000000000E-01  1.4206259833613E+00 -1.2961815422614E+00
    36  3.5000000000000E-01  1.4571977809122E+00 -1.2412214849727E+00
    37  3.6000000000000E-01  1.4907320723530E+00 -1.1778482242858E+00
    38  3.7000000000000E-01  1.5211029648648E+00 -1.1064721512832E+00
    39  3.8000000000000E-01  1.5482029414502E+00 -1.0275680688693E+00
    40  3.9000000000000E-01  1.5719431149718E+00 -9.4166958634709E-01
    41  4.0000000000000E-01  1.5922533531267E+00 -8.4936313836303E-01
    42  4.1000000000000E-01  1.6090822762957E+00 -7.5128170728732E-01
    43  4.2000000000000E-01  1.6223971312886E+00 -6.4809832684435E-01
    44  4.3000000000000E-01  1.6321835450274E+00 -5.4051944263069E-01
    45  4.4000000000000E-01  1.6384451631592E+00 -4.2927820216954E-01
    46  4.5000000000000E-01  1.6412031794592E+00 -3.1512774348260E-01
    47  4.6000000000000E-01  1.6404957626597E+00 -1.9883454693959E-01
    48  4.7000000000000E-01  1.6363773880191E+00 -8.1171910489960E-02
    49  4.8000000000000E-01  1.6289180815176E+00  3.7086396588070E-02
    50  4.9000000000000E-01  1.6182025850345E+00  1.5517225147241E-01
    51  5.0000000000000E-01  1.6043294512184E+00  2.7232902246908E-01
    52  5.1000000000000E-01  1.5874100770162E+00  3.8781710127258E-01
    53  5.2000000000000E-01  1.5675676849715E+00  5.0091908883762E-01
    54  5.3000000000000E-01  1.5449362614550E+00  6.1094460613521E-01
    55  5.4000000000000E-01  1.5196594609446E+00  7.1723470620616E-01
    56  5.5000000000000E-01  1.4918894853433E+00  8.1916586893201E-01
    57  5.6000000000000E-01  1.4617859471228E+00  9.1615356480271E-01
    58  5.7000000000000E-01  1.4295147248058E+00  1.0076553786718E+00
    59  5.8000000000000E-01  1.3952468189779E+00  1.0931736890501E+00
    60  5.9000000000000E-01  1.3591572166448E+00  1.1722579029088E+00
    61  6.0000000000000E-01  1.3214237713454E+00  1.2445062502443E+00
    62  6.1000000000000E-01  1.2822261059947E+00  1.3095671468095E+00
    63  6.2000000000000E-01  1.2417445449821E+00  1.3671401374319E+00
    64  6.3000000000000E-01  1.2001590815876E+00  1.4169764362202E+00
    65  6.4000000000000E-01  1.1576483863139E+00  1.4588790836794E+00
    66  6.5000000000000E-01  1.1143888612730E+00  1.4927027442973E+00
    67  6.6000000000000E-01  1.0705537453054E+00  1.5183531714767E+00
    68  6.7000000000000E-01  1.0263122740653E+00  1.5357863697380E+00
    69  6.8000000000000E-01  9.8182889885869E-01  1.5450074868246E+00
    70  6.9000000000000E-01  9.3726256759404E-01  1.5460694706519E+00
    71  7.0000000000000E-01  8.9276607077009E-01  1.5390715278610E+00
    72  7.1000000000000E-01  8.4848545500114E-01  1.5241574219904E+00
    73  7.2000000000000E-01  8.0455950614794E-01  1.5015136498632E+00
    74  7.3000000000000E-01  7.6111930368287E-01  1.4713675346302E+00
    75  7.4000000000000E-01  7.1828784746531E-01  1.4339852729057E+00
    76  7.5000000000000E-01  6.7617975763023E-01  1.3896699715227E+00
    77  7.6000000000000E-01  6.3490104779617E-01  1.3387597065393E+00
    78  7.7000000000000E-01  5.9454897127217E-01  1.2816256332074E+00
    79  7.8000000000000E-01  5.5521193938397E-01  1.2186701706305E+00
    80  7.9000000000000E-01  5.1696951044500E-01  1.1503252787916E+00
    81  8.0000000000000E-01  4.7989244726692E-01  1.0770508385425E+00
    82  8.1000000000000E-01  4.4404284043782E-01  9.9933313705526E-01
    83  8.2000000000000E-01  4.0947429389730E-01  9.1768345224046E-01
    84  8.3000000000000E-01  3.7623216861103E-01  8.3263671983050E-01
    85  8.4000000000000E-01  3.4435387939936E-01  7.4475025636717E-01
    86  8.5000000000000E-01  3.1386923921536E-01  6.5460250038433E-01
    87  8.6000000000000E-01  2.8480084440696E-01  5.6279172284991E-01
    88  8.7000000000000E-01  2.5716449374935E-01  4.6993464664765E-01
    89  8.8000000000000E-01  2.3096963331145E-01  3.7666490378969E-01
    90  8.9000000000000E-01  2.0621981853971E-01  2.8363124842538E-01
    91  9.0000000000000E-01  1.8291318432018E-01  1.9149543381554E-01
    92  9.1000000000000E-01  1.6104291323313E-01  1.0092965256687E-01
    93  9.2000000000000E-01  1.4059769176024E-01  1.2613431837914E-02
    94  9.3000000000000E-01  1.2156214385885E-01 -7.2770130793674E-02
    95  9.4000000000000E-01  1.0391723109765E-01 -1.5453890932402E-01
    96  9.5000000000000E-01  8.7640608466610E-02 -2.3201718986530E-01
    97  9.6000000000000E-01  7.2706925044375E-02 -3.0454213037098E-01
    98  9.7000000000000E-01  5.9088058937521E-02 -3.7147135772479E-01
    99  9.8000000000000E-01  4.6753276306952E-02 -4.3219181542722E-01
   100  9.9000000000000E-01  3.5669304869634E-02 -4.8612996759767E-01