Rf    ONCVPSP-4.0.1  r_core=   1.10045   1.10045   0.95328   1.20376
104.0000     44.0000      220322    zatom,zion,pspd
8      11   3     4   600     0    pspcod,pspxc,lmax,lloc,mmax,r2well
5.99000000  4.85450000  0.00000000    rchrg fchrg qchrg
3     2     2     2     0    nproj
1     1           extension_switch
0                         2.1894081173066E+01  3.2476501303256E+00 -1.1826290331060E+00
1  0.0000000000000E+00 -5.1958093827409E-08 -1.2371253238497E-07  3.0756056479397E-08
2  1.0000000000000E-02  1.6273684100209E-01  4.2694261539996E-02  4.4893484796038E-02
3  2.0000000000000E-02  3.2416691039532E-01  8.4162073834352E-02  8.9748162187770E-02
4  3.0000000000000E-02  4.8300059479946E-01  1.2320602533869E-01  1.3452135630008E-01
5  4.0000000000000E-02  6.3798217986567E-01  1.5868586070188E-01  1.7916285745308E-01
6  5.0000000000000E-02  7.8790577056088E-01  1.8954479506607E-01  2.2361165457559E-01
7  6.0000000000000E-02  9.3163001595677E-01  2.1483320629275E-01  2.6779324326736E-01
8  7.0000000000000E-02  1.0680913043655E+00  2.3372898455878E-01  3.1161766319136E-01
9  8.0000000000000E-02  1.1963151466226E+00  2.4555394247893E-01  3.5497838772137E-01
10  9.0000000000000E-02  1.3154255264285E+00  2.4978583414239E-01  3.9775215271438E-01
11  1.0000000000000E-01  1.4246520645964E+00  2.4606569249552E-01  4.3979977137118E-01
12  1.1000000000000E-01  1.5233349162367E+00  2.3420036505778E-01  4.8096793999470E-01
13  1.2000000000000E-01  1.6109273936179E+00  2.1416030137252E-01  5.2109199674599E-01
14  1.3000000000000E-01  1.6869963799091E+00  1.8607281513651E-01  5.5999955394605E-01
15  1.4000000000000E-01  1.7512206675526E+00  1.5021120308644E-01  5.9751488574347E-01
16  1.5000000000000E-01  1.8033874171072E+00  1.0698024535817E-01  6.3346391861695E-01
17  1.6000000000000E-01  1.8433869858099E+00  5.6898732777760E-02  6.6767964358697E-01
18  1.7000000000000E-01  1.8712064179343E+00  5.7976089655215E-04  7.0000774732232E-01
19  1.8000000000000E-01  1.8869219198279E+00 -6.1290404878472E-02  7.3031224542452E-01
20  1.9000000000000E-01  1.8906906603033E+00 -1.2797405621221E-01  7.5848089562897E-01
21  2.0000000000000E-01  1.8827422413830E+00 -1.9870352447436E-01  7.8443017172307E-01
22  2.1000000000000E-01  1.8633701753177E+00 -2.7270161586186E-01  8.0810959056299E-01
23  2.2000000000000E-01  1.8329236818816E+00 -3.4920025994960E-01  8.2950520425687E-01
24  2.3000000000000E-01  1.7918000862772E+00 -4.2745672495626E-01  8.4864209665037E-01
25  2.4000000000000E-01  1.7404380540475E+00 -5.0676686966097E-01  8.6558575669477E-01
26  2.5000000000000E-01  1.6793118470851E+00 -5.8647503805240E-01  8.8044223985894E-01
27  2.6000000000000E-01  1.6089267263217E+00 -6.6598035291568E-01  8.9335707102873E-01
28  2.7000000000000E-01  1.5298155643637E+00 -7.4473932266316E-01  9.0451288675751E-01
29  2.8000000000000E-01  1.4425366677223E+00 -8.2226483553354E-01  9.1412585964874E-01
30  2.9000000000000E-01  1.3476727458786E+00 -8.9812177055963E-01  9.2244099141474E-01
31  3.0000000000000E-01  1.2458309056847E+00 -9.7191959940173E-01  9.2972640216304E-01
32  3.1000000000000E-01  1.1376434967965E+00 -1.0433024817036E+00  9.3626678022304E-01
33  3.2000000000000E-01  1.0237695889848E+00 -1.1119374641280E+00  9.4235618800616E-01
34  3.3000000000000E-01  9.0489682698771E-01 -1.1775014756276E+00  9.4829044387508E-01
35  3.4000000000000E-01  7.8174338435318E-01 -1.2396678657060E+00  9.5435931690461E-01
36  3.5000000000000E-01  6.5505972537313E-01 -1.2980932564496E+00  9.6083878015132E-01
37  3.6000000000000E-01  5.2562988417269E-01 -1.3524054720981E+00  9.6798356830550E-01
38  3.7000000000000E-01  3.9427198226066E-01 -1.4021932722045E+00  9.7602027737335E-01
39  3.8000000000000E-01  2.6183772990144E-01 -1.4469985474505E+00  9.8514122762604E-01
40  3.9000000000000E-01  1.2921069163261E-01 -1.4863115434599E+00  9.9549928702723E-01
41  4.0000000000000E-01 -2.6968591729249E-03 -1.5195695609707E+00  1.0072038215569E+00
42  4.1000000000000E-01 -1.3294861923839E-01 -1.5461594447949E+00  1.0203179023440E+00
43  4.2000000000000E-01 -2.6059053170954E-01 -1.5654240240914E+00  1.0348568585634E+00
44  4.3000000000000E-01 -3.8465866117156E-01 -1.5766725080477E+00  1.0507882210418E+00
45  4.4000000000000E-01 -5.0418860431722E-01 -1.5791946798461E+00  1.0680330559364E+00
46  4.5000000000000E-01 -6.1822630945261E-01 -1.5722785735953E+00  1.0864686422507E+00
47  4.6000000000000E-01 -7.2584011706430E-01 -1.5552311694158E+00  1.1059324028477E+00
48  4.7000000000000E-01 -8.2613377767539E-01 -1.5274015064594E+00  1.1262269574927E+00
49  4.8000000000000E-01 -9.1826015415527E-01 -1.4882054971845E+00  1.1471261296651E+00
50  4.9000000000000E-01 -1.0014352752498E+00 -1.4371516329105E+00  1.1683817076424E+00
51  5.0000000000000E-01 -1.0749523767964E+00 -1.3738667039640E+00  1.1897307357007E+00
52  5.1000000000000E-01 -1.1381955479743E+00 -1.2981206201177E+00  1.2109030940174E+00
53  5.2000000000000E-01 -1.1906525927371E+00 -1.2098494100541E+00  1.2316291165582E+00
54  5.3000000000000E-01 -1.2319267216055E+00 -1.1091755027724E+00  1.2516469952020E+00
55  5.4000000000000E-01 -1.2617467062040E+00 -9.9642444870240E-01  1.2707097256423E+00
56  5.5000000000000E-01 -1.2799751578392E+00 -8.7213732225060E-01  1.2885913659763E+00
57  5.6000000000000E-01 -1.2866146312172E+00 -7.3707815813163E-01  1.3050924018792E+00
58  5.7000000000000E-01 -1.2818113039085E+00 -5.9223590777868E-01  1.3200440421248E+00
59  5.8000000000000E-01 -1.2658560399261E+00 -4.3882055529410E-01  1.3333113040312E+00
60  5.9000000000000E-01 -1.2391827100598E+00 -2.7825320007511E-01  1.3447947890296E+00
61  6.0000000000000E-01 -1.2023637105050E+00 -1.1215009025658E-01  1.3544310927160E+00
62  6.1000000000000E-01 -1.1561026927887E+00  5.7699228029904E-02  1.3621918400393E+00
63  6.2000000000000E-01 -1.1012245899277E+00  2.2935930147038E-01  1.3680813832529E+00
64  6.3000000000000E-01 -1.0386630940525E+00  4.0078118451593E-01  1.3721332464226E+00
65  6.4000000000000E-01 -9.6944580736988E-01  5.6983920327518E-01  1.3744054441887E+00
66  6.5000000000000E-01 -8.9467734941632E-01  7.3437125138331E-01  1.3749748427367E+00
67  6.6000000000000E-01 -8.1552075738650E-01  8.9222168087258E-01  1.3739307662722E+00
68  6.7000000000000E-01 -7.3317756144880E-01  1.0412857564463E+00  1.3713680816166E+00
69  6.8000000000000E-01 -6.4886695223453E-01  1.1795545750698E+00  1.3673800159258E+00
70  6.9000000000000E-01 -5.6380448228656E-01  1.3051593162765E+00  1.3620509773061E+00
71  7.0000000000000E-01 -4.7918075670807E-01  1.4164136828720E+00  1.3554496548297E+00
72  7.1000000000000E-01 -3.9614057046620E-01  1.5118534166185E+00  1.3476226729739E+00
73  7.2000000000000E-01 -3.1576294105889E-01  1.5902718277364E+00  1.3385890659567E+00
74  7.3000000000000E-01 -2.3904246617396E-01  1.6507503584719E+00  1.3283358202015E+00
75  7.4000000000000E-01 -1.6687240754494E-01  1.6926833063450E+00  1.3168147089215E+00
76  7.5000000000000E-01 -1.0002986571367E-01  1.7157959580108E+00  1.3039406124775E+00
77  7.6000000000000E-01 -3.9163367393126E-02  1.7201555252355E+00  1.2895914828904E+00
78  7.7000000000000E-01  1.5216860656893E-02  1.7061744249904E+00  1.2736100719952E+00
79  7.8000000000000E-01  6.2745707969559E-02  1.6746056004646E+00  1.2558075017042E+00
80  7.9000000000000E-01  1.0320691516590E-01  1.6265297330159E+00  1.2359687132524E+00
81  8.0000000000000E-01  1.3653360581748E-01  1.5633343408678E+00  1.2138597917505E+00
82  8.1000000000000E-01  1.6280554127095E-01  1.4866848930764E+00  1.1892371244569E+00
83  8.2000000000000E-01  1.8224306668773E-01  1.3984881816893E+00  1.1618583174199E+00
84  8.3000000000000E-01  1.9519775233982E-01  1.3008482864861E+00  1.1314947669134E+00
85  8.4000000000000E-01  2.0213976202021E-01  1.1960155313436E+00  1.0979457605971E+00
86  8.5000000000000E-01  2.0364199916003E-01  1.0863288661892E+00  1.0610539695360E+00
87  8.6000000000000E-01  2.0036109012373E-01  9.7415211178105E-01  1.0207221868006E+00
88  8.7000000000000E-01  1.9301526276245E-01  8.6180447541198E-01  9.7693117171503E-01
89  8.8000000000000E-01  1.8235916661035E-01  7.5148568447710E-01  9.2975847097491E-01
90  8.9000000000000E-01  1.6915565905419E-01  6.4519599118394E-01  8.7939811020819E-01
91  9.0000000000000E-01  1.5414456399680E-01  5.4465124959496E-01  8.2618102218800E-01
92  9.1000000000000E-01  1.3800869557229E-01  4.5119476152429E-01  7.7059477680050E-01
93  9.2000000000000E-01  1.2135261661082E-01  3.6577982484074E-01  7.1324596555394E-01
94  9.3000000000000E-01  1.0470915985349E-01  2.8906874319306E-01  6.5475314130140E-01
95  9.4000000000000E-01  8.8538420568399E-02  2.2146345702111E-01  5.9572345214160E-01
96  9.5000000000000E-01  7.3224200507144E-02  1.6311472838808E-01  5.3675336723987E-01
97  9.6000000000000E-01  5.9072583445298E-02  1.1393682760101E-01  4.7842816118115E-01
98  9.7000000000000E-01  4.6312530457703E-02  7.3627306394106E-02  4.2132012706808E-01
99  9.8000000000000E-01  3.5098308643580E-02  4.1691171732338E-02  3.6598565174185E-01
100  9.9000000000000E-01  2.5513523604929E-02  1.7468662608112E-02  3.1296131573778E-01
101  1.0000000000000E+00  1.7576489558832E-02  1.6573672607578E-04  2.6275921185835E-01
102  1.0100000000000E+00  1.1246643935478E-02 -1.1113693743734E-02  2.1586170026499E-01
103  1.0200000000000E+00  6.4316960331856E-03 -1.7334777245695E-02  1.7271583463569E-01
104  1.0300000000000E+00  2.9951953217808E-03 -1.9498990322138E-02  1.3372770608376E-01
105  1.0400000000000E+00  7.6422989568369E-04 -1.8612606158633E-02  9.9256934906802E-02
106  1.0500000000000E+00 -4.7243737221988E-04 -1.5678753794581E-02  6.9599904783141E-02
107  1.0600000000000E+00 -9.7933607594265E-04 -1.1726158039752E-02  4.4945983542855E-02
108  1.0700000000000E+00 -9.5395666408057E-04 -7.5215954238922E-03  2.5525313681177E-02
109  1.0800000000000E+00 -6.1560462906148E-04 -3.7585998993200E-03  1.1511021151292E-02
110  1.0900000000000E+00 -2.0875838042298E-04 -1.0628494849844E-03  2.9838382315942E-03
111  1.1000000000000E+00 -2.2619587508367E-06 -9.9441584249791E-06  2.6002509765116E-05
112  1.1100000000000E+00 -1.4912820445719E-06 -6.7137991647543E-06  1.7597990556146E-05
113  1.1200000000000E+00  3.9700371194335E-08  1.8981796742442E-07 -5.1515965947791E-07
114  1.13  0.  0.  0.
115  1.14  0.  0.  0.
116  1.15  0.  0.  0.
117  1.16  0.  0.  0.
118  1.17  0.  0.  0.
119  1.18  0.  0.  0.
120  1.19  0.  0.  0.
121  1.20  0.  0.  0.
122  1.21  0.  0.  0.
123  1.22  0.  0.  0.
124  1.23  0.  0.  0.
125  1.24  0.  0.  0.
126  1.25  0.  0.  0.
127  1.26  0.  0.  0.
128  1.27  0.  0.  0.
129  1.28  0.  0.  0.
130  1.29  0.  0.  0.
131  1.30  0.  0.  0.
132  1.31  0.  0.  0.
133  1.32  0.  0.  0.
134  1.33  0.  0.  0.
135  1.34  0.  0.  0.
136  1.35  0.  0.  0.
137  1.36  0.  0.  0.
138  1.37  0.  0.  0.
139  1.38  0.  0.  0.
140  1.39  0.  0.  0.
141  1.40  0.  0.  0.
142  1.41  0.  0.  0.
143  1.42  0.  0.  0.
144  1.43  0.  0.  0.
145  1.44  0.  0.  0.
146  1.45  0.  0.  0.
147  1.46  0.  0.  0.
148  1.47  0.  0.  0.
149  1.48  0.  0.  0.
150  1.49  0.  0.  0.
151  1.50  0.  0.  0.
152  1.51  0.  0.  0.
153  1.52  0.  0.  0.
154  1.53  0.  0.  0.
155  1.54  0.  0.  0.
156  1.55  0.  0.  0.
157  1.56  0.  0.  0.
158  1.57  0.  0.  0.
159  1.58  0.  0.  0.
160  1.59  0.  0.  0.
161  1.60  0.  0.  0.
162  1.61  0.  0.  0.
163  1.62  0.  0.  0.
164  1.63  0.  0.  0.
165  1.64  0.  0.  0.
166  1.65  0.  0.  0.
167  1.66  0.  0.  0.
168  1.67  0.  0.  0.
169  1.68  0.  0.  0.
170  1.69  0.  0.  0.
171  1.70  0.  0.  0.
172  1.71  0.  0.  0.
173  1.72  0.  0.  0.
174  1.73  0.  0.  0.
175  1.74  0.  0.  0.
176  1.75  0.  0.  0.
177  1.76  0.  0.  0.
178  1.77  0.  0.  0.
179  1.78  0.  0.  0.
180  1.79  0.  0.  0.
181  1.80  0.  0.  0.
182  1.81  0.  0.  0.
183  1.82  0.  0.  0.
184  1.83  0.  0.  0.
185  1.84  0.  0.  0.
186  1.85  0.  0.  0.
187  1.86  0.  0.  0.
188  1.87  0.  0.  0.
189  1.88  0.  0.  0.
190  1.89  0.  0.  0.
191  1.90  0.  0.  0.
192  1.91  0.  0.  0.
193  1.92  0.  0.  0.
194  1.93  0.  0.  0.
195  1.94  0.  0.  0.
196  1.95  0.  0.  0.
197  1.96  0.  0.  0.
198  1.97  0.  0.  0.
199  1.98  0.  0.  0.
200  1.99  0.  0.  0.
201  2.00  0.  0.  0.
202  2.01  0.  0.  0.
203  2.02  0.  0.  0.
204  2.03  0.  0.  0.
205  2.04  0.  0.  0.
206  2.05  0.  0.  0.
207  2.06  0.  0.  0.
208  2.07  0.  0.  0.
209  2.08  0.  0.  0.
210  2.09  0.  0.  0.
211  2.10  0.  0.  0.
212  2.11  0.  0.  0.
213  2.12  0.  0.  0.
214  2.13  0.  0.  0.
215  2.14  0.  0.  0.
216  2.15  0.  0.  0.
217  2.16  0.  0.  0.
218  2.17  0.  0.  0.
219  2.18  0.  0.  0.
220  2.19  0.  0.  0.
221  2.20  0.  0.  0.
222  2.21  0.  0.  0.
223  2.22  0.  0.  0.
224  2.23  0.  0.  0.
225  2.24  0.  0.  0.
226  2.25  0.  0.  0.
227  2.26  0.  0.  0.
228  2.27  0.  0.  0.
229  2.28  0.  0.  0.
230  2.29  0.  0.  0.
231  2.30  0.  0.  0.
232  2.31  0.  0.  0.
233  2.32  0.  0.  0.
234  2.33  0.  0.  0.
235  2.34  0.  0.  0.
236  2.35  0.  0.  0.
237  2.36  0.  0.  0.
238  2.37  0.  0.  0.
239  2.38  0.  0.  0.
240  2.39  0.  0.  0.
241  2.40  0.  0.  0.
242  2.41  0.  0.  0.
243  2.42  0.  0.  0.
244  2.43  0.  0.  0.
245  2.44  0.  0.  0.
246  2.45  0.  0.  0.
247  2.46  0.  0.  0.
248  2.47  0.  0.  0.
249  2.48  0.  0.  0.
250  2.49  0.  0.  0.
251  2.50  0.  0.  0.
252  2.51  0.  0.  0.
253  2.52  0.  0.  0.
254  2.53  0.  0.  0.
255  2.54  0.  0.  0.
256  2.55  0.  0.  0.
257  2.56  0.  0.  0.
258  2.57  0.  0.  0.
259  2.58  0.  0.  0.
260  2.59  0.  0.  0.
261  2.60  0.  0.  0.
262  2.61  0.  0.  0.
263  2.62  0.  0.  0.
264  2.63  0.  0.  0.
265  2.64  0.  0.  0.
266  2.65  0.  0.  0.
267  2.66  0.  0.  0.
268  2.67  0.  0.  0.
269  2.68  0.  0.  0.
270  2.69  0.  0.  0.
271  2.70  0.  0.  0.
272  2.71  0.  0.  0.
273  2.72  0.  0.  0.
274  2.73  0.  0.  0.
275  2.74  0.  0.  0.
276  2.75  0.  0.  0.
277  2.76  0.  0.  0.
278  2.77  0.  0.  0.
279  2.78  0.  0.  0.
280  2.79  0.  0.  0.
281  2.80  0.  0.  0.
282  2.81  0.  0.  0.
283  2.82  0.  0.  0.
284  2.83  0.  0.  0.
285  2.84  0.  0.  0.
286  2.85  0.  0.  0.
287  2.86  0.  0.  0.
288  2.87  0.  0.  0.
289  2.88  0.  0.  0.
290  2.89  0.  0.  0.
291  2.90  0.  0.  0.
292  2.91  0.  0.  0.
293  2.92  0.  0.  0.
294  2.93  0.  0.  0.
295  2.94  0.  0.  0.
296  2.95  0.  0.  0.
297  2.96  0.  0.  0.
298  2.97  0.  0.  0.
299  2.98  0.  0.  0.
300  2.99  0.  0.  0.
301  3.00  0.  0.  0.
302  3.01  0.  0.  0.
303  3.02  0.  0.  0.
304  3.03  0.  0.  0.
305  3.04  0.  0.  0.
306  3.05  0.  0.  0.
307  3.06  0.  0.  0.
308  3.07  0.  0.  0.
309  3.08  0.  0.  0.
310  3.09  0.  0.  0.
311  3.10  0.  0.  0.
312  3.11  0.  0.  0.
313  3.12  0.  0.  0.
314  3.13  0.  0.  0.
315  3.14  0.  0.  0.
316  3.15  0.  0.  0.
317  3.16  0.  0.  0.
318  3.17  0.  0.  0.
319  3.18  0.  0.  0.
320  3.19  0.  0.  0.
321  3.20  0.  0.  0.
322  3.21  0.  0.  0.
323  3.22  0.  0.  0.
324  3.23  0.  0.  0.
325  3.24  0.  0.  0.
326  3.25  0.  0.  0.
327  3.26  0.  0.  0.
328  3.27  0.  0.  0.
329  3.28  0.  0.  0.
330  3.29  0.  0.  0.
331  3.30  0.  0.  0.
332  3.31  0.  0.  0.
333  3.32  0.  0.  0.
334  3.33  0.  0.  0.
335  3.34  0.  0.  0.
336  3.35  0.  0.  0.
337  3.36  0.  0.  0.
338  3.37  0.  0.  0.
339  3.38  0.  0.  0.
340  3.39  0.  0.  0.
341  3.40  0.  0.  0.
342  3.41  0.  0.  0.
343  3.42  0.  0.  0.
344  3.43  0.  0.  0.
345  3.44  0.  0.  0.
346  3.45  0.  0.  0.
347  3.46  0.  0.  0.
348  3.47  0.  0.  0.
349  3.48  0.  0.  0.
350  3.49  0.  0.  0.
351  3.50  0.  0.  0.
352  3.51  0.  0.  0.
353  3.52  0.  0.  0.
354  3.53  0.  0.  0.
355  3.54  0.  0.  0.
356  3.55  0.  0.  0.
357  3.56  0.  0.  0.
358  3.57  0.  0.  0.
359  3.58  0.  0.  0.
360  3.59  0.  0.  0.
361  3.60  0.  0.  0.
362  3.61  0.  0.  0.
363  3.62  0.  0.  0.
364  3.63  0.  0.  0.
365  3.64  0.  0.  0.
366  3.65  0.  0.  0.
367  3.66  0.  0.  0.
368  3.67  0.  0.  0.
369  3.68  0.  0.  0.
370  3.69  0.  0.  0.
371  3.70  0.  0.  0.
372  3.71  0.  0.  0.
373  3.72  0.  0.  0.
374  3.73  0.  0.  0.
375  3.74  0.  0.  0.
376  3.75  0.  0.  0.
377  3.76  0.  0.  0.
378  3.77  0.  0.  0.
379  3.78  0.  0.  0.
380  3.79  0.  0.  0.
381  3.80  0.  0.  0.
382  3.81  0.  0.  0.
383  3.82  0.  0.  0.
384  3.83  0.  0.  0.
385  3.84  0.  0.  0.
386  3.85  0.  0.  0.
387  3.86  0.  0.  0.
388  3.87  0.  0.  0.
389  3.88  0.  0.  0.
390  3.89  0.  0.  0.
391  3.90  0.  0.  0.
392  3.91  0.  0.  0.
393  3.92  0.  0.  0.
394  3.93  0.  0.  0.
395  3.94  0.  0.  0.
396  3.95  0.  0.  0.
397  3.96  0.  0.  0.
398  3.97  0.  0.  0.
399  3.98  0.  0.  0.
400  3.99  0.  0.  0.
401  4.00  0.  0.  0.
402  4.01  0.  0.  0.
403  4.02  0.  0.  0.
404  4.03  0.  0.  0.
405  4.04  0.  0.  0.
406  4.05  0.  0.  0.
407  4.06  0.  0.  0.
408  4.07  0.  0.  0.
409  4.08  0.  0.  0.
410  4.09  0.  0.  0.
411  4.10  0.  0.  0.
412  4.11  0.  0.  0.
413  4.12  0.  0.  0.
414  4.13  0.  0.  0.
415  4.14  0.  0.  0.
416  4.15  0.  0.  0.
417  4.16  0.  0.  0.
418  4.17  0.  0.  0.
419  4.18  0.  0.  0.
420  4.19  0.  0.  0.
421  4.20  0.  0.  0.
422  4.21  0.  0.  0.
423  4.22  0.  0.  0.
424  4.23  0.  0.  0.
425  4.24  0.  0.  0.
426  4.25  0.  0.  0.
427  4.26  0.  0.  0.
428  4.27  0.  0.  0.
429  4.28  0.  0.  0.
430  4.29  0.  0.  0.
431  4.30  0.  0.  0.
432  4.31  0.  0.  0.
433  4.32  0.  0.  0.
434  4.33  0.  0.  0.
435  4.34  0.  0.  0.
436  4.35  0.  0.  0.
437  4.36  0.  0.  0.
438  4.37  0.  0.  0.
439  4.38  0.  0.  0.
440  4.39  0.  0.  0.
441  4.40  0.  0.  0.
442  4.41  0.  0.  0.
443  4.42  0.  0.  0.
444  4.43  0.  0.  0.
445  4.44  0.  0.  0.
446  4.45  0.  0.  0.
447  4.46  0.  0.  0.
448  4.47  0.  0.  0.
449  4.48  0.  0.  0.
450  4.49  0.  0.  0.
451  4.50  0.  0.  0.
452  4.51  0.  0.  0.
453  4.52  0.  0.  0.
454  4.53  0.  0.  0.
455  4.54  0.  0.  0.
456  4.55  0.  0.  0.
457  4.56  0.  0.  0.
458  4.57  0.  0.  0.
459  4.58  0.  0.  0.
460  4.59  0.  0.  0.
461  4.60  0.  0.  0.
462  4.61  0.  0.  0.
463  4.62  0.  0.  0.
464  4.63  0.  0.  0.
465  4.64  0.  0.  0.
466  4.65  0.  0.  0.
467  4.66  0.  0.  0.
468  4.67  0.  0.  0.
469  4.68  0.  0.  0.
470  4.69  0.  0.  0.
471  4.70  0.  0.  0.
472  4.71  0.  0.  0.
473  4.72  0.  0.  0.
474  4.73  0.  0.  0.
475  4.74  0.  0.  0.
476  4.75  0.  0.  0.
477  4.76  0.  0.  0.
478  4.77  0.  0.  0.
479  4.78  0.  0.  0.
480  4.79  0.  0.  0.
481  4.80  0.  0.  0.
482  4.81  0.  0.  0.
483  4.82  0.  0.  0.
484  4.83  0.  0.  0.
485  4.84  0.  0.  0.
486  4.85  0.  0.  0.
487  4.86  0.  0.  0.
488  4.87  0.  0.  0.
489  4.88  0.  0.  0.
490  4.89  0.  0.  0.
491  4.90  0.  0.  0.
492  4.91  0.  0.  0.
493  4.92  0.  0.  0.
494  4.93  0.  0.  0.
495  4.94  0.  0.  0.
496  4.95  0.  0.  0.
497  4.96  0.  0.  0.
498  4.97  0.  0.  0.
499  4.98  0.  0.  0.
500  4.99  0.  0.  0.
501  5.00  0.  0.  0.
502  5.01  0.  0.  0.
503  5.02  0.  0.  0.
504  5.03  0.  0.  0.
505  5.04  0.  0.  0.
506  5.05  0.  0.  0.
507  5.06  0.  0.  0.
508  5.07  0.  0.  0.
509  5.08  0.  0.  0.
510  5.09  0.  0.  0.
511  5.10  0.  0.  0.
512  5.11  0.  0.  0.
513  5.12  0.  0.  0.
514  5.13  0.  0.  0.
515  5.14  0.  0.  0.
516  5.15  0.  0.  0.
517  5.16  0.  0.  0.
518  5.17  0.  0.  0.
519  5.18  0.  0.  0.
520  5.19  0.  0.  0.
521  5.20  0.  0.  0.
522  5.21  0.  0.  0.
523  5.22  0.  0.  0.
524  5.23  0.  0.  0.
525  5.24  0.  0.  0.
526  5.25  0.  0.  0.
527  5.26  0.  0.  0.
528  5.27  0.  0.  0.
529  5.28  0.  0.  0.
530  5.29  0.  0.  0.
531  5.30  0.  0.  0.
532  5.31  0.  0.  0.
533  5.32  0.  0.  0.
534  5.33  0.  0.  0.
535  5.34  0.  0.  0.
536  5.35  0.  0.  0.
537  5.36  0.  0.  0.
538  5.37  0.  0.  0.
539  5.38  0.  0.  0.
540  5.39  0.  0.  0.
541  5.40  0.  0.  0.
542  5.41  0.  0.  0.
543  5.42  0.  0.  0.
544  5.43  0.  0.  0.
545  5.44  0.  0.  0.
546  5.45  0.  0.  0.
547  5.46  0.  0.  0.
548  5.47  0.  0.  0.
549  5.48  0.  0.  0.
550  5.49  0.  0.  0.
551  5.50  0.  0.  0.
552  5.51  0.  0.  0.
553  5.52  0.  0.  0.
554  5.53  0.  0.  0.
555  5.54  0.  0.  0.
556  5.55  0.  0.  0.
557  5.56  0.  0.  0.
558  5.57  0.  0.  0.
559  5.58  0.  0.  0.
560  5.59  0.  0.  0.
561  5.60  0.  0.  0.
562  5.61  0.  0.  0.
563  5.62  0.  0.  0.
564  5.63  0.  0.  0.
565  5.64  0.  0.  0.
566  5.65  0.  0.  0.
567  5.66  0.  0.  0.
568  5.67  0.  0.  0.
569  5.68  0.  0.  0.
570  5.69  0.  0.  0.
571  5.70  0.  0.  0.
572  5.71  0.  0.  0.
573  5.72  0.  0.  0.
574  5.73  0.  0.  0.
575  5.74  0.  0.  0.
576  5.75  0.  0.  0.
577  5.76  0.  0.  0.
578  5.77  0.  0.  0.
579  5.78  0.  0.  0.
580  5.79  0.  0.  0.
581  5.80  0.  0.  0.
582  5.81  0.  0.  0.
583  5.82  0.  0.  0.
584  5.83  0.  0.  0.
585  5.84  0.  0.  0.
586  5.85  0.  0.  0.
587  5.86  0.  0.  0.
588  5.87  0.  0.  0.
589  5.88  0.  0.  0.
590  5.89  0.  0.  0.
591  5.90  0.  0.  0.
592  5.91  0.  0.  0.
593  5.92  0.  0.  0.
594  5.93  0.  0.  0.
595  5.94  0.  0.  0.
596  5.95  0.  0.  0.
597  5.96  0.  0.  0.
598  5.97  0.  0.  0.
599  5.98  0.  0.  0.
600  5.99  0.  0.  0.
1                         6.1747272578474E+00 -8.5121551510458E-01
1  0.0000000000000E+00 -2.8932661294556E-08  4.7867198538221E-09
2  1.0000000000000E-02  3.1714841778331E-03  4.2874394082686E-03
3  2.0000000000000E-02  1.2673554455977E-02  1.7091666226263E-02
4  3.0000000000000E-02  2.8468668430138E-02  3.8239040812697E-02
5  4.0000000000000E-02  5.0492957853755E-02  6.7442280458725E-02
6  5.0000000000000E-02  7.8654355662924E-02  1.0430363891610E-01
7  6.0000000000000E-02  1.1283011741110E-01  1.4831936489191E-01
8  7.0000000000000E-02  1.5286387345685E-01  1.9888544252246E-01
9  8.0000000000000E-02  1.9856237718054E-01  2.5530461205198E-01
10  9.0000000000000E-02  2.4969213650801E-01  3.1679466037913E-01
11  1.0000000000000E-01  3.0597613016878E-01  3.8249795843852E-01
12  1.1000000000000E-01  3.6709081582252E-01  4.5149220545211E-01
13  1.2000000000000E-01  4.3266363420917E-01  5.2280231908061E-01
14  1.3000000000000E-01  5.0227120193740E-01  5.9541338585746E-01
15  1.4000000000000E-01  5.7543836589680E-01  6.6828455868902E-01
16  1.5000000000000E-01  6.5163826536863E-01  7.4036375857254E-01
17  1.6000000000000E-01  7.3029351481991E-01  8.1060300713756E-01
18  1.7000000000000E-01  8.1077858244542E-01  8.7797418642222E-01
19  1.8000000000000E-01  8.9242339831112E-01  9.4148499381689E-01
20  1.9000000000000E-01  9.7451818311078E-01  1.0001948347402E+00
21  2.0000000000000E-01  1.0563194457903E+00  1.0532303747280E+00
22  2.1000000000000E-01  1.1370570573144E+00  1.0998004574901E+00
23  2.2000000000000E-01  1.2159422702532E+00  1.1392100872530E+00
24  2.3000000000000E-01  1.2921765210971E+00  1.1708731732732E+00
25  2.4000000000000E-01  1.3649608255062E+00  1.1943237424395E+00
26  2.5000000000000E-01  1.4335055570256E+00  1.2092253427605E+00
27  2.6000000000000E-01  1.4970403878307E+00  1.2153783862891E+00
28  2.7000000000000E-01  1.5548241661418E+00  1.2127252144084E+00
29  2.8000000000000E-01  1.6061545090798E+00  1.2013527107517E+00
30  2.9000000000000E-01  1.6503769016011E+00  1.1814923364417E+00
31  3.0000000000000E-01  1.6868931111163E+00  1.1535175175540E+00
32  3.1000000000000E-01  1.7151687525464E+00  1.1179383742748E+00
33  3.2000000000000E-01  1.7347398687438E+00  1.0753938434262E+00
34  3.3000000000000E-01  1.7452184250595E+00  1.0266413090350E+00
35  3.4000000000000E-01  1.7462966528983E+00  9.7254391750439E-01
36  3.5000000000000E-01  1.7377502138176E+00  9.1405581276238E-01
37  3.6000000000000E-01  1.7194401915687E+00  8.5220558062106E-01
38  3.7000000000000E-01  1.6913139529542E+00  7.8807823872026E-01
39  3.8000000000000E-01  1.6534049481412E+00  7.2279614726404E-01
40  3.9000000000000E-01  1.6058315459550E+00  6.5749924495219E-01
41  4.0000000000000E-01  1.5487950187376E+00  5.9332503301935E-01
42  4.1000000000000E-01  1.4825768039254E+00  5.3138873741018E-01
43  4.2000000000000E-01  1.4075351752033E+00  4.7276407449611E-01
44  4.3000000000000E-01  1.3241014548621E+00  4.1846502940707E-01
45  4.4000000000000E-01  1.2327758910829E+00  3.6942902842482E-01
46  4.5000000000000E-01  1.1341233098361E+00  3.2650184874507E-01
47  4.6000000000000E-01  1.0287686317657E+00  2.9042456139475E-01
48  4.7000000000000E-01  9.1739232089642E-01  2.6182274763111E-01
49  4.8000000000000E-01  8.0072580555100E-01  2.4119816745750E-01
50  4.9000000000000E-01  6.7954688392054E-01  2.2892299288639E-01
51  5.0000000000000E-01  5.5467509882252E-01  2.2523665032724E-01
52  5.1000000000000E-01  4.2696703985554E-01  2.3024524811766E-01
53  5.2000000000000E-01  2.9731150792869E-01  2.4392349890297E-01
54  5.3000000000000E-01  1.6662445841207E-01  2.6611898438434E-01
55  5.4000000000000E-01  3.5843626159945E-02  2.9655855384793E-01
56  5.5000000000000E-01 -9.4077270587565E-02  3.3485659960175E-01
57  5.6000000000000E-01 -2.2217484917788E-01  3.8052491346448E-01
58  5.7000000000000E-01 -3.4748299699933E-01  4.3298379993706E-01
59  5.8000000000000E-01 -4.6904049688472E-01  4.9157410445054E-01
60  5.9000000000000E-01 -5.8589939409821E-01  5.5556980954390E-01
61  6.0000000000000E-01 -6.9713412364403E-01  6.2419085799742E-01
62  6.1000000000000E-01 -8.0185137868138E-01  6.9661587943887E-01
63  6.2000000000000E-01 -8.9920065813631E-01  7.7199452496074E-01
64  6.3000000000000E-01 -9.8838538577437E-01  8.4945915167678E-01
65  6.4000000000000E-01 -1.0686744458736E+00  9.2813564440849E-01
66  6.5000000000000E-01 -1.1394139342162E+00  1.0071532130529E+00
67  6.6000000000000E-01 -1.2000388794932E+00  1.0856530596444E+00
68  6.7000000000000E-01 -1.2500846514829E+00  1.1627958665469E+00
69  6.8000000000000E-01 -1.2891977405593E+00  1.2377681143761E+00
70  6.9000000000000E-01 -1.3171455700438E+00  1.3097872929765E+00
71  7.0000000000000E-01 -1.3338249902662E+00  1.3781061189354E+00
72  7.1000000000000E-01 -1.3392691022065E+00  1.4420159168151E+00
73  7.2000000000000E-01 -1.3336520701309E+00  1.5008493568318E+00
74  7.3000000000000E-01 -1.3172916071381E+00  1.5539827677839E+00
75  7.4000000000000E-01 -1.2906488549075E+00  1.6008382596629E+00
76  7.5000000000000E-01 -1.2543254285870E+00  1.6408858950291E+00
77  7.6000000000000E-01 -1.2090574585574E+00  1.6736461418332E+00
78  7.7000000000000E-01 -1.1557065311095E+00  1.6986928232665E+00
79  7.8000000000000E-01 -1.0952475077753E+00  1.7156567532886E+00
80  7.9000000000000E-01 -1.0287532856623E+00  1.7242302109324E+00
81  8.0000000000000E-01 -9.5737664580627E-01  1.7241723639842E+00
82  8.1000000000000E-01 -8.8232942024059E-01  1.7153157051034E+00
83  8.2000000000000E-01 -8.0485928801391E-01  1.6975735130768E+00
84  8.3000000000000E-01 -7.2622458263123E-01  1.6709483010081E+00
85  8.4000000000000E-01 -6.4766755535079E-01  1.6355411641996E+00
86  8.5000000000000E-01 -5.7038658772508E-01  1.5915618955875E+00
87  8.6000000000000E-01 -4.9550788041825E-01  1.5393396979904E+00
88  8.7000000000000E-01 -4.2405716187036E-01  1.4793342919918E+00
89  8.8000000000000E-01 -3.5693195863248E-01  1.4121471975274E+00
90  8.9000000000000E-01 -2.9487494798158E-01  1.3385329594959E+00
91  9.0000000000000E-01 -2.3844889748776E-01  1.2594100144355E+00
92  9.1000000000000E-01 -1.8801419725427E-01  1.1758691342600E+00
93  9.2000000000000E-01 -1.4373393291428E-01  1.0891057031189E+00
94  9.3000000000000E-01 -1.0561780074773E-01  1.0002703942245E+00
95  9.4000000000000E-01 -7.3540263237211E-02  9.1044222572760E-01
96  9.5000000000000E-01 -4.7251631901364E-02  8.2063557700026E-01
97  9.6000000000000E-01 -2.6391680799157E-02  7.3180601914096E-01
98  9.7000000000000E-01 -1.0505605192413E-02  6.4485471751173E-01
99  9.8000000000000E-01  9.3798762778560E-04  5.6063139669325E-01
100  9.9000000000000E-01  8.5274396311726E-03  4.7993591019981E-01
101  1.0000000000000E+00  1.2887204242721E-02  4.0351851591964E-01
102  1.0100000000000E+00  1.4656310186388E-02  3.3207900984847E-01
103  1.0200000000000E+00  1.4466665193169E-02  2.6626491406732E-01
104  1.0300000000000E+00  1.2921763072179E-02  2.0666895141088E-01
105  1.0400000000000E+00  1.0576368932965E-02  1.5382602766035E-01
106  1.0500000000000E+00  7.9049163115566E-03  1.0819956143474E-01
107  1.0600000000000E+00  5.2485153202414E-03  7.0138171049020E-02
108  1.0700000000000E+00  2.9611979795995E-03  4.0013032217597E-02
109  1.0800000000000E+00  1.2814027554631E-03  1.8139246347160E-02
110  1.0900000000000E+00  3.0673209245918E-04  4.7297164027946E-03
111  1.1000000000000E+00  2.3379166390579E-06  4.1500425235014E-05
112  1.1100000000000E+00  1.6406014622476E-06  2.8048279517512E-05
113  1.1200000000000E+00 -5.0565561363542E-08 -8.1872969602328E-07
114  1.13  0.  0.
115  1.14  0.  0.
116  1.15  0.  0.
117  1.16  0.  0.
118  1.17  0.  0.
119  1.18  0.  0.
120  1.19  0.  0.
121  1.20  0.  0.
122  1.21  0.  0.
123  1.22  0.  0.
124  1.23  0.  0.
125  1.24  0.  0.
126  1.25  0.  0.
127  1.26  0.  0.
128  1.27  0.  0.
129  1.28  0.  0.
130  1.29  0.  0.
131  1.30  0.  0.
132  1.31  0.  0.
133  1.32  0.  0.
134  1.33  0.  0.
135  1.34  0.  0.
136  1.35  0.  0.
137  1.36  0.  0.
138  1.37  0.  0.
139  1.38  0.  0.
140  1.39  0.  0.
141  1.40  0.  0.
142  1.41  0.  0.
143  1.42  0.  0.
144  1.43  0.  0.
145  1.44  0.  0.
146  1.45  0.  0.
147  1.46  0.  0.
148  1.47  0.  0.
149  1.48  0.  0.
150  1.49  0.  0.
151  1.50  0.  0.
152  1.51  0.  0.
153  1.52  0.  0.
154  1.53  0.  0.
155  1.54  0.  0.
156  1.55  0.  0.
157  1.56  0.  0.
158  1.57  0.  0.
159  1.58  0.  0.
160  1.59  0.  0.
161  1.60  0.  0.
162  1.61  0.  0.
163  1.62  0.  0.
164  1.63  0.  0.
165  1.64  0.  0.
166  1.65  0.  0.
167  1.66  0.  0.
168  1.67  0.  0.
169  1.68  0.  0.
170  1.69  0.  0.
171  1.70  0.  0.
172  1.71  0.  0.
173  1.72  0.  0.
174  1.73  0.  0.
175  1.74  0.  0.
176  1.75  0.  0.
177  1.76  0.  0.
178  1.77  0.  0.
179  1.78  0.  0.
180  1.79  0.  0.
181  1.80  0.  0.
182  1.81  0.  0.
183  1.82  0.  0.
184  1.83  0.  0.
185  1.84  0.  0.
186  1.85  0.  0.
187  1.86  0.  0.
188  1.87  0.  0.
189  1.88  0.  0.
190  1.89  0.  0.
191  1.90  0.  0.
192  1.91  0.  0.
193  1.92  0.  0.
194  1.93  0.  0.
195  1.94  0.  0.
196  1.95  0.  0.
197  1.96  0.  0.