Rf    ONCVPSP-4.0.1  r_core=   1.00001   1.00001   1.00001   1.10045
104.0000     44.0000      220326    zatom,zion,pspd
8      11   3     4   600     0    pspcod,pspxc,lmax,lloc,mmax,r2well
5.99000000  4.85450000  0.00000000    rchrg fchrg qchrg
3     2     2     2     0    nproj
1     1           extension_switch
0                        -2.2561888975706E+01  1.4381496950015E+01 -5.4530770040498E+00
1  0.0000000000000E+00 -2.4185386948705E-06  1.4821159840528E-06 -4.6028020822542E-07
2  1.0000000000000E-02  3.2532678353300E-01  3.7403001231210E-02  7.0028208539179E-02
3  2.0000000000000E-02  6.4217984094309E-01  7.7896267455423E-02  1.3873703878964E-01
4  3.0000000000000E-02  9.4239766381540E-01  1.2440102081898E-01  2.0486337139318E-01
5  4.0000000000000E-02  1.2184291323186E+00  1.7950878619912E-01  2.6725395985308E-01
6  5.0000000000000E-02  1.4636042826882E+00  2.4533709017844E-01  3.2491388590843E-01
7  6.0000000000000E-02  1.6723656599415E+00  3.2340865334022E-01  3.7704759891810E-01
8  7.0000000000000E-02  1.8404501756792E+00  4.1456003171742E-01  4.2309064946060E-01
9  8.0000000000000E-02  1.9650138093707E+00  5.1888418111192E-01  4.6273068763623E-01
10  9.0000000000000E-02  2.0446942739048E+00  6.3570971414005E-01  4.9591682588253E-01
11  1.0000000000000E-01  2.0796097707626E+00  7.6361778176746E-01  5.2285703741379E-01
12  1.1000000000000E-01  2.0712950344015E+00  9.0049563297813E-01  5.4400384553337E-01
13  1.2000000000000E-01  2.0225788539888E+00  1.0436240839837E+00  5.6002912638415E-01
14  1.3000000000000E-01  1.9374100132970E+00  1.1897944547111E+00  5.7178936953478E-01
15  1.4000000000000E-01  1.8206409692139E+00  1.3354490897860E+00  5.8028319099558E-01
16  1.5000000000000E-01  1.6777804787442E+00  1.4768384460419E+00  5.8660324950177E-01
17  1.6000000000000E-01  1.5147276924205E+00  1.6101869547577E+00  5.9188496186707E-01
18  1.7000000000000E-01  1.3375008980808E+00  1.7318594914699E+00  5.9725453542612E-01
19  1.8000000000000E-01  1.1519740958432E+00  1.8385203256479E+00  6.0377882998681E-01
20  1.9000000000000E-01  9.6363392032780E-01  1.9272768716297E+00  6.1241942987356E-01
21  2.0000000000000E-01  7.7736814117157E-01  1.9958013948031E+00  6.2399305661911E-01
22  2.1000000000000E-01  5.9729514065913E-01  2.0424249973426E+00  6.3914009874225E-01
23  2.2000000000000E-01  4.2664148823572E-01  2.0661996531549E+00  6.5830259614335E-01
24  2.3000000000000E-01  2.6767212817718E-01  2.0669257056926E+00  6.8171251645768E-01
25  2.4000000000000E-01  1.2167490653329E-01  2.0451439990875E+00  7.0939062564002E-01
26  2.5000000000000E-01 -1.1001667576378E-02  2.0020935918124E+00  7.4115571302748E-01
27  2.6000000000000E-01 -1.3086125690663E-01  1.9396377116960E+00  7.7664341010447E-01
28  2.7000000000000E-01 -2.3912943921289E-01  1.8601621650621E+00  8.1533336870850E-01
29  2.8000000000000E-01 -3.3758878292238E-01  1.7664517334163E+00  8.5658316221801E-01
30  2.9000000000000E-01 -4.2838931925447E-01  1.6615511137179E+00  8.9966696211644E-01
31  3.0000000000000E-01 -5.1384556334124E-01  1.5486176342223E+00  9.4381683700172E-01
32  3.1000000000000E-01 -5.9623172612846E-01  1.4307732769193E+00  9.8826443070969E-01
33  3.2000000000000E-01 -6.7758663194584E-01  1.3109634492614E+00  1.0322808037439E+00
34  3.3000000000000E-01 -7.5953912909204E-01  1.1918294817915E+00  1.0752123644879E+00
35  3.4000000000000E-01 -8.4316349902529E-01  1.0756010133462E+00  1.1165110646364E+00
36  3.5000000000000E-01 -9.2887260838421E-01  9.6401330822283E-01  1.1557573724545E+00
37  3.6000000000000E-01 -1.0163544055265E+00  8.5825319145788E-01  1.1926749488706E+00
38  3.7000000000000E-01 -1.1045549564734E+00  7.5893576214832E-01  1.2271364125262E+00
39  3.8000000000000E-01 -1.1917086729991E+00  6.6611243110702E-01  1.2591600660024E+00
40  3.9000000000000E-01 -1.2754138422878E+00  5.7930921201660E-01  1.2888979408106E+00
41  4.0000000000000E-01 -1.3527491553568E+00  4.9759265748736E-01  1.3166159780874E+00
42  4.1000000000000E-01 -1.4204247738975E+00  4.1965945060349E-01  1.3426675717124E+00
43  4.2000000000000E-01 -1.4749596808793E+00  3.4394450698283E-01  1.3674620401245E+00
44  4.3000000000000E-01 -1.5128757173517E+00  2.6874156779064E-01  1.3914298457755E+00
45  4.4000000000000E-01 -1.5308978798054E+00  1.9232971093786E-01  1.4149865350218E+00
46  4.5000000000000E-01 -1.5261501751049E+00  1.1309899915211E-01  1.4384974197095E+00
47  4.6000000000000E-01 -1.4963366101840E+00  2.9668624933119E-02  1.4622449637498E+00
48  4.7000000000000E-01 -1.4398977093352E+00 -5.9008609206216E-02  1.4864006781315E+00
49  4.8000000000000E-01 -1.3561342535984E+00 -1.5356085124849E-01  1.5110030758235E+00
50  4.9000000000000E-01 -1.2452916507978E+00 -2.5413512932371E-01  1.5359429082498E+00
51  5.0000000000000E-01 -1.1086003773336E+00 -3.6036172697006E-01  1.5609565156743E+00
52  5.1000000000000E-01 -9.4827017529601E-01 -4.7134669143176E-01  1.5856276958693E+00
53  5.2000000000000E-01 -7.6743802307888E-01 -5.8569270933284E-01  1.6093980515244E+00
54  5.3000000000000E-01 -5.7007220398623E-01 -7.0154714189653E-01  1.6315853400710E+00
55  5.4000000000000E-01 -3.6083695838763E-01 -8.1667465367579E-01  1.6514089423094E+00
56  5.5000000000000E-01 -1.4492411330040E-01 -9.2855066190866E-01  1.6680212088789E+00
57  5.6000000000000E-01  7.2140353728479E-02 -1.0344708364643E+00  1.6805431537414E+00
58  5.7000000000000E-01  2.8470571516353E-01 -1.1316711394378E+00  1.6881027551952E+00
59  5.8000000000000E-01  4.8721208176483E-01 -1.2174524412754E+00  1.6898740068229E+00
60  5.9000000000000E-01  6.7440222109015E-01 -1.2893036040334E+00  1.6851148376878E+00
61  6.0000000000000E-01  8.4151996211076E-01 -1.3450170831533E+00  1.6732020925611E+00
62  6.1000000000000E-01  9.8448632406881E-01 -1.3827915525129E+00  1.6536619236503E+00
63  6.2000000000000E-01  1.1000457098961E+00 -1.4013167744377E+00  1.6261941854163E+00
64  6.3000000000000E-01  1.1858760574584E+00 -1.3998368750118E+00  1.5906897299338E+00
65  6.4000000000000E-01  1.2406586600893E+00 -1.3781892933293E+00  1.5472398551126E+00
66  6.5000000000000E-01  1.2641053542318E+00 -1.3368178917451E+00  1.4961375430421E+00
67  6.6000000000000E-01  1.2569428233122E+00 -1.2767599791643E+00  1.4378705207400E+00
68  6.7000000000000E-01  1.2208557791627E+00 -1.1996082465538E+00  1.3731065605933E+00
69  6.8000000000000E-01  1.1583926559886E+00 -1.1074497813860E+00  1.3026717936962E+00
70  6.9000000000000E-01  1.0728390976132E+00 -1.0027853597153E+00  1.2275231190232E+00
71  7.0000000000000E-01  9.6806586070658E-01 -8.8843306329607E-01  1.1487160405831E+00
72  7.1000000000000E-01  8.4835873737926E-01 -7.6742089790353E-01  1.0673694426032E+00
73  7.2000000000000E-01  7.1823868188708E-01 -6.4287347303786E-01  9.8462891247379E-01
74  7.3000000000000E-01  5.8228049230114E-01 -5.1789793122092E-01  9.0163024001140E-01
75  7.4000000000000E-01  4.4493815418767E-01 -3.9547418896885E-01  8.1946466108388E-01
76  7.5000000000000E-01  3.1038432597044E-01 -2.7835418607886E-01  7.3914727936528E-01
77  7.6000000000000E-01  1.8237047940139E-01 -1.6897426134469E-01  6.6158990104861E-01
78  7.7000000000000E-01  6.4112963918376E-02 -6.9384017346288E-02  5.8757926586748E-01
79  7.8000000000000E-01 -4.1791187210495E-02  1.8805851889123E-02  5.1776136808845E-01
80  7.9000000000000E-01 -1.3341646872196E-01  9.4455270469911E-02  4.5263224890192E-01
81  8.0000000000000E-01 -2.0952851482570E-01  1.5690553601697E-01  3.9253532305085E-01
82  8.1000000000000E-01 -2.6957207754702E-01  2.0596962273216E-01  3.3766499329676E-01
83  8.2000000000000E-01 -3.1362981392672E-01  2.4190346604987E-01  2.8807602088384E-01
84  8.3000000000000E-01 -3.4235562351906E-01  2.6536049303827E-01  2.4369787092586E-01
85  8.4000000000000E-01 -3.5688735038695E-01  2.7733235861423E-01  2.0435304839498E-01
86  8.5000000000000E-01 -3.5874447395098E-01  2.7907938577814E-01  1.6977828983685E-01
87  8.6000000000000E-01 -3.4971694132309E-01  2.7205457509183E-01  1.3964738148174E-01
88  8.7000000000000E-01 -3.3175153789054E-01  2.5782524145701E-01  1.1359433612145E-01
89  8.8000000000000E-01 -3.0684216673472E-01  2.3799636164743E-01  9.1235675872384E-02
90  8.9000000000000E-01 -2.7693013935382E-01  2.1413958967923E-01  7.2190629803318E-02
91  9.0000000000000E-01 -2.4382011036966E-01  1.8773164201321E-01  5.6098156120511E-02
92  9.1000000000000E-01 -2.0911666633980E-01  1.6010539924822E-01  4.2629828265708E-02
93  9.2000000000000E-01 -1.7418585768986E-01  1.3241664734568E-01  3.1497771990862E-02
94  9.3000000000000E-01 -1.4014519842928E-01  1.0562892240111E-01  2.2456995166076E-02
95  9.4000000000000E-01 -1.0788599412078E-01  8.0519087614641E-02  1.5301365144474E-02
96  9.5000000000000E-01 -7.8132189263700E-02  5.7706413779438E-02  9.8524109458259E-03
97  9.6000000000000E-01 -5.2544263498019E-02  3.8288321202656E-02  5.7186177435547E-03
98  9.7000000000000E-01 -3.1760012178541E-02  2.2713624553704E-02  2.7270554840455E-03
99  9.8000000000000E-01 -1.5463498052391E-02  1.0818523640629E-02  9.1949398448726E-04
100  9.9000000000000E-01 -4.2853401271998E-03  2.9294837472844E-03  1.3668651864105E-04
101  1.0000000000000E+00 -1.5600515227822E-07  1.4849303126709E-07  1.0073968660323E-07
102  1.0100000000000E+00 -2.0309251451932E-05  1.3624152824298E-05  1.9258725456295E-07
103  1.0200000000000E+00 -1.0601456501587E-09  6.0404921838959E-10 -2.2948382848027E-10
104  1.03  0.  0.  0.
105  1.04  0.  0.  0.
106  1.05  0.  0.  0.
107  1.06  0.  0.  0.
108  1.07  0.  0.  0.
109  1.08  0.  0.  0.
110  1.09  0.  0.  0.
111  1.10  0.  0.  0.
112  1.11  0.  0.  0.
113  1.12  0.  0.  0.
114  1.13  0.  0.  0.
115  1.14  0.  0.  0.
116  1.15  0.  0.  0.
117  1.16  0.  0.  0.
118  1.17  0.  0.  0.
119  1.18  0.  0.  0.
120  1.19  0.  0.  0.
121  1.20  0.  0.  0.
122  1.21  0.  0.  0.
123  1.22  0.  0.  0.
124  1.23  0.  0.  0.
125  1.24  0.  0.  0.
126  1.25  0.  0.  0.
127  1.26  0.  0.  0.
128  1.27  0.  0.  0.
129  1.28  0.  0.  0.
130  1.29  0.  0.  0.
131  1.30  0.  0.  0.
132  1.31  0.  0.  0.
133  1.32  0.  0.  0.
134  1.33  0.  0.  0.
135  1.34  0.  0.  0.
136  1.35  0.  0.  0.
137  1.36  0.  0.  0.
138  1.37  0.  0.  0.
139  1.38  0.  0.  0.
140  1.39  0.  0.  0.
141  1.40  0.  0.  0.
142  1.41  0.  0.  0.
143  1.42  0.  0.  0.
144  1.43  0.  0.  0.
145  1.44  0.  0.  0.
146  1.45  0.  0.  0.
147  1.46  0.  0.  0.
148  1.47  0.  0.  0.
149  1.48  0.  0.  0.
150  1.49  0.  0.  0.
151  1.50  0.  0.  0.
152  1.51  0.  0.  0.
153  1.52  0.  0.  0.
154  1.53  0.  0.  0.
155  1.54  0.  0.  0.
156  1.55  0.  0.  0.
157  1.56  0.  0.  0.
158  1.57  0.  0.  0.
159  1.58  0.  0.  0.
160  1.59  0.  0.  0.
161  1.60  0.  0.  0.
162  1.61  0.  0.  0.
163  1.62  0.  0.  0.
164  1.63  0.  0.  0.
165  1.64  0.  0.  0.
166  1.65  0.  0.  0.
167  1.66  0.  0.  0.
168  1.67  0.  0.  0.
169  1.68  0.  0.  0.
170  1.69  0.  0.  0.
171  1.70  0.  0.  0.
172  1.71  0.  0.  0.
173  1.72  0.  0.  0.
174  1.73  0.  0.  0.
175  1.74  0.  0.  0.
176  1.75  0.  0.  0.
177  1.76  0.  0.  0.
178  1.77  0.  0.  0.
179  1.78  0.  0.  0.
180  1.79  0.  0.  0.
181  1.80  0.  0.  0.
182  1.81  0.  0.  0.
183  1.82  0.  0.  0.
184  1.83  0.  0.  0.
185  1.84  0.  0.  0.
186  1.85  0.  0.  0.
187  1.86  0.  0.  0.
188  1.87  0.  0.  0.
189  1.88  0.  0.  0.
190  1.89  0.  0.  0.
191  1.90  0.  0.  0.
192  1.91  0.  0.  0.
193  1.92  0.  0.  0.
194  1.93  0.  0.  0.
195  1.94  0.  0.  0.
196  1.95  0.  0.  0.
197  1.96  0.  0.  0.
198  1.97  0.  0.  0.
199  1.98  0.  0.  0.
200  1.99  0.  0.  0.
201  2.00  0.  0.  0.
202  2.01  0.  0.  0.
203  2.02  0.  0.  0.
204  2.03  0.  0.  0.
205  2.04  0.  0.  0.
206  2.05  0.  0.  0.
207  2.06  0.  0.  0.
208  2.07  0.  0.  0.
209  2.08  0.  0.  0.
210  2.09  0.  0.  0.
211  2.10  0.  0.  0.
212  2.11  0.  0.  0.
213  2.12  0.  0.  0.
214  2.13  0.  0.  0.
215  2.14  0.  0.  0.
216  2.15  0.  0.  0.
217  2.16  0.  0.  0.
218  2.17  0.  0.  0.
219  2.18  0.  0.  0.
220  2.19  0.  0.  0.
221  2.20  0.  0.  0.
222  2.21  0.  0.  0.
223  2.22  0.  0.  0.
224  2.23  0.  0.  0.
225  2.24  0.  0.  0.
226  2.25  0.  0.  0.
227  2.26  0.  0.  0.
228  2.27  0.  0.  0.
229  2.28  0.  0.  0.
230  2.29  0.  0.  0.
231  2.30  0.  0.  0.
232  2.31  0.  0.  0.
233  2.32  0.  0.  0.
234  2.33  0.  0.  0.
235  2.34  0.  0.  0.
236  2.35  0.  0.  0.
237  2.36  0.  0.  0.
238  2.37  0.  0.  0.
239  2.38  0.  0.  0.
240  2.39  0.  0.  0.
241  2.40  0.  0.  0.
242  2.41  0.  0.  0.
243  2.42  0.  0.  0.
244  2.43  0.  0.  0.
245  2.44  0.  0.  0.
246  2.45  0.  0.  0.
247  2.46  0.  0.  0.
248  2.47  0.  0.  0.
249  2.48  0.  0.  0.
250  2.49  0.  0.  0.
251  2.50  0.  0.  0.
252  2.51  0.  0.  0.
253  2.52  0.  0.  0.
254  2.53  0.  0.  0.
255  2.54  0.  0.  0.
256  2.55  0.  0.  0.
257  2.56  0.  0.  0.
258  2.57  0.  0.  0.
259  2.58  0.  0.  0.
260  2.59  0.  0.  0.
261  2.60  0.  0.  0.
262  2.61  0.  0.  0.
263  2.62  0.  0.  0.
264  2.63  0.  0.  0.
265  2.64  0.  0.  0.
266  2.65  0.  0.  0.
267  2.66  0.  0.  0.
268  2.67  0.  0.  0.
269  2.68  0.  0.  0.
270  2.69  0.  0.  0.
271  2.70  0.  0.  0.
272  2.71  0.  0.  0.
273  2.72  0.  0.  0.
274  2.73  0.  0.  0.
275  2.74  0.  0.  0.
276  2.75  0.  0.  0.
277  2.76  0.  0.  0.
278  2.77  0.  0.  0.
279  2.78  0.  0.  0.
280  2.79  0.  0.  0.
281  2.80  0.  0.  0.
282  2.81  0.  0.  0.
283  2.82  0.  0.  0.
284  2.83  0.  0.  0.
285  2.84  0.  0.  0.
286  2.85  0.  0.  0.
287  2.86  0.  0.  0.
288  2.87  0.  0.  0.
289  2.88  0.  0.  0.
290  2.89  0.  0.  0.
291  2.90  0.  0.  0.
292  2.91  0.  0.  0.
293  2.92  0.  0.  0.
294  2.93  0.  0.  0.
295  2.94  0.  0.  0.
296  2.95  0.  0.  0.
297  2.96  0.  0.  0.
298  2.97  0.  0.  0.
299  2.98  0.  0.  0.
300  2.99  0.  0.  0.
301  3.00  0.  0.  0.
302  3.01  0.  0.  0.
303  3.02  0.  0.  0.
304  3.03  0.  0.  0.
305  3.04  0.  0.  0.
306  3.05  0.  0.  0.
307  3.06  0.  0.  0.
308  3.07  0.  0.  0.
309  3.08  0.  0.  0.
310  3.09  0.  0.  0.
311  3.10  0.  0.  0.
312  3.11  0.  0.  0.
313  3.12  0.  0.  0.
314  3.13  0.  0.  0.
315  3.14  0.  0.  0.
316  3.15  0.  0.  0.
317  3.16  0.  0.  0.
318  3.17  0.  0.  0.
319  3.18  0.  0.  0.
320  3.19  0.  0.  0.
321  3.20  0.  0.  0.
322  3.21  0.  0.  0.
323  3.22  0.  0.  0.
324  3.23  0.  0.  0.
325  3.24  0.  0.  0.
326  3.25  0.  0.  0.
327  3.26  0.  0.  0.
328  3.27  0.  0.  0.
329  3.28  0.  0.  0.
330  3.29  0.  0.  0.
331  3.30  0.  0.  0.
332  3.31  0.  0.  0.
333  3.32  0.  0.  0.
334  3.33  0.  0.  0.
335  3.34  0.  0.  0.
336  3.35  0.  0.  0.
337  3.36  0.  0.  0.
338  3.37  0.  0.  0.
339  3.38  0.  0.  0.
340  3.39  0.  0.  0.
341  3.40  0.  0.  0.
342  3.41  0.  0.  0.
343  3.42  0.  0.  0.
344  3.43  0.  0.  0.
345  3.44  0.  0.  0.
346  3.45  0.  0.  0.
347  3.46  0.  0.  0.
348  3.47  0.  0.  0.
349  3.48  0.  0.  0.
350  3.49  0.  0.  0.
351  3.50  0.  0.  0.
352  3.51  0.  0.  0.
353  3.52  0.  0.  0.
354  3.53  0.  0.  0.
355  3.54  0.  0.  0.
356  3.55  0.  0.  0.
357  3.56  0.  0.  0.
358  3.57  0.  0.  0.
359  3.58  0.  0.  0.
360  3.59  0.  0.  0.
361  3.60  0.  0.  0.
362  3.61  0.  0.  0.
363  3.62  0.  0.  0.
364  3.63  0.  0.  0.
365  3.64  0.  0.  0.
366  3.65  0.  0.  0.
367  3.66  0.  0.  0.
368  3.67  0.  0.  0.
369  3.68  0.  0.  0.
370  3.69  0.  0.  0.
371  3.70  0.  0.  0.
372  3.71  0.  0.  0.
373  3.72  0.  0.  0.
374  3.73  0.  0.  0.
375  3.74  0.  0.  0.
376  3.75  0.  0.  0.
377  3.76  0.  0.  0.
378  3.77  0.  0.  0.
379  3.78  0.  0.  0.
380  3.79  0.  0.  0.
381  3.80  0.  0.  0.
382  3.81  0.  0.  0.
383  3.82  0.  0.  0.
384  3.83  0.  0.  0.
385  3.84  0.  0.  0.
386  3.85  0.  0.  0.
387  3.86  0.  0.  0.
388  3.87  0.  0.  0.
389  3.88  0.  0.  0.
390  3.89  0.  0.  0.
391  3.90  0.  0.  0.
392  3.91  0.  0.  0.
393  3.92  0.  0.  0.
394  3.93  0.  0.  0.
395  3.94  0.  0.  0.
396  3.95  0.  0.  0.
397  3.96  0.  0.  0.
398  3.97  0.  0.  0.
399  3.98  0.  0.  0.
400  3.99  0.  0.  0.
401  4.00  0.  0.  0.
402  4.01  0.  0.  0.
403  4.02  0.  0.  0.
404  4.03  0.  0.  0.
405  4.04  0.  0.  0.
406  4.05  0.  0.  0.
407  4.06  0.  0.  0.
408  4.07  0.  0.  0.
409  4.08  0.  0.  0.
410  4.09  0.  0.  0.
411  4.10  0.  0.  0.
412  4.11  0.  0.  0.
413  4.12  0.  0.  0.
414  4.13  0.  0.  0.
415  4.14  0.  0.  0.
416  4.15  0.  0.  0.
417  4.16  0.  0.  0.
418  4.17  0.  0.  0.
419  4.18  0.  0.  0.
420  4.19  0.  0.  0.
421  4.20  0.  0.  0.
422  4.21  0.  0.  0.
423  4.22  0.  0.  0.
424  4.23  0.  0.  0.
425  4.24  0.  0.  0.
426  4.25  0.  0.  0.
427  4.26  0.  0.  0.
428  4.27  0.  0.  0.
429  4.28  0.  0.  0.
430  4.29  0.  0.  0.
431  4.30  0.  0.  0.
432  4.31  0.  0.  0.
433  4.32  0.  0.  0.
434  4.33  0.  0.  0.
435  4.34  0.  0.  0.
436  4.35  0.  0.  0.
437  4.36  0.  0.  0.
438  4.37  0.  0.  0.
439  4.38  0.  0.  0.
440  4.39  0.  0.  0.
441  4.40  0.  0.  0.
442  4.41  0.  0.  0.
443  4.42  0.  0.  0.
444  4.43  0.  0.  0.
445  4.44  0.  0.  0.
446  4.45  0.  0.  0.
447  4.46  0.  0.  0.
448  4.47  0.  0.  0.
449  4.48  0.  0.  0.
450  4.49  0.  0.  0.
451  4.50  0.  0.  0.
452  4.51  0.  0.  0.
453  4.52  0.  0.  0.
454  4.53  0.  0.  0.
455  4.54  0.  0.  0.
456  4.55  0.  0.  0.
457  4.56  0.  0.  0.
458  4.57  0.  0.  0.
459  4.58  0.  0.  0.
460  4.59  0.  0.  0.
461  4.60  0.  0.  0.
462  4.61  0.  0.  0.
463  4.62  0.  0.  0.
464  4.63  0.  0.  0.
465  4.64  0.  0.  0.
466  4.65  0.  0.  0.
467  4.66  0.  0.  0.
468  4.67  0.  0.  0.
469  4.68  0.  0.  0.
470  4.69  0.  0.  0.
471  4.70  0.  0.  0.
472  4.71  0.  0.  0.
473  4.72  0.  0.  0.
474  4.73  0.  0.  0.
475  4.74  0.  0.  0.
476  4.75  0.  0.  0.
477  4.76  0.  0.  0.
478  4.77  0.  0.  0.
479  4.78  0.  0.  0.
480  4.79  0.  0.  0.
481  4.80  0.  0.  0.
482  4.81  0.  0.  0.
483  4.82  0.  0.  0.
484  4.83  0.  0.  0.
485  4.84  0.  0.  0.
486  4.85  0.  0.  0.
487  4.86  0.  0.  0.
488  4.87  0.  0.  0.
489  4.88  0.  0.  0.
490  4.89  0.  0.  0.
491  4.90  0.  0.  0.
492  4.91  0.  0.  0.
493  4.92  0.  0.  0.
494  4.93  0.  0.  0.
495  4.94  0.  0.  0.
496  4.95  0.  0.  0.
497  4.96  0.  0.  0.
498  4.97  0.  0.  0.
499  4.98  0.  0.  0.
500  4.99  0.  0.  0.
501  5.00  0.  0.  0.
502  5.01  0.  0.  0.
503  5.02  0.  0.  0.
504  5.03  0.  0.  0.
505  5.04  0.  0.  0.
506  5.05  0.  0.  0.
507  5.06  0.  0.  0.
508  5.07  0.  0.  0.
509  5.08  0.  0.  0.
510  5.09  0.  0.  0.
511  5.10  0.  0.  0.
512  5.11  0.  0.  0.
513  5.12  0.  0.  0.
514  5.13  0.  0.  0.
515  5.14  0.  0.  0.
516  5.15  0.  0.  0.
517  5.16  0.  0.  0.
518  5.17  0.  0.  0.
519  5.18  0.  0.  0.
520  5.19  0.  0.  0.
521  5.20  0.  0.  0.
522  5.21  0.  0.  0.
523  5.22  0.  0.  0.
524  5.23  0.  0.  0.
525  5.24  0.  0.  0.
526  5.25  0.  0.  0.
527  5.26  0.  0.  0.
528  5.27  0.  0.  0.
529  5.28  0.  0.  0.
530  5.29  0.  0.  0.
531  5.30  0.  0.  0.
532  5.31  0.  0.  0.
533  5.32  0.  0.  0.
534  5.33  0.  0.  0.
535  5.34  0.  0.  0.
536  5.35  0.  0.  0.
537  5.36  0.  0.  0.
538  5.37  0.  0.  0.
539  5.38  0.  0.  0.
540  5.39  0.  0.  0.
541  5.40  0.  0.  0.
542  5.41  0.  0.  0.
543  5.42  0.  0.  0.
544  5.43  0.  0.  0.
545  5.44  0.  0.  0.
546  5.45  0.  0.  0.
547  5.46  0.  0.  0.
548  5.47  0.  0.  0.
549  5.48  0.  0.  0.
550  5.49  0.  0.  0.
551  5.50  0.  0.  0.
552  5.51  0.  0.  0.
553  5.52  0.  0.  0.
554  5.53  0.  0.  0.
555  5.54  0.  0.  0.
556  5.55  0.  0.  0.
557  5.56  0.  0.  0.
558  5.57  0.  0.  0.
559  5.58  0.  0.  0.
560  5.59  0.  0.  0.
561  5.60  0.  0.  0.
562  5.61  0.  0.  0.
563  5.62  0.  0.  0.
564  5.63  0.  0.  0.
565  5.64  0.  0.  0.
566  5.65  0.  0.  0.
567  5.66  0.  0.  0.
568  5.67  0.  0.  0.
569  5.68  0.  0.  0.
570  5.69  0.  0.  0.
571  5.70  0.  0.  0.
572  5.71  0.  0.  0.
573  5.72  0.  0.  0.
574  5.73  0.  0.  0.
575  5.74  0.  0.  0.
576  5.75  0.  0.  0.
577  5.76  0.  0.  0.
578  5.77  0.  0.  0.
579  5.78  0.  0.  0.
580  5.79  0.  0.  0.
581  5.80  0.  0.  0.
582  5.81  0.  0.  0.
583  5.82  0.  0.  0.
584  5.83  0.  0.  0.
585  5.84  0.  0.  0.
586  5.85  0.  0.  0.
587  5.86  0.  0.  0.
588  5.87  0.  0.  0.
589  5.88  0.  0.  0.
590  5.89  0.  0.  0.
591  5.90  0.  0.  0.
592  5.91  0.  0.  0.
593  5.92  0.  0.  0.
594  5.93  0.  0.  0.
595  5.94  0.  0.  0.
596  5.95  0.  0.  0.
597  5.96  0.  0.  0.
598  5.97  0.  0.  0.
599  5.98  0.  0.  0.
600  5.99  0.  0.  0.
1                         9.6341583631146E+00 -4.0221881587260E+00
1  0.0000000000000E+00 -4.8817517250832E-08 -1.5725789899446E-08
2  1.0000000000000E-02  6.9516398257256E-03  5.0749027478873E-04
3  2.0000000000000E-02  2.7726084392647E-02  2.0419334027649E-03
4  3.0000000000000E-02  6.2082056768861E-02  4.6388926562348E-03
5  4.0000000000000E-02  1.0961797283733E-01  8.3564727347773E-03
6  5.0000000000000E-02  1.6977293385977E-01  1.3273607977761E-02
7  6.0000000000000E-02  2.4182845602323E-01  1.9487742895923E-02
8  7.0000000000000E-02  3.2491124765508E-01  2.7111978275413E-02
9  8.0000000000000E-02  4.1799739361002E-01  3.6271771833454E-02
10  9.0000000000000E-02  5.1991832834476E-01  4.7101294562709E-02
11  1.0000000000000E-01  6.2936897174517E-01  5.9739552049950E-02
12  1.1000000000000E-01  7.4491836389569E-01  7.4326383936477E-02
13  1.2000000000000E-01  8.6502306749278E-01  9.0998454239676E-02
14  1.3000000000000E-01  9.8804351206376E-01  1.0988534060894E-01
15  1.4000000000000E-01  1.1122633367538E+00  1.3110582206462E-01
16  1.5000000000000E-01  1.2359116538095E+00  1.5476445285408E-01
17  1.6000000000000E-01  1.3571880097867E+00  1.8094849538857E-01
18  1.7000000000000E-01  1.4742896735058E+00  2.0972526854367E-01
19  1.8000000000000E-01  1.5854407368439E+00  2.4113994973649E-01
20  1.9000000000000E-01  1.6889223845475E+00  2.7521385098984E-01
21  2.0000000000000E-01  1.7831035798814E+00  3.1194317150583E-01
22  2.1000000000000E-01  1.8664713307943E+00  3.5129821289936E-01
23  2.2000000000000E-01  1.9376596518260E+00  3.9322302889863E-01
24  2.3000000000000E-01  1.9954763241833E+00  4.3763546959887E-01
25  2.4000000000000E-01  2.0389265824502E+00  4.8442757170198E-01
26  2.5000000000000E-01  2.0672329216085E+00  5.3346624086649E-01
27  2.6000000000000E-01  2.0798503207709E+00  5.8459417042834E-01
28  2.7000000000000E-01  2.0764763167549E+00  6.3763094225098E-01
29  2.8000000000000E-01  2.0570555260494E+00  6.9237426006618E-01
30  2.9000000000000E-01  2.0217784010581E+00  7.4860127295876E-01
31  3.0000000000000E-01  1.9710742077217E+00  8.0606995607767E-01
32  3.1000000000000E-01  1.9055984178946E+00  8.6452052656347E-01
33  3.2000000000000E-01  1.8262149119320E+00  9.2367688434049E-01
34  3.3000000000000E-01  1.7339735756368E+00  9.8324807906750E-01
35  3.4000000000000E-01  1.6300840423073E+00  1.0429298154198E+00
36  3.5000000000000E-01  1.5158864673283E+00  1.1024060182798E+00
37  3.6000000000000E-01  1.3928203230979E+00  1.1613504867169E+00
38  3.7000000000000E-01  1.2623922612236E+00  1.2194286703298E+00
39  3.8000000000000E-01  1.1261441039288E+00  1.2762996032457E+00
40  3.9000000000000E-01  9.8562199658185E-01  1.3316180296027E+00
41  4.0000000000000E-01  8.4234767941558E-01  1.3850367496717E+00
42  4.1000000000000E-01  6.9779272215643E-01  1.4362092080300E+00
43  4.2000000000000E-01  5.5335641564814E-01  1.4847923347129E+00
44  4.3000000000000E-01  4.1034783658484E-01  1.5304496375018E+00
45  4.4000000000000E-01  2.6997240347226E-01  1.5728545290765E+00
46  4.5000000000000E-01  1.3332303322787E-01  1.6116938573672E+00
47  4.6000000000000E-01  1.3757982769701E-03  1.6466715918838E+00
48  4.7000000000000E-01 -1.2501021645121E-01  1.6775126038815E+00
49  4.8000000000000E-01 -2.4508933901763E-01  1.7039664647603E+00
50  4.9000000000000E-01 -3.5822265528739E-01  1.7258111758553E+00
51  5.0000000000000E-01 -4.6386902956409E-01  1.7428567344275E+00
52  5.1000000000000E-01 -5.6157463668439E-01  1.7549484357806E+00
53  5.2000000000000E-01 -6.5096187600628E-01  1.7619698104104E+00
54  5.3000000000000E-01 -7.3171852650194E-01  1.7638450981931E+00
55  5.4000000000000E-01 -8.0358794551052E-01  1.7605411688859E+00
56  5.5000000000000E-01 -8.6636101444175E-01  1.7520688095200E+00
57  5.6000000000000E-01 -9.1987039780572E-01  1.7384833142953E+00
58  5.7000000000000E-01 -9.6398751425069E-01  1.7198843308326E+00
59  5.8000000000000E-01 -9.9862242829454E-01  1.6964149374649E+00
60  5.9000000000000E-01 -1.0237266688289E+00  1.6682599488612E+00
61  6.0000000000000E-01 -1.0392987757024E+00  1.6356434708066E+00
62  6.1000000000000E-01 -1.0453921794597E+00  1.5988257484765E+00
63  6.2000000000000E-01 -1.0421248420701E+00  1.5580993750881E+00
64  6.3000000000000E-01 -1.0296899379017E+00  1.5137849484735E+00
65  6.4000000000000E-01 -1.0083667426942E+00  1.4662262810317E+00
66  6.5000000000000E-01 -9.7853083058288E-01  1.4157852829349E+00
67  6.6000000000000E-01 -9.4066265999476E-01  1.3628366487862E+00
68  6.7000000000000E-01 -8.9535366082375E-01  1.3077624836894E+00
69  6.8000000000000E-01 -8.4330901755229E-01  1.2509470056689E+00
70  6.9000000000000E-01 -7.8534647326294E-01  1.1927714574952E+00
71  7.0000000000000E-01 -7.2239065261328E-01  1.1336093523913E+00
72  7.1000000000000E-01 -6.5546261047225E-01  1.0738221651670E+00
73  7.2000000000000E-01 -5.8566454760347E-01  1.0137555635780E+00
74  7.3000000000000E-01 -5.1415988466761E-01  9.5373625483055E-01
75  7.4000000000000E-01 -4.4214913883199E-01  8.9406949997473E-01
76  7.5000000000000E-01 -3.7084229092415E-01  8.3503732535418E-01
77  7.6000000000000E-01 -3.0142855288314E-01  7.7689743628100E-01
78  7.7000000000000E-01 -2.3504463342062E-01  7.1988281465091E-01
79  7.8000000000000E-01 -1.7274274377539E-01  6.6420196024352E-01
80  7.9000000000000E-01 -1.1545967645554E-01  6.1003971582752E-01
81  8.0000000000000E-01 -6.3988321394249E-02  5.5755859965440E-01
82  8.1000000000000E-01 -1.8952952119011E-02  5.0690055607506E-01
83  8.2000000000000E-01  1.9210481656737E-02  4.5818902627101E-01
84  8.3000000000000E-01  5.0267977158545E-02  4.1153123668682E-01
85  8.4000000000000E-01  7.4194155432873E-02  3.6702060271130E-01
86  8.5000000000000E-01  9.1171395431977E-02  3.2473914931046E-01
87  8.6000000000000E-01  1.0158113326017E-01  2.8475985830559E-01
88  8.7000000000000E-01  1.0598736562907E-01  2.4714886328632E-01
89  8.8000000000000E-01  1.0511274010958E-01  2.1196742707858E-01
90  8.9000000000000E-01  9.9807955652916E-02  1.7927365247386E-01
91  9.0000000000000E-01  9.1015519683983E-02  1.4912389372353E-01
92  9.1000000000000E-01  7.9729197857723E-02  1.2157385323759E-01
93  9.2000000000000E-01  6.6950735456602E-02  9.6679364150755E-02
94  9.3000000000000E-01  5.3645613327316E-02  7.4496874137077E-02
95  9.4000000000000E-01  4.0699536199227E-02  5.5083663051723E-02
96  9.5000000000000E-01  2.8877245134923E-02  3.8497852088087E-02
97  9.6000000000000E-01  1.8612469369793E-02  2.4799822268493E-02
98  9.7000000000000E-01  1.0324069644802E-02  1.4043549436402E-02
99  9.8000000000000E-01  4.4299156964892E-03  6.2842239761184E-03
100  9.9000000000000E-01  1.0422033582073E-03  1.5763347018322E-03
101  1.0000000000000E+00  1.7376580286289E-07  1.8738162281130E-07
102  1.0100000000000E+00  4.2058188146046E-06  6.8234231903018E-06
103  1.0200000000000E+00 -1.2458666338494E-10  2.9376825492991E-11
104  1.03  0.  0.
105  1.04  0.  0.
106  1.05  0.  0.
107  1.06  0.  0.
108  1.07  0.  0.
109  1.08  0.  0.
110  1.09  0.  0.
111  1.10  0.  0.
112  1.11  0.  0.
113  1.12  0.  0.
114  1.13  0.  0.
115  1.14  0.  0.
116  1.15  0.  0.
117  1.16  0.  0.
118  1.17  0.  0.
119  1.18  0.  0.
120  1.19  0.  0.
121  1.20  0.  0.
122  1.21  0.  0.
123  1.22  0.  0.
124  1.23  0.  0.
125  1.24  0.  0.
126  1.25  0.  0.
127  1.26  0.  0.
128  1.27  0.  0.
129  1.28  0.  0.
130  1.29  0.  0.
131  1.30  0.  0.
132  1.31  0.  0.
133  1.32  0.  0.
134  1.33  0.  0.
135  1.34  0.  0.
136  1.35  0.  0.
137  1.36  0.  0.
138  1.37  0.  0.
139  1.38  0.  0.
140  1.39  0.  0.
141  1.40  0.  0.
142  1.41  0.  0.
143  1.42  0.  0.
144  1.43  0.  0.
145  1.44  0.  0.
146  1.45  0.  0.
147  1.46  0.  0.
148  1.47  0.  0.
149  1.48  0.  0.
150  1.49  0.  0.
151  1.50  0.  0.
152  1.51  0.  0.
153  1.52  0.  0.
154  1.53  0.  0.
155  1.54  0.  0.
156  1.55  0.  0.
157  1.56  0.  0.
158  1.57  0.  0.
159  1.58  0.  0.
160  1.59  0.  0.
161  1.60  0.  0.
162  1.61  0.  0.
163  1.62  0.  0.
164  1.63  0.  0.
165  1.64  0.  0.
166  1.65  0.  0.
167  1.66  0.  0.
168  1.67  0.  0.
169  1.68  0.  0.
170  1.69  0.  0.
171  1.70  0.  0.
172  1.71  0.  0.
173  1.72  0.  0.
174  1.73  0.  0.
175  1.74  0.  0.
176  1.75  0.  0.
177  1.76  0.  0.
178  1.77  0.  0.
179  1.78  0.  0.
180  1.79  0.  0.
181  1.80  0.  0.
182  1.81  0.  0.
183  1.82  0.  0.
184  1.83  0.  0.
185  1.84  0.  0.
186  1.85  0.  0.
187  1.86  0.  0.
188  1.87  0.  0.
189  1.88  0.  0.
190  1.89  0.  0.
191  1.90  0.  0.
192  1.91  0.  0.
193  1.92  0.  0.
194  1.93  0.  0.
195  1.94  0.  0.
196  1.95  0.  0.
197  1.96  0.  0.
198  1.97  0.  0.
199  1.98  0.  0.
200  1.99  0.  0.
201  2.00  0.  0.
202  2.01  0.  0.
203  2.02  0.  0.
204  2.03  0.  0.
205  2.04  0.  0.
206  2.05  0.  0.
207  2.06  0.  0.
208  2.07  0.  0.
209  2.08  0.  0.
210  2.09  0.  0.
211  2.10  0.  0.
212  2.11  0.  0.
213  2.12  0.  0.
214  2.13  0.  0.
215  2.14  0.  0.
216  2.15  0.  0.
217  2.16  0.  0.
218  2.17  0.  0.
219  2.18  0.  0.
220  2.19  0.  0.
221  2.20  0.  0.
222  2.21  0.  0.
223  2.22  0.  0.
224  2.23  0.  0.
225  2.24  0.  0.
226  2.25  0.  0.
227  2.26  0.  0.
228  2.27  0.  0.
229  2.28  0.  0.
230  2.29  0.  0.
231  2.30  0.  0.
232  2.31  0.  0.
233  2.32  0.  0.
234  2.33  0.  0.
235  2.34  0.  0.
236  2.35  0.  0.
237  2.36  0.  0.
238  2.37  0.  0.
239  2.38  0.  0.
240  2.39  0.  0.
241  2.40  0.  0.
242  2.41  0.  0.
243  2.42  0.  0.
244  2.43  0.  0.
245  2.44  0.  0.
246  2.45  0.  0.
247  2.46  0.  0.
248  2.47  0.  0.
249  2.48  0.  0.
250  2.49  0.  0.
251  2.50  0.  0.
252  2.51  0.  0.
253  2.52  0.  0.
254  2.53  0.  0.
255  2.54  0.  0.
256  2.55  0.  0.
257  2.56  0.  0.
258  2.57  0.  0.
259  2.58  0.  0.
260  2.59  0.  0.
261  2.60  0.  0.