Rf    ONCVPSP-4.0.1  r_core=   1.10045   1.30111   1.20376   1.20376
104.0000     44.0000      220307    zatom,zion,pspd
8      11   3     4   600     0    pspcod,pspxc,lmax,lloc,mmax,r2well
5.99000000  4.85450000  0.00000000    rchrg fchrg qchrg
3     2     2     2     0    nproj
1     1           extension_switch
0                         2.4481725544021E+01 -8.6385361927527E+00 -2.8699272829488E-01
1  0.0000000000000E+00 -3.3166408064389E-08 -1.9919275673352E-09  2.3805334681271E-07
2  1.0000000000000E-02  2.1290584810635E-01  4.0859241319099E-02 -1.1952275988767E-01
3  2.0000000000000E-02  4.2368069900502E-01  8.1761736375602E-02 -2.3631457143441E-01
4  3.0000000000000E-02  6.3022062501219E-01  1.2275009917167E-01 -3.4771475569694E-01
5  4.0000000000000E-02  8.3047540484835E-01  1.6386565794557E-01 -4.5120115447470E-01
6  5.0000000000000E-02  1.0224743040958E+00  2.0514779711507E-01 -5.4445441076391E-01
7  6.0000000000000E-02  1.2043505929488E+00  2.4663328255147E-01 -6.2541645357511E-01
8  7.0000000000000E-02  1.3743644206366E+00  2.8835556712044E-01 -6.9234154876702E-01
9  8.0000000000000E-02  1.5309236990686E+00  3.3034407541812E-01 -7.4383851560271E-01
10  9.0000000000000E-02  1.6726026880546E+00  3.7262346894674E-01 -7.7890298999576E-01
11  1.0000000000000E-01  1.7981580198828E+00  4.1521289550949E-01 -7.9693892992998E-01
12  1.1000000000000E-01  1.9065419509291E+00  4.5812522924291E-01 -7.9776889526934E-01
13  1.2000000000000E-01  1.9969126810886E+00  5.0136631032435E-01 -7.8163298137668E-01
14  1.3000000000000E-01  2.0686416368587E+00  5.4493419587096E-01 -7.4917663166343E-01
15  1.4000000000000E-01  2.1213176695479E+00  5.8881843576418E-01 -7.0142788661490E-01
16  1.5000000000000E-01  2.1547481750516E+00  6.3299938898221E-01 -6.3976493485636E-01
17  1.6000000000000E-01  2.1689571946809E+00  6.7744759740598E-01 -5.6587510536314E-01
18  1.7000000000000E-01  2.1641806065355E+00  7.2212323490282E-01 -4.8170667030429E-01
19  1.8000000000000E-01  2.1408585628587E+00  7.6697564972997E-01 -3.8941500830276E-01
20  1.9000000000000E-01  2.0996253698405E+00  8.1194301790284E-01 -2.9130480308646E-01
21  2.0000000000000E-01  2.0412970417684E+00  8.5695212413067E-01 -1.8977001969495E-01
22  2.1000000000000E-01  1.9668567907456E+00  9.0191828525104E-01 -8.7233408860060E-02
23  2.2000000000000E-01  1.8774387360930E+00  9.4674542883498E-01  1.3912758677355E-02
24  2.3000000000000E-01  1.7743101338966E+00  9.9132633684809E-01  1.1136312886103E-01
25  2.4000000000000E-01  1.6588524370000E+00  1.0355430610253E+00  2.0295142416592E-01
26  2.5000000000000E-01  1.5325414993054E+00  1.0792675130460E+00  2.8669707147759E-01
27  2.6000000000000E-01  1.3969272358921E+00  1.1223622287986E+00  3.6084526884443E-01
28  2.7000000000000E-01  1.2536130427009E+00  1.1646813021176E+00  4.2389971190120E-01
29  2.8000000000000E-01  1.1042352669612E+00  1.2060714794932E+00  4.7464746484307E-01
30  2.9000000000000E-01  9.5044300283229E-01  1.2463734035145E+00  5.1217572903868E-01
31  3.0000000000000E-01  7.9387846662569E-01  1.2854229893310E+00  5.3588052483671E-01
32  3.1000000000000E-01  6.3615818320208E-01  1.3230529153216E+00  5.4546754965142E-01
33  3.2000000000000E-01  4.7885519044507E-01  1.3590942065267E+00  5.4094569963375E-01
34  3.3000000000000E-01  3.2348244280372E-01  1.3933778873181E+00  5.2261393608019E-01
35  3.4000000000000E-01  1.7147756841883E-01  1.4257366783019E+00  4.9104233554796E-01
36  3.5000000000000E-01  2.4189107888893E-02  1.4560067116125E+00  4.4704828042482E-01
37  3.6000000000000E-01 -1.1713566321316E-01  1.4840292385694E+00  3.9166882219071E-01
38  3.7000000000000E-01 -2.5136125098610E-01  1.5096523041219E+00  3.2613028229866E-01
39  3.8000000000000E-01 -3.7747274571765E-01  1.5327323635754E+00  2.5181614674854E-01
40  3.9000000000000E-01 -4.9458287933013E-01  1.5531358187120E+00  1.7023426284661E-01
41  4.0000000000000E-01 -6.0193732759470E-01  1.5707404525279E+00  8.2984264683250E-02
42  4.1000000000000E-01 -6.9891826612306E-01  1.5854367443176E+00 -8.2739570343679E-03
43  4.2000000000000E-01 -7.8504620673295E-01  1.5971290496551E+00 -1.0185005847805E-01
44  4.3000000000000E-01 -8.5998015686754E-01  1.6057366328363E+00 -1.9605078589816E-01
45  4.4000000000000E-01 -9.2351615945372E-01  1.6111945424720E+00 -2.8920488153744E-01
46  4.5000000000000E-01 -9.7558428405389E-01  1.6134543240282E+00 -3.7968513243512E-01
47  4.6000000000000E-01 -1.0162441525511E+00  1.6124845661286E+00 -4.6592749291350E-01
48  4.7000000000000E-01 -1.0456790940521E+00  1.6082712802513E+00 -5.4644734911078E-01
49  4.8000000000000E-01 -1.0641890343132E+00  1.6008181160076E+00 -6.1985311284468E-01
50  4.9000000000000E-01 -1.0721822348833E+00  1.5901464164164E+00 -6.8485742781309E-01
51  5.0000000000000E-01 -1.0701660063442E+00  1.5762951194420E+00 -7.4028634039517E-01
52  5.1000000000000E-01 -1.0587365285310E+00  1.5593205135185E+00 -7.8508682811865E-01
53  5.2000000000000E-01 -1.0385679183448E+00  1.5392958558316E+00 -8.1833309072025E-01
54  5.3000000000000E-01 -1.0104006926641E+00  1.5163108627826E+00 -8.3923199240281E-01
55  5.4000000000000E-01 -9.7502977972790E-01  1.4904710823403E+00 -8.4712800158509E-01
56  5.5000000000000E-01 -9.3329223706070E-01  1.4618971579439E+00 -8.4150790940636E-01
57  5.6000000000000E-01 -8.8605483729087E-01  1.4307239932990E+00 -8.2200552484868E-01
58  5.7000000000000E-01 -8.3420168488242E-01  1.3970998268850E+00 -7.8840644763047E-01
59  5.8000000000000E-01 -7.7862202661108E-01  1.3611852243207E+00 -7.4065291572428E-01
60  5.9000000000000E-01 -7.2019841636963E-01  1.3231519960102E+00 -6.7884861834394E-01
61  6.0000000000000E-01 -6.5979539039491E-01  1.2831820467611E+00 -6.0326326353047E-01
62  6.1000000000000E-01 -5.9824880212969E-01  1.2414661634256E+00 -5.1433659776849E-01
63  6.2000000000000E-01 -5.3635595657796E-01  1.1982027461045E+00 -4.1268149858799E-01
64  6.3000000000000E-01 -4.7486667215838E-01  1.1535964881415E+00 -2.9908570440108E-01
65  6.4000000000000E-01 -4.1447538375374E-01  1.1078570100495E+00 -1.7451171247815E-01
66  6.5000000000000E-01 -3.5581438402044E-01  1.0611974526881E+00 -4.0094368548767E-02
67  6.6000000000000E-01 -2.9944828126333E-01  1.0138330354566E+00  1.0286430859770E-01
68  6.7000000000000E-01 -2.4586973157812E-01  9.6597958597497E-01  2.5290347673938E-01
69  6.8000000000000E-01 -1.9549648087146E-01  9.1785204868737E-01  4.0841532947829E-01
70  6.9000000000000E-01 -1.4866972920350E-01  8.6966298098610E-01  5.6766070245865E-01
71  7.0000000000000E-01 -1.0565380613733E-01  8.2162104678995E-01  7.2878854492605E-01
72  7.1000000000000E-01 -6.6637121934393E-02  7.7392951894657E-01  8.8985923937995E-01
73  7.2000000000000E-01 -3.1734336054883E-02  7.2678480330253E-01  1.0488716049138E+00
74  7.3000000000000E-01 -9.8966205367751E-04  6.8037499872178E-01  1.2037932667019E+00
75  7.4000000000000E-01  2.5618792839526E-02  6.3487850865349E-01  1.3525939211005E+00
76  7.5000000000000E-01  4.8173773882212E-02  5.9046272097829E-01  1.4932808790829E+00
77  7.6000000000000E-01  6.6812847289647E-02  5.4728277372086E-01  1.6239361363557E+00
78  7.7000000000000E-01  8.1721740716160E-02  5.0548042473808E-01  1.7427541022711E+00
79  7.8000000000000E-01  9.3127215219736E-02  4.6518304361455E-01  1.8480790268028E+00
80  7.9000000000000E-01  1.0128963430553E-01  4.2650274367071E-01  1.9384410999760E+00
81  8.0000000000000E-01  1.0649539793155E-01  3.8953567117745E-01  2.0125901648588E+00
82  8.1000000000000E-01  1.0904940771403E-01  3.5436146755087E-01  2.0695259862833E+00
83  8.2000000000000E-01  1.0926772399871E-01  3.2104291846618E-01  2.1085240544120E+00
84  8.3000000000000E-01  1.0747056607020E-01  2.8962580148872E-01  2.1291559756026E+00
85  8.4000000000000E-01  1.0397579375646E-01  2.6013894099870E-01  2.1313036120478E+00
86  8.5000000000000E-01  9.9092992341396E-02  2.3259447592383E-01  2.1151662746022E+00
87  8.6000000000000E-01  9.3118263400394E-02  2.0698834214628E-01  2.0812604471798E+00
88  8.7000000000000E-01  8.6329802367236E-02  1.8330096748417E-01  2.0304117223416E+00
89  8.8000000000000E-01  7.8984319833155E-02  1.6149817294166E-01  1.9637388515290E+00
90  8.9000000000000E-01  7.1314338317927E-02  1.4153226956242E-01  1.8826300545694E+00
91  9.0000000000000E-01  6.3526370123348E-02  1.2334333580269E-01  1.7887119857062E+00
92  9.1000000000000E-01  5.5799955471939E-02  1.0686065595803E-01  1.6838120113881E+00
93  9.2000000000000E-01  4.8287514046777E-02  9.2004295931533E-02  1.5699147120186E+00
94  9.3000000000000E-01  4.1114937857576E-02  7.8686788615688E-02  1.4491137695598E+00
95  9.4000000000000E-01  3.4382829613387E-02  6.6814897468963E-02  1.3235606391804E+00
96  9.5000000000000E-01  2.8168268991572E-02  5.6291423586332E-02  1.1954116202778E+00
97  9.6000000000000E-01  2.2526969804178E-02  4.7017018768647E-02  1.0667751349731E+00
98  9.7000000000000E-01  1.7495674471411E-02  3.8891964856034E-02  9.3966118588308E-01
99  9.8000000000000E-01  1.3094618734886E-02  3.1817877961106E-02  8.1593509573497E-01
100  9.9000000000000E-01  9.3298894255888E-03  2.5699295261014E-02  6.9727772607678E-01
101  1.0000000000000E+00  6.1954915088498E-03  2.0445101712160E-02  5.8515442868703E-01
102  1.0100000000000E+00  3.6749376460722E-03  1.5969754452340E-02  4.8079499994312E-01
103  1.0200000000000E+00  1.7421741552724E-03  1.2194263753041E-02  3.8518688479738E-01
104  1.0300000000000E+00  3.6166460460390E-04  9.0468923253505E-03  2.9908378390381E-01
105  1.0400000000000E+00 -5.1251461490301E-04  6.4635378139078E-03  2.2303152593647E-01
106  1.0500000000000E+00 -9.4845575260231E-04  4.3842240408381E-03  1.5750450277036E-01
107  1.0600000000000E+00 -1.0618868345842E-03  2.7423778017031E-03  1.0319206430400E-01
108  1.0700000000000E+00 -9.0365870220272E-04  1.5088665522919E-03  5.9970732338707E-02
109  1.0800000000000E+00 -5.6503004351596E-04  6.5900598368820E-04  2.7924937648268E-02
110  1.0900000000000E+00 -1.9317749487340E-04  1.6530874122373E-04  7.5410803261474E-03
111  1.1000000000000E+00 -2.1513040981433E-06  1.3993019813137E-06  6.8777712998613E-05
112  1.1100000000000E+00 -1.4037616166526E-06  9.4507800784851E-07  4.6357571523531E-05
113  1.1200000000000E+00  3.7096292653259E-08 -2.8103033114261E-08 -1.3295009435320E-06
114  1.13  0.  0.  0.
115  1.14  0.  0.  0.
116  1.15  0.  0.  0.
117  1.16  0.  0.  0.
118  1.17  0.  0.  0.
119  1.18  0.  0.  0.
120  1.19  0.  0.  0.
121  1.20  0.  0.  0.
122  1.21  0.  0.  0.
123  1.22  0.  0.  0.
124  1.23  0.  0.  0.
125  1.24  0.  0.  0.
126  1.25  0.  0.  0.
127  1.26  0.  0.  0.
128  1.27  0.  0.  0.
129  1.28  0.  0.  0.
130  1.29  0.  0.  0.
131  1.30  0.  0.  0.
132  1.31  0.  0.  0.
133  1.32  0.  0.  0.
134  1.33  0.  0.  0.
135  1.34  0.  0.  0.
136  1.35  0.  0.  0.
137  1.36  0.  0.  0.
138  1.37  0.  0.  0.
139  1.38  0.  0.  0.
140  1.39  0.  0.  0.
141  1.40  0.  0.  0.
142  1.41  0.  0.  0.
143  1.42  0.  0.  0.
144  1.43  0.  0.  0.
145  1.44  0.  0.  0.
146  1.45  0.  0.  0.
147  1.46  0.  0.  0.
148  1.47  0.  0.  0.
149  1.48  0.  0.  0.
150  1.49  0.  0.  0.
151  1.50  0.  0.  0.
152  1.51  0.  0.  0.
153  1.52  0.  0.  0.
154  1.53  0.  0.  0.
155  1.54  0.  0.  0.
156  1.55  0.  0.  0.
157  1.56  0.  0.  0.
158  1.57  0.  0.  0.
159  1.58  0.  0.  0.
160  1.59  0.  0.  0.
161  1.60  0.  0.  0.
162  1.61  0.  0.  0.
163  1.62  0.  0.  0.
164  1.63  0.  0.  0.
165  1.64  0.  0.  0.
166  1.65  0.  0.  0.
167  1.66  0.  0.  0.
168  1.67  0.  0.  0.
169  1.68  0.  0.  0.
170  1.69  0.  0.  0.
171  1.70  0.  0.  0.
172  1.71  0.  0.  0.
173  1.72  0.  0.  0.
174  1.73  0.  0.  0.
175  1.74  0.  0.  0.
176  1.75  0.  0.  0.
177  1.76  0.  0.  0.
178  1.77  0.  0.  0.
179  1.78  0.  0.  0.
180  1.79  0.  0.  0.
181  1.80  0.  0.  0.
182  1.81  0.  0.  0.
183  1.82  0.  0.  0.
184  1.83  0.  0.  0.
185  1.84  0.  0.  0.
186  1.85  0.  0.  0.
187  1.86  0.  0.  0.
188  1.87  0.  0.  0.
189  1.88  0.  0.  0.
190  1.89  0.  0.  0.
191  1.90  0.  0.  0.
192  1.91  0.  0.  0.
193  1.92  0.  0.  0.
194  1.93  0.  0.  0.
195  1.94  0.  0.  0.
196  1.95  0.  0.  0.
197  1.96  0.  0.  0.
198  1.97  0.  0.  0.
199  1.98  0.  0.  0.
200  1.99  0.  0.  0.
201  2.00  0.  0.  0.
202  2.01  0.  0.  0.
203  2.02  0.  0.  0.
204  2.03  0.  0.  0.
205  2.04  0.  0.  0.
206  2.05  0.  0.  0.
207  2.06  0.  0.  0.
208  2.07  0.  0.  0.
209  2.08  0.  0.  0.
210  2.09  0.  0.  0.
211  2.10  0.  0.  0.
212  2.11  0.  0.  0.
213  2.12  0.  0.  0.
214  2.13  0.  0.  0.
215  2.14  0.  0.  0.
216  2.15  0.  0.  0.
217  2.16  0.  0.  0.
218  2.17  0.  0.  0.
219  2.18  0.  0.  0.
220  2.19  0.  0.  0.
221  2.20  0.  0.  0.
222  2.21  0.  0.  0.
223  2.22  0.  0.  0.
224  2.23  0.  0.  0.
225  2.24  0.  0.  0.
226  2.25  0.  0.  0.
227  2.26  0.  0.  0.
228  2.27  0.  0.  0.
229  2.28  0.  0.  0.
230  2.29  0.  0.  0.
231  2.30  0.  0.  0.
232  2.31  0.  0.  0.
233  2.32  0.  0.  0.
234  2.33  0.  0.  0.
235  2.34  0.  0.  0.
236  2.35  0.  0.  0.
237  2.36  0.  0.  0.
238  2.37  0.  0.  0.
239  2.38  0.  0.  0.
240  2.39  0.  0.  0.
241  2.40  0.  0.  0.
242  2.41  0.  0.  0.
243  2.42  0.  0.  0.
244  2.43  0.  0.  0.
245  2.44  0.  0.  0.
246  2.45  0.  0.  0.
247  2.46  0.  0.  0.
248  2.47  0.  0.  0.
249  2.48  0.  0.  0.
250  2.49  0.  0.  0.
251  2.50  0.  0.  0.
252  2.51  0.  0.  0.
253  2.52  0.  0.  0.
254  2.53  0.  0.  0.
255  2.54  0.  0.  0.
256  2.55  0.  0.  0.
257  2.56  0.  0.  0.
258  2.57  0.  0.  0.
259  2.58  0.  0.  0.
260  2.59  0.  0.  0.
261  2.60  0.  0.  0.
262  2.61  0.  0.  0.
263  2.62  0.  0.  0.
264  2.63  0.  0.  0.
265  2.64  0.  0.  0.
266  2.65  0.  0.  0.
267  2.66  0.  0.  0.
268  2.67  0.  0.  0.
269  2.68  0.  0.  0.
270  2.69  0.  0.  0.
271  2.70  0.  0.  0.
272  2.71  0.  0.  0.
273  2.72  0.  0.  0.
274  2.73  0.  0.  0.
275  2.74  0.  0.  0.
276  2.75  0.  0.  0.
277  2.76  0.  0.  0.
278  2.77  0.  0.  0.
279  2.78  0.  0.  0.
280  2.79  0.  0.  0.
281  2.80  0.  0.  0.
282  2.81  0.  0.  0.
283  2.82  0.  0.  0.
284  2.83  0.  0.  0.
285  2.84  0.  0.  0.
286  2.85  0.  0.  0.
287  2.86  0.  0.  0.
288  2.87  0.  0.  0.
289  2.88  0.  0.  0.
290  2.89  0.  0.  0.
291  2.90  0.  0.  0.
292  2.91  0.  0.  0.
293  2.92  0.  0.  0.
294  2.93  0.  0.  0.
295  2.94  0.  0.  0.
296  2.95  0.  0.  0.
297  2.96  0.  0.  0.
298  2.97  0.  0.  0.
299  2.98  0.  0.  0.
300  2.99  0.  0.  0.
301  3.00  0.  0.  0.
302  3.01  0.  0.  0.
303  3.02  0.  0.  0.
304  3.03  0.  0.  0.
305  3.04  0.  0.  0.
306  3.05  0.  0.  0.
307  3.06  0.  0.  0.
308  3.07  0.  0.  0.
309  3.08  0.  0.  0.
310  3.09  0.  0.  0.
311  3.10  0.  0.  0.
312  3.11  0.  0.  0.
313  3.12  0.  0.  0.
314  3.13  0.  0.  0.
315  3.14  0.  0.  0.
316  3.15  0.  0.  0.
317  3.16  0.  0.  0.
318  3.17  0.  0.  0.
319  3.18  0.  0.  0.
320  3.19  0.  0.  0.
321  3.20  0.  0.  0.
322  3.21  0.  0.  0.
323  3.22  0.  0.  0.
324  3.23  0.  0.  0.
325  3.24  0.  0.  0.
326  3.25  0.  0.  0.
327  3.26  0.  0.  0.
328  3.27  0.  0.  0.
329  3.28  0.  0.  0.
330  3.29  0.  0.  0.
331  3.30  0.  0.  0.
332  3.31  0.  0.  0.
333  3.32  0.  0.  0.
334  3.33  0.  0.  0.
335  3.34  0.  0.  0.
336  3.35  0.  0.  0.
337  3.36  0.  0.  0.
338  3.37  0.  0.  0.
339  3.38  0.  0.  0.
340  3.39  0.  0.  0.
341  3.40  0.  0.  0.
342  3.41  0.  0.  0.
343  3.42  0.  0.  0.
344  3.43  0.  0.  0.
345  3.44  0.  0.  0.
346  3.45  0.  0.  0.
347  3.46  0.  0.  0.
348  3.47  0.  0.  0.
349  3.48  0.  0.  0.
350  3.49  0.  0.  0.
351  3.50  0.  0.  0.
352  3.51  0.  0.  0.
353  3.52  0.  0.  0.
354  3.53  0.  0.  0.
355  3.54  0.  0.  0.
356  3.55  0.  0.  0.
357  3.56  0.  0.  0.
358  3.57  0.  0.  0.
359  3.58  0.  0.  0.
360  3.59  0.  0.  0.
361  3.60  0.  0.  0.
362  3.61  0.  0.  0.
363  3.62  0.  0.  0.
364  3.63  0.  0.  0.
365  3.64  0.  0.  0.
366  3.65  0.  0.  0.
367  3.66  0.  0.  0.
368  3.67  0.  0.  0.
369  3.68  0.  0.  0.
370  3.69  0.  0.  0.
371  3.70  0.  0.  0.
372  3.71  0.  0.  0.
373  3.72  0.  0.  0.
374  3.73  0.  0.  0.
375  3.74  0.  0.  0.
376  3.75  0.  0.  0.
377  3.76  0.  0.  0.
378  3.77  0.  0.  0.
379  3.78  0.  0.  0.
380  3.79  0.  0.  0.
381  3.80  0.  0.  0.
382  3.81  0.  0.  0.
383  3.82  0.  0.  0.
384  3.83  0.  0.  0.
385  3.84  0.  0.  0.
386  3.85  0.  0.  0.
387  3.86  0.  0.  0.
388  3.87  0.  0.  0.
389  3.88  0.  0.  0.
390  3.89  0.  0.  0.
391  3.90  0.  0.  0.
392  3.91  0.  0.  0.
393  3.92  0.  0.  0.
394  3.93  0.  0.  0.
395  3.94  0.  0.  0.
396  3.95  0.  0.  0.
397  3.96  0.  0.  0.
398  3.97  0.  0.  0.
399  3.98  0.  0.  0.
400  3.99  0.  0.  0.
401  4.00  0.  0.  0.
402  4.01  0.  0.  0.
403  4.02  0.  0.  0.
404  4.03  0.  0.  0.
405  4.04  0.  0.  0.
406  4.05  0.  0.  0.
407  4.06  0.  0.  0.
408  4.07  0.  0.  0.
409  4.08  0.  0.  0.
410  4.09  0.  0.  0.
411  4.10  0.  0.  0.
412  4.11  0.  0.  0.
413  4.12  0.  0.  0.
414  4.13  0.  0.  0.
415  4.14  0.  0.  0.
416  4.15  0.  0.  0.
417  4.16  0.  0.  0.
418  4.17  0.  0.  0.
419  4.18  0.  0.  0.
420  4.19  0.  0.  0.
421  4.20  0.  0.  0.
422  4.21  0.  0.  0.
423  4.22  0.  0.  0.
424  4.23  0.  0.  0.
425  4.24  0.  0.  0.
426  4.25  0.  0.  0.
427  4.26  0.  0.  0.
428  4.27  0.  0.  0.
429  4.28  0.  0.  0.
430  4.29  0.  0.  0.
431  4.30  0.  0.  0.
432  4.31  0.  0.  0.
433  4.32  0.  0.  0.
434  4.33  0.  0.  0.
435  4.34  0.  0.  0.
436  4.35  0.  0.  0.
437  4.36  0.  0.  0.
438  4.37  0.  0.  0.
439  4.38  0.  0.  0.
440  4.39  0.  0.  0.
441  4.40  0.  0.  0.
442  4.41  0.  0.  0.
443  4.42  0.  0.  0.
444  4.43  0.  0.  0.
445  4.44  0.  0.  0.
446  4.45  0.  0.  0.
447  4.46  0.  0.  0.
448  4.47  0.  0.  0.
449  4.48  0.  0.  0.
450  4.49  0.  0.  0.
451  4.50  0.  0.  0.
452  4.51  0.  0.  0.
453  4.52  0.  0.  0.
454  4.53  0.  0.  0.
455  4.54  0.  0.  0.
456  4.55  0.  0.  0.
457  4.56  0.  0.  0.
458  4.57  0.  0.  0.
459  4.58  0.  0.  0.
460  4.59  0.  0.  0.
461  4.60  0.  0.  0.
462  4.61  0.  0.  0.
463  4.62  0.  0.  0.
464  4.63  0.  0.  0.
465  4.64  0.  0.  0.
466  4.65  0.  0.  0.
467  4.66  0.  0.  0.
468  4.67  0.  0.  0.
469  4.68  0.  0.  0.
470  4.69  0.  0.  0.
471  4.70  0.  0.  0.
472  4.71  0.  0.  0.
473  4.72  0.  0.  0.
474  4.73  0.  0.  0.
475  4.74  0.  0.  0.
476  4.75  0.  0.  0.
477  4.76  0.  0.  0.
478  4.77  0.  0.  0.
479  4.78  0.  0.  0.
480  4.79  0.  0.  0.
481  4.80  0.  0.  0.
482  4.81  0.  0.  0.
483  4.82  0.  0.  0.
484  4.83  0.  0.  0.
485  4.84  0.  0.  0.
486  4.85  0.  0.  0.
487  4.86  0.  0.  0.
488  4.87  0.  0.  0.
489  4.88  0.  0.  0.
490  4.89  0.  0.  0.
491  4.90  0.  0.  0.
492  4.91  0.  0.  0.
493  4.92  0.  0.  0.
494  4.93  0.  0.  0.
495  4.94  0.  0.  0.
496  4.95  0.  0.  0.
497  4.96  0.  0.  0.
498  4.97  0.  0.  0.
499  4.98  0.  0.  0.
500  4.99  0.  0.  0.
501  5.00  0.  0.  0.
502  5.01  0.  0.  0.
503  5.02  0.  0.  0.
504  5.03  0.  0.  0.
505  5.04  0.  0.  0.
506  5.05  0.  0.  0.
507  5.06  0.  0.  0.
508  5.07  0.  0.  0.
509  5.08  0.  0.  0.
510  5.09  0.  0.  0.
511  5.10  0.  0.  0.
512  5.11  0.  0.  0.
513  5.12  0.  0.  0.
514  5.13  0.  0.  0.
515  5.14  0.  0.  0.
516  5.15  0.  0.  0.
517  5.16  0.  0.  0.
518  5.17  0.  0.  0.
519  5.18  0.  0.  0.
520  5.19  0.  0.  0.
521  5.20  0.  0.  0.
522  5.21  0.  0.  0.
523  5.22  0.  0.  0.
524  5.23  0.  0.  0.
525  5.24  0.  0.  0.
526  5.25  0.  0.  0.
527  5.26  0.  0.  0.
528  5.27  0.  0.  0.
529  5.28  0.  0.  0.
530  5.29  0.  0.  0.
531  5.30  0.  0.  0.
532  5.31  0.  0.  0.
533  5.32  0.  0.  0.
534  5.33  0.  0.  0.
535  5.34  0.  0.  0.
536  5.35  0.  0.  0.
537  5.36  0.  0.  0.
538  5.37  0.  0.  0.
539  5.38  0.  0.  0.
540  5.39  0.  0.  0.
541  5.40  0.  0.  0.
542  5.41  0.  0.  0.
543  5.42  0.  0.  0.
544  5.43  0.  0.  0.
545  5.44  0.  0.  0.
546  5.45  0.  0.  0.
547  5.46  0.  0.  0.
548  5.47  0.  0.  0.
549  5.48  0.  0.  0.
550  5.49  0.  0.  0.
551  5.50  0.  0.  0.
552  5.51  0.  0.  0.
553  5.52  0.  0.  0.
554  5.53  0.  0.  0.
555  5.54  0.  0.  0.
556  5.55  0.  0.  0.
557  5.56  0.  0.  0.
558  5.57  0.  0.  0.
559  5.58  0.  0.  0.
560  5.59  0.  0.  0.
561  5.60  0.  0.  0.
562  5.61  0.  0.  0.
563  5.62  0.  0.  0.
564  5.63  0.  0.  0.
565  5.64  0.  0.  0.
566  5.65  0.  0.  0.
567  5.66  0.  0.  0.
568  5.67  0.  0.  0.
569  5.68  0.  0.  0.
570  5.69  0.  0.  0.
571  5.70  0.  0.  0.
572  5.71  0.  0.  0.
573  5.72  0.  0.  0.
574  5.73  0.  0.  0.
575  5.74  0.  0.  0.
576  5.75  0.  0.  0.
577  5.76  0.  0.  0.
578  5.77  0.  0.  0.
579  5.78  0.  0.  0.
580  5.79  0.  0.  0.
581  5.80  0.  0.  0.
582  5.81  0.  0.  0.
583  5.82  0.  0.  0.
584  5.83  0.  0.  0.
585  5.84  0.  0.  0.
586  5.85  0.  0.  0.
587  5.86  0.  0.  0.
588  5.87  0.  0.  0.
589  5.88  0.  0.  0.
590  5.89  0.  0.  0.
591  5.90  0.  0.  0.
592  5.91  0.  0.  0.
593  5.92  0.  0.  0.
594  5.93  0.  0.  0.
595  5.94  0.  0.  0.
596  5.95  0.  0.  0.
597  5.96  0.  0.  0.
598  5.97  0.  0.  0.
599  5.98  0.  0.  0.
600  5.99  0.  0.  0.
1                        -7.4807148906469E+00  2.1165325992631E+00
1  0.0000000000000E+00  8.0209494601746E-10 -1.5947513365422E-08
2  1.0000000000000E-02  2.0920745659047E-03 -4.3051203463323E-03
3  2.0000000000000E-02  8.3570212483923E-03 -1.7168982951721E-02
4  3.0000000000000E-02  1.8761077178540E-02 -3.8437725739726E-02
5  4.0000000000000E-02  3.3248197758593E-02 -6.7857013392932E-02
6  5.0000000000000E-02  5.1740395519153E-02 -1.0507515728445E-01
7  6.0000000000000E-02  7.4138211683956E-02 -1.4964741941073E-01
8  7.0000000000000E-02  1.0032131761101E-01 -2.0104143773616E-01
9  8.0000000000000E-02  1.3014924247669E-01 -2.5864369441221E-01
10  9.0000000000000E-02  1.6346222277353E-01 -3.2176693378640E-01
11  1.0000000000000E-01  2.0008216840560E-01 -3.8965842420930E-01
12  1.1000000000000E-01  2.3981373939169E-01 -4.6150894659876E-01
13  1.2000000000000E-01  2.8244552642938E-01 -5.3646238370138E-01
14  1.3000000000000E-01  3.2775132783923E-01 -6.1362577713448E-01
15  1.4000000000000E-01  3.7549151470181E-01 -6.9207971468114E-01
16  1.5000000000000E-01  4.2541447533013E-01 -7.7088890799146E-01
17  1.6000000000000E-01  4.7725812959167E-01 -8.4911282080509E-01
18  1.7000000000000E-01  5.3075150301696E-01 -9.2581621000492E-01
19  1.8000000000000E-01  5.8561635011326E-01 -1.0000794461461E+00
20  1.9000000000000E-01  6.4156881585100E-01 -1.0710084864434E+00
21  2.0000000000000E-01  6.9832112391533E-01 -1.1377443813752E+00
22  2.1000000000000E-01  7.5558328002435E-01 -1.1994722058702E+00
23  2.2000000000000E-01  8.1306477841581E-01 -1.2554293172576E+00
24  2.3000000000000E-01  8.7047629950330E-01 -1.3049128545372E+00
25  2.4000000000000E-01  9.2753138670577E-01 -1.3472864067920E+00
26  2.5000000000000E-01  9.8394809056648E-01 -1.3819857924631E+00
27  2.6000000000000E-01  1.0394505685009E+00 -1.4085239054555E+00
28  2.7000000000000E-01  1.0937706288509E+00 -1.4264945983777E+00
29  2.8000000000000E-01  1.1466492083711E+00 -1.4355755873818E+00
30  2.9000000000000E-01  1.1978377728384E+00 -1.4355303768234E+00
31  3.0000000000000E-01  1.2470996311375E+00 -1.4262092150753E+00
32  3.1000000000000E-01  1.2942111539525E+00 -1.4075491051188E+00
33  3.2000000000000E-01  1.3389628890492E+00 -1.3795729048217E+00
34  3.3000000000000E-01  1.3811605660851E+00 -1.3423875619617E+00
35  3.4000000000000E-01  1.4206259848999E+00 -1.2961815379594E+00
36  3.5000000000000E-01  1.4571977823166E+00 -1.2412214818713E+00
37  3.6000000000000E-01  1.4907320736124E+00 -1.1778482224153E+00
38  3.7000000000000E-01  1.5211029659698E+00 -1.1064721506581E+00
39  3.8000000000000E-01  1.5482029423929E+00 -1.0275680694883E+00
40  3.9000000000000E-01  1.5719431157459E+00 -9.4166958819250E-01
41  4.0000000000000E-01  1.5922533537274E+00 -8.4936314140127E-01
42  4.1000000000000E-01  1.6090822767200E+00 -7.5128171146921E-01
43  4.2000000000000E-01  1.6223971315351E+00 -6.4809833210571E-01
44  4.3000000000000E-01  1.6321835450965E+00 -5.4051944889332E-01
45  4.4000000000000E-01  1.6384451630527E+00 -4.2927820934194E-01
46  4.5000000000000E-01  1.6412031791806E+00 -3.1512775146140E-01
47  4.6000000000000E-01  1.6404957622140E+00 -1.9883455561072E-01
48  4.7000000000000E-01  1.6363773874127E+00 -8.1171919730198E-02
49  4.8000000000000E-01  1.6289180807583E+00  3.7086386909566E-02
50  4.9000000000000E-01  1.6182025841313E+00  1.5517224149242E-01
51  5.0000000000000E-01  1.6043294501815E+00  2.7232901232856E-01
52  5.1000000000000E-01  1.5874100758567E+00  3.8781709111496E-01
53  5.2000000000000E-01  1.5675676837014E+00  5.0091907880693E-01
54  5.3000000000000E-01  1.5449362600870E+00  6.1094459637426E-01
55  5.4000000000000E-01  1.5196594594918E+00  7.1723469685498E-01
56  5.5000000000000E-01  1.4918894838194E+00  8.1916586012594E-01
57  5.6000000000000E-01  1.4617859455417E+00  9.1615355667082E-01
58  5.7000000000000E-01  1.4295147231815E+00  1.0076553713354E+00
59  5.8000000000000E-01  1.3952468173244E+00  1.0931736826214E+00
60  5.9000000000000E-01  1.3591572149759E+00  1.1722578974893E+00
61  6.0000000000000E-01  1.3214237696745E+00  1.2445062459240E+00
62  6.1000000000000E-01  1.2822261043348E+00  1.3095671436656E+00
63  6.2000000000000E-01  1.2417445433457E+00  1.3671401355281E+00
64  6.3000000000000E-01  1.2001590799865E+00  1.4169764356060E+00
65  6.4000000000000E-01  1.1576483847591E+00  1.4588790843900E+00
66  6.5000000000000E-01  1.1143888597747E+00  1.4927027463526E+00
67  6.6000000000000E-01  1.0705537438729E+00  1.5183531748818E+00
68  6.7000000000000E-01  1.0263122727068E+00  1.5357863744831E+00
69  6.8000000000000E-01  9.8182889758154E-01  1.5450074928852E+00
70  6.9000000000000E-01  9.3726256640441E-01  1.5460694779891E+00
71  7.0000000000000E-01  8.9276606967311E-01  1.5390715364227E+00
72  7.1000000000000E-01  8.4848545400087E-01  1.5241574317112E+00
73  7.2000000000000E-01  8.0455950524735E-01  1.5015136606663E+00
74  7.3000000000000E-01  7.6111930288390E-01  1.4713675464277E+00
75  7.4000000000000E-01  7.1828784676887E-01  1.4339852856002E+00
76  7.5000000000000E-01  6.7617975703625E-01  1.3896699850083E+00
77  7.6000000000000E-01  6.3490104730367E-01  1.3387597207033E+00
78  7.7000000000000E-01  5.9454897087929E-01  1.2816256479316E+00
79  7.8000000000000E-01  5.5521193908804E-01  1.2186701857926E+00
80  7.9000000000000E-01  5.1696951024265E-01  1.1503252942669E+00
81  8.0000000000000E-01  4.7989244715413E-01  1.0770508542054E+00
82  8.1000000000000E-01  4.4404284041000E-01  9.9933315278074E-01
83  8.2000000000000E-01  4.0947429394938E-01  9.1768346790554E-01
84  8.3000000000000E-01  3.7623216873755E-01  8.3263673531581E-01
85  8.4000000000000E-01  3.4435387959455E-01  7.4475027155820E-01
86  8.5000000000000E-01  3.1386923947323E-01  6.5460251517283E-01
87  8.6000000000000E-01  2.8480084472136E-01  5.6279173713505E-01
88  8.7000000000000E-01  2.5716449411406E-01  4.6993466033695E-01
89  8.8000000000000E-01  2.3096963372025E-01  3.7666491680014E-01
90  8.9000000000000E-01  2.0621981898645E-01  2.8363126068413E-01
91  9.0000000000000E-01  1.8291318479880E-01  1.9149544526040E-01
92  9.1000000000000E-01  1.6104291373775E-01  1.0092966314699E-01
93  9.2000000000000E-01  1.4059769228519E-01  1.2613441513937E-02
94  9.3000000000000E-01  1.2156214439871E-01 -7.2770122049523E-02
95  9.4000000000000E-01  1.0391723164723E-01 -1.5453890152799E-01
96  9.5000000000000E-01  8.7640609021056E-02 -2.3201718302223E-01
97  9.6000000000000E-01  7.2706925599095E-02 -3.0454212447475E-01
98  9.7000000000000E-01  5.9088059488229E-02 -3.7147135275912E-01
99  9.8000000000000E-01  4.6753276849677E-02 -4.3219181136576E-01
100  9.9000000000000E-01  3.5669305400696E-02 -4.8612996440533E-01
101  1.0000000000000E+00  2.5800313526443E-02 -5.3276345256429E-01
102  1.0100000000000E+00  1.7107787054249E-02 -5.7163428403575E-01
103  1.0200000000000E+00  9.5502968238804E-03 -6.0236362841052E-01
104  1.0300000000000E+00  3.0831514207867E-03 -6.2466826423167E-01
105  1.0400000000000E+00 -2.3420691860399E-03 -6.3837871156034E-01
106  1.0500000000000E+00 -6.7781018661929E-03 -6.4345905980558E-01
107  1.0600000000000E+00 -1.0282711580935E-02 -6.4002847852220E-01
108  1.0700000000000E+00 -1.2919525166151E-02 -6.2838437521579E-01
109  1.0800000000000E+00 -1.4758985427561E-02 -6.0902713990740E-01
110  1.0900000000000E+00 -1.5879423657140E-02 -5.8268643998665E-01
111  1.1000000000000E+00 -1.6368228135919E-02 -5.5034856379243E-01
112  1.1100000000000E+00 -1.6322498050118E-02 -5.1327042810503E-01
113  1.1200000000000E+00 -1.5841833715715E-02 -4.7280861068350E-01
114  1.1300000000000E+00 -1.5019273836830E-02 -4.3021131695271E-01
115  1.1400000000000E+00 -1.3939920675761E-02 -3.8659485148715E-01
116  1.1500000000000E+00 -1.2680620047812E-02 -3.4294344044672E-01
117  1.1600000000000E+00 -1.1309801494511E-02 -3.0011114423027E-01
118  1.1700000000000E+00 -9.8874495731346E-03 -2.5882531731290E-01
119  1.1800000000000E+00 -8.4651900183328E-03 -2.1969139346815E-01
120  1.1900000000000E+00 -7.0864724504930E-03 -1.8319872991540E-01
121  1.2000000000000E+00 -5.7868311673395E-03 -1.4972724306557E-01
122  1.2100000000000E+00 -4.5942057957919E-03 -1.1955457350167E-01
123  1.2200000000000E+00 -3.5293008099193E-03 -9.2863409204213E-02
124  1.2300000000000E+00 -2.6059975537931E-03 -6.9749735335062E-02
125  1.2400000000000E+00 -1.8311381069469E-03 -5.0207039528956E-02
126  1.2500000000000E+00 -1.2028758252776E-03 -3.4039672230991E-02
127  1.2600000000000E+00 -7.1964679921403E-04 -2.1206043493989E-02
128  1.2700000000000E+00 -3.7425486762419E-04 -1.1614909830850E-02
129  1.2800000000000E+00 -1.5304669883575E-04 -5.0792898734174E-03
130  1.2900000000000E+00 -3.6368030502578E-05 -1.3172068438691E-03
131  1.3000000000000E+00 -7.4730139555653E-07 -3.1117316459329E-05
132  1.3100000000000E+00 -1.1792365306266E-07 -4.6979172678510E-06
133  1.3200000000000E+00  4.3545478103851E-08  1.6350544035307E-06
134  1.33  0.  0.
135  1.34  0.  0.
136  1.35  0.  0.
137  1.36  0.  0.
138  1.37  0.  0.
139  1.38  0.  0.
140  1.39  0.  0.
141  1.40  0.  0.
142  1.41  0.  0.