Pa    ONCVPSP-4.0.1  r_core=   1.25016   1.25016   1.45183   1.45183
91.0000     31.0000      231012    zatom,zion,pspd
8   -1012   3     4   600     0    pspcod,pspxc,lmax,lloc,mmax,r2well
5.99000000  5.00000000  0.00000000    rchrg fchrg qchrg
3     3     4     2    nproj
3     1           extension_switch
4     4     4    nprojso
0                         2.3451877417654E+01  3.4159397624486E+00 -2.7830262448047E-01
1  0.0000000000000E+00 -3.9417416441978E-08  1.0414627515942E-07  5.7247640872227E-07
2  1.0000000000000E-02  1.2200459844316E-01 -4.8587320462111E-02 -1.6201820411699E-01
3  2.0000000000000E-02  2.4330036725768E-01 -9.6105109243690E-02 -3.1915281387448E-01
4  3.0000000000000E-02  3.6318957998854E-01 -1.4151100024288E-01 -4.6667365373224E-01
5  4.0000000000000E-02  4.8099639237131E-01 -1.8381610062006E-01 -6.0015251136188E-01
6  5.0000000000000E-02  5.9607698376473E-01 -2.2210961101939E-01 -7.1560208841810E-01
7  6.0000000000000E-02  7.0782876867141E-01 -2.5558098448276E-01 -8.0960094401877E-01
8  7.0000000000000E-02  8.1569841679007E-01 -2.8353893148626E-01 -8.7940046336260E-01
9  8.0000000000000E-02  9.1918845946021E-01 -3.0542668267548E-01 -9.2301045638959E-01
10  9.0000000000000E-02  1.0178623071125E+00 -3.2083304445393E-01 -9.3926067202619E-01
11  1.0000000000000E-01  1.1113475548680E+00 -3.2949892150361E-01 -9.2783628068602E-01
12  1.1000000000000E-01  1.1993375099866E+00 -3.3131912999644E-01 -8.8928620689524E-01
13  1.2000000000000E-01  1.2815909335624E+00 -3.2633948073425E-01 -8.2500405876052E-01
14  1.3000000000000E-01  1.3579300477398E+00 -3.1474926758677E-01 -7.3718227395203E-01
15  1.4000000000000E-01  1.4282369168101E+00 -2.9686944819938E-01 -6.2874095508965E-01
16  1.5000000000000E-01  1.4924483639302E+00 -2.7313694598467E-01 -5.0323367369758E-01
17  1.6000000000000E-01  1.5505496330884E+00 -2.4408563016522E-01 -3.6473325549468E-01
18  1.7000000000000E-01  1.6025670467155E+00 -2.1032463984114E-01 -2.1770119728619E-01
19  1.8000000000000E-01  1.6485599416163E+00 -1.7251480505932E-01 -6.6844886743278E-02
20  1.9000000000000E-01  1.6886121885865E+00 -1.3134397974140E-01  8.3032815759321E-02
21  2.0000000000000E-01  1.7228236133888E+00 -8.7502135981107E-02  2.2718683177802E-01
22  2.1000000000000E-01  1.7513016382603E+00 -4.1657075457500E-02  3.6108106547585E-01
23  2.2000000000000E-01  1.7741534537274E+00  5.5684087361599E-03  4.8053272719427E-01
24  2.3000000000000E-01  1.7914790105050E+00  5.3617136977654E-02  5.8184517817143E-01
25  2.4000000000000E-01  1.8033650912900E+00  1.0201520863711E-01  6.6192506313788E-01
26  2.5000000000000E-01  1.8098806833098E+00  1.5038612279859E-01  7.1838000127943E-01
27  2.6000000000000E-01  1.8110738258277E+00  1.9846086994049E-01  7.4959372903428E-01
28  2.7000000000000E-01  1.8069700539954E+00  2.4608364807244E-01  7.5477631038345E-01
29  2.8000000000000E-01  1.7975725032269E+00  2.9321300655202E-01  7.3398782859012E-01
30  2.9000000000000E-01  1.7828636785653E+00  3.3991837754508E-01  6.8813482213695E-01
31  3.0000000000000E-01  1.7628088333275E+00  3.8637211361747E-01  6.1893959963499E-01
32  3.1000000000000E-01  1.7373608426760E+00  4.3283730496230E-01  5.2888343576063E-01
33  3.2000000000000E-01  1.7064664026569E+00  4.7965179607267E-01  4.2112548493945E-01
34  3.3000000000000E-01  1.6700733355560E+00  5.2720895433878E-01  2.9940002471200E-01
35  3.4000000000000E-01  1.6281387398433E+00  5.7593585760233E-01  1.6789533160416E-01
36  3.5000000000000E-01  1.5806376889958E+00  6.2626966023857E-01  3.1118076660145E-02
37  3.6000000000000E-01  1.5275721592883E+00  6.7863296469156E-01 -1.0625241314447E-01
38  3.7000000000000E-01  1.4689798530987E+00  7.3340906522161E-01 -2.3951536231613E-01
39  3.8000000000000E-01  1.4049425819106E+00  7.9091794151134E-01 -3.6410038884566E-01
40  3.9000000000000E-01  1.3355938821469E+00  8.5139386125475E-01 -4.7571513306225E-01
41  4.0000000000000E-01  1.2611255570151E+00  9.1496540344924E-01 -5.7048396777008E-01
42  4.1000000000000E-01  1.1817928680723E+00  9.8163863931390E-01 -6.4507337713595E-01
43  4.2000000000000E-01  1.0979181402694E+00  1.0512841079795E+00 -6.9680002600759E-01
44  4.3000000000000E-01  1.0098925925350E+00  1.1236281026014E+00 -7.2371810241045E-01
45  4.4000000000000E-01  9.1817626093798E-01  1.1982486433221E+00 -7.2468318551233E-01
46  4.5000000000000E-01  8.2329594133378E-01  1.2745763611621E+00 -6.9939064743748E-01
47  4.6000000000000E-01  7.2584114119921E-01  1.3519003564909E+00 -6.4838741522632E-01
48  4.7000000000000E-01  6.2645809401427E-01  1.4293789325540E+00 -5.7305677233669E-01
49  4.8000000000000E-01  5.2584195196712E-01  1.5060549440442E+00 -4.7557673954701E-01
50  4.9000000000000E-01  4.2472733186848E-01  1.5808753482505E+00 -3.5885341501859E-01
51  5.0000000000000E-01  3.2387744300855E-01  1.6527144069800E+00 -2.2643144542004E-01
52  5.1000000000000E-01  2.2407207248385E-01  1.7203998658875E+00 -8.2384518807676E-02
53  5.2000000000000E-01  1.2609474171291E-01  1.7827413380976E+00  6.8810607611716E-02
54  5.3000000000000E-01  3.0719376179671E-02  1.8385600444060E+00  2.2241252549623E-01
55  5.4000000000000E-01 -6.1303152042957E-02  1.8867190153512E+00  3.7356164568428E-01
56  5.5000000000000E-01 -1.4925824330694E-01  1.9261528426086E+00  5.1743009680382E-01
57  5.6000000000000E-01 -2.3248019070010E-01  1.9558960790212E+00  6.4937034785874E-01
58  5.7000000000000E-01 -3.1036385823930E-01  1.9751094276936E+00  7.6505792215293E-01
59  5.8000000000000E-01 -3.8237510115723E-01  1.9831029295080E+00  8.6062379014905E-01
60  5.9000000000000E-01 -4.4805964998790E-01  1.9793554527848E+00  9.3277238943156E-01
61  6.0000000000000E-01 -5.0705022624849E-01  1.9635299053877E+00  9.7888170796307E-01
62  6.1000000000000E-01 -5.5907171065988E-01  1.9354837243873E+00  9.9708246530741E-01
63  6.2000000000000E-01 -6.0394424325875E-01  1.8952743468683E+00  9.8631411480285E-01
64  6.3000000000000E-01 -6.4158419648820E-01  1.8431595225929E+00  9.4635614447967E-01
65  6.4000000000000E-01 -6.7200302535647E-01  1.7795924897085E+00  8.7783395031415E-01
66  6.5000000000000E-01 -6.9530406094864E-01  1.7052121931660E+00  7.8219936565279E-01
67  6.6000000000000E-01 -7.1167737292762E-01  1.6208288767091E+00  6.6168672848190E-01
68  6.7000000000000E-01 -7.2139288124261E-01  1.5274055182329E+00  5.1924612747087E-01
69  6.8000000000000E-01 -7.2479194533532E-01  1.4260357004694E+00  3.5845616384100E-01
70  6.9000000000000E-01 -7.2227769918463E-01  1.3179186104062E+00  1.8341917680454E-01
71  7.0000000000000E-01 -7.1430443134692E-01  1.2043319384384E+00 -1.3576134424559E-03
72  7.1000000000000E-01 -7.0136632983833E-01  1.0866034996362E+00 -1.9109120483902E-01
73  7.2000000000000E-01 -6.8398592173766E-01  9.6608242331460E-01 -3.8085805895979E-01
74  7.3000000000000E-01 -6.6270253660196E-01  8.4411075284975E-01 -5.6573127936223E-01
75  7.4000000000000E-01 -6.3806111139344E-01  7.2199626594742E-01 -7.4091553082595E-01
76  7.5000000000000E-01 -6.1060163319030E-01  6.0098726779572E-01 -9.0187566562528E-01
77  7.6000000000000E-01 -5.8084948540625E-01  4.8225002807672E-01 -1.0444553100792E+00
78  7.7000000000000E-01 -5.4930692477943E-01  3.6684943079217E-01 -1.1649820690474E+00
79  7.8000000000000E-01 -5.1644587147916E-01  2.5573328708296E-01 -1.2603565121908E+00
80  7.9000000000000E-01 -4.8270214497222E-01  1.4972062999014E-01 -1.3281226949997E+00
81  8.0000000000000E-01 -4.4847122558829E-01  4.9494171101476E-02 -1.3665186184909E+00
82  8.1000000000000E-01 -4.1410556788296E-01 -4.4403042905136E-02 -1.3745057211514E+00
83  8.2000000000000E-01 -3.7991343878887E-01 -1.3156687577614E-01 -1.3517772010928E+00
84  8.3000000000000E-01 -3.4615920296500E-01 -2.1172748450851E-01 -1.2987456614704E+00
85  8.4000000000000E-01 -3.1306493137620E-01 -2.8474119697120E-01 -1.2165112345777E+00
86  8.5000000000000E-01 -2.8081316844915E-01 -3.5057934903737E-01 -1.1068119476952E+00
87  8.6000000000000E-01 -2.4955065941463E-01 -4.0931463484808E-01 -9.7195862693945E-01
88  8.7000000000000E-01 -2.1939281364701E-01 -4.6110559176535E-01 -8.1475707689911E-01
89  8.8000000000000E-01 -1.9042866264328E-01 -5.0617988667330E-01 -6.3842060982774E-01
90  8.9000000000000E-01 -1.6272606312385E-01 -5.4481709148816E-01 -4.4647621816035E-01
91  9.0000000000000E-01 -1.3633689665523E-01 -5.7733163279208E-01 -2.4266778137667E-01
92  9.1000000000000E-01 -1.1130202695415E-01 -6.0405657395438E-01 -3.0859669727488E-02
93  9.2000000000000E-01 -8.7655794121042E-02 -6.2532883921592E-01  1.8505604640375E-01
94  9.3000000000000E-01 -6.5429850704187E-02 -6.4147641991967E-01  4.0124584775857E-01
95  9.4000000000000E-01 -4.4656176757087E-02 -6.5280801581408E-01  6.1401193388682E-01
96  9.5000000000000E-01 -2.5369148805855E-02 -6.5960546200340E-01  8.1985825783772E-01
97  9.6000000000000E-01 -7.6065796826637E-03 -6.6211917779030E-01  1.0155439673065E+00
98  9.7000000000000E-01  8.5903087255476E-03 -6.6056675055059E-01  1.1981234624338E+00
99  9.8000000000000E-01  2.3177970838434E-02 -6.5513463908603E-01  1.3649730200893E+00
100  9.9000000000000E-01  3.6112624217122E-02 -6.4598284949902E-01  1.5138047307095E+00
101  1.0000000000000E+00  4.7353233815292E-02 -6.3325230511162E-01  1.6426693348040E+00
102  1.0100000000000E+00  5.6865243161064E-02 -6.1707450232967E-01  1.7499504221464E+00
103  1.0200000000000E+00  6.4624857088679E-02 -5.9758291812447E-01  1.8343533588062E+00
104  1.0300000000000E+00  7.0623637410182E-02 -5.7492551239790E-01  1.8948932320931E+00
105  1.0400000000000E+00  7.4873131347037E-02 -5.4927755002468E-01  1.9308870471044E+00
106  1.0500000000000E+00  7.7409212153601E-02 -5.2085385171295E-01  1.9419563724256E+00
107  1.0600000000000E+00  7.8295771276216E-02 -4.8991946781010E-01  1.9280476238888E+00
108  1.0700000000000E+00  7.7627360611610E-02 -4.5679765241934E-01  1.8894781985435E+00
109  1.0800000000000E+00  7.5530340355832E-02 -4.2187389264269E-01  1.8270177411539E+00
110  1.0900000000000E+00  7.2162040654572E-02 -3.8559461458118E-01  1.7420150052069E+00
111  1.1000000000000E+00  6.7707391458401E-02 -3.4845903811767E-01  1.6365808938838E+00
112  1.1100000000000E+00  6.2372400606016E-02 -3.1100244643623E-01  1.5138278380946E+00
113  1.1200000000000E+00  5.6374248553212E-02 -2.7377041226973E-01  1.3776877068023E+00
114  1.1300000000000E+00  4.9932918903560E-02 -2.3729883859919E-01  1.2322184289080E+00
115  1.1400000000000E+00  4.3266389914495E-02 -2.0210524690466E-01  1.0814056790694E+00
116  1.1500000000000E+00  3.6585898933448E-02 -1.6868045678719E-01  9.2910643259695E-01
117  1.1600000000000E+00  3.0090850815650E-02 -1.3747924548332E-01  7.7899811033598E-01
118  1.1700000000000E+00  2.3963526377915E-02 -1.0891032796903E-01  6.3453421939439E-01
119  1.1800000000000E+00  1.8363704095826E-02 -8.3325888174432E-02  4.9890670729052E-01
120  1.1900000000000E+00  1.3419477215117E-02 -6.1001366824132E-02  3.7502936175314E-01
121  1.2000000000000E+00  9.1720109786403E-03 -4.1998312531838E-02  2.6569716525180E-01
122  1.2100000000000E+00  5.7003453473012E-03 -2.6479060929867E-02  1.7309169541280E-01
123  1.2200000000000E+00  3.0702008850939E-03 -1.4583636956784E-02  9.8944616221909E-02
124  1.2300000000000E+00  1.2879996395498E-03 -6.3162085586234E-03  4.4699256028221E-02
125  1.2400000000000E+00  2.9901395335042E-04 -1.5310875372185E-03  1.1358849784584E-02
126  1.2500000000000E+00  9.3719353626492E-07 -5.0342973781288E-06  3.8843443914045E-05
127  1.2600000000000E+00  2.0276383207566E-06 -1.0838192399189E-05  8.3808751783117E-05
128  1.2700000000000E+00 -3.6738987023289E-07  1.9112972163391E-06 -1.4404197364148E-05
129  1.28  0.  0.  0.
130  1.29  0.  0.  0.
131  1.30  0.  0.  0.
132  1.31  0.  0.  0.
133  1.32  0.  0.  0.
134  1.33  0.  0.  0.
135  1.34  0.  0.  0.
136  1.35  0.  0.  0.
137  1.36  0.  0.  0.
138  1.37  0.  0.  0.
139  1.38  0.  0.  0.
140  1.39  0.  0.  0.
141  1.40  0.  0.  0.
142  1.41  0.  0.  0.
143  1.42  0.  0.  0.
144  1.43  0.  0.  0.
145  1.44  0.  0.  0.
146  1.45  0.  0.  0.
147  1.46  0.  0.  0.
148  1.47  0.  0.  0.
149  1.48  0.  0.  0.
150  1.49  0.  0.  0.
151  1.50  0.  0.  0.
152  1.51  0.  0.  0.
153  1.52  0.  0.  0.
154  1.53  0.  0.  0.
155  1.54  0.  0.  0.
156  1.55  0.  0.  0.
157  1.56  0.  0.  0.
158  1.57  0.  0.  0.
159  1.58  0.  0.  0.
160  1.59  0.  0.  0.
161  1.60  0.  0.  0.
162  1.61  0.  0.  0.
163  1.62  0.  0.  0.
164  1.63  0.  0.  0.
165  1.64  0.  0.  0.
166  1.65  0.  0.  0.
167  1.66  0.  0.  0.
168  1.67  0.  0.  0.
169  1.68  0.  0.  0.
170  1.69  0.  0.  0.
171  1.70  0.  0.  0.
172  1.71  0.  0.  0.
173  1.72  0.  0.  0.
174  1.73  0.  0.  0.
175  1.74  0.  0.  0.
176  1.75  0.  0.  0.
177  1.76  0.  0.  0.
178  1.77  0.  0.  0.
179  1.78  0.  0.  0.
180  1.79  0.  0.  0.
181  1.80  0.  0.  0.
182  1.81  0.  0.  0.
183  1.82  0.  0.  0.
184  1.83  0.  0.  0.
185  1.84  0.  0.  0.
186  1.85  0.  0.  0.
187  1.86  0.  0.  0.
188  1.87  0.  0.  0.
189  1.88  0.  0.  0.
190  1.89  0.  0.  0.
191  1.90  0.  0.  0.
192  1.91  0.  0.  0.
193  1.92  0.  0.  0.
194  1.93  0.  0.  0.
195  1.94  0.  0.  0.
196  1.95  0.  0.  0.
197  1.96  0.  0.  0.
198  1.97  0.  0.  0.
199  1.98  0.  0.  0.
200  1.99  0.  0.  0.
201  2.00  0.  0.  0.
202  2.01  0.  0.  0.
203  2.02  0.  0.  0.
204  2.03  0.  0.  0.
205  2.04  0.  0.  0.
206  2.05  0.  0.  0.
207  2.06  0.  0.  0.
208  2.07  0.  0.  0.
209  2.08  0.  0.  0.
210  2.09  0.  0.  0.
211  2.10  0.  0.  0.
212  2.11  0.  0.  0.
213  2.12  0.  0.  0.
214  2.13  0.  0.  0.
215  2.14  0.  0.  0.
216  2.15  0.  0.  0.
217  2.16  0.  0.  0.
218  2.17  0.  0.  0.
219  2.18  0.  0.  0.
220  2.19  0.  0.  0.
221  2.20  0.  0.  0.
222  2.21  0.  0.  0.
223  2.22  0.  0.  0.
224  2.23  0.  0.  0.
225  2.24  0.  0.  0.
226  2.25  0.  0.  0.
227  2.26  0.  0.  0.
228  2.27  0.  0.  0.
229  2.28  0.  0.  0.
230  2.29  0.  0.  0.
231  2.30  0.  0.  0.
232  2.31  0.  0.  0.
233  2.32  0.  0.  0.
234  2.33  0.  0.  0.
235  2.34  0.  0.  0.
236  2.35  0.  0.  0.
237  2.36  0.  0.  0.
238  2.37  0.  0.  0.
239  2.38  0.  0.  0.
240  2.39  0.  0.  0.
241  2.40  0.  0.  0.
242  2.41  0.  0.  0.
243  2.42  0.  0.  0.
244  2.43  0.  0.  0.
245  2.44  0.  0.  0.
246  2.45  0.  0.  0.
247  2.46  0.  0.  0.
248  2.47  0.  0.  0.
249  2.48  0.  0.  0.
250  2.49  0.  0.  0.
251  2.50  0.  0.  0.
252  2.51  0.  0.  0.
253  2.52  0.  0.  0.
254  2.53  0.  0.  0.
255  2.54  0.  0.  0.
256  2.55  0.  0.  0.
257  2.56  0.  0.  0.
258  2.57  0.  0.  0.
259  2.58  0.  0.  0.
260  2.59  0.  0.  0.
261  2.60  0.  0.  0.
262  2.61  0.  0.  0.
263  2.62  0.  0.  0.
264  2.63  0.  0.  0.
265  2.64  0.  0.  0.
266  2.65  0.  0.  0.
267  2.66  0.  0.  0.
268  2.67  0.  0.  0.
269  2.68  0.  0.  0.
270  2.69  0.  0.  0.
271  2.70  0.  0.  0.
272  2.71  0.  0.  0.
273  2.72  0.  0.  0.
274  2.73  0.  0.  0.
275  2.74  0.  0.  0.
276  2.75  0.  0.  0.
277  2.76  0.  0.  0.
278  2.77  0.  0.  0.
279  2.78  0.  0.  0.
280  2.79  0.  0.  0.
281  2.80  0.  0.  0.
282  2.81  0.  0.  0.
283  2.82  0.  0.  0.
284  2.83  0.  0.  0.
285  2.84  0.  0.  0.
286  2.85  0.  0.  0.
287  2.86  0.  0.  0.
288  2.87  0.  0.  0.
289  2.88  0.  0.  0.
290  2.89  0.  0.  0.
291  2.90  0.  0.  0.
292  2.91  0.  0.  0.
293  2.92  0.  0.  0.
294  2.93  0.  0.  0.
295  2.94  0.  0.  0.
296  2.95  0.  0.  0.
297  2.96  0.  0.  0.
298  2.97  0.  0.  0.
299  2.98  0.  0.  0.
300  2.99  0.  0.  0.
301  3.00  0.  0.  0.
302  3.01  0.  0.  0.
303  3.02  0.  0.  0.
304  3.03  0.  0.  0.
305  3.04  0.  0.  0.
306  3.05  0.  0.  0.
307  3.06  0.  0.  0.
308  3.07  0.  0.  0.
309  3.08  0.  0.  0.
310  3.09  0.  0.  0.
311  3.10  0.  0.  0.
312  3.11  0.  0.  0.
313  3.12  0.  0.  0.
314  3.13  0.  0.  0.
315  3.14  0.  0.  0.
316  3.15  0.  0.  0.
317  3.16  0.  0.  0.
318  3.17  0.  0.  0.
319  3.18  0.  0.  0.
320  3.19  0.  0.  0.
321  3.20  0.  0.  0.
322  3.21  0.  0.  0.
323  3.22  0.  0.  0.
324  3.23  0.  0.  0.
325  3.24  0.  0.  0.
326  3.25  0.  0.  0.
327  3.26  0.  0.  0.
328  3.27  0.  0.  0.
329  3.28  0.  0.  0.
330  3.29  0.  0.  0.
331  3.30  0.  0.  0.
332  3.31  0.  0.  0.
333  3.32  0.  0.  0.
334  3.33  0.  0.  0.
335  3.34  0.  0.  0.
336  3.35  0.  0.  0.
337  3.36  0.  0.  0.
338  3.37  0.  0.  0.
339  3.38  0.  0.  0.
340  3.39  0.  0.  0.
341  3.40  0.  0.  0.
342  3.41  0.  0.  0.
343  3.42  0.  0.  0.
344  3.43  0.  0.  0.
345  3.44  0.  0.  0.
346  3.45  0.  0.  0.
347  3.46  0.  0.  0.
348  3.47  0.  0.  0.
349  3.48  0.  0.  0.
350  3.49  0.  0.  0.
351  3.50  0.  0.  0.
352  3.51  0.  0.  0.
353  3.52  0.  0.  0.
354  3.53  0.  0.  0.
355  3.54  0.  0.  0.
356  3.55  0.  0.  0.
357  3.56  0.  0.  0.
358  3.57  0.  0.  0.
359  3.58  0.  0.  0.
360  3.59  0.  0.  0.
361  3.60  0.  0.  0.
362  3.61  0.  0.  0.
363  3.62  0.  0.  0.
364  3.63  0.  0.  0.
365  3.64  0.  0.  0.
366  3.65  0.  0.  0.
367  3.66  0.  0.  0.
368  3.67  0.  0.  0.
369  3.68  0.  0.  0.
370  3.69  0.  0.  0.
371  3.70  0.  0.  0.
372  3.71  0.  0.  0.
373  3.72  0.  0.  0.
374  3.73  0.  0.  0.
375  3.74  0.  0.  0.
376  3.75  0.  0.  0.
377  3.76  0.  0.  0.
378  3.77  0.  0.  0.
379  3.78  0.  0.  0.
380  3.79  0.  0.  0.
381  3.80  0.  0.  0.
382  3.81  0.  0.  0.
383  3.82  0.  0.  0.
384  3.83  0.  0.  0.
385  3.84  0.  0.  0.
386  3.85  0.  0.  0.
387  3.86  0.  0.  0.
388  3.87  0.  0.  0.
389  3.88  0.  0.  0.
390  3.89  0.  0.  0.
391  3.90  0.  0.  0.
392  3.91  0.  0.  0.
393  3.92  0.  0.  0.
394  3.93  0.  0.  0.
395  3.94  0.  0.  0.
396  3.95  0.  0.  0.
397  3.96  0.  0.  0.
398  3.97  0.  0.  0.
399  3.98  0.  0.  0.
400  3.99  0.  0.  0.
401  4.00  0.  0.  0.
402  4.01  0.  0.  0.
403  4.02  0.  0.  0.
404  4.03  0.  0.  0.
405  4.04  0.  0.  0.
406  4.05  0.  0.  0.
407  4.06  0.  0.  0.
408  4.07  0.  0.  0.
409  4.08  0.  0.  0.
410  4.09  0.  0.  0.
411  4.10  0.  0.  0.
412  4.11  0.  0.  0.
413  4.12  0.  0.  0.
414  4.13  0.  0.  0.
415  4.14  0.  0.  0.
416  4.15  0.  0.  0.
417  4.16  0.  0.  0.
418  4.17  0.  0.  0.
419  4.18  0.  0.  0.
420  4.19  0.  0.  0.
421  4.20  0.  0.  0.
422  4.21  0.  0.  0.
423  4.22  0.  0.  0.
424  4.23  0.  0.  0.
425  4.24  0.  0.  0.
426  4.25  0.  0.  0.
427  4.26  0.  0.  0.
428  4.27  0.  0.  0.
429  4.28  0.  0.  0.
430  4.29  0.  0.  0.
431  4.30  0.  0.  0.
432  4.31  0.  0.  0.
433  4.32  0.  0.  0.
434  4.33  0.  0.  0.
435  4.34  0.  0.  0.
436  4.35  0.  0.  0.
437  4.36  0.  0.  0.
438  4.37  0.  0.  0.
439  4.38  0.  0.  0.
440  4.39  0.  0.  0.
441  4.40  0.  0.  0.
442  4.41  0.  0.  0.
443  4.42  0.  0.  0.
444  4.43  0.  0.  0.
445  4.44  0.  0.  0.
446  4.45  0.  0.  0.
447  4.46  0.  0.  0.
448  4.47  0.  0.  0.
449  4.48  0.  0.  0.
450  4.49  0.  0.  0.
451  4.50  0.  0.  0.
452  4.51  0.  0.  0.
453  4.52  0.  0.  0.
454  4.53  0.  0.  0.
455  4.54  0.  0.  0.
456  4.55  0.  0.  0.
457  4.56  0.  0.  0.
458  4.57  0.  0.  0.
459  4.58  0.  0.  0.
460  4.59  0.  0.  0.
461  4.60  0.  0.  0.
462  4.61  0.  0.  0.
463  4.62  0.  0.  0.
464  4.63  0.  0.  0.
465  4.64  0.  0.  0.
466  4.65  0.  0.  0.
467  4.66  0.  0.  0.
468  4.67  0.  0.  0.
469  4.68  0.  0.  0.
470  4.69  0.  0.  0.
471  4.70  0.  0.  0.
472  4.71  0.  0.  0.
473  4.72  0.  0.  0.
474  4.73  0.  0.  0.
475  4.74  0.  0.  0.
476  4.75  0.  0.  0.
477  4.76  0.  0.  0.
478  4.77  0.  0.  0.
479  4.78  0.  0.  0.
480  4.79  0.  0.  0.
481  4.80  0.  0.  0.
482  4.81  0.  0.  0.
483  4.82  0.  0.  0.
484  4.83  0.  0.  0.
485  4.84  0.  0.  0.
486  4.85  0.  0.  0.
487  4.86  0.  0.  0.
488  4.87  0.  0.  0.
489  4.88  0.  0.  0.
490  4.89  0.  0.  0.
491  4.90  0.  0.  0.
492  4.91  0.  0.  0.
493  4.92  0.  0.  0.
494  4.93  0.  0.  0.
495  4.94  0.  0.  0.
496  4.95  0.  0.  0.
497  4.96  0.  0.  0.
498  4.97  0.  0.  0.
499  4.98  0.  0.  0.
500  4.99  0.  0.  0.
501  5.00  0.  0.  0.
502  5.01  0.  0.  0.
503  5.02  0.  0.  0.
504  5.03  0.  0.  0.
505  5.04  0.  0.  0.
506  5.05  0.  0.  0.
507  5.06  0.  0.  0.
508  5.07  0.  0.  0.
509  5.08  0.  0.  0.
510  5.09  0.  0.  0.
511  5.10  0.  0.  0.
512  5.11  0.  0.  0.
513  5.12  0.  0.  0.
514  5.13  0.  0.  0.
515  5.14  0.  0.  0.
516  5.15  0.  0.  0.
517  5.16  0.  0.  0.
518  5.17  0.  0.  0.
519  5.18  0.  0.  0.
520  5.19  0.  0.  0.
521  5.20  0.  0.  0.
522  5.21  0.  0.  0.
523  5.22  0.  0.  0.
524  5.23  0.  0.  0.
525  5.24  0.  0.  0.
526  5.25  0.  0.  0.
527  5.26  0.  0.  0.
528  5.27  0.  0.  0.
529  5.28  0.  0.  0.
530  5.29  0.  0.  0.
531  5.30  0.  0.  0.
532  5.31  0.  0.  0.
533  5.32  0.  0.  0.
534  5.33  0.  0.  0.
535  5.34  0.  0.  0.
536  5.35  0.  0.  0.
537  5.36  0.  0.  0.
538  5.37  0.  0.  0.
539  5.38  0.  0.  0.
540  5.39  0.  0.  0.
541  5.40  0.  0.  0.
542  5.41  0.  0.  0.
543  5.42  0.  0.  0.
544  5.43  0.  0.  0.
545  5.44  0.  0.  0.
546  5.45  0.  0.  0.
547  5.46  0.  0.  0.
548  5.47  0.  0.  0.
549  5.48  0.  0.  0.
550  5.49  0.  0.  0.
551  5.50  0.  0.  0.
552  5.51  0.  0.  0.
553  5.52  0.  0.  0.
554  5.53  0.  0.  0.
555  5.54  0.  0.  0.
556  5.55  0.  0.  0.
557  5.56  0.  0.  0.
558  5.57  0.  0.  0.
559  5.58  0.  0.  0.
560  5.59  0.  0.  0.
561  5.60  0.  0.  0.
562  5.61  0.  0.  0.
563  5.62  0.  0.  0.
564  5.63  0.  0.  0.
565  5.64  0.  0.  0.
566  5.65  0.  0.  0.
567  5.66  0.  0.  0.
568  5.67  0.  0.  0.
569  5.68  0.  0.  0.
570  5.69  0.  0.  0.
571  5.70  0.  0.  0.
572  5.71  0.  0.  0.
573  5.72  0.  0.  0.
574  5.73  0.  0.  0.
575  5.74  0.  0.  0.
576  5.75  0.  0.  0.
577  5.76  0.  0.  0.
578  5.77  0.  0.  0.
579  5.78  0.  0.  0.
580  5.79  0.  0.  0.
581  5.80  0.  0.  0.
582  5.81  0.  0.  0.
583  5.82  0.  0.  0.
584  5.83  0.  0.  0.
585  5.84  0.  0.  0.
586  5.85  0.  0.  0.
587  5.86  0.  0.  0.
588  5.87  0.  0.  0.
589  5.88  0.  0.  0.
590  5.89  0.  0.  0.
591  5.90  0.  0.  0.
592  5.91  0.  0.  0.
593  5.92  0.  0.  0.
594  5.93  0.  0.  0.
595  5.94  0.  0.  0.
596  5.95  0.  0.  0.
597  5.96  0.  0.  0.
598  5.97  0.  0.  0.
599  5.98  0.  0.  0.
600  5.99  0.  0.  0.
1                         1.1849217665669E+01  1.2591605636087E+00 -6.7200513356497E-02
1  0.0000000000000E+00 -1.3353064154398E-08  4.2708192475593E-08 -6.2545726577101E-08
2  1.0000000000000E-02  3.1742345872479E-03 -6.0073453654565E-04  4.7972806536422E-04
3  2.0000000000000E-02  1.2681295460450E-02 -2.4109889867768E-03  1.9391400816947E-03
4  3.0000000000000E-02  2.8474113897479E-02 -5.4541779546827E-03  4.4377966421756E-03
5  4.0000000000000E-02  5.0473784327448E-02 -9.7668947442326E-03  8.0712645831496E-03
6  5.0000000000000E-02  7.8568909497454E-02 -1.5395364265674E-02  1.2965711605287E-02
7  6.0000000000000E-02  1.1261474599158E-01 -2.2390672621129E-02  1.9270625429925E-02
8  7.0000000000000E-02  1.5243220974145E-01 -3.0802961052800E-02  2.7149932643515E-02
9  8.0000000000000E-02  1.9780681452080E-01 -4.0674814645298E-02  3.6771854928865E-02
10  9.0000000000000E-02  2.4848762716562E-01 -5.2034111169029E-02  4.8297891579161E-02
11  1.0000000000000E-01  3.0418633100046E-01 -6.4886621527096E-02  6.1871355270803E-02
12  1.1000000000000E-01  3.6457649337111E-01 -7.9208669500443E-02  7.7605911681245E-02
13  1.2000000000000E-01  4.2929313407776E-01 -9.4940164259265E-02  9.5574581789371E-02
14  1.3000000000000E-01  4.9793268878148E-01 -1.1197831414182E-01  1.1579965818736E-01
15  1.4000000000000E-01  5.7005345514356E-01 -1.3017231455487E-01  1.3824396357269E-01
16  1.5000000000000E-01  6.4517659969435E-01 -1.4931927692445E-01  1.6280384139059E-01
17  1.6000000000000E-01  7.2278779046961E-01 -1.6916163015812E-01  1.8930421646493E-01
18  1.7000000000000E-01  8.0233950465924E-01 -1.8938618211629E-01  2.1749599895409E-01
19  1.8000000000000E-01  8.8325404234155E-01 -2.0962497745759E-01  2.4705603007564E-01
20  1.9000000000000E-01  9.6492725736486E-01 -2.2945803149404E-01  2.7758968509298E-01
21  2.0000000000000E-01  1.0467329951928E+00 -2.4841795912959E-01  3.0863616066667E-01
22  2.1000000000000E-01  1.1280282057035E+00 -2.6599645546798E-01  3.3967638266621E-01
23  2.2000000000000E-01  1.2081586772082E+00 -2.8165252225330E-01  3.7014337985588E-01
24  2.3000000000000E-01  1.2864653170214E+00 -2.9482227396207E-01  3.9943488147785E-01
25  2.4000000000000E-01  1.3622908844476E+00 -3.0493010106883E-01  4.2692781555751E-01
26  2.5000000000000E-01  1.4349870646904E+00 -3.1140091762733E-01  4.5199431249013E-01
27  2.6000000000000E-01  1.5039217575230E+00 -3.1367317755097E-01  4.7401875762788E-01
28  2.7000000000000E-01  1.5684864430961E+00 -3.1121231032529E-01  4.9241538933124E-01
29  2.8000000000000E-01  1.6281034794178E+00 -3.0352420355947E-01  5.0664590703987E-01
30  2.9000000000000E-01  1.6822331821380E+00 -2.9016834769400E-01  5.1623653864862E-01
31  3.0000000000000E-01  1.7303805374986E+00 -2.7077025789021E-01  5.2079401862544E-01
32  3.1000000000000E-01  1.7721014037524E+00 -2.4503279984011E-01  5.2001994811950E-01
33  3.2000000000000E-01  1.8070080649398E+00 -2.1274606977291E-01  5.1372304545737E-01
34  3.3000000000000E-01  1.8347740134731E+00 -1.7379551375137E-01  5.0182884903219E-01
35  3.4000000000000E-01  1.8551378541958E+00 -1.2816801652871E-01  4.8438650323861E-01
36  3.5000000000000E-01  1.8679062420361E+00 -7.5955744522221E-02  4.6157233987200E-01
37  3.6000000000000E-01  1.8729557875319E+00 -1.7357589293035E-02  4.3369005992586E-01
38  3.7000000000000E-01  1.8702338887467E+00  4.7321874521441E-02  4.0116742123314E-01
39  3.8000000000000E-01  1.8597584737312E+00  1.1767593162132E-01  3.6454944285439E-01
40  3.9000000000000E-01  1.8416166639717E+00  1.9320171082842E-01  3.2448824425723E-01
41  4.0000000000000E-01  1.8159623954284E+00  2.7330848222433E-01  2.8172974279006E-01
42  4.1000000000000E-01  1.7830130590343E+00  3.5732806758457E-01  2.3709753335511E-01
43  4.2000000000000E-01  1.7430452461327E+00  4.4452710121051E-01  1.9147436626589E-01
44  4.3000000000000E-01  1.6963897055735E+00  5.3412082169215E-01  1.4578171997548E-01
45  4.4000000000000E-01  1.6434256374060E+00  6.2528802770427E-01  1.0095803193637E-01
46  4.5000000000000E-01  1.5845744627544E+00  7.1718679425303E-01  5.7936200960650E-02
47  4.6000000000000E-01  1.5202932200691E+00  8.0897052113371E-01  1.7621006233946E-02
48  4.7000000000000E-01  1.4510677441982E+00  8.9980387365562E-01 -1.9132899706760E-02
49  4.8000000000000E-01  1.3774057864074E+00  9.8887817745722E-01 -5.1541774888278E-02
50  4.9000000000000E-01  1.2998302305467E+00  1.0754258445731E+00 -7.8911728122712E-02
51  5.0000000000000E-01  1.2188725531035E+00  1.1587334364888E+00 -1.0065524330243E-01
52  5.1000000000000E-01  1.1350666631267E+00  1.2381530109703E+00 -1.1630478246263E-01
53  5.2000000000000E-01  1.0489432423327E+00  1.3131114518068E+00 -1.2552304595906E-01
54  5.3000000000000E-01  9.6102468660613E-01  1.3831175427133E+00 -1.2810956608577E-01
55  5.4000000000000E-01  8.7182072819819E-01  1.4477666166117E+00 -1.2400341985708E-01
56  5.5000000000000E-01  7.8182479391738E-01  1.5067426871934E+00 -1.1328196418904E-01
57  5.6000000000000E-01  6.9151112927148E-01  1.5598180486816E+00 -9.6155618717200E-02
58  5.7000000000000E-01  6.0133269268863E-01  1.6068504095547E+00 -7.2958844164789E-02
59  5.8000000000000E-01  5.1171979846427E-01  1.6477777040901E+00 -4.4137583631928E-02
60  5.9000000000000E-01  4.2307946279025E-01  1.6826107994075E+00 -1.0233546569796E-02
61  6.0000000000000E-01  3.3579538492720E-01  1.7114243827933E+00  2.8134183136136E-02
62  6.1000000000000E-01  2.5022847602515E-01  1.7343463722411E+00  7.0289646003406E-02
63  6.2000000000000E-01  1.6671783193455E-01  1.7515462403715E+00  1.1552197325736E-01
64  6.3000000000000E-01  8.5582034125368E-02  1.7632226765653E+00  1.6310813019756E-01
65  6.4000000000000E-01  7.1206549595140E-03  1.7695910330185E+00  2.1233571663120E-01
66  6.5000000000000E-01 -6.8384159689583E-02  1.7708710067055E+00  2.6252509734324E-01
67  6.6000000000000E-01 -1.4066615599480E-01  1.7672750005980E+00  3.1305015154775E-01
68  6.7000000000000E-01 -2.0947360527072E-01  1.7589975840984E+00  3.6335696897246E-01
69  6.8000000000000E-01 -2.7456821332972E-01  1.7462064351641E+00  4.1297988064752E-01
70  6.9000000000000E-01 -3.3572440008194E-01  1.7290350961633E+00  4.6155429286132E-01
71  7.0000000000000E-01 -3.9272902503159E-01  1.7075778136837E+00  5.0882589070642E-01
72  7.1000000000000E-01 -4.4538161304448E-01  1.6818866612978E+00  5.5465589016319E-01
73  7.2000000000000E-01 -4.9349511128688E-01  1.6519710659607E+00  5.9902214126307E-01
74  7.3000000000000E-01 -5.3689718340241E-01  1.6177997758682E+00  6.4201601562265E-01
75  7.4000000000000E-01 -5.7543202168692E-01  1.5793052229498E+00  6.8383514541855E-01
76  7.5000000000000E-01 -6.0896263316207E-01  1.5363901495534E+00  7.2477221335822E-01
77  7.6000000000000E-01 -6.3737353194210E-01  1.4889362891036E+00  7.6520012014699E-01
78  7.7000000000000E-01 -6.6057374900416E-01  1.4368148172781E+00  8.0555397323886E-01
79  7.8000000000000E-01 -6.7850005221278E-01  1.3798982260558E+00  8.4631044446626E-01
80  7.9000000000000E-01 -6.9112025491006E-01  1.3180732200439E+00  8.8796513110200E-01
81  8.0000000000000E-01 -6.9843648114038E-01  1.2512541946270E+00  9.3100862217676E-01
82  8.1000000000000E-01 -7.0048825005527E-01  1.1793968300874E+00  9.7590201728781E-01
83  8.2000000000000E-01 -6.9735524150122E-01  1.1025113258207E+00  1.0230526672366E+00
84  8.3000000000000E-01 -6.8915960930751E-01  1.0206748044688E+00  1.0727909039791E+00
85  8.4000000000000E-01 -6.7606771825911E-01  9.3404243701775E-01  1.1253485017360E+00
86  8.5000000000000E-01 -6.5829119486766E-01  8.4285687589417E-01  1.1808395626820E+00
87  8.6000000000000E-01 -6.3608720036939E-01  7.4745563253549E-01  1.2392444512356E+00
88  8.7000000000000E-01 -6.0975785624000E-01  6.4827609697318E-01  1.3003973131544E+00
89  8.8000000000000E-01 -5.7964877712856E-01  5.4585796736273E-01  1.3639776126757E+00
90  8.9000000000000E-01 -5.4614669254960E-01  4.4084293441499E-01  1.4295060066527E+00
91  9.0000000000000E-01 -5.0967616590489E-01  3.3397154629924E-01  1.4963447533657E+00