Pa    ONCVPSP-4.0.1  r_core=   1.25016   1.25016   1.45183   1.45183
91.0000     31.0000      231012    zatom,zion,pspd
8   -1012   3     4   600     0    pspcod,pspxc,lmax,lloc,mmax,r2well
5.99000000  5.00000000  0.00000000    rchrg fchrg qchrg
3     2     2     2     0    nproj
1     1           extension_switch
0                         2.1740882014395E+01  3.3278296217918E+00 -7.8391998690208E-01
1  0.0000000000000E+00 -4.6990742630371E-08  1.0203062467129E-07 -6.2609761242172E-07
2  1.0000000000000E-02  1.1959811694791E-01 -4.1267572014969E-02  1.8003571088968E-01
3  2.0000000000000E-02  2.3846324118367E-01 -8.1548592649442E-02  3.5472416761329E-01
4  3.0000000000000E-02  3.5587516774508E-01 -1.1988251299536E-01  5.1888601379698E-01
5  4.0000000000000E-02  4.7113888145617E-01 -1.5535995453449E-01  6.6767235467844E-01
6  5.0000000000000E-02  5.8359620032534E-01 -1.8714623571425E-01  7.9671682273891E-01
7  6.0000000000000E-02  6.9263631253484E-01 -2.1450250501036E-01  9.0227231505599E-01
8  7.0000000000000E-02  7.9770489593255E-01 -2.3680380795046E-01  9.8132806014669E-01
9  8.0000000000000E-02  8.9831155592801E-01 -2.5355351760323E-01  1.0317032981677E+00
10  9.0000000000000E-02  9.9403537343026E-01 -2.6439367905924E-01  1.0521146027542E+00
11  1.0000000000000E-01  1.0845284170924E+00 -2.6911095441802E-01  1.0422147118487E+00
12  1.1000000000000E-01  1.1695171415590E+00 -2.6763800122306E-01  1.0026016418837E+00
13  1.2000000000000E-01  1.2488016634033E+00 -2.6005026927709E-01  9.3479780579626E-01
14  1.3000000000000E-01  1.3222529766512E+00 -2.4655835325502E-01  8.4119981042341E-01
15  1.4000000000000E-01  1.3898082378794E+00 -2.2749618642327E-01  7.2500054245467E-01
16  1.5000000000000E-01  1.4514643145636E+00 -2.0330549912999E-01  5.9008603454371E-01
17  1.6000000000000E-01  1.5072698475008E+00 -1.7451708991746E-01  4.4091040626599E-01
18  1.7000000000000E-01  1.5573161268297E+00 -1.4172956296276E-01  2.8235287274004E-01
19  1.8000000000000E-01  1.6017271197650E+00 -1.0558626951229E-01  1.1956138460948E-01
20  1.9000000000000E-01  1.6406490153540E+00 -6.6751250203675E-02 -4.2212111535753E-02
21  2.0000000000000E-01  1.6742396664114E+00 -2.5885007650134E-02 -1.9777953694681E-01
22  2.1000000000000E-01  1.7026583107860E+00  1.6379056732447E-02 -3.4218231474177E-01
23  2.2000000000000E-01  1.7260559431533E+00  5.9456731140620E-02 -4.7084949242733E-01
24  2.3000000000000E-01  1.7445666849641E+00  1.0283284732409E-01 -5.7974331197992E-01
25  2.4000000000000E-01  1.7583004647681E+00  1.4607821681004E-01 -6.6548758828550E-01
26  2.5000000000000E-01  1.7673372750366E+00  1.8886306579889E-01 -7.2547480657105E-01
27  2.6000000000000E-01  1.7717232163531E+00  2.3096650460614E-01 -7.5794852984880E-01
28  2.7000000000000E-01  1.7714684772581E+00  2.7228170289310E-01 -7.6205849656040E-01
29  2.8000000000000E-01  1.7665473302126E+00  3.1281658866278E-01 -7.3788666131440E-01
30  2.9000000000000E-01  1.7569001533448E+00  3.5269004218693E-01 -6.8644335988171E-01
31  3.0000000000000E-01  1.7424374162520E+00  3.9212371053814E-01 -6.0963373372750E-01
32  3.1000000000000E-01  1.7230454985316E+00  4.3142971903084E-01 -5.1019549870118E-01
33  3.2000000000000E-01  1.6985941442789E+00  4.7099469754834E-01 -3.9161005664912E-01
34  3.3000000000000E-01  1.6689452967122E+00  5.1126066765837E-01 -2.5798979832329E-01
35  3.4000000000000E-01  1.6339630064008E+00  5.5270344625810E-01 -1.1394520380125E-01
36  3.5000000000000E-01  1.5935240659966E+00  5.9580930949603E-01  3.5564011601887E-02
37  3.6000000000000E-01  1.5475289953156E+00  6.4105072388069E-01  1.8538895277348E-01
38  3.7000000000000E-01  1.4959129841021E+00  6.8886198761449E-01  3.3035769601397E-01
39  3.8000000000000E-01  1.4386563964314E+00  7.3961563301196E-01  4.6544224191335E-01
40  3.9000000000000E-01  1.3757944506283E+00  7.9360042004586E-01  5.8592095706889E-01
41  4.0000000000000E-01  1.3074257115152E+00  8.5100170225687E-01  6.8753134325986E-01
42  4.1000000000000E-01  1.2337190670235E+00  9.1188487105152E-01  7.6660828916151E-01
43  4.2000000000000E-01  1.1549189075716E+00  9.7618248528693E-01  8.2020343067772E-01
44  4.3000000000000E-01  1.0713482826066E+00  1.0436855733001E+00  8.4618185600677E-01
45  4.4000000000000E-01  9.8340987248029E-01  1.1140394581916E+00  8.4329312062280E-01
46  4.5000000000000E-01  8.9158468327112E-01  1.1867443087924E+00  8.1121436163718E-01
47  4.6000000000000E-01  7.9642844496319E-01  1.2611604633199E+00  7.5056419358696E-01
48  4.7000000000000E-01  6.9856576712857E-01  1.3365184154941E+00  6.6288699954070E-01
49  4.8000000000000E-01  5.9868217846901E-01  1.4119331991489E+00  5.5060817222869E-01
50  4.9000000000000E-01  4.9751424485185E-01  1.4864227623010E+00  4.1696177921687E-01
51  5.0000000000000E-01  3.9583802254455E-01  1.5589297901385E+00  2.6589299427815E-01
52  5.1000000000000E-01  2.9445615714364E-01  1.6283463228784E+00  1.0193842612243E-01
53  5.2000000000000E-01  1.9418398242732E-01  1.6935404227205E+00 -6.9911839621634E-02
54  5.3000000000000E-01  9.5835005585192E-02  1.7533840772742E+00 -2.4436611058936E-01
55  5.4000000000000E-01  2.0618495144920E-04  1.8067814870348E+00 -4.1599208017175E-01
56  5.5000000000000E-01 -9.1936587139863E-02  1.8526968730378E+00 -5.7938189329749E-01
57  5.6000000000000E-01 -1.7987239061661E-01  1.8901809579984E+00 -7.2931614085680E-01
58  5.7000000000000E-01 -2.6293818721187E-01  1.9183953193831E+00 -8.6092170800575E-01
59  5.8000000000000E-01 -3.4054037972099E-01  1.9366338842985E+00 -9.6981863353552E-01
60  5.9000000000000E-01 -4.1216471086660E-01  1.9443409312776E+00 -1.0522515226566E+00
61  6.0000000000000E-01 -4.7738424480032E-01  1.9411250796368E+00 -1.1052015801142E+00
62  6.1000000000000E-01 -5.3586523522712E-01  1.9267688790073E+00 -1.1264759761529E+00
63  6.2000000000000E-01 -5.8737075081452E-01  1.9012337553221E+00 -1.1147720022726E+00
64  6.3000000000000E-01 -6.3176199865231E-01  1.8646602199721E+00 -1.0697142916298E+00
65  6.4000000000000E-01 -6.6899735766869E-01  1.8173634008419E+00 -9.9186424279107E-01
66  6.5000000000000E-01 -6.9912920367442E-01  1.7598241022880E+00 -8.8270166654415E-01
67  6.6000000000000E-01 -7.2229867375557E-01  1.6926757407669E+00 -7.4457954450751E-01
68  6.7000000000000E-01 -7.3872857787190E-01  1.6166876290550E+00 -5.8065361695404E-01
69  6.8000000000000E-01 -7.4871471777764E-01  1.5327451906152E+00 -3.9478927892153E-01
70  6.9000000000000E-01 -7.5261591608672E-01  1.4418277731054E+00 -1.9144893409606E-01
71  7.0000000000000E-01 -7.5084309013844E-01  1.3449847935251E+00  2.4436485567201E-02
72  7.1000000000000E-01 -7.4384772535182E-01  1.2433109851327E+00  2.4760769680712E-01
73  7.2000000000000E-01 -7.3211011049147E-01  1.1379215270958E+00  4.7262451207357E-01
74  7.3000000000000E-01 -7.1612769264316E-01  1.0299278218224E+00  6.9401598937607E-01
75  7.4000000000000E-01 -6.9640389308822E-01  9.2041464301756E-01  9.0642872733289E-01
76  7.5000000000000E-01 -6.7343769747267E-01  8.1041931156751E-01  1.1047689046709E+00
77  7.6000000000000E-01 -6.4771429586991E-01  7.0091346905401E-01  1.2843339596771E+00
78  7.7000000000000E-01 -6.1969700205245E-01  5.9278791345890E-01  1.4409302282446E+00
79  7.8000000000000E-01 -5.8982062832332E-01  4.8684084244310E-01  1.5709733925301E+00
80  7.9000000000000E-01 -5.5848643461502E-01  3.8376972092478E-01  1.6715692158580E+00
81  8.0000000000000E-01 -5.2605871039053E-01  2.8416685626828E-01  1.7405727305660E+00
82  8.1000000000000E-01 -4.9286298736581E-01  1.8851863103911E-01  1.7766247794696E+00
83  8.2000000000000E-01 -4.5918582239206E-01  9.7208214743167E-02  1.7791655628508E+00
84  8.3000000000000E-01 -4.2527603504342E-01  1.0521456725014E-02  1.7484255857517E+00
85  8.4000000000000E-01 -3.9134723543315E-01 -7.1344443466292E-02  1.6853951099957E+00
86  8.5000000000000E-01 -3.5758143616252E-01 -1.4826998090596E-01  1.5917738685146E+00
87  8.6000000000000E-01 -3.2413350942045E-01 -2.2020066721324E-01  1.4699033753857E+00
88  8.7000000000000E-01 -2.9113622708501E-01 -2.8713323888200E-01  1.3226846456094E+00
89  8.8000000000000E-01 -2.5870560884169E-01 -3.4910138571142E-01  1.1534845097641E+00
90  8.9000000000000E-01 -2.2694630105048E-01 -4.0616163395642E-01  9.6603395979996E-01
91  9.0000000000000E-01 -1.9595671720382E-01 -4.5837999677413E-01  7.6432208700352E-01
92  9.1000000000000E-01 -1.6583368878570E-01 -5.0581996080570E-01  5.5248916934048E-01
93  9.2000000000000E-01 -1.3667640230281E-01 -5.4853231431793E-01  3.3472233467327E-01
94  9.3000000000000E-01 -1.0858943304088E-01 -5.8654724190936E-01  1.1515697426879E-01
95  9.4000000000000E-01 -8.1684727306711E-02 -6.1986901653014E-01 -1.0221328371347E-01
96  9.5000000000000E-01 -5.6082430969850E-02 -6.4847351503557E-01 -3.1361569690635E-01
97  9.6000000000000E-01 -3.1910511332509E-02 -6.7230867247241E-01 -5.1556483696746E-01
98  9.7000000000000E-01 -9.3031700309867E-03 -6.9129787659879E-01 -7.0491515834839E-01
99  9.8000000000000E-01  1.1601904871455E-02 -7.0534619150982E-01 -8.7889922457619E-01
100  9.9000000000000E-01  3.0667350723684E-02 -7.1434919107954E-01 -1.0351518319390E+00
101  1.0000000000000E+00  4.7760863571804E-02 -7.1820408227913E-01 -1.1717210192293E+00
102  1.0100000000000E+00  6.2760668997913E-02 -7.1682270773017E-01 -1.2870677134896E+00
103  1.0200000000000E+00  7.5561510225179E-02 -7.1014593789163E-01 -1.3800565237013E+00
104  1.0300000000000E+00  8.6080902208662E-02 -6.9815889693055E-01 -1.4499409498613E+00
105  1.0400000000000E+00  9.4265374974334E-02 -6.8090641288024E-01 -1.4963470167748E+00
106  1.0500000000000E+00  1.0009640915592E-01 -6.5850804126684E-01 -1.5192600684905E+00
107  1.0600000000000E+00  1.0359575074921E-01 -6.3117198030554E-01 -1.5190201737416E+00
108  1.0700000000000E+00  1.0482977945075E-01 -5.9920717255186E-01 -1.4963322972925E+00
109  1.0800000000000E+00  1.0391259398319E-01 -5.6303286901844E-01 -1.4522980976989E+00
110  1.0900000000000E+00  1.0100746718137E-01 -5.2318491535302E-01 -1.3884769613723E+00
111  1.1000000000000E+00  9.6326295430188E-02 -4.8031793613367E-01 -1.3069839148771E+00
112  1.1100000000000E+00  9.0126485133038E-02 -4.3520189333801E-01 -1.2106251481400E+00
113  1.1200000000000E+00  8.2698869808189E-02 -3.8868683513136E-01 -1.1027583313517E+00
114  1.1300000000000E+00  7.4349831736669E-02 -3.4164411053308E-01 -9.8681922874963E-01
115  1.1400000000000E+00  6.5392538851749E-02 -2.9494330682063E-01 -8.6617492195770E-01
116  1.1500000000000E+00  5.6139726747516E-02 -2.4943643371510E-01 -7.4407225168425E-01
117  1.1600000000000E+00  4.6895960989493E-02 -2.0594093170926E-01 -6.2359221196120E-01
118  1.1700000000000E+00  3.7949620580797E-02 -1.6522205811415E-01 -5.0761089449282E-01
119  1.1800000000000E+00  2.9564804673422E-02 -1.2797508847699E-01 -3.9876704049869E-01
120  1.1900000000000E+00  2.1970153768462E-02 -9.4800276844872E-02 -2.9944551467518E-01
121  1.2000000000000E+00  1.5309333055126E-02 -6.6086174917160E-02 -2.1187855100262E-01
122  1.2100000000000E+00  9.7427064078719E-03 -4.2250205355663E-02 -1.3781694875962E-01
123  1.2200000000000E+00  5.4017283119916E-03 -2.3635644374911E-02 -7.8637673203917E-02
124  1.2300000000000E+00  2.3486743437915E-03 -1.0418301992599E-02 -3.5451941980265E-02
125  1.2400000000000E+00  5.6991031357732E-04 -2.5757400551558E-03 -8.9883551064176E-03
126  1.2500000000000E+00  1.8704498242938E-06 -8.6032356508765E-06 -3.0704727305001E-05
127  1.2600000000000E+00  4.0325084623504E-06 -1.8557112674527E-05 -6.6186505070820E-05
128  1.2700000000000E+00 -7.1121799146958E-07  3.2367897437689E-06  1.1389060533650E-05
129  1.28 -0.  0. -0.
130  1.29  0.  0.  0.
131  1.30  0.  0.  0.
132  1.31  0.  0.  0.
133  1.32  0.  0.  0.
134  1.33  0.  0.  0.
135  1.34  0.  0.  0.
136  1.35  0.  0.  0.
137  1.36  0.  0.  0.
138  1.37  0.  0.  0.
139  1.38  0.  0.  0.
140  1.39  0.  0.  0.
141  1.40  0.  0.  0.
142  1.41  0.  0.  0.
143  1.42  0.  0.  0.
144  1.43  0.  0.  0.
145  1.44  0.  0.  0.
146  1.45  0.  0.  0.
147  1.46  0.  0.  0.
148  1.47  0.  0.  0.
149  1.48  0.  0.  0.
150  1.49  0.  0.  0.
151  1.50  0.  0.  0.
152  1.51  0.  0.  0.
153  1.52  0.  0.  0.
154  1.53  0.  0.  0.
155  1.54  0.  0.  0.
156  1.55  0.  0.  0.
157  1.56  0.  0.  0.
158  1.57  0.  0.  0.
159  1.58  0.  0.  0.
160  1.59  0.  0.  0.
161  1.60  0.  0.  0.
162  1.61  0.  0.  0.
163  1.62  0.  0.  0.
164  1.63  0.  0.  0.
165  1.64  0.  0.  0.
166  1.65  0.  0.  0.
167  1.66  0.  0.  0.
168  1.67  0.  0.  0.
169  1.68  0.  0.  0.
170  1.69  0.  0.  0.
171  1.70  0.  0.  0.
172  1.71  0.  0.  0.
173  1.72  0.  0.  0.
174  1.73  0.  0.  0.
175  1.74  0.  0.  0.
176  1.75  0.  0.  0.
177  1.76  0.  0.  0.
178  1.77  0.  0.  0.
179  1.78  0.  0.  0.
180  1.79  0.  0.  0.
181  1.80  0.  0.  0.
182  1.81  0.  0.  0.
183  1.82  0.  0.  0.
184  1.83  0.  0.  0.
185  1.84  0.  0.  0.
186  1.85  0.  0.  0.
187  1.86  0.  0.  0.
188  1.87  0.  0.  0.
189  1.88  0.  0.  0.
190  1.89  0.  0.  0.
191  1.90  0.  0.  0.
192  1.91  0.  0.  0.
193  1.92  0.  0.  0.
194  1.93  0.  0.  0.
195  1.94  0.  0.  0.
196  1.95  0.  0.  0.
197  1.96  0.  0.  0.
198  1.97  0.  0.  0.
199  1.98  0.  0.  0.
200  1.99  0.  0.  0.
201  2.00  0.  0.  0.
202  2.01  0.  0.  0.
203  2.02  0.  0.  0.
204  2.03  0.  0.  0.
205  2.04  0.  0.  0.
206  2.05  0.  0.  0.
207  2.06  0.  0.  0.
208  2.07  0.  0.  0.
209  2.08  0.  0.  0.
210  2.09  0.  0.  0.
211  2.10  0.  0.  0.
212  2.11  0.  0.  0.
213  2.12  0.  0.  0.
214  2.13  0.  0.  0.
215  2.14  0.  0.  0.
216  2.15  0.  0.  0.
217  2.16  0.  0.  0.
218  2.17  0.  0.  0.
219  2.18  0.  0.  0.
220  2.19  0.  0.  0.
221  2.20  0.  0.  0.
222  2.21  0.  0.  0.
223  2.22  0.  0.  0.
224  2.23  0.  0.  0.
225  2.24  0.  0.  0.
226  2.25  0.  0.  0.
227  2.26  0.  0.  0.
228  2.27  0.  0.  0.
229  2.28  0.  0.  0.
230  2.29  0.  0.  0.
231  2.30  0.  0.  0.
232  2.31  0.  0.  0.
233  2.32  0.  0.  0.
234  2.33  0.  0.  0.
235  2.34  0.  0.  0.
236  2.35  0.  0.  0.
237  2.36  0.  0.  0.
238  2.37  0.  0.  0.
239  2.38  0.  0.  0.
240  2.39  0.  0.  0.
241  2.40  0.  0.  0.
242  2.41  0.  0.  0.
243  2.42  0.  0.  0.
244  2.43  0.  0.  0.
245  2.44  0.  0.  0.
246  2.45  0.  0.  0.
247  2.46  0.  0.  0.
248  2.47  0.  0.  0.
249  2.48  0.  0.  0.
250  2.49  0.  0.  0.
251  2.50  0.  0.  0.
252  2.51  0.  0.  0.
253  2.52  0.  0.  0.
254  2.53  0.  0.  0.
255  2.54  0.  0.  0.
256  2.55  0.  0.  0.
257  2.56  0.  0.  0.
258  2.57  0.  0.  0.
259  2.58  0.  0.  0.
260  2.59  0.  0.  0.
261  2.60  0.  0.  0.
262  2.61  0.  0.  0.
263  2.62  0.  0.  0.
264  2.63  0.  0.  0.
265  2.64  0.  0.  0.
266  2.65  0.  0.  0.
267  2.66  0.  0.  0.
268  2.67  0.  0.  0.
269  2.68  0.  0.  0.
270  2.69  0.  0.  0.
271  2.70  0.  0.  0.
272  2.71  0.  0.  0.
273  2.72  0.  0.  0.
274  2.73  0.  0.  0.
275  2.74  0.  0.  0.
276  2.75  0.  0.  0.
277  2.76  0.  0.  0.
278  2.77  0.  0.  0.
279  2.78  0.  0.  0.
280  2.79  0.  0.  0.
281  2.80  0.  0.  0.
282  2.81  0.  0.  0.
283  2.82  0.  0.  0.
284  2.83  0.  0.  0.
285  2.84  0.  0.  0.
286  2.85  0.  0.  0.
287  2.86  0.  0.  0.
288  2.87  0.  0.  0.
289  2.88  0.  0.  0.
290  2.89  0.  0.  0.
291  2.90  0.  0.  0.
292  2.91  0.  0.  0.
293  2.92  0.  0.  0.
294  2.93  0.  0.  0.
295  2.94  0.  0.  0.
296  2.95  0.  0.  0.
297  2.96  0.  0.  0.
298  2.97  0.  0.  0.
299  2.98  0.  0.  0.
300  2.99  0.  0.  0.
301  3.00  0.  0.  0.
302  3.01  0.  0.  0.
303  3.02  0.  0.  0.
304  3.03  0.  0.  0.
305  3.04  0.  0.  0.
306  3.05  0.  0.  0.
307  3.06  0.  0.  0.
308  3.07  0.  0.  0.
309  3.08  0.  0.  0.
310  3.09  0.  0.  0.
311  3.10  0.  0.  0.
312  3.11  0.  0.  0.
313  3.12  0.  0.  0.
314  3.13  0.  0.  0.
315  3.14  0.  0.  0.
316  3.15  0.  0.  0.
317  3.16  0.  0.  0.
318  3.17  0.  0.  0.
319  3.18  0.  0.  0.
320  3.19  0.  0.  0.
321  3.20  0.  0.  0.
322  3.21  0.  0.  0.
323  3.22  0.  0.  0.
324  3.23  0.  0.  0.
325  3.24  0.  0.  0.
326  3.25  0.  0.  0.
327  3.26  0.  0.  0.
328  3.27  0.  0.  0.
329  3.28  0.  0.  0.
330  3.29  0.  0.  0.
331  3.30  0.  0.  0.
332  3.31  0.  0.  0.
333  3.32  0.  0.  0.
334  3.33  0.  0.  0.
335  3.34  0.  0.  0.
336  3.35  0.  0.  0.
337  3.36  0.  0.  0.
338  3.37  0.  0.  0.
339  3.38  0.  0.  0.
340  3.39  0.  0.  0.
341  3.40  0.  0.  0.
342  3.41  0.  0.  0.
343  3.42  0.  0.  0.
344  3.43  0.  0.  0.
345  3.44  0.  0.  0.
346  3.45  0.  0.  0.
347  3.46  0.  0.  0.
348  3.47  0.  0.  0.
349  3.48  0.  0.  0.
350  3.49  0.  0.  0.
351  3.50  0.  0.  0.
352  3.51  0.  0.  0.
353  3.52  0.  0.  0.
354  3.53  0.  0.  0.
355  3.54  0.  0.  0.
356  3.55  0.  0.  0.
357  3.56  0.  0.  0.
358  3.57  0.  0.  0.
359  3.58  0.  0.  0.
360  3.59  0.  0.  0.
361  3.60  0.  0.  0.
362  3.61  0.  0.  0.
363  3.62  0.  0.  0.
364  3.63  0.  0.  0.
365  3.64  0.  0.  0.
366  3.65  0.  0.  0.
367  3.66  0.  0.  0.
368  3.67  0.  0.  0.
369  3.68  0.  0.  0.
370  3.69  0.  0.  0.
371  3.70  0.  0.  0.
372  3.71  0.  0.  0.
373  3.72  0.  0.  0.
374  3.73  0.  0.  0.
375  3.74  0.  0.  0.
376  3.75  0.  0.  0.
377  3.76  0.  0.  0.
378  3.77  0.  0.  0.
379  3.78  0.  0.  0.
380  3.79  0.  0.  0.
381  3.80  0.  0.  0.
382  3.81  0.  0.  0.
383  3.82  0.  0.  0.
384  3.83  0.  0.  0.
385  3.84  0.  0.  0.
386  3.85  0.  0.  0.
387  3.86  0.  0.  0.
388  3.87  0.  0.  0.
389  3.88  0.  0.  0.
390  3.89  0.  0.  0.
391  3.90  0.  0.  0.
392  3.91  0.  0.  0.
393  3.92  0.  0.  0.
394  3.93  0.  0.  0.
395  3.94  0.  0.  0.
396  3.95  0.  0.  0.
397  3.96  0.  0.  0.
398  3.97  0.  0.  0.
399  3.98  0.  0.  0.
400  3.99  0.  0.  0.
401  4.00  0.  0.  0.
402  4.01  0.  0.  0.
403  4.02  0.  0.  0.
404  4.03  0.  0.  0.
405  4.04  0.  0.  0.
406  4.05  0.  0.  0.
407  4.06  0.  0.  0.
408  4.07  0.  0.  0.
409  4.08  0.  0.  0.
410  4.09  0.  0.  0.
411  4.10  0.  0.  0.
412  4.11  0.  0.  0.
413  4.12  0.  0.  0.
414  4.13  0.  0.  0.
415  4.14  0.  0.  0.
416  4.15  0.  0.  0.
417  4.16  0.  0.  0.
418  4.17  0.  0.  0.
419  4.18  0.  0.  0.
420  4.19  0.  0.  0.
421  4.20  0.  0.  0.
422  4.21  0.  0.  0.
423  4.22  0.  0.  0.
424  4.23  0.  0.  0.
425  4.24  0.  0.  0.
426  4.25  0.  0.  0.
427  4.26  0.  0.  0.
428  4.27  0.  0.  0.
429  4.28  0.  0.  0.
430  4.29  0.  0.  0.
431  4.30  0.  0.  0.
432  4.31  0.  0.  0.
433  4.32  0.  0.  0.
434  4.33  0.  0.  0.
435  4.34  0.  0.  0.
436  4.35  0.  0.  0.
437  4.36  0.  0.  0.
438  4.37  0.  0.  0.
439  4.38  0.  0.  0.
440  4.39  0.  0.  0.
441  4.40  0.  0.  0.
442  4.41  0.  0.  0.
443  4.42  0.  0.  0.
444  4.43  0.  0.  0.
445  4.44  0.  0.  0.
446  4.45  0.  0.  0.
447  4.46  0.  0.  0.
448  4.47  0.  0.  0.
449  4.48  0.  0.  0.
450  4.49  0.  0.  0.
451  4.50  0.  0.  0.
452  4.51  0.  0.  0.
453  4.52  0.  0.  0.
454  4.53  0.  0.  0.
455  4.54  0.  0.  0.
456  4.55  0.  0.  0.
457  4.56  0.  0.  0.
458  4.57  0.  0.  0.
459  4.58  0.  0.  0.
460  4.59  0.  0.  0.
461  4.60  0.  0.  0.
462  4.61  0.  0.  0.
463  4.62  0.  0.  0.
464  4.63  0.  0.  0.
465  4.64  0.  0.  0.
466  4.65  0.  0.  0.
467  4.66  0.  0.  0.
468  4.67  0.  0.  0.
469  4.68  0.  0.  0.
470  4.69  0.  0.  0.
471  4.70  0.  0.  0.
472  4.71  0.  0.  0.
473  4.72  0.  0.  0.
474  4.73  0.  0.  0.
475  4.74  0.  0.  0.
476  4.75  0.  0.  0.
477  4.76  0.  0.  0.
478  4.77  0.  0.  0.
479  4.78  0.  0.  0.
480  4.79  0.  0.  0.
481  4.80  0.  0.  0.
482  4.81  0.  0.  0.
483  4.82  0.  0.  0.
484  4.83  0.  0.  0.
485  4.84  0.  0.  0.
486  4.85  0.  0.  0.
487  4.86  0.  0.  0.
488  4.87  0.  0.  0.
489  4.88  0.  0.  0.
490  4.89  0.  0.  0.
491  4.90  0.  0.  0.
492  4.91  0.  0.  0.
493  4.92  0.  0.  0.
494  4.93  0.  0.  0.
495  4.94  0.  0.  0.
496  4.95  0.  0.  0.
497  4.96  0.  0.  0.
498  4.97  0.  0.  0.
499  4.98  0.  0.  0.
500  4.99  0.  0.  0.
501  5.00  0.  0.  0.
502  5.01  0.  0.  0.
503  5.02  0.  0.  0.
504  5.03  0.  0.  0.
505  5.04  0.  0.  0.
506  5.05  0.  0.  0.
507  5.06  0.  0.  0.
508  5.07  0.  0.  0.
509  5.08  0.  0.  0.
510  5.09  0.  0.  0.
511  5.10  0.  0.  0.
512  5.11  0.  0.  0.
513  5.12  0.  0.  0.
514  5.13  0.  0.  0.
515  5.14  0.  0.  0.
516  5.15  0.  0.  0.
517  5.16  0.  0.  0.
518  5.17  0.  0.  0.
519  5.18  0.  0.  0.
520  5.19  0.  0.  0.
521  5.20  0.  0.  0.
522  5.21  0.  0.  0.
523  5.22  0.  0.  0.
524  5.23  0.  0.  0.
525  5.24  0.  0.  0.
526  5.25  0.  0.  0.
527  5.26  0.  0.  0.
528  5.27  0.  0.  0.
529  5.28  0.  0.  0.
530  5.29  0.  0.  0.
531  5.30  0.  0.  0.
532  5.31  0.  0.  0.
533  5.32  0.  0.  0.
534  5.33  0.  0.  0.
535  5.34  0.  0.  0.
536  5.35  0.  0.  0.
537  5.36  0.  0.  0.
538  5.37  0.  0.  0.
539  5.38  0.  0.  0.
540  5.39  0.  0.  0.
541  5.40  0.  0.  0.
542  5.41  0.  0.  0.
543  5.42  0.  0.  0.
544  5.43  0.  0.  0.
545  5.44  0.  0.  0.
546  5.45  0.  0.  0.
547  5.46  0.  0.  0.
548  5.47  0.  0.  0.
549  5.48  0.  0.  0.
550  5.49  0.  0.  0.
551  5.50  0.  0.  0.
552  5.51  0.  0.  0.
553  5.52  0.  0.  0.
554  5.53  0.  0.  0.
555  5.54  0.  0.  0.
556  5.55  0.  0.  0.
557  5.56  0.  0.  0.
558  5.57  0.  0.  0.
559  5.58  0.  0.  0.
560  5.59  0.  0.  0.
561  5.60  0.  0.  0.
562  5.61  0.  0.  0.
563  5.62  0.  0.  0.
564  5.63  0.  0.  0.
565  5.64  0.  0.  0.
566  5.65  0.  0.  0.
567  5.66  0.  0.  0.
568  5.67  0.  0.  0.
569  5.68  0.  0.  0.
570  5.69  0.  0.  0.
571  5.70  0.  0.  0.
572  5.71  0.  0.  0.
573  5.72  0.  0.  0.
574  5.73  0.  0.  0.
575  5.74  0.  0.  0.
576  5.75  0.  0.  0.
577  5.76  0.  0.  0.
578  5.77  0.  0.  0.
579  5.78  0.  0.  0.
580  5.79  0.  0.  0.
581  5.80  0.  0.  0.
582  5.81  0.  0.  0.
583  5.82  0.  0.  0.
584  5.83  0.  0.  0.
585  5.84  0.  0.  0.
586  5.85  0.  0.  0.
587  5.86  0.  0.  0.
588  5.87  0.  0.  0.
589  5.88  0.  0.  0.
590  5.89  0.  0.  0.
591  5.90  0.  0.  0.
592  5.91  0.  0.  0.
593  5.92  0.  0.  0.
594  5.93  0.  0.  0.
595  5.94  0.  0.  0.
596  5.95  0.  0.  0.
597  5.96  0.  0.  0.
598  5.97  0.  0.  0.
599  5.98  0.  0.  0.
600  5.99  0.  0.  0.
1                         1.8785592551407E+01  2.5202644789439E+00
1  0.0000000000000E+00 -3.8795150897331E-08  6.5947983615700E-08
2  1.0000000000000E-02  2.8453379584965E-03  6.4894214294237E-04
3  2.0000000000000E-02  1.1378752016237E-02  2.5674026367615E-03
4  3.0000000000000E-02  2.5591808231661E-02  5.6715231423118E-03
5  4.0000000000000E-02  4.5468361208523E-02  9.8256271981940E-03
6  5.0000000000000E-02  7.0981511448086E-02  1.4848198421033E-02
7  6.0000000000000E-02  1.0208952370163E-01  2.0519949244664E-02
8  7.0000000000000E-02  1.3873087718813E-01  2.6593691356129E-02
9  8.0000000000000E-02  1.8081865733712E-01  3.2805653038393E-02
10  9.0000000000000E-02  2.2823453043016E-01  3.8887834395749E-02
11  1.0000000000000E-01  2.8082256604187E-01  4.4580950745944E-02
12  1.1000000000000E-01  3.3838318667594E-01  4.9647488716667E-02
13  1.2000000000000E-01  4.0066752889422E-01  5.3884389710423E-02
14  1.3000000000000E-01  4.6737249529349E-01  5.7134881826097E-02
15  1.4000000000000E-01  5.3813676195582E-01  5.9299003952135E-02
16  1.5000000000000E-01  6.1253798186223E-01  6.0342403957521E-02
17  1.6000000000000E-01  6.9009139189635E-01  6.0303045583969E-02
18  1.7000000000000E-01  7.7024999044542E-01  5.9295524190860E-02
19  1.8000000000000E-01  8.5240640545604E-01  5.7512767905951E-02
20  1.9000000000000E-01  9.3589652057120E-01  5.5224985604425E-02
21  2.0000000000000E-01  1.0200048712915E+00  5.2775813797591E-02
22  2.1000000000000E-01  1.1039717657219E+00  5.0575708070701E-02
23  2.2000000000000E-01  1.1870020272186E+00  4.9092718152724E-02
24  2.3000000000000E-01  1.2682752009892E+00  4.8840875987963E-02
25  2.4000000000000E-01  1.3469570152300E+00  5.0366510333610E-02
26  2.5000000000000E-01  1.4222118414239E+00  5.4232876615658E-02
27  2.6000000000000E-01  1.4932158595249E+00  6.1003554476093E-02
28  2.7000000000000E-01  1.5591706032876E+00  7.1225115412282E-02
29  2.8000000000000E-01  1.6193165400567E+00  8.5409597331498E-02
30  2.9000000000000E-01  1.6729463287454E+00  1.0401734038119E-01
31  3.0000000000000E-01  1.7194174000002E+00  1.2744073825082E-01
32  3.1000000000000E-01  1.7581635138417E+00  1.5598944101682E-01
33  3.2000000000000E-01  1.7887049722080E+00  1.8987750982715E-01
34  3.3000000000000E-01  1.8106571962800E+00  2.2921297118333E-01
35  3.4000000000000E-01  1.8237374203785E+00  2.7399015070465E-01
36  3.5000000000000E-01  1.8277693044167E+00  3.2408508500485E-01
37  3.6000000000000E-01  1.8226853239138E+00  3.7925421807790E-01
38  3.7000000000000E-01  1.8085268587378E+00  4.3913648817792E-01
39  3.8000000000000E-01  1.7854419671654E+00  5.0325880569066E-01
40  3.9000000000000E-01  1.7536808985135E+00  5.7104481524767E-01
41  4.0000000000000E-01  1.7135894634364E+00  6.4182672975565E-01
42  4.1000000000000E-01  1.6656004438981E+00  7.1485992353217E-01
43  4.2000000000000E-01  1.6102232828125E+00  7.8933987967339E-01
44  4.3000000000000E-01  1.5480323444932E+00  8.6442100623640E-01
45  4.4000000000000E-01  1.4796540796622E+00  9.3923676958010E-01
46  4.5000000000000E-01  1.4057534613896E+00  1.0129205436455E+00
47  4.6000000000000E-01  1.3270200798028E+00  1.0846265429375E+00
48  4.7000000000000E-01  1.2441542929057E+00  1.1535501957995E+00
49  4.8000000000000E-01  1.1578538279442E+00  1.2189473239327E+00
50  4.9000000000000E-01  1.0688012123828E+00  1.2801515240313E+00
51  5.0000000000000E-01  9.7765238608001E-01  1.3365891972538E+00
52  5.1000000000000E-01  8.8502680740521E-01  1.3877917407271E+00
53  5.2000000000000E-01  7.9149931695686E-01  1.4334045004756E+00
54  5.3000000000000E-01  6.9759396468715E-01  1.4731921845847E+00
55  5.4000000000000E-01  6.0377994139669E-01  1.5070405460462E+00
56  5.5000000000000E-01  5.1046968575902E-01  1.5349542631819E+00
57  5.6000000000000E-01  4.1801916549231E-01  1.5570510680803E+00
58  5.7000000000000E-01  3.2673025835497E-01  1.5735522961786E+00
59  5.8000000000000E-01  2.3685508769034E-01  1.5847701490032E+00
60  5.9000000000000E-01  1.4860210063695E-01  1.5910920731994E+00
61  6.0000000000000E-01  6.2143617102785E-02  1.5929627586087E+00
62  6.1000000000000E-01 -2.2375473770551E-02  1.5908643428491E+00
63  6.2000000000000E-01 -1.0482823384835E-01  1.5852954766394E+00
64  6.3000000000000E-01 -1.8509580613251E-01  1.5767499505179E+00
65  6.4000000000000E-01 -2.6305756391598E-01  1.5656956078215E+00
66  6.5000000000000E-01 -3.3858169031934E-01  1.5525542696861E+00
67  6.6000000000000E-01 -4.1151658781757E-01  1.5376833750183E+00
68  6.7000000000000E-01 -4.8168349186135E-01  1.5213599922862E+00
69  6.8000000000000E-01 -5.4887062411739E-01  1.5037677917191E+00
70  6.9000000000000E-01 -6.1282917032306E-01  1.4849874780427E+00
71  7.0000000000000E-01 -6.7327130680419E-01  1.4649910777694E+00
72  7.1000000000000E-01 -7.2987043025375E-01  1.4436403545715E+00
73  7.2000000000000E-01 -7.8226366961909E-01  1.4206894950883E+00
74  7.3000000000000E-01 -8.3005667936330E-01  1.3957920698312E+00
75  7.4000000000000E-01 -8.7283063254736E-01  1.3685121340185E+00
76  7.5000000000000E-01 -9.1015125283105E-01  1.3383391957590E+00
77  7.6000000000000E-01 -9.4157964926858E-01  1.3047066484914E+00
78  7.7000000000000E-01 -9.6668464924678E-01  1.2670131453013E+00
79  7.8000000000000E-01 -9.8505626545431E-01  1.2246462886963E+00
80  7.9000000000000E-01 -9.9631988446204E-01  1.1770079241359E+00
81  8.0000000000000E-01 -1.0001507290821E+00  1.1235402620586E+00
82  8.1000000000000E-01 -9.9628812547164E-01  1.0637520135559E+00
83  8.2000000000000E-01 -9.8454909981741E-01  9.9724371070309E-01
84  8.3000000000000E-01 -9.6484083872060E-01  9.2373139448562E-01
85  8.4000000000000E-01 -9.3717157193457E-01  8.4306789102490E-01
86  8.5000000000000E-01 -9.0165947518287E-01  7.5526095927878E-01
87  8.6000000000000E-01 -8.5853924319831E-01  6.6048767859422E-01
88  8.7000000000000E-01 -8.0816604718161E-01  5.5910454963522E-01
89  8.8000000000000E-01 -7.5101666445610E-01  4.5165290378466E-01
90  8.9000000000000E-01 -6.8768764869715E-01  3.3885934998373E-01
91  9.0000000000000E-01 -6.1889049393941E-01  2.2163112947166E-01
92  9.1000000000000E-01 -5.4544383159848E-01  1.0104639300514E-01
93  9.2000000000000E-01 -4.6826278383417E-01 -2.1660443384657E-02
94  9.3000000000000E-01 -3.8834567554067E-01 -1.4511797452470E-01
95  9.4000000000000E-01 -3.0675837794996E-01 -2.6784130422815E-01
96  9.5000000000000E-01 -2.2461661628051E-01 -3.8825925341845E-01
97  9.6000000000000E-01 -1.4306661929458E-01 -5.0474468700106E-01
98  9.7000000000000E-01 -6.3264517590283E-02 -6.1564731597475E-01
99  9.8000000000000E-01  1.3645092133211E-02 -7.1932830953463E-01
100  9.9000000000000E-01  8.6551009385977E-02 -8.1419606350528E-01
101  1.0000000000000E+00  1.5439734250548E-01 -8.9874251842606E-01
102  1.0100000000000E+00  2.1620514859085E-01 -9.7157950422479E-01
103  1.0200000000000E+00  2.7109355319568E-01 -1.0314747088599E+00
104  1.0300000000000E+00  3.1830019967470E-01 -1.0773870254274E+00
105  1.0400000000000E+00  3.5720099652704E-01 -1.1085012244136E+00
106  1.0500000000000E+00  3.8732926909773E-01 -1.1242621227384E+00
107  1.0600000000000E+00  4.0839457829015E-01 -1.1244086768952E+00
108  1.0700000000000E+00  4.2030164064418E-01 -1.1090087091780E+00
109  1.0800000000000E+00  4.2316996920161E-01 -1.0784952803542E+00
110  1.0900000000000E+00  4.1735505761542E-01 -1.0337060584279E+00
111  1.1000000000000E+00  4.0347195927106E-01 -9.7592704167404E-01
112  1.1100000000000E+00  3.8242044074732E-01 -9.0693879346359E-01
113  1.1200000000000E+00  3.5533562950412E-01 -8.2892224415508E-01
114  1.1300000000000E+00  3.2345661708300E-01 -7.4421392131816E-01
115  1.1400000000000E+00  2.8807586834672E-01 -6.5521750811165E-01
116  1.1500000000000E+00  2.5050926894384E-01 -5.6435509207968E-01
117  1.1600000000000E+00  2.1206509598075E-01 -4.7401661741105E-01
118  1.1700000000000E+00  1.7401278771133E-01 -3.8650899135332E-01
119  1.1800000000000E+00  1.3755219459465E-01 -3.0400596348872E-01
120  1.1900000000000E+00  1.0377847035435E-01 -2.2849183920598E-01