Rf    ONCVPSP-4.0.1  r_core=   1.10045   1.10045   1.10045   1.20376
104.0000     44.0000      231012    zatom,zion,pspd
8   -1012   3     4   600     0    pspcod,pspxc,lmax,lloc,mmax,r2well
5.99000000  3.50000000  0.00000000    rchrg fchrg qchrg
3     2     2     2     0    nproj
1     1           extension_switch
0                         1.9197450049757E+01 -4.9194761371839E+00  1.7469003165644E+00
1  0.0000000000000E+00 -7.4765748703243E-08 -8.4347364093240E-09 -2.4361890454960E-07
2  1.0000000000000E-02  1.7947750641103E-01  4.9371618511613E-02  6.3756436514269E-02
3  2.0000000000000E-02  3.5727541989362E-01  9.8664493412783E-02  1.2568353986278E-01
4  3.0000000000000E-02  5.3173922901807E-01  1.4780124427598E-01  1.8400428739199E-01
5  4.0000000000000E-02  7.0126396574105E-01  1.9670715996597E-01  2.3704448542352E-01
6  5.0000000000000E-02  8.6431744864184E-01  2.4531139294283E-01  2.8327977093819E-01
7  6.0000000000000E-02  1.0194617488388E+00  2.9354799161219E-01  3.2137750376259E-01
8  7.0000000000000E-02  1.1653723785813E+00  3.4135672722160E-01  3.5023214808918E-01
9  8.0000000000000E-02  1.3008547772774E+00  3.8868368023689E-01  3.6899298577965E-01
10  9.0000000000000E-02  1.4248577578047E+00  4.3548156101373E-01  3.7708329010345E-01
11  1.0000000000000E-01  1.5364836740887E+00  4.8170975050699E-01  3.7421040622088E-01
12  1.1000000000000E-01  1.6349951755058E+00  5.2733405829054E-01  3.6036652151283E-01
13  1.2000000000000E-01  1.7198185208307E+00  5.7232620682619E-01  3.3582025176357E-01
14  1.3000000000000E-01  1.7905435303111E+00  6.1666306225027E-01  3.0109950499912E-01
15  1.4000000000000E-01  1.8469203551938E+00  6.6032564248255E-01  2.5696640059865E-01
16  1.5000000000000E-01  1.8888533360676E+00  7.0329794277972E-01  2.0438530508355E-01
17  1.6000000000000E-01  1.9163923015223E+00  7.4556562657896E-01  1.4448528701827E-01
18  1.7000000000000E-01  1.9297217241205E+00  7.8711463529728E-01  7.8518482725896E-02
19  1.8000000000000E-01  1.9291481994180E+00  8.2792977443390E-01  7.8159950864138E-03
20  1.9000000000000E-01  1.9150867442748E+00  8.6799333472191E-01 -6.6256985060993E-02
21  2.0000000000000E-01  1.8880464222276E+00  9.0728380613382E-01 -1.4234514356340E-01
22  2.1000000000000E-01  1.8486157962313E+00  9.4577473930400E-01 -2.1914446546537E-01
23  2.2000000000000E-01  1.7974486833265E+00  9.8343380351806E-01 -2.9543961239316E-01
24  2.3000000000000E-01  1.7352506431593E+00  1.0202220830515E+00 -3.7013593368986E-01
25  2.4000000000000E-01  1.6627665747913E+00  1.0560936446097E+00 -4.4228502122715E-01
26  2.5000000000000E-01  1.5807697264485E+00  1.0909953982862E+00 -5.1110298868894E-01
27  2.6000000000000E-01  1.4900523437738E+00  1.1248672632236E+00 -5.7598095600673E-01
28  2.7000000000000E-01  1.3914180970523E+00  1.1576426374743E+00 -6.3648753667048E-01
29  2.8000000000000E-01  1.2856763402591E+00  1.1892491598680E+00 -6.9236344743850E-01
30  2.9000000000000E-01  1.1736381681455E+00  1.2196097404646E+00 -7.4350867403687E-01
31  3.0000000000000E-01  1.0561141553321E+00  1.2486438258301E+00 -7.8996292069297E-01
32  3.1000000000000E-01  9.3391358671666E-01  1.2762688563231E+00 -8.3188033458148E-01
33  3.2000000000000E-01  8.0784492424089E-01  1.3024018651664E+00 -8.6949971854580E-01
34  3.3000000000000E-01  6.7871720358947E-01  1.3269611635791E+00 -9.0311161853543E-01
35  3.4000000000000E-01  5.4734201753559E-01  1.3498680528720E+00 -9.3302378975805E-01
36  3.5000000000000E-01  4.1453572165494E-01  1.3710485032777E+00 -9.5952660344667E-01
37  3.6000000000000E-01  2.8112149358847E-01  1.3904347404357E+00 -9.8285995256187E-01
38  3.7000000000000E-01  1.4793088889774E-01  1.4079666838335E+00 -1.0031831502094E+00
39  3.8000000000000E-01  1.5804564130376E-02  1.4235931869730E+00 -1.0205491918794E+00
40  3.9000000000000E-01 -1.1440812029693E-01  1.4372730363797E+00 -1.0348845768032E+00
41  4.0000000000000E-01 -2.4185085022023E-01  1.4489756755119E+00 -1.0459756617388E+00
42  4.1000000000000E-01 -3.6566362882809E-01  1.4586816298116E+00 -1.0534622609574E+00
43  4.2000000000000E-01 -4.8498766425220E-01  1.4663826201922E+00 -1.0568389190841E+00
44  4.3000000000000E-01 -5.9897189202144E-01  1.4720813637460E+00 -1.0554639796550E+00
45  4.4000000000000E-01 -7.0678107201021E-01  1.4757910719633E+00 -1.0485762632266E+00
46  4.5000000000000E-01 -8.0760532227178E-01  1.4775346678401E+00 -1.0353188661717E+00
47  4.6000000000000E-01 -9.0067087942741E-01  1.4773437535202E+00 -1.0147693061268E+00
48  4.7000000000000E-01 -9.8525180989826E-01  1.4752573691735E+00 -9.8597498292699E-01
49  4.8000000000000E-01 -1.0606823407325E+00  1.4713205913480E+00 -9.4799270415940E-01
50  4.9000000000000E-01 -1.1263694352188E+00  1.4655830247598E+00 -8.9993085014883E-01
51  5.0000000000000E-01 -1.1818052085456E+00  1.4580972452121E+00 -8.4099263051277E-01
52  5.1000000000000E-01 -1.2265787636090E+00  1.4489172529269E+00 -7.7051881774403E-01
53  5.2000000000000E-01 -1.2603870272713E+00  1.4380969949916E+00 -6.8802833489298E-01
54  5.3000000000000E-01 -1.2830441829551E+00  1.4256890128817E+00 -5.9325512454725E-01
55  5.4000000000000E-01 -1.2944893258846E+00  1.4117432662485E+00 -4.8617983305064E-01
56  5.5000000000000E-01 -1.2947920114879E+00  1.3963061775214E+00 -3.6705500340431E-01
57  5.6000000000000E-01 -1.2841554238948E+00  1.3794199336252E+00 -2.3642267682487E-01
58  5.7000000000000E-01 -1.2629169581268E+00  1.3611220715528E+00 -9.5123549181283E-02
59  5.8000000000000E-01 -1.2315460841548E+00  1.3414453640100E+00  5.5702894185375E-02
60  5.9000000000000E-01 -1.1906394409005E+00  1.3204180102470E+00  2.1462754313391E-01
61  6.0000000000000E-01 -1.1409131907395E+00  1.2980641259028E+00  3.7995009517709E-01
62  6.1000000000000E-01 -1.0831927472947E+00  1.2744045146203E+00  5.4972641415596E-01
63  6.2000000000000E-01 -1.0184000685101E+00  1.2494576937366E+00  7.2180417408494E-01
64  6.3000000000000E-01 -9.4753878050647E-01  1.2232411368741E+00  8.9386586820554E-01
65  6.4000000000000E-01 -8.7167746310110E-01  1.1957726881006E+00  1.0634780143952E+00
66  6.5000000000000E-01 -7.9193148299279E-01  1.1670720957609E+00  1.2281451775605E+00
67  6.6000000000000E-01 -7.0944380369943E-01  1.1371626093462E+00  1.3853672644999E+00
68  6.7000000000000E-01 -6.2536523105412E-01  1.1060725800169E+00  1.5326984323585E+00
69  6.8000000000000E-01 -5.4083456854517E-01  1.0738370047271E+00  1.6678058918599E+00
70  6.9000000000000E-01 -4.5695915764604E-01  1.0404989553292E+00  1.7885268827729E+00
71  7.0000000000000E-01 -3.7479626464889E-01  1.0061108375153E+00  1.8929221513856E+00
72  7.1000000000000E-01 -2.9533574799355E-01  9.7073542985133E-01  1.9793243660961E+00
73  7.2000000000000E-01 -2.1948439975837E-01  9.3444666028803E-01  2.0463800636661E+00
74  7.3000000000000E-01 -1.4805230333762E-01  8.9733008613891E-01  2.0930839196835E+00
75  7.4000000000000E-01 -8.1741488250268E-02  8.5948305329650E-01  2.1188043752425E+00
76  7.5000000000000E-01 -2.1137094673849E-02  8.2101452106661E-01  2.1232999194416E+00
77  7.6000000000000E-01  3.3298812928621E-02  7.8204455006526E-01  2.1067256147206E+00
78  7.7000000000000E-01  8.1230719266796E-02  7.4270346174913E-01  2.0696297492869E+00
79  7.8000000000000E-01  1.2245043020670E-01  7.0313068894326E-01  2.0129407975991E+00
80  7.9000000000000E-01  1.5687522711625E-01  6.6347334680112E-01  1.9379451557444E+00
81  8.0000000000000E-01  1.8454355446017E-01  6.2388456261582E-01  1.8462563835625E+00
82  8.1000000000000E-01  2.0560845095336E-01  5.8452161046399E-01  1.7397769201856E+00
83  8.2000000000000E-01  2.2032898435141E-01  5.4554390251860E-01  1.6206534359274E+00
84  8.3000000000000E-01  2.2905998837686E-01  5.0711089277767E-01  1.4912271340423E+00
85  8.4000000000000E-01  2.3224042603115E-01  4.6937995075179E-01  1.3539804151398E+00
86  8.5000000000000E-01  2.3038071572761E-01  4.3250426222726E-01  1.2114813610165E+00
87  8.6000000000000E-01  2.2404935484544E-01  3.9663081154237E-01  1.0663274811845E+00
88  8.7000000000000E-01  2.1385915945717E-01  3.6189849491780E-01  9.2109009415088E-01
89  8.8000000000000E-01  2.0045340957845E-01  3.2843640738132E-01  7.7826058813054E-01
90  8.9000000000000E-01  1.8449214723182E-01  2.9636233689970E-01  6.4019962583452E-01
91  9.0000000000000E-01  1.6663882121172E-01  2.6578148872026E-01  5.0909013047323E-01
92  9.1000000000000E-01  1.4754740935430E-01  2.3678545092910E-01  3.8689462194722E-01
93  9.2000000000000E-01  1.2785007833851E-01  2.0945139919834E-01  2.7531717156663E-01
94  9.3000000000000E-01  1.0814536479585E-01  1.8384152500264E-01  1.7576991983868E-01
95  9.4000000000000E-01  8.8986782186503E-02  1.6000265764116E-01  8.9343765019848E-02
96  9.5000000000000E-01  7.0871678019797E-02  1.3796603662564E-01  1.6782490953543E-02
97  9.6000000000000E-01  5.4230088050456E-02  1.1774717780096E-01 -4.1540728106046E-02
98  9.7000000000000E-01  3.9413260550297E-02  9.9345764356984E-02 -8.5645819699506E-02
99  9.8000000000000E-01  2.6681456947507E-02  8.2745483044369E-02 -1.1596895898694E-01
100  9.9000000000000E-01  1.6190570482443E-02  6.7913716142118E-02 -1.3338830147900E-01
101  1.0000000000000E+00  7.9771107690560E-03  5.4800997484695E-02 -1.3925417268693E-01
102  1.0100000000000E+00  1.9449757363212E-03  4.3340471068414E-02 -1.3540624437662E-01
103  1.0200000000000E+00 -2.1047839577578E-03  3.3451221692758E-02 -1.2397888842413E-01
104  1.0300000000000E+00 -4.4273866488092E-03  2.5044360281365E-02 -1.0714759194706E-01
105  1.0400000000000E+00 -5.3191570296816E-03  1.8026997741301E-02 -8.7048271682521E-02
106  1.0500000000000E+00 -5.1183502300436E-03  1.2300502619762E-02 -6.5751363664581E-02
107  1.0600000000000E+00 -4.2227226300993E-03  7.7478229274926E-03 -4.5289377984292E-02
108  1.0700000000000E+00 -2.9334949990948E-03  4.3016084626948E-03 -2.7218427551862E-02
109  1.0800000000000E+00 -1.5699218327144E-03  1.9012032093123E-03 -1.2899824704356E-02
110  1.0900000000000E+00 -4.7186069610765E-04  4.8434513431063E-04 -3.4916976193461E-03
111  1.1000000000000E+00 -4.6957570173902E-06  4.1669162894035E-06 -3.1544451615701E-05
112  1.1100000000000E+00 -3.1236808272199E-06  2.8165650152663E-06 -2.1324883509308E-05
113  1.1200000000000E+00  8.6247048128062E-08 -8.3051477130778E-08  6.1319005029643E-07
114  1.13  0.  0.  0.
115  1.14  0.  0.  0.
116  1.15  0.  0.  0.
117  1.16  0.  0.  0.
118  1.17  0.  0.  0.
119  1.18  0.  0.  0.
120  1.19  0.  0.  0.
121  1.20  0.  0.  0.
122  1.21  0.  0.  0.
123  1.22  0.  0.  0.
124  1.23  0.  0.  0.
125  1.24  0.  0.  0.
126  1.25  0.  0.  0.
127  1.26  0.  0.  0.
128  1.27  0.  0.  0.
129  1.28  0.  0.  0.
130  1.29  0.  0.  0.
131  1.30  0.  0.  0.
132  1.31  0.  0.  0.
133  1.32  0.  0.  0.
134  1.33  0.  0.  0.
135  1.34  0.  0.  0.
136  1.35  0.  0.  0.
137  1.36  0.  0.  0.
138  1.37  0.  0.  0.
139  1.38  0.  0.  0.
140  1.39  0.  0.  0.
141  1.40  0.  0.  0.
142  1.41  0.  0.  0.
143  1.42  0.  0.  0.
144  1.43  0.  0.  0.
145  1.44  0.  0.  0.
146  1.45  0.  0.  0.
147  1.46  0.  0.  0.
148  1.47  0.  0.  0.
149  1.48  0.  0.  0.
150  1.49  0.  0.  0.
151  1.50  0.  0.  0.
152  1.51  0.  0.  0.
153  1.52  0.  0.  0.
154  1.53  0.  0.  0.
155  1.54  0.  0.  0.
156  1.55  0.  0.  0.
157  1.56  0.  0.  0.
158  1.57  0.  0.  0.
159  1.58  0.  0.  0.
160  1.59  0.  0.  0.
161  1.60  0.  0.  0.
162  1.61  0.  0.  0.
163  1.62  0.  0.  0.
164  1.63  0.  0.  0.
165  1.64  0.  0.  0.
166  1.65  0.  0.  0.
167  1.66  0.  0.  0.
168  1.67  0.  0.  0.
169  1.68  0.  0.  0.
170  1.69  0.  0.  0.
171  1.70  0.  0.  0.
172  1.71  0.  0.  0.
173  1.72  0.  0.  0.
174  1.73  0.  0.  0.
175  1.74  0.  0.  0.
176  1.75  0.  0.  0.
177  1.76  0.  0.  0.
178  1.77  0.  0.  0.
179  1.78  0.  0.  0.
180  1.79  0.  0.  0.
181  1.80  0.  0.  0.
182  1.81  0.  0.  0.
183  1.82  0.  0.  0.
184  1.83  0.  0.  0.
185  1.84  0.  0.  0.
186  1.85  0.  0.  0.
187  1.86  0.  0.  0.
188  1.87  0.  0.  0.
189  1.88  0.  0.  0.
190  1.89  0.  0.  0.
191  1.90  0.  0.  0.
192  1.91  0.  0.  0.
193  1.92  0.  0.  0.
194  1.93  0.  0.  0.
195  1.94  0.  0.  0.
196  1.95  0.  0.  0.
197  1.96  0.  0.  0.
198  1.97  0.  0.  0.
199  1.98  0.  0.  0.
200  1.99  0.  0.  0.
201  2.00  0.  0.  0.
202  2.01  0.  0.  0.
203  2.02  0.  0.  0.
204  2.03  0.  0.  0.
205  2.04  0.  0.  0.
206  2.05  0.  0.  0.
207  2.06  0.  0.  0.
208  2.07  0.  0.  0.
209  2.08  0.  0.  0.
210  2.09  0.  0.  0.
211  2.10  0.  0.  0.
212  2.11  0.  0.  0.
213  2.12  0.  0.  0.
214  2.13  0.  0.  0.
215  2.14  0.  0.  0.
216  2.15  0.  0.  0.
217  2.16  0.  0.  0.
218  2.17  0.  0.  0.
219  2.18  0.  0.  0.
220  2.19  0.  0.  0.
221  2.20  0.  0.  0.
222  2.21  0.  0.  0.
223  2.22  0.  0.  0.
224  2.23  0.  0.  0.
225  2.24  0.  0.  0.
226  2.25  0.  0.  0.
227  2.26  0.  0.  0.
228  2.27  0.  0.  0.
229  2.28  0.  0.  0.
230  2.29  0.  0.  0.
231  2.30  0.  0.  0.
232  2.31  0.  0.  0.
233  2.32  0.  0.  0.
234  2.33  0.  0.  0.
235  2.34  0.  0.  0.
236  2.35  0.  0.  0.
237  2.36  0.  0.  0.
238  2.37  0.  0.  0.
239  2.38  0.  0.  0.
240  2.39  0.  0.  0.
241  2.40  0.  0.  0.
242  2.41  0.  0.  0.
243  2.42  0.  0.  0.
244  2.43  0.  0.  0.
245  2.44  0.  0.  0.
246  2.45  0.  0.  0.
247  2.46  0.  0.  0.
248  2.47  0.  0.  0.
249  2.48  0.  0.  0.
250  2.49  0.  0.  0.
251  2.50  0.  0.  0.
252  2.51  0.  0.  0.
253  2.52  0.  0.  0.
254  2.53  0.  0.  0.
255  2.54  0.  0.  0.
256  2.55  0.  0.  0.
257  2.56  0.  0.  0.
258  2.57  0.  0.  0.
259  2.58  0.  0.  0.
260  2.59  0.  0.  0.
261  2.60  0.  0.  0.
262  2.61  0.  0.  0.
263  2.62  0.  0.  0.
264  2.63  0.  0.  0.
265  2.64  0.  0.  0.
266  2.65  0.  0.  0.
267  2.66  0.  0.  0.
268  2.67  0.  0.  0.
269  2.68  0.  0.  0.
270  2.69  0.  0.  0.
271  2.70  0.  0.  0.
272  2.71  0.  0.  0.
273  2.72  0.  0.  0.
274  2.73  0.  0.  0.
275  2.74  0.  0.  0.
276  2.75  0.  0.  0.
277  2.76  0.  0.  0.
278  2.77  0.  0.  0.
279  2.78  0.  0.  0.
280  2.79  0.  0.  0.
281  2.80  0.  0.  0.
282  2.81  0.  0.  0.
283  2.82  0.  0.  0.
284  2.83  0.  0.  0.
285  2.84  0.  0.  0.
286  2.85  0.  0.  0.
287  2.86  0.  0.  0.
288  2.87  0.  0.  0.
289  2.88  0.  0.  0.
290  2.89  0.  0.  0.
291  2.90  0.  0.  0.
292  2.91  0.  0.  0.
293  2.92  0.  0.  0.
294  2.93  0.  0.  0.
295  2.94  0.  0.  0.
296  2.95  0.  0.  0.
297  2.96  0.  0.  0.
298  2.97  0.  0.  0.
299  2.98  0.  0.  0.
300  2.99  0.  0.  0.
301  3.00  0.  0.  0.
302  3.01  0.  0.  0.
303  3.02  0.  0.  0.
304  3.03  0.  0.  0.
305  3.04  0.  0.  0.
306  3.05  0.  0.  0.
307  3.06  0.  0.  0.
308  3.07  0.  0.  0.
309  3.08  0.  0.  0.
310  3.09  0.  0.  0.
311  3.10  0.  0.  0.
312  3.11  0.  0.  0.
313  3.12  0.  0.  0.
314  3.13  0.  0.  0.
315  3.14  0.  0.  0.
316  3.15  0.  0.  0.
317  3.16  0.  0.  0.
318  3.17  0.  0.  0.
319  3.18  0.  0.  0.
320  3.19  0.  0.  0.
321  3.20  0.  0.  0.
322  3.21  0.  0.  0.
323  3.22  0.  0.  0.
324  3.23  0.  0.  0.
325  3.24  0.  0.  0.
326  3.25  0.  0.  0.
327  3.26  0.  0.  0.
328  3.27  0.  0.  0.
329  3.28  0.  0.  0.
330  3.29  0.  0.  0.
331  3.30  0.  0.  0.
332  3.31  0.  0.  0.
333  3.32  0.  0.  0.
334  3.33  0.  0.  0.
335  3.34  0.  0.  0.
336  3.35  0.  0.  0.
337  3.36  0.  0.  0.
338  3.37  0.  0.  0.
339  3.38  0.  0.  0.
340  3.39  0.  0.  0.
341  3.40  0.  0.  0.
342  3.41  0.  0.  0.
343  3.42  0.  0.  0.
344  3.43  0.  0.  0.
345  3.44  0.  0.  0.
346  3.45  0.  0.  0.
347  3.46  0.  0.  0.
348  3.47  0.  0.  0.
349  3.48  0.  0.  0.
350  3.49  0.  0.  0.
351  3.50  0.  0.  0.
352  3.51  0.  0.  0.
353  3.52  0.  0.  0.
354  3.53  0.  0.  0.
355  3.54  0.  0.  0.
356  3.55  0.  0.  0.
357  3.56  0.  0.  0.
358  3.57  0.  0.  0.
359  3.58  0.  0.  0.
360  3.59  0.  0.  0.
361  3.60  0.  0.  0.
362  3.61  0.  0.  0.
363  3.62  0.  0.  0.
364  3.63  0.  0.  0.
365  3.64  0.  0.  0.
366  3.65  0.  0.  0.
367  3.66  0.  0.  0.
368  3.67  0.  0.  0.
369  3.68  0.  0.  0.
370  3.69  0.  0.  0.
371  3.70  0.  0.  0.
372  3.71  0.  0.  0.
373  3.72  0.  0.  0.
374  3.73  0.  0.  0.
375  3.74  0.  0.  0.
376  3.75  0.  0.  0.
377  3.76  0.  0.  0.
378  3.77  0.  0.  0.
379  3.78  0.  0.  0.
380  3.79  0.  0.  0.
381  3.80  0.  0.  0.
382  3.81  0.  0.  0.
383  3.82  0.  0.  0.
384  3.83  0.  0.  0.
385  3.84  0.  0.  0.
386  3.85  0.  0.  0.
387  3.86  0.  0.  0.
388  3.87  0.  0.  0.
389  3.88  0.  0.  0.
390  3.89  0.  0.  0.
391  3.90  0.  0.  0.
392  3.91  0.  0.  0.
393  3.92  0.  0.  0.
394  3.93  0.  0.  0.
395  3.94  0.  0.  0.
396  3.95  0.  0.  0.
397  3.96  0.  0.  0.
398  3.97  0.  0.  0.
399  3.98  0.  0.  0.
400  3.99  0.  0.  0.
401  4.00  0.  0.  0.
402  4.01  0.  0.  0.
403  4.02  0.  0.  0.
404  4.03  0.  0.  0.
405  4.04  0.  0.  0.
406  4.05  0.  0.  0.
407  4.06  0.  0.  0.
408  4.07  0.  0.  0.
409  4.08  0.  0.  0.
410  4.09  0.  0.  0.
411  4.10  0.  0.  0.
412  4.11  0.  0.  0.
413  4.12  0.  0.  0.
414  4.13  0.  0.  0.
415  4.14  0.  0.  0.
416  4.15  0.  0.  0.
417  4.16  0.  0.  0.
418  4.17  0.  0.  0.
419  4.18  0.  0.  0.
420  4.19  0.  0.  0.
421  4.20  0.  0.  0.
422  4.21  0.  0.  0.
423  4.22  0.  0.  0.
424  4.23  0.  0.  0.
425  4.24  0.  0.  0.
426  4.25  0.  0.  0.
427  4.26  0.  0.  0.
428  4.27  0.  0.  0.
429  4.28  0.  0.  0.
430  4.29  0.  0.  0.
431  4.30  0.  0.  0.
432  4.31  0.  0.  0.
433  4.32  0.  0.  0.
434  4.33  0.  0.  0.
435  4.34  0.  0.  0.
436  4.35  0.  0.  0.
437  4.36  0.  0.  0.
438  4.37  0.  0.  0.
439  4.38  0.  0.  0.
440  4.39  0.  0.  0.
441  4.40  0.  0.  0.
442  4.41  0.  0.  0.
443  4.42  0.  0.  0.
444  4.43  0.  0.  0.
445  4.44  0.  0.  0.
446  4.45  0.  0.  0.
447  4.46  0.  0.  0.
448  4.47  0.  0.  0.
449  4.48  0.  0.  0.
450  4.49  0.  0.  0.
451  4.50  0.  0.  0.
452  4.51  0.  0.  0.
453  4.52  0.  0.  0.
454  4.53  0.  0.  0.
455  4.54  0.  0.  0.
456  4.55  0.  0.  0.
457  4.56  0.  0.  0.
458  4.57  0.  0.  0.
459  4.58  0.  0.  0.
460  4.59  0.  0.  0.
461  4.60  0.  0.  0.
462  4.61  0.  0.  0.
463  4.62  0.  0.  0.
464  4.63  0.  0.  0.
465  4.64  0.  0.  0.
466  4.65  0.  0.  0.
467  4.66  0.  0.  0.
468  4.67  0.  0.  0.
469  4.68  0.  0.  0.
470  4.69  0.  0.  0.
471  4.70  0.  0.  0.
472  4.71  0.  0.  0.
473  4.72  0.  0.  0.
474  4.73  0.  0.  0.
475  4.74  0.  0.  0.
476  4.75  0.  0.  0.
477  4.76  0.  0.  0.
478  4.77  0.  0.  0.
479  4.78  0.  0.  0.
480  4.79  0.  0.  0.
481  4.80  0.  0.  0.
482  4.81  0.  0.  0.
483  4.82  0.  0.  0.
484  4.83  0.  0.  0.
485  4.84  0.  0.  0.
486  4.85  0.  0.  0.
487  4.86  0.  0.  0.
488  4.87  0.  0.  0.
489  4.88  0.  0.  0.
490  4.89  0.  0.  0.
491  4.90  0.  0.  0.
492  4.91  0.  0.  0.
493  4.92  0.  0.  0.
494  4.93  0.  0.  0.
495  4.94  0.  0.  0.
496  4.95  0.  0.  0.
497  4.96  0.  0.  0.
498  4.97  0.  0.  0.
499  4.98  0.  0.  0.
500  4.99  0.  0.  0.
501  5.00  0.  0.  0.
502  5.01  0.  0.  0.
503  5.02  0.  0.  0.
504  5.03  0.  0.  0.
505  5.04  0.  0.  0.
506  5.05  0.  0.  0.
507  5.06  0.  0.  0.
508  5.07  0.  0.  0.
509  5.08  0.  0.  0.
510  5.09  0.  0.  0.
511  5.10  0.  0.  0.
512  5.11  0.  0.  0.
513  5.12  0.  0.  0.
514  5.13  0.  0.  0.
515  5.14  0.  0.  0.
516  5.15  0.  0.  0.
517  5.16  0.  0.  0.
518  5.17  0.  0.  0.
519  5.18  0.  0.  0.
520  5.19  0.  0.  0.
521  5.20  0.  0.  0.
522  5.21  0.  0.  0.
523  5.22  0.  0.  0.
524  5.23  0.  0.  0.
525  5.24  0.  0.  0.
526  5.25  0.  0.  0.
527  5.26  0.  0.  0.
528  5.27  0.  0.  0.
529  5.28  0.  0.  0.
530  5.29  0.  0.  0.
531  5.30  0.  0.  0.
532  5.31  0.  0.  0.
533  5.32  0.  0.  0.
534  5.33  0.  0.  0.
535  5.34  0.  0.  0.
536  5.35  0.  0.  0.
537  5.36  0.  0.  0.
538  5.37  0.  0.  0.
539  5.38  0.  0.  0.
540  5.39  0.  0.  0.
541  5.40  0.  0.  0.
542  5.41  0.  0.  0.
543  5.42  0.  0.  0.
544  5.43  0.  0.  0.
545  5.44  0.  0.  0.
546  5.45  0.  0.  0.
547  5.46  0.  0.  0.
548  5.47  0.  0.  0.
549  5.48  0.  0.  0.
550  5.49  0.  0.  0.
551  5.50  0.  0.  0.
552  5.51  0.  0.  0.
553  5.52  0.  0.  0.
554  5.53  0.  0.  0.
555  5.54  0.  0.  0.
556  5.55  0.  0.  0.
557  5.56  0.  0.  0.
558  5.57  0.  0.  0.
559  5.58  0.  0.  0.
560  5.59  0.  0.  0.
561  5.60  0.  0.  0.
562  5.61  0.  0.  0.
563  5.62  0.  0.  0.
564  5.63  0.  0.  0.
565  5.64  0.  0.  0.
566  5.65  0.  0.  0.
567  5.66  0.  0.  0.
568  5.67  0.  0.  0.
569  5.68  0.  0.  0.
570  5.69  0.  0.  0.
571  5.70  0.  0.  0.
572  5.71  0.  0.  0.
573  5.72  0.  0.  0.
574  5.73  0.  0.  0.
575  5.74  0.  0.  0.
576  5.75  0.  0.  0.
577  5.76  0.  0.  0.
578  5.77  0.  0.  0.
579  5.78  0.  0.  0.
580  5.79  0.  0.  0.
581  5.80  0.  0.  0.
582  5.81  0.  0.  0.
583  5.82  0.  0.  0.
584  5.83  0.  0.  0.
585  5.84  0.  0.  0.
586  5.85  0.  0.  0.
587  5.86  0.  0.  0.
588  5.87  0.  0.  0.
589  5.88  0.  0.  0.
590  5.89  0.  0.  0.
591  5.90  0.  0.  0.
592  5.91  0.  0.  0.
593  5.92  0.  0.  0.
594  5.93  0.  0.  0.
595  5.94  0.  0.  0.
596  5.95  0.  0.  0.
597  5.96  0.  0.  0.
598  5.97  0.  0.  0.
599  5.98  0.  0.  0.
600  5.99  0.  0.  0.
1                         3.9827853251631E+00 -3.9610085633471E+00
1  0.0000000000000E+00 -4.9947609437329E-08  9.1682934577619E-09
2  1.0000000000000E-02  3.7134999498986E-03  1.9680127338313E-03
3  2.0000000000000E-02  1.4833440671274E-02  7.8574506156143E-03
4  3.0000000000000E-02  3.3297574474429E-02  1.7624740535208E-02
5  4.0000000000000E-02  5.9000292918946E-02  3.1198013788169E-02
6  5.0000000000000E-02  9.1789967097750E-02  4.8478213798752E-02
7  6.0000000000000E-02  1.3146548501321E-01  6.9340603768347E-02
8  7.0000000000000E-02  1.7777223223573E-01  9.3636632982047E-02
9  8.0000000000000E-02  2.3039781198305E-01  1.2119611133777E-01
10  9.0000000000000E-02  2.8896783666120E-01  1.5182963431289E-01
11  1.0000000000000E-01  3.5304214296528E-01  1.8533119529980E-01
12  1.1000000000000E-01  4.2211178574941E-01  2.2148091918894E-01
13  1.2000000000000E-01  4.9559715169184E-01  2.6004785032908E-01
14  1.3000000000000E-01  5.7284750272149E-01  3.0079272953344E-01
15  1.4000000000000E-01  6.5314221240791E-01  3.4347069851734E-01
16  1.5000000000000E-01  7.3569389792049E-01  3.8783387585628E-01
17  1.6000000000000E-01  8.1965357823382E-01  4.3363375597114E-01
18  1.7000000000000E-01  9.0411790900822E-01  4.8062339144695E-01
19  1.8000000000000E-01  9.8813845941150E-01  5.2855932878744E-01
20  1.9000000000000E-01  1.0707329097162E+00  5.7720327808305E-01
21  2.0000000000000E-01  1.1508979645358E+00  6.2632350759170E-01
22  2.1000000000000E-01  1.2276236987144E+00  6.7569596446968E-01
23  2.2000000000000E-01  1.2999089845763E+00  7.2510513243589E-01
24  2.3000000000000E-01  1.3667775935271E+00  7.7434464563571E-01
25  2.4000000000000E-01  1.4272945244032E+00  8.2321768507402E-01
26  2.5000000000000E-01  1.4805820874090E+00  8.7153718945966E-01
27  2.6000000000000E-01  1.5258352671591E+00  9.1912591597154E-01
28  2.7000000000000E-01  1.5623359017106E+00  9.6581638822782E-01
29  2.8000000000000E-01  1.5894652461833E+00  1.0114507686090E+00
30  2.9000000000000E-01  1.6067145385156E+00  1.0558806901319E+00
31  3.0000000000000E-01  1.6136932492598E+00  1.0989670794535E+00
32  3.1000000000000E-01  1.6101347745800E+00  1.1405799975375E+00
33  3.2000000000000E-01  1.5958994187424E+00  1.1805985183304E+00
34  3.3000000000000E-01  1.5709746059055E+00  1.2189106588164E+00
35  3.4000000000000E-01  1.5354723571637E+00  1.2554133664224E+00
36  3.5000000000000E-01  1.4896241636844E+00  1.2900125623179E+00
37  3.6000000000000E-01  1.4337734765530E+00  1.3226232320880E+00
38  3.7000000000000E-01  1.3683661149152E+00  1.3531695489175E+00
39  3.8000000000000E-01  1.2939389628793E+00  1.3815850091495E+00
40  3.9000000000000E-01  1.2111073795444E+00  1.4078125561438E+00
41  4.0000000000000E-01  1.1205517832309E+00  1.4318046659874E+00
42  4.1000000000000E-01  1.0230038889480E+00  1.4535233679391E+00
43  4.2000000000000E-01  9.1923307656847E-01  1.4729401735827E+00
44  4.3000000000000E-01  8.1003334611279E-01  1.4900358915036E+00
45  4.4000000000000E-01  6.9621127679959E-01  1.5048003087795E+00
46  4.5000000000000E-01  5.7857534970687E-01  1.5172317264994E+00
47  4.6000000000000E-01  4.5792692233329E-01  1.5273363436450E+00
48  4.7000000000000E-01  3.3505306000353E-01  1.5351274916450E+00
49  4.8000000000000E-01  2.1072133739495E-01  1.5406247303938E+00
50  4.9000000000000E-01  8.5676627321162E-02  1.5438528250857E+00
51  5.0000000000000E-01 -3.9360202640929E-02  1.5448406314436E+00
52  5.1000000000000E-01 -1.6369185791903E-01  1.5436199243929E+00
53  5.2000000000000E-01 -2.8664270642356E-01  1.5402242115376E+00
54  5.3000000000000E-01 -4.0755572062766E-01  1.5346875775902E+00
55  5.4000000000000E-01 -5.2578866189139E-01  1.5270436088595E+00
56  5.5000000000000E-01 -6.4070993784008E-01  1.5173244477935E+00
57  5.6000000000000E-01 -7.5169458512128E-01  1.5055600262377E+00
58  5.7000000000000E-01 -8.5812083044208E-01  1.4917775224404E+00
59  5.8000000000000E-01 -9.5936766198813E-01  1.4760010809538E+00
60  5.9000000000000E-01 -1.0548138015902E+00  1.4582518265635E+00
61  6.0000000000000E-01 -1.1438384066540E+00  1.4385481934656E+00
62  6.1000000000000E-01 -1.2258237520653E+00  1.4169065794141E+00
63  6.2000000000000E-01 -1.3001600489622E+00  1.3933423218773E+00
64  6.3000000000000E-01 -1.3662524530268E+00  1.3678709798481E+00
65  6.4000000000000E-01 -1.4235302039424E+00  1.3405098913479E+00
66  6.5000000000000E-01 -1.4714577244097E+00  1.3112799634166E+00
67  6.6000000000000E-01 -1.5095473963575E+00  1.2802076390309E+00
68  6.7000000000000E-01 -1.5373736284952E+00  1.2473269745018E+00
69  6.8000000000000E-01 -1.5545877377293E+00  1.2126817519735E+00
70  6.9000000000000E-01 -1.5609330914642E+00  1.1763275451421E+00
71  7.0000000000000E-01 -1.5562599021447E+00  1.1383336526059E+00
72  7.1000000000000E-01 -1.5405390326067E+00  1.0987848126494E+00
73  7.2000000000000E-01 -1.5138741630599E+00  1.0577826159091E+00
74  7.3000000000000E-01 -1.4765116890971E+00  1.0154465383364E+00
75  7.4000000000000E-01 -1.4288477652114E+00  9.7191452608873E-01
76  7.5000000000000E-01 -1.3714319790739E+00  9.2734307623120E-01
77  7.6000000000000E-01 -1.3049672363850E+00  8.8190677209733E-01
78  7.7000000000000E-01 -1.2303055515348E+00  8.3579724938023E-01
79  7.8000000000000E-01 -1.1484395717511E+00  7.8922158795095E-01
80  7.9000000000000E-01 -1.0604898072317E+00  7.4240014438107E-01
81  8.0000000000000E-01 -9.6768769164358E-01  6.9556386046682E-01
82  8.1000000000000E-01 -8.7135475057723E-01  6.4895110295683E-01
83  8.2000000000000E-01 -7.7287830408385E-01  6.0280410840287E-01
84  8.3000000000000E-01 -6.7368426729119E-01  5.5736512382698E-01
85  8.4000000000000E-01 -5.7520773452792E-01  5.1287234801858E-01
86  8.5000000000000E-01 -4.7886213208230E-01  4.6955578910313E-01
87  8.6000000000000E-01 -3.8600779807367E-01  4.2763316102602E-01
88  8.7000000000000E-01 -2.9792089121174E-01  3.8730594436137E-01
89  8.8000000000000E-01 -2.1576354082348E-01  3.4875573512368E-01
90  8.9000000000000E-01 -1.4055612700926E-01  3.1214099892978E-01
91  9.0000000000000E-01 -7.3152522023795E-02  2.7759433700069E-01
92  9.1000000000000E-01 -1.4219033178596E-02  2.4522035535372E-01
93  9.2000000000000E-01  3.5782333715271E-02  2.1509420952925E-01
94  9.3000000000000E-01  7.6605819282882E-02  1.8726087490282E-01
95  9.4000000000000E-01  1.0822876245850E-01  1.6173516776520E-01
96  9.5000000000000E-01  1.3085324320193E-01  1.3850251575686E-01
97  9.6000000000000E-01  1.4490259437318E-01  1.1752044883267E-01
98  9.7000000000000E-01  1.5101305725086E-01  9.8720754698987E-02
99  9.8000000000000E-01  1.5002104567404E-01  8.2012216603466E-02
100  9.9000000000000E-01  1.4294667099747E-01  6.7283827089893E-02
101  1.0000000000000E+00  1.3097425853620E-01  5.4408353341646E-02
102  1.0100000000000E+00  1.1542466903897E-01  4.3246300339434E-02
103  1.0200000000000E+00  9.7660706371684E-02  3.3652443615670E-02
104  1.0300000000000E+00  7.8982314774010E-02  2.5484421859430E-02
105  1.0400000000000E+00  6.0581276510985E-02  1.8610139379097E-02
106  1.0500000000000E+00  4.3477456889727E-02  1.2917797838952E-02
107  1.0600000000000E+00  2.8406565766235E-02  8.3297410653898E-03
108  1.0700000000000E+00  1.6135198901165E-02  4.7666277708695E-03
109  1.0800000000000E+00  7.1951128162813E-03  2.1850651715994E-03
110  1.0900000000000E+00  1.8230942948586E-03  5.8043179881411E-04
111  1.1000000000000E+00  1.5319193510420E-05  5.2290991629029E-06
112  1.1100000000000E+00  1.0467020554534E-05  3.5114796414287E-06
113  1.1200000000000E+00 -3.1069291556954E-07 -1.0146065317044E-07
114  1.13  0.  0.
115  1.14  0.  0.
116  1.15  0.  0.
117  1.16  0.  0.
118  1.17  0.  0.
119  1.18  0.  0.
120  1.19  0.  0.
121  1.20  0.  0.
122  1.21  0.  0.
123  1.22  0.  0.
124  1.23  0.  0.
125  1.24  0.  0.
126  1.25  0.  0.
127  1.26  0.  0.
128  1.27  0.  0.
129  1.28  0.  0.
130  1.29  0.  0.
131  1.30  0.  0.
132  1.31  0.  0.
133  1.32  0.  0.
134  1.33  0.  0.
135  1.34  0.  0.
136  1.35  0.  0.
137  1.36  0.  0.
138  1.37  0.  0.
139  1.38  0.  0.
140  1.39  0.  0.
141  1.40  0.  0.
142  1.41  0.  0.
143  1.42  0.  0.
144  1.43  0.  0.
145  1.44  0.  0.
146  1.45  0.  0.
147  1.46  0.  0.
148  1.47  0.  0.
149  1.48  0.  0.
150  1.49  0.  0.
151  1.50  0.  0.
152  1.51  0.  0.
153  1.52  0.  0.
154  1.53  0.  0.
155  1.54  0.  0.
156  1.55  0.  0.
157  1.56  0.  0.
158  1.57  0.  0.
159  1.58  0.  0.
160  1.59  0.  0.
161  1.60  0.  0.
162  1.61  0.  0.
163  1.62  0.  0.
164  1.63  0.  0.
165  1.64  0.  0.
166  1.65  0.  0.
167  1.66  0.  0.
168  1.67  0.  0.
169  1.68  0.  0.
170  1.69  0.  0.
171  1.70  0.  0.
172  1.71  0.  0.
173  1.72  0.  0.
174  1.73  0.  0.
175  1.74  0.  0.
176  1.75  0.  0.
177  1.76  0.  0.
178  1.77  0.  0.
179  1.78  0.  0.
180  1.79  0.  0.
181  1.80  0.  0.
182  1.81  0.  0.
183  1.82  0.  0.
184  1.83  0.  0.
185  1.84  0.  0.
186  1.85  0.  0.
187  1.86  0.  0.
188  1.87  0.  0.
189  1.88  0.  0.
190  1.89  0.  0.
191  1.90  0.  0.
192  1.91  0.  0.
193  1.92  0.  0.
194  1.93  0.  0.
195  1.94  0.  0.
196  1.95  0.  0.
197  1.96  0.  0.