Rf    ONCVPSP-4.0.1  r_core=   1.10045   1.10045   1.10045   1.20376
104.0000     44.0000      231012    zatom,zion,pspd
8   -1012   3     4   600     0    pspcod,pspxc,lmax,lloc,mmax,r2well
5.99000000  3.50000000  0.00000000    rchrg fchrg qchrg
3     4     3     2    nproj
3     1           extension_switch
4     4     3    nprojso
0                         1.9404910522380E+01 -4.7858079542190E+00  1.7581325574212E+00
1  0.0000000000000E+00 -7.7163604617070E-08 -9.4005291328969E-09 -2.5271426262741E-07
2  1.0000000000000E-02  1.7969185239012E-01  4.8645540703086E-02  6.4596590720401E-02
3  2.0000000000000E-02  3.5770172389090E-01  9.7211361991407E-02  1.2733423129760E-01
4  3.0000000000000E-02  5.3237296880525E-01  1.4561925637397E-01  1.8640750804731E-01
5  4.0000000000000E-02  7.0209897831052E-01  1.9379397670549E-01  2.4011623256231E-01
6  5.0000000000000E-02  8.6534663636945E-01  2.4166456021489E-01  2.8691350513204E-01
7  6.0000000000000E-02  1.0206779593045E+00  2.8916547236227E-01  3.2544851202445E-01
8  7.0000000000000E-02  1.1667694090399E+00  3.3623752215470E-01  3.5460261465883E-01
9  8.0000000000000E-02  1.3024284471793E+00  3.8282850995175E-01  3.7351754141285E-01
10  9.0000000000000E-02  1.4266069879461E+00  4.2889357980052E-01  3.8161478955616E-01
11  1.0000000000000E-01  1.5384115091728E+00  4.7439526050917E-01  3.7860567397416E-01
12  1.1000000000000E-01  1.6371096882119E+00  5.1930319250093E-01  3.6449180808035E-01
13  1.2000000000000E-01  1.7221335398767E+00  5.6359355046551E-01  3.3955615703976E-01
14  1.3000000000000E-01  1.7930791422549E+00  6.0724818441550E-01  3.0434515037454E-01
15  1.4000000000000E-01  1.8497031395173E+00  6.5025351344944E-01  2.5964266680407E-01
16  1.5000000000000E-01  1.8919163049722E+00  6.9259921684970E-01  2.0643699628453E-01
17  1.6000000000000E-01  1.9197745292768E+00  7.3427677568287E-01  1.4588213154643E-01
18  1.7000000000000E-01  1.9334676651173E+00  7.7527792448185E-01  7.9254934686588E-02
19  1.8000000000000E-01  1.9333067086334E+00  8.1559307661334E-01  7.9098564412438E-03
20  1.9000000000000E-01  1.9197098279141E+00  8.5520978841341E-01 -6.6767048030353E-02
21  2.0000000000000E-01  1.8931877593007E+00  8.9411132605037E-01 -1.4340306474138E-01
22  2.1000000000000E-01  1.8543290830312E+00  9.3227539539455E-01 -2.2068105478117E-01
23  2.2000000000000E-01  1.8037858617510E+00  9.6967308909166E-01 -2.9737743656609E-01
24  2.3000000000000E-01  1.7422600800888E+00  1.0062680967924E+00 -3.7239456794739E-01
25  2.4000000000000E-01  1.6704912630163E+00  1.0420162144202E+00 -4.4478642155976E-01
26  2.5000000000000E-01  1.5892455777741E+00  1.0768651768607E+00 -5.1377672922035E-01
27  2.6000000000000E-01  1.4993066418928E+00  1.1107548259913E+00 -5.7876908281654E-01
28  2.7000000000000E-01  1.4014681717152E+00  1.1436176130250E+00 -6.3934880756359E-01
29  2.8000000000000E-01  1.2965285154527E+00  1.1753794212373E+00 -6.9527675583275E-01
30  2.9000000000000E-01  1.1852870258238E+00  1.2059606827758E+00 -7.4647549299196E-01
31  3.0000000000000E-01  1.0685421432402E+00  1.2352777519051E+00 -7.9300864835058E-01
32  3.1000000000000E-01  9.4709098460616E-01  1.2632444871568E+00 -8.3505447282991E-01
33  3.2000000000000E-01  8.2173016795186E-01  1.2897739868043E+00 -8.7287487022691E-01
34  3.3000000000000E-01  6.9325755174361E-01  1.3147804161857E+00 -9.0678134250461E-01
35  3.4000000000000E-01  5.6247453163320E-01  1.3381808618567E+00 -9.3709940512194E-01
36  3.5000000000000E-01  4.3018851782229E-01  1.3598971465127E+00 -9.6413308195581E-01
37  3.6000000000000E-01  2.9721521365854E-01  1.3798575400928E+00 -9.8813107926786E-01
38  3.7000000000000E-01  1.6438033040065E-01  1.3979983064040E+00 -1.0092561652502E+00
39  3.8000000000000E-01  3.2520403481257E-02  1.4142650308217E+00 -1.0275591491685E+00
40  3.9000000000000E-01 -9.7517579368182E-02  1.4286136828813E+00 -1.0429586674733E+00
41  4.0000000000000E-01 -2.2487797006479E-01  1.4410113775511E+00 -1.0552277509133E+00
42  4.1000000000000E-01 -3.4869983621085E-01  1.4514368102837E+00 -1.0639878758299E+00
43  4.2000000000000E-01 -4.6812200991444E-01  1.4598803531434E+00 -1.0687109049158E+00
44  4.3000000000000E-01 -5.8228981842603E-01  1.4663438119405E+00 -1.0687290091801E+00
45  4.4000000000000E-01 -6.9036342481932E-01  1.4708398568853E+00 -1.0632523455853E+00
46  4.5000000000000E-01 -7.9152762819553E-01  1.4733911513402E+00 -1.0513939557029E+00
47  4.6000000000000E-01 -8.8500289929015E-01  1.4740292143475E+00 -1.0322010613053E+00
48  4.7000000000000E-01 -9.7005736176275E-01  1.4727930623288E+00 -1.0046916737441E+00
49  4.8000000000000E-01 -1.0460193743798E+00  1.4697276833489E+00 -9.6789521473625E-01
50  4.9000000000000E-01 -1.1122903268587E+00  1.4648824033085E+00 -9.2089567471158E-01
51  5.0000000000000E-01 -1.1683572339334E+00  1.4583092071896E+00 -8.6287571729577E-01
52  5.1000000000000E-01 -1.2138046992884E+00  1.4500610798729E+00 -7.9316007890546E-01
53  5.2000000000000E-01 -1.2483258238701E+00  1.4401904300677E+00 -7.1125661279919E-01
54  5.3000000000000E-01 -1.2717316516171E+00  1.4287476575683E+00 -6.1689338704873E-01
55  5.4000000000000E-01 -1.2839587791805E+00  1.4157799185299E+00 -5.1005036342275E-01
56  5.5000000000000E-01 -1.2850748035059E+00  1.4013301359406E+00 -3.9098435473264E-01
57  5.6000000000000E-01 -1.2752813405283E+00  1.3854362932524E+00 -2.6024617554900E-01
58  5.7000000000000E-01 -1.2549144175541E+00  1.3681310385548E+00 -1.1868915752013E-01
59  5.8000000000000E-01 -1.2244421187250E+00  1.3494416151296E+00  3.2531513324727E-02
60  5.9000000000000E-01 -1.1844594445697E+00  1.3293901221263E+00  1.9196887404336E-01
61  6.0000000000000E-01 -1.1356804302156E+00  1.3079940968922E+00  3.5790359892453E-01
62  6.1000000000000E-01 -1.0789276494688E+00  1.2852673986075E+00  5.2837235930564E-01
63  6.2000000000000E-01 -1.0151193108724E+00  1.2612213617448E+00  7.0120443788542E-01
64  6.3000000000000E-01 -9.4525422435042E-01  1.2358661778824E+00  8.7406562915708E-01
65  6.4000000000000E-01 -8.7039498075635E-01  1.2092124559003E+00  1.0445082127344E+00
66  6.5000000000000E-01 -7.9164973948857E-01  1.1812729038760E+00  1.2100255820137E+00
67  6.6000000000000E-01 -7.1015305965350E-01  1.1520640712962E+00  1.3681099535142E+00
68  6.7000000000000E-01 -6.2704623682806E-01  1.1216080876700E+00  1.5163114774123E+00
69  6.8000000000000E-01 -5.4345761957466E-01  1.0899343333494E+00  1.6522970204253E+00
70  6.9000000000000E-01 -4.6048337726591E-01  1.0570809803256E+00  1.7739068995963E+00
71  7.0000000000000E-01 -3.7916917376989E-01  1.0230963449073E+00  1.8792079089990E+00
72  7.1000000000000E-01 -3.0049317089600E-01  9.8804000032793E-01  1.9665410983605E+00
73  7.2000000000000E-01 -2.2535074244154E-01  9.5198360526855E-01  2.0345629286578E+00
74  7.3000000000000E-01 -1.5454122583065E-01  9.1501141370887E-01  2.0822786388966E+00
75  7.4000000000000E-01 -8.8756975697236E-02  8.7722044212061E-01  2.1090669029883E+00
76  7.5000000000000E-01 -2.8574914576625E-02  8.3872028139148E-01  2.1146951272925E+00
77  7.6000000000000E-01  2.5549297407915E-02  7.9963255262637E-01  2.0993250284451E+00
78  7.7000000000000E-01  7.3284426779443E-02  7.6009001768682E-01  2.0635084274235E+00
79  7.8000000000000E-01  1.1442419151650E-01  7.2023536658592E-01  2.0081734891098E+00
80  7.9000000000000E-01  1.4888524323993E-01  6.8021971424896E-01  1.9346019166843E+00
81  8.0000000000000E-01  1.7670276774875E-01  6.4020084830394E-01  1.8443978672517E+00
82  8.1000000000000E-01  1.9802392090238E-01  6.0034127714542E-01  1.7394495801757E+00
83  8.2000000000000E-01  2.1309936285241E-01  5.6080613323371E-01  1.6218848947513E+00
84  8.3000000000000E-01  2.2227318807913E-01  5.2176099022518E-01  1.4940219724489E+00
85  8.4000000000000E-01  2.2597157044781E-01  4.8336965391978E-01  1.3583166259294E+00
86  8.5000000000000E-01  2.2469045084641E-01  4.4579198607293E-01  1.2173076889561E+00
87  8.6000000000000E-01  2.1898258962677E-01  4.0918181684047E-01  1.0735618365986E+00
88  8.7000000000000E-01  2.0944428721133E-01  3.7368499607058E-01  9.2961918398745E-01
89  8.8000000000000E-01  1.9670204445416E-01  3.3943762596373E-01  7.8794085640755E-01
90  8.9000000000000E-01  1.8139939066946E-01  3.0656450799599E-01  6.5085953756791E-01
91  9.0000000000000E-01  1.6418405305339E-01  2.7517782571073E-01  5.2053377195088E-01
92  9.1000000000000E-01  1.4569557824205E-01  2.4537607235113E-01  3.9890652821299E-01
93  9.2000000000000E-01  1.2655344695067E-01  2.1724321869596E-01  2.8766823189889E-01
94  9.3000000000000E-01  1.0734564822082E-01  1.9084810227258E-01  1.8822415648495E-01
95  9.4000000000000E-01  8.8617603077171E-02  1.6624400477105E-01  1.0166573188240E-01
96  9.5000000000000E-01  7.0861250766696E-02  1.4346837039911E-01  2.8744999400088E-02
97  9.6000000000000E-01  5.4504036562543E-02  1.2254260451509E-01 -3.0148877946717E-02
98  9.7000000000000E-01  3.9897470675089E-02  1.0347187955791E-01 -7.5012440766945E-02
99  9.8000000000000E-01  2.7304865238666E-02  8.6244864427906E-02 -1.0625175540430E-01
100  9.9000000000000E-01  1.6887795941732E-02  7.0833283745540E-02 -1.2470915819171E-01
101  1.0000000000000E+00  8.6908445403536E-03  5.7191211512551E-02 -1.3169477290146E-01
102  1.0100000000000E+00  2.6280176401855E-03  4.5254346999886E-02 -1.2900536313615E-01
103  1.0200000000000E+00 -1.4883110859144E-03  3.4943309788144E-02 -1.1873216423536E-01
104  1.0300000000000E+00 -3.9017392457777E-03  2.6169853842690E-02 -1.0300958734773E-01
105  1.0400000000000E+00 -4.8972302879719E-03  1.8840928908705E-02 -8.3936014910430E-02
106  1.0500000000000E+00 -4.8028643834697E-03  1.2856764312466E-02 -6.3550579227299E-02
107  1.0600000000000E+00 -4.0093154558788E-03  8.0975302278073E-03 -4.3866275916775E-02
108  1.0700000000000E+00 -2.8086935251925E-03  4.4946696530328E-03 -2.6415291553710E-02
109  1.0800000000000E+00 -1.5128827998687E-03  1.9857120742052E-03 -1.2542707890327E-02
110  1.0900000000000E+00 -4.5711725738931E-04  5.0558129928795E-04 -3.4011622314231E-03
111  1.1000000000000E+00 -4.5986202334572E-06  4.3492233286819E-06 -3.0807128735624E-05
112  1.1100000000000E+00 -3.0344381828746E-06  2.9379304739933E-06 -2.0800760731391E-05
113  1.1200000000000E+00  8.3607360224323E-08 -8.6656354038030E-08  5.9764049211067E-07
114  1.13  0.  0.  0.
115  1.14  0.  0.  0.
116  1.15  0.  0.  0.
117  1.16  0.  0.  0.
118  1.17  0.  0.  0.
119  1.18  0.  0.  0.
120  1.19  0.  0.  0.
121  1.20  0.  0.  0.
122  1.21  0.  0.  0.
123  1.22  0.  0.  0.
124  1.23  0.  0.  0.
125  1.24  0.  0.  0.
126  1.25  0.  0.  0.
127  1.26  0.  0.  0.
128  1.27  0.  0.  0.
129  1.28  0.  0.  0.
130  1.29  0.  0.  0.
131  1.30  0.  0.  0.
132  1.31  0.  0.  0.
133  1.32  0.  0.  0.
134  1.33  0.  0.  0.
135  1.34  0.  0.  0.
136  1.35  0.  0.  0.
137  1.36  0.  0.  0.
138  1.37  0.  0.  0.
139  1.38  0.  0.  0.
140  1.39  0.  0.  0.
141  1.40  0.  0.  0.
142  1.41  0.  0.  0.
143  1.42  0.  0.  0.
144  1.43  0.  0.  0.
145  1.44  0.  0.  0.
146  1.45  0.  0.  0.
147  1.46  0.  0.  0.
148  1.47  0.  0.  0.
149  1.48  0.  0.  0.
150  1.49  0.  0.  0.
151  1.50  0.  0.  0.
152  1.51  0.  0.  0.
153  1.52  0.  0.  0.
154  1.53  0.  0.  0.
155  1.54  0.  0.  0.
156  1.55  0.  0.  0.
157  1.56  0.  0.  0.
158  1.57  0.  0.  0.
159  1.58  0.  0.  0.
160  1.59  0.  0.  0.
161  1.60  0.  0.  0.
162  1.61  0.  0.  0.
163  1.62  0.  0.  0.
164  1.63  0.  0.  0.
165  1.64  0.  0.  0.
166  1.65  0.  0.  0.
167  1.66  0.  0.  0.
168  1.67  0.  0.  0.
169  1.68  0.  0.  0.
170  1.69  0.  0.  0.
171  1.70  0.  0.  0.
172  1.71  0.  0.  0.
173  1.72  0.  0.  0.
174  1.73  0.  0.  0.
175  1.74  0.  0.  0.
176  1.75  0.  0.  0.
177  1.76  0.  0.  0.
178  1.77  0.  0.  0.
179  1.78  0.  0.  0.
180  1.79  0.  0.  0.
181  1.80  0.  0.  0.
182  1.81  0.  0.  0.
183  1.82  0.  0.  0.
184  1.83  0.  0.  0.
185  1.84  0.  0.  0.
186  1.85  0.  0.  0.
187  1.86  0.  0.  0.
188  1.87  0.  0.  0.
189  1.88  0.  0.  0.
190  1.89  0.  0.  0.
191  1.90  0.  0.  0.
192  1.91  0.  0.  0.
193  1.92  0.  0.  0.
194  1.93  0.  0.  0.
195  1.94  0.  0.  0.
196  1.95  0.  0.  0.
197  1.96  0.  0.  0.
198  1.97  0.  0.  0.
199  1.98  0.  0.  0.
200  1.99  0.  0.  0.
201  2.00  0.  0.  0.
202  2.01  0.  0.  0.
203  2.02  0.  0.  0.
204  2.03  0.  0.  0.
205  2.04  0.  0.  0.
206  2.05  0.  0.  0.
207  2.06  0.  0.  0.
208  2.07  0.  0.  0.
209  2.08  0.  0.  0.
210  2.09  0.  0.  0.
211  2.10  0.  0.  0.
212  2.11  0.  0.  0.
213  2.12  0.  0.  0.
214  2.13  0.  0.  0.
215  2.14  0.  0.  0.
216  2.15  0.  0.  0.
217  2.16  0.  0.  0.
218  2.17  0.  0.  0.
219  2.18  0.  0.  0.
220  2.19  0.  0.  0.
221  2.20  0.  0.  0.
222  2.21  0.  0.  0.
223  2.22  0.  0.  0.
224  2.23  0.  0.  0.
225  2.24  0.  0.  0.
226  2.25  0.  0.  0.
227  2.26  0.  0.  0.
228  2.27  0.  0.  0.
229  2.28  0.  0.  0.
230  2.29  0.  0.  0.
231  2.30  0.  0.  0.
232  2.31  0.  0.  0.
233  2.32  0.  0.  0.
234  2.33  0.  0.  0.
235  2.34  0.  0.  0.
236  2.35  0.  0.  0.
237  2.36  0.  0.  0.
238  2.37  0.  0.  0.
239  2.38  0.  0.  0.
240  2.39  0.  0.  0.
241  2.40  0.  0.  0.
242  2.41  0.  0.  0.
243  2.42  0.  0.  0.
244  2.43  0.  0.  0.
245  2.44  0.  0.  0.
246  2.45  0.  0.  0.
247  2.46  0.  0.  0.
248  2.47  0.  0.  0.
249  2.48  0.  0.  0.
250  2.49  0.  0.  0.
251  2.50  0.  0.  0.
252  2.51  0.  0.  0.
253  2.52  0.  0.  0.
254  2.53  0.  0.  0.
255  2.54  0.  0.  0.
256  2.55  0.  0.  0.
257  2.56  0.  0.  0.
258  2.57  0.  0.  0.
259  2.58  0.  0.  0.
260  2.59  0.  0.  0.
261  2.60  0.  0.  0.
262  2.61  0.  0.  0.
263  2.62  0.  0.  0.
264  2.63  0.  0.  0.
265  2.64  0.  0.  0.
266  2.65  0.  0.  0.
267  2.66  0.  0.  0.
268  2.67  0.  0.  0.
269  2.68  0.  0.  0.
270  2.69  0.  0.  0.
271  2.70  0.  0.  0.
272  2.71  0.  0.  0.
273  2.72  0.  0.  0.
274  2.73  0.  0.  0.
275  2.74  0.  0.  0.
276  2.75  0.  0.  0.
277  2.76  0.  0.  0.
278  2.77  0.  0.  0.
279  2.78  0.  0.  0.
280  2.79  0.  0.  0.
281  2.80  0.  0.  0.
282  2.81  0.  0.  0.
283  2.82  0.  0.  0.
284  2.83  0.  0.  0.
285  2.84  0.  0.  0.
286  2.85  0.  0.  0.
287  2.86  0.  0.  0.
288  2.87  0.  0.  0.
289  2.88  0.  0.  0.
290  2.89  0.  0.  0.
291  2.90  0.  0.  0.
292  2.91  0.  0.  0.
293  2.92  0.  0.  0.
294  2.93  0.  0.  0.
295  2.94  0.  0.  0.
296  2.95  0.  0.  0.
297  2.96  0.  0.  0.
298  2.97  0.  0.  0.
299  2.98  0.  0.  0.
300  2.99  0.  0.  0.
301  3.00  0.  0.  0.
302  3.01  0.  0.  0.
303  3.02  0.  0.  0.
304  3.03  0.  0.  0.
305  3.04  0.  0.  0.
306  3.05  0.  0.  0.
307  3.06  0.  0.  0.
308  3.07  0.  0.  0.
309  3.08  0.  0.  0.
310  3.09  0.  0.  0.
311  3.10  0.  0.  0.
312  3.11  0.  0.  0.
313  3.12  0.  0.  0.
314  3.13  0.  0.  0.
315  3.14  0.  0.  0.
316  3.15  0.  0.  0.
317  3.16  0.  0.  0.
318  3.17  0.  0.  0.
319  3.18  0.  0.  0.
320  3.19  0.  0.  0.
321  3.20  0.  0.  0.
322  3.21  0.  0.  0.
323  3.22  0.  0.  0.
324  3.23  0.  0.  0.
325  3.24  0.  0.  0.
326  3.25  0.  0.  0.
327  3.26  0.  0.  0.
328  3.27  0.  0.  0.
329  3.28  0.  0.  0.
330  3.29  0.  0.  0.
331  3.30  0.  0.  0.
332  3.31  0.  0.  0.
333  3.32  0.  0.  0.
334  3.33  0.  0.  0.
335  3.34  0.  0.  0.
336  3.35  0.  0.  0.
337  3.36  0.  0.  0.
338  3.37  0.  0.  0.
339  3.38  0.  0.  0.
340  3.39  0.  0.  0.
341  3.40  0.  0.  0.
342  3.41  0.  0.  0.
343  3.42  0.  0.  0.
344  3.43  0.  0.  0.
345  3.44  0.  0.  0.
346  3.45  0.  0.  0.
347  3.46  0.  0.  0.
348  3.47  0.  0.  0.
349  3.48  0.  0.  0.
350  3.49  0.  0.  0.
351  3.50  0.  0.  0.
352  3.51  0.  0.  0.
353  3.52  0.  0.  0.
354  3.53  0.  0.  0.
355  3.54  0.  0.  0.
356  3.55  0.  0.  0.
357  3.56  0.  0.  0.
358  3.57  0.  0.  0.
359  3.58  0.  0.  0.
360  3.59  0.  0.  0.
361  3.60  0.  0.  0.
362  3.61  0.  0.  0.
363  3.62  0.  0.  0.
364  3.63  0.  0.  0.
365  3.64  0.  0.  0.
366  3.65  0.  0.  0.
367  3.66  0.  0.  0.
368  3.67  0.  0.  0.
369  3.68  0.  0.  0.
370  3.69  0.  0.  0.
371  3.70  0.  0.  0.
372  3.71  0.  0.  0.
373  3.72  0.  0.  0.
374  3.73  0.  0.  0.
375  3.74  0.  0.  0.
376  3.75  0.  0.  0.
377  3.76  0.  0.  0.
378  3.77  0.  0.  0.
379  3.78  0.  0.  0.
380  3.79  0.  0.  0.
381  3.80  0.  0.  0.
382  3.81  0.  0.  0.
383  3.82  0.  0.  0.
384  3.83  0.  0.  0.
385  3.84  0.  0.  0.
386  3.85  0.  0.  0.
387  3.86  0.  0.  0.
388  3.87  0.  0.  0.
389  3.88  0.  0.  0.
390  3.89  0.  0.  0.
391  3.90  0.  0.  0.
392  3.91  0.  0.  0.
393  3.92  0.  0.  0.
394  3.93  0.  0.  0.
395  3.94  0.  0.  0.
396  3.95  0.  0.  0.
397  3.96  0.  0.  0.
398  3.97  0.  0.  0.
399  3.98  0.  0.  0.
400  3.99  0.  0.  0.
401  4.00  0.  0.  0.
402  4.01  0.  0.  0.
403  4.02  0.  0.  0.
404  4.03  0.  0.  0.
405  4.04  0.  0.  0.
406  4.05  0.  0.  0.
407  4.06  0.  0.  0.
408  4.07  0.  0.  0.
409  4.08  0.  0.  0.
410  4.09  0.  0.  0.
411  4.10  0.  0.  0.
412  4.11  0.  0.  0.
413  4.12  0.  0.  0.
414  4.13  0.  0.  0.
415  4.14  0.  0.  0.
416  4.15  0.  0.  0.
417  4.16  0.  0.  0.
418  4.17  0.  0.  0.
419  4.18  0.  0.  0.
420  4.19  0.  0.  0.
421  4.20  0.  0.  0.
422  4.21  0.  0.  0.
423  4.22  0.  0.  0.
424  4.23  0.  0.  0.
425  4.24  0.  0.  0.
426  4.25  0.  0.  0.
427  4.26  0.  0.  0.
428  4.27  0.  0.  0.
429  4.28  0.  0.  0.
430  4.29  0.  0.  0.
431  4.30  0.  0.  0.
432  4.31  0.  0.  0.
433  4.32  0.  0.  0.
434  4.33  0.  0.  0.
435  4.34  0.  0.  0.
436  4.35  0.  0.  0.
437  4.36  0.  0.  0.
438  4.37  0.  0.  0.
439  4.38  0.  0.  0.
440  4.39  0.  0.  0.
441  4.40  0.  0.  0.
442  4.41  0.  0.  0.
443  4.42  0.  0.  0.
444  4.43  0.  0.  0.
445  4.44  0.  0.  0.
446  4.45  0.  0.  0.
447  4.46  0.  0.  0.
448  4.47  0.  0.  0.
449  4.48  0.  0.  0.
450  4.49  0.  0.  0.
451  4.50  0.  0.  0.
452  4.51  0.  0.  0.
453  4.52  0.  0.  0.
454  4.53  0.  0.  0.
455  4.54  0.  0.  0.
456  4.55  0.  0.  0.
457  4.56  0.  0.  0.
458  4.57  0.  0.  0.
459  4.58  0.  0.  0.
460  4.59  0.  0.  0.
461  4.60  0.  0.  0.
462  4.61  0.  0.  0.
463  4.62  0.  0.  0.
464  4.63  0.  0.  0.
465  4.64  0.  0.  0.
466  4.65  0.  0.  0.
467  4.66  0.  0.  0.
468  4.67  0.  0.  0.
469  4.68  0.  0.  0.
470  4.69  0.  0.  0.
471  4.70  0.  0.  0.
472  4.71  0.  0.  0.
473  4.72  0.  0.  0.
474  4.73  0.  0.  0.
475  4.74  0.  0.  0.
476  4.75  0.  0.  0.
477  4.76  0.  0.  0.
478  4.77  0.  0.  0.
479  4.78  0.  0.  0.
480  4.79  0.  0.  0.
481  4.80  0.  0.  0.
482  4.81  0.  0.  0.
483  4.82  0.  0.  0.
484  4.83  0.  0.  0.
485  4.84  0.  0.  0.
486  4.85  0.  0.  0.
487  4.86  0.  0.  0.
488  4.87  0.  0.  0.
489  4.88  0.  0.  0.
490  4.89  0.  0.  0.
491  4.90  0.  0.  0.
492  4.91  0.  0.  0.
493  4.92  0.  0.  0.
494  4.93  0.  0.  0.
495  4.94  0.  0.  0.
496  4.95  0.  0.  0.
497  4.96  0.  0.  0.
498  4.97  0.  0.  0.
499  4.98  0.  0.  0.
500  4.99  0.  0.  0.
501  5.00  0.  0.  0.
502  5.01  0.  0.  0.
503  5.02  0.  0.  0.
504  5.03  0.  0.  0.
505  5.04  0.  0.  0.
506  5.05  0.  0.  0.
507  5.06  0.  0.  0.
508  5.07  0.  0.  0.
509  5.08  0.  0.  0.
510  5.09  0.  0.  0.
511  5.10  0.  0.  0.
512  5.11  0.  0.  0.
513  5.12  0.  0.  0.
514  5.13  0.  0.  0.
515  5.14  0.  0.  0.
516  5.15  0.  0.  0.
517  5.16  0.  0.  0.
518  5.17  0.  0.  0.
519  5.18  0.  0.  0.
520  5.19  0.  0.  0.
521  5.20  0.  0.  0.
522  5.21  0.  0.  0.
523  5.22  0.  0.  0.
524  5.23  0.  0.  0.
525  5.24  0.  0.  0.
526  5.25  0.  0.  0.
527  5.26  0.  0.  0.
528  5.27  0.  0.  0.
529  5.28  0.  0.  0.
530  5.29  0.  0.  0.
531  5.30  0.  0.  0.
532  5.31  0.  0.  0.
533  5.32  0.  0.  0.
534  5.33  0.  0.  0.
535  5.34  0.  0.  0.
536  5.35  0.  0.  0.
537  5.36  0.  0.  0.
538  5.37  0.  0.  0.
539  5.38  0.  0.  0.
540  5.39  0.  0.  0.
541  5.40  0.  0.  0.
542  5.41  0.  0.  0.
543  5.42  0.  0.  0.
544  5.43  0.  0.  0.
545  5.44  0.  0.  0.
546  5.45  0.  0.  0.
547  5.46  0.  0.  0.
548  5.47  0.  0.  0.
549  5.48  0.  0.  0.
550  5.49  0.  0.  0.
551  5.50  0.  0.  0.
552  5.51  0.  0.  0.
553  5.52  0.  0.  0.
554  5.53  0.  0.  0.
555  5.54  0.  0.  0.
556  5.55  0.  0.  0.
557  5.56  0.  0.  0.
558  5.57  0.  0.  0.
559  5.58  0.  0.  0.
560  5.59  0.  0.  0.
561  5.60  0.  0.  0.
562  5.61  0.  0.  0.
563  5.62  0.  0.  0.
564  5.63  0.  0.  0.
565  5.64  0.  0.  0.
566  5.65  0.  0.  0.
567  5.66  0.  0.  0.
568  5.67  0.  0.  0.
569  5.68  0.  0.  0.
570  5.69  0.  0.  0.
571  5.70  0.  0.  0.
572  5.71  0.  0.  0.
573  5.72  0.  0.  0.
574  5.73  0.  0.  0.
575  5.74  0.  0.  0.
576  5.75  0.  0.  0.
577  5.76  0.  0.  0.
578  5.77  0.  0.  0.
579  5.78  0.  0.  0.
580  5.79  0.  0.  0.
581  5.80  0.  0.  0.
582  5.81  0.  0.  0.
583  5.82  0.  0.  0.
584  5.83  0.  0.  0.
585  5.84  0.  0.  0.
586  5.85  0.  0.  0.
587  5.86  0.  0.  0.
588  5.87  0.  0.  0.
589  5.88  0.  0.  0.
590  5.89  0.  0.  0.
591  5.90  0.  0.  0.
592  5.91  0.  0.  0.
593  5.92  0.  0.  0.
594  5.93  0.  0.  0.
595  5.94  0.  0.  0.
596  5.95  0.  0.  0.
597  5.96  0.  0.  0.
598  5.97  0.  0.  0.
599  5.98  0.  0.  0.
600  5.99  0.  0.  0.
1                        -4.3075248542716E+00  4.0116492178282E+00  4.2336748433932E-01 -1.2610575549230E-02
1  0.0000000000000E+00  5.7380571544252E-09  1.0524359647657E-07 -3.1469795769290E-07 -1.1453653692151E-08
2  1.0000000000000E-02  2.0056733838226E-03 -2.0575738863460E-03 -9.1272999326622E-03  5.3936387138686E-03
3  2.0000000000000E-02  8.0095756613878E-03 -8.2513387641402E-03 -3.6274050520717E-02  2.1486518325548E-02
4  3.0000000000000E-02  1.7972514167233E-02 -1.8642684230989E-02 -8.0741452776218E-02  4.8015325040828E-02
5  4.0000000000000E-02  3.1829700354810E-02 -3.3328203409935E-02 -1.4138678426942E-01  8.4543873945181E-02
6  5.0000000000000E-02  4.9491534929886E-02 -5.2431376011698E-02 -2.1665555257485E-01  1.3046718002769E-01
7  6.0000000000000E-02  7.0844680126946E-02 -7.6091447778318E-02 -3.0462501846659E-01  1.8501727925694E-01
8  7.0000000000000E-02  9.5753393387948E-02 -1.0445000292794E-01 -4.0305766401624E-01  2.4727090727189E-01
9  8.0000000000000E-02  1.2406109096469E-01 -1.3763583146404E-01 -5.0946286604911E-01  3.1615915470444E-01
10  9.0000000000000E-02  1.5559210534715E-01 -1.7574877312175E-01 -6.2116478489968E-01  3.9047921657380E-01
11  1.0000000000000E-01  1.9015359707114E-01 -2.1884327094287E-01 -7.3537430091412E-01  4.6890833718295E-01
12  1.1000000000000E-01  2.2753757947712E-01 -2.6691238785725E-01 -8.4926273262414E-01  5.5002002090311E-01
13  1.2000000000000E-01  2.6752301442109E-01 -3.1987302835611E-01 -9.6003505378654E-01  6.3230253337964E-01
14  1.3000000000000E-01  3.0987793776143E-01 -3.7755306486317E-01 -1.0650003911595E+00  7.1417965810799E-01
15  1.4000000000000E-01  3.5436157559310E-01 -4.3968099654169E-01 -1.1616377274154E+00  7.9403360191204E-01
16  1.5000000000000E-01  4.0072641554620E-01 -5.0587867005207E-01 -1.2476549473989E+00  8.7022986224151E-01
17  1.6000000000000E-01  4.4872020184002E-01 -5.7565747133072E-01 -1.3210396417486E+00  9.4114378267946E-01
18  1.7000000000000E-01  4.9808782797564E-01 -6.4841825985349E-01 -1.3801004081153E+00  1.0051884343946E+00
19  1.8000000000000E-01  5.4857310671881E-01 -7.2345516784627E-01 -1.4234977533958E+00  1.0608433746114E+00
20  1.9000000000000E-01  5.9992040311231E-01 -7.9996323274157E-01 -1.4502640858878E+00  1.1066837527854E+00
21  2.0000000000000E-01  6.5187612239448E-01 -8.7704967828699E-01 -1.4598126786953E+00  1.1414091652962E+00
22  2.1000000000000E-01  7.0419005062613E-01 -9.5374851444933E-01 -1.4519358697353E+00  1.1638716041265E+00
23  2.2000000000000E-01  7.5661655129224E-01 -1.0290379946481E+00 -1.4267931245382E+00  1.1731018077533E+00
24  2.3000000000000E-01  8.0891562592710E-01 -1.1018603563250E+00 -1.3848899121424E+00  1.1683333063392E+00
25  2.4000000000000E-01  8.6085385072332E-01 -1.1711431820204E+00 -1.3270486199318E+00  1.1490234604942E+00
26  2.5000000000000E-01  9.1220520398487E-01 -1.2358216565873E+00 -1.2543729506318E+00  1.1148708247645E+00
27  2.6000000000000E-01  9.6275180107698E-01 -1.2948609643649E+00 -1.1682073968020E+00  1.0658282239741E+00
28  2.7000000000000E-01  1.0122845541704E+00 -1.3472780692457E+00 -1.0700934708106E+00  1.0021110119900E+00
29  2.8000000000000E-01  1.0606037735880E+00 -1.3921621504786E+00 -9.6172438016723E-01  9.2420008677876E-01
30  2.9000000000000E-01  1.1075197260051E+00 -1.4286930263389E+00 -8.4489978091954E-01  8.3283936013532E-01
31  3.0000000000000E-01  1.1528531622467E+00 -1.4561569838199E+00 -7.2148212013381E-01  7.2902752168657E-01
32  3.1000000000000E-01  1.1964358241309E+00 -1.4739595414922E+00 -5.9335589946197E-01  6.1400409037932E-01
33  3.2000000000000E-01  1.2381109359185E+00 -1.4816347999096E+00 -4.6239096491418E-01  4.8922990769915E-01
34  3.3000000000000E-01  1.2777336816847E+00 -1.4788511739494E+00 -3.3041066453878E-01  3.5636238991586E-01
35  3.4000000000000E-01  1.3151716655554E+00 -1.4654134482393E+00 -1.9916542845207E-01  2.1722601603684E-01
36  3.5000000000000E-01  1.3503053475184E+00 -1.4412612440903E+00 -7.0312028049487E-02  7.3778678148214E-02
37  3.6000000000000E-01  1.3830284436585E+00 -1.4064641278257E+00  5.4601523017161E-02 -7.1925344113138E-02
38  3.7000000000000E-01  1.4132482764124E+00 -1.3612137200647E+00  1.7414574105155E-01 -2.1777490823218E-01
39  3.8000000000000E-01  1.4408860579965E+00 -1.3058132778589E+00  2.8701468109591E-01 -3.6164306556937E-01
40  3.9000000000000E-01  1.4658770886859E+00 -1.2406653118247E+00  3.9202695403417E-01 -5.0142862119479E-01
41  4.0000000000000E-01  1.4881708512489E+00 -1.1662578647419E+00  4.8812368305221E-01 -6.3509713709499E-01
42  4.1000000000000E-01  1.5077309836270E+00 -1.0831501137602E+00  5.7436443397699E-01 -7.6072032132213E-01
43  4.2000000000000E-01  1.5245351139169E+00 -9.9195796388529E-01  6.4992219755652E-01 -8.7651278151893E-01
44  4.3000000000000E-01  1.5385745448129E+00 -8.9334027558006E-01  7.1407848394302E-01 -9.8086519010527E-01
45  4.4000000000000E-01  1.5498537788167E+00 -7.8798631520973E-01  7.6621951191198E-01 -1.0723730084773E+00
46  4.5000000000000E-01  1.5583898805519E+00 -6.7660493602873E-01  8.0583434183319E-01 -1.1498600458945E+00
47  4.6000000000000E-01  1.5642116782531E+00 -5.5991589298084E-01  8.3251561881960E-01 -1.2123962813436E+00
48  4.7000000000000E-01  1.5673588126830E+00 -4.3864357131040E-01  8.4596336978938E-01 -1.2593095486382E+00
49  4.8000000000000E-01  1.5678806481104E+00 -3.1351327226793E-01  8.4599204626868E-01 -1.2901908706776E+00
50  4.9000000000000E-01  1.5658350662603E+00 -1.8525005506824E-01  8.3254073593344E-01 -1.3048934219086E+00
51  5.0000000000000E-01  1.5612871700421E+00 -5.4579989140949E-02  8.0568619335744E-01 -1.3035252920354E+00
52  5.1000000000000E-01  1.5543079290715E+00  7.7766468861440E-02  7.6565807775072E-01 -1.2864364122346E+00
53  5.2000000000000E-01  1.5449728032728E+00  2.1104938647522E-01  7.1285554595412E-01 -1.2542001810040E+00
54  5.3000000000000E-01  1.5333603839141E+00  3.4451307817411E-01  6.4786414510112E-01 -1.2075904841551E+00
55  5.4000000000000E-01  1.5195510931167E+00  4.7737924890831E-01  5.7147179229412E-01 -1.1475549367763E+00
56  5.5000000000000E-01  1.5036259830145E+00  6.0884022681851E-01  4.8468252764115E-01 -1.0751852795265E+00
57  5.6000000000000E-01  1.4856656742488E+00  7.3805298152888E-01  3.8872668902701E-01 -9.9168593359638E-01
58  5.7000000000000E-01  1.4657494703258E+00  8.6413461947593E-01  2.8506618639893E-01 -8.9834175551946E-01
59  5.8000000000000E-01  1.4439546795905E+00  9.8616000911679E-01  1.7539365159377E-01 -7.9648603335317E-01
60  5.9000000000000E-01  1.4203561702844E+00  1.1031621172945E+00  6.1624405312659E-02 -6.8746972956151E-01
61  6.0000000000000E-01  1.3950261765334E+00  1.2141355356419E+00 -5.4119588758579E-02 -5.7263290449233E-01
62  6.1000000000000E-01  1.3680343643975E+00  1.3180435461577E+00 -1.6953432886468E-01 -4.5327915024717E-01
63  6.2000000000000E-01  1.3394481575934E+00  1.4138289227021E+00 -2.8216715608258E-01 -3.3065373178603E-01
64  6.3000000000000E-01  1.3093333125226E+00  1.5004284959337E+00 -3.8945876583387E-01 -2.0592597518069E-01
65  6.4000000000000E-01  1.2777547221618E+00  1.5767913297994E+00 -4.8879332334298E-01 -8.0176267834983E-02
66  6.5000000000000E-01  1.2447774186011E+00  1.6419001753768E+00 -5.7755577157975E-01  4.5612151251476E-02
67  6.6000000000000E-01  1.2104677349432E+00  1.6947956902684E+00 -6.5319504804470E-01  1.7055662448781E-01
68  6.7000000000000E-01  1.1748945792867E+00  1.7346027465155E+00 -7.1329158341039E-01  2.9387393409270E-01
69  6.8000000000000E-01  1.1381307669764E+00  1.7605580045236E+00 -7.5562715611471E-01  4.1487496706514E-01
70  6.9000000000000E-01  1.1002543525276E+00  1.7720378115813E+00 -7.7825493683598E-01  5.3295573033887E-01
71  7.0000000000000E-01  1.0613498998891E+00  1.7685853971700E+00 -7.7956738785363E-01  6.4758539923542E-01
72  7.1000000000000E-01  1.0215096291926E+00  1.7499362882082E+00 -7.5835959460658E-01  7.5829219347356E-01
73  7.2000000000000E-01  9.8083437996849E-01  1.7160408591384E+00 -7.1388560740288E-01  8.6464795331118E-01
74  7.3000000000000E-01  9.3943433501726E-01  1.6670829662689E+00 -6.4590546401383E-01  9.6625233072482E-01
75  7.4000000000000E-01  8.9742945565803E-01  1.6034936933165E+00 -5.5472074901592E-01  1.0627175150220E+00
76  7.5000000000000E-01  8.5494958777436E-01  1.5259593542091E+00 -4.4119681977011E-01  1.1536543785815E+00
77  7.6000000000000E-01  8.1213420870971E-01  1.4354230567720E+00 -3.0677018476317E-01  1.2386608576388E+00
78  7.7000000000000E-01  7.6913179729816E-01  1.3330793221201E+00 -1.5343994702540E-01  1.3173132778078E+00
79  7.8000000000000E-01  7.2609882275447E-01  1.2203614731423E+00  1.6257290302198E-02  1.3891611983515E+00
80  7.9000000000000E-01  6.8319836232604E-01  1.0989217437982E+00  1.9928913396868E-01  1.4537261883844E+00
81  8.0000000000000E-01  6.4059837201764E-01  9.7060431043668E-01  3.9218525656288E-01  1.5105047685621E+00
82  8.1000000000000E-01  5.9846964879717E-01  8.3741169763815E-01  5.9111037952064E-01  1.5589755606443E+00