Bk    ONCVPSP-4.0.1  r_core=   1.15197   1.15197   1.15197   1.15197
97.0000     37.0000      220327    zatom,zion,pspd
8      11   3     4   600     0    pspcod,pspxc,lmax,lloc,mmax,r2well
5.99000000  5.00000000  0.00000000    rchrg fchrg qchrg
3     2     2     2     0    nproj
1     1           extension_switch
0                         2.9997062464517E+01  3.4354413416008E+00 -5.0675624486105E-01
1  0.0000000000000E+00 -3.4265426940294E-08  1.1571229990848E-07  7.2737570078196E-08
2  1.0000000000000E-02  1.5512979817725E-01 -5.9828293320105E-02  2.0048985156163E-02
3  2.0000000000000E-02  3.0924481447663E-01 -1.1840493262205E-01  4.0287513421410E-02
4  3.0000000000000E-02  4.6134174641741E-01 -1.7450530519365E-01  6.0892633297765E-02
5  4.0000000000000E-02  6.1043998213517E-01 -2.2695802768266E-01  8.2016927628956E-02
6  5.0000000000000E-02  7.5559228471734E-01 -2.7466945962819E-01  1.0377756963648E-01
7  6.0000000000000E-02  8.9589470952239E-01 -3.1664578391266E-01  1.2624687027820E-01
8  7.0000000000000E-02  1.0304955412971E+00 -3.5201198656916E-01  1.4944472407447E-01
9  8.0000000000000E-02  1.1586030721718E+00 -3.8002718409149E-01  1.7333328780916E-01
10  9.0000000000000E-02  1.2794920818576E+00 -4.0009588230787E-01  1.9781414086081E-01
11  1.0000000000000E-01  1.3925089260183E+00 -4.1177490167596E-01  2.2272808057650E-01
12  1.1000000000000E-01  1.4970751861012E+00 -4.1477586365577E-01  2.4785760464783E-01
13  1.2000000000000E-01  1.5926898820377E+00 -4.0896329537360E-01  2.7293202870315E-01
14  1.3000000000000E-01  1.6789302963006E+00 -3.9434856877020E-01  2.9763508519127E-01
15  1.4000000000000E-01  1.7554515019977E+00 -3.7108003963546E-01  3.2161475294098E-01
16  1.5000000000000E-01  1.8219847272909E+00 -3.3942988557381E-01  3.4449497917301E-01
17  1.6000000000000E-01  1.8783347219367E+00 -2.9977825483463E-01  3.6588888051500E-01
18  1.7000000000000E-01  1.9243763178714E+00 -2.5259542573499E-01  3.8541294955034E-01
19  1.8000000000000E-01  1.9600503935536E+00 -1.9842273573007E-01  4.0270175088692E-01
20  1.9000000000000E-01  1.9853594605783E+00 -1.3785306783090E-01  4.1742256726130E-01
21  2.0000000000000E-01  2.0003630906322E+00 -7.1511679022703E-02  4.2928945268897E-01
22  2.1000000000000E-01  2.0051733912696E+00 -3.8120843026605E-05  4.3807616627950E-01
23  2.2000000000000E-01  1.9999507207207E+00  7.5930062149686E-02  4.4362749644371E-01
24  2.3000000000000E-01  1.9848998058399E+00  1.5577126196237E-01  4.4586853949319E-01
25  2.4000000000000E-01  1.9602663944923E+00  2.3889088589408E-01  4.4481156705732E-01
26  2.5000000000000E-01  1.9263345355913E+00  3.2472923937563E-01  4.4056020070542E-01
27  2.6000000000000E-01  1.8834245382759E+00  4.1276601506343E-01  4.3331070654731E-01
28  2.7000000000000E-01  1.8318916181367E+00  5.0252134477272E-01  4.2335032389754E-01
29  2.8000000000000E-01  1.7721251948388E+00  5.9355352626024E-01  4.1105264657830E-01
30  2.9000000000000E-01  1.7045487638143E+00  6.8545368693323E-01  3.9687017925255E-01
31  3.0000000000000E-01  1.6296202267174E+00  7.7783778512273E-01  3.8132429049363E-01
32  3.1000000000000E-01  1.5478325326955E+00  8.7033647094939E-01  3.6499287548252E-01
33  3.2000000000000E-01  1.4597144566819E+00  9.6258342801555E-01  3.4849612095003E-01
34  3.3000000000000E-01  1.3658313230345E+00  1.0542028900620E+00  3.3248083036770E-01
35  3.4000000000000E-01  1.2667854737672E+00  1.1447970702662E+00  3.1760381610946E-01
36  3.5000000000000E-01  1.1632162808587E+00  1.2339342531247E+00  3.0451489564918E-01
37  3.6000000000000E-01  1.0557995117797E+00  1.3211382792206E+00  2.9384003982617E-01
38  3.7000000000000E-01  9.4524587618230E-01  1.4058801022690E+00  2.8616521252832E-01
39  3.8000000000000E-01  8.3229860901289E-01  1.4875720175364E+00  2.8202141325606E-01
40  3.9000000000000E-01  7.1772998011239E-01  1.5655650541706E+00  2.8187138813833E-01
41  4.0000000000000E-01  6.0233666137107E-01  1.6391498952651E+00  2.8609841288282E-01
42  4.1000000000000E-01  4.8693392809695E-01  1.7075615437184E+00  2.9499747531656E-01
43  4.2000000000000E-01  3.7234871967379E-01  1.7699877948771E+00  3.0876909851689E-01
44  4.3000000000000E-01  2.5941163390159E-01  1.8255814148186E+00  3.2751595135388E-01
45  4.4000000000000E-01  1.4894797765188E-01  1.8734757624324E+00  3.5124229513580E-01
46  4.5000000000000E-01  4.1768041688244E-02  1.9128034406158E+00  3.7985621661921E-01
47  4.6000000000000E-01 -6.1343192162302E-02  1.9427174231105E+00  4.1317450257990E-01
48  4.7000000000000E-01 -1.5963666951815E-01  1.9624139843677E+00  4.5092992289726E-01
49  4.8000000000000E-01 -2.5240993988346E-01  1.9711566652755E+00  4.9278061089015E-01
50  4.9000000000000E-01 -3.3901760661254E-01  1.9683004414754E+00  5.3832116418579E-01
51  5.0000000000000E-01 -4.1888125926465E-01  1.9533152262237E+00  5.8709503898340E-01
52  5.1000000000000E-01 -4.9149860081764E-01  1.9258078378650E+00  6.3860777681043E-01
53  5.2000000000000E-01 -5.5645149616358E-01  1.8855415933240E+00  6.9234058676457E-01
54  5.3000000000000E-01 -6.1341269222645E-01  1.8324527525754E+00  7.4776380808044E-01
55  5.4000000000000E-01 -6.6215099315506E-01  1.7666631325847E+00  8.0434979727344E-01
56  5.5000000000000E-01 -7.0253471522508E-01  1.6884883292869E+00  8.6158482003346E-01
57  5.6000000000000E-01 -7.3453329389517E-01  1.5984411283292E+00  9.1897957879266E-01
58  5.7000000000000E-01 -7.5821696820772E-01  1.4972298442163E+00  9.7607807026056E-01
59  5.8000000000000E-01 -7.7375452351783E-01  1.3857514971944E+00  1.0324645405291E+00
60  5.9000000000000E-01 -7.8140913037350E-01  1.2650799113004E+00  1.0877683855989E+00
61  6.0000000000000E-01 -7.8153237321159E-01  1.1364489889499E+00  1.1416669291349E+00
62  6.1000000000000E-01 -7.7455661537853E-01  1.0012315807781E+00  1.1938860936105E+00
63  6.2000000000000E-01 -7.6098589494887E-01  8.6091451811294E-01  1.2441990624832E+00
64  6.3000000000000E-01 -7.4138558720881E-01  7.1707050392522E-01  1.2924231065545E+00
65  6.4000000000000E-01 -7.1637110306116E-01  5.7132766169048E-01  1.3384148144075E+00
66  6.5000000000000E-01 -6.8659591687069E-01  4.2533761659794E-01  1.3820640223763E+00
67  6.6000000000000E-01 -6.5273923163381E-01  2.8074302736954E-01  1.4232867819661E+00
68  6.7000000000000E-01 -6.1549359343496E-01  1.3914549825955E-01  1.4620177306434E+00
69  6.8000000000000E-01 -5.7555276094515E-01  2.0747794836812E-03  1.4982022446880E+00
70  6.9000000000000E-01 -5.3360011961823E-01 -1.2903988844500E-01  1.5317887502003E+00
71  7.0000000000000E-01 -4.9029790500367E-01 -2.5289551287297E-01  1.5627215508405E+00
72  7.1000000000000E-01 -4.4627746631968E-01 -3.6833750356333E-01  1.5909344995030E+00
73  7.2000000000000E-01 -4.0213076149322E-01 -4.7437770631731E-01  1.6163457974645E+00
74  7.3000000000000E-01 -3.5840322988794E-01 -5.7020792316685E-01  1.6388541506206E+00
75  7.4000000000000E-01 -3.1558814067807E-01 -6.5520868186924E-01  1.6583364506357E+00
76  7.5000000000000E-01 -2.7412246514396E-01 -7.2895317705467E-01  1.6746470818264E+00
77  7.6000000000000E-01 -2.3438427193991E-01 -7.9120646330679E-01  1.6876188851673E+00
78  7.7000000000000E-01 -1.9669159742883E-01 -8.4192013081725E-01  1.6970657417928E+00
79  7.8000000000000E-01 -1.6130270016408E-01 -8.8122283158880E-01  1.7027866724824E+00
80  7.9000000000000E-01 -1.2841757101386E-01 -9.0940714360419E-01  1.7045712894267E+00
81  8.0000000000000E-01 -9.8180539485753E-02 -9.2691335792018E-01  1.7022063843106E+00
82  8.1000000000000E-01 -7.0683793449595E-02 -9.3431084620546E-01  1.6954833942906E+00
83  8.2000000000000E-01 -4.5971614269208E-02 -9.3227771181591E-01  1.6842064562167E+00
84  8.3000000000000E-01 -2.4045122589893E-02 -9.2157944520945E-01  1.6682007403752E+00
85  8.4000000000000E-01 -4.8673315888549E-03 -9.0304729459435E-01  1.6473207485414E+00
86  8.5000000000000E-01  1.1631686052763E-02 -8.7755702652974E-01  1.6214582671143E+00
87  8.6000000000000E-01  2.5549694599391E-02 -8.4600869112162E-01  1.5905496839703E+00
88  8.7000000000000E-01  3.7007409541301E-02 -8.0930792573412E-01  1.5545824063623E+00
89  8.8000000000000E-01  4.6143956477361E-02 -7.6834923375380E-01  1.5136001552445E+00
90  8.9000000000000E-01  5.3112770221502E-02 -7.2400156543150E-01  1.4677069570494E+00
91  9.0000000000000E-01  5.8077996581137E-02 -6.7709641106093E-01  1.4170697051542E+00
92  9.1000000000000E-01  6.1211425574988E-02 -6.2841849771979E-01  1.3619192178943E+00
93  9.2000000000000E-01  6.2689952148442E-02 -5.7869906439399E-01  1.3025497757875E+00
94  9.3000000000000E-01  6.2693530086672E-02 -5.2861158113226E-01  1.2393171754683E+00
95  9.4000000000000E-01  6.1403558035829E-02 -4.7876968003356E-01  1.1726353896506E+00
96  9.5000000000000E-01  5.9001614330516E-02 -4.2972698280274E-01  1.1029719694494E+00
97  9.6000000000000E-01  5.5668440455173E-02 -3.8197844398946E-01  1.0308423660487E+00
98  9.7000000000000E-01  5.1583061925435E-02 -3.3596278264406E-01  9.5680338182863E-01
99  9.8000000000000E-01  4.6921930360698E-02 -2.9206554882894E-01  8.8144598586548E-01
100  9.9000000000000E-01  4.1857971450066E-02 -2.5062236518312E-01  8.0538774473605E-01
101  1.0000000000000E+00  3.6559430024480E-02 -2.1192189656854E-01  7.2926512681208E-01
102  1.0100000000000E+00  3.1188414915816E-02 -1.7620813092495E-01  6.5372593704489E-01
103  1.0200000000000E+00  2.5899061913025E-02 -1.4368159942407E-01  5.7942213029858E-01
104  1.0300000000000E+00  2.0835251899040E-02 -1.1449922072464E-01  5.0700323556174E-01
105  1.0400000000000E+00  1.6127842056867E-02 -8.8772519106948E-02  4.3711060208429E-01
106  1.0500000000000E+00  1.1891389764829E-02 -6.6564036039599E-02  3.7037265290925E-01
107  1.0600000000000E+00  8.2203702188528E-03 -4.7881825352095E-02  3.0740130292800E-01
108  1.0700000000000E+00  5.1849088763616E-03 -3.2671990276391E-02  2.4878966886148E-01
109  1.0800000000000E+00  2.8260137561711E-03 -2.0809123769363E-02  1.9511115014610E-01
110  1.0900000000000E+00  1.1508494578390E-03 -1.2086165707736E-02  1.4692011073741E-01
111  1.1000000000000E+00  1.0071848702197E-04 -6.1219750433050E-03  1.0474367322867E-01
112  1.1100000000000E+00 -4.8116560507975E-04 -2.2643399298363E-03  6.9070467247160E-02
113  1.1200000000000E+00 -6.4636959629382E-04 -2.0650903218152E-04  4.0414352337500E-02
114  1.1300000000000E+00 -5.0091856432340E-04  4.7123419167446E-04  1.9196150083114E-02
115  1.1400000000000E+00 -2.1202385037977E-04  3.1935955640495E-04  5.6995557280883E-03
116  1.1500000000000E+00 -1.2111447403151E-05  2.2134351371074E-05  2.4172372496320E-04
117  1.1600000000000E+00 -8.0555473710078E-07  1.4583383535028E-06  1.6472342773862E-05
118  1.1700000000000E+00  2.0146709478755E-07 -3.4109226667989E-07 -4.6193503806175E-06
119  1.18  0.  0.  0.
120  1.19  0.  0.  0.
121  1.20  0.  0.  0.
122  1.21  0.  0.  0.
123  1.22  0.  0.  0.
124  1.23  0.  0.  0.
125  1.24  0.  0.  0.
126  1.25  0.  0.  0.
127  1.26  0.  0.  0.
128  1.27  0.  0.  0.
129  1.28  0.  0.  0.
130  1.29  0.  0.  0.
131  1.30  0.  0.  0.
132  1.31  0.  0.  0.
133  1.32  0.  0.  0.
134  1.33  0.  0.  0.
135  1.34  0.  0.  0.
136  1.35  0.  0.  0.
137  1.36  0.  0.  0.
138  1.37  0.  0.  0.
139  1.38  0.  0.  0.
140  1.39  0.  0.  0.
141  1.40  0.  0.  0.
142  1.41  0.  0.  0.
143  1.42  0.  0.  0.
144  1.43  0.  0.  0.
145  1.44  0.  0.  0.
146  1.45  0.  0.  0.
147  1.46  0.  0.  0.
148  1.47  0.  0.  0.
149  1.48  0.  0.  0.
150  1.49  0.  0.  0.
151  1.50  0.  0.  0.
152  1.51  0.  0.  0.
153  1.52  0.  0.  0.
154  1.53  0.  0.  0.
155  1.54  0.  0.  0.
156  1.55  0.  0.  0.
157  1.56  0.  0.  0.
158  1.57  0.  0.  0.
159  1.58  0.  0.  0.
160  1.59  0.  0.  0.
161  1.60  0.  0.  0.
162  1.61  0.  0.  0.
163  1.62  0.  0.  0.
164  1.63  0.  0.  0.
165  1.64  0.  0.  0.
166  1.65  0.  0.  0.
167  1.66  0.  0.  0.
168  1.67  0.  0.  0.
169  1.68  0.  0.  0.
170  1.69  0.  0.  0.
171  1.70  0.  0.  0.
172  1.71  0.  0.  0.
173  1.72  0.  0.  0.
174  1.73  0.  0.  0.
175  1.74  0.  0.  0.
176  1.75  0.  0.  0.
177  1.76  0.  0.  0.
178  1.77  0.  0.  0.
179  1.78  0.  0.  0.
180  1.79  0.  0.  0.
181  1.80  0.  0.  0.
182  1.81  0.  0.  0.
183  1.82  0.  0.  0.
184  1.83  0.  0.  0.
185  1.84  0.  0.  0.
186  1.85  0.  0.  0.
187  1.86  0.  0.  0.
188  1.87  0.  0.  0.
189  1.88  0.  0.  0.
190  1.89  0.  0.  0.
191  1.90  0.  0.  0.
192  1.91  0.  0.  0.
193  1.92  0.  0.  0.
194  1.93  0.  0.  0.
195  1.94  0.  0.  0.
196  1.95  0.  0.  0.
197  1.96  0.  0.  0.
198  1.97  0.  0.  0.
199  1.98  0.  0.  0.
200  1.99  0.  0.  0.
201  2.00  0.  0.  0.
202  2.01  0.  0.  0.
203  2.02  0.  0.  0.
204  2.03  0.  0.  0.
205  2.04  0.  0.  0.
206  2.05  0.  0.  0.
207  2.06  0.  0.  0.
208  2.07  0.  0.  0.
209  2.08  0.  0.  0.
210  2.09  0.  0.  0.
211  2.10  0.  0.  0.
212  2.11  0.  0.  0.
213  2.12  0.  0.  0.
214  2.13  0.  0.  0.
215  2.14  0.  0.  0.
216  2.15  0.  0.  0.
217  2.16  0.  0.  0.
218  2.17  0.  0.  0.
219  2.18  0.  0.  0.
220  2.19  0.  0.  0.
221  2.20  0.  0.  0.
222  2.21  0.  0.  0.
223  2.22  0.  0.  0.
224  2.23  0.  0.  0.
225  2.24  0.  0.  0.
226  2.25  0.  0.  0.
227  2.26  0.  0.  0.
228  2.27  0.  0.  0.
229  2.28  0.  0.  0.
230  2.29  0.  0.  0.
231  2.30  0.  0.  0.
232  2.31  0.  0.  0.
233  2.32  0.  0.  0.
234  2.33  0.  0.  0.
235  2.34  0.  0.  0.
236  2.35  0.  0.  0.
237  2.36  0.  0.  0.
238  2.37  0.  0.  0.
239  2.38  0.  0.  0.
240  2.39  0.  0.  0.
241  2.40  0.  0.  0.
242  2.41  0.  0.  0.
243  2.42  0.  0.  0.
244  2.43  0.  0.  0.
245  2.44  0.  0.  0.
246  2.45  0.  0.  0.
247  2.46  0.  0.  0.
248  2.47  0.  0.  0.
249  2.48  0.  0.  0.
250  2.49  0.  0.  0.
251  2.50  0.  0.  0.
252  2.51  0.  0.  0.
253  2.52  0.  0.  0.
254  2.53  0.  0.  0.
255  2.54  0.  0.  0.
256  2.55  0.  0.  0.
257  2.56  0.  0.  0.
258  2.57  0.  0.  0.
259  2.58  0.  0.  0.
260  2.59  0.  0.  0.
261  2.60  0.  0.  0.
262  2.61  0.  0.  0.
263  2.62  0.  0.  0.
264  2.63  0.  0.  0.
265  2.64  0.  0.  0.
266  2.65  0.  0.  0.
267  2.66  0.  0.  0.
268  2.67  0.  0.  0.
269  2.68  0.  0.  0.
270  2.69  0.  0.  0.
271  2.70  0.  0.  0.
272  2.71  0.  0.  0.
273  2.72  0.  0.  0.
274  2.73  0.  0.  0.
275  2.74  0.  0.  0.
276  2.75  0.  0.  0.
277  2.76  0.  0.  0.
278  2.77  0.  0.  0.
279  2.78  0.  0.  0.
280  2.79  0.  0.  0.
281  2.80  0.  0.  0.
282  2.81  0.  0.  0.
283  2.82  0.  0.  0.
284  2.83  0.  0.  0.
285  2.84  0.  0.  0.
286  2.85  0.  0.  0.
287  2.86  0.  0.  0.
288  2.87  0.  0.  0.
289  2.88  0.  0.  0.
290  2.89  0.  0.  0.
291  2.90  0.  0.  0.
292  2.91  0.  0.  0.
293  2.92  0.  0.  0.
294  2.93  0.  0.  0.
295  2.94  0.  0.  0.
296  2.95  0.  0.  0.
297  2.96  0.  0.  0.
298  2.97  0.  0.  0.
299  2.98  0.  0.  0.
300  2.99  0.  0.  0.
301  3.00  0.  0.  0.
302  3.01  0.  0.  0.
303  3.02  0.  0.  0.
304  3.03  0.  0.  0.
305  3.04  0.  0.  0.
306  3.05  0.  0.  0.
307  3.06  0.  0.  0.
308  3.07  0.  0.  0.
309  3.08  0.  0.  0.
310  3.09  0.  0.  0.
311  3.10  0.  0.  0.
312  3.11  0.  0.  0.
313  3.12  0.  0.  0.
314  3.13  0.  0.  0.
315  3.14  0.  0.  0.
316  3.15  0.  0.  0.
317  3.16  0.  0.  0.
318  3.17  0.  0.  0.
319  3.18  0.  0.  0.
320  3.19  0.  0.  0.
321  3.20  0.  0.  0.
322  3.21  0.  0.  0.
323  3.22  0.  0.  0.
324  3.23  0.  0.  0.
325  3.24  0.  0.  0.
326  3.25  0.  0.  0.
327  3.26  0.  0.  0.
328  3.27  0.  0.  0.
329  3.28  0.  0.  0.
330  3.29  0.  0.  0.
331  3.30  0.  0.  0.
332  3.31  0.  0.  0.
333  3.32  0.  0.  0.
334  3.33  0.  0.  0.
335  3.34  0.  0.  0.
336  3.35  0.  0.  0.
337  3.36  0.  0.  0.
338  3.37  0.  0.  0.
339  3.38  0.  0.  0.
340  3.39  0.  0.  0.
341  3.40  0.  0.  0.
342  3.41  0.  0.  0.
343  3.42  0.  0.  0.
344  3.43  0.  0.  0.
345  3.44  0.  0.  0.
346  3.45  0.  0.  0.
347  3.46  0.  0.  0.
348  3.47  0.  0.  0.
349  3.48  0.  0.  0.
350  3.49  0.  0.  0.
351  3.50  0.  0.  0.
352  3.51  0.  0.  0.
353  3.52  0.  0.  0.
354  3.53  0.  0.  0.
355  3.54  0.  0.  0.
356  3.55  0.  0.  0.
357  3.56  0.  0.  0.
358  3.57  0.  0.  0.
359  3.58  0.  0.  0.
360  3.59  0.  0.  0.
361  3.60  0.  0.  0.
362  3.61  0.  0.  0.
363  3.62  0.  0.  0.
364  3.63  0.  0.  0.
365  3.64  0.  0.  0.
366  3.65  0.  0.  0.
367  3.66  0.  0.  0.
368  3.67  0.  0.  0.
369  3.68  0.  0.  0.
370  3.69  0.  0.  0.
371  3.70  0.  0.  0.
372  3.71  0.  0.  0.
373  3.72  0.  0.  0.
374  3.73  0.  0.  0.
375  3.74  0.  0.  0.
376  3.75  0.  0.  0.
377  3.76  0.  0.  0.
378  3.77  0.  0.  0.
379  3.78  0.  0.  0.
380  3.79  0.  0.  0.
381  3.80  0.  0.  0.
382  3.81  0.  0.  0.
383  3.82  0.  0.  0.
384  3.83  0.  0.  0.
385  3.84  0.  0.  0.
386  3.85  0.  0.  0.
387  3.86  0.  0.  0.
388  3.87  0.  0.  0.
389  3.88  0.  0.  0.
390  3.89  0.  0.  0.
391  3.90  0.  0.  0.
392  3.91  0.  0.  0.
393  3.92  0.  0.  0.
394  3.93  0.  0.  0.
395  3.94  0.  0.  0.
396  3.95  0.  0.  0.
397  3.96  0.  0.  0.
398  3.97  0.  0.  0.
399  3.98  0.  0.  0.
400  3.99  0.  0.  0.
401  4.00  0.  0.  0.
402  4.01  0.  0.  0.
403  4.02  0.  0.  0.
404  4.03  0.  0.  0.
405  4.04  0.  0.  0.
406  4.05  0.  0.  0.
407  4.06  0.  0.  0.
408  4.07  0.  0.  0.
409  4.08  0.  0.  0.
410  4.09  0.  0.  0.
411  4.10  0.  0.  0.
412  4.11  0.  0.  0.
413  4.12  0.  0.  0.
414  4.13  0.  0.  0.
415  4.14  0.  0.  0.
416  4.15  0.  0.  0.
417  4.16  0.  0.  0.
418  4.17  0.  0.  0.
419  4.18  0.  0.  0.
420  4.19  0.  0.  0.
421  4.20  0.  0.  0.
422  4.21  0.  0.  0.
423  4.22  0.  0.  0.
424  4.23  0.  0.  0.
425  4.24  0.  0.  0.
426  4.25  0.  0.  0.
427  4.26  0.  0.  0.
428  4.27  0.  0.  0.
429  4.28  0.  0.  0.
430  4.29  0.  0.  0.
431  4.30  0.  0.  0.
432  4.31  0.  0.  0.
433  4.32  0.  0.  0.
434  4.33  0.  0.  0.
435  4.34  0.  0.  0.
436  4.35  0.  0.  0.
437  4.36  0.  0.  0.
438  4.37  0.  0.  0.
439  4.38  0.  0.  0.
440  4.39  0.  0.  0.
441  4.40  0.  0.  0.
442  4.41  0.  0.  0.
443  4.42  0.  0.  0.
444  4.43  0.  0.  0.
445  4.44  0.  0.  0.
446  4.45  0.  0.  0.
447  4.46  0.  0.  0.
448  4.47  0.  0.  0.
449  4.48  0.  0.  0.
450  4.49  0.  0.  0.
451  4.50  0.  0.  0.
452  4.51  0.  0.  0.
453  4.52  0.  0.  0.
454  4.53  0.  0.  0.
455  4.54  0.  0.  0.
456  4.55  0.  0.  0.
457  4.56  0.  0.  0.
458  4.57  0.  0.  0.
459  4.58  0.  0.  0.
460  4.59  0.  0.  0.
461  4.60  0.  0.  0.
462  4.61  0.  0.  0.
463  4.62  0.  0.  0.
464  4.63  0.  0.  0.
465  4.64  0.  0.  0.
466  4.65  0.  0.  0.
467  4.66  0.  0.  0.
468  4.67  0.  0.  0.
469  4.68  0.  0.  0.
470  4.69  0.  0.  0.
471  4.70  0.  0.  0.
472  4.71  0.  0.  0.
473  4.72  0.  0.  0.
474  4.73  0.  0.  0.
475  4.74  0.  0.  0.
476  4.75  0.  0.  0.
477  4.76  0.  0.  0.
478  4.77  0.  0.  0.
479  4.78  0.  0.  0.
480  4.79  0.  0.  0.
481  4.80  0.  0.  0.
482  4.81  0.  0.  0.
483  4.82  0.  0.  0.
484  4.83  0.  0.  0.
485  4.84  0.  0.  0.
486  4.85  0.  0.  0.
487  4.86  0.  0.  0.
488  4.87  0.  0.  0.
489  4.88  0.  0.  0.
490  4.89  0.  0.  0.
491  4.90  0.  0.  0.
492  4.91  0.  0.  0.
493  4.92  0.  0.  0.
494  4.93  0.  0.  0.
495  4.94  0.  0.  0.
496  4.95  0.  0.  0.
497  4.96  0.  0.  0.
498  4.97  0.  0.  0.
499  4.98  0.  0.  0.
500  4.99  0.  0.  0.
501  5.00  0.  0.  0.
502  5.01  0.  0.  0.
503  5.02  0.  0.  0.
504  5.03  0.  0.  0.
505  5.04  0.  0.  0.
506  5.05  0.  0.  0.
507  5.06  0.  0.  0.
508  5.07  0.  0.  0.
509  5.08  0.  0.  0.
510  5.09  0.  0.  0.
511  5.10  0.  0.  0.
512  5.11  0.  0.  0.
513  5.12  0.  0.  0.
514  5.13  0.  0.  0.
515  5.14  0.  0.  0.
516  5.15  0.  0.  0.
517  5.16  0.  0.  0.
518  5.17  0.  0.  0.
519  5.18  0.  0.  0.
520  5.19  0.  0.  0.
521  5.20  0.  0.  0.
522  5.21  0.  0.  0.
523  5.22  0.  0.  0.
524  5.23  0.  0.  0.
525  5.24  0.  0.  0.
526  5.25  0.  0.  0.
527  5.26  0.  0.  0.
528  5.27  0.  0.  0.
529  5.28  0.  0.  0.
530  5.29  0.  0.  0.
531  5.30  0.  0.  0.
532  5.31  0.  0.  0.
533  5.32  0.  0.  0.
534  5.33  0.  0.  0.
535  5.34  0.  0.  0.
536  5.35  0.  0.  0.
537  5.36  0.  0.  0.
538  5.37  0.  0.  0.
539  5.38  0.  0.  0.
540  5.39  0.  0.  0.
541  5.40  0.  0.  0.
542  5.41  0.  0.  0.
543  5.42  0.  0.  0.
544  5.43  0.  0.  0.
545  5.44  0.  0.  0.
546  5.45  0.  0.  0.
547  5.46  0.  0.  0.
548  5.47  0.  0.  0.
549  5.48  0.  0.  0.
550  5.49  0.  0.  0.
551  5.50  0.  0.  0.
552  5.51  0.  0.  0.
553  5.52  0.  0.  0.
554  5.53  0.  0.  0.
555  5.54  0.  0.  0.
556  5.55  0.  0.  0.
557  5.56  0.  0.  0.
558  5.57  0.  0.  0.
559  5.58  0.  0.  0.
560  5.59  0.  0.  0.
561  5.60  0.  0.  0.
562  5.61  0.  0.  0.
563  5.62  0.  0.  0.
564  5.63  0.  0.  0.
565  5.64  0.  0.  0.
566  5.65  0.  0.  0.
567  5.66  0.  0.  0.
568  5.67  0.  0.  0.
569  5.68  0.  0.  0.
570  5.69  0.  0.  0.
571  5.70  0.  0.  0.
572  5.71  0.  0.  0.
573  5.72  0.  0.  0.
574  5.73  0.  0.  0.
575  5.74  0.  0.  0.
576  5.75  0.  0.  0.
577  5.76  0.  0.  0.
578  5.77  0.  0.  0.
579  5.78  0.  0.  0.
580  5.79  0.  0.  0.
581  5.80  0.  0.  0.
582  5.81  0.  0.  0.
583  5.82  0.  0.  0.
584  5.83  0.  0.  0.
585  5.84  0.  0.  0.
586  5.85  0.  0.  0.
587  5.86  0.  0.  0.
588  5.87  0.  0.  0.
589  5.88  0.  0.  0.
590  5.89  0.  0.  0.
591  5.90  0.  0.  0.
592  5.91  0.  0.  0.
593  5.92  0.  0.  0.
594  5.93  0.  0.  0.
595  5.94  0.  0.  0.
596  5.95  0.  0.  0.
597  5.96  0.  0.  0.
598  5.97  0.  0.  0.
599  5.98  0.  0.  0.
600  5.99  0.  0.  0.
1                         8.8787596396651E+00 -4.2659048981773E-01
1  0.0000000000000E+00 -5.9402599783542E-09 -1.2454567528686E-07
2  1.0000000000000E-02  3.7453747581232E-03  1.1907165937858E-03
3  2.0000000000000E-02  1.4954720853616E-02  4.7888628129963E-03
4  3.0000000000000E-02  3.3547777732197E-02  1.0870424105789E-02
5  4.0000000000000E-02  5.9391029255054E-02  1.9555452434234E-02
6  5.0000000000000E-02  9.2298097583753E-02  3.0998488926998E-02
7  6.0000000000000E-02  1.3203032715760E-01  4.5375759727839E-02
8  7.0000000000000E-02  1.7829758929229E-01  6.2869720426504E-02
9  8.0000000000000E-02  2.3075934386886E-01  8.3651649004298E-02
10  9.0000000000000E-02  2.8902599858762E-01  1.0786308396586E-01
11  1.0000000000000E-01  3.5266060806419E-01  1.3559696930028E-01
12  1.1000000000000E-01  4.2118095446382E-01  1.6687939836251E-01
13  1.2000000000000E-01  4.9406204832087E-01  2.0165284324302E-01
14  1.3000000000000E-01  5.7073908268689E-01  2.3976171462412E-01
15  1.4000000000000E-01  6.5061086590879E-01  2.8094102081366E-01
16  1.5000000000000E-01  7.3304374836946E-01  3.2480878624482E-01
17  1.6000000000000E-01  8.1737604672995E-01  3.7086275312824E-01
18  1.7000000000000E-01  9.0292295597659E-01  4.1848173014565E-01
19  1.8000000000000E-01  9.8898192534734E-01  4.6693177501201E-01
20  1.9000000000000E-01  1.0748384594884E+00  5.1537721005553E-01
21  2.0000000000000E-01  1.1597722915066E+00  5.6289627878623E-01
22  2.1000000000000E-01  1.2430638604795E+00  6.0850106406499E-01
23  2.2000000000000E-01  1.3240010130035E+00  6.5116111220152E-01
24  2.3000000000000E-01  1.4018858370069E+00  6.8983004901403E-01
25  2.4000000000000E-01  1.4760415267973E+00  7.2347433988455E-01
26  2.5000000000000E-01  1.5458191715497E+00  7.5110324160588E-01
27  2.6000000000000E-01  1.6106043554893E+00  7.7179892373766E-01
28  2.7000000000000E-01  1.6698234571089E+00  7.8474570443659E-01
29  2.8000000000000E-01  1.7229495370114E+00  7.8925735208872E-01
30  2.9000000000000E-01  1.7695077093865E+00  7.8480144989029E-01
31  3.0000000000000E-01  1.8090799006320E+00  7.7101990465073E-01
32  3.1000000000000E-01  1.8413089099987E+00  7.4774480092249E-01
33  3.2000000000000E-01  1.8659017010670E+00  7.1500895311205E-01
34  3.3000000000000E-01  1.8826318689475E+00  6.7305068626125E-01
35  3.4000000000000E-01  1.8913412458566E+00  6.2231257440712E-01
36  3.5000000000000E-01  1.8919406265993E+00  5.6343407668677E-01
37  3.6000000000000E-01  1.8844096149064E+00  4.9723822791289E-01
38  3.7000000000000E-01  1.8687956109048E+00  4.2471275416922E-01
39  3.8000000000000E-01  1.8452119786281E+00  3.4698618700841E-01
40  3.9000000000000E-01  1.8138354498062E+00  2.6529973432567E-01
41  4.0000000000000E-01  1.7749028356510E+00  1.8097582476083E-01
42  4.1000000000000E-01  1.7287071314840E+00  9.5384369250727E-02
43  4.2000000000000E-01  1.6755931094271E+00  9.9078729294109E-03
44  4.3000000000000E-01  1.6159525016850E+00 -7.4093420898575E-02
45  4.4000000000000E-01  1.5502188809705E+00 -1.5531516786960E-01
46  4.5000000000000E-01  1.4788623452974E+00 -2.3254019296593E-01
47  4.6000000000000E-01  1.4023841116995E+00 -3.0466632874487E-01
48  4.7000000000000E-01  1.3213111176037E+00 -3.7072987896449E-01
49  4.8000000000000E-01  1.2361907198492E+00 -4.2992392481947E-01
50  4.9000000000000E-01  1.1475855700867E+00 -4.8161088166599E-01
51  5.0000000000000E-01  1.0560687319815E+00 -5.2532892897467E-01
52  5.1000000000000E-01  9.6221909082877E-01 -5.6079216745490E-01
53  5.2000000000000E-01  8.6661709046890E-01 -5.8788459624987E-01
54  5.3000000000000E-01  7.6984081640208E-01 -6.0664824079128E-01
55  5.4000000000000E-01  6.7246242838938E-01 -6.1726598921456E-01
56  5.5000000000000E-01  5.7504493121379E-01 -6.2003990331036E-01
57  5.6000000000000E-01  4.7813925925290E-01 -6.1536595055587E-01
58  5.7000000000000E-01  3.8228163960191E-01 -6.0370624947742E-01
59  5.8000000000000E-01  2.8799119012203E-01 -5.8556002529807E-01
60  5.9000000000000E-01  1.9576770330790E-01 -5.6143453183847E-01
61  6.0000000000000E-01  1.0608956448507E-01 -5.3181720595157E-01
62  6.1000000000000E-01  1.9411753654305E-02 -4.9715028117661E-01
63  6.2000000000000E-01 -6.3836115751697E-02 -4.5780899847697E-01
64  6.3000000000000E-01 -1.4325176101708E-01 -4.1408441645861E-01
65  6.4000000000000E-01 -2.1846222743734E-01 -3.6617164576285E-01
66  6.5000000000000E-01 -2.8912593718245E-01 -3.1416411849156E-01
67  6.6000000000000E-01 -3.5493479462091E-01 -2.5805426116920E-01
68  6.7000000000000E-01 -4.1561633836136E-01 -1.9774067770195E-01
69  6.8000000000000E-01 -4.7093591519830E-01 -1.3304167683175E-01
70  6.9000000000000E-01 -5.2069883634835E-01 -6.3714707040315E-02
71  7.0000000000000E-01 -5.6475246254471E-01  1.0518998765371E-02
72  7.1000000000000E-01 -6.0298815241294E-01  8.9945505802620E-02
73  7.2000000000000E-01 -6.3534299872016E-01  1.7482613261678E-01
74  7.3000000000000E-01 -6.6180127013973E-01  2.6536359303961E-01
75  7.4000000000000E-01 -6.8239547256811E-01  3.6166776057677E-01
76  7.5000000000000E-01 -6.9720694411254E-01  4.6372255958720E-01
77  7.6000000000000E-01 -7.0636590184223E-01  5.7135549951581E-01
78  7.7000000000000E-01 -7.1005086631297E-01  6.8421132174419E-01
79  7.8000000000000E-01 -7.0848740163451E-01  8.0173112365084E-01
80  7.9000000000000E-01 -7.0194612418638E-01  9.2313816379470E-01
81  8.0000000000000E-01 -6.9073995159064E-01  1.0474313404340E+00
82  8.1000000000000E-01 -6.7522058466305E-01  1.1733870795797E+00
83  8.2000000000000E-01 -6.5577423811099E-01  1.2995700769693E+00
84  8.3000000000000E-01 -6.3281665994948E-01  1.4243530207516E+00
85  8.4000000000000E-01 -6.0678750411288E-01  1.5459450894887E+00
86  8.5000000000000E-01 -5.7814414465334E-01  1.6624286852881E+00
87  8.6000000000000E-01 -5.4735504233049E-01  1.7718035367695E+00
88  8.7000000000000E-01 -5.1489279442495E-01  1.8720370033746E+00
89  8.8000000000000E-01 -4.8122701542115E-01  1.9611191428731E+00
90  8.9000000000000E-01 -4.4681720906242E-01  2.0371208784662E+00
91  9.0000000000000E-01 -4.1210580055953E-01  2.0982534298703E+00
92  9.1000000000000E-01 -3.7751150095525E-01  2.1429270616435E+00
93  9.2000000000000E-01 -3.4342317349800E-01  2.1698071571871E+00
94  9.3000000000000E-01 -3.1019436422476E-01  2.1778656513940E+00
95  9.4000000000000E-01 -2.7813864585705E-01  2.1664259494428E+00
96  9.5000000000000E-01 -2.4752590582359E-01  2.1351996218653E+00
97  9.6000000000000E-01 -2.1857968617604E-01  2.0843133923968E+00
98  9.7000000000000E-01 -1.9147565599133E-01  2.0143252183619E+00
99  9.8000000000000E-01 -1.6634126630185E-01  1.9262285948618E+00
100  9.9000000000000E-01 -1.4325660460739E-01  1.8214445827131E+00
101  1.0000000000000E+00 -1.2225643158652E-01  1.7018014540095E+00
102  1.0100000000000E+00 -1.0333334786099E-01  1.5695022546346E+00
103  1.0200000000000E+00 -8.6442004642045E-02  1.4270809867828E+00
104  1.0300000000000E+00 -7.1504239980549E-02  1.2773485018092E+00
105  1.0400000000000E+00 -5.8414993205407E-02  1.1233295511448E+00
106  1.0500000000000E+00 -4.7048824917160E-02  9.6819275841131E-01
107  1.0600000000000E+00 -3.7266849568154E-02  8.1517553679538E-01
108  1.0700000000000E+00 -2.8923872858395E-02  6.6750617350667E-01
109  1.0800000000000E+00 -2.1875535815075E-02  5.2832528400358E-01
110  1.0900000000000E+00 -1.5985080253453E-02  4.0061031495615E-01
111  1.1000000000000E+00 -1.1138858848301E-02  2.8702633839795E-01
112  1.1100000000000E+00 -7.2611945336640E-03  1.8976194934194E-01
113  1.1200000000000E+00 -4.2506055652713E-03  1.1105743480207E-01
114  1.1300000000000E+00 -2.0436511635027E-03  5.2636402000879E-02
115  1.1400000000000E+00 -6.2094943508981E-04  1.5557400757149E-02
116  1.1500000000000E+00 -2.7267871064673E-05  6.5487698882696E-04
117  1.1600000000000E+00 -1.8492301023837E-06  4.4689812737974E-05
118  1.1700000000000E+00  5.1177817220541E-07 -1.2567494739244E-05
119  1.18  0.  0.
120  1.19  0.  0.
121  1.20  0.  0.
122  1.21  0.  0.
123  1.22  0.  0.
124  1.23  0.  0.
125  1.24  0.  0.
126  1.25  0.  0.
127  1.26  0.  0.
128  1.27  0.  0.
129  1.28  0.  0.
130  1.29  0.  0.
131  1.30  0.  0.
132  1.31  0.  0.
133  1.32  0.  0.
134  1.33  0.  0.
135  1.34  0.  0.
136  1.35  0.  0.
137  1.36  0.  0.
138  1.37  0.  0.
139  1.38  0.  0.
140  1.39  0.  0.
141  1.40  0.  0.
142  1.41  0.  0.
143  1.42  0.  0.
144  1.43  0.  0.
145  1.44  0.  0.
146  1.45  0.  0.
147  1.46  0.  0.
148  1.47  0.  0.
149  1.48  0.  0.
150  1.49  0.  0.
151  1.50  0.  0.
152  1.51  0.  0.
153  1.52  0.  0.
154  1.53  0.  0.
155  1.54  0.  0.
156  1.55  0.  0.
157  1.56  0.  0.
158  1.57  0.  0.
159  1.58  0.  0.
160  1.59  0.  0.
161  1.60  0.  0.
162  1.61  0.  0.
163  1.62  0.  0.
164  1.63  0.  0.
165  1.64  0.  0.