Bk    ONCVPSP-4.0.1  r_core=   1.15197   1.15197   1.35390   1.35390
     97.0000     37.0000      211211    zatom,zion,pspd
     8      11   3     4   600     0    pspcod,pspxc,lmax,lloc,mmax,r2well
  5.99000000  5.00000000  0.00000000    rchrg fchrg qchrg
     3     2     2     2     0    nproj
     1     1           extension_switch
   0                         2.5562995349837E+01  3.3734928060499E+00 -1.0336776601998E+00
     1  0.0000000000000E+00 -1.4881908150244E-07  4.5747346344438E-07  3.0753037699727E-08
     2  1.0000000000000E-02  1.6139298421076E-01 -8.6381256847101E-02  2.3456260238044E-02
     3  2.0000000000000E-02  3.2129575783485E-01 -1.6999813034986E-01  4.7000739627443E-02
     4  3.0000000000000E-02  4.7825018577002E-01 -2.4817668367292E-01  7.0715392925707E-02
     5  4.0000000000000E-02  6.3086119797233E-01 -3.1842055236176E-01  9.4669889545997E-02
     6  5.0000000000000E-02  7.7782564828068E-01 -3.7849155511320E-01  1.1891607112512E-01
     7  6.0000000000000E-02  9.1795807821183E-01 -4.2648084249491E-01  1.4348310622626E-01
     8  7.0000000000000E-02  1.0502125383894E+00 -4.6086799603930E-01  1.6837353678854E-01
     9  8.0000000000000E-02  1.1736997690892E+00 -4.8056594761149E-01  1.9356038018249E-01
    10  9.0000000000000E-02  1.2876992163428E+00 -4.8495012700392E-01  2.1898541424925E-01
    11  1.0000000000000E-01  1.3916655544046E+00 -4.7387084374013E-01  2.4455873170336E-01
    12  1.1000000000000E-01  1.4852295916539E+00 -4.4764854417706E-01  2.7015960612863E-01
    13  1.2000000000000E-01  1.5681936472470E+00 -4.0705223286945E-01  2.9563866596273E-01
    14  1.3000000000000E-01  1.6405216919381E+00 -3.5326198300224E-01  3.2082132687933E-01
    15  1.4000000000000E-01  1.7023247405366E+00 -2.8781706018227E-01  3.4551238837369E-01
    16  1.5000000000000E-01  1.7538421579897E+00 -2.1255172408382E-01  3.6950165863442E-01
    17  1.6000000000000E-01  1.7954196893684E+00 -1.2952123272130E-01  3.9257043434599E-01
    18  1.7000000000000E-01  1.8274851404131E+00 -4.0920936915046E-02  4.1449863017934E-01
    19  1.8000000000000E-01  1.8505227153000E+00  5.0998395997542E-02  4.3507232748028E-01
    20  1.9000000000000E-01  1.8650470588991E+00  1.4401575949926E-01  4.5409149392832E-01
    21  2.0000000000000E-01  1.8715780504845E+00  2.3602231163745E-01  4.7137761633862E-01
    22  2.1000000000000E-01  1.8706173547183E+00  3.2509785136701E-01  4.8678098767800E-01
    23  2.2000000000000E-01  1.8626276554173E+00  4.0957845548914E-01  5.0018739684272E-01
    24  2.3000000000000E-01  1.8480153813126E+00  4.8811271752738E-01  5.1152398560052E-01
    25  2.4000000000000E-01  1.8271175853061E+00  5.5970448102164E-01  5.2076406085320E-01
    26  2.5000000000000E-01  1.8001934654217E+00  6.2374049118452E-01  5.2793068128958E-01
    27  2.6000000000000E-01  1.7674208235233E+00  6.8000198006535E-01  5.3309887459244E-01
    28  2.7000000000000E-01  1.7288975544717E+00  7.2865982845835E-01  5.3639638345038E-01
    29  2.8000000000000E-01  1.6846480516605E+00  7.7025358850857E-01  5.3800288435349E-01
    30  2.9000000000000E-01  1.6346342129131E+00  8.0565527958333E-01  5.3814767103677E-01
    31  3.0000000000000E-01  1.5787705414290E+00  8.3601946225502E-01  5.3710584292476E-01
    32  3.1000000000000E-01  1.5169426672520E+00  8.6272162837439E-01  5.3519308643850E-01
    33  3.2000000000000E-01  1.4490284722118E+00  8.8728739870248E-01  5.3275918199874E-01
    34  3.3000000000000E-01  1.3749208910425E+00  9.1131537602093E-01  5.3018041051702E-01
    35  3.4000000000000E-01  1.2945513877282E+00  9.3639674743536E-01  5.2785106875893E-01
    36  3.5000000000000E-01  1.2079130719431E+00  9.6403485540127E-01  5.2617433200981E-01
    37  3.6000000000000E-01  1.1150824271046E+00  9.9556795817267E-01  5.2555272400767E-01
    38  3.7000000000000E-01  1.0162386687754E+00  1.0320982770660E+00  5.2637846740298E-01
    39  3.8000000000000E-01  9.1167983811582E-01  1.0744301851356E+00  5.2902399261043E-01
    40  3.9000000000000E-01  8.0183485645793E-01  1.1230200391714E+00  5.3383287865910E-01
    41  4.0000000000000E-01  6.8727091911619E-01  1.1779397081859E+00  5.4111148665137E-01
    42  4.1000000000000E-01  5.6869578336973E-01  1.2388553243089E+00  5.5112152511481E-01
    43  4.2000000000000E-01  4.4695470026380E-01  1.3050221967363E+00  5.6407375756408E-01
    44  4.3000000000000E-01  3.2302194493025E-01  1.3752962088432E+00  5.8012302692215E-01
    45  4.4000000000000E-01  1.9798710756720E-01  1.4481613867562E+00  5.9936473024695E-01
    46  4.5000000000000E-01  7.3036509022113E-02  1.5217727089531E+00  6.2183283182140E-01
    47  4.6000000000000E-01 -5.0569706700253E-02  1.5940126446110E+00  6.4749945458467E-01
    48  4.7000000000000E-01 -1.7152408297615E-01  1.6625593856786E+00  6.7627604069362E-01
    49  4.8000000000000E-01 -2.8850110349629E-01  1.7249642938751E+00  7.0801602333033E-01
    50  4.9000000000000E-01 -4.0018821874973E-01  1.7787357357061E+00  7.4251890532213E-01
    51  5.0000000000000E-01 -5.0531760550012E-01  1.8214262390338E+00  7.7953559725570E-01
    52  5.1000000000000E-01 -6.0269758608584E-01  1.8507197823588E+00  8.1877482996566E-01
    53  5.2000000000000E-01 -6.9124264194701E-01  1.8645160267622E+00  8.5991042481076E-01
    54  5.3000000000000E-01 -7.7000100305150E-01  1.8610084196979E+00  9.0258918105768E-01
    55  5.4000000000000E-01 -8.3817887982833E-01  1.8387533341150E+00  9.4643912376551E-01
    56  5.5000000000000E-01 -8.9516052333569E-01  1.7967277458714E+00  9.9107784832064E-01
    57  5.6000000000000E-01 -9.4052344790945E-01  1.7343733832508E+00  1.0361206994381E+00
    58  5.7000000000000E-01 -9.7404832255377E-01  1.6516257872948E+00  1.0811885329445E+00
    59  5.8000000000000E-01 -9.9572322609665E-01  1.5489272806173E+00  1.1259148276123E+00
    60  5.9000000000000E-01 -1.0057421592868E+00  1.4272234334441E+00  1.1699519410650E+00
    61  6.0000000000000E-01 -1.0044979069179E+00  1.2879432158773E+00  1.2129763373813E+00
    62  6.1000000000000E-01 -9.9256953710794E-01  1.1329636117527E+00  1.2546926533341E+00
    63  6.2000000000000E-01 -9.7070500573554E-01  9.6456001973675E-01  1.2948365138399E+00
    64  6.3000000000000E-01 -9.3979949504259E-01  7.8534426090606E-01  1.3331760536531E+00
    65  6.4000000000000E-01 -9.0087025073813E-01  5.9819243095786E-01  1.3695121500073E+00
    66  6.5000000000000E-01 -8.5502878684376E-01  4.0616516450066E-01  1.4036774181183E+00
    67  6.6000000000000E-01 -8.0345139854814E-01  2.1242310743980E-01  1.4355340665772E+00
    68  6.7000000000000E-01 -7.4734895841779E-01  2.0140514289878E-02  1.4649707510979E+00
    69  6.8000000000000E-01 -6.8793696982234E-01 -1.6758010237461E-01  1.4918986013776E+00
    70  6.9000000000000E-01 -6.2640681422079E-01 -3.4778944143970E-01  1.5162466257061E+00
    71  7.0000000000000E-01 -5.6389905825115E-01 -5.1776637393995E-01  1.5379567203366E+00
    72  7.1000000000000E-01 -5.0147958590415E-01 -6.7508406103000E-01  1.5569785247070E+00
    73  7.2000000000000E-01 -4.4011919506655E-01 -8.1766526879598E-01  1.5732643688344E+00
    74  7.3000000000000E-01 -3.8067715194713E-01 -9.4382535618145E-01  1.5867645553657E+00
    75  7.4000000000000E-01 -3.2388903755491E-01 -1.0523018939409E+00  1.5974232059497E+00
    76  7.5000000000000E-01 -2.7035905406253E-01 -1.1422703794527E+00  1.6051748801700E+00
    77  7.6000000000000E-01 -2.2055679228983E-01 -1.2133460241319E+00  1.6099421459543E+00
    78  7.7000000000000E-01 -1.7481830120169E-01 -1.2655720872432E+00  1.6116342441119E+00
    79  7.8000000000000E-01 -1.3335115232170E-01 -1.2993956933937E+00  1.6101469476526E+00
    80  7.9000000000000E-01 -9.6243061753734E-02 -1.3156324839420E+00  1.6053636702424E+00
    81  8.0000000000000E-01 -6.3473524578080E-02 -1.3154218007044E+00  1.5971578291122E+00
    82  8.1000000000000E-01 -3.4927834225355E-02 -1.3001743723237E+00  1.5853964176563E+00
    83  8.2000000000000E-01 -1.0412805311447E-02 -1.2715146616372E+00  1.5699446935708E+00
    84  8.3000000000000E-01  1.0326506601063E-02 -1.2312201320752E+00  1.5506718414275E+00
    85  8.4000000000000E-01  2.7589790960160E-02 -1.1811597020370E+00  1.5274574257343E+00
    86  8.5000000000000E-01  4.1704845132494E-02 -1.1232335813829E+00  1.5001984133702E+00
    87  8.6000000000000E-01  5.3011929037806E-02 -1.0593165300542E+00  1.4688165142004E+00
    88  8.7000000000000E-01  6.1849648209703E-02 -9.9120635472981E-01  1.4332655668855E+00
    89  8.8000000000000E-01  6.8542806470550E-02 -9.2057917708358E-01  1.3935386843433E+00
    90  8.9000000000000E-01  7.3392561182320E-02 -8.4895268013536E-01  1.3496748707122E+00
    91  9.0000000000000E-01  7.6669098117920E-02 -7.7765818201652E-01  1.3017648293754E+00
    92  9.1000000000000E-01  7.8606924476096E-02 -7.0782201420141E-01  1.2499556997644E+00
    93  9.2000000000000E-01  7.9402762302965E-02 -6.4035630847534E-01  1.1944544890457E+00
    94  9.3000000000000E-01  7.9215915075431E-02 -5.7595893730226E-01  1.1355300029364E+00
    95  9.4000000000000E-01  7.8170881250997E-02 -5.1512201768315E-01  1.0735131270239E+00
    96  9.5000000000000E-01  7.6361903223645E-02 -4.5814808881605E-01  1.0087953650751E+00
    97  9.6000000000000E-01  7.3859070405632E-02 -4.0517281592967E-01  9.4182560271391E-01
    98  9.7000000000000E-01  7.0715542112122E-02 -3.5619286074989E-01  8.7310513207411E-01
    99  9.8000000000000E-01  6.6975419456563E-02 -3.1109739403100E-01  8.0318104416464E-01
   100  9.9000000000000E-01  6.2681774447473E-02 -2.6970160547924E-01  7.3263816899756E-01
   101  1.0000000000000E+00  5.7884336667471E-02 -2.3178048585909E-01  6.6208981745617E-01
   102  1.0100000000000E+00  5.2646340162175E-02 -1.9710110717941E-01  5.9216765168375E-01
   103  1.0200000000000E+00  4.7050041506988E-02 -1.6545159911526E-01  5.2351108095810E-01
   104  1.0300000000000E+00  4.1200429786528E-02 -1.3666500076790E-01  4.5675664593886E-01
   105  1.0400000000000E+00  3.5226655329578E-02 -1.1063614257093E-01  3.9252791447507E-01
   106  1.0500000000000E+00  2.9280701103546E-02 -8.7329668645586E-02  3.3142646568587E-01
   107  1.0600000000000E+00  2.3532803206670E-02 -6.6777229974655E-02  2.7402458453523E-01
   108  1.0700000000000E+00  1.8163089731594E-02 -4.9061748686998E-02  2.2086032589346E-01
   109  1.0800000000000E+00  1.3348791368142E-02 -3.4286318293580E-02  1.7243559036827E-01
   110  1.0900000000000E+00  9.2468272201940E-03 -2.2526434676102E-02  1.2921831098039E-01
   111  1.1000000000000E+00  5.9436005324315E-03 -1.3690658613357E-02  9.1626189074607E-02
   112  1.1100000000000E+00  3.3980496607532E-03 -7.3543022513954E-03  6.0012199379655E-02
   113  1.1200000000000E+00  1.6294734532553E-03 -3.2628993419397E-03  3.4822900519699E-02
   114  1.1300000000000E+00  5.7826804972809E-04 -1.0261847601573E-03  1.6376805161908E-02
   115  1.1400000000000E+00  1.0644065510134E-04 -1.4103681947736E-04  4.8066479250115E-03
   116  1.1500000000000E+00  1.2398878948352E-06  1.8073936475517E-06  2.0098314492238E-04
   117  1.1600000000000E+00  1.0649719420953E-07  7.7782372577944E-08  1.3718511661844E-05
   118  1.1700000000000E+00 -5.5373249893031E-08  3.9805940310248E-08 -3.8692401584525E-06
   119  1.18  0.  0.  0.
   120  1.19  0.  0.  0.
   121  1.20  0.  0.  0.
   122  1.21  0.  0.  0.
   123  1.22  0.  0.  0.
   124  1.23  0.  0.  0.
   125  1.24  0.  0.  0.
   126  1.25  0.  0.  0.
   127  1.26  0.  0.  0.
   128  1.27  0.  0.  0.
   129  1.28  0.  0.  0.
   130  1.29  0.  0.  0.
   131  1.30  0.  0.  0.
   132  1.31  0.  0.  0.
   133  1.32  0.  0.  0.
   134  1.33  0.  0.  0.
   135  1.34  0.  0.  0.
   136  1.35  0.  0.  0.
   137  1.36  0.  0.  0.
   138  1.37  0.  0.  0.
   139  1.38  0.  0.  0.
   140  1.39  0.  0.  0.
   141  1.40  0.  0.  0.
   142  1.41  0.  0.  0.
   143  1.42  0.  0.  0.
   144  1.43  0.  0.  0.
   145  1.44  0.  0.  0.
   146  1.45  0.  0.  0.
   147  1.46  0.  0.  0.
   148  1.47  0.  0.  0.
   149  1.48  0.  0.  0.
   150  1.49  0.  0.  0.
   151  1.50  0.  0.  0.
   152  1.51  0.  0.  0.
   153  1.52  0.  0.  0.
   154  1.53  0.  0.  0.
   155  1.54  0.  0.  0.
   156  1.55  0.  0.  0.
   157  1.56  0.  0.  0.
   158  1.57  0.  0.  0.
   159  1.58  0.  0.  0.
   160  1.59  0.  0.  0.
   161  1.60  0.  0.  0.
   162  1.61  0.  0.  0.
   163  1.62  0.  0.  0.
   164  1.63  0.  0.  0.
   165  1.64  0.  0.  0.
   166  1.65  0.  0.  0.
   167  1.66  0.  0.  0.
   168  1.67  0.  0.  0.
   169  1.68  0.  0.  0.
   170  1.69  0.  0.  0.
   171  1.70  0.  0.  0.
   172  1.71  0.  0.  0.
   173  1.72  0.  0.  0.
   174  1.73  0.  0.  0.
   175  1.74  0.  0.  0.
   176  1.75  0.  0.  0.
   177  1.76  0.  0.  0.
   178  1.77  0.  0.  0.
   179  1.78  0.  0.  0.
   180  1.79  0.  0.  0.
   181  1.80  0.  0.  0.
   182  1.81  0.  0.  0.
   183  1.82  0.  0.  0.
   184  1.83  0.  0.  0.
   185  1.84  0.  0.  0.
   186  1.85  0.  0.  0.
   187  1.86  0.  0.  0.
   188  1.87  0.  0.  0.
   189  1.88  0.  0.  0.
   190  1.89  0.  0.  0.
   191  1.90  0.  0.  0.
   192  1.91  0.  0.  0.
   193  1.92  0.  0.  0.
   194  1.93  0.  0.  0.
   195  1.94  0.  0.  0.
   196  1.95  0.  0.  0.
   197  1.96  0.  0.  0.
   198  1.97  0.  0.  0.
   199  1.98  0.  0.  0.
   200  1.99  0.  0.  0.
   201  2.00  0.  0.  0.
   202  2.01  0.  0.  0.
   203  2.02  0.  0.  0.
   204  2.03  0.  0.  0.
   205  2.04  0.  0.  0.
   206  2.05  0.  0.  0.
   207  2.06  0.  0.  0.
   208  2.07  0.  0.  0.
   209  2.08  0.  0.  0.
   210  2.09  0.  0.  0.
   211  2.10  0.  0.  0.
   212  2.11  0.  0.  0.
   213  2.12  0.  0.  0.
   214  2.13  0.  0.  0.
   215  2.14  0.  0.  0.
   216  2.15  0.  0.  0.
   217  2.16  0.  0.  0.
   218  2.17  0.  0.  0.
   219  2.18  0.  0.  0.
   220  2.19  0.  0.  0.
   221  2.20  0.  0.  0.
   222  2.21  0.  0.  0.
   223  2.22  0.  0.  0.
   224  2.23  0.  0.  0.
   225  2.24  0.  0.  0.
   226  2.25  0.  0.  0.
   227  2.26  0.  0.  0.
   228  2.27  0.  0.  0.
   229  2.28  0.  0.  0.
   230  2.29  0.  0.  0.
   231  2.30  0.  0.  0.
   232  2.31  0.  0.  0.
   233  2.32  0.  0.  0.
   234  2.33  0.  0.  0.
   235  2.34  0.  0.  0.
   236  2.35  0.  0.  0.
   237  2.36  0.  0.  0.
   238  2.37  0.  0.  0.
   239  2.38  0.  0.  0.
   240  2.39  0.  0.  0.
   241  2.40  0.  0.  0.
   242  2.41  0.  0.  0.
   243  2.42  0.  0.  0.
   244  2.43  0.  0.  0.
   245  2.44  0.  0.  0.
   246  2.45  0.  0.  0.
   247  2.46  0.  0.  0.
   248  2.47  0.  0.  0.
   249  2.48  0.  0.  0.
   250  2.49  0.  0.  0.
   251  2.50  0.  0.  0.
   252  2.51  0.  0.  0.
   253  2.52  0.  0.  0.
   254  2.53  0.  0.  0.
   255  2.54  0.  0.  0.
   256  2.55  0.  0.  0.
   257  2.56  0.  0.  0.
   258  2.57  0.  0.  0.
   259  2.58  0.  0.  0.
   260  2.59  0.  0.  0.
   261  2.60  0.  0.  0.
   262  2.61  0.  0.  0.
   263  2.62  0.  0.  0.
   264  2.63  0.  0.  0.
   265  2.64  0.  0.  0.
   266  2.65  0.  0.  0.
   267  2.66  0.  0.  0.
   268  2.67  0.  0.  0.
   269  2.68  0.  0.  0.
   270  2.69  0.  0.  0.
   271  2.70  0.  0.  0.
   272  2.71  0.  0.  0.
   273  2.72  0.  0.  0.
   274  2.73  0.  0.  0.
   275  2.74  0.  0.  0.
   276  2.75  0.  0.  0.
   277  2.76  0.  0.  0.
   278  2.77  0.  0.  0.
   279  2.78  0.  0.  0.
   280  2.79  0.  0.  0.
   281  2.80  0.  0.  0.
   282  2.81  0.  0.  0.
   283  2.82  0.  0.  0.
   284  2.83  0.  0.  0.
   285  2.84  0.  0.  0.
   286  2.85  0.  0.  0.
   287  2.86  0.  0.  0.
   288  2.87  0.  0.  0.
   289  2.88  0.  0.  0.
   290  2.89  0.  0.  0.
   291  2.90  0.  0.  0.
   292  2.91  0.  0.  0.
   293  2.92  0.  0.  0.
   294  2.93  0.  0.  0.
   295  2.94  0.  0.  0.
   296  2.95  0.  0.  0.
   297  2.96  0.  0.  0.
   298  2.97  0.  0.  0.
   299  2.98  0.  0.  0.
   300  2.99  0.  0.  0.
   301  3.00  0.  0.  0.
   302  3.01  0.  0.  0.
   303  3.02  0.  0.  0.
   304  3.03  0.  0.  0.
   305  3.04  0.  0.  0.
   306  3.05  0.  0.  0.
   307  3.06  0.  0.  0.
   308  3.07  0.  0.  0.
   309  3.08  0.  0.  0.
   310  3.09  0.  0.  0.
   311  3.10  0.  0.  0.
   312  3.11  0.  0.  0.
   313  3.12  0.  0.  0.
   314  3.13  0.  0.  0.
   315  3.14  0.  0.  0.
   316  3.15  0.  0.  0.
   317  3.16  0.  0.  0.
   318  3.17  0.  0.  0.
   319  3.18  0.  0.  0.
   320  3.19  0.  0.  0.
   321  3.20  0.  0.  0.
   322  3.21  0.  0.  0.
   323  3.22  0.  0.  0.
   324  3.23  0.  0.  0.
   325  3.24  0.  0.  0.
   326  3.25  0.  0.  0.
   327  3.26  0.  0.  0.
   328  3.27  0.  0.  0.
   329  3.28  0.  0.  0.
   330  3.29  0.  0.  0.
   331  3.30  0.  0.  0.
   332  3.31  0.  0.  0.
   333  3.32  0.  0.  0.
   334  3.33  0.  0.  0.
   335  3.34  0.  0.  0.
   336  3.35  0.  0.  0.
   337  3.36  0.  0.  0.
   338  3.37  0.  0.  0.
   339  3.38  0.  0.  0.
   340  3.39  0.  0.  0.
   341  3.40  0.  0.  0.
   342  3.41  0.  0.  0.
   343  3.42  0.  0.  0.
   344  3.43  0.  0.  0.
   345  3.44  0.  0.  0.
   346  3.45  0.  0.  0.
   347  3.46  0.  0.  0.
   348  3.47  0.  0.  0.
   349  3.48  0.  0.  0.
   350  3.49  0.  0.  0.
   351  3.50  0.  0.  0.
   352  3.51  0.  0.  0.
   353  3.52  0.  0.  0.
   354  3.53  0.  0.  0.
   355  3.54  0.  0.  0.
   356  3.55  0.  0.  0.
   357  3.56  0.  0.  0.
   358  3.57  0.  0.  0.
   359  3.58  0.  0.  0.
   360  3.59  0.  0.  0.
   361  3.60  0.  0.  0.
   362  3.61  0.  0.  0.
   363  3.62  0.  0.  0.
   364  3.63  0.  0.  0.
   365  3.64  0.  0.  0.
   366  3.65  0.  0.  0.
   367  3.66  0.  0.  0.
   368  3.67  0.  0.  0.
   369  3.68  0.  0.  0.
   370  3.69  0.  0.  0.
   371  3.70  0.  0.  0.
   372  3.71  0.  0.  0.
   373  3.72  0.  0.  0.
   374  3.73  0.  0.  0.
   375  3.74  0.  0.  0.
   376  3.75  0.  0.  0.
   377  3.76  0.  0.  0.
   378  3.77  0.  0.  0.
   379  3.78  0.  0.  0.
   380  3.79  0.  0.  0.
   381  3.80  0.  0.  0.
   382  3.81  0.  0.  0.
   383  3.82  0.  0.  0.
   384  3.83  0.  0.  0.
   385  3.84  0.  0.  0.
   386  3.85  0.  0.  0.
   387  3.86  0.  0.  0.
   388  3.87  0.  0.  0.
   389  3.88  0.  0.  0.
   390  3.89  0.  0.  0.
   391  3.90  0.  0.  0.
   392  3.91  0.  0.  0.
   393  3.92  0.  0.  0.
   394  3.93  0.  0.  0.
   395  3.94  0.  0.  0.
   396  3.95  0.  0.  0.
   397  3.96  0.  0.  0.
   398  3.97  0.  0.  0.
   399  3.98  0.  0.  0.
   400  3.99  0.  0.  0.
   401  4.00  0.  0.  0.
   402  4.01  0.  0.  0.
   403  4.02  0.  0.  0.
   404  4.03  0.  0.  0.
   405  4.04  0.  0.  0.
   406  4.05  0.  0.  0.
   407  4.06  0.  0.  0.
   408  4.07  0.  0.  0.
   409  4.08  0.  0.  0.
   410  4.09  0.  0.  0.
   411  4.10  0.  0.  0.
   412  4.11  0.  0.  0.
   413  4.12  0.  0.  0.
   414  4.13  0.  0.  0.
   415  4.14  0.  0.  0.
   416  4.15  0.  0.  0.
   417  4.16  0.  0.  0.
   418  4.17  0.  0.  0.
   419  4.18  0.  0.  0.
   420  4.19  0.  0.  0.
   421  4.20  0.  0.  0.
   422  4.21  0.  0.  0.
   423  4.22  0.  0.  0.
   424  4.23  0.  0.  0.
   425  4.24  0.  0.  0.
   426  4.25  0.  0.  0.
   427  4.26  0.  0.  0.
   428  4.27  0.  0.  0.
   429  4.28  0.  0.  0.
   430  4.29  0.  0.  0.
   431  4.30  0.  0.  0.
   432  4.31  0.  0.  0.
   433  4.32  0.  0.  0.
   434  4.33  0.  0.  0.
   435  4.34  0.  0.  0.
   436  4.35  0.  0.  0.
   437  4.36  0.  0.  0.
   438  4.37  0.  0.  0.
   439  4.38  0.  0.  0.
   440  4.39  0.  0.  0.
   441  4.40  0.  0.  0.
   442  4.41  0.  0.  0.
   443  4.42  0.  0.  0.
   444  4.43  0.  0.  0.
   445  4.44  0.  0.  0.
   446  4.45  0.  0.  0.
   447  4.46  0.  0.  0.
   448  4.47  0.  0.  0.
   449  4.48  0.  0.  0.
   450  4.49  0.  0.  0.
   451  4.50  0.  0.  0.
   452  4.51  0.  0.  0.
   453  4.52  0.  0.  0.
   454  4.53  0.  0.  0.
   455  4.54  0.  0.  0.
   456  4.55  0.  0.  0.
   457  4.56  0.  0.  0.
   458  4.57  0.  0.  0.
   459  4.58  0.  0.  0.
   460  4.59  0.  0.  0.
   461  4.60  0.  0.  0.
   462  4.61  0.  0.  0.
   463  4.62  0.  0.  0.
   464  4.63  0.  0.  0.
   465  4.64  0.  0.  0.
   466  4.65  0.  0.  0.
   467  4.66  0.  0.  0.
   468  4.67  0.  0.  0.
   469  4.68  0.  0.  0.
   470  4.69  0.  0.  0.
   471  4.70  0.  0.  0.
   472  4.71  0.  0.  0.
   473  4.72  0.  0.  0.
   474  4.73  0.  0.  0.
   475  4.74  0.  0.  0.
   476  4.75  0.  0.  0.
   477  4.76  0.  0.  0.
   478  4.77  0.  0.  0.
   479  4.78  0.  0.  0.
   480  4.79  0.  0.  0.
   481  4.80  0.  0.  0.
   482  4.81  0.  0.  0.
   483  4.82  0.  0.  0.
   484  4.83  0.  0.  0.
   485  4.84  0.  0.  0.
   486  4.85  0.  0.  0.
   487  4.86  0.  0.  0.
   488  4.87  0.  0.  0.
   489  4.88  0.  0.  0.
   490  4.89  0.  0.  0.
   491  4.90  0.  0.  0.
   492  4.91  0.  0.  0.
   493  4.92  0.  0.  0.
   494  4.93  0.  0.  0.
   495  4.94  0.  0.  0.
   496  4.95  0.  0.  0.
   497  4.96  0.  0.  0.
   498  4.97  0.  0.  0.
   499  4.98  0.  0.  0.
   500  4.99  0.  0.  0.
   501  5.00  0.  0.  0.
   502  5.01  0.  0.  0.
   503  5.02  0.  0.  0.
   504  5.03  0.  0.  0.
   505  5.04  0.  0.  0.
   506  5.05  0.  0.  0.
   507  5.06  0.  0.  0.
   508  5.07  0.  0.  0.
   509  5.08  0.  0.  0.
   510  5.09  0.  0.  0.
   511  5.10  0.  0.  0.
   512  5.11  0.  0.  0.
   513  5.12  0.  0.  0.
   514  5.13  0.  0.  0.
   515  5.14  0.  0.  0.
   516  5.15  0.  0.  0.
   517  5.16  0.  0.  0.
   518  5.17  0.  0.  0.
   519  5.18  0.  0.  0.
   520  5.19  0.  0.  0.
   521  5.20  0.  0.  0.
   522  5.21  0.  0.  0.
   523  5.22  0.  0.  0.
   524  5.23  0.  0.  0.
   525  5.24  0.  0.  0.
   526  5.25  0.  0.  0.
   527  5.26  0.  0.  0.
   528  5.27  0.  0.  0.
   529  5.28  0.  0.  0.
   530  5.29  0.  0.  0.
   531  5.30  0.  0.  0.
   532  5.31  0.  0.  0.
   533  5.32  0.  0.  0.
   534  5.33  0.  0.  0.
   535  5.34  0.  0.  0.
   536  5.35  0.  0.  0.
   537  5.36  0.  0.  0.
   538  5.37  0.  0.  0.
   539  5.38  0.  0.  0.
   540  5.39  0.  0.  0.
   541  5.40  0.  0.  0.
   542  5.41  0.  0.  0.
   543  5.42  0.  0.  0.
   544  5.43  0.  0.  0.
   545  5.44  0.  0.  0.
   546  5.45  0.  0.  0.
   547  5.46  0.  0.  0.
   548  5.47  0.  0.  0.
   549  5.48  0.  0.  0.
   550  5.49  0.  0.  0.
   551  5.50  0.  0.  0.
   552  5.51  0.  0.  0.
   553  5.52  0.  0.  0.
   554  5.53  0.  0.  0.
   555  5.54  0.  0.  0.
   556  5.55  0.  0.  0.
   557  5.56  0.  0.  0.
   558  5.57  0.  0.  0.
   559  5.58  0.  0.  0.
   560  5.59  0.  0.  0.
   561  5.60  0.  0.  0.
   562  5.61  0.  0.  0.
   563  5.62  0.  0.  0.
   564  5.63  0.  0.  0.
   565  5.64  0.  0.  0.
   566  5.65  0.  0.  0.
   567  5.66  0.  0.  0.
   568  5.67  0.  0.  0.
   569  5.68  0.  0.  0.
   570  5.69  0.  0.  0.
   571  5.70  0.  0.  0.
   572  5.71  0.  0.  0.
   573  5.72  0.  0.  0.
   574  5.73  0.  0.  0.
   575  5.74  0.  0.  0.
   576  5.75  0.  0.  0.
   577  5.76  0.  0.  0.
   578  5.77  0.  0.  0.
   579  5.78  0.  0.  0.
   580  5.79  0.  0.  0.
   581  5.80  0.  0.  0.
   582  5.81  0.  0.  0.
   583  5.82  0.  0.  0.
   584  5.83  0.  0.  0.
   585  5.84  0.  0.  0.
   586  5.85  0.  0.  0.
   587  5.86  0.  0.  0.
   588  5.87  0.  0.  0.
   589  5.88  0.  0.  0.
   590  5.89  0.  0.  0.
   591  5.90  0.  0.  0.
   592  5.91  0.  0.  0.
   593  5.92  0.  0.  0.
   594  5.93  0.  0.  0.
   595  5.94  0.  0.  0.
   596  5.95  0.  0.  0.
   597  5.96  0.  0.  0.
   598  5.97  0.  0.  0.
   599  5.98  0.  0.  0.
   600  5.99  0.  0.  0.
   1                         8.3440907585477E+00 -8.7474384638350E-01
     1  0.0000000000000E+00 -2.6045605283631E-08 -6.0027732445541E-08
     2  1.0000000000000E-02  3.8337224511264E-03 -1.5065272276884E-04
     3  2.0000000000000E-02  1.5312697144161E-02 -5.7697528136837E-04
     4  3.0000000000000E-02  3.4370095137381E-02 -1.2031267406509E-03
     5  4.0000000000000E-02  6.0893717547988E-02 -1.9062159169557E-03
     6  5.0000000000000E-02  9.4724836047360E-02 -2.5214194737827E-03
     7  6.0000000000000E-02  1.3565669958868E-01 -2.8488582010670E-03
     8  7.0000000000000E-02  1.8343283075611E-01 -2.6619559157327E-03
     9  8.0000000000000E-02  2.3774526117038E-01 -1.7169453934702E-03
    10  9.0000000000000E-02  2.9823287501166E-01  2.3686123252209E-04
    11  1.0000000000000E-01  3.6448004201977E-01  3.4464522304044E-03
    12  1.1000000000000E-01  4.3601572567690E-01  8.1445766583657E-03
    13  1.2000000000000E-01  5.1231324834996E-01  1.4539714807759E-02
    14  1.3000000000000E-01  5.9279088296945E-01  2.2806970141166E-02
    15  1.4000000000000E-01  6.7681342067254E-01  3.3080259851158E-02
    16  1.5000000000000E-01  7.6369483637799E-01  4.5446131754379E-02
    17  1.6000000000000E-01  8.5270214041803E-01  5.9939472545145E-02
    18  1.7000000000000E-01  9.4306046531526E-01  7.6541298801880E-02
    19  1.8000000000000E-01  1.0339593939674E+00  9.5178740340744E-02
    20  1.9000000000000E-01  1.1245604904600E+00  1.1572723865025E-01
    21  2.0000000000000E-01  1.2140059491478E+00  1.3801489454532E-01
    22  2.1000000000000E-01  1.3014282332591E+00  1.6182881226888E-01
    23  2.2000000000000E-01  1.3859605327908E+00  1.8692320543447E-01
    24  2.3000000000000E-01  1.4667478345114E+00  2.1302895666939E-01
    25  2.4000000000000E-01  1.5429583659509E+00  2.3986426053085E-01
    26  2.5000000000000E-01  1.6137951516314E+00  2.6714593076917E-01
    27  2.6000000000000E-01  1.6785074044951E+00  2.9460092034975E-01
    28  2.7000000000000E-01  1.7364014692799E+00  3.2197758728207E-01
    29  2.8000000000000E-01  1.7868510378780E+00  3.4905624205874E-01
    30  2.9000000000000E-01  1.8293063695731E+00  3.7565853351774E-01
    31  3.0000000000000E-01  1.8633022712034E+00  4.0165526864506E-01
    32  3.1000000000000E-01  1.8884646231181E+00  4.2697231699028E-01
    33  3.2000000000000E-01  1.9045152753350E+00  4.5159432008022E-01
    34  3.3000000000000E-01  1.9112751833113E+00  4.7556600801401E-01
    35  3.4000000000000E-01  1.9086657027132E+00  4.9899101633002E-01
    36  3.5000000000000E-01  1.8967080158000E+00  5.2202819288794E-01
    37  3.6000000000000E-01  1.8755207166877E+00  5.4488548326890E-01
    38  3.7000000000000E-01  1.8453156368892E+00  5.6781158028929E-01
    39  3.8000000000000E-01  1.8063920442343E+00  5.9108561487959E-01
    40  3.9000000000000E-01  1.7591293956755E+00  6.1500524817341E-01
    41  4.0000000000000E-01  1.7039788658773E+00  6.3987359484916E-01
    42  4.1000000000000E-01  1.6414539073298E+00  6.6598546264660E-01
    43  4.2000000000000E-01  1.5721201227851E+00  6.9361343016209E-01
    44  4.3000000000000E-01  1.4965847461139E+00  7.2299430276167E-01
    45  4.4000000000000E-01  1.4154860326526E+00  7.5431648370554E-01
    46  4.5000000000000E-01  1.3294828545193E+00  7.8770877408147E-01
    47  4.6000000000000E-01  1.2392447804078E+00  8.2323107141493E-01
    48  4.7000000000000E-01  1.1454428935832E+00  8.6086737416127E-01
    49  4.8000000000000E-01  1.0487415671390E+00  9.0052141973434E-01
    50  4.9000000000000E-01  9.4979137330767E-01  9.4201519001641E-01
    51  5.0000000000000E-01  8.4922325534171E-01  9.8509041374471E-01
    52  5.1000000000000E-01  7.4764403799307E-01  1.0294130835716E+00
    53  5.2000000000000E-01  6.4563329794257E-01  1.0745808910841E+00
    54  5.3000000000000E-01  5.4374156074396E-01  1.1201333699620E+00
    55  5.4000000000000E-01  4.4248973808520E-01  1.1655644300996E+00
    56  5.5000000000000E-01  3.4236967049229E-01  1.2103368681237E+00
    57  5.6000000000000E-01  2.4384559793598E-01  1.2538983562163E+00
    58  5.7000000000000E-01  1.4735634586157E-01  1.2956983449414E+00
    59  5.8000000000000E-01  5.3317988376604E-02  1.3352052697481E+00
    60  5.9000000000000E-01 -3.7873265213884E-02  1.3719234270982E+00
    61  6.0000000000000E-01 -1.2583821894154E-01  1.4054088860890E+00
    62  6.1000000000000E-01 -2.1021212559009E-01  1.4352838254584E+00
    63  6.2000000000000E-01 -2.9064264315049E-01  1.4612487335058E+00
    64  6.3000000000000E-01 -3.6678851837860E-01  1.4830919783799E+00
    65  6.4000000000000E-01 -4.3831916600668E-01  1.5006963461336E+00
    66  6.5000000000000E-01 -5.0491526665029E-01  1.5140422508752E+00
    67  6.6000000000000E-01 -5.6627045470192E-01  1.5232074415166E+00
    68  6.7000000000000E-01 -6.2209411154491E-01  1.5283631587153E+00
    69  6.8000000000000E-01 -6.7211522149365E-01  1.5297668288911E+00
    70  6.9000000000000E-01 -7.1608719032407E-01  1.5277515146897E+00
    71  7.0000000000000E-01 -7.5379347147976E-01  1.5227124679393E+00
    72  7.1000000000000E-01 -7.8505379534807E-01  1.5150912470792E+00
    73  7.2000000000000E-01 -8.0973075454930E-01  1.5053579616652E+00
    74  7.3000000000000E-01 -8.2773646489352E-01  1.4939922877840E+00
    75  7.4000000000000E-01 -8.3903899912327E-01  1.4814639566130E+00
    76  7.5000000000000E-01 -8.4366827997793E-01  1.4682134513451E+00
    77  7.6000000000000E-01 -8.4172112124629E-01  1.4546336535427E+00
    78  7.7000000000000E-01 -8.3336512058742E-01  1.4410531580064E+00
    79  7.8000000000000E-01 -8.1884113577248E-01  1.4277219257676E+00
    80  7.9000000000000E-01 -7.9846411589686E-01  1.4147998692191E+00
    81  8.0000000000000E-01 -7.7262210981846E-01  1.4023488640742E+00
    82  8.1000000000000E-01 -7.4177333393319E-01  1.3903285630964E+00
    83  8.2000000000000E-01 -7.0644124834645E-01  1.3785962505135E+00
    84  8.3000000000000E-01 -6.6720766216686E-01  1.3669108285344E+00
    85  8.4000000000000E-01 -6.2470396242295E-01  1.3549408737412E+00
    86  8.5000000000000E-01 -5.7960063422637E-01  1.3422765470010E+00
    87  8.6000000000000E-01 -5.3259530947817E-01  1.3284449916743E+00
    88  8.7000000000000E-01 -4.8439964489437E-01  1.3129287169790E+00
    89  8.8000000000000E-01 -4.3572538482934E-01  1.2951863417794E+00
    90  8.9000000000000E-01 -3.8727000797387E-01  1.2746749736945E+00
    91  9.0000000000000E-01 -3.3970238751225E-01  1.2508734234720E+00
    92  9.1000000000000E-01 -2.9364891017344E-01  1.2233054084529E+00
    93  9.2000000000000E-01 -2.4968049971389E-01  1.1915618840832E+00
    94  9.3000000000000E-01 -2.0830097415518E-01  1.1553216602207E+00
    95  9.4000000000000E-01 -1.6993713354661E-01  1.1143695097304E+00