Bk    ONCVPSP-4.0.1  r_core=   1.15197   1.15197   1.15197   1.35390
97.0000     37.0000      220205    zatom,zion,pspd
8      11   3     4   600     0    pspcod,pspxc,lmax,lloc,mmax,r2well
5.99000000  5.00000000  0.00000000    rchrg fchrg qchrg
3     2     2     2     0    nproj
1     1           extension_switch
0                         2.5563010282040E+01  3.3734960198429E+00 -1.0336776578586E+00
1  0.0000000000000E+00 -1.4881893006802E-07  4.5747264881824E-07  3.0753047247645E-08
2  1.0000000000000E-02  1.6139299560813E-01 -8.6381158157312E-02  2.3456251033106E-02
3  2.0000000000000E-02  3.2129578056950E-01 -1.6999793585277E-01  4.7000721400281E-02
4  3.0000000000000E-02  4.7825021971462E-01 -2.4817639901767E-01  7.0715366036623E-02
5  4.0000000000000E-02  6.3086124291859E-01 -3.1842018573728E-01  9.4669854522800E-02
6  5.0000000000000E-02  7.7782570391980E-01 -3.7849111691981E-01  1.1891602864845E-01
7  6.0000000000000E-02  9.1795814411055E-01 -4.2648034492792E-01  1.4348305711081E-01
8  7.0000000000000E-02  1.0502126139633E+00 -4.6086745260220E-01  1.6837348196082E-01
9  8.0000000000000E-02  1.1736998535746E+00 -4.8056537257863E-01  1.9356032065591E-01
10  9.0000000000000E-02  1.2876993087707E+00 -4.8494953485566E-01  2.1898535109730E-01
11  1.0000000000000E-01  1.3916656535767E+00 -4.7387024859320E-01  2.4455866603193E-01
12  1.1000000000000E-01  1.4852296961243E+00 -4.4764795923461E-01  2.7015953904826E-01
13  1.2000000000000E-01  1.5681937553110E+00 -4.0705166991320E-01  2.9563859856178E-01
14  1.3000000000000E-01  1.6405218016291E+00 -3.5326145194829E-01  3.2082126019893E-01
15  1.4000000000000E-01  1.7023248496333E+00 -2.8781656871876E-01  3.4551232338524E-01
16  1.5000000000000E-01  1.7538422640332E+00 -2.1255127740584E-01  3.6950159622046E-01
17  1.6000000000000E-01  1.7954197896910E+00 -1.2952083337404E-01  3.9257037528482E-01
18  1.7000000000000E-01  1.8274852321765E+00 -4.0920584751481E-02  4.1449857513402E-01
19  1.8000000000000E-01  1.8505227955445E+00  5.0998703742529E-02  4.3507227699210E-01
20  1.9000000000000E-01  1.8650471246006E+00  1.4401602802120E-01  4.5409144841495E-01
21  2.0000000000000E-01  1.8715780986189E+00  2.3602254826938E-01  4.7137757609676E-01
22  2.1000000000000E-01  1.8706173823303E+00  3.2509806519347E-01  4.8678095289037E-01
23  2.2000000000000E-01  1.8626276596917E+00  4.0957865688372E-01  5.0018736758892E-01
24  2.3000000000000E-01  1.8480153596450E+00  4.8811291763271E-01  5.1152396187123E-01
25  2.4000000000000E-01  1.8271175353713E+00  5.5970469119433E-01  5.2076404256702E-01
26  2.5000000000000E-01  1.8001933852356E+00  6.2374072242858E-01  5.2793066831177E-01
27  2.6000000000000E-01  1.7674207114969E+00  6.8000224247816E-01  5.3309886675475E-01
28  2.7000000000000E-01  1.7288974094546E+00  7.2866013071262E-01  5.3639638057102E-01
29  2.8000000000000E-01  1.6846478729718E+00  7.7025393739297E-01  5.3800288625644E-01
30  2.9000000000000E-01  1.6346340003587E+00  8.0565567962085E-01  5.3814767756964E-01
31  3.0000000000000E-01  1.5787702953041E+00  8.3601991541699E-01  5.3710585397429E-01
32  3.1000000000000E-01  1.5169423883287E+00  8.6272213390181E-01  5.3519310194319E-01
33  3.2000000000000E-01  1.4490281617120E+00  8.8728795304289E-01  5.3275920195785E-01
34  3.3000000000000E-01  1.3749205505978E+00  9.1131597288502E-01  5.3018043499587E-01
35  3.4000000000000E-01  1.2945510193271E+00  9.3639737797139E-01  5.2785109788977E-01
36  3.5000000000000E-01  1.2079126778696E+00  9.6403550848066E-01  5.2617436598865E-01
37  3.6000000000000E-01  1.1150820098685E+00  9.9556862077559E-01  5.2555276308672E-01
38  3.7000000000000E-01  1.0162382310391E+00  1.0320989347516E+00  5.2637851187932E-01
39  3.8000000000000E-01  9.1167938262038E-01  1.0744308225787E+00  5.2902404281108E-01
40  3.9000000000000E-01  8.0183438595083E-01  1.1230206407414E+00  5.3383293492307E-01
41  4.0000000000000E-01  6.8727043628496E-01  1.1779402585477E+00  5.4111154930947E-01
42  4.1000000000000E-01  5.6869529078406E-01  1.2388558090176E+00  5.5112159446790E-01
43  4.2000000000000E-01  4.4695420032885E-01  1.3050226028032E+00  5.6407383386060E-01
44  4.3000000000000E-01  3.2302143985300E-01  1.3752965252492E+00  5.8012311033592E-01
45  4.4000000000000E-01  1.9798659933790E-01  1.4481616048908E+00  5.9936482085597E-01
46  4.5000000000000E-01  7.3035999411387E-02  1.5217728229607E+00  6.2183292958865E-01
47  4.6000000000000E-01 -5.0570216128708E-02  1.5940126516310E+00  6.4749955934166E-01
48  4.7000000000000E-01 -1.7152459083733E-01  1.6625592859672E+00  6.7627615212745E-01
49  4.8000000000000E-01 -2.8850160854202E-01  1.7249640908050E+00  7.0801614097476E-01
50  4.9000000000000E-01 -4.0018871981518E-01  1.7787354356433E+00  7.4251902855325E-01
51  5.0000000000000E-01 -5.0531810144140E-01  1.8214258510967E+00  7.7953572529249E-01
52  5.1000000000000E-01 -6.0269807571186E-01  1.8507193180688E+00  8.1877496187550E-01
53  5.2000000000000E-01 -6.9124312394969E-01  1.8645154996003E+00  8.5991055951998E-01
54  5.3000000000000E-01 -7.7000147593800E-01  1.8610078445867E+00  9.0258931736694E-01
55  5.4000000000000E-01 -8.3817934185925E-01  1.8387527268453E+00  9.4643926036950E-01
56  5.5000000000000E-01 -8.9516097247346E-01  1.7967271224986E+00  9.9107798383182E-01
57  5.6000000000000E-01 -9.4052388178029E-01  1.7343727594860E+00  1.0361208324137E+00
58  5.7000000000000E-01 -9.7404873842656E-01  1.6516251779154E+00  1.0811886619157E+00
59  5.8000000000000E-01 -9.9572362088111E-01  1.5489266989209E+00  1.1259149511159E+00
60  5.9000000000000E-01 -1.0057425295529E+00  1.4272228907704E+00  1.1699520576748E+00
61  6.0000000000000E-01 -1.0044982489372E+00  1.2879427212141E+00  1.2129764457399E+00
62  6.1000000000000E-01 -9.9256984691711E-01  1.1329631714461E+00  1.2546927521836E+00
63  6.2000000000000E-01 -9.7070527922053E-01  9.6455963731423E-01  1.2948366020502E+00
64  6.3000000000000E-01 -9.3979972804198E-01  7.8534393702048E-01  1.3331761302476E+00
65  6.4000000000000E-01 -9.0087043916230E-01  5.9819216345483E-01  1.3695122141850E+00
66  6.5000000000000E-01 -8.5502892680624E-01  4.0616494860474E-01  1.4036774692716E+00
67  6.6000000000000E-01 -8.0345148650447E-01  2.1242293605184E-01  1.4355341043051E+00
68  6.7000000000000E-01 -7.4734899130688E-01  2.0140378381952E-02  1.4649707752136E+00
69  6.8000000000000E-01 -6.8793694520481E-01 -1.6758021328363E-01  1.4918986119116E+00
70  6.9000000000000E-01 -6.2640673040875E-01 -3.4778953874874E-01  1.5162466229036E+00
71  7.0000000000000E-01 -5.6389891442369E-01 -5.1776646939397E-01  1.5379567046496E+00
72  7.1000000000000E-01 -5.0147938220339E-01 -6.7508416613625E-01  1.5569784967822E+00
73  7.2000000000000E-01 -4.4011893266951E-01 -8.1766539425372E-01  1.5732643294954E+00
74  7.3000000000000E-01 -3.8067683310941E-01 -9.4382551134964E-01  1.5867645055927E+00
75  7.4000000000000E-01 -3.2388866562297E-01 -1.0523020863672E+00  1.5974231468553E+00
76  7.5000000000000E-01 -2.7035863345289E-01 -1.1422706144836E+00  1.6051748129723E+00
77  7.6000000000000E-01 -2.2055632843382E-01 -1.2133463046218E+00  1.6099420719486E+00
78  7.7000000000000E-01 -1.7481780045678E-01 -1.2655724133734E+00  1.6116341646415E+00
79  7.8000000000000E-01 -1.3335062185075E-01 -1.2993960626115E+00  1.6101468640795E+00
80  7.9000000000000E-01 -9.6242509375103E-02 -1.3156328910211E+00  1.6053635839185E+00
81  8.0000000000000E-01 -6.3472958591056E-02 -1.3154222379239E+00  1.5971577413522E+00
82  8.1000000000000E-01 -3.4927263215610E-02 -1.3001748297602E+00  1.5853963297128E+00
83  8.2000000000000E-01 -1.0412237942956E-02 -1.2715151275554E+00  1.5699446066118E+00
84  8.3000000000000E-01  1.0327061801183E-02 -1.2312205934015E+00  1.5506717565174E+00
85  8.4000000000000E-01  2.7590325816827E-02 -1.1811601448964E+00  1.5274573438187E+00
86  8.5000000000000E-01  4.1705352030388E-02 -1.1232339916754E+00  1.5001983352638E+00
87  8.6000000000000E-01  5.3012401114774E-02 -1.0593168940460E+00  1.4688164405796E+00
88  8.7000000000000E-01  6.1850079529001E-02 -9.9120665963571E-01  1.4332654982845E+00
89  8.8000000000000E-01  6.8543192165867E-02 -9.2057941161334E-01  1.3935386211546E+00
90  8.9000000000000E-01  7.3392897570365E-02 -8.4895283498223E-01  1.3496748131898E+00
91  9.0000000000000E-01  7.6669382774803E-02 -7.7765825026666E-01  1.3017647776420E+00
92  9.1000000000000E-01  7.8607156274338E-02 -7.0782199164577E-01  1.2499556538212E+00
93  9.2000000000000E-01  7.9402941408120E-02 -6.4035619381125E-01  1.1944544487846E+00
94  9.3000000000000E-01  7.9216042902255E-02 -5.7595873221516E-01  1.1355299681541E+00
95  9.4000000000000E-01  7.8170960380827E-02 -5.1512172680480E-01  1.0735130974368E+00
96  9.5000000000000E-01  7.6361937286103E-02 -4.5814771956054E-01  1.0087953403356E+00
97  9.6000000000000E-01  7.3859063928831E-02 -4.0517237821310E-01  9.4182558242597E-01
98  9.7000000000000E-01  7.0715500347152E-02 -3.5619236660562E-01  8.7310511580928E-01
99  9.8000000000000E-01  6.6975348182632E-02 -3.1109685713572E-01  8.0318103147639E-01
100  9.9000000000000E-01  6.2681679764993E-02 -2.6970104060967E-01  7.3263815943451E-01
101  1.0000000000000E+00  5.7884224786754E-02 -2.3177990830163E-01  6.6208981057364E-01
102  1.0100000000000E+00  5.2646217195450E-02 -1.9710053211748E-01  5.9216764705319E-01
103  1.0200000000000E+00  4.7049913271286E-02 -1.6545104102006E-01  5.2351107817446E-01
104  1.0300000000000E+00  4.1200301624737E-02 -1.3666447281964E-01  4.5675664462576E-01
105  1.0400000000000E+00  3.5226531955255E-02 -1.1063565613420E-01  3.9252791428807E-01
106  1.0500000000000E+00  2.9280586475147E-02 -8.7329232824938E-02  3.3142646631389E-01
107  1.0600000000000E+00  2.3532700434231E-02 -6.6776851270384E-02  2.7402458570081E-01
108  1.0700000000000E+00  1.8163001018083E-02 -4.9061430771032E-02  2.2086032735246E-01
109  1.0800000000000E+00  1.3348717985343E-02 -3.4286061920748E-02  1.7243559190988E-01
110  1.0900000000000E+00  9.2467695173093E-03 -2.2526237742556E-02  1.2921831242854E-01
111  1.1000000000000E+00  5.9435579628400E-03 -1.3690516415327E-02  9.1626190296900E-02
112  1.1100000000000E+00  3.3980208199813E-03 -7.3542079512975E-03  6.0012200305717E-02
113  1.1200000000000E+00  1.6294562252766E-03 -3.2628442211657E-03  3.4822901124659E-02
114  1.1300000000000E+00  5.7825973653740E-04 -1.0261587570366E-03  1.6376805469005E-02
115  1.1400000000000E+00  1.0643813912203E-04 -1.4102914316052E-04  4.8066480064251E-03
116  1.1500000000000E+00  1.2397260615199E-06  1.8078584651364E-06  2.0098312004783E-04
117  1.1600000000000E+00  1.0649365709724E-07  7.7793996164905E-08  1.3718513787091E-05
118  1.1700000000000E+00 -5.5372376340257E-08  3.9802930686062E-08 -3.8692408145476E-06
119  1.18  0.  0.  0.
120  1.19  0.  0.  0.
121  1.20  0.  0.  0.
122  1.21  0.  0.  0.
123  1.22  0.  0.  0.
124  1.23  0.  0.  0.
125  1.24  0.  0.  0.
126  1.25  0.  0.  0.
127  1.26  0.  0.  0.
128  1.27  0.  0.  0.
129  1.28  0.  0.  0.
130  1.29  0.  0.  0.
131  1.30  0.  0.  0.
132  1.31  0.  0.  0.
133  1.32  0.  0.  0.
134  1.33  0.  0.  0.
135  1.34  0.  0.  0.
136  1.35  0.  0.  0.
137  1.36  0.  0.  0.
138  1.37  0.  0.  0.
139  1.38  0.  0.  0.
140  1.39  0.  0.  0.
141  1.40  0.  0.  0.
142  1.41  0.  0.  0.
143  1.42  0.  0.  0.
144  1.43  0.  0.  0.
145  1.44  0.  0.  0.
146  1.45  0.  0.  0.
147  1.46  0.  0.  0.
148  1.47  0.  0.  0.
149  1.48  0.  0.  0.
150  1.49  0.  0.  0.
151  1.50  0.  0.  0.
152  1.51  0.  0.  0.
153  1.52  0.  0.  0.
154  1.53  0.  0.  0.
155  1.54  0.  0.  0.
156  1.55  0.  0.  0.
157  1.56  0.  0.  0.
158  1.57  0.  0.  0.
159  1.58  0.  0.  0.
160  1.59  0.  0.  0.
161  1.60  0.  0.  0.
162  1.61  0.  0.  0.
163  1.62  0.  0.  0.
164  1.63  0.  0.  0.
165  1.64  0.  0.  0.
166  1.65  0.  0.  0.
167  1.66  0.  0.  0.
168  1.67  0.  0.  0.
169  1.68  0.  0.  0.
170  1.69  0.  0.  0.
171  1.70  0.  0.  0.
172  1.71  0.  0.  0.
173  1.72  0.  0.  0.
174  1.73  0.  0.  0.
175  1.74  0.  0.  0.
176  1.75  0.  0.  0.
177  1.76  0.  0.  0.
178  1.77  0.  0.  0.
179  1.78  0.  0.  0.
180  1.79  0.  0.  0.
181  1.80  0.  0.  0.
182  1.81  0.  0.  0.
183  1.82  0.  0.  0.
184  1.83  0.  0.  0.
185  1.84  0.  0.  0.
186  1.85  0.  0.  0.
187  1.86  0.  0.  0.
188  1.87  0.  0.  0.
189  1.88  0.  0.  0.
190  1.89  0.  0.  0.
191  1.90  0.  0.  0.
192  1.91  0.  0.  0.
193  1.92  0.  0.  0.
194  1.93  0.  0.  0.
195  1.94  0.  0.  0.
196  1.95  0.  0.  0.
197  1.96  0.  0.  0.
198  1.97  0.  0.  0.
199  1.98  0.  0.  0.
200  1.99  0.  0.  0.
201  2.00  0.  0.  0.
202  2.01  0.  0.  0.
203  2.02  0.  0.  0.
204  2.03  0.  0.  0.
205  2.04  0.  0.  0.
206  2.05  0.  0.  0.
207  2.06  0.  0.  0.
208  2.07  0.  0.  0.
209  2.08  0.  0.  0.
210  2.09  0.  0.  0.
211  2.10  0.  0.  0.
212  2.11  0.  0.  0.
213  2.12  0.  0.  0.
214  2.13  0.  0.  0.
215  2.14  0.  0.  0.
216  2.15  0.  0.  0.
217  2.16  0.  0.  0.
218  2.17  0.  0.  0.
219  2.18  0.  0.  0.
220  2.19  0.  0.  0.
221  2.20  0.  0.  0.
222  2.21  0.  0.  0.
223  2.22  0.  0.  0.
224  2.23  0.  0.  0.
225  2.24  0.  0.  0.
226  2.25  0.  0.  0.
227  2.26  0.  0.  0.
228  2.27  0.  0.  0.
229  2.28  0.  0.  0.
230  2.29  0.  0.  0.
231  2.30  0.  0.  0.
232  2.31  0.  0.  0.
233  2.32  0.  0.  0.
234  2.33  0.  0.  0.
235  2.34  0.  0.  0.
236  2.35  0.  0.  0.
237  2.36  0.  0.  0.
238  2.37  0.  0.  0.
239  2.38  0.  0.  0.
240  2.39  0.  0.  0.
241  2.40  0.  0.  0.
242  2.41  0.  0.  0.
243  2.42  0.  0.  0.
244  2.43  0.  0.  0.
245  2.44  0.  0.  0.
246  2.45  0.  0.  0.
247  2.46  0.  0.  0.
248  2.47  0.  0.  0.
249  2.48  0.  0.  0.
250  2.49  0.  0.  0.
251  2.50  0.  0.  0.
252  2.51  0.  0.  0.
253  2.52  0.  0.  0.
254  2.53  0.  0.  0.
255  2.54  0.  0.  0.
256  2.55  0.  0.  0.
257  2.56  0.  0.  0.
258  2.57  0.  0.  0.
259  2.58  0.  0.  0.
260  2.59  0.  0.  0.
261  2.60  0.  0.  0.
262  2.61  0.  0.  0.
263  2.62  0.  0.  0.
264  2.63  0.  0.  0.
265  2.64  0.  0.  0.
266  2.65  0.  0.  0.
267  2.66  0.  0.  0.
268  2.67  0.  0.  0.
269  2.68  0.  0.  0.
270  2.69  0.  0.  0.
271  2.70  0.  0.  0.
272  2.71  0.  0.  0.
273  2.72  0.  0.  0.
274  2.73  0.  0.  0.
275  2.74  0.  0.  0.
276  2.75  0.  0.  0.
277  2.76  0.  0.  0.
278  2.77  0.  0.  0.
279  2.78  0.  0.  0.
280  2.79  0.  0.  0.
281  2.80  0.  0.  0.
282  2.81  0.  0.  0.
283  2.82  0.  0.  0.
284  2.83  0.  0.  0.
285  2.84  0.  0.  0.
286  2.85  0.  0.  0.
287  2.86  0.  0.  0.
288  2.87  0.  0.  0.
289  2.88  0.  0.  0.
290  2.89  0.  0.  0.
291  2.90  0.  0.  0.
292  2.91  0.  0.  0.
293  2.92  0.  0.  0.
294  2.93  0.  0.  0.
295  2.94  0.  0.  0.
296  2.95  0.  0.  0.
297  2.96  0.  0.  0.
298  2.97  0.  0.  0.
299  2.98  0.  0.  0.
300  2.99  0.  0.  0.
301  3.00  0.  0.  0.
302  3.01  0.  0.  0.
303  3.02  0.  0.  0.
304  3.03  0.  0.  0.
305  3.04  0.  0.  0.
306  3.05  0.  0.  0.
307  3.06  0.  0.  0.
308  3.07  0.  0.  0.
309  3.08  0.  0.  0.
310  3.09  0.  0.  0.
311  3.10  0.  0.  0.
312  3.11  0.  0.  0.
313  3.12  0.  0.  0.
314  3.13  0.  0.  0.
315  3.14  0.  0.  0.
316  3.15  0.  0.  0.
317  3.16  0.  0.  0.
318  3.17  0.  0.  0.
319  3.18  0.  0.  0.
320  3.19  0.  0.  0.
321  3.20  0.  0.  0.
322  3.21  0.  0.  0.
323  3.22  0.  0.  0.
324  3.23  0.  0.  0.
325  3.24  0.  0.  0.
326  3.25  0.  0.  0.
327  3.26  0.  0.  0.
328  3.27  0.  0.  0.
329  3.28  0.  0.  0.
330  3.29  0.  0.  0.
331  3.30  0.  0.  0.
332  3.31  0.  0.  0.
333  3.32  0.  0.  0.
334  3.33  0.  0.  0.
335  3.34  0.  0.  0.
336  3.35  0.  0.  0.
337  3.36  0.  0.  0.
338  3.37  0.  0.  0.
339  3.38  0.  0.  0.
340  3.39  0.  0.  0.
341  3.40  0.  0.  0.
342  3.41  0.  0.  0.
343  3.42  0.  0.  0.
344  3.43  0.  0.  0.
345  3.44  0.  0.  0.
346  3.45  0.  0.  0.
347  3.46  0.  0.  0.
348  3.47  0.  0.  0.
349  3.48  0.  0.  0.
350  3.49  0.  0.  0.
351  3.50  0.  0.  0.
352  3.51  0.  0.  0.
353  3.52  0.  0.  0.
354  3.53  0.  0.  0.
355  3.54  0.  0.  0.
356  3.55  0.  0.  0.
357  3.56  0.  0.  0.
358  3.57  0.  0.  0.
359  3.58  0.  0.  0.
360  3.59  0.  0.  0.
361  3.60  0.  0.  0.
362  3.61  0.  0.  0.
363  3.62  0.  0.  0.
364  3.63  0.  0.  0.
365  3.64  0.  0.  0.
366  3.65  0.  0.  0.
367  3.66  0.  0.  0.
368  3.67  0.  0.  0.
369  3.68  0.  0.  0.
370  3.69  0.  0.  0.
371  3.70  0.  0.  0.
372  3.71  0.  0.  0.
373  3.72  0.  0.  0.
374  3.73  0.  0.  0.
375  3.74  0.  0.  0.
376  3.75  0.  0.  0.
377  3.76  0.  0.  0.
378  3.77  0.  0.  0.
379  3.78  0.  0.  0.
380  3.79  0.  0.  0.
381  3.80  0.  0.  0.
382  3.81  0.  0.  0.
383  3.82  0.  0.  0.
384  3.83  0.  0.  0.
385  3.84  0.  0.  0.
386  3.85  0.  0.  0.
387  3.86  0.  0.  0.
388  3.87  0.  0.  0.
389  3.88  0.  0.  0.
390  3.89  0.  0.  0.
391  3.90  0.  0.  0.
392  3.91  0.  0.  0.
393  3.92  0.  0.  0.
394  3.93  0.  0.  0.
395  3.94  0.  0.  0.
396  3.95  0.  0.  0.
397  3.96  0.  0.  0.
398  3.97  0.  0.  0.
399  3.98  0.  0.  0.
400  3.99  0.  0.  0.
401  4.00  0.  0.  0.
402  4.01  0.  0.  0.
403  4.02  0.  0.  0.
404  4.03  0.  0.  0.
405  4.04  0.  0.  0.
406  4.05  0.  0.  0.
407  4.06  0.  0.  0.
408  4.07  0.  0.  0.
409  4.08  0.  0.  0.
410  4.09  0.  0.  0.
411  4.10  0.  0.  0.
412  4.11  0.  0.  0.
413  4.12  0.  0.  0.
414  4.13  0.  0.  0.
415  4.14  0.  0.  0.
416  4.15  0.  0.  0.
417  4.16  0.  0.  0.
418  4.17  0.  0.  0.
419  4.18  0.  0.  0.
420  4.19  0.  0.  0.
421  4.20  0.  0.  0.
422  4.21  0.  0.  0.
423  4.22  0.  0.  0.
424  4.23  0.  0.  0.
425  4.24  0.  0.  0.
426  4.25  0.  0.  0.
427  4.26  0.  0.  0.
428  4.27  0.  0.  0.
429  4.28  0.  0.  0.
430  4.29  0.  0.  0.
431  4.30  0.  0.  0.
432  4.31  0.  0.  0.
433  4.32  0.  0.  0.
434  4.33  0.  0.  0.
435  4.34  0.  0.  0.
436  4.35  0.  0.  0.
437  4.36  0.  0.  0.
438  4.37  0.  0.  0.
439  4.38  0.  0.  0.
440  4.39  0.  0.  0.
441  4.40  0.  0.  0.
442  4.41  0.  0.  0.
443  4.42  0.  0.  0.
444  4.43  0.  0.  0.
445  4.44  0.  0.  0.
446  4.45  0.  0.  0.
447  4.46  0.  0.  0.
448  4.47  0.  0.  0.
449  4.48  0.  0.  0.
450  4.49  0.  0.  0.
451  4.50  0.  0.  0.
452  4.51  0.  0.  0.
453  4.52  0.  0.  0.
454  4.53  0.  0.  0.
455  4.54  0.  0.  0.
456  4.55  0.  0.  0.
457  4.56  0.  0.  0.
458  4.57  0.  0.  0.
459  4.58  0.  0.  0.
460  4.59  0.  0.  0.
461  4.60  0.  0.  0.
462  4.61  0.  0.  0.
463  4.62  0.  0.  0.
464  4.63  0.  0.  0.
465  4.64  0.  0.  0.
466  4.65  0.  0.  0.
467  4.66  0.  0.  0.
468  4.67  0.  0.  0.
469  4.68  0.  0.  0.
470  4.69  0.  0.  0.
471  4.70  0.  0.  0.
472  4.71  0.  0.  0.
473  4.72  0.  0.  0.
474  4.73  0.  0.  0.
475  4.74  0.  0.  0.
476  4.75  0.  0.  0.
477  4.76  0.  0.  0.
478  4.77  0.  0.  0.
479  4.78  0.  0.  0.
480  4.79  0.  0.  0.
481  4.80  0.  0.  0.
482  4.81  0.  0.  0.
483  4.82  0.  0.  0.
484  4.83  0.  0.  0.
485  4.84  0.  0.  0.
486  4.85  0.  0.  0.
487  4.86  0.  0.  0.
488  4.87  0.  0.  0.
489  4.88  0.  0.  0.
490  4.89  0.  0.  0.
491  4.90  0.  0.  0.
492  4.91  0.  0.  0.
493  4.92  0.  0.  0.
494  4.93  0.  0.  0.
495  4.94  0.  0.  0.
496  4.95  0.  0.  0.
497  4.96  0.  0.  0.
498  4.97  0.  0.  0.
499  4.98  0.  0.  0.
500  4.99  0.  0.  0.
501  5.00  0.  0.  0.
502  5.01  0.  0.  0.
503  5.02  0.  0.  0.
504  5.03  0.  0.  0.
505  5.04  0.  0.  0.
506  5.05  0.  0.  0.
507  5.06  0.  0.  0.
508  5.07  0.  0.  0.
509  5.08  0.  0.  0.
510  5.09  0.  0.  0.
511  5.10  0.  0.  0.
512  5.11  0.  0.  0.
513  5.12  0.  0.  0.
514  5.13  0.  0.  0.
515  5.14  0.  0.  0.
516  5.15  0.  0.  0.
517  5.16  0.  0.  0.
518  5.17  0.  0.  0.
519  5.18  0.  0.  0.
520  5.19  0.  0.  0.
521  5.20  0.  0.  0.
522  5.21  0.  0.  0.
523  5.22  0.  0.  0.
524  5.23  0.  0.  0.
525  5.24  0.  0.  0.
526  5.25  0.  0.  0.
527  5.26  0.  0.  0.
528  5.27  0.  0.  0.
529  5.28  0.  0.  0.
530  5.29  0.  0.  0.
531  5.30  0.  0.  0.
532  5.31  0.  0.  0.
533  5.32  0.  0.  0.
534  5.33  0.  0.  0.
535  5.34  0.  0.  0.
536  5.35  0.  0.  0.
537  5.36  0.  0.  0.
538  5.37  0.  0.  0.
539  5.38  0.  0.  0.
540  5.39  0.  0.  0.
541  5.40  0.  0.  0.
542  5.41  0.  0.  0.
543  5.42  0.  0.  0.
544  5.43  0.  0.  0.
545  5.44  0.  0.  0.
546  5.45  0.  0.  0.
547  5.46  0.  0.  0.
548  5.47  0.  0.  0.
549  5.48  0.  0.  0.
550  5.49  0.  0.  0.
551  5.50  0.  0.  0.
552  5.51  0.  0.  0.
553  5.52  0.  0.  0.
554  5.53  0.  0.  0.
555  5.54  0.  0.  0.
556  5.55  0.  0.  0.
557  5.56  0.  0.  0.
558  5.57  0.  0.  0.
559  5.58  0.  0.  0.
560  5.59  0.  0.  0.
561  5.60  0.  0.  0.
562  5.61  0.  0.  0.
563  5.62  0.  0.  0.
564  5.63  0.  0.  0.
565  5.64  0.  0.  0.
566  5.65  0.  0.  0.
567  5.66  0.  0.  0.
568  5.67  0.  0.  0.
569  5.68  0.  0.  0.
570  5.69  0.  0.  0.
571  5.70  0.  0.  0.
572  5.71  0.  0.  0.
573  5.72  0.  0.  0.
574  5.73  0.  0.  0.
575  5.74  0.  0.  0.
576  5.75  0.  0.  0.
577  5.76  0.  0.  0.
578  5.77  0.  0.  0.
579  5.78  0.  0.  0.
580  5.79  0.  0.  0.
581  5.80  0.  0.  0.
582  5.81  0.  0.  0.
583  5.82  0.  0.  0.
584  5.83  0.  0.  0.
585  5.84  0.  0.  0.
586  5.85  0.  0.  0.
587  5.86  0.  0.  0.
588  5.87  0.  0.  0.
589  5.88  0.  0.  0.
590  5.89  0.  0.  0.
591  5.90  0.  0.  0.
592  5.91  0.  0.  0.
593  5.92  0.  0.  0.
594  5.93  0.  0.  0.
595  5.94  0.  0.  0.
596  5.95  0.  0.  0.
597  5.96  0.  0.  0.
598  5.97  0.  0.  0.
599  5.98  0.  0.  0.
600  5.99  0.  0.  0.
1                         8.3440907561506E+00 -8.7474384689477E-01
1  0.0000000000000E+00 -2.6045547302234E-08 -6.0027878457866E-08
2  1.0000000000000E-02  3.8337224506333E-03 -1.5065272410340E-04
3  2.0000000000000E-02  1.5312697142203E-02 -5.7697528669105E-04
4  3.0000000000000E-02  3.4370095133046E-02 -1.2031267525326E-03
5  4.0000000000000E-02  6.0893717540448E-02 -1.9062159378195E-03
6  5.0000000000000E-02  9.4724836035914E-02 -2.5214195058820E-03
7  6.0000000000000E-02  1.3565669957277E-01 -2.8488582464278E-03
8  7.0000000000000E-02  1.8343283073535E-01 -2.6619559761059E-03
9  8.0000000000000E-02  2.3774526114455E-01 -1.7169454703185E-03
10  9.0000000000000E-02  2.9823287498074E-01  2.3686113806951E-04
11  1.0000000000000E-01  3.6448004198394E-01  3.4464521175543E-03
12  1.1000000000000E-01  4.3601572563650E-01  8.1445765266809E-03
13  1.2000000000000E-01  5.1231324830550E-01  1.4539714657163E-02
14  1.3000000000000E-01  5.9279088292161E-01  2.2806969971929E-02
15  1.4000000000000E-01  6.7681342062208E-01  3.3080259663899E-02
16  1.5000000000000E-01  7.6369483632579E-01  4.5446131550045E-02
17  1.6000000000000E-01  8.5270214036501E-01  5.9939472324981E-02
18  1.7000000000000E-01  9.4306046526235E-01  7.6541298567408E-02
19  1.8000000000000E-01  1.0339593939155E+00  9.5178740093729E-02
20  1.9000000000000E-01  1.1245604904100E+00  1.1572723839268E-01
21  2.0000000000000E-01  1.2140059491005E+00  1.3801489427934E-01
22  2.1000000000000E-01  1.3014282332152E+00  1.6182881199680E-01
23  2.2000000000000E-01  1.3859605327508E+00  1.8692320515868E-01
24  2.3000000000000E-01  1.4667478344756E+00  2.1302895639238E-01
25  2.4000000000000E-01  1.5429583659195E+00  2.3986426025515E-01
26  2.5000000000000E-01  1.6137951516045E+00  2.6714593049732E-01
27  2.6000000000000E-01  1.6785074044726E+00  2.9460092008430E-01
28  2.7000000000000E-01  1.7364014692614E+00  3.2197758702552E-01
29  2.8000000000000E-01  1.7868510378631E+00  3.4905624181359E-01
30  2.9000000000000E-01  1.8293063695613E+00  3.7565853328641E-01
31  3.0000000000000E-01  1.8633022711939E+00  4.0165526842994E-01
32  3.1000000000000E-01  1.8884646231103E+00  4.2697231679365E-01
33  3.2000000000000E-01  1.9045152753282E+00  4.5159431990435E-01
34  3.3000000000000E-01  1.9112751833050E+00  4.7556600786108E-01
35  3.4000000000000E-01  1.9086657027066E+00  4.9899101620215E-01
36  3.5000000000000E-01  1.8967080157927E+00  5.2202819278720E-01
37  3.6000000000000E-01  1.8755207166794E+00  5.4488548319726E-01
38  3.7000000000000E-01  1.8453156368797E+00  5.6781158024871E-01
39  3.8000000000000E-01  1.8063920442236E+00  5.9108561487191E-01
40  3.9000000000000E-01  1.7591293956639E+00  6.1500524820042E-01
41  4.0000000000000E-01  1.7039788658651E+00  6.3987359491254E-01
42  4.1000000000000E-01  1.6414539073178E+00  6.6598546274791E-01
43  4.2000000000000E-01  1.5721201227742E+00  6.9361343030276E-01
44  4.3000000000000E-01  1.4965847461050E+00  7.2299430294300E-01
45  4.4000000000000E-01  1.4154860326470E+00  7.5431648392862E-01
46  4.5000000000000E-01  1.3294828545183E+00  7.8770877434714E-01
47  4.6000000000000E-01  1.2392447804127E+00  8.2323107172378E-01
48  4.7000000000000E-01  1.1454428935955E+00  8.6086737451360E-01
49  4.8000000000000E-01  1.0487415671600E+00  9.0052142013004E-01
50  4.9000000000000E-01  9.4979137333876E-01  9.4201519045502E-01
51  5.0000000000000E-01  8.4922325538397E-01  9.8509041422535E-01
52  5.1000000000000E-01  7.4764403804744E-01  1.0294130840929E+00
53  5.2000000000000E-01  6.4563329800975E-01  1.0745808916441E+00
54  5.3000000000000E-01  5.4374156082435E-01  1.1201333705583E+00
55  5.4000000000000E-01  4.4248973817885E-01  1.1655644307292E+00
56  5.5000000000000E-01  3.4236967059894E-01  1.2103368687831E+00
57  5.6000000000000E-01  2.4384559805496E-01  1.2538983569013E+00
58  5.7000000000000E-01  1.4735634599186E-01  1.2956983456474E+00
59  5.8000000000000E-01  5.3317988516789E-02  1.3352052704699E+00
60  5.9000000000000E-01 -3.7873265065560E-02  1.3719234278299E+00
61  6.0000000000000E-01 -1.2583821878715E-01  1.4054088868245E+00
62  6.1000000000000E-01 -2.1021212543198E-01  1.4352838261913E+00
63  6.2000000000000E-01 -2.9064264299126E-01  1.4612487342290E+00
64  6.3000000000000E-01 -3.6678851822099E-01  1.4830919790862E+00
65  6.4000000000000E-01 -4.3831916585353E-01  1.5006963468159E+00
66  6.5000000000000E-01 -5.0491526650448E-01  1.5140422515260E+00
67  6.6000000000000E-01 -5.6627045456626E-01  1.5232074421287E+00
68  6.7000000000000E-01 -6.2209411142212E-01  1.5283631592816E+00
69  6.8000000000000E-01 -6.7211522138622E-01  1.5297668294046E+00
70  6.9000000000000E-01 -7.1608719023424E-01  1.5277515151441E+00
71  7.0000000000000E-01 -7.5379347140943E-01  1.5227124683287E+00
72  7.1000000000000E-01 -7.8505379529876E-01  1.5150912473981E+00
73  7.2000000000000E-01 -8.0973075452210E-01  1.5053579619092E+00
74  7.3000000000000E-01 -8.2773646488906E-01  1.4939922879491E+00
75  7.4000000000000E-01 -8.3903899914171E-01  1.4814639566964E+00
76  7.5000000000000E-01 -8.4366828001893E-01  1.4682134513448E+00
77  7.6000000000000E-01 -8.4172112130905E-01  1.4546336534577E+00
78  7.7000000000000E-01 -8.3336512067066E-01  1.4410531578368E+00
79  7.8000000000000E-01 -8.1884113587452E-01  1.4277219255145E+00
80  7.9000000000000E-01 -7.9846411601563E-01  1.4147998688847E+00
81  8.0000000000000E-01 -7.7262210995157E-01  1.4023488636617E+00
82  8.1000000000000E-01 -7.4177333407801E-01  1.3903285626098E+00
83  8.2000000000000E-01 -7.0644124850014E-01  1.3785962499581E+00
84  8.3000000000000E-01 -6.6720766232648E-01  1.3669108279161E+00
85  8.4000000000000E-01 -6.2470396258552E-01  1.3549408730667E+00
86  8.5000000000000E-01 -5.7960063438894E-01  1.3422765462777E+00
87  8.6000000000000E-01 -5.3259530963790E-01  1.3284449909102E+00
88  8.7000000000000E-01 -4.8439964504862E-01  1.3129287161824E+00
89  8.8000000000000E-01 -4.3572538497569E-01  1.2951863409590E+00
90  8.9000000000000E-01 -3.8727000811018E-01  1.2746749728592E+00
91  9.0000000000000E-01 -3.3970238763672E-01  1.2508734226306E+00
92  9.1000000000000E-01 -2.9364891028463E-01  1.2233054076142E+00
93  9.2000000000000E-01 -2.4968049981073E-01  1.1915618832557E+00
94  9.3000000000000E-01 -2.0830097423698E-01  1.1553216594126E+00
95  9.4000000000000E-01 -1.6993713361306E-01  1.1143695089493E+00
96  9.5000000000000E-01 -1.3493092670887E-01  1.0686110590017E+00
97  9.6000000000000E-01 -1.0353398191740E-01  1.0180838684544E+00
98  9.7000000000000E-01 -7.5904711372880E-02  9.6296423560841E-01
99  9.8000000000000E-01 -5.2108109799079E-02  9.0356944404847E-01
100  9.9000000000000E-01 -3.2118273394553E-02  8.4035533752749E-01
101  1.0000000000000E+00 -1.5823561763387E-02  7.7390931117512E-01
102  1.0100000000000E+00 -3.0342205371701E-03  7.0493901057128E-01
103  1.0200000000000E+00  6.5078232153378E-03  6.3425723654624E-01
104  1.0300000000000E+00  1.3117383186636E-02  5.6276375555681E-01
105  1.0400000000000E+00  1.7153140539108E-02  4.9142490730343E-01
106  1.0500000000000E+00  1.9004049913714E-02  4.2125207762462E-01
107  1.0600000000000E+00  1.9075675980653E-02  3.5328025993956E-01
108  1.0700000000000E+00  1.7777174858583E-02  2.8854805862715E-01
109  1.0800000000000E+00  1.5509650034082E-02  2.2808054512917E-01
110  1.0900000000000E+00  1.2656970851660E-02  1.7287687578263E-01
111  1.1000000000000E+00  9.5628670480377E-03  1.2388007644112E-01
112  1.1100000000000E+00  6.5103169755042E-03  8.1946647648335E-02
113  1.1200000000000E+00  3.8367404926563E-03  4.7999181160486E-02
114  1.1300000000000E+00  1.7921806799618E-03  2.2774755018566E-02
115  1.1400000000000E+00  5.1058317569812E-04  6.7405947128406E-03
116  1.1500000000000E+00  2.0132332753343E-05  2.8423164972578E-04
117  1.1600000000000E+00  1.3886579307226E-06  1.9392851409911E-05
118  1.1700000000000E+00 -4.0031832497041E-07 -5.4497825655630E-06
119  1.18  0.  0.
120  1.19  0.  0.
121  1.20  0.  0.
122  1.21  0.  0.
123  1.22  0.  0.
124  1.23  0.  0.
125  1.24  0.  0.
126  1.25  0.  0.
127  1.26  0.  0.
128  1.27  0.  0.
129  1.28  0.  0.
130  1.29  0.  0.
131  1.30  0.  0.
132  1.31  0.  0.
133  1.32  0.  0.
134  1.33  0.  0.
135  1.34  0.  0.
136  1.35  0.  0.
137  1.36  0.  0.
138  1.37  0.  0.
139  1.38  0.  0.
140  1.39  0.  0.
141  1.40  0.  0.
142  1.41  0.  0.
143  1.42  0.  0.
144  1.43  0.  0.
145  1.44  0.  0.
146  1.45  0.  0.
147  1.46  0.  0.
148  1.47  0.  0.
149  1.48  0.  0.
150  1.49  0.  0.
151  1.50  0.  0.
152  1.51  0.  0.
153  1.52  0.  0.
154  1.53  0.  0.
155  1.54  0.  0.
156  1.55  0.  0.
157  1.56  0.  0.
158  1.57  0.  0.
159  1.58  0.  0.
160  1.59  0.  0.
161  1.60  0.  0.
162  1.61  0.  0.
163  1.62  0.  0.
164  1.63  0.  0.
165  1.64  0.  0.