Th    ONCVPSP-4.0.1  r_core=   1.20498   1.25651   1.20498   1.40776
90.0000     30.0000      231012    zatom,zion,pspd
8   -1012   3     4   600     0    pspcod,pspxc,lmax,lloc,mmax,r2well
5.99000000  5.00000000  0.00000000    rchrg fchrg qchrg
3     2     2     2     0    nproj
1     1           extension_switch
0                         4.2302839192796E+01  4.2004513557581E+00 -1.0910240368893E+00
1  0.0000000000000E+00 -1.4660929470445E-07  4.0279362778506E-07  6.9736809105159E-09
2  1.0000000000000E-02  1.6716395891448E-01 -1.0786548878724E-01  1.8146197479520E-02
3  2.0000000000000E-02  3.3271217616679E-01 -2.1272026256933E-01  3.6245086806458E-02
4  3.0000000000000E-02  4.9506436140566E-01 -3.1164456810126E-01  5.4248306103095E-02
5  4.0000000000000E-02  6.5270998860193E-01 -4.0189746847531E-01  7.2105444903826E-02
6  5.0000000000000E-02  8.0424037264982E-01 -4.8099859372679E-01  8.9763165147741E-02
7  6.0000000000000E-02  9.4837749038222E-01 -5.4680100750576E-01  1.0716449133166E-01
8  7.0000000000000E-02  1.0839986416611E+00 -5.9755272532603E-01  1.2424831772388E-01
9  8.0000000000000E-02  1.2101561928144E+00 -6.3194482269660E-01  1.4094917356506E-01
10  9.0000000000000E-02  1.3260918177979E+00 -6.4914454710078E-01  1.5719727883260E-01
11  1.0000000000000E-01  1.4312448458461E+00 -6.4881237924113E-01  1.7291891364818E-01
12  1.1000000000000E-01  1.5252545310719E+00 -6.3110255714455E-01  1.8803711402991E-01
13  1.2000000000000E-01  1.6079562720740E+00 -5.9664716124428E-01  2.0247269571918E-01
14  1.3000000000000E-01  1.6793720204531E+00 -5.4652443845745E-01  2.1614559655693E-01
15  1.4000000000000E-01  1.7396953186709E+00 -4.8221259778850E-01  2.2897651666338E-01
16  1.5000000000000E-01  1.7892715926709E+00 -4.0553081923304E-01  2.4088882481091E-01
17  1.6000000000000E-01  1.8285744864977E+00 -3.1856966353632E-01  2.5181068918622E-01
18  1.7000000000000E-01  1.8581791590108E+00 -2.2361343673349E-01  2.6167738151685E-01
19  1.8000000000000E-01  1.8787335619592E+00 -1.2305733732112E-01  2.7043369556541E-01
20  1.9000000000000E-01  1.8909287806513E+00 -1.9322385661371E-02  2.7803641452064E-01
21  2.0000000000000E-01  1.8954695410538E+00  8.5228801226239E-02  2.8445675704814E-01
22  2.1000000000000E-01  1.8930459696462E+00  1.8837237310410E-01  2.8968272887114E-01
23  2.2000000000000E-01  1.8843076354564E+00  2.8809688704674E-01  2.9372130585287E-01
24  2.3000000000000E-01  1.8698408095569E+00  3.8266762186502E-01  2.9660037571168E-01
25  2.4000000000000E-01  1.8501497493779E+00  4.7067931441818E-01  2.9837036872970E-01
26  2.5000000000000E-01  1.8256426582383E+00  5.5109549740112E-01  2.9910551307131E-01
27  2.6000000000000E-01  1.7966227902314E+00  6.2327311449760E-01  2.9890465750661E-01
28  2.7000000000000E-01  1.7632849736659E+00  6.8697163174058E-01  2.9789161328486E-01
29  2.8000000000000E-01  1.7257176198300E+00  7.4234643384127E-01  2.9621497741668E-01
30  2.9000000000000E-01  1.6839100754897E+00  7.8992687042900E-01  2.9404741145047E-01
31  3.0000000000000E-01  1.6377649748293E+00  8.3057987877397E-01  2.9158436267718E-01
32  3.1000000000000E-01  1.5871150569199E+00  8.6546063626967E-01  2.8904222824284E-01
33  3.2000000000000E-01  1.5317437451555E+00  8.9595216874030E-01  2.8665597654214E-01
34  3.3000000000000E-01  1.4714086416248E+00  9.2359624242158E-01  2.8467625414233E-01
35  3.4000000000000E-01  1.4058669773126E+00  9.5001818381049E-01  2.8336601997681E-01
36  3.5000000000000E-01  1.3349019824282E+00  9.7684849109992E-01  2.8299676128193E-01
37  3.6000000000000E-01  1.2583491028342E+00  1.0056442158283E+00  2.8384435737978E-01
38  3.7000000000000E-01  1.1761209898750E+00  1.0378130996330E+00  2.8618466760211E-01
39  3.8000000000000E-01  1.0882302318359E+00  1.0745433485422E+00  2.9028892811469E-01
40  3.9000000000000E-01  9.9480887429780E-01  1.1167417199553E+00  2.9641904888207E-01
41  4.0000000000000E-01  8.9612389089678E-01  1.1649822930174E+00  3.0482290630877E-01
42  4.1000000000000E-01  7.9258791129715E-01  1.2194679026861E+00  3.1572972905935E-01
43  4.2000000000000E-01  6.8476468423103E-01  1.2800057557171E+00  3.2934567411016E-01
44  4.3000000000000E-01  5.7336894403028E-01  1.3459982299349E+00  3.4584968720343E-01
45  4.4000000000000E-01  4.5926055223328E-01  1.4164493053373E+00  3.6538973660594E-01
46  4.5000000000000E-01  3.4343299421192E-01  1.4899865069161E+00  3.8807950153360E-01
47  4.6000000000000E-01  2.2699651676776E-01  1.5648976751780E+00  4.1399558697042E-01
48  4.7000000000000E-01  1.1115638882019E-01  1.6391813416445E+00  4.4317532512193E-01
49  4.8000000000000E-01 -2.8130534413123E-03  1.7106089925323E+00  4.7561521069467E-01
50  4.9000000000000E-01 -1.1359775970869E-01  1.7767970721127E+00  5.1127000292370E-01
51  5.0000000000000E-01 -2.1987577291883E-01  1.8352862233972E+00  5.5005251215863E-01
52  5.1000000000000E-01 -3.2035045340112E-01  1.8836250003031E+00  5.9183407326983E-01
53  5.2000000000000E-01 -4.1378402588299E-01  1.9194551216007E+00  6.3644569257315E-01
54  5.3000000000000E-01 -4.9903033771000E-01  1.9405952782475E+00  6.8367983981883E-01
55  5.4000000000000E-01 -5.7506573824690E-01  1.9451205539338E+00  7.3329284246601E-01
56  5.5000000000000E-01 -6.4101704946081E-01  1.9314346715890E+00  7.8500782636449E-01
57  5.6000000000000E-01 -6.9618569386370E-01  1.8983325302594E+00  8.3851813545462E-01
58  5.7000000000000E-01 -7.4006717471437E-01  1.8450508376163E+00  8.9349115349342E-01
59  5.8000000000000E-01 -7.7236525989738E-01  1.7713050606444E+00  9.4957244338556E-01
60  5.9000000000000E-01 -7.9300039945622E-01  1.6773113953328E+00  1.0063901146442E+00
61  6.0000000000000E-01 -8.0211210086957E-01  1.5637929778927E+00  1.0635593269617E+00
62  6.1000000000000E-01 -8.0005518876229E-01  1.4319701060624E+00  1.1206868378913E+00
63  6.2000000000000E-01 -7.8739007957513E-01  1.2835347896994E+00  1.1773755052064E+00
64  6.3000000000000E-01 -7.6486739946790E-01  1.1206104852322E+00  1.2332286595232E+00
65  6.4000000000000E-01 -7.3340745841970E-01  9.4569836960045E-01  1.2878542700596E+00
66  6.5000000000000E-01 -6.9407525863724E-01  7.6161195835112E-01  1.3408688357310E+00
67  6.6000000000000E-01 -6.4805185531242E-01  5.7140225400221E-01  1.3919009448255E+00
68  6.7000000000000E-01 -5.9660299775451E-01  3.7827591161862E-01  1.4405944589056E+00
69  6.8000000000000E-01 -5.4104605541693E-01  1.8550911892699E-01  1.4866112899393E+00
70  6.9000000000000E-01 -4.8271627401706E-01 -3.6399983051528E-03  1.5296337535238E+00
71  7.0000000000000E-01 -4.2293341088490E-01 -1.8601762123521E-01  1.5693664949773E+00
72  7.1000000000000E-01 -3.6296976624396E-01 -3.5865639414959E-01  1.6055379985764E+00
73  7.2000000000000E-01 -3.0402056009346E-01 -5.1885093245625E-01  1.6379017028470E+00
74  7.3000000000000E-01 -2.4717750568928E-01 -6.6422438919156E-01  1.6662367561632E+00
75  7.4000000000000E-01 -1.9340630443694E-01 -7.9278412843879E-01  1.6903484565716E+00
76  7.5000000000000E-01 -1.4352863837721E-01 -9.0296495760842E-01  1.7100684274188E+00
77  7.6000000000000E-01 -9.8209071172725E-02 -9.9365882029220E-01  1.7252545857346E+00
78  7.7000000000000E-01 -5.7947092923640E-02 -1.0642303302322E+00  1.7357909632383E+00
79  7.8000000000000E-01 -2.3074364859304E-02 -1.1145180169073E+00  1.7415874401602E+00
80  7.9000000000000E-01  6.2429564212867E-03 -1.1448216363435E+00  1.7425794497988E+00
81  8.0000000000000E-01  2.9997102594965E-02 -1.1558763596345E+00  1.7387277069225E+00
82  8.1000000000000E-01  4.8327224510495E-02 -1.1488150701175E+00  1.7300180059301E+00
83  8.2000000000000E-01  6.1504141286000E-02 -1.1251203639669E+00  1.7164611253498E+00
84  8.3000000000000E-01  6.9911985493422E-02 -1.0865681462185E+00  1.6980928641025E+00
85  8.4000000000000E-01  7.4027501344769E-02 -1.0351649358066E+00  1.6749742223629E+00
86  8.5000000000000E-01  7.4397801813109E-02 -9.7308113309097E-01  1.6471917262845E+00
87  8.6000000000000E-01  7.1617408721476E-02 -9.0258255878411E-01  1.6148578817922E+00
88  8.7000000000000E-01  6.6305387340309E-02 -8.2596254473936E-01  1.5781117286205E+00
89  8.8000000000000E-01  5.9083345441976E-02 -7.4547674846156E-01  1.5371194523240E+00
90  8.9000000000000E-01  5.0554998664962E-02 -6.6328268121020E-01  1.4920749996435E+00
91  9.0000000000000E-01  4.1287912999734E-02 -5.8138569356724E-01  1.4432006318940E+00
92  9.1000000000000E-01  3.1797925581935E-02 -5.0159286393628E-01  1.3907473424294E+00
93  9.2000000000000E-01  2.2536621731142E-02 -4.2547589791047E-01  1.3349950581630E+00
94  9.3000000000000E-01  1.3882114641156E-02 -3.5434378413809E-01  1.2762525419455E+00
95  9.4000000000000E-01  6.1332398344003E-03 -2.8922558013816E-01  1.2148569126112E+00
96  9.5000000000000E-01 -4.9285518631807E-04 -2.3086333404129E-01  1.1511727028974E+00
97  9.6000000000000E-01 -5.8598695903379E-03 -1.7971479942287E-01  1.0855903823290E+00
98  9.7000000000000E-01 -9.9085113099151E-03 -1.3596528273728E-01  1.0185242825462E+00
99  9.8000000000000E-01 -1.2650013193194E-02 -9.9547686940862E-02  9.5040987635961E-01
100  9.9000000000000E-01 -1.4157430198164E-02 -7.0169589078368E-02  8.8170037882716E-01
101  1.0000000000000E+00 -1.4555199936648E-02 -4.7346019288449E-02  8.1286265863260E-01
102  1.0100000000000E+00 -1.4007482215243E-02 -3.0436496848608E-02  7.4437247059344E-01
103  1.0200000000000E+00 -1.2705804922989E-02 -1.8684824920651E-02  6.7670904482949E-01
104  1.0300000000000E+00 -1.0856535031073E-02 -1.1260146316985E-02  6.1034909447816E-01
105  1.0400000000000E+00 -8.6686670313195E-03 -7.2978117050561E-03  5.4576033131555E-01
106  1.0500000000000E+00 -6.3423803883713E-03 -5.9387000558208E-03  4.8339460661538E-01
107  1.0600000000000E+00 -4.0587667170194E-03 -6.3657478046881E-03  4.2368082251655E-01
108  1.0700000000000E+00 -1.9710714799228E-03 -7.8365748518373E-03  3.6701778644934E-01
109  1.0800000000000E+00 -1.9773965885318E-04 -9.7112273332670E-03  3.1376720716820E-01
110  1.0900000000000E+00  1.1824943086107E-03 -1.1474174107668E-02  2.6424705524222E-01
111  1.1000000000000E+00  2.1332686958403E-03 -1.2749779424476E-02  2.1872553277159E-01
112  1.1100000000000E+00  2.6608237149001E-03 -1.3310513291951E-02  1.7741591637908E-01
113  1.1200000000000E+00  2.8116074235548E-03 -1.3077138072669E-02  1.4047255364191E-01
114  1.1300000000000E+00  2.6668465816206E-03 -1.2109545522120E-02  1.0798824849481E-01
115  1.1400000000000E+00  2.3353899567486E-03 -1.0591174596752E-02  7.9993826055754E-02
116  1.1500000000000E+00  1.8753014237446E-03 -8.6331169681353E-03  5.6438820941598E-02
117  1.1600000000000E+00  1.1632545911280E-03 -5.9427635669752E-03  3.7158825721883E-02
118  1.1700000000000E+00  4.7388101059150E-04 -3.2661924501697E-03  2.2068017057781E-02
119  1.1800000000000E+00  2.3552864427594E-05 -1.2431964354696E-03  1.1036935101653E-02
120  1.1900000000000E+00 -1.1140137855888E-04 -1.8788034481099E-04  3.8903435484192E-03
121  1.2000000000000E+00 -3.3030533262469E-05  2.3662968649248E-05  4.4866313221093E-04
122  1.2100000000000E+00  2.9480628370041E-06 -3.5316816600848E-06 -2.7520282030194E-05
123  1.2200000000000E+00  3.7879208481674E-08 -1.6634678390025E-08 -6.0363580929834E-07
124  1.23 -0.  0. -0.
125  1.24  0.  0.  0.
126  1.25  0.  0.  0.
127  1.26  0.  0.  0.
128  1.27  0.  0.  0.
129  1.28  0.  0.  0.
130  1.29  0.  0.  0.
131  1.30  0.  0.  0.
132  1.31  0.  0.  0.
133  1.32  0.  0.  0.
134  1.33  0.  0.  0.
135  1.34  0.  0.  0.
136  1.35  0.  0.  0.
137  1.36  0.  0.  0.
138  1.37  0.  0.  0.
139  1.38  0.  0.  0.
140  1.39  0.  0.  0.
141  1.40  0.  0.  0.
142  1.41  0.  0.  0.
143  1.42  0.  0.  0.
144  1.43  0.  0.  0.
145  1.44  0.  0.  0.
146  1.45  0.  0.  0.
147  1.46  0.  0.  0.
148  1.47  0.  0.  0.
149  1.48  0.  0.  0.
150  1.49  0.  0.  0.
151  1.50  0.  0.  0.
152  1.51  0.  0.  0.
153  1.52  0.  0.  0.
154  1.53  0.  0.  0.
155  1.54  0.  0.  0.
156  1.55  0.  0.  0.
157  1.56  0.  0.  0.
158  1.57  0.  0.  0.
159  1.58  0.  0.  0.
160  1.59  0.  0.  0.
161  1.60  0.  0.  0.
162  1.61  0.  0.  0.
163  1.62  0.  0.  0.
164  1.63  0.  0.  0.
165  1.64  0.  0.  0.
166  1.65  0.  0.  0.
167  1.66  0.  0.  0.
168  1.67  0.  0.  0.
169  1.68  0.  0.  0.
170  1.69  0.  0.  0.
171  1.70  0.  0.  0.
172  1.71  0.  0.  0.
173  1.72  0.  0.  0.
174  1.73  0.  0.  0.
175  1.74  0.  0.  0.
176  1.75  0.  0.  0.
177  1.76  0.  0.  0.
178  1.77  0.  0.  0.
179  1.78  0.  0.  0.
180  1.79  0.  0.  0.
181  1.80  0.  0.  0.
182  1.81  0.  0.  0.
183  1.82  0.  0.  0.
184  1.83  0.  0.  0.
185  1.84  0.  0.  0.
186  1.85  0.  0.  0.
187  1.86  0.  0.  0.
188  1.87  0.  0.  0.
189  1.88  0.  0.  0.
190  1.89  0.  0.  0.
191  1.90  0.  0.  0.
192  1.91  0.  0.  0.
193  1.92  0.  0.  0.
194  1.93  0.  0.  0.
195  1.94  0.  0.  0.
196  1.95  0.  0.  0.
197  1.96  0.  0.  0.
198  1.97  0.  0.  0.
199  1.98  0.  0.  0.
200  1.99  0.  0.  0.
201  2.00  0.  0.  0.
202  2.01  0.  0.  0.
203  2.02  0.  0.  0.
204  2.03  0.  0.  0.
205  2.04  0.  0.  0.
206  2.05  0.  0.  0.
207  2.06  0.  0.  0.
208  2.07  0.  0.  0.
209  2.08  0.  0.  0.
210  2.09  0.  0.  0.
211  2.10  0.  0.  0.
212  2.11  0.  0.  0.
213  2.12  0.  0.  0.
214  2.13  0.  0.  0.
215  2.14  0.  0.  0.
216  2.15  0.  0.  0.
217  2.16  0.  0.  0.
218  2.17  0.  0.  0.
219  2.18  0.  0.  0.
220  2.19  0.  0.  0.
221  2.20  0.  0.  0.
222  2.21  0.  0.  0.
223  2.22  0.  0.  0.
224  2.23  0.  0.  0.
225  2.24  0.  0.  0.
226  2.25  0.  0.  0.
227  2.26  0.  0.  0.
228  2.27  0.  0.  0.
229  2.28  0.  0.  0.
230  2.29  0.  0.  0.
231  2.30  0.  0.  0.
232  2.31  0.  0.  0.
233  2.32  0.  0.  0.
234  2.33  0.  0.  0.
235  2.34  0.  0.  0.
236  2.35  0.  0.  0.
237  2.36  0.  0.  0.
238  2.37  0.  0.  0.
239  2.38  0.  0.  0.
240  2.39  0.  0.  0.
241  2.40  0.  0.  0.
242  2.41  0.  0.  0.
243  2.42  0.  0.  0.
244  2.43  0.  0.  0.
245  2.44  0.  0.  0.
246  2.45  0.  0.  0.
247  2.46  0.  0.  0.
248  2.47  0.  0.  0.
249  2.48  0.  0.  0.
250  2.49  0.  0.  0.
251  2.50  0.  0.  0.
252  2.51  0.  0.  0.
253  2.52  0.  0.  0.
254  2.53  0.  0.  0.
255  2.54  0.  0.  0.
256  2.55  0.  0.  0.
257  2.56  0.  0.  0.
258  2.57  0.  0.  0.
259  2.58  0.  0.  0.
260  2.59  0.  0.  0.
261  2.60  0.  0.  0.
262  2.61  0.  0.  0.
263  2.62  0.  0.  0.
264  2.63  0.  0.  0.
265  2.64  0.  0.  0.
266  2.65  0.  0.  0.
267  2.66  0.  0.  0.
268  2.67  0.  0.  0.
269  2.68  0.  0.  0.
270  2.69  0.  0.  0.
271  2.70  0.  0.  0.
272  2.71  0.  0.  0.
273  2.72  0.  0.  0.
274  2.73  0.  0.  0.
275  2.74  0.  0.  0.
276  2.75  0.  0.  0.
277  2.76  0.  0.  0.
278  2.77  0.  0.  0.
279  2.78  0.  0.  0.
280  2.79  0.  0.  0.
281  2.80  0.  0.  0.
282  2.81  0.  0.  0.
283  2.82  0.  0.  0.
284  2.83  0.  0.  0.
285  2.84  0.  0.  0.
286  2.85  0.  0.  0.
287  2.86  0.  0.  0.
288  2.87  0.  0.  0.
289  2.88  0.  0.  0.
290  2.89  0.  0.  0.
291  2.90  0.  0.  0.
292  2.91  0.  0.  0.
293  2.92  0.  0.  0.
294  2.93  0.  0.  0.
295  2.94  0.  0.  0.
296  2.95  0.  0.  0.
297  2.96  0.  0.  0.
298  2.97  0.  0.  0.
299  2.98  0.  0.  0.
300  2.99  0.  0.  0.
301  3.00  0.  0.  0.
302  3.01  0.  0.  0.
303  3.02  0.  0.  0.
304  3.03  0.  0.  0.
305  3.04  0.  0.  0.
306  3.05  0.  0.  0.
307  3.06  0.  0.  0.
308  3.07  0.  0.  0.
309  3.08  0.  0.  0.
310  3.09  0.  0.  0.
311  3.10  0.  0.  0.
312  3.11  0.  0.  0.
313  3.12  0.  0.  0.
314  3.13  0.  0.  0.
315  3.14  0.  0.  0.
316  3.15  0.  0.  0.
317  3.16  0.  0.  0.
318  3.17  0.  0.  0.
319  3.18  0.  0.  0.
320  3.19  0.  0.  0.
321  3.20  0.  0.  0.
322  3.21  0.  0.  0.
323  3.22  0.  0.  0.
324  3.23  0.  0.  0.
325  3.24  0.  0.  0.
326  3.25  0.  0.  0.
327  3.26  0.  0.  0.
328  3.27  0.  0.  0.
329  3.28  0.  0.  0.
330  3.29  0.  0.  0.
331  3.30  0.  0.  0.
332  3.31  0.  0.  0.
333  3.32  0.  0.  0.
334  3.33  0.  0.  0.
335  3.34  0.  0.  0.
336  3.35  0.  0.  0.
337  3.36  0.  0.  0.
338  3.37  0.  0.  0.
339  3.38  0.  0.  0.
340  3.39  0.  0.  0.
341  3.40  0.  0.  0.
342  3.41  0.  0.  0.
343  3.42  0.  0.  0.
344  3.43  0.  0.  0.
345  3.44  0.  0.  0.
346  3.45  0.  0.  0.
347  3.46  0.  0.  0.
348  3.47  0.  0.  0.
349  3.48  0.  0.  0.
350  3.49  0.  0.  0.
351  3.50  0.  0.  0.
352  3.51  0.  0.  0.
353  3.52  0.  0.  0.
354  3.53  0.  0.  0.
355  3.54  0.  0.  0.
356  3.55  0.  0.  0.
357  3.56  0.  0.  0.
358  3.57  0.  0.  0.
359  3.58  0.  0.  0.
360  3.59  0.  0.  0.
361  3.60  0.  0.  0.
362  3.61  0.  0.  0.
363  3.62  0.  0.  0.
364  3.63  0.  0.  0.
365  3.64  0.  0.  0.
366  3.65  0.  0.  0.
367  3.66  0.  0.  0.
368  3.67  0.  0.  0.
369  3.68  0.  0.  0.
370  3.69  0.  0.  0.
371  3.70  0.  0.  0.
372  3.71  0.  0.  0.
373  3.72  0.  0.  0.
374  3.73  0.  0.  0.
375  3.74  0.  0.  0.
376  3.75  0.  0.  0.
377  3.76  0.  0.  0.
378  3.77  0.  0.  0.
379  3.78  0.  0.  0.
380  3.79  0.  0.  0.
381  3.80  0.  0.  0.
382  3.81  0.  0.  0.
383  3.82  0.  0.  0.
384  3.83  0.  0.  0.
385  3.84  0.  0.  0.
386  3.85  0.  0.  0.
387  3.86  0.  0.  0.
388  3.87  0.  0.  0.
389  3.88  0.  0.  0.
390  3.89  0.  0.  0.
391  3.90  0.  0.  0.
392  3.91  0.  0.  0.
393  3.92  0.  0.  0.
394  3.93  0.  0.  0.
395  3.94  0.  0.  0.
396  3.95  0.  0.  0.
397  3.96  0.  0.  0.
398  3.97  0.  0.  0.
399  3.98  0.  0.  0.
400  3.99  0.  0.  0.
401  4.00  0.  0.  0.
402  4.01  0.  0.  0.
403  4.02  0.  0.  0.
404  4.03  0.  0.  0.
405  4.04  0.  0.  0.
406  4.05  0.  0.  0.
407  4.06  0.  0.  0.
408  4.07  0.  0.  0.
409  4.08  0.  0.  0.
410  4.09  0.  0.  0.
411  4.10  0.  0.  0.
412  4.11  0.  0.  0.
413  4.12  0.  0.  0.
414  4.13  0.  0.  0.
415  4.14  0.  0.  0.
416  4.15  0.  0.  0.
417  4.16  0.  0.  0.
418  4.17  0.  0.  0.
419  4.18  0.  0.  0.
420  4.19  0.  0.  0.
421  4.20  0.  0.  0.
422  4.21  0.  0.  0.
423  4.22  0.  0.  0.
424  4.23  0.  0.  0.
425  4.24  0.  0.  0.
426  4.25  0.  0.  0.
427  4.26  0.  0.  0.
428  4.27  0.  0.  0.
429  4.28  0.  0.  0.
430  4.29  0.  0.  0.
431  4.30  0.  0.  0.
432  4.31  0.  0.  0.
433  4.32  0.  0.  0.
434  4.33  0.  0.  0.
435  4.34  0.  0.  0.
436  4.35  0.  0.  0.
437  4.36  0.  0.  0.
438  4.37  0.  0.  0.
439  4.38  0.  0.  0.
440  4.39  0.  0.  0.
441  4.40  0.  0.  0.
442  4.41  0.  0.  0.
443  4.42  0.  0.  0.
444  4.43  0.  0.  0.
445  4.44  0.  0.  0.
446  4.45  0.  0.  0.
447  4.46  0.  0.  0.
448  4.47  0.  0.  0.
449  4.48  0.  0.  0.
450  4.49  0.  0.  0.
451  4.50  0.  0.  0.
452  4.51  0.  0.  0.
453  4.52  0.  0.  0.
454  4.53  0.  0.  0.
455  4.54  0.  0.  0.
456  4.55  0.  0.  0.
457  4.56  0.  0.  0.
458  4.57  0.  0.  0.
459  4.58  0.  0.  0.
460  4.59  0.  0.  0.
461  4.60  0.  0.  0.
462  4.61  0.  0.  0.
463  4.62  0.  0.  0.
464  4.63  0.  0.  0.
465  4.64  0.  0.  0.
466  4.65  0.  0.  0.
467  4.66  0.  0.  0.
468  4.67  0.  0.  0.
469  4.68  0.  0.  0.
470  4.69  0.  0.  0.
471  4.70  0.  0.  0.
472  4.71  0.  0.  0.
473  4.72  0.  0.  0.
474  4.73  0.  0.  0.
475  4.74  0.  0.  0.
476  4.75  0.  0.  0.
477  4.76  0.  0.  0.
478  4.77  0.  0.  0.
479  4.78  0.  0.  0.
480  4.79  0.  0.  0.
481  4.80  0.  0.  0.
482  4.81  0.  0.  0.
483  4.82  0.  0.  0.
484  4.83  0.  0.  0.
485  4.84  0.  0.  0.
486  4.85  0.  0.  0.
487  4.86  0.  0.  0.
488  4.87  0.  0.  0.
489  4.88  0.  0.  0.
490  4.89  0.  0.  0.
491  4.90  0.  0.  0.
492  4.91  0.  0.  0.
493  4.92  0.  0.  0.
494  4.93  0.  0.  0.
495  4.94  0.  0.  0.
496  4.95  0.  0.  0.
497  4.96  0.  0.  0.
498  4.97  0.  0.  0.
499  4.98  0.  0.  0.
500  4.99  0.  0.  0.
501  5.00  0.  0.  0.
502  5.01  0.  0.  0.
503  5.02  0.  0.  0.
504  5.03  0.  0.  0.
505  5.04  0.  0.  0.
506  5.05  0.  0.  0.
507  5.06  0.  0.  0.
508  5.07  0.  0.  0.
509  5.08  0.  0.  0.
510  5.09  0.  0.  0.
511  5.10  0.  0.  0.
512  5.11  0.  0.  0.
513  5.12  0.  0.  0.
514  5.13  0.  0.  0.
515  5.14  0.  0.  0.
516  5.15  0.  0.  0.
517  5.16  0.  0.  0.
518  5.17  0.  0.  0.
519  5.18  0.  0.  0.
520  5.19  0.  0.  0.
521  5.20  0.  0.  0.
522  5.21  0.  0.  0.
523  5.22  0.  0.  0.
524  5.23  0.  0.  0.
525  5.24  0.  0.  0.
526  5.25  0.  0.  0.
527  5.26  0.  0.  0.
528  5.27  0.  0.  0.
529  5.28  0.  0.  0.
530  5.29  0.  0.  0.
531  5.30  0.  0.  0.
532  5.31  0.  0.  0.
533  5.32  0.  0.  0.
534  5.33  0.  0.  0.
535  5.34  0.  0.  0.
536  5.35  0.  0.  0.
537  5.36  0.  0.  0.
538  5.37  0.  0.  0.
539  5.38  0.  0.  0.
540  5.39  0.  0.  0.
541  5.40  0.  0.  0.
542  5.41  0.  0.  0.
543  5.42  0.  0.  0.
544  5.43  0.  0.  0.
545  5.44  0.  0.  0.
546  5.45  0.  0.  0.
547  5.46  0.  0.  0.
548  5.47  0.  0.  0.
549  5.48  0.  0.  0.
550  5.49  0.  0.  0.
551  5.50  0.  0.  0.
552  5.51  0.  0.  0.
553  5.52  0.  0.  0.
554  5.53  0.  0.  0.
555  5.54  0.  0.  0.
556  5.55  0.  0.  0.
557  5.56  0.  0.  0.
558  5.57  0.  0.  0.
559  5.58  0.  0.  0.
560  5.59  0.  0.  0.
561  5.60  0.  0.  0.
562  5.61  0.  0.  0.
563  5.62  0.  0.  0.
564  5.63  0.  0.  0.
565  5.64  0.  0.  0.
566  5.65  0.  0.  0.
567  5.66  0.  0.  0.
568  5.67  0.  0.  0.
569  5.68  0.  0.  0.
570  5.69  0.  0.  0.
571  5.70  0.  0.  0.
572  5.71  0.  0.  0.
573  5.72  0.  0.  0.
574  5.73  0.  0.  0.
575  5.74  0.  0.  0.
576  5.75  0.  0.  0.
577  5.76  0.  0.  0.
578  5.77  0.  0.  0.
579  5.78  0.  0.  0.
580  5.79  0.  0.  0.
581  5.80  0.  0.  0.
582  5.81  0.  0.  0.
583  5.82  0.  0.  0.
584  5.83  0.  0.  0.
585  5.84  0.  0.  0.
586  5.85  0.  0.  0.
587  5.86  0.  0.  0.
588  5.87  0.  0.  0.
589  5.88  0.  0.  0.
590  5.89  0.  0.  0.
591  5.90  0.  0.  0.
592  5.91  0.  0.  0.
593  5.92  0.  0.  0.
594  5.93  0.  0.  0.
595  5.94  0.  0.  0.
596  5.95  0.  0.  0.
597  5.96  0.  0.  0.
598  5.97  0.  0.  0.
599  5.98  0.  0.  0.
600  5.99  0.  0.  0.
1                         9.6239634998471E+00 -6.3503916126509E-01
1  0.0000000000000E+00 -7.8350800847282E-10 -1.0767700037162E-08
2  1.0000000000000E-02  3.6244085838767E-03  6.6820052119145E-04
3  2.0000000000000E-02  1.4471397466380E-02  2.6709985673034E-03
4  3.0000000000000E-02  3.2462395708356E-02  6.0028377371777E-03
5  4.0000000000000E-02  5.7466918240739E-02  1.0653978631453E-02
6  5.0000000000000E-02  8.9303268812060E-02  1.6609806501682E-02
7  6.0000000000000E-02  1.2773953026800E-01  2.3849912498142E-02
8  7.0000000000000E-02  1.7249484773420E-01  3.2346996868137E-02
9  8.0000000000000E-02  2.2324101105698E-01  4.2065653224260E-02
10  9.0000000000000E-02  2.7960434307388E-01  5.2961101621657E-02
11  1.0000000000000E-01  3.4116789985308E-01  6.4977944321615E-02
12  1.1000000000000E-01  4.0747398789865E-01  7.8049021524493E-02
13  1.2000000000000E-01  4.7802700143246E-01  9.2094444865743E-02
14  1.3000000000000E-01  5.5229658022770E-01  1.0702088401665E-01
15  1.4000000000000E-01  6.2972108510449E-01  1.2272117634508E-01
16  1.5000000000000E-01  7.0971138415571E-01  1.3907432139933E-01
17  1.6000000000000E-01  7.9165493812711E-01  1.5594591119953E-01
18  1.7000000000000E-01  8.7492016823304E-01  1.7318903426633E-01
19  1.8000000000000E-01  9.5886108417251E-01  1.9064567637247E-01
20  1.9000000000000E-01  1.0428221443625E+00  2.0814862462699E-01
21  2.0000000000000E-01  1.1261433145870E+00  2.2552386420100E-01
22  2.1000000000000E-01  1.2081652855371E+00  2.4259343932997E-01
23  2.2000000000000E-01  1.2882348042685E+00  2.5917873274654E-01
24  2.3000000000000E-01  1.3657100695947E+00  2.7510410098749E-01
25  2.4000000000000E-01  1.4399661370437E+00  2.9020078763638E-01
26  2.5000000000000E-01  1.5104002753839E+00  3.0431102304004E-01
27  2.6000000000000E-01  1.5764372140172E+00  3.1729220785239E-01
28  2.7000000000000E-01  1.6375342188639E+00  3.2902106932964E-01
29  2.8000000000000E-01  1.6931859338224E+00  3.3939767396559E-01
30  2.9000000000000E-01  1.7429289255451E+00  3.4834917806371E-01
31  3.0000000000000E-01  1.7863458711691E+00  3.5583319934493E-01
32  3.1000000000000E-01  1.8230693317825E+00  3.6184069773323E-01
33  3.2000000000000E-01  1.8527850587676E+00  3.6639826198366E-01
34  3.3000000000000E-01  1.8752347856767E+00  3.6956971065185E-01
35  3.4000000000000E-01  1.8902184648788E+00  3.7145693077740E-01
36  3.5000000000000E-01  1.8975959157379E+00  3.7219989519869E-01
37  3.6000000000000E-01  1.8972878593991E+00  3.7197581917605E-01
38  3.7000000000000E-01  1.8892763241966E+00  3.7099743844458E-01
39  3.8000000000000E-01  1.8736044150614E+00  3.6951041335746E-01
40  3.9000000000000E-01  1.8503754498980E+00  3.6778988678274E-01
41  4.0000000000000E-01  1.8197514755041E+00  3.6613624622479E-01
42  4.1000000000000E-01  1.7819511850043E+00  3.6487016259608E-01
43  4.2000000000000E-01  1.7372472677625E+00  3.6432699851980E-01
44  4.3000000000000E-01  1.6859632311072E+00  3.6485069738816E-01
45  4.4000000000000E-01  1.6284697407841E+00  3.6678728007998E-01
46  4.5000000000000E-01  1.5651805336613E+00  3.7047808876756E-01
47  4.6000000000000E-01  1.4965479617203E+00  3.7625292621951E-01
48  4.7000000000000E-01  1.4230582306679E+00  3.8442324413286E-01
49  4.8000000000000E-01  1.3452263995025E+00  3.9527553511697E-01
50  4.9000000000000E-01  1.2635912090471E+00  4.0906507992866E-01
51  5.0000000000000E-01  1.1787098077862E+00  4.2601019447241E-01
52  5.1000000000000E-01  1.0911524423603E+00  4.4628711009607E-01
53  5.2000000000000E-01  1.0014971778354E+00  4.7002560611626E-01
54  5.3000000000000E-01  9.1032470946875E-01  4.9730549568877E-01
55  5.4000000000000E-01  8.1821332326441E-01  5.2815404558575E-01
56  5.5000000000000E-01  7.2573405729981E-01  5.6254438772749E-01
57  5.6000000000000E-01  6.3344610977587E-01  6.0039495607788E-01
58  5.7000000000000E-01  5.4189253318750E-01  6.4156995743847E-01
59  5.8000000000000E-01  4.5159624711909E-01  6.8588085947725E-01
60  5.9000000000000E-01  3.6305639514062E-01  7.3308885472650E-01
61  6.0000000000000E-01  2.7674506430855E-01  7.8290823597949E-01
62  6.1000000000000E-01  1.9310437904682E-01  8.3501059717429E-01
63  6.2000000000000E-01  1.1254397486882E-01  8.8902975508049E-01
64  6.3000000000000E-01  3.5438851650337E-02  9.4456727142682E-01
65  6.4000000000000E-01 -3.7872398897022E-02  1.0011984429615E+00
66  6.5000000000000E-01 -1.0708900117590E-01  1.0584786186445E+00
67  6.6000000000000E-01 -1.7194905212144E-01  1.1159496989393E+00
68  6.7000000000000E-01 -2.3223024166770E-01  1.1731466720847E+00
69  6.8000000000000E-01 -2.8775025449327E-01  1.2296040462285E+00
70  6.9000000000000E-01 -3.3836687107849E-01  1.2848620442326E+00
71  7.0000000000000E-01 -3.8397778612422E-01  1.3384724394996E+00
72  7.1000000000000E-01 -4.2452016171106E-01  1.3900039259279E+00
73  7.2000000000000E-01 -4.5996993133717E-01  1.4390469325567E+00
74  7.3000000000000E-01 -4.9034086930361E-01  1.4852178130203E+00
75  7.4000000000000E-01 -5.1568343797246E-01  1.5281623609391E+00
76  7.5000000000000E-01 -5.3608342336927E-01  1.5675586241200E+00
77  7.6000000000000E-01 -5.5166036760329E-01  1.6031190122055E+00
78  7.7000000000000E-01 -5.6256580479973E-01  1.6345917134776E+00
79  7.8000000000000E-01 -5.6898130582898E-01  1.6617614561842E+00
80  7.9000000000000E-01 -5.7111633621409E-01  1.6844496673879E+00
81  8.0000000000000E-01 -5.6920593131289E-01  1.7025140973416E+00
82  8.1000000000000E-01 -5.6350819329106E-01  1.7158479893131E+00
83  8.2000000000000E-01 -5.5430161558227E-01  1.7243788832187E+00
84  8.3000000000000E-01 -5.4188224249154E-01  1.7280671461422E+00
85  8.4000000000000E-01 -5.2656067432432E-01  1.7269043236772E+00
86  8.5000000000000E-01 -5.0865893186339E-01  1.7209114030547E+00
87  8.6000000000000E-01 -4.8850719808267E-01  1.7101370723541E+00
88  8.7000000000000E-01 -4.6644045955842E-01  1.6946560500180E+00
89  8.8000000000000E-01 -4.4279507496346E-01  1.6745675458141E+00
90  8.9000000000000E-01 -4.1790530312870E-01  1.6499938988364E+00
91  9.0000000000000E-01 -3.9209982822874E-01  1.6210794207159E+00
92  9.1000000000000E-01 -3.6569832447875E-01  1.5879894536455E+00
93  9.2000000000000E-01 -3.3900810709293E-01  1.5509096338485E+00
94  9.3000000000000E-01 -3.1232091992446E-01  1.5100453325538E+00
95  9.4000000000000E-01 -2.8590991296095E-01  1.4656212291801E+00
96  9.5000000000000E-01 -2.6002686447880E-01  1.4178809560791E+00
97  9.6000000000000E-01 -2.3489970297486E-01  1.3670867416085E+00
98  9.7000000000000E-01 -2.1073038282779E-01  1.3135189691992E+00
99  9.8000000000000E-01 -1.8769316486103E-01  1.2574755650842E+00
100  9.9000000000000E-01 -1.6593334848780E-01  1.1992711269792E+00
101  1.0000000000000E+00 -1.4556649584904E-01  1.1392357106900E+00
102  1.0100000000000E+00 -1.2667818029489E-01  1.0777132016467E+00
103  1.0200000000000E+00 -1.0932428173209E-01  1.0150592138907E+00
104  1.0300000000000E+00 -9.3531839826395E-02  9.5163848011236E-01
105  1.0400000000000E+00 -7.9300462911130E-02  8.8782172285064E-01
106  1.0500000000000E+00 -6.6604275878844E-02  8.2398202865287E-01
107  1.0600000000000E+00 -5.5394374471314E-02  7.6049078354892E-01
108  1.0700000000000E+00 -4.5601736454430E-02  6.9771326915639E-01
109  1.0800000000000E+00 -3.7140522445746E-02  6.3600406341574E-01
110  1.0900000000000E+00 -2.9911680803159E-02  5.7570243800565E-01
111  1.1000000000000E+00 -2.3806752397942E-02  5.1712799481650E-01
112  1.1100000000000E+00 -1.8711752403034E-02  4.6057683614312E-01
113  1.1200000000000E+00 -1.4510987823943E-02  4.0631861640428E-01
114  1.1300000000000E+00 -1.1090651565919E-02  3.5459487667797E-01
115  1.1400000000000E+00 -8.3420166520940E-03  3.0561911633207E-01
116  1.1500000000000E+00 -6.1640380018465E-03  2.5957910785249E-01
117  1.1600000000000E+00 -4.4651541321004E-03  2.1664201104619E-01
118  1.1700000000000E+00 -3.1640644481915E-03  1.7696289708545E-01
119  1.1800000000000E+00 -2.1893170775184E-03  1.4069718386923E-01
120  1.1900000000000E+00 -1.4770285647917E-03  1.0801859965713E-01
121  1.2000000000000E+00 -9.8127663396377E-04  7.9110781617251E-02
122  1.2100000000000E+00 -6.7457516483907E-04  5.4179055958672E-02
123  1.2200000000000E+00 -4.6749409666656E-04  3.3622943887156E-02
124  1.2300000000000E+00 -2.9803111360694E-04  1.7784460421873E-02
125  1.2400000000000E+00 -1.4502047888807E-04  6.8961507308709E-03