Th    ONCVPSP-4.0.1  r_core=   1.20498   1.25651   1.20498   1.40776
90.0000     30.0000      231012    zatom,zion,pspd
8   -1012   3     4   600     0    pspcod,pspxc,lmax,lloc,mmax,r2well
5.99000000  5.00000000  0.00000000    rchrg fchrg qchrg
3     3     3     2    nproj
3     1           extension_switch
3     4     4    nprojso
0                         4.2814295436797E+01  4.2312016464986E+00 -1.0814689975946E+00
1  0.0000000000000E+00 -1.4898829214793E-07  4.0759835584492E-07  7.6689577466205E-09
2  1.0000000000000E-02  1.6737750871274E-01 -1.0842481376836E-01  1.7896391224471E-02
3  2.0000000000000E-02  3.3312819827263E-01 -2.1381558618865E-01  3.5749842878234E-02
4  3.0000000000000E-02  4.9566116393688E-01 -3.1323016572883E-01  5.3516203969913E-02
5  4.0000000000000E-02  6.5345617386920E-01 -4.0390703796205E-01  7.1148965021762E-02
6  5.0000000000000E-02  8.0509615665220E-01 -4.8334789951700E-01  8.8598237654389E-02
7  6.0000000000000E-02  9.4929638296191E-01 -5.4939124729616E-01  1.0580991905613E-01
8  7.0000000000000E-02  1.0849294232530E+00 -6.0027449080941E-01  1.2272509362247E-01
9  8.0000000000000E-02  1.2110451122916E+00 -6.3468250306882E-01  1.3927971638204E-01
10  9.0000000000000E-02  1.3268849272854E+00 -6.5178100681010E-01  1.5540461365260E-01
11  1.0000000000000E-01  1.4318903828694E+00 -6.5123373056977E-01  1.7102582595322E-01
12  1.1000000000000E-01  1.5257052562412E+00 -6.3320284404103E-01  1.8606530683243E-01
13  1.2000000000000E-01  1.6081716717523E+00 -5.9833277354356E-01  2.0044197928134E-01
14  1.3000000000000E-01  1.6793202884825E+00 -5.4771808513283E-01  2.1407313912821E-01
15  1.4000000000000E-01  1.7393550390689E+00 -4.8285668383536E-01  2.2687618261282E-01
16  1.5000000000000E-01  1.7886330559719E+00 -4.0559009260656E-01  2.3877062356815E-01
17  1.6000000000000E-01  1.8276405857072E+00 -3.1803302543987E-01  2.4968035464202E-01
18  1.7000000000000E-01  1.8569658264823E+00 -2.2249483950279E-01  2.5953609709912E-01
19  1.8000000000000E-01  1.8772697253280E+00 -1.2139572801665E-01  2.6827797525592E-01
20  1.9000000000000E-01  1.8892558336469E+00 -1.7180689016582E-02  2.7585814478269E-01
21  2.0000000000000E-01  1.8936403429173E+00  8.7765630965972E-02  2.8224339917889E-01
22  2.1000000000000E-01  1.8911234043380E+00  1.9120016701550E-01  2.8741767586424E-01
23  2.2000000000000E-01  1.8823627782120E+00  2.9109584597423E-01  2.9138438264299E-01
24  2.3000000000000E-01  1.8679507630250E+00  3.8570654429207E-01  2.9416846685249E-01
25  2.4000000000000E-01  1.8483952240253E+00  4.7362031703194E-01  2.9581815329528E-01
26  2.5000000000000E-01  1.8241053814508E+00  5.5379905857560E-01  2.9640628301249E-01
27  2.6000000000000E-01  1.7953828352362E+00  6.2560325808956E-01  2.9603119295827E-01
28  2.7000000000000E-01  1.7624181027823E+00  6.8880106247515E-01  2.9481708649849E-01
29  2.8000000000000E-01  1.7252927365087E+00  7.4356143636712E-01  2.9291385614241E-01
30  2.9000000000000E-01  1.6839868761053E+00  7.9043179187179E-01  2.9049633273959E-01
31  3.0000000000000E-01  1.6383918843892E+00  8.3030102898965E-01  2.8776294920830E-01
32  3.1000000000000E-01  1.5883275229738E+00  8.6434946051660E-01  2.8493382134847E-01
33  3.2000000000000E-01  1.5335629516078E+00  8.9398757335838E-01  2.8224826304894E-01
34  3.3000000000000E-01  1.4738406893087E+00  9.2078598443094E-01  2.7996176783190E-01
35  3.4000000000000E-01  1.4089025616329E+00  9.4639926895300E-01  2.7834250278999E-01
36  3.5000000000000E-01  1.3385165807244E+00  9.7248656054958E-01  2.7766737417551E-01
37  3.6000000000000E-01  1.2625036659836E+00  1.0006319382611E+00  2.7821773582960E-01
38  3.7000000000000E-01  1.1807631147357E+00  1.0322676212175E+00  2.8027482195271E-01
39  3.8000000000000E-01  1.0932957740497E+00  1.0686028874003E+00  2.8411499412030E-01
40  3.9000000000000E-01  1.0002239453702E+00  1.1105614224629E+00  2.9000489868847E-01
41  4.0000000000000E-01  9.0180716991174E-01  1.1587294958526E+00  2.9819663462180E-01
42  4.1000000000000E-01  7.9845319059182E-01  1.2133169658121E+00  3.0892303317941E-01
43  4.2000000000000E-01  6.9072356025729E-01  1.2741326467264E+00  3.2239314975233E-01
44  4.3000000000000E-01  5.7933355975089E-01  1.3405750488218E+00  3.3878806446128E-01
45  4.4000000000000E-01  4.6514629591118E-01  1.4116389405154E+00  3.5825708197754E-01
46  4.5000000000000E-01  3.4916106140108E-01  1.4859376080821E+00  3.8091441256476E-01
47  4.6000000000000E-01  2.3249624761669E-01  1.5617401166683E+00  4.0683640576923E-01
48  4.7000000000000E-01  1.1636730125365E-01  1.6370223316890E+00  4.3605939578271E-01
49  4.8000000000000E-01  2.0603971902725E-03  1.7095299599603E+00  4.6857820359002E-01
50  4.9000000000000E-01 -1.0909734139033E-01  1.7768514335302E+00  5.0434532596517E-01
51  5.0000000000000E-01 -2.1577011595808E-01  1.8364981016782E+00  5.4327082559973E-01
52  5.1000000000000E-01 -3.1664716434256E-01  1.8859889306459E+00  5.8522292056269E-01
53  5.2000000000000E-01 -4.1047679966786E-01  1.9229367456656E+00  6.3002925534442E-01
54  5.3000000000000E-01 -4.9609964724032E-01  1.9451329913680E+00  6.7747882036418E-01
55  5.4000000000000E-01 -5.7247997232743E-01  1.9506280363696E+00  7.2732447244604E-01
56  5.5000000000000E-01 -6.3873405303339E-01  1.9378042035465E+00  7.7928599578896E-01
57  5.6000000000000E-01 -6.9415465045585E-01  1.9054389630781E+00  8.3305363172976E-01
58  5.7000000000000E-01 -7.3823075934014E-01  1.8527560711115E+00  8.8829199643175E-01
59  5.8000000000000E-01 -7.7066198168340E-01  1.7794628599029E+00  9.4464429877450E-01
60  5.9000000000000E-01 -7.9136704734122E-01  1.6857723698879E+00  1.0017367663514E+00
61  6.0000000000000E-01 -8.0048620302212E-01  1.5724095424730E+00  1.0591831857093E+00
62  6.1000000000000E-01 -7.9837739696972E-01  1.4406012451427E+00  1.1165894638168E+00
63  6.2000000000000E-01 -7.8560639371175E-01  1.2920504576891E+00  1.1735581211730E+00
64  6.3000000000000E-01 -7.6293115409023E-01  1.1288954899222E+00  1.2296926328410E+00
65  6.4000000000000E-01 -7.3128100326947E-01  9.5365560780293E-01  1.2846015418045E+00
66  6.5000000000000E-01 -6.9173127697031E-01  7.6916489865290E-01  1.3379022791255E+00
67  6.6000000000000E-01 -6.4547427803727E-01  5.7849659119573E-01  1.3892246370950E+00
68  6.7000000000000E-01 -5.9378748681145E-01  3.8488034950752E-01  1.4382138545286E+00
69  6.8000000000000E-01 -5.3800004606146E-01  1.9161527158267E-01  1.4845332871332E+00
70  6.9000000000000E-01 -4.7945858207669E-01  1.9814365895165E-03  1.5278666500122E+00
71  7.0000000000000E-01 -4.1949342700835E-01 -1.8084714277048E-01  1.5679198334093E+00
72  7.1000000000000E-01 -3.5938627407118E-01 -3.5388539418183E-01  1.6044223062591E+00
73  7.2000000000000E-01 -3.0034022858073E-01 -5.1441330060555E-01  1.6371281345556E+00
74  7.3000000000000E-01 -2.4345311705356E-01 -6.6004294159037E-01  1.6658166525615E+00
75  7.4000000000000E-01 -1.8969478792757E-01 -7.8877449351098E-01  1.6902928340817E+00
76  7.5000000000000E-01 -1.3988898605160E-01 -8.9903963070589E-01  1.7103874181031E+00
77  7.6000000000000E-01 -9.4700214844053E-02 -9.8973122552021E-01  1.7259568478126E+00
78  7.7000000000000E-01 -5.4625821403183E-02 -1.0602187303981E+00  1.7368830841784E+00
79  7.8000000000000E-01 -1.9993357566431E-02 -1.1103491213035E+00  1.7430733548351E+00
80  7.9000000000000E-01  9.0369092931338E-03 -1.1404337705907E+00  1.7444598959496E+00
81  8.0000000000000E-01  3.2464631619742E-02 -1.1512220814316E+00  1.7409997391634E+00
82  8.1000000000000E-01  5.0437613199514E-02 -1.1438631386548E+00  1.7326745877864E+00
83  8.2000000000000E-01  6.3236220219530E-02 -1.1198569979522E+00  1.7194908164163E+00
84  8.3000000000000E-01  7.1254663403219E-02 -1.0809975348254E+00  1.7014796164354E+00
85  8.4000000000000E-01  7.4979922490996E-02 -1.0293089972091E+00  1.6786972967748E+00
86  8.5000000000000E-01  7.4969133471768E-02 -9.6697854535633E-01  1.6512257354249E+00
87  8.6000000000000E-01  7.1826276628931E-02 -8.9628711657645E-01  1.6191729628882E+00
88  8.7000000000000E-01  6.6178989979542E-02 -8.1954092139677E-01  1.5826738446650E+00
89  8.8000000000000E-01  5.8656289613112E-02 -7.3900576554538E-01  1.5418908164567E+00
90  8.9000000000000E-01  4.9867908422998E-02 -6.5684620570686E-01  1.4970146136064E+00
91  9.0000000000000E-01  4.0385871428032E-02 -5.7507129589547E-01  1.4482649258748E+00
92  9.1000000000000E-01  3.0728813742114E-02 -4.9548837728962E-01  1.3958909004346E+00
93  9.2000000000000E-01  2.1349421349297E-02 -4.1966602103183E-01  1.3401714103822E+00
94  9.3000000000000E-01  1.2625240619804E-02 -3.4890686538141E-01  1.2814150034438E+00
95  9.4000000000000E-01  4.8529655900186E-03 -2.8423071085689E-01  1.2199594461708E+00
96  9.5000000000000E-01 -1.7538220841333E-03 -2.2636786443885E-01  1.1561707829496E+00
97  9.6000000000000E-01 -7.0636116910966E-03 -1.7576237066070E-01  1.0904418366866E+00
98  9.7000000000000E-01 -1.1022885165471E-02 -1.3258444619350E-01  1.0231900890502E+00
99  9.8000000000000E-01 -1.3649363418545E-02 -9.6751156008631E-02  9.5485489256478E-01
100  9.9000000000000E-01 -1.5023016037564E-02 -6.7954141900836E-02  8.8589398443680E-01
101  1.0000000000000E+00 -1.5275328823285E-02 -4.5693043461923E-02  8.1677929248744E-01
102  1.0100000000000E+00 -1.4577356858969E-02 -2.9313140538550E-02  7.4799204657585E-01
103  1.0200000000000E+00 -1.3127101902222E-02 -1.8045694116965E-02  6.8001723399162E-01
104  1.0300000000000E+00 -1.1136743253475E-02 -1.1049466093973E-02  6.1333746398278E-01
105  1.0400000000000E+00 -8.8202233662438E-03 -7.4519512211995E-03  5.4842633433239E-01
106  1.0500000000000E+00 -6.3816469551025E-03 -6.3889472936460E-03  4.8574142109491E-01
107  1.0600000000000E+00 -4.0048995205196E-03 -7.0412111743939E-03  4.2571704073139E-01
108  1.0700000000000E+00 -1.8448332024458E-03 -8.6670850113726E-03  3.6875696132791E-01
109  1.0800000000000E+00 -2.0310463647846E-05 -1.0630113841113E-02  3.1522726574176E-01
110  1.0900000000000E+00  1.3906550145194E-03 -1.2420797567528E-02  2.6544959399963E-01
111  1.1000000000000E+00  2.3534591912356E-03 -1.3671709993180E-02  2.1969501440034E-01
112  1.1100000000000E+00  2.8769891734185E-03 -1.4165260024377E-02  1.7817879232008E-01
113  1.1200000000000E+00  3.0110397646313E-03 -1.3833349460053E-02  1.4105634217615E-01
114  1.1300000000000E+00  2.8406555547787E-03 -1.2747612998152E-02  1.0842060375968E-01
115  1.1400000000000E+00  2.4787343078625E-03 -1.1103233086553E-02  8.0301639917385E-02
116  1.1500000000000E+00  1.9862948399356E-03 -9.0203296488487E-03  5.6647383869914E-02
117  1.1600000000000E+00  1.2395851850597E-03 -6.2079402719372E-03  3.7291050799827E-02
118  1.1700000000000E+00  5.1860728495935E-04 -3.4245113654676E-03  2.2144096757645E-02
119  1.1800000000000E+00  4.4121354979474E-05 -1.3197390469433E-03  1.1074192134215E-02
120  1.1900000000000E+00 -1.0539698319606E-04 -2.1271419274102E-04  3.9034122956139E-03
121  1.2000000000000E+00 -3.2540366190038E-05  2.1123488291328E-05  4.5019766357008E-04
122  1.2100000000000E+00  2.9400012238873E-06 -3.4342099595128E-06 -2.7615444068487E-05
123  1.2200000000000E+00  3.7388567695418E-08 -1.3913788032492E-08 -6.0567982467257E-07
124  1.23  0.  0.  0.
125  1.24  0.  0.  0.
126  1.25  0.  0.  0.
127  1.26  0.  0.  0.
128  1.27  0.  0.  0.
129  1.28  0.  0.  0.
130  1.29  0.  0.  0.
131  1.30  0.  0.  0.
132  1.31  0.  0.  0.
133  1.32  0.  0.  0.
134  1.33  0.  0.  0.
135  1.34  0.  0.  0.
136  1.35  0.  0.  0.
137  1.36  0.  0.  0.
138  1.37  0.  0.  0.
139  1.38  0.  0.  0.
140  1.39  0.  0.  0.
141  1.40  0.  0.  0.
142  1.41  0.  0.  0.
143  1.42  0.  0.  0.
144  1.43  0.  0.  0.
145  1.44  0.  0.  0.
146  1.45  0.  0.  0.
147  1.46  0.  0.  0.
148  1.47  0.  0.  0.
149  1.48  0.  0.  0.
150  1.49  0.  0.  0.
151  1.50  0.  0.  0.
152  1.51  0.  0.  0.
153  1.52  0.  0.  0.
154  1.53  0.  0.  0.
155  1.54  0.  0.  0.
156  1.55  0.  0.  0.
157  1.56  0.  0.  0.
158  1.57  0.  0.  0.
159  1.58  0.  0.  0.
160  1.59  0.  0.  0.
161  1.60  0.  0.  0.
162  1.61  0.  0.  0.
163  1.62  0.  0.  0.
164  1.63  0.  0.  0.
165  1.64  0.  0.  0.
166  1.65  0.  0.  0.
167  1.66  0.  0.  0.
168  1.67  0.  0.  0.
169  1.68  0.  0.  0.
170  1.69  0.  0.  0.
171  1.70  0.  0.  0.
172  1.71  0.  0.  0.
173  1.72  0.  0.  0.
174  1.73  0.  0.  0.
175  1.74  0.  0.  0.
176  1.75  0.  0.  0.
177  1.76  0.  0.  0.
178  1.77  0.  0.  0.
179  1.78  0.  0.  0.
180  1.79  0.  0.  0.
181  1.80  0.  0.  0.
182  1.81  0.  0.  0.
183  1.82  0.  0.  0.
184  1.83  0.  0.  0.
185  1.84  0.  0.  0.
186  1.85  0.  0.  0.
187  1.86  0.  0.  0.
188  1.87  0.  0.  0.
189  1.88  0.  0.  0.
190  1.89  0.  0.  0.
191  1.90  0.  0.  0.
192  1.91  0.  0.  0.
193  1.92  0.  0.  0.
194  1.93  0.  0.  0.
195  1.94  0.  0.  0.
196  1.95  0.  0.  0.
197  1.96  0.  0.  0.
198  1.97  0.  0.  0.
199  1.98  0.  0.  0.
200  1.99  0.  0.  0.
201  2.00  0.  0.  0.
202  2.01  0.  0.  0.
203  2.02  0.  0.  0.
204  2.03  0.  0.  0.
205  2.04  0.  0.  0.
206  2.05  0.  0.  0.
207  2.06  0.  0.  0.
208  2.07  0.  0.  0.
209  2.08  0.  0.  0.
210  2.09  0.  0.  0.
211  2.10  0.  0.  0.
212  2.11  0.  0.  0.
213  2.12  0.  0.  0.
214  2.13  0.  0.  0.
215  2.14  0.  0.  0.
216  2.15  0.  0.  0.
217  2.16  0.  0.  0.
218  2.17  0.  0.  0.
219  2.18  0.  0.  0.
220  2.19  0.  0.  0.
221  2.20  0.  0.  0.
222  2.21  0.  0.  0.
223  2.22  0.  0.  0.
224  2.23  0.  0.  0.
225  2.24  0.  0.  0.
226  2.25  0.  0.  0.
227  2.26  0.  0.  0.
228  2.27  0.  0.  0.
229  2.28  0.  0.  0.
230  2.29  0.  0.  0.
231  2.30  0.  0.  0.
232  2.31  0.  0.  0.
233  2.32  0.  0.  0.
234  2.33  0.  0.  0.
235  2.34  0.  0.  0.
236  2.35  0.  0.  0.
237  2.36  0.  0.  0.
238  2.37  0.  0.  0.
239  2.38  0.  0.  0.
240  2.39  0.  0.  0.
241  2.40  0.  0.  0.
242  2.41  0.  0.  0.
243  2.42  0.  0.  0.
244  2.43  0.  0.  0.
245  2.44  0.  0.  0.
246  2.45  0.  0.  0.
247  2.46  0.  0.  0.
248  2.47  0.  0.  0.
249  2.48  0.  0.  0.
250  2.49  0.  0.  0.
251  2.50  0.  0.  0.
252  2.51  0.  0.  0.
253  2.52  0.  0.  0.
254  2.53  0.  0.  0.
255  2.54  0.  0.  0.
256  2.55  0.  0.  0.
257  2.56  0.  0.  0.
258  2.57  0.  0.  0.
259  2.58  0.  0.  0.
260  2.59  0.  0.  0.
261  2.60  0.  0.  0.
262  2.61  0.  0.  0.
263  2.62  0.  0.  0.
264  2.63  0.  0.  0.
265  2.64  0.  0.  0.
266  2.65  0.  0.  0.
267  2.66  0.  0.  0.
268  2.67  0.  0.  0.
269  2.68  0.  0.  0.
270  2.69  0.  0.  0.
271  2.70  0.  0.  0.
272  2.71  0.  0.  0.
273  2.72  0.  0.  0.
274  2.73  0.  0.  0.
275  2.74  0.  0.  0.
276  2.75  0.  0.  0.
277  2.76  0.  0.  0.
278  2.77  0.  0.  0.
279  2.78  0.  0.  0.
280  2.79  0.  0.  0.
281  2.80  0.  0.  0.
282  2.81  0.  0.  0.
283  2.82  0.  0.  0.
284  2.83  0.  0.  0.
285  2.84  0.  0.  0.
286  2.85  0.  0.  0.
287  2.86  0.  0.  0.
288  2.87  0.  0.  0.
289  2.88  0.  0.  0.
290  2.89  0.  0.  0.
291  2.90  0.  0.  0.
292  2.91  0.  0.  0.
293  2.92  0.  0.  0.
294  2.93  0.  0.  0.
295  2.94  0.  0.  0.
296  2.95  0.  0.  0.
297  2.96  0.  0.  0.
298  2.97  0.  0.  0.
299  2.98  0.  0.  0.
300  2.99  0.  0.  0.
301  3.00  0.  0.  0.
302  3.01  0.  0.  0.
303  3.02  0.  0.  0.
304  3.03  0.  0.  0.
305  3.04  0.  0.  0.
306  3.05  0.  0.  0.
307  3.06  0.  0.  0.
308  3.07  0.  0.  0.
309  3.08  0.  0.  0.
310  3.09  0.  0.  0.
311  3.10  0.  0.  0.
312  3.11  0.  0.  0.
313  3.12  0.  0.  0.
314  3.13  0.  0.  0.
315  3.14  0.  0.  0.
316  3.15  0.  0.  0.
317  3.16  0.  0.  0.
318  3.17  0.  0.  0.
319  3.18  0.  0.  0.
320  3.19  0.  0.  0.
321  3.20  0.  0.  0.
322  3.21  0.  0.  0.
323  3.22  0.  0.  0.
324  3.23  0.  0.  0.
325  3.24  0.  0.  0.
326  3.25  0.  0.  0.
327  3.26  0.  0.  0.
328  3.27  0.  0.  0.
329  3.28  0.  0.  0.
330  3.29  0.  0.  0.
331  3.30  0.  0.  0.
332  3.31  0.  0.  0.
333  3.32  0.  0.  0.
334  3.33  0.  0.  0.
335  3.34  0.  0.  0.
336  3.35  0.  0.  0.
337  3.36  0.  0.  0.
338  3.37  0.  0.  0.
339  3.38  0.  0.  0.
340  3.39  0.  0.  0.
341  3.40  0.  0.  0.
342  3.41  0.  0.  0.
343  3.42  0.  0.  0.
344  3.43  0.  0.  0.
345  3.44  0.  0.  0.
346  3.45  0.  0.  0.
347  3.46  0.  0.  0.
348  3.47  0.  0.  0.
349  3.48  0.  0.  0.
350  3.49  0.  0.  0.
351  3.50  0.  0.  0.
352  3.51  0.  0.  0.
353  3.52  0.  0.  0.
354  3.53  0.  0.  0.
355  3.54  0.  0.  0.
356  3.55  0.  0.  0.
357  3.56  0.  0.  0.
358  3.57  0.  0.  0.
359  3.58  0.  0.  0.
360  3.59  0.  0.  0.
361  3.60  0.  0.  0.
362  3.61  0.  0.  0.
363  3.62  0.  0.  0.
364  3.63  0.  0.  0.
365  3.64  0.  0.  0.
366  3.65  0.  0.  0.
367  3.66  0.  0.  0.
368  3.67  0.  0.  0.
369  3.68  0.  0.  0.
370  3.69  0.  0.  0.
371  3.70  0.  0.  0.
372  3.71  0.  0.  0.
373  3.72  0.  0.  0.
374  3.73  0.  0.  0.
375  3.74  0.  0.  0.
376  3.75  0.  0.  0.
377  3.76  0.  0.  0.
378  3.77  0.  0.  0.
379  3.78  0.  0.  0.
380  3.79  0.  0.  0.
381  3.80  0.  0.  0.
382  3.81  0.  0.  0.
383  3.82  0.  0.  0.
384  3.83  0.  0.  0.
385  3.84  0.  0.  0.
386  3.85  0.  0.  0.
387  3.86  0.  0.  0.
388  3.87  0.  0.  0.
389  3.88  0.  0.  0.
390  3.89  0.  0.  0.
391  3.90  0.  0.  0.
392  3.91  0.  0.  0.
393  3.92  0.  0.  0.
394  3.93  0.  0.  0.
395  3.94  0.  0.  0.
396  3.95  0.  0.  0.
397  3.96  0.  0.  0.
398  3.97  0.  0.  0.
399  3.98  0.  0.  0.
400  3.99  0.  0.  0.
401  4.00  0.  0.  0.
402  4.01  0.  0.  0.
403  4.02  0.  0.  0.
404  4.03  0.  0.  0.
405  4.04  0.  0.  0.
406  4.05  0.  0.  0.
407  4.06  0.  0.  0.
408  4.07  0.  0.  0.
409  4.08  0.  0.  0.
410  4.09  0.  0.  0.
411  4.10  0.  0.  0.
412  4.11  0.  0.  0.
413  4.12  0.  0.  0.
414  4.13  0.  0.  0.
415  4.14  0.  0.  0.
416  4.15  0.  0.  0.
417  4.16  0.  0.  0.
418  4.17  0.  0.  0.
419  4.18  0.  0.  0.
420  4.19  0.  0.  0.
421  4.20  0.  0.  0.
422  4.21  0.  0.  0.
423  4.22  0.  0.  0.
424  4.23  0.  0.  0.
425  4.24  0.  0.  0.
426  4.25  0.  0.  0.
427  4.26  0.  0.  0.
428  4.27  0.  0.  0.
429  4.28  0.  0.  0.
430  4.29  0.  0.  0.
431  4.30  0.  0.  0.
432  4.31  0.  0.  0.
433  4.32  0.  0.  0.
434  4.33  0.  0.  0.
435  4.34  0.  0.  0.
436  4.35  0.  0.  0.
437  4.36  0.  0.  0.
438  4.37  0.  0.  0.
439  4.38  0.  0.  0.
440  4.39  0.  0.  0.
441  4.40  0.  0.  0.
442  4.41  0.  0.  0.
443  4.42  0.  0.  0.
444  4.43  0.  0.  0.
445  4.44  0.  0.  0.
446  4.45  0.  0.  0.
447  4.46  0.  0.  0.
448  4.47  0.  0.  0.
449  4.48  0.  0.  0.
450  4.49  0.  0.  0.
451  4.50  0.  0.  0.
452  4.51  0.  0.  0.
453  4.52  0.  0.  0.
454  4.53  0.  0.  0.
455  4.54  0.  0.  0.
456  4.55  0.  0.  0.
457  4.56  0.  0.  0.
458  4.57  0.  0.  0.
459  4.58  0.  0.  0.
460  4.59  0.  0.  0.
461  4.60  0.  0.  0.
462  4.61  0.  0.  0.
463  4.62  0.  0.  0.
464  4.63  0.  0.  0.
465  4.64  0.  0.  0.
466  4.65  0.  0.  0.
467  4.66  0.  0.  0.
468  4.67  0.  0.  0.
469  4.68  0.  0.  0.
470  4.69  0.  0.  0.
471  4.70  0.  0.  0.
472  4.71  0.  0.  0.
473  4.72  0.  0.  0.
474  4.73  0.  0.  0.
475  4.74  0.  0.  0.
476  4.75  0.  0.  0.
477  4.76  0.  0.  0.
478  4.77  0.  0.  0.
479  4.78  0.  0.  0.
480  4.79  0.  0.  0.
481  4.80  0.  0.  0.
482  4.81  0.  0.  0.
483  4.82  0.  0.  0.
484  4.83  0.  0.  0.
485  4.84  0.  0.  0.
486  4.85  0.  0.  0.
487  4.86  0.  0.  0.
488  4.87  0.  0.  0.
489  4.88  0.  0.  0.
490  4.89  0.  0.  0.
491  4.90  0.  0.  0.
492  4.91  0.  0.  0.
493  4.92  0.  0.  0.
494  4.93  0.  0.  0.
495  4.94  0.  0.  0.
496  4.95  0.  0.  0.
497  4.96  0.  0.  0.
498  4.97  0.  0.  0.
499  4.98  0.  0.  0.
500  4.99  0.  0.  0.
501  5.00  0.  0.  0.
502  5.01  0.  0.  0.
503  5.02  0.  0.  0.
504  5.03  0.  0.  0.
505  5.04  0.  0.  0.
506  5.05  0.  0.  0.
507  5.06  0.  0.  0.
508  5.07  0.  0.  0.
509  5.08  0.  0.  0.
510  5.09  0.  0.  0.
511  5.10  0.  0.  0.
512  5.11  0.  0.  0.
513  5.12  0.  0.  0.
514  5.13  0.  0.  0.
515  5.14  0.  0.  0.
516  5.15  0.  0.  0.
517  5.16  0.  0.  0.
518  5.17  0.  0.  0.
519  5.18  0.  0.  0.
520  5.19  0.  0.  0.
521  5.20  0.  0.  0.
522  5.21  0.  0.  0.
523  5.22  0.  0.  0.
524  5.23  0.  0.  0.
525  5.24  0.  0.  0.
526  5.25  0.  0.  0.
527  5.26  0.  0.  0.
528  5.27  0.  0.  0.
529  5.28  0.  0.  0.
530  5.29  0.  0.  0.
531  5.30  0.  0.  0.
532  5.31  0.  0.  0.
533  5.32  0.  0.  0.
534  5.33  0.  0.  0.
535  5.34  0.  0.  0.
536  5.35  0.  0.  0.
537  5.36  0.  0.  0.
538  5.37  0.  0.  0.
539  5.38  0.  0.  0.
540  5.39  0.  0.  0.
541  5.40  0.  0.  0.
542  5.41  0.  0.  0.
543  5.42  0.  0.  0.
544  5.43  0.  0.  0.
545  5.44  0.  0.  0.
546  5.45  0.  0.  0.
547  5.46  0.  0.  0.
548  5.47  0.  0.  0.
549  5.48  0.  0.  0.
550  5.49  0.  0.  0.
551  5.50  0.  0.  0.
552  5.51  0.  0.  0.
553  5.52  0.  0.  0.
554  5.53  0.  0.  0.
555  5.54  0.  0.  0.
556  5.55  0.  0.  0.
557  5.56  0.  0.  0.
558  5.57  0.  0.  0.
559  5.58  0.  0.  0.
560  5.59  0.  0.  0.
561  5.60  0.  0.  0.
562  5.61  0.  0.  0.
563  5.62  0.  0.  0.
564  5.63  0.  0.  0.
565  5.64  0.  0.  0.
566  5.65  0.  0.  0.
567  5.66  0.  0.  0.
568  5.67  0.  0.  0.
569  5.68  0.  0.  0.
570  5.69  0.  0.  0.
571  5.70  0.  0.  0.
572  5.71  0.  0.  0.
573  5.72  0.  0.  0.
574  5.73  0.  0.  0.
575  5.74  0.  0.  0.
576  5.75  0.  0.  0.
577  5.76  0.  0.  0.
578  5.77  0.  0.  0.
579  5.78  0.  0.  0.
580  5.79  0.  0.  0.
581  5.80  0.  0.  0.
582  5.81  0.  0.  0.
583  5.82  0.  0.  0.
584  5.83  0.  0.  0.
585  5.84  0.  0.  0.
586  5.85  0.  0.  0.
587  5.86  0.  0.  0.
588  5.87  0.  0.  0.
589  5.88  0.  0.  0.
590  5.89  0.  0.  0.
591  5.90  0.  0.  0.
592  5.91  0.  0.  0.
593  5.92  0.  0.  0.
594  5.93  0.  0.  0.
595  5.94  0.  0.  0.
596  5.95  0.  0.  0.
597  5.96  0.  0.  0.
598  5.97  0.  0.  0.
599  5.98  0.  0.  0.
600  5.99  0.  0.  0.
1                         9.2952224739100E+00 -6.4822803029086E-01  3.7688790598709E-02
1  0.0000000000000E+00 -7.3550646129128E-10 -1.0058758263820E-08 -8.9023295957169E-09
2  1.0000000000000E-02  3.6427900887961E-03  6.8001754394987E-04 -3.9023536698893E-03
3  2.0000000000000E-02  1.4544653484344E-02  2.7178019279757E-03 -1.5553778714402E-02
4  3.0000000000000E-02  3.2626212226886E-02  6.1064180299914E-03 -3.4787971243565E-02
5  4.0000000000000E-02  5.7755646138900E-02  1.0833879694078E-02 -6.1329767508917E-02
6  5.0000000000000E-02  8.9749410581951E-02  1.6882532464891E-02 -9.4798144114294E-02
7  6.0000000000000E-02  1.2837324730975E-01  2.4228236837784E-02 -1.3471039028583E-01
8  7.0000000000000E-02  1.7334349382747E-01  3.2839397366359E-02 -1.8048742362709E-01
9  8.0000000000000E-02  2.2432869740287E-01  4.2675893027904E-02 -2.3146021188292E-01
10  9.0000000000000E-02  2.8095154004262E-01  5.3687972263496E-02 -2.8687725384718E-01
11  1.0000000000000E-01  3.4279108026399E-01  6.5815181769062E-02 -3.4591306265178E-01
12  1.1000000000000E-01  4.0938531629839E-01  7.8985401178483E-02 -4.0767758427376E-01
13  1.2000000000000E-01  4.8023407342505E-01  9.3114056097048E-02 -4.7122647325589E-01
14  1.3000000000000E-01  5.5480221544483E-01  1.0810357945095E-01 -5.3557213645151E-01
15  1.4000000000000E-01  6.3252317688813E-01  1.2384318584632E-01 -5.9969544423634E-01
16  1.5000000000000E-01  7.1280280845806E-01  1.4020901570378E-01 -6.6255799726454E-01
17  1.6000000000000E-01  7.9502352351839E-01  1.5706469556402E-01 -7.2311482572827E-01
18  1.7000000000000E-01  8.7854872824904E-01  1.7426234844497E-01 -7.8032738747451E-01
19  1.8000000000000E-01  9.6272751253541E-01  1.9164407384322E-01 -8.3317672154544E-01
20  1.9000000000000E-01  1.0468995728779E+00  2.0904390134882E-01 -8.8067660504770E-01
21  2.0000000000000E-01  1.1304003327625E+00  2.2629020537167E-01 -9.2188655405987E-01
22  2.1000000000000E-01  1.2125662201953E+00  2.4320855168305E-01 -9.5592450386773E-01
23  2.2000000000000E-01  1.2927400566453E+00  2.5962492990364E-01 -9.8197900049182E-01
24  2.3000000000000E-01  1.3702765066376E+00  2.7536931026563E-01 -9.9932073452321E-01
25  2.4000000000000E-01  1.4445475328638E+00  2.9027944847812E-01 -1.0073132499562E+00
26  2.5000000000000E-01  1.5149477980825E+00  3.0420484983345E-01 -1.0054226652059E+00
27  2.6000000000000E-01  1.5808999524171E+00  3.1701079326616E-01 -9.9322625095864E-01
28  2.7000000000000E-01  1.6418597430376E+00  3.2858230830909E-01 -9.7041972001135E-01
29  2.8000000000000E-01  1.6973208827405E+00  3.3882799310497E-01 -9.3682309780262E-01
30  2.9000000000000E-01  1.7468196146779E+00  3.4768356005901E-01 -8.9238505886095E-01
31  3.0000000000000E-01  1.7899389124763E+00  3.5511499749856E-01 -8.3718563373352E-01
32  3.1000000000000E-01  1.8263122582277E+00  3.6112124087987E-01 -7.7143721288139E-01
33  3.2000000000000E-01  1.8556269453095E+00  3.6573625558329E-01 -6.9548379821837E-01
34  3.3000000000000E-01  1.8776268586185E+00  3.6903044500295E-01 -6.0979847904732E-01
35  3.4000000000000E-01  1.8921146915138E+00  3.7111131219587E-01 -5.1497913665673E-01
36  3.5000000000000E-01  1.8989535664069E+00  3.7212332045294E-01 -4.1174241026706E-01
37  3.6000000000000E-01  1.8980680343839E+00  3.7224691734598E-01 -3.0091598581167E-01
38  3.7000000000000E-01  1.8894444383013E+00  3.7169670757968E-01 -1.8342929760094E-01
39  3.8000000000000E-01  1.8731306332855E+00  3.7071878176456E-01 -6.0302760653709E-02
40  3.9000000000000E-01  1.8492350682657E+00  3.6958723041765E-01  6.7364322239913E-02
41  4.0000000000000E-01  1.8179252418767E+00  3.6859989445938E-01  1.9840701041802E-01
42  4.1000000000000E-01  1.7794255555602E+00  3.6807342457291E-01  3.3160894228800E-01
43  4.2000000000000E-01  1.7340145957553E+00  3.6833774140493E-01  4.6571731090940E-01
44  4.3000000000000E-01  1.6820218855042E+00  3.6973000613047E-01  5.9945837495753E-01
45  4.4000000000000E-01  1.6238241534199E+00  3.7258822584340E-01  7.3155327094429E-01
46  4.5000000000000E-01  1.5598411745934E+00  3.7724463010667E-01  8.6073388602239E-01
47  4.6000000000000E-01  1.4905312435372E+00  3.8401896342032E-01  9.8575854867154E-01
48  4.7000000000000E-01  1.4163863435380E+00  3.9321184305727E-01  1.1054272971653E+00
49  4.8000000000000E-01  1.3379270797652E+00  4.0509833249937E-01  1.2185964929467E+00
50  4.9000000000000E-01  1.2556974450967E+00  4.1992187751277E-01  1.3241925577933E+00
51  5.0000000000000E-01  1.1702594878823E+00  4.3788874478323E-01  1.4212246296959E+00
52  5.1000000000000E-01  1.0821879497911E+00  4.5916309215287E-01  1.5087959524026E+00
53  5.2000000000000E-01  9.9206493954868E-01  4.8386278513944E-01  1.5861138371511E+00
54  5.3000000000000E-01  9.0047470486247E-01  5.1205605695403E-01  1.6524980617271E+00
55  5.4000000000000E-01  8.0799856027763E-01  5.4375908914407E-01  1.7073876010590E+00
56  5.5000000000000E-01  7.1521002326499E-01  5.7893456782389E-01  1.7503456144323E+00
57  5.6000000000000E-01  6.2267020467860E-01  6.1749124683853E-01  1.7810626463970E+00
58  5.7000000000000E-01  5.3092349302920E-01  6.5928452479943E-01  1.7993580308326E+00
59  5.8000000000000E-01  4.4049356499461E-01  7.0411801842433E-01  1.8051795196911E+00
60  5.9000000000000E-01  3.5187974743198E-01  7.5174609070200E-01  1.7986011889529E+00
61  6.0000000000000E-01  2.6555374906509E-01  8.0187726976591E-01  1.7798197036244E+00
62  6.1000000000000E-01  1.8195677318303E-01  8.5417847363875E-01  1.7491490505278E+00
63  6.2000000000000E-01  1.0149701627524E-01  9.0827993778873E-01  1.7070138716409E+00
64  6.3000000000000E-01  2.4547551696620E-02  9.6378072722699E-01  1.6539415513171E+00
65  6.4000000000000E-01 -4.8555407669704E-02  1.0202547030914E+00  1.5905532274940E+00
66  6.5000000000000E-01 -1.1751387810534E-01  1.0772568056203E+00  1.5175539096591E+00
67  6.6000000000000E-01 -1.8206911890985E-01  1.1343295113162E+00  1.4357218947267E+00
68  6.7000000000000E-01 -2.4200230776630E-01  1.1910093220180E+00  1.3458976760114E+00
69  6.8000000000000E-01 -2.9713489561760E-01  1.2468331474839E+00  1.2489725402159E+00
70  6.9000000000000E-01 -3.4732865983242E-01  1.3013444507794E+00  1.1458770429341E+00
71  7.0000000000000E-01 -3.9248547442091E-01  1.3540990369673E+00  1.0375695448893E+00
72  7.1000000000000E-01 -4.3254681534015E-01  1.4046703799214E+00  9.2502497931243E-01
73  7.2000000000000E-01 -4.6749301762826E-01  1.4526543990310E+00  8.0922400599806E-01
74  7.3000000000000E-01 -4.9734229936764E-01  1.4976736165692E+00  6.9114269013527E-01
75  7.4000000000000E-01 -5.2214956545875E-01  1.5393806469129E+00  5.7174282459052E-01
76  7.5000000000000E-01 -5.4200500205276E-01  1.5774609899586E+00  4.5196299350243E-01
77  7.6000000000000E-01 -5.5703247041351E-01  1.6116351222729E+00  3.3271045346295E-01
78  7.7000000000000E-01 -5.6738770712086E-01  1.6416599000560E+00  2.1485388681130E-01
79  7.8000000000000E-01 -5.7325633604368E-01  1.6673293072066E+00  9.9217060250788E-02
80  7.9000000000000E-01 -5.7485169653799E-01  1.6884745990374E+00 -1.3426598332811E-02
81  8.0000000000000E-01 -5.7241249198036E-01  1.7049639069513E+00 -1.2235851083247E-01
82  8.1000000000000E-01 -5.6620026311509E-01  1.7167013811686E+00 -2.2691857059262E-01
83  8.2000000000000E-01 -5.5649669183250E-01  1.7236259570525E+00 -3.2650791243615E-01
84  8.3000000000000E-01 -5.4360074292682E-01  1.7257098354419E+00 -4.2059088089986E-01
85  8.4000000000000E-01 -5.2782565408997E-01  1.7229567685677E+00 -5.0869625608765E-01
86  8.5000000000000E-01 -5.0949578783087E-01  1.7154002405863E+00 -5.9041780339594E-01
87  8.6000000000000E-01 -4.8894336308084E-01  1.7031016256742E+00 -6.6541421752784E-01
88  8.7000000000000E-01 -4.6650508883076E-01  1.6861483972331E+00 -7.3340853283466E-01
89  8.8000000000000E-01 -4.4251872709261E-01  1.6646524494688E+00 -7.9418707130093E-01
90  8.9000000000000E-01 -4.1731961760448E-01  1.6387485779006E+00 -8.4759799672183E-01
91  9.0000000000000E-01 -3.9123720180366E-01  1.6085931488531E+00 -8.9354953914132E-01
92  9.1000000000000E-01 -3.6459158845665E-01  1.5743629703171E+00 -9.3200794782379E-01
93  9.2000000000000E-01 -3.3769020773288E-01  1.5362543584986E+00 -9.6299522432175E-01
94  9.3000000000000E-01 -3.1082460420968E-01  1.4944823766443E+00 -9.8658668001326E-01
95  9.4000000000000E-01 -2.8426742207681E-01  1.4492802061244E+00 -1.0029083552138E+00