Ds    ONCVPSP-4.0.1  r_core=   1.10457   1.10457   1.10457   1.10457
110.0000     50.0000      220322    zatom,zion,pspd
8      11   3     4   600     0    pspcod,pspxc,lmax,lloc,mmax,r2well
5.99000000  5.00000000  0.00000000    rchrg fchrg qchrg
3     2     2     2     0    nproj
1     1           extension_switch
0                        -1.5837644713572E+01  8.7542549815395E+00 -5.6247380491899E-01
1  0.0000000000000E+00 -1.6233396848975E-09  6.6550040589419E-08 -7.8531709329921E-08
2  1.0000000000000E-02  8.1941745103866E-02  1.7603508856782E-01 -8.4318215170971E-03
3  2.0000000000000E-02  1.6366906984641E-01  3.5041526957229E-01 -1.7020375265639E-02
4  3.0000000000000E-02  2.4496843787024E-01  5.2149792128393E-01 -2.5916327522414E-02
5  4.0000000000000E-02  3.2562806980861E-01  6.8766516887815E-01 -3.5258567391970E-02
6  5.0000000000000E-02  4.0543879470061E-01  8.4733667657863E-01 -4.5169182126137E-02
7  6.0000000000000E-02  4.8419487018361E-01  9.9898288904633E-01 -5.5749406273405E-02
8  7.0000000000000E-02  5.6169476310741E-01  1.1411387864875E+00 -6.7076768531093E-02
9  8.0000000000000E-02  6.3774188383813E-01  1.2724181514043E+00 -7.9203581641552E-02
10  9.0000000000000E-02  7.1214526938747E-01  1.3915282694951E+00 -9.2156831763548E-02
11  1.0000000000000E-01  7.8472021251889E-01  1.4972849075003E+00 -1.0593942986220E-01
12  1.1000000000000E-01  8.5528883604373E-01  1.5886273316943E+00 -1.2053269455990E-01
13  1.2000000000000E-01  9.2368061352002E-01  1.6646330572468E+00 -1.3589984938359E-01
14  1.3000000000000E-01  9.8973283940312E-01  1.7245319556208E+00 -1.5199024294044E-01
15  1.4000000000000E-01  1.0532910532729E+00  1.7677192989103E+00 -1.6874394316331E-01
16  1.5000000000000E-01  1.1142094239966E+00  1.7937672902193E+00 -1.8609632039091E-01
17  1.6000000000000E-01  1.1723511005130E+00  1.8024346206338E+00 -2.0398222155423E-01
18  1.7000000000000E-01  1.2275885362979E+00  1.7936736077603E+00 -2.2233935067331E-01
19  1.8000000000000E-01  1.2798037944720E+00  1.7676345087628E+00 -2.4111050932651E-01
20  1.9000000000000E-01  1.3288888399414E+00  1.7246666616634E+00 -2.6024441337129E-01
21  2.0000000000000E-01  1.3747458239446E+00  1.6653161905034E+00 -2.7969488616198E-01
22  2.1000000000000E-01  1.4172873649740E+00  1.5903201097904E+00 -2.9941832970659E-01
23  2.2000000000000E-01  1.4564368283028E+00  1.5005967774552E+00 -3.1936948839419E-01
24  2.3000000000000E-01  1.4921286043842E+00  1.3972327684636E+00 -3.3949563900124E-01
25  2.4000000000000E-01  1.5243083842924E+00  1.2814663678279E+00 -3.5972945899687E-01
26  2.5000000000000E-01  1.5529334282506E+00  1.1546680062390E+00 -3.7998093585033E-01
27  2.6000000000000E-01  1.5779728212701E+00  1.0183180780548E+00 -4.0012877639096E-01
28  2.7000000000000E-01  1.5994077080974E+00  8.7398268429277E-01 -4.2001185110563E-01
29  2.8000000000000E-01  1.6172314981561E+00  7.2328792747511E-01 -4.3942125825934E-01
30  2.9000000000000E-01  1.6314500300527E+00  5.6789344630795E-01 -4.5809361276720E-01
31  3.0000000000000E-01  1.6420816845764E+00  4.0946591288027E-01 -4.7570615212618E-01
32  3.1000000000000E-01  1.6491574349982E+00  2.4965322115794E-01 -4.9187420536341E-01
33  3.2000000000000E-01  1.6527208239111E+00  9.0060072141159E-02 -5.0615149154324E-01
34  3.3000000000000E-01  1.6528278568334E+00 -6.7774391378013E-02 -5.1803360431384E-01
35  3.4000000000000E-01  1.6495468043064E+00 -2.2239632712404E-01 -5.2696490239976E-01
36  3.5000000000000E-01  1.6429579062048E+00 -3.7245384301376E-01 -5.3234886851600E-01
37  3.6000000000000E-01  1.6331529743658E+00 -5.1671020784661E-01 -5.3356182787862E-01
38  3.7000000000000E-01  1.6202348923331E+00 -6.5405341441373E-01 -5.2996974029256E-01
39  3.8000000000000E-01  1.6043170139085E+00 -7.8350203254590E-01 -5.2094760533778E-01
40  3.9000000000000E-01  1.5855224651617E+00 -9.0420743757156E-01 -5.0590085729925E-01
41  4.0000000000000E-01  1.5639833574630E+00 -1.0154526427439E+00 -4.8428798385689E-01
42  4.1000000000000E-01  1.5398399218327E+00 -1.1166480958662E+00 -4.5564348818873E-01
43  4.2000000000000E-01  1.5132395773225E+00 -1.2073249144892E+00 -4.1960023502899E-01
44  4.3000000000000E-01  1.4843359481625E+00 -1.2871261253188E+00 -3.7591018291479E-01
45  4.4000000000000E-01  1.4532878459114E+00 -1.3557965374966E+00 -3.2446251117354E-01
46  4.5000000000000E-01  1.4202582337775E+00 -1.4131719130872E+00 -2.6529820297456E-01
47  4.6000000000000E-01  1.3854131905859E+00 -1.4591680996686E+00 -1.9862024469183E-01
48  4.7000000000000E-01  1.3489208915326E+00 -1.4937707591511E+00 -1.2479874438747E-01
49  4.8000000000000E-01  1.3109506218941E+00 -1.5170262651024E+00 -4.4370453773335E-02
50  4.9000000000000E-01  1.2716718383011E+00 -1.5290342506998E+00  4.1967608133049E-02
51  5.0000000000000E-01  1.2312532900884E+00 -1.5299421750984E+00  1.3337049370049E-01
52  5.1000000000000E-01  1.1898622106978E+00 -1.5199421428237E+00  2.2886343999974E-01
53  5.2000000000000E-01  1.1476635862445E+00 -1.4992700650782E+00  3.2736531410312E-01
54  5.3000000000000E-01  1.1048195052828E+00 -1.4682071005715E+00  4.2771670108359E-01
55  5.4000000000000E-01  1.0614885906605E+00 -1.4270831640145E+00  5.2871171851224E-01
56  5.5000000000000E-01  1.0178255112750E+00 -1.3762821501330E+00  6.2913244503827E-01
57  5.6000000000000E-01  9.7398056866911E-01 -1.3162483970439E+00  7.2778469508702E-01
58  5.7000000000000E-01  9.3009935086498E-01 -1.2474938115173E+00  8.2353376530958E-01
59  5.8000000000000E-01  8.8632244374127E-01 -1.1706050054826E+00  9.1533872771653E-01
60  5.9000000000000E-01  8.4278518870681E-01 -1.0862497523637E+00  1.0022838537082E+00
61  6.0000000000000E-01  7.9961747448362E-01 -9.9518206622682E-01  1.0836058242127E+00
62  6.1000000000000E-01  7.5694355052632E-01 -8.9824523746215E-01  1.1587155129030E+00
63  6.2000000000000E-01  7.1488184998564E-01 -7.9637222528756E-01  1.2272133182920E+00
64  6.3000000000000E-01  6.7354481115348E-01 -6.9058290753075E-01  1.2888972600527E+00
65  6.4000000000000E-01  6.3303868795765E-01 -5.8197781807091E-01  1.3437633363884E+00
66  6.5000000000000E-01  5.9346334222969E-01 -4.7172815666146E-01  1.3919979517584E+00
67  6.6000000000000E-01  5.5491201304795E-01 -3.6106202800531E-01  1.4339625551098E+00
68  6.7000000000000E-01  5.1747106133757E-01 -2.5124704931373E-01  1.4701709641513E+00
69  6.8000000000000E-01  4.8121969095307E-01 -1.4356964988575E-01  1.5012601766714E+00
70  6.9000000000000E-01  4.4622965052979E-01 -3.9311563920936E-02  1.5279557709750E+00
71  7.0000000000000E-01  4.1256492331895E-01  6.0275819637261E-02  1.5510332603939E+00
72  7.1000000000000E-01  3.8028141487204E-01  1.5399844697572E-01  1.5712769788913E+00
73  7.2000000000000E-01  3.4942665067872E-01  2.4074701655712E-01  1.5894382253528E+00
74  7.3000000000000E-01  3.2003949757147E-01  3.1952383815398E-01  1.6061944748195E+00
75  7.4000000000000E-01  2.9214992379374E-01  3.8946811617371E-01  1.6221114701246E+00
76  7.5000000000000E-01  2.6577881301992E-01  4.4987865094851E-01  1.6376099346785E+00
77  7.6000000000000E-01  2.4093784727628E-01  5.0023300729425E-01  1.6529384973385E+00
78  7.7000000000000E-01  2.1762947263906E-01  5.4020229851234E-01  1.6681541976565E+00
79  7.8000000000000E-01  1.9584695980683E-01  5.6966087308164E-01  1.6831116517228E+00
80  7.9000000000000E-01  1.7557456922183E-01  5.8869036558740E-01  1.6974616159211E+00
81  8.0000000000000E-01  1.5678782743975E-01  5.9757777635104E-01  1.7106593012956E+00
82  8.1000000000000E-01  1.3945391803899E-01  5.9680746767314E-01  1.7219823802697E+00
83  8.2000000000000E-01  1.2353218665778E-01  5.8704719939219E-01  1.7305582070654E+00
84  8.3000000000000E-01  1.0897475590701E-01  5.6912856269554E-01  1.7353993610923E+00
85  8.4000000000000E-01  9.5727242092295E-02  5.4402239855868E-01  1.7354462367525E+00
86  8.5000000000000E-01  8.3729562057136E-02  5.1280999576761E-01  1.7296150607850E+00
87  8.6000000000000E-01  7.2916815190135E-02  4.7665104370408E-01  1.7168494353432E+00
88  8.7000000000000E-01  6.3220222870510E-02  4.3674945847216E-01  1.6961732952251E+00
89  8.8000000000000E-01  5.4568105484906E-02  3.9431830046379E-01  1.6667430420849E+00
90  8.9000000000000E-01  4.6886875736467E-02  3.5054505179633E-01  1.6278965847703E+00
91  9.0000000000000E-01  4.0102026355201E-02  3.0655851992536E-01  1.5791970772005E+00
92  9.1000000000000E-01  3.4139090543490E-02  2.6339857808368E-01  1.5204693034635E+00
93  9.2000000000000E-01  2.8924554552722E-02  2.2198984522416E-01  1.4518269101414E+00
94  9.3000000000000E-01  2.4386703649964E-02  1.8312025139108E-01  1.3736890202559E+00
95  9.4000000000000E-01  2.0456385325669E-02  1.4742523458931E-01  1.2867851700028E+00
96  9.5000000000000E-01  1.7067676809798E-02  1.1537807993481E-01  1.1921479735958E+00
97  9.6000000000000E-01  1.4158447672225E-02  8.7286650451380E-02  1.0910934253647E+00
98  9.7000000000000E-01  1.1670812326398E-02  6.3296482064244E-02  9.8518927173809E-01
99  9.8000000000000E-01  9.5514714647299E-03  4.3399934381339E-02  8.7621240821223E-01
100  9.9000000000000E-01  7.7519456465252E-03  2.7450815825735E-02  7.6609675596588E-01
101  1.0000000000000E+00  6.2287082571786E-03  1.5183648074127E-02  6.5687352881537E-01
102  1.0100000000000E+00  4.9432286849922E-03  6.2365117797618E-03  5.5060619385529E-01
103  1.0200000000000E+00  3.8619396682019E-03  1.7623274647652E-04  4.4932274166794E-01
104  1.0300000000000E+00  2.9561472771775E-03 -3.4754803966977E-03  3.5494810610500E-01
105  1.0400000000000E+00  2.2018844680525E-03 -5.2162856403421E-03  2.6923962509777E-01
106  1.0500000000000E+00  1.5796258590977E-03 -5.5387499384220E-03  1.9372824365578E-01
107  1.0600000000000E+00  1.0663267804046E-03 -4.8512160968597E-03  1.2963983564563E-01
108  1.0700000000000E+00  6.5095013138034E-04 -3.5611739941620E-03  7.7901164951186E-02
109  1.0800000000000E+00  3.3458571655730E-04 -2.0967222414040E-03  3.9136693246915E-02
110  1.0900000000000E+00  1.2008636332799E-04 -8.3352448825774E-04  1.3633014635254E-02
111  1.1000000000000E+00  1.2868840630682E-05 -9.6633082711728E-05  1.4068185764593E-03
112  1.1100000000000E+00 -4.8244209876822E-07  3.8040341556476E-06 -5.1541729331201E-05
113  1.1200000000000E+00 -5.8616485129583E-08  4.3528064997151E-07 -6.4792242836737E-06
114  1.13 -0. -0.  0.
115  1.14  0.  0.  0.
116  1.15  0.  0.  0.
117  1.16  0.  0.  0.
118  1.17  0.  0.  0.
119  1.18  0.  0.  0.
120  1.19  0.  0.  0.
121  1.20  0.  0.  0.
122  1.21  0.  0.  0.
123  1.22  0.  0.  0.
124  1.23  0.  0.  0.
125  1.24  0.  0.  0.
126  1.25  0.  0.  0.
127  1.26  0.  0.  0.
128  1.27  0.  0.  0.
129  1.28  0.  0.  0.
130  1.29  0.  0.  0.
131  1.30  0.  0.  0.
132  1.31  0.  0.  0.
133  1.32  0.  0.  0.
134  1.33  0.  0.  0.
135  1.34  0.  0.  0.
136  1.35  0.  0.  0.
137  1.36  0.  0.  0.
138  1.37  0.  0.  0.
139  1.38  0.  0.  0.
140  1.39  0.  0.  0.
141  1.40  0.  0.  0.
142  1.41  0.  0.  0.
143  1.42  0.  0.  0.
144  1.43  0.  0.  0.
145  1.44  0.  0.  0.
146  1.45  0.  0.  0.
147  1.46  0.  0.  0.
148  1.47  0.  0.  0.
149  1.48  0.  0.  0.
150  1.49  0.  0.  0.
151  1.50  0.  0.  0.
152  1.51  0.  0.  0.
153  1.52  0.  0.  0.
154  1.53  0.  0.  0.
155  1.54  0.  0.  0.
156  1.55  0.  0.  0.
157  1.56  0.  0.  0.
158  1.57  0.  0.  0.
159  1.58  0.  0.  0.
160  1.59  0.  0.  0.
161  1.60  0.  0.  0.
162  1.61  0.  0.  0.
163  1.62  0.  0.  0.
164  1.63  0.  0.  0.
165  1.64  0.  0.  0.
166  1.65  0.  0.  0.
167  1.66  0.  0.  0.
168  1.67  0.  0.  0.
169  1.68  0.  0.  0.
170  1.69  0.  0.  0.
171  1.70  0.  0.  0.
172  1.71  0.  0.  0.
173  1.72  0.  0.  0.
174  1.73  0.  0.  0.
175  1.74  0.  0.  0.
176  1.75  0.  0.  0.
177  1.76  0.  0.  0.
178  1.77  0.  0.  0.
179  1.78  0.  0.  0.
180  1.79  0.  0.  0.
181  1.80  0.  0.  0.
182  1.81  0.  0.  0.
183  1.82  0.  0.  0.
184  1.83  0.  0.  0.
185  1.84  0.  0.  0.
186  1.85  0.  0.  0.
187  1.86  0.  0.  0.
188  1.87  0.  0.  0.
189  1.88  0.  0.  0.
190  1.89  0.  0.  0.
191  1.90  0.  0.  0.
192  1.91  0.  0.  0.
193  1.92  0.  0.  0.
194  1.93  0.  0.  0.
195  1.94  0.  0.  0.
196  1.95  0.  0.  0.
197  1.96  0.  0.  0.
198  1.97  0.  0.  0.
199  1.98  0.  0.  0.
200  1.99  0.  0.  0.
201  2.00  0.  0.  0.
202  2.01  0.  0.  0.
203  2.02  0.  0.  0.
204  2.03  0.  0.  0.
205  2.04  0.  0.  0.
206  2.05  0.  0.  0.
207  2.06  0.  0.  0.
208  2.07  0.  0.  0.
209  2.08  0.  0.  0.
210  2.09  0.  0.  0.
211  2.10  0.  0.  0.
212  2.11  0.  0.  0.
213  2.12  0.  0.  0.
214  2.13  0.  0.  0.
215  2.14  0.  0.  0.
216  2.15  0.  0.  0.
217  2.16  0.  0.  0.
218  2.17  0.  0.  0.
219  2.18  0.  0.  0.
220  2.19  0.  0.  0.
221  2.20  0.  0.  0.
222  2.21  0.  0.  0.
223  2.22  0.  0.  0.
224  2.23  0.  0.  0.
225  2.24  0.  0.  0.
226  2.25  0.  0.  0.
227  2.26  0.  0.  0.
228  2.27  0.  0.  0.
229  2.28  0.  0.  0.
230  2.29  0.  0.  0.
231  2.30  0.  0.  0.
232  2.31  0.  0.  0.
233  2.32  0.  0.  0.
234  2.33  0.  0.  0.
235  2.34  0.  0.  0.
236  2.35  0.  0.  0.
237  2.36  0.  0.  0.
238  2.37  0.  0.  0.
239  2.38  0.  0.  0.
240  2.39  0.  0.  0.
241  2.40  0.  0.  0.
242  2.41  0.  0.  0.
243  2.42  0.  0.  0.
244  2.43  0.  0.  0.
245  2.44  0.  0.  0.
246  2.45  0.  0.  0.
247  2.46  0.  0.  0.
248  2.47  0.  0.  0.
249  2.48  0.  0.  0.
250  2.49  0.  0.  0.
251  2.50  0.  0.  0.
252  2.51  0.  0.  0.
253  2.52  0.  0.  0.
254  2.53  0.  0.  0.
255  2.54  0.  0.  0.
256  2.55  0.  0.  0.
257  2.56  0.  0.  0.
258  2.57  0.  0.  0.
259  2.58  0.  0.  0.
260  2.59  0.  0.  0.
261  2.60  0.  0.  0.
262  2.61  0.  0.  0.
263  2.62  0.  0.  0.
264  2.63  0.  0.  0.
265  2.64  0.  0.  0.
266  2.65  0.  0.  0.
267  2.66  0.  0.  0.
268  2.67  0.  0.  0.
269  2.68  0.  0.  0.
270  2.69  0.  0.  0.
271  2.70  0.  0.  0.
272  2.71  0.  0.  0.
273  2.72  0.  0.  0.
274  2.73  0.  0.  0.
275  2.74  0.  0.  0.
276  2.75  0.  0.  0.
277  2.76  0.  0.  0.
278  2.77  0.  0.  0.
279  2.78  0.  0.  0.
280  2.79  0.  0.  0.
281  2.80  0.  0.  0.
282  2.81  0.  0.  0.
283  2.82  0.  0.  0.
284  2.83  0.  0.  0.
285  2.84  0.  0.  0.
286  2.85  0.  0.  0.
287  2.86  0.  0.  0.
288  2.87  0.  0.  0.
289  2.88  0.  0.  0.
290  2.89  0.  0.  0.
291  2.90  0.  0.  0.
292  2.91  0.  0.  0.
293  2.92  0.  0.  0.
294  2.93  0.  0.  0.
295  2.94  0.  0.  0.
296  2.95  0.  0.  0.
297  2.96  0.  0.  0.
298  2.97  0.  0.  0.
299  2.98  0.  0.  0.
300  2.99  0.  0.  0.
301  3.00  0.  0.  0.
302  3.01  0.  0.  0.
303  3.02  0.  0.  0.
304  3.03  0.  0.  0.
305  3.04  0.  0.  0.
306  3.05  0.  0.  0.
307  3.06  0.  0.  0.
308  3.07  0.  0.  0.
309  3.08  0.  0.  0.
310  3.09  0.  0.  0.
311  3.10  0.  0.  0.
312  3.11  0.  0.  0.
313  3.12  0.  0.  0.
314  3.13  0.  0.  0.
315  3.14  0.  0.  0.
316  3.15  0.  0.  0.
317  3.16  0.  0.  0.
318  3.17  0.  0.  0.
319  3.18  0.  0.  0.
320  3.19  0.  0.  0.
321  3.20  0.  0.  0.
322  3.21  0.  0.  0.
323  3.22  0.  0.  0.
324  3.23  0.  0.  0.
325  3.24  0.  0.  0.
326  3.25  0.  0.  0.
327  3.26  0.  0.  0.
328  3.27  0.  0.  0.
329  3.28  0.  0.  0.
330  3.29  0.  0.  0.
331  3.30  0.  0.  0.
332  3.31  0.  0.  0.
333  3.32  0.  0.  0.
334  3.33  0.  0.  0.
335  3.34  0.  0.  0.
336  3.35  0.  0.  0.
337  3.36  0.  0.  0.
338  3.37  0.  0.  0.
339  3.38  0.  0.  0.
340  3.39  0.  0.  0.
341  3.40  0.  0.  0.
342  3.41  0.  0.  0.
343  3.42  0.  0.  0.
344  3.43  0.  0.  0.
345  3.44  0.  0.  0.
346  3.45  0.  0.  0.
347  3.46  0.  0.  0.
348  3.47  0.  0.  0.
349  3.48  0.  0.  0.
350  3.49  0.  0.  0.
351  3.50  0.  0.  0.
352  3.51  0.  0.  0.
353  3.52  0.  0.  0.
354  3.53  0.  0.  0.
355  3.54  0.  0.  0.
356  3.55  0.  0.  0.
357  3.56  0.  0.  0.
358  3.57  0.  0.  0.
359  3.58  0.  0.  0.
360  3.59  0.  0.  0.
361  3.60  0.  0.  0.
362  3.61  0.  0.  0.
363  3.62  0.  0.  0.
364  3.63  0.  0.  0.
365  3.64  0.  0.  0.
366  3.65  0.  0.  0.
367  3.66  0.  0.  0.
368  3.67  0.  0.  0.
369  3.68  0.  0.  0.
370  3.69  0.  0.  0.
371  3.70  0.  0.  0.
372  3.71  0.  0.  0.
373  3.72  0.  0.  0.
374  3.73  0.  0.  0.
375  3.74  0.  0.  0.
376  3.75  0.  0.  0.
377  3.76  0.  0.  0.
378  3.77  0.  0.  0.
379  3.78  0.  0.  0.
380  3.79  0.  0.  0.
381  3.80  0.  0.  0.
382  3.81  0.  0.  0.
383  3.82  0.  0.  0.
384  3.83  0.  0.  0.
385  3.84  0.  0.  0.
386  3.85  0.  0.  0.
387  3.86  0.  0.  0.
388  3.87  0.  0.  0.
389  3.88  0.  0.  0.
390  3.89  0.  0.  0.
391  3.90  0.  0.  0.
392  3.91  0.  0.  0.
393  3.92  0.  0.  0.
394  3.93  0.  0.  0.
395  3.94  0.  0.  0.
396  3.95  0.  0.  0.
397  3.96  0.  0.  0.
398  3.97  0.  0.  0.
399  3.98  0.  0.  0.
400  3.99  0.  0.  0.
401  4.00  0.  0.  0.
402  4.01  0.  0.  0.
403  4.02  0.  0.  0.
404  4.03  0.  0.  0.
405  4.04  0.  0.  0.
406  4.05  0.  0.  0.
407  4.06  0.  0.  0.
408  4.07  0.  0.  0.
409  4.08  0.  0.  0.
410  4.09  0.  0.  0.
411  4.10  0.  0.  0.
412  4.11  0.  0.  0.
413  4.12  0.  0.  0.
414  4.13  0.  0.  0.
415  4.14  0.  0.  0.
416  4.15  0.  0.  0.
417  4.16  0.  0.  0.
418  4.17  0.  0.  0.
419  4.18  0.  0.  0.
420  4.19  0.  0.  0.
421  4.20  0.  0.  0.
422  4.21  0.  0.  0.
423  4.22  0.  0.  0.
424  4.23  0.  0.  0.
425  4.24  0.  0.  0.
426  4.25  0.  0.  0.
427  4.26  0.  0.  0.
428  4.27  0.  0.  0.
429  4.28  0.  0.  0.
430  4.29  0.  0.  0.
431  4.30  0.  0.  0.
432  4.31  0.  0.  0.
433  4.32  0.  0.  0.
434  4.33  0.  0.  0.
435  4.34  0.  0.  0.
436  4.35  0.  0.  0.
437  4.36  0.  0.  0.
438  4.37  0.  0.  0.
439  4.38  0.  0.  0.
440  4.39  0.  0.  0.
441  4.40  0.  0.  0.
442  4.41  0.  0.  0.
443  4.42  0.  0.  0.
444  4.43  0.  0.  0.
445  4.44  0.  0.  0.
446  4.45  0.  0.  0.
447  4.46  0.  0.  0.
448  4.47  0.  0.  0.
449  4.48  0.  0.  0.
450  4.49  0.  0.  0.
451  4.50  0.  0.  0.
452  4.51  0.  0.  0.
453  4.52  0.  0.  0.
454  4.53  0.  0.  0.
455  4.54  0.  0.  0.
456  4.55  0.  0.  0.
457  4.56  0.  0.  0.
458  4.57  0.  0.  0.
459  4.58  0.  0.  0.
460  4.59  0.  0.  0.
461  4.60  0.  0.  0.
462  4.61  0.  0.  0.
463  4.62  0.  0.  0.
464  4.63  0.  0.  0.
465  4.64  0.  0.  0.
466  4.65  0.  0.  0.
467  4.66  0.  0.  0.
468  4.67  0.  0.  0.
469  4.68  0.  0.  0.
470  4.69  0.  0.  0.
471  4.70  0.  0.  0.
472  4.71  0.  0.  0.
473  4.72  0.  0.  0.
474  4.73  0.  0.  0.
475  4.74  0.  0.  0.
476  4.75  0.  0.  0.
477  4.76  0.  0.  0.
478  4.77  0.  0.  0.
479  4.78  0.  0.  0.
480  4.79  0.  0.  0.
481  4.80  0.  0.  0.
482  4.81  0.  0.  0.
483  4.82  0.  0.  0.
484  4.83  0.  0.  0.
485  4.84  0.  0.  0.
486  4.85  0.  0.  0.
487  4.86  0.  0.  0.
488  4.87  0.  0.  0.
489  4.88  0.  0.  0.
490  4.89  0.  0.  0.
491  4.90  0.  0.  0.
492  4.91  0.  0.  0.
493  4.92  0.  0.  0.
494  4.93  0.  0.  0.
495  4.94  0.  0.  0.
496  4.95  0.  0.  0.
497  4.96  0.  0.  0.
498  4.97  0.  0.  0.
499  4.98  0.  0.  0.
500  4.99  0.  0.  0.
501  5.00  0.  0.  0.
502  5.01  0.  0.  0.
503  5.02  0.  0.  0.
504  5.03  0.  0.  0.
505  5.04  0.  0.  0.
506  5.05  0.  0.  0.
507  5.06  0.  0.  0.
508  5.07  0.  0.  0.
509  5.08  0.  0.  0.
510  5.09  0.  0.  0.
511  5.10  0.  0.  0.
512  5.11  0.  0.  0.
513  5.12  0.  0.  0.
514  5.13  0.  0.  0.
515  5.14  0.  0.  0.
516  5.15  0.  0.  0.
517  5.16  0.  0.  0.
518  5.17  0.  0.  0.
519  5.18  0.  0.  0.
520  5.19  0.  0.  0.
521  5.20  0.  0.  0.
522  5.21  0.  0.  0.
523  5.22  0.  0.  0.
524  5.23  0.  0.  0.
525  5.24  0.  0.  0.
526  5.25  0.  0.  0.
527  5.26  0.  0.  0.
528  5.27  0.  0.  0.
529  5.28  0.  0.  0.
530  5.29  0.  0.  0.
531  5.30  0.  0.  0.
532  5.31  0.  0.  0.
533  5.32  0.  0.  0.
534  5.33  0.  0.  0.
535  5.34  0.  0.  0.
536  5.35  0.  0.  0.
537  5.36  0.  0.  0.
538  5.37  0.  0.  0.
539  5.38  0.  0.  0.
540  5.39  0.  0.  0.
541  5.40  0.  0.  0.
542  5.41  0.  0.  0.
543  5.42  0.  0.  0.
544  5.43  0.  0.  0.
545  5.44  0.  0.  0.
546  5.45  0.  0.  0.
547  5.46  0.  0.  0.
548  5.47  0.  0.  0.
549  5.48  0.  0.  0.
550  5.49  0.  0.  0.
551  5.50  0.  0.  0.
552  5.51  0.  0.  0.
553  5.52  0.  0.  0.
554  5.53  0.  0.  0.
555  5.54  0.  0.  0.
556  5.55  0.  0.  0.
557  5.56  0.  0.  0.
558  5.57  0.  0.  0.
559  5.58  0.  0.  0.
560  5.59  0.  0.  0.
561  5.60  0.  0.  0.
562  5.61  0.  0.  0.
563  5.62  0.  0.  0.
564  5.63  0.  0.  0.
565  5.64  0.  0.  0.
566  5.65  0.  0.  0.
567  5.66  0.  0.  0.
568  5.67  0.  0.  0.
569  5.68  0.  0.  0.
570  5.69  0.  0.  0.
571  5.70  0.  0.  0.
572  5.71  0.  0.  0.
573  5.72  0.  0.  0.
574  5.73  0.  0.  0.
575  5.74  0.  0.  0.
576  5.75  0.  0.  0.
577  5.76  0.  0.  0.
578  5.77  0.  0.  0.
579  5.78  0.  0.  0.
580  5.79  0.  0.  0.
581  5.80  0.  0.  0.
582  5.81  0.  0.  0.
583  5.82  0.  0.  0.
584  5.83  0.  0.  0.
585  5.84  0.  0.  0.
586  5.85  0.  0.  0.
587  5.86  0.  0.  0.
588  5.87  0.  0.  0.
589  5.88  0.  0.  0.
590  5.89  0.  0.  0.
591  5.90  0.  0.  0.
592  5.91  0.  0.  0.
593  5.92  0.  0.  0.
594  5.93  0.  0.  0.
595  5.94  0.  0.  0.
596  5.95  0.  0.  0.
597  5.96  0.  0.  0.
598  5.97  0.  0.  0.
599  5.98  0.  0.  0.
600  5.99  0.  0.  0.
1                        -1.2944867890299E+01 -1.2972383727489E+00
1  0.0000000000000E+00  6.6835527112730E-09 -1.1465961985424E-07
2  1.0000000000000E-02  2.9050904285716E-03 -4.6731131119370E-03
3  2.0000000000000E-02  1.1598614996233E-02 -1.8604024109316E-02
4  3.0000000000000E-02  2.6015565229352E-02 -4.1529773335879E-02
5  4.0000000000000E-02  4.6048361552580E-02 -7.3019763620202E-02
6  5.0000000000000E-02  7.1547989890168E-02 -1.1248697898449E-01
7  6.0000000000000E-02  1.0232556295746E-01 -1.5920313317870E-01
8  7.0000000000000E-02  1.3815427741392E-01 -2.1231721716766E-01
9  8.0000000000000E-02  1.7877173136547E-01 -2.7087680003923E-01
10  9.0000000000000E-02  2.2388256110132E-01 -3.3385134877965E-01
11  1.0000000000000E-01  2.7316135157984E-01 -4.0015677242234E-01
12  1.1000000000000E-01  3.2625577214356E-01 -4.6868036746341E-01
13  1.2000000000000E-01  3.8278988729693E-01 -5.3830534510238E-01
14  1.3000000000000E-01  4.4236759212351E-01 -6.0793415643032E-01
15  1.4000000000000E-01  5.0457612299806E-01 -6.7650989746191E-01
16  1.5000000000000E-01  5.6898959656425E-01 -7.4303516896385E-01
17  1.6000000000000E-01  6.3517253335457E-01 -8.0658788232846E-01
18  1.7000000000000E-01  7.0268332674230E-01 -8.6633363729426E-01
19  1.8000000000000E-01  7.7107762292471E-01 -9.2153444440897E-01
20  1.9000000000000E-01  8.3991158310891E-01 -9.7155371855530E-01
21  2.0000000000000E-01  9.0874500476488E-01 -1.0158576231763E+00
22  2.1000000000000E-01  9.7714428448203E-01 -1.0540129916425E+00
23  2.2000000000000E-01  1.0446852103846E+00 -1.0856821864009E+00
24  2.3000000000000E-01  1.1109555770168E+00 -1.1106153725996E+00
25  2.4000000000000E-01  1.1755576199173E+00 -1.1286407760449E+00
26  2.5000000000000E-01  1.2381102706240E+00 -1.1396535618670E+00
27  2.6000000000000E-01  1.2982512354726E+00 -1.1436040075243E+00
28  2.7000000000000E-01  1.3556389032296E+00 -1.1404856504147E+00
29  2.8000000000000E-01  1.4099540873189E+00 -1.1303240663181E+00
30  2.9000000000000E-01  1.4609016081976E+00 -1.1131668814361E+00
31  3.0000000000000E-01  1.5082117204055E+00 -1.0890755404133E+00
32  3.1000000000000E-01  1.5516413870711E+00 -1.0581192490910E+00
33  3.2000000000000E-01  1.5909754023700E+00 -1.0203713884954E+00
34  3.3000000000000E-01  1.6260273597941E+00 -9.7590856115146E-01
35  3.4000000000000E-01  1.6566404612924E+00 -9.2481228825385E-01
36  3.5000000000000E-01  1.6826881596247E+00 -8.6717323284552E-01
37  3.6000000000000E-01  1.7040746238209E+00 -8.0309768634026E-01
38  3.7000000000000E-01  1.7207350156754E+00 -7.3271592962960E-01
39  3.8000000000000E-01  1.7326355639063E+00 -6.5619197132523E-01
40  3.9000000000000E-01  1.7397734221208E+00 -5.7373407936164E-01
41  4.0000000000000E-01  1.7421762971618E+00 -4.8560546225018E-01
42  4.1000000000000E-01  1.7399018358464E+00 -3.9213442565823E-01
43  4.2000000000000E-01  1.7330367605465E+00 -2.9372333037098E-01
44  4.3000000000000E-01  1.7216957474959E+00 -1.9085570945806E-01
45  4.4000000000000E-01  1.7060200460443E+00 -8.4100964648366E-02
46  4.5000000000000E-01  1.6861758421948E+00  2.5883847750211E-02
47  4.6000000000000E-01  1.6623523754962E+00  1.3835551605391E-01
48  4.7000000000000E-01  1.6347598244926E+00  2.5248969711323E-01
49  4.8000000000000E-01  1.6036269822430E+00  3.6738955482287E-01
50  4.9000000000000E-01  1.5691987496516E+00  4.8209794499372E-01
51  5.0000000000000E-01  1.5317334802283E+00  5.9561291838719E-01
52  5.1000000000000E-01  1.4915002151829E+00  7.0690615869598E-01
53  5.2000000000000E-01  1.4487758521793E+00  8.1494382885971E-01
54  5.3000000000000E-01  1.4038422944349E+00  9.1870917362052E-01
55  5.4000000000000E-01  1.3569836289411E+00  1.0172261243027E+00
56  5.5000000000000E-01  1.3084833832661E+00  1.1095830782116E+00
57  5.6000000000000E-01  1.2586219095864E+00  1.1949559834735E+00
58  5.7000000000000E-01  1.2076739422310E+00  1.2726298530105E+00
59  5.8000000000000E-01  1.1559063711431E+00  1.3420178597371E+00
60  5.9000000000000E-01  1.1035762683420E+00  1.4026772286110E+00
61  6.0000000000000E-01  1.0509291978369E+00  1.4543212380839E+00
62  6.1000000000000E-01  9.9819783170771E-01  1.4968267706042E+00
63  6.2000000000000E-01  9.4560088646367E-01  1.5302370046758E+00
64  6.3000000000000E-01  8.9334238459311E-01  1.5547590140082E+00
65  6.4000000000000E-01  8.4161123675852E-01  1.5707562260371E+00
66  6.5000000000000E-01  7.9058113068506E-01  1.5787358854056E+00
67  6.6000000000000E-01  7.4041070379056E-01  1.5793318603375E+00
68  6.7000000000000E-01  6.9124396833917E-01  1.5732833135755E+00
69  6.8000000000000E-01  6.4321095068644E-01  1.5614099272619E+00
70  6.9000000000000E-01  5.9642850030450E-01  1.5445845158572E+00
71  7.0000000000000E-01  5.5100121997186E-01  1.5237039767753E+00
72  7.1000000000000E-01  5.0702246597122E-01  1.4996596097230E+00
73  7.2000000000000E-01  4.6457536648463E-01  1.4733078788952E+00
74  7.3000000000000E-01  4.2373380766496E-01  1.4454426947452E+00
75  7.4000000000000E-01  3.8456334008056E-01  1.4167702531197E+00
76  7.5000000000000E-01  3.4712196328658E-01  1.3878873898261E+00
77  7.6000000000000E-01  3.1146075301156E-01  1.3592642904946E+00
78  7.7000000000000E-01  2.7762430363177E-01  1.3312322427898E+00
79  7.8000000000000E-01  2.4565096795237E-01  1.3039769358641E+00
80  7.9000000000000E-01  2.1557288648180E-01  1.2775376069957E+00
81  8.0000000000000E-01  1.8741580899778E-01  1.2518121151181E+00
82  8.1000000000000E-01  1.6119872185441E-01  1.2265677937032E+00
83  8.2000000000000E-01  1.3693330475691E-01  1.2014577099108E+00
84  8.3000000000000E-01  1.1462325022247E-01  1.1760417418110E+00
85  8.4000000000000E-01  9.4263487263575E-02  1.1498116893985E+00
86  8.5000000000000E-01  7.5839357620040E-02  1.1222194659658E+00
87  8.6000000000000E-01  5.9325797824286E-02  1.0927072812530E+00
88  8.7000000000000E-01  4.4686583269583E-02  1.0607386324805E+00
89  8.8000000000000E-01  3.1873691096141E-02  1.0258288683202E+00
90  8.9000000000000E-01  2.0826837028151E-02  9.8757408681977E-01
91  9.0000000000000E-01  1.1473237286550E-02  9.4567717228399E-01
92  9.1000000000000E-01  3.7276404574602E-03  8.9996986723689E-01
93  9.2000000000000E-01 -2.5073341110323E-03  8.5042991120028E-01
94  9.3000000000000E-01 -7.3405249198786E-03  7.9719245360955E-01
95  9.4000000000000E-01 -1.0891209052564E-02  7.4055515768634E-01
96  9.5000000000000E-01 -1.3287732796679E-02  6.8097664798194E-01
97  9.6000000000000E-01 -1.4665803197227E-02  6.1906820797896E-01
98  9.7000000000000E-01 -1.5166465004566E-02  5.5557889601278E-01
99  9.8000000000000E-01 -1.4933800553474E-02  4.9137450811592E-01
100  9.9000000000000E-01 -1.4112402330595E-02  4.2741106494109E-01
101  1.0000000000000E+00 -1.2844678890162E-02  3.6470372714616E-01
102  1.0100000000000E+00 -1.1268063919225E-02  3.0429224032752E-01
103  1.0200000000000E+00 -9.5122052675635E-03  2.4720416908158E-01
104  1.0300000000000E+00 -7.6962156431516E-03  1.9441732166032E-01
105  1.0400000000000E+00 -5.9260653917346E-03  1.4682256222399E-01
106  1.0500000000000E+00 -4.2921733708153E-03  1.0518690144683E-01
107  1.0600000000000E+00 -2.8665527599015E-03  7.0020832678697E-02
108  1.0700000000000E+00 -1.7042125625474E-03  4.1777749455715E-02
109  1.0800000000000E+00 -8.3951016365625E-04  2.0799898778238E-02
110  1.0900000000000E+00 -2.8395920955583E-04  7.1652437325459E-03
111  1.1000000000000E+00 -2.8124502587599E-05  7.2944178463508E-04
112  1.1100000000000E+00  9.9919251571538E-07 -2.6439606391220E-05
113  1.1200000000000E+00  1.3072473137893E-07 -3.3663865970826E-06
114  1.13  0. -0.
115  1.14  0.  0.
116  1.15  0.  0.
117  1.16  0.  0.
118  1.17  0.  0.
119  1.18  0.  0.
120  1.19  0.  0.
121  1.20  0.  0.
122  1.21  0.  0.
123  1.22  0.  0.
124  1.23  0.  0.
125  1.24  0.  0.
126  1.25  0.  0.
127  1.26  0.  0.
128  1.27  0.  0.
129  1.28  0.  0.
130  1.29  0.  0.
131  1.30  0.  0.
132  1.31  0.  0.
133  1.32  0.  0.
134  1.33  0.  0.
135  1.34  0.  0.
136  1.35  0.  0.
137  1.36  0.  0.
138  1.37  0.  0.
139  1.38  0.  0.
140  1.39  0.  0.
141  1.40  0.  0.
142  1.41  0.  0.
143  1.42  0.  0.
144  1.43  0.  0.
145  1.44  0.  0.
146  1.45  0.  0.
147  1.46  0.  0.
148  1.47  0.  0.
149  1.48  0.  0.
150  1.49  0.  0.
151  1.50  0.  0.
152  1.51  0.  0.
153  1.52  0.  0.
154  1.53  0.  0.
155  1.54  0.  0.
156  1.55  0.  0.
157  1.56  0.  0.
158  1.57  0.  0.
159  1.58  0.  0.
160  1.59  0.  0.
161  1.60  0.  0.
162  1.61  0.  0.
163  1.62  0.  0.
164  1.63  0.  0.
165  1.64  0.  0.
166  1.65  0.  0.
167  1.66  0.  0.
168  1.67  0.  0.
169  1.68  0.  0.
170  1.69  0.  0.
171  1.70  0.  0.
172  1.71  0.  0.
173  1.72  0.  0.
174  1.73  0.  0.
175  1.74  0.  0.
176  1.75  0.  0.
177  1.76  0.  0.
178  1.77  0.  0.
179  1.78  0.  0.
180  1.79  0.  0.
181  1.80  0.  0.
182  1.81  0.  0.
183  1.82  0.  0.
184  1.83  0.  0.
185  1.84  0.  0.
186  1.85  0.  0.
187  1.86  0.  0.
188  1.87  0.  0.
189  1.88  0.  0.
190  1.89  0.  0.
191  1.90  0.  0.
192  1.91  0.  0.
193  1.92  0.  0.
194  1.93  0.  0.
195  1.94  0.  0.
196  1.95  0.  0.
197  1.96  0.  0.