Ds    ONCVPSP-4.0.1  r_core=   1.10457   1.30597   1.20106   1.10457
    110.0000     50.0000      211119    zatom,zion,pspd
     8      11   3     4   600     0    pspcod,pspxc,lmax,lloc,mmax,r2well
  5.99000000  5.00000000  0.00000000    rchrg fchrg qchrg
     3     2     2     2     0    nproj
     1     1           extension_switch
   0                        -1.5742075336034E+01  1.3899533646953E+01 -7.8872436239188E-01
     1  0.0000000000000E+00  6.8382943751999E-10 -2.4934505571395E-09 -4.2856680509962E-08
     2  1.0000000000000E-02  7.5513502925747E-02  2.1217383065200E-01 -9.5982845747380E-03
     3  2.0000000000000E-02  1.5088671986789E-01  4.2197510657220E-01 -1.9386870123972E-02
     4  3.0000000000000E-02  2.2597918236961E-01  6.2706005019873E-01 -2.9550213569266E-02
     5  4.0000000000000E-02  3.0065006746148E-01  8.2514211969936E-01 -4.0261318252590E-02
     6  5.0000000000000E-02  3.7475804631487E-01  1.0140198303321E+00 -5.1676581153663E-02
     7  6.0000000000000E-02  4.4816116349914E-01  1.1916036203116E+00 -6.3931295110055E-02
     8  7.0000000000000E-02  5.2071675623518E-01  1.3559414439374E+00 -7.7135969971152E-02
     9  8.0000000000000E-02  5.9228142235415E-01  1.5052427772321E+00 -9.1373593760358E-02
    10  9.0000000000000E-02  6.6271104482732E-01  1.6379007261154E+00 -1.0669790583504E-01
    11  1.0000000000000E-01  7.3186087973984E-01  1.7525119351339E+00 -1.2313270136491E-01
    12  1.1000000000000E-01  7.9958571344803E-01  1.8478940069471E+00 -1.4067213304376E-01
    13  1.2000000000000E-01  8.6574009340039E-01  1.9231001600567E+00 -1.5928192471163E-01
    14  1.3000000000000E-01  9.3017863573195E-01  1.9774308754715E+00 -1.7890136529983E-01
    15  1.4000000000000E-01  9.9275641127783E-01  2.0104423127426E+00 -1.9944591278159E-01
    16  1.5000000000000E-01  1.0533294101168E+00  2.0219513124752E+00 -2.2081020879590E-01
    17  1.6000000000000E-01  1.1117550831713E+00  2.0120368460948E+00 -2.4287128699093E-01
    18  1.7000000000000E-01  1.1678929577833E+00  1.9810378240821E+00 -2.6549175299238E-01
    19  1.8000000000000E-01  1.2216053225828E+00  1.9295472304883E+00 -2.8852272167466E-01
    20  1.9000000000000E-01  1.2727579753981E+00  1.8584026133380E+00 -3.1180631784246E-01
    21  2.0000000000000E-01  1.3212210264517E+00  1.7686730262464E+00 -3.3517757858295E-01
    22  2.1000000000000E-01  1.3668697476785E+00  1.6616425846005E+00 -3.5846563784815E-01
    23  2.2000000000000E-01  1.4095854577191E+00  1.5387908681504E+00 -3.8149412412756E-01
    24  2.3000000000000E-01  1.4492564310123E+00  1.4017704687834E+00 -4.0408075776471E-01
    25  2.4000000000000E-01  1.4857788184688E+00  1.2523820454760E+00 -4.2603619260813E-01
    26  2.5000000000000E-01  1.5190575664659E+00  1.0925473057811E+00 -4.4716220412975E-01
    27  2.6000000000000E-01  1.5490073203976E+00  9.2428038263310E-01 -4.6724937971918E-01
    28  2.7000000000000E-01  1.5755532987467E+00  7.4965811483711E-01 -4.8607451352589E-01
    29  2.8000000000000E-01  1.5986321236414E+00  5.7078976769182E-01 -5.0339794521557E-01
    30  2.9000000000000E-01  1.6181925941104E+00  3.8978674548748E-01 -5.1896110700476E-01
    31  3.0000000000000E-01  1.6341963887728E+00  2.0873284920340E-01 -5.3248455457016E-01
    32  3.1000000000000E-01  1.6466186854698E+00  2.9655620177799E-02 -5.4366675378648E-01
    33  3.2000000000000E-01  1.6554486863707E+00 -1.4550071611397E-01 -5.5218387634461E-01
    34  3.3000000000000E-01  1.6606900383254E+00 -3.1490023219579E-01 -5.5769082351884E-01
    35  3.4000000000000E-01  1.6623611396890E+00 -4.7683778528166E-01 -5.5982364983148E-01
    36  3.5000000000000E-01  1.6604953264618E+00 -6.2975865071361E-01 -5.5820349895419E-01
    37  3.6000000000000E-01  1.6551409323510E+00 -7.7227501687746E-01 -5.5244209540357E-01
    38  3.7000000000000E-01  1.6463612192196E+00 -9.0317913556730E-01 -5.4214876046300E-01
    39  3.8000000000000E-01  1.6342341763167E+00 -1.0214530051609E+00 -5.2693884273849E-01
    40  3.9000000000000E-01  1.6188521886293E+00 -1.1262745488024E+00 -5.0644337651718E-01
    41  4.0000000000000E-01  1.6003215766210E+00 -1.2170203333062E+00 -4.8031970839299E-01
    42  4.1000000000000E-01  1.5787620114954E+00 -1.2932649539899E+00 -4.4826276810343E-01
    43  4.2000000000000E-01  1.5543058118882E+00 -1.3547772835755E+00 -4.1001660654565E-01
    44  4.3000000000000E-01  1.5270971295338E+00 -1.4015138473985E+00 -3.6538578542098E-01
    45  4.4000000000000E-01  1.4972910329259E+00 -1.4336096405192E+00 -3.1424618120607E-01
    46  4.5000000000000E-01  1.4650524992790E+00 -1.4513667434662E+00 -2.5655476276534E-01
    47  4.6000000000000E-01  1.4305553261756E+00 -1.4552411212862E+00 -1.9235791768191E-01
    48  4.7000000000000E-01  1.3939809751419E+00 -1.4458280048647E+00 -1.2179793721686E-01
    49  4.8000000000000E-01  1.3555173600169E+00 -1.4238462542383E+00 -4.5117322752204E-02
    50  4.9000000000000E-01  1.3153575933785E+00 -1.3901220914623E+00  3.7339354183173E-02
    51  5.0000000000000E-01  1.2736987044514E+00 -1.3455725666717E+00  1.2512622325140E-01
    52  5.1000000000000E-01  1.2307403418763E+00 -1.2911890868813E+00  2.1769960957573E-01
    53  5.2000000000000E-01  1.1866834744656E+00 -1.2280212947549E+00  3.1442424252588E-01
    54  5.3000000000000E-01  1.1417291026348E+00 -1.1571615363074E+00  4.1458206821665E-01
    55  5.4000000000000E-01  1.0960769926067E+00 -1.0797301047062E+00  5.1738345453401E-01
    56  5.5000000000000E-01  1.0499244447558E+00 -9.9686139450920E-01  6.2198048351924E-01
    57  5.6000000000000E-01  1.0034651066194E+00 -9.0969104928581E-01  7.2748194256222E-01
    58  5.7000000000000E-01  9.5688784018740E-01 -8.1934413790856E-01  8.3296955688368E-01
    59  5.8000000000000E-01  9.1037565210289E-01 -7.2692435292765E-01  9.3751495446073E-01
    60  5.9000000000000E-01  8.6410469440063E-01 -6.3350419004430E-01  1.0401968233730E+00
    61  6.0000000000000E-01  8.1824334239421E-01 -5.4011604204948E-01  1.1401177121692E+00
    62  6.1000000000000E-01  7.7295135531490E-01 -4.4774412448428E-01  1.2364199369866E+00
    63  6.2000000000000E-01  7.2837912432340E-01 -3.5731714397741E-01  1.3283000945098E+00
    64  6.3000000000000E-01  6.8466701157023E-01 -2.6970162347750E-01  1.4150217361598E+00
    65  6.4000000000000E-01  6.4194478307926E-01 -1.8569581066405E-01  1.4959258339220E+00
    66  6.5000000000000E-01  6.0033113737639E-01 -1.0602411546367E-01  1.5704387588648E+00
    67  6.6000000000000E-01  5.5993333098178E-01 -3.1332048187263E-02  1.6380775958208E+00
    68  6.7000000000000E-01  5.2084690112734E-01  3.7818340620183E-02  1.6984527274836E+00
    69  6.8000000000000E-01  4.8315548534622E-01  1.0095248614376E-01  1.7512677335135E+00
    70  6.9000000000000E-01  4.4693073690180E-01  1.5768673771721E-01  1.7963167601400E+00
    71  7.0000000000000E-01  4.1223233437153E-01  2.0773109824142E-01  1.8334796182716E+00
    72  7.1000000000000E-01  3.7910808307028E-01  2.5089116002973E-01  1.8627149585791E+00
    73  7.2000000000000E-01  3.4759410537919E-01  2.8706910630546E-01  1.8840519462276E+00
    74  7.3000000000000E-01  3.1771511643568E-01  3.1626363990706E-01  1.8975809123760E+00
    75  7.4000000000000E-01  2.8948478103400E-01  3.3856870279644E-01  1.9034434915833E+00
    76  7.5000000000000E-01  2.6290614698168E-01  3.5417086239764E-01  1.9018227621991E+00
    77  7.6000000000000E-01  2.3797214955857E-01  3.6334526375178E-01  1.8929338900658E+00
    78  7.7000000000000E-01  2.1466618113587E-01  3.6645007951674E-01  1.8770157349954E+00
    79  7.8000000000000E-01  1.9296271944032E-01  3.6391943196663E-01  1.8543238161407E+00
    80  7.9000000000000E-01  1.7282800740569E-01  3.5625481080418E-01  1.8251249493266E+00
    81  8.0000000000000E-01  1.5422077705143E-01  3.4401506576858E-01  1.7896937703436E+00
    82  8.1000000000000E-01  1.3709300938388E-01  3.2780511127697E-01  1.7483112476545E+00
    83  8.2000000000000E-01  1.2139072194367E-01  3.0826353895651E-01  1.7012651711040E+00
    84  8.3000000000000E-01  1.0705477534266E-01  2.8604939001500E-01  1.6488524856021E+00
    85  8.4000000000000E-01  9.4021689959524E-02  2.6182839001568E-01  1.5913832261264E+00
    86  8.5000000000000E-01  8.2224463911945E-02  2.3625899092184E-01  1.5291857083918E+00
    87  8.6000000000000E-01  7.1593383506525E-02  2.0997859664434E-01  1.4626125434696E+00
    88  8.7000000000000E-01  6.2056817595921E-02  1.8359036650752E-01  1.3920469792010E+00
    89  8.8000000000000E-01  5.3541987650875E-02  1.5765099427787E-01  1.3179090303213E+00
    90  8.9000000000000E-01  4.5975705884704E-02  1.3265984749018E-01  1.2406608456449E+00
    91  9.0000000000000E-01  3.9285074444836E-02  1.0904982222973E-01  1.1608107761652E+00
    92  9.1000000000000E-01  3.3398139501032E-02  8.7180222483202E-02  1.0789156528888E+00
    93  9.2000000000000E-01  2.8244494998456E-02  6.7331911558722E-02  9.9558085676985E-01
    94  9.3000000000000E-01  2.3755831885794E-02  4.9704907546770E-02  9.1145786299790E-01
    95  9.4000000000000E-01  1.9866429749989E-02  3.4418507653411E-02  8.2723906465780E-01
    96  9.5000000000000E-01  1.6513588961248E-02  2.1513930392708E-02  7.4364982182760E-01
    97  9.6000000000000E-01  1.3638002623791E-02  1.0959363469351E-02  6.6143783598501E-01
    98  9.7000000000000E-01  1.1184068805183E-02  2.6572025155513E-03  5.8136010982311E-01
    99  9.8000000000000E-01  9.1001446468249E-03 -3.5468344332802E-03  5.0416791262418E-01
   100  9.9000000000000E-01  7.3387450054942E-03 -7.8531256169746E-03  4.3059032415080E-01
   101  1.0000000000000E+00  5.8566892095503E-03 -1.0496589712569E-02  3.6131706889452E-01
   102  1.0100000000000E+00  4.6152003039070E-03 -1.1734717229923E-02  2.9698147099639E-01
   103  1.0200000000000E+00  3.5799617817687E-03 -1.1835803221231E-02  2.3814445270403E-01
   104  1.0300000000000E+00  2.7211391675929E-03 -1.1068041107058E-02  1.8528057364220E-01
   105  1.0400000000000E+00  2.0133561108660E-03 -9.6900279611942E-03  1.3876701979581E-01
   106  1.0500000000000E+00  1.4355348810800E-03 -7.9427989166580E-03  9.8876054358621E-02
   107  1.0600000000000E+00  9.6361865187118E-04 -5.9905658796056E-03  6.5719367419681E-02
   108  1.0700000000000E+00  5.8520815194257E-04 -4.0115201691425E-03  3.9338608133555E-02
   109  1.0800000000000E+00  2.9938072632147E-04 -2.2295551181523E-03  1.9749050441059E-02
   110  1.0900000000000E+00  1.0699369601464E-04 -8.5578577705170E-04  6.8981798185039E-03
   111  1.1000000000000E+00  1.1421347614780E-05 -9.7299536613477E-05  7.1646438761254E-04
   112  1.1100000000000E+00 -4.2693215283429E-07  3.7950534721135E-06 -2.6394958951438E-05
   113  1.1200000000000E+00 -5.2041466292092E-08  4.3971015597808E-07 -3.2959005030899E-06
   114  1.13 -0. -0.  0.
   115  1.14  0.  0.  0.
   116  1.15  0.  0.  0.
   117  1.16  0.  0.  0.
   118  1.17  0.  0.  0.
   119  1.18  0.  0.  0.
   120  1.19  0.  0.  0.
   121  1.20  0.  0.  0.
   122  1.21  0.  0.  0.
   123  1.22  0.  0.  0.
   124  1.23  0.  0.  0.
   125  1.24  0.  0.  0.
   126  1.25  0.  0.  0.
   127  1.26  0.  0.  0.
   128  1.27  0.  0.  0.
   129  1.28  0.  0.  0.
   130  1.29  0.  0.  0.
   131  1.30  0.  0.  0.
   132  1.31  0.  0.  0.
   133  1.32  0.  0.  0.
   134  1.33  0.  0.  0.
   135  1.34  0.  0.  0.
   136  1.35  0.  0.  0.
   137  1.36  0.  0.  0.
   138  1.37  0.  0.  0.
   139  1.38  0.  0.  0.
   140  1.39  0.  0.  0.
   141  1.40  0.  0.  0.
   142  1.41  0.  0.  0.
   143  1.42  0.  0.  0.
   144  1.43  0.  0.  0.
   145  1.44  0.  0.  0.
   146  1.45  0.  0.  0.
   147  1.46  0.  0.  0.
   148  1.47  0.  0.  0.
   149  1.48  0.  0.  0.
   150  1.49  0.  0.  0.
   151  1.50  0.  0.  0.
   152  1.51  0.  0.  0.
   153  1.52  0.  0.  0.
   154  1.53  0.  0.  0.
   155  1.54  0.  0.  0.
   156  1.55  0.  0.  0.
   157  1.56  0.  0.  0.
   158  1.57  0.  0.  0.
   159  1.58  0.  0.  0.
   160  1.59  0.  0.  0.
   161  1.60  0.  0.  0.
   162  1.61  0.  0.  0.
   163  1.62  0.  0.  0.
   164  1.63  0.  0.  0.
   165  1.64  0.  0.  0.
   166  1.65  0.  0.  0.
   167  1.66  0.  0.  0.
   168  1.67  0.  0.  0.
   169  1.68  0.  0.  0.
   170  1.69  0.  0.  0.
   171  1.70  0.  0.  0.
   172  1.71  0.  0.  0.
   173  1.72  0.  0.  0.
   174  1.73  0.  0.  0.
   175  1.74  0.  0.  0.
   176  1.75  0.  0.  0.
   177  1.76  0.  0.  0.
   178  1.77  0.  0.  0.
   179  1.78  0.  0.  0.
   180  1.79  0.  0.  0.
   181  1.80  0.  0.  0.
   182  1.81  0.  0.  0.
   183  1.82  0.  0.  0.
   184  1.83  0.  0.  0.
   185  1.84  0.  0.  0.
   186  1.85  0.  0.  0.
   187  1.86  0.  0.  0.
   188  1.87  0.  0.  0.
   189  1.88  0.  0.  0.
   190  1.89  0.  0.  0.
   191  1.90  0.  0.  0.
   192  1.91  0.  0.  0.
   193  1.92  0.  0.  0.
   194  1.93  0.  0.  0.
   195  1.94  0.  0.  0.
   196  1.95  0.  0.  0.
   197  1.96  0.  0.  0.
   198  1.97  0.  0.  0.
   199  1.98  0.  0.  0.
   200  1.99  0.  0.  0.
   201  2.00  0.  0.  0.
   202  2.01  0.  0.  0.
   203  2.02  0.  0.  0.
   204  2.03  0.  0.  0.
   205  2.04  0.  0.  0.
   206  2.05  0.  0.  0.
   207  2.06  0.  0.  0.
   208  2.07  0.  0.  0.
   209  2.08  0.  0.  0.
   210  2.09  0.  0.  0.
   211  2.10  0.  0.  0.
   212  2.11  0.  0.  0.
   213  2.12  0.  0.  0.
   214  2.13  0.  0.  0.
   215  2.14  0.  0.  0.
   216  2.15  0.  0.  0.
   217  2.16  0.  0.  0.
   218  2.17  0.  0.  0.
   219  2.18  0.  0.  0.
   220  2.19  0.  0.  0.
   221  2.20  0.  0.  0.
   222  2.21  0.  0.  0.
   223  2.22  0.  0.  0.
   224  2.23  0.  0.  0.
   225  2.24  0.  0.  0.
   226  2.25  0.  0.  0.
   227  2.26  0.  0.  0.
   228  2.27  0.  0.  0.
   229  2.28  0.  0.  0.
   230  2.29  0.  0.  0.
   231  2.30  0.  0.  0.
   232  2.31  0.  0.  0.
   233  2.32  0.  0.  0.
   234  2.33  0.  0.  0.
   235  2.34  0.  0.  0.
   236  2.35  0.  0.  0.
   237  2.36  0.  0.  0.
   238  2.37  0.  0.  0.
   239  2.38  0.  0.  0.
   240  2.39  0.  0.  0.
   241  2.40  0.  0.  0.
   242  2.41  0.  0.  0.
   243  2.42  0.  0.  0.
   244  2.43  0.  0.  0.
   245  2.44  0.  0.  0.
   246  2.45  0.  0.  0.
   247  2.46  0.  0.  0.
   248  2.47  0.  0.  0.
   249  2.48  0.  0.  0.
   250  2.49  0.  0.  0.
   251  2.50  0.  0.  0.
   252  2.51  0.  0.  0.
   253  2.52  0.  0.  0.
   254  2.53  0.  0.  0.
   255  2.54  0.  0.  0.
   256  2.55  0.  0.  0.
   257  2.56  0.  0.  0.
   258  2.57  0.  0.  0.
   259  2.58  0.  0.  0.
   260  2.59  0.  0.  0.
   261  2.60  0.  0.  0.
   262  2.61  0.  0.  0.
   263  2.62  0.  0.  0.
   264  2.63  0.  0.  0.
   265  2.64  0.  0.  0.
   266  2.65  0.  0.  0.
   267  2.66  0.  0.  0.
   268  2.67  0.  0.  0.
   269  2.68  0.  0.  0.
   270  2.69  0.  0.  0.
   271  2.70  0.  0.  0.
   272  2.71  0.  0.  0.
   273  2.72  0.  0.  0.
   274  2.73  0.  0.  0.
   275  2.74  0.  0.  0.
   276  2.75  0.  0.  0.
   277  2.76  0.  0.  0.
   278  2.77  0.  0.  0.
   279  2.78  0.  0.  0.
   280  2.79  0.  0.  0.
   281  2.80  0.  0.  0.
   282  2.81  0.  0.  0.
   283  2.82  0.  0.  0.
   284  2.83  0.  0.  0.
   285  2.84  0.  0.  0.
   286  2.85  0.  0.  0.
   287  2.86  0.  0.  0.
   288  2.87  0.  0.  0.
   289  2.88  0.  0.  0.
   290  2.89  0.  0.  0.
   291  2.90  0.  0.  0.
   292  2.91  0.  0.  0.
   293  2.92  0.  0.  0.
   294  2.93  0.  0.  0.
   295  2.94  0.  0.  0.
   296  2.95  0.  0.  0.
   297  2.96  0.  0.  0.
   298  2.97  0.  0.  0.
   299  2.98  0.  0.  0.
   300  2.99  0.  0.  0.
   301  3.00  0.  0.  0.
   302  3.01  0.  0.  0.
   303  3.02  0.  0.  0.
   304  3.03  0.  0.  0.
   305  3.04  0.  0.  0.
   306  3.05  0.  0.  0.
   307  3.06  0.  0.  0.
   308  3.07  0.  0.  0.
   309  3.08  0.  0.  0.
   310  3.09  0.  0.  0.
   311  3.10  0.  0.  0.
   312  3.11  0.  0.  0.
   313  3.12  0.  0.  0.
   314  3.13  0.  0.  0.
   315  3.14  0.  0.  0.
   316  3.15  0.  0.  0.
   317  3.16  0.  0.  0.
   318  3.17  0.  0.  0.
   319  3.18  0.  0.  0.
   320  3.19  0.  0.  0.
   321  3.20  0.  0.  0.
   322  3.21  0.  0.  0.
   323  3.22  0.  0.  0.
   324  3.23  0.  0.  0.
   325  3.24  0.  0.  0.
   326  3.25  0.  0.  0.
   327  3.26  0.  0.  0.
   328  3.27  0.  0.  0.
   329  3.28  0.  0.  0.
   330  3.29  0.  0.  0.
   331  3.30  0.  0.  0.
   332  3.31  0.  0.  0.
   333  3.32  0.  0.  0.
   334  3.33  0.  0.  0.
   335  3.34  0.  0.  0.
   336  3.35  0.  0.  0.
   337  3.36  0.  0.  0.
   338  3.37  0.  0.  0.
   339  3.38  0.  0.  0.
   340  3.39  0.  0.  0.
   341  3.40  0.  0.  0.
   342  3.41  0.  0.  0.
   343  3.42  0.  0.  0.
   344  3.43  0.  0.  0.
   345  3.44  0.  0.  0.
   346  3.45  0.  0.  0.
   347  3.46  0.  0.  0.
   348  3.47  0.  0.  0.
   349  3.48  0.  0.  0.
   350  3.49  0.  0.  0.
   351  3.50  0.  0.  0.
   352  3.51  0.  0.  0.
   353  3.52  0.  0.  0.
   354  3.53  0.  0.  0.
   355  3.54  0.  0.  0.
   356  3.55  0.  0.  0.
   357  3.56  0.  0.  0.
   358  3.57  0.  0.  0.
   359  3.58  0.  0.  0.
   360  3.59  0.  0.  0.
   361  3.60  0.  0.  0.
   362  3.61  0.  0.  0.
   363  3.62  0.  0.  0.
   364  3.63  0.  0.  0.
   365  3.64  0.  0.  0.
   366  3.65  0.  0.  0.
   367  3.66  0.  0.  0.
   368  3.67  0.  0.  0.
   369  3.68  0.  0.  0.
   370  3.69  0.  0.  0.
   371  3.70  0.  0.  0.
   372  3.71  0.  0.  0.
   373  3.72  0.  0.  0.
   374  3.73  0.  0.  0.
   375  3.74  0.  0.  0.
   376  3.75  0.  0.  0.
   377  3.76  0.  0.  0.
   378  3.77  0.  0.  0.
   379  3.78  0.  0.  0.
   380  3.79  0.  0.  0.
   381  3.80  0.  0.  0.
   382  3.81  0.  0.  0.
   383  3.82  0.  0.  0.
   384  3.83  0.  0.  0.
   385  3.84  0.  0.  0.
   386  3.85  0.  0.  0.
   387  3.86  0.  0.  0.
   388  3.87  0.  0.  0.
   389  3.88  0.  0.  0.
   390  3.89  0.  0.  0.
   391  3.90  0.  0.  0.
   392  3.91  0.  0.  0.
   393  3.92  0.  0.  0.
   394  3.93  0.  0.  0.
   395  3.94  0.  0.  0.
   396  3.95  0.  0.  0.
   397  3.96  0.  0.  0.
   398  3.97  0.  0.  0.
   399  3.98  0.  0.  0.
   400  3.99  0.  0.  0.
   401  4.00  0.  0.  0.
   402  4.01  0.  0.  0.
   403  4.02  0.  0.  0.
   404  4.03  0.  0.  0.
   405  4.04  0.  0.  0.
   406  4.05  0.  0.  0.
   407  4.06  0.  0.  0.
   408  4.07  0.  0.  0.
   409  4.08  0.  0.  0.
   410  4.09  0.  0.  0.
   411  4.10  0.  0.  0.
   412  4.11  0.  0.  0.
   413  4.12  0.  0.  0.
   414  4.13  0.  0.  0.
   415  4.14  0.  0.  0.
   416  4.15  0.  0.  0.
   417  4.16  0.  0.  0.
   418  4.17  0.  0.  0.
   419  4.18  0.  0.  0.
   420  4.19  0.  0.  0.
   421  4.20  0.  0.  0.
   422  4.21  0.  0.  0.
   423  4.22  0.  0.  0.
   424  4.23  0.  0.  0.
   425  4.24  0.  0.  0.
   426  4.25  0.  0.  0.
   427  4.26  0.  0.  0.
   428  4.27  0.  0.  0.
   429  4.28  0.  0.  0.
   430  4.29  0.  0.  0.
   431  4.30  0.  0.  0.
   432  4.31  0.  0.  0.
   433  4.32  0.  0.  0.
   434  4.33  0.  0.  0.
   435  4.34  0.  0.  0.
   436  4.35  0.  0.  0.
   437  4.36  0.  0.  0.
   438  4.37  0.  0.  0.
   439  4.38  0.  0.  0.
   440  4.39  0.  0.  0.
   441  4.40  0.  0.  0.
   442  4.41  0.  0.  0.
   443  4.42  0.  0.  0.
   444  4.43  0.  0.  0.
   445  4.44  0.  0.  0.
   446  4.45  0.  0.  0.
   447  4.46  0.  0.  0.
   448  4.47  0.  0.  0.
   449  4.48  0.  0.  0.
   450  4.49  0.  0.  0.
   451  4.50  0.  0.  0.
   452  4.51  0.  0.  0.
   453  4.52  0.  0.  0.
   454  4.53  0.  0.  0.
   455  4.54  0.  0.  0.
   456  4.55  0.  0.  0.
   457  4.56  0.  0.  0.
   458  4.57  0.  0.  0.
   459  4.58  0.  0.  0.
   460  4.59  0.  0.  0.
   461  4.60  0.  0.  0.
   462  4.61  0.  0.  0.
   463  4.62  0.  0.  0.
   464  4.63  0.  0.  0.
   465  4.64  0.  0.  0.
   466  4.65  0.  0.  0.
   467  4.66  0.  0.  0.
   468  4.67  0.  0.  0.
   469  4.68  0.  0.  0.
   470  4.69  0.  0.  0.
   471  4.70  0.  0.  0.
   472  4.71  0.  0.  0.
   473  4.72  0.  0.  0.
   474  4.73  0.  0.  0.
   475  4.74  0.  0.  0.
   476  4.75  0.  0.  0.
   477  4.76  0.  0.  0.
   478  4.77  0.  0.  0.
   479  4.78  0.  0.  0.
   480  4.79  0.  0.  0.
   481  4.80  0.  0.  0.
   482  4.81  0.  0.  0.
   483  4.82  0.  0.  0.
   484  4.83  0.  0.  0.
   485  4.84  0.  0.  0.
   486  4.85  0.  0.  0.
   487  4.86  0.  0.  0.
   488  4.87  0.  0.  0.
   489  4.88  0.  0.  0.
   490  4.89  0.  0.  0.
   491  4.90  0.  0.  0.
   492  4.91  0.  0.  0.
   493  4.92  0.  0.  0.
   494  4.93  0.  0.  0.
   495  4.94  0.  0.  0.
   496  4.95  0.  0.  0.
   497  4.96  0.  0.  0.
   498  4.97  0.  0.  0.
   499  4.98  0.  0.  0.
   500  4.99  0.  0.  0.
   501  5.00  0.  0.  0.
   502  5.01  0.  0.  0.
   503  5.02  0.  0.  0.
   504  5.03  0.  0.  0.
   505  5.04  0.  0.  0.
   506  5.05  0.  0.  0.
   507  5.06  0.  0.  0.
   508  5.07  0.  0.  0.
   509  5.08  0.  0.  0.
   510  5.09  0.  0.  0.
   511  5.10  0.  0.  0.
   512  5.11  0.  0.  0.
   513  5.12  0.  0.  0.
   514  5.13  0.  0.  0.
   515  5.14  0.  0.  0.
   516  5.15  0.  0.  0.
   517  5.16  0.  0.  0.
   518  5.17  0.  0.  0.
   519  5.18  0.  0.  0.
   520  5.19  0.  0.  0.
   521  5.20  0.  0.  0.
   522  5.21  0.  0.  0.
   523  5.22  0.  0.  0.
   524  5.23  0.  0.  0.
   525  5.24  0.  0.  0.
   526  5.25  0.  0.  0.
   527  5.26  0.  0.  0.
   528  5.27  0.  0.  0.
   529  5.28  0.  0.  0.
   530  5.29  0.  0.  0.
   531  5.30  0.  0.  0.
   532  5.31  0.  0.  0.
   533  5.32  0.  0.  0.
   534  5.33  0.  0.  0.
   535  5.34  0.  0.  0.
   536  5.35  0.  0.  0.
   537  5.36  0.  0.  0.
   538  5.37  0.  0.  0.
   539  5.38  0.  0.  0.
   540  5.39  0.  0.  0.
   541  5.40  0.  0.  0.
   542  5.41  0.  0.  0.
   543  5.42  0.  0.  0.
   544  5.43  0.  0.  0.
   545  5.44  0.  0.  0.
   546  5.45  0.  0.  0.
   547  5.46  0.  0.  0.
   548  5.47  0.  0.  0.
   549  5.48  0.  0.  0.
   550  5.49  0.  0.  0.
   551  5.50  0.  0.  0.
   552  5.51  0.  0.  0.
   553  5.52  0.  0.  0.
   554  5.53  0.  0.  0.
   555  5.54  0.  0.  0.
   556  5.55  0.  0.  0.
   557  5.56  0.  0.  0.
   558  5.57  0.  0.  0.
   559  5.58  0.  0.  0.
   560  5.59  0.  0.  0.
   561  5.60  0.  0.  0.
   562  5.61  0.  0.  0.
   563  5.62  0.  0.  0.
   564  5.63  0.  0.  0.
   565  5.64  0.  0.  0.
   566  5.65  0.  0.  0.
   567  5.66  0.  0.  0.
   568  5.67  0.  0.  0.
   569  5.68  0.  0.  0.
   570  5.69  0.  0.  0.
   571  5.70  0.  0.  0.
   572  5.71  0.  0.  0.
   573  5.72  0.  0.  0.
   574  5.73  0.  0.  0.
   575  5.74  0.  0.  0.
   576  5.75  0.  0.  0.
   577  5.76  0.  0.  0.
   578  5.77  0.  0.  0.
   579  5.78  0.  0.  0.
   580  5.79  0.  0.  0.
   581  5.80  0.  0.  0.
   582  5.81  0.  0.  0.
   583  5.82  0.  0.  0.
   584  5.83  0.  0.  0.
   585  5.84  0.  0.  0.
   586  5.85  0.  0.  0.
   587  5.86  0.  0.  0.
   588  5.87  0.  0.  0.
   589  5.88  0.  0.  0.
   590  5.89  0.  0.  0.
   591  5.90  0.  0.  0.
   592  5.91  0.  0.  0.
   593  5.92  0.  0.  0.
   594  5.93  0.  0.  0.
   595  5.94  0.  0.  0.
   596  5.95  0.  0.  0.
   597  5.96  0.  0.  0.
   598  5.97  0.  0.  0.
   599  5.98  0.  0.  0.
   600  5.99  0.  0.  0.
   1                        -1.3073597476715E+01 -1.6134069633992E+00
     1  0.0000000000000E+00  4.4566255685830E-09 -2.0986916704491E-08
     2  1.0000000000000E-02  3.0889472514112E-03 -4.6358518224289E-03
     3  2.0000000000000E-02  1.2332123066481E-02 -1.8479741957985E-02
     4  3.0000000000000E-02  2.7658749511609E-02 -4.1341513410908E-02
     5  4.0000000000000E-02  4.8951593819344E-02 -7.2907022561116E-02
     6  5.0000000000000E-02  7.6048055385847E-02 -1.1274227455481E-01
     7  6.0000000000000E-02  1.0874167031669E-01 -1.6029913018462E-01
     8  7.0000000000000E-02  1.4678401654853E-01 -2.1492250314568E-01
     9  8.0000000000000E-02  1.8988699811757E-01 -2.7585894556689E-01
    10  9.0000000000000E-02  2.3772548297519E-01 -3.4226650032041E-01
    11  1.0000000000000E-01  2.8994026492099E-01 -4.1322568110216E-01
    12  1.1000000000000E-01  3.4614131678336E-01 -4.8775142591891E-01
    13  1.2000000000000E-01  4.0591129897024E-01 -5.6480585664069E-01
    14  1.3000000000000E-01  4.6880928497544E-01 -6.4331166686982E-01
    15  1.4000000000000E-01  5.3437466338703E-01 -7.2216595268541E-01
    16  1.5000000000000E-01  6.0213117442797E-01 -8.0025429594380E-01
    17  1.6000000000000E-01  6.7159103807704E-01 -8.7646490780533E-01
    18  1.7000000000000E-01  7.4225913037911E-01 -9.4970264102125E-01
    19  1.8000000000000E-01  8.1363716465466E-01 -1.0189026832106E+00
    20  1.9000000000000E-01  8.8522783495067E-01 -1.0830437497985E+00
    21  2.0000000000000E-01  9.5653888022133E-01 -1.1411606043452E+00
    22  2.1000000000000E-01  1.0270870293639E+00 -1.1923557454912E+00
    23  2.2000000000000E-01  1.0964017893313E+00 -1.2358101134820E+00
    24  2.3000000000000E-01  1.1640290410619E+00 -1.2707926849511E+00
    25  2.4000000000000E-01  1.2295344108667E+00 -1.2966688420845E+00
    26  2.5000000000000E-01  1.2925063881475E+00 -1.3129074211448E+00
    27  2.6000000000000E-01  1.3525591638357E+00 -1.3190863652982E+00
    28  2.7000000000000E-01  1.4093351676863E+00 -1.3148969274267E+00
    29  2.8000000000000E-01  1.4625072864824E+00 -1.3001463897896E+00
    30  2.9000000000000E-01  1.5117807492397E+00 -1.2747592886828E+00
    31  3.0000000000000E-01  1.5568946695955E+00 -1.2387771533005E+00
    32  3.1000000000000E-01  1.5976232396680E+00 -1.1923567885159E+00
    33  3.2000000000000E-01  1.6337765737125E+00 -1.1357671509428E+00
    34  3.3000000000000E-01  1.6652012038506E+00 -1.0693848861561E+00
    35  3.4000000000000E-01  1.6917802339297E+00 -9.9368861204888E-01
    36  3.5000000000000E-01  1.7134331611628E+00 -9.0925204878095E-01
    37  3.6000000000000E-01  1.7301153785455E+00 -8.1673610940444E-01
    38  3.7000000000000E-01  1.7418173741172E+00 -7.1688007689011E-01
    39  3.8000000000000E-01  1.7485636458947E+00 -6.1049200278438E-01
    40  3.9000000000000E-01  1.7504113537380E+00 -4.9843847001528E-01
    41  4.0000000000000E-01  1.7474487314800E+00 -3.8163386738585E-01
    42  4.1000000000000E-01  1.7397932843616E+00 -2.6102932602955E-01
    43  4.2000000000000E-01  1.7275897981481E+00 -1.3760146858393E-01
    44  4.3000000000000E-01  1.7110081872580E+00 -1.2341120122783E-02
    45  4.4000000000000E-01  1.6902412098210E+00  1.1375787392731E-01
    46  4.5000000000000E-01  1.6655020778014E+00  2.3970958344895E-01
    47  4.6000000000000E-01  1.6370219901939E+00  3.6454655104368E-01
    48  4.7000000000000E-01  1.6050476168371E+00  4.8732984860498E-01
    49  4.8000000000000E-01  1.5698385596206E+00  6.0715852115389E-01
    50  4.9000000000000E-01  1.5316648168079E+00  7.2317831794516E-01
    51  5.0000000000000E-01  1.4908042748899E+00  8.3458962375303E-01
    52  5.1000000000000E-01  1.4475402508521E+00  9.4065451690673E-01
    53  5.2000000000000E-01  1.4021591060190E+00  1.0407028948271E+00
    54  5.3000000000000E-01  1.3549479507584E+00  1.1341376222785E+00
    55  5.4000000000000E-01  1.3061924573268E+00  1.2204386720645E+00
    56  5.5000000000000E-01  1.2561747960488E+00  1.2991662422383E+00
    57  5.6000000000000E-01  1.2051717078724E+00  1.3699628478562E+00
    58  5.7000000000000E-01  1.1534527241729E+00  1.4325543986905E+00
    59  5.8000000000000E-01  1.1012785425150E+00  1.4867502869472E+00
    60  5.9000000000000E-01  1.0488995649452E+00  1.5324425207661E+00
    61  6.0000000000000E-01  9.9655460332227E-01  1.5696039499730E+00
    62  6.1000000000000E-01  9.4446975419731E-01  1.5982856401032E+00
    63  6.2000000000000E-01  8.9285744387328E-01  1.6186134590464E+00
    64  6.3000000000000E-01  8.4191564250308E-01  1.6307839477031E+00
    65  6.4000000000000E-01  7.9182724445292E-01  1.6350595517764E+00
    66  6.5000000000000E-01  7.4275961066671E-01  1.6317632962340E+00
    67  6.6000000000000E-01  6.9486426742905E-01  1.6212729870723E+00
    68  6.7000000000000E-01  6.4827675474231E-01  1.6040150268475E+00
    69  6.8000000000000E-01  6.0311661650962E-01  1.5804579310495E+00
    70  6.9000000000000E-01  5.5948752384946E-01  1.5511056318610E+00
    71  7.0000000000000E-01  5.1747752215653E-01  1.5164906542522E+00
    72  7.1000000000000E-01  4.7715939196201E-01  1.4771672468093E+00
    73  7.2000000000000E-01  4.3859111322771E-01  1.4337045462884E+00
    74  7.3000000000000E-01  4.0181642242483E-01  1.3866798507445E+00
    75  7.4000000000000E-01  3.6686545158937E-01  1.3366720713183E+00
    76  7.5000000000000E-01  3.3375543850245E-01  1.2842554274992E+00
    77  7.6000000000000E-01  3.0249149720441E-01  1.2299934450316E+00
    78  7.7000000000000E-01  2.7306743820510E-01  1.1744333097156E+00
    79  7.8000000000000E-01  2.4546662798793E-01  1.1181006242682E+00
    80  7.9000000000000E-01  2.1966287771209E-01  1.0614946092781E+00
    81  8.0000000000000E-01  1.9562135138425E-01  1.0050837831715E+00
    82  8.1000000000000E-01  1.7329948418891E-01  9.4930215011999E-01
    83  8.2000000000000E-01  1.5264790212601E-01  8.9454591900446E-01
    84  8.3000000000000E-01  1.3361133459739E-01  8.4117077098665E-01
    85  8.4000000000000E-01  1.1612951210228E-01  7.8948968795845E-01
    86  8.5000000000000E-01  1.0013804174060E-01  7.3977134918721E-01
    87  8.6000000000000E-01  8.5569253775270E-02  6.9223909886791E-01
    88  8.7000000000000E-01  7.2353013066889E-02  6.4707048304658E-01
    89  8.8000000000000E-01  6.0417489762038E-02  6.0439735049429E-01
    90  8.9000000000000E-01  4.9689884187402E-02  5.6430650858065E-01
    91  9.0000000000000E-01  4.0097101473615E-02  5.2684092200610E-01
    92  9.1000000000000E-01  3.1566372003397E-02  4.9200143938091E-01
    93  9.2000000000000E-01  2.4025814347357E-02  4.5974903006048E-01
    94  9.3000000000000E-01  1.7404937916507E-02  4.3000751133112E-01
    95  9.4000000000000E-01  1.1635083122725E-02  4.0266674395647E-01
    96  9.5000000000000E-01  6.6497973964726E-03  3.7758627220827E-01
    97  9.6000000000000E-01  2.3851459643475E-03  3.5459938278693E-01
    98  9.7000000000000E-01 -1.2200431631246E-03  3.3351755545508E-01
    99  9.8000000000000E-01 -4.2240000015950E-03  3.1413527673562E-01
   100  9.9000000000000E-01 -6.6818986752686E-03  2.9623518664205E-01