Ds    ONCVPSP-4.0.1  r_core=   1.15180   1.15180   1.15180   1.20106
110.0000     50.0000      220328    zatom,zion,pspd
8      11   3     4   600     0    pspcod,pspxc,lmax,lloc,mmax,r2well
5.99000000  3.80000000  0.00000000    rchrg fchrg qchrg
3     2     2     2     0    nproj
1     1           extension_switch
0                         1.2090066825832E+01 -1.1724590929105E+01  1.4057214500856E+00
1  0.0000000000000E+00  2.7886290610013E-08 -1.4875876086506E-09  6.4673482291777E-08
2  1.0000000000000E-02  1.6410426709885E-01  8.2572737225225E-02  3.1001207344871E-02
3  2.0000000000000E-02  3.2675266580931E-01  1.6490774602844E-01  6.1382564795269E-02
4  3.0000000000000E-02  4.8650058188707E-01  2.4676857299632E-01  9.0527631933916E-02
5  4.0000000000000E-02  6.4192594691913E-01  3.2792129954061E-01  1.1782704945335E-01
6  5.0000000000000E-02  7.9164059701302E-01  4.0813577174206E-01  1.4268271661077E-01
7  6.0000000000000E-02  9.3430171223741E-01  4.8718678624974E-01  1.6451268214999E-01
8  7.0000000000000E-02  1.0686233281221E+00  5.6485521943424E-01  1.8275690464557E-01
9  8.0000000000000E-02  1.1933878826395E+00  6.4092908848133E-01  1.9688397355074E-01
10  9.0000000000000E-02  1.3074577303733E+00  7.1520453485745E-01  2.0639880795116E-01
11  1.0000000000000E-01  1.4097865218984E+00  7.8748672251246E-01  2.1085127004430E-01
12  1.1000000000000E-01  1.4994303127692E+00  8.5759064523283E-01  2.0984554892710E-01
13  1.2000000000000E-01  1.5755582350178E+00  9.2534183964136E-01  2.0305009176101E-01
14  1.3000000000000E-01  1.6374625367343E+00  9.9057700237943E-01  1.9020778810013E-01
15  1.4000000000000E-01  1.6845677740092E+00  1.0531445119302E+00  1.7114605312990E-01
16  1.5000000000000E-01  1.7164389259042E+00  1.1129048572789E+00  1.4578641030566E-01
17  1.6000000000000E-01  1.7327881984876E+00  1.1697309771002E+00  1.1415314627158E-01
18  1.7000000000000E-01  1.7334802892109E+00  1.2235085143698E+00  7.6380603052795E-02
19  1.8000000000000E-01  1.7185358984834E+00  1.2741359921845E+00  3.2718685495800E-02
20  1.9000000000000E-01  1.6881333011659E+00  1.3215249171252E+00 -1.6463804041125E-02
21  2.0000000000000E-01  1.6426078263407E+00  1.3655998167150E+00 -7.0678337504388E-02
22  2.1000000000000E-01  1.5824491381045E+00  1.4062982174203E+00 -1.2931860057491E-01
23  2.2000000000000E-01  1.5082962618374E+00  1.4435705692521E+00 -1.9166537247110E-01
24  2.3000000000000E-01  1.4209303575856E+00  1.4773801223818E+00 -2.5689441834140E-01
25  2.4000000000000E-01  1.3212653027353E+00  1.5077027603616E+00 -3.2408735786920E-01
26  2.5000000000000E-01  1.2103362076833E+00  1.5345267935738E+00 -3.9224536167165E-01
27  2.6000000000000E-01  1.0892860482833E+00  1.5578527155155E+00 -4.6030541643900E-01
28  2.7000000000000E-01  9.5935065497988E-01  1.5776929235082E+00 -5.2715879543366E-01
29  2.8000000000000E-01  8.2184234839109E-01  1.5940714044791E+00 -5.9167127764983E-01
30  2.9000000000000E-01  6.7813255251158E-01  1.6070233856574E+00 -6.5270458094366E-01
31  3.0000000000000E-01  5.2963374784178E-01  1.6165949494129E+00 -7.0913841548841E-01
32  3.1000000000000E-01  3.7778114617974E-01  1.6228426110811E+00 -7.5989252692729E-01
33  3.2000000000000E-01  2.2401447555474E-01  1.6258328585021E+00 -8.0394808562218E-01
34  3.3000000000000E-01  6.9760257390751E-02  1.6256416521642E+00 -8.4036779042711E-01
35  3.4000000000000E-01 -8.3585061459639E-02  1.6223538852846E+00 -8.6831409240431E-01
36  3.5000000000000E-01 -2.3467079103762E-01  1.6160628038693E+00 -8.8706500469033E-01
37  3.6000000000000E-01 -3.8220620731603E-01  1.6068693877404E+00 -8.9602704712136E-01
38  3.7000000000000E-01 -5.2497305307230E-01  1.5948816946568E+00 -8.9474497508882E-01
39  3.8000000000000E-01 -6.6183615604478E-01  1.5802141709304E+00 -8.8290805741617E-01
40  3.9000000000000E-01 -7.9175205533111E-01  1.5629869332875E+00 -8.6035279316434E-01
41  4.0000000000000E-01 -9.1377559505272E-01  1.5433250280782E+00 -8.2706208703949E-01
42  4.1000000000000E-01 -1.0270645121769E+00  1.5213576752124E+00 -7.8316103207756E-01
43  4.2000000000000E-01 -1.1308821102978E+00  1.4972175053376E+00 -7.2890957108111E-01
44  4.3000000000000E-01 -1.2245981704779E+00  1.4710397996899E+00 -6.6469241964903E-01
45  4.4000000000000E-01 -1.3076883015044E+00  1.4429617426932E+00 -5.9100672875079E-01
46  4.5000000000000E-01 -1.3797319730286E+00  1.4131216976929E+00 -5.0844803950908E-01
47  4.6000000000000E-01 -1.4404095043303E+00  1.3816585161565E+00 -4.1769513381539E-01
48  4.7000000000000E-01 -1.4894982977196E+00  1.3487108902279E+00 -3.1949440927635E-01
49  4.8000000000000E-01 -1.5268686081980E+00  1.3144167576813E+00 -2.1464440451205E-01
50  4.9000000000000E-01 -1.5524791299265E+00  1.2789127670907E+00 -1.0398107091675E-01
51  5.0000000000000E-01 -1.5663726558107E+00  1.2423338094503E+00  1.1635669261301E-02
52  5.1000000000000E-01 -1.5686720302642E+00  1.2048126205858E+00  1.3133361900519E-01
53  5.2000000000000E-01 -1.5595765685918E+00  1.1664794565549E+00  2.5423789837424E-01
54  5.3000000000000E-01 -1.5393590615905E+00  1.1274618419238E+00  3.7947819130407E-01
55  5.4000000000000E-01 -1.5083634234199E+00  1.0878843884051E+00  5.0619353559417E-01
56  5.5000000000000E-01 -1.4670029773533E+00  1.0478686789499E+00  6.3353467915515E-01
57  5.6000000000000E-01 -1.4157593106701E+00  1.0075332100990E+00  7.6066416024455E-01
58  5.7000000000000E-01 -1.3551815697072E+00  9.6699338331195E-01  8.8675439781183E-01
59  5.8000000000000E-01 -1.2858860119037E+00  9.2636153419574E-01  1.0109841942701E+00
60  5.9000000000000E-01 -1.2085555862741E+00  8.8574698714051E-01  1.1325341515015E+00
61  6.0000000000000E-01 -1.1239392795290E+00  8.4525612189991E-01  1.2505815768201E+00
62  6.1000000000000E-01 -1.0328509439976E+00  8.0499243818962E-01  1.3642955049706E+00
63  6.2000000000000E-01 -9.3616731700160E-01  7.6505660445605E-01  1.4728324821060E+00
64  6.3000000000000E-01 -8.3482495022536E-01  7.2554647760503E-01  1.5753337463401E+00
65  6.4000000000000E-01 -7.2981579206275E-01  6.8655708167238E-01  1.6709243964908E+00
66  6.5000000000000E-01 -6.2218120540867E-01  6.4818053513893E-01  1.7587150669634E+00
67  6.6000000000000E-01 -5.1300425669604E-01  6.1050591879130E-01  1.8378065246420E+00
68  6.7000000000000E-01 -4.0340017735078E-01  5.7361907863817E-01  1.9072974767377E+00
69  6.8000000000000E-01 -2.9450497384071E-01  5.3760236132155E-01  1.9662957314938E+00
70  6.9000000000000E-01 -1.8746224424007E-01  5.0253428260944E-01  2.0139326922058E+00
71  7.0000000000000E-01 -8.3408344456861E-02  4.6848913280649E-01  2.0493809956418E+00
72  7.1000000000000E-01  1.6543867560485E-02  4.3553652614810E-01  2.0718749356851E+00
73  7.2000000000000E-01  1.1132239982280E-01  4.0374090432758E-01  2.0807331490802E+00
74  7.3000000000000E-01  1.9991422247604E-01  3.7316100711994E-01  2.0753828897570E+00
75  7.4000000000000E-01  2.8138364457520E-01  3.4384932549509E-01  2.0553850881317E+00
76  7.5000000000000E-01  3.5489047406048E-01  3.1585155455322E-01  2.0204592881865E+00
77  7.6000000000000E-01  4.1970743002875E-01  2.8920606497822E-01  1.9705074832246E+00
78  7.7000000000000E-01  4.7523626115252E-01  2.6394341242464E-01  1.9056358349717E+00
79  7.8000000000000E-01  5.2102202839698E-01  2.4008590428730E-01  1.8261732627756E+00
80  7.9000000000000E-01  5.5676503450049E-01  2.1764724263307E-01  1.7326859310852E+00
81  8.0000000000000E-01  5.8232992667032E-01  1.9663226071303E-01  1.6259867435942E+00
82  8.1000000000000E-01  5.9775156142633E-01  1.7703676845893E-01  1.5071390691642E+00
83  8.2000000000000E-01  6.0323729949721E-01  1.5884751976712E-01  1.3774540740239E+00
84  8.3000000000000E-01  5.9916549139746E-01  1.4204231127666E-01  1.2384812114041E+00
85  8.4000000000000E-01  5.8608001737053E-01  1.2659021887052E-01  1.0919916170148E+00
86  8.5000000000000E-01  5.6468085482614E-01  1.1245197439987E-01  9.3995436882702E-01
87  8.6000000000000E-01  5.3581075789083E-01  9.9580481297623E-02  7.8450578391497E-01
88  8.7000000000000E-01  5.0043824267258E-01  8.7921463959627E-02  6.2791213467178E-01
89  8.8000000000000E-01  4.5963717372135E-01  7.7414242184769E-02  4.7252636242535E-01
90  8.9000000000000E-01  4.1456333752233E-01  6.7992618727301E-02  3.2073953961874E-01
91  9.0000000000000E-01  3.6642846360419E-01  5.9585865264341E-02  1.7492797418917E-01
92  9.1000000000000E-01  3.1647220943788E-01  5.2119789939361E-02  3.7396954579365E-02
93  9.2000000000000E-01  2.6593265890020E-01  4.5517868207276E-02 -8.9677804680456E-02
94  9.3000000000000E-01  2.1601589366498E-01  3.9702418050267E-02 -2.0430994264012E-01
95  9.4000000000000E-01  1.6786518141078E-01  3.4595800796428E-02 -3.0476241775342E-01
96  9.5000000000000E-01  1.2253028415675E-01  3.0121629763834E-02 -3.8960670522150E-01
97  9.6000000000000E-01  8.0937325345684E-02  2.6205970745070E-02 -4.5778040304545E-01
98  9.7000000000000E-01  4.3859567581682E-02  2.2778520880307E-02 -5.0864259896054E-01
99  9.8000000000000E-01  1.1889347121178E-02  1.9773755651612E-02 -5.4202656271337E-01
100  9.9000000000000E-01 -1.4588711501829E-02  1.7132037486489E-02 -5.5828957554759E-01
101  1.0000000000000E+00 -3.5423143797736E-02  1.4800682029311E-02 -5.5835976076061E-01
102  1.0100000000000E+00 -5.0719242243623E-02  1.2734968461400E-02 -5.4377814344196E-01
103  1.0200000000000E+00 -6.0817070296950E-02  1.0898064680356E-02 -5.1659769836893E-01
104  1.0300000000000E+00 -6.6197034277307E-02  9.2592246846216E-03 -4.7907152824837E-01
105  1.0400000000000E+00 -6.7437707981757E-02  7.7931502925733E-03 -4.3353327512399E-01
106  1.0500000000000E+00 -6.5193031650579E-02  6.4797223389616E-03 -3.8234660987110E-01
107  1.0600000000000E+00 -6.0168043311767E-02  5.3036170590091E-03 -3.2785311964890E-01
108  1.0700000000000E+00 -5.3093875331446E-02  4.2538341791241E-03 -2.7231988388613E-01
109  1.0800000000000E+00 -4.4702781110983E-02  3.3231586586477E-03 -2.1788818160872E-01
110  1.0900000000000E+00 -3.5704335557343E-02  2.5076425950427E-03 -1.6652526060964E-01
111  1.1000000000000E+00 -2.6740899452514E-02  1.8027146423378E-03 -1.1995187218277E-01
112  1.1100000000000E+00 -1.8335413893053E-02  1.1991850006451E-03 -7.9559010482605E-02
113  1.1200000000000E+00 -1.1046912106563E-02  7.0738841911937E-04 -4.6597286659981E-02
114  1.1300000000000E+00 -5.3476906706431E-03  3.3808301827382E-04 -2.2020031641608E-02
115  1.1400000000000E+00 -1.5928544933066E-03  1.0019822022787E-04 -6.4257731559565E-03
116  1.1500000000000E+00 -6.2031022449984E-05  3.9180156947074E-06 -2.4547912716962E-04
117  1.1600000000000E+00 -5.3456894548352E-06  3.3578026402078E-07 -2.1192174177528E-05
118  1.1700000000000E+00  1.2942997532410E-06 -8.1288240643693E-08  5.1739707063316E-06
119  1.18  0.  0.  0.
120  1.19  0.  0.  0.
121  1.20  0.  0.  0.
122  1.21  0.  0.  0.
123  1.22  0.  0.  0.
124  1.23  0.  0.  0.
125  1.24  0.  0.  0.
126  1.25  0.  0.  0.
127  1.26  0.  0.  0.
128  1.27  0.  0.  0.
129  1.28  0.  0.  0.
130  1.29  0.  0.  0.
131  1.30  0.  0.  0.
132  1.31  0.  0.  0.
133  1.32  0.  0.  0.
134  1.33  0.  0.  0.
135  1.34  0.  0.  0.
136  1.35  0.  0.  0.
137  1.36  0.  0.  0.
138  1.37  0.  0.  0.
139  1.38  0.  0.  0.
140  1.39  0.  0.  0.
141  1.40  0.  0.  0.
142  1.41  0.  0.  0.
143  1.42  0.  0.  0.
144  1.43  0.  0.  0.
145  1.44  0.  0.  0.
146  1.45  0.  0.  0.
147  1.46  0.  0.  0.
148  1.47  0.  0.  0.
149  1.48  0.  0.  0.
150  1.49  0.  0.  0.
151  1.50  0.  0.  0.
152  1.51  0.  0.  0.
153  1.52  0.  0.  0.
154  1.53  0.  0.  0.
155  1.54  0.  0.  0.
156  1.55  0.  0.  0.
157  1.56  0.  0.  0.
158  1.57  0.  0.  0.
159  1.58  0.  0.  0.
160  1.59  0.  0.  0.
161  1.60  0.  0.  0.
162  1.61  0.  0.  0.
163  1.62  0.  0.  0.
164  1.63  0.  0.  0.
165  1.64  0.  0.  0.
166  1.65  0.  0.  0.
167  1.66  0.  0.  0.
168  1.67  0.  0.  0.
169  1.68  0.  0.  0.
170  1.69  0.  0.  0.
171  1.70  0.  0.  0.
172  1.71  0.  0.  0.
173  1.72  0.  0.  0.
174  1.73  0.  0.  0.
175  1.74  0.  0.  0.
176  1.75  0.  0.  0.
177  1.76  0.  0.  0.
178  1.77  0.  0.  0.
179  1.78  0.  0.  0.
180  1.79  0.  0.  0.
181  1.80  0.  0.  0.
182  1.81  0.  0.  0.
183  1.82  0.  0.  0.
184  1.83  0.  0.  0.
185  1.84  0.  0.  0.
186  1.85  0.  0.  0.
187  1.86  0.  0.  0.
188  1.87  0.  0.  0.
189  1.88  0.  0.  0.
190  1.89  0.  0.  0.
191  1.90  0.  0.  0.
192  1.91  0.  0.  0.
193  1.92  0.  0.  0.
194  1.93  0.  0.  0.
195  1.94  0.  0.  0.
196  1.95  0.  0.  0.
197  1.96  0.  0.  0.
198  1.97  0.  0.  0.
199  1.98  0.  0.  0.
200  1.99  0.  0.  0.
201  2.00  0.  0.  0.
202  2.01  0.  0.  0.
203  2.02  0.  0.  0.
204  2.03  0.  0.  0.
205  2.04  0.  0.  0.
206  2.05  0.  0.  0.
207  2.06  0.  0.  0.
208  2.07  0.  0.  0.
209  2.08  0.  0.  0.
210  2.09  0.  0.  0.
211  2.10  0.  0.  0.
212  2.11  0.  0.  0.
213  2.12  0.  0.  0.
214  2.13  0.  0.  0.
215  2.14  0.  0.  0.
216  2.15  0.  0.  0.
217  2.16  0.  0.  0.
218  2.17  0.  0.  0.
219  2.18  0.  0.  0.
220  2.19  0.  0.  0.
221  2.20  0.  0.  0.
222  2.21  0.  0.  0.
223  2.22  0.  0.  0.
224  2.23  0.  0.  0.
225  2.24  0.  0.  0.
226  2.25  0.  0.  0.
227  2.26  0.  0.  0.
228  2.27  0.  0.  0.
229  2.28  0.  0.  0.
230  2.29  0.  0.  0.
231  2.30  0.  0.  0.
232  2.31  0.  0.  0.
233  2.32  0.  0.  0.
234  2.33  0.  0.  0.
235  2.34  0.  0.  0.
236  2.35  0.  0.  0.
237  2.36  0.  0.  0.
238  2.37  0.  0.  0.
239  2.38  0.  0.  0.
240  2.39  0.  0.  0.
241  2.40  0.  0.  0.
242  2.41  0.  0.  0.
243  2.42  0.  0.  0.
244  2.43  0.  0.  0.
245  2.44  0.  0.  0.
246  2.45  0.  0.  0.
247  2.46  0.  0.  0.
248  2.47  0.  0.  0.
249  2.48  0.  0.  0.
250  2.49  0.  0.  0.
251  2.50  0.  0.  0.
252  2.51  0.  0.  0.
253  2.52  0.  0.  0.
254  2.53  0.  0.  0.
255  2.54  0.  0.  0.
256  2.55  0.  0.  0.
257  2.56  0.  0.  0.
258  2.57  0.  0.  0.
259  2.58  0.  0.  0.
260  2.59  0.  0.  0.
261  2.60  0.  0.  0.
262  2.61  0.  0.  0.
263  2.62  0.  0.  0.
264  2.63  0.  0.  0.
265  2.64  0.  0.  0.
266  2.65  0.  0.  0.
267  2.66  0.  0.  0.
268  2.67  0.  0.  0.
269  2.68  0.  0.  0.
270  2.69  0.  0.  0.
271  2.70  0.  0.  0.
272  2.71  0.  0.  0.
273  2.72  0.  0.  0.
274  2.73  0.  0.  0.
275  2.74  0.  0.  0.
276  2.75  0.  0.  0.
277  2.76  0.  0.  0.
278  2.77  0.  0.  0.
279  2.78  0.  0.  0.
280  2.79  0.  0.  0.
281  2.80  0.  0.  0.
282  2.81  0.  0.  0.
283  2.82  0.  0.  0.
284  2.83  0.  0.  0.
285  2.84  0.  0.  0.
286  2.85  0.  0.  0.
287  2.86  0.  0.  0.
288  2.87  0.  0.  0.
289  2.88  0.  0.  0.
290  2.89  0.  0.  0.
291  2.90  0.  0.  0.
292  2.91  0.  0.  0.
293  2.92  0.  0.  0.
294  2.93  0.  0.  0.
295  2.94  0.  0.  0.
296  2.95  0.  0.  0.
297  2.96  0.  0.  0.
298  2.97  0.  0.  0.
299  2.98  0.  0.  0.
300  2.99  0.  0.  0.
301  3.00  0.  0.  0.
302  3.01  0.  0.  0.
303  3.02  0.  0.  0.
304  3.03  0.  0.  0.
305  3.04  0.  0.  0.
306  3.05  0.  0.  0.
307  3.06  0.  0.  0.
308  3.07  0.  0.  0.
309  3.08  0.  0.  0.
310  3.09  0.  0.  0.
311  3.10  0.  0.  0.
312  3.11  0.  0.  0.
313  3.12  0.  0.  0.
314  3.13  0.  0.  0.
315  3.14  0.  0.  0.
316  3.15  0.  0.  0.
317  3.16  0.  0.  0.
318  3.17  0.  0.  0.
319  3.18  0.  0.  0.
320  3.19  0.  0.  0.
321  3.20  0.  0.  0.
322  3.21  0.  0.  0.
323  3.22  0.  0.  0.
324  3.23  0.  0.  0.
325  3.24  0.  0.  0.
326  3.25  0.  0.  0.
327  3.26  0.  0.  0.
328  3.27  0.  0.  0.
329  3.28  0.  0.  0.
330  3.29  0.  0.  0.
331  3.30  0.  0.  0.
332  3.31  0.  0.  0.
333  3.32  0.  0.  0.
334  3.33  0.  0.  0.
335  3.34  0.  0.  0.
336  3.35  0.  0.  0.
337  3.36  0.  0.  0.
338  3.37  0.  0.  0.
339  3.38  0.  0.  0.
340  3.39  0.  0.  0.
341  3.40  0.  0.  0.
342  3.41  0.  0.  0.
343  3.42  0.  0.  0.
344  3.43  0.  0.  0.
345  3.44  0.  0.  0.
346  3.45  0.  0.  0.
347  3.46  0.  0.  0.
348  3.47  0.  0.  0.
349  3.48  0.  0.  0.
350  3.49  0.  0.  0.
351  3.50  0.  0.  0.
352  3.51  0.  0.  0.
353  3.52  0.  0.  0.
354  3.53  0.  0.  0.
355  3.54  0.  0.  0.
356  3.55  0.  0.  0.
357  3.56  0.  0.  0.
358  3.57  0.  0.  0.
359  3.58  0.  0.  0.
360  3.59  0.  0.  0.
361  3.60  0.  0.  0.
362  3.61  0.  0.  0.
363  3.62  0.  0.  0.
364  3.63  0.  0.  0.
365  3.64  0.  0.  0.
366  3.65  0.  0.  0.
367  3.66  0.  0.  0.
368  3.67  0.  0.  0.
369  3.68  0.  0.  0.
370  3.69  0.  0.  0.
371  3.70  0.  0.  0.
372  3.71  0.  0.  0.
373  3.72  0.  0.  0.
374  3.73  0.  0.  0.
375  3.74  0.  0.  0.
376  3.75  0.  0.  0.
377  3.76  0.  0.  0.
378  3.77  0.  0.  0.
379  3.78  0.  0.  0.
380  3.79  0.  0.  0.
381  3.80  0.  0.  0.
382  3.81  0.  0.  0.
383  3.82  0.  0.  0.
384  3.83  0.  0.  0.
385  3.84  0.  0.  0.
386  3.85  0.  0.  0.
387  3.86  0.  0.  0.
388  3.87  0.  0.  0.
389  3.88  0.  0.  0.
390  3.89  0.  0.  0.
391  3.90  0.  0.  0.
392  3.91  0.  0.  0.
393  3.92  0.  0.  0.
394  3.93  0.  0.  0.
395  3.94  0.  0.  0.
396  3.95  0.  0.  0.
397  3.96  0.  0.  0.
398  3.97  0.  0.  0.
399  3.98  0.  0.  0.
400  3.99  0.  0.  0.
401  4.00  0.  0.  0.
402  4.01  0.  0.  0.
403  4.02  0.  0.  0.
404  4.03  0.  0.  0.
405  4.04  0.  0.  0.
406  4.05  0.  0.  0.
407  4.06  0.  0.  0.
408  4.07  0.  0.  0.
409  4.08  0.  0.  0.
410  4.09  0.  0.  0.
411  4.10  0.  0.  0.
412  4.11  0.  0.  0.
413  4.12  0.  0.  0.
414  4.13  0.  0.  0.
415  4.14  0.  0.  0.
416  4.15  0.  0.  0.
417  4.16  0.  0.  0.
418  4.17  0.  0.  0.
419  4.18  0.  0.  0.
420  4.19  0.  0.  0.
421  4.20  0.  0.  0.
422  4.21  0.  0.  0.
423  4.22  0.  0.  0.
424  4.23  0.  0.  0.
425  4.24  0.  0.  0.
426  4.25  0.  0.  0.
427  4.26  0.  0.  0.
428  4.27  0.  0.  0.
429  4.28  0.  0.  0.
430  4.29  0.  0.  0.
431  4.30  0.  0.  0.
432  4.31  0.  0.  0.
433  4.32  0.  0.  0.
434  4.33  0.  0.  0.
435  4.34  0.  0.  0.
436  4.35  0.  0.  0.
437  4.36  0.  0.  0.
438  4.37  0.  0.  0.
439  4.38  0.  0.  0.
440  4.39  0.  0.  0.
441  4.40  0.  0.  0.
442  4.41  0.  0.  0.
443  4.42  0.  0.  0.
444  4.43  0.  0.  0.
445  4.44  0.  0.  0.
446  4.45  0.  0.  0.
447  4.46  0.  0.  0.
448  4.47  0.  0.  0.
449  4.48  0.  0.  0.
450  4.49  0.  0.  0.
451  4.50  0.  0.  0.
452  4.51  0.  0.  0.
453  4.52  0.  0.  0.
454  4.53  0.  0.  0.
455  4.54  0.  0.  0.
456  4.55  0.  0.  0.
457  4.56  0.  0.  0.
458  4.57  0.  0.  0.
459  4.58  0.  0.  0.
460  4.59  0.  0.  0.
461  4.60  0.  0.  0.
462  4.61  0.  0.  0.
463  4.62  0.  0.  0.
464  4.63  0.  0.  0.
465  4.64  0.  0.  0.
466  4.65  0.  0.  0.
467  4.66  0.  0.  0.
468  4.67  0.  0.  0.
469  4.68  0.  0.  0.
470  4.69  0.  0.  0.
471  4.70  0.  0.  0.
472  4.71  0.  0.  0.
473  4.72  0.  0.  0.
474  4.73  0.  0.  0.
475  4.74  0.  0.  0.
476  4.75  0.  0.  0.
477  4.76  0.  0.  0.
478  4.77  0.  0.  0.
479  4.78  0.  0.  0.
480  4.79  0.  0.  0.
481  4.80  0.  0.  0.
482  4.81  0.  0.  0.
483  4.82  0.  0.  0.
484  4.83  0.  0.  0.
485  4.84  0.  0.  0.
486  4.85  0.  0.  0.
487  4.86  0.  0.  0.
488  4.87  0.  0.  0.
489  4.88  0.  0.  0.
490  4.89  0.  0.  0.
491  4.90  0.  0.  0.
492  4.91  0.  0.  0.
493  4.92  0.  0.  0.
494  4.93  0.  0.  0.
495  4.94  0.  0.  0.
496  4.95  0.  0.  0.
497  4.96  0.  0.  0.
498  4.97  0.  0.  0.
499  4.98  0.  0.  0.
500  4.99  0.  0.  0.
501  5.00  0.  0.  0.
502  5.01  0.  0.  0.
503  5.02  0.  0.  0.
504  5.03  0.  0.  0.
505  5.04  0.  0.  0.
506  5.05  0.  0.  0.
507  5.06  0.  0.  0.
508  5.07  0.  0.  0.
509  5.08  0.  0.  0.
510  5.09  0.  0.  0.
511  5.10  0.  0.  0.
512  5.11  0.  0.  0.
513  5.12  0.  0.  0.
514  5.13  0.  0.  0.
515  5.14  0.  0.  0.
516  5.15  0.  0.  0.
517  5.16  0.  0.  0.
518  5.17  0.  0.  0.
519  5.18  0.  0.  0.
520  5.19  0.  0.  0.
521  5.20  0.  0.  0.
522  5.21  0.  0.  0.
523  5.22  0.  0.  0.
524  5.23  0.  0.  0.
525  5.24  0.  0.  0.
526  5.25  0.  0.  0.
527  5.26  0.  0.  0.
528  5.27  0.  0.  0.
529  5.28  0.  0.  0.
530  5.29  0.  0.  0.
531  5.30  0.  0.  0.
532  5.31  0.  0.  0.
533  5.32  0.  0.  0.
534  5.33  0.  0.  0.
535  5.34  0.  0.  0.
536  5.35  0.  0.  0.
537  5.36  0.  0.  0.
538  5.37  0.  0.  0.
539  5.38  0.  0.  0.
540  5.39  0.  0.  0.
541  5.40  0.  0.  0.
542  5.41  0.  0.  0.
543  5.42  0.  0.  0.
544  5.43  0.  0.  0.
545  5.44  0.  0.  0.
546  5.45  0.  0.  0.
547  5.46  0.  0.  0.
548  5.47  0.  0.  0.
549  5.48  0.  0.  0.
550  5.49  0.  0.  0.
551  5.50  0.  0.  0.
552  5.51  0.  0.  0.
553  5.52  0.  0.  0.
554  5.53  0.  0.  0.
555  5.54  0.  0.  0.
556  5.55  0.  0.  0.
557  5.56  0.  0.  0.
558  5.57  0.  0.  0.
559  5.58  0.  0.  0.
560  5.59  0.  0.  0.
561  5.60  0.  0.  0.
562  5.61  0.  0.  0.
563  5.62  0.  0.  0.
564  5.63  0.  0.  0.
565  5.64  0.  0.  0.
566  5.65  0.  0.  0.
567  5.66  0.  0.  0.
568  5.67  0.  0.  0.
569  5.68  0.  0.  0.
570  5.69  0.  0.  0.
571  5.70  0.  0.  0.
572  5.71  0.  0.  0.
573  5.72  0.  0.  0.
574  5.73  0.  0.  0.
575  5.74  0.  0.  0.
576  5.75  0.  0.  0.
577  5.76  0.  0.  0.
578  5.77  0.  0.  0.
579  5.78  0.  0.  0.
580  5.79  0.  0.  0.
581  5.80  0.  0.  0.
582  5.81  0.  0.  0.
583  5.82  0.  0.  0.
584  5.83  0.  0.  0.
585  5.84  0.  0.  0.
586  5.85  0.  0.  0.
587  5.86  0.  0.  0.
588  5.87  0.  0.  0.
589  5.88  0.  0.  0.
590  5.89  0.  0.  0.
591  5.90  0.  0.  0.
592  5.91  0.  0.  0.
593  5.92  0.  0.  0.
594  5.93  0.  0.  0.
595  5.94  0.  0.  0.
596  5.95  0.  0.  0.
597  5.96  0.  0.  0.
598  5.97  0.  0.  0.
599  5.98  0.  0.  0.
600  5.99  0.  0.  0.
1                        -9.2699566739338E+00  1.4005908151555E+00
1  0.0000000000000E+00  8.0290146753370E-09  7.2690618510562E-08
2  1.0000000000000E-02  3.1922144773165E-03  5.6087954779229E-04
3  2.0000000000000E-02  1.2741624733287E-02  2.1914556447809E-03
4  3.0000000000000E-02  2.8566841721251E-02  4.7371989177980E-03
5  4.0000000000000E-02  5.0533247221266E-02  7.9460406984377E-03
6  5.0000000000000E-02  7.8454522608667E-02  1.1476429442556E-02
7  6.0000000000000E-02  1.1209475643118E-01  1.4908286771519E-02
8  7.0000000000000E-02  1.5117109887475E-01  1.7756551862016E-02
9  8.0000000000000E-02  1.9535692316910E-01  1.9486930220626E-02
10  9.0000000000000E-02  2.4428544673625E-01  1.9533401633628E-02
11  1.0000000000000E-01  2.9755375855099E-01  1.7316994040585E-02
12  1.1000000000000E-01  3.5472719387403E-01  1.2265296566229E-02
13  1.2000000000000E-01  4.1534399332170E-01  3.8321668240161E-03
14  1.3000000000000E-01  4.7892018021119E-01 -8.4829147582221E-03
15  1.4000000000000E-01  5.4495458830048E-01 -2.5116377573561E-02
16  1.5000000000000E-01  6.1293397143184E-01 -4.6423486134917E-02
17  1.6000000000000E-01  6.8233812716621E-01 -7.2663121526103E-02
18  1.7000000000000E-01  7.5264496821549E-01 -1.0398482783905E-01
19  1.8000000000000E-01  8.2333547826905E-01 -1.4041846719417E-01
20  1.9000000000000E-01  8.9389849257889E-01 -1.8186675327249E-01
21  2.0000000000000E-01  9.6383524830313E-01 -2.2810085355595E-01
22  2.1000000000000E-01  1.0326636549864E+00 -2.7875916717920E-01
23  2.2000000000000E-01  1.0999222415416E+00 -3.3334930099386E-01
24  2.3000000000000E-01  1.1651737425472E+00 -3.9125318364866E-01
25  2.4000000000000E-01  1.2280082934448E+00 -4.5173517859273E-01
26  2.5000000000000E-01  1.2880462111601E+00 -5.1395298411266E-01
27  2.6000000000000E-01  1.3449403436483E+00 -5.7697104375590E-01
28  2.7000000000000E-01  1.3983779787341E+00 -6.3977613538774E-01
29  2.8000000000000E-01  1.4480823092649E+00 -7.0129476292981E-01
30  2.9000000000000E-01  1.4938134579083E+00 -7.6041194239230E-01
31  3.0000000000000E-01  1.5353690708089E+00 -8.1599095358507E-01
32  3.1000000000000E-01  1.5725844946905E+00 -8.6689362091240E-01
33  3.2000000000000E-01  1.6053325567953E+00 -9.1200069055874E-01
34  3.3000000000000E-01  1.6335229712382E+00 -9.5023188642773E-01
35  3.4000000000000E-01  1.6571013988987E+00 -9.8056525234008E-01
36  3.5000000000000E-01  1.6760481908663E+00 -1.0020554218879E+00
37  3.6000000000000E-01  1.6903768476970E+00 -1.0138504984152E+00
38  3.7000000000000E-01  1.7001322283518E+00 -1.0152072741283E+00
39  3.8000000000000E-01  1.7053885436972E+00 -1.0055045675269E+00
40  3.9000000000000E-01  1.7062471699011E+00 -9.8425451034698E-01
41  4.0000000000000E-01  1.7028343169900E+00 -9.5111166725667E-01
42  4.1000000000000E-01  1.6952985873124E+00 -9.0587992195144E-01
43  4.2000000000000E-01  1.6838084577202E+00 -8.4851711057513E-01
44  4.3000000000000E-01  1.6685497180040E+00 -7.7913742625004E-01
45  4.4000000000000E-01  1.6497228965479E+00 -6.9801165591111E-01
46  4.5000000000000E-01  1.6275407023594E+00 -6.0556534186504E-01
47  4.6000000000000E-01  1.6022255106371E+00 -5.0237498509413E-01
48  4.7000000000000E-01  1.5740069168945E+00 -3.8916242516495E-01
49  4.8000000000000E-01  1.5431193824178E+00 -2.6678754285199E-01
50  4.9000000000000E-01  1.5097999915195E+00 -1.3623943668992E-01
51  5.0000000000000E-01  1.4742863386896E+00  1.3737756745610E-03
52  5.1000000000000E-01  1.4368145613673E+00  1.4483638534201E-01
53  5.2000000000000E-01  1.3976175316652E+00  2.9283761158898E-01
54  5.3000000000000E-01  1.3569232179970E+00  4.4398508584947E-01
55  5.4000000000000E-01  1.3149532251844E+00  5.9681918489708E-01
56  5.5000000000000E-01  1.2719215192671E+00  7.4982810933463E-01
57  5.6000000000000E-01  1.2280333409026E+00  9.0146361357486E-01
58  5.7000000000000E-01  1.1834843089320E+00  1.0501573011200E+00
59  5.8000000000000E-01  1.1384597134046E+00  1.1943374032171E+00
60  5.9000000000000E-01  1.0931339951062E+00  1.3324459591830E+00
61  6.0000000000000E-01  1.0476704064257E+00  1.4629563124026E+00
62  6.1000000000000E-01  1.0022208462493E+00  1.5843908270140E+00
63  6.2000000000000E-01  9.5692585948711E-01  1.6953387167007E+00
64  6.3000000000000E-01  9.1191478985421E-01  1.7944738591832E+00
65  6.4000000000000E-01  8.6730607265728E-01  1.8805724485930E+00
66  6.5000000000000E-01  8.2320765261398E-01  1.9525303138184E+00
67  6.6000000000000E-01  7.7971751018549E-01  2.0093797052650E+00
68  6.7000000000000E-01  7.3692427856483E-01  2.0503053265635E+00
69  6.8000000000000E-01  6.9490793237079E-01  2.0746593630407E+00
70  6.9000000000000E-01  6.5374052828192E-01  2.0819752367208E+00
71  7.0000000000000E-01  6.1348697733935E-01  2.0719797997867E+00
72  7.1000000000000E-01  5.7420582847937E-01  2.0446036662418E+00
73  7.2000000000000E-01  5.3595004304928E-01  1.9999893763203E+00
74  7.3000000000000E-01  4.9876774062963E-01  1.9384970911412E+00
75  7.4000000000000E-01  4.6270289744046E-01  1.8607075270961E+00
76  7.5000000000000E-01  4.2779597994704E-01  1.7674218611145E+00
77  7.6000000000000E-01  3.9408449799061E-01  1.6596583695215E+00
78  7.7000000000000E-01  3.6160346382847E-01  1.5386456046017E+00
79  7.8000000000000E-01  3.3038574584207E-01  1.4058119637074E+00
80  7.9000000000000E-01  3.0046230831563E-01  1.2627715649236E+00
81  8.0000000000000E-01  2.7186233154647E-01  1.1113064096493E+00
82  8.1000000000000E-01  2.4461320955582E-01  9.5334488437430E-01
83  8.2000000000000E-01  2.1874042575187E-01  7.9093672946297E-01
84  8.3000000000000E-01  1.9426730997681E-01  6.2622467974397E-01
85  8.4000000000000E-01  1.7121468336202E-01  4.6141305774454E-01
86  8.5000000000000E-01  1.4960040023579E-01  2.9873367303738E-01
87  8.6000000000000E-01  1.2943879889328E-01  1.4040944787163E-01
88  8.7000000000000E-01  1.1074007526824E-01 -1.1383752384730E-02
89  8.8000000000000E-01  9.3509595369467E-02 -1.5455655772268E-01
90  8.9000000000000E-01  7.7747163699242E-02 -2.8714623949269E-01
91  9.0000000000000E-01  6.3446265706818E-02 -4.0735698167510E-01
92  9.1000000000000E-01  5.0593302613202E-02 -5.1359968980387E-01
93  9.2000000000000E-01  3.9166836655810E-02 -6.0453076081154E-01
94  9.3000000000000E-01  2.9136863944464E-02 -6.7908926438140E-01
95  9.4000000000000E-01  2.0464130712279E-02 -7.3653202978697E-01
96  9.5000000000000E-01  1.3099506825910E-02 -7.7646619071504E-01
97  9.6000000000000E-01  6.9834280452576E-03 -7.9887881270946E-01
98  9.7000000000000E-01  2.0454157689933E-03 -8.0416331154422E-01
99  9.8000000000000E-01 -1.7963200443033E-03 -7.9314246359682E-01
100  9.9000000000000E-01 -4.6351924809468E-03 -7.6708791411289E-01
101  1.0000000000000E+00 -6.5764591497488E-03 -7.2773597330435E-01
102  1.0100000000000E+00 -7.7373007872350E-03 -6.7729762445798E-01
103  1.0200000000000E+00 -8.2430350551716E-03 -6.1832216534415E-01
104  1.0300000000000E+00 -8.2177664008078E-03 -5.5336325865054E-01
105  1.0400000000000E+00 -7.7804758065816E-03 -4.8486733781955E-01
106  1.0500000000000E+00 -7.0431963003553E-03 -4.1514035977362E-01
107  1.0600000000000E+00 -6.1093349173251E-03 -3.4631625115291E-01
108  1.0700000000000E+00 -5.0721477137233E-03 -2.8032728327155E-01
109  1.0800000000000E+00 -4.0133770319817E-03 -2.1887663687958E-01
110  1.0900000000000E+00 -3.0020745454299E-03 -1.6341480967428E-01
111  1.1000000000000E+00 -2.0933412270418E-03 -1.1505841392350E-01
112  1.1100000000000E+00 -1.3284622934045E-03 -7.4538223438857E-02
113  1.1200000000000E+00 -7.3503719676354E-04 -4.2601862299187E-02
114  1.1300000000000E+00 -3.2324856058717E-04 -1.9624156863991E-02
115  1.1400000000000E+00 -8.6184940339287E-05 -5.5754140931506E-03
116  1.1500000000000E+00 -2.9046903827134E-06 -2.0672979362832E-04
117  1.1600000000000E+00 -2.5571444753453E-07 -1.7879695416989E-05
118  1.1700000000000E+00  6.5710942357372E-08  4.4214259079888E-06
119  1.18  0.  0.
120  1.19  0.  0.
121  1.20  0.  0.
122  1.21  0.  0.
123  1.22  0.  0.
124  1.23  0.  0.
125  1.24  0.  0.
126  1.25  0.  0.
127  1.26  0.  0.
128  1.27  0.  0.
129  1.28  0.  0.
130  1.29  0.  0.
131  1.30  0.  0.
132  1.31  0.  0.
133  1.32  0.  0.
134  1.33  0.  0.
135  1.34  0.  0.
136  1.35  0.  0.
137  1.36  0.  0.
138  1.37  0.  0.
139  1.38  0.  0.
140  1.39  0.  0.
141  1.40  0.  0.
142  1.41  0.  0.
143  1.42  0.  0.
144  1.43  0.  0.
145  1.44  0.  0.
146  1.45  0.  0.
147  1.46  0.  0.
148  1.47  0.  0.
149  1.48  0.  0.
150  1.49  0.  0.
151  1.50  0.  0.
152  1.51  0.  0.
153  1.52  0.  0.
154  1.53  0.  0.
155  1.54  0.  0.
156  1.55  0.  0.
157  1.56  0.  0.
158  1.57  0.  0.
159  1.58  0.  0.
160  1.59  0.  0.
161  1.60  0.  0.
162  1.61  0.  0.
163  1.62  0.  0.
164  1.63  0.  0.
165  1.64  0.  0.