Ds    ONCVPSP-4.0.1  r_core=   1.10457   1.30597   1.20106   1.10457
110.0000     50.0000      220307    zatom,zion,pspd
8      11   3     4   600     0    pspcod,pspxc,lmax,lloc,mmax,r2well
5.99000000  5.00000000  0.00000000    rchrg fchrg qchrg
3     2     2     2     0    nproj
1     1           extension_switch
0                        -1.5742075334326E+01  1.3899534140966E+01 -7.8872435113078E-01
1  0.0000000000000E+00  6.8382444151638E-10 -2.4931092745817E-09 -4.2857064105895E-08
2  1.0000000000000E-02  7.5513502907349E-02  2.1217383103613E-01 -9.5982865290629E-03
3  2.0000000000000E-02  1.5088671983128E-01  4.2197510733263E-01 -1.9386874006387E-02
4  3.0000000000000E-02  2.2597918231515E-01  6.2706005131984E-01 -2.9550219327506E-02
5  4.0000000000000E-02  3.0065006738971E-01  8.2514212115783E-01 -4.0261325808762E-02
6  5.0000000000000E-02  3.7475804622653E-01  1.0140198320970E+00 -5.1676590404903E-02
7  6.0000000000000E-02  4.4816116339511E-01  1.1916036223449E+00 -6.3931305929389E-02
8  7.0000000000000E-02  5.2071675611652E-01  1.3559414461937E+00 -7.7135982208662E-02
9  8.0000000000000E-02  5.9228142222206E-01  1.5052427796596E+00 -9.1373607244615E-02
10  9.0000000000000E-02  6.6271104468316E-01  1.6379007286560E+00 -1.0669792037489E-01
11  1.0000000000000E-01  7.3186087958509E-01  1.7525119377240E+00 -1.2313271675155E-01
12  1.1000000000000E-01  7.9958571328428E-01  1.8478940095184E+00 -1.4067214905323E-01
13  1.2000000000000E-01  8.6574009322934E-01  1.9231001625370E+00 -1.5928194110763E-01
14  1.3000000000000E-01  9.3017863555538E-01  1.9774308777859E+00 -1.7890138183692E-01
15  1.4000000000000E-01  9.9275641109758E-01  2.0104423148146E+00 -1.9944592920859E-01
16  1.5000000000000E-01  1.0533294099348E+00  2.0219513142280E+00 -2.2081022485982E-01
17  1.6000000000000E-01  1.1117550829894E+00  2.0120368474529E+00 -2.4287130244095E-01
18  1.7000000000000E-01  1.1678929576034E+00  1.9810378249729E+00 -2.6549176758408E-01
19  1.8000000000000E-01  1.2216053224067E+00  1.9295472308435E+00 -2.8852273517436E-01
20  1.9000000000000E-01  1.2727579752277E+00  1.8584026130954E+00 -3.1180633003151E-01
21  2.0000000000000E-01  1.3212210262887E+00  1.7686730253515E+00 -3.3517758926206E-01
22  2.1000000000000E-01  1.3668697475246E+00  1.6616425830082E+00 -3.5846564684123E-01
23  2.2000000000000E-01  1.4095854575757E+00  1.5387908658263E+00 -3.8149413128561E-01
24  2.3000000000000E-01  1.4492564308808E+00  1.4017704657052E+00 -4.0408076296900E-01
25  2.4000000000000E-01  1.4857788183505E+00  1.2523820416347E+00 -4.2603619577307E-01
26  2.5000000000000E-01  1.5190575663618E+00  1.0925473011817E+00 -4.4716220520493E-01
27  2.6000000000000E-01  1.5490073203085E+00  9.2428037729551E-01 -4.6724937869077E-01
28  2.7000000000000E-01  1.5755532986733E+00  7.4965810879608E-01 -4.8607451041740E-01
29  2.8000000000000E-01  1.5986321235842E+00  5.7078976099720E-01 -5.0339794008776E-01
30  2.9000000000000E-01  1.6181925940696E+00  3.8978673820372E-01 -5.1896109995454E-01
31  3.0000000000000E-01  1.6341963887484E+00  2.0873284140882E-01 -5.3248454572889E-01
32  3.1000000000000E-01  1.6466186854617E+00  2.9655611963673E-02 -5.4366674331749E-01
33  3.2000000000000E-01  1.6554486863786E+00 -1.4550072464495E-01 -5.5218386443975E-01
34  3.3000000000000E-01  1.6606900383487E+00 -3.1490024093104E-01 -5.5769081039476E-01
35  3.4000000000000E-01  1.6623611397269E+00 -4.7683779410066E-01 -5.5982363572496E-01
36  3.5000000000000E-01  1.6604953265136E+00 -6.2975865948998E-01 -5.5820348411738E-01
37  3.6000000000000E-01  1.6551409324157E+00 -7.7227502548120E-01 -5.5244208009872E-01
38  3.7000000000000E-01  1.6463612192960E+00 -9.0317914386714E-01 -5.4214874495706E-01
39  3.8000000000000E-01  1.6342341764037E+00 -1.0214530130266E+00 -5.2693882729788E-01
40  3.9000000000000E-01  1.6188521887256E+00 -1.1262745561071E+00 -5.0644336140245E-01
41  4.0000000000000E-01  1.6003215767254E+00 -1.2170203399288E+00 -4.8031969385385E-01
42  4.1000000000000E-01  1.5787620116066E+00 -1.2932649598168E+00 -4.4826275437417E-01
43  4.2000000000000E-01  1.5543058120048E+00 -1.3547772885027E+00 -4.1001659384120E-01
44  4.3000000000000E-01  1.5270971296546E+00 -1.4015138513333E+00 -3.6538577393319E-01
45  4.4000000000000E-01  1.4972910330496E+00 -1.4336096433814E+00 -3.1424617110115E-01
46  4.5000000000000E-01  1.4650524994044E+00 -1.4513667451893E+00 -2.5655475418158E-01
47  4.6000000000000E-01  1.4305553263015E+00 -1.4552411218180E+00 -1.9235791072826E-01
48  4.7000000000000E-01  1.3939809752672E+00 -1.4458280041680E+00 -1.2179793197245E-01
49  4.8000000000000E-01  1.3555173601407E+00 -1.4238462522909E+00 -4.5117319266203E-02
50  4.9000000000000E-01  1.3153575934998E+00 -1.3901220882566E+00  3.7339355890829E-02
51  5.0000000000000E-01  1.2736987045693E+00 -1.3455725622148E+00  1.2512622318882E-01
52  5.1000000000000E-01  1.2307403419902E+00 -1.2911890811942E+00  2.1769960777741E-01
53  5.2000000000000E-01  1.1866834745748E+00 -1.2280212878713E+00  3.1442423905055E-01
54  5.3000000000000E-01  1.1417291027387E+00 -1.1571615282733E+00  4.1458206314496E-01
55  5.4000000000000E-01  1.0960769927050E+00 -1.0797300955785E+00  5.1738344796599E-01
56  5.5000000000000E-01  1.0499244448479E+00 -9.9686138435470E-01  6.2198047557176E-01
57  5.6000000000000E-01  1.0034651067050E+00 -9.0969103817990E-01  7.2748193336634E-01
58  5.7000000000000E-01  9.5688784026642E-01 -8.1934412593423E-01  8.3296954658221E-01
59  5.8000000000000E-01  9.1037565217512E-01 -7.2692434017429E-01  9.3751494320595E-01
60  5.9000000000000E-01  8.6410469446598E-01 -6.3350417660667E-01  1.0401968113245E+00
61  6.0000000000000E-01  8.1824334245269E-01 -5.4011602802674E-01  1.1401176994921E+00
62  6.1000000000000E-01  7.7295135536658E-01 -4.4774410997913E-01  1.2364199238498E+00
63  6.2000000000000E-01  7.2837912436840E-01 -3.5731712909520E-01  1.3283000810849E+00
64  6.3000000000000E-01  6.8466701160875E-01 -2.6970160832555E-01  1.4150217226196E+00
65  6.4000000000000E-01  6.4194478311155E-01 -1.8569579535096E-01  1.4959258204397E+00
66  6.5000000000000E-01  6.0033113740278E-01 -1.0602410009868E-01  1.5704387456132E+00
67  6.6000000000000E-01  5.5993333100264E-01 -3.1332032879659E-02  1.6380775829712E+00
68  6.7000000000000E-01  5.2084690114309E-01  3.7818355761745E-02  1.6984527152052E+00
69  6.8000000000000E-01  4.8315548535736E-01  1.0095250101193E-01  1.7512677219723E+00
70  6.9000000000000E-01  4.4693073690885E-01  1.5768675220660E-01  1.7963167494977E+00
71  7.0000000000000E-01  4.1223233437506E-01  2.0773111224942E-01  1.8334796086845E+00
72  7.1000000000000E-01  3.7910808307090E-01  2.5089117345741E-01  1.8627149501966E+00
73  7.2000000000000E-01  3.4759410537753E-01  2.8706911905849E-01  1.8840519391902E+00
74  7.3000000000000E-01  3.1771511643239E-01  3.1626365189679E-01  1.8975809068134E+00
75  7.4000000000000E-01  2.8948478102974E-01  3.3856871394104E-01  1.9034434876124E+00
76  7.5000000000000E-01  2.6290614697710E-01  3.5417087262329E-01  1.9018227599213E+00
77  7.6000000000000E-01  2.3797214955431E-01  3.6334527299389E-01  1.8929338895648E+00
78  7.7000000000000E-01  2.1466618113253E-01  3.6645008772119E-01  1.8770157363346E+00
79  7.8000000000000E-01  1.9296271943847E-01  3.6391943909091E-01  1.8543238193607E+00
80  7.9000000000000E-01  1.7282800740583E-01  3.5625481681851E-01  1.8251249544430E+00
81  8.0000000000000E-01  1.5422077705400E-01  3.4401507065688E-01  1.7896937773451E+00
82  8.1000000000000E-01  1.3709300938925E-01  3.2780511503759E-01  1.7483112565014E+00
83  8.2000000000000E-01  1.2139072195210E-01  3.0826354160276E-01  1.7012651817272E+00
84  8.3000000000000E-01  1.0705477535434E-01  2.8604939157536E-01  1.6488524979027E+00
85  8.4000000000000E-01  9.4021689974537E-02  2.6182839053380E-01  1.5913832399762E+00
86  8.5000000000000E-01  8.2224463930267E-02  2.3625899045603E-01  1.5291857236344E+00
87  8.6000000000000E-01  7.1593383528034E-02  2.0997859526687E-01  1.4626125599222E+00
88  8.7000000000000E-01  6.2056817620398E-02  1.8359036430335E-01  1.3920469966578E+00
89  8.8000000000000E-01  5.3541987678009E-02  1.5765099134323E-01  1.3179090485566E+00
90  8.9000000000000E-01  4.5975705914104E-02  1.3265984393066E-01  1.2406608644176E+00
91  9.0000000000000E-01  3.9285074476043E-02  1.0904981815807E-01  1.1608107952238E+00
92  9.1000000000000E-01  3.3398139533531E-02  8.7180218016942E-02  1.0789156719771E+00
93  9.2000000000000E-01  2.8244495031690E-02  6.7331906817460E-02  9.9558087563287E-01
94  9.3000000000000E-01  2.3755831919190E-02  4.9704902649534E-02  9.1145788138779E-01
95  9.4000000000000E-01  1.9866429782971E-02  3.4418502715775E-02  8.2723908234022E-01
96  9.5000000000000E-01  1.6513588993257E-02  2.1513925523975E-02  7.4364983858780E-01
97  9.6000000000000E-01  1.3638002654304E-02  1.0959358769999E-02  6.6143785163317E-01
98  9.7000000000000E-01  1.1184068833728E-02  2.6571980747266E-03  5.8136012419959E-01
99  9.8000000000000E-01  9.1001446730005E-03 -3.5468385398526E-03  5.0416792560360E-01
100  9.9000000000000E-01  7.3387450289794E-03 -7.8531293288118E-03  4.3059033564549E-01
101  1.0000000000000E+00  5.8566892301172E-03 -1.0496592985751E-02  3.6131707885675E-01
102  1.0100000000000E+00  4.6152003214259E-03 -1.1734720037893E-02  2.9698147941934E-01
103  1.0200000000000E+00  3.5799617962137E-03 -1.1835805555140E-02  2.3814445962180E-01
104  1.0300000000000E+00  2.7211391790407E-03 -1.1068042975412E-02  1.8528057912808E-01
105  1.0400000000000E+00  2.0133561194911E-03 -9.6900293890310E-03  1.3876702395978E-01
106  1.0500000000000E+00  1.4355348871473E-03 -7.9427999441644E-03  9.8876057343534E-02
107  1.0600000000000E+00  9.6361865572912E-04 -5.9905665607646E-03  6.5719369396523E-02
108  1.0700000000000E+00  5.8520815400185E-04 -4.0115205688096E-03  3.9338609295425E-02
109  1.0800000000000E+00  2.9938072703546E-04 -2.2295553081202E-03  1.9749050995694E-02
110  1.0900000000000E+00  1.0699369585422E-04 -8.5578583262428E-04  6.8981799810568E-03
111  1.1000000000000E+00  1.1421347011174E-05 -9.7299533187428E-05  7.1646437340825E-04
112  1.1100000000000E+00 -4.2693224945171E-07  3.7950546093864E-06 -2.6394963322698E-05
113  1.1200000000000E+00 -5.2041478941262E-08  4.3971031772421E-07 -3.2959011047302E-06
114  1.13 -0. -0.  0.
115  1.14  0.  0.  0.
116  1.15  0.  0.  0.
117  1.16  0.  0.  0.
118  1.17  0.  0.  0.
119  1.18  0.  0.  0.
120  1.19  0.  0.  0.
121  1.20  0.  0.  0.
122  1.21  0.  0.  0.
123  1.22  0.  0.  0.
124  1.23  0.  0.  0.
125  1.24  0.  0.  0.
126  1.25  0.  0.  0.
127  1.26  0.  0.  0.
128  1.27  0.  0.  0.
129  1.28  0.  0.  0.
130  1.29  0.  0.  0.
131  1.30  0.  0.  0.
132  1.31  0.  0.  0.
133  1.32  0.  0.  0.
134  1.33  0.  0.  0.
135  1.34  0.  0.  0.
136  1.35  0.  0.  0.
137  1.36  0.  0.  0.
138  1.37  0.  0.  0.
139  1.38  0.  0.  0.
140  1.39  0.  0.  0.
141  1.40  0.  0.  0.
142  1.41  0.  0.  0.
143  1.42  0.  0.  0.
144  1.43  0.  0.  0.
145  1.44  0.  0.  0.
146  1.45  0.  0.  0.
147  1.46  0.  0.  0.
148  1.47  0.  0.  0.
149  1.48  0.  0.  0.
150  1.49  0.  0.  0.
151  1.50  0.  0.  0.
152  1.51  0.  0.  0.
153  1.52  0.  0.  0.
154  1.53  0.  0.  0.
155  1.54  0.  0.  0.
156  1.55  0.  0.  0.
157  1.56  0.  0.  0.
158  1.57  0.  0.  0.
159  1.58  0.  0.  0.
160  1.59  0.  0.  0.
161  1.60  0.  0.  0.
162  1.61  0.  0.  0.
163  1.62  0.  0.  0.
164  1.63  0.  0.  0.
165  1.64  0.  0.  0.
166  1.65  0.  0.  0.
167  1.66  0.  0.  0.
168  1.67  0.  0.  0.
169  1.68  0.  0.  0.
170  1.69  0.  0.  0.
171  1.70  0.  0.  0.
172  1.71  0.  0.  0.
173  1.72  0.  0.  0.
174  1.73  0.  0.  0.
175  1.74  0.  0.  0.
176  1.75  0.  0.  0.
177  1.76  0.  0.  0.
178  1.77  0.  0.  0.
179  1.78  0.  0.  0.
180  1.79  0.  0.  0.
181  1.80  0.  0.  0.
182  1.81  0.  0.  0.
183  1.82  0.  0.  0.
184  1.83  0.  0.  0.
185  1.84  0.  0.  0.
186  1.85  0.  0.  0.
187  1.86  0.  0.  0.
188  1.87  0.  0.  0.
189  1.88  0.  0.  0.
190  1.89  0.  0.  0.
191  1.90  0.  0.  0.
192  1.91  0.  0.  0.
193  1.92  0.  0.  0.
194  1.93  0.  0.  0.
195  1.94  0.  0.  0.
196  1.95  0.  0.  0.
197  1.96  0.  0.  0.
198  1.97  0.  0.  0.
199  1.98  0.  0.  0.
200  1.99  0.  0.  0.
201  2.00  0.  0.  0.
202  2.01  0.  0.  0.
203  2.02  0.  0.  0.
204  2.03  0.  0.  0.
205  2.04  0.  0.  0.
206  2.05  0.  0.  0.
207  2.06  0.  0.  0.
208  2.07  0.  0.  0.
209  2.08  0.  0.  0.
210  2.09  0.  0.  0.
211  2.10  0.  0.  0.
212  2.11  0.  0.  0.
213  2.12  0.  0.  0.
214  2.13  0.  0.  0.
215  2.14  0.  0.  0.
216  2.15  0.  0.  0.
217  2.16  0.  0.  0.
218  2.17  0.  0.  0.
219  2.18  0.  0.  0.
220  2.19  0.  0.  0.
221  2.20  0.  0.  0.
222  2.21  0.  0.  0.
223  2.22  0.  0.  0.
224  2.23  0.  0.  0.
225  2.24  0.  0.  0.
226  2.25  0.  0.  0.
227  2.26  0.  0.  0.
228  2.27  0.  0.  0.
229  2.28  0.  0.  0.
230  2.29  0.  0.  0.
231  2.30  0.  0.  0.
232  2.31  0.  0.  0.
233  2.32  0.  0.  0.
234  2.33  0.  0.  0.
235  2.34  0.  0.  0.
236  2.35  0.  0.  0.
237  2.36  0.  0.  0.
238  2.37  0.  0.  0.
239  2.38  0.  0.  0.
240  2.39  0.  0.  0.
241  2.40  0.  0.  0.
242  2.41  0.  0.  0.
243  2.42  0.  0.  0.
244  2.43  0.  0.  0.
245  2.44  0.  0.  0.
246  2.45  0.  0.  0.
247  2.46  0.  0.  0.
248  2.47  0.  0.  0.
249  2.48  0.  0.  0.
250  2.49  0.  0.  0.
251  2.50  0.  0.  0.
252  2.51  0.  0.  0.
253  2.52  0.  0.  0.
254  2.53  0.  0.  0.
255  2.54  0.  0.  0.
256  2.55  0.  0.  0.
257  2.56  0.  0.  0.
258  2.57  0.  0.  0.
259  2.58  0.  0.  0.
260  2.59  0.  0.  0.
261  2.60  0.  0.  0.
262  2.61  0.  0.  0.
263  2.62  0.  0.  0.
264  2.63  0.  0.  0.
265  2.64  0.  0.  0.
266  2.65  0.  0.  0.
267  2.66  0.  0.  0.
268  2.67  0.  0.  0.
269  2.68  0.  0.  0.
270  2.69  0.  0.  0.
271  2.70  0.  0.  0.
272  2.71  0.  0.  0.
273  2.72  0.  0.  0.
274  2.73  0.  0.  0.
275  2.74  0.  0.  0.
276  2.75  0.  0.  0.
277  2.76  0.  0.  0.
278  2.77  0.  0.  0.
279  2.78  0.  0.  0.
280  2.79  0.  0.  0.
281  2.80  0.  0.  0.
282  2.81  0.  0.  0.
283  2.82  0.  0.  0.
284  2.83  0.  0.  0.
285  2.84  0.  0.  0.
286  2.85  0.  0.  0.
287  2.86  0.  0.  0.
288  2.87  0.  0.  0.
289  2.88  0.  0.  0.
290  2.89  0.  0.  0.
291  2.90  0.  0.  0.
292  2.91  0.  0.  0.
293  2.92  0.  0.  0.
294  2.93  0.  0.  0.
295  2.94  0.  0.  0.
296  2.95  0.  0.  0.
297  2.96  0.  0.  0.
298  2.97  0.  0.  0.
299  2.98  0.  0.  0.
300  2.99  0.  0.  0.
301  3.00  0.  0.  0.
302  3.01  0.  0.  0.
303  3.02  0.  0.  0.
304  3.03  0.  0.  0.
305  3.04  0.  0.  0.
306  3.05  0.  0.  0.
307  3.06  0.  0.  0.
308  3.07  0.  0.  0.
309  3.08  0.  0.  0.
310  3.09  0.  0.  0.
311  3.10  0.  0.  0.
312  3.11  0.  0.  0.
313  3.12  0.  0.  0.
314  3.13  0.  0.  0.
315  3.14  0.  0.  0.
316  3.15  0.  0.  0.
317  3.16  0.  0.  0.
318  3.17  0.  0.  0.
319  3.18  0.  0.  0.
320  3.19  0.  0.  0.
321  3.20  0.  0.  0.
322  3.21  0.  0.  0.
323  3.22  0.  0.  0.
324  3.23  0.  0.  0.
325  3.24  0.  0.  0.
326  3.25  0.  0.  0.
327  3.26  0.  0.  0.
328  3.27  0.  0.  0.
329  3.28  0.  0.  0.
330  3.29  0.  0.  0.
331  3.30  0.  0.  0.
332  3.31  0.  0.  0.
333  3.32  0.  0.  0.
334  3.33  0.  0.  0.
335  3.34  0.  0.  0.
336  3.35  0.  0.  0.
337  3.36  0.  0.  0.
338  3.37  0.  0.  0.
339  3.38  0.  0.  0.
340  3.39  0.  0.  0.
341  3.40  0.  0.  0.
342  3.41  0.  0.  0.
343  3.42  0.  0.  0.
344  3.43  0.  0.  0.
345  3.44  0.  0.  0.
346  3.45  0.  0.  0.
347  3.46  0.  0.  0.
348  3.47  0.  0.  0.
349  3.48  0.  0.  0.
350  3.49  0.  0.  0.
351  3.50  0.  0.  0.
352  3.51  0.  0.  0.
353  3.52  0.  0.  0.
354  3.53  0.  0.  0.
355  3.54  0.  0.  0.
356  3.55  0.  0.  0.
357  3.56  0.  0.  0.
358  3.57  0.  0.  0.
359  3.58  0.  0.  0.
360  3.59  0.  0.  0.
361  3.60  0.  0.  0.
362  3.61  0.  0.  0.
363  3.62  0.  0.  0.
364  3.63  0.  0.  0.
365  3.64  0.  0.  0.
366  3.65  0.  0.  0.
367  3.66  0.  0.  0.
368  3.67  0.  0.  0.
369  3.68  0.  0.  0.
370  3.69  0.  0.  0.
371  3.70  0.  0.  0.
372  3.71  0.  0.  0.
373  3.72  0.  0.  0.
374  3.73  0.  0.  0.
375  3.74  0.  0.  0.
376  3.75  0.  0.  0.
377  3.76  0.  0.  0.
378  3.77  0.  0.  0.
379  3.78  0.  0.  0.
380  3.79  0.  0.  0.
381  3.80  0.  0.  0.
382  3.81  0.  0.  0.
383  3.82  0.  0.  0.
384  3.83  0.  0.  0.
385  3.84  0.  0.  0.
386  3.85  0.  0.  0.
387  3.86  0.  0.  0.
388  3.87  0.  0.  0.
389  3.88  0.  0.  0.
390  3.89  0.  0.  0.
391  3.90  0.  0.  0.
392  3.91  0.  0.  0.
393  3.92  0.  0.  0.
394  3.93  0.  0.  0.
395  3.94  0.  0.  0.
396  3.95  0.  0.  0.
397  3.96  0.  0.  0.
398  3.97  0.  0.  0.
399  3.98  0.  0.  0.
400  3.99  0.  0.  0.
401  4.00  0.  0.  0.
402  4.01  0.  0.  0.
403  4.02  0.  0.  0.
404  4.03  0.  0.  0.
405  4.04  0.  0.  0.
406  4.05  0.  0.  0.
407  4.06  0.  0.  0.
408  4.07  0.  0.  0.
409  4.08  0.  0.  0.
410  4.09  0.  0.  0.
411  4.10  0.  0.  0.
412  4.11  0.  0.  0.
413  4.12  0.  0.  0.
414  4.13  0.  0.  0.
415  4.14  0.  0.  0.
416  4.15  0.  0.  0.
417  4.16  0.  0.  0.
418  4.17  0.  0.  0.
419  4.18  0.  0.  0.
420  4.19  0.  0.  0.
421  4.20  0.  0.  0.
422  4.21  0.  0.  0.
423  4.22  0.  0.  0.
424  4.23  0.  0.  0.
425  4.24  0.  0.  0.
426  4.25  0.  0.  0.
427  4.26  0.  0.  0.
428  4.27  0.  0.  0.
429  4.28  0.  0.  0.
430  4.29  0.  0.  0.
431  4.30  0.  0.  0.
432  4.31  0.  0.  0.
433  4.32  0.  0.  0.
434  4.33  0.  0.  0.
435  4.34  0.  0.  0.
436  4.35  0.  0.  0.
437  4.36  0.  0.  0.
438  4.37  0.  0.  0.
439  4.38  0.  0.  0.
440  4.39  0.  0.  0.
441  4.40  0.  0.  0.
442  4.41  0.  0.  0.
443  4.42  0.  0.  0.
444  4.43  0.  0.  0.
445  4.44  0.  0.  0.
446  4.45  0.  0.  0.
447  4.46  0.  0.  0.
448  4.47  0.  0.  0.
449  4.48  0.  0.  0.
450  4.49  0.  0.  0.
451  4.50  0.  0.  0.
452  4.51  0.  0.  0.
453  4.52  0.  0.  0.
454  4.53  0.  0.  0.
455  4.54  0.  0.  0.
456  4.55  0.  0.  0.
457  4.56  0.  0.  0.
458  4.57  0.  0.  0.
459  4.58  0.  0.  0.
460  4.59  0.  0.  0.
461  4.60  0.  0.  0.
462  4.61  0.  0.  0.
463  4.62  0.  0.  0.
464  4.63  0.  0.  0.
465  4.64  0.  0.  0.
466  4.65  0.  0.  0.
467  4.66  0.  0.  0.
468  4.67  0.  0.  0.
469  4.68  0.  0.  0.
470  4.69  0.  0.  0.
471  4.70  0.  0.  0.
472  4.71  0.  0.  0.
473  4.72  0.  0.  0.
474  4.73  0.  0.  0.
475  4.74  0.  0.  0.
476  4.75  0.  0.  0.
477  4.76  0.  0.  0.
478  4.77  0.  0.  0.
479  4.78  0.  0.  0.
480  4.79  0.  0.  0.
481  4.80  0.  0.  0.
482  4.81  0.  0.  0.
483  4.82  0.  0.  0.
484  4.83  0.  0.  0.
485  4.84  0.  0.  0.
486  4.85  0.  0.  0.
487  4.86  0.  0.  0.
488  4.87  0.  0.  0.
489  4.88  0.  0.  0.
490  4.89  0.  0.  0.
491  4.90  0.  0.  0.
492  4.91  0.  0.  0.
493  4.92  0.  0.  0.
494  4.93  0.  0.  0.
495  4.94  0.  0.  0.
496  4.95  0.  0.  0.
497  4.96  0.  0.  0.
498  4.97  0.  0.  0.
499  4.98  0.  0.  0.
500  4.99  0.  0.  0.
501  5.00  0.  0.  0.
502  5.01  0.  0.  0.
503  5.02  0.  0.  0.
504  5.03  0.  0.  0.
505  5.04  0.  0.  0.
506  5.05  0.  0.  0.
507  5.06  0.  0.  0.
508  5.07  0.  0.  0.
509  5.08  0.  0.  0.
510  5.09  0.  0.  0.
511  5.10  0.  0.  0.
512  5.11  0.  0.  0.
513  5.12  0.  0.  0.
514  5.13  0.  0.  0.
515  5.14  0.  0.  0.
516  5.15  0.  0.  0.
517  5.16  0.  0.  0.
518  5.17  0.  0.  0.
519  5.18  0.  0.  0.
520  5.19  0.  0.  0.
521  5.20  0.  0.  0.
522  5.21  0.  0.  0.
523  5.22  0.  0.  0.
524  5.23  0.  0.  0.
525  5.24  0.  0.  0.
526  5.25  0.  0.  0.
527  5.26  0.  0.  0.
528  5.27  0.  0.  0.
529  5.28  0.  0.  0.
530  5.29  0.  0.  0.
531  5.30  0.  0.  0.
532  5.31  0.  0.  0.
533  5.32  0.  0.  0.
534  5.33  0.  0.  0.
535  5.34  0.  0.  0.
536  5.35  0.  0.  0.
537  5.36  0.  0.  0.
538  5.37  0.  0.  0.
539  5.38  0.  0.  0.
540  5.39  0.  0.  0.
541  5.40  0.  0.  0.
542  5.41  0.  0.  0.
543  5.42  0.  0.  0.
544  5.43  0.  0.  0.
545  5.44  0.  0.  0.
546  5.45  0.  0.  0.
547  5.46  0.  0.  0.
548  5.47  0.  0.  0.
549  5.48  0.  0.  0.
550  5.49  0.  0.  0.
551  5.50  0.  0.  0.
552  5.51  0.  0.  0.
553  5.52  0.  0.  0.
554  5.53  0.  0.  0.
555  5.54  0.  0.  0.
556  5.55  0.  0.  0.
557  5.56  0.  0.  0.
558  5.57  0.  0.  0.
559  5.58  0.  0.  0.
560  5.59  0.  0.  0.
561  5.60  0.  0.  0.
562  5.61  0.  0.  0.
563  5.62  0.  0.  0.
564  5.63  0.  0.  0.
565  5.64  0.  0.  0.
566  5.65  0.  0.  0.
567  5.66  0.  0.  0.
568  5.67  0.  0.  0.
569  5.68  0.  0.  0.
570  5.69  0.  0.  0.
571  5.70  0.  0.  0.
572  5.71  0.  0.  0.
573  5.72  0.  0.  0.
574  5.73  0.  0.  0.
575  5.74  0.  0.  0.
576  5.75  0.  0.  0.
577  5.76  0.  0.  0.
578  5.77  0.  0.  0.
579  5.78  0.  0.  0.
580  5.79  0.  0.  0.
581  5.80  0.  0.  0.
582  5.81  0.  0.  0.
583  5.82  0.  0.  0.
584  5.83  0.  0.  0.
585  5.84  0.  0.  0.
586  5.85  0.  0.  0.
587  5.86  0.  0.  0.
588  5.87  0.  0.  0.
589  5.88  0.  0.  0.
590  5.89  0.  0.  0.
591  5.90  0.  0.  0.
592  5.91  0.  0.  0.
593  5.92  0.  0.  0.
594  5.93  0.  0.  0.
595  5.94  0.  0.  0.
596  5.95  0.  0.  0.
597  5.96  0.  0.  0.
598  5.97  0.  0.  0.
599  5.98  0.  0.  0.
600  5.99  0.  0.  0.
1                        -1.3073597474369E+01 -1.6134069641527E+00
1  0.0000000000000E+00  4.4566689505476E-09 -2.0986768878295E-08
2  1.0000000000000E-02  3.0889472509154E-03 -4.6358518240326E-03
3  2.0000000000000E-02  1.2332123064503E-02 -1.8479741964368E-02
4  3.0000000000000E-02  2.7658749507182E-02 -4.1341513425173E-02
5  4.0000000000000E-02  4.8951593811531E-02 -7.2907022586232E-02
6  5.0000000000000E-02  7.6048055373756E-02 -1.1274227459355E-01
7  6.0000000000000E-02  1.0874167029948E-01 -1.6029913023956E-01
8  7.0000000000000E-02  1.4678401652543E-01 -2.1492250321909E-01
9  8.0000000000000E-02  1.8988699808788E-01 -2.7585894566076E-01
10  9.0000000000000E-02  2.3772548293830E-01 -3.4226650043636E-01
11  1.0000000000000E-01  2.8994026487637E-01 -4.1322568124146E-01
12  1.1000000000000E-01  3.4614131673059E-01 -4.8775142608244E-01
13  1.2000000000000E-01  4.0591129890901E-01 -5.6480585682892E-01
14  1.3000000000000E-01  4.6880928490554E-01 -6.4331166708280E-01
15  1.4000000000000E-01  5.3437466330837E-01 -7.2216595292277E-01
16  1.5000000000000E-01  6.0213117434057E-01 -8.0025429620478E-01
17  1.6000000000000E-01  6.7159103798105E-01 -8.7646490808876E-01
18  1.7000000000000E-01  7.4225913027478E-01 -9.4970264132557E-01
19  1.8000000000000E-01  8.1363716454237E-01 -1.0189026835339E+00
20  1.9000000000000E-01  8.8522783483090E-01 -1.0830437501386E+00
21  2.0000000000000E-01  9.5653888009467E-01 -1.1411606046995E+00
22  2.1000000000000E-01  1.0270870292310E+00 -1.1923557458570E+00
23  2.2000000000000E-01  1.0964017891930E+00 -1.2358101138563E+00
24  2.3000000000000E-01  1.1640290409191E+00 -1.2707926853307E+00
25  2.4000000000000E-01  1.2295344107203E+00 -1.2966688424662E+00
26  2.5000000000000E-01  1.2925063879987E+00 -1.3129074215253E+00
27  2.6000000000000E-01  1.3525591636854E+00 -1.3190863656742E+00
28  2.7000000000000E-01  1.4093351675356E+00 -1.3148969277949E+00
29  2.8000000000000E-01  1.4625072863326E+00 -1.3001463901469E+00
30  2.9000000000000E-01  1.5117807490918E+00 -1.2747592890260E+00
31  3.0000000000000E-01  1.5568946694510E+00 -1.2387771536268E+00
32  3.1000000000000E-01  1.5976232395278E+00 -1.1923567888226E+00
33  3.2000000000000E-01  1.6337765735780E+00 -1.1357671512277E+00
34  3.3000000000000E-01  1.6652012037229E+00 -1.0693848864171E+00
35  3.4000000000000E-01  1.6917802338099E+00 -9.9368861228417E-01
36  3.5000000000000E-01  1.7134331610520E+00 -9.0925204898921E-01
37  3.6000000000000E-01  1.7301153784448E+00 -8.1673610958468E-01
38  3.7000000000000E-01  1.7418173740275E+00 -7.1688007704174E-01
39  3.8000000000000E-01  1.7485636458168E+00 -6.1049200290718E-01
40  3.9000000000000E-01  1.7504113536728E+00 -4.9843847010947E-01
41  4.0000000000000E-01  1.7474487314282E+00 -3.8163386745201E-01
42  4.1000000000000E-01  1.7397932843238E+00 -2.6102932606869E-01
43  4.2000000000000E-01  1.7275897981247E+00 -1.3760146859739E-01
44  4.3000000000000E-01  1.7110081872494E+00 -1.2341120112296E-02
45  4.4000000000000E-01  1.6902412098275E+00  1.1375787395971E-01
46  4.5000000000000E-01  1.6655020778231E+00  2.3970958350092E-01
47  4.6000000000000E-01  1.6370219902308E+00  3.6454655111264E-01
48  4.7000000000000E-01  1.6050476168891E+00  4.8732984868808E-01
49  4.8000000000000E-01  1.5698385596875E+00  6.0715852124811E-01
50  4.9000000000000E-01  1.5316648168895E+00  7.2317831804734E-01
51  5.0000000000000E-01  1.4908042749856E+00  8.3458962385989E-01
52  5.1000000000000E-01  1.4475402509615E+00  9.4065451701494E-01
53  5.2000000000000E-01  1.4021591061414E+00  1.0407028949333E+00
54  5.3000000000000E-01  1.3549479508930E+00  1.1341376223794E+00
55  5.4000000000000E-01  1.3061924574728E+00  1.2204386721569E+00
56  5.5000000000000E-01  1.2561747962054E+00  1.2991662423190E+00
57  5.6000000000000E-01  1.2051717080385E+00  1.3699628479223E+00
58  5.7000000000000E-01  1.1534527243476E+00  1.4325543987392E+00
59  5.8000000000000E-01  1.1012785426971E+00  1.4867502869760E+00
60  5.9000000000000E-01  1.0488995651337E+00  1.5324425207728E+00
61  6.0000000000000E-01  9.9655460351598E-01  1.5696039499554E+00
62  6.1000000000000E-01  9.4446975439507E-01  1.5982856400598E+00
63  6.2000000000000E-01  8.9285744407390E-01  1.6186134589760E+00
64  6.3000000000000E-01  8.4191564270540E-01  1.6307839476045E+00
65  6.4000000000000E-01  7.9182724465578E-01  1.6350595516491E+00
66  6.5000000000000E-01  7.4275961086896E-01  1.6317632960778E+00
67  6.6000000000000E-01  6.9486426762958E-01  1.6212729868873E+00
68  6.7000000000000E-01  6.4827675494005E-01  1.6040150266341E+00
69  6.8000000000000E-01  6.0311661670356E-01  1.5804579308087E+00
70  6.9000000000000E-01  5.5948752403862E-01  1.5511056315940E+00
71  7.0000000000000E-01  5.1747752234000E-01  1.5164906539606E+00
72  7.1000000000000E-01  4.7715939213896E-01  1.4771672464948E+00
73  7.2000000000000E-01  4.3859111339736E-01  1.4337045459532E+00
74  7.3000000000000E-01  4.0181642258650E-01  1.3866798503910E+00
75  7.4000000000000E-01  3.6686545174245E-01  1.3366720709491E+00
76  7.5000000000000E-01  3.3375543864641E-01  1.2842554271171E+00
77  7.6000000000000E-01  3.0249149733882E-01  1.2299934446396E+00
78  7.7000000000000E-01  2.7306743832960E-01  1.1744333093166E+00
79  7.8000000000000E-01  2.4546662810225E-01  1.1181006238655E+00
80  7.9000000000000E-01  2.1966287781605E-01  1.0614946088748E+00
81  8.0000000000000E-01  1.9562135147776E-01  1.0050837827707E+00
82  8.1000000000000E-01  1.7329948427195E-01  9.4930214972484E-01
83  8.2000000000000E-01  1.5264790219865E-01  8.9454591861795E-01
84  8.3000000000000E-01  1.3361133465976E-01  8.4117077061164E-01
85  8.4000000000000E-01  1.1612951215460E-01  7.8948968759764E-01
86  8.5000000000000E-01  1.0013804178314E-01  7.3977134884310E-01
87  8.6000000000000E-01  8.5569253808374E-02  6.9223909854276E-01
88  8.7000000000000E-01  7.2353013090955E-02  6.4707048274239E-01
89  8.8000000000000E-01  6.0417489777511E-02  6.0439735021275E-01
90  8.9000000000000E-01  4.9689884194773E-02  5.6430650832316E-01
91  9.0000000000000E-01  4.0097101473413E-02  5.2684092177376E-01
92  9.1000000000000E-01  3.1566371996182E-02  4.9200143917447E-01
93  9.2000000000000E-01  2.4025814333719E-02  4.5974902988032E-01
94  9.3000000000000E-01  1.7404937897052E-02  4.3000751117730E-01
95  9.4000000000000E-01  1.1635083098072E-02  4.0266674382874E-01
96  9.5000000000000E-01  6.6497973672469E-03  3.7758627210606E-01
97  9.6000000000000E-01  2.3851459311780E-03  3.5459938270932E-01
98  9.7000000000000E-01 -1.2200431996185E-03  3.3351755540092E-01
99  9.8000000000000E-01 -4.2240000407993E-03  3.1413527670345E-01
100  9.9000000000000E-01 -6.6818987165878E-03  2.9623518663023E-01
101  1.0000000000000E+00 -8.6458077642429E-03  2.7959352710105E-01
102  1.0100000000000E+00 -1.0164703097454E-02  2.6398585944090E-01
103  1.0200000000000E+00 -1.1284541565557E-02  2.4919301715162E-01
104  1.0300000000000E+00 -1.2048392562489E-02  2.3500725899104E-01
105  1.0400000000000E+00 -1.2496624676025E-02  2.2123858629271E-01
106  1.0500000000000E+00 -1.2667143927056E-02  2.0772118742283E-01
107  1.0600000000000E+00 -1.2595679735271E-02  1.9431997131546E-01
108  1.0700000000000E+00 -1.2316114364879E-02  1.8093715117384E-01
109  1.0800000000000E+00 -1.1860851255658E-02  1.6751883869447E-01
110  1.0900000000000E+00 -1.1261217394331E-02  1.5406160994700E-01
111  1.1000000000000E+00 -1.0547892340230E-02  1.4061895084486E-01
112  1.1100000000000E+00 -9.7513571764724E-03  1.2730751054259E-01
113  1.1200000000000E+00 -8.9013384736844E-03  1.1428969473817E-01
114  1.1300000000000E+00 -8.0244492533794E-03  1.0171597641403E-01
115  1.1400000000000E+00 -7.1435205349877E-03  8.9708106102366E-02
116  1.1500000000000E+00 -6.2777745885614E-03  7.8361430229800E-02
117  1.1600000000000E+00 -5.4430326678529E-03  6.7747310088259E-02
118  1.1700000000000E+00 -4.6519528739930E-03  5.7915672708206E-02
119  1.1800000000000E+00 -3.9142885834227E-03  4.8897599183365E-02
120  1.1900000000000E+00 -3.2371600511950E-03  4.0707901800250E-02
121  1.2000000000000E+00 -2.6253321346138E-03  3.3347642700063E-02
122  1.2100000000000E+00 -2.0814915434443E-03  2.6806550227625E-02
123  1.2200000000000E+00 -1.6065166896301E-03  2.1065295161631E-02
124  1.2300000000000E+00 -1.1997408335998E-03  1.6097574233889E-02
125  1.2400000000000E+00 -8.5919187183564E-04  1.1871962864030E-02
126  1.2500000000000E+00 -5.8346436220064E-04  8.3499900304926E-03
127  1.2600000000000E+00 -3.6975181490241E-04  5.4964172360782E-03
128  1.2700000000000E+00 -2.1168940780113E-04  3.2803326059622E-03
129  1.2800000000000E+00 -1.0267137416640E-04  1.6655039280778E-03
130  1.2900000000000E+00 -3.5926691792190E-05  6.1318693776910E-04
131  1.3000000000000E+00 -4.7974459296641E-06  8.6794838736934E-05
132  1.3100000000000E+00  3.3867563252841E-07 -6.3733214307328E-06
133  1.3200000000000E+00 -6.3084857320024E-08  1.1647203866442E-06
134  1.33 -0.  0.
135  1.34  0.  0.
136  1.35  0.  0.
137  1.36  0.  0.
138  1.37  0.  0.
139  1.38  0.  0.
140  1.39  0.  0.
141  1.40  0.  0.
142  1.41  0.  0.