Ds    ONCVPSP-4.0.1  r_core=   1.10457   1.10457   1.10457   1.10457
110.0000     50.0000      220308    zatom,zion,pspd
8      11   3     4   600     0    pspcod,pspxc,lmax,lloc,mmax,r2well
5.99000000  5.00000000  0.00000000    rchrg fchrg qchrg
3     3     2     2    nproj
3     1           extension_switch
4     3     3    nprojso
0                        -1.5562418638297E+01  8.9592232858593E+00 -5.2797084866487E-01
1  0.0000000000000E+00 -1.4994511188249E-09  6.1657135175253E-08 -8.2810516527365E-08
2  1.0000000000000E-02  8.1017100816749E-02  1.7654665041051E-01 -8.7203982476263E-03
3  2.0000000000000E-02  1.6182689871781E-01  3.5143211306840E-01 -1.7579589010267E-02
4  3.0000000000000E-02  2.4222290678165E-01  5.2300795854238E-01 -2.6710604618614E-02
5  4.0000000000000E-02  3.2200026017499E-01  6.8965142220974E-01 -3.6235321037493E-02
6  5.0000000000000E-02  4.0095650287563E-01  8.4977858906381E-01 -4.6259765462389E-02
7  6.0000000000000E-02  4.7889234638736E-01  1.0018579520464E+00 -5.6870420472374E-02
8  7.0000000000000E-02  5.5561239300887E-01  1.1444243893091E+00 -6.8131750586947E-02
9  8.0000000000000E-02  6.3092581771794E-01  1.2760935441495E+00 -8.0085094263744E-02
10  9.0000000000000E-02  7.0464700445501E-01  1.3955765215978E+00 -9.2748970729625E-02
11  1.0000000000000E-01  7.7659613444708E-01  1.5016947420273E+00 -1.0612075231740E-01
12  1.1000000000000E-01  8.4659972610692E-01  1.5933947193510E+00 -1.2017955532180E-01
13  1.2000000000000E-01  9.1449112787379E-01  1.6697624640153E+00 -1.3489011197151E-01
14  1.3000000000000E-01  9.8011096703536E-01  1.7300371536252E+00 -1.5020730879766E-01
15  1.4000000000000E-01  1.0433075589955E+00  1.7736236707032E+00 -1.6608101766322E-01
16  1.5000000000000E-01  1.1039372825532E+00  1.8001035812284E+00 -1.8246080924188E-01
17  1.6000000000000E-01  1.1618649274755E+00  1.8092441218014E+00 -1.9930012780671E-01
18  1.7000000000000E-01  1.2169640209337E+00  1.8010047791149E+00 -2.1655952240161E-01
19  1.8000000000000E-01  1.2691171392214E+00  1.7755410833649E+00 -2.3420857286994E-01
20  1.9000000000000E-01  1.3182162105693E+00  1.7332052966362E+00 -2.5222621827536E-01
21  2.0000000000000E-01  1.3641628138634E+00  1.6745437563322E+00 -2.7059928690726E-01
22  2.1000000000000E-01  1.4068684766863E+00  1.6002907295036E+00 -2.8931913684733E-01
23  2.2000000000000E-01  1.4462549744238E+00  1.5113587426416E+00 -3.0837643833183E-01
24  2.3000000000000E-01  1.4822546302796E+00  1.4088254685207E+00 -3.2775425729475E-01
25  2.4000000000000E-01  1.5148106140270E+00  1.2939173718415E+00 -3.4741972637046E-01
26  2.5000000000000E-01  1.5438772352978E+00  1.1679904332560E+00 -3.6731470789907E-01
27  2.6000000000000E-01  1.5694202252744E+00  1.0325083813209E+00 -3.8734595593373E-01
28  2.7000000000000E-01  1.5914169989191E+00  8.8901895871090E-01 -4.0737536428339E-01
29  2.8000000000000E-01  1.6098568884383E+00  7.3912882782199E-01 -4.2721093957671E-01
30  2.9000000000000E-01  1.6247413376303E+00  5.8447777760938E-01 -4.4659915781430E-01
31  3.0000000000000E-01  1.6360840461647E+00  4.2671292500489E-01 -4.6521934705758E-01
32  3.1000000000000E-01  1.6439110527470E+00  2.6746360851787E-01 -4.8268068670260E-01
33  3.2000000000000E-01  1.6482607465489E+00  1.0831764785781E-01 -4.9852232599831E-01
34  3.3000000000000E-01  1.6491837972417E+00 -4.9200407867690E-02 -5.1221700378076E-01
35  3.4000000000000E-01  1.6467429954316E+00 -2.0364849782681E-01 -5.2317840231222E-01
36  3.5000000000000E-01  1.6410129972054E+00 -3.5368328714098E-01 -5.3077229681338E-01
37  3.6000000000000E-01  1.6320799687963E+00 -4.9807309692979E-01 -5.3433137631944E-01
38  3.7000000000000E-01  1.6200411299698E+00 -6.3570733079925E-01 -5.3317341952813E-01
39  3.8000000000000E-01  1.6050041975071E+00 -7.6560234127419E-01 -5.2662232065293E-01
40  3.9000000000000E-01  1.5870867330188E+00 -8.8690382060468E-01 -5.1403128450858E-01
41  4.0000000000000E-01  1.5664154021208E+00 -9.9888593644408E-01 -4.9480735646628E-01
42  4.1000000000000E-01  1.5431251546401E+00 -1.1009475578866E+00 -4.6843633015723E-01
43  4.2000000000000E-01  1.5173583378609E+00 -1.1926060254776E+00 -4.3450699137471E-01
44  4.3000000000000E-01  1.4892637567783E+00 -1.2734890050090E+00 -3.9273361647042E-01
45  4.4000000000000E-01  1.4589956968046E+00 -1.3433250250823E+00 -3.4297565173057E-01
46  4.5000000000000E-01  1.4267129252993E+00 -1.4019333296274E+00 -2.8525355866215E-01
47  4.6000000000000E-01  1.3925776886348E+00 -1.4492136772088E+00 -2.1975991842580E-01
48  4.7000000000000E-01  1.3567547212337E+00 -1.4851366888318E+00 -1.4686504404519E-01
49  4.8000000000000E-01  1.3194102821401E+00 -1.5097352863506E+00 -6.7116546406928E-02
50  4.9000000000000E-01  1.2807112332440E+00 -1.5230976771305E+00  1.8767467816629E-02
51  5.0000000000000E-01  1.2408241713301E+00 -1.5253622313132E+00  1.0991163049794E-01
52  5.1000000000000E-01  1.1999146237492E+00 -1.5167144709676E+00  2.0530277023323E-01
53  5.2000000000000E-01  1.1581463148213E+00 -1.4973862516123E+00  3.0381511027436E-01
54  5.3000000000000E-01  1.1156805071849E+00 -1.4676570727264E+00  4.0424045566902E-01
55  5.4000000000000E-01  1.0726754193429E+00 -1.4278573119358E+00  5.0532237424362E-01
56  5.5000000000000E-01  1.0292857177427E+00 -1.3783730445994E+00  6.0579316471448E-01
57  5.6000000000000E-01  9.8566207901147E-01 -1.3196519932506E+00  7.0441223808369E-01
58  5.7000000000000E-01  9.4195081555007E-01 -1.2522100558634E+00  8.0000442470017E-01
59  5.8000000000000E-01  8.9829355569706E-01 -1.1766377933855E+00  8.9149666598163E-01
60  5.9000000000000E-01  8.5482696818492E-01 -1.0936062194111E+00  9.7795156137974E-01
61  6.0000000000000E-01  8.1168251969628E-01 -1.0038712308470E+00  1.0585963195479E+00
62  6.1000000000000E-01  7.6898625402956E-01 -9.0827604904834E-01  1.1328458067481E+00
63  6.2000000000000E-01  7.2685858171221E-01 -8.0775110560396E-01  1.2003185912565E+00
64  6.3000000000000E-01  6.8541406984152E-01 -7.0331090359417E-01  1.2608451429771E+00
65  6.4000000000000E-01  6.4476122344197E-01 -5.9604750999763E-01  1.3144676530910E+00
66  6.5000000000000E-01  6.0500225163403E-01 -4.8712048287857E-01  1.3614312774945E+00
67  6.6000000000000E-01  5.6623281431714E-01 -3.7774320169777E-01  1.4021669663008E+00
68  6.7000000000000E-01  5.2854174776461E-01 -2.6916574330296E-01  1.4372664048296E+00
69  6.8000000000000E-01  4.9201077038173E-01 -1.6265462196276E-01  1.4674499436111E+00
70  6.9000000000000E-01  4.5671417275138E-01 -5.9469881036942E-02  1.4935287203368E+00
71  7.0000000000000E-01  4.2271849884485E-01  3.9159821549480E-02  1.5163624604709E+00
72  7.1000000000000E-01  3.9008222776991E-01  1.3206335958908E-01  1.5368146717459E+00
73  7.2000000000000E-01  3.5885546753873E-01  2.1815363901062E-01  1.5557071094841E+00
74  7.3000000000000E-01  3.2907967395127E-01  2.9645350641024E-01  1.5737754755346E+00
75  7.4000000000000E-01  3.0078740871704E-01  3.6612009027819E-01  1.5916283176303E+00
76  7.5000000000000E-01  2.7400215131316E-01  4.2646661171836E-01  1.6097110155234E+00
77  7.6000000000000E-01  2.4873817876476E-01  4.7698075606617E-01  1.6282765763202E+00
78  7.7000000000000E-01  2.2500052652883E-01  5.1733879271288E-01  1.6473647186187E+00
79  7.8000000000000E-01  2.0278504199123E-01  5.4741476468540E-01  1.6667904114807E+00
80  7.9000000000000E-01  1.8207853980580E-01  5.6728423733375E-01  1.6861426614071E+00
81  8.0000000000000E-01  1.6285906549945E-01  5.7722229048352E-01  1.7047939226185E+00
82  8.1000000000000E-01  1.4509627054887E-01  5.7769565287353E-01  1.7219200597230E+00
83  8.2000000000000E-01  1.2875189863404E-01  5.6934910281128E-01  1.7365303356346E+00
84  8.3000000000000E-01  1.1378037913685E-01  5.5298648527115E-01  1.7475064506181E+00
85  8.4000000000000E-01  1.0012952033516E-01  5.2954691333664E-01  1.7536492400390E+00
86  8.5000000000000E-01  8.7741291299378E-02  5.0007692132959E-01  1.7537312674588E+00
87  8.6000000000000E-01  7.6552678381079E-02  4.6569950910446E-01  1.7465532433627E+00
88  8.7000000000000E-01  6.6496599531415E-02  4.2758115372778E-01  1.7310019729347E+00
89  8.8000000000000E-01  5.7502857620417E-02  3.8689795938423E-01  1.7061074008370E+00
90  8.9000000000000E-01  4.9499112544472E-02  3.4480216380050E-01  1.6710962852586E+00
91  9.0000000000000E-01  4.2411851275511E-02  3.0239021663957E-01  1.6254401019370E+00
92  9.1000000000000E-01  3.6167335157941E-02  2.6067359120547E-01  1.5688949514411E+00
93  9.2000000000000E-01  3.0692504699840E-02  2.2055338658701E-01  1.5015315154632E+00
94  9.3000000000000E-01  2.5915823800938E-02  1.8279962646607E-01  1.4237534714800E+00
95  9.4000000000000E-01  2.1768047745170E-02  1.4803596867963E-01  1.3363032172620E+00
96  9.5000000000000E-01  1.8182902263494E-02  1.1673031361113E-01  1.2402542610242E+00
97  9.6000000000000E-01  1.5097664420112E-02  8.9191548509077E-02  1.1369901803212E+00
98  9.7000000000000E-01  1.2453639845522E-02  6.5572399180103E-02  1.0281706213769E+00
99  9.8000000000000E-01  1.0196534776114E-02  4.5878090950536E-02  9.1568537798571E-01
100  9.9000000000000E-01  8.2767252905076E-03  2.9980258907066E-02  8.0159813165681E-01
101  1.0000000000000E+00  6.6494298918374E-03  1.7635304207702E-02  6.8808192995739E-01
102  1.0100000000000E+00  5.2747950076066E-03  8.5061794360281E-03  5.7734890648463E-01
103  1.0200000000000E+00  4.1179059229689E-03  2.1864106804366E-03  4.7157708542028E-01
104  1.0300000000000E+00  3.1487400652994E-03 -1.7749775433652E-03  3.7283735750268E-01
105  1.0400000000000E+00  2.3420619747714E-03 -3.8489245032071E-03  2.8302376753457E-01
106  1.0500000000000E+00  1.6771760634804E-03 -4.5030805038003E-03  2.0379004047492E-01
107  1.0600000000000E+00  1.1299957387285E-03 -4.1276663776711E-03  1.3646309085221E-01
108  1.0700000000000E+00  6.8859568831023E-04 -3.1118519056153E-03  8.2051930183903E-02
109  1.0800000000000E+00  3.5336214449730E-04 -1.8655103228794E-03  4.1246142211000E-02
110  1.0900000000000E+00  1.2663861906334E-04 -7.5170900941795E-04  1.4375992491274E-02
111  1.1000000000000E+00  1.3554464492020E-05 -8.8172271943383E-05  1.4843479542659E-03
112  1.1100000000000E+00 -5.0724086414116E-07  3.4804191968083E-06 -5.4401741497657E-05
113  1.1200000000000E+00 -6.1697015908562E-08  3.9479474355982E-07 -6.8352879236149E-06
114  1.13  0.  0.  0.
115  1.14  0.  0.  0.
116  1.15  0.  0.  0.
117  1.16  0.  0.  0.
118  1.17  0.  0.  0.
119  1.18  0.  0.  0.
120  1.19  0.  0.  0.
121  1.20  0.  0.  0.
122  1.21  0.  0.  0.
123  1.22  0.  0.  0.
124  1.23  0.  0.  0.
125  1.24  0.  0.  0.
126  1.25  0.  0.  0.
127  1.26  0.  0.  0.
128  1.27  0.  0.  0.
129  1.28  0.  0.  0.
130  1.29  0.  0.  0.
131  1.30  0.  0.  0.
132  1.31  0.  0.  0.
133  1.32  0.  0.  0.
134  1.33  0.  0.  0.
135  1.34  0.  0.  0.
136  1.35  0.  0.  0.
137  1.36  0.  0.  0.
138  1.37  0.  0.  0.
139  1.38  0.  0.  0.
140  1.39  0.  0.  0.
141  1.40  0.  0.  0.
142  1.41  0.  0.  0.
143  1.42  0.  0.  0.
144  1.43  0.  0.  0.
145  1.44  0.  0.  0.
146  1.45  0.  0.  0.
147  1.46  0.  0.  0.
148  1.47  0.  0.  0.
149  1.48  0.  0.  0.
150  1.49  0.  0.  0.
151  1.50  0.  0.  0.
152  1.51  0.  0.  0.
153  1.52  0.  0.  0.
154  1.53  0.  0.  0.
155  1.54  0.  0.  0.
156  1.55  0.  0.  0.
157  1.56  0.  0.  0.
158  1.57  0.  0.  0.
159  1.58  0.  0.  0.
160  1.59  0.  0.  0.
161  1.60  0.  0.  0.
162  1.61  0.  0.  0.
163  1.62  0.  0.  0.
164  1.63  0.  0.  0.
165  1.64  0.  0.  0.
166  1.65  0.  0.  0.
167  1.66  0.  0.  0.
168  1.67  0.  0.  0.
169  1.68  0.  0.  0.
170  1.69  0.  0.  0.
171  1.70  0.  0.  0.
172  1.71  0.  0.  0.
173  1.72  0.  0.  0.
174  1.73  0.  0.  0.
175  1.74  0.  0.  0.
176  1.75  0.  0.  0.
177  1.76  0.  0.  0.
178  1.77  0.  0.  0.
179  1.78  0.  0.  0.
180  1.79  0.  0.  0.
181  1.80  0.  0.  0.
182  1.81  0.  0.  0.
183  1.82  0.  0.  0.
184  1.83  0.  0.  0.
185  1.84  0.  0.  0.
186  1.85  0.  0.  0.
187  1.86  0.  0.  0.
188  1.87  0.  0.  0.
189  1.88  0.  0.  0.
190  1.89  0.  0.  0.
191  1.90  0.  0.  0.
192  1.91  0.  0.  0.
193  1.92  0.  0.  0.
194  1.93  0.  0.  0.
195  1.94  0.  0.  0.
196  1.95  0.  0.  0.
197  1.96  0.  0.  0.
198  1.97  0.  0.  0.
199  1.98  0.  0.  0.
200  1.99  0.  0.  0.
201  2.00  0.  0.  0.
202  2.01  0.  0.  0.
203  2.02  0.  0.  0.
204  2.03  0.  0.  0.
205  2.04  0.  0.  0.
206  2.05  0.  0.  0.
207  2.06  0.  0.  0.
208  2.07  0.  0.  0.
209  2.08  0.  0.  0.
210  2.09  0.  0.  0.
211  2.10  0.  0.  0.
212  2.11  0.  0.  0.
213  2.12  0.  0.  0.
214  2.13  0.  0.  0.
215  2.14  0.  0.  0.
216  2.15  0.  0.  0.
217  2.16  0.  0.  0.
218  2.17  0.  0.  0.
219  2.18  0.  0.  0.
220  2.19  0.  0.  0.
221  2.20  0.  0.  0.
222  2.21  0.  0.  0.
223  2.22  0.  0.  0.
224  2.23  0.  0.  0.
225  2.24  0.  0.  0.
226  2.25  0.  0.  0.
227  2.26  0.  0.  0.
228  2.27  0.  0.  0.
229  2.28  0.  0.  0.
230  2.29  0.  0.  0.
231  2.30  0.  0.  0.
232  2.31  0.  0.  0.
233  2.32  0.  0.  0.
234  2.33  0.  0.  0.
235  2.34  0.  0.  0.
236  2.35  0.  0.  0.
237  2.36  0.  0.  0.
238  2.37  0.  0.  0.
239  2.38  0.  0.  0.
240  2.39  0.  0.  0.
241  2.40  0.  0.  0.
242  2.41  0.  0.  0.
243  2.42  0.  0.  0.
244  2.43  0.  0.  0.
245  2.44  0.  0.  0.
246  2.45  0.  0.  0.
247  2.46  0.  0.  0.
248  2.47  0.  0.  0.
249  2.48  0.  0.  0.
250  2.49  0.  0.  0.
251  2.50  0.  0.  0.
252  2.51  0.  0.  0.
253  2.52  0.  0.  0.
254  2.53  0.  0.  0.
255  2.54  0.  0.  0.
256  2.55  0.  0.  0.
257  2.56  0.  0.  0.
258  2.57  0.  0.  0.
259  2.58  0.  0.  0.
260  2.59  0.  0.  0.
261  2.60  0.  0.  0.
262  2.61  0.  0.  0.
263  2.62  0.  0.  0.
264  2.63  0.  0.  0.
265  2.64  0.  0.  0.
266  2.65  0.  0.  0.
267  2.66  0.  0.  0.
268  2.67  0.  0.  0.
269  2.68  0.  0.  0.
270  2.69  0.  0.  0.
271  2.70  0.  0.  0.
272  2.71  0.  0.  0.
273  2.72  0.  0.  0.
274  2.73  0.  0.  0.
275  2.74  0.  0.  0.
276  2.75  0.  0.  0.
277  2.76  0.  0.  0.
278  2.77  0.  0.  0.
279  2.78  0.  0.  0.
280  2.79  0.  0.  0.
281  2.80  0.  0.  0.
282  2.81  0.  0.  0.
283  2.82  0.  0.  0.
284  2.83  0.  0.  0.
285  2.84  0.  0.  0.
286  2.85  0.  0.  0.
287  2.86  0.  0.  0.
288  2.87  0.  0.  0.
289  2.88  0.  0.  0.
290  2.89  0.  0.  0.
291  2.90  0.  0.  0.
292  2.91  0.  0.  0.
293  2.92  0.  0.  0.
294  2.93  0.  0.  0.
295  2.94  0.  0.  0.
296  2.95  0.  0.  0.
297  2.96  0.  0.  0.
298  2.97  0.  0.  0.
299  2.98  0.  0.  0.
300  2.99  0.  0.  0.
301  3.00  0.  0.  0.
302  3.01  0.  0.  0.
303  3.02  0.  0.  0.
304  3.03  0.  0.  0.
305  3.04  0.  0.  0.
306  3.05  0.  0.  0.
307  3.06  0.  0.  0.
308  3.07  0.  0.  0.
309  3.08  0.  0.  0.
310  3.09  0.  0.  0.
311  3.10  0.  0.  0.
312  3.11  0.  0.  0.
313  3.12  0.  0.  0.
314  3.13  0.  0.  0.
315  3.14  0.  0.  0.
316  3.15  0.  0.  0.
317  3.16  0.  0.  0.
318  3.17  0.  0.  0.
319  3.18  0.  0.  0.
320  3.19  0.  0.  0.
321  3.20  0.  0.  0.
322  3.21  0.  0.  0.
323  3.22  0.  0.  0.
324  3.23  0.  0.  0.
325  3.24  0.  0.  0.
326  3.25  0.  0.  0.
327  3.26  0.  0.  0.
328  3.27  0.  0.  0.
329  3.28  0.  0.  0.
330  3.29  0.  0.  0.
331  3.30  0.  0.  0.
332  3.31  0.  0.  0.
333  3.32  0.  0.  0.
334  3.33  0.  0.  0.
335  3.34  0.  0.  0.
336  3.35  0.  0.  0.
337  3.36  0.  0.  0.
338  3.37  0.  0.  0.
339  3.38  0.  0.  0.
340  3.39  0.  0.  0.
341  3.40  0.  0.  0.
342  3.41  0.  0.  0.
343  3.42  0.  0.  0.
344  3.43  0.  0.  0.
345  3.44  0.  0.  0.
346  3.45  0.  0.  0.
347  3.46  0.  0.  0.
348  3.47  0.  0.  0.
349  3.48  0.  0.  0.
350  3.49  0.  0.  0.
351  3.50  0.  0.  0.
352  3.51  0.  0.  0.
353  3.52  0.  0.  0.
354  3.53  0.  0.  0.
355  3.54  0.  0.  0.
356  3.55  0.  0.  0.
357  3.56  0.  0.  0.
358  3.57  0.  0.  0.
359  3.58  0.  0.  0.
360  3.59  0.  0.  0.
361  3.60  0.  0.  0.
362  3.61  0.  0.  0.
363  3.62  0.  0.  0.
364  3.63  0.  0.  0.
365  3.64  0.  0.  0.
366  3.65  0.  0.  0.
367  3.66  0.  0.  0.
368  3.67  0.  0.  0.
369  3.68  0.  0.  0.
370  3.69  0.  0.  0.
371  3.70  0.  0.  0.
372  3.71  0.  0.  0.
373  3.72  0.  0.  0.
374  3.73  0.  0.  0.
375  3.74  0.  0.  0.
376  3.75  0.  0.  0.
377  3.76  0.  0.  0.
378  3.77  0.  0.  0.
379  3.78  0.  0.  0.
380  3.79  0.  0.  0.
381  3.80  0.  0.  0.
382  3.81  0.  0.  0.
383  3.82  0.  0.  0.
384  3.83  0.  0.  0.
385  3.84  0.  0.  0.
386  3.85  0.  0.  0.
387  3.86  0.  0.  0.
388  3.87  0.  0.  0.
389  3.88  0.  0.  0.
390  3.89  0.  0.  0.
391  3.90  0.  0.  0.
392  3.91  0.  0.  0.
393  3.92  0.  0.  0.
394  3.93  0.  0.  0.
395  3.94  0.  0.  0.
396  3.95  0.  0.  0.
397  3.96  0.  0.  0.
398  3.97  0.  0.  0.
399  3.98  0.  0.  0.
400  3.99  0.  0.  0.
401  4.00  0.  0.  0.
402  4.01  0.  0.  0.
403  4.02  0.  0.  0.
404  4.03  0.  0.  0.
405  4.04  0.  0.  0.
406  4.05  0.  0.  0.
407  4.06  0.  0.  0.
408  4.07  0.  0.  0.
409  4.08  0.  0.  0.
410  4.09  0.  0.  0.
411  4.10  0.  0.  0.
412  4.11  0.  0.  0.
413  4.12  0.  0.  0.
414  4.13  0.  0.  0.
415  4.14  0.  0.  0.
416  4.15  0.  0.  0.
417  4.16  0.  0.  0.
418  4.17  0.  0.  0.
419  4.18  0.  0.  0.
420  4.19  0.  0.  0.
421  4.20  0.  0.  0.
422  4.21  0.  0.  0.
423  4.22  0.  0.  0.
424  4.23  0.  0.  0.
425  4.24  0.  0.  0.
426  4.25  0.  0.  0.
427  4.26  0.  0.  0.
428  4.27  0.  0.  0.
429  4.28  0.  0.  0.
430  4.29  0.  0.  0.
431  4.30  0.  0.  0.
432  4.31  0.  0.  0.
433  4.32  0.  0.  0.
434  4.33  0.  0.  0.
435  4.34  0.  0.  0.
436  4.35  0.  0.  0.
437  4.36  0.  0.  0.
438  4.37  0.  0.  0.
439  4.38  0.  0.  0.
440  4.39  0.  0.  0.
441  4.40  0.  0.  0.
442  4.41  0.  0.  0.
443  4.42  0.  0.  0.
444  4.43  0.  0.  0.
445  4.44  0.  0.  0.
446  4.45  0.  0.  0.
447  4.46  0.  0.  0.
448  4.47  0.  0.  0.
449  4.48  0.  0.  0.
450  4.49  0.  0.  0.
451  4.50  0.  0.  0.
452  4.51  0.  0.  0.
453  4.52  0.  0.  0.
454  4.53  0.  0.  0.
455  4.54  0.  0.  0.
456  4.55  0.  0.  0.
457  4.56  0.  0.  0.
458  4.57  0.  0.  0.
459  4.58  0.  0.  0.
460  4.59  0.  0.  0.
461  4.60  0.  0.  0.
462  4.61  0.  0.  0.
463  4.62  0.  0.  0.
464  4.63  0.  0.  0.
465  4.64  0.  0.  0.
466  4.65  0.  0.  0.
467  4.66  0.  0.  0.
468  4.67  0.  0.  0.
469  4.68  0.  0.  0.
470  4.69  0.  0.  0.
471  4.70  0.  0.  0.
472  4.71  0.  0.  0.
473  4.72  0.  0.  0.
474  4.73  0.  0.  0.
475  4.74  0.  0.  0.
476  4.75  0.  0.  0.
477  4.76  0.  0.  0.
478  4.77  0.  0.  0.
479  4.78  0.  0.  0.
480  4.79  0.  0.  0.
481  4.80  0.  0.  0.
482  4.81  0.  0.  0.
483  4.82  0.  0.  0.
484  4.83  0.  0.  0.
485  4.84  0.  0.  0.
486  4.85  0.  0.  0.
487  4.86  0.  0.  0.
488  4.87  0.  0.  0.
489  4.88  0.  0.  0.
490  4.89  0.  0.  0.
491  4.90  0.  0.  0.
492  4.91  0.  0.  0.
493  4.92  0.  0.  0.
494  4.93  0.  0.  0.
495  4.94  0.  0.  0.
496  4.95  0.  0.  0.
497  4.96  0.  0.  0.
498  4.97  0.  0.  0.
499  4.98  0.  0.  0.
500  4.99  0.  0.  0.
501  5.00  0.  0.  0.
502  5.01  0.  0.  0.
503  5.02  0.  0.  0.
504  5.03  0.  0.  0.
505  5.04  0.  0.  0.
506  5.05  0.  0.  0.
507  5.06  0.  0.  0.
508  5.07  0.  0.  0.
509  5.08  0.  0.  0.
510  5.09  0.  0.  0.
511  5.10  0.  0.  0.
512  5.11  0.  0.  0.
513  5.12  0.  0.  0.
514  5.13  0.  0.  0.
515  5.14  0.  0.  0.
516  5.15  0.  0.  0.
517  5.16  0.  0.  0.
518  5.17  0.  0.  0.
519  5.18  0.  0.  0.
520  5.19  0.  0.  0.
521  5.20  0.  0.  0.
522  5.21  0.  0.  0.
523  5.22  0.  0.  0.
524  5.23  0.  0.  0.
525  5.24  0.  0.  0.
526  5.25  0.  0.  0.
527  5.26  0.  0.  0.
528  5.27  0.  0.  0.
529  5.28  0.  0.  0.
530  5.29  0.  0.  0.
531  5.30  0.  0.  0.
532  5.31  0.  0.  0.
533  5.32  0.  0.  0.
534  5.33  0.  0.  0.
535  5.34  0.  0.  0.
536  5.35  0.  0.  0.
537  5.36  0.  0.  0.
538  5.37  0.  0.  0.
539  5.38  0.  0.  0.
540  5.39  0.  0.  0.
541  5.40  0.  0.  0.
542  5.41  0.  0.  0.
543  5.42  0.  0.  0.
544  5.43  0.  0.  0.
545  5.44  0.  0.  0.
546  5.45  0.  0.  0.
547  5.46  0.  0.  0.
548  5.47  0.  0.  0.
549  5.48  0.  0.  0.
550  5.49  0.  0.  0.
551  5.50  0.  0.  0.
552  5.51  0.  0.  0.
553  5.52  0.  0.  0.
554  5.53  0.  0.  0.
555  5.54  0.  0.  0.
556  5.55  0.  0.  0.
557  5.56  0.  0.  0.
558  5.57  0.  0.  0.
559  5.58  0.  0.  0.
560  5.59  0.  0.  0.
561  5.60  0.  0.  0.
562  5.61  0.  0.  0.
563  5.62  0.  0.  0.
564  5.63  0.  0.  0.
565  5.64  0.  0.  0.
566  5.65  0.  0.  0.
567  5.66  0.  0.  0.
568  5.67  0.  0.  0.
569  5.68  0.  0.  0.
570  5.69  0.  0.  0.
571  5.70  0.  0.  0.
572  5.71  0.  0.  0.
573  5.72  0.  0.  0.
574  5.73  0.  0.  0.
575  5.74  0.  0.  0.
576  5.75  0.  0.  0.
577  5.76  0.  0.  0.
578  5.77  0.  0.  0.
579  5.78  0.  0.  0.
580  5.79  0.  0.  0.
581  5.80  0.  0.  0.
582  5.81  0.  0.  0.
583  5.82  0.  0.  0.
584  5.83  0.  0.  0.
585  5.84  0.  0.  0.
586  5.85  0.  0.  0.
587  5.86  0.  0.  0.
588  5.87  0.  0.  0.
589  5.88  0.  0.  0.
590  5.89  0.  0.  0.
591  5.90  0.  0.  0.
592  5.91  0.  0.  0.
593  5.92  0.  0.  0.
594  5.93  0.  0.  0.
595  5.94  0.  0.  0.
596  5.95  0.  0.  0.
597  5.96  0.  0.  0.
598  5.97  0.  0.  0.
599  5.98  0.  0.  0.
600  5.99  0.  0.  0.
1                        -1.3732162959586E+01 -1.9308686780704E+00 -1.1625900216625E-01
1  0.0000000000000E+00  4.3130118920764E-09  2.0713983583942E-09 -7.3439231534911E-07
2  1.0000000000000E-02  2.9415481886817E-03 -3.8117198224162E-03 -5.9529173747096E-03
3  2.0000000000000E-02  1.1744807668016E-02 -1.5202487914065E-02 -2.3525234808128E-02
4  3.0000000000000E-02  2.6345818104404E-02 -3.4039469878452E-02 -5.1870231894356E-02
5  4.0000000000000E-02  4.6638626080202E-02 -6.0102411809733E-02 -8.9618109746402E-02
6  5.0000000000000E-02  7.2476246702645E-02 -9.3085360109318E-02 -1.3493621379524E-01
7  6.0000000000000E-02  1.0367199187339E-01 -1.3259909704148E-01 -1.8560966878166E-01
8  7.0000000000000E-02  1.4000114772811E-01 -1.7817431629258E-01 -2.3913893873404E-01
9  8.0000000000000E-02  1.8120297944248E-01 -2.2926556486993E-01 -2.9285009033300E-01
10  9.0000000000000E-02  2.2698303776875E-01 -2.8525597645399E-01 -3.4401298468102E-01
11  1.0000000000000E-01  2.7701573838709E-01 -3.4546281644082E-01 -3.8996227397750E-01
12  1.1000000000000E-01  3.3094718248361E-01 -4.0914385021548E-01 -4.2821595109573E-01
13  1.2000000000000E-01  3.8839818493386E-01 -4.7550453372385E-01 -4.5658629733835E-01
14  1.3000000000000E-01  4.4896747509222E-01 -5.4370600941509E-01 -4.7327839287280E-01
15  1.4000000000000E-01  5.1223503445473E-01 -6.1287387156691E-01 -4.7697188220342E-01
16  1.5000000000000E-01  5.7776553535011E-01 -6.8210764352705E-01 -4.6688240130328E-01
17  1.6000000000000E-01  6.4511184527610E-01 -7.5049088631454E-01 -4.4279994350321E-01
18  1.7000000000000E-01  7.1381856247582E-01 -8.1710183425857E-01 -4.0510243101002E-01
19  1.8000000000000E-01  7.8342554977004E-01 -8.8102442993666E-01 -3.5474382593431E-01
20  1.9000000000000E-01  8.5347143544482E-01 -9.4135960867509E-01 -2.9321721350932E-01
21  2.0000000000000E-01  9.2349705205389E-01 -9.9723666335785E-01 -2.2249437386675E-01
22  2.1000000000000E-01  9.9304878624349E-01 -1.0478245042697E+00 -1.4494438092142E-01
23  2.2000000000000E-01  1.0616818150601E+00 -1.0923426170876E+00 -6.3234683699016E-02
24  2.3000000000000E-01  1.1289632065781E+00 -1.1300715157061E+00  1.9781102734693E-02
25  2.4000000000000E-01  1.1944748650160E+00 -1.1603624859284E+00  1.0118387625411E-01
26  2.5000000000000E-01  1.2578163027383E+00 -1.1826464215551E+00  1.7811298731028E-01
27  2.6000000000000E-01  1.3186072236198E+00 -1.1964415662117E+00  2.4788806327460E-01
28  2.7000000000000E-01  1.3764899041550E+00 -1.2013599922608E+00  3.0812340507331E-01
29  2.8000000000000E-01  1.4311313604084E+00 -1.1971126720205E+00  3.5682993590454E-01
30  2.9000000000000E-01  1.4822252904325E+00 -1.1835130256400E+00  3.9250019148238E-01
31  3.0000000000000E-01  1.5294937831390E+00 -1.1604788635816E+00  4.1417254787385E-01
32  3.1000000000000E-01  1.5726887858337E+00 -1.1280326786968E+00  4.2147175768770E-01
33  3.2000000000000E-01  1.6115933237504E+00 -1.0863002822079E+00  4.1462387199939E-01
34  3.3000000000000E-01  1.6460224660026E+00 -1.0355078182260E+00  3.9444472205061E-01
35  3.4000000000000E-01  1.6758240334619E+00 -9.7597723140293E-01  3.6230227550600E-01
36  3.5000000000000E-01  1.7008790452245E+00 -9.0812030056106E-01  3.2005431879854E-01
37  3.6000000000000E-01  1.7211019016027E+00 -8.3243138634587E-01  2.6996400162991E-01
38  3.7000000000000E-01  1.7364403030161E+00 -7.4947907185782E-01  2.1459676563814E-01
39  3.8000000000000E-01  1.7468749057992E+00 -6.5989690075510E-01  1.5670302404130E-01
40  3.9000000000000E-01  1.7524187178189E+00 -5.6437343655669E-01  9.9091625727661E-02
41  4.0000000000000E-01  1.7531162389102E+00 -4.6364187913268E-01  4.4499595964258E-02
42  4.1000000000000E-01  1.7490423534976E+00 -3.5846947920540E-01 -4.5361247520044E-03
43  4.2000000000000E-01  1.7403009853434E+00 -2.4964698893712E-01 -4.5799234196893E-02
44  4.3000000000000E-01  1.7270235271209E+00 -1.3797837645993E-01 -7.7501460235245E-02
45  4.4000000000000E-01  1.7093670603933E+00 -2.4271014904975E-02 -9.8371827809451E-02
46  4.5000000000000E-01  1.6875123845129E+00  9.0673467232403E-02 -1.0772354643056E-01
47  4.6000000000000E-01  1.6616618758731E+00  2.0606751679951E-01 -1.0549516249372E-01
48  4.7000000000000E-01  1.6320372017327E+00  3.2114504383450E-01 -9.2263675051608E-02
49  4.8000000000000E-01  1.5988769154110E+00  4.3516777943303E-01 -6.9228481310063E-02
50  4.9000000000000E-01  1.5624339619117E+00  5.4743055507326E-01 -3.8166251935674E-02
51  5.0000000000000E-01  1.5229731248692E+00  6.5726549370506E-01 -1.3580858838054E-03
52  5.1000000000000E-01  1.4807684470499E+00  7.6404514061563E-01  3.8508491755310E-02
53  5.2000000000000E-01  1.4361006573754E+00  8.6718459721940E-01  7.8458998247459E-02
54  5.3000000000000E-01  1.3892546375203E+00  9.6614275217638E-01  1.1536824476677E-01
55  5.4000000000000E-01  1.3405169605116E+00  1.0604227304691E+00  1.4610787264777E-01
56  5.5000000000000E-01  1.2901735323982E+00  1.1495717013118E+00  1.6769907477289E-01
57  5.6000000000000E-01  1.2385073659642E+00  1.2331801993180E+00  1.7746404336200E-01
58  5.7000000000000E-01  1.1857965126468E+00  1.3108811197646E+00  1.7316958700562E-01
59  5.8000000000000E-01  1.1323121753452E+00  1.3823485479142E+00  1.5315653051454E-01
60  5.9000000000000E-01  1.0783170207332E+00  1.4472965743178E+00  1.1644894869982E-01
61  6.0000000000000E-01  1.0240637051197E+00  1.5054782332454E+00  6.2837976401565E-02
62  6.1000000000000E-01  9.6979362295943E-01  1.5566846805861E+00 -7.0641416177372E-03
63  6.2000000000000E-01  9.1573588192670E-01  1.6007447016478E+00 -9.1802979080138E-02
64  6.3000000000000E-01  8.6210650319070E-01  1.6375246094421E+00 -1.8909577954687E-01
65  6.4000000000000E-01  8.0910784032509E-01  1.6669285615569E+00 -2.9588079500982E-01
66  6.5000000000000E-01  7.5692820531092E-01  1.6888992900456E+00 -4.0840124238555E-01
67  6.6000000000000E-01  7.0574168551358E-01  1.7034192053598E+00 -5.2232157825013E-01
68  6.7000000000000E-01  6.5570813148283E-01  1.7105118037195E+00 -6.3287242245779E-01
69  6.8000000000000E-01  6.0697329207896E-01  1.7102432788476E+00 -7.3501920819304E-01
70  6.9000000000000E-01  5.5966907088828E-01  1.7027242150014E+00 -8.2364855178580E-01
71  7.0000000000000E-01  5.1391387625116E-01  1.6881112198178E+00 -8.9376546668188E-01
72  7.1000000000000E-01  4.6981303655313E-01  1.6666083435515E+00 -9.4069393118395E-01
73  7.2000000000000E-01  4.2745925275782E-01  1.6384681264659E+00 -9.6027298826842E-01
74  7.3000000000000E-01  3.8693306148982E-01  1.6039921187661E+00 -9.4904052678550E-01
75  7.4000000000000E-01  3.4830328427043E-01  1.5635307275982E+00 -9.0439717376550E-01
76  7.5000000000000E-01  3.1162744169918E-01  1.5174822629952E+00 -8.2474331261238E-01
77  7.6000000000000E-01  2.7695211535384E-01  1.4662910786577E+00 -7.0958311466663E-01
78  7.7000000000000E-01  2.4431324481611E-01  1.4104447332484E+00 -5.5959060344538E-01
79  7.8000000000000E-01  2.1373635235691E-01  1.3504701323541E+00 -3.7663412275634E-01
80  7.9000000000000E-01  1.8523669324836E-01  1.2869286490792E+00 -1.6375710309295E-01
81  8.0000000000000E-01  1.5881933520901E-01  1.2204102609136E+00  7.4885340699267E-02
82  8.1000000000000E-01  1.3447917592483E-01  1.1515267804643E+00  3.3413275527605E-01
83  8.2000000000000E-01  1.1220091270825E-01  1.0809042962208E+00  6.0796573202724E-01
84  8.3000000000000E-01  9.1958982955808E-02  1.0091749751427E+00  8.8968781744594E-01
85  8.4000000000000E-01  7.3717497948881E-02  9.3696840998814E-01  1.1721369770997E+00
86  8.5000000000000E-01  5.7430195539721E-02  8.6490271958902E-01  1.4479193766434E+00
87  8.6000000000000E-01  4.3040439232852E-02  7.9357562856235E-01  1.7096572334168E+00
88  8.7000000000000E-01  3.0481291999730E-02  7.2355576334674E-01  1.9502417793454E+00
89  8.8000000000000E-01  1.9675692780992E-02  6.5537440336461E-01  2.1630819933064E+00
90  8.9000000000000E-01  1.0536762006932E-02  5.8951791928267E-01  2.3423397297867E+00
91  9.0000000000000E-01  2.9682596192903E-03  5.2642111485268E-01  2.4831421982875E+00
92  9.1000000000000E-01 -3.1347849321697E-03  4.6646166509865E-01  2.5817634282942E+00
93  9.2000000000000E-01 -7.8852563107717E-03  4.0995581243411E-01  2.6357673680924E+00
94  9.3000000000000E-01 -1.1402942097252E-02  3.5715544472951E-01  2.6441065788983E+00
95  9.4000000000000E-01 -1.3813325037469E-02  3.0824663674866E-01  2.6071720535607E+00
96  9.5000000000000E-01 -1.5246184191257E-02  2.6334969030732E-01  2.5267914554906E+00
97  9.6000000000000E-01 -1.5834017898181E-02  2.2252066070431E-01  2.4061749742469E+00
98  9.7000000000000E-01 -1.5710308931250E-02  1.8575430928034E-01  2.2498099578324E+00
99  9.8000000000000E-01 -1.5007659399646E-02  1.5298837618554E-01  2.0633074355467E+00
100  9.9000000000000E-01 -1.3855829613392E-02  1.2410902542274E-01  1.8532055125075E+00
101  1.0000000000000E+00 -1.2379720986090E-02  9.8957277618973E-02  1.6267363263529E+00
102  1.0100000000000E+00 -1.0697347888368E-02  7.7336216265616E-02  1.3915647392639E+00