Ub    ONCVPSP-4.0.1  r_core=   1.70383   1.60490   1.85267
120.0000     28.0000      220822    zatom,zion,pspd
8      11   2     4   600     0    pspcod,pspxc,lmax,lloc,mmax,r2well
5.99000000  5.00000000  0.00000000    rchrg fchrg qchrg
3     2     2     0     0    nproj
1     1           extension_switch
0                         7.3494919235192E+00 -4.4858591577214E+00 -1.0472320049621E-01
1  0.0000000000000E+00 -3.4873459675566E-10  2.7299801308445E-11  1.1037302183325E-09
2  1.0000000000000E-02  1.0556282299664E-01  2.8867458535913E-02 -9.2487415872720E-02
3  2.0000000000000E-02  2.1068263712130E-01  5.7737393485626E-02 -1.8416482095777E-01
4  3.0000000000000E-02  3.1491866762212E-01  8.6612141346503E-02 -2.7422890369425E-01
5  4.0000000000000E-02  4.1783459476430E-01  1.1549375978041E-01 -3.6188969960151E-01
6  5.0000000000000E-02  5.1900074836937E-01  1.4438389068246E-01 -4.4637713665869E-01
7  6.0000000000000E-02  6.1799626303921E-01  1.7328362621410E-01 -5.2694742765394E-01
8  7.0000000000000E-02  7.1441118137124E-01  2.0219337875646E-01 -6.0288925977389E-01
9  8.0000000000000E-02  8.0784849281965E-01  2.3111275571256E-01 -6.7352973280785E-01
10  9.0000000000000E-02  8.9792609628899E-01  2.6004044005325E-01 -7.3823999874345E-01
11  1.0000000000000E-01  9.8427867505662E-01  2.8897407746181E-01 -7.9644055722573E-01
12  1.1000000000000E-01  1.0665594732069E+00  3.1791017088652E-01 -8.4760616335573E-01
13  1.2000000000000E-01  1.1444419634176E+00  3.4684398325899E-01 -8.9127030662692E-01
14  1.3000000000000E-01  1.2176213966621E+00  3.7576944907988E-01 -9.2702922243526E-01
15  1.4000000000000E-01  1.2858162251779E+00  4.0467909551227E-01 -9.5454540057205E-01
16  1.5000000000000E-01  1.3487693908922E+00  4.3356397355786E-01 -9.7355055840555E-01
17  1.6000000000000E-01  1.4062494723854E+00  4.6241359982191E-01 -9.8384805008853E-01
18  1.7000000000000E-01  1.4580516844077E+00  4.9121590930049E-01 -9.8531468708577E-01
19  1.8000000000000E-01  1.5039987249354E+00  5.1995721954872E-01 -9.7790194958813E-01
20  1.9000000000000E-01  1.5439414657486E+00  5.4862220651155E-01 -9.6163657295860E-01
21  2.0000000000000E-01  1.5777594835387E+00  5.7719389221972E-01 -9.3662049822369E-01
22  2.1000000000000E-01  1.6053614295855E+00  6.0565364447426E-01 -9.0303018073972E-01
23  2.2000000000000E-01  1.6266852370884E+00  6.3398118856236E-01 -8.6111525652545E-01
24  2.3000000000000E-01  1.6416981662790E+00  6.6215463096800E-01 -8.1119657129129E-01
25  2.4000000000000E-01  1.6503966884763E+00  6.9015049496126E-01 -7.5366358289501E-01
26  2.5000000000000E-01  1.6528062112630E+00  7.1794376787262E-01 -6.8897115373932E-01
27  2.6000000000000E-01  1.6489806479621E+00  7.4550795978252E-01 -6.1763575547120E-01
28  2.7000000000000E-01  1.6390018355522E+00  7.7281517328305E-01 -5.4023111415283E-01
29  2.8000000000000E-01  1.6229788060970E+00  7.9983618389766E-01 -4.5738332982286E-01
30  2.9000000000000E-01  1.6010469176442E+00  8.2654053067803E-01 -3.6976550993978E-01
31  3.0000000000000E-01  1.5733668513894E+00  8.5289661643319E-01 -2.7809196158442E-01
32  3.1000000000000E-01  1.5401234826797E+00  8.7887181698730E-01 -1.8311199234926E-01
33  3.2000000000000E-01  1.5015246341538E+00  9.0443259880747E-01 -8.5603374569976E-02
34  3.3000000000000E-01  1.4577997199686E+00  9.2954464429363E-01  1.3634468199441E-02
35  3.4000000000000E-01  1.4091982906504E+00  9.5417298397780E-01  1.1378748979776E-01
36  3.5000000000000E-01  1.3559884886171E+00  9.7828213484122E-01  2.1403419930968E-01
37  3.6000000000000E-01  1.2984554248574E+00  1.0018362439246E+00  3.1355291977595E-01
38  3.7000000000000E-01  1.2368994876066E+00  1.0247992363792E+00  4.1152905753259E-01
39  3.8000000000000E-01  1.1716345941362E+00  1.0471349670849E+00  5.0716231084123E-01
40  3.9000000000000E-01  1.1029863969687E+00  1.0688073749459E+00  5.9967374616566E-01
41  4.0000000000000E-01  1.0312904559410E+00  1.0897806389658E+00  6.8831267093273E-01
42  4.1000000000000E-01  9.5689038757063E-01  1.1100193351994E+00  7.7236323295114E-01
43  4.2000000000000E-01  8.8013600312815E-01  1.1294885936818E+00  8.5115067883058E-01
44  4.3000000000000E-01  8.0138144668976E-01  1.1481542544424E+00  9.2404720674723E-01
45  4.4000000000000E-01  7.2098334423738E-01  1.1659830217285E+00  9.9047735273826E-01
46  4.5000000000000E-01  6.3929897459207E-01  1.1829426155770E+00  1.0499228543286E+00
47  4.6000000000000E-01  5.5668447261561E-01  1.1990019199039E+00  1.1019269406662E+00
48  4.7000000000000E-01  4.7349307469609E-01  1.2141311263049E+00  1.1460980044227E+00
49  4.8000000000000E-01  3.9007341605307E-01  1.2283018727979E+00  1.1821126174211E+00
50  4.9000000000000E-01  3.0676788885980E-01  1.2414873767771E+00  1.2097178592163E+00
51  5.0000000000000E-01  2.2391106958996E-01  1.2536625614868E+00  1.2287329355889E+00
52  5.1000000000000E-01  1.4182822336035E-01  1.2648041753741E+00  1.2390500720245E+00
53  5.2000000000000E-01  6.0833892364534E-02  1.2748909037259E+00  1.2406346756216E+00
54  5.3000000000000E-01 -1.8769425218021E-02  1.2839034720463E+00  1.2335247674141E+00
55  5.4000000000000E-01 -9.6692500190934E-02  1.2918247406899E+00  1.2178296956697E+00
56  5.5000000000000E-01 -1.7266049630096E-01  1.2986397903154E+00  1.1937281492433E+00
57  5.6000000000000E-01 -2.4641398907596E-01  1.3043359977896E+00  1.1614654983660E+00
58  5.7000000000000E-01 -3.1770987620990E-01  1.3089031022235E+00  1.1213504982605E+00
59  5.8000000000000E-01 -3.8632217694817E-01  1.3123332608866E+00  1.0737513985587E+00
60  5.9000000000000E-01 -4.5204271870582E-01  1.3146210948031E+00  1.0190915085128E+00
61  6.0000000000000E-01 -5.1468170992094E-01  1.3157637238941E+00  9.5784427441442E-01
62  6.1000000000000E-01 -5.7406819889820E-01  1.3157607915875E+00  8.9052793127634E-01
63  6.2000000000000E-01 -6.3005041912928E-01  1.3146144788772E+00  8.1769979566806E-01
64  6.3000000000000E-01 -6.8249602228158E-01  1.3123295078689E+00  7.3995027053482E-01
65  6.4000000000000E-01 -7.3129220072065E-01  1.3089131349056E+00  6.5789663580109E-01
66  6.5000000000000E-01 -7.7634570206931E-01  1.3043751334177E+00  5.7217670052169E-01
67  6.6000000000000E-01 -8.1758273890607E-01  1.2987277666969E+00  4.8344239327689E-01
68  6.7000000000000E-01 -8.5494879726138E-01  1.2919857508370E+00  3.9235336736726E-01
69  6.8000000000000E-01 -8.8840834808192E-01  1.2841662081356E+00  2.9957069618859E-01
70  6.9000000000000E-01 -9.1794446629697E-01  1.2752886112899E+00  2.0575073193123E-01
71  7.0000000000000E-01 -9.4355836253594E-01  1.2653747187610E+00  1.1153919751680E-01
72  7.1000000000000E-01 -9.6526883291074E-01  1.2544485017198E+00  1.7565577497801E-02
73  7.2000000000000E-01 -9.8311163259061E-01  1.2425360630169E+00 -7.5562131450890E-02
74  7.3000000000000E-01 -9.9713877916013E-01  1.2296655486520E+00 -1.6726225570882E-01
75  7.4000000000000E-01 -1.0074177919630E+00  1.2158670522455E+00 -2.5698381745088E-01
76  7.5000000000000E-01 -1.0140308737973E+00  1.2011725130329E+00 -3.4421040409216E-01
77  7.6000000000000E-01 -1.0170740414404E+00  1.1856156079300E+00 -4.2846350132133E-01
78  7.7000000000000E-01 -1.0166562115506E+00  1.1692316382244E+00 -5.0930526476134E-01
79  7.8000000000000E-01 -1.0128982485117E+00  1.1520574114681E+00 -5.8634071366841E-01
80  7.9000000000000E-01 -1.0059319807663E+00  1.1341311191518E+00 -6.5921933861913E-01
81  8.0000000000000E-01 -9.9589919212388E-01  1.1154922107471E+00 -7.2763612363285E-01
82  8.1000000000000E-01 -9.8295059442590E-01  1.0961812647077E+00 -7.9133199153837E-01
83  8.2000000000000E-01 -9.6724478782049E-01  1.0762398570185E+00 -8.5009368949685E-01
84  8.3000000000000E-01 -9.4894721473018E-01  1.0557104278778E+00 -9.0375313925962E-01
85  8.4000000000000E-01 -9.2822911340245E-01  1.0346361470944E+00 -9.5218628392690E-01
86  8.5000000000000E-01 -9.0526647671215E-01  1.0130607787684E+00 -9.9531146948897E-01
87  8.6000000000000E-01 -8.8023902164150E-01  9.9102854581799E-01 -1.0330874052449E+00
88  8.7000000000000E-01 -8.5332917460102E-01  9.6858399489656E-01 -1.0655107521760E+00
89  8.8000000000000E-01 -8.2472107747502E-01  9.4577186223265E-01 -1.0926133924428E+00
90  8.9000000000000E-01 -7.9459961898268E-01  9.2263694090485E-01 -1.1144594363267E+00
91  9.0000000000000E-01 -7.6314949564100E-01  8.9922395004625E-01 -1.1311420250924E+00
92  9.1000000000000E-01 -7.3055430630370E-01  8.7557740645145E-01 -1.1427799894021E+00
93  9.2000000000000E-01 -6.9699568393050E-01  8.5174149903703E-01 -1.1495144230457E+00
94  9.3000000000000E-01 -6.6265246791847E-01  8.2775996658304E-01 -1.1515052308809E+00
95  9.4000000000000E-01 -6.2769992000127E-01  8.0367597915858E-01 -1.1489277080404E+00
96  9.5000000000000E-01 -5.9230898639625E-01  7.7953202360918E-01 -1.1419692046982E+00
97  9.6000000000000E-01 -5.5664560855390E-01  7.5536979345768E-01 -1.1308259270557E+00
98  9.7000000000000E-01 -5.2087008454140E-01  7.3123008354380E-01 -1.1156999208068E+00
99  9.8000000000000E-01 -4.8513648277181E-01  7.0715268970051E-01 -1.0967962782292E+00
100  9.9000000000000E-01 -4.4959210947483E-01  6.8317631373820E-01 -1.0743206043764E+00
101  1.0000000000000E+00 -4.1437703099396E-01  6.5933847397996E-01 -1.0484767716706E+00
102  1.0100000000000E+00 -3.7962365168919E-01  6.3567542156439E-01 -1.0194649856995E+00
103  1.0200000000000E+00 -3.4545634792434E-01  6.1222206270438E-01 -9.8748017827828E-01
104  1.0300000000000E+00 -3.1199115832478E-01  5.8901188706381E-01 -9.5271073701671E-01
105  1.0400000000000E+00 -2.7933553020308E-01  5.6607690238674E-01 -9.1533757384627E-01
106  1.0500000000000E+00 -2.4758812177029E-01  5.4344757548752E-01 -8.7553352834020E-01
107  1.0600000000000E+00 -2.1683865947603E-01  5.2115277968407E-01 -8.3346309534132E-01
108  1.0700000000000E+00 -1.8716784955386E-01  4.9921974873107E-01 -7.8928246049720E-01
109  1.0800000000000E+00 -1.5864734258926E-01  4.7767403728481E-01 -7.4313982191001E-01
110  1.0900000000000E+00 -1.3133974967545E-01  4.5653948790725E-01 -6.9517597133883E-01
111  1.1000000000000E+00 -1.0529870847885E-01  4.3583820459301E-01 -6.4552510432834E-01
112  1.1100000000000E+00 -8.0568997301138E-02  4.1559053278032E-01 -5.9431582532015E-01
113  1.1200000000000E+00 -5.7186694998972E-02  3.9581504578455E-01 -5.4167231135778E-01
114  1.1300000000000E+00 -3.5179384407193E-02  3.7652853757176E-01 -4.8771559635617E-01
115  1.1400000000000E+00 -1.4566396706404E-02  3.5774602176917E-01 -4.3256493718003E-01
116  1.1500000000000E+00  4.6409060164151E-03  3.3948073678960E-01 -3.7633922289870E-01
117  1.1600000000000E+00  2.2438812945329E-02  3.2174415692842E-01 -3.1915838955877E-01
118  1.1700000000000E+00  3.8830914546620E-02  3.0454600927334E-01 -2.6114480460287E-01
119  1.1800000000000E+00  5.3827723658777E-02  2.8789429625075E-01 -2.0242458757655E-01
120  1.1900000000000E+00  6.7446271037899E-02  2.7179532361594E-01 -1.4312883695552E-01
121  1.2000000000000E+00  7.9709678847994E-02  2.5625373367979E-01 -8.3394736678426E-02
122  1.2100000000000E+00  9.0646715678234E-02  2.4127254355024E-01 -2.3366520185681E-02
123  1.2200000000000E+00  1.0029133673908E-01  2.2685318815386E-01  3.6803725701196E-02
124  1.2300000000000E+00  1.0868221293619E-01  2.1299556779083E-01  9.6955429966138E-02
125  1.2400000000000E+00  1.1586225254217E-01  1.9969809996530E-01  1.5691908776025E-01
126  1.2500000000000E+00  1.2187811918120E-01  1.8695777522353E-01  2.1651599533380E-01
127  1.2600000000000E+00  1.2677974980819E-01  1.7477021672288E-01  2.7555816844949E-01
128  1.2700000000000E+00  1.3061987630220E-01  1.6312974324696E-01  3.3384843911023E-01
129  1.2800000000000E+00  1.3345355420188E-01  1.5202943537542E-01  3.9118072186506E-01
130  1.2900000000000E+00  1.3533770198742E-01  1.4146120451093E-01  4.4734043808721E-01
131  1.3000000000000E+00  1.3633065416061E-01  1.3141586446147E-01  5.0210508452703E-01
132  1.3100000000000E+00  1.3649173118975E-01  1.2188320527208E-01  5.5524493128522E-01
133  1.3200000000000E+00  1.3588082917028E-01  1.1285206899798E-01  6.0652383421514E-01
134  1.3300000000000E+00  1.3455803180713E-01  1.0431042710924E-01  6.5570014772131E-01
135  1.3400000000000E+00  1.3258324705048E-01  9.6245459216820E-02  7.0252772606149E-01
136  1.3500000000000E+00  1.3001587041397E-01  8.8643632810650E-02  7.4675700460945E-01
137  1.3600000000000E+00  1.2691447667675E-01  8.1490783701632E-02  7.8813615712447E-01
138  1.3700000000000E+00  1.2333654131989E-01  7.4772196862607E-02  8.2641233088884E-01
139  1.3800000000000E+00  1.1933819267565E-01  6.8472687366677E-02  8.6133296856905E-01
140  1.3900000000000E+00  1.1497399537710E-01  6.2576681126127E-02  8.9264723386134E-01
141  1.4000000000000E+00  1.1029676529266E-01  5.7068295140699E-02  9.2010756717803E-01
142  1.4100000000000E+00  1.0535741571339E-01  5.1931416970544E-02  9.4347140786315E-01
143  1.4200000000000E+00  1.0020483414147E-01  4.7149783156521E-02  9.6250313042042E-01
144  1.4300000000000E+00  9.4885788601405E-02  4.2707056318783E-02  9.7697625402660E-01
145  1.4400000000000E+00  8.9444861974894E-02  3.8586900673577E-02  9.8667599682484E-01
146  1.4500000000000E+00  8.3924412444489E-02  3.4773055717971E-02  9.9140225913136E-01
147  1.4600000000000E+00  7.8364557726538E-02  3.1249407842598E-02  9.9097313242307E-01
148  1.4700000000000E+00  7.2803180385851E-02  2.8000059643715E-02  9.8522904370757E-01
149  1.4800000000000E+00  6.7275951157763E-02  2.5009396717349E-02  9.7403765726344E-01
150  1.4900000000000E+00  6.1816366859857E-02  2.2262151730670E-02  9.5729966775255E-01
151  1.5000000000000E+00  5.6455799164206E-02  1.9743465578186E-02  9.3495562988161E-01
152  1.5100000000000E+00  5.1223550222363E-02  1.7438945443493E-02  9.0699398015676E-01
153  1.5200000000000E+00  4.6146910894429E-02  1.5334719600561E-02  8.7346041545593E-01
154  1.5300000000000E+00  4.1251217134299E-02  1.3417488802155E-02  8.3446880103416E-01
155  1.5400000000000E+00  3.6559899927921E-02  1.1674574116735E-02  7.9021378697114E-01
156  1.5500000000000E+00  3.2094524073463E-02  1.0093961089086E-02  7.4098531680085E-01
157  1.5600000000000E+00  2.7874811032865E-02  8.6643401137167E-03  6.8718521502997E-01
158  1.5700000000000E+00  2.3918641075586E-02  7.3751429240576E-03  6.2934604128247E-01
159  1.5800000000000E+00  2.0242030189882E-02  6.2165751285618E-03  5.6815242535419E-01
160  1.5900000000000E+00  1.6859076832553E-02  5.1796457020815E-03  5.0446506022838E-01
161  1.6000000000000E+00  1.3781862785351E-02  4.2561821772630E-03  4.3934603518115E-01
162  1.6100000000000E+00  1.1020377489688E-02  3.4388822197489E-03  3.7409364435896E-01
163  1.6200000000000E+00  8.5816160875590E-03  2.7211521516118E-03  3.1018710168786E-01
164  1.6300000000000E+00  6.4684491644008E-03  2.0957717153072E-03  2.4910079553218E-01
165  1.6400000000000E+00  4.6791252513109E-03  1.5572967838528E-03  1.9218340543446E-01
166  1.6500000000000E+00  3.2066756478152E-03  1.1024922070809E-03  1.4067513300440E-01
167  1.6600000000000E+00  2.0389623435846E-03  7.2852743274260E-04  9.5726281433763E-02
168  1.6700000000000E+00  1.1590925487483E-03  4.3317929467611E-04  5.8384115240584E-02
169  1.6800000000000E+00  5.4589200909291E-04  2.1490494727415E-04  2.9598415257317E-02
170  1.6900000000000E+00  1.7221188429998E-04  7.1896232713491E-05  1.0078466844577E-02
171  1.7000000000000E+00  1.6629716271559E-05  7.4846488882962E-06  1.0644611545836E-03
172  1.7100000000000E+00 -3.3502920522883E-06 -1.5606112353224E-06 -2.2491298787722E-04
173  1.7200000000000E+00  1.2057900879507E-06  5.4110734517020E-07  7.7405293987907E-05
174  1.73 -0. -0. -0.
175  1.74 -0. -0.  0.
176  1.75  0.  0.  0.
177  1.76  0.  0.  0.
178  1.77  0.  0.  0.
179  1.78  0.  0.  0.
180  1.79  0.  0.  0.
181  1.80  0.  0.  0.
182  1.81  0.  0.  0.
183  1.82  0.  0.  0.
184  1.83  0.  0.  0.
185  1.84  0.  0.  0.
186  1.85  0.  0.  0.
187  1.86  0.  0.  0.
188  1.87  0.  0.  0.
189  1.88  0.  0.  0.
190  1.89  0.  0.  0.
191  1.90  0.  0.  0.
192  1.91  0.  0.  0.
193  1.92  0.  0.  0.
194  1.93  0.  0.  0.
195  1.94  0.  0.  0.
196  1.95  0.  0.  0.
197  1.96  0.  0.  0.
198  1.97  0.  0.  0.
199  1.98  0.  0.  0.
200  1.99  0.  0.  0.
201  2.00  0.  0.  0.
202  2.01  0.  0.  0.
203  2.02  0.  0.  0.
204  2.03  0.  0.  0.
205  2.04  0.  0.  0.
206  2.05  0.  0.  0.
207  2.06  0.  0.  0.
208  2.07  0.  0.  0.
209  2.08  0.  0.  0.
210  2.09  0.  0.  0.
211  2.10  0.  0.  0.
212  2.11  0.  0.  0.
213  2.12  0.  0.  0.
214  2.13  0.  0.  0.
215  2.14  0.  0.  0.
216  2.15  0.  0.  0.
217  2.16  0.  0.  0.
218  2.17  0.  0.  0.
219  2.18  0.  0.  0.
220  2.19  0.  0.  0.
221  2.20  0.  0.  0.
222  2.21  0.  0.  0.
223  2.22  0.  0.  0.
224  2.23  0.  0.  0.
225  2.24  0.  0.  0.
226  2.25  0.  0.  0.
227  2.26  0.  0.  0.
228  2.27  0.  0.  0.
229  2.28  0.  0.  0.
230  2.29  0.  0.  0.
231  2.30  0.  0.  0.
232  2.31  0.  0.  0.
233  2.32  0.  0.  0.
234  2.33  0.  0.  0.
235  2.34  0.  0.  0.
236  2.35  0.  0.  0.
237  2.36  0.  0.  0.
238  2.37  0.  0.  0.
239  2.38  0.  0.  0.
240  2.39  0.  0.  0.
241  2.40  0.  0.  0.
242  2.41  0.  0.  0.
243  2.42  0.  0.  0.
244  2.43  0.  0.  0.
245  2.44  0.  0.  0.
246  2.45  0.  0.  0.
247  2.46  0.  0.  0.
248  2.47  0.  0.  0.
249  2.48  0.  0.  0.
250  2.49  0.  0.  0.
251  2.50  0.  0.  0.
252  2.51  0.  0.  0.
253  2.52  0.  0.  0.
254  2.53  0.  0.  0.
255  2.54  0.  0.  0.
256  2.55  0.  0.  0.
257  2.56  0.  0.  0.
258  2.57  0.  0.  0.
259  2.58  0.  0.  0.
260  2.59  0.  0.  0.
261  2.60  0.  0.  0.
262  2.61  0.  0.  0.
263  2.62  0.  0.  0.
264  2.63  0.  0.  0.
265  2.64  0.  0.  0.
266  2.65  0.  0.  0.
267  2.66  0.  0.  0.
268  2.67  0.  0.  0.
269  2.68  0.  0.  0.
270  2.69  0.  0.  0.
271  2.70  0.  0.  0.
272  2.71  0.  0.  0.
273  2.72  0.  0.  0.
274  2.73  0.  0.  0.
275  2.74  0.  0.  0.
276  2.75  0.  0.  0.
277  2.76  0.  0.  0.
278  2.77  0.  0.  0.
279  2.78  0.  0.  0.
280  2.79  0.  0.  0.
281  2.80  0.  0.  0.
282  2.81  0.  0.  0.
283  2.82  0.  0.  0.
284  2.83  0.  0.  0.
285  2.84  0.  0.  0.
286  2.85  0.  0.  0.
287  2.86  0.  0.  0.
288  2.87  0.  0.  0.
289  2.88  0.  0.  0.
290  2.89  0.  0.  0.
291  2.90  0.  0.  0.
292  2.91  0.  0.  0.
293  2.92  0.  0.  0.
294  2.93  0.  0.  0.
295  2.94  0.  0.  0.
296  2.95  0.  0.  0.
297  2.96  0.  0.  0.
298  2.97  0.  0.  0.
299  2.98  0.  0.  0.
300  2.99  0.  0.  0.
301  3.00  0.  0.  0.
302  3.01  0.  0.  0.
303  3.02  0.  0.  0.
304  3.03  0.  0.  0.
305  3.04  0.  0.  0.
306  3.05  0.  0.  0.
307  3.06  0.  0.  0.
308  3.07  0.  0.  0.
309  3.08  0.  0.  0.
310  3.09  0.  0.  0.
311  3.10  0.  0.  0.
312  3.11  0.  0.  0.
313  3.12  0.  0.  0.
314  3.13  0.  0.  0.
315  3.14  0.  0.  0.
316  3.15  0.  0.  0.
317  3.16  0.  0.  0.
318  3.17  0.  0.  0.
319  3.18  0.  0.  0.
320  3.19  0.  0.  0.
321  3.20  0.  0.  0.
322  3.21  0.  0.  0.
323  3.22  0.  0.  0.
324  3.23  0.  0.  0.
325  3.24  0.  0.  0.
326  3.25  0.  0.  0.
327  3.26  0.  0.  0.
328  3.27  0.  0.  0.
329  3.28  0.  0.  0.
330  3.29  0.  0.  0.
331  3.30  0.  0.  0.
332  3.31  0.  0.  0.
333  3.32  0.  0.  0.
334  3.33  0.  0.  0.
335  3.34  0.  0.  0.
336  3.35  0.  0.  0.
337  3.36  0.  0.  0.
338  3.37  0.  0.  0.
339  3.38  0.  0.  0.
340  3.39  0.  0.  0.
341  3.40  0.  0.  0.
342  3.41  0.  0.  0.
343  3.42  0.  0.  0.
344  3.43  0.  0.  0.
345  3.44  0.  0.  0.
346  3.45  0.  0.  0.
347  3.46  0.  0.  0.
348  3.47  0.  0.  0.
349  3.48  0.  0.  0.
350  3.49  0.  0.  0.
351  3.50  0.  0.  0.
352  3.51  0.  0.  0.
353  3.52  0.  0.  0.
354  3.53  0.  0.  0.
355  3.54  0.  0.  0.
356  3.55  0.  0.  0.
357  3.56  0.  0.  0.
358  3.57  0.  0.  0.
359  3.58  0.  0.  0.
360  3.59  0.  0.  0.
361  3.60  0.  0.  0.
362  3.61  0.  0.  0.
363  3.62  0.  0.  0.
364  3.63  0.  0.  0.
365  3.64  0.  0.  0.
366  3.65  0.  0.  0.
367  3.66  0.  0.  0.
368  3.67  0.  0.  0.
369  3.68  0.  0.  0.
370  3.69  0.  0.  0.
371  3.70  0.  0.  0.
372  3.71  0.  0.  0.
373  3.72  0.  0.  0.
374  3.73  0.  0.  0.
375  3.74  0.  0.  0.
376  3.75  0.  0.  0.
377  3.76  0.  0.  0.
378  3.77  0.  0.  0.
379  3.78  0.  0.  0.
380  3.79  0.  0.  0.
381  3.80  0.  0.  0.
382  3.81  0.  0.  0.
383  3.82  0.  0.  0.
384  3.83  0.  0.  0.
385  3.84  0.  0.  0.
386  3.85  0.  0.  0.
387  3.86  0.  0.  0.
388  3.87  0.  0.  0.
389  3.88  0.  0.  0.
390  3.89  0.  0.  0.
391  3.90  0.  0.  0.
392  3.91  0.  0.  0.
393  3.92  0.  0.  0.
394  3.93  0.  0.  0.
395  3.94  0.  0.  0.
396  3.95  0.  0.  0.
397  3.96  0.  0.  0.
398  3.97  0.  0.  0.
399  3.98  0.  0.  0.
400  3.99  0.  0.  0.
401  4.00  0.  0.  0.
402  4.01  0.  0.  0.
403  4.02  0.  0.  0.
404  4.03  0.  0.  0.
405  4.04  0.  0.  0.
406  4.05  0.  0.  0.
407  4.06  0.  0.  0.
408  4.07  0.  0.  0.
409  4.08  0.  0.  0.
410  4.09  0.  0.  0.
411  4.10  0.  0.  0.
412  4.11  0.  0.  0.
413  4.12  0.  0.  0.
414  4.13  0.  0.  0.
415  4.14  0.  0.  0.
416  4.15  0.  0.  0.
417  4.16  0.  0.  0.
418  4.17  0.  0.  0.
419  4.18  0.  0.  0.
420  4.19  0.  0.  0.
421  4.20  0.  0.  0.
422  4.21  0.  0.  0.
423  4.22  0.  0.  0.
424  4.23  0.  0.  0.
425  4.24  0.  0.  0.
426  4.25  0.  0.  0.
427  4.26  0.  0.  0.
428  4.27  0.  0.  0.
429  4.28  0.  0.  0.
430  4.29  0.  0.  0.
431  4.30  0.  0.  0.
432  4.31  0.  0.  0.
433  4.32  0.  0.  0.
434  4.33  0.  0.  0.
435  4.34  0.  0.  0.
436  4.35  0.  0.  0.
437  4.36  0.  0.  0.
438  4.37  0.  0.  0.
439  4.38  0.  0.  0.
440  4.39  0.  0.  0.
441  4.40  0.  0.  0.
442  4.41  0.  0.  0.
443  4.42  0.  0.  0.
444  4.43  0.  0.  0.
445  4.44  0.  0.  0.
446  4.45  0.  0.  0.
447  4.46  0.  0.  0.
448  4.47  0.  0.  0.
449  4.48  0.  0.  0.
450  4.49  0.  0.  0.
451  4.50  0.  0.  0.
452  4.51  0.  0.  0.
453  4.52  0.  0.  0.
454  4.53  0.  0.  0.
455  4.54  0.  0.  0.
456  4.55  0.  0.  0.
457  4.56  0.  0.  0.
458  4.57  0.  0.  0.
459  4.58  0.  0.  0.
460  4.59  0.  0.  0.
461  4.60  0.  0.  0.
462  4.61  0.  0.  0.
463  4.62  0.  0.  0.
464  4.63  0.  0.  0.
465  4.64  0.  0.  0.
466  4.65  0.  0.  0.
467  4.66  0.  0.  0.
468  4.67  0.  0.  0.
469  4.68  0.  0.  0.
470  4.69  0.  0.  0.
471  4.70  0.  0.  0.
472  4.71  0.  0.  0.
473  4.72  0.  0.  0.
474  4.73  0.  0.  0.
475  4.74  0.  0.  0.
476  4.75  0.  0.  0.
477  4.76  0.  0.  0.
478  4.77  0.  0.  0.
479  4.78  0.  0.  0.
480  4.79  0.  0.  0.
481  4.80  0.  0.  0.
482  4.81  0.  0.  0.
483  4.82  0.  0.  0.
484  4.83  0.  0.  0.
485  4.84  0.  0.  0.
486  4.85  0.  0.  0.
487  4.86  0.  0.  0.
488  4.87  0.  0.  0.
489  4.88  0.  0.  0.
490  4.89  0.  0.  0.
491  4.90  0.  0.  0.
492  4.91  0.  0.  0.
493  4.92  0.  0.  0.
494  4.93  0.  0.  0.
495  4.94  0.  0.  0.
496  4.95  0.  0.  0.
497  4.96  0.  0.  0.
498  4.97  0.  0.  0.
499  4.98  0.  0.  0.
500  4.99  0.  0.  0.
501  5.00  0.  0.  0.
502  5.01  0.  0.  0.
503  5.02  0.  0.  0.
504  5.03  0.  0.  0.
505  5.04  0.  0.  0.
506  5.05  0.  0.  0.
507  5.06  0.  0.  0.
508  5.07  0.  0.  0.
509  5.08  0.  0.  0.
510  5.09  0.  0.  0.
511  5.10  0.  0.  0.
512  5.11  0.  0.  0.
513  5.12  0.  0.  0.
514  5.13  0.  0.  0.
515  5.14  0.  0.  0.
516  5.15  0.  0.  0.
517  5.16  0.  0.  0.
518  5.17  0.  0.  0.
519  5.18  0.  0.  0.
520  5.19  0.  0.  0.
521  5.20  0.  0.  0.
522  5.21  0.  0.  0.
523  5.22  0.  0.  0.
524  5.23  0.  0.  0.
525  5.24  0.  0.  0.
526  5.25  0.  0.  0.
527  5.26  0.  0.  0.
528  5.27  0.  0.  0.
529  5.28  0.  0.  0.
530  5.29  0.  0.  0.
531  5.30  0.  0.  0.
532  5.31  0.  0.  0.
533  5.32  0.  0.  0.
534  5.33  0.  0.  0.
535  5.34  0.  0.  0.
536  5.35  0.  0.  0.
537  5.36  0.  0.  0.
538  5.37  0.  0.  0.
539  5.38  0.  0.  0.
540  5.39  0.  0.  0.
541  5.40  0.  0.  0.
542  5.41  0.  0.  0.
543  5.42  0.  0.  0.
544  5.43  0.  0.  0.
545  5.44  0.  0.  0.
546  5.45  0.  0.  0.
547  5.46  0.  0.  0.
548  5.47  0.  0.  0.
549  5.48  0.  0.  0.
550  5.49  0.  0.  0.
551  5.50  0.  0.  0.
552  5.51  0.  0.  0.
553  5.52  0.  0.  0.
554  5.53  0.  0.  0.
555  5.54  0.  0.  0.
556  5.55  0.  0.  0.
557  5.56  0.  0.  0.
558  5.57  0.  0.  0.
559  5.58  0.  0.  0.
560  5.59  0.  0.  0.
561  5.60  0.  0.  0.
562  5.61  0.  0.  0.
563  5.62  0.  0.  0.
564  5.63  0.  0.  0.
565  5.64  0.  0.  0.
566  5.65  0.  0.  0.
567  5.66  0.  0.  0.
568  5.67  0.  0.  0.
569  5.68  0.  0.  0.
570  5.69  0.  0.  0.
571  5.70  0.  0.  0.
572  5.71  0.  0.  0.
573  5.72  0.  0.  0.
574  5.73  0.  0.  0.
575  5.74  0.  0.  0.
576  5.75  0.  0.  0.
577  5.76  0.  0.  0.
578  5.77  0.  0.  0.
579  5.78  0.  0.  0.
580  5.79  0.  0.  0.
581  5.80  0.  0.  0.
582  5.81  0.  0.  0.
583  5.82  0.  0.  0.
584  5.83  0.  0.  0.
585  5.84  0.  0.  0.
586  5.85  0.  0.  0.
587  5.86  0.  0.  0.
588  5.87  0.  0.  0.
589  5.88  0.  0.  0.
590  5.89  0.  0.  0.
591  5.90  0.  0.  0.
592  5.91  0.  0.  0.
593  5.92  0.  0.  0.
594  5.93  0.  0.  0.
595  5.94  0.  0.  0.
596  5.95  0.  0.  0.
597  5.96  0.  0.  0.
598  5.97  0.  0.  0.
599  5.98  0.  0.  0.
600  5.99  0.  0.  0.
1                         5.7838030641394E+00 -1.8901281481799E+00
1  0.0000000000000E+00  3.8985575878669E-10 -3.1200809817722E-10
2  1.0000000000000E-02  2.5655609948142E-03  1.5304323644210E-04
3  2.0000000000000E-02  1.0247256328726E-02  6.1373736124301E-04
4  3.0000000000000E-02  2.3000199475961E-02  1.3867591985444E-03
5  4.0000000000000E-02  4.0749834167870E-02  2.4798488890059E-03
6  5.0000000000000E-02  6.3392315790099E-02  3.9037286496022E-03
7  6.0000000000000E-02  9.0795044286921E-02  5.6719902470956E-03
8  7.0000000000000E-02  1.2279734746783E-01  7.8009523751107E-03
9  8.0000000000000E-02  1.5921131322169E-01  1.0309489436749E-02
10  9.0000000000000E-02  1.9982276870137E-01  1.3218833526418E-02
11  1.0000000000000E-01  2.4439240403908E-01  1.6552351671991E-02
12  1.1000000000000E-01  2.9265703758281E-01  2.0335300638418E-02
13  1.2000000000000E-01  3.4433101900363E-01  2.4594561803158E-02
14  1.3000000000000E-01  3.9910776591060E-01  2.9358358790124E-02
15  1.4000000000000E-01  4.5666142882485E-01  3.4655960689953E-02
16  1.5000000000000E-01  5.1664867851172E-01  4.0517373799222E-02
17  1.6000000000000E-01  5.7871060875421E-01  4.6973024878682E-02
18  1.7000000000000E-01  6.4247474668266E-01  5.4053438960543E-02
19  1.8000000000000E-01  7.0755716176427E-01  6.1788914727682E-02
20  1.9000000000000E-01  7.7356466351646E-01  7.0209200444190E-02
21  2.0000000000000E-01  8.4009707695470E-01  7.9343173338466E-02
22  2.1000000000000E-01  9.0674958373609E-01  8.9218525229109E-02
23  2.2000000000000E-01  9.7311511593360E-01  9.9861457042478E-02
24  2.3000000000000E-01  1.0387867883920E+00  1.1129638470212E-01
25  2.4000000000000E-01  1.1033603546957E+00  1.2354565867724E-01
26  2.5000000000000E-01  1.1664366709419E+00  1.3662929926392E-01
27  2.6000000000000E-01  1.2276241507822E+00  1.5056474944249E-01
28  2.7000000000000E-01  1.2865411945863E+00  1.6536664691118E-01
29  2.8000000000000E-01  1.3428185751208E+00  1.8104661664457E-01
30  2.9000000000000E-01  1.3961017618344E+00  1.9761308506873E-01
31  3.0000000000000E-01  1.4460531657129E+00  2.1507111668807E-01
32  3.1000000000000E-01  1.4923542867383E+00  2.3342227374531E-01
33  3.2000000000000E-01  1.5347077462466E+00  2.5266449924976E-01
34  3.3000000000000E-01  1.5728391869566E+00  2.7279202347325E-01
35  3.4000000000000E-01  1.6064990241288E+00  2.9379529379164E-01
36  3.5000000000000E-01  1.6354640322103E+00  3.1566092754454E-01
37  3.6000000000000E-01  1.6595387524364E+00  3.3837168740058E-01
38  3.7000000000000E-01  1.6785567081716E+00  3.6190647855071E-01
39  3.8000000000000E-01  1.6923814162823E+00  3.8624036691061E-01
40  3.9000000000000E-01  1.7009071845242E+00  4.1134461739540E-01
41  4.0000000000000E-01  1.7040596867807E+00  4.3718675123628E-01
42  4.1000000000000E-01  1.7017963099830E+00  4.6373062124003E-01
43  4.2000000000000E-01  1.6941062686648E+00  4.9093650384718E-01
44  4.3000000000000E-01  1.6810104853095E+00  5.1876120682307E-01
45  4.4000000000000E-01  1.6625612369333E+00  5.4715819141628E-01
46  4.5000000000000E-01  1.6388415706560E+00  5.7607770783902E-01
47  4.6000000000000E-01  1.6099644933376E+00  6.0546694296264E-01
48  4.7000000000000E-01  1.5760719426487E+00  6.3527017917542E-01
49  4.8000000000000E-01  1.5373335491836E+00  6.6542896341688E-01
50  4.9000000000000E-01  1.4939452013692E+00  6.9588228548009E-01
51  5.0000000000000E-01  1.4461274269487E+00  7.2656676475818E-01
52  5.1000000000000E-01  1.3941236066946E+00  7.5741684469963E-01
53  5.2000000000000E-01  1.3381980377030E+00  7.8836499432684E-01
54  5.3000000000000E-01  1.2786338651150E+00  8.1934191626042E-01
55  5.4000000000000E-01  1.2157309023763E+00  8.5027676077481E-01
56  5.5000000000000E-01  1.1498033611716E+00  8.8109734548614E-01
57  5.6000000000000E-01  1.0811775129309E+00  9.1173038033971E-01
58  5.7000000000000E-01  1.0101893042944E+00  9.4210169761746E-01
59  5.8000000000000E-01  9.3718194913137E-01  9.7213648672585E-01
60  5.9000000000000E-01  8.6250351963867E-01  1.0017595335491E+00
61  6.0000000000000E-01  7.8650455868519E-01  1.0308954641601E+00
62  6.1000000000000E-01  7.0953573494091E-01  1.0594689926724E+00
63  6.2000000000000E-01  6.3194556143034E-01  1.0874051729893E+00
64  6.3000000000000E-01  5.5407819700169E-01  1.1146296541643E+00
65  6.4000000000000E-01  4.7627134881987E-01  1.1410689390223E+00
66  6.5000000000000E-01  3.9885429239657E-01  1.1666506456209E+00
67  6.6000000000000E-01  3.2214602388858E-01  1.1913037710359E+00
68  6.7000000000000E-01  2.4645355745525E-01  1.2149589568570E+00
69  6.8000000000000E-01  1.7207037839660E-01  1.2375487556639E+00
70  6.9000000000000E-01  9.9275060629266E-02  1.2590078976379E+00
71  7.0000000000000E-01  2.8330054830278E-02  1.2792735563344E+00
72  7.1000000000000E-01 -4.0519348675137E-02  1.2982856125201E+00
73  7.2000000000000E-01 -1.0704588045227E-01  1.3159869148499E+00
74  7.3000000000000E-01 -1.7104097629740E-01  1.3323235360393E+00
75  7.4000000000000E-01 -2.3231528788419E-01  1.3472450230736E+00
76  7.5000000000000E-01 -2.9069902424191E-01  1.3607046398923E+00