Ub    ONCVPSP-4.0.1  r_core=   1.70383   1.60490   1.85267
    120.0000     28.0000      211120    zatom,zion,pspd
     8      11   2     4   600     0    pspcod,pspxc,lmax,lloc,mmax,r2well
  5.99000000  5.00000000  0.00000000    rchrg fchrg qchrg
     3     2     2     0     0    nproj
     1     1           extension_switch
   0                         7.3494920022722E+00 -4.4858591598559E+00 -1.0472324206507E-01
     1  0.0000000000000E+00 -3.4875069498952E-10  2.7297997196030E-11  1.1075814709827E-09
     2  1.0000000000000E-02  1.0556282266232E-01  2.8867458510875E-02 -9.2487410695859E-02
     3  2.0000000000000E-02  2.1068263645575E-01  5.7737393435836E-02 -1.8416481066806E-01
     4  3.0000000000000E-02  3.1491866663150E-01  8.6612141272530E-02 -2.7422888841889E-01
     5  4.0000000000000E-02  4.1783459345780E-01  1.1549375968310E-01 -3.6188967952929E-01
     6  5.0000000000000E-02  5.1900074675907E-01  1.4438389056293E-01 -4.4637711203736E-01
     7  6.0000000000000E-02  6.1799626114001E-01  1.7328362607373E-01 -5.2694739878729E-01
     8  7.0000000000000E-02  7.1441117920071E-01  2.0219337859687E-01 -6.0288922701749E-01
     9  8.0000000000000E-02  8.0784849039787E-01  2.3111275553562E-01 -6.7352969656463E-01
    10  9.0000000000000E-02  8.9792609363833E-01  2.6004043986102E-01 -7.3823995945849E-01
    11  1.0000000000000E-01  9.8427867220155E-01  2.8897407725658E-01 -7.9644051538024E-01
    12  1.1000000000000E-01  1.0665594701738E+00  3.1791017067074E-01 -8.4760611946133E-01
    13  1.2000000000000E-01  1.1444419602344E+00  3.4684398303528E-01 -8.9127026121827E-01
    14  1.3000000000000E-01  1.2176213933580E+00  3.7576944885097E-01 -9.2702917606367E-01
    15  1.4000000000000E-01  1.2858162217834E+00  4.0467909528101E-01 -9.5454535379784E-01
    16  1.5000000000000E-01  1.3487693874385E+00  4.3356397332719E-01 -9.7355051179140E-01
    17  1.6000000000000E-01  1.4062494689041E+00  4.6241359959482E-01 -9.8384800419150E-01
    18  1.7000000000000E-01  1.4580516809307E+00  4.9121590907999E-01 -9.8531464245041E-01
    19  1.8000000000000E-01  1.5039987214944E+00  5.1995721933783E-01 -9.7790190673901E-01
    20  1.9000000000000E-01  1.5439414623750E+00  5.4862220631325E-01 -9.6163653239399E-01
    21  2.0000000000000E-01  1.5777594802631E+00  5.7719389203694E-01 -9.3662046040845E-01
    22  2.1000000000000E-01  1.6053614264376E+00  6.0565364430984E-01 -9.0303014609952E-01
    23  2.2000000000000E-01  1.6266852340965E+00  6.3398118841903E-01 -8.6111522544087E-01
    24  2.3000000000000E-01  1.6416981634701E+00  6.6215463084836E-01 -8.1119654409334E-01
    25  2.4000000000000E-01  1.6503966858753E+00  6.9015049486774E-01 -7.5366355985967E-01
    26  2.5000000000000E-01  1.6528062088931E+00  7.1794376780745E-01 -6.8897113508462E-01
    27  2.6000000000000E-01  1.6489806458440E+00  7.4550795974774E-01 -6.1763574135384E-01
    28  2.7000000000000E-01  1.6390018337044E+00  7.7281517328044E-01 -5.4023110466668E-01
    29  2.8000000000000E-01  1.6229788045353E+00  7.9983618392879E-01 -4.5738332499574E-01
    30  2.9000000000000E-01  1.6010469163818E+00  8.2654053074417E-01 -3.6976550973515E-01
    31  3.0000000000000E-01  1.5733668504365E+00  8.5289661653534E-01 -2.7809196589914E-01
    32  3.1000000000000E-01  1.5401234820436E+00  8.7887181712615E-01 -1.8311200101697E-01
    33  3.2000000000000E-01  1.5015246338389E+00  9.0443259898343E-01 -8.5603387361354E-02
    34  3.3000000000000E-01  1.4577997199763E+00  9.2954464450679E-01  1.3634451573815E-02
    35  3.4000000000000E-01  1.4091982909789E+00  9.5417298422793E-01  1.1378746968332E-01
    36  3.5000000000000E-01  1.3559884892619E+00  9.7828213512778E-01  2.1403417610480E-01
    37  3.6000000000000E-01  1.2984554258108E+00  1.0018362442468E+00  3.1355289392671E-01
    38  3.7000000000000E-01  1.2368994888583E+00  1.0247992367358E+00  4.1152902952720E-01
    39  3.8000000000000E-01  1.1716345956731E+00  1.0471349674744E+00  5.0716228120421E-01
    40  3.9000000000000E-01  1.1029863987750E+00  1.0688073753665E+00  5.9967371545156E-01
    41  4.0000000000000E-01  1.0312904579988E+00  1.0897806394156E+00  6.8831263971990E-01
    42  4.1000000000000E-01  9.5689038985950E-01  1.1100193356761E+00  7.7236320183370E-01
    43  4.2000000000000E-01  8.8013600562577E-01  1.1294885941827E+00  8.5115064841191E-01
    44  4.3000000000000E-01  8.0138144937202E-01  1.1481542549648E+00  9.2404717763187E-01
    45  4.4000000000000E-01  7.2098334707862E-01  1.1659830222694E+00  9.9047732552554E-01
    46  4.5000000000000E-01  6.3929897756536E-01  1.1829426161333E+00  1.0499228296038E+00
    47  4.6000000000000E-01  5.5668447569299E-01  1.1990019204722E+00  1.1019269189943E+00
    48  4.7000000000000E-01  4.7349307784885E-01  1.2141311268818E+00  1.1460979863412E+00
    49  4.8000000000000E-01  3.9007341925205E-01  1.2283018733799E+00  1.1821126034330E+00
    50  4.9000000000000E-01  3.0676789207566E-01  1.2414873773605E+00  1.2097178497832E+00
    51  5.0000000000000E-01  2.2391107279346E-01  1.2536625620679E+00  1.2287329311260E+00
    52  5.1000000000000E-01  1.4182822652260E-01  1.2648041759494E+00  1.2390500728949E+00
    53  5.2000000000000E-01  6.0833895457305E-02  1.2748909042915E+00  1.2406346821314E+00
    54  5.3000000000000E-01 -1.8769422222047E-02  1.2839034725988E+00  1.2335247798074E+00
    55  5.4000000000000E-01 -9.6692497317935E-02  1.2918247412257E+00  1.2178297141268E+00
    56  5.5000000000000E-01 -1.7266049357574E-01  1.2986397908311E+00  1.1937281738771E+00
    57  5.6000000000000E-01 -2.4641398652169E-01  1.3043359982819E+00  1.1614655292182E+00
    58  5.7000000000000E-01 -3.1770987384799E-01  1.3089031026893E+00  1.1213505353039E+00
    59  5.8000000000000E-01 -3.8632217479805E-01  1.3123332613228E+00  1.0737514416932E+00
    60  5.9000000000000E-01 -4.5204271678479E-01  1.3146210952071E+00  1.0190915575679E+00
    61  6.0000000000000E-01 -5.1468170824406E-01  1.3157637242633E+00  9.5784432914984E-01
    62  6.1000000000000E-01 -5.7406819747817E-01  1.3157607919197E+00  8.9052799138332E-01
    63  6.2000000000000E-01 -6.3005041797636E-01  1.3146144791702E+00  8.1769986077185E-01
    64  6.3000000000000E-01 -6.8249602140357E-01  1.3123295081211E+00  7.3995034019916E-01
    65  6.4000000000000E-01 -7.3129220012282E-01  1.3089131351153E+00  6.5789670953077E-01
    66  6.5000000000000E-01 -7.7634570175442E-01  1.3043751335838E+00  5.7217677776783E-01
    67  6.6000000000000E-01 -8.1758273887442E-01  1.2987277668184E+00  4.8344247344206E-01
    68  6.7000000000000E-01 -8.5494879751083E-01  1.2919857509134E+00  3.9235344981042E-01
    69  6.8000000000000E-01 -8.8840834860796E-01  1.2841662081665E+00  2.9957078023204E-01
    70  6.9000000000000E-01 -9.1794446709284E-01  1.2752886112751E+00  2.0575081686682E-01
    71  7.0000000000000E-01 -9.4355836359274E-01  1.2653747187008E+00  1.1153928261221E-01
    72  7.1000000000000E-01 -9.6526883421756E-01  1.2544485016148E+00  1.7565662003872E-02
    73  7.2000000000000E-01 -9.8311163413470E-01  1.2425360628676E+00 -7.5562048293047E-02
    74  7.3000000000000E-01 -9.9713878092704E-01  1.2296655484596E+00 -1.6726217466066E-01
    75  7.4000000000000E-01 -1.0074177939368E+00  1.2158670520110E+00 -2.5698373926943E-01
    76  7.5000000000000E-01 -1.0140308759607E+00  1.2011725127579E+00 -3.4421032952227E-01
    77  7.6000000000000E-01 -1.0170740437750E+00  1.1856156076161E+00 -4.2846343109034E-01
    78  7.7000000000000E-01 -1.0166562140373E+00  1.1692316378733E+00 -5.0930519956949E-01
    79  7.8000000000000E-01 -1.0128982511303E+00  1.1520574110820E+00 -5.8634065418562E-01
    80  7.9000000000000E-01 -1.0059319834964E+00  1.1341311187327E+00 -6.5921928547684E-01
    81  8.0000000000000E-01 -9.9589919494477E-01  1.1154922102972E+00 -7.2763607741866E-01
    82  8.1000000000000E-01 -9.8295059731668E-01  1.0961812642295E+00 -7.9133195279143E-01
    83  8.2000000000000E-01 -9.6724479076039E-01  1.0762398565143E+00 -8.5009365870229E-01
    84  8.3000000000000E-01 -9.4894721769871E-01  1.0557104273501E+00 -9.0375311684533E-01
    85  8.4000000000000E-01 -9.2822911637960E-01  1.0346361465457E+00 -9.5218627025901E-01
    86  8.5000000000000E-01 -9.0526647967850E-01  1.0130607782014E+00 -9.9531146486960E-01
    87  8.6000000000000E-01 -8.8023902457841E-01  9.9102854523511E-01 -1.0330874099095E+00
    88  8.7000000000000E-01 -8.5332917749073E-01  9.6858399430043E-01 -1.0655107662913E+00
    89  8.8000000000000E-01 -8.2472108030079E-01  9.4577186162580E-01 -1.0926134161070E+00
    90  8.9000000000000E-01 -7.9459962172887E-01  9.2263694028977E-01 -1.1144594695675E+00
    91  9.0000000000000E-01 -7.6314949829316E-01  8.9922394942539E-01 -1.1311420678689E+00
    92  9.1000000000000E-01 -7.3055430884862E-01  8.7557740582719E-01 -1.1427800416043E+00
    93  9.2000000000000E-01 -6.9699568635626E-01  8.5174149841167E-01 -1.1495144844974E+00
    94  9.3000000000000E-01 -6.6265247021449E-01  8.2775996595882E-01 -1.1515053013403E+00
    95  9.4000000000000E-01 -6.2769992215829E-01  8.0367597853764E-01 -1.1489277872046E+00
    96  9.5000000000000E-01 -5.9230898840632E-01  7.7953202299357E-01 -1.1419692922051E+00
    97  9.6000000000000E-01 -5.5664561041038E-01  7.5536979284934E-01 -1.1308260224890E+00
    98  9.7000000000000E-01 -5.2087008623891E-01  7.3123008294459E-01 -1.1157000236991E+00
    99  9.8000000000000E-01 -4.8513648430619E-01  7.0715268911220E-01 -1.0967963880677E+00
   100  9.9000000000000E-01 -4.4959211084307E-01  6.8317631316243E-01 -1.0743207206073E+00
   101  1.0000000000000E+00 -4.1437703219411E-01  6.5933847341829E-01 -1.0484768937049E+00
   102  1.0100000000000E+00 -3.7962365272031E-01  6.3567542101827E-01 -1.0194651129188E+00
   103  1.0200000000000E+00 -3.4545634878640E-01  6.1222206217518E-01 -9.8748031003975E-01
   104  1.0300000000000E+00 -3.1199115901855E-01  5.8901188655280E-01 -9.5271087266039E-01
   105  1.0400000000000E+00 -2.7933553073005E-01  5.6607690189509E-01 -9.1533771270046E-01
   106  1.0500000000000E+00 -2.4758812213255E-01  5.4344757501633E-01 -8.7553366972787E-01
   107  1.0600000000000E+00 -2.1683865967619E-01  5.2115277923435E-01 -8.3346323858693E-01
   108  1.0700000000000E+00 -1.8716784959492E-01  4.9921974830375E-01 -7.8928260493179E-01
   109  1.0800000000000E+00 -1.5864734247454E-01  4.7767403688076E-01 -7.4313996687753E-01
   110  1.0900000000000E+00 -1.3133974940848E-01  4.5653948752724E-01 -6.9517611620348E-01
   111  1.1000000000000E+00 -1.0529870806328E-01  4.3583820423777E-01 -6.4552524847809E-01
   112  1.1100000000000E+00 -8.0568996740650E-02  4.1559053245050E-01 -5.9431596817335E-01
   113  1.1200000000000E+00 -5.7186694297208E-02  3.9581504548074E-01 -5.4167245236873E-01
   114  1.1300000000000E+00 -3.5179383567683E-02  3.7652853729449E-01 -4.8771573501880E-01
   115  1.1400000000000E+00 -1.4566395732503E-02  3.5774602151891E-01 -4.3256507303367E-01
   116  1.1500000000000E+00  4.6409071215708E-03  3.3948073656675E-01 -3.7633935552984E-01
   117  1.1600000000000E+00  2.2438814178865E-02  3.2174415673333E-01 -3.1915851860658E-01
   118  1.1700000000000E+00  3.8830915905973E-02  3.0454600910630E-01 -2.6114492976215E-01
   119  1.1800000000000E+00  5.3827725141694E-02  2.8789429611198E-01 -2.0242470859823E-01
   120  1.1900000000000E+00  6.7446272642451E-02  2.7179532350561E-01 -1.4312895365025E-01
   121  1.2000000000000E+00  7.9709680572591E-02  2.5625373359798E-01 -8.3394848917152E-02
   122  1.2100000000000E+00  9.0646717521604E-02  2.4127254349698E-01 -2.3366627901207E-02
   123  1.2200000000000E+00  1.0029133870025E-01  2.2685318812912E-01  3.6803622516220E-02
   124  1.2300000000000E+00  1.0868221501446E-01  2.1299556779448E-01  9.6955331258599E-02
   125  1.2400000000000E+00  1.1586225473707E-01  1.9969809999714E-01  1.5691899341776E-01
   126  1.2500000000000E+00  1.2187812149245E-01  1.8695777528329E-01  2.1651590518686E-01
   127  1.2600000000000E+00  1.2677975223563E-01  1.7477021681020E-01  2.7555808227587E-01
   128  1.2700000000000E+00  1.3061987884574E-01  1.6312974336140E-01  3.3384835663599E-01
   129  1.2800000000000E+00  1.3345355686142E-01  1.5202943551643E-01  3.9118064277064E-01
   130  1.2900000000000E+00  1.3533770476277E-01  1.4146120467789E-01  4.4734036201152E-01
   131  1.3000000000000E+00  1.3633065705142E-01  1.3141586465364E-01  5.0210501107222E-01
   132  1.3100000000000E+00  1.3649173419540E-01  1.2188320548864E-01  5.5524486002462E-01
   133  1.3200000000000E+00  1.3588083228981E-01  1.1285206923802E-01  6.0652376469904E-01
   134  1.3300000000000E+00  1.3455803503909E-01  1.0431042737171E-01  6.5570007948446E-01
   135  1.3400000000000E+00  1.3258325039289E-01  9.6245459500603E-02  7.0252765863073E-01
   136  1.3500000000000E+00  1.3001587386416E-01  8.8643633114509E-02  7.4675693751267E-01
   137  1.3600000000000E+00  1.2691448023130E-01  8.1490784024231E-02  7.8813608989903E-01
   138  1.3700000000000E+00  1.2333654497450E-01  7.4772197202504E-02  8.2641226309050E-01
   139  1.3800000000000E+00  1.1933819642500E-01  6.8472687722330E-02  8.6133289978205E-01
   140  1.3900000000000E+00  1.1497399921482E-01  6.2576681495890E-02  8.9264716370648E-01
   141  1.4000000000000E+00  1.1029676921115E-01  5.7068295522831E-02  9.2010749532348E-01
   142  1.4100000000000E+00  1.0535741970380E-01  5.1931417363204E-02  9.4347133403279E-01
   143  1.4200000000000E+00  1.0020483819357E-01  4.7149783557779E-02  9.6250305440351E-01
   144  1.4300000000000E+00  9.4885792703502E-02  4.2707056726619E-02  9.7697617568460E-01
   145  1.4400000000000E+00  8.9444866113823E-02  3.8586901085892E-02  9.8667591610171E-01
   146  1.4500000000000E+00  8.3924416605524E-02  3.4773056132586E-02  9.9140217605784E-01
   147  1.4600000000000E+00  7.8364561893417E-02  3.1249408257270E-02  9.9097304712377E-01
   148  1.4700000000000E+00  7.2803184540758E-02  2.8000060056141E-02  9.8522895640427E-01
   149  1.4800000000000E+00  6.7275955281395E-02  2.5009397125186E-02  9.7403756827925E-01
   150  1.4900000000000E+00  6.1816370931493E-02  2.2262152131535E-02  9.5729957751044E-01
   151  1.5000000000000E+00  5.6455803161850E-02  1.9743465969687E-02  9.3495553890368E-01
   152  1.5100000000000E+00  5.1223554122931E-02  1.7438945823242E-02  9.0699388906000E-01
   153  1.5200000000000E+00  4.6146914674000E-02  1.5334719966199E-02  8.7346032494374E-01
   154  1.5300000000000E+00  4.1251220768429E-02  1.3417489151378E-02  8.3446871188591E-01
   155  1.5400000000000E+00  3.6559903392061E-02  1.1674574447334E-02  7.9021370002613E-01
   156  1.5500000000000E+00  3.2094527343445E-02  1.0093961398980E-02  7.4098523294101E-01
   157  1.5600000000000E+00  2.7874814085508E-02  8.6643404010007E-03  6.8718513515365E-01
   158  1.5700000000000E+00  2.3918643889424E-02  7.3751431870543E-03  6.2934596627531E-01
   159  1.5800000000000E+00  2.0242032746000E-02  6.2165753658869E-03  5.6815235605395E-01
   160  1.5900000000000E+00  1.6859079115599E-02  5.1796459127134E-03  5.0446499738349E-01
   161  1.6000000000000E+00  1.3781864784678E-02  4.2561823606262E-03  4.3934597940039E-01
   162  1.6100000000000E+00  1.1020379200744E-02  3.4388823758128E-03  3.7409359606054E-01
   163  1.6200000000000E+00  8.5816175128305E-03  2.7211522809532E-03  3.1018706103527E-01
   164  1.6300000000000E+00  6.4684503136923E-03  2.0957718191260E-03  2.4910076245382E-01
   165  1.6400000000000E+00  4.6791261411492E-03  1.5572968639145E-03  1.9218337963771E-01
   166  1.6500000000000E+00  3.2066763008516E-03  1.1024922656594E-03  1.4067511397102E-01
   167  1.6600000000000E+00  2.0389627883492E-03  7.2852747259347E-04  9.5726268444052E-02
   168  1.6700000000000E+00  1.1590928191916E-03  4.3317931898584E-04  5.8384107380534E-02
   169  1.6800000000000E+00  5.4589214412088E-04  2.1490495961624E-04  2.9598411419901E-02
   170  1.6900000000000E+00  1.7221192690456E-04  7.1896236951107E-05  1.0078465762477E-02
   171  1.7000000000000E+00  1.6629714952570E-05  7.4846494084252E-06  1.0644613688820E-03
   172  1.7100000000000E+00 -3.3502954517989E-06 -1.5606112979811E-06 -2.2491283357859E-04
   173  1.7200000000000E+00  1.2057910153805E-06  5.4110736991749E-07  7.7405253635227E-05
   174  1.73 -0. -0. -0.
   175  1.74 -0. -0.  0.
   176  1.75  0.  0.  0.
   177  1.76  0.  0.  0.
   178  1.77  0.  0.  0.
   179  1.78  0.  0.  0.
   180  1.79  0.  0.  0.
   181  1.80  0.  0.  0.
   182  1.81  0.  0.  0.
   183  1.82  0.  0.  0.
   184  1.83  0.  0.  0.
   185  1.84  0.  0.  0.
   186  1.85  0.  0.  0.
   187  1.86  0.  0.  0.
   188  1.87  0.  0.  0.
   189  1.88  0.  0.  0.
   190  1.89  0.  0.  0.
   191  1.90  0.  0.  0.
   192  1.91  0.  0.  0.
   193  1.92  0.  0.  0.
   194  1.93  0.  0.  0.
   195  1.94  0.  0.  0.
   196  1.95  0.  0.  0.
   197  1.96  0.  0.  0.
   198  1.97  0.  0.  0.
   199  1.98  0.  0.  0.
   200  1.99  0.  0.  0.
   201  2.00  0.  0.  0.
   202  2.01  0.  0.  0.
   203  2.02  0.  0.  0.
   204  2.03  0.  0.  0.
   205  2.04  0.  0.  0.
   206  2.05  0.  0.  0.
   207  2.06  0.  0.  0.
   208  2.07  0.  0.  0.
   209  2.08  0.  0.  0.
   210  2.09  0.  0.  0.
   211  2.10  0.  0.  0.
   212  2.11  0.  0.  0.
   213  2.12  0.  0.  0.
   214  2.13  0.  0.  0.
   215  2.14  0.  0.  0.
   216  2.15  0.  0.  0.
   217  2.16  0.  0.  0.
   218  2.17  0.  0.  0.
   219  2.18  0.  0.  0.
   220  2.19  0.  0.  0.
   221  2.20  0.  0.  0.
   222  2.21  0.  0.  0.
   223  2.22  0.  0.  0.
   224  2.23  0.  0.  0.
   225  2.24  0.  0.  0.
   226  2.25  0.  0.  0.
   227  2.26  0.  0.  0.
   228  2.27  0.  0.  0.
   229  2.28  0.  0.  0.
   230  2.29  0.  0.  0.
   231  2.30  0.  0.  0.
   232  2.31  0.  0.  0.
   233  2.32  0.  0.  0.
   234  2.33  0.  0.  0.
   235  2.34  0.  0.  0.
   236  2.35  0.  0.  0.
   237  2.36  0.  0.  0.
   238  2.37  0.  0.  0.
   239  2.38  0.  0.  0.
   240  2.39  0.  0.  0.
   241  2.40  0.  0.  0.
   242  2.41  0.  0.  0.
   243  2.42  0.  0.  0.
   244  2.43  0.  0.  0.
   245  2.44  0.  0.  0.
   246  2.45  0.  0.  0.
   247  2.46  0.  0.  0.
   248  2.47  0.  0.  0.
   249  2.48  0.  0.  0.
   250  2.49  0.  0.  0.
   251  2.50  0.  0.  0.
   252  2.51  0.  0.  0.
   253  2.52  0.  0.  0.
   254  2.53  0.  0.  0.
   255  2.54  0.  0.  0.
   256  2.55  0.  0.  0.
   257  2.56  0.  0.  0.
   258  2.57  0.  0.  0.
   259  2.58  0.  0.  0.
   260  2.59  0.  0.  0.
   261  2.60  0.  0.  0.
   262  2.61  0.  0.  0.
   263  2.62  0.  0.  0.
   264  2.63  0.  0.  0.
   265  2.64  0.  0.  0.
   266  2.65  0.  0.  0.
   267  2.66  0.  0.  0.
   268  2.67  0.  0.  0.
   269  2.68  0.  0.  0.
   270  2.69  0.  0.  0.
   271  2.70  0.  0.  0.
   272  2.71  0.  0.  0.
   273  2.72  0.  0.  0.
   274  2.73  0.  0.  0.
   275  2.74  0.  0.  0.
   276  2.75  0.  0.  0.
   277  2.76  0.  0.  0.
   278  2.77  0.  0.  0.
   279  2.78  0.  0.  0.
   280  2.79  0.  0.  0.
   281  2.80  0.  0.  0.
   282  2.81  0.  0.  0.
   283  2.82  0.  0.  0.
   284  2.83  0.  0.  0.
   285  2.84  0.  0.  0.
   286  2.85  0.  0.  0.
   287  2.86  0.  0.  0.
   288  2.87  0.  0.  0.
   289  2.88  0.  0.  0.
   290  2.89  0.  0.  0.
   291  2.90  0.  0.  0.
   292  2.91  0.  0.  0.
   293  2.92  0.  0.  0.
   294  2.93  0.  0.  0.
   295  2.94  0.  0.  0.
   296  2.95  0.  0.  0.
   297  2.96  0.  0.  0.
   298  2.97  0.  0.  0.
   299  2.98  0.  0.  0.
   300  2.99  0.  0.  0.
   301  3.00  0.  0.  0.
   302  3.01  0.  0.  0.
   303  3.02  0.  0.  0.
   304  3.03  0.  0.  0.
   305  3.04  0.  0.  0.
   306  3.05  0.  0.  0.
   307  3.06  0.  0.  0.
   308  3.07  0.  0.  0.
   309  3.08  0.  0.  0.
   310  3.09  0.  0.  0.
   311  3.10  0.  0.  0.
   312  3.11  0.  0.  0.
   313  3.12  0.  0.  0.
   314  3.13  0.  0.  0.
   315  3.14  0.  0.  0.
   316  3.15  0.  0.  0.
   317  3.16  0.  0.  0.
   318  3.17  0.  0.  0.
   319  3.18  0.  0.  0.
   320  3.19  0.  0.  0.
   321  3.20  0.  0.  0.
   322  3.21  0.  0.  0.
   323  3.22  0.  0.  0.
   324  3.23  0.  0.  0.
   325  3.24  0.  0.  0.
   326  3.25  0.  0.  0.
   327  3.26  0.  0.  0.
   328  3.27  0.  0.  0.
   329  3.28  0.  0.  0.
   330  3.29  0.  0.  0.
   331  3.30  0.  0.  0.
   332  3.31  0.  0.  0.
   333  3.32  0.  0.  0.
   334  3.33  0.  0.  0.
   335  3.34  0.  0.  0.
   336  3.35  0.  0.  0.
   337  3.36  0.  0.  0.
   338  3.37  0.  0.  0.
   339  3.38  0.  0.  0.
   340  3.39  0.  0.  0.
   341  3.40  0.  0.  0.
   342  3.41  0.  0.  0.
   343  3.42  0.  0.  0.
   344  3.43  0.  0.  0.
   345  3.44  0.  0.  0.
   346  3.45  0.  0.  0.
   347  3.46  0.  0.  0.
   348  3.47  0.  0.  0.
   349  3.48  0.  0.  0.
   350  3.49  0.  0.  0.
   351  3.50  0.  0.  0.
   352  3.51  0.  0.  0.
   353  3.52  0.  0.  0.
   354  3.53  0.  0.  0.
   355  3.54  0.  0.  0.
   356  3.55  0.  0.  0.
   357  3.56  0.  0.  0.
   358  3.57  0.  0.  0.
   359  3.58  0.  0.  0.
   360  3.59  0.  0.  0.
   361  3.60  0.  0.  0.
   362  3.61  0.  0.  0.
   363  3.62  0.  0.  0.
   364  3.63  0.  0.  0.
   365  3.64  0.  0.  0.
   366  3.65  0.  0.  0.
   367  3.66  0.  0.  0.
   368  3.67  0.  0.  0.
   369  3.68  0.  0.  0.
   370  3.69  0.  0.  0.
   371  3.70  0.  0.  0.
   372  3.71  0.  0.  0.
   373  3.72  0.  0.  0.
   374  3.73  0.  0.  0.
   375  3.74  0.  0.  0.
   376  3.75  0.  0.  0.
   377  3.76  0.  0.  0.
   378  3.77  0.  0.  0.
   379  3.78  0.  0.  0.
   380  3.79  0.  0.  0.
   381  3.80  0.  0.  0.
   382  3.81  0.  0.  0.
   383  3.82  0.  0.  0.
   384  3.83  0.  0.  0.
   385  3.84  0.  0.  0.
   386  3.85  0.  0.  0.
   387  3.86  0.  0.  0.
   388  3.87  0.  0.  0.
   389  3.88  0.  0.  0.
   390  3.89  0.  0.  0.
   391  3.90  0.  0.  0.
   392  3.91  0.  0.  0.
   393  3.92  0.  0.  0.
   394  3.93  0.  0.  0.
   395  3.94  0.  0.  0.
   396  3.95  0.  0.  0.
   397  3.96  0.  0.  0.
   398  3.97  0.  0.  0.
   399  3.98  0.  0.  0.
   400  3.99  0.  0.  0.
   401  4.00  0.  0.  0.
   402  4.01  0.  0.  0.
   403  4.02  0.  0.  0.
   404  4.03  0.  0.  0.
   405  4.04  0.  0.  0.
   406  4.05  0.  0.  0.
   407  4.06  0.  0.  0.
   408  4.07  0.  0.  0.
   409  4.08  0.  0.  0.
   410  4.09  0.  0.  0.
   411  4.10  0.  0.  0.
   412  4.11  0.  0.  0.
   413  4.12  0.  0.  0.
   414  4.13  0.  0.  0.
   415  4.14  0.  0.  0.
   416  4.15  0.  0.  0.
   417  4.16  0.  0.  0.
   418  4.17  0.  0.  0.
   419  4.18  0.  0.  0.
   420  4.19  0.  0.  0.
   421  4.20  0.  0.  0.
   422  4.21  0.  0.  0.
   423  4.22  0.  0.  0.
   424  4.23  0.  0.  0.
   425  4.24  0.  0.  0.
   426  4.25  0.  0.  0.
   427  4.26  0.  0.  0.
   428  4.27  0.  0.  0.
   429  4.28  0.  0.  0.
   430  4.29  0.  0.  0.
   431  4.30  0.  0.  0.
   432  4.31  0.  0.  0.
   433  4.32  0.  0.  0.
   434  4.33  0.  0.  0.
   435  4.34  0.  0.  0.
   436  4.35  0.  0.  0.
   437  4.36  0.  0.  0.
   438  4.37  0.  0.  0.
   439  4.38  0.  0.  0.
   440  4.39  0.  0.  0.
   441  4.40  0.  0.  0.
   442  4.41  0.  0.  0.
   443  4.42  0.  0.  0.
   444  4.43  0.  0.  0.
   445  4.44  0.  0.  0.
   446  4.45  0.  0.  0.
   447  4.46  0.  0.  0.
   448  4.47  0.  0.  0.
   449  4.48  0.  0.  0.
   450  4.49  0.  0.  0.
   451  4.50  0.  0.  0.
   452  4.51  0.  0.  0.
   453  4.52  0.  0.  0.
   454  4.53  0.  0.  0.
   455  4.54  0.  0.  0.
   456  4.55  0.  0.  0.
   457  4.56  0.  0.  0.
   458  4.57  0.  0.  0.
   459  4.58  0.  0.  0.
   460  4.59  0.  0.  0.
   461  4.60  0.  0.  0.
   462  4.61  0.  0.  0.
   463  4.62  0.  0.  0.
   464  4.63  0.  0.  0.
   465  4.64  0.  0.  0.
   466  4.65  0.  0.  0.
   467  4.66  0.  0.  0.
   468  4.67  0.  0.  0.
   469  4.68  0.  0.  0.
   470  4.69  0.  0.  0.
   471  4.70  0.  0.  0.
   472  4.71  0.  0.  0.
   473  4.72  0.  0.  0.
   474  4.73  0.  0.  0.
   475  4.74  0.  0.  0.
   476  4.75  0.  0.  0.
   477  4.76  0.  0.  0.
   478  4.77  0.  0.  0.
   479  4.78  0.  0.  0.
   480  4.79  0.  0.  0.
   481  4.80  0.  0.  0.
   482  4.81  0.  0.  0.
   483  4.82  0.  0.  0.
   484  4.83  0.  0.  0.
   485  4.84  0.  0.  0.
   486  4.85  0.  0.  0.
   487  4.86  0.  0.  0.
   488  4.87  0.  0.  0.
   489  4.88  0.  0.  0.
   490  4.89  0.  0.  0.
   491  4.90  0.  0.  0.
   492  4.91  0.  0.  0.
   493  4.92  0.  0.  0.
   494  4.93  0.  0.  0.
   495  4.94  0.  0.  0.
   496  4.95  0.  0.  0.
   497  4.96  0.  0.  0.
   498  4.97  0.  0.  0.
   499  4.98  0.  0.  0.
   500  4.99  0.  0.  0.
   501  5.00  0.  0.  0.
   502  5.01  0.  0.  0.
   503  5.02  0.  0.  0.
   504  5.03  0.  0.  0.
   505  5.04  0.  0.  0.
   506  5.05  0.  0.  0.
   507  5.06  0.  0.  0.
   508  5.07  0.  0.  0.
   509  5.08  0.  0.  0.
   510  5.09  0.  0.  0.
   511  5.10  0.  0.  0.
   512  5.11  0.  0.  0.
   513  5.12  0.  0.  0.
   514  5.13  0.  0.  0.
   515  5.14  0.  0.  0.
   516  5.15  0.  0.  0.
   517  5.16  0.  0.  0.
   518  5.17  0.  0.  0.
   519  5.18  0.  0.  0.
   520  5.19  0.  0.  0.
   521  5.20  0.  0.  0.
   522  5.21  0.  0.  0.
   523  5.22  0.  0.  0.
   524  5.23  0.  0.  0.
   525  5.24  0.  0.  0.
   526  5.25  0.  0.  0.
   527  5.26  0.  0.  0.
   528  5.27  0.  0.  0.
   529  5.28  0.  0.  0.
   530  5.29  0.  0.  0.
   531  5.30  0.  0.  0.
   532  5.31  0.  0.  0.
   533  5.32  0.  0.  0.
   534  5.33  0.  0.  0.
   535  5.34  0.  0.  0.
   536  5.35  0.  0.  0.
   537  5.36  0.  0.  0.
   538  5.37  0.  0.  0.
   539  5.38  0.  0.  0.
   540  5.39  0.  0.  0.
   541  5.40  0.  0.  0.
   542  5.41  0.  0.  0.
   543  5.42  0.  0.  0.
   544  5.43  0.  0.  0.
   545  5.44  0.  0.  0.
   546  5.45  0.  0.  0.
   547  5.46  0.  0.  0.
   548  5.47  0.  0.  0.
   549  5.48  0.  0.  0.
   550  5.49  0.  0.  0.
   551  5.50  0.  0.  0.
   552  5.51  0.  0.  0.
   553  5.52  0.  0.  0.
   554  5.53  0.  0.  0.
   555  5.54  0.  0.  0.
   556  5.55  0.  0.  0.
   557  5.56  0.  0.  0.
   558  5.57  0.  0.  0.
   559  5.58  0.  0.  0.
   560  5.59  0.  0.  0.
   561  5.60  0.  0.  0.
   562  5.61  0.  0.  0.
   563  5.62  0.  0.  0.
   564  5.63  0.  0.  0.
   565  5.64  0.  0.  0.
   566  5.65  0.  0.  0.
   567  5.66  0.  0.  0.
   568  5.67  0.  0.  0.
   569  5.68  0.  0.  0.
   570  5.69  0.  0.  0.
   571  5.70  0.  0.  0.
   572  5.71  0.  0.  0.
   573  5.72  0.  0.  0.
   574  5.73  0.  0.  0.
   575  5.74  0.  0.  0.
   576  5.75  0.  0.  0.
   577  5.76  0.  0.  0.
   578  5.77  0.  0.  0.
   579  5.78  0.  0.  0.
   580  5.79  0.  0.  0.
   581  5.80  0.  0.  0.
   582  5.81  0.  0.  0.
   583  5.82  0.  0.  0.
   584  5.83  0.  0.  0.
   585  5.84  0.  0.  0.
   586  5.85  0.  0.  0.
   587  5.86  0.  0.  0.
   588  5.87  0.  0.  0.
   589  5.88  0.  0.  0.
   590  5.89  0.  0.  0.
   591  5.90  0.  0.  0.
   592  5.91  0.  0.  0.
   593  5.92  0.  0.  0.
   594  5.93  0.  0.  0.
   595  5.94  0.  0.  0.
   596  5.95  0.  0.  0.
   597  5.96  0.  0.  0.
   598  5.97  0.  0.  0.
   599  5.98  0.  0.  0.
   600  5.99  0.  0.  0.
   1                         5.7838030705496E+00 -1.8901281498648E+00
     1  0.0000000000000E+00  3.8982039818336E-10 -3.1204623260339E-10
     2  1.0000000000000E-02  2.5655609954536E-03  1.5304323666287E-04
     3  2.0000000000000E-02  1.0247256331280E-02  6.1373736212965E-04
     4  3.0000000000000E-02  2.3000199481684E-02  1.3867592005339E-03
     5  4.0000000000000E-02  4.0749834177985E-02  2.4798488925327E-03
     6  5.0000000000000E-02  6.3392315805790E-02  3.9037286550942E-03
     7  6.0000000000000E-02  9.0795044309316E-02  5.6719902549725E-03
     8  7.0000000000000E-02  1.2279734749799E-01  7.8009523857784E-03
     9  8.0000000000000E-02  1.5921131326061E-01  1.0309489450605E-02
    10  9.0000000000000E-02  1.9982276874994E-01  1.3218833543843E-02
    11  1.0000000000000E-01  2.4439240409810E-01  1.6552351693353E-02
    12  1.1000000000000E-01  2.9265703765298E-01  2.0335300664062E-02
    13  1.2000000000000E-01  3.4433101908553E-01  2.4594561833414E-02
    14  1.3000000000000E-01  3.9910776600469E-01  2.9358358825301E-02
    15  1.4000000000000E-01  4.5666142893146E-01  3.4655960730340E-02
    16  1.5000000000000E-01  5.1664867863104E-01  4.0517373845083E-02
    17  1.6000000000000E-01  5.7871060888630E-01  4.6973024930259E-02
    18  1.7000000000000E-01  6.4247474682742E-01  5.4053439018051E-02
    19  1.8000000000000E-01  7.0755716192146E-01  6.1788914791313E-02
    20  1.9000000000000E-01  7.7356466368569E-01  7.0209200514109E-02
    21  2.0000000000000E-01  8.4009707713543E-01  7.9343173414813E-02
    22  2.1000000000000E-01  9.0674958392762E-01  8.9218525311993E-02
    23  2.2000000000000E-01  9.7311511613510E-01  9.9861457131984E-02
    24  2.3000000000000E-01  1.0387867886025E+00  1.1129638479830E-01
    25  2.4000000000000E-01  1.1033603549140E+00  1.2354565878013E-01
    26  2.5000000000000E-01  1.1664366711668E+00  1.3662929937352E-01
    27  2.6000000000000E-01  1.2276241510123E+00  1.5056474955877E-01
    28  2.7000000000000E-01  1.2865411948200E+00  1.6536664703408E-01
    29  2.8000000000000E-01  1.3428185753566E+00  1.8104661677401E-01
    30  2.9000000000000E-01  1.3961017620704E+00  1.9761308520461E-01
    31  3.0000000000000E-01  1.4460531659473E+00  2.1507111683025E-01
    32  3.1000000000000E-01  1.4923542869692E+00  2.3342227389364E-01
    33  3.2000000000000E-01  1.5347077464720E+00  2.5266449940405E-01
    34  3.3000000000000E-01  1.5728391871745E+00  2.7279202363329E-01
    35  3.4000000000000E-01  1.6064990243371E+00  2.9379529395719E-01
    36  3.5000000000000E-01  1.6354640324069E+00  3.1566092771536E-01
    37  3.6000000000000E-01  1.6595387526192E+00  3.3837168757639E-01
    38  3.7000000000000E-01  1.6785567083384E+00  3.6190647873122E-01
    39  3.8000000000000E-01  1.6923814164310E+00  3.8624036709550E-01
    40  3.9000000000000E-01  1.7009071846529E+00  4.1134461758434E-01
    41  4.0000000000000E-01  1.7040596868873E+00  4.3718675142891E-01
    42  4.1000000000000E-01  1.7017963100657E+00  4.6373062143600E-01
    43  4.2000000000000E-01  1.6941062687216E+00  4.9093650404610E-01
    44  4.3000000000000E-01  1.6810104853388E+00  5.1876120702455E-01