Am    ONCVPSP-4.0.1  r_core=   1.10131   1.10131   1.10131   1.10131
95.0000     35.0000      230613    zatom,zion,pspd
8      11   3     4   600     0    pspcod,pspxc,lmax,lloc,mmax,r2well
5.99000000  3.50000000  0.00000000    rchrg fchrg qchrg
3     3     3     2    nproj
3     1           extension_switch
3     3     3    nprojso
0                         5.1880551580169E+01  4.9692178044391E+00 -1.2291589356646E+00
1  0.0000000000000E+00 -2.5659655733534E-07  7.3273866019186E-07  4.1865582695033E-08
2  1.0000000000000E-02  1.8576604942790E-01 -1.1198094457948E-01  1.9529960856051E-02
3  2.0000000000000E-02  3.6960422349384E-01 -2.2051161151912E-01  3.9065913710173E-02
4  3.0000000000000E-02  5.4963221150438E-01 -3.2226048616097E-01  5.8608509309679E-02
5  4.0000000000000E-02  7.2405713385131E-01 -4.1412877658660E-01  7.8147995007947E-02
6  5.0000000000000E-02  8.9121608362561E-01 -4.9335497162563E-01  9.7659699249762E-02
7  6.0000000000000E-02  1.0496118571789E+00 -5.5760579915655E-01  1.1710030749193E-01
8  7.0000000000000E-02  1.1979425902173E+00 -6.0504996589095E-01  1.3640514142328E-01
9  8.0000000000000E-02  1.3351242726104E+00 -6.3441179257129E-01  1.5548661148254E-01
10  9.0000000000000E-02  1.4603054143649E+00 -6.4500271324017E-01  1.7423396354178E-01
11  1.0000000000000E-01  1.5728734642169E+00 -6.3672954706555E-01  1.9251438617438E-01
12  1.1000000000000E-01  1.6724529268139E+00 -6.1007943561510E-01  2.1017548731813E-01
13  1.2000000000000E-01  1.7588954696138E+00 -5.6608232500501E-01  2.2704909066011E-01
14  1.3000000000000E-01  1.8322626415231E+00 -5.0625281848477E-01  2.4295624503257E-01
15  1.4000000000000E-01  1.8928021276476E+00 -4.3251409000644E-01  2.5771328678305E-01
16  1.5000000000000E-01  1.9409187253265E+00 -3.4710729592989E-01  2.7113874759041E-01
17  1.6000000000000E-01  1.9771414346441E+00 -2.5249051815026E-01  2.8306086043512E-01
18  1.7000000000000E-01  2.0020882029589E+00 -1.5123169204606E-01  2.9332538599085E-01
19  1.8000000000000E-01  2.0164299414289E+00 -4.5900198806374E-02  3.0180346181402E-01
20  1.9000000000000E-01  2.0208554388059E+00  6.1038175574829E-02  3.0839916818538E-01
21  2.0000000000000E-01  2.0160387337368E+00  1.6731839374945E-01  3.1305650767939E-01
22  2.1000000000000E-01  2.0026103744264E+00  2.7096128934237E-01  3.1576551041894E-01
23  2.2000000000000E-01  1.9811337997124E+00  3.7034307113498E-01  3.1656720298058E-01
24  2.3000000000000E-01  1.9520878270361E+00  4.6424633340597E-01  3.1555721508355E-01
25  2.4000000000000E-01  1.9158559414937E+00  5.5189053159285E-01  3.1288784316577E-01
26  2.5000000000000E-01  1.8727227589875E+00  6.3294080432006E-01  3.0876844202624E-01
27  2.6000000000000E-01  1.8228776996576E+00  7.0749499139183E-01  3.0346407293160E-01
28  2.7000000000000E-01  1.7664255701498E+00  7.7604967021112E-01  2.9729239678364E-01
29  2.8000000000000E-01  1.7034034297628E+00  8.3944696775623E-01  2.9061886186143E-01
30  2.9000000000000E-01  1.6338028204295E+00  8.9880476086581E-01  2.8385029499866E-01
31  3.0000000000000E-01  1.5575961868783E+00  9.5543361675663E-01  2.7742706062124E-01
32  3.1000000000000E-01  1.4747661124318E+00  1.0107444161597E+00  2.7181400179287E-01
33  3.2000000000000E-01  1.3853358566685E+00  1.0661510173975E+00  2.6749041947471E-01
34  3.3000000000000E-01  1.2893996098417E+00  1.1229725429773E+00  2.6493937908120E-01
35  3.4000000000000E-01  1.1871508787509E+00  1.1823398911497E+00  2.6463665595322E-01
36  3.5000000000000E-01  1.0789074898601E+00  1.2451108924273E+00  2.6703964281750E-01
37  3.6000000000000E-01  9.6513183482135E-01  1.3117981533638E+00  2.7257654233947E-01
38  3.7000000000000E-01  8.4644518522383E-01  1.3825130734349E+00  2.8163615661890E-01
39  3.8000000000000E-01  7.2363515857411E-01  1.4569288100686E+00  2.9455856347420E-01
40  3.9000000000000E-01  5.9765571515379E-01  1.5342641327937E+00  3.1162693756019E-01
41  4.0000000000000E-01  4.6961939249589E-01  1.6132891866482E+00  3.3306073408107E-01
42  4.1000000000000E-01  3.4078182651061E-01  1.6923532176584E+00  3.5901040571510E-01
43  4.2000000000000E-01  2.1251895081810E-01  1.7694333416362E+00  3.8955377121850E-01
44  4.3000000000000E-01  8.6297593628993E-02  1.8422025042052E+00  4.2469409904975E-01
45  4.4000000000000E-01 -3.6359509773759E-02  1.9081139255445E+00  4.6435991335262E-01
46  4.5000000000000E-01 -1.5391301432565E-01  1.9644985850687E+00  5.0840647486138E-01
47  4.6000000000000E-01 -2.6484909441804E-01  2.0086717112487E+00  5.5661883776160E-01
48  4.7000000000000E-01 -3.6772278630608E-01  2.0380438255558E+00  6.0871633710373E-01
49  4.8000000000000E-01 -4.6120085239121E-01  2.0502316650189E+00  6.6435832164566E-01
50  4.9000000000000E-01 -5.4410247515854E-01  2.0431642846083E+00  7.2315091531343E-01
51  5.0000000000000E-01 -6.1543615927490E-01  2.0151798192679E+00  7.8465456779569E-01
52  5.1000000000000E-01 -6.7443135965167E-01  1.9651087577752E+00  8.4839214173111E-01
53  5.2000000000000E-01 -7.2056355509834E-01  1.8923401301214E+00  9.1385728071580E-01
54  5.3000000000000E-01 -7.5357174276425E-01  1.7968677124688E+00  9.8052280876685E-01
55  5.4000000000000E-01 -7.7346762683987E-01  1.6793141781695E+00  1.0478489273623E+00
56  5.5000000000000E-01 -7.8053610305280E-01  1.5409320336818E+00  1.1152909998244E+00
57  5.6000000000000E-01 -7.7532698424886E-01  1.3835811349504E+00  1.1823067434020E+00
58  5.7000000000000E-01 -7.5863825705031E-01  1.2096835414464E+00  1.2483626854743E+00
59  5.8000000000000E-01 -7.3149149055164E-01  1.0221573902114E+00  1.3129397801868E+00
60  5.9000000000000E-01 -6.9510032126564E-01  8.2433232141711E-01  1.3755381237748E+00
61  6.0000000000000E-01 -6.5083320138285E-01  6.1984972420915E-01  1.4356807490353E+00
62  6.1000000000000E-01 -6.0017180905912E-01  4.1255166626428E-01  1.4929165200953E+00
63  6.2000000000000E-01 -5.4466667140842E-01  2.0636279833374E-01  1.5468221861455E+00
64  6.3000000000000E-01 -4.8589163737478E-01  5.1697694308849E-03  1.5970036856726E+00
65  6.4000000000000E-01 -4.2539885581719E-01 -1.8729725920834E-01  1.6430968196830E+00
66  6.5000000000000E-01 -3.6467586413228E-01 -3.6757655262102E-01  1.6847674324821E+00
67  6.6000000000000E-01 -3.0510627770749E-01 -5.3257606698242E-01  1.7217112511052E+00
68  6.7000000000000E-01 -2.4793539640849E-01 -6.7966040429293E-01  1.7536535391428E+00
69  6.8000000000000E-01 -1.9424181963356E-01 -8.0672045313745E-01  1.7803487174832E+00
70  6.9000000000000E-01 -1.4491589678043E-01 -9.1222345827961E-01  1.8015800937314E+00
71  7.0000000000000E-01 -1.0064554747039E-01 -9.9524208784172E-01  1.8171598244092E+00
72  7.1000000000000E-01 -6.1909678696836E-02 -1.0554619353362E+00  1.8269292104048E+00
73  7.2000000000000E-01 -2.8979117880871E-02 -1.0931677663088E+00  1.8307593976709E+00
74  7.3000000000000E-01 -1.9246849445178E-03 -1.1092096581819E+00  1.8285525231841E+00
75  7.4000000000000E-01  1.9368244459616E-02 -1.1049509513666E+00  1.8202433121261E+00
76  7.5000000000000E-01  3.5179567324950E-02 -1.0822005980832E+00  1.8058010976108E+00
77  7.6000000000000E-01  4.5929745617692E-02 -1.0431330361601E+00  1.7852322005617E+00
78  7.7000000000000E-01  5.2151772105120E-02 -9.9019910807044E-01  1.7585825759664E+00
79  7.8000000000000E-01  5.4461099645299E-02 -9.2603177767811E-01  1.7259406040020E+00
80  7.9000000000000E-01  5.3524845759930E-02 -8.5335046318190E-01  1.6874398815804E+00
81  8.0000000000000E-01  5.0031548623084E-02 -7.7486770687348E-01  1.6432618526453E+00
82  8.1000000000000E-01  4.4662660993330E-02 -6.9320165032689E-01  1.5936381047529E+00
83  8.2000000000000E-01  3.8066831133733E-02 -6.1079739407950E-01  1.5388521555504E+00
84  8.3000000000000E-01  3.0837842484877E-02 -5.2985981613621E-01  1.4792405559199E+00
85  8.4000000000000E-01  2.3496876498645E-02 -4.5229983080223E-01  1.4151931467142E+00
86  8.5000000000000E-01  1.6479536409504E-02 -3.7969541865024E-01  1.3471523229075E+00
87  8.6000000000000E-01  1.0127835176062E-02 -3.1326808175617E-01  1.2756111820910E+00
88  8.7000000000000E-01  4.6871196841804E-03 -2.5387470757532E-01  1.2011104629088E+00
89  8.8000000000000E-01  3.0768627277495E-04 -2.0201419027595E-01  1.1242342124239E+00
90  8.9000000000000E-01 -2.9493507214433E-03 -1.5784758715696E-01  1.0456041586353E+00
91  9.0000000000000E-01 -5.1025374753212E-03 -1.2123010264858E-01  9.6587280447015E-01
92  9.1000000000000E-01 -6.2376305907941E-03 -9.1752810440975E-02  8.8571530159762E-01
93  9.2000000000000E-01 -6.4930259421492E-03 -6.8791756140966E-02  8.0582020543474E-01
94  9.3000000000000E-01 -6.0439150137729E-03 -5.1561932246791E-02  7.2687925588471E-01
95  9.4000000000000E-01 -5.0860176258466E-03 -3.9173580645338E-02  6.4957637093807E-01
96  9.5000000000000E-01 -3.8197036019200E-03 -3.0688344779197E-02  5.7457608166004E-01
97  9.6000000000000E-01 -2.4352492120113E-03 -2.5172947084442E-02  5.0251167683766E-01
98  9.7000000000000E-01 -1.0998855382118E-03 -2.1748284341304E-02  4.3397336335508E-01
99  9.8000000000000E-01  5.2804704418234E-05 -1.9632086647535E-02  3.6949678408088E-01
100  9.9000000000000E-01  9.3068652277174E-04 -1.8173543467204E-02  3.0955226867880E-01
101  1.0000000000000E+00  1.4877025439767E-03 -1.6878529474598E-02  2.5453522448147E-01
102  1.0100000000000E+00  1.7250336708306E-03 -1.5424229151830E-02  2.0475810463846E-01
103  1.0200000000000E+00  1.6885206465165E-03 -1.3662028861469E-02  1.6044441956491E-01
104  1.0300000000000E+00  1.4621171224381E-03 -1.1607636644160E-02  1.2172530235072E-01
105  1.0400000000000E+00  1.1566121758692E-03 -9.4159739800632E-03  8.8639029922982E-02
106  1.0500000000000E+00  8.5137497844524E-04 -7.2307906382204E-03  6.1122052250913E-02
107  1.0600000000000E+00  3.3174174872919E-04 -4.4967186388990E-03  3.8945720569881E-02
108  1.0700000000000E+00 -1.3461597264026E-04 -1.9677426939929E-03  2.1960769847483E-02
109  1.0800000000000E+00 -3.1586413351927E-04 -3.5719053180739E-04  9.9789538268876E-03
110  1.0900000000000E+00 -1.9179715884231E-04  1.4110862828873E-04  2.7496742728944E-03
111  1.1000000000000E+00 -9.0638072907035E-06  1.3381071326465E-05  7.1968689731626E-05
112  1.1100000000000E+00 -1.4333954361160E-06  1.9871044230729E-06  1.2398134350677E-05
113  1.1200000000000E+00  1.1966317640886E-07 -1.3896729908432E-07 -1.2723518946528E-06
114  1.13  0.  0.  0.
115  1.14  0.  0.  0.
116  1.15  0.  0.  0.
117  1.16  0.  0.  0.
118  1.17  0.  0.  0.
119  1.18  0.  0.  0.
120  1.19  0.  0.  0.
121  1.20  0.  0.  0.
122  1.21  0.  0.  0.
123  1.22  0.  0.  0.
124  1.23  0.  0.  0.
125  1.24  0.  0.  0.
126  1.25  0.  0.  0.
127  1.26  0.  0.  0.
128  1.27  0.  0.  0.
129  1.28  0.  0.  0.
130  1.29  0.  0.  0.
131  1.30  0.  0.  0.
132  1.31  0.  0.  0.
133  1.32  0.  0.  0.
134  1.33  0.  0.  0.
135  1.34  0.  0.  0.
136  1.35  0.  0.  0.
137  1.36  0.  0.  0.
138  1.37  0.  0.  0.
139  1.38  0.  0.  0.
140  1.39  0.  0.  0.
141  1.40  0.  0.  0.
142  1.41  0.  0.  0.
143  1.42  0.  0.  0.
144  1.43  0.  0.  0.
145  1.44  0.  0.  0.
146  1.45  0.  0.  0.
147  1.46  0.  0.  0.
148  1.47  0.  0.  0.
149  1.48  0.  0.  0.
150  1.49  0.  0.  0.
151  1.50  0.  0.  0.
152  1.51  0.  0.  0.
153  1.52  0.  0.  0.
154  1.53  0.  0.  0.
155  1.54  0.  0.  0.
156  1.55  0.  0.  0.
157  1.56  0.  0.  0.
158  1.57  0.  0.  0.
159  1.58  0.  0.  0.
160  1.59  0.  0.  0.
161  1.60  0.  0.  0.
162  1.61  0.  0.  0.
163  1.62  0.  0.  0.
164  1.63  0.  0.  0.
165  1.64  0.  0.  0.
166  1.65  0.  0.  0.
167  1.66  0.  0.  0.
168  1.67  0.  0.  0.
169  1.68  0.  0.  0.
170  1.69  0.  0.  0.
171  1.70  0.  0.  0.
172  1.71  0.  0.  0.
173  1.72  0.  0.  0.
174  1.73  0.  0.  0.
175  1.74  0.  0.  0.
176  1.75  0.  0.  0.
177  1.76  0.  0.  0.
178  1.77  0.  0.  0.
179  1.78  0.  0.  0.
180  1.79  0.  0.  0.
181  1.80  0.  0.  0.
182  1.81  0.  0.  0.
183  1.82  0.  0.  0.
184  1.83  0.  0.  0.
185  1.84  0.  0.  0.
186  1.85  0.  0.  0.
187  1.86  0.  0.  0.
188  1.87  0.  0.  0.
189  1.88  0.  0.  0.
190  1.89  0.  0.  0.
191  1.90  0.  0.  0.
192  1.91  0.  0.  0.
193  1.92  0.  0.  0.
194  1.93  0.  0.  0.
195  1.94  0.  0.  0.
196  1.95  0.  0.  0.
197  1.96  0.  0.  0.
198  1.97  0.  0.  0.
199  1.98  0.  0.  0.
200  1.99  0.  0.  0.
201  2.00  0.  0.  0.
202  2.01  0.  0.  0.
203  2.02  0.  0.  0.
204  2.03  0.  0.  0.
205  2.04  0.  0.  0.
206  2.05  0.  0.  0.
207  2.06  0.  0.  0.
208  2.07  0.  0.  0.
209  2.08  0.  0.  0.
210  2.09  0.  0.  0.
211  2.10  0.  0.  0.
212  2.11  0.  0.  0.
213  2.12  0.  0.  0.
214  2.13  0.  0.  0.
215  2.14  0.  0.  0.
216  2.15  0.  0.  0.
217  2.16  0.  0.  0.
218  2.17  0.  0.  0.
219  2.18  0.  0.  0.
220  2.19  0.  0.  0.
221  2.20  0.  0.  0.
222  2.21  0.  0.  0.
223  2.22  0.  0.  0.
224  2.23  0.  0.  0.
225  2.24  0.  0.  0.
226  2.25  0.  0.  0.
227  2.26  0.  0.  0.
228  2.27  0.  0.  0.
229  2.28  0.  0.  0.
230  2.29  0.  0.  0.
231  2.30  0.  0.  0.
232  2.31  0.  0.  0.
233  2.32  0.  0.  0.
234  2.33  0.  0.  0.
235  2.34  0.  0.  0.
236  2.35  0.  0.  0.
237  2.36  0.  0.  0.
238  2.37  0.  0.  0.
239  2.38  0.  0.  0.
240  2.39  0.  0.  0.
241  2.40  0.  0.  0.
242  2.41  0.  0.  0.
243  2.42  0.  0.  0.
244  2.43  0.  0.  0.
245  2.44  0.  0.  0.
246  2.45  0.  0.  0.
247  2.46  0.  0.  0.
248  2.47  0.  0.  0.
249  2.48  0.  0.  0.
250  2.49  0.  0.  0.
251  2.50  0.  0.  0.
252  2.51  0.  0.  0.
253  2.52  0.  0.  0.
254  2.53  0.  0.  0.
255  2.54  0.  0.  0.
256  2.55  0.  0.  0.
257  2.56  0.  0.  0.
258  2.57  0.  0.  0.
259  2.58  0.  0.  0.
260  2.59  0.  0.  0.
261  2.60  0.  0.  0.
262  2.61  0.  0.  0.
263  2.62  0.  0.  0.
264  2.63  0.  0.  0.
265  2.64  0.  0.  0.
266  2.65  0.  0.  0.
267  2.66  0.  0.  0.
268  2.67  0.  0.  0.
269  2.68  0.  0.  0.
270  2.69  0.  0.  0.
271  2.70  0.  0.  0.
272  2.71  0.  0.  0.
273  2.72  0.  0.  0.
274  2.73  0.  0.  0.
275  2.74  0.  0.  0.
276  2.75  0.  0.  0.
277  2.76  0.  0.  0.
278  2.77  0.  0.  0.
279  2.78  0.  0.  0.
280  2.79  0.  0.  0.
281  2.80  0.  0.  0.
282  2.81  0.  0.  0.
283  2.82  0.  0.  0.
284  2.83  0.  0.  0.
285  2.84  0.  0.  0.
286  2.85  0.  0.  0.
287  2.86  0.  0.  0.
288  2.87  0.  0.  0.
289  2.88  0.  0.  0.
290  2.89  0.  0.  0.
291  2.90  0.  0.  0.
292  2.91  0.  0.  0.
293  2.92  0.  0.  0.
294  2.93  0.  0.  0.
295  2.94  0.  0.  0.
296  2.95  0.  0.  0.
297  2.96  0.  0.  0.
298  2.97  0.  0.  0.
299  2.98  0.  0.  0.
300  2.99  0.  0.  0.
301  3.00  0.  0.  0.
302  3.01  0.  0.  0.
303  3.02  0.  0.  0.
304  3.03  0.  0.  0.
305  3.04  0.  0.  0.
306  3.05  0.  0.  0.
307  3.06  0.  0.  0.
308  3.07  0.  0.  0.
309  3.08  0.  0.  0.
310  3.09  0.  0.  0.
311  3.10  0.  0.  0.
312  3.11  0.  0.  0.
313  3.12  0.  0.  0.
314  3.13  0.  0.  0.
315  3.14  0.  0.  0.
316  3.15  0.  0.  0.
317  3.16  0.  0.  0.
318  3.17  0.  0.  0.
319  3.18  0.  0.  0.
320  3.19  0.  0.  0.
321  3.20  0.  0.  0.
322  3.21  0.  0.  0.
323  3.22  0.  0.  0.
324  3.23  0.  0.  0.
325  3.24  0.  0.  0.
326  3.25  0.  0.  0.
327  3.26  0.  0.  0.
328  3.27  0.  0.  0.
329  3.28  0.  0.  0.
330  3.29  0.  0.  0.
331  3.30  0.  0.  0.
332  3.31  0.  0.  0.
333  3.32  0.  0.  0.
334  3.33  0.  0.  0.
335  3.34  0.  0.  0.
336  3.35  0.  0.  0.
337  3.36  0.  0.  0.
338  3.37  0.  0.  0.
339  3.38  0.  0.  0.
340  3.39  0.  0.  0.
341  3.40  0.  0.  0.
342  3.41  0.  0.  0.
343  3.42  0.  0.  0.
344  3.43  0.  0.  0.
345  3.44  0.  0.  0.
346  3.45  0.  0.  0.
347  3.46  0.  0.  0.
348  3.47  0.  0.  0.
349  3.48  0.  0.  0.
350  3.49  0.  0.  0.
351  3.50  0.  0.  0.
352  3.51  0.  0.  0.
353  3.52  0.  0.  0.
354  3.53  0.  0.  0.
355  3.54  0.  0.  0.
356  3.55  0.  0.  0.
357  3.56  0.  0.  0.
358  3.57  0.  0.  0.
359  3.58  0.  0.  0.
360  3.59  0.  0.  0.
361  3.60  0.  0.  0.
362  3.61  0.  0.  0.
363  3.62  0.  0.  0.
364  3.63  0.  0.  0.
365  3.64  0.  0.  0.
366  3.65  0.  0.  0.
367  3.66  0.  0.  0.
368  3.67  0.  0.  0.
369  3.68  0.  0.  0.
370  3.69  0.  0.  0.
371  3.70  0.  0.  0.
372  3.71  0.  0.  0.
373  3.72  0.  0.  0.
374  3.73  0.  0.  0.
375  3.74  0.  0.  0.
376  3.75  0.  0.  0.
377  3.76  0.  0.  0.
378  3.77  0.  0.  0.
379  3.78  0.  0.  0.
380  3.79  0.  0.  0.
381  3.80  0.  0.  0.
382  3.81  0.  0.  0.
383  3.82  0.  0.  0.
384  3.83  0.  0.  0.
385  3.84  0.  0.  0.
386  3.85  0.  0.  0.
387  3.86  0.  0.  0.
388  3.87  0.  0.  0.
389  3.88  0.  0.  0.
390  3.89  0.  0.  0.
391  3.90  0.  0.  0.
392  3.91  0.  0.  0.
393  3.92  0.  0.  0.
394  3.93  0.  0.  0.
395  3.94  0.  0.  0.
396  3.95  0.  0.  0.
397  3.96  0.  0.  0.
398  3.97  0.  0.  0.
399  3.98  0.  0.  0.
400  3.99  0.  0.  0.
401  4.00  0.  0.  0.
402  4.01  0.  0.  0.
403  4.02  0.  0.  0.
404  4.03  0.  0.  0.
405  4.04  0.  0.  0.
406  4.05  0.  0.  0.
407  4.06  0.  0.  0.
408  4.07  0.  0.  0.
409  4.08  0.  0.  0.
410  4.09  0.  0.  0.
411  4.10  0.  0.  0.
412  4.11  0.  0.  0.
413  4.12  0.  0.  0.
414  4.13  0.  0.  0.
415  4.14  0.  0.  0.
416  4.15  0.  0.  0.
417  4.16  0.  0.  0.
418  4.17  0.  0.  0.
419  4.18  0.  0.  0.
420  4.19  0.  0.  0.
421  4.20  0.  0.  0.
422  4.21  0.  0.  0.
423  4.22  0.  0.  0.
424  4.23  0.  0.  0.
425  4.24  0.  0.  0.
426  4.25  0.  0.  0.
427  4.26  0.  0.  0.
428  4.27  0.  0.  0.
429  4.28  0.  0.  0.
430  4.29  0.  0.  0.
431  4.30  0.  0.  0.
432  4.31  0.  0.  0.
433  4.32  0.  0.  0.
434  4.33  0.  0.  0.
435  4.34  0.  0.  0.
436  4.35  0.  0.  0.
437  4.36  0.  0.  0.
438  4.37  0.  0.  0.
439  4.38  0.  0.  0.
440  4.39  0.  0.  0.
441  4.40  0.  0.  0.
442  4.41  0.  0.  0.
443  4.42  0.  0.  0.
444  4.43  0.  0.  0.
445  4.44  0.  0.  0.
446  4.45  0.  0.  0.
447  4.46  0.  0.  0.
448  4.47  0.  0.  0.
449  4.48  0.  0.  0.
450  4.49  0.  0.  0.
451  4.50  0.  0.  0.
452  4.51  0.  0.  0.
453  4.52  0.  0.  0.
454  4.53  0.  0.  0.
455  4.54  0.  0.  0.
456  4.55  0.  0.  0.
457  4.56  0.  0.  0.
458  4.57  0.  0.  0.
459  4.58  0.  0.  0.
460  4.59  0.  0.  0.
461  4.60  0.  0.  0.
462  4.61  0.  0.  0.
463  4.62  0.  0.  0.
464  4.63  0.  0.  0.
465  4.64  0.  0.  0.
466  4.65  0.  0.  0.
467  4.66  0.  0.  0.
468  4.67  0.  0.  0.
469  4.68  0.  0.  0.
470  4.69  0.  0.  0.
471  4.70  0.  0.  0.
472  4.71  0.  0.  0.
473  4.72  0.  0.  0.
474  4.73  0.  0.  0.
475  4.74  0.  0.  0.
476  4.75  0.  0.  0.
477  4.76  0.  0.  0.
478  4.77  0.  0.  0.
479  4.78  0.  0.  0.
480  4.79  0.  0.  0.
481  4.80  0.  0.  0.
482  4.81  0.  0.  0.
483  4.82  0.  0.  0.
484  4.83  0.  0.  0.
485  4.84  0.  0.  0.
486  4.85  0.  0.  0.
487  4.86  0.  0.  0.
488  4.87  0.  0.  0.
489  4.88  0.  0.  0.
490  4.89  0.  0.  0.
491  4.90  0.  0.  0.
492  4.91  0.  0.  0.
493  4.92  0.  0.  0.
494  4.93  0.  0.  0.
495  4.94  0.  0.  0.
496  4.95  0.  0.  0.
497  4.96  0.  0.  0.
498  4.97  0.  0.  0.
499  4.98  0.  0.  0.
500  4.99  0.  0.  0.
501  5.00  0.  0.  0.
502  5.01  0.  0.  0.
503  5.02  0.  0.  0.
504  5.03  0.  0.  0.
505  5.04  0.  0.  0.
506  5.05  0.  0.  0.
507  5.06  0.  0.  0.
508  5.07  0.  0.  0.
509  5.08  0.  0.  0.
510  5.09  0.  0.  0.
511  5.10  0.  0.  0.
512  5.11  0.  0.  0.
513  5.12  0.  0.  0.
514  5.13  0.  0.  0.
515  5.14  0.  0.  0.
516  5.15  0.  0.  0.
517  5.16  0.  0.  0.
518  5.17  0.  0.  0.
519  5.18  0.  0.  0.
520  5.19  0.  0.  0.
521  5.20  0.  0.  0.
522  5.21  0.  0.  0.
523  5.22  0.  0.  0.
524  5.23  0.  0.  0.
525  5.24  0.  0.  0.
526  5.25  0.  0.  0.
527  5.26  0.  0.  0.
528  5.27  0.  0.  0.
529  5.28  0.  0.  0.
530  5.29  0.  0.  0.
531  5.30  0.  0.  0.
532  5.31  0.  0.  0.
533  5.32  0.  0.  0.
534  5.33  0.  0.  0.
535  5.34  0.  0.  0.
536  5.35  0.  0.  0.
537  5.36  0.  0.  0.
538  5.37  0.  0.  0.
539  5.38  0.  0.  0.
540  5.39  0.  0.  0.
541  5.40  0.  0.  0.
542  5.41  0.  0.  0.
543  5.42  0.  0.  0.
544  5.43  0.  0.  0.
545  5.44  0.  0.  0.
546  5.45  0.  0.  0.
547  5.46  0.  0.  0.
548  5.47  0.  0.  0.
549  5.48  0.  0.  0.
550  5.49  0.  0.  0.
551  5.50  0.  0.  0.
552  5.51  0.  0.  0.
553  5.52  0.  0.  0.
554  5.53  0.  0.  0.
555  5.54  0.  0.  0.
556  5.55  0.  0.  0.
557  5.56  0.  0.  0.
558  5.57  0.  0.  0.
559  5.58  0.  0.  0.
560  5.59  0.  0.  0.
561  5.60  0.  0.  0.
562  5.61  0.  0.  0.
563  5.62  0.  0.  0.
564  5.63  0.  0.  0.
565  5.64  0.  0.  0.
566  5.65  0.  0.  0.
567  5.66  0.  0.  0.
568  5.67  0.  0.  0.
569  5.68  0.  0.  0.
570  5.69  0.  0.  0.
571  5.70  0.  0.  0.
572  5.71  0.  0.  0.
573  5.72  0.  0.  0.
574  5.73  0.  0.  0.
575  5.74  0.  0.  0.
576  5.75  0.  0.  0.
577  5.76  0.  0.  0.
578  5.77  0.  0.  0.
579  5.78  0.  0.  0.
580  5.79  0.  0.  0.
581  5.80  0.  0.  0.
582  5.81  0.  0.  0.
583  5.82  0.  0.  0.
584  5.83  0.  0.  0.
585  5.84  0.  0.  0.
586  5.85  0.  0.  0.
587  5.86  0.  0.  0.
588  5.87  0.  0.  0.
589  5.88  0.  0.  0.
590  5.89  0.  0.  0.
591  5.90  0.  0.  0.
592  5.91  0.  0.  0.
593  5.92  0.  0.  0.
594  5.93  0.  0.  0.
595  5.94  0.  0.  0.
596  5.95  0.  0.  0.
597  5.96  0.  0.  0.
598  5.97  0.  0.  0.
599  5.98  0.  0.  0.
600  5.99  0.  0.  0.
1                         1.2519416737983E+01 -7.3354965271852E-01  8.0142152193439E-02
1  0.0000000000000E+00 -1.0279763262844E-08 -6.4534808573435E-08  2.7093554622049E-08
2  1.0000000000000E-02  4.4829068459687E-03  8.3202399185939E-04 -4.4270233528108E-03
3  2.0000000000000E-02  1.7895456698469E-02  3.3352188144589E-03 -1.7643386299604E-02
4  3.0000000000000E-02  4.0129239037781E-02  7.5300338936400E-03 -3.9455252071789E-02
5  4.0000000000000E-02  7.1003916950202E-02  1.3447536631935E-02 -6.9540534086192E-02
6  5.0000000000000E-02  1.1026777847765E-01  2.1125058379568E-02 -1.0745044783045E-01
7  6.0000000000000E-02  1.5759856761612E-01  3.0600427932911E-02 -1.5261185724274E-01
8  7.0000000000000E-02  2.1260465010488E-01  4.1905104003797E-02 -2.0433057575852E-01
9  8.0000000000000E-02  2.7482657942819E-01  5.5056582637903E-02 -2.6179580929041E-01
10  9.0000000000000E-02  3.4373913495239E-01  7.0050503175511E-02 -3.2408594270933E-01
11  1.0000000000000E-01  4.1875390635186E-01  8.6852904787504E-02 -3.9017587135558E-01
12  1.1000000000000E-01  4.9922249613203E-01  1.0539309343259E-01 -4.5894606384310E-01
13  1.2000000000000E-01  5.8444040503135E-01  1.2555756568957E-01 -5.2919351180291E-01
14  1.3000000000000E-01  6.7365165348012E-01  1.4718540164068E-01 -5.9964467684859E-01
15  1.4000000000000E-01  7.6605417642157E-01  1.7006548502987E-01 -6.6897048629729E-01
16  1.5000000000000E-01  8.6080600916311E-01  1.9393583735457E-01 -7.3580335909413E-01
17  1.6000000000000E-01  9.5703225920442E-01  2.1848526619803E-01 -7.9875616463113E-01
18  1.7000000000000E-01  1.0538328340163E+00  2.4335743046024E-01 -8.5644293290402E-01
19  1.8000000000000E-01  1.1502908684698E+00  2.6815732020299E-01 -9.0750104827702E-01
20  1.9000000000000E-01  1.2454817690696E+00  2.9246004095522E-01 -9.5061457482822E-01
21  2.0000000000000E-01  1.3384827664061E+00  3.1582168607326E-01 -9.8453828270641E-01
22  2.1000000000000E-01  1.4283828433615E+00  3.3779198065870E-01 -1.0081218759364E+00
23  2.2000000000000E-01  1.5142928856280E+00  3.5792829095635E-01 -1.0203338662038E+00
24  2.3000000000000E-01  1.5953558839304E+00  3.7581051805975E-01 -1.0202844974592E+00
25  2.4000000000000E-01  1.6707570048116E+00  3.9105633758152E-01 -1.0072471052739E+00
26  2.5000000000000E-01  1.7397333395701E+00  4.0333621044348E-01 -9.8067729465935E-01
27  2.6000000000000E-01  1.8015831393821E+00  4.1238757604531E-01 -9.4022934162942E-01
28  2.7000000000000E-01  1.8556743490439E+00  4.1802764881518E-01 -8.8576926742823E-01
29  2.8000000000000E-01  1.9014522621343E+00  4.2016427261223E-01 -8.1738409944454E-01
30  2.9000000000000E-01  1.9384461365183E+00  4.1880434374941E-01 -7.3538691791046E-01
31  3.0000000000000E-01  1.9662746305444E+00  4.1405939069904E-01 -6.4031739020504E-01
32  3.1000000000000E-01  1.9846499463945E+00  4.0614799410841E-01 -5.3293761185779E-01
33  3.2000000000000E-01  1.9933805969799E+00  3.9539484108071E-01 -4.1422320141612E-01
34  3.3000000000000E-01  1.9923727455692E+00  3.8222632860157E-01 -2.8534973090919E-01
35  3.4000000000000E-01  1.9816301018630E+00  3.6716275785462E-01 -1.4767471005277E-01
36  3.5000000000000E-01  1.9612523933275E+00  3.5080728900006E-01 -2.7154757346022E-03
37  3.6000000000000E-01  1.9314324650470E+00  3.3383194970232E-01  1.4787653616302E-01
38  3.7000000000000E-01  1.8924520939571E+00  3.1696110529163E-01  3.0234454658910E-01
39  3.8000000000000E-01  1.8446766329567E+00  3.0095289923056E-01  4.5885753069301E-01
40  3.9000000000000E-01  1.7885486260369E+00  2.8657925532030E-01  6.1554289516166E-01
41  4.0000000000000E-01  1.7245805563448E+00  2.7460509428042E-01  7.7051992215957E-01
42  4.1000000000000E-01  1.6533469043385E+00  2.6576745425003E-01  9.2193314060190E-01
43  4.2000000000000E-01  1.5754757024116E+00  2.6075521560873E-01  1.0679847867475E+00
44  4.3000000000000E-01  1.4916397753417E+00  2.6019011455439E-01  1.2069655447854E+00
45  4.4000000000000E-01  1.4025478526554E+00  2.6460968742291E-01  1.3372828134397E+00
46  4.5000000000000E-01  1.3089357297556E+00  2.7445272019260E-01  1.4574858248516E+00
47  4.6000000000000E-01  1.2115576399190E+00  2.9004768740963E-01  1.5662870443807E+00
48  4.7000000000000E-01  1.1111779797432E+00  3.1160455527949E-01  1.6625794008853E+00
49  4.8000000000000E-01  1.0085635072063E+00  3.3921019908975E-01  1.7454490321570E+00
50  4.9000000000000E-01  9.0447610523244E-01  3.7282755031962E-01  1.8141833745878E+00
51  5.0000000000000E-01  7.9966617569813E-01  4.1229844908471E-01  1.8682745745311E+00
52  5.1000000000000E-01  6.9486670037388E-01  4.5735003854666E-01  1.9074183457116E+00
53  5.2000000000000E-01  5.9078797760021E-01  5.0760440521266E-01  1.9315085370036E+00
54  5.3000000000000E-01  4.8811301772664E-01  5.6259104808225E-01  1.9406278027244E+00
55  5.4000000000000E-01  3.8749355758522E-01  6.2176165537014E-01  1.9350348785835E+00
56  5.5000000000000E-01  2.8954663547328E-01  6.8450658441236E-01  1.9151490564757E+00
57  5.6000000000000E-01  1.9485165404987E-01  7.5017238189093E-01  1.8815325171896E+00
58  5.7000000000000E-01  1.0394784975413E-01  8.1807965025239E-01  1.8348712195026E+00
59  5.8000000000000E-01  1.7332084139387E-02  8.8754056361226E-01  1.7759550558263E+00
60  5.9000000000000E-01 -6.4543125068041E-02  9.5787536281447E-01  1.7056579684228E+00
61  6.0000000000000E-01 -1.4127140754531E-01  1.0284272137408E+00  1.6249186772367E+00
62  6.1000000000000E-01 -2.1249424016697E-01  1.0985748933391E+00  1.5347226026735E+00
63  6.2000000000000E-01 -2.7790258758261E-01  1.1677428709563E+00  1.4360854772992E+00
64  6.3000000000000E-01 -3.3723850780657E-01  1.2354084742212E+00  1.3300390334350E+00
65  6.4000000000000E-01 -3.9029672447803E-01  1.3011059638970E+00  1.2176190336886E+00
66  6.5000000000000E-01 -4.3692614386163E-01  1.3644274851456E+00  1.0998557838465E+00
67  6.6000000000000E-01 -4.7703127133922E-01  1.4250210074649E+00  9.7776713782096E-01
68  6.7000000000000E-01 -5.1057346039782E-01  1.4825855059307E+00  8.5235387815597E-01
69  6.8000000000000E-01 -5.3757190820860E-01  1.5368637662077E+00  7.2459723844131E-01
70  6.9000000000000E-01 -5.5810429697912E-01  1.5876333093010E+00  5.9545823098486E-01
71  7.0000000000000E-01 -5.7230697035631E-01  1.6346960240733E+00  4.6587835875781E-01
72  7.1000000000000E-01 -5.8037453006506E-01  1.6778671618153E+00  3.3678122866506E-01
73  7.2000000000000E-01 -5.8255874024915E-01  1.7169643843496E+00  2.0907454634928E-01
74  7.3000000000000E-01 -5.7916663592336E-01  1.7517975631449E+00  8.3651962672102E-02
75  7.4000000000000E-01 -5.7055774753768E-01  1.7821600009009E+00 -3.8605740782957E-02
76  7.5000000000000E-01 -5.5714037557990E-01  1.8078216895531E+00 -1.5683059607767E-01
77  7.6000000000000E-01 -5.3936687679066E-01  1.8285251314849E+00 -2.7016892360498E-01
78  7.7000000000000E-01 -5.1772795603404E-01  1.8439841370970E+00 -3.7778464740684E-01
79  7.8000000000000E-01 -4.9274599401095E-01  1.8538858760666E+00 -4.7886465358437E-01
80  7.9000000000000E-01 -4.6496747945721E-01  1.8578963070168E+00 -5.7262627349127E-01
81  8.0000000000000E-01 -4.3495465371779E-01  1.8556689470305E+00 -6.5832684512630E-01
82  8.1000000000000E-01 -4.0327651400168E-01  1.8468567752744E+00 -7.3527517619769E-01
83  8.2000000000000E-01 -3.7049935754255E-01  1.8311269009705E+00 -8.0284460667623E-01
84  8.3000000000000E-01 -3.3717708068178E-01  1.8081774721812E+00 -8.6048725315892E-01
85  8.4000000000000E-01 -3.0384147301526E-01  1.7777561651927E+00 -9.0774891752764E-01
86  8.5000000000000E-01 -2.7099276582420E-01  1.7396794810122E+00 -9.4428406311623E-01
87  8.6000000000000E-01 -2.3909070488217E-01  1.6938519911679E+00 -9.6987020696780E-01
88  8.7000000000000E-01 -2.0854641950315E-01  1.6402846241472E+00 -9.8442104984861E-01
89  8.8000000000000E-01 -1.7971535178639E-01  1.5791110697390E+00 -9.8799766839469E-01
90  8.9000000000000E-01 -1.5289149217934E-01  1.5106014032562E+00 -9.8081712676232E-01
91  9.0000000000000E-01 -1.2830313983129E-01  1.4351720956489E+00 -9.6325792777699E-01
92  9.1000000000000E-01 -1.0611036921636E-01  1.3533916779710E+00 -9.3586181387031E-01
93  9.2000000000000E-01 -8.6404338978842E-02  1.2659814672015E+00 -8.9933154284119E-01
94  9.3000000000000E-01 -6.9208526031045E-02  1.1738109313355E+00 -8.5452439831865E-01
95  9.4000000000000E-01 -5.4481909034367E-02  1.0778874700595E+00 -8.0244134436736E-01
96  9.5000000000000E-01 -4.2124062170246E-02  9.7934060723336E-01 -7.4421189178739E-01
97  9.6000000000000E-01 -3.1982054378570E-02  8.7940082613359E-01 -6.8107490358332E-01
98  9.7000000000000E-01 -2.3858982966823E-02  7.7937352056758E-01 -6.1435572165543E-01
99  9.8000000000000E-01 -1.7523905630673E-02  6.8060877706627E-01 -5.4544013886398E-01
100  9.9000000000000E-01 -1.2722873468306E-02  5.8446793766617E-01 -4.7574586313768E-01
101  1.0000000000000E+00 -9.1907113076116E-03  4.9228811225208E-01 -4.0669221676295E-01
102  1.0100000000000E+00 -6.6631423491209E-03  4.0534600706212E-01 -3.3966887832553E-01