Am    ONCVPSP-4.0.1  r_core=   1.15530   1.20470   1.10131   1.15530
95.0000     35.0000      220327    zatom,zion,pspd
8      11   3     4   600     0    pspcod,pspxc,lmax,lloc,mmax,r2well
5.99000000  5.00000000  0.00000000    rchrg fchrg qchrg
3     2     2     2     0    nproj
1     1           extension_switch
0                         3.5147434076347E+01  3.2986383593214E+00 -9.3475364508491E-01
1  0.0000000000000E+00 -5.1424042135650E-08  1.9315234867090E-07  2.4740475279561E-08
2  1.0000000000000E-02  1.5984424232463E-01 -8.2255432814688E-02  2.7828969807132E-02
3  2.0000000000000E-02  3.1857577609238E-01 -1.6276872658176E-01  5.5565581129930E-02
4  3.0000000000000E-02  4.7509656554292E-01 -2.3983988724480E-01  8.3114645873838E-02
5  4.0000000000000E-02  6.2833753247498E-01 -3.1185180685303E-01  1.1037548920495E-01
6  5.0000000000000E-02  7.7727207916678E-01 -3.7730825033255E-01  1.3723963059364E-01
7  6.0000000000000E-02  9.2092850353726E-01 -4.3486784217033E-01  1.6358895539109E-01
8  7.0000000000000E-02  1.0584010010870E+00 -4.8337295918943E-01  1.8929450990933E-01
9  8.0000000000000E-02  1.1888589995814E+00 -5.2187262874629E-01  2.1421602823557E-01
10  9.0000000000000E-02  1.3115546328050E+00 -5.4963875848375E-01  2.3820226981942E-01
11  1.0000000000000E-01  1.4258282266428E+00 -5.6617527531057E-01  2.6109221429382E-01
12  1.1000000000000E-01  1.5311117415954E+00 -5.7122001768652E-01  2.8271712521246E-01
13  1.2000000000000E-01  1.6269301878252E+00 -5.6473949610150E-01  3.0290345867964E-01
14  1.3000000000000E-01  1.7129010991201E+00 -5.4691690123432E-01  3.2147655751719E-01
15  1.4000000000000E-01  1.7887322180023E+00 -5.1813398728304E-01  3.3826503795226E-01
16  1.5000000000000E-01  1.8542176030145E+00 -4.7894767965859E-01  3.5310574505662E-01
17  1.6000000000000E-01  1.9092324186948E+00 -4.3006244296936E-01  3.6584912645699E-01
18  1.7000000000000E-01  1.9537267069866E+00 -3.7229958971093E-01  3.7636485215846E-01
19  1.8000000000000E-01  1.9877184643588E+00 -3.0656480671493E-01  3.8454749249581E-01
20  1.9000000000000E-01  2.0112863607766E+00 -2.3381522151697E-01  3.9032205685253E-01
21  2.0000000000000E-01  2.0245624344763E+00 -1.5502732271785E-01  3.9364919324825E-01
22  2.1000000000000E-01  2.0277250804130E+00 -7.1166987619502E-02  3.9452985332262E-01
23  2.2000000000000E-01  2.0209926210163E+00  1.6837240502748E-02  3.9300923852997E-01
24  2.3000000000000E-01  2.0046177067585E+00  1.0811663960439E-01  3.8917986115069E-01
25  2.4000000000000E-01  1.9788827427796E+00  2.0187977027240E-01  3.8318357743900E-01
26  2.5000000000000E-01  1.9440964785775E+00  2.9742434781303E-01  3.7521247907459E-01
27  2.6000000000000E-01  1.9005918330769E+00  3.9414321020088E-01  3.6550856209681E-01
28  2.7000000000000E-01  1.8487249599470E+00  4.9152432753306E-01  3.5436212856304E-01
29  2.8000000000000E-01  1.7888754907124E+00  5.8914506027323E-01  3.4210891407016E-01
30  2.9000000000000E-01  1.7214478288415E+00  6.8666112567518E-01  3.2912597273234E-01
31  3.0000000000000E-01  1.6468733093444E+00  7.8379096405387E-01  3.1582638892977E-01
32  3.1000000000000E-01  1.5656129880093E+00  8.8029639943405E-01  3.0265292086845E-01
33  3.2000000000000E-01  1.4781607844271E+00  9.7596065421157E-01  2.9007071354030E-01
34  3.3000000000000E-01  1.3850466752079E+00  1.0705648978980E+00  2.7855924697649E-01
35  3.4000000000000E-01  1.2868396195527E+00  1.1638645806989E+00  2.6860370883336E-01
36  3.5000000000000E-01  1.1841498993679E+00  1.2555668205092E+00  2.6068599761497E-01
37  3.6000000000000E-01  1.0776305705588E+00  1.3453100759074E+00  2.5527557369965E-01
38  3.7000000000000E-01  9.6797775058835E-01  1.4326472491173E+00  2.5282037951186E-01
39  3.8000000000000E-01  8.5592950883666E-01  1.5170332250084E+00  2.5373804760666E-01
40  3.9000000000000E-01  7.4226317919956E-01  1.5978176703991E+00  2.5840760628948E-01
41  4.0000000000000E-01  6.2779097669653E-01  1.6742436993433E+00  2.6716187707795E-01
42  4.1000000000000E-01  5.1335386918005E-01  1.7454527634470E+00  2.8028073743406E-01
43  4.2000000000000E-01  3.9981372881956E-01  1.8104958614040E+00  2.9798539653926E-01
44  4.3000000000000E-01  2.8804386291754E-01  1.8683508895554E+00  3.2043380239517E-01
45  4.4000000000000E-01  1.7891809678221E-01  1.9179456863791E+00  3.4771726625877E-01
46  4.5000000000000E-01  7.3298649840211E-02  1.9581860693424E+00  3.7985835649045E-01
47  4.6000000000000E-01 -2.7976892924061E-02  1.9879879329844E+00  4.1681007947039E-01
48  4.7000000000000E-01 -1.2410916131003E-01  2.0063122818580E+00  4.5845633146183E-01
49  4.8000000000000E-01 -2.1435074063376E-01  2.0122019193143E+00  5.0461357327476E-01
50  4.9000000000000E-01 -2.9801965697318E-01  2.0048184094843E+00  5.5503365030362E-01
51  5.0000000000000E-01 -3.7451218176464E-01  1.9834778798705E+00  6.0940765486165E-01
52  5.1000000000000E-01 -4.4331453709320E-01  1.9476842380983E+00  6.6737070642362E-01
53  5.2000000000000E-01 -5.0401310529745E-01  1.8971584389005E+00  7.2850750896375E-01
54  5.3000000000000E-01 -5.5630278391240E-01  1.8318625542714E+00  7.9235853337408E-01
55  5.4000000000000E-01 -5.9999317826803E-01  1.7520175667855E+00  8.5842666711429E-01
56  5.5000000000000E-01 -6.3501238745622E-01  1.6581140171341E+00  9.2618417270894E-01
57  5.6000000000000E-01 -6.6140821260581E-01  1.5509148840529E+00  9.9507980121541E-01
58  5.7000000000000E-01 -6.7934669680147E-01  1.4314503485847E+00  1.0645459158923E+00
59  5.8000000000000E-01 -6.8910799059690E-01  1.3010043845808E+00  1.1340054944084E+00
60  5.9000000000000E-01 -6.9107962277655E-01  1.1610934123193E+00  1.2028788943145E+00
61  6.0000000000000E-01 -6.8574733964767E-01  1.0134375408029E+00  1.2705902853312E+00
62  6.1000000000000E-01 -6.7368375458287E-01  8.5992519550415E-01  1.3365736723956E+00
63  6.2000000000000E-01 -6.5553511989473E-01  7.0257217167637E-01  1.4002784544456E+00
64  6.3000000000000E-01 -6.3200659280775E-01  5.4347635945614E-01  1.4611744847054E+00
65  6.4000000000000E-01 -6.0384641412551E-01  3.8476954798041E-01  1.5187566179136E+00
66  6.5000000000000E-01 -5.7182945049343E-01  2.2856782553762E-01  1.5725487477460E+00
67  6.6000000000000E-01 -5.3674056780800E-01  7.6922147254556E-02  1.6221073529637E+00
68  6.7000000000000E-01 -4.9935830380956E-01 -6.8229360910311E-02  1.6670245830500E+00
69  6.8000000000000E-01 -4.6043929231700E-01 -2.0510585275702E-01  1.7069309229158E+00
70  6.9000000000000E-01 -4.2070386063510E-01 -3.3212357196941E-01  1.7414974814461E+00
71  7.0000000000000E-01 -3.8082317667974E-01 -4.4792979059024E-01  1.7704379502072E+00
72  7.1000000000000E-01 -3.4140826512659E-01 -5.5142985186429E-01  1.7935102766480E+00
73  7.2000000000000E-01 -3.0300114465963E-01 -6.4180653586961E-01  1.8105180909126E+00
74  7.3000000000000E-01 -2.6606826376504E-01 -7.1853123464328E-01  1.8213119173486E+00
75  7.4000000000000E-01 -2.3099633333177E-01 -7.8136670740219E-01  1.8257901914937E+00
76  7.5000000000000E-01 -1.9809057354694E-01 -8.3036147525547E-01  1.8239000913872E+00
77  7.6000000000000E-01 -1.6757531317100E-01 -8.6583619780719E-01  1.8156381791821E+00
78  7.7000000000000E-01 -1.3959680410477E-01 -8.8836264089366E-01  1.8010508359538E+00
79  7.8000000000000E-01 -1.1422804583798E-01 -8.9873608590065E-01  1.7802344600523E+00
80  7.9000000000000E-01 -9.1475355197179E-02 -8.9794223831052E-01  1.7533353880288E+00
81  8.0000000000000E-01 -7.1286368671854E-02 -8.8711985949793E-01  1.7205494877317E+00
82  8.1000000000000E-01 -5.3559128911040E-02 -8.6752046616291E-01  1.6821213661851E+00
83  8.2000000000000E-01 -3.8151884631115E-02 -8.4046651293087E-01  1.6383431308060E+00
84  8.3000000000000E-01 -2.4893224518820E-02 -8.0730949424006E-01  1.5895526417437E+00
85  8.4000000000000E-01 -1.3592170568957E-02 -7.6938937231860E-01  1.5361311958751E+00
86  8.5000000000000E-01 -4.0478739809384E-03 -7.2799666128980E-01  1.4785005893785E+00
87  8.6000000000000E-01  3.9414138843927E-03 -6.8433837735715E-01  1.4171195158377E+00
88  8.7000000000000E-01  1.0570383435234E-02 -6.3950890712303E-01  1.3524792703816E+00
89  8.8000000000000E-01  1.6019961698621E-02 -5.9446665697288E-01  1.2850987472465E+00
90  8.9000000000000E-01  2.0452045846058E-02 -5.5001713341328E-01  1.2155187380741E+00
91  9.0000000000000E-01  2.4005802599278E-02 -5.0680287489489E-01  1.1442955609037E+00
92  9.1000000000000E-01  2.6795599944100E-02 -4.6530041748823E-01  1.0719940748353E+00
93  9.2000000000000E-01  2.8910576494359E-02 -4.2582423683536E-01  9.9918016236404E-01
94  9.3000000000000E-01  3.0415794103960E-02 -3.8853737315289E-01  9.2641279011091E-01
95  9.4000000000000E-01  3.1354862251561E-02 -3.5346821963634E-01  8.5423578881038E-01
96  9.5000000000000E-01  3.1753869195432E-02 -3.2053274069765E-01  7.8316952477426E-01
97  9.6000000000000E-01  3.1626405312487E-02 -2.8956118661440E-01  7.1370266752903E-01
98  9.7000000000000E-01  3.0979418265127E-02 -2.6032818503531E-01  6.4628429191592E-01
99  9.8000000000000E-01  2.9819596956925E-02 -2.3258491485655E-01  5.8131658778716E-01
100  9.9000000000000E-01  2.8159940405266E-02 -2.0609189990534E-01  5.1914848674327E-01
101  1.0000000000000E+00  2.6026126816935E-02 -1.8065079199895E-01  4.6007055354296E-01
102  1.0100000000000E+00  2.3462255008704E-02 -1.5613333711177E-01  4.0431153032330E-01
103  1.0200000000000E+00  2.0535482070450E-02 -1.3250552453238E-01  3.5203696519357E-01
104  1.0300000000000E+00  1.7339024665990E-02 -1.0984469568011E-01  3.0335040378444E-01
105  1.0400000000000E+00  1.3992923054214E-02 -8.8347123879193E-02  2.5829767373631E-01
106  1.0500000000000E+00  1.0641883224154E-02 -6.8323256037163E-02  2.1687484860593E-01
107  1.0600000000000E+00  7.4494095437528E-03 -5.0177417633569E-02  1.7904054018084E-01
108  1.0700000000000E+00  4.5873139912242E-03 -3.4368309138737E-02  1.4473323760048E-01
109  1.0800000000000E+00  2.2195704229578E-03 -2.1346169735003E-02  1.1389450554239E-01
110  1.0900000000000E+00  4.7896775775117E-04 -1.1460690336802E-02  8.6498804339963E-02
111  1.1000000000000E+00 -5.7381799083161E-04 -4.8047855949401E-03  6.2586364913841E-02
112  1.1100000000000E+00 -1.1093978040346E-03 -6.6147537922098E-04  4.2244735133523E-02
113  1.1200000000000E+00 -1.2039737930261E-03  1.3974825409610E-03  2.5709638414843E-02
114  1.1300000000000E+00 -9.3497487162633E-04  1.7594515750549E-03  1.3189397196242E-02
115  1.1400000000000E+00 -4.7329237436038E-04  1.0655726451596E-03  4.8022227032154E-03
116  1.1500000000000E+00 -7.7403098899353E-05  1.9085403335587E-04  5.9434736871973E-04
117  1.1600000000000E+00  4.9254049114026E-06 -1.2634181029228E-05 -3.2017245684031E-05
118  1.1700000000000E+00  1.2872239666614E-07 -3.1412008529916E-07 -1.0268290742705E-06
119  1.18 -0.  0. -0.
120  1.19  0.  0.  0.
121  1.20  0.  0.  0.
122  1.21  0.  0.  0.
123  1.22  0.  0.  0.
124  1.23  0.  0.  0.
125  1.24  0.  0.  0.
126  1.25  0.  0.  0.
127  1.26  0.  0.  0.
128  1.27  0.  0.  0.
129  1.28  0.  0.  0.
130  1.29  0.  0.  0.
131  1.30  0.  0.  0.
132  1.31  0.  0.  0.
133  1.32  0.  0.  0.
134  1.33  0.  0.  0.
135  1.34  0.  0.  0.
136  1.35  0.  0.  0.
137  1.36  0.  0.  0.
138  1.37  0.  0.  0.
139  1.38  0.  0.  0.
140  1.39  0.  0.  0.
141  1.40  0.  0.  0.
142  1.41  0.  0.  0.
143  1.42  0.  0.  0.
144  1.43  0.  0.  0.
145  1.44  0.  0.  0.
146  1.45  0.  0.  0.
147  1.46  0.  0.  0.
148  1.47  0.  0.  0.
149  1.48  0.  0.  0.
150  1.49  0.  0.  0.
151  1.50  0.  0.  0.
152  1.51  0.  0.  0.
153  1.52  0.  0.  0.
154  1.53  0.  0.  0.
155  1.54  0.  0.  0.
156  1.55  0.  0.  0.
157  1.56  0.  0.  0.
158  1.57  0.  0.  0.
159  1.58  0.  0.  0.
160  1.59  0.  0.  0.
161  1.60  0.  0.  0.
162  1.61  0.  0.  0.
163  1.62  0.  0.  0.
164  1.63  0.  0.  0.
165  1.64  0.  0.  0.
166  1.65  0.  0.  0.
167  1.66  0.  0.  0.
168  1.67  0.  0.  0.
169  1.68  0.  0.  0.
170  1.69  0.  0.  0.
171  1.70  0.  0.  0.
172  1.71  0.  0.  0.
173  1.72  0.  0.  0.
174  1.73  0.  0.  0.
175  1.74  0.  0.  0.
176  1.75  0.  0.  0.
177  1.76  0.  0.  0.
178  1.77  0.  0.  0.
179  1.78  0.  0.  0.
180  1.79  0.  0.  0.
181  1.80  0.  0.  0.
182  1.81  0.  0.  0.
183  1.82  0.  0.  0.
184  1.83  0.  0.  0.
185  1.84  0.  0.  0.
186  1.85  0.  0.  0.
187  1.86  0.  0.  0.
188  1.87  0.  0.  0.
189  1.88  0.  0.  0.
190  1.89  0.  0.  0.
191  1.90  0.  0.  0.
192  1.91  0.  0.  0.
193  1.92  0.  0.  0.
194  1.93  0.  0.  0.
195  1.94  0.  0.  0.
196  1.95  0.  0.  0.
197  1.96  0.  0.  0.
198  1.97  0.  0.  0.
199  1.98  0.  0.  0.
200  1.99  0.  0.  0.
201  2.00  0.  0.  0.
202  2.01  0.  0.  0.
203  2.02  0.  0.  0.
204  2.03  0.  0.  0.
205  2.04  0.  0.  0.
206  2.05  0.  0.  0.
207  2.06  0.  0.  0.
208  2.07  0.  0.  0.
209  2.08  0.  0.  0.
210  2.09  0.  0.  0.
211  2.10  0.  0.  0.
212  2.11  0.  0.  0.
213  2.12  0.  0.  0.
214  2.13  0.  0.  0.
215  2.14  0.  0.  0.
216  2.15  0.  0.  0.
217  2.16  0.  0.  0.
218  2.17  0.  0.  0.
219  2.18  0.  0.  0.
220  2.19  0.  0.  0.
221  2.20  0.  0.  0.
222  2.21  0.  0.  0.
223  2.22  0.  0.  0.
224  2.23  0.  0.  0.
225  2.24  0.  0.  0.
226  2.25  0.  0.  0.
227  2.26  0.  0.  0.
228  2.27  0.  0.  0.
229  2.28  0.  0.  0.
230  2.29  0.  0.  0.
231  2.30  0.  0.  0.
232  2.31  0.  0.  0.
233  2.32  0.  0.  0.
234  2.33  0.  0.  0.
235  2.34  0.  0.  0.
236  2.35  0.  0.  0.
237  2.36  0.  0.  0.
238  2.37  0.  0.  0.
239  2.38  0.  0.  0.
240  2.39  0.  0.  0.
241  2.40  0.  0.  0.
242  2.41  0.  0.  0.
243  2.42  0.  0.  0.
244  2.43  0.  0.  0.
245  2.44  0.  0.  0.
246  2.45  0.  0.  0.
247  2.46  0.  0.  0.
248  2.47  0.  0.  0.
249  2.48  0.  0.  0.
250  2.49  0.  0.  0.
251  2.50  0.  0.  0.
252  2.51  0.  0.  0.
253  2.52  0.  0.  0.
254  2.53  0.  0.  0.
255  2.54  0.  0.  0.
256  2.55  0.  0.  0.
257  2.56  0.  0.  0.
258  2.57  0.  0.  0.
259  2.58  0.  0.  0.
260  2.59  0.  0.  0.
261  2.60  0.  0.  0.
262  2.61  0.  0.  0.
263  2.62  0.  0.  0.
264  2.63  0.  0.  0.
265  2.64  0.  0.  0.
266  2.65  0.  0.  0.
267  2.66  0.  0.  0.
268  2.67  0.  0.  0.
269  2.68  0.  0.  0.
270  2.69  0.  0.  0.
271  2.70  0.  0.  0.
272  2.71  0.  0.  0.
273  2.72  0.  0.  0.
274  2.73  0.  0.  0.
275  2.74  0.  0.  0.
276  2.75  0.  0.  0.
277  2.76  0.  0.  0.
278  2.77  0.  0.  0.
279  2.78  0.  0.  0.
280  2.79  0.  0.  0.
281  2.80  0.  0.  0.
282  2.81  0.  0.  0.
283  2.82  0.  0.  0.
284  2.83  0.  0.  0.
285  2.84  0.  0.  0.
286  2.85  0.  0.  0.
287  2.86  0.  0.  0.
288  2.87  0.  0.  0.
289  2.88  0.  0.  0.
290  2.89  0.  0.  0.
291  2.90  0.  0.  0.
292  2.91  0.  0.  0.
293  2.92  0.  0.  0.
294  2.93  0.  0.  0.
295  2.94  0.  0.  0.
296  2.95  0.  0.  0.
297  2.96  0.  0.  0.
298  2.97  0.  0.  0.
299  2.98  0.  0.  0.
300  2.99  0.  0.  0.
301  3.00  0.  0.  0.
302  3.01  0.  0.  0.
303  3.02  0.  0.  0.
304  3.03  0.  0.  0.
305  3.04  0.  0.  0.
306  3.05  0.  0.  0.
307  3.06  0.  0.  0.
308  3.07  0.  0.  0.
309  3.08  0.  0.  0.
310  3.09  0.  0.  0.
311  3.10  0.  0.  0.
312  3.11  0.  0.  0.
313  3.12  0.  0.  0.
314  3.13  0.  0.  0.
315  3.14  0.  0.  0.
316  3.15  0.  0.  0.
317  3.16  0.  0.  0.
318  3.17  0.  0.  0.
319  3.18  0.  0.  0.
320  3.19  0.  0.  0.
321  3.20  0.  0.  0.
322  3.21  0.  0.  0.
323  3.22  0.  0.  0.
324  3.23  0.  0.  0.
325  3.24  0.  0.  0.
326  3.25  0.  0.  0.
327  3.26  0.  0.  0.
328  3.27  0.  0.  0.
329  3.28  0.  0.  0.
330  3.29  0.  0.  0.
331  3.30  0.  0.  0.
332  3.31  0.  0.  0.
333  3.32  0.  0.  0.
334  3.33  0.  0.  0.
335  3.34  0.  0.  0.
336  3.35  0.  0.  0.
337  3.36  0.  0.  0.
338  3.37  0.  0.  0.
339  3.38  0.  0.  0.
340  3.39  0.  0.  0.
341  3.40  0.  0.  0.
342  3.41  0.  0.  0.
343  3.42  0.  0.  0.
344  3.43  0.  0.  0.
345  3.44  0.  0.  0.
346  3.45  0.  0.  0.
347  3.46  0.  0.  0.
348  3.47  0.  0.  0.
349  3.48  0.  0.  0.
350  3.49  0.  0.  0.
351  3.50  0.  0.  0.
352  3.51  0.  0.  0.
353  3.52  0.  0.  0.
354  3.53  0.  0.  0.
355  3.54  0.  0.  0.
356  3.55  0.  0.  0.
357  3.56  0.  0.  0.
358  3.57  0.  0.  0.
359  3.58  0.  0.  0.
360  3.59  0.  0.  0.
361  3.60  0.  0.  0.
362  3.61  0.  0.  0.
363  3.62  0.  0.  0.
364  3.63  0.  0.  0.
365  3.64  0.  0.  0.
366  3.65  0.  0.  0.
367  3.66  0.  0.  0.
368  3.67  0.  0.  0.
369  3.68  0.  0.  0.
370  3.69  0.  0.  0.
371  3.70  0.  0.  0.
372  3.71  0.  0.  0.
373  3.72  0.  0.  0.
374  3.73  0.  0.  0.
375  3.74  0.  0.  0.
376  3.75  0.  0.  0.
377  3.76  0.  0.  0.
378  3.77  0.  0.  0.
379  3.78  0.  0.  0.
380  3.79  0.  0.  0.
381  3.80  0.  0.  0.
382  3.81  0.  0.  0.
383  3.82  0.  0.  0.
384  3.83  0.  0.  0.
385  3.84  0.  0.  0.
386  3.85  0.  0.  0.
387  3.86  0.  0.  0.
388  3.87  0.  0.  0.
389  3.88  0.  0.  0.
390  3.89  0.  0.  0.
391  3.90  0.  0.  0.
392  3.91  0.  0.  0.
393  3.92  0.  0.  0.
394  3.93  0.  0.  0.
395  3.94  0.  0.  0.
396  3.95  0.  0.  0.
397  3.96  0.  0.  0.
398  3.97  0.  0.  0.
399  3.98  0.  0.  0.
400  3.99  0.  0.  0.
401  4.00  0.  0.  0.
402  4.01  0.  0.  0.
403  4.02  0.  0.  0.
404  4.03  0.  0.  0.
405  4.04  0.  0.  0.
406  4.05  0.  0.  0.
407  4.06  0.  0.  0.
408  4.07  0.  0.  0.
409  4.08  0.  0.  0.
410  4.09  0.  0.  0.
411  4.10  0.  0.  0.
412  4.11  0.  0.  0.
413  4.12  0.  0.  0.
414  4.13  0.  0.  0.
415  4.14  0.  0.  0.
416  4.15  0.  0.  0.
417  4.16  0.  0.  0.
418  4.17  0.  0.  0.
419  4.18  0.  0.  0.
420  4.19  0.  0.  0.
421  4.20  0.  0.  0.
422  4.21  0.  0.  0.
423  4.22  0.  0.  0.
424  4.23  0.  0.  0.
425  4.24  0.  0.  0.
426  4.25  0.  0.  0.
427  4.26  0.  0.  0.
428  4.27  0.  0.  0.
429  4.28  0.  0.  0.
430  4.29  0.  0.  0.
431  4.30  0.  0.  0.
432  4.31  0.  0.  0.
433  4.32  0.  0.  0.
434  4.33  0.  0.  0.
435  4.34  0.  0.  0.
436  4.35  0.  0.  0.
437  4.36  0.  0.  0.
438  4.37  0.  0.  0.
439  4.38  0.  0.  0.
440  4.39  0.  0.  0.
441  4.40  0.  0.  0.
442  4.41  0.  0.  0.
443  4.42  0.  0.  0.
444  4.43  0.  0.  0.
445  4.44  0.  0.  0.
446  4.45  0.  0.  0.
447  4.46  0.  0.  0.
448  4.47  0.  0.  0.
449  4.48  0.  0.  0.
450  4.49  0.  0.  0.
451  4.50  0.  0.  0.
452  4.51  0.  0.  0.
453  4.52  0.  0.  0.
454  4.53  0.  0.  0.
455  4.54  0.  0.  0.
456  4.55  0.  0.  0.
457  4.56  0.  0.  0.
458  4.57  0.  0.  0.
459  4.58  0.  0.  0.
460  4.59  0.  0.  0.
461  4.60  0.  0.  0.
462  4.61  0.  0.  0.
463  4.62  0.  0.  0.
464  4.63  0.  0.  0.
465  4.64  0.  0.  0.
466  4.65  0.  0.  0.
467  4.66  0.  0.  0.
468  4.67  0.  0.  0.
469  4.68  0.  0.  0.
470  4.69  0.  0.  0.
471  4.70  0.  0.  0.
472  4.71  0.  0.  0.
473  4.72  0.  0.  0.
474  4.73  0.  0.  0.
475  4.74  0.  0.  0.
476  4.75  0.  0.  0.
477  4.76  0.  0.  0.
478  4.77  0.  0.  0.
479  4.78  0.  0.  0.
480  4.79  0.  0.  0.
481  4.80  0.  0.  0.
482  4.81  0.  0.  0.
483  4.82  0.  0.  0.
484  4.83  0.  0.  0.
485  4.84  0.  0.  0.
486  4.85  0.  0.  0.
487  4.86  0.  0.  0.
488  4.87  0.  0.  0.
489  4.88  0.  0.  0.
490  4.89  0.  0.  0.
491  4.90  0.  0.  0.
492  4.91  0.  0.  0.
493  4.92  0.  0.  0.
494  4.93  0.  0.  0.
495  4.94  0.  0.  0.
496  4.95  0.  0.  0.
497  4.96  0.  0.  0.
498  4.97  0.  0.  0.
499  4.98  0.  0.  0.
500  4.99  0.  0.  0.
501  5.00  0.  0.  0.
502  5.01  0.  0.  0.
503  5.02  0.  0.  0.
504  5.03  0.  0.  0.
505  5.04  0.  0.  0.
506  5.05  0.  0.  0.
507  5.06  0.  0.  0.
508  5.07  0.  0.  0.
509  5.08  0.  0.  0.
510  5.09  0.  0.  0.
511  5.10  0.  0.  0.
512  5.11  0.  0.  0.
513  5.12  0.  0.  0.
514  5.13  0.  0.  0.
515  5.14  0.  0.  0.
516  5.15  0.  0.  0.
517  5.16  0.  0.  0.
518  5.17  0.  0.  0.
519  5.18  0.  0.  0.
520  5.19  0.  0.  0.
521  5.20  0.  0.  0.
522  5.21  0.  0.  0.
523  5.22  0.  0.  0.
524  5.23  0.  0.  0.
525  5.24  0.  0.  0.
526  5.25  0.  0.  0.
527  5.26  0.  0.  0.
528  5.27  0.  0.  0.
529  5.28  0.  0.  0.
530  5.29  0.  0.  0.
531  5.30  0.  0.  0.
532  5.31  0.  0.  0.
533  5.32  0.  0.  0.
534  5.33  0.  0.  0.
535  5.34  0.  0.  0.
536  5.35  0.  0.  0.
537  5.36  0.  0.  0.
538  5.37  0.  0.  0.
539  5.38  0.  0.  0.
540  5.39  0.  0.  0.
541  5.40  0.  0.  0.
542  5.41  0.  0.  0.
543  5.42  0.  0.  0.
544  5.43  0.  0.  0.
545  5.44  0.  0.  0.
546  5.45  0.  0.  0.
547  5.46  0.  0.  0.
548  5.47  0.  0.  0.
549  5.48  0.  0.  0.
550  5.49  0.  0.  0.
551  5.50  0.  0.  0.
552  5.51  0.  0.  0.
553  5.52  0.  0.  0.
554  5.53  0.  0.  0.
555  5.54  0.  0.  0.
556  5.55  0.  0.  0.
557  5.56  0.  0.  0.
558  5.57  0.  0.  0.
559  5.58  0.  0.  0.
560  5.59  0.  0.  0.
561  5.60  0.  0.  0.
562  5.61  0.  0.  0.
563  5.62  0.  0.  0.
564  5.63  0.  0.  0.
565  5.64  0.  0.  0.
566  5.65  0.  0.  0.
567  5.66  0.  0.  0.
568  5.67  0.  0.  0.
569  5.68  0.  0.  0.
570  5.69  0.  0.  0.
571  5.70  0.  0.  0.
572  5.71  0.  0.  0.
573  5.72  0.  0.  0.
574  5.73  0.  0.  0.
575  5.74  0.  0.  0.
576  5.75  0.  0.  0.
577  5.76  0.  0.  0.
578  5.77  0.  0.  0.
579  5.78  0.  0.  0.
580  5.79  0.  0.  0.
581  5.80  0.  0.  0.
582  5.81  0.  0.  0.
583  5.82  0.  0.  0.
584  5.83  0.  0.  0.
585  5.84  0.  0.  0.
586  5.85  0.  0.  0.
587  5.86  0.  0.  0.
588  5.87  0.  0.  0.
589  5.88  0.  0.  0.
590  5.89  0.  0.  0.
591  5.90  0.  0.  0.
592  5.91  0.  0.  0.
593  5.92  0.  0.  0.
594  5.93  0.  0.  0.
595  5.94  0.  0.  0.
596  5.95  0.  0.  0.
597  5.96  0.  0.  0.
598  5.97  0.  0.  0.
599  5.98  0.  0.  0.
600  5.99  0.  0.  0.
1                         9.0269918855853E+00 -3.7262390392733E-01
1  0.0000000000000E+00 -3.0386407001703E-09 -4.4058734577357E-08
2  1.0000000000000E-02  3.7774800466537E-03  8.3410867990094E-04
3  2.0000000000000E-02  1.5082142925732E-02  3.3447407255526E-03
4  3.0000000000000E-02  3.3830776842318E-02  7.5560906626081E-03
5  4.0000000000000E-02  5.9885098043703E-02  1.3506101505323E-02
6  5.0000000000000E-02  9.3052363680200E-02  2.1242998425810E-02
7  6.0000000000000E-02  1.3308624730541E-01  3.0820642899408E-02
8  7.0000000000000E-02  1.7968799333998E-01  4.2292905335929E-02
9  8.0000000000000E-02  2.3250786986155E-01  5.5707298265323E-02
10  9.0000000000000E-02  2.9114694098513E-01  7.1098147409462E-02
11  1.0000000000000E-01  3.5515918069780E-01  8.8479603109458E-02
12  1.1000000000000E-01  4.2405394919156E-01  1.0783880861168E-01
13  1.2000000000000E-01  4.9729885043515E-01  1.2912954404392E-01
14  1.3000000000000E-01  5.7432298593041E-01  1.5226665533641E-01
15  1.4000000000000E-01  6.5452061435970E-01  1.7712155607461E-01
16  1.5000000000000E-01  7.3725522025353E-01  2.0351905792936E-01
17  1.6000000000000E-01  8.2186398704843E-01  2.3123574290356E-01
18  1.7000000000000E-01  9.0766266117286E-01  2.6000003952845E-01
19  1.8000000000000E-01  9.9395078434161E-01  2.8949410701495E-01
20  1.9000000000000E-01  1.0800172613434E+00  3.1935756815723E-01
21  2.0000000000000E-01  1.1651462205807E+00  3.4919306563278E-01
22  2.1000000000000E-01  1.2486231147938E+00  3.7857354950911E-01
23  2.2000000000000E-01  1.3297410001031E+00  4.0705113856778E-01
24  2.3000000000000E-01  1.4078069230639E+00  4.3416733678068E-01
25  2.4000000000000E-01  1.4821483381484E+00  4.5946433110732E-01
26  2.5000000000000E-01  1.5521194722455E+00  4.8249704973350E-01
27  2.6000000000000E-01  1.6171075486296E+00  5.0284562269962E-01
28  2.7000000000000E-01  1.6765387806068E+00  5.2012786102044E-01
29  2.8000000000000E-01  1.7298840448392E+00  5.3401135696256E-01
30  2.9000000000000E-01  1.7766641462621E+00  5.4422480780025E-01
31  3.0000000000000E-01  1.8164545905721E+00  5.5056817836451E-01
32  3.1000000000000E-01  1.8488897864274E+00  5.5292134383188E-01
33  3.2000000000000E-01  1.8736666076646E+00  5.5125089282349E-01
34  3.3000000000000E-01  1.8905472558266E+00  5.4561482092331E-01
35  3.4000000000000E-01  1.8993613748813E+00  5.3616490469850E-01
36  3.5000000000000E-01  1.9000073829221E+00  5.2314661437990E-01
37  3.6000000000000E-01  1.8924529995409E+00  5.0689649740094E-01
38  3.7000000000000E-01  1.8767349621074E+00  4.8783704263281E-01
39  3.8000000000000E-01  1.8529579389826E+00  4.6646911386735E-01
40  3.9000000000000E-01  1.8212926623564E+00  4.4336211829378E-01
41  4.0000000000000E-01  1.7819733175314E+00  4.1914214880652E-01
42  4.1000000000000E-01  1.7352942387014E+00  3.9447840548907E-01
43  4.2000000000000E-01  1.6816059732376E+00  3.7006825925016E-01
44  4.3000000000000E-01  1.6213107868918E+00  3.4662136731252E-01
45  4.4000000000000E-01  1.5548576908682E+00  3.2484328438710E-01
46  4.5000000000000E-01  1.4827370782115E+00  3.0541903361743E-01
47  4.6000000000000E-01  1.4054750612425E+00  2.8899710691410E-01
48  4.7000000000000E-01  1.3236276037728E+00  2.7617435476858E-01
49  4.8000000000000E-01  1.2377745415313E+00  2.6748220119072E-01
50  4.9000000000000E-01  1.1485135817048E+00  2.6337458071554E-01
51  5.0000000000000E-01  1.0564543678562E+00  2.6421794261945E-01
52  5.1000000000000E-01  9.6221268993972E-01  2.7028360418168E-01
53  5.2000000000000E-01  8.6640491093183E-01  2.8174266203625E-01
54  5.3000000000000E-01  7.6964267204838E-01  2.9866359074170E-01
55  5.4000000000000E-01  6.7252792796070E-01  3.2101257327437E-01
56  5.5000000000000E-01  5.7564835223066E-01  3.4865652203576E-01
57  5.6000000000000E-01  4.7957314173944E-01  3.8136866403968E-01
58  5.7000000000000E-01  3.8484923757325E-01  4.1883648309459E-01
59  5.8000000000000E-01  2.9199796902403E-01  4.6067173777951E-01
60  5.9000000000000E-01  2.0151211741071E-01  5.0642220938115E-01
61  6.0000000000000E-01  1.1385338763504E-01  5.5558478096561E-01
62  6.1000000000000E-01  2.9450268013595E-02  6.0761940926008E-01
63  6.2000000000000E-01 -5.1303746825855E-02  6.6196352643259E-01
64  6.3000000000000E-01 -1.2805159919717E-01  7.1804640007267E-01
65  6.4000000000000E-01 -2.0047380915834E-01  7.7530298705426E-01
66  6.5000000000000E-01 -2.6828934464789E-01  8.3318684027922E-01
67  6.6000000000000E-01 -3.3125625140332E-01  8.9118166579232E-01
68  6.7000000000000E-01 -3.8917207020694E-01  9.4881118009564E-01
69  6.8000000000000E-01 -4.4187406475225E-01  1.0056469818599E+00
70  6.9000000000000E-01 -4.8923927809369E-01  1.0613142263719E+00
71  7.0000000000000E-01 -5.3118442955190E-01  1.1154949723405E+00
72  7.1000000000000E-01 -5.6766565744401E-01  1.1679291562267E+00
73  7.2000000000000E-01 -5.9867810646122E-01  1.2184132359744E+00
74  7.3000000000000E-01 -6.2425535229638E-01  1.2667966307952E+00
75  7.4000000000000E-01 -6.4446865059086E-01  1.3129761634005E+00
76  7.5000000000000E-01 -6.5942599275815E-01  1.3568887828732E+00
77  7.6000000000000E-01 -6.6927094804340E-01  1.3985029075903E+00
78  7.7000000000000E-01 -6.7418126953466E-01  1.4378087759633E+00
79  7.8000000000000E-01 -6.7436724192964E-01  1.4748082264619E+00
80  7.9000000000000E-01 -6.7006975078314E-01  1.5095043461336E+00
81  8.0000000000000E-01 -6.6155805674207E-01  1.5418914279567E+00
82  8.1000000000000E-01 -6.4912726385594E-01  1.5719456617791E+00
83  8.2000000000000E-01 -6.3309547829388E-01  1.5996169518827E+00
84  8.3000000000000E-01 -6.1380066248041E-01  1.6248222075551E+00
85  8.4000000000000E-01 -5.9159719949022E-01  1.6474403932320E+00
86  8.5000000000000E-01 -5.6685219315332E-01  1.6673095541258E+00
87  8.6000000000000E-01 -5.3994154030359E-01  1.6842259545669E+00
88  8.7000000000000E-01 -5.1124582249678E-01  1.6979453827402E+00
89  8.8000000000000E-01 -4.8114607484600E-01  1.7081865905495E+00
90  8.9000000000000E-01 -4.5001949887776E-01  1.7146367546304E+00
91  9.0000000000000E-01 -4.1823519400961E-01  1.7169587677291E+00
92  9.1000000000000E-01 -3.8614998792315E-01  1.7148001024003E+00
93  9.2000000000000E-01 -3.5410444932220E-01  1.7078029346904E+00
94  9.3000000000000E-01 -3.2241916694451E-01  1.6956151773191E+00
95  9.4000000000000E-01 -2.9139137592232E-01  1.6779020526193E+00
96  9.5000000000000E-01 -2.6129200642195E-01  1.6543578374335E+00
97  9.6000000000000E-01 -2.3236321977694E-01  1.6247174370629E+00
98  9.7000000000000E-01 -2.0481648399855E-01  1.5887674943671E+00
99  9.8000000000000E-01 -1.7883122362084E-01  1.5463568137866E+00
100  9.9000000000000E-01 -1.5455405844506E-01  1.4974059782344E+00
101  1.0000000000000E+00 -1.3209862207413E-01  1.4419161588660E+00
102  1.0100000000000E+00 -1.1154592448197E-01  1.3799772622573E+00
103  1.0200000000000E+00 -9.2945193607596E-02  1.3117757246193E+00
104  1.0300000000000E+00 -7.6315099533552E-02  1.2376024459552E+00
105  1.0400000000000E+00 -6.1645231667822E-02  1.1578615558475E+00
106  1.0500000000000E+00 -4.8897665089263E-02  1.0730809132942E+00
107  1.0600000000000E+00 -3.8008417333739E-02  9.8392546263411E-01
108  1.0700000000000E+00 -2.8888561972811E-02  8.9121479248763E-01
109  1.0800000000000E+00 -2.1424731034886E-02  7.9594647043282E-01
110  1.0900000000000E+00 -1.5478701206692E-02  6.9932699392872E-01
111  1.1000000000000E+00 -1.0885770485842E-02  6.0281191338803E-01
112  1.1100000000000E+00 -7.4523745140672E-03  5.0814771414591E-01
113  1.1200000000000E+00 -4.9685656167304E-03  4.1723440598696E-01
114  1.1300000000000E+00 -3.2314084570241E-03  3.3188032997796E-01
115  1.1400000000000E+00 -2.0540734045502E-03  2.5374043936039E-01
116  1.1500000000000E+00 -1.2816875607468E-03  1.8423753643693E-01
117  1.1600000000000E+00 -8.0883560358377E-04  1.2446461179099E-01
118  1.1700000000000E+00 -5.0813275089326E-04  7.5561655310712E-02
119  1.1800000000000E+00 -2.9294630181560E-04  3.8411580944037E-02
120  1.1900000000000E+00 -1.2516245087037E-04  1.3597102013681E-02
121  1.2000000000000E+00 -1.7230630460414E-05  1.4973130274091E-03
122  1.2100000000000E+00  1.1865571095965E-06 -9.0255093903877E-05
123  1.2200000000000E+00  3.6053492281965E-08 -3.3098379537829E-06
124  1.23 -0. -0.
125  1.24  0.  0.
126  1.25  0.  0.
127  1.26  0.  0.
128  1.27  0.  0.
129  1.28  0.  0.
130  1.29  0.  0.
131  1.30  0.  0.
132  1.31  0.  0.
133  1.32  0.  0.
134  1.33  0.  0.
135  1.34  0.  0.
136  1.35  0.  0.
137  1.36  0.  0.
138  1.37  0.  0.
139  1.38  0.  0.
140  1.39  0.  0.
141  1.40  0.  0.
142  1.41  0.  0.
143  1.42  0.  0.
144  1.43  0.  0.
145  1.44  0.  0.
146  1.45  0.  0.
147  1.46  0.  0.
148  1.47  0.  0.
149  1.48  0.  0.
150  1.49  0.  0.
151  1.50  0.  0.