Am    ONCVPSP-4.0.1  r_core=   1.20470   1.20470   1.20470   1.20470
95.0000     35.0000      220822    zatom,zion,pspd
8      11   3     4   600     0    pspcod,pspxc,lmax,lloc,mmax,r2well
5.99000000  5.00000000  0.00000000    rchrg fchrg qchrg
3     2     2     2     0    nproj
1     1           extension_switch
0                         2.8984359442327E+01  3.5377147728859E+00 -1.4295858769193E-01
1  0.0000000000000E+00 -9.8884784804909E-09  3.2876488920142E-08  1.3429842845442E-07
2  1.0000000000000E-02  1.4081800872284E-01 -4.7604586765519E-02 -1.5261256342662E-02
3  2.0000000000000E-02  2.8088432380642E-01 -9.4449218938171E-02 -2.9667422134706E-02
4  3.0000000000000E-02  4.1945297762189E-01 -1.3978476090769E-01 -4.2393380719364E-02
5  4.0000000000000E-02  5.5578936621656E-01 -1.8288345163287E-01 -5.2672916325446E-02
6  5.0000000000000E-02  6.8917571301299E-01 -2.2304894247715E-01 -5.9825584002657E-02
7  6.0000000000000E-02  8.1891627826218E-01 -2.5962558068436E-01 -6.3280584542082E-02
8  7.0000000000000E-02  9.4434224173373E-01 -2.9200672767779E-01 -6.2596811529559E-02
9  8.0000000000000E-02  1.0648161960144E+00 -3.1964193424241E-01 -5.7478371978097E-02
10  9.0000000000000E-02  1.1797361994299E+00 -3.4204283339081E-01 -4.7785040751884E-02
11  1.0000000000000E-01  1.2885393505666E+00 -3.5878765487725E-01 -3.3537286625971E-02
12  1.1000000000000E-01  1.3907048601567E+00 -3.6952431130063E-01 -1.4915698047365E-02
13  1.2000000000000E-01  1.4857566101979E+00 -3.7397205282596E-01  7.7451671996112E-03
14  1.3000000000000E-01  1.5732652040576E+00 -3.7192173398865E-01  3.3968289131571E-02
15  1.4000000000000E-01  1.6528495244664E+00 -3.6323478011500E-01  6.3150642996230E-02
16  1.5000000000000E-01  1.7241778282248E+00 -3.4784098094446E-01  9.4584027775471E-02
17  1.6000000000000E-01  1.7869684167048E+00 -3.2573527359633E-01  1.2747953439736E-01
18  1.7000000000000E-01  1.8409899294356E+00 -2.9697370480133E-01  1.6099479607519E-01
19  1.8000000000000E-01  1.8860613139365E+00 -2.6166878229320E-01  1.9426306733853E-01
20  1.9000000000000E-01  1.9220515282841E+00 -2.1998443670221E-01  2.2642311616679E-01
21  2.0000000000000E-01  1.9488790335810E+00 -1.7213081780211E-01  2.5664888736895E-01
22  2.1000000000000E-01  1.9665111315286E+00 -1.1835914247483E-01  2.8417790583423E-01
23  2.2000000000000E-01  1.9749631978027E+00 -5.8956796554596E-02  3.0833743510090E-01
24  2.3000000000000E-01  1.9742978551023E+00  5.7571305915983E-03  3.2856748815398E-01
25  2.4000000000000E-01  1.9646241208947E+00  7.5435730355565E-02  3.4443990049539E-01
26  2.5000000000000E-01  1.9460965544016E+00  1.4970746608611E-01  3.5567281632485E-01
27  2.6000000000000E-01  1.9189144157231E+00  2.2817860014804E-01  3.6214010201097E-01
28  2.7000000000000E-01  1.8833208376951E+00  3.1043482959112E-01  3.6387538114632E-01
29  2.8000000000000E-01  1.8396019986650E+00  3.9604214807873E-01  3.6107057587781E-01
30  2.9000000000000E-01  1.7880862724079E+00  4.8454699591998E-01  3.5406903310344E-01
31  3.0000000000000E-01  1.7291433204504E+00  5.7547580173861E-01  3.4335350463376E-01
32  3.1000000000000E-01  1.6631830826277E+00  6.6833405676088E-01  3.2952943069914E-01
33  3.2000000000000E-01  1.5906546142561E+00  7.6260509434673E-01  3.1330413988243E-01
34  3.3000000000000E-01  1.5120447132429E+00  8.5774877183942E-01  2.9546271980476E-01
35  3.4000000000000E-01  1.4278762780992E+00  9.5320026797375E-01  2.7684142675542E-01
36  3.5000000000000E-01  1.3387063383760E+00  1.0483692161431E+00  2.5829958487176E-01
37  3.6000000000000E-01  1.2451237026121E+00  1.1426393913337E+00  2.4069097362432E-01
38  3.7000000000000E-01  1.1477461754471E+00  1.2353691563748E+00  2.2483571457771E-01
39  3.8000000000000E-01  1.0472173049820E+00  1.3258928516176E+00  2.1149364439787E-01
40  3.9000000000000E-01  9.4420263351430E-01  1.4135232818501E+00  2.0134010178092E-01
41  4.0000000000000E-01  8.3938543907722E-01  1.4975554161905E+00  1.9494496370158E-01
42  4.1000000000000E-01  7.3346197131376E-01  1.5772713721530E+00  1.9275564452368E-01
43  4.2000000000000E-01  6.2713620259238E-01  1.6519467056151E+00  1.9508462460739E-01
44  4.3000000000000E-01  5.2111413330755E-01  1.7208579758151E+00  2.0210190847362E-01
45  4.4000000000000E-01  4.1609770837236E-01  1.7832915006978E+00  2.1383263248867E-01
46  4.5000000000000E-01  3.1277841933731E-01  1.8385531649091E+00  2.3015985494340E-01
47  4.6000000000000E-01  2.1183068270122E-01  1.8859790925399E+00  2.5083237418169E-01
48  4.7000000000000E-01  1.1390509918803E-01  1.9249469512710E+00  2.7547723985961E-01
49  4.8000000000000E-01  1.9621710471126E-02  1.9548876156929E+00  3.0361645503883E-01
50  4.9000000000000E-01 -7.0436621468472E-02  1.9752968868468E+00  3.3468721865987E-01
51  5.0000000000000E-01 -1.5573058186979E-01  1.9857469437954E+00  3.6806493430717E-01
52  5.1000000000000E-01 -2.3577038554464E-01  1.9858971922763E+00  4.0308811649103E-01
53  5.2000000000000E-01 -3.1012124429583E-01  1.9755041758513E+00  4.3908426316499E-01
54  5.3000000000000E-01 -3.7840819587954E-01  1.9544302267017E+00  4.7539573508495E-01
55  5.4000000000000E-01 -4.4032018106475E-01  1.9226505561442E+00  5.1140468962096E-01
56  5.5000000000000E-01 -4.9561326904018E-01  1.8802585185264E+00  5.4655615839646E-01
57  5.6000000000000E-01 -5.4411294838181E-01  1.8274688254179E+00  5.8037843282617E-01
58  5.7000000000000E-01 -5.8571542055776E-01  1.7646185386588E+00  6.1250002633905E-01
59  5.8000000000000E-01 -6.2038785494492E-01  1.6921657292280E+00  6.4266261276051E-01
60  5.9000000000000E-01 -6.4816758790812E-01  1.6106857521756E+00  6.7072949196858E-01
61  6.0000000000000E-01 -6.6916027293962E-01  1.5208651539564E+00  6.9668930081753E-01
62  6.1000000000000E-01 -6.8353701342501E-01  1.4234932952189E+00  7.2065486316014E-01
63  6.2000000000000E-01 -6.9153053353281E-01  1.3194518372244E+00  7.4285725102421E-01
64  6.3000000000000E-01 -6.9343046527823E-01  1.2097023013990E+00  7.6363530300302E-01
65  6.4000000000000E-01 -6.8957785028656E-01  1.0952719670050E+00  7.8342100930007E-01
66  6.5000000000000E-01 -6.8035897254637E-01  9.7723841967700E-01  8.0272131965966E-01
67  6.6000000000000E-01 -6.6619865295189E-01  8.5671310199562E-01  8.2209705531008E-01
68  6.7000000000000E-01 -6.4755314725437E-01  7.3482424508353E-01  8.4213970464221E-01
69  6.8000000000000E-01 -6.2490279585975E-01  6.1269957647903E-01  8.6344695121055E-01
70  6.9000000000000E-01 -5.9874457654816E-01  4.9144920375937E-01  8.8659781954376E-01
71  7.0000000000000E-01 -5.6958470961143E-01  3.7214906544602E-01  9.1212832815839E-01
72  7.1000000000000E-01 -5.3793145921141E-01  2.5582532095246E-01  9.4050851031795E-01
73  7.2000000000000E-01 -5.0428826519559E-01  1.4344002046998E-01  9.7212160295502E-01
74  7.3000000000000E-01 -4.6914732653376E-01  3.5878354841262E-02  1.0072461154251E+00
75  7.4000000000000E-01 -4.3298374144332E-01 -6.6062263890377E-02  1.0460413761184E+00
76  7.5000000000000E-01 -3.9625029072886E-01 -1.6168109670067E-01  1.0885370210580E+00
77  7.6000000000000E-01 -3.5937293052361E-01 -2.5038081295676E-01  1.1346267398075E+00
78  7.7000000000000E-01 -3.2274703919258E-01 -3.3167199694513E-01  1.1840664362145E+00
79  7.8000000000000E-01 -2.8673444136293E-01 -4.0517541967427E-01  1.2364768008632E+00
80  7.9000000000000E-01 -2.5166121061619E-01 -4.7062213249864E-01  1.2913501348333E+00
81  8.0000000000000E-01 -2.1781623200344E-01 -5.2785149776298E-01  1.3480611164558E+00
82  8.1000000000000E-01 -1.8545048687833E-01 -5.7680732460480E-01  1.4058810698246E+00
83  8.2000000000000E-01 -1.5477700615116E-01 -6.1753232359326E-01  1.4639951807794E+00
84  8.3000000000000E-01 -1.2597142442889E-01 -6.5016113061141E-01  1.5215220170557E+00
85  8.4000000000000E-01 -9.9173056984484E-02 -6.7491217724961E-01  1.5775346474107E+00
86  8.5000000000000E-01 -7.4486414339047E-02 -6.9207870128089E-01  1.6310826218257E+00
87  8.6000000000000E-01 -5.1983065557204E-02 -7.0201919623916E-01  1.6812140722312E+00
88  8.7000000000000E-01 -3.1703761134678E-02 -7.0514759382886E-01  1.7269972202950E+00
89  8.8000000000000E-01 -1.3660729454453E-02 -7.0192345735665E-01  1.7675406341845E+00
90  8.9000000000000E-01  2.1599330548752E-03 -6.9284243944832E-01  1.8020116573339E+00
91  9.0000000000000E-01  1.5795849077064E-02 -6.7842722418970E-01  1.8296525355870E+00
92  9.1000000000000E-01  2.7305984817139E-02 -6.5921913396227E-01  1.8497938903185E+00
93  9.2000000000000E-01  3.6768358804352E-02 -6.3577053630870E-01  1.8618653193030E+00
94  9.3000000000000E-01  4.4277868306249E-02 -6.0863813797567E-01  1.8654030488026E+00
95  9.4000000000000E-01  4.9944252111129E-02 -5.7837720373242E-01  1.8600547039755E+00
96  9.5000000000000E-01  5.3890194039176E-02 -5.4553668853524E-01  1.8455814047188E+00
97  9.6000000000000E-01  5.6249557785601E-02 -5.1065522491189E-01  1.8218575250909E+00
98  9.7000000000000E-01  5.7165731111103E-02 -4.7425786474147E-01  1.7888685716539E+00
99  9.8000000000000E-01  5.6790046439007E-02 -4.3685343735801E-01  1.7467077352043E+00
100  9.9000000000000E-01  5.5280235977688E-02 -3.9893235531693E-01  1.6955717479815E+00
101  1.0000000000000E+00  5.2798872839905E-02 -3.6096467610845E-01  1.6357567321133E+00
102  1.0100000000000E+00  4.9511745464729E-02 -3.2339821317685E-01  1.5676547532465E+00
103  1.0200000000000E+00  4.5586111027069E-02 -2.8665648301572E-01  1.4917517956296E+00
104  1.0300000000000E+00  4.1188774403410E-02 -2.5113627673674E-01  1.4086278520492E+00
105  1.0400000000000E+00  3.6483942512670E-02 -2.1720465393125E-01  1.3189597755002E+00
106  1.0500000000000E+00  3.1630809216352E-02 -1.8519517307876E-01  1.2235274720383E+00
107  1.0600000000000E+00  2.6780833124701E-02 -1.5540319521592E-01  1.1232239291604E+00
108  1.0700000000000E+00  2.2074679234937E-02 -1.2808012487992E-01  1.0190694752238E+00
109  1.0800000000000E+00  1.7638804847301E-02 -1.0342648298533E-01  9.1223055770170E-01
110  1.0900000000000E+00  1.3581679292121E-02 -8.1583735183367E-02  8.0404324770149E-01
111  1.1000000000000E+00  9.9896481157865E-03 -6.2624876542885E-02  6.9604118878994E-01
112  1.1100000000000E+00  6.9226574505593E-03 -4.6544597667294E-02  5.8998052809260E-01
113  1.1200000000000E+00  4.4139632971397E-03 -3.3265334787524E-02  4.8772544433018E-01
114  1.1300000000000E+00  2.4730329227214E-03 -2.2654622305520E-02  3.9106768585873E-01
115  1.1400000000000E+00  1.0856829299429E-03 -1.4529310482094E-02  3.0169837250193E-01
116  1.1500000000000E+00  1.9440635183206E-04 -8.6005420733550E-03  2.2126402210676E-01
117  1.1600000000000E+00 -3.2446573183416E-04 -4.4067995915573E-03  1.5142804690401E-01
118  1.1700000000000E+00 -5.1053627839132E-04 -1.7579865787565E-03  9.3420942078675E-02
119  1.1800000000000E+00 -4.3818698744173E-04 -3.9189874420987E-04  4.8408568597531E-02
120  1.1900000000000E+00 -2.2548942924370E-04  5.2440692516103E-05  1.7520370674984E-02
121  1.2000000000000E+00 -3.3570461707730E-05  2.8862528117893E-05  1.9794908348047E-03
122  1.2100000000000E+00  2.3882636251673E-06 -2.7028168113479E-06 -1.2140549215452E-04
123  1.2200000000000E+00  6.9504729344666E-08 -5.1616748239709E-08 -4.3475639379073E-06
124  1.23 -0.  0.  0.
125  1.24  0.  0.  0.
126  1.25  0.  0.  0.
127  1.26  0.  0.  0.
128  1.27  0.  0.  0.
129  1.28  0.  0.  0.
130  1.29  0.  0.  0.
131  1.30  0.  0.  0.
132  1.31  0.  0.  0.
133  1.32  0.  0.  0.
134  1.33  0.  0.  0.
135  1.34  0.  0.  0.
136  1.35  0.  0.  0.
137  1.36  0.  0.  0.
138  1.37  0.  0.  0.
139  1.38  0.  0.  0.
140  1.39  0.  0.  0.
141  1.40  0.  0.  0.
142  1.41  0.  0.  0.
143  1.42  0.  0.  0.
144  1.43  0.  0.  0.
145  1.44  0.  0.  0.
146  1.45  0.  0.  0.
147  1.46  0.  0.  0.
148  1.47  0.  0.  0.
149  1.48  0.  0.  0.
150  1.49  0.  0.  0.
151  1.50  0.  0.  0.
152  1.51  0.  0.  0.
153  1.52  0.  0.  0.
154  1.53  0.  0.  0.
155  1.54  0.  0.  0.
156  1.55  0.  0.  0.
157  1.56  0.  0.  0.
158  1.57  0.  0.  0.
159  1.58  0.  0.  0.
160  1.59  0.  0.  0.
161  1.60  0.  0.  0.
162  1.61  0.  0.  0.
163  1.62  0.  0.  0.
164  1.63  0.  0.  0.
165  1.64  0.  0.  0.
166  1.65  0.  0.  0.
167  1.66  0.  0.  0.
168  1.67  0.  0.  0.
169  1.68  0.  0.  0.
170  1.69  0.  0.  0.
171  1.70  0.  0.  0.
172  1.71  0.  0.  0.
173  1.72  0.  0.  0.
174  1.73  0.  0.  0.
175  1.74  0.  0.  0.
176  1.75  0.  0.  0.
177  1.76  0.  0.  0.
178  1.77  0.  0.  0.
179  1.78  0.  0.  0.
180  1.79  0.  0.  0.
181  1.80  0.  0.  0.
182  1.81  0.  0.  0.
183  1.82  0.  0.  0.
184  1.83  0.  0.  0.
185  1.84  0.  0.  0.
186  1.85  0.  0.  0.
187  1.86  0.  0.  0.
188  1.87  0.  0.  0.
189  1.88  0.  0.  0.
190  1.89  0.  0.  0.
191  1.90  0.  0.  0.
192  1.91  0.  0.  0.
193  1.92  0.  0.  0.
194  1.93  0.  0.  0.
195  1.94  0.  0.  0.
196  1.95  0.  0.  0.
197  1.96  0.  0.  0.
198  1.97  0.  0.  0.
199  1.98  0.  0.  0.
200  1.99  0.  0.  0.
201  2.00  0.  0.  0.
202  2.01  0.  0.  0.
203  2.02  0.  0.  0.
204  2.03  0.  0.  0.
205  2.04  0.  0.  0.
206  2.05  0.  0.  0.
207  2.06  0.  0.  0.
208  2.07  0.  0.  0.
209  2.08  0.  0.  0.
210  2.09  0.  0.  0.
211  2.10  0.  0.  0.
212  2.11  0.  0.  0.
213  2.12  0.  0.  0.
214  2.13  0.  0.  0.
215  2.14  0.  0.  0.
216  2.15  0.  0.  0.
217  2.16  0.  0.  0.
218  2.17  0.  0.  0.
219  2.18  0.  0.  0.
220  2.19  0.  0.  0.
221  2.20  0.  0.  0.
222  2.21  0.  0.  0.
223  2.22  0.  0.  0.
224  2.23  0.  0.  0.
225  2.24  0.  0.  0.
226  2.25  0.  0.  0.
227  2.26  0.  0.  0.
228  2.27  0.  0.  0.
229  2.28  0.  0.  0.
230  2.29  0.  0.  0.
231  2.30  0.  0.  0.
232  2.31  0.  0.  0.
233  2.32  0.  0.  0.
234  2.33  0.  0.  0.
235  2.34  0.  0.  0.
236  2.35  0.  0.  0.
237  2.36  0.  0.  0.
238  2.37  0.  0.  0.
239  2.38  0.  0.  0.
240  2.39  0.  0.  0.
241  2.40  0.  0.  0.
242  2.41  0.  0.  0.
243  2.42  0.  0.  0.
244  2.43  0.  0.  0.
245  2.44  0.  0.  0.
246  2.45  0.  0.  0.
247  2.46  0.  0.  0.
248  2.47  0.  0.  0.
249  2.48  0.  0.  0.
250  2.49  0.  0.  0.
251  2.50  0.  0.  0.
252  2.51  0.  0.  0.
253  2.52  0.  0.  0.
254  2.53  0.  0.  0.
255  2.54  0.  0.  0.
256  2.55  0.  0.  0.
257  2.56  0.  0.  0.
258  2.57  0.  0.  0.
259  2.58  0.  0.  0.
260  2.59  0.  0.  0.
261  2.60  0.  0.  0.
262  2.61  0.  0.  0.
263  2.62  0.  0.  0.
264  2.63  0.  0.  0.
265  2.64  0.  0.  0.
266  2.65  0.  0.  0.
267  2.66  0.  0.  0.
268  2.67  0.  0.  0.
269  2.68  0.  0.  0.
270  2.69  0.  0.  0.
271  2.70  0.  0.  0.
272  2.71  0.  0.  0.
273  2.72  0.  0.  0.
274  2.73  0.  0.  0.
275  2.74  0.  0.  0.
276  2.75  0.  0.  0.
277  2.76  0.  0.  0.
278  2.77  0.  0.  0.
279  2.78  0.  0.  0.
280  2.79  0.  0.  0.
281  2.80  0.  0.  0.
282  2.81  0.  0.  0.
283  2.82  0.  0.  0.
284  2.83  0.  0.  0.
285  2.84  0.  0.  0.
286  2.85  0.  0.  0.
287  2.86  0.  0.  0.
288  2.87  0.  0.  0.
289  2.88  0.  0.  0.
290  2.89  0.  0.  0.
291  2.90  0.  0.  0.
292  2.91  0.  0.  0.
293  2.92  0.  0.  0.
294  2.93  0.  0.  0.
295  2.94  0.  0.  0.
296  2.95  0.  0.  0.
297  2.96  0.  0.  0.
298  2.97  0.  0.  0.
299  2.98  0.  0.  0.
300  2.99  0.  0.  0.
301  3.00  0.  0.  0.
302  3.01  0.  0.  0.
303  3.02  0.  0.  0.
304  3.03  0.  0.  0.
305  3.04  0.  0.  0.
306  3.05  0.  0.  0.
307  3.06  0.  0.  0.
308  3.07  0.  0.  0.
309  3.08  0.  0.  0.
310  3.09  0.  0.  0.
311  3.10  0.  0.  0.
312  3.11  0.  0.  0.
313  3.12  0.  0.  0.
314  3.13  0.  0.  0.
315  3.14  0.  0.  0.
316  3.15  0.  0.  0.
317  3.16  0.  0.  0.
318  3.17  0.  0.  0.
319  3.18  0.  0.  0.
320  3.19  0.  0.  0.
321  3.20  0.  0.  0.
322  3.21  0.  0.  0.
323  3.22  0.  0.  0.
324  3.23  0.  0.  0.
325  3.24  0.  0.  0.
326  3.25  0.  0.  0.
327  3.26  0.  0.  0.
328  3.27  0.  0.  0.
329  3.28  0.  0.  0.
330  3.29  0.  0.  0.
331  3.30  0.  0.  0.
332  3.31  0.  0.  0.
333  3.32  0.  0.  0.
334  3.33  0.  0.  0.
335  3.34  0.  0.  0.
336  3.35  0.  0.  0.
337  3.36  0.  0.  0.
338  3.37  0.  0.  0.
339  3.38  0.  0.  0.
340  3.39  0.  0.  0.
341  3.40  0.  0.  0.
342  3.41  0.  0.  0.
343  3.42  0.  0.  0.
344  3.43  0.  0.  0.
345  3.44  0.  0.  0.
346  3.45  0.  0.  0.
347  3.46  0.  0.  0.
348  3.47  0.  0.  0.
349  3.48  0.  0.  0.
350  3.49  0.  0.  0.
351  3.50  0.  0.  0.
352  3.51  0.  0.  0.
353  3.52  0.  0.  0.
354  3.53  0.  0.  0.
355  3.54  0.  0.  0.
356  3.55  0.  0.  0.
357  3.56  0.  0.  0.
358  3.57  0.  0.  0.
359  3.58  0.  0.  0.
360  3.59  0.  0.  0.
361  3.60  0.  0.  0.
362  3.61  0.  0.  0.
363  3.62  0.  0.  0.
364  3.63  0.  0.  0.
365  3.64  0.  0.  0.
366  3.65  0.  0.  0.
367  3.66  0.  0.  0.
368  3.67  0.  0.  0.
369  3.68  0.  0.  0.
370  3.69  0.  0.  0.
371  3.70  0.  0.  0.
372  3.71  0.  0.  0.
373  3.72  0.  0.  0.
374  3.73  0.  0.  0.
375  3.74  0.  0.  0.
376  3.75  0.  0.  0.
377  3.76  0.  0.  0.
378  3.77  0.  0.  0.
379  3.78  0.  0.  0.
380  3.79  0.  0.  0.
381  3.80  0.  0.  0.
382  3.81  0.  0.  0.
383  3.82  0.  0.  0.
384  3.83  0.  0.  0.
385  3.84  0.  0.  0.
386  3.85  0.  0.  0.
387  3.86  0.  0.  0.
388  3.87  0.  0.  0.
389  3.88  0.  0.  0.
390  3.89  0.  0.  0.
391  3.90  0.  0.  0.
392  3.91  0.  0.  0.
393  3.92  0.  0.  0.
394  3.93  0.  0.  0.
395  3.94  0.  0.  0.
396  3.95  0.  0.  0.
397  3.96  0.  0.  0.
398  3.97  0.  0.  0.
399  3.98  0.  0.  0.
400  3.99  0.  0.  0.
401  4.00  0.  0.  0.
402  4.01  0.  0.  0.
403  4.02  0.  0.  0.
404  4.03  0.  0.  0.
405  4.04  0.  0.  0.
406  4.05  0.  0.  0.
407  4.06  0.  0.  0.
408  4.07  0.  0.  0.
409  4.08  0.  0.  0.
410  4.09  0.  0.  0.
411  4.10  0.  0.  0.
412  4.11  0.  0.  0.
413  4.12  0.  0.  0.
414  4.13  0.  0.  0.
415  4.14  0.  0.  0.
416  4.15  0.  0.  0.
417  4.16  0.  0.  0.
418  4.17  0.  0.  0.
419  4.18  0.  0.  0.
420  4.19  0.  0.  0.
421  4.20  0.  0.  0.
422  4.21  0.  0.  0.
423  4.22  0.  0.  0.
424  4.23  0.  0.  0.
425  4.24  0.  0.  0.
426  4.25  0.  0.  0.
427  4.26  0.  0.  0.
428  4.27  0.  0.  0.
429  4.28  0.  0.  0.
430  4.29  0.  0.  0.
431  4.30  0.  0.  0.
432  4.31  0.  0.  0.
433  4.32  0.  0.  0.
434  4.33  0.  0.  0.
435  4.34  0.  0.  0.
436  4.35  0.  0.  0.
437  4.36  0.  0.  0.
438  4.37  0.  0.  0.
439  4.38  0.  0.  0.
440  4.39  0.  0.  0.
441  4.40  0.  0.  0.
442  4.41  0.  0.  0.
443  4.42  0.  0.  0.
444  4.43  0.  0.  0.
445  4.44  0.  0.  0.
446  4.45  0.  0.  0.
447  4.46  0.  0.  0.
448  4.47  0.  0.  0.
449  4.48  0.  0.  0.
450  4.49  0.  0.  0.
451  4.50  0.  0.  0.
452  4.51  0.  0.  0.
453  4.52  0.  0.  0.
454  4.53  0.  0.  0.
455  4.54  0.  0.  0.
456  4.55  0.  0.  0.
457  4.56  0.  0.  0.
458  4.57  0.  0.  0.
459  4.58  0.  0.  0.
460  4.59  0.  0.  0.
461  4.60  0.  0.  0.
462  4.61  0.  0.  0.
463  4.62  0.  0.  0.
464  4.63  0.  0.  0.
465  4.64  0.  0.  0.
466  4.65  0.  0.  0.
467  4.66  0.  0.  0.
468  4.67  0.  0.  0.
469  4.68  0.  0.  0.
470  4.69  0.  0.  0.
471  4.70  0.  0.  0.
472  4.71  0.  0.  0.
473  4.72  0.  0.  0.
474  4.73  0.  0.  0.
475  4.74  0.  0.  0.
476  4.75  0.  0.  0.
477  4.76  0.  0.  0.
478  4.77  0.  0.  0.
479  4.78  0.  0.  0.
480  4.79  0.  0.  0.
481  4.80  0.  0.  0.
482  4.81  0.  0.  0.
483  4.82  0.  0.  0.
484  4.83  0.  0.  0.
485  4.84  0.  0.  0.
486  4.85  0.  0.  0.
487  4.86  0.  0.  0.
488  4.87  0.  0.  0.
489  4.88  0.  0.  0.
490  4.89  0.  0.  0.
491  4.90  0.  0.  0.
492  4.91  0.  0.  0.
493  4.92  0.  0.  0.
494  4.93  0.  0.  0.
495  4.94  0.  0.  0.
496  4.95  0.  0.  0.
497  4.96  0.  0.  0.
498  4.97  0.  0.  0.
499  4.98  0.  0.  0.
500  4.99  0.  0.  0.
501  5.00  0.  0.  0.
502  5.01  0.  0.  0.
503  5.02  0.  0.  0.
504  5.03  0.  0.  0.
505  5.04  0.  0.  0.
506  5.05  0.  0.  0.
507  5.06  0.  0.  0.
508  5.07  0.  0.  0.
509  5.08  0.  0.  0.
510  5.09  0.  0.  0.
511  5.10  0.  0.  0.
512  5.11  0.  0.  0.
513  5.12  0.  0.  0.
514  5.13  0.  0.  0.
515  5.14  0.  0.  0.
516  5.15  0.  0.  0.
517  5.16  0.  0.  0.
518  5.17  0.  0.  0.
519  5.18  0.  0.  0.
520  5.19  0.  0.  0.
521  5.20  0.  0.  0.
522  5.21  0.  0.  0.
523  5.22  0.  0.  0.
524  5.23  0.  0.  0.
525  5.24  0.  0.  0.
526  5.25  0.  0.  0.
527  5.26  0.  0.  0.
528  5.27  0.  0.  0.
529  5.28  0.  0.  0.
530  5.29  0.  0.  0.
531  5.30  0.  0.  0.
532  5.31  0.  0.  0.
533  5.32  0.  0.  0.
534  5.33  0.  0.  0.
535  5.34  0.  0.  0.
536  5.35  0.  0.  0.
537  5.36  0.  0.  0.
538  5.37  0.  0.  0.
539  5.38  0.  0.  0.
540  5.39  0.  0.  0.
541  5.40  0.  0.  0.
542  5.41  0.  0.  0.
543  5.42  0.  0.  0.
544  5.43  0.  0.  0.
545  5.44  0.  0.  0.
546  5.45  0.  0.  0.
547  5.46  0.  0.  0.
548  5.47  0.  0.  0.
549  5.48  0.  0.  0.
550  5.49  0.  0.  0.
551  5.50  0.  0.  0.
552  5.51  0.  0.  0.
553  5.52  0.  0.  0.
554  5.53  0.  0.  0.
555  5.54  0.  0.  0.
556  5.55  0.  0.  0.
557  5.56  0.  0.  0.
558  5.57  0.  0.  0.
559  5.58  0.  0.  0.
560  5.59  0.  0.  0.
561  5.60  0.  0.  0.
562  5.61  0.  0.  0.
563  5.62  0.  0.  0.
564  5.63  0.  0.  0.
565  5.64  0.  0.  0.
566  5.65  0.  0.  0.
567  5.66  0.  0.  0.
568  5.67  0.  0.  0.
569  5.68  0.  0.  0.
570  5.69  0.  0.  0.
571  5.70  0.  0.  0.
572  5.71  0.  0.  0.
573  5.72  0.  0.  0.
574  5.73  0.  0.  0.
575  5.74  0.  0.  0.
576  5.75  0.  0.  0.
577  5.76  0.  0.  0.
578  5.77  0.  0.  0.
579  5.78  0.  0.  0.
580  5.79  0.  0.  0.
581  5.80  0.  0.  0.
582  5.81  0.  0.  0.
583  5.82  0.  0.  0.
584  5.83  0.  0.  0.
585  5.84  0.  0.  0.
586  5.85  0.  0.  0.
587  5.86  0.  0.  0.
588  5.87  0.  0.  0.
589  5.88  0.  0.  0.
590  5.89  0.  0.  0.
591  5.90  0.  0.  0.
592  5.91  0.  0.  0.
593  5.92  0.  0.  0.
594  5.93  0.  0.  0.
595  5.94  0.  0.  0.
596  5.95  0.  0.  0.
597  5.96  0.  0.  0.
598  5.97  0.  0.  0.
599  5.98  0.  0.  0.
600  5.99  0.  0.  0.
1                         2.6101603057740E+01  3.1553331836482E+00
1  0.0000000000000E+00 -2.0419329310739E-08  3.1106995061411E-08
2  1.0000000000000E-02  3.9381911252168E-03  8.2230681874780E-05
3  2.0000000000000E-02  1.5727738348906E-02  3.2497822244970E-04
4  3.0000000000000E-02  3.5293397681820E-02  7.1689842449568E-04
5  4.0000000000000E-02  6.2509225276772E-02  1.2406938159915E-03
6  5.0000000000000E-02  9.7197822088796E-02  1.8754533378776E-03
7  6.0000000000000E-02  1.3912937528096E-01  2.5997814959866E-03
8  7.0000000000000E-02  1.8802059058362E-01  3.3955769633429E-03
9  8.0000000000000E-02  2.4353363023435E-01  4.2522895120326E-03
10  9.0000000000000E-02  3.0527518698367E-01  5.1714592989199E-03
11  1.0000000000000E-01  3.7279583526503E-01  6.1713248715088E-03
12  1.1000000000000E-01  4.4558980549689E-01  7.2912764940096E-03
13  1.2000000000000E-01  5.2309532631049E-01  8.5959299459442E-03
14  1.3000000000000E-01  6.0469567219055E-01  1.0178602957404E-02
15  1.4000000000000E-01  6.8972104070760E-01  1.2163991763218E-02
16  1.5000000000000E-01  7.7745136455009E-01  1.4709868443591E-02
17  1.6000000000000E-01  8.6712013948013E-01  1.8007650053112E-02
18  1.7000000000000E-01  9.5791932087077E-01  2.2281727054244E-02
19  1.8000000000000E-01  1.0490053095340E+00  2.7787480071305E-02
20  1.9000000000000E-01  1.1395060131492E+00  3.4807959089899E-02
21  2.0000000000000E-01  1.2285289338896E+00  4.3649246427182E-02
22  2.1000000000000E-01  1.3151701970139E+00  5.4634572483990E-02
23  2.2000000000000E-01  1.3985244004771E+00  6.8097299818590E-02
24  2.3000000000000E-01  1.4776951332122E+00  8.4372934829580E-02
25  2.4000000000000E-01  1.5518059808152E+00  1.0379036575310E-01
26  2.5000000000000E-01  1.6200118129639E+00  1.2666255934429E-01
27  2.6000000000000E-01  1.6815101279567E+00  1.5327697527893E-01
28  2.7000000000000E-01  1.7355522170214E+00  1.8388597595221E-01
29  2.8000000000000E-01  1.7814539050704E+00  2.1869751919993E-01
30  2.9000000000000E-01  1.8186056257385E+00  2.5786642204139E-01
31  3.0000000000000E-01  1.8464815969255E+00  3.0148647466654E-01
32  3.1000000000000E-01  1.8646478785807E+00  3.4958366570452E-01
33  3.2000000000000E-01  1.8727691167504E+00  4.0211075277070E-01
34  3.3000000000000E-01  1.8706138063764E+00  4.5894337715481E-01
35  3.4000000000000E-01  1.8580579392025E+00  5.1987787932578E-01
36  3.5000000000000E-01  1.8350869414327E+00  5.8463092397994E-01
37  3.6000000000000E-01  1.8017958473480E+00  6.5284099115324E-01
38  3.7000000000000E-01  1.7583876986870E+00  7.2407173511768E-01
39  3.8000000000000E-01  1.7051702038665E+00  7.9781715716274E-01
40  3.9000000000000E-01  1.6425507347099E+00  8.7350848374615E-01
41  4.0000000000000E-01  1.5710297798777E+00  9.5052258969862E-01
42  4.1000000000000E-01  1.4911930123460E+00  1.0281917589238E+00
43  4.2000000000000E-01  1.4037021618432E+00  1.1058145339550E+00
44  4.3000000000000E-01  1.3092849110484E+00  1.1826673722380E+00
45  4.4000000000000E-01  1.2087240556818E+00  1.2580168022772E+00
46  4.5000000000000E-01  1.1028461826912E+00  1.3311317577216E+00
47  4.6000000000000E-01  9.9251012709700E-01  1.4012957626458E+00
48  4.7000000000000E-01  8.7859546651323E-01  1.4678186469554E+00
49  4.8000000000000E-01  7.6199130296448E-01  1.5300474868943E+00
50  4.9000000000000E-01  6.4358556470100E-01  1.5873764915964E+00
51  5.0000000000000E-01  5.2425503685540E-01  1.6392555916928E+00
52  5.1000000000000E-01  4.0485629980186E-01  1.6851975290393E+00
53  5.2000000000000E-01  2.8621771900469E-01  1.7247832962472E+00
54  5.3000000000000E-01  1.6913259118572E-01  1.7576658292397E+00
55  5.4000000000000E-01  5.4353510148892E-02  1.7835719136761E+00
56  5.5000000000000E-01 -5.7412026981617E-02  1.8023023248214E+00
57  5.6000000000000E-01 -1.6550479454080E-01  1.8137302782707E+00
58  5.7000000000000E-01 -2.6931585585987E-01  1.8177983238573E+00
59  5.8000000000000E-01 -3.6828752231192E-01  1.8145138651339E+00
60  5.9000000000000E-01 -4.6191338501430E-01  1.8039435302596E+00
61  6.0000000000000E-01 -5.4973757696191E-01  1.7862066553517E+00
62  6.1000000000000E-01 -6.3135344326345E-01  1.7614681670934E+00
63  6.2000000000000E-01 -7.0640180959565E-01  1.7299311666319E+00
64  6.3000000000000E-01 -7.7456904352244E-01  1.6918295209388E+00
65  6.4000000000000E-01 -8.3558509976637E-01  1.6474207605946E+00
66  6.5000000000000E-01 -8.8922172899003E-01  1.5969795645740E+00
67  6.6000000000000E-01 -9.3529101055011E-01  1.5407920835952E+00
68  6.7000000000000E-01 -9.7364434372429E-01  1.4791513149174E+00
69  6.8000000000000E-01 -1.0041720000326E+00  1.4123536944260E+00
70  6.9000000000000E-01 -1.0268033026671E+00  1.3406970180544E+00
71  7.0000000000000E-01 -1.0415074590865E+00  1.2644797459618E+00
72  7.1000000000000E-01 -1.0482950310486E+00  1.1840016814845E+00
73  7.2000000000000E-01 -1.0472199843625E+00  1.0995659549598E+00
74  7.3000000000000E-01 -1.0383822200978E+00  1.0114821823439E+00
75  7.4000000000000E-01 -1.0219304515209E+00  9.2007061237502E-01
76  7.5000000000000E-01 -9.9806525819400E-01  8.2566702602972E-01
77  7.6000000000000E-01 -9.6704212187121E-01  7.2862811013820E-01
78  7.7000000000000E-01 -9.2917422929065E-01  6.2933699499788E-01
79  7.8000000000000E-01 -8.8483481565480E-01  5.2820862503234E-01
80  7.9000000000000E-01 -8.3445882022251E-01  4.2569462301695E-01
81  8.0000000000000E-01 -7.7854363238354E-01  3.2228731272546E-01
82  8.1000000000000E-01 -7.1764872290860E-01  2.1852258220515E-01
83  8.2000000000000E-01 -6.5239398047647E-01  1.1498129995072E-01
84  8.3000000000000E-01 -5.8345660745148E-01  1.2289038256659E-02
85  8.4000000000000E-01 -5.1156647027303E-01 -8.8886089220527E-02
86  8.5000000000000E-01 -4.3749984748031E-01 -1.8783760677514E-01
87  8.6000000000000E-01 -3.6207157082846E-01 -2.8382693487834E-01
88  8.7000000000000E-01 -2.8612561044427E-01 -3.7609171540543E-01
89  8.8000000000000E-01 -2.1052421165096E-01 -4.6385611558472E-01
90  8.9000000000000E-01 -1.3613574700001E-01 -5.4634294622428E-01
91  9.0000000000000E-01 -6.3821500194333E-02 -6.2278735648558E-01
92  9.1000000000000E-01  5.5783529764237E-03 -6.9245179969346E-01
93  9.2000000000000E-01  7.1259259679571E-02 -7.5464190489838E-01
94  9.3000000000000E-01  1.3246696037265E-01 -8.0872283941430E-01
95  9.4000000000000E-01  1.8851194969100E-01 -8.5413571031802E-01
96  9.5000000000000E-01  2.3878334987136E-01 -8.9041352950315E-01
97  9.6000000000000E-01  2.8276181697454E-01 -9.1719625849323E-01
98  9.7000000000000E-01  3.2003111043914E-01 -9.3424445650380E-01
99  9.8000000000000E-01  3.5028797879954E-01 -9.4145107836352E-01
100  9.9000000000000E-01  3.7335004834147E-01 -9.3885100745306E-01
101  1.0000000000000E+00  3.8916144633326E-01 -9.2662796195053E-01
102  1.0100000000000E+00  3.9779594508612E-01 -9.0511847893704E-01
103  1.0200000000000E+00  3.9945747598276E-01 -8.7481275845207E-01
104  1.0300000000000E+00  3.9447793198934E-01 -8.3635223612552E-01
105  1.0400000000000E+00  3.8331225105336E-01 -7.9052384601295E-01
106  1.0500000000000E+00  3.6653084883821E-01 -7.3825103168736E-01
107  1.0600000000000E+00  3.4480954527760E-01 -6.8058166066393E-01
108  1.0700000000000E+00  3.1891720304674E-01 -6.1867309172463E-01
109  1.0800000000000E+00  2.8970136474848E-01 -5.5377473340479E-01
110  1.0900000000000E+00  2.5807224150891E-01 -4.8720851822497E-01
111  1.1000000000000E+00  2.2498541181629E-01 -4.2034771712326E-01
112  1.1100000000000E+00  1.9142274382487E-01 -3.5459325109840E-01
113  1.1200000000000E+00  1.5835534792087E-01 -2.9132339743639E-01
114  1.1300000000000E+00  1.2669982255499E-01 -2.3183410203197E-01
115  1.1400000000000E+00  9.7296155764768E-02 -1.7731155079095E-01
116  1.1500000000000E+00  7.0860614842281E-02 -1.2877469341876E-01
117  1.1600000000000E+00  4.7929526219772E-02 -8.7004271349681E-02
118  1.1700000000000E+00  2.9080166724179E-02 -5.2817187928326E-02
119  1.1800000000000E+00  1.4747295819298E-02 -2.6844342923504E-02
120  1.1900000000000E+00  5.1982934918469E-03 -9.4992920786791E-03
121  1.2000000000000E+00  5.6889912718258E-04 -1.0455501227794E-03
122  1.2100000000000E+00 -3.4140365358302E-05  6.3001742616851E-05
123  1.2200000000000E+00 -1.2596497994736E-06  2.3115099940885E-06
124  1.23 -0.  0.
125  1.24  0.  0.
126  1.25  0.  0.
127  1.26  0.  0.
128  1.27  0.  0.
129  1.28  0.  0.
130  1.29  0.  0.
131  1.30  0.  0.
132  1.31  0.  0.
133  1.32  0.  0.