Am    ONCVPSP-4.0.1  r_core=   1.25622   1.25622   1.15530   1.35781
95.0000     35.0000      220322    zatom,zion,pspd
8      11   3     4   600     0    pspcod,pspxc,lmax,lloc,mmax,r2well
5.99000000  5.00000000  0.00000000    rchrg fchrg qchrg
3     2     2     2     0    nproj
1     1           extension_switch
0                         2.2294817857608E+01  3.1548898606805E+00 -2.8963020202573E-01
1  0.0000000000000E+00 -1.1175054659418E-08  3.5140386378529E-08  5.4314310563019E-08
2  1.0000000000000E-02  1.3369854455315E-01 -3.7967520758130E-02  4.1983226758479E-03
3  2.0000000000000E-02  2.6668661932034E-01 -7.5200326209154E-02  8.8649642299080E-03
4  3.0000000000000E-02  3.9825970038076E-01 -1.1097610021612E-01  1.4452292835788E-02
5  4.0000000000000E-02  5.2772505070215E-01 -1.4459701323567E-01  2.1381264873792E-02
6  5.0000000000000E-02  6.5440735451562E-01 -1.7540119577672E-01  3.0026928424853E-02
7  6.0000000000000E-02  7.7765404920683E-01 -2.0277331443189E-01  4.0705337450114E-02
8  7.0000000000000E-02  8.9684026760302E-01 -2.2615399440132E-01  5.3662280543266E-02
9  8.0000000000000E-02  1.0113733147100E+00 -2.4504786756913E-01  6.9064173828446E-02
10  9.0000000000000E-02  1.1206966162260E+00 -2.5903006696778E-01  8.6991402785760E-02
11  1.0000000000000E-01  1.2242930910972E+00 -2.6775103554883E-01  1.0743432444434E-01
12  1.1000000000000E-01  1.3216879165042E+00 -2.7093956806333E-01  1.3029206168083E-01
13  1.2000000000000E-01  1.4124506704445E+00 -2.6840405792421E-01  1.5537413766854E-01
14  1.3000000000000E-01  1.4961968539733E+00 -2.6003197447779E-01  1.8240491333979E-01
15  1.4000000000000E-01  1.5725888116249E+00 -2.4578764844699E-01  2.1103070658676E-01
16  1.5000000000000E-01  1.6413360840245E+00 -2.2570849275012E-01  2.4082939134700E-01
17  1.6000000000000E-01  1.7021952407274E+00 -1.9989983086725E-01  2.7132220010333E-01
18  1.7000000000000E-01  1.7549692534128E+00 -1.6852854398687E-01  3.0198738689730E-01
19  1.8000000000000E-01  1.7995064793467E+00 -1.3181578006623E-01  3.3227535169957E-01
20  1.9000000000000E-01  1.8356993321819E+00 -9.0028991665022E-02  3.6162478257554E-01
21  2.0000000000000E-01  1.8634827214625E+00 -4.3473584208336E-02  3.8947934085550E-01
22  2.1000000000000E-01  1.8828323435206E+00  7.5155382686303E-03  4.1530439740425E-01
23  2.2000000000000E-01  1.8937629047514E+00  6.2582247001993E-02  4.3860332558641E-01
24  2.3000000000000E-01  1.8963263536137E+00  1.2135701268836E-01  4.5893286872239E-01
25  2.4000000000000E-01  1.8906101902846E+00  1.8346403319008E-01  4.7591712635213E-01
26  2.5000000000000E-01  1.8767359129798E+00  2.4852744869797E-01  4.8925974367638E-01
27  2.6000000000000E-01  1.8548576478719E+00  3.1617646620908E-01  4.9875394092486E-01
28  2.7000000000000E-01  1.8251609957420E+00  3.8604925901536E-01  5.0429008253291E-01
29  2.8000000000000E-01  1.7878621134659E+00  4.5779555520308E-01  5.0586055800461E-01
30  2.9000000000000E-01  1.7432070327057E+00  5.3107788031036E-01  5.0356182502918E-01
31  3.0000000000000E-01  1.6914712023226E+00  6.0557147157711E-01  4.9759354845320E-01
32  3.1000000000000E-01  1.6329592256084E+00  6.8096293287533E-01  4.8825485359107E-01
33  3.2000000000000E-01  1.5680047490435E+00  7.5694774868058E-01  4.7593779654228E-01
34  3.3000000000000E-01  1.4969704464421E+00  8.3322682065798E-01  4.6111823516255E-01
35  3.4000000000000E-01  1.4202480315535E+00  9.0950223001747E-01  4.4434435967532E-01
36  3.5000000000000E-01  1.3382582238749E+00  9.8547246136903E-01  4.2622320937802E-01
37  3.6000000000000E-01  1.2514505869477E+00  1.0608273482079E+00  4.0740555948345E-01
38  3.7000000000000E-01  1.1603031560144E+00  1.1352430154851E+00  3.8856960814491E-01
39  3.8000000000000E-01  1.0653217727805E+00  1.2083771003575E+00  3.7040392679459E-01
40  3.9000000000000E-01  9.6703904918110E-01  1.2798645278769E+00  3.5359015614237E-01
41  4.0000000000000E-01  8.6601288946632E-01  1.3493141041000E+00  3.3878593499733E-01
42  4.1000000000000E-01  7.6282451039890E-01  1.4163061652462E+00  3.2660853941873E-01
43  4.2000000000000E-01  6.5807591263907E-01  1.4803914887881E+00  3.1761968592735E-01
44  4.3000000000000E-01  5.5238677209469E-01  1.5410916317109E+00  3.1231191540921E-01
45  4.4000000000000E-01  4.4639073767666E-01  1.5979008138833E+00  3.1109692511110E-01
46  4.5000000000000E-01  3.4073114098181E-01  1.6502894120399E+00  3.1429615633166E-01
47  4.6000000000000E-01  2.3605614333336E-01  1.6977090739466E+00  3.2213387692823E-01
48  4.7000000000000E-01  1.3301336570577E-01  1.7395994047342E+00  3.3473292273405E-01
49  4.8000000000000E-01  3.2244066694862E-02  1.7753961200132E+00  3.5211318274050E-01
50  4.9000000000000E-01 -6.5623047788358E-02  1.8045405051278E+00  3.7419283189826E-01
51  5.0000000000000E-01 -1.5997828264606E-01  1.8264899686206E+00  4.0079223511148E-01
52  5.1000000000000E-01 -2.5023756464508E-01  1.8407294324045E+00  4.3164036890884E-01
53  5.2000000000000E-01 -3.3584907989311E-01  1.8467832628466E+00  4.6638353569008E-01
54  5.3000000000000E-01 -4.1629980293243E-01  1.8442274173200E+00  5.0459608153790E-01
55  5.4000000000000E-01 -4.9112177796441E-01  1.8327014608571E+00  5.4579277422700E-01
56  5.5000000000000E-01 -5.5989801190569E-01  1.8119200981430E+00  5.8944245485331E-01
57  5.6000000000000E-01 -6.2226784214555E-01  1.7816838676526E+00  6.3498254564460E-01
58  5.7000000000000E-01 -6.7793164902002E-01  1.7418886573909E+00  6.8183397883190E-01
59  5.8000000000000E-01 -7.2665479401128E-01  1.6925337251781E+00  7.2941610734207E-01
60  5.9000000000000E-01 -7.6827067927047E-01  1.6337279401363E+00  7.7716116747751E-01
61  6.0000000000000E-01 -8.0268284188400E-01  1.5656940050593E+00  8.2452788621017E-01
62  6.1000000000000E-01 -8.2986601688803E-01  1.4887704704351E+00  8.7101386034442E-01
63  6.2000000000000E-01 -8.4986612582721E-01  1.4034114085543E+00  9.1616638033897E-01
64  6.3000000000000E-01 -8.6279917201851E-01  1.3101836786456E+00  9.5959142641269E-01
65  6.4000000000000E-01 -8.6884904893540E-01  1.2097617794580E+00  1.0009606268114E+00
66  6.5000000000000E-01 -8.6826429355431E-01  1.1029203521527E+00  1.0400160356702E+00
67  6.6000000000000E-01 -8.6135384137744E-01  9.9052446175993E-01  1.0765726585222E+00
68  6.7000000000000E-01 -8.4848186344568E-01  8.7351784777292E-01  1.1105187248306E+00
69  6.8000000000000E-01 -8.3006178730513E-01  7.5290939177347E-01  1.1418137766458E+00
70  6.9000000000000E-01 -8.0654962296315E-01  6.2975810054270E-01  1.1704847083440E+00
71  7.0000000000000E-01 -7.7843673081414E-01  5.0515694532024E-01  1.1966199522928E+00
72  7.1000000000000E-01 -7.4624218087532E-01  3.8021593043470E-01  1.2203620573327E+00
73  7.2000000000000E-01 -7.1050486109261E-01  2.5604478640291E-01  1.2418989495488E+00
74  7.3000000000000E-01 -6.7177549672281E-01  1.3373569310130E-01  1.2614541966725E+00
75  7.4000000000000E-01 -6.3060874275312E-01  1.4346437393655E-02  1.2792766176840E+00
76  7.5000000000000E-01 -5.8755550699979E-01 -1.0111560332068E-01  1.2956295872900E+00
77  7.6000000000000E-01 -5.4315565306535E-01 -2.1170828443786E-01  1.3107803808210E+00
78  7.7000000000000E-01 -4.9793121998971E-01 -3.1656799204703E-01  1.3249898890674E+00
79  7.8000000000000E-01 -4.5238027956899E-01 -4.1492112756242E-01  1.3385030053560E+00
80  7.9000000000000E-01 -4.0697153340623E-01 -5.0609354400980E-01  1.3515399498918E+00
81  8.0000000000000E-01 -3.6213973034846E-01 -5.8951775834912E-01  1.3642887504629E+00
82  8.1000000000000E-01 -3.1828196167769E-01 -6.6473782861347E-01  1.3768990458186E+00
83  8.2000000000000E-01 -2.7575486692485E-01 -7.3141185207334E-01  1.3894773203434E+00
84  8.3000000000000E-01 -2.3487275816476E-01 -7.8931210909205E-01  1.4020836182668E+00
85  8.4000000000000E-01 -1.9590664583728E-01 -8.3832294478082E-01  1.4147297248839E+00
86  8.5000000000000E-01 -1.5908412522364E-01 -8.7843654497809E-01  1.4273787434828E+00
87  8.6000000000000E-01 -1.2459006036581E-01 -9.0974682251089E-01  1.4399459422915E+00
88  8.7000000000000E-01 -9.2567982084117E-02 -9.3244168231608E-01  1.4523006980841E+00
89  8.8000000000000E-01 -6.3122099405395E-02 -9.4679397812171E-01  1.4642693243798E+00
90  8.9000000000000E-01 -3.6319809678005E-02 -9.5315150751446E-01  1.4756385445090E+00
91  9.0000000000000E-01 -1.2194582367834E-02 -9.5192641504905E-01  1.4861593551282E+00
92  9.1000000000000E-01  9.2509146268653E-03 -9.4358438350606E-01  1.4955510257547E+00
93  9.2000000000000E-01  2.8041579034079E-02 -9.2863399060022E-01  1.5035049960622E+00
94  9.3000000000000E-01  4.4226658606603E-02 -9.0761659171066E-01  1.5096884663165E+00
95  9.4000000000000E-01  5.7876678076014E-02 -8.8109705805128E-01  1.5137475285240E+00
96  9.5000000000000E-01  6.9080618186787E-02 -8.4965565379089E-01  1.5153097575101E+00
97  9.6000000000000E-01  7.7943438619643E-02 -8.1388127471652E-01  1.5139862730072E+00
98  9.7000000000000E-01  8.4584013824699E-02 -7.7436619497689E-01  1.5093733965317E+00
99  9.8000000000000E-01  8.9133522857952E-02 -7.3170237705464E-01  1.5010541609918E+00
100  9.9000000000000E-01  9.1734301212184E-02 -6.8647929330465E-01  1.4886000870394E+00
101  1.0000000000000E+00  9.2539124217279E-02 -6.3928308476098E-01  1.4715738189555E+00
102  1.0100000000000E+00  9.1710847744008E-02 -5.9069674416096E-01  1.4495334148604E+00
103  1.0200000000000E+00  8.9422282452200E-02 -5.4130085462090E-01  1.4220393121800E+00
104  1.0300000000000E+00  8.5856122384626E-02 -4.9167424229661E-01  1.3886652405750E+00
105  1.0400000000000E+00  8.1204686863152E-02 -4.4239370937134E-01  1.3490146324892E+00
106  1.0500000000000E+00  7.5669165997273E-02 -3.9403180174535E-01  1.3027443871115E+00
107  1.0600000000000E+00  6.9457983911736E-02 -3.4715133169437E-01  1.2495981792679E+00
108  1.0700000000000E+00  6.2783809220246E-02 -3.0229511720401E-01  1.1894518729128E+00
109  1.0800000000000E+00  5.5858648725760E-02 -2.5996911507358E-01  1.1223740006642E+00
110  1.0900000000000E+00  4.8886352208562E-02 -2.2061679291624E-01  1.0487047758249E+00
111  1.1000000000000E+00  4.2051784390045E-02 -1.8458242189043E-01  9.6915684668533E-01
112  1.1100000000000E+00  3.5506521567317E-02 -1.5206374975381E-01  8.8492824101234E-01
113  1.1200000000000E+00  2.9366641187080E-02 -1.2312030045747E-01  7.9756149250883E-01
114  1.1300000000000E+00  2.3724503479914E-02 -9.7736189588183E-02  7.0863184886992E-01
115  1.1400000000000E+00  1.8650948670122E-02 -7.5835490289849E-02  6.1968528370806E-01
116  1.1500000000000E+00  1.4195547093460E-02 -5.7288322358306E-02  5.3222017278700E-01
117  1.1600000000000E+00  1.0386954412985E-02 -4.1916971176790E-02  4.4766950753543E-01
118  1.1700000000000E+00  7.2333512835404E-03 -2.9501923500360E-02  3.6738389007779E-01
119  1.1800000000000E+00  4.7228617404393E-03 -1.9787469052913E-02  2.9261557191406E-01
120  1.1900000000000E+00  2.8244226079306E-03 -1.2488110312991E-02  2.2450412723568E-01
121  1.2000000000000E+00  1.4729073907587E-03 -7.2507186363295E-03  1.6405245543292E-01
122  1.2100000000000E+00  5.6962645739369E-04 -3.6569487139743E-03  1.1210991894750E-01
123  1.2200000000000E+00  6.1222217512577E-05 -1.4469799560594E-03  6.9424414633120E-02
124  1.2300000000000E+00 -1.3244905850522E-04 -3.2364709194733E-04  3.6591847483350E-02
125  1.2400000000000E+00 -1.1846499780897E-04  4.7843446473490E-05  1.4052582402985E-02
126  1.2500000000000E+00 -2.8795287431066E-05  3.3902520035553E-05  2.1204175921239E-03
127  1.2600000000000E+00  2.4477679143677E-06 -3.5793484109167E-06 -1.3933440797344E-04
128  1.2700000000000E+00 -3.3031706057453E-07  4.5028126896461E-07  2.0835830370999E-05
129  1.28 -0.  0.  0.
130  1.29  0.  0.  0.
131  1.30  0.  0.  0.
132  1.31  0.  0.  0.
133  1.32  0.  0.  0.
134  1.33  0.  0.  0.
135  1.34  0.  0.  0.
136  1.35  0.  0.  0.
137  1.36  0.  0.  0.
138  1.37  0.  0.  0.
139  1.38  0.  0.  0.
140  1.39  0.  0.  0.
141  1.40  0.  0.  0.
142  1.41  0.  0.  0.
143  1.42  0.  0.  0.
144  1.43  0.  0.  0.
145  1.44  0.  0.  0.
146  1.45  0.  0.  0.
147  1.46  0.  0.  0.
148  1.47  0.  0.  0.
149  1.48  0.  0.  0.
150  1.49  0.  0.  0.
151  1.50  0.  0.  0.
152  1.51  0.  0.  0.
153  1.52  0.  0.  0.
154  1.53  0.  0.  0.
155  1.54  0.  0.  0.
156  1.55  0.  0.  0.
157  1.56  0.  0.  0.
158  1.57  0.  0.  0.
159  1.58  0.  0.  0.
160  1.59  0.  0.  0.
161  1.60  0.  0.  0.
162  1.61  0.  0.  0.
163  1.62  0.  0.  0.
164  1.63  0.  0.  0.
165  1.64  0.  0.  0.
166  1.65  0.  0.  0.
167  1.66  0.  0.  0.
168  1.67  0.  0.  0.
169  1.68  0.  0.  0.
170  1.69  0.  0.  0.
171  1.70  0.  0.  0.
172  1.71  0.  0.  0.
173  1.72  0.  0.  0.
174  1.73  0.  0.  0.
175  1.74  0.  0.  0.
176  1.75  0.  0.  0.
177  1.76  0.  0.  0.
178  1.77  0.  0.  0.
179  1.78  0.  0.  0.
180  1.79  0.  0.  0.
181  1.80  0.  0.  0.
182  1.81  0.  0.  0.
183  1.82  0.  0.  0.
184  1.83  0.  0.  0.
185  1.84  0.  0.  0.
186  1.85  0.  0.  0.
187  1.86  0.  0.  0.
188  1.87  0.  0.  0.
189  1.88  0.  0.  0.
190  1.89  0.  0.  0.
191  1.90  0.  0.  0.
192  1.91  0.  0.  0.
193  1.92  0.  0.  0.
194  1.93  0.  0.  0.
195  1.94  0.  0.  0.
196  1.95  0.  0.  0.
197  1.96  0.  0.  0.
198  1.97  0.  0.  0.
199  1.98  0.  0.  0.
200  1.99  0.  0.  0.
201  2.00  0.  0.  0.
202  2.01  0.  0.  0.
203  2.02  0.  0.  0.
204  2.03  0.  0.  0.
205  2.04  0.  0.  0.
206  2.05  0.  0.  0.
207  2.06  0.  0.  0.
208  2.07  0.  0.  0.
209  2.08  0.  0.  0.
210  2.09  0.  0.  0.
211  2.10  0.  0.  0.
212  2.11  0.  0.  0.
213  2.12  0.  0.  0.
214  2.13  0.  0.  0.
215  2.14  0.  0.  0.
216  2.15  0.  0.  0.
217  2.16  0.  0.  0.
218  2.17  0.  0.  0.
219  2.18  0.  0.  0.
220  2.19  0.  0.  0.
221  2.20  0.  0.  0.
222  2.21  0.  0.  0.
223  2.22  0.  0.  0.
224  2.23  0.  0.  0.
225  2.24  0.  0.  0.
226  2.25  0.  0.  0.
227  2.26  0.  0.  0.
228  2.27  0.  0.  0.
229  2.28  0.  0.  0.
230  2.29  0.  0.  0.
231  2.30  0.  0.  0.
232  2.31  0.  0.  0.
233  2.32  0.  0.  0.
234  2.33  0.  0.  0.
235  2.34  0.  0.  0.
236  2.35  0.  0.  0.
237  2.36  0.  0.  0.
238  2.37  0.  0.  0.
239  2.38  0.  0.  0.
240  2.39  0.  0.  0.
241  2.40  0.  0.  0.
242  2.41  0.  0.  0.
243  2.42  0.  0.  0.
244  2.43  0.  0.  0.
245  2.44  0.  0.  0.
246  2.45  0.  0.  0.
247  2.46  0.  0.  0.
248  2.47  0.  0.  0.
249  2.48  0.  0.  0.
250  2.49  0.  0.  0.
251  2.50  0.  0.  0.
252  2.51  0.  0.  0.
253  2.52  0.  0.  0.
254  2.53  0.  0.  0.
255  2.54  0.  0.  0.
256  2.55  0.  0.  0.
257  2.56  0.  0.  0.
258  2.57  0.  0.  0.
259  2.58  0.  0.  0.
260  2.59  0.  0.  0.
261  2.60  0.  0.  0.
262  2.61  0.  0.  0.
263  2.62  0.  0.  0.
264  2.63  0.  0.  0.
265  2.64  0.  0.  0.
266  2.65  0.  0.  0.
267  2.66  0.  0.  0.
268  2.67  0.  0.  0.
269  2.68  0.  0.  0.
270  2.69  0.  0.  0.
271  2.70  0.  0.  0.
272  2.71  0.  0.  0.
273  2.72  0.  0.  0.
274  2.73  0.  0.  0.
275  2.74  0.  0.  0.
276  2.75  0.  0.  0.
277  2.76  0.  0.  0.
278  2.77  0.  0.  0.
279  2.78  0.  0.  0.
280  2.79  0.  0.  0.
281  2.80  0.  0.  0.
282  2.81  0.  0.  0.
283  2.82  0.  0.  0.
284  2.83  0.  0.  0.
285  2.84  0.  0.  0.
286  2.85  0.  0.  0.
287  2.86  0.  0.  0.
288  2.87  0.  0.  0.
289  2.88  0.  0.  0.
290  2.89  0.  0.  0.
291  2.90  0.  0.  0.
292  2.91  0.  0.  0.
293  2.92  0.  0.  0.
294  2.93  0.  0.  0.
295  2.94  0.  0.  0.
296  2.95  0.  0.  0.
297  2.96  0.  0.  0.
298  2.97  0.  0.  0.
299  2.98  0.  0.  0.
300  2.99  0.  0.  0.
301  3.00  0.  0.  0.
302  3.01  0.  0.  0.
303  3.02  0.  0.  0.
304  3.03  0.  0.  0.
305  3.04  0.  0.  0.
306  3.05  0.  0.  0.
307  3.06  0.  0.  0.
308  3.07  0.  0.  0.
309  3.08  0.  0.  0.
310  3.09  0.  0.  0.
311  3.10  0.  0.  0.
312  3.11  0.  0.  0.
313  3.12  0.  0.  0.
314  3.13  0.  0.  0.
315  3.14  0.  0.  0.
316  3.15  0.  0.  0.
317  3.16  0.  0.  0.
318  3.17  0.  0.  0.
319  3.18  0.  0.  0.
320  3.19  0.  0.  0.
321  3.20  0.  0.  0.
322  3.21  0.  0.  0.
323  3.22  0.  0.  0.
324  3.23  0.  0.  0.
325  3.24  0.  0.  0.
326  3.25  0.  0.  0.
327  3.26  0.  0.  0.
328  3.27  0.  0.  0.
329  3.28  0.  0.  0.
330  3.29  0.  0.  0.
331  3.30  0.  0.  0.
332  3.31  0.  0.  0.
333  3.32  0.  0.  0.
334  3.33  0.  0.  0.
335  3.34  0.  0.  0.
336  3.35  0.  0.  0.
337  3.36  0.  0.  0.
338  3.37  0.  0.  0.
339  3.38  0.  0.  0.
340  3.39  0.  0.  0.
341  3.40  0.  0.  0.
342  3.41  0.  0.  0.
343  3.42  0.  0.  0.
344  3.43  0.  0.  0.
345  3.44  0.  0.  0.
346  3.45  0.  0.  0.
347  3.46  0.  0.  0.
348  3.47  0.  0.  0.
349  3.48  0.  0.  0.
350  3.49  0.  0.  0.
351  3.50  0.  0.  0.
352  3.51  0.  0.  0.
353  3.52  0.  0.  0.
354  3.53  0.  0.  0.
355  3.54  0.  0.  0.
356  3.55  0.  0.  0.
357  3.56  0.  0.  0.
358  3.57  0.  0.  0.
359  3.58  0.  0.  0.
360  3.59  0.  0.  0.
361  3.60  0.  0.  0.
362  3.61  0.  0.  0.
363  3.62  0.  0.  0.
364  3.63  0.  0.  0.
365  3.64  0.  0.  0.
366  3.65  0.  0.  0.
367  3.66  0.  0.  0.
368  3.67  0.  0.  0.
369  3.68  0.  0.  0.
370  3.69  0.  0.  0.
371  3.70  0.  0.  0.
372  3.71  0.  0.  0.
373  3.72  0.  0.  0.
374  3.73  0.  0.  0.
375  3.74  0.  0.  0.
376  3.75  0.  0.  0.
377  3.76  0.  0.  0.
378  3.77  0.  0.  0.
379  3.78  0.  0.  0.
380  3.79  0.  0.  0.
381  3.80  0.  0.  0.
382  3.81  0.  0.  0.
383  3.82  0.  0.  0.
384  3.83  0.  0.  0.
385  3.84  0.  0.  0.
386  3.85  0.  0.  0.
387  3.86  0.  0.  0.
388  3.87  0.  0.  0.
389  3.88  0.  0.  0.
390  3.89  0.  0.  0.
391  3.90  0.  0.  0.
392  3.91  0.  0.  0.
393  3.92  0.  0.  0.
394  3.93  0.  0.  0.
395  3.94  0.  0.  0.
396  3.95  0.  0.  0.
397  3.96  0.  0.  0.
398  3.97  0.  0.  0.
399  3.98  0.  0.  0.
400  3.99  0.  0.  0.
401  4.00  0.  0.  0.
402  4.01  0.  0.  0.
403  4.02  0.  0.  0.
404  4.03  0.  0.  0.
405  4.04  0.  0.  0.
406  4.05  0.  0.  0.
407  4.06  0.  0.  0.
408  4.07  0.  0.  0.
409  4.08  0.  0.  0.
410  4.09  0.  0.  0.
411  4.10  0.  0.  0.
412  4.11  0.  0.  0.
413  4.12  0.  0.  0.
414  4.13  0.  0.  0.
415  4.14  0.  0.  0.
416  4.15  0.  0.  0.
417  4.16  0.  0.  0.
418  4.17  0.  0.  0.
419  4.18  0.  0.  0.
420  4.19  0.  0.  0.
421  4.20  0.  0.  0.
422  4.21  0.  0.  0.
423  4.22  0.  0.  0.
424  4.23  0.  0.  0.
425  4.24  0.  0.  0.
426  4.25  0.  0.  0.
427  4.26  0.  0.  0.
428  4.27  0.  0.  0.
429  4.28  0.  0.  0.
430  4.29  0.  0.  0.
431  4.30  0.  0.  0.
432  4.31  0.  0.  0.
433  4.32  0.  0.  0.
434  4.33  0.  0.  0.
435  4.34  0.  0.  0.
436  4.35  0.  0.  0.
437  4.36  0.  0.  0.
438  4.37  0.  0.  0.
439  4.38  0.  0.  0.
440  4.39  0.  0.  0.
441  4.40  0.  0.  0.
442  4.41  0.  0.  0.
443  4.42  0.  0.  0.
444  4.43  0.  0.  0.
445  4.44  0.  0.  0.
446  4.45  0.  0.  0.
447  4.46  0.  0.  0.
448  4.47  0.  0.  0.
449  4.48  0.  0.  0.
450  4.49  0.  0.  0.
451  4.50  0.  0.  0.
452  4.51  0.  0.  0.
453  4.52  0.  0.  0.
454  4.53  0.  0.  0.
455  4.54  0.  0.  0.
456  4.55  0.  0.  0.
457  4.56  0.  0.  0.
458  4.57  0.  0.  0.
459  4.58  0.  0.  0.
460  4.59  0.  0.  0.
461  4.60  0.  0.  0.
462  4.61  0.  0.  0.
463  4.62  0.  0.  0.
464  4.63  0.  0.  0.
465  4.64  0.  0.  0.
466  4.65  0.  0.  0.
467  4.66  0.  0.  0.
468  4.67  0.  0.  0.
469  4.68  0.  0.  0.
470  4.69  0.  0.  0.
471  4.70  0.  0.  0.
472  4.71  0.  0.  0.
473  4.72  0.  0.  0.
474  4.73  0.  0.  0.
475  4.74  0.  0.  0.
476  4.75  0.  0.  0.
477  4.76  0.  0.  0.
478  4.77  0.  0.  0.
479  4.78  0.  0.  0.
480  4.79  0.  0.  0.
481  4.80  0.  0.  0.
482  4.81  0.  0.  0.
483  4.82  0.  0.  0.
484  4.83  0.  0.  0.
485  4.84  0.  0.  0.
486  4.85  0.  0.  0.
487  4.86  0.  0.  0.
488  4.87  0.  0.  0.
489  4.88  0.  0.  0.
490  4.89  0.  0.  0.
491  4.90  0.  0.  0.
492  4.91  0.  0.  0.
493  4.92  0.  0.  0.
494  4.93  0.  0.  0.
495  4.94  0.  0.  0.
496  4.95  0.  0.  0.
497  4.96  0.  0.  0.
498  4.97  0.  0.  0.
499  4.98  0.  0.  0.
500  4.99  0.  0.  0.
501  5.00  0.  0.  0.
502  5.01  0.  0.  0.
503  5.02  0.  0.  0.
504  5.03  0.  0.  0.
505  5.04  0.  0.  0.
506  5.05  0.  0.  0.
507  5.06  0.  0.  0.
508  5.07  0.  0.  0.
509  5.08  0.  0.  0.
510  5.09  0.  0.  0.
511  5.10  0.  0.  0.
512  5.11  0.  0.  0.
513  5.12  0.  0.  0.
514  5.13  0.  0.  0.
515  5.14  0.  0.  0.
516  5.15  0.  0.  0.
517  5.16  0.  0.  0.
518  5.17  0.  0.  0.
519  5.18  0.  0.  0.
520  5.19  0.  0.  0.
521  5.20  0.  0.  0.
522  5.21  0.  0.  0.
523  5.22  0.  0.  0.
524  5.23  0.  0.  0.
525  5.24  0.  0.  0.
526  5.25  0.  0.  0.
527  5.26  0.  0.  0.
528  5.27  0.  0.  0.
529  5.28  0.  0.  0.
530  5.29  0.  0.  0.
531  5.30  0.  0.  0.
532  5.31  0.  0.  0.
533  5.32  0.  0.  0.
534  5.33  0.  0.  0.
535  5.34  0.  0.  0.
536  5.35  0.  0.  0.
537  5.36  0.  0.  0.
538  5.37  0.  0.  0.
539  5.38  0.  0.  0.
540  5.39  0.  0.  0.
541  5.40  0.  0.  0.
542  5.41  0.  0.  0.
543  5.42  0.  0.  0.
544  5.43  0.  0.  0.
545  5.44  0.  0.  0.
546  5.45  0.  0.  0.
547  5.46  0.  0.  0.
548  5.47  0.  0.  0.
549  5.48  0.  0.  0.
550  5.49  0.  0.  0.
551  5.50  0.  0.  0.
552  5.51  0.  0.  0.
553  5.52  0.  0.  0.
554  5.53  0.  0.  0.
555  5.54  0.  0.  0.
556  5.55  0.  0.  0.
557  5.56  0.  0.  0.
558  5.57  0.  0.  0.
559  5.58  0.  0.  0.
560  5.59  0.  0.  0.
561  5.60  0.  0.  0.
562  5.61  0.  0.  0.
563  5.62  0.  0.  0.
564  5.63  0.  0.  0.
565  5.64  0.  0.  0.
566  5.65  0.  0.  0.
567  5.66  0.  0.  0.
568  5.67  0.  0.  0.
569  5.68  0.  0.  0.
570  5.69  0.  0.  0.
571  5.70  0.  0.  0.
572  5.71  0.  0.  0.
573  5.72  0.  0.  0.
574  5.73  0.  0.  0.
575  5.74  0.  0.  0.
576  5.75  0.  0.  0.
577  5.76  0.  0.  0.
578  5.77  0.  0.  0.
579  5.78  0.  0.  0.
580  5.79  0.  0.  0.
581  5.80  0.  0.  0.
582  5.81  0.  0.  0.
583  5.82  0.  0.  0.
584  5.83  0.  0.  0.
585  5.84  0.  0.  0.
586  5.85  0.  0.  0.
587  5.86  0.  0.  0.
588  5.87  0.  0.  0.
589  5.88  0.  0.  0.
590  5.89  0.  0.  0.
591  5.90  0.  0.  0.
592  5.91  0.  0.  0.
593  5.92  0.  0.  0.
594  5.93  0.  0.  0.
595  5.94  0.  0.  0.
596  5.95  0.  0.  0.
597  5.96  0.  0.  0.
598  5.97  0.  0.  0.
599  5.98  0.  0.  0.
600  5.99  0.  0.  0.
1                         7.5542136412145E+00 -2.5876967823267E-01
1  0.0000000000000E+00 -2.6011755249744E-09 -5.5303823091359E-08
2  1.0000000000000E-02  3.4819812678439E-03 -7.5341561082990E-05
3  2.0000000000000E-02  1.3903741936920E-02 -2.7404947424851E-04
4  3.0000000000000E-02  3.1192829349538E-02 -5.1525833724439E-04
5  4.0000000000000E-02  5.5228813686326E-02 -6.6777224746677E-04
6  5.0000000000000E-02  8.5843782209717E-02 -5.5530754380157E-04
7  6.0000000000000E-02  1.2282304547837E-01  3.6417029785491E-05
8  7.0000000000000E-02  1.6590606892516E-01  1.3509828716329E-03
9  8.0000000000000E-02  2.1478764579253E-01  3.6512622172867E-03
10  9.0000000000000E-02  2.6911932915824E-01  7.2084383067313E-03
11  1.0000000000000E-01  3.2851114153138E-01  1.2290431331239E-02
12  1.1000000000000E-01  3.9253358015647E-01  1.9150129391317E-02
13  1.2000000000000E-01  4.6071993467346E-01  2.8013833779897E-02
14  1.3000000000000E-01  5.3256893112363E-01  3.9070324759703E-02
15  1.4000000000000E-01  6.0754771248905E-01  5.2460937654295E-02
16  1.5000000000000E-01  6.8509516106739E-01  6.8271009955457E-02
17  1.6000000000000E-01  7.6462556211940E-01  8.6523019099876E-02
18  1.7000000000000E-01  8.4553260152174E-01  1.0717167880139E-01
19  1.8000000000000E-01  9.2719368278818E-01  1.3010120089724E-01
20  1.9000000000000E-01  1.0089745409883E+00  1.5512486143427E-01
21  2.0000000000000E-01  1.0902341230219E+00  1.8198693628046E-01
22  2.1000000000000E-01  1.1703296956393E+00  2.1036699517995E-01
23  2.2000000000000E-01  1.2486221347843E+00  2.3988646626516E-01
24  2.3000000000000E-01  1.3244813425297E+00  2.7011730803003E-01
25  2.4000000000000E-01  1.3972917313215E+00  3.0059255504986E-01
26  2.5000000000000E-01  1.4664577096774E+00  3.3081843959132E-01
27  2.6000000000000E-01  1.5314090991119E+00  3.6028773579788E-01
28  2.7000000000000E-01  1.5916064090607E+00  3.8849392821642E-01
29  2.8000000000000E-01  1.6465458951048E+00  4.1494577359944E-01
30  2.9000000000000E-01  1.6957643259528E+00  4.3918180536053E-01
31  3.0000000000000E-01  1.7388433864932E+00  4.6078432456279E-01
32  3.1000000000000E-01  1.7754136477900E+00  4.7939243023675E-01
33  3.2000000000000E-01  1.8051580401438E+00  4.9471366505654E-01
34  3.3000000000000E-01  1.8278147721745E+00  5.0653388940874E-01
35  3.4000000000000E-01  1.8431796471972E+00  5.1472504667598E-01
36  3.5000000000000E-01  1.8511077377669E+00  5.1925054372676E-01
37  3.6000000000000E-01  1.8515143899581E+00  5.2016804137051E-01
38  3.7000000000000E-01  1.8443755404697E+00  5.1762952779538E-01
39  3.8000000000000E-01  1.8297273417300E+00  5.1187863137882E-01
40  3.9000000000000E-01  1.8076651025214E+00  5.0324521517805E-01
41  4.0000000000000E-01  1.7783415639422E+00  4.9213738117917E-01
42  4.1000000000000E-01  1.7419645424639E+00  4.7903109528874E-01
43  4.2000000000000E-01  1.6987939831150E+00  4.6445772141582E-01
44  4.3000000000000E-01  1.6491384761389E+00  4.4898982228219E-01
45  4.4000000000000E-01  1.5933512995680E+00  4.3322564349493E-01
46  4.5000000000000E-01  1.5318260577873E+00  4.1777274389926E-01
47  4.6000000000000E-01  1.4649919921421E+00  4.0323126764361E-01
48  4.7000000000000E-01  1.3933090438146E+00  3.9017737050135E-01
49  4.8000000000000E-01  1.3172627514631E+00  3.7914731404174E-01
50  4.9000000000000E-01  1.2373590664366E+00  3.7062272596555E-01
51  5.0000000000000E-01  1.1541191667545E+00  3.6501749357619E-01
52  5.1000000000000E-01  1.0680743475480E+00  3.6266671072077E-01
53  5.2000000000000E-01  9.7976106041375E-01  3.6381803788413E-01
54  5.3000000000000E-01  8.8971616730316E-01  3.6862576220177E-01
55  5.4000000000000E-01  7.9847246638706E-01  3.7714776113805E-01
56  5.5000000000000E-01  7.0655453804059E-01  3.8934548298104E-01
57  5.6000000000000E-01  6.1447494898954E-01  4.0508696193675E-01
58  5.7000000000000E-01  5.2273084204882E-01  4.2415278846447E-01
59  5.8000000000000E-01  4.3180092809518E-01  4.4624485967992E-01
60  5.9000000000000E-01  3.4214288627526E-01  4.7099764326459E-01
61  6.0000000000000E-01  2.5419116827571E-01  4.9799160435721E-01
62  6.1000000000000E-01  1.6835519307396E-01  5.2676837116964E-01
63  6.2000000000000E-01  8.5017910219864E-02  5.5684715407132E-01
64  6.3000000000000E-01  4.5347026035239E-03  5.8774188674687E-01
65  6.4000000000000E-01 -7.2767405965894E-02  6.1897852842999E-01
66  6.5000000000000E-01 -1.4659027707317E-01  6.5011195429735E-01
67  6.6000000000000E-01 -2.1666495894683E-01  6.8074186747179E-01
68  6.7000000000000E-01 -2.8275180432332E-01  7.1052719073071E-01
69  6.8000000000000E-01 -3.4464044556198E-01  7.3919843835378E-01
70  6.9000000000000E-01 -4.0214966502724E-01  7.6656762739896E-01
71  7.0000000000000E-01 -4.5512719470415E-01  7.9253536132688E-01
72  7.1000000000000E-01 -5.0344947373365E-01  8.1709480508725E-01
73  7.2000000000000E-01 -5.4702138628665E-01  8.4033236685020E-01
74  7.3000000000000E-01 -5.8577599521916E-01  8.6242500451734E-01
75  7.4000000000000E-01 -6.1967427956576E-01  8.8363418170805E-01
76  7.5000000000000E-01 -6.4870487645251E-01  9.0429660467202E-01
77  7.6000000000000E-01 -6.7288382076008E-01  9.2481197511109E-01
78  7.7000000000000E-01 -6.9225426915387E-01  9.4562809082719E-01
79  7.8000000000000E-01 -7.0688618920749E-01  9.6722371331385E-01
80  7.9000000000000E-01 -7.1687598953732E-01  9.9008969602907E-01
81  8.0000000000000E-01 -7.2234606335223E-01  1.0147089267059E+00
82  8.1000000000000E-01 -7.2344421577189E-01  1.0415356797375E+00
83  8.2000000000000E-01 -7.2034294478481E-01  1.0709749990697E+00
84  8.3000000000000E-01 -7.1323854685147E-01  1.1033627374146E+00
85  8.4000000000000E-01 -7.0235002088809E-01  1.1389468638968E+00
86  8.5000000000000E-01 -6.8791774860877E-01  1.1778706200776E+00
87  8.6000000000000E-01 -6.7020193480735E-01  1.2201580549347E+00
88  8.7000000000000E-01 -6.4948079791546E-01  1.2657024047386E+00
89  8.8000000000000E-01 -6.2604850881388E-01  1.3142577063406E+00
90  8.9000000000000E-01 -6.0021288408610E-01  1.3654339452089E+00
91  9.0000000000000E-01 -5.7229284833375E-01  1.4186959460564E+00
92  9.1000000000000E-01 -5.4261568844157E-01  1.4733661178838E+00
93  9.2000000000000E-01 -5.1151413038640E-01  1.5286310707293E+00
94  9.3000000000000E-01 -4.7932327592504E-01  1.5835520324852E+00
95  9.4000000000000E-01 -4.4637744187275E-01  1.6370789149387E+00
96  9.5000000000000E-01 -4.1300694831556E-01  1.6880678127073E+00
97  9.6000000000000E-01 -3.7953490363530E-01  1.7353016707342E+00
98  9.7000000000000E-01 -3.4627403335134E-01  1.7775138289232E+00
99  9.8000000000000E-01 -3.1352359623238E-01  1.8134141493446E+00
100  9.9000000000000E-01 -2.8156642469823E-01  1.8417174547003E+00
101  1.0000000000000E+00 -2.5066611705820E-01  1.8611740584014E+00
102  1.0100000000000E+00 -2.2106439653862E-01  1.8706022479949E+00
103  1.0200000000000E+00 -1.9297863632091E-01  1.8689226954512E+00
104  1.0300000000000E+00 -1.6659953099293E-01  1.8551949100355E+00
105  1.0400000000000E+00 -1.4208887300605E-01  1.8286560217029E+00
106  1.0500000000000E+00 -1.1957736815217E-01  1.7887623835873E+00
107  1.0600000000000E+00 -9.9162396927534E-02  1.7352347097026E+00
108  1.0700000000000E+00 -8.0905599218720E-02  1.6681077161693E+00
109  1.0800000000000E+00 -6.4830128477736E-02  1.5877855073043E+00
110  1.0900000000000E+00 -5.0917385474671E-02  1.4951042958357E+00
111  1.1000000000000E+00 -3.9103043856190E-02  1.3914037079005E+00
112  1.1100000000000E+00 -2.9272783085489E-02  1.2785964611434E+00
113  1.1200000000000E+00 -2.1270806613322E-02  1.1590037045498E+00
114  1.1300000000000E+00 -1.4918413665156E-02  1.0350485267345E+00
115  1.1400000000000E+00 -1.0021898986132E-02  9.0917945138535E-01
116  1.1500000000000E+00 -6.3786610654825E-03  7.8383097048342E-01
117  1.1600000000000E+00 -3.7834104384223E-03  6.6138263516750E-01
118  1.1700000000000E+00 -2.0343482978637E-03  5.4411763764490E-01
119  1.1800000000000E+00 -9.3923094262346E-04  4.3418156180136E-01
120  1.1900000000000E+00 -3.2091203105015E-04  3.3354441688905E-01