Am    ONCVPSP-4.0.1  r_core=   1.15530   1.15530   1.10131   1.20470
95.0000     35.0000      220323    zatom,zion,pspd
8      11   3     4   600     0    pspcod,pspxc,lmax,lloc,mmax,r2well
5.99000000  5.00000000  0.00000000    rchrg fchrg qchrg
3     2     2     2     0    nproj
1     1           extension_switch
0                         3.2307338941049E+01  3.3263865727721E+00 -8.3872798335590E-01
1  0.0000000000000E+00 -6.8822109788869E-08  2.4807261767013E-07  4.2218082446643E-08
2  1.0000000000000E-02  1.5656816612619E-01 -8.1148924725062E-02  2.4045704955871E-02
3  2.0000000000000E-02  3.1200832820271E-01 -1.6040000447907E-01  4.8127654778883E-02
4  3.0000000000000E-02  4.6520968152986E-01 -2.3590673506308E-01  7.2275194063400E-02
5  4.0000000000000E-02  6.1509531217208E-01 -3.0592349925007E-01  9.6504175492603E-02
6  5.0000000000000E-02  7.6063789152405E-01 -3.6885159236749E-01  1.2081097388680E-01
7  6.0000000000000E-02  9.0087392241803E-01 -4.2328013560720E-01  1.4516738024664E-01
8  7.0000000000000E-02  1.0349161392833E+00 -4.6802048043133E-01  1.6951661701857E-01
9  8.0000000000000E-02  1.1619637336899E+00 -5.0213295551531E-01  1.9377067359165E-01
10  9.0000000000000E-02  1.2813101574399E+00 -5.2494509913994E-01  2.1780911121185E-01
11  1.0000000000000E-01  1.3923483450426E+00 -5.3606084347684E-01  2.4147943087848E-01
12  1.1000000000000E-01  1.4945732924228E+00 -5.3536046021869E-01  2.6459903838729E-01
13  1.2000000000000E-01  1.5875820253421E+00 -5.2299142614496E-01  2.8695877966057E-01
14  1.3000000000000E-01  1.6710710854853E+00 -4.9935070890935E-01  3.0832795907285E-01
15  1.4000000000000E-01  1.7448317507857E+00 -4.6505929429314E-01  3.2846069583563E-01
16  1.5000000000000E-01  1.8087432858748E+00 -4.2093006392262E-01  3.4710342074152E-01
17  1.6000000000000E-01  1.8627645854464E+00 -3.6793037580630E-01  3.6400326960736E-01
18  1.7000000000000E-01  1.9069246252319E+00 -3.0714088958872E-01  3.7891709226977E-01
19  1.8000000000000E-01  1.9413121701692E+00 -2.3971230678313E-01  3.9162076834843E-01
20  1.9000000000000E-01  1.9660652058945E+00 -1.6682175851740E-01  4.0191850421362E-01
21  2.0000000000000E-01  1.9813605572744E+00 -8.9630567144817E-02  4.0965178030327E-01
22  2.1000000000000E-01  1.9874041364769E+00 -9.2450337758290E-03  4.1470762434096E-01
23  2.2000000000000E-01  1.9844222239498E+00  7.3318235608449E-02  4.1702590390415E-01
24  2.3000000000000E-01  1.9726541302341E+00  1.5716115171923E-01  4.1660536056129E-01
25  2.4000000000000E-01  1.9523465170574E+00  2.4152604798744E-01  4.1350814643140E-01
26  2.5000000000000E-01  1.9237495754451E+00  3.2580990001948E-01  4.0786267116197E-01
27  2.6000000000000E-01  1.8871151699360E+00  4.0957040966546E-01  3.9986462131056E-01
28  2.7000000000000E-01  1.8426969649972E+00  4.9252384434417E-01  3.8977607305440E-01
29  2.8000000000000E-01  1.7907524561802E+00  5.7453486547497E-01  3.7792268096849E-01
30  2.9000000000000E-01  1.7315467382707E+00  6.5559891315198E-01  3.6468898814081E-01
31  3.0000000000000E-01  1.6653577593486E+00  7.3581802429015E-01  3.5051196395120E-01
32  3.1000000000000E-01  1.5924827367342E+00  8.1537123596047E-01  3.3587293330349E-01
33  3.2000000000000E-01  1.5132453512664E+00  8.9448095355486E-01  3.2128811299152E-01
34  3.3000000000000E-01  1.4280032927579E+00  9.7337683556763E-01  3.0729801541941E-01
35  3.4000000000000E-01  1.3371557036598E+00  1.0522588561991E+00  2.9445601558819E-01
36  3.5000000000000E-01  1.2411500611238E+00  1.1312612491660E+00  2.8331640292763E-01
37  3.6000000000000E-01  1.1404880501926E+00  1.2104190091798E+00  2.7442225438367E-01
38  3.7000000000000E-01  1.0357300124097E+00  1.2896385324357E+00  2.6829346875126E-01
39  3.8000000000000E-01  9.2749760361416E-01  1.3686738177154E+00  2.6541529455928E-01
40  3.9000000000000E-01  8.1647436021992E-01  1.4471094315253E+00  2.6622766525490E-01
41  4.0000000000000E-01  7.0340395239028E-01  1.5243511725455E+00  2.7111562677803E-01
42  4.1000000000000E-01  5.8908599214978E-01  1.5996250630760E+00  2.8040110498625E-01
43  4.2000000000000E-01  4.7436936115424E-01  1.6719849601850E+00  2.9433621522518E-01
44  4.3000000000000E-01  3.6014312277226E-01  1.7403287301285E+00  3.1309826532468E-01
45  4.4000000000000E-01  2.4732518239080E-01  1.8034225800727E+00  3.3678654831527E-01
46  4.5000000000000E-01  1.3684895451029E-01  1.8599328050766E+00  3.6542096419278E-01
47  4.6000000000000E-01  2.9648381473995E-02  1.9084638990003E+00  3.9894245314908E-01
48  4.7000000000000E-01 -7.3358276876196E-02  1.9476017078018E+00  4.3721516782995E-01
49  4.8000000000000E-01 -1.7128540372176E-01  1.9759600833580E+00  4.8003026127450E-01
50  4.9000000000000E-01 -2.6329721474916E-01  1.9922293343186E+00  5.2711112194619E-01
51  5.0000000000000E-01 -3.4862463210898E-01  1.9952246741060E+00  5.7811984916304E-01
52  5.1000000000000E-01 -4.2658129519768E-01  1.9839328389751E+00  6.3266473246002E-01
53  5.2000000000000E-01 -4.9657817778356E-01  1.9575550922969E+00  6.9030847782822E-01
54  5.3000000000000E-01 -5.5813631798059E-01  1.9155449433840E+00  7.5057691286855E-01
55  5.4000000000000E-01 -6.1089722306060E-01  1.8576390860258E+00  8.1296790180434E-01
56  5.5000000000000E-01 -6.5463058304902E-01  1.7838802966540E+00  8.7696020976977E-01
57  5.6000000000000E-01 -6.8923901280876E-01  1.6946313156874E+00  9.4202207323685E-01
58  5.7000000000000E-01 -7.1475963867615E-01  1.5905790571659E+00  1.0076192589357E+00
59  5.8000000000000E-01 -7.3136244906143E-01  1.4727288388693E+00  1.0732224259539E+00
60  5.9000000000000E-01 -7.3934543489448E-01  1.3423886843544E+00  1.1383136434288E+00
61  6.0000000000000E-01 -7.3912665139963E-01  1.2011441059316E+00  1.2023919577542E+00
62  6.1000000000000E-01 -7.3123343348580E-01  1.0508241198399E+00  1.2649779467856E+00
63  6.2000000000000E-01 -7.1628908931184E-01  8.9345955875452E-01  1.3256172423804E+00
64  6.3000000000000E-01 -6.9499747694799E-01  7.3123502041122E-01  1.3838830450201E+00
65  6.4000000000000E-01 -6.6812593459846E-01  5.6643601434193E-01  1.4393776935849E+00
66  6.5000000000000E-01 -6.3648708327874E-01  4.0139303333485E-01  1.4917333881173E+00
67  6.6000000000000E-01 -6.0092005051445E-01  2.3842437640203E-01  1.5406121923469E+00
68  6.7000000000000E-01 -5.6227167366449E-01  7.9779582516652E-02  1.5857054648539E+00
69  6.8000000000000E-01 -5.2137823174315E-01 -7.2414701434459E-02  1.6267328823044E+00
70  6.9000000000000E-01 -4.7904822575888E-01 -2.1620469709778E-01  1.6634412248085E+00
71  7.0000000000000E-01 -4.3604668097971E-01 -3.4985375775997E-01  1.6956030920544E+00
72  7.1000000000000E-01 -3.9308138219192E-01 -4.7187957870542E-01  1.7230157097120E+00
73  7.2000000000000E-01 -3.5079137756728E-01 -5.8108327936843E-01  1.7454999692341E+00
74  7.3000000000000E-01 -3.0973800124203E-01 -6.7656958083877E-01  1.7628998214432E+00
75  7.4000000000000E-01 -2.7039857254810E-01 -7.5775762449017E-01  1.7750821162512E+00
76  7.5000000000000E-01 -2.3316283461084E-01 -8.2438231039359E-01  1.7819369487799E+00
77  7.6000000000000E-01 -1.9833210035151E-01 -8.7648636508955E-01  1.7833785374365E+00
78  7.7000000000000E-01 -1.6612098334166E-01 -9.1440366481669E-01  1.7793466236287E+00
79  7.8000000000000E-01 -1.3666150770996E-01 -9.3873463092690E-01  1.7698083472952E+00
80  7.9000000000000E-01 -1.1000931830527E-01 -9.5031476867379E-01  1.7547605187324E+00
81  8.0000000000000E-01 -8.6151651976538E-02 -9.5017763027228E-01  1.7342321767209E+00
82  8.1000000000000E-01 -6.5016684997180E-02 -9.3951364141704E-01  1.7082872969098E+00
83  8.2000000000000E-01 -4.6483841546178E-02 -9.1962633288900E-01  1.6770274938940E+00
84  8.3000000000000E-01 -3.0394634323423E-02 -8.9188756330061E-01  1.6405945462443E+00
85  8.4000000000000E-01 -1.6563610719434E-02 -8.5769330557966E-01  1.5991725665547E+00
86  8.5000000000000E-01 -4.7889957518732E-03 -8.1842150082024E-01  1.5529896387194E+00
87  8.6000000000000E-01  5.1373450857584E-03 -7.7539336303689E-01  1.5023187522700E+00
88  8.7000000000000E-01  1.3420955634199E-02 -7.2983935325615E-01  1.4474778785923E+00
89  8.8000000000000E-01  2.0257129664898E-02 -6.8287083881738E-01  1.3888290558668E+00
90  8.9000000000000E-01  2.5824758233451E-02 -6.3545822221638E-01  1.3267763781570E+00
91  9.0000000000000E-01  3.0281832487351E-02 -5.8841607237286E-01  1.2617628185349E+00
92  9.1000000000000E-01  3.3762680824949E-02 -5.4239552891768E-01  1.1942658557505E+00
93  9.2000000000000E-01  3.6376949437433E-02 -4.9788398567445E-01  1.1247919179037E+00
94  9.3000000000000E-01  3.8210267532022E-02 -4.5521180076450E-01  1.0538697040466E+00
95  9.4000000000000E-01  3.9326474755282E-02 -4.1456553426013E-01  9.8204249484976E-01
96  9.5000000000000E-01  3.9771229845240E-02 -3.7600698494826E-01  9.0985961569469E-01
97  9.6000000000000E-01  3.9576767117792E-02 -3.3949708854350E-01  8.3786726923715E-01
98  9.7000000000000E-01  3.8767521209832E-02 -3.0492355153326E-01  7.6659900915054E-01
99  9.8000000000000E-01  3.7366300057590E-02 -2.7213092633369E-01  6.9656618217622E-01
100  9.9000000000000E-01  3.5400650268988E-02 -2.4095168107264E-01  6.2824872164774E-01
101  1.0000000000000E+00  3.2909026050165E-02 -2.1123667514480E-01  5.6208673250086E-01
102  1.0100000000000E+00  2.9946340339114E-02 -1.8288331197759E-01  4.9847336568166E-01
103  1.0200000000000E+00  2.6588441881360E-02 -1.5585949343130E-01  4.3774953933980E-01
104  1.0300000000000E+00  2.2935021347502E-02 -1.3022133474709E-01  3.8020112589829E-01
105  1.0400000000000E+00  1.9110399510110E-02 -1.0612240225982E-01  3.2605928887684E-01
106  1.0500000000000E+00  1.5261587162753E-02 -8.3811995262364E-02  2.7550472202296E-01
107  1.0600000000000E+00  1.1552925777630E-02 -6.3619694363239E-02  2.2867661698990E-01
108  1.0700000000000E+00  8.1565156542448E-03 -4.5923026985089E-02  1.8568726558777E-01
109  1.0800000000000E+00  5.2375431479792E-03 -3.1094745242582E-02  1.4664330611303E-01
110  1.0900000000000E+00  2.9331618475184E-03 -1.9424691820306E-02  1.1167458665608E-01
111  1.1000000000000E+00  1.3155490759429E-03 -1.0986169488836E-02  8.0967326290833E-02
112  1.1100000000000E+00  2.4758550889741E-04 -5.1585366680016E-03  5.4747318688659E-02
113  1.1200000000000E+00 -3.2251209575415E-04 -1.5757436569187E-03  3.3372257236839E-02
114  1.1300000000000E+00 -4.5126034251107E-04  9.3130270716417E-05  1.7145373936607E-02
115  1.1400000000000E+00 -2.8458354591215E-04  4.0014008365107E-04  6.2506639647200E-03
116  1.1500000000000E+00 -5.2332095530772E-05  1.0021709901918E-04  7.7448774572069E-04
117  1.1600000000000E+00  3.5063880661660E-06 -7.4188561228508E-06 -4.1756701454844E-05
118  1.1700000000000E+00  8.5849978529703E-08 -1.5970482638809E-07 -1.3379266542909E-06
119  1.18 -0.  0. -0.
120  1.19  0.  0.  0.
121  1.20  0.  0.  0.
122  1.21  0.  0.  0.
123  1.22  0.  0.  0.
124  1.23  0.  0.  0.
125  1.24  0.  0.  0.
126  1.25  0.  0.  0.
127  1.26  0.  0.  0.
128  1.27  0.  0.  0.
129  1.28  0.  0.  0.
130  1.29  0.  0.  0.
131  1.30  0.  0.  0.
132  1.31  0.  0.  0.
133  1.32  0.  0.  0.
134  1.33  0.  0.  0.
135  1.34  0.  0.  0.
136  1.35  0.  0.  0.
137  1.36  0.  0.  0.
138  1.37  0.  0.  0.
139  1.38  0.  0.  0.
140  1.39  0.  0.  0.
141  1.40  0.  0.  0.
142  1.41  0.  0.  0.
143  1.42  0.  0.  0.
144  1.43  0.  0.  0.
145  1.44  0.  0.  0.
146  1.45  0.  0.  0.
147  1.46  0.  0.  0.
148  1.47  0.  0.  0.
149  1.48  0.  0.  0.
150  1.49  0.  0.  0.
151  1.50  0.  0.  0.
152  1.51  0.  0.  0.
153  1.52  0.  0.  0.
154  1.53  0.  0.  0.
155  1.54  0.  0.  0.
156  1.55  0.  0.  0.
157  1.56  0.  0.  0.
158  1.57  0.  0.  0.
159  1.58  0.  0.  0.
160  1.59  0.  0.  0.
161  1.60  0.  0.  0.
162  1.61  0.  0.  0.
163  1.62  0.  0.  0.
164  1.63  0.  0.  0.
165  1.64  0.  0.  0.
166  1.65  0.  0.  0.
167  1.66  0.  0.  0.
168  1.67  0.  0.  0.
169  1.68  0.  0.  0.
170  1.69  0.  0.  0.
171  1.70  0.  0.  0.
172  1.71  0.  0.  0.
173  1.72  0.  0.  0.
174  1.73  0.  0.  0.
175  1.74  0.  0.  0.
176  1.75  0.  0.  0.
177  1.76  0.  0.  0.
178  1.77  0.  0.  0.
179  1.78  0.  0.  0.
180  1.79  0.  0.  0.
181  1.80  0.  0.  0.
182  1.81  0.  0.  0.
183  1.82  0.  0.  0.
184  1.83  0.  0.  0.
185  1.84  0.  0.  0.
186  1.85  0.  0.  0.
187  1.86  0.  0.  0.
188  1.87  0.  0.  0.
189  1.88  0.  0.  0.
190  1.89  0.  0.  0.
191  1.90  0.  0.  0.
192  1.91  0.  0.  0.
193  1.92  0.  0.  0.
194  1.93  0.  0.  0.
195  1.94  0.  0.  0.
196  1.95  0.  0.  0.
197  1.96  0.  0.  0.
198  1.97  0.  0.  0.
199  1.98  0.  0.  0.
200  1.99  0.  0.  0.
201  2.00  0.  0.  0.
202  2.01  0.  0.  0.
203  2.02  0.  0.  0.
204  2.03  0.  0.  0.
205  2.04  0.  0.  0.
206  2.05  0.  0.  0.
207  2.06  0.  0.  0.
208  2.07  0.  0.  0.
209  2.08  0.  0.  0.
210  2.09  0.  0.  0.
211  2.10  0.  0.  0.
212  2.11  0.  0.  0.
213  2.12  0.  0.  0.
214  2.13  0.  0.  0.
215  2.14  0.  0.  0.
216  2.15  0.  0.  0.
217  2.16  0.  0.  0.
218  2.17  0.  0.  0.
219  2.18  0.  0.  0.
220  2.19  0.  0.  0.
221  2.20  0.  0.  0.
222  2.21  0.  0.  0.
223  2.22  0.  0.  0.
224  2.23  0.  0.  0.
225  2.24  0.  0.  0.
226  2.25  0.  0.  0.
227  2.26  0.  0.  0.
228  2.27  0.  0.  0.
229  2.28  0.  0.  0.
230  2.29  0.  0.  0.
231  2.30  0.  0.  0.
232  2.31  0.  0.  0.
233  2.32  0.  0.  0.
234  2.33  0.  0.  0.
235  2.34  0.  0.  0.
236  2.35  0.  0.  0.
237  2.36  0.  0.  0.
238  2.37  0.  0.  0.
239  2.38  0.  0.  0.
240  2.39  0.  0.  0.
241  2.40  0.  0.  0.
242  2.41  0.  0.  0.
243  2.42  0.  0.  0.
244  2.43  0.  0.  0.
245  2.44  0.  0.  0.
246  2.45  0.  0.  0.
247  2.46  0.  0.  0.
248  2.47  0.  0.  0.
249  2.48  0.  0.  0.
250  2.49  0.  0.  0.
251  2.50  0.  0.  0.
252  2.51  0.  0.  0.
253  2.52  0.  0.  0.
254  2.53  0.  0.  0.
255  2.54  0.  0.  0.
256  2.55  0.  0.  0.
257  2.56  0.  0.  0.
258  2.57  0.  0.  0.
259  2.58  0.  0.  0.
260  2.59  0.  0.  0.
261  2.60  0.  0.  0.
262  2.61  0.  0.  0.
263  2.62  0.  0.  0.
264  2.63  0.  0.  0.
265  2.64  0.  0.  0.
266  2.65  0.  0.  0.
267  2.66  0.  0.  0.
268  2.67  0.  0.  0.
269  2.68  0.  0.  0.
270  2.69  0.  0.  0.
271  2.70  0.  0.  0.
272  2.71  0.  0.  0.
273  2.72  0.  0.  0.
274  2.73  0.  0.  0.
275  2.74  0.  0.  0.
276  2.75  0.  0.  0.
277  2.76  0.  0.  0.
278  2.77  0.  0.  0.
279  2.78  0.  0.  0.
280  2.79  0.  0.  0.
281  2.80  0.  0.  0.
282  2.81  0.  0.  0.
283  2.82  0.  0.  0.
284  2.83  0.  0.  0.
285  2.84  0.  0.  0.
286  2.85  0.  0.  0.
287  2.86  0.  0.  0.
288  2.87  0.  0.  0.
289  2.88  0.  0.  0.
290  2.89  0.  0.  0.
291  2.90  0.  0.  0.
292  2.91  0.  0.  0.
293  2.92  0.  0.  0.
294  2.93  0.  0.  0.
295  2.94  0.  0.  0.
296  2.95  0.  0.  0.
297  2.96  0.  0.  0.
298  2.97  0.  0.  0.
299  2.98  0.  0.  0.
300  2.99  0.  0.  0.
301  3.00  0.  0.  0.
302  3.01  0.  0.  0.
303  3.02  0.  0.  0.
304  3.03  0.  0.  0.
305  3.04  0.  0.  0.
306  3.05  0.  0.  0.
307  3.06  0.  0.  0.
308  3.07  0.  0.  0.
309  3.08  0.  0.  0.
310  3.09  0.  0.  0.
311  3.10  0.  0.  0.
312  3.11  0.  0.  0.
313  3.12  0.  0.  0.
314  3.13  0.  0.  0.
315  3.14  0.  0.  0.
316  3.15  0.  0.  0.
317  3.16  0.  0.  0.
318  3.17  0.  0.  0.
319  3.18  0.  0.  0.
320  3.19  0.  0.  0.
321  3.20  0.  0.  0.
322  3.21  0.  0.  0.
323  3.22  0.  0.  0.
324  3.23  0.  0.  0.
325  3.24  0.  0.  0.
326  3.25  0.  0.  0.
327  3.26  0.  0.  0.
328  3.27  0.  0.  0.
329  3.28  0.  0.  0.
330  3.29  0.  0.  0.
331  3.30  0.  0.  0.
332  3.31  0.  0.  0.
333  3.32  0.  0.  0.
334  3.33  0.  0.  0.
335  3.34  0.  0.  0.
336  3.35  0.  0.  0.
337  3.36  0.  0.  0.
338  3.37  0.  0.  0.
339  3.38  0.  0.  0.
340  3.39  0.  0.  0.
341  3.40  0.  0.  0.
342  3.41  0.  0.  0.
343  3.42  0.  0.  0.
344  3.43  0.  0.  0.
345  3.44  0.  0.  0.
346  3.45  0.  0.  0.
347  3.46  0.  0.  0.
348  3.47  0.  0.  0.
349  3.48  0.  0.  0.
350  3.49  0.  0.  0.
351  3.50  0.  0.  0.
352  3.51  0.  0.  0.
353  3.52  0.  0.  0.
354  3.53  0.  0.  0.
355  3.54  0.  0.  0.
356  3.55  0.  0.  0.
357  3.56  0.  0.  0.
358  3.57  0.  0.  0.
359  3.58  0.  0.  0.
360  3.59  0.  0.  0.
361  3.60  0.  0.  0.
362  3.61  0.  0.  0.
363  3.62  0.  0.  0.
364  3.63  0.  0.  0.
365  3.64  0.  0.  0.
366  3.65  0.  0.  0.
367  3.66  0.  0.  0.
368  3.67  0.  0.  0.
369  3.68  0.  0.  0.
370  3.69  0.  0.  0.
371  3.70  0.  0.  0.
372  3.71  0.  0.  0.
373  3.72  0.  0.  0.
374  3.73  0.  0.  0.
375  3.74  0.  0.  0.
376  3.75  0.  0.  0.
377  3.76  0.  0.  0.
378  3.77  0.  0.  0.
379  3.78  0.  0.  0.
380  3.79  0.  0.  0.
381  3.80  0.  0.  0.
382  3.81  0.  0.  0.
383  3.82  0.  0.  0.
384  3.83  0.  0.  0.
385  3.84  0.  0.  0.
386  3.85  0.  0.  0.
387  3.86  0.  0.  0.
388  3.87  0.  0.  0.
389  3.88  0.  0.  0.
390  3.89  0.  0.  0.
391  3.90  0.  0.  0.
392  3.91  0.  0.  0.
393  3.92  0.  0.  0.
394  3.93  0.  0.  0.
395  3.94  0.  0.  0.
396  3.95  0.  0.  0.
397  3.96  0.  0.  0.
398  3.97  0.  0.  0.
399  3.98  0.  0.  0.
400  3.99  0.  0.  0.
401  4.00  0.  0.  0.
402  4.01  0.  0.  0.
403  4.02  0.  0.  0.
404  4.03  0.  0.  0.
405  4.04  0.  0.  0.
406  4.05  0.  0.  0.
407  4.06  0.  0.  0.
408  4.07  0.  0.  0.
409  4.08  0.  0.  0.
410  4.09  0.  0.  0.
411  4.10  0.  0.  0.
412  4.11  0.  0.  0.
413  4.12  0.  0.  0.
414  4.13  0.  0.  0.
415  4.14  0.  0.  0.
416  4.15  0.  0.  0.
417  4.16  0.  0.  0.
418  4.17  0.  0.  0.
419  4.18  0.  0.  0.
420  4.19  0.  0.  0.
421  4.20  0.  0.  0.
422  4.21  0.  0.  0.
423  4.22  0.  0.  0.
424  4.23  0.  0.  0.
425  4.24  0.  0.  0.
426  4.25  0.  0.  0.
427  4.26  0.  0.  0.
428  4.27  0.  0.  0.
429  4.28  0.  0.  0.
430  4.29  0.  0.  0.
431  4.30  0.  0.  0.
432  4.31  0.  0.  0.
433  4.32  0.  0.  0.
434  4.33  0.  0.  0.
435  4.34  0.  0.  0.
436  4.35  0.  0.  0.
437  4.36  0.  0.  0.
438  4.37  0.  0.  0.
439  4.38  0.  0.  0.
440  4.39  0.  0.  0.
441  4.40  0.  0.  0.
442  4.41  0.  0.  0.
443  4.42  0.  0.  0.
444  4.43  0.  0.  0.
445  4.44  0.  0.  0.
446  4.45  0.  0.  0.
447  4.46  0.  0.  0.
448  4.47  0.  0.  0.
449  4.48  0.  0.  0.
450  4.49  0.  0.  0.
451  4.50  0.  0.  0.
452  4.51  0.  0.  0.
453  4.52  0.  0.  0.
454  4.53  0.  0.  0.
455  4.54  0.  0.  0.
456  4.55  0.  0.  0.
457  4.56  0.  0.  0.
458  4.57  0.  0.  0.
459  4.58  0.  0.  0.
460  4.59  0.  0.  0.
461  4.60  0.  0.  0.
462  4.61  0.  0.  0.
463  4.62  0.  0.  0.
464  4.63  0.  0.  0.
465  4.64  0.  0.  0.
466  4.65  0.  0.  0.
467  4.66  0.  0.  0.
468  4.67  0.  0.  0.
469  4.68  0.  0.  0.
470  4.69  0.  0.  0.
471  4.70  0.  0.  0.
472  4.71  0.  0.  0.
473  4.72  0.  0.  0.
474  4.73  0.  0.  0.
475  4.74  0.  0.  0.
476  4.75  0.  0.  0.
477  4.76  0.  0.  0.
478  4.77  0.  0.  0.
479  4.78  0.  0.  0.
480  4.79  0.  0.  0.
481  4.80  0.  0.  0.
482  4.81  0.  0.  0.
483  4.82  0.  0.  0.
484  4.83  0.  0.  0.
485  4.84  0.  0.  0.
486  4.85  0.  0.  0.
487  4.86  0.  0.  0.
488  4.87  0.  0.  0.
489  4.88  0.  0.  0.
490  4.89  0.  0.  0.
491  4.90  0.  0.  0.
492  4.91  0.  0.  0.
493  4.92  0.  0.  0.
494  4.93  0.  0.  0.
495  4.94  0.  0.  0.
496  4.95  0.  0.  0.
497  4.96  0.  0.  0.
498  4.97  0.  0.  0.
499  4.98  0.  0.  0.
500  4.99  0.  0.  0.
501  5.00  0.  0.  0.
502  5.01  0.  0.  0.
503  5.02  0.  0.  0.
504  5.03  0.  0.  0.
505  5.04  0.  0.  0.
506  5.05  0.  0.  0.
507  5.06  0.  0.  0.
508  5.07  0.  0.  0.
509  5.08  0.  0.  0.
510  5.09  0.  0.  0.
511  5.10  0.  0.  0.
512  5.11  0.  0.  0.
513  5.12  0.  0.  0.
514  5.13  0.  0.  0.
515  5.14  0.  0.  0.
516  5.15  0.  0.  0.
517  5.16  0.  0.  0.
518  5.17  0.  0.  0.
519  5.18  0.  0.  0.
520  5.19  0.  0.  0.
521  5.20  0.  0.  0.
522  5.21  0.  0.  0.
523  5.22  0.  0.  0.
524  5.23  0.  0.  0.
525  5.24  0.  0.  0.
526  5.25  0.  0.  0.
527  5.26  0.  0.  0.
528  5.27  0.  0.  0.
529  5.28  0.  0.  0.
530  5.29  0.  0.  0.
531  5.30  0.  0.  0.
532  5.31  0.  0.  0.
533  5.32  0.  0.  0.
534  5.33  0.  0.  0.
535  5.34  0.  0.  0.
536  5.35  0.  0.  0.
537  5.36  0.  0.  0.
538  5.37  0.  0.  0.
539  5.38  0.  0.  0.
540  5.39  0.  0.  0.
541  5.40  0.  0.  0.
542  5.41  0.  0.  0.
543  5.42  0.  0.  0.
544  5.43  0.  0.  0.
545  5.44  0.  0.  0.
546  5.45  0.  0.  0.
547  5.46  0.  0.  0.
548  5.47  0.  0.  0.
549  5.48  0.  0.  0.
550  5.49  0.  0.  0.
551  5.50  0.  0.  0.
552  5.51  0.  0.  0.
553  5.52  0.  0.  0.
554  5.53  0.  0.  0.
555  5.54  0.  0.  0.
556  5.55  0.  0.  0.
557  5.56  0.  0.  0.
558  5.57  0.  0.  0.
559  5.58  0.  0.  0.
560  5.59  0.  0.  0.
561  5.60  0.  0.  0.
562  5.61  0.  0.  0.
563  5.62  0.  0.  0.
564  5.63  0.  0.  0.
565  5.64  0.  0.  0.
566  5.65  0.  0.  0.
567  5.66  0.  0.  0.
568  5.67  0.  0.  0.
569  5.68  0.  0.  0.
570  5.69  0.  0.  0.
571  5.70  0.  0.  0.
572  5.71  0.  0.  0.
573  5.72  0.  0.  0.
574  5.73  0.  0.  0.
575  5.74  0.  0.  0.
576  5.75  0.  0.  0.
577  5.76  0.  0.  0.
578  5.77  0.  0.  0.
579  5.78  0.  0.  0.
580  5.79  0.  0.  0.
581  5.80  0.  0.  0.
582  5.81  0.  0.  0.
583  5.82  0.  0.  0.
584  5.83  0.  0.  0.
585  5.84  0.  0.  0.
586  5.85  0.  0.  0.
587  5.86  0.  0.  0.
588  5.87  0.  0.  0.
589  5.88  0.  0.  0.
590  5.89  0.  0.  0.
591  5.90  0.  0.  0.
592  5.91  0.  0.  0.
593  5.92  0.  0.  0.
594  5.93  0.  0.  0.
595  5.94  0.  0.  0.
596  5.95  0.  0.  0.
597  5.96  0.  0.  0.
598  5.97  0.  0.  0.
599  5.98  0.  0.  0.
600  5.99  0.  0.  0.
1                         1.0668508687233E+01 -5.1471773563528E-01
1  0.0000000000000E+00 -5.6259372716028E-09 -5.1714888094079E-08
2  1.0000000000000E-02  4.0683913586292E-03  9.3192969937138E-04
3  2.0000000000000E-02  1.6242533596450E-02  3.7338382354657E-03
4  3.0000000000000E-02  3.6429444278222E-02  8.4233052788306E-03
5  4.0000000000000E-02  6.4474534344630E-02  1.5027072020346E-02
6  5.0000000000000E-02  1.0016219693574E-01  2.3577332555584E-02
7  6.0000000000000E-02  1.4321666349317E-01  3.4106794068453E-02
8  7.0000000000000E-02  1.9330315682783E-01  4.6642745886896E-02
9  8.0000000000000E-02  2.5002937646589E-01  6.1200429198307E-02
10  9.0000000000000E-02  3.1294735522487E-01  7.7776039145539E-02
11  1.0000000000000E-01  3.8155572734739E-01  9.6339717491277E-02
12  1.1000000000000E-01  4.5530244744588E-01  1.1682890586386E-01
13  1.2000000000000E-01  5.3358799589870E-01  1.3914242615731E-01
14  1.3000000000000E-01  6.1576910019977E-01  1.6313563591040E-01
15  1.4000000000000E-01  7.0116299321663E-01  1.8861697297550E-01
16  1.5000000000000E-01  7.8905221857300E-01  2.1534615662001E-01
17  1.6000000000000E-01  8.7868998075096E-01  2.4303425302215E-01
18  1.7000000000000E-01  9.6930602339833E-01  2.7134574404931E-01
19  1.8000000000000E-01  1.0601130041919E+00  2.9990266175560E-01
20  1.9000000000000E-01  1.1503133189634E+00  3.2829077003545E-01
21  2.0000000000000E-01  1.2391063121929E+00  3.5606769235744E-01
22  2.1000000000000E-01  1.3256957959873E+00  3.8277280360906E-01
23  2.2000000000000E-01  1.4092977858398E+00  4.0793862792581E-01
24  2.3000000000000E-01  1.4891483493645E+00  4.3110341593653E-01
25  2.4000000000000E-01  1.5645114542906E+00  4.5182451686967E-01
26  2.5000000000000E-01  1.6346866947278E+00  4.6969211581631E-01
27  2.6000000000000E-01  1.6990167704089E+00  4.8434287608135E-01
28  2.7000000000000E-01  1.7568945925442E+00  4.9547301239700E-01
29  2.8000000000000E-01  1.8077698922164E+00  5.0285032366867E-01
30  2.9000000000000E-01  1.8511552129528E+00  5.0632473409972E-01
31  3.0000000000000E-01  1.8866311781453E+00  5.0583692858996E-01
32  3.1000000000000E-01  1.9138509361505E+00  5.0142472118947E-01
33  3.2000000000000E-01  1.9325437009014E+00  4.9322686247723E-01
34  3.3000000000000E-01  1.9425173232816E+00  4.8148407084451E-01
35  3.4000000000000E-01  1.9436598478724E+00  4.6653716113707E-01
36  3.5000000000000E-01  1.9359400304194E+00  4.4882223891093E-01
37  3.6000000000000E-01  1.9194068128669E+00  4.2886302636536E-01
38  3.7000000000000E-01  1.8941877744329E+00  4.0726048335804E-01
39  3.8000000000000E-01  1.8604865982968E+00  3.8467998027166E-01
40  3.9000000000000E-01  1.8185796134003E+00  3.6183636547230E-01
41  4.0000000000000E-01  1.7688114890368E+00  3.3947734548455E-01
42  4.1000000000000E-01  1.7115901757638E+00  3.1836565795465E-01
43  4.2000000000000E-01  1.6473811992699E+00  2.9926056357986E-01
44  4.3000000000000E-01  1.5767014237840E+00  2.8289921159739E-01
45  4.4000000000000E-01  1.5001124081718E+00  2.6997844291658E-01
46  4.5000000000000E-01  1.4182134808806E+00  2.6113758498697E-01
47  4.6000000000000E-01  1.3316346593468E+00  2.5694276317491E-01
48  4.7000000000000E-01  1.2410295354737E+00  2.5787320562682E-01
49  4.8000000000000E-01  1.1470682415525E+00  2.6430995387905E-01
50  4.9000000000000E-01  1.0504306008610E+00  2.7652731201326E-01
51  5.0000000000000E-01  9.5179955458094E-01  2.9468727570594E-01
52  5.1000000000000E-01  8.5185494214037E-01  3.1883708230084E-01
53  5.2000000000000E-01  7.5126769619517E-01  3.4890991762403E-01
54  5.3000000000000E-01  6.5069449684218E-01  3.8472870846878E-01
55  5.4000000000000E-01  5.5077291294774E-01  4.2601282539735E-01
56  5.5000000000000E-01  4.5211704231474E-01  4.7238742257895E-01
57  5.6000000000000E-01  3.5531364740495E-01  5.2339505344349E-01
58  5.7000000000000E-01  2.6091877002929E-01  5.7850912628215E-01
59  5.8000000000000E-01  1.6945479728923E-01  6.3714870539132E-01
60  5.9000000000000E-01  8.1407942473376E-02  6.9869412319030E-01
61  6.0000000000000E-01 -2.7739011508805E-03  7.6250284851635E-01
62  6.1000000000000E-01 -8.2682978518073E-02  8.2792505684792E-01
63  6.2000000000000E-01 -1.5795320762174E-01  8.9431836958212E-01
64  6.3000000000000E-01 -2.2826147273440E-01  9.6106127095020E-01
65  6.4000000000000E-01 -2.9332871204717E-01  1.0275647711849E+00
66  6.5000000000000E-01 -3.5292082790301E-01  1.0932819609092E+00
67  6.6000000000000E-01 -4.0684943812224E-01  1.1577151915126E+00
68  6.7000000000000E-01 -4.5497247599866E-01  1.2204207160811E+00
69  6.8000000000000E-01 -4.9719463498570E-01  1.2810107313924E+00
70  6.9000000000000E-01 -5.3346764254129E-01  1.3391528694576E+00
71  7.0000000000000E-01 -5.6379033671401E-01  1.3945672928203E+00
72  7.1000000000000E-01 -5.8820850946896E-01  1.4470216471176E+00
73  7.2000000000000E-01 -6.0681447306664E-01  1.4963242132571E+00
74  7.3000000000000E-01 -6.1974630054220E-01  1.5423156763311E+00
75  7.4000000000000E-01 -6.2718668891651E-01  1.5848599859599E+00
76  7.5000000000000E-01 -6.2936139451608E-01  1.6238348206246E+00
77  7.6000000000000E-01 -6.2653719386733E-01  1.6591221849973E+00
78  7.7000000000000E-01 -6.1901933110008E-01  1.6905996633673E+00
79  7.8000000000000E-01 -6.0714842353490E-01  1.7181328239630E+00
80  7.9000000000000E-01 -5.9129681087647E-01  1.7415692191214E+00
81  8.0000000000000E-01 -5.7186434979113E-01  1.7607343565681E+00
82  8.1000000000000E-01 -5.4927367407146E-01  1.7754299300801E+00
83  8.2000000000000E-01 -5.2396496043670E-01  1.7854344967761E+00
84  8.3000000000000E-01 -4.9639026054127E-01  1.7905066771112E+00
85  8.4000000000000E-01 -4.6700748015286E-01  1.7903908367229E+00
86  8.5000000000000E-01 -4.3627410586764E-01  1.7848250913151E+00
87  8.6000000000000E-01 -4.0464079729530E-01  1.7735513616536E+00
88  8.7000000000000E-01 -3.7254497753506E-01  1.7563271003689E+00
89  8.8000000000000E-01 -3.4040456619690E-01  1.7329382203171E+00
90  8.9000000000000E-01 -3.0861200650114E-01  1.7032126800792E+00
91  9.0000000000000E-01 -2.7752874052921E-01  1.6670341296351E+00
92  9.1000000000000E-01 -2.4748028404479E-01  1.6243549915028E+00
93  9.2000000000000E-01 -2.1875204415577E-01  1.5752083521340E+00
94  9.3000000000000E-01 -1.9158600930638E-01  1.5197180666805E+00
95  9.4000000000000E-01 -1.6617842171053E-01  1.4581065380592E+00
96  9.5000000000000E-01 -1.4267851757168E-01  1.3906997183020E+00
97  9.6000000000000E-01 -1.2118839065118E-01  1.3179289953183E+00
98  9.7000000000000E-01 -1.0176400049263E-01  1.2403297693406E+00
99  9.8000000000000E-01 -8.4417308544848E-02  1.1585366876602E+00
100  9.9000000000000E-01 -6.9119484379026E-02  1.0732756900986E+00
101  1.0000000000000E+00 -5.5805081016466E-02  9.8535321704350E-01
102  1.0100000000000E+00 -4.4377034080964E-02  8.9564314200581E-01
103  1.0200000000000E+00 -3.4712295051033E-02  8.0507220668632E-01
104  1.0300000000000E+00 -2.6667865321976E-02  7.1460495345248E-01
105  1.0400000000000E+00 -2.0086956062756E-02  6.2522936301828E-01
106  1.0500000000000E+00 -1.4804959964380E-02  5.3794460883140E-01
107  1.0600000000000E+00 -1.0654885685775E-02  4.5375253015328E-01
108  1.0700000000000E+00 -7.4718748816349E-03  3.7365459890486E-01
109  1.0800000000000E+00 -5.0963843457556E-03  2.9865635022440E-01
110  1.0900000000000E+00 -3.3756956704764E-03  2.2978099432446E-01
111  1.1000000000000E+00 -2.1662654523959E-03  1.6808334627629E-01
112  1.1100000000000E+00 -1.3707022974188E-03  1.1452706069867E-01
113  1.1200000000000E+00 -8.4691705997119E-04  7.0262287714650E-02
114  1.1300000000000E+00 -4.7599630494984E-04  3.6285877712736E-02
115  1.1400000000000E+00 -2.0135206125637E-04  1.3280997488453E-02
116  1.1500000000000E+00 -3.0057814897737E-05  1.6500187078209E-03
117  1.1600000000000E+00  1.8377089378723E-06 -8.9134769951084E-05
118  1.1700000000000E+00  5.0467873421363E-08 -2.8502108455853E-06
119  1.18 -0.  0.
120  1.19  0.  0.
121  1.20  0.  0.
122  1.21  0.  0.
123  1.22  0.  0.
124  1.23  0.  0.
125  1.24  0.  0.
126  1.25  0.  0.
127  1.26  0.  0.
128  1.27  0.  0.
129  1.28  0.  0.
130  1.29  0.  0.
131  1.30  0.  0.
132  1.31  0.  0.
133  1.32  0.  0.
134  1.33  0.  0.
135  1.34  0.  0.
136  1.35  0.  0.
137  1.36  0.  0.
138  1.37  0.  0.
139  1.38  0.  0.
140  1.39  0.  0.
141  1.40  0.  0.
142  1.41  0.  0.
143  1.42  0.  0.
144  1.43  0.  0.
145  1.44  0.  0.
146  1.45  0.  0.
147  1.46  0.  0.
148  1.47  0.  0.
149  1.48  0.  0.
150  1.49  0.  0.
151  1.50  0.  0.
152  1.51  0.  0.
153  1.52  0.  0.
154  1.53  0.  0.
155  1.54  0.  0.
156  1.55  0.  0.
157  1.56  0.  0.
158  1.57  0.  0.
159  1.58  0.  0.
160  1.59  0.  0.
161  1.60  0.  0.
162  1.61  0.  0.
163  1.62  0.  0.
164  1.63  0.  0.
165  1.64  0.  0.