Am    ONCVPSP-4.0.1  r_core=   1.10131   1.10131   1.10131   1.10131
95.0000     35.0000      230612    zatom,zion,pspd
8      11   3     4   600     0    pspcod,pspxc,lmax,lloc,mmax,r2well
5.99000000  3.50000000  0.00000000    rchrg fchrg qchrg
3     2     2     2     0    nproj
1     1           extension_switch
0                         5.1164458486532E+01  4.9339556672562E+00 -1.2391202568489E+00
1  0.0000000000000E+00 -2.5122021996005E-07  7.2039471910035E-07  4.0458831396251E-08
2  1.0000000000000E-02  1.8553756259146E-01 -1.1124789848663E-01  1.9812418504168E-02
3  2.0000000000000E-02  3.6916166793712E-01 -2.1908090301319E-01  3.9625647506430E-02
4  3.0000000000000E-02  5.4900368982319E-01 -3.2020119623728E-01  5.9435379190952E-02
5  4.0000000000000E-02  7.2328299956015E-01 -4.1154038798448E-01  7.9227338846645E-02
6  5.0000000000000E-02  8.9034687358988E-01 -4.9036261490282E-01  9.8972964556369E-02
7  6.0000000000000E-02  1.0487056852161E+00 -5.5435425818840E-01  1.1862585174777E-01
8  7.0000000000000E-02  1.1970621220451E+00 -6.0169671772369E-01  1.3811916736473E-01
9  8.0000000000000E-02  1.3343334219443E+00 -6.3111940136458E-01  1.5736419795978E-01
10  9.0000000000000E-02  1.4596659133338E+00 -6.4193092846599E-01  1.7625014852071E-01
11  1.0000000000000E-01  1.5724414677618E+00 -6.3402747081903E-01  1.9464525620851E-01
12  1.1000000000000E-01  1.6722758100717E+00 -6.0787812214546E-01  2.1239922747857E-01
13  1.2000000000000E-01  1.7590089694724E+00 -5.6448815745485E-01  2.2934695048946E-01
14  1.3000000000000E-01  1.8326884789049E+00 -5.0534197410801E-01  2.4531337951277E-01
15  1.4000000000000E-01  1.8935462262748E+00 -4.3232835730804E-01  2.6011943643334E-01
16  1.5000000000000E-01  1.9419701166558E+00 -3.4765144733726E-01  2.7358872842136E-01
17  1.6000000000000E-01  1.9784719084742E+00 -2.5373137264538E-01  2.8555484230062E-01
18  1.7000000000000E-01  2.0036527302489E+00 -1.5309892672149E-01  2.9586894657173E-01
19  1.8000000000000E-01  2.0181678615739E+00 -4.8288889919607E-02  3.0440741267144E-01
20  1.9000000000000E-01  2.0226923695177E+00  5.8263379298400E-02  3.1107915865257E-01
21  2.0000000000000E-01  2.0178891292810E+00  1.6431763660025E-01  3.1583242142860E-01
22  2.1000000000000E-01  2.0043806287211E+00  2.6791265038239E-01  3.1866067796829E-01
23  2.2000000000000E-01  1.9827257659882E+00  3.6743477584825E-01  3.1960746084493E-01
24  2.3000000000000E-01  1.9534026065131E+00  4.6166837216186E-01  3.1876984841805E-01
25  2.4000000000000E-01  1.9167977807040E+00  5.4982605034884E-01  3.1630045335010E-01
26  2.5000000000000E-01  1.8732028895436E+00  6.3155764539766E-01  3.1240778350813E-01
27  2.6000000000000E-01  1.8228179557189E+00  7.0693775787929E-01  3.0735490467857E-01
28  2.7000000000000E-01  1.7657616275105E+00  7.7643266673922E-01  3.0145639285129E-01
29  2.8000000000000E-01  1.7020875260184E+00  8.4084833393405E-01  2.9507362292005E-01
30  2.9000000000000E-01  1.6318058373977E+00  9.0126206314220E-01  2.8860849829342E-01
31  3.0000000000000E-01  1.5549090034131E+00  9.5894110209734E-01  2.8249577996726E-01
32  3.1000000000000E-01  1.4714001667951E+00  1.0152520594462E+00  2.7719422208551E-01
33  3.2000000000000E-01  1.3813228913590E+00  1.0715654169890E+00  2.7317676213381E-01
34  3.3000000000000E-01  1.2847906067411E+00  1.1291596388843E+00  2.7092004619477E-01
35  3.4000000000000E-01  1.1820142271082E+00  1.1891294012262E+00  2.7089359200929E-01
36  3.5000000000000E-01  1.0733264624635E+00  1.2523022874460E+00  2.7354890419051E-01
37  3.6000000000000E-01  9.5920147728146E-01  1.3191679250351E+00  2.7930885649521E-01
38  3.7000000000000E-01  8.4026874829229E-01  1.3898229933622E+00  2.8855764566438E-01
39  3.8000000000000E-01  7.1732022278249E-01  1.4639348347290E+00  3.0163160050532E-01
40  3.9000000000000E-01  5.9131016990867E-01  1.5407255818254E+00  3.1881109950394E-01
41  4.0000000000000E-01  4.6334743757329E-01  1.6189778101909E+00  3.4031381157563E-01
42  4.1000000000000E-01  3.3468016239950E-01  1.6970617737503E+00  3.6628942913763E-01
43  4.2000000000000E-01  2.0667331565724E-01  1.7729833264490E+00  3.9681601229933E-01
44  4.3000000000000E-01  8.0779788956393E-02  1.8444507152142E+00  4.3189800956644E-01
45  4.4000000000000E-01 -4.1493983874293E-02  1.9089575888887E+00  4.7146596606970E-01
46  4.5000000000000E-01 -1.5862662088313E-01  1.9638788410812E+00  5.1537787699334E-01
47  4.6000000000000E-01 -2.6912315497065E-01  2.0065753235970E+00  5.6342209354674E-01
48  4.7000000000000E-01 -3.7155758028306E-01  2.0345030564502E+00  6.1532164329757E-01
49  4.8000000000000E-01 -4.6461492514448E-01  2.0453223380821E+00  6.7073978754603E-01
50  4.9000000000000E-01 -5.4713119330764E-01  2.0370021347429E+00  7.2928660696831E-01
51  5.0000000000000E-01 -6.1812958410689E-01  2.0079153017469E+00  7.9052638396115E-01
52  5.1000000000000E-01 -6.7685153807772E-01  1.9569205536269E+00  8.5398553659467E-01
53  5.2000000000000E-01 -7.2278135184561E-01  1.8834276388076E+00  9.1916085505600E-01
54  5.3000000000000E-01 -7.5566335604909E-01  1.7874428635622E+00  9.8552779679696E-01
55  5.4000000000000E-01 -7.7551094192472E-01  1.6695929194471E+00  1.0525486107693E+00
56  5.5000000000000E-01 -7.8260704335561E-01  1.5311258627549E+00  1.1196800832882E+00
57  5.6000000000000E-01 -7.7749601785853E-01  1.3738890349024E+00  1.1863807270580E+00
58  5.7000000000000E-01 -7.6096720774462E-01  1.2002846583694E+00  1.2521172693237E+00
59  5.8000000000000E-01 -7.3403078716841E-01  1.0132047531774E+00  1.3163703334033E+00
60  5.9000000000000E-01 -6.9788679827423E-01  8.1594785507267E-01  1.3786392483111E+00
61  6.0000000000000E-01 -6.5388853774452E-01  6.1212074324729E-01  1.4384459620629E+00
62  6.1000000000000E-01 -6.0350166314173E-01  4.0552897233741E-01  1.4953380738506E+00
63  6.2000000000000E-01 -5.4826053819867E-01  2.0006042673940E-01  1.5488910369765E+00
64  6.3000000000000E-01 -4.8972342194047E-01 -4.3364152886616E-04  1.5987096167894E+00
65  6.4000000000000E-01 -4.2942812538583E-01 -1.9225557549658E-01  1.6444287146428E+00
66  6.5000000000000E-01 -3.6884971168871E-01 -3.7197189437331E-01  1.6857136891147E+00
67  6.6000000000000E-01 -3.0936170398138E-01 -5.3651342527497E-01  1.7222603187326E+00
68  6.7000000000000E-01 -2.5220209566197E-01 -6.8326139613902E-01  1.7537945558656E+00
69  6.8000000000000E-01 -1.9844523869475E-01 -8.1011652009100E-01  1.7800722192579E+00
70  6.9000000000000E-01 -1.4898042695277E-01 -9.1554883349846E-01  1.8008787631605E+00
71  7.0000000000000E-01 -1.0449770564676E-01 -9.9862686066720E-01  1.8160292447708E+00
72  7.1000000000000E-01 -6.5481137291724E-02 -1.0590255313446E+00  1.8253685895499E+00
73  7.2000000000000E-01 -3.2209452808359E-02 -1.0970131351195E+00  1.8287722270472E+00
74  7.3000000000000E-01 -4.7637262889443E-03 -1.1134184224176E+00  1.8261471393694E+00
75  7.4000000000000E-01  1.6958554012584E-02 -1.1095797200524E+00  1.8174333317611E+00
76  7.5000000000000E-01  3.3223876831311E-02 -1.0872785889487E+00  1.8026057013667E+00
77  7.6000000000000E-01  4.4438606342627E-02 -1.0486610866383E+00  1.7816762475397E+00
78  7.7000000000000E-01  5.1121568814348E-02 -9.9615008742592E-01  1.7546965364625E+00
79  7.8000000000000E-01  5.3874588659142E-02 -9.3235234586006E-01  1.7217603056037E+00
80  7.9000000000000E-01  5.3352258197371E-02 -8.5996405887563E-01  1.6830060708001E+00
81  8.0000000000000E-01  5.0232192267554E-02 -7.8167859077055E-01  1.6386195814401E+00
82  8.1000000000000E-01  4.5186932877529E-02 -7.0009978248388E-01  1.5888359580566E+00
83  8.2000000000000E-01  3.8858536205956E-02 -6.1766388851566E-01  1.5339413420818E+00
84  8.3000000000000E-01  3.1836702306076E-02 -5.3657269312702E-01  1.4742738898057E+00
85  8.4000000000000E-01  2.4641106268224E-02 -4.5873977856845E-01  1.4102239516942E+00
86  8.5000000000000E-01  1.7708368897391E-02 -3.8575128158042E-01  1.3422332939270E+00
87  8.6000000000000E-01  1.1383876221207E-02 -3.1884181148028E-01  1.2707932408514E+00
88  8.7000000000000E-01  5.9184314025014E-03 -2.5888554502335E-01  1.1964416444061E+00
89  8.8000000000000E-01  1.4695103378808E-03 -2.0640188958452E-01  1.1197586186754E+00
90  8.9000000000000E-01 -1.8932972822717E-03 -1.6157454370386E-01  1.0413610137405E+00
91  9.0000000000000E-01 -4.1792386447130E-03 -1.2428230496409E-01  9.6189564198509E-01
92  9.1000000000000E-01 -5.4644400490234E-03 -9.4139596354030E-02  8.8203131105676E-01
93  9.2000000000000E-01 -5.8778233281764E-03 -7.0544414270413E-02  8.0244975989195E-01
94  9.3000000000000E-01 -5.5857209197556E-03 -5.2731247829759E-02  7.2383563674583E-01
95  9.4000000000000E-01 -4.7760163639951E-03 -3.9826476939716E-02  6.4686570028462E-01
96  9.5000000000000E-01 -3.6426036478248E-03 -3.0903815419305E-02  5.7219746588615E-01
97  9.6000000000000E-01 -2.3708959037366E-03 -2.5037508832112E-02  5.0045755887515E-01
98  9.7000000000000E-01 -1.1250296794293E-03 -2.1351202267311E-02  4.3223007415291E-01
99  9.8000000000000E-01 -3.7315081029886E-05 -1.9060634185115E-02  3.6804527740076E-01
100  9.9000000000000E-01  7.9961436526650E-04 -1.7508558015683E-02  3.0836901668787E-01
101  1.0000000000000E+00  1.3375836344040E-03 -1.6190511089403E-02  2.5359324503358E-01
102  1.0100000000000E+00  1.5742834891284E-03 -1.4770206869130E-02  2.0402808445349E-01
103  1.0200000000000E+00  1.5510238290627E-03 -1.3083388665633E-02  1.5989589060201E-01
104  1.0300000000000E+00  1.3465914355582E-03 -1.1129067288156E-02  1.2132782128400E-01
105  1.0400000000000E+00  1.0664478541516E-03 -9.0456707970093E-03  8.8363303157327E-02
106  1.0500000000000E+00  7.8586194218792E-04 -6.9639029370094E-03  6.0940979831959E-02
107  1.0600000000000E+00  2.9302209951992E-04 -4.3316526907497E-03  3.8835507335503E-02
108  1.0700000000000E+00 -1.5058436807786E-04 -1.8872140315305E-03  2.1900951156059E-02
109  1.0800000000000E+00 -3.1828655975608E-04 -3.3133662727592E-04  9.9524250848764E-03
110  1.0900000000000E+00 -1.9047339556669E-04  1.4377129372662E-04  2.7423866033291E-03
111  1.1000000000000E+00 -8.9759591636219E-06  1.3373042497674E-05  7.1778346708744E-05
112  1.1100000000000E+00 -1.4142573656025E-06  1.9651408297073E-06  1.2364183097321E-05
113  1.1200000000000E+00  1.1819016870874E-07 -1.3776531886229E-07 -1.2688843125903E-06
114  1.13  0.  0.  0.
115  1.14  0.  0.  0.
116  1.15  0.  0.  0.
117  1.16  0.  0.  0.
118  1.17  0.  0.  0.
119  1.18  0.  0.  0.
120  1.19  0.  0.  0.
121  1.20  0.  0.  0.
122  1.21  0.  0.  0.
123  1.22  0.  0.  0.
124  1.23  0.  0.  0.
125  1.24  0.  0.  0.
126  1.25  0.  0.  0.
127  1.26  0.  0.  0.
128  1.27  0.  0.  0.
129  1.28  0.  0.  0.
130  1.29  0.  0.  0.
131  1.30  0.  0.  0.
132  1.31  0.  0.  0.
133  1.32  0.  0.  0.
134  1.33  0.  0.  0.
135  1.34  0.  0.  0.
136  1.35  0.  0.  0.
137  1.36  0.  0.  0.
138  1.37  0.  0.  0.
139  1.38  0.  0.  0.
140  1.39  0.  0.  0.
141  1.40  0.  0.  0.
142  1.41  0.  0.  0.
143  1.42  0.  0.  0.
144  1.43  0.  0.  0.
145  1.44  0.  0.  0.
146  1.45  0.  0.  0.
147  1.46  0.  0.  0.
148  1.47  0.  0.  0.
149  1.48  0.  0.  0.
150  1.49  0.  0.  0.
151  1.50  0.  0.  0.
152  1.51  0.  0.  0.
153  1.52  0.  0.  0.
154  1.53  0.  0.  0.
155  1.54  0.  0.  0.
156  1.55  0.  0.  0.
157  1.56  0.  0.  0.
158  1.57  0.  0.  0.
159  1.58  0.  0.  0.
160  1.59  0.  0.  0.
161  1.60  0.  0.  0.
162  1.61  0.  0.  0.
163  1.62  0.  0.  0.
164  1.63  0.  0.  0.
165  1.64  0.  0.  0.
166  1.65  0.  0.  0.
167  1.66  0.  0.  0.
168  1.67  0.  0.  0.
169  1.68  0.  0.  0.
170  1.69  0.  0.  0.
171  1.70  0.  0.  0.
172  1.71  0.  0.  0.
173  1.72  0.  0.  0.
174  1.73  0.  0.  0.
175  1.74  0.  0.  0.
176  1.75  0.  0.  0.
177  1.76  0.  0.  0.
178  1.77  0.  0.  0.
179  1.78  0.  0.  0.
180  1.79  0.  0.  0.
181  1.80  0.  0.  0.
182  1.81  0.  0.  0.
183  1.82  0.  0.  0.
184  1.83  0.  0.  0.
185  1.84  0.  0.  0.
186  1.85  0.  0.  0.
187  1.86  0.  0.  0.
188  1.87  0.  0.  0.
189  1.88  0.  0.  0.
190  1.89  0.  0.  0.
191  1.90  0.  0.  0.
192  1.91  0.  0.  0.
193  1.92  0.  0.  0.
194  1.93  0.  0.  0.
195  1.94  0.  0.  0.
196  1.95  0.  0.  0.
197  1.96  0.  0.  0.
198  1.97  0.  0.  0.
199  1.98  0.  0.  0.
200  1.99  0.  0.  0.
201  2.00  0.  0.  0.
202  2.01  0.  0.  0.
203  2.02  0.  0.  0.
204  2.03  0.  0.  0.
205  2.04  0.  0.  0.
206  2.05  0.  0.  0.
207  2.06  0.  0.  0.
208  2.07  0.  0.  0.
209  2.08  0.  0.  0.
210  2.09  0.  0.  0.
211  2.10  0.  0.  0.
212  2.11  0.  0.  0.
213  2.12  0.  0.  0.
214  2.13  0.  0.  0.
215  2.14  0.  0.  0.
216  2.15  0.  0.  0.
217  2.16  0.  0.  0.
218  2.17  0.  0.  0.
219  2.18  0.  0.  0.
220  2.19  0.  0.  0.
221  2.20  0.  0.  0.
222  2.21  0.  0.  0.
223  2.22  0.  0.  0.
224  2.23  0.  0.  0.
225  2.24  0.  0.  0.
226  2.25  0.  0.  0.
227  2.26  0.  0.  0.
228  2.27  0.  0.  0.
229  2.28  0.  0.  0.
230  2.29  0.  0.  0.
231  2.30  0.  0.  0.
232  2.31  0.  0.  0.
233  2.32  0.  0.  0.
234  2.33  0.  0.  0.
235  2.34  0.  0.  0.
236  2.35  0.  0.  0.
237  2.36  0.  0.  0.
238  2.37  0.  0.  0.
239  2.38  0.  0.  0.
240  2.39  0.  0.  0.
241  2.40  0.  0.  0.
242  2.41  0.  0.  0.
243  2.42  0.  0.  0.
244  2.43  0.  0.  0.
245  2.44  0.  0.  0.
246  2.45  0.  0.  0.
247  2.46  0.  0.  0.
248  2.47  0.  0.  0.
249  2.48  0.  0.  0.
250  2.49  0.  0.  0.
251  2.50  0.  0.  0.
252  2.51  0.  0.  0.
253  2.52  0.  0.  0.
254  2.53  0.  0.  0.
255  2.54  0.  0.  0.
256  2.55  0.  0.  0.
257  2.56  0.  0.  0.
258  2.57  0.  0.  0.
259  2.58  0.  0.  0.
260  2.59  0.  0.  0.
261  2.60  0.  0.  0.
262  2.61  0.  0.  0.
263  2.62  0.  0.  0.
264  2.63  0.  0.  0.
265  2.64  0.  0.  0.
266  2.65  0.  0.  0.
267  2.66  0.  0.  0.
268  2.67  0.  0.  0.
269  2.68  0.  0.  0.
270  2.69  0.  0.  0.
271  2.70  0.  0.  0.
272  2.71  0.  0.  0.
273  2.72  0.  0.  0.
274  2.73  0.  0.  0.
275  2.74  0.  0.  0.
276  2.75  0.  0.  0.
277  2.76  0.  0.  0.
278  2.77  0.  0.  0.
279  2.78  0.  0.  0.
280  2.79  0.  0.  0.
281  2.80  0.  0.  0.
282  2.81  0.  0.  0.
283  2.82  0.  0.  0.
284  2.83  0.  0.  0.
285  2.84  0.  0.  0.
286  2.85  0.  0.  0.
287  2.86  0.  0.  0.
288  2.87  0.  0.  0.
289  2.88  0.  0.  0.
290  2.89  0.  0.  0.
291  2.90  0.  0.  0.
292  2.91  0.  0.  0.
293  2.92  0.  0.  0.
294  2.93  0.  0.  0.
295  2.94  0.  0.  0.
296  2.95  0.  0.  0.
297  2.96  0.  0.  0.
298  2.97  0.  0.  0.
299  2.98  0.  0.  0.
300  2.99  0.  0.  0.
301  3.00  0.  0.  0.
302  3.01  0.  0.  0.
303  3.02  0.  0.  0.
304  3.03  0.  0.  0.
305  3.04  0.  0.  0.
306  3.05  0.  0.  0.
307  3.06  0.  0.  0.
308  3.07  0.  0.  0.
309  3.08  0.  0.  0.
310  3.09  0.  0.  0.
311  3.10  0.  0.  0.
312  3.11  0.  0.  0.
313  3.12  0.  0.  0.
314  3.13  0.  0.  0.
315  3.14  0.  0.  0.
316  3.15  0.  0.  0.
317  3.16  0.  0.  0.
318  3.17  0.  0.  0.
319  3.18  0.  0.  0.
320  3.19  0.  0.  0.
321  3.20  0.  0.  0.
322  3.21  0.  0.  0.
323  3.22  0.  0.  0.
324  3.23  0.  0.  0.
325  3.24  0.  0.  0.
326  3.25  0.  0.  0.
327  3.26  0.  0.  0.
328  3.27  0.  0.  0.
329  3.28  0.  0.  0.
330  3.29  0.  0.  0.
331  3.30  0.  0.  0.
332  3.31  0.  0.  0.
333  3.32  0.  0.  0.
334  3.33  0.  0.  0.
335  3.34  0.  0.  0.
336  3.35  0.  0.  0.
337  3.36  0.  0.  0.
338  3.37  0.  0.  0.
339  3.38  0.  0.  0.
340  3.39  0.  0.  0.
341  3.40  0.  0.  0.
342  3.41  0.  0.  0.
343  3.42  0.  0.  0.
344  3.43  0.  0.  0.
345  3.44  0.  0.  0.
346  3.45  0.  0.  0.
347  3.46  0.  0.  0.
348  3.47  0.  0.  0.
349  3.48  0.  0.  0.
350  3.49  0.  0.  0.
351  3.50  0.  0.  0.
352  3.51  0.  0.  0.
353  3.52  0.  0.  0.
354  3.53  0.  0.  0.
355  3.54  0.  0.  0.
356  3.55  0.  0.  0.
357  3.56  0.  0.  0.
358  3.57  0.  0.  0.
359  3.58  0.  0.  0.
360  3.59  0.  0.  0.
361  3.60  0.  0.  0.
362  3.61  0.  0.  0.
363  3.62  0.  0.  0.
364  3.63  0.  0.  0.
365  3.64  0.  0.  0.
366  3.65  0.  0.  0.
367  3.66  0.  0.  0.
368  3.67  0.  0.  0.
369  3.68  0.  0.  0.
370  3.69  0.  0.  0.
371  3.70  0.  0.  0.
372  3.71  0.  0.  0.
373  3.72  0.  0.  0.
374  3.73  0.  0.  0.
375  3.74  0.  0.  0.
376  3.75  0.  0.  0.
377  3.76  0.  0.  0.
378  3.77  0.  0.  0.
379  3.78  0.  0.  0.
380  3.79  0.  0.  0.
381  3.80  0.  0.  0.
382  3.81  0.  0.  0.
383  3.82  0.  0.  0.
384  3.83  0.  0.  0.
385  3.84  0.  0.  0.
386  3.85  0.  0.  0.
387  3.86  0.  0.  0.
388  3.87  0.  0.  0.
389  3.88  0.  0.  0.
390  3.89  0.  0.  0.
391  3.90  0.  0.  0.
392  3.91  0.  0.  0.
393  3.92  0.  0.  0.
394  3.93  0.  0.  0.
395  3.94  0.  0.  0.
396  3.95  0.  0.  0.
397  3.96  0.  0.  0.
398  3.97  0.  0.  0.
399  3.98  0.  0.  0.
400  3.99  0.  0.  0.
401  4.00  0.  0.  0.
402  4.01  0.  0.  0.
403  4.02  0.  0.  0.
404  4.03  0.  0.  0.
405  4.04  0.  0.  0.
406  4.05  0.  0.  0.
407  4.06  0.  0.  0.
408  4.07  0.  0.  0.
409  4.08  0.  0.  0.
410  4.09  0.  0.  0.
411  4.10  0.  0.  0.
412  4.11  0.  0.  0.
413  4.12  0.  0.  0.
414  4.13  0.  0.  0.
415  4.14  0.  0.  0.
416  4.15  0.  0.  0.
417  4.16  0.  0.  0.
418  4.17  0.  0.  0.
419  4.18  0.  0.  0.
420  4.19  0.  0.  0.
421  4.20  0.  0.  0.
422  4.21  0.  0.  0.
423  4.22  0.  0.  0.
424  4.23  0.  0.  0.
425  4.24  0.  0.  0.
426  4.25  0.  0.  0.
427  4.26  0.  0.  0.
428  4.27  0.  0.  0.
429  4.28  0.  0.  0.
430  4.29  0.  0.  0.
431  4.30  0.  0.  0.
432  4.31  0.  0.  0.
433  4.32  0.  0.  0.
434  4.33  0.  0.  0.
435  4.34  0.  0.  0.
436  4.35  0.  0.  0.
437  4.36  0.  0.  0.
438  4.37  0.  0.  0.
439  4.38  0.  0.  0.
440  4.39  0.  0.  0.
441  4.40  0.  0.  0.
442  4.41  0.  0.  0.
443  4.42  0.  0.  0.
444  4.43  0.  0.  0.
445  4.44  0.  0.  0.
446  4.45  0.  0.  0.
447  4.46  0.  0.  0.
448  4.47  0.  0.  0.
449  4.48  0.  0.  0.
450  4.49  0.  0.  0.
451  4.50  0.  0.  0.
452  4.51  0.  0.  0.
453  4.52  0.  0.  0.
454  4.53  0.  0.  0.
455  4.54  0.  0.  0.
456  4.55  0.  0.  0.
457  4.56  0.  0.  0.
458  4.57  0.  0.  0.
459  4.58  0.  0.  0.
460  4.59  0.  0.  0.
461  4.60  0.  0.  0.
462  4.61  0.  0.  0.
463  4.62  0.  0.  0.
464  4.63  0.  0.  0.
465  4.64  0.  0.  0.
466  4.65  0.  0.  0.
467  4.66  0.  0.  0.
468  4.67  0.  0.  0.
469  4.68  0.  0.  0.
470  4.69  0.  0.  0.
471  4.70  0.  0.  0.
472  4.71  0.  0.  0.
473  4.72  0.  0.  0.
474  4.73  0.  0.  0.
475  4.74  0.  0.  0.
476  4.75  0.  0.  0.
477  4.76  0.  0.  0.
478  4.77  0.  0.  0.
479  4.78  0.  0.  0.
480  4.79  0.  0.  0.
481  4.80  0.  0.  0.
482  4.81  0.  0.  0.
483  4.82  0.  0.  0.
484  4.83  0.  0.  0.
485  4.84  0.  0.  0.
486  4.85  0.  0.  0.
487  4.86  0.  0.  0.
488  4.87  0.  0.  0.
489  4.88  0.  0.  0.
490  4.89  0.  0.  0.
491  4.90  0.  0.  0.
492  4.91  0.  0.  0.
493  4.92  0.  0.  0.
494  4.93  0.  0.  0.
495  4.94  0.  0.  0.
496  4.95  0.  0.  0.
497  4.96  0.  0.  0.
498  4.97  0.  0.  0.
499  4.98  0.  0.  0.
500  4.99  0.  0.  0.
501  5.00  0.  0.  0.
502  5.01  0.  0.  0.
503  5.02  0.  0.  0.
504  5.03  0.  0.  0.
505  5.04  0.  0.  0.
506  5.05  0.  0.  0.
507  5.06  0.  0.  0.
508  5.07  0.  0.  0.
509  5.08  0.  0.  0.
510  5.09  0.  0.  0.
511  5.10  0.  0.  0.
512  5.11  0.  0.  0.
513  5.12  0.  0.  0.
514  5.13  0.  0.  0.
515  5.14  0.  0.  0.
516  5.15  0.  0.  0.
517  5.16  0.  0.  0.
518  5.17  0.  0.  0.
519  5.18  0.  0.  0.
520  5.19  0.  0.  0.
521  5.20  0.  0.  0.
522  5.21  0.  0.  0.
523  5.22  0.  0.  0.
524  5.23  0.  0.  0.
525  5.24  0.  0.  0.
526  5.25  0.  0.  0.
527  5.26  0.  0.  0.
528  5.27  0.  0.  0.
529  5.28  0.  0.  0.
530  5.29  0.  0.  0.
531  5.30  0.  0.  0.
532  5.31  0.  0.  0.
533  5.32  0.  0.  0.
534  5.33  0.  0.  0.
535  5.34  0.  0.  0.
536  5.35  0.  0.  0.
537  5.36  0.  0.  0.
538  5.37  0.  0.  0.
539  5.38  0.  0.  0.
540  5.39  0.  0.  0.
541  5.40  0.  0.  0.
542  5.41  0.  0.  0.
543  5.42  0.  0.  0.
544  5.43  0.  0.  0.
545  5.44  0.  0.  0.
546  5.45  0.  0.  0.
547  5.46  0.  0.  0.
548  5.47  0.  0.  0.
549  5.48  0.  0.  0.
550  5.49  0.  0.  0.
551  5.50  0.  0.  0.
552  5.51  0.  0.  0.
553  5.52  0.  0.  0.
554  5.53  0.  0.  0.
555  5.54  0.  0.  0.
556  5.55  0.  0.  0.
557  5.56  0.  0.  0.
558  5.57  0.  0.  0.
559  5.58  0.  0.  0.
560  5.59  0.  0.  0.
561  5.60  0.  0.  0.
562  5.61  0.  0.  0.
563  5.62  0.  0.  0.
564  5.63  0.  0.  0.
565  5.64  0.  0.  0.
566  5.65  0.  0.  0.
567  5.66  0.  0.  0.
568  5.67  0.  0.  0.
569  5.68  0.  0.  0.
570  5.69  0.  0.  0.
571  5.70  0.  0.  0.
572  5.71  0.  0.  0.
573  5.72  0.  0.  0.
574  5.73  0.  0.  0.
575  5.74  0.  0.  0.
576  5.75  0.  0.  0.
577  5.76  0.  0.  0.
578  5.77  0.  0.  0.
579  5.78  0.  0.  0.
580  5.79  0.  0.  0.
581  5.80  0.  0.  0.
582  5.81  0.  0.  0.
583  5.82  0.  0.  0.
584  5.83  0.  0.  0.
585  5.84  0.  0.  0.
586  5.85  0.  0.  0.
587  5.86  0.  0.  0.
588  5.87  0.  0.  0.
589  5.88  0.  0.  0.
590  5.89  0.  0.  0.
591  5.90  0.  0.  0.
592  5.91  0.  0.  0.
593  5.92  0.  0.  0.
594  5.93  0.  0.  0.
595  5.94  0.  0.  0.
596  5.95  0.  0.  0.
597  5.96  0.  0.  0.
598  5.97  0.  0.  0.
599  5.98  0.  0.  0.
600  5.99  0.  0.  0.
1                         1.3078182897675E+01 -7.1719290029051E-01
1  0.0000000000000E+00 -1.0222269031246E-08 -6.8258449018033E-08
2  1.0000000000000E-02  4.4520402298011E-03  8.3318597097739E-04
3  2.0000000000000E-02  1.7772483901546E-02  3.3409311515106E-03
4  3.0000000000000E-02  3.9854397355572E-02  7.5468160807207E-03
5  4.0000000000000E-02  7.0519891214940E-02  1.3486922213013E-02
6  5.0000000000000E-02  1.0952065059654E-01  2.1205180494137E-02
7  6.0000000000000E-02  1.5653873595573E-01  3.0747206739498E-02
8  7.0000000000000E-02  2.1118770920841E-01  4.2152952601152E-02
9  8.0000000000000E-02  2.7301414999694E-01  5.5448569168407E-02
10  9.0000000000000E-02  3.4149963346754E-01  7.0637930729796E-02
11  1.0000000000000E-01  4.1606324322254E-01  8.7694296557695E-02
12  1.1000000000000E-01  4.9606469089721E-01  1.0655259723060E-01
13  1.2000000000000E-01  5.8080810698394E-01  1.2710281836542E-01
14  1.3000000000000E-01  6.6954655618546E-01  1.4918491901928E-01
15  1.4000000000000E-01  7.6148731502358E-01  1.7258566569855E-01
16  1.5000000000000E-01  8.5579793015604E-01  1.9703768803263E-01
17  1.6000000000000E-01  9.5161305352622E-01  2.2222097169038E-01
18  1.7000000000000E-01  1.0480420259072E+00  2.4776690168604E-01
19  1.8000000000000E-01  1.1441771545329E+00  2.7326485903419E-01
20  1.9000000000000E-01  1.2391026043502E+00  2.9827126034392E-01
21  2.0000000000000E-01  1.3319037970279E+00  3.2232081815380E-01
22  2.1000000000000E-01  1.4216771882697E+00  3.4493969436817E-01
23  2.2000000000000E-01  1.5075402732108E+00  3.6566012462412E-01
24  2.3000000000000E-01  1.5886416526332E+00  3.8403601197679E-01
25  2.4000000000000E-01  1.6641709802274E+00  3.9965892754860E-01
26  2.5000000000000E-01  1.7333686037661E+00  4.1217391664172E-01
27  2.6000000000000E-01  1.7955347113095E+00  4.2129449330492E-01
28  2.7000000000000E-01  1.8500377976474E+00  4.2681621558413E-01
29  2.8000000000000E-01  1.8963222761378E+00  4.2862826777445E-01
30  2.9000000000000E-01  1.9339150767087E+00  4.2672253401994E-01
31  3.0000000000000E-01  1.9624310916271E+00  4.2119972767536E-01
32  3.1000000000000E-01  1.9815773560830E+00  4.1227224011833E-01
33  3.2000000000000E-01  1.9911558798680E+00  4.0026348752811E-01
34  3.3000000000000E-01  1.9910650784874E+00  3.8560366018193E-01
35  3.4000000000000E-01  1.9812997858516E+00  3.6882191120145E-01
36  3.5000000000000E-01  1.9619498650875E+00  3.5053515521386E-01
37  3.6000000000000E-01  1.9331974678106E+00  3.3143377676183E-01
38  3.7000000000000E-01  1.8953130242311E+00  3.1226466827596E-01
39  3.8000000000000E-01  1.8486500756248E+00  2.9381212309650E-01
40  3.9000000000000E-01  1.7936390859781E+00  2.7687719598503E-01
41  4.0000000000000E-01  1.7307803901689E+00  2.6225620808788E-01
42  4.1000000000000E-01  1.6606364511845E+00  2.5071911254385E-01
43  4.2000000000000E-01  1.5838236081527E+00  2.4298844899131E-01
44  4.3000000000000E-01  1.5010035001324E+00  2.3971959932717E-01
45  4.4000000000000E-01  1.4128743476762E+00  2.4148301351908E-01
46  4.5000000000000E-01  1.3201622653892E+00  2.4874900451636E-01
47  4.6000000000000E-01  1.2236127645377E+00  2.6187561786722E-01
48  4.7000000000000E-01  1.1239825858913E+00  2.8109996804127E-01
49  4.8000000000000E-01  1.0220319802908E+00  3.0653330404975E-01
50  4.9000000000000E-01  9.1851752893251E-01  3.3815992681853E-01
51  5.0000000000000E-01  8.1418556818121E-01  3.7583993545882E-01
52  5.1000000000000E-01  7.0976625605041E-01  4.1931563493246E-01
53  5.2000000000000E-01  6.0596829051488E-01  4.6822129949120E-01
54  5.3000000000000E-01  5.0347426470718E-01  5.2209586035043E-01
55  5.4000000000000E-01  4.0293662185458E-01  5.8039797756028E-01
56  5.5000000000000E-01  3.0497415446849E-01  6.4252286952778E-01
57  5.6000000000000E-01  2.1016897855247E-01  7.0782021282570E-01
58  5.7000000000000E-01  1.1906390498723E-01  7.7561239247824E-01
59  5.8000000000000E-01  3.2160127082272E-02  8.4521238037292E-01
60  5.9000000000000E-01 -5.0084854394909E-02  9.1594054711430E-01
61  6.0000000000000E-01 -1.2725913979811E-01  9.8713976955617E-01
62  6.1000000000000E-01 -1.9899823144815E-01  1.0581882802336E+00
63  6.2000000000000E-01 -2.6498676884043E-01  1.1285098126155E+00
64  6.3000000000000E-01 -3.2496022050832E-01  1.1975807231228E+00
65  6.4000000000000E-01 -3.7870653286075E-01  1.2649339119528E+00
66  6.5000000000000E-01 -4.2606771334854E-01  1.3301595139916E+00
67  6.6000000000000E-01 -4.6694130262225E-01  1.3929024821514E+00
68  6.7000000000000E-01 -5.0128166919888E-01  1.4528573318203E+00
69  6.8000000000000E-01 -5.2910104179221E-01  1.5097604503710E+00
70  6.9000000000000E-01 -5.5047018001773E-01  1.5633804938071E+00
71  7.0000000000000E-01 -5.6551857464770E-01  1.6135074882499E+00
72  7.1000000000000E-01 -5.7443406475150E-01  1.6599413225676E+00
73  7.2000000000000E-01 -5.7746176146283E-01  1.7024803565709E+00
74  7.3000000000000E-01 -5.7490217704608E-01  1.7409108746448E+00
75  7.4000000000000E-01 -5.6710847338170E-01  1.7749980865876E+00
76  7.5000000000000E-01 -5.5448276564179E-01  1.8044793163395E+00
77  7.6000000000000E-01 -5.3747144418459E-01  1.8290599271500E+00
78  7.7000000000000E-01 -5.1655950967634E-01  1.8484124118595E+00
79  7.8000000000000E-01 -4.9226395202672E-01  1.8621789339072E+00
80  7.9000000000000E-01 -4.6512624156159E-01  1.8699774440209E+00
81  8.0000000000000E-01 -4.3570403946712E-01  1.8714113257700E+00
82  8.1000000000000E-01 -4.0456227232143E-01  1.8660823473492E+00
83  8.2000000000000E-01 -3.7226375085863E-01  1.8536065245146E+00
84  8.3000000000000E-01 -3.3935954437846E-01  1.8336323379642E+00
85  8.4000000000000E-01 -3.0637934791211E-01  1.8058606048227E+00
86  8.5000000000000E-01 -2.7382209802642E-01  1.7700651849003E+00
87  8.6000000000000E-01 -2.4214710385219E-01  1.7261136138594E+00
88  8.7000000000000E-01 -2.1176596167961E-01  1.6739867020932E+00
89  8.8000000000000E-01 -1.8303551369979E-01  1.6137961235104E+00
90  8.9000000000000E-01 -1.5625209394424E-01  1.5457990446087E+00
91  9.0000000000000E-01 -1.3164727728817E-01  1.4704089118167E+00
92  9.1000000000000E-01 -1.0938531099702E-01  1.3882016231389E+00
93  9.2000000000000E-01 -8.9562363502991E-02  1.2999164562228E+00
94  9.3000000000000E-01 -7.2207673010111E-02  1.2064513052075E+00
95  9.4000000000000E-01 -5.7286620535266E-02  1.1088519879663E+00
96  9.5000000000000E-01 -4.4705689717427E-02  1.0082956173910E+00
97  9.6000000000000E-01 -3.4319210953635E-02  9.0606827813234E-01
98  9.7000000000000E-01 -2.5937722071570E-02  8.0353750597935E-01
99  9.8000000000000E-01 -1.9337713746195E-02  7.0212032294654E-01
100  9.9000000000000E-01 -1.4272467169899E-02  6.0324782903048E-01
101  1.0000000000000E+00 -1.0483635852144E-02  5.0832758407737E-01
102  1.0100000000000E+00 -7.7131745790749E-03  4.1870522292300E-01
103  1.0200000000000E+00 -5.7151779031681E-03  3.3562692783589E-01
104  1.0300000000000E+00 -4.2671479815016E-03  2.6020456157849E-01
105  1.0400000000000E+00 -3.1802815353853E-03  1.9338508333857E-01
106  1.0500000000000E+00 -2.3163843716545E-03  1.3590297069205E-01
107  1.0600000000000E+00 -1.6419400335235E-03  8.8120860610976E-02
108  1.0700000000000E+00 -1.0754927785755E-03  5.0479476690657E-02
109  1.0800000000000E+00 -5.8124812413173E-04  2.3254803342727E-02
110  1.0900000000000E+00 -1.9172374227361E-04  6.4801244507511E-03
111  1.1000000000000E+00 -6.0517591156684E-06  1.7110012021305E-04
112  1.1100000000000E+00 -1.0166422130193E-06  2.9482301446986E-05
113  1.1200000000000E+00  9.6950773589652E-08 -3.0128967328337E-06
114  1.13  0.  0.
115  1.14  0.  0.
116  1.15  0.  0.
117  1.16  0.  0.
118  1.17  0.  0.
119  1.18  0.  0.
120  1.19  0.  0.
121  1.20  0.  0.
122  1.21  0.  0.
123  1.22  0.  0.
124  1.23  0.  0.
125  1.24  0.  0.
126  1.25  0.  0.
127  1.26  0.  0.
128  1.27  0.  0.
129  1.28  0.  0.
130  1.29  0.  0.
131  1.30  0.  0.
132  1.31  0.  0.
133  1.32  0.  0.
134  1.33  0.  0.
135  1.34  0.  0.
136  1.35  0.  0.
137  1.36  0.  0.
138  1.37  0.  0.
139  1.38  0.  0.
140  1.39  0.  0.
141  1.40  0.  0.
142  1.41  0.  0.
143  1.42  0.  0.
144  1.43  0.  0.
145  1.44  0.  0.
146  1.45  0.  0.
147  1.46  0.  0.
148  1.47  0.  0.
149  1.48  0.  0.
150  1.49  0.  0.
151  1.50  0.  0.
152  1.51  0.  0.
153  1.52  0.  0.
154  1.53  0.  0.
155  1.54  0.  0.
156  1.55  0.  0.
157  1.56  0.  0.
158  1.57  0.  0.
159  1.58  0.  0.
160  1.59  0.  0.
161  1.60  0.  0.
162  1.61  0.  0.
163  1.62  0.  0.
164  1.63  0.  0.
165  1.64  0.  0.
166  1.65  0.  0.
167  1.66  0.  0.
168  1.67  0.  0.
169  1.68  0.  0.
170  1.69  0.  0.
171  1.70  0.  0.
172  1.71  0.  0.
173  1.72  0.  0.
174  1.73  0.  0.
175  1.74  0.  0.
176  1.75  0.  0.
177  1.76  0.  0.
178  1.77  0.  0.
179  1.78  0.  0.
180  1.79  0.  0.
181  1.80  0.  0.
182  1.81  0.  0.
183  1.82  0.  0.
184  1.83  0.  0.
185  1.84  0.  0.
186  1.85  0.  0.
187  1.86  0.  0.
188  1.87  0.  0.
189  1.88  0.  0.
190  1.89  0.  0.
191  1.90  0.  0.
192  1.91  0.  0.
193  1.92  0.  0.
194  1.93  0.  0.
195  1.94  0.  0.
196  1.95  0.  0.
197  1.96  0.  0.