Am    ONCVPSP-4.0.1  r_core=   1.20470   1.20470   1.35781   1.20470
95.0000     35.0000      220323    zatom,zion,pspd
8      11   3     4   600     0    pspcod,pspxc,lmax,lloc,mmax,r2well
5.99000000  5.00000000  0.00000000    rchrg fchrg qchrg
3     2     2     2     0    nproj
1     1           extension_switch
0                         2.4833150346352E+01  3.3339054687381E+00 -4.5141260814203E-01
1  0.0000000000000E+00 -4.5421458372275E-08  1.4192740371843E-07  9.7614351809994E-08
2  1.0000000000000E-02  1.4215992571040E-01 -5.7329972828904E-02  5.8880007169386E-03
3  2.0000000000000E-02  2.8338792571248E-01 -1.1328260580013E-01  1.2357246487838E-02
4  3.0000000000000E-02  4.2276527598629E-01 -1.6651551219735E-01  1.9966098593813E-02
5  4.0000000000000E-02  5.5939929236961E-01 -2.1575508942643E-01  2.9227942963405E-02
6  5.0000000000000E-02  6.9243545412006E-01 -2.5982814448335E-01  4.0590656402258E-02
7  6.0000000000000E-02  8.2106848620431E-01 -2.9769030681281E-01  5.4418343982170E-02
8  7.0000000000000E-02  9.4455210919915E-01 -3.2845033249847E-01  7.0975984726918E-02
9  8.0000000000000E-02  1.0622072111110E+00 -3.5138954565264E-01  9.0417525117920E-02
10  9.0000000000000E-02  1.1734282491065E+00 -3.6597583072382E-01  1.1277784418320E-01
11  1.0000000000000E-01  1.2776877492007E+00 -3.7187177733286E-01  1.3796888389228E-01
12  1.1000000000000E-01  1.3745388362413E+00 -3.6893678059995E-01  1.6578009859839E-01
13  1.2000000000000E-01  1.4636157927894E+00 -3.5722310768132E-01  1.9588323201907E-01
14  1.3000000000000E-01  1.5446327113761E+00 -3.3696614811182E-01  2.2784128457578E-01
15  1.4000000000000E-01  1.6173803677818E+00 -3.0856926429023E-01  2.6112139268761E-01
16  1.5000000000000E-01  1.6817215012052E+00 -2.7258384208314E-01  2.9511120954410E-01
17  1.6000000000000E-01  1.7375847383869E+00 -2.2968530360650E-01  3.2913825838206E-01
18  1.7000000000000E-01  1.7849574411385E+00 -1.8064597909216E-01  3.6249162831154E-01
19  1.8000000000000E-01  1.8238777887680E+00 -1.2630583761139E-01  3.9444530265430E-01
20  1.9000000000000E-01  1.8544264274822E+00 -6.7542143711457E-02  4.2428235323844E-01
21  2.0000000000000E-01  1.8767180272442E+00 -5.2391363492552E-03  4.5131920302851E-01
22  2.1000000000000E-01  1.8908930824789E+00  5.9741183136527E-02  4.7492915488786E-01
23  2.2000000000000E-01  1.8971102766129E+00  1.2658611554268E-01  4.9456440632391E-01
24  2.3000000000000E-01  1.8955397023038E+00  1.9455622751043E-01  5.0977581800782E-01
25  2.4000000000000E-01  1.8863571903676E+00  2.6300538019924E-01  5.2022977609046E-01
26  2.5000000000000E-01  1.8697399522733E+00  3.3139613742078E-01  5.2572158242305E-01
27  2.6000000000000E-01  1.8458636853686E+00  3.9931004084662E-01  5.2618491960143E-01
28  2.7000000000000E-01  1.8149012287620E+00  4.6645243124164E-01  5.2169706549671E-01
29  2.8000000000000E-01  1.7770227932327E+00  5.3265169744596E-01  5.1247967035883E-01
30  2.9000000000000E-01  1.7323977230279E+00  5.9785304179066E-01  4.9889505404594E-01
31  3.0000000000000E-01  1.6811976833240E+00  6.6210705441513E-01  4.8143812663499E-01
32  3.1000000000000E-01  1.6236011068381E+00  7.2555358225812E-01  4.6072417774266E-01
33  3.2000000000000E-01  1.5597986787898E+00  7.8840155440110E-01  4.3747291361490E-01
34  3.3000000000000E-01  1.4899995931578E+00  8.5090557762701E-01  4.1248924198904E-01
35  3.4000000000000E-01  1.4144382766856E+00  9.1334023902389E-01  3.8664140889721E-01
36  3.5000000000000E-01  1.3333812517550E+00  9.7597314175614E-01  3.6083717554478E-01
37  3.6000000000000E-01  1.2471337960657E+00  1.0390377524672E+00  3.3599878442398E-01
38  3.7000000000000E-01  1.1560460566034E+00  1.1027071522004E+00  3.1303749995665E-01
39  3.8000000000000E-01  1.0605182877407E+00  1.1670697566587E+00  2.9282851909556E-01
40  3.9000000000000E-01  9.6100490817157E-01  1.2321080068737E+00  2.7618703121512E-01
41  4.0000000000000E-01  8.5801710789644E-01  1.2976809301457E+00  2.6384616495254E-01
42  4.1000000000000E-01  7.5212378346017E-01  1.3635113369362E+00  2.5643749393743E-01
43  4.2000000000000E-01  6.4395063546526E-01  1.4291782569541E+00  2.5447468589680E-01
44  4.3000000000000E-01  5.3417732512841E-01  1.4941150326612E+00  2.5834077349913E-01
45  4.4000000000000E-01  4.2353265411842E-01  1.5576132873787E+00  2.6827940417555E-01
46  4.5000000000000E-01  3.1278780174887E-01  1.6188327751821E+00  2.8439029418890E-01
47  4.6000000000000E-01  2.0274772333088E-01  1.6768169082942E+00  3.0662897392792E-01
48  4.7000000000000E-01  9.4240880655623E-02  1.7305135521872E+00  3.3481077147130E-01
49  4.8000000000000E-01 -1.1892462221353E-02  1.7788004864223E+00  3.6861884463441E-01
50  4.9000000000000E-01 -1.1481308969961E-01  1.8205147571799E+00  4.0761594255738E-01
51  5.0000000000000E-01 -2.1369649779828E-01  1.8544850016159E+00  4.5125946072538E-01
52  5.1000000000000E-01 -3.0774700065386E-01  1.8795657097858E+00  4.9891925197511E-01
53  5.2000000000000E-01 -3.9621188828312E-01  1.8946723110005E+00  5.4989757383540E-01
54  5.3000000000000E-01 -4.7839523352971E-01  1.8988159309117E+00  6.0345049206327E-01
55  5.4000000000000E-01 -5.5367094944934E-01  1.8911366648241E+00  6.5881002331521E-01
56  5.5000000000000E-01 -6.2149471500051E-01  1.8709342517381E+00  7.1520628754424E-01
57  5.6000000000000E-01 -6.8141441625833E-01  1.8376951110499E+00  7.7188895308374E-01
58  5.7000000000000E-01 -7.3307879147677E-01  1.7911148169517E+00  8.2814729377795E-01
59  5.8000000000000E-01 -7.7624401978791E-01  1.7311152303791E+00  8.8332823640570E-01
60  5.9000000000000E-01 -8.1077805339645E-01  1.6578556797462E+00  9.3685185574647E-01
61  6.0000000000000E-01 -8.3666255974358E-01  1.5717377736541E+00  9.8822387097201E-01
62  6.1000000000000E-01 -8.5399241100638E-01  1.4734036345312E+00  1.0370448070918E+00
63  6.2000000000000E-01 -8.6297273105045E-01  1.3637275545661E+00  1.0830156049591E+00
64  6.3000000000000E-01 -8.6391358209820E-01  1.2438012869523E+00  1.1259395885917E+00
65  6.4000000000000E-01 -8.5722244248409E-01  1.1149133890517E+00  1.1657208248748E+00
66  6.5000000000000E-01 -8.4339469063345E-01  9.7852322263668E-01  1.2023590336979E+00
67  6.6000000000000E-01 -8.2300236672606E-01  8.3623038349406E-01  1.2359413220246E+00
68  6.7000000000000E-01 -7.9668153056446E-01  6.8974047277557E-01  1.2666311193876E+00
69  6.8000000000000E-01 -7.6511857048604E-01  5.4082823100295E-01  1.2946547814085E+00
70  6.9000000000000E-01 -7.2903584264886E-01  3.9129912915255E-01  1.3202863992680E+00
71  7.0000000000000E-01 -6.8917703202536E-01  2.4295054761663E-01  1.3438314043851E+00
72  7.1000000000000E-01 -6.4629262574288E-01  9.7533672267113E-02  1.3656095874146E+00
73  7.2000000000000E-01 -6.0112587624899E-01 -4.3282802133970E-02  1.3859381583245E+00
74  7.3000000000000E-01 -5.5439960681854E-01 -1.7794614546195E-01  1.4051154598479E+00
75  7.4000000000000E-01 -5.0680417622518E-01 -3.0504933398852E-01  1.4234059108598E+00
76  7.5000000000000E-01 -4.5898687440119E-01 -4.2335628696046E-01  1.4410267007906E+00
77  7.6000000000000E-01 -4.1154296831836E-01 -5.3182198309912E-01  1.4581366832971E+00
78  7.7000000000000E-01 -3.6500855910043E-01 -6.2960701799585E-01  1.4748278298834E+00
79  7.8000000000000E-01 -3.1985534962267E-01 -7.1608635031513E-01  1.4911195052849E+00
80  7.9000000000000E-01 -2.7648735875225E-01 -7.9085217610814E-01  1.5069557198273E+00
81  8.0000000000000E-01 -2.3523955609766E-01 -8.5371105980996E-01  1.5222054034761E+00
82  8.1000000000000E-01 -1.9637833176790E-01 -9.0467563121840E-01  1.5366656358409E+00
83  8.2000000000000E-01 -1.6010366110824E-01 -9.4395132402332E-01  1.5500676598270E+00
84  8.3000000000000E-01 -1.2655277639516E-01 -9.7191877794619E-01  1.5620854076335E+00
85  8.4000000000000E-01 -9.5805117459236E-02 -9.8911264878161E-01  1.5723461797498E+00
86  8.5000000000000E-01 -6.7888302274268E-02 -9.9619766505137E-01  1.5804430434807E+00
87  8.6000000000000E-01 -4.2784837463673E-02 -9.9394283406859E-01  1.5859484598443E+00
88  8.7000000000000E-01 -2.0439277835303E-02 -9.8319473252171E-01  1.5884286083924E+00
89  8.8000000000000E-01 -7.6554351082434E-04 -9.6485081685766E-01  1.5874578599951E+00
90  8.9000000000000E-01  1.6345887320126E-02 -9.3983365741680E-01  1.5826328487206E+00
91  9.0000000000000E-01  3.1021173113161E-02 -9.0906693904944E-01  1.5735856158683E+00
92  9.1000000000000E-01  4.3396926798355E-02 -8.7345398221233E-01  1.5599953416840E+00
93  9.2000000000000E-01  5.3614857419928E-02 -8.3385942534774E-01  1.5415982425473E+00
94  9.3000000000000E-01  6.1817395008181E-02 -7.9109457518647E-01  1.5181952922972E+00
95  9.4000000000000E-01  6.8144411779161E-02 -7.4590678024923E-01  1.4896575243934E+00
96  9.5000000000000E-01  7.2731102637912E-02 -6.9897301804486E-01  1.4559287851088E+00
97  9.6000000000000E-01  7.5707035230015E-02 -6.5089771188238E-01  1.4170259351546E+00
98  9.7000000000000E-01  7.7196325501493E-02 -6.0221461211766E-01  1.3730366362413E+00
99  9.8000000000000E-01  7.7318839711356E-02 -5.5339239166059E-01  1.3241150084685E+00
100  9.9000000000000E-01  7.6192268707601E-02 -5.0484341873309E-01  1.2704756025386E+00
101  1.0000000000000E+00  7.3934865250090E-02 -4.5693498208084E-01  1.2123862966120E+00
102  1.0100000000000E+00  7.0668580230264E-02 -4.1000205536862E-01  1.1501609001884E+00
103  1.0200000000000E+00  6.6522278354590E-02 -3.6436049730084E-01  1.0841524263834E+00
104  1.0300000000000E+00  6.1634657435845E-02 -3.2031939007103E-01  1.0147481794275E+00
105  1.0400000000000E+00  5.6156436676275E-02 -2.7819101780549E-01  9.4236799680650E-01
106  1.0500000000000E+00  5.0251316817801E-02 -2.3829677490399E-01  8.6746718587421E-01
107  1.0600000000000E+00  4.4095146847789E-02 -2.0096706613498E-01  7.9054590479916E-01
108  1.0700000000000E+00  3.7872655915242E-02 -1.6653300990201E-01  7.1216695928576E-01
109  1.0800000000000E+00  3.1771023171564E-02 -1.3530747750114E-01  6.3298422114802E-01
110  1.0900000000000E+00  2.5969453480461E-02 -1.0755266204507E-01  5.5378417086595E-01
111  1.1000000000000E+00  2.0623877375157E-02 -8.3431273061915E-02  4.7554282632352E-01
112  1.1100000000000E+00  1.5846859836775E-02 -6.2942560903041E-02  3.9949139427079E-01
113  1.1200000000000E+00  1.1705929312235E-02 -4.5937300150679E-02  3.2700670935810E-01
114  1.1300000000000E+00  8.2410503477181E-03 -3.2205718716494E-02  2.5938677974389E-01
115  1.1400000000000E+00  5.4664885666630E-03 -2.1494723123819E-02  1.9780343042348E-01
116  1.1500000000000E+00  3.3498721001423E-03 -1.3457202317194E-02  1.4327540936373E-01
117  1.1600000000000E+00  1.7880548510343E-03 -7.5894133396069E-03  9.6638062344893E-02
118  1.1700000000000E+00  7.5889057484448E-04 -3.6521116201145E-03  5.8628553512848E-02
119  1.1800000000000E+00  1.9963621497532E-04 -1.3458368154709E-03  2.9810982175485E-02
120  1.1900000000000E+00 -2.7019674135048E-06 -2.8559730440776E-04  1.0565108389666E-02
121  1.2000000000000E+00 -9.4163820261764E-06 -8.7790399907730E-06  1.1659668242891E-03
122  1.2100000000000E+00  9.4761843977656E-07 -4.1182762119475E-07 -7.0390444896662E-05
123  1.2200000000000E+00  1.5888831382933E-08  3.1364041514727E-08 -2.5757152281513E-06
124  1.23 -0.  0. -0.
125  1.24  0.  0.  0.
126  1.25  0.  0.  0.
127  1.26  0.  0.  0.
128  1.27  0.  0.  0.
129  1.28  0.  0.  0.
130  1.29  0.  0.  0.
131  1.30  0.  0.  0.
132  1.31  0.  0.  0.
133  1.32  0.  0.  0.
134  1.33  0.  0.  0.
135  1.34  0.  0.  0.
136  1.35  0.  0.  0.
137  1.36  0.  0.  0.
138  1.37  0.  0.  0.
139  1.38  0.  0.  0.
140  1.39  0.  0.  0.
141  1.40  0.  0.  0.
142  1.41  0.  0.  0.
143  1.42  0.  0.  0.
144  1.43  0.  0.  0.
145  1.44  0.  0.  0.
146  1.45  0.  0.  0.
147  1.46  0.  0.  0.
148  1.47  0.  0.  0.
149  1.48  0.  0.  0.
150  1.49  0.  0.  0.
151  1.50  0.  0.  0.
152  1.51  0.  0.  0.
153  1.52  0.  0.  0.
154  1.53  0.  0.  0.
155  1.54  0.  0.  0.
156  1.55  0.  0.  0.
157  1.56  0.  0.  0.
158  1.57  0.  0.  0.
159  1.58  0.  0.  0.
160  1.59  0.  0.  0.
161  1.60  0.  0.  0.
162  1.61  0.  0.  0.
163  1.62  0.  0.  0.
164  1.63  0.  0.  0.
165  1.64  0.  0.  0.
166  1.65  0.  0.  0.
167  1.66  0.  0.  0.
168  1.67  0.  0.  0.
169  1.68  0.  0.  0.
170  1.69  0.  0.  0.
171  1.70  0.  0.  0.
172  1.71  0.  0.  0.
173  1.72  0.  0.  0.
174  1.73  0.  0.  0.
175  1.74  0.  0.  0.
176  1.75  0.  0.  0.
177  1.76  0.  0.  0.
178  1.77  0.  0.  0.
179  1.78  0.  0.  0.
180  1.79  0.  0.  0.
181  1.80  0.  0.  0.
182  1.81  0.  0.  0.
183  1.82  0.  0.  0.
184  1.83  0.  0.  0.
185  1.84  0.  0.  0.
186  1.85  0.  0.  0.
187  1.86  0.  0.  0.
188  1.87  0.  0.  0.
189  1.88  0.  0.  0.
190  1.89  0.  0.  0.
191  1.90  0.  0.  0.
192  1.91  0.  0.  0.
193  1.92  0.  0.  0.
194  1.93  0.  0.  0.
195  1.94  0.  0.  0.
196  1.95  0.  0.  0.
197  1.96  0.  0.  0.
198  1.97  0.  0.  0.
199  1.98  0.  0.  0.
200  1.99  0.  0.  0.
201  2.00  0.  0.  0.
202  2.01  0.  0.  0.
203  2.02  0.  0.  0.
204  2.03  0.  0.  0.
205  2.04  0.  0.  0.
206  2.05  0.  0.  0.
207  2.06  0.  0.  0.
208  2.07  0.  0.  0.
209  2.08  0.  0.  0.
210  2.09  0.  0.  0.
211  2.10  0.  0.  0.
212  2.11  0.  0.  0.
213  2.12  0.  0.  0.
214  2.13  0.  0.  0.
215  2.14  0.  0.  0.
216  2.15  0.  0.  0.
217  2.16  0.  0.  0.
218  2.17  0.  0.  0.
219  2.18  0.  0.  0.
220  2.19  0.  0.  0.
221  2.20  0.  0.  0.
222  2.21  0.  0.  0.
223  2.22  0.  0.  0.
224  2.23  0.  0.  0.
225  2.24  0.  0.  0.
226  2.25  0.  0.  0.
227  2.26  0.  0.  0.
228  2.27  0.  0.  0.
229  2.28  0.  0.  0.
230  2.29  0.  0.  0.
231  2.30  0.  0.  0.
232  2.31  0.  0.  0.
233  2.32  0.  0.  0.
234  2.33  0.  0.  0.
235  2.34  0.  0.  0.
236  2.35  0.  0.  0.
237  2.36  0.  0.  0.
238  2.37  0.  0.  0.
239  2.38  0.  0.  0.
240  2.39  0.  0.  0.
241  2.40  0.  0.  0.
242  2.41  0.  0.  0.
243  2.42  0.  0.  0.
244  2.43  0.  0.  0.
245  2.44  0.  0.  0.
246  2.45  0.  0.  0.
247  2.46  0.  0.  0.
248  2.47  0.  0.  0.
249  2.48  0.  0.  0.
250  2.49  0.  0.  0.
251  2.50  0.  0.  0.
252  2.51  0.  0.  0.
253  2.52  0.  0.  0.
254  2.53  0.  0.  0.
255  2.54  0.  0.  0.
256  2.55  0.  0.  0.
257  2.56  0.  0.  0.
258  2.57  0.  0.  0.
259  2.58  0.  0.  0.
260  2.59  0.  0.  0.
261  2.60  0.  0.  0.
262  2.61  0.  0.  0.
263  2.62  0.  0.  0.
264  2.63  0.  0.  0.
265  2.64  0.  0.  0.
266  2.65  0.  0.  0.
267  2.66  0.  0.  0.
268  2.67  0.  0.  0.
269  2.68  0.  0.  0.
270  2.69  0.  0.  0.
271  2.70  0.  0.  0.
272  2.71  0.  0.  0.
273  2.72  0.  0.  0.
274  2.73  0.  0.  0.
275  2.74  0.  0.  0.
276  2.75  0.  0.  0.
277  2.76  0.  0.  0.
278  2.77  0.  0.  0.
279  2.78  0.  0.  0.
280  2.79  0.  0.  0.
281  2.80  0.  0.  0.
282  2.81  0.  0.  0.
283  2.82  0.  0.  0.
284  2.83  0.  0.  0.
285  2.84  0.  0.  0.
286  2.85  0.  0.  0.
287  2.86  0.  0.  0.
288  2.87  0.  0.  0.
289  2.88  0.  0.  0.
290  2.89  0.  0.  0.
291  2.90  0.  0.  0.
292  2.91  0.  0.  0.
293  2.92  0.  0.  0.
294  2.93  0.  0.  0.
295  2.94  0.  0.  0.
296  2.95  0.  0.  0.
297  2.96  0.  0.  0.
298  2.97  0.  0.  0.
299  2.98  0.  0.  0.
300  2.99  0.  0.  0.
301  3.00  0.  0.  0.
302  3.01  0.  0.  0.
303  3.02  0.  0.  0.
304  3.03  0.  0.  0.
305  3.04  0.  0.  0.
306  3.05  0.  0.  0.
307  3.06  0.  0.  0.
308  3.07  0.  0.  0.
309  3.08  0.  0.  0.
310  3.09  0.  0.  0.
311  3.10  0.  0.  0.
312  3.11  0.  0.  0.
313  3.12  0.  0.  0.
314  3.13  0.  0.  0.
315  3.14  0.  0.  0.
316  3.15  0.  0.  0.
317  3.16  0.  0.  0.
318  3.17  0.  0.  0.
319  3.18  0.  0.  0.
320  3.19  0.  0.  0.
321  3.20  0.  0.  0.
322  3.21  0.  0.  0.
323  3.22  0.  0.  0.
324  3.23  0.  0.  0.
325  3.24  0.  0.  0.
326  3.25  0.  0.  0.
327  3.26  0.  0.  0.
328  3.27  0.  0.  0.
329  3.28  0.  0.  0.
330  3.29  0.  0.  0.
331  3.30  0.  0.  0.
332  3.31  0.  0.  0.
333  3.32  0.  0.  0.
334  3.33  0.  0.  0.
335  3.34  0.  0.  0.
336  3.35  0.  0.  0.
337  3.36  0.  0.  0.
338  3.37  0.  0.  0.
339  3.38  0.  0.  0.
340  3.39  0.  0.  0.
341  3.40  0.  0.  0.
342  3.41  0.  0.  0.
343  3.42  0.  0.  0.
344  3.43  0.  0.  0.
345  3.44  0.  0.  0.
346  3.45  0.  0.  0.
347  3.46  0.  0.  0.
348  3.47  0.  0.  0.
349  3.48  0.  0.  0.
350  3.49  0.  0.  0.
351  3.50  0.  0.  0.
352  3.51  0.  0.  0.
353  3.52  0.  0.  0.
354  3.53  0.  0.  0.
355  3.54  0.  0.  0.
356  3.55  0.  0.  0.
357  3.56  0.  0.  0.
358  3.57  0.  0.  0.
359  3.58  0.  0.  0.
360  3.59  0.  0.  0.
361  3.60  0.  0.  0.
362  3.61  0.  0.  0.
363  3.62  0.  0.  0.
364  3.63  0.  0.  0.
365  3.64  0.  0.  0.
366  3.65  0.  0.  0.
367  3.66  0.  0.  0.
368  3.67  0.  0.  0.
369  3.68  0.  0.  0.
370  3.69  0.  0.  0.
371  3.70  0.  0.  0.
372  3.71  0.  0.  0.
373  3.72  0.  0.  0.
374  3.73  0.  0.  0.
375  3.74  0.  0.  0.
376  3.75  0.  0.  0.
377  3.76  0.  0.  0.
378  3.77  0.  0.  0.
379  3.78  0.  0.  0.
380  3.79  0.  0.  0.
381  3.80  0.  0.  0.
382  3.81  0.  0.  0.
383  3.82  0.  0.  0.
384  3.83  0.  0.  0.
385  3.84  0.  0.  0.
386  3.85  0.  0.  0.
387  3.86  0.  0.  0.
388  3.87  0.  0.  0.
389  3.88  0.  0.  0.
390  3.89  0.  0.  0.
391  3.90  0.  0.  0.
392  3.91  0.  0.  0.
393  3.92  0.  0.  0.
394  3.93  0.  0.  0.
395  3.94  0.  0.  0.
396  3.95  0.  0.  0.
397  3.96  0.  0.  0.
398  3.97  0.  0.  0.
399  3.98  0.  0.  0.
400  3.99  0.  0.  0.
401  4.00  0.  0.  0.
402  4.01  0.  0.  0.
403  4.02  0.  0.  0.
404  4.03  0.  0.  0.
405  4.04  0.  0.  0.
406  4.05  0.  0.  0.
407  4.06  0.  0.  0.
408  4.07  0.  0.  0.
409  4.08  0.  0.  0.
410  4.09  0.  0.  0.
411  4.10  0.  0.  0.
412  4.11  0.  0.  0.
413  4.12  0.  0.  0.
414  4.13  0.  0.  0.
415  4.14  0.  0.  0.
416  4.15  0.  0.  0.
417  4.16  0.  0.  0.
418  4.17  0.  0.  0.
419  4.18  0.  0.  0.
420  4.19  0.  0.  0.
421  4.20  0.  0.  0.
422  4.21  0.  0.  0.
423  4.22  0.  0.  0.
424  4.23  0.  0.  0.
425  4.24  0.  0.  0.
426  4.25  0.  0.  0.
427  4.26  0.  0.  0.
428  4.27  0.  0.  0.
429  4.28  0.  0.  0.
430  4.29  0.  0.  0.
431  4.30  0.  0.  0.
432  4.31  0.  0.  0.
433  4.32  0.  0.  0.
434  4.33  0.  0.  0.
435  4.34  0.  0.  0.
436  4.35  0.  0.  0.
437  4.36  0.  0.  0.
438  4.37  0.  0.  0.
439  4.38  0.  0.  0.
440  4.39  0.  0.  0.
441  4.40  0.  0.  0.
442  4.41  0.  0.  0.
443  4.42  0.  0.  0.
444  4.43  0.  0.  0.
445  4.44  0.  0.  0.
446  4.45  0.  0.  0.
447  4.46  0.  0.  0.
448  4.47  0.  0.  0.
449  4.48  0.  0.  0.
450  4.49  0.  0.  0.
451  4.50  0.  0.  0.
452  4.51  0.  0.  0.
453  4.52  0.  0.  0.
454  4.53  0.  0.  0.
455  4.54  0.  0.  0.
456  4.55  0.  0.  0.
457  4.56  0.  0.  0.
458  4.57  0.  0.  0.
459  4.58  0.  0.  0.
460  4.59  0.  0.  0.
461  4.60  0.  0.  0.
462  4.61  0.  0.  0.
463  4.62  0.  0.  0.
464  4.63  0.  0.  0.
465  4.64  0.  0.  0.
466  4.65  0.  0.  0.
467  4.66  0.  0.  0.
468  4.67  0.  0.  0.
469  4.68  0.  0.  0.
470  4.69  0.  0.  0.
471  4.70  0.  0.  0.
472  4.71  0.  0.  0.
473  4.72  0.  0.  0.
474  4.73  0.  0.  0.
475  4.74  0.  0.  0.
476  4.75  0.  0.  0.
477  4.76  0.  0.  0.
478  4.77  0.  0.  0.
479  4.78  0.  0.  0.
480  4.79  0.  0.  0.
481  4.80  0.  0.  0.
482  4.81  0.  0.  0.
483  4.82  0.  0.  0.
484  4.83  0.  0.  0.
485  4.84  0.  0.  0.
486  4.85  0.  0.  0.
487  4.86  0.  0.  0.
488  4.87  0.  0.  0.
489  4.88  0.  0.  0.
490  4.89  0.  0.  0.
491  4.90  0.  0.  0.
492  4.91  0.  0.  0.
493  4.92  0.  0.  0.
494  4.93  0.  0.  0.
495  4.94  0.  0.  0.
496  4.95  0.  0.  0.
497  4.96  0.  0.  0.
498  4.97  0.  0.  0.
499  4.98  0.  0.  0.
500  4.99  0.  0.  0.
501  5.00  0.  0.  0.
502  5.01  0.  0.  0.
503  5.02  0.  0.  0.
504  5.03  0.  0.  0.
505  5.04  0.  0.  0.
506  5.05  0.  0.  0.
507  5.06  0.  0.  0.
508  5.07  0.  0.  0.
509  5.08  0.  0.  0.
510  5.09  0.  0.  0.
511  5.10  0.  0.  0.
512  5.11  0.  0.  0.
513  5.12  0.  0.  0.
514  5.13  0.  0.  0.
515  5.14  0.  0.  0.
516  5.15  0.  0.  0.
517  5.16  0.  0.  0.
518  5.17  0.  0.  0.
519  5.18  0.  0.  0.
520  5.19  0.  0.  0.
521  5.20  0.  0.  0.
522  5.21  0.  0.  0.
523  5.22  0.  0.  0.
524  5.23  0.  0.  0.
525  5.24  0.  0.  0.
526  5.25  0.  0.  0.
527  5.26  0.  0.  0.
528  5.27  0.  0.  0.
529  5.28  0.  0.  0.
530  5.29  0.  0.  0.
531  5.30  0.  0.  0.
532  5.31  0.  0.  0.
533  5.32  0.  0.  0.
534  5.33  0.  0.  0.
535  5.34  0.  0.  0.
536  5.35  0.  0.  0.
537  5.36  0.  0.  0.
538  5.37  0.  0.  0.
539  5.38  0.  0.  0.
540  5.39  0.  0.  0.
541  5.40  0.  0.  0.
542  5.41  0.  0.  0.
543  5.42  0.  0.  0.
544  5.43  0.  0.  0.
545  5.44  0.  0.  0.
546  5.45  0.  0.  0.
547  5.46  0.  0.  0.
548  5.47  0.  0.  0.
549  5.48  0.  0.  0.
550  5.49  0.  0.  0.
551  5.50  0.  0.  0.
552  5.51  0.  0.  0.
553  5.52  0.  0.  0.
554  5.53  0.  0.  0.
555  5.54  0.  0.  0.
556  5.55  0.  0.  0.
557  5.56  0.  0.  0.
558  5.57  0.  0.  0.
559  5.58  0.  0.  0.
560  5.59  0.  0.  0.
561  5.60  0.  0.  0.
562  5.61  0.  0.  0.
563  5.62  0.  0.  0.
564  5.63  0.  0.  0.
565  5.64  0.  0.  0.
566  5.65  0.  0.  0.
567  5.66  0.  0.  0.
568  5.67  0.  0.  0.
569  5.68  0.  0.  0.
570  5.69  0.  0.  0.
571  5.70  0.  0.  0.
572  5.71  0.  0.  0.
573  5.72  0.  0.  0.
574  5.73  0.  0.  0.
575  5.74  0.  0.  0.
576  5.75  0.  0.  0.
577  5.76  0.  0.  0.
578  5.77  0.  0.  0.
579  5.78  0.  0.  0.
580  5.79  0.  0.  0.
581  5.80  0.  0.  0.
582  5.81  0.  0.  0.
583  5.82  0.  0.  0.
584  5.83  0.  0.  0.
585  5.84  0.  0.  0.
586  5.85  0.  0.  0.
587  5.86  0.  0.  0.
588  5.87  0.  0.  0.
589  5.88  0.  0.  0.
590  5.89  0.  0.  0.
591  5.90  0.  0.  0.
592  5.91  0.  0.  0.
593  5.92  0.  0.  0.
594  5.93  0.  0.  0.
595  5.94  0.  0.  0.
596  5.95  0.  0.  0.
597  5.96  0.  0.  0.
598  5.97  0.  0.  0.
599  5.98  0.  0.  0.
600  5.99  0.  0.  0.
1                         8.5533027878248E+00 -3.4255245183929E-01
1  0.0000000000000E+00 -6.6180254609804E-09 -7.1058392493023E-08
2  1.0000000000000E-02  3.6016970008164E-03  2.9329444526341E-04
3  2.0000000000000E-02  1.4382502097556E-02  1.1981788518742E-03
4  3.0000000000000E-02  3.2269596170836E-02  2.7883942155378E-03
5  4.0000000000000E-02  5.7141747684951E-02  5.1826835964255E-03
6  5.0000000000000E-02  8.8829530475704E-02  8.5387232537649E-03
7  6.0000000000000E-02  1.2711566244960E-01  1.3044958132838E-02
8  7.0000000000000E-02  1.7173549717655E-01  1.8910659421813E-02
9  8.0000000000000E-02  2.2237770697624E-01  2.6354592954219E-02
10  9.0000000000000E-02  2.7868520095006E-01  3.5592744428478E-02
11  1.0000000000000E-01  3.4025632423504E-01  4.6825588661055E-02
12  1.1000000000000E-01  4.0664638536549E-01  6.0225413838875E-02
13  1.2000000000000E-01  4.7736955691355E-01  7.5924217043126E-02
14  1.3000000000000E-01  5.5190119051595E-01  9.4002673867386E-02
15  1.4000000000000E-01  6.2968058104359E-01  1.1448065308150E-01
16  1.5000000000000E-01  7.1011420617712E-01  1.3730969797089E-01
17  1.6000000000000E-01  7.9257945724364E-01  1.6236783079343E-01
18  1.7000000000000E-01  8.7642886514606E-01  1.8945695788470E-01
19  1.8000000000000E-01  9.6099481194347E-01  2.1830306294441E-01
20  1.9000000000000E-01  1.0455947045358E+00  2.4855927799334E-01
21  2.0000000000000E-01  1.1295365724275E+00  2.7981181874978E-01
22  2.1000000000000E-01  1.2121250371725E+00  3.1158866728148E-01
23  2.2000000000000E-01  1.2926675873344E+00  3.4337078336311E-01
24  2.3000000000000E-01  1.3704810801035E+00  3.7460553058583E-01
25  2.4000000000000E-01  1.4448983795665E+00  4.0472191733131E-01
26  2.5000000000000E-01  1.5152750324375E+00  4.3314717935848E-01
27  2.6000000000000E-01  1.5809958751965E+00  4.5932417268519E-01
28  2.7000000000000E-01  1.6414814623373E+00  4.8272900491034E-01
29  2.8000000000000E-01  1.6961942040255E+00  5.0288831177667E-01
30  2.9000000000000E-01  1.7446441030296E+00  5.1939558463950E-01
31  3.0000000000000E-01  1.7863939853567E+00  5.3192597392211E-01
32  3.1000000000000E-01  1.8210641265397E+00  5.4024903324319E-01
33  3.2000000000000E-01  1.8483361858262E+00  5.4423892763305E-01
34  3.3000000000000E-01  1.8679563733709E+00  5.4388170538087E-01
35  3.4000000000000E-01  1.8797377905939E+00  5.3927932421949E-01
36  3.5000000000000E-01  1.8835619007335E+00  5.3065022584873E-01
37  3.6000000000000E-01  1.8793791048282E+00  5.1832636486012E-01
38  3.7000000000000E-01  1.8672084173739E+00  5.0274671523531E-01
39  3.8000000000000E-01  1.8471362551896E+00  4.8444739580310E-01
40  3.9000000000000E-01  1.8193143720007E+00  4.6404867131560E-01
41  4.0000000000000E-01  1.7839569893669E+00  4.4223919413585E-01
42  4.1000000000000E-01  1.7413371912940E+00  4.1975794909994E-01
43  4.2000000000000E-01  1.6917826646815E+00  3.9737444741003E-01
44  4.3000000000000E-01  1.6356708802265E+00  3.7586778136366E-01
45  4.4000000000000E-01  1.5734238181639E+00  3.5600519780450E-01
46  4.5000000000000E-01  1.5055023499902E+00  3.3852087252029E-01
47  4.6000000000000E-01  1.4324003909050E+00  3.2409556926102E-01
48  4.7000000000000E-01  1.3546389380354E+00  3.1333784522771E-01
49  4.8000000000000E-01  1.2727601065943E+00  3.0676742021117E-01
50  4.9000000000000E-01  1.1873212701125E+00  3.0480126025702E-01
51  5.0000000000000E-01  1.0988894019933E+00  3.0774284078680E-01
52  5.1000000000000E-01  1.0080357042110E+00  3.1577495121085E-01
53  5.2000000000000E-01  9.1533059541829E-01  3.2895628655465E-01
54  5.3000000000000E-01  8.2133911552668E-01  3.4722194533411E-01
55  5.4000000000000E-01  7.2661678753513E-01  3.7038782110654E-01
56  5.5000000000000E-01  6.3170596055854E-01  3.9815874229116E-01
57  5.6000000000000E-01  5.3713264126846E-01  4.3014008560373E-01
58  5.7000000000000E-01  4.4340380487497E-01  4.6585246732671E-01
59  5.8000000000000E-01  3.5100516192403E-01  5.0474900796917E-01
60  5.9000000000000E-01  2.6039934407250E-01  5.4623457361232E-01
61  6.0000000000000E-01  1.7202446108732E-01  5.8968632482063E-01
62  6.1000000000000E-01  8.6292972966139E-02  6.3447485421358E-01
63  6.2000000000000E-01  3.5908155686416E-03  6.7998516866664E-01
64  6.3000000000000E-01 -7.5723284351471E-02  7.2563677283152E-01
65  6.4000000000000E-01 -1.5131836826024E-01  7.7090213753334E-01
66  6.5000000000000E-01 -2.2289173908649E-01  8.1532288898014E-01
67  6.6000000000000E-01 -2.9016944219370E-01  8.5852313108800E-01
68  6.7000000000000E-01 -3.5290677876460E-01  9.0021941115876E-01
69  6.8000000000000E-01 -4.1088888522416E-01  9.4022695545305E-01
70  6.9000000000000E-01 -4.6393139960175E-01  9.7846193198087E-01
71  7.0000000000000E-01 -5.1188122188932E-01  1.0149396386046E+00
72  7.1000000000000E-01 -5.5461736108380E-01  1.0497686604592E+00
73  7.2000000000000E-01 -5.9205184733606E-01  1.0831411865836E+00
74  7.3000000000000E-01 -6.2413067409234E-01  1.1153198163612E+00
75  7.4000000000000E-01 -6.5083472292010E-01  1.1466213167904E+00
76  7.5000000000000E-01 -6.7218061342516E-01  1.1773979069827E+00
77  7.6000000000000E-01 -6.8822141279340E-01  1.2080167423299E+00
78  7.7000000000000E-01 -6.9904713444647E-01  1.2388383438225E+00
79  7.8000000000000E-01 -7.0478495339959E-01  1.2701947651788E+00
80  7.9000000000000E-01 -7.0559906734858E-01  1.3023683097726E+00
81  8.0000000000000E-01 -7.0169013736161E-01  1.3355715998267E+00
82  8.1000000000000E-01 -6.9329425024659E-01  1.3699297620026E+00
83  8.2000000000000E-01 -6.8068135600999E-01  1.4054654274394E+00
84  8.3000000000000E-01 -6.6415314799187E-01  1.4420871525817E+00
85  8.4000000000000E-01 -6.4404036980758E-01  1.4795817528540E+00
86  8.5000000000000E-01 -6.2069955159377E-01  1.5176109083388E+00
87  8.6000000000000E-01 -5.9450919760016E-01  1.5557122538005E+00
88  8.7000000000000E-01 -5.6586546717197E-01  1.5933050099725E+00
89  8.8000000000000E-01 -5.3517741086926E-01  1.6297000547460E+00
90  8.9000000000000E-01 -5.0286184208191E-01  1.6641141777570E+00
91  9.0000000000000E-01 -4.6933794124170E-01  1.6956881159228E+00
92  9.1000000000000E-01 -4.3502170385329E-01  1.7235078366517E+00
93  9.2000000000000E-01 -4.0032035436560E-01  1.7466284253294E+00
94  9.3000000000000E-01 -3.6562685476463E-01  1.7640998493475E+00
95  9.4000000000000E-01 -3.3131463916470E-01  1.7749938168149E+00
96  9.5000000000000E-01 -2.9773270320442E-01  1.7784309277584E+00
97  9.6000000000000E-01 -2.6520116943604E-01  1.7736073317842E+00
98  9.7000000000000E-01 -2.3400743699847E-01  1.7598201604979E+00
99  9.8000000000000E-01 -2.0440300568618E-01  1.7364910961319E+00
100  9.9000000000000E-01 -1.7660104123621E-01  1.7031875692701E+00
101  1.0000000000000E+00 -1.5077472051950E-01  1.6596412469628E+00
102  1.0100000000000E+00 -1.2705636279003E-01  1.6057636752680E+00
103  1.0200000000000E+00 -1.0553731675833E-01  1.5416591739416E+00
104  1.0300000000000E+00 -8.6268533668657E-02  1.4676353413772E+00
105  1.0400000000000E+00 -6.9261714480748E-02  1.3842118102630E+00
106  1.0500000000000E+00 -5.4490875574559E-02  1.2921281927321E+00
107  1.0600000000000E+00 -4.1894132879776E-02  1.1923524627019E+00
108  1.0700000000000E+00 -3.1375459868858E-02  1.0860913364144E+00
109  1.0800000000000E+00 -2.2806131434803E-02  9.7480452280321E-01
110  1.0900000000000E+00 -1.6025520231939E-02  8.6022506464742E-01
111  1.1000000000000E+00 -1.0840914934145E-02  7.4438775022229E-01
112  1.1100000000000E+00 -7.0267401171796E-03  6.2965816602565E-01
113  1.1200000000000E+00 -4.3382430468940E-03  5.1857195650169E-01
114  1.1300000000000E+00 -2.5358855966677E-03  4.1356040349267E-01
115  1.1400000000000E+00 -1.3959802247178E-03  3.1686987671904E-01
116  1.1500000000000E+00 -7.2807585370097E-04  2.3046467848934E-01
117  1.1600000000000E+00 -3.9383690153811E-04  1.5591117012185E-01
118  1.1700000000000E+00 -2.3735077431278E-04  9.4758175982621E-02
119  1.1800000000000E+00 -1.4876309074837E-04  4.8210288616917E-02
120  1.1900000000000E+00 -7.2886921631970E-05  1.7075106450763E-02
121  1.2000000000000E+00 -1.1454373980824E-05  1.8808264152947E-03
122  1.2100000000000E+00  8.3862002006047E-07 -1.1339013378935E-04
123  1.2200000000000E+00  2.3276237011542E-08 -4.1574579307237E-06
124  1.23 -0. -0.
125  1.24  0.  0.
126  1.25  0.  0.
127  1.26  0.  0.
128  1.27  0.  0.
129  1.28  0.  0.
130  1.29  0.  0.
131  1.30  0.  0.
132  1.31  0.  0.
133  1.32  0.  0.