Am    ONCVPSP-4.0.1  r_core=   1.15530   1.15530   1.15530   1.35781
95.0000     35.0000      220205    zatom,zion,pspd
8      11   3     4   600     0    pspcod,pspxc,lmax,lloc,mmax,r2well
5.99000000  5.00000000  0.00000000    rchrg fchrg qchrg
3     2     2     2     0    nproj
1     1           extension_switch
0                         2.8130847263337E+01  3.6951839639475E+00 -6.4866329590889E-01
1  0.0000000000000E+00 -1.5172559741927E-07  4.6513982010499E-07  1.4335296770474E-07
2  1.0000000000000E-02  1.5629413211887E-01 -9.0183605840131E-02  5.3821579981602E-03
3  2.0000000000000E-02  3.1117669453001E-01 -1.7760934689723E-01  1.1424583061006E-02
4  3.0000000000000E-02  4.6326773177826E-01 -2.5961005709587E-01  1.8759218310147E-02
5  4.0000000000000E-02  6.1124941914701E-01 -3.3369660859662E-01  2.7962430851349E-02
6  5.0000000000000E-02  7.5389442549694E-01 -3.9763866129404E-01  3.9529864083361E-02
7  6.0000000000000E-02  8.9009114872863E-01 -4.4953584315972E-01  5.3854349620936E-02
8  7.0000000000000E-02  1.0188649693842E+00 -4.8787674775941E-01  7.1207721693787E-02
9  8.0000000000000E-02  1.1393948196287E+00 -5.1158360041284E-01  9.1727233530293E-02
10  9.0000000000000E-02  1.2510245431943E+00 -5.2004099142161E-01  1.1540710614285E-01
11  1.0000000000000E-01  1.3532687199378E+00 -5.1310768254699E-01  1.4209555128547E-01
12  1.1000000000000E-01  1.4458128387914E+00 -4.9111113812498E-01  1.7149740905265E-01
13  1.2000000000000E-01  1.5285079169601E+00 -4.5482509007203E-01  2.0318233398994E-01
14  1.3000000000000E-01  1.6013598729594E+00 -4.0543109128090E-01  2.3659825924606E-01
15  1.4000000000000E-01  1.6645141583757E+00 -3.4446561974424E-01  2.7108967367925E-01
16  1.5000000000000E-01  1.7182363304589E+00 -2.7375484282287E-01  3.0592006904735E-01
17  1.6000000000000E-01  1.7628893979510E+00 -1.9533961638644E-01  3.4029775995258E-01
18  1.7000000000000E-01  1.7989088901300E+00 -1.1139365923111E-01  3.7340415371438E-01
19  1.8000000000000E-01  1.8267766793483E+00 -2.4138095206034E-02  4.0442345537804E-01
20  1.9000000000000E-01  1.8469946272925E+00  6.4244315791680E-02  4.3257273797854E-01
21  2.0000000000000E-01  1.8600591232484E+00  1.5169193625172E-01  4.5713129196128E-01
22  2.1000000000000E-01  1.8664375389347E+00  2.3634080479919E-01  4.7746819088100E-01
23  2.2000000000000E-01  1.8665475406836E+00  3.1659204186602E-01  4.9306707228807E-01
24  2.3000000000000E-01  1.8607400791924E+00  3.9116752799579E-01  5.0354723078089E-01
25  2.4000000000000E-01  1.8492867244579E+00  4.5915173885638E-01  5.0868025094822E-01
26  2.5000000000000E-01  1.8323718347941E+00  5.2001816569009E-01  5.0840156654955E-01
27  2.6000000000000E-01  1.8100898510268E+00  5.7363935478753E-01  5.0281651297149E-01
28  2.7000000000000E-01  1.7824477977610E+00  6.2028024119948E-01  4.9220063614800E-01
29  2.8000000000000E-01  1.7493728612360E+00  6.6057510546750E-01  4.7699422557837E-01
30  2.9000000000000E-01  1.7107247060049E+00  6.9548912235796E-01  4.5779124436891E-01
31  3.0000000000000E-01  1.6663119986218E+00  7.2626607265834E-01  4.3532302789576E-01
32  3.1000000000000E-01  1.6159124332939E+00  7.5436432976075E-01  4.1043730753444E-01
33  3.2000000000000E-01  1.5592954088431E+00  7.8138369110908E-01  3.8407328024319E-01
34  3.3000000000000E-01  1.4962463940438E+00  8.0898598294856E-01  3.5723358271832E-01
35  3.4000000000000E-01  1.4265919438771E+00  8.3881261137274E-01  3.3095413543375E-01
36  3.5000000000000E-01  1.3502242954158E+00  8.7240235404454E-01  3.0627289338172E-01
37  3.6000000000000E-01  1.2671244802827E+00  9.1111268057909E-01  2.8419857428816E-01
38  3.7000000000000E-01  1.1773829406295E+00  9.5604775579973E-01  2.6568043042131E-01
39  3.8000000000000E-01  1.0812167254456E+00  1.0079960242304E+00  2.5158008719864E-01
40  3.9000000000000E-01  9.7898247025675E-01  1.0673799063317E+00  2.4264639238441E-01
41  4.0000000000000E-01  8.7118452102364E-01  1.1342196715236E+00  2.3949410685626E-01
42  4.1000000000000E-01  7.5847774617846E-01  1.2081130081298E+00  2.4258712600305E-01
43  4.2000000000000E-01  6.4166478213901E-01  1.2882312072639E+00  2.5222675516346E-01
44  4.3000000000000E-01  5.2168766950475E-01  1.3733322397926E+00  2.6854537931532E-01
45  4.4000000000000E-01  3.9961405124904E-01  1.4617903576149E+00  2.9150567329621E-01
46  4.5000000000000E-01  2.7661831229285E-01  1.5516412176564E+00  3.2090530133526E-01
47  4.6000000000000E-01  1.5395823383462E-01  1.6406409336134E+00  3.5638686085236E-01
48  4.7000000000000E-01  3.2947908246661E-02  1.7263369293939E+00  3.9745264239561E-01
49  4.8000000000000E-01 -8.5072195381635E-02  1.8061480196848E+00  4.4348361185015E-01
50  4.9000000000000E-01 -1.9876701436906E-01  1.8774507941242E+00  4.9376187858376E-01
51  5.0000000000000E-01 -3.0683945077026E-01  1.9376691452163E+00  5.4749579900312E-01
52  5.1000000000000E-01 -4.0806259915750E-01  1.9843636649723E+00  6.0384678300169E-01
53  5.2000000000000E-01 -5.0131054739968E-01  2.0153176451130E+00  6.6195682367449E-01
54  5.3000000000000E-01 -5.8558670429588E-01  2.0286165494201E+00  7.2097575982796E-01
55  5.4000000000000E-01 -6.6004869710556E-01  2.0227180785424E+00  7.8008730623468E-01
56  5.5000000000000E-01 -7.2402900641568E-01  1.9965103067438E+00  8.3853294693668E-01
57  5.6000000000000E-01 -7.7705066037931E-01  1.9493558220664E+00  8.9563287955983E-01
58  5.7000000000000E-01 -8.1883748899559E-01  1.8811203280087E+00  9.5080331976976E-01
59  5.8000000000000E-01 -8.4931863472047E-01  1.7921847451249E+00  1.0035696198556E+00
60  5.9000000000000E-01 -8.6862722064493E-01  1.6834404620699E+00  1.0535748183265E+00
61  6.0000000000000E-01 -8.7709328379526E-01  1.5562680036518E+00  1.1005834120959E+00
62  6.1000000000000E-01 -8.7523128086909E-01  1.4124999845001E+00  1.1444803226895E+00
63  6.2000000000000E-01 -8.6372265933752E-01  1.2543697780252E+00  1.1852652062330E+00
64  6.3000000000000E-01 -8.4339415137253E-01  1.0844478302556E+00  1.2230424271647E+00
65  6.4000000000000E-01 -8.1519258547891E-01  9.0556796840770E-01  1.2580071715034E+00
66  6.5000000000000E-01 -7.8015711614712E-01  7.2074637953390E-01  1.2904283115135E+00
67  6.6000000000000E-01 -7.3938984176254E-01  5.3309615416435E-01  1.3206287450161E+00
68  6.7000000000000E-01 -6.9402581332879E-01  3.4574039665193E-01  1.3489640156405E+00
69  6.8000000000000E-01 -6.4520343074675E-01  1.6172689574857E-01  1.3758000723610E+00
70  6.9000000000000E-01 -5.9403618041350E-01 -1.6052771891105E-02  1.4014910462930E+00
71  7.0000000000000E-01 -5.4158659022889E-01 -1.8493705921928E-01  1.4263579097067E+00
72  7.1000000000000E-01 -4.8884316950286E-01 -3.4255886284640E-01  1.4506688375802E+00
73  7.2000000000000E-01 -4.3670096673412E-01 -4.8689861113556E-01  1.4746220179161E+00
74  7.3000000000000E-01 -3.8594622366996E-01 -6.1632456882606E-01  1.4983315567025E+00
75  7.4000000000000E-01 -3.3724543606748E-01 -7.2961940902516E-01  1.5218170009277E+00
76  7.5000000000000E-01 -2.9113895716275E-01 -8.2599263415977E-01  1.5449968633337E+00
77  7.6000000000000E-01 -2.4803910608954E-01 -9.0507895932628E-01  1.5676863809753E+00
78  7.7000000000000E-01 -2.0823257730201E-01 -9.6692328340040E-01  1.5895995818779E+00
79  7.8000000000000E-01 -1.7188679484631E-01 -1.0119533457035E+00  1.6103555759412E+00
80  7.9000000000000E-01 -1.3905972278489E-01 -1.0409415814019E+00  1.6294888334239E+00
81  8.0000000000000E-01 -1.0971253490206E-01 -1.0549580324398E+00  1.6464630721879E+00
82  8.1000000000000E-01 -8.3724466605414E-02 -1.0553164311879E+00  1.6606882482575E+00
83  8.2000000000000E-01 -6.0909121973724E-02 -1.0435157434756E+00  1.6715400372832E+00
84  8.3000000000000E-01 -4.1031490176210E-02 -1.0211795324932E+00  1.6783811105627E+00
85  8.4000000000000E-01 -2.3824937634494E-02 -9.8999548543834E-01  1.6805834508027E+00
86  8.5000000000000E-01 -9.0074836758067E-03 -9.5165733484299E-01  1.6775509213106E+00
87  8.6000000000000E-01  3.7032647891053E-03 -9.0781121393288E-01  1.6687412983206E+00
88  8.7000000000000E-01  1.4577053670665E-02 -8.6000822091017E-01  1.6536869992767E+00
89  8.8000000000000E-01  2.3860223008926E-02 -8.0966464404838E-01  1.6320137888644E+00
90  8.9000000000000E-01  3.1767554016910E-02 -7.5803093310534E-01  1.6034568173465E+00
91  9.0000000000000E-01  3.8476898534115E-02 -7.0617010906133E-01  1.5678734396415E+00
92  9.1000000000000E-01  4.4126637832377E-02 -6.5494590014538E-01  1.5252523754098E+00
93  9.2000000000000E-01  4.8815891772335E-02 -6.0502049359929E-01  1.4757188966519E+00
94  9.3000000000000E-01  5.2607282040716E-02 -5.5686141445952E-01  1.4195358663119E+00
95  9.4000000000000E-01  5.5531948804367E-02 -5.1075669773835E-01  1.3571005954128E+00
96  9.5000000000000E-01  5.7596431865951E-02 -4.6683721906632E-01  1.2889376338212E+00
97  9.6000000000000E-01  5.8790957529003E-02 -4.2510479846527E-01  1.2156877576333E+00
98  9.7000000000000E-01  5.9098621951745E-02 -3.8546449649572E-01  1.1380935615669E+00
99  9.8000000000000E-01  5.8504930616399E-02 -3.4775938195225E-01  1.0569822054216E+00
100  9.9000000000000E-01  5.7007140291848E-02 -3.1180596250670E-01  9.7324599786635E-01
101  1.0000000000000E+00  5.4622851970105E-02 -2.7742842760630E-01  8.8782162763191E-01
102  1.0100000000000E+00  5.1397317092253E-02 -2.4448984685233E-01  8.0166897109177E-01
103  1.0200000000000E+00  4.7408940363299E-02 -2.1291848438504E-01  7.1575051650828E-01
104  1.0300000000000E+00  4.2772485291356E-02 -1.8272741571561E-01  6.3101254970252E-01
105  1.0400000000000E+00  3.7639507394508E-02 -1.5402565139677E-01  5.4836934494692E-01
106  1.0500000000000E+00  3.2195548565511E-02 -1.2701896425807E-01  4.6869170007916E-01
107  1.0600000000000E+00  2.6653618142322E-02 -1.0199856577327E-01  3.9280124843705E-01
108  1.0700000000000E+00  2.1243455439910E-02 -7.9315664201371E-02  3.2147207450757E-01
109  1.0800000000000E+00  1.6196036797312E-02 -5.9339819260685E-02  2.5544127431819E-01
110  1.0900000000000E+00  1.1722441723792E-02 -4.2398029196848E-02  1.9543007475098E-01
111  1.1000000000000E+00  7.9793409118819E-03 -2.8673485003585E-02  1.4217274209731E-01
112  1.1100000000000E+00  4.9429893031223E-03 -1.7856020585649E-02  9.6397379641832E-02
113  1.1200000000000E+00  2.6550769609469E-03 -9.8138772027890E-03  5.8898675051601E-02
114  1.1300000000000E+00  1.1374110209021E-03 -4.4192575337126E-03  3.0317922282147E-02
115  1.1400000000000E+00  3.1589633774723E-04 -1.3559324040278E-03  1.1069334247750E-02
116  1.1500000000000E+00  2.4711368703860E-05 -1.3239253866284E-04  1.3729653536993E-03
117  1.1600000000000E+00 -7.5027360154779E-07  5.7194501901842E-06 -7.4079994121515E-05
118  1.1700000000000E+00 -4.6596300787081E-08  2.3824685764026E-07 -2.3717318405487E-06
119  1.18 -0.  0. -0.
120  1.19  0.  0.  0.
121  1.20  0.  0.  0.
122  1.21  0.  0.  0.
123  1.22  0.  0.  0.
124  1.23  0.  0.  0.
125  1.24  0.  0.  0.
126  1.25  0.  0.  0.
127  1.26  0.  0.  0.
128  1.27  0.  0.  0.
129  1.28  0.  0.  0.
130  1.29  0.  0.  0.
131  1.30  0.  0.  0.
132  1.31  0.  0.  0.
133  1.32  0.  0.  0.
134  1.33  0.  0.  0.
135  1.34  0.  0.  0.
136  1.35  0.  0.  0.
137  1.36  0.  0.  0.
138  1.37  0.  0.  0.
139  1.38  0.  0.  0.
140  1.39  0.  0.  0.
141  1.40  0.  0.  0.
142  1.41  0.  0.  0.
143  1.42  0.  0.  0.
144  1.43  0.  0.  0.
145  1.44  0.  0.  0.
146  1.45  0.  0.  0.
147  1.46  0.  0.  0.
148  1.47  0.  0.  0.
149  1.48  0.  0.  0.
150  1.49  0.  0.  0.
151  1.50  0.  0.  0.
152  1.51  0.  0.  0.
153  1.52  0.  0.  0.
154  1.53  0.  0.  0.
155  1.54  0.  0.  0.
156  1.55  0.  0.  0.
157  1.56  0.  0.  0.
158  1.57  0.  0.  0.
159  1.58  0.  0.  0.
160  1.59  0.  0.  0.
161  1.60  0.  0.  0.
162  1.61  0.  0.  0.
163  1.62  0.  0.  0.
164  1.63  0.  0.  0.
165  1.64  0.  0.  0.
166  1.65  0.  0.  0.
167  1.66  0.  0.  0.
168  1.67  0.  0.  0.
169  1.68  0.  0.  0.
170  1.69  0.  0.  0.
171  1.70  0.  0.  0.
172  1.71  0.  0.  0.
173  1.72  0.  0.  0.
174  1.73  0.  0.  0.
175  1.74  0.  0.  0.
176  1.75  0.  0.  0.
177  1.76  0.  0.  0.
178  1.77  0.  0.  0.
179  1.78  0.  0.  0.
180  1.79  0.  0.  0.
181  1.80  0.  0.  0.
182  1.81  0.  0.  0.
183  1.82  0.  0.  0.
184  1.83  0.  0.  0.
185  1.84  0.  0.  0.
186  1.85  0.  0.  0.
187  1.86  0.  0.  0.
188  1.87  0.  0.  0.
189  1.88  0.  0.  0.
190  1.89  0.  0.  0.
191  1.90  0.  0.  0.
192  1.91  0.  0.  0.
193  1.92  0.  0.  0.
194  1.93  0.  0.  0.
195  1.94  0.  0.  0.
196  1.95  0.  0.  0.
197  1.96  0.  0.  0.
198  1.97  0.  0.  0.
199  1.98  0.  0.  0.
200  1.99  0.  0.  0.
201  2.00  0.  0.  0.
202  2.01  0.  0.  0.
203  2.02  0.  0.  0.
204  2.03  0.  0.  0.
205  2.04  0.  0.  0.
206  2.05  0.  0.  0.
207  2.06  0.  0.  0.
208  2.07  0.  0.  0.
209  2.08  0.  0.  0.
210  2.09  0.  0.  0.
211  2.10  0.  0.  0.
212  2.11  0.  0.  0.
213  2.12  0.  0.  0.
214  2.13  0.  0.  0.
215  2.14  0.  0.  0.
216  2.15  0.  0.  0.
217  2.16  0.  0.  0.
218  2.17  0.  0.  0.
219  2.18  0.  0.  0.
220  2.19  0.  0.  0.
221  2.20  0.  0.  0.
222  2.21  0.  0.  0.
223  2.22  0.  0.  0.
224  2.23  0.  0.  0.
225  2.24  0.  0.  0.
226  2.25  0.  0.  0.
227  2.26  0.  0.  0.
228  2.27  0.  0.  0.
229  2.28  0.  0.  0.
230  2.29  0.  0.  0.
231  2.30  0.  0.  0.
232  2.31  0.  0.  0.
233  2.32  0.  0.  0.
234  2.33  0.  0.  0.
235  2.34  0.  0.  0.
236  2.35  0.  0.  0.
237  2.36  0.  0.  0.
238  2.37  0.  0.  0.
239  2.38  0.  0.  0.
240  2.39  0.  0.  0.
241  2.40  0.  0.  0.
242  2.41  0.  0.  0.
243  2.42  0.  0.  0.
244  2.43  0.  0.  0.
245  2.44  0.  0.  0.
246  2.45  0.  0.  0.
247  2.46  0.  0.  0.
248  2.47  0.  0.  0.
249  2.48  0.  0.  0.
250  2.49  0.  0.  0.
251  2.50  0.  0.  0.
252  2.51  0.  0.  0.
253  2.52  0.  0.  0.
254  2.53  0.  0.  0.
255  2.54  0.  0.  0.
256  2.55  0.  0.  0.
257  2.56  0.  0.  0.
258  2.57  0.  0.  0.
259  2.58  0.  0.  0.
260  2.59  0.  0.  0.
261  2.60  0.  0.  0.
262  2.61  0.  0.  0.
263  2.62  0.  0.  0.
264  2.63  0.  0.  0.
265  2.64  0.  0.  0.
266  2.65  0.  0.  0.
267  2.66  0.  0.  0.
268  2.67  0.  0.  0.
269  2.68  0.  0.  0.
270  2.69  0.  0.  0.
271  2.70  0.  0.  0.
272  2.71  0.  0.  0.
273  2.72  0.  0.  0.
274  2.73  0.  0.  0.
275  2.74  0.  0.  0.
276  2.75  0.  0.  0.
277  2.76  0.  0.  0.
278  2.77  0.  0.  0.
279  2.78  0.  0.  0.
280  2.79  0.  0.  0.
281  2.80  0.  0.  0.
282  2.81  0.  0.  0.
283  2.82  0.  0.  0.
284  2.83  0.  0.  0.
285  2.84  0.  0.  0.
286  2.85  0.  0.  0.
287  2.86  0.  0.  0.
288  2.87  0.  0.  0.
289  2.88  0.  0.  0.
290  2.89  0.  0.  0.
291  2.90  0.  0.  0.
292  2.91  0.  0.  0.
293  2.92  0.  0.  0.
294  2.93  0.  0.  0.
295  2.94  0.  0.  0.
296  2.95  0.  0.  0.
297  2.96  0.  0.  0.
298  2.97  0.  0.  0.
299  2.98  0.  0.  0.
300  2.99  0.  0.  0.
301  3.00  0.  0.  0.
302  3.01  0.  0.  0.
303  3.02  0.  0.  0.
304  3.03  0.  0.  0.
305  3.04  0.  0.  0.
306  3.05  0.  0.  0.
307  3.06  0.  0.  0.
308  3.07  0.  0.  0.
309  3.08  0.  0.  0.
310  3.09  0.  0.  0.
311  3.10  0.  0.  0.
312  3.11  0.  0.  0.
313  3.12  0.  0.  0.
314  3.13  0.  0.  0.
315  3.14  0.  0.  0.
316  3.15  0.  0.  0.
317  3.16  0.  0.  0.
318  3.17  0.  0.  0.
319  3.18  0.  0.  0.
320  3.19  0.  0.  0.
321  3.20  0.  0.  0.
322  3.21  0.  0.  0.
323  3.22  0.  0.  0.
324  3.23  0.  0.  0.
325  3.24  0.  0.  0.
326  3.25  0.  0.  0.
327  3.26  0.  0.  0.
328  3.27  0.  0.  0.
329  3.28  0.  0.  0.
330  3.29  0.  0.  0.
331  3.30  0.  0.  0.
332  3.31  0.  0.  0.
333  3.32  0.  0.  0.
334  3.33  0.  0.  0.
335  3.34  0.  0.  0.
336  3.35  0.  0.  0.
337  3.36  0.  0.  0.
338  3.37  0.  0.  0.
339  3.38  0.  0.  0.
340  3.39  0.  0.  0.
341  3.40  0.  0.  0.
342  3.41  0.  0.  0.
343  3.42  0.  0.  0.
344  3.43  0.  0.  0.
345  3.44  0.  0.  0.
346  3.45  0.  0.  0.
347  3.46  0.  0.  0.
348  3.47  0.  0.  0.
349  3.48  0.  0.  0.
350  3.49  0.  0.  0.
351  3.50  0.  0.  0.
352  3.51  0.  0.  0.
353  3.52  0.  0.  0.
354  3.53  0.  0.  0.
355  3.54  0.  0.  0.
356  3.55  0.  0.  0.
357  3.56  0.  0.  0.
358  3.57  0.  0.  0.
359  3.58  0.  0.  0.
360  3.59  0.  0.  0.
361  3.60  0.  0.  0.
362  3.61  0.  0.  0.
363  3.62  0.  0.  0.
364  3.63  0.  0.  0.
365  3.64  0.  0.  0.
366  3.65  0.  0.  0.
367  3.66  0.  0.  0.
368  3.67  0.  0.  0.
369  3.68  0.  0.  0.
370  3.69  0.  0.  0.
371  3.70  0.  0.  0.
372  3.71  0.  0.  0.
373  3.72  0.  0.  0.
374  3.73  0.  0.  0.
375  3.74  0.  0.  0.
376  3.75  0.  0.  0.
377  3.76  0.  0.  0.
378  3.77  0.  0.  0.
379  3.78  0.  0.  0.
380  3.79  0.  0.  0.
381  3.80  0.  0.  0.
382  3.81  0.  0.  0.
383  3.82  0.  0.  0.
384  3.83  0.  0.  0.
385  3.84  0.  0.  0.
386  3.85  0.  0.  0.
387  3.86  0.  0.  0.
388  3.87  0.  0.  0.
389  3.88  0.  0.  0.
390  3.89  0.  0.  0.
391  3.90  0.  0.  0.
392  3.91  0.  0.  0.
393  3.92  0.  0.  0.
394  3.93  0.  0.  0.
395  3.94  0.  0.  0.
396  3.95  0.  0.  0.
397  3.96  0.  0.  0.
398  3.97  0.  0.  0.
399  3.98  0.  0.  0.
400  3.99  0.  0.  0.
401  4.00  0.  0.  0.
402  4.01  0.  0.  0.
403  4.02  0.  0.  0.
404  4.03  0.  0.  0.
405  4.04  0.  0.  0.
406  4.05  0.  0.  0.
407  4.06  0.  0.  0.
408  4.07  0.  0.  0.
409  4.08  0.  0.  0.
410  4.09  0.  0.  0.
411  4.10  0.  0.  0.
412  4.11  0.  0.  0.
413  4.12  0.  0.  0.
414  4.13  0.  0.  0.
415  4.14  0.  0.  0.
416  4.15  0.  0.  0.
417  4.16  0.  0.  0.
418  4.17  0.  0.  0.
419  4.18  0.  0.  0.
420  4.19  0.  0.  0.
421  4.20  0.  0.  0.
422  4.21  0.  0.  0.
423  4.22  0.  0.  0.
424  4.23  0.  0.  0.
425  4.24  0.  0.  0.
426  4.25  0.  0.  0.
427  4.26  0.  0.  0.
428  4.27  0.  0.  0.
429  4.28  0.  0.  0.
430  4.29  0.  0.  0.
431  4.30  0.  0.  0.
432  4.31  0.  0.  0.
433  4.32  0.  0.  0.
434  4.33  0.  0.  0.
435  4.34  0.  0.  0.
436  4.35  0.  0.  0.
437  4.36  0.  0.  0.
438  4.37  0.  0.  0.
439  4.38  0.  0.  0.
440  4.39  0.  0.  0.
441  4.40  0.  0.  0.
442  4.41  0.  0.  0.
443  4.42  0.  0.  0.
444  4.43  0.  0.  0.
445  4.44  0.  0.  0.
446  4.45  0.  0.  0.
447  4.46  0.  0.  0.
448  4.47  0.  0.  0.
449  4.48  0.  0.  0.
450  4.49  0.  0.  0.
451  4.50  0.  0.  0.
452  4.51  0.  0.  0.
453  4.52  0.  0.  0.
454  4.53  0.  0.  0.
455  4.54  0.  0.  0.
456  4.55  0.  0.  0.
457  4.56  0.  0.  0.
458  4.57  0.  0.  0.
459  4.58  0.  0.  0.
460  4.59  0.  0.  0.
461  4.60  0.  0.  0.
462  4.61  0.  0.  0.
463  4.62  0.  0.  0.
464  4.63  0.  0.  0.
465  4.64  0.  0.  0.
466  4.65  0.  0.  0.
467  4.66  0.  0.  0.
468  4.67  0.  0.  0.
469  4.68  0.  0.  0.
470  4.69  0.  0.  0.
471  4.70  0.  0.  0.
472  4.71  0.  0.  0.
473  4.72  0.  0.  0.
474  4.73  0.  0.  0.
475  4.74  0.  0.  0.
476  4.75  0.  0.  0.
477  4.76  0.  0.  0.
478  4.77  0.  0.  0.
479  4.78  0.  0.  0.
480  4.79  0.  0.  0.
481  4.80  0.  0.  0.
482  4.81  0.  0.  0.
483  4.82  0.  0.  0.
484  4.83  0.  0.  0.
485  4.84  0.  0.  0.
486  4.85  0.  0.  0.
487  4.86  0.  0.  0.
488  4.87  0.  0.  0.
489  4.88  0.  0.  0.
490  4.89  0.  0.  0.
491  4.90  0.  0.  0.
492  4.91  0.  0.  0.
493  4.92  0.  0.  0.
494  4.93  0.  0.  0.
495  4.94  0.  0.  0.
496  4.95  0.  0.  0.
497  4.96  0.  0.  0.
498  4.97  0.  0.  0.
499  4.98  0.  0.  0.
500  4.99  0.  0.  0.
501  5.00  0.  0.  0.
502  5.01  0.  0.  0.
503  5.02  0.  0.  0.
504  5.03  0.  0.  0.
505  5.04  0.  0.  0.
506  5.05  0.  0.  0.
507  5.06  0.  0.  0.
508  5.07  0.  0.  0.
509  5.08  0.  0.  0.
510  5.09  0.  0.  0.
511  5.10  0.  0.  0.
512  5.11  0.  0.  0.
513  5.12  0.  0.  0.
514  5.13  0.  0.  0.
515  5.14  0.  0.  0.
516  5.15  0.  0.  0.
517  5.16  0.  0.  0.
518  5.17  0.  0.  0.
519  5.18  0.  0.  0.
520  5.19  0.  0.  0.
521  5.20  0.  0.  0.
522  5.21  0.  0.  0.
523  5.22  0.  0.  0.
524  5.23  0.  0.  0.
525  5.24  0.  0.  0.
526  5.25  0.  0.  0.
527  5.26  0.  0.  0.
528  5.27  0.  0.  0.
529  5.28  0.  0.  0.
530  5.29  0.  0.  0.
531  5.30  0.  0.  0.
532  5.31  0.  0.  0.
533  5.32  0.  0.  0.
534  5.33  0.  0.  0.
535  5.34  0.  0.  0.
536  5.35  0.  0.  0.
537  5.36  0.  0.  0.
538  5.37  0.  0.  0.
539  5.38  0.  0.  0.
540  5.39  0.  0.  0.
541  5.40  0.  0.  0.
542  5.41  0.  0.  0.
543  5.42  0.  0.  0.
544  5.43  0.  0.  0.
545  5.44  0.  0.  0.
546  5.45  0.  0.  0.
547  5.46  0.  0.  0.
548  5.47  0.  0.  0.
549  5.48  0.  0.  0.
550  5.49  0.  0.  0.
551  5.50  0.  0.  0.
552  5.51  0.  0.  0.
553  5.52  0.  0.  0.
554  5.53  0.  0.  0.
555  5.54  0.  0.  0.
556  5.55  0.  0.  0.
557  5.56  0.  0.  0.
558  5.57  0.  0.  0.
559  5.58  0.  0.  0.
560  5.59  0.  0.  0.
561  5.60  0.  0.  0.
562  5.61  0.  0.  0.
563  5.62  0.  0.  0.
564  5.63  0.  0.  0.
565  5.64  0.  0.  0.
566  5.65  0.  0.  0.
567  5.66  0.  0.  0.
568  5.67  0.  0.  0.
569  5.68  0.  0.  0.
570  5.69  0.  0.  0.
571  5.70  0.  0.  0.
572  5.71  0.  0.  0.
573  5.72  0.  0.  0.
574  5.73  0.  0.  0.
575  5.74  0.  0.  0.
576  5.75  0.  0.  0.
577  5.76  0.  0.  0.
578  5.77  0.  0.  0.
579  5.78  0.  0.  0.
580  5.79  0.  0.  0.
581  5.80  0.  0.  0.
582  5.81  0.  0.  0.
583  5.82  0.  0.  0.
584  5.83  0.  0.  0.
585  5.84  0.  0.  0.
586  5.85  0.  0.  0.
587  5.86  0.  0.  0.
588  5.87  0.  0.  0.
589  5.88  0.  0.  0.
590  5.89  0.  0.  0.
591  5.90  0.  0.  0.
592  5.91  0.  0.  0.
593  5.92  0.  0.  0.
594  5.93  0.  0.  0.
595  5.94  0.  0.  0.
596  5.95  0.  0.  0.
597  5.96  0.  0.  0.
598  5.97  0.  0.  0.
599  5.98  0.  0.  0.
600  5.99  0.  0.  0.
1                         9.0254479618551E+00 -4.1387388598757E-01
1  0.0000000000000E+00 -2.4759504002603E-08 -1.6588257997427E-07
2  1.0000000000000E-02  3.4378499708277E-03 -5.0065016222414E-04
3  2.0000000000000E-02  1.3734713449996E-02 -1.9419739578045E-03
4  3.0000000000000E-02  3.0840250090896E-02 -4.1449524995723E-03
5  4.0000000000000E-02  5.4669640466014E-02 -6.8206403231382E-03
6  5.0000000000000E-02  8.5102269962705E-02 -9.5838862072977E-03
7  6.0000000000000E-02  1.2198000796753E-01 -1.1971742259181E-02
8  7.0000000000000E-02  1.6510519807705E-01 -1.3465798701730E-02
9  8.0000000000000E-02  2.1423849983246E-01 -1.3517515918516E-02
10  9.0000000000000E-02  2.6909674143502E-01 -1.1575495720368E-02
11  1.0000000000000E-01  3.2935095522973E-01 -7.1135456828926E-03
12  1.1000000000000E-01  3.9462477286742E-01  3.4165261517882E-04
13  1.2000000000000E-01  4.6449335466302E-01  1.1184456630384E-02
14  1.3000000000000E-01  5.3848301773977E-01  2.5706891211303E-02
15  1.4000000000000E-01  6.1607171035235E-01  4.4079029702193E-02
16  1.5000000000000E-01  6.9669045586244E-01  6.6334026542050E-02
17  1.6000000000000E-01  7.7972586000795E-01  9.2358524403140E-02
18  1.7000000000000E-01  8.6452374040325E-01  1.2188895267001E-01
19  1.8000000000000E-01  9.5039389887170E-01  1.5451400498855E-01
20  1.9000000000000E-01  1.0366160166358E+00  1.8968334035570E-01
21  2.0000000000000E-01  1.1224466110684E+00  2.2672230404011E-01
22  2.1000000000000E-01  1.2071269521811E+00  2.6485222106380E-01
23  2.2000000000000E-01  1.2898917988323E+00  3.0321558549927E-01
24  2.3000000000000E-01  1.3699787802374E+00  3.4090526247682E-01
25  2.4000000000000E-01  1.4466382191116E+00  3.7699664480469E-01
26  2.5000000000000E-01  1.5191431698471E+00  4.1058156963670E-01
27  2.6000000000000E-01  1.5867994294755E+00  4.4080270845524E-01
28  2.7000000000000E-01  1.6489552715006E+00  4.6688709993781E-01
29  2.8000000000000E-01  1.7050106534305E+00  4.8817750241986E-01
30  2.9000000000000E-01  1.7544256580940E+00  5.0416030113204E-01
31  3.0000000000000E-01  1.7967279464210E+00  5.1448881370744E-01
32  3.1000000000000E-01  1.8315190247775E+00  5.1900099224357E-01
33  3.2000000000000E-01  1.8584791623934E+00  5.1773071626387E-01
34  3.3000000000000E-01  1.8773708328374E+00  5.1091210141605E-01
35  3.4000000000000E-01  1.8880405965792E+00  4.9897650541089E-01
36  3.5000000000000E-01  1.8904193879649E+00  4.8254218617149E-01
37  3.6000000000000E-01  1.8845212177941E+00  4.6239684726482E-01
38  3.7000000000000E-01  1.8704403504303E+00  4.3947358184606E-01
39  3.8000000000000E-01  1.8483470603072E+00  4.1482098795746E-01
40  3.9000000000000E-01  1.8184821151372E+00  3.8956846486218E-01
41  4.0000000000000E-01  1.7811501705424E+00  3.6488790269571E-01
42  4.1000000000000E-01  1.7367122918357E+00  3.4195313776228E-01
43  4.2000000000000E-01  1.6855778421099E+00  3.2189865643724E-01
44  4.3000000000000E-01  1.6281959907715E+00  3.0577908675817E-01
45  4.4000000000000E-01  1.5650471025787E+00  2.9453101527982E-01
46  4.5000000000000E-01  1.4966342638730E+00  2.8893860663612E-01
47  4.6000000000000E-01  1.4234751901070E+00  2.8960438571453E-01
48  4.7000000000000E-01  1.3460947374057E+00  2.9692637081797E-01
49  4.8000000000000E-01  1.2650182115241E+00  3.1108252619265E-01
50  4.9000000000000E-01  1.1807656312577E+00  3.3202324130300E-01
51  5.0000000000000E-01  1.0938470614650E+00  3.5947225139751E-01
52  5.1000000000000E-01  1.0047590849646E+00  3.9293609976955E-01
53  5.2000000000000E-01  9.1398243439272E-01  4.3172191821851E-01
54  5.3000000000000E-01  8.2198075651983E-01  4.7496298069161E-01
55  5.4000000000000E-01  7.2920043439433E-01  5.2165117820110E-01
56  5.5000000000000E-01  6.3607134886150E-01  5.7067528281559E-01
57  5.6000000000000E-01  5.4300842223483E-01  6.2086362597611E-01
58  5.7000000000000E-01  4.5041375474100E-01  6.7102962153457E-01
59  5.8000000000000E-01  3.5867914014512E-01  7.2001842507184E-01
60  5.9000000000000E-01  2.6818873172695E-01  7.6675294458478E-01
61  6.0000000000000E-01  1.7932162421930E-01  8.1027740764235E-01
62  6.1000000000000E-01  9.2454121768929E-02  8.4979674826954E-01
63  6.2000000000000E-01  7.9614763805831E-03  8.8471020224024E-01
64  6.3000000000000E-01 -7.3781094788820E-02  9.1463768869170E-01
65  6.4000000000000E-01 -1.5239827233509E-01  9.3943780308280E-01
66  6.5000000000000E-01 -2.2751549667817E-01  9.5921654325945E-01
67  6.6000000000000E-01 -2.9876090218183E-01  9.7432622650470E-01
68  6.7000000000000E-01 -3.6576834587223E-01  9.8535441896294E-01
69  6.8000000000000E-01 -4.2818150068058E-01  9.9310307653686E-01
70  6.9000000000000E-01 -4.8565893029497E-01  9.9855847427290E-01
71  7.0000000000000E-01 -5.3788001178092E-01  1.0028528650820E+00
72  7.1000000000000E-01 -5.8455152520435E-01  1.0072191444530E+00
73  7.2000000000000E-01 -6.2541468854810E-01  1.0129400923540E+00
74  7.3000000000000E-01 -6.6025238302765E-01  1.0212940049678E+00
75  7.4000000000000E-01 -6.8889629000332E-01  1.0334987071520E+00
76  7.5000000000000E-01 -7.1123364723663E-01  1.0506560436730E+00
77  7.6000000000000E-01 -7.2721333005347E-01  1.0736989779882E+00
78  7.7000000000000E-01 -7.3685097244063E-01  1.1033433790345E+00
79  7.8000000000000E-01 -7.4023286416097E-01  1.1400464494718E+00
80  7.9000000000000E-01 -7.3751839212055E-01  1.1839735463950E+00
81  8.0000000000000E-01 -7.2894083652876E-01  1.2349748738005E+00
82  8.1000000000000E-01 -7.1480638350625E-01  1.2925731939241E+00
83  8.2000000000000E-01 -6.9549127401552E-01  1.3559633231752E+00
84  8.3000000000000E-01 -6.7143707229692E-01  1.4240237610215E+00
85  8.4000000000000E-01 -6.4314410314132E-01  1.4953403616409E+00
86  8.5000000000000E-01 -6.1116317391439E-01  1.5682415142912E+00
87  8.6000000000000E-01 -5.7608576179043E-01  1.6408438654844E+00
88  8.7000000000000E-01 -5.3853290670054E-01  1.7111072103814E+00
89  8.8000000000000E-01 -4.9914310370399E-01  1.7768968178891E+00
90  8.9000000000000E-01 -4.5855953270046E-01  1.8360511479906E+00
91  9.0000000000000E-01 -4.1741699673739E-01  1.8864526833744E+00
92  9.1000000000000E-01 -3.7632896109663E-01  1.9260994407203E+00
93  9.2000000000000E-01 -3.3587509273644E-01  1.9531746577175E+00
94  9.3000000000000E-01 -2.9658969282949E-01  1.9661121748213E+00
95  9.4000000000000E-01 -2.5895139386089E-01  1.9636551476310E+00
96  9.5000000000000E-01 -2.2337445730154E-01  1.9449059351591E+00
97  9.6000000000000E-01 -1.9020195898265E-01  1.9093653067370E+00
98  9.7000000000000E-01 -1.5970108818033E-01  1.8569594883227E+00
99  9.8000000000000E-01 -1.3206071465590E-01  1.7880540175651E+00
100  9.9000000000000E-01 -1.0739129751356E-01  1.7034538832996E+00
101  1.0000000000000E+00 -8.5727122905789E-02  1.6043899753491E+00
102  1.0100000000000E+00 -6.7030766909604E-02  1.4924924481450E+00
103  1.0200000000000E+00 -5.1199587905499E-02  1.3697521901347E+00
104  1.0300000000000E+00 -3.8073962182034E-02  1.2384721730475E+00
105  1.0400000000000E+00 -2.7446889859143E-02  1.1012110140729E+00
106  1.0500000000000E+00 -1.9074518218627E-02  9.6072160270158E-01
107  1.0600000000000E+00 -1.2687058276203E-02  8.1988810846135E-01
108  1.0700000000000E+00 -7.9995100413763E-03  6.8166508212563E-01
109  1.0800000000000E+00 -4.7215527586201E-03  5.4902272595926E-01
110  1.0900000000000E+00 -2.5660218824896E-03  4.2490222557112E-01
111  1.1000000000000E+00 -1.2582196833652E-03  3.1217362922479E-01
112  1.1100000000000E+00 -5.7917321574916E-04  2.1344914251312E-01
113  1.1200000000000E+00 -2.8024304321179E-04  1.3132718097187E-01
114  1.1300000000000E+00 -1.5412986815770E-04  6.7974228142316E-02
115  1.1400000000000E+00 -7.7443121859260E-05  2.4919461622817E-02
116  1.1500000000000E+00 -1.4467961412877E-05  3.0990636132801E-03
117  1.1600000000000E+00  9.9522520607534E-07 -1.6750626888287E-04
118  1.1700000000000E+00  2.3548527982682E-08 -5.3525729564442E-06
119  1.18 -0.  0.
120  1.19  0.  0.
121  1.20  0.  0.
122  1.21  0.  0.
123  1.22  0.  0.
124  1.23  0.  0.
125  1.24  0.  0.
126  1.25  0.  0.
127  1.26  0.  0.
128  1.27  0.  0.
129  1.28  0.  0.
130  1.29  0.  0.
131  1.30  0.  0.
132  1.31  0.  0.
133  1.32  0.  0.
134  1.33  0.  0.
135  1.34  0.  0.
136  1.35  0.  0.
137  1.36  0.  0.
138  1.37  0.  0.
139  1.38  0.  0.
140  1.39  0.  0.
141  1.40  0.  0.
142  1.41  0.  0.
143  1.42  0.  0.
144  1.43  0.  0.
145  1.44  0.  0.
146  1.45  0.  0.
147  1.46  0.  0.
148  1.47  0.  0.
149  1.48  0.  0.
150  1.49  0.  0.
151  1.50  0.  0.
152  1.51  0.  0.
153  1.52  0.  0.
154  1.53  0.  0.
155  1.54  0.  0.
156  1.55  0.  0.
157  1.56  0.  0.
158  1.57  0.  0.
159  1.58  0.  0.
160  1.59  0.  0.
161  1.60  0.  0.
162  1.61  0.  0.
163  1.62  0.  0.
164  1.63  0.  0.
165  1.64  0.  0.