Hs    ONCVPSP-4.0.1  r_core=   1.10501   1.10501   1.10501   1.20154
108.0000     48.0000      220206    zatom,zion,pspd
8      11   3     4   600     0    pspcod,pspxc,lmax,lloc,mmax,r2well
5.99000000  5.00000000  0.00000000    rchrg fchrg qchrg
3     2     2     2     0    nproj
1     1           extension_switch
0                        -1.3198633262845E+01  1.0865655167917E+01 -2.9952862804691E-01
1  0.0000000000000E+00 -3.1158808866394E-10  1.6503599598039E-08 -4.4045719155283E-08
2  1.0000000000000E-02  7.1802709131024E-02  1.8134195810652E-01 -2.4711115146884E-02
3  2.0000000000000E-02  1.4346628436018E-01  3.6095960826008E-01 -4.9002534473265E-02
4  3.0000000000000E-02  2.1485177602102E-01  5.3714591432848E-01 -7.2465231170433E-02
5  4.0000000000000E-02  2.8582060339400E-01  7.0822827953651E-01 -9.4711436714292E-02
6  5.0000000000000E-02  3.5623474046582E-01  8.7258550024304E-01 -1.1538505635195E-01
7  6.0000000000000E-02  4.2595690349258E-01  1.0286643865453E+00 -1.3417178951075E-01
8  7.0000000000000E-02  4.9485074138079E-01  1.1749959164647E+00 -1.5080879631403E-01
9  8.0000000000000E-02  5.6278103021181E-01  1.3102107739657E+00 -1.6509370734196E-01
10  9.0000000000000E-02  6.2961387357490E-01  1.4330541033966E+00 -1.7689272782577E-01
11  1.0000000000000E-01  6.9521691071159E-01  1.5423992958392E+00 -1.8614754476501E-01
12  1.1000000000000E-01  7.5945953477982E-01  1.6372606081271E+00 -1.9288071135509E-01
13  1.2000000000000E-01  8.2221312378655E-01  1.7168044047413E+00 -1.9719916276396E-01
14  1.3000000000000E-01  8.8335128688480E-01  1.7803588081051E+00 -1.9929551529469E-01
15  1.4000000000000E-01  9.4275012875603E-01  1.8274215454212E+00 -1.9944682098791E-01
16  1.5000000000000E-01  1.0002885346822E+00  1.8576657912449E+00 -1.9801049421011E-01
17  1.6000000000000E-01  1.0558484786362E+00  1.8709438251821E+00 -1.9541719672267E-01
18  1.7000000000000E-01  1.1093153562787E+00  1.8672883536733E+00 -1.9216056248592E-01
19  1.8000000000000E-01  1.1605783441421E+00  1.8469113835092E+00 -1.8878376067125E-01
20  1.9000000000000E-01  1.2095307855182E+00  1.8102005817349E+00 -1.8586303102328E-01
21  2.0000000000000E-01  1.2560706026660E+00  1.7577131106449E+00 -1.8398847425190E-01
22  2.1000000000000E-01  1.3001007339341E+00  1.6901669859128E+00 -1.8374253467596E-01
23  2.2000000000000E-01  1.3415295933008E+00  1.6084300684017E+00 -1.8567676499511E-01
24  2.3000000000000E-01  1.3802715486897E+00  1.5135068634477E+00 -1.9028760533808E-01
25  2.4000000000000E-01  1.4162474142810E+00  1.4065233627916E+00 -1.9799203195347E-01
26  2.5000000000000E-01  1.4493849509459E+00  1.2887102211870E+00 -2.0910402670433E-01
27  2.6000000000000E-01  1.4796193679264E+00  1.1613846094500E+00 -2.2381287931432E-01
28  2.7000000000000E-01  1.5068938180227E+00  1.0259311259418E+00 -2.4216435375105E-01
29  2.8000000000000E-01  1.5311598778576E+00  8.8378217713125E-01 -2.6404572355365E-01
30  2.9000000000000E-01  1.5523780043157E+00  7.3639825334287E-01 -2.8917560566373E-01
31  3.0000000000000E-01  1.5705179580214E+00  5.8524852696777E-01 -3.1709939803722E-01
32  3.1000000000000E-01  1.5855591847471E+00  4.3179218680657E-01 -3.4719095507881E-01
33  3.2000000000000E-01  1.5974911459408E+00  2.7746089398367E-01 -3.7866092130233E-01
34  3.3000000000000E-01  1.6063135901352E+00  1.2364270282870E-01 -4.1057189454773E-01
35  3.4000000000000E-01  1.6120367578252E+00 -2.8332264285066E-02 -4.4186031470679E-01
36  3.5000000000000E-01  1.6146815134749E+00 -1.7720416388671E-01 -4.7136468323317E-01
37  3.6000000000000E-01  1.6142793995864E+00 -3.2179364839089E-01 -4.9785942514096E-01
38  3.7000000000000E-01  1.6108726092132E+00 -4.6100987871197E-01 -5.2009342204290E-01
39  3.8000000000000E-01  1.6045138748671E+00 -5.9385633704990E-01 -5.3683198561999E-01
40  3.9000000000000E-01  1.5952662734068E+00 -7.1943452158202E-01 -5.4690081901154E-01
41  4.0000000000000E-01  1.5832029481570E+00 -8.3694567689641E-01 -5.4923034120682E-01
42  4.1000000000000E-01  1.5684067511216E+00 -9.4569077784573E-01 -5.4289863724497E-01
43  4.2000000000000E-01  1.5509698096835E+00 -1.0450690372466E+00 -5.2717125330859E-01
44  4.3000000000000E-01  1.5309930235671E+00 -1.1345752471157E+00 -5.0153608636402E-01
45  4.4000000000000E-01  1.5085854990342E+00 -1.2137962871259E+00 -4.6573172548775E-01
46  4.5000000000000E-01  1.4838639282570E+00 -1.2824071415568E+00 -4.1976778571258E-01
47  4.6000000000000E-01  1.4569519225273E+00 -1.3401667568271E+00 -3.6393603093540E-01
48  4.7000000000000E-01  1.4279793084095E+00 -1.3869140461151E+00 -2.9881140253572E-01
49  4.8000000000000E-01  1.3970813961097E+00 -1.4225643067652E+00 -2.2524244399797E-01
50  4.9000000000000E-01  1.3643982292252E+00 -1.4471062620284E+00 -1.4433102528241E-01
51  5.0000000000000E-01  1.3300738246692E+00 -1.4605998737364E+00 -5.7401707827886E-02
52  5.1000000000000E-01  1.2942554109595E+00 -1.4631749998734E+00  3.4038465969441E-02
53  5.2000000000000E-01  1.2570926722504E+00 -1.4550308941821E+00  1.2834854507846E-01
54  5.3000000000000E-01  1.2187370045176E+00 -1.4364364677235E+00  2.2380899255150E-01
55  5.4000000000000E-01  1.1793407892232E+00 -1.4077311585607E+00  3.1868180025675E-01
56  5.5000000000000E-01  1.1390566886366E+00 -1.3693261892493E+00  4.1127315802253E-01
57  5.6000000000000E-01  1.0980369658328E+00 -1.3217059361246E+00  4.9999624290682E-01
58  5.7000000000000E-01  1.0564328312671E+00 -1.2654290925639E+00  5.8343159194508E-01
59  5.8000000000000E-01  1.0143938167981E+00 -1.2011292829894E+00  6.6038252184815E-01
60  5.9000000000000E-01  9.7206717713085E-01 -1.1295147771621E+00  7.2992316576578E-01
61  6.0000000000000E-01  9.2959731792585E-01 -1.0513669662783E+00  7.9143690999979E-01
62  6.1000000000000E-01  8.8712524928340E-01 -9.6753729362638E-01  8.4464332747115E-01
63  6.2000000000000E-01  8.4478806299861E-01 -8.7894238229125E-01  8.8961211031451E-01
64  6.3000000000000E-01  8.0271843188621E-01 -7.8655716891487E-01  9.2676298741996E-01
65  6.4000000000000E-01  7.6104412960100E-01 -6.9140593330310E-01  9.5685115647384E-01
66  6.5000000000000E-01  7.1988756971320E-01 -5.9455120544395E-01  9.8093834328181E-01
67  6.6000000000000E-01  6.7936536331645E-01 -4.9708063037802E-01  1.0003502006736E+00
68  6.7000000000000E-01  6.3958789511690E-01 -4.0009197300773E-01  1.0166213504353E+00
69  6.8000000000000E-01  6.0065891873744E-01 -3.0467654473235E-01  1.0314299292769E+00
70  6.9000000000000E-01  5.6267517282586E-01 -2.1190142707802E-01  1.0465239992374E+00
71  7.0000000000000E-01  5.2572602043220E-01 -1.2279094972256E-01  1.0636426012151E+00
72  7.1000000000000E-01  4.8989311496970E-01 -3.8307947297612E-02  1.0844345471534E+00
73  7.2000000000000E-01  4.5525009684656E-01  4.0664632546070E-02  1.1103782452060E+00
74  7.3000000000000E-01  4.2186232550704E-01  1.1334117103137E-01  1.1427059206755E+00
75  7.4000000000000E-01  3.8978665210991E-01  1.7904926888341E-01  1.1823355265795E+00
76  7.5000000000000E-01  3.5907123836620E-01  2.3724350694151E-01  1.2298134297500E+00
77  7.6000000000000E-01  3.2975542713151E-01  2.8751654538056E-01  1.2852706156649E+00
78  7.7000000000000E-01  3.0186967018502E-01  3.2960710135493E-01  1.3483946877749E+00
79  7.8000000000000E-01  2.7543551822253E-01  3.6340443771448E-01  1.4184193604423E+00
80  7.9000000000000E-01  2.5046567744899E-01  3.8894910673849E-01  1.4941324794343E+00
81  8.0000000000000E-01  2.2696413629274E-01  4.0642981851997E-01  1.5739028751330E+00
82  8.1000000000000E-01  2.0492636470356E-01  4.1617643888971E-01  1.6557255896251E+00
83  8.2000000000000E-01  1.8433958727314E-01  4.1864926122082E-01  1.7372842503262E+00
84  8.3000000000000E-01  1.6518313007093E-01  4.1442483438810E-01  1.8160286215947E+00
85  8.4000000000000E-01  1.4742883966489E-01  4.0417875977089E-01  1.8892646835023E+00
86  8.5000000000000E-01  1.3104157134706E-01  3.8866598781391E-01  1.9542539936852E+00
87  8.6000000000000E-01  1.1597974215620E-01  3.6869924404452E-01  2.0083186112877E+00
88  8.7000000000000E-01  1.0219594293614E-01  3.4512629095761E-01  2.0489475246673E+00
89  8.8000000000000E-01  8.9637602433612E-02  3.1880678203816E-01  2.0739003449510E+00
90  8.9000000000000E-01  7.8247695366810E-02  2.9058948464843E-01  2.0813040178526E+00
91  9.0000000000000E-01  6.7965485519651E-02  2.6129063798205E-01  2.0697384718864E+00
92  9.1000000000000E-01  5.8727294264480E-02  2.3167417046627E-01  2.0383074606979E+00
93  9.2000000000000E-01  5.0467284505734E-02  2.0243442886788E-01  1.9866913619611E+00
94  9.3000000000000E-01  4.3118249876934E-02  1.7418197121583E-01  1.9151793494411E+00
95  9.4000000000000E-01  3.6612399112074E-02  1.4743285100007E-01  1.8246791361971E+00
96  9.5000000000000E-01  3.0882125838643E-02  1.2260167554452E-01  1.7167033675695E+00
97  9.6000000000000E-01  2.5860754583344E-02  9.9998562506888E-02  1.5933326899258E+00
98  9.7000000000000E-01  2.1483254514916E-02  7.9829951405072E-02  1.4571564987622E+00
99  9.8000000000000E-01  1.7686913337770E-02  6.2203058488463E-02  1.3111933401169E+00
100  9.9000000000000E-01  1.4411964756122E-02  4.7133600167586E-02  1.1587938628191E+00
101  1.0000000000000E+00  1.1602164009782E-02  3.4556259233084E-02  1.0035300588525E+00
102  1.0100000000000E+00  9.2053070972041E-03  2.4337235650130E-02  8.4907524968572E-01
103  1.0200000000000E+00  7.1736904087779E-03  1.6288115386121E-02  6.9907984741842E-01
104  1.0300000000000E+00  5.4645102329910E-03  1.0180208565681E-02  5.5704831955167E-01
105  1.0400000000000E+00  4.0401844491310E-03  5.7584884097134E-03  4.2622294446677E-01
106  1.0500000000000E+00  2.8685644496623E-03  2.7541832760569E-03  3.0948011183248E-01
107  1.0600000000000E+00  1.9157833790676E-03  9.1216654717112E-04  2.0921252274020E-01
108  1.0700000000000E+00  1.1601528864348E-03 -1.5915707094478E-05  1.2728229524793E-01
109  1.0800000000000E+00  5.9461906785023E-04 -2.9980111500373E-04  6.5057465967738E-02
110  1.0900000000000E+00  2.1592160816059E-04 -2.1433486843271E-04  2.3391435106047E-02
111  1.1000000000000E+00  2.5363714886811E-05 -3.7575649109789E-05  2.7012363789340E-03
112  1.1100000000000E+00 -1.1025749421254E-06  2.0130886310522E-06 -1.1617429179620E-04
113  1.1200000000000E+00 -8.5318431399835E-08  1.2079102332266E-07 -9.1347333678016E-06
114  1.13 -0. -0.  0.
115  1.14  0.  0.  0.
116  1.15  0.  0.  0.
117  1.16  0.  0.  0.
118  1.17  0.  0.  0.
119  1.18  0.  0.  0.
120  1.19  0.  0.  0.
121  1.20  0.  0.  0.
122  1.21  0.  0.  0.
123  1.22  0.  0.  0.
124  1.23  0.  0.  0.
125  1.24  0.  0.  0.
126  1.25  0.  0.  0.
127  1.26  0.  0.  0.
128  1.27  0.  0.  0.
129  1.28  0.  0.  0.
130  1.29  0.  0.  0.
131  1.30  0.  0.  0.
132  1.31  0.  0.  0.
133  1.32  0.  0.  0.
134  1.33  0.  0.  0.
135  1.34  0.  0.  0.
136  1.35  0.  0.  0.
137  1.36  0.  0.  0.
138  1.37  0.  0.  0.
139  1.38  0.  0.  0.
140  1.39  0.  0.  0.
141  1.40  0.  0.  0.
142  1.41  0.  0.  0.
143  1.42  0.  0.  0.
144  1.43  0.  0.  0.
145  1.44  0.  0.  0.
146  1.45  0.  0.  0.
147  1.46  0.  0.  0.
148  1.47  0.  0.  0.
149  1.48  0.  0.  0.
150  1.49  0.  0.  0.
151  1.50  0.  0.  0.
152  1.51  0.  0.  0.
153  1.52  0.  0.  0.
154  1.53  0.  0.  0.
155  1.54  0.  0.  0.
156  1.55  0.  0.  0.
157  1.56  0.  0.  0.
158  1.57  0.  0.  0.
159  1.58  0.  0.  0.
160  1.59  0.  0.  0.
161  1.60  0.  0.  0.
162  1.61  0.  0.  0.
163  1.62  0.  0.  0.
164  1.63  0.  0.  0.
165  1.64  0.  0.  0.
166  1.65  0.  0.  0.
167  1.66  0.  0.  0.
168  1.67  0.  0.  0.
169  1.68  0.  0.  0.
170  1.69  0.  0.  0.
171  1.70  0.  0.  0.
172  1.71  0.  0.  0.
173  1.72  0.  0.  0.
174  1.73  0.  0.  0.
175  1.74  0.  0.  0.
176  1.75  0.  0.  0.
177  1.76  0.  0.  0.
178  1.77  0.  0.  0.
179  1.78  0.  0.  0.
180  1.79  0.  0.  0.
181  1.80  0.  0.  0.
182  1.81  0.  0.  0.
183  1.82  0.  0.  0.
184  1.83  0.  0.  0.
185  1.84  0.  0.  0.
186  1.85  0.  0.  0.
187  1.86  0.  0.  0.
188  1.87  0.  0.  0.
189  1.88  0.  0.  0.
190  1.89  0.  0.  0.
191  1.90  0.  0.  0.
192  1.91  0.  0.  0.
193  1.92  0.  0.  0.
194  1.93  0.  0.  0.
195  1.94  0.  0.  0.
196  1.95  0.  0.  0.
197  1.96  0.  0.  0.
198  1.97  0.  0.  0.
199  1.98  0.  0.  0.
200  1.99  0.  0.  0.
201  2.00  0.  0.  0.
202  2.01  0.  0.  0.
203  2.02  0.  0.  0.
204  2.03  0.  0.  0.
205  2.04  0.  0.  0.
206  2.05  0.  0.  0.
207  2.06  0.  0.  0.
208  2.07  0.  0.  0.
209  2.08  0.  0.  0.
210  2.09  0.  0.  0.
211  2.10  0.  0.  0.
212  2.11  0.  0.  0.
213  2.12  0.  0.  0.
214  2.13  0.  0.  0.
215  2.14  0.  0.  0.
216  2.15  0.  0.  0.
217  2.16  0.  0.  0.
218  2.17  0.  0.  0.
219  2.18  0.  0.  0.
220  2.19  0.  0.  0.
221  2.20  0.  0.  0.
222  2.21  0.  0.  0.
223  2.22  0.  0.  0.
224  2.23  0.  0.  0.
225  2.24  0.  0.  0.
226  2.25  0.  0.  0.
227  2.26  0.  0.  0.
228  2.27  0.  0.  0.
229  2.28  0.  0.  0.
230  2.29  0.  0.  0.
231  2.30  0.  0.  0.
232  2.31  0.  0.  0.
233  2.32  0.  0.  0.
234  2.33  0.  0.  0.
235  2.34  0.  0.  0.
236  2.35  0.  0.  0.
237  2.36  0.  0.  0.
238  2.37  0.  0.  0.
239  2.38  0.  0.  0.
240  2.39  0.  0.  0.
241  2.40  0.  0.  0.
242  2.41  0.  0.  0.
243  2.42  0.  0.  0.
244  2.43  0.  0.  0.
245  2.44  0.  0.  0.
246  2.45  0.  0.  0.
247  2.46  0.  0.  0.
248  2.47  0.  0.  0.
249  2.48  0.  0.  0.
250  2.49  0.  0.  0.
251  2.50  0.  0.  0.
252  2.51  0.  0.  0.
253  2.52  0.  0.  0.
254  2.53  0.  0.  0.
255  2.54  0.  0.  0.
256  2.55  0.  0.  0.
257  2.56  0.  0.  0.
258  2.57  0.  0.  0.
259  2.58  0.  0.  0.
260  2.59  0.  0.  0.
261  2.60  0.  0.  0.
262  2.61  0.  0.  0.
263  2.62  0.  0.  0.
264  2.63  0.  0.  0.
265  2.64  0.  0.  0.
266  2.65  0.  0.  0.
267  2.66  0.  0.  0.
268  2.67  0.  0.  0.
269  2.68  0.  0.  0.
270  2.69  0.  0.  0.
271  2.70  0.  0.  0.
272  2.71  0.  0.  0.
273  2.72  0.  0.  0.
274  2.73  0.  0.  0.
275  2.74  0.  0.  0.
276  2.75  0.  0.  0.
277  2.76  0.  0.  0.
278  2.77  0.  0.  0.
279  2.78  0.  0.  0.
280  2.79  0.  0.  0.
281  2.80  0.  0.  0.
282  2.81  0.  0.  0.
283  2.82  0.  0.  0.
284  2.83  0.  0.  0.
285  2.84  0.  0.  0.
286  2.85  0.  0.  0.
287  2.86  0.  0.  0.
288  2.87  0.  0.  0.
289  2.88  0.  0.  0.
290  2.89  0.  0.  0.
291  2.90  0.  0.  0.
292  2.91  0.  0.  0.
293  2.92  0.  0.  0.
294  2.93  0.  0.  0.
295  2.94  0.  0.  0.
296  2.95  0.  0.  0.
297  2.96  0.  0.  0.
298  2.97  0.  0.  0.
299  2.98  0.  0.  0.
300  2.99  0.  0.  0.
301  3.00  0.  0.  0.
302  3.01  0.  0.  0.
303  3.02  0.  0.  0.
304  3.03  0.  0.  0.
305  3.04  0.  0.  0.
306  3.05  0.  0.  0.
307  3.06  0.  0.  0.
308  3.07  0.  0.  0.
309  3.08  0.  0.  0.
310  3.09  0.  0.  0.
311  3.10  0.  0.  0.
312  3.11  0.  0.  0.
313  3.12  0.  0.  0.
314  3.13  0.  0.  0.
315  3.14  0.  0.  0.
316  3.15  0.  0.  0.
317  3.16  0.  0.  0.
318  3.17  0.  0.  0.
319  3.18  0.  0.  0.
320  3.19  0.  0.  0.
321  3.20  0.  0.  0.
322  3.21  0.  0.  0.
323  3.22  0.  0.  0.
324  3.23  0.  0.  0.
325  3.24  0.  0.  0.
326  3.25  0.  0.  0.
327  3.26  0.  0.  0.
328  3.27  0.  0.  0.
329  3.28  0.  0.  0.
330  3.29  0.  0.  0.
331  3.30  0.  0.  0.
332  3.31  0.  0.  0.
333  3.32  0.  0.  0.
334  3.33  0.  0.  0.
335  3.34  0.  0.  0.
336  3.35  0.  0.  0.
337  3.36  0.  0.  0.
338  3.37  0.  0.  0.
339  3.38  0.  0.  0.
340  3.39  0.  0.  0.
341  3.40  0.  0.  0.
342  3.41  0.  0.  0.
343  3.42  0.  0.  0.
344  3.43  0.  0.  0.
345  3.44  0.  0.  0.
346  3.45  0.  0.  0.
347  3.46  0.  0.  0.
348  3.47  0.  0.  0.
349  3.48  0.  0.  0.
350  3.49  0.  0.  0.
351  3.50  0.  0.  0.
352  3.51  0.  0.  0.
353  3.52  0.  0.  0.
354  3.53  0.  0.  0.
355  3.54  0.  0.  0.
356  3.55  0.  0.  0.
357  3.56  0.  0.  0.
358  3.57  0.  0.  0.
359  3.58  0.  0.  0.
360  3.59  0.  0.  0.
361  3.60  0.  0.  0.
362  3.61  0.  0.  0.
363  3.62  0.  0.  0.
364  3.63  0.  0.  0.
365  3.64  0.  0.  0.
366  3.65  0.  0.  0.
367  3.66  0.  0.  0.
368  3.67  0.  0.  0.
369  3.68  0.  0.  0.
370  3.69  0.  0.  0.
371  3.70  0.  0.  0.
372  3.71  0.  0.  0.
373  3.72  0.  0.  0.
374  3.73  0.  0.  0.
375  3.74  0.  0.  0.
376  3.75  0.  0.  0.
377  3.76  0.  0.  0.
378  3.77  0.  0.  0.
379  3.78  0.  0.  0.
380  3.79  0.  0.  0.
381  3.80  0.  0.  0.
382  3.81  0.  0.  0.
383  3.82  0.  0.  0.
384  3.83  0.  0.  0.
385  3.84  0.  0.  0.
386  3.85  0.  0.  0.
387  3.86  0.  0.  0.
388  3.87  0.  0.  0.
389  3.88  0.  0.  0.
390  3.89  0.  0.  0.
391  3.90  0.  0.  0.
392  3.91  0.  0.  0.
393  3.92  0.  0.  0.
394  3.93  0.  0.  0.
395  3.94  0.  0.  0.
396  3.95  0.  0.  0.
397  3.96  0.  0.  0.
398  3.97  0.  0.  0.
399  3.98  0.  0.  0.
400  3.99  0.  0.  0.
401  4.00  0.  0.  0.
402  4.01  0.  0.  0.
403  4.02  0.  0.  0.
404  4.03  0.  0.  0.
405  4.04  0.  0.  0.
406  4.05  0.  0.  0.
407  4.06  0.  0.  0.
408  4.07  0.  0.  0.
409  4.08  0.  0.  0.
410  4.09  0.  0.  0.
411  4.10  0.  0.  0.
412  4.11  0.  0.  0.
413  4.12  0.  0.  0.
414  4.13  0.  0.  0.
415  4.14  0.  0.  0.
416  4.15  0.  0.  0.
417  4.16  0.  0.  0.
418  4.17  0.  0.  0.
419  4.18  0.  0.  0.
420  4.19  0.  0.  0.
421  4.20  0.  0.  0.
422  4.21  0.  0.  0.
423  4.22  0.  0.  0.
424  4.23  0.  0.  0.
425  4.24  0.  0.  0.
426  4.25  0.  0.  0.
427  4.26  0.  0.  0.
428  4.27  0.  0.  0.
429  4.28  0.  0.  0.
430  4.29  0.  0.  0.
431  4.30  0.  0.  0.
432  4.31  0.  0.  0.
433  4.32  0.  0.  0.
434  4.33  0.  0.  0.
435  4.34  0.  0.  0.
436  4.35  0.  0.  0.
437  4.36  0.  0.  0.
438  4.37  0.  0.  0.
439  4.38  0.  0.  0.
440  4.39  0.  0.  0.
441  4.40  0.  0.  0.
442  4.41  0.  0.  0.
443  4.42  0.  0.  0.
444  4.43  0.  0.  0.
445  4.44  0.  0.  0.
446  4.45  0.  0.  0.
447  4.46  0.  0.  0.
448  4.47  0.  0.  0.
449  4.48  0.  0.  0.
450  4.49  0.  0.  0.
451  4.50  0.  0.  0.
452  4.51  0.  0.  0.
453  4.52  0.  0.  0.
454  4.53  0.  0.  0.
455  4.54  0.  0.  0.
456  4.55  0.  0.  0.
457  4.56  0.  0.  0.
458  4.57  0.  0.  0.
459  4.58  0.  0.  0.
460  4.59  0.  0.  0.
461  4.60  0.  0.  0.
462  4.61  0.  0.  0.
463  4.62  0.  0.  0.
464  4.63  0.  0.  0.
465  4.64  0.  0.  0.
466  4.65  0.  0.  0.
467  4.66  0.  0.  0.
468  4.67  0.  0.  0.
469  4.68  0.  0.  0.
470  4.69  0.  0.  0.
471  4.70  0.  0.  0.
472  4.71  0.  0.  0.
473  4.72  0.  0.  0.
474  4.73  0.  0.  0.
475  4.74  0.  0.  0.
476  4.75  0.  0.  0.
477  4.76  0.  0.  0.
478  4.77  0.  0.  0.
479  4.78  0.  0.  0.
480  4.79  0.  0.  0.
481  4.80  0.  0.  0.
482  4.81  0.  0.  0.
483  4.82  0.  0.  0.
484  4.83  0.  0.  0.
485  4.84  0.  0.  0.
486  4.85  0.  0.  0.
487  4.86  0.  0.  0.
488  4.87  0.  0.  0.
489  4.88  0.  0.  0.
490  4.89  0.  0.  0.
491  4.90  0.  0.  0.
492  4.91  0.  0.  0.
493  4.92  0.  0.  0.
494  4.93  0.  0.  0.
495  4.94  0.  0.  0.
496  4.95  0.  0.  0.
497  4.96  0.  0.  0.
498  4.97  0.  0.  0.
499  4.98  0.  0.  0.
500  4.99  0.  0.  0.
501  5.00  0.  0.  0.
502  5.01  0.  0.  0.
503  5.02  0.  0.  0.
504  5.03  0.  0.  0.
505  5.04  0.  0.  0.
506  5.05  0.  0.  0.
507  5.06  0.  0.  0.
508  5.07  0.  0.  0.
509  5.08  0.  0.  0.
510  5.09  0.  0.  0.
511  5.10  0.  0.  0.
512  5.11  0.  0.  0.
513  5.12  0.  0.  0.
514  5.13  0.  0.  0.
515  5.14  0.  0.  0.
516  5.15  0.  0.  0.
517  5.16  0.  0.  0.
518  5.17  0.  0.  0.
519  5.18  0.  0.  0.
520  5.19  0.  0.  0.
521  5.20  0.  0.  0.
522  5.21  0.  0.  0.
523  5.22  0.  0.  0.
524  5.23  0.  0.  0.
525  5.24  0.  0.  0.
526  5.25  0.  0.  0.
527  5.26  0.  0.  0.
528  5.27  0.  0.  0.
529  5.28  0.  0.  0.
530  5.29  0.  0.  0.
531  5.30  0.  0.  0.
532  5.31  0.  0.  0.
533  5.32  0.  0.  0.
534  5.33  0.  0.  0.
535  5.34  0.  0.  0.
536  5.35  0.  0.  0.
537  5.36  0.  0.  0.
538  5.37  0.  0.  0.
539  5.38  0.  0.  0.
540  5.39  0.  0.  0.
541  5.40  0.  0.  0.
542  5.41  0.  0.  0.
543  5.42  0.  0.  0.
544  5.43  0.  0.  0.
545  5.44  0.  0.  0.
546  5.45  0.  0.  0.
547  5.46  0.  0.  0.
548  5.47  0.  0.  0.
549  5.48  0.  0.  0.
550  5.49  0.  0.  0.
551  5.50  0.  0.  0.
552  5.51  0.  0.  0.
553  5.52  0.  0.  0.
554  5.53  0.  0.  0.
555  5.54  0.  0.  0.
556  5.55  0.  0.  0.
557  5.56  0.  0.  0.
558  5.57  0.  0.  0.
559  5.58  0.  0.  0.
560  5.59  0.  0.  0.
561  5.60  0.  0.  0.
562  5.61  0.  0.  0.
563  5.62  0.  0.  0.
564  5.63  0.  0.  0.
565  5.64  0.  0.  0.
566  5.65  0.  0.  0.
567  5.66  0.  0.  0.
568  5.67  0.  0.  0.
569  5.68  0.  0.  0.
570  5.69  0.  0.  0.
571  5.70  0.  0.  0.
572  5.71  0.  0.  0.
573  5.72  0.  0.  0.
574  5.73  0.  0.  0.
575  5.74  0.  0.  0.
576  5.75  0.  0.  0.
577  5.76  0.  0.  0.
578  5.77  0.  0.  0.
579  5.78  0.  0.  0.
580  5.79  0.  0.  0.
581  5.80  0.  0.  0.
582  5.81  0.  0.  0.
583  5.82  0.  0.  0.
584  5.83  0.  0.  0.
585  5.84  0.  0.  0.
586  5.85  0.  0.  0.
587  5.86  0.  0.  0.
588  5.87  0.  0.  0.
589  5.88  0.  0.  0.
590  5.89  0.  0.  0.
591  5.90  0.  0.  0.
592  5.91  0.  0.  0.
593  5.92  0.  0.  0.
594  5.93  0.  0.  0.
595  5.94  0.  0.  0.
596  5.95  0.  0.  0.
597  5.96  0.  0.  0.
598  5.97  0.  0.  0.
599  5.98  0.  0.  0.
600  5.99  0.  0.  0.
1                        -1.1118549941144E+01 -6.5134358200681E-01
1  0.0000000000000E+00  9.1008820757299E-09 -2.8555383996265E-07
2  1.0000000000000E-02  2.7665434870487E-03 -5.9497484454449E-03
3  2.0000000000000E-02  1.1045124588113E-02 -2.3645833993315E-02
4  3.0000000000000E-02  2.4772856416765E-02 -5.2634013321608E-02
5  4.0000000000000E-02  4.3845791907327E-02 -9.2174458824073E-02
6  5.0000000000000E-02  6.8120198833667E-02 -1.4126690313309E-01
7  6.0000000000000E-02  9.7414302426470E-02 -1.9868442770917E-01
8  7.0000000000000E-02  1.3151045498736E-01 -2.6301455276532E-01
9  8.0000000000000E-02  1.7015768279729E-01 -3.3270600024064E-01
10  9.0000000000000E-02  2.1307455325043E-01 -4.0611928381901E-01
11  1.0000000000000E-01  2.5995229974946E-01 -4.8157913911674E-01
12  1.1000000000000E-01  3.1045813863261E-01 -5.5742674891675E-01
13  1.2000000000000E-01  3.6423871133779E-01 -6.3206974500759E-01
14  1.3000000000000E-01  4.2092358613114E-01 -7.0402807852575E-01
15  1.4000000000000E-01  4.8012875693290E-01 -7.7197403991040E-01
16  1.5000000000000E-01  5.4146008188063E-01 -8.3476496955687E-01
17  1.6000000000000E-01  6.0451661102048E-01 -8.9146751991919E-01
18  1.7000000000000E-01  6.6889376059270E-01 -9.4137269557292E-01
19  1.8000000000000E-01  7.3418630041064E-01 -9.8400129408034E-01
20  1.9000000000000E-01  7.9999113042178E-01 -1.0190997805910E+00
21  2.0000000000000E-01  8.6590983227018E-01 -1.0466270355708E+00
22  2.1000000000000E-01  9.3155099113753E-01 -1.0667328006507E+00
23  2.2000000000000E-01  9.9653229193044E-01 -1.0797289959679E+00
24  2.3000000000000E-01  1.0604824016473E+00 -1.0860553787515E+00
25  2.4000000000000E-01  1.1230426561910E+00 -1.0862412446896E+00
26  2.5000000000000E-01  1.1838685747508E+00 -1.0808650309404E+00
27  2.6000000000000E-01  1.2426312279922E+00 -1.0705137557859E+00
28  2.7000000000000E-01  1.2990184875708E+00 -1.0557442215789E+00
29  2.8000000000000E-01  1.3527361839311E+00 -1.0370478150905E+00
30  2.9000000000000E-01  1.4035091970376E+00 -1.0148205664574E+00
31  3.0000000000000E-01  1.4510825007702E+00 -9.8933988193959E-01
32  3.1000000000000E-01  1.4952221764424E+00 -9.6074905699998E-01
33  3.2000000000000E-01  1.5357164045488E+00 -9.2905031789112E-01
34  3.3000000000000E-01  1.5723764367779E+00 -8.9410674720708E-01
35  3.4000000000000E-01  1.6050375429050E+00 -8.5565303848246E-01
36  3.5000000000000E-01  1.6335599198091E+00 -8.1331461447472E-01
37  3.6000000000000E-01  1.6578295429329E+00 -7.6663425092247E-01
38  3.7000000000000E-01  1.6777589344081E+00 -7.1510498936399E-01
39  3.8000000000000E-01  1.6932878171364E+00 -6.5820781470353E-01
40  3.9000000000000E-01  1.7043836206588E+00 -5.9545232928678E-01
41  4.0000000000000E-01  1.7110418028781E+00 -5.2641848635720E-01
42  4.1000000000000E-01  1.7132859517939E+00 -4.5079735990670E-01
43  4.2000000000000E-01  1.7111676334340E+00 -3.6842892967697E-01
44  4.3000000000000E-01  1.7047659561144E+00 -2.7933495035297E-01
45  4.4000000000000E-01  1.6941868269343E+00 -1.8374515005194E-01
46  4.5000000000000E-01  1.6795618838325E+00 -8.2115258678258E-02
47  4.6000000000000E-01  1.6610470953382E+00  2.4864308173356E-02
48  4.7000000000000E-01  1.6388210300153E+00  1.3626990208472E-01
49  4.8000000000000E-01  1.6130828081430E+00  2.5095660015789E-01
50  4.9000000000000E-01  1.5840497589788E+00  3.6758058949636E-01
51  5.0000000000000E-01  1.5519548175609E+00  4.8463144440693E-01
52  5.1000000000000E-01  1.5170437049802E+00  6.0047332167784E-01
53  5.2000000000000E-01  1.4795719449515E+00  7.1339368952301E-01
54  5.3000000000000E-01  1.4398017769344E+00  8.2165784503854E-01
55  5.4000000000000E-01  1.3979990316396E+00  9.2356717910197E-01
56  5.5000000000000E-01  1.3544300382180E+00  1.0175189299382E+00
57  5.6000000000000E-01  1.3093586335612E+00  1.1020650374613E+00
58  5.7000000000000E-01  1.2630433428080E+00  1.1759676769274E+00
59  5.8000000000000E-01  1.2157347963375E+00  1.2382491155643E+00
60  5.9000000000000E-01  1.1676734422954E+00  1.2882336989098E+00
61  6.0000000000000E-01  1.1190876052194E+00  1.3255800298512E+00
62  6.1000000000000E-01  1.0701919308640E+00  1.3503017442465E+00
63  6.2000000000000E-01  1.0211862452139E+00  1.3627757004064E+00
64  6.3000000000000E-01  9.7225484234443E-01  1.3637368704175E+00
65  6.4000000000000E-01  9.2356620170897E-01  1.3542597315124E+00
66  6.5000000000000E-01  8.7527312112173E-01  1.3357264858095E+00
67  6.6000000000000E-01  8.2751323770264E-01  1.3097829659546E+00
68  6.7000000000000E-01  7.8040989588837E-01  1.2782835914280E+00
69  6.8000000000000E-01  7.3407330981381E-01  1.2432272049050E+00
70  6.9000000000000E-01  6.8860195740065E-01  1.2066860208087E+00
71  7.0000000000000E-01  6.4408413577227E-01  1.1707302419131E+00
72  7.1000000000000E-01  6.0059960248003E-01  1.1373511301469E+00
73  7.2000000000000E-01  5.5822122472141E-01  1.1083854437089E+00
74  7.3000000000000E-01  5.1701655939188E-01  1.0854441671664E+00
75  7.4000000000000E-01  4.7704929046953E-01  1.0698483616196E+00
76  7.5000000000000E-01  4.3838045679590E-01  1.0625747498712E+00
77  7.6000000000000E-01  4.0106941258716E-01  1.0642133329583E+00
78  7.7000000000000E-01  3.6517447467569E-01  1.0749389197429E+00
79  7.8000000000000E-01  3.3075322413625E-01  1.0944979547603E+00
80  7.9000000000000E-01  2.9786244509739E-01  1.1222114690276E+00
81  8.0000000000000E-01  2.6655769961582E-01  1.1569943745451E+00
82  8.1000000000000E-01  2.3689255389094E-01  1.1973906984530E+00
83  8.2000000000000E-01  2.0891748718168E-01  1.2416237311058E+00
84  8.3000000000000E-01  1.8267852992434E-01  1.2876594679150E+00
85  8.4000000000000E-01  1.5821569112436E-01  1.3332811812141E+00
86  8.5000000000000E-01  1.3556124654192E-01  1.3761724877164E+00
87  8.6000000000000E-01  1.1473796801569E-01  1.4140058989116E+00
88  8.7000000000000E-01  9.5757380066715E-02  1.4445335723666E+00
89  8.8000000000000E-01  7.8618132397816E-02  1.4656768338034E+00
90  8.9000000000000E-01  6.3304575879334E-02  1.4756110209640E+00
91  9.0000000000000E-01  4.9785625044468E-02  1.4728423137333E+00
92  9.1000000000000E-01  3.8013982099094E-02  1.4562734587955E+00
93  9.2000000000000E-01  2.7925786206811E-02  1.4252556641977E+00
94  9.3000000000000E-01  1.9440737695224E-02  1.3796244176050E+00
95  9.4000000000000E-01  1.2462730315544E-02  1.3197175553370E+00
96  9.5000000000000E-01  6.8810063479595E-03  1.2463745570451E+00
97  9.6000000000000E-01  2.5718298345169E-03  1.1609167395847E+00
98  9.7000000000000E-01 -5.9934674255209E-04  1.0651087470866E+00
99  9.8000000000000E-01 -2.7752667037571E-03  9.6110245562913E-01
100  9.9000000000000E-01 -4.1038673437770E-03  8.5136510200665E-01
101  1.0000000000000E+00 -4.7349719244948E-03  7.3859408047598E-01
102  1.0100000000000E+00 -4.8167698365547E-03  6.2562140371912E-01
103  1.0200000000000E+00 -4.4921907186492E-03  5.1531127275019E-01
104  1.0300000000000E+00 -3.8952869710410E-03  4.1045457766653E-01
105  1.0400000000000E+00 -3.1477349892328E-03  3.1366377255502E-01
106  1.0500000000000E+00 -2.3555488984343E-03  2.2727091596937E-01
107  1.0600000000000E+00 -1.6035040233991E-03  1.5302059959928E-01
108  1.0700000000000E+00 -9.5951503519079E-04  9.2435499877203E-02
109  1.0800000000000E+00 -4.7083167798972E-04  4.6759151069093E-02
110  1.0900000000000E+00 -1.5813449088850E-04  1.6579623052319E-02
111  1.1000000000000E+00 -1.6480415131597E-05  1.8805093809220E-03
112  1.1100000000000E+00  6.5101524584543E-07 -7.9693981120729E-05
113  1.1200000000000E+00  5.6773221463952E-08 -6.3722540355857E-06
114  1.13  0. -0.
115  1.14  0.  0.
116  1.15  0.  0.
117  1.16  0.  0.
118  1.17  0.  0.
119  1.18  0.  0.
120  1.19  0.  0.
121  1.20  0.  0.
122  1.21  0.  0.
123  1.22  0.  0.
124  1.23  0.  0.
125  1.24  0.  0.
126  1.25  0.  0.
127  1.26  0.  0.
128  1.27  0.  0.
129  1.28  0.  0.
130  1.29  0.  0.
131  1.30  0.  0.
132  1.31  0.  0.
133  1.32  0.  0.
134  1.33  0.  0.
135  1.34  0.  0.
136  1.35  0.  0.
137  1.36  0.  0.
138  1.37  0.  0.
139  1.38  0.  0.
140  1.39  0.  0.
141  1.40  0.  0.
142  1.41  0.  0.
143  1.42  0.  0.
144  1.43  0.  0.
145  1.44  0.  0.
146  1.45  0.  0.
147  1.46  0.  0.
148  1.47  0.  0.
149  1.48  0.  0.
150  1.49  0.  0.
151  1.50  0.  0.
152  1.51  0.  0.
153  1.52  0.  0.
154  1.53  0.  0.
155  1.54  0.  0.
156  1.55  0.  0.
157  1.56  0.  0.
158  1.57  0.  0.
159  1.58  0.  0.
160  1.59  0.  0.
161  1.60  0.  0.
162  1.61  0.  0.
163  1.62  0.  0.
164  1.63  0.  0.
165  1.64  0.  0.
166  1.65  0.  0.
167  1.66  0.  0.
168  1.67  0.  0.
169  1.68  0.  0.
170  1.69  0.  0.
171  1.70  0.  0.
172  1.71  0.  0.
173  1.72  0.  0.
174  1.73  0.  0.
175  1.74  0.  0.
176  1.75  0.  0.
177  1.76  0.  0.
178  1.77  0.  0.
179  1.78  0.  0.
180  1.79  0.  0.
181  1.80  0.  0.
182  1.81  0.  0.
183  1.82  0.  0.
184  1.83  0.  0.
185  1.84  0.  0.
186  1.85  0.  0.
187  1.86  0.  0.
188  1.87  0.  0.
189  1.88  0.  0.
190  1.89  0.  0.
191  1.90  0.  0.
192  1.91  0.  0.
193  1.92  0.  0.
194  1.93  0.  0.
195  1.94  0.  0.
196  1.95  0.  0.
197  1.96  0.  0.