Hs    ONCVPSP-4.0.1  r_core=   1.10501   1.30650   1.20154   1.20154
    108.0000     48.0000      211119    zatom,zion,pspd
     8      11   3     4   600     0    pspcod,pspxc,lmax,lloc,mmax,r2well
  5.99000000  5.00000000  0.00000000    rchrg fchrg qchrg
     3     2     2     2     0    nproj
     1     1           extension_switch
   0                         1.6871193756873E+01 -1.3122841863409E+01 -5.2432827711608E-01
     1  0.0000000000000E+00 -1.5072349368594E-08  1.1712728564817E-09 -2.3206737032044E-08
     2  1.0000000000000E-02  2.1330098829938E-01  6.3861614335121E-02 -2.3491958731398E-02
     3  2.0000000000000E-02  4.2430218517967E-01  1.2766487478643E-01 -4.6772967947748E-02
     4  3.0000000000000E-02  6.3073219830107E-01  1.9135061792993E-01 -6.9635959769386E-02
     5  4.0000000000000E-02  8.3037606511188E-01  2.5485807809238E-01 -9.1881639282776E-02
     6  5.0000000000000E-02  1.0211025504607E+00  3.1812412799418E-01 -1.1332238815248E-01
     7  6.0000000000000E-02  1.2008903537288E+00  3.8108256865142E-01 -1.3378616942410E-01
     8  7.0000000000000E-02  1.3678528792408E+00  4.4366348354136E-01 -1.5312040323661E-01
     9  8.0000000000000E-02  1.5202612387832E+00  5.0579267086474E-01 -1.7119575995559E-01
    10  9.0000000000000E-02  1.6565651742126E+00  5.6739116632453E-01 -1.8790979187676E-01
    11  1.0000000000000E-01  1.7754116115059E+00  6.2837486721702E-01 -2.0319029923603E-01
    12  1.1000000000000E-01  1.8756605852960E+00  6.8865426683189E-01 -2.1699830302489E-01
    13  1.2000000000000E-01  1.9563983049905E+00  7.4813430622219E-01 -2.2933047825933E-01
    14  1.3000000000000E-01  2.0169471699419E+00  8.0671434837334E-01 -2.4022088893812E-01
    15  1.4000000000000E-01  2.0568725816537E+00  8.6428827771338E-01 -2.4974186172488E-01
    16  1.5000000000000E-01  2.0759864453831E+00  9.2074472580560E-01 -2.5800384075293E-01
    17  1.6000000000000E-01  2.0743473012694E+00  9.7596742198855E-01 -2.6515408174384E-01
    18  1.7000000000000E-01  2.0522570756973E+00  1.0298356657143E+00 -2.7137407012265E-01
    19  1.8000000000000E-01  2.0102544962041E+00  1.0822249154172E+00 -2.7687558466080E-01
    20  1.9000000000000E-01  1.9491052669662E+00  1.1330074869533E+00 -2.8189537440194E-01
    21  2.0000000000000E-01  1.8697891556986E+00  1.1820533530056E+00 -2.8668847064181E-01
    22  2.1000000000000E-01  1.7734841955194E+00  1.2292310333827E+00 -2.9152021540248E-01
    23  2.2000000000000E-01  1.6615482557410E+00  1.2744085648532E+00 -2.9665715056486E-01
    24  2.3000000000000E-01  1.5354982823989E+00  1.3174545380703E+00 -3.0235697466549E-01
    25  2.4000000000000E-01  1.3969875513535E+00  1.3582391882670E+00 -3.0885783417589E-01
    26  2.5000000000000E-01  1.2477813128171E+00  1.3966355257205E+00 -3.1636726966850E-01
    27  2.6000000000000E-01  1.0897312350723E+00  1.4325204915243E+00 -3.2505118156602E-01
    28  2.7000000000000E-01  9.2474907602121E-01  1.4657761239343E+00 -3.3502321234518E-01
    29  2.8000000000000E-01  7.5478002329319E-01  1.4962907204858E+00 -3.4633495977302E-01
    30  2.9000000000000E-01  5.8177614642667E-01  1.5239599811884E+00 -3.5896743716598E-01
    31  3.0000000000000E-01  4.0767039787600E-01  1.5486881183922E+00 -3.7282418067025E-01
    32  3.1000000000000E-01  2.3435158329928E-01  1.5703889193695E+00 -3.8772636979923E-01
    33  3.2000000000000E-01  6.3640696077018E-02  1.5889867482523E+00 -4.0341027638871E-01
    34  3.3000000000000E-01 -1.0273102310447E-01  1.6044174747112E+00 -4.1952729002200E-01
    35  3.4000000000000E-01 -2.6314198261875E-01  1.6166293176235E+00 -4.3564668690997E-01
    36  3.5000000000000E-01 -4.1609782167670E-01  1.6255835929675E+00 -4.5126121699553E-01
    37  3.6000000000000E-01 -5.6024646068889E-01  1.6312553562708E+00 -4.6579548410210E-01
    38  3.7000000000000E-01 -6.9439046083933E-01  1.6336339311277E+00 -4.7861699019412E-01
    39  3.8000000000000E-01 -8.1749659306599E-01  1.6327233165791E+00 -4.8904961147162E-01
    40  3.9000000000000E-01 -9.2870257662903E-01  1.6285424675005E+00 -4.9638917548161E-01
    41  4.0000000000000E-01 -1.0273210061610E+00  1.6211254435628E+00 -4.9992071898116E-01
    42  4.1000000000000E-01 -1.1128405418998E+00  1.6105214238086E+00 -4.9893693000634E-01
    43  4.2000000000000E-01 -1.1849244891934E+00  1.5967945854084E+00 -4.9275721808925E-01
    44  4.3000000000000E-01 -1.2434069390046E+00  1.5800238467106E+00 -4.8074681680965E-01
    45  4.4000000000000E-01 -1.2882866799170E+00  1.5603024762720E+00 -4.6233530508737E-01
    46  4.5000000000000E-01 -1.3197191232124E+00  1.5377375711243E+00 -4.3703393913162E-01
    47  4.6000000000000E-01 -1.3380065053985E+00  1.5124494090828E+00 -4.0445121612143E-01
    48  4.7000000000000E-01 -1.3435866468663E+00  1.4845706814225E+00 -3.6430614283109E-01
    49  4.8000000000000E-01 -1.3370205512288E+00  1.4542456137005E+00 -3.1643875586355E-01
    50  4.9000000000000E-01 -1.3189791277060E+00  1.4216289838837E+00 -2.6081753230546E-01
    51  5.0000000000000E-01 -1.2902293093359E+00  1.3868850482119E+00 -1.9754343697632E-01
    52  5.1000000000000E-01 -1.2516198237139E+00  1.3501863863774E+00 -1.2685047082185E-01
    53  5.2000000000000E-01 -1.2040668515205E+00  1.3117126785972E+00 -4.9102709649690E-02
    54  5.3000000000000E-01 -1.1485397825417E+00  1.2716494279899E+00  3.5212051779519E-02
    55  5.4000000000000E-01 -1.0860472506023E+00  1.2301866423046E+00  1.2549181353081E-01
    56  5.5000000000000E-01 -1.0176235992128E+00  1.1875174894943E+00  2.2103269279579E-01
    57  5.6000000000000E-01 -9.4431590014849E-01  1.1438369418400E+00  3.2104360678084E-01
    58  5.7000000000000E-01 -8.6717161892527E-01  1.0993404233349E+00  4.2466278790916E-01
    59  5.8000000000000E-01 -7.8722699534644E-01  1.0542224748007E+00  5.3097554447992E-01
    60  5.9000000000000E-01 -7.0549618491853E-01  1.0086754507555E+00  6.3903264571361E-01
    61  6.0000000000000E-01 -6.2296118868059E-01  9.6288826137026E-01  7.4786870181930E-01
    62  6.1000000000000E-01 -5.4056258531570E-01  9.1704517197300E-01  8.5651992779569E-01
    63  6.2000000000000E-01 -4.5919107048516E-01  8.7132467148529E-01  9.6404072338938E-01
    64  6.3000000000000E-01 -3.7967980403715E-01  8.2589841994260E-01  1.0695185691123E+00
    65  6.4000000000000E-01 -3.0279756571345E-01  7.8093028387657E-01  1.1720868265066E+00
    66  6.5000000000000E-01 -2.2924272358470E-01  7.3657546686029E-01  1.2709351360236E+00
    67  6.6000000000000E-01 -1.5963802584710E-01  6.9297974096945E-01  1.3653172232184E+00
    68  6.7000000000000E-01 -9.4526234812392E-02  6.5027878332938E-01  1.4545560481368E+00
    69  6.8000000000000E-01 -3.4366630802309E-02  6.0859762033717E-01  1.5380463580706E+00
    70  6.9000000000000E-01  2.0467577943113E-02  5.6805018060685E-01  1.6152548244678E+00
    71  7.0000000000000E-01  6.9690896466666E-02  5.2873895621698E-01  1.6857180550220E+00
    72  7.1000000000000E-01  1.1310618846575E-01  4.9075477047743E-01  1.7490388665483E+00
    73  7.2000000000000E-01  1.5060427847027E-01  4.5417664920225E-01  1.8048812785652E+00
    74  7.3000000000000E-01  1.8216246741811E-01  4.1907179140226E-01  1.8529647377846E+00
    75  7.4000000000000E-01  2.0784192705220E-01  3.8549563441041E-01  1.8930581072870E+00
    76  7.5000000000000E-01  2.2778395250300E-01  3.5349200773715E-01  1.9249739495468E+00
    77  7.6000000000000E-01  2.4220507138521E-01  3.2309336942484E-01  1.9485635995174E+00
    78  7.7000000000000E-01  2.5139103134679E-01  2.9432111832835E-01  1.9637134638450E+00
    79  7.8000000000000E-01  2.5568971557474E-01  2.6718597558266E-01  1.9703428974669E+00
    80  7.9000000000000E-01  2.5550306631211E-01  2.4168842851388E-01  1.9684039030915E+00
    81  8.0000000000000E-01  2.5127812876010E-01  2.1781923038476E-01  1.9578827771904E+00
    82  8.1000000000000E-01  2.4349736041089E-01  1.9555994961541E-01  1.9388036939063E+00
    83  8.2000000000000E-01  2.3266838232574E-01  1.7488356245472E-01  1.9112340821059E+00
    84  8.3000000000000E-01  2.1931337751356E-01  1.5575508346683E-01  1.8752915175022E+00
    85  8.4000000000000E-01  2.0395836575835E-01  1.3813222860747E-01  1.8311517282435E+00
    86  8.5000000000000E-01  1.8712260244896E-01  1.2196610606557E-01  1.7790572053195E+00
    87  8.6000000000000E-01  1.6930835980203E-01  1.0720193040634E-01  1.7193258247607E+00
    88  8.7000000000000E-01  1.5099135119176E-01  9.3779755846151E-02  1.6523588322484E+00
    89  8.8000000000000E-01  1.3261205225282E-01  8.1635224695125E-02  1.5786475167298E+00
    90  8.9000000000000E-01  1.1456815550621E-01  7.0700327103542E-02  1.4987779108943E+00
    91  9.0000000000000E-01  9.7208368359152E-02  6.0904168232284E-02  1.4134329044407E+00
    92  9.1000000000000E-01  8.0827727756018E-02  5.2173738832108E-02  1.3233912408449E+00
    93  9.2000000000000E-01  6.5664559230254E-02  4.4434684964748E-02  1.2295229881112E+00
    94  9.3000000000000E-01  5.1899154773017E-02  3.7612072241095E-02  1.1327812253964E+00
    95  9.4000000000000E-01  3.9654184307024E-02  3.1631139504839E-02  1.0341898655961E+00
    96  9.5000000000000E-01  2.8996791492204E-02  2.6418036376937E-02  9.3482773274323E-01
    97  9.6000000000000E-01  1.9942258215037E-02  2.1900538524981E-02  8.3580922507841E-01
    98  9.7000000000000E-01  1.2459055762740E-02  1.8008733963796E-02  7.3826211165387E-01
    99  9.8000000000000E-01  6.4750367381569E-03  1.4675673163360E-02  6.4330322377249E-01
   100  9.9000000000000E-01  1.8844627205178E-03  1.1837975272918E-02  5.5201300339958E-01
   101  1.0000000000000E+00 -1.4444891777474E-03  9.4363824002050E-03  4.6541005038739E-01
   102  1.0100000000000E+00 -3.6621401917833E-03  7.4162536442885E-03  3.8442696079560E-01
   103  1.0200000000000E+00 -4.9300748218999E-03  5.7279904981266E-03  3.0988886272152E-01
   104  1.0300000000000E+00 -5.4147086460161E-03  4.3273869499793E-03  2.4249613343341E-01
   105  1.0400000000000E+00 -5.2820894405031E-03  3.1758803762710E-03  1.8281275535358E-01
   106  1.0500000000000E+00 -4.6944179436603E-03  2.2406628201653E-03  1.3126190965323E-01
   107  1.0600000000000E+00 -3.7921699389379E-03  1.4877942024296E-03  8.8094879457657E-02
   108  1.0700000000000E+00 -2.7089201233439E-03  8.9563163182298E-04  5.3428109751672E-02
   109  1.0800000000000E+00 -1.6062889001547E-03  4.5623694130210E-04  2.7341387578423E-02
   110  1.0900000000000E+00 -6.6475123146624E-04  1.6461450659056E-04  9.8879585663396E-03
   111  1.1000000000000E+00 -8.7997533543161E-05  1.9207006252887E-05  1.1541533107958E-03
   112  1.1100000000000E+00  4.1399931873749E-06 -8.3023248366223E-07 -5.0093374638884E-05
   113  1.1200000000000E+00  2.9200711185980E-07 -6.4622243735724E-08 -3.8976908373461E-06
   114  1.13 -0. -0.  0.
   115  1.14  0.  0.  0.
   116  1.15  0.  0.  0.
   117  1.16  0.  0.  0.
   118  1.17  0.  0.  0.
   119  1.18  0.  0.  0.
   120  1.19  0.  0.  0.
   121  1.20  0.  0.  0.
   122  1.21  0.  0.  0.
   123  1.22  0.  0.  0.
   124  1.23  0.  0.  0.
   125  1.24  0.  0.  0.
   126  1.25  0.  0.  0.
   127  1.26  0.  0.  0.
   128  1.27  0.  0.  0.
   129  1.28  0.  0.  0.
   130  1.29  0.  0.  0.
   131  1.30  0.  0.  0.
   132  1.31  0.  0.  0.
   133  1.32  0.  0.  0.
   134  1.33  0.  0.  0.
   135  1.34  0.  0.  0.
   136  1.35  0.  0.  0.
   137  1.36  0.  0.  0.
   138  1.37  0.  0.  0.
   139  1.38  0.  0.  0.
   140  1.39  0.  0.  0.
   141  1.40  0.  0.  0.
   142  1.41  0.  0.  0.
   143  1.42  0.  0.  0.
   144  1.43  0.  0.  0.
   145  1.44  0.  0.  0.
   146  1.45  0.  0.  0.
   147  1.46  0.  0.  0.
   148  1.47  0.  0.  0.
   149  1.48  0.  0.  0.
   150  1.49  0.  0.  0.
   151  1.50  0.  0.  0.
   152  1.51  0.  0.  0.
   153  1.52  0.  0.  0.
   154  1.53  0.  0.  0.
   155  1.54  0.  0.  0.
   156  1.55  0.  0.  0.
   157  1.56  0.  0.  0.
   158  1.57  0.  0.  0.
   159  1.58  0.  0.  0.
   160  1.59  0.  0.  0.
   161  1.60  0.  0.  0.
   162  1.61  0.  0.  0.
   163  1.62  0.  0.  0.
   164  1.63  0.  0.  0.
   165  1.64  0.  0.  0.
   166  1.65  0.  0.  0.
   167  1.66  0.  0.  0.
   168  1.67  0.  0.  0.
   169  1.68  0.  0.  0.
   170  1.69  0.  0.  0.
   171  1.70  0.  0.  0.
   172  1.71  0.  0.  0.
   173  1.72  0.  0.  0.
   174  1.73  0.  0.  0.
   175  1.74  0.  0.  0.
   176  1.75  0.  0.  0.
   177  1.76  0.  0.  0.
   178  1.77  0.  0.  0.
   179  1.78  0.  0.  0.
   180  1.79  0.  0.  0.
   181  1.80  0.  0.  0.
   182  1.81  0.  0.  0.
   183  1.82  0.  0.  0.
   184  1.83  0.  0.  0.
   185  1.84  0.  0.  0.
   186  1.85  0.  0.  0.
   187  1.86  0.  0.  0.
   188  1.87  0.  0.  0.
   189  1.88  0.  0.  0.
   190  1.89  0.  0.  0.
   191  1.90  0.  0.  0.
   192  1.91  0.  0.  0.
   193  1.92  0.  0.  0.
   194  1.93  0.  0.  0.
   195  1.94  0.  0.  0.
   196  1.95  0.  0.  0.
   197  1.96  0.  0.  0.
   198  1.97  0.  0.  0.
   199  1.98  0.  0.  0.
   200  1.99  0.  0.  0.
   201  2.00  0.  0.  0.
   202  2.01  0.  0.  0.
   203  2.02  0.  0.  0.
   204  2.03  0.  0.  0.
   205  2.04  0.  0.  0.
   206  2.05  0.  0.  0.
   207  2.06  0.  0.  0.
   208  2.07  0.  0.  0.
   209  2.08  0.  0.  0.
   210  2.09  0.  0.  0.
   211  2.10  0.  0.  0.
   212  2.11  0.  0.  0.
   213  2.12  0.  0.  0.
   214  2.13  0.  0.  0.
   215  2.14  0.  0.  0.
   216  2.15  0.  0.  0.
   217  2.16  0.  0.  0.
   218  2.17  0.  0.  0.
   219  2.18  0.  0.  0.
   220  2.19  0.  0.  0.
   221  2.20  0.  0.  0.
   222  2.21  0.  0.  0.
   223  2.22  0.  0.  0.
   224  2.23  0.  0.  0.
   225  2.24  0.  0.  0.
   226  2.25  0.  0.  0.
   227  2.26  0.  0.  0.
   228  2.27  0.  0.  0.
   229  2.28  0.  0.  0.
   230  2.29  0.  0.  0.
   231  2.30  0.  0.  0.
   232  2.31  0.  0.  0.
   233  2.32  0.  0.  0.
   234  2.33  0.  0.  0.
   235  2.34  0.  0.  0.
   236  2.35  0.  0.  0.
   237  2.36  0.  0.  0.
   238  2.37  0.  0.  0.
   239  2.38  0.  0.  0.
   240  2.39  0.  0.  0.
   241  2.40  0.  0.  0.
   242  2.41  0.  0.  0.
   243  2.42  0.  0.  0.
   244  2.43  0.  0.  0.
   245  2.44  0.  0.  0.
   246  2.45  0.  0.  0.
   247  2.46  0.  0.  0.
   248  2.47  0.  0.  0.
   249  2.48  0.  0.  0.
   250  2.49  0.  0.  0.
   251  2.50  0.  0.  0.
   252  2.51  0.  0.  0.
   253  2.52  0.  0.  0.
   254  2.53  0.  0.  0.
   255  2.54  0.  0.  0.
   256  2.55  0.  0.  0.
   257  2.56  0.  0.  0.
   258  2.57  0.  0.  0.
   259  2.58  0.  0.  0.
   260  2.59  0.  0.  0.
   261  2.60  0.  0.  0.
   262  2.61  0.  0.  0.
   263  2.62  0.  0.  0.
   264  2.63  0.  0.  0.
   265  2.64  0.  0.  0.
   266  2.65  0.  0.  0.
   267  2.66  0.  0.  0.
   268  2.67  0.  0.  0.
   269  2.68  0.  0.  0.
   270  2.69  0.  0.  0.
   271  2.70  0.  0.  0.
   272  2.71  0.  0.  0.
   273  2.72  0.  0.  0.
   274  2.73  0.  0.  0.
   275  2.74  0.  0.  0.
   276  2.75  0.  0.  0.
   277  2.76  0.  0.  0.
   278  2.77  0.  0.  0.
   279  2.78  0.  0.  0.
   280  2.79  0.  0.  0.
   281  2.80  0.  0.  0.
   282  2.81  0.  0.  0.
   283  2.82  0.  0.  0.
   284  2.83  0.  0.  0.
   285  2.84  0.  0.  0.
   286  2.85  0.  0.  0.
   287  2.86  0.  0.  0.
   288  2.87  0.  0.  0.
   289  2.88  0.  0.  0.
   290  2.89  0.  0.  0.
   291  2.90  0.  0.  0.
   292  2.91  0.  0.  0.
   293  2.92  0.  0.  0.
   294  2.93  0.  0.  0.
   295  2.94  0.  0.  0.
   296  2.95  0.  0.  0.
   297  2.96  0.  0.  0.
   298  2.97  0.  0.  0.
   299  2.98  0.  0.  0.
   300  2.99  0.  0.  0.
   301  3.00  0.  0.  0.
   302  3.01  0.  0.  0.
   303  3.02  0.  0.  0.
   304  3.03  0.  0.  0.
   305  3.04  0.  0.  0.
   306  3.05  0.  0.  0.
   307  3.06  0.  0.  0.
   308  3.07  0.  0.  0.
   309  3.08  0.  0.  0.
   310  3.09  0.  0.  0.
   311  3.10  0.  0.  0.
   312  3.11  0.  0.  0.
   313  3.12  0.  0.  0.
   314  3.13  0.  0.  0.
   315  3.14  0.  0.  0.
   316  3.15  0.  0.  0.
   317  3.16  0.  0.  0.
   318  3.17  0.  0.  0.
   319  3.18  0.  0.  0.
   320  3.19  0.  0.  0.
   321  3.20  0.  0.  0.
   322  3.21  0.  0.  0.
   323  3.22  0.  0.  0.
   324  3.23  0.  0.  0.
   325  3.24  0.  0.  0.
   326  3.25  0.  0.  0.
   327  3.26  0.  0.  0.
   328  3.27  0.  0.  0.
   329  3.28  0.  0.  0.
   330  3.29  0.  0.  0.
   331  3.30  0.  0.  0.
   332  3.31  0.  0.  0.
   333  3.32  0.  0.  0.
   334  3.33  0.  0.  0.
   335  3.34  0.  0.  0.
   336  3.35  0.  0.  0.
   337  3.36  0.  0.  0.
   338  3.37  0.  0.  0.
   339  3.38  0.  0.  0.
   340  3.39  0.  0.  0.
   341  3.40  0.  0.  0.
   342  3.41  0.  0.  0.
   343  3.42  0.  0.  0.
   344  3.43  0.  0.  0.
   345  3.44  0.  0.  0.
   346  3.45  0.  0.  0.
   347  3.46  0.  0.  0.
   348  3.47  0.  0.  0.
   349  3.48  0.  0.  0.
   350  3.49  0.  0.  0.
   351  3.50  0.  0.  0.
   352  3.51  0.  0.  0.
   353  3.52  0.  0.  0.
   354  3.53  0.  0.  0.
   355  3.54  0.  0.  0.
   356  3.55  0.  0.  0.
   357  3.56  0.  0.  0.
   358  3.57  0.  0.  0.
   359  3.58  0.  0.  0.
   360  3.59  0.  0.  0.
   361  3.60  0.  0.  0.
   362  3.61  0.  0.  0.
   363  3.62  0.  0.  0.
   364  3.63  0.  0.  0.
   365  3.64  0.  0.  0.
   366  3.65  0.  0.  0.
   367  3.66  0.  0.  0.
   368  3.67  0.  0.  0.
   369  3.68  0.  0.  0.
   370  3.69  0.  0.  0.
   371  3.70  0.  0.  0.
   372  3.71  0.  0.  0.
   373  3.72  0.  0.  0.
   374  3.73  0.  0.  0.
   375  3.74  0.  0.  0.
   376  3.75  0.  0.  0.
   377  3.76  0.  0.  0.
   378  3.77  0.  0.  0.
   379  3.78  0.  0.  0.
   380  3.79  0.  0.  0.
   381  3.80  0.  0.  0.
   382  3.81  0.  0.  0.
   383  3.82  0.  0.  0.
   384  3.83  0.  0.  0.
   385  3.84  0.  0.  0.
   386  3.85  0.  0.  0.
   387  3.86  0.  0.  0.
   388  3.87  0.  0.  0.
   389  3.88  0.  0.  0.
   390  3.89  0.  0.  0.
   391  3.90  0.  0.  0.
   392  3.91  0.  0.  0.
   393  3.92  0.  0.  0.
   394  3.93  0.  0.  0.
   395  3.94  0.  0.  0.
   396  3.95  0.  0.  0.
   397  3.96  0.  0.  0.
   398  3.97  0.  0.  0.
   399  3.98  0.  0.  0.
   400  3.99  0.  0.  0.
   401  4.00  0.  0.  0.
   402  4.01  0.  0.  0.
   403  4.02  0.  0.  0.
   404  4.03  0.  0.  0.
   405  4.04  0.  0.  0.
   406  4.05  0.  0.  0.
   407  4.06  0.  0.  0.
   408  4.07  0.  0.  0.
   409  4.08  0.  0.  0.
   410  4.09  0.  0.  0.
   411  4.10  0.  0.  0.
   412  4.11  0.  0.  0.
   413  4.12  0.  0.  0.
   414  4.13  0.  0.  0.
   415  4.14  0.  0.  0.
   416  4.15  0.  0.  0.
   417  4.16  0.  0.  0.
   418  4.17  0.  0.  0.
   419  4.18  0.  0.  0.
   420  4.19  0.  0.  0.
   421  4.20  0.  0.  0.
   422  4.21  0.  0.  0.
   423  4.22  0.  0.  0.
   424  4.23  0.  0.  0.
   425  4.24  0.  0.  0.
   426  4.25  0.  0.  0.
   427  4.26  0.  0.  0.
   428  4.27  0.  0.  0.
   429  4.28  0.  0.  0.
   430  4.29  0.  0.  0.
   431  4.30  0.  0.  0.
   432  4.31  0.  0.  0.
   433  4.32  0.  0.  0.
   434  4.33  0.  0.  0.
   435  4.34  0.  0.  0.
   436  4.35  0.  0.  0.
   437  4.36  0.  0.  0.
   438  4.37  0.  0.  0.
   439  4.38  0.  0.  0.
   440  4.39  0.  0.  0.
   441  4.40  0.  0.  0.
   442  4.41  0.  0.  0.
   443  4.42  0.  0.  0.
   444  4.43  0.  0.  0.
   445  4.44  0.  0.  0.
   446  4.45  0.  0.  0.
   447  4.46  0.  0.  0.
   448  4.47  0.  0.  0.
   449  4.48  0.  0.  0.
   450  4.49  0.  0.  0.
   451  4.50  0.  0.  0.
   452  4.51  0.  0.  0.
   453  4.52  0.  0.  0.
   454  4.53  0.  0.  0.
   455  4.54  0.  0.  0.
   456  4.55  0.  0.  0.
   457  4.56  0.  0.  0.
   458  4.57  0.  0.  0.
   459  4.58  0.  0.  0.
   460  4.59  0.  0.  0.
   461  4.60  0.  0.  0.
   462  4.61  0.  0.  0.
   463  4.62  0.  0.  0.
   464  4.63  0.  0.  0.
   465  4.64  0.  0.  0.
   466  4.65  0.  0.  0.
   467  4.66  0.  0.  0.
   468  4.67  0.  0.  0.
   469  4.68  0.  0.  0.
   470  4.69  0.  0.  0.
   471  4.70  0.  0.  0.
   472  4.71  0.  0.  0.
   473  4.72  0.  0.  0.
   474  4.73  0.  0.  0.
   475  4.74  0.  0.  0.
   476  4.75  0.  0.  0.
   477  4.76  0.  0.  0.
   478  4.77  0.  0.  0.
   479  4.78  0.  0.  0.
   480  4.79  0.  0.  0.
   481  4.80  0.  0.  0.
   482  4.81  0.  0.  0.
   483  4.82  0.  0.  0.
   484  4.83  0.  0.  0.
   485  4.84  0.  0.  0.
   486  4.85  0.  0.  0.
   487  4.86  0.  0.  0.
   488  4.87  0.  0.  0.
   489  4.88  0.  0.  0.
   490  4.89  0.  0.  0.
   491  4.90  0.  0.  0.
   492  4.91  0.  0.  0.
   493  4.92  0.  0.  0.
   494  4.93  0.  0.  0.
   495  4.94  0.  0.  0.
   496  4.95  0.  0.  0.
   497  4.96  0.  0.  0.
   498  4.97  0.  0.  0.
   499  4.98  0.  0.  0.
   500  4.99  0.  0.  0.
   501  5.00  0.  0.  0.
   502  5.01  0.  0.  0.
   503  5.02  0.  0.  0.
   504  5.03  0.  0.  0.
   505  5.04  0.  0.  0.
   506  5.05  0.  0.  0.
   507  5.06  0.  0.  0.
   508  5.07  0.  0.  0.
   509  5.08  0.  0.  0.
   510  5.09  0.  0.  0.
   511  5.10  0.  0.  0.
   512  5.11  0.  0.  0.
   513  5.12  0.  0.  0.
   514  5.13  0.  0.  0.
   515  5.14  0.  0.  0.
   516  5.15  0.  0.  0.
   517  5.16  0.  0.  0.
   518  5.17  0.  0.  0.
   519  5.18  0.  0.  0.
   520  5.19  0.  0.  0.
   521  5.20  0.  0.  0.
   522  5.21  0.  0.  0.
   523  5.22  0.  0.  0.
   524  5.23  0.  0.  0.
   525  5.24  0.  0.  0.
   526  5.25  0.  0.  0.
   527  5.26  0.  0.  0.
   528  5.27  0.  0.  0.
   529  5.28  0.  0.  0.
   530  5.29  0.  0.  0.
   531  5.30  0.  0.  0.
   532  5.31  0.  0.  0.
   533  5.32  0.  0.  0.
   534  5.33  0.  0.  0.
   535  5.34  0.  0.  0.
   536  5.35  0.  0.  0.
   537  5.36  0.  0.  0.
   538  5.37  0.  0.  0.
   539  5.38  0.  0.  0.
   540  5.39  0.  0.  0.
   541  5.40  0.  0.  0.
   542  5.41  0.  0.  0.
   543  5.42  0.  0.  0.
   544  5.43  0.  0.  0.
   545  5.44  0.  0.  0.
   546  5.45  0.  0.  0.
   547  5.46  0.  0.  0.
   548  5.47  0.  0.  0.
   549  5.48  0.  0.  0.
   550  5.49  0.  0.  0.
   551  5.50  0.  0.  0.
   552  5.51  0.  0.  0.
   553  5.52  0.  0.  0.
   554  5.53  0.  0.  0.
   555  5.54  0.  0.  0.
   556  5.55  0.  0.  0.
   557  5.56  0.  0.  0.
   558  5.57  0.  0.  0.
   559  5.58  0.  0.  0.
   560  5.59  0.  0.  0.
   561  5.60  0.  0.  0.
   562  5.61  0.  0.  0.
   563  5.62  0.  0.  0.
   564  5.63  0.  0.  0.
   565  5.64  0.  0.  0.
   566  5.65  0.  0.  0.
   567  5.66  0.  0.  0.
   568  5.67  0.  0.  0.
   569  5.68  0.  0.  0.
   570  5.69  0.  0.  0.
   571  5.70  0.  0.  0.
   572  5.71  0.  0.  0.
   573  5.72  0.  0.  0.
   574  5.73  0.  0.  0.
   575  5.74  0.  0.  0.
   576  5.75  0.  0.  0.
   577  5.76  0.  0.  0.
   578  5.77  0.  0.  0.
   579  5.78  0.  0.  0.
   580  5.79  0.  0.  0.
   581  5.80  0.  0.  0.
   582  5.81  0.  0.  0.
   583  5.82  0.  0.  0.
   584  5.83  0.  0.  0.
   585  5.84  0.  0.  0.
   586  5.85  0.  0.  0.
   587  5.86  0.  0.  0.
   588  5.87  0.  0.  0.
   589  5.88  0.  0.  0.
   590  5.89  0.  0.  0.
   591  5.90  0.  0.  0.
   592  5.91  0.  0.  0.
   593  5.92  0.  0.  0.
   594  5.93  0.  0.  0.
   595  5.94  0.  0.  0.
   596  5.95  0.  0.  0.
   597  5.96  0.  0.  0.
   598  5.97  0.  0.  0.
   599  5.98  0.  0.  0.
   600  5.99  0.  0.  0.
   1                        -1.1215937552723E+01 -8.5596807906153E-01
     1  0.0000000000000E+00  3.5856962676828E-09 -2.0975383208111E-08
     2  1.0000000000000E-02  2.8631081039119E-03 -4.7706020466798E-03
     3  2.0000000000000E-02  1.1431671129676E-02 -1.9017730403878E-02
     4  3.0000000000000E-02  2.5643589020157E-02 -4.2548198359378E-02
     5  4.0000000000000E-02  4.5395972354320E-02 -7.5042838270884E-02
     6  5.0000000000000E-02  7.0546051401513E-02 -1.1606067538099E-01
     7  6.0000000000000E-02  1.0091243497579E-01 -1.6504468880417E-01
     8  7.0000000000000E-02  1.3627670548260E-01 -2.2132907883750E-01
     9  8.0000000000000E-02  1.7638533296457E-01 -2.8414793877124E-01
    10  9.0000000000000E-02  2.2095188758767E-01 -3.5264520994493E-01
    11  1.0000000000000E-01  2.6965952690685E-01 -4.2588578120011E-01
    12  1.1000000000000E-01  3.2216373144856E-01 -5.0286757838492E-01
    13  1.2000000000000E-01  3.7809525968178E-01 -5.8253447639500E-01
    14  1.3000000000000E-01  4.3706329134669E-01 -6.6378985557965E-01
    15  1.4000000000000E-01  4.9865872639661E-01 -7.4551061635196E-01
    16  1.5000000000000E-01  5.6245760550097E-01 -8.2656146062236E-01
    17  1.6000000000000E-01  6.2802461716783E-01 -9.0580924628887E-01
    18  1.7000000000000E-01  6.9491665608088E-01 -9.8213722148232E-01
    19  1.8000000000000E-01  7.6268639720683E-01 -1.0544589485508E+00
    20  1.9000000000000E-01  8.3088585061120E-01 -1.1217317338036E+00
    21  2.0000000000000E-01  8.9906986271041E-01 -1.1829693877033E+00
    22  2.1000000000000E-01  9.6679953087076E-01 -1.2372541513409E+00
    23  2.2000000000000E-01  1.0336454998171E+00 -1.2837476384569E+00
    24  2.3000000000000E-01  1.0991911102097E+00 -1.3217006577494E+00
    25  2.4000000000000E-01  1.1630353719563E+00 -1.3504617974900E+00
    26  2.5000000000000E-01  1.2247957373105E+00 -1.3694846732443E+00
    27  2.6000000000000E-01  1.2841106515331E+00 -1.3783337594845E+00
    28  2.7000000000000E-01  1.3406418618159E+00 -1.3766887467445E+00
    29  2.8000000000000E-01  1.3940764682470E+00 -1.3643473873826E+00
    30  2.9000000000000E-01  1.4441287037879E+00 -1.3412268146455E+00
    31  3.0000000000000E-01  1.4905414334937E+00 -1.3073633412310E+00
    32  3.1000000000000E-01  1.5330873664903E+00 -1.2629107646032E+00
    33  3.2000000000000E-01  1.5715699774893E+00 -1.2081372266012E+00
    34  3.3000000000000E-01  1.6058241378234E+00 -1.1434206941077E+00
    35  3.4000000000000E-01  1.6357164590887E+00 -1.0692431454253E+00
    36  3.5000000000000E-01  1.6611453554456E+00 -9.8618356330122E-01
    37  3.6000000000000E-01  1.6820408334228E+00 -8.9490985002229E-01
    38  3.7000000000000E-01  1.6983640206595E+00 -7.9616979248444E-01
    39  3.8000000000000E-01  1.7101064473813E+00 -6.9078121548131E-01
    40  3.9000000000000E-01  1.7172890965163E+00 -5.7962146953367E-01
    41  4.0000000000000E-01  1.7199612401972E+00 -4.6361640532957E-01
    42  4.1000000000000E-01  1.7181990819523E+00 -3.4372899022953E-01
    43  4.2000000000000E-01  1.7121042251535E+00 -2.2094772331711E-01
    44  4.3000000000000E-01  1.7018019892575E+00 -9.6275004190938E-02
    45  4.4000000000000E-01  1.6874395960514E+00  2.9284392820885E-02
    46  4.5000000000000E-01  1.6691842484904E+00  1.5473459296863E-01
    47  4.6000000000000E-01  1.6472211248187E+00  2.7909950544613E-01
    48  4.7000000000000E-01  1.6217513104863E+00  4.0143318872210E-01
    49  4.8000000000000E-01  1.5929896899491E+00  5.2082957870561E-01
    50  4.9000000000000E-01  1.5611628197735E+00  6.3643147393143E-01
    51  5.0000000000000E-01  1.5265068035853E+00  7.4743868539196E-01
    52  5.1000000000000E-01  1.4892651883287E+00  8.5311527295494E-01
    53  5.2000000000000E-01  1.4496869000638E+00  9.5279580523533E-01
    54  5.3000000000000E-01  1.4080242361433E+00  1.0458905950770E+00
    55  5.4000000000000E-01  1.3645309291166E+00  1.1318898781926E+00
    56  5.5000000000000E-01  1.3194602961217E+00  1.2103669177581E+00
    57  5.6000000000000E-01  1.2730634858772E+00  1.2809800326362E+00
    58  5.7000000000000E-01  1.2255878337056E+00  1.3434735611767E+00
    59  5.8000000000000E-01  1.1772753333213E+00  1.3976777860342E+00
    60  5.9000000000000E-01  1.1283612324366E+00  1.4435078579584E+00
    61  6.0000000000000E-01  1.0790727575834E+00  1.4809617679122E+00
    62  6.1000000000000E-01  1.0296279719547E+00  1.5101174270319E+00
    63  6.2000000000000E-01  9.8023476853728E-01  1.5311289227596E+00
    64  6.3000000000000E-01  9.3108999935939E-01  1.5442220269011E+00
    65  6.4000000000000E-01  8.8237874033060E-01  1.5496890373344E+00
    66  6.5000000000000E-01  8.3427368990104E-01  1.5478830396297E+00
    67  6.6000000000000E-01  7.8693469863602E-01  1.5392116779428E+00
    68  6.7000000000000E-01  7.4050842578448E-01  1.5241305262675E+00
    69  6.8000000000000E-01  6.9512811802145E-01  1.5031361515432E+00
    70  6.9000000000000E-01  6.5091350476605E-01  1.4767589593004E+00
    71  7.0000000000000E-01  6.0797080381425E-01  1.4455559106050E+00
    72  7.1000000000000E-01  5.6639283047720E-01  1.4101031961453E+00
    73  7.2000000000000E-01  5.2625920297556E-01  1.3709889495370E+00
    74  7.3000000000000E-01  4.8763663650141E-01  1.3288060774361E+00
    75  7.4000000000000E-01  4.5057931811526E-01  1.2841452790016E+00
    76  7.5000000000000E-01  4.1512935448745E-01  1.2375883217742E+00
    77  7.6000000000000E-01  3.8131728441268E-01  1.1897016352900E+00
    78  7.7000000000000E-01  3.4916264801500E-01  1.1410302778544E+00
    79  7.8000000000000E-01  3.1867460460913E-01  1.0920923259971E+00
    80  7.9000000000000E-01  2.8985259128440E-01  1.0433737303216E+00
    81  8.0000000000000E-01  2.6268701442226E-01  9.9532367585671E-01
    82  8.1000000000000E-01  2.3715996653896E-01  9.4835047969857E-01
    83  8.2000000000000E-01  2.1324596105683E-01  9.0281805375824E-01
    84  8.3000000000000E-01  1.9091267784319E-01  8.5904295585948E-01
    85  8.4000000000000E-01  1.7012171261188E-01  8.1729204828595E-01
    86  8.5000000000000E-01  1.5082932355488E-01  7.7778077917021E-01
    87  8.6000000000000E-01  1.3298716885717E-01  7.4067209884049E-01
    88  8.7000000000000E-01  1.1654302904594E-01  7.0607602037102E-01
    89  8.8000000000000E-01  1.0144150843383E-01  6.7404983107932E-01
    90  8.9000000000000E-01  8.7624710235741E-02  6.4459895952553E-01
    91  9.0000000000000E-01  7.5032880269345E-02  6.1767850063366E-01
    92  9.1000000000000E-01  6.3605014492998E-02  5.9319539980011E-01
    93  9.2000000000000E-01  5.3279425991666E-02  5.7101129520479E-01
    94  9.3000000000000E-01  4.3994267393810E-02  5.5094601591568E-01
    95  9.4000000000000E-01  3.5688005091536E-02  5.3278173170192E-01
    96  9.5000000000000E-01  2.8299842044083E-02  5.1626774866448E-01
    97  9.6000000000000E-01  2.1770086372078E-02  5.0112594279232E-01
    98  9.7000000000000E-01  1.6040463397960E-02  4.8705682129428E-01
    99  9.8000000000000E-01  1.1054369256675E-02  4.7374619898841E-01
   100  9.9000000000000E-01  6.7570646896792E-03  4.6087247412496E-01