Hs    ONCVPSP-4.0.1  r_core=   1.15226   1.15226   1.15226   1.20154
108.0000     48.0000      220328    zatom,zion,pspd
8      11   3     4   600     0    pspcod,pspxc,lmax,lloc,mmax,r2well
5.99000000  3.80000000  0.00000000    rchrg fchrg qchrg
3     2     2     2     0    nproj
1     1           extension_switch
0                         1.3420328252291E+01 -9.2181762681012E+00  1.4261451819246E+00
1  0.0000000000000E+00  1.1003481681371E-08 -3.9903114146256E-10  3.9911528249004E-08
2  1.0000000000000E-02  1.6670444856090E-01  7.3024471011840E-02  3.7095546607699E-02
3  2.0000000000000E-02  3.3196310800058E-01  1.4587765938165E-01  7.3475266345226E-02
4  3.0000000000000E-02  4.9434290171054E-01  2.1838894508988E-01  1.0842994364820E-01
5  4.0000000000000E-02  6.5243611805887E-01  2.9038902840627E-01  1.4126369664873E-01
6  5.0000000000000E-02  8.0487293942027E-01  3.6171057775711E-01  1.7130091019103E-01
7  6.0000000000000E-02  9.5033377795587E-01  4.3218886316731E-01  1.9789345656757E-01
8  7.0000000000000E-02  1.0875613392723E+00  5.0166237096751E-01  2.2042824898939E-01
9  8.0000000000000E-02  1.2153723240860E+00  5.6997339585518E-01  2.3833513289267E-01
10  9.0000000000000E-02  1.3326686659114E+00  6.3696860686406E-01  2.5109507471893E-01
11  1.0000000000000E-01  1.4384481905466E+00  7.0249958430748E-01  2.5824855940309E-01
12  1.1000000000000E-01  1.5318145717867E+00  7.6642332529694E-01  2.5940405930233E-01
13  1.2000000000000E-01  1.6119864484111E+00  8.2860271597575E-01  2.5424639160296E-01
14  1.3000000000000E-01  1.6783055610728E+00  8.8890696912638E-01  2.4254474118939E-01
15  1.4000000000000E-01  1.7302437651878E+00  9.4721202628975E-01  2.2416009416120E-01
16  1.5000000000000E-01  1.7674087780385E+00  1.0034009239575E+00  1.9905180590068E-01
17  1.6000000000000E-01  1.7895485256278E+00  1.0573641237497E+00  1.6728301860659E-01
18  1.7000000000000E-01  1.7965539676948E+00  1.1089998067626E+00  1.2902464773379E-01
19  1.8000000000000E-01  1.7884602977788E+00  1.1582141324536E+00  8.4557675376081E-02
20  1.9000000000000E-01  1.7654464391156E+00  1.2049214625330E+00  3.4273521190283E-02
21  2.0000000000000E-01  1.7278327859620E+00  1.2490445503452E+00 -2.1327692836621E-02
22  2.1000000000000E-01  1.6760771729606E+00  1.2905146961710E+00 -8.1641110094584E-02
23  2.2000000000000E-01  1.6107690913673E+00  1.3292718687652E+00 -1.4596339889357E-01
24  2.3000000000000E-01  1.5326222092209E+00  1.3652647932909E+00 -2.1350128928047E-01
25  2.4000000000000E-01  1.4424652914793E+00  1.3984510056337E+00 -2.8338229470617E-01
26  2.5000000000000E-01  1.3412316543820E+00  1.4287968729016E+00 -3.5466744762651E-01
27  2.6000000000000E-01  1.2299473243412E+00  1.4562775797581E+00 -4.2636580243152E-01
28  2.7000000000000E-01  1.1097181040956E+00  1.4808770801255E+00 -4.9745038962764E-01
29  2.8000000000000E-01  9.8171577635142E-01  1.5025880137387E+00 -5.6687524516311E-01
30  2.9000000000000E-01  8.4716369648651E-01  1.5214115870563E+00 -6.3359309109509E-01
31  3.0000000000000E-01  7.0732204016548E-01  1.5373574181537E+00 -6.9657321084702E-01
32  3.1000000000000E-01  5.6347297817608E-01  1.5504433454297E+00 -7.5481904593604E-01
33  3.2000000000000E-01  4.1690604905570E-01  1.5606952002787E+00 -8.0738504239066E-01
34  3.3000000000000E-01  2.6890399003680E-01  1.5681465442841E+00 -8.5339229451572E-01
35  3.4000000000000E-01  1.2072926874535E-01  1.5728383719887E+00 -8.9204257080121E-01
36  3.5000000000000E-01 -2.6388467487250E-02  1.5748187808685E+00 -9.2263036042897E-01
37  3.6000000000000E-01 -1.7126384001043E-01  1.5741426107587E+00 -9.4455264709358E-01
38  3.7000000000000E-01 -3.1276593785444E-01  1.5708710556339E+00 -9.5731619712197E-01
39  3.8000000000000E-01 -4.4982716189884E-01  1.5650712513003E+00 -9.6054223799371E-01
40  3.9000000000000E-01 -5.8145065285568E-01  1.5568158431825E+00 -9.5396849772003E-01
41  4.0000000000000E-01 -7.0671628656251E-01  1.5461825389596E+00 -9.3744867124472E-01
42  4.1000000000000E-01 -8.2478526393991E-01  1.5332536512806E+00 -9.1094947305402E-01
43  4.2000000000000E-01 -9.3490336411738E-01  1.5181156361553E+00 -8.7454552154903E-01
44  4.3000000000000E-01 -1.0364029660471E+00  1.5008586328371E+00 -8.2841237667936E-01
45  4.4000000000000E-01 -1.1287039749494E+00  1.4815760110694E+00 -7.7281811448525E-01
46  4.5000000000000E-01 -1.2113138139377E+00  1.4603639314485E+00 -7.0811386770466E-01
47  4.6000000000000E-01 -1.2838266572184E+00  1.4373209243480E+00 -6.3472378830836E-01
48  4.7000000000000E-01 -1.3459220887230E+00  1.4125474923544E+00 -5.5313489432030E-01
49  4.8000000000000E-01 -1.3973633686750E+00  1.3861457404848E+00 -4.6388724903813E-01
50  4.9000000000000E-01 -1.4379954805098E+00  1.3582190376140E+00 -3.6756488611087E-01
51  5.0000000000000E-01 -1.4677431122802E+00  1.3288717115459E+00 -2.6478784010887E-01
52  5.1000000000000E-01 -1.4866087010186E+00  1.2982087790549E+00 -1.5620557132156E-01
53  5.2000000000000E-01 -1.4946706366901E+00  1.2663357110298E+00 -4.2491988414706E-02
54  5.3000000000000E-01 -1.4920816858259E+00  1.2333582316182E+00  7.5657823166589E-02
55  5.4000000000000E-01 -1.4790676553573E+00  1.1993821490294E+00  1.9752916145787E-01
56  5.5000000000000E-01 -1.4559262764518E+00  1.1645132144661E+00  3.2238765567483E-01
57  5.6000000000000E-01 -1.4230262482075E+00  1.1288570045516E+00  4.4947780188895E-01
58  5.7000000000000E-01 -1.3808063438445E+00  1.0925188216529E+00  5.7802038169716E-01
59  5.8000000000000E-01 -1.3297744494034E+00  1.0556036057123E+00  7.0720914160973E-01
60  5.9000000000000E-01 -1.2705063786247E+00  1.0182158506194E+00  8.3620717772026E-01
61  6.0000000000000E-01 -1.2036442891175E+00  9.8045951782311E-01  9.6414351765909E-01
62  6.1000000000000E-01 -1.1298945152912E+00  9.4243793980946E-01  1.0901104170717E+00
63  6.2000000000000E-01 -1.0500246336340E+00  9.0425370627899E-01  1.2131618889787E+00
64  6.3000000000000E-01 -9.6485958618633E-01  8.6600852634432E-01  1.3323139604043E+00
65  6.4000000000000E-01 -8.7527670845120E-01  8.2780306082958E-01  1.4465471016948E+00
66  6.5000000000000E-01 -7.8219953804469E-01  7.8973671977198E-01  1.5548112011277E+00
67  6.6000000000000E-01 -6.8659031923438E-01  7.5190742147457E-01  1.6560333629317E+00
68  6.7000000000000E-01 -5.8944116483172E-01  7.1441131090164E-01  1.7491286938734E+00
69  6.8000000000000E-01 -4.9176388904569E-01  6.7734243680068E-01  1.8330141161624E+00
70  6.9000000000000E-01 -3.9457858089664E-01  6.4079238862550E-01  1.9066251073823E+00
71  7.0000000000000E-01 -2.9890104544634E-01  6.0484989606845E-01  1.9689351267996E+00
72  7.1000000000000E-01 -2.0572929707516E-01  5.6960039572583E-01  2.0189773474353E+00
73  7.2000000000000E-01 -1.1602934294819E-01  5.3512557106008E-01  2.0558681805210E+00
74  7.3000000000000E-01 -3.0720543314588E-02  5.0150287332536E-01  2.0788319590811E+00
75  7.4000000000000E-01  4.9339123818721E-02  4.6880503243498E-01  2.0872260457551E+00
76  7.5000000000000E-01  1.2336753475164E-01  4.3709956781961E-01  2.0805655513049E+00
77  7.6000000000000E-01  1.9067224983746E-01  4.0644831011188E-01  2.0585467985135E+00
78  7.7000000000000E-01  2.5066331406475E-01  3.7690694496361E-01  2.0210686442847E+00
79  7.8000000000000E-01  3.0286464695422E-01  3.4852459043446E-01  1.9682507824911E+00
80  7.9000000000000E-01  3.4692365890414E-01  3.2134341917434E-01  1.9004481920054E+00
81  8.0000000000000E-01  3.8261876276721E-01  2.9539833606074E-01  1.8182609675740E+00
82  8.1000000000000E-01  4.0986449320294E-01  2.7071672105945E-01  1.7225388735975E+00
83  8.2000000000000E-01  4.2871400080829E-01  2.4731824588239E-01  1.6143800890391E+00
84  8.3000000000000E-01  4.3935875127913E-01  2.2521477155703E-01  1.4951237609442E+00
85  8.4000000000000E-01  4.4212532956866E-01  2.0441033234930E-01  1.3663361487649E+00
86  8.5000000000000E-01  4.3746932250685E-01  1.8490120965222E-01  1.2297903153459E+00
87  8.6000000000000E-01  4.2596632771357E-01  1.6667609753231E-01  1.0874394959431E+00
88  8.7000000000000E-01  4.0830020882766E-01  1.4971635968186E-01  9.4138444664267E-01
89  8.8000000000000E-01  3.8524878403400E-01  1.3399637562969E-01  7.9383523060581E-01
90  8.9000000000000E-01  3.5766719366360E-01  1.1948397228310E-01  6.4706803759121E-01
91  9.0000000000000E-01  3.2646924058456E-01  1.0614093527655E-01  5.0337774271157E-01
92  9.1000000000000E-01  2.9260703187317E-01  9.3923593245410E-02  3.6502698877424E-01
93  9.2000000000000E-01  2.5704927000604E-01  8.2783467076536E-02  2.3419261841064E-01
94  9.3000000000000E-01  2.2075854526767E-01  7.2667975450515E-02  1.1291028448493E-01
95  9.4000000000000E-01  1.8466796757707E-01  6.3521187608828E-02  3.0180285039569E-03
96  9.5000000000000E-01  1.4965744553956E-01  5.5284614266231E-02 -9.3900462871117E-02
97  9.6000000000000E-01  1.1652987395530E-01  4.7898027941958E-02 -1.7657233170920E-01
98  9.7000000000000E-01  8.5987429717363E-02  4.1300304686283E-02 -2.4409131550065E-01
99  9.8000000000000E-01  5.8608102026418E-02  3.5430280201933E-02 -2.9597255327402E-01
100  9.9000000000000E-01  3.4822497389437E-02  3.0227614676549E-02 -3.3220639138745E-01
101  1.0000000000000E+00  1.4890913750555E-02  2.5633661607192E-02 -3.5331119290958E-01
102  1.0100000000000E+00 -1.1191288268669E-03  2.1592334012908E-02 -3.6038423807763E-01
103  1.0200000000000E+00 -1.3324512094650E-02  1.8050601351882E-02 -3.5503122723654E-01
104  1.0300000000000E+00 -2.1960009864374E-02  1.4958363496784E-02 -3.3908437501787E-01
105  1.0400000000000E+00 -2.7346695717786E-02  1.2268810164372E-02 -3.1448595574417E-01
106  1.0500000000000E+00 -2.9876116914743E-02  9.9388927951096E-03 -2.8324228965961E-01
107  1.0600000000000E+00 -2.9993298634830E-02  7.9296817083413E-03 -2.4737629755006E-01
108  1.0700000000000E+00 -2.8179087366431E-02  6.2066193409898E-03 -2.0887970942250E-01
109  1.0800000000000E+00 -2.4932390558825E-02  4.7396768390541E-03 -1.6966620997578E-01
110  1.0900000000000E+00 -2.0752990776296E-02  3.5034714393391E-03 -1.3152700822290E-01
111  1.1000000000000E+00 -1.6115819769773E-02  2.4743885022282E-03 -9.6075337475147E-02
112  1.1100000000000E+00 -1.1431277713216E-02  1.6257159343975E-03 -6.4668558615934E-02
113  1.1200000000000E+00 -7.1255063759094E-03  9.5344574271730E-04 -3.8522533924705E-02
114  1.1300000000000E+00 -3.5849889305220E-03  4.5764803042534E-04 -1.8625197621756E-02
115  1.1400000000000E+00 -1.1340735673716E-03  1.3987514228373E-04 -5.6874813748760E-03
116  1.1500000000000E+00 -5.7903810234472E-05  6.9776382937779E-06 -2.8068830360822E-04
117  1.1600000000000E+00 -2.4986915867114E-06  2.9975836602531E-07 -1.2130806483832E-05
118  1.1700000000000E+00  9.3172948379268E-07 -1.1303133285578E-07  4.5882418253343E-06
119  1.18 -0. -0. -0.
120  1.19  0.  0.  0.
121  1.20  0.  0.  0.
122  1.21  0.  0.  0.
123  1.22  0.  0.  0.
124  1.23  0.  0.  0.
125  1.24  0.  0.  0.
126  1.25  0.  0.  0.
127  1.26  0.  0.  0.
128  1.27  0.  0.  0.
129  1.28  0.  0.  0.
130  1.29  0.  0.  0.
131  1.30  0.  0.  0.
132  1.31  0.  0.  0.
133  1.32  0.  0.  0.
134  1.33  0.  0.  0.
135  1.34  0.  0.  0.
136  1.35  0.  0.  0.
137  1.36  0.  0.  0.
138  1.37  0.  0.  0.
139  1.38  0.  0.  0.
140  1.39  0.  0.  0.
141  1.40  0.  0.  0.
142  1.41  0.  0.  0.
143  1.42  0.  0.  0.
144  1.43  0.  0.  0.
145  1.44  0.  0.  0.
146  1.45  0.  0.  0.
147  1.46  0.  0.  0.
148  1.47  0.  0.  0.
149  1.48  0.  0.  0.
150  1.49  0.  0.  0.
151  1.50  0.  0.  0.
152  1.51  0.  0.  0.
153  1.52  0.  0.  0.
154  1.53  0.  0.  0.
155  1.54  0.  0.  0.
156  1.55  0.  0.  0.
157  1.56  0.  0.  0.
158  1.57  0.  0.  0.
159  1.58  0.  0.  0.
160  1.59  0.  0.  0.
161  1.60  0.  0.  0.
162  1.61  0.  0.  0.
163  1.62  0.  0.  0.
164  1.63  0.  0.  0.
165  1.64  0.  0.  0.
166  1.65  0.  0.  0.
167  1.66  0.  0.  0.
168  1.67  0.  0.  0.
169  1.68  0.  0.  0.
170  1.69  0.  0.  0.
171  1.70  0.  0.  0.
172  1.71  0.  0.  0.
173  1.72  0.  0.  0.
174  1.73  0.  0.  0.
175  1.74  0.  0.  0.
176  1.75  0.  0.  0.
177  1.76  0.  0.  0.
178  1.77  0.  0.  0.
179  1.78  0.  0.  0.
180  1.79  0.  0.  0.
181  1.80  0.  0.  0.
182  1.81  0.  0.  0.
183  1.82  0.  0.  0.
184  1.83  0.  0.  0.
185  1.84  0.  0.  0.
186  1.85  0.  0.  0.
187  1.86  0.  0.  0.
188  1.87  0.  0.  0.
189  1.88  0.  0.  0.
190  1.89  0.  0.  0.
191  1.90  0.  0.  0.
192  1.91  0.  0.  0.
193  1.92  0.  0.  0.
194  1.93  0.  0.  0.
195  1.94  0.  0.  0.
196  1.95  0.  0.  0.
197  1.96  0.  0.  0.
198  1.97  0.  0.  0.
199  1.98  0.  0.  0.
200  1.99  0.  0.  0.
201  2.00  0.  0.  0.
202  2.01  0.  0.  0.
203  2.02  0.  0.  0.
204  2.03  0.  0.  0.
205  2.04  0.  0.  0.
206  2.05  0.  0.  0.
207  2.06  0.  0.  0.
208  2.07  0.  0.  0.
209  2.08  0.  0.  0.
210  2.09  0.  0.  0.
211  2.10  0.  0.  0.
212  2.11  0.  0.  0.
213  2.12  0.  0.  0.
214  2.13  0.  0.  0.
215  2.14  0.  0.  0.
216  2.15  0.  0.  0.
217  2.16  0.  0.  0.
218  2.17  0.  0.  0.
219  2.18  0.  0.  0.
220  2.19  0.  0.  0.
221  2.20  0.  0.  0.
222  2.21  0.  0.  0.
223  2.22  0.  0.  0.
224  2.23  0.  0.  0.
225  2.24  0.  0.  0.
226  2.25  0.  0.  0.
227  2.26  0.  0.  0.
228  2.27  0.  0.  0.
229  2.28  0.  0.  0.
230  2.29  0.  0.  0.
231  2.30  0.  0.  0.
232  2.31  0.  0.  0.
233  2.32  0.  0.  0.
234  2.33  0.  0.  0.
235  2.34  0.  0.  0.
236  2.35  0.  0.  0.
237  2.36  0.  0.  0.
238  2.37  0.  0.  0.
239  2.38  0.  0.  0.
240  2.39  0.  0.  0.
241  2.40  0.  0.  0.
242  2.41  0.  0.  0.
243  2.42  0.  0.  0.
244  2.43  0.  0.  0.
245  2.44  0.  0.  0.
246  2.45  0.  0.  0.
247  2.46  0.  0.  0.
248  2.47  0.  0.  0.
249  2.48  0.  0.  0.
250  2.49  0.  0.  0.
251  2.50  0.  0.  0.
252  2.51  0.  0.  0.
253  2.52  0.  0.  0.
254  2.53  0.  0.  0.
255  2.54  0.  0.  0.
256  2.55  0.  0.  0.
257  2.56  0.  0.  0.
258  2.57  0.  0.  0.
259  2.58  0.  0.  0.
260  2.59  0.  0.  0.
261  2.60  0.  0.  0.
262  2.61  0.  0.  0.
263  2.62  0.  0.  0.
264  2.63  0.  0.  0.
265  2.64  0.  0.  0.
266  2.65  0.  0.  0.
267  2.66  0.  0.  0.
268  2.67  0.  0.  0.
269  2.68  0.  0.  0.
270  2.69  0.  0.  0.
271  2.70  0.  0.  0.
272  2.71  0.  0.  0.
273  2.72  0.  0.  0.
274  2.73  0.  0.  0.
275  2.74  0.  0.  0.
276  2.75  0.  0.  0.
277  2.76  0.  0.  0.
278  2.77  0.  0.  0.
279  2.78  0.  0.  0.
280  2.79  0.  0.  0.
281  2.80  0.  0.  0.
282  2.81  0.  0.  0.
283  2.82  0.  0.  0.
284  2.83  0.  0.  0.
285  2.84  0.  0.  0.
286  2.85  0.  0.  0.
287  2.86  0.  0.  0.
288  2.87  0.  0.  0.
289  2.88  0.  0.  0.
290  2.89  0.  0.  0.
291  2.90  0.  0.  0.
292  2.91  0.  0.  0.
293  2.92  0.  0.  0.
294  2.93  0.  0.  0.
295  2.94  0.  0.  0.
296  2.95  0.  0.  0.
297  2.96  0.  0.  0.
298  2.97  0.  0.  0.
299  2.98  0.  0.  0.
300  2.99  0.  0.  0.
301  3.00  0.  0.  0.
302  3.01  0.  0.  0.
303  3.02  0.  0.  0.
304  3.03  0.  0.  0.
305  3.04  0.  0.  0.
306  3.05  0.  0.  0.
307  3.06  0.  0.  0.
308  3.07  0.  0.  0.
309  3.08  0.  0.  0.
310  3.09  0.  0.  0.
311  3.10  0.  0.  0.
312  3.11  0.  0.  0.
313  3.12  0.  0.  0.
314  3.13  0.  0.  0.
315  3.14  0.  0.  0.
316  3.15  0.  0.  0.
317  3.16  0.  0.  0.
318  3.17  0.  0.  0.
319  3.18  0.  0.  0.
320  3.19  0.  0.  0.
321  3.20  0.  0.  0.
322  3.21  0.  0.  0.
323  3.22  0.  0.  0.
324  3.23  0.  0.  0.
325  3.24  0.  0.  0.
326  3.25  0.  0.  0.
327  3.26  0.  0.  0.
328  3.27  0.  0.  0.
329  3.28  0.  0.  0.
330  3.29  0.  0.  0.
331  3.30  0.  0.  0.
332  3.31  0.  0.  0.
333  3.32  0.  0.  0.
334  3.33  0.  0.  0.
335  3.34  0.  0.  0.
336  3.35  0.  0.  0.
337  3.36  0.  0.  0.
338  3.37  0.  0.  0.
339  3.38  0.  0.  0.
340  3.39  0.  0.  0.
341  3.40  0.  0.  0.
342  3.41  0.  0.  0.
343  3.42  0.  0.  0.
344  3.43  0.  0.  0.
345  3.44  0.  0.  0.
346  3.45  0.  0.  0.
347  3.46  0.  0.  0.
348  3.47  0.  0.  0.
349  3.48  0.  0.  0.
350  3.49  0.  0.  0.
351  3.50  0.  0.  0.
352  3.51  0.  0.  0.
353  3.52  0.  0.  0.
354  3.53  0.  0.  0.
355  3.54  0.  0.  0.
356  3.55  0.  0.  0.
357  3.56  0.  0.  0.
358  3.57  0.  0.  0.
359  3.58  0.  0.  0.
360  3.59  0.  0.  0.
361  3.60  0.  0.  0.
362  3.61  0.  0.  0.
363  3.62  0.  0.  0.
364  3.63  0.  0.  0.
365  3.64  0.  0.  0.
366  3.65  0.  0.  0.
367  3.66  0.  0.  0.
368  3.67  0.  0.  0.
369  3.68  0.  0.  0.
370  3.69  0.  0.  0.
371  3.70  0.  0.  0.
372  3.71  0.  0.  0.
373  3.72  0.  0.  0.
374  3.73  0.  0.  0.
375  3.74  0.  0.  0.
376  3.75  0.  0.  0.
377  3.76  0.  0.  0.
378  3.77  0.  0.  0.
379  3.78  0.  0.  0.
380  3.79  0.  0.  0.
381  3.80  0.  0.  0.
382  3.81  0.  0.  0.
383  3.82  0.  0.  0.
384  3.83  0.  0.  0.
385  3.84  0.  0.  0.
386  3.85  0.  0.  0.
387  3.86  0.  0.  0.
388  3.87  0.  0.  0.
389  3.88  0.  0.  0.
390  3.89  0.  0.  0.
391  3.90  0.  0.  0.
392  3.91  0.  0.  0.
393  3.92  0.  0.  0.
394  3.93  0.  0.  0.
395  3.94  0.  0.  0.
396  3.95  0.  0.  0.
397  3.96  0.  0.  0.
398  3.97  0.  0.  0.
399  3.98  0.  0.  0.
400  3.99  0.  0.  0.
401  4.00  0.  0.  0.
402  4.01  0.  0.  0.
403  4.02  0.  0.  0.
404  4.03  0.  0.  0.
405  4.04  0.  0.  0.
406  4.05  0.  0.  0.
407  4.06  0.  0.  0.
408  4.07  0.  0.  0.
409  4.08  0.  0.  0.
410  4.09  0.  0.  0.
411  4.10  0.  0.  0.
412  4.11  0.  0.  0.
413  4.12  0.  0.  0.
414  4.13  0.  0.  0.
415  4.14  0.  0.  0.
416  4.15  0.  0.  0.
417  4.16  0.  0.  0.
418  4.17  0.  0.  0.
419  4.18  0.  0.  0.
420  4.19  0.  0.  0.
421  4.20  0.  0.  0.
422  4.21  0.  0.  0.
423  4.22  0.  0.  0.
424  4.23  0.  0.  0.
425  4.24  0.  0.  0.
426  4.25  0.  0.  0.
427  4.26  0.  0.  0.
428  4.27  0.  0.  0.
429  4.28  0.  0.  0.
430  4.29  0.  0.  0.
431  4.30  0.  0.  0.
432  4.31  0.  0.  0.
433  4.32  0.  0.  0.
434  4.33  0.  0.  0.
435  4.34  0.  0.  0.
436  4.35  0.  0.  0.
437  4.36  0.  0.  0.
438  4.37  0.  0.  0.
439  4.38  0.  0.  0.
440  4.39  0.  0.  0.
441  4.40  0.  0.  0.
442  4.41  0.  0.  0.
443  4.42  0.  0.  0.
444  4.43  0.  0.  0.
445  4.44  0.  0.  0.
446  4.45  0.  0.  0.
447  4.46  0.  0.  0.
448  4.47  0.  0.  0.
449  4.48  0.  0.  0.
450  4.49  0.  0.  0.
451  4.50  0.  0.  0.
452  4.51  0.  0.  0.
453  4.52  0.  0.  0.
454  4.53  0.  0.  0.
455  4.54  0.  0.  0.
456  4.55  0.  0.  0.
457  4.56  0.  0.  0.
458  4.57  0.  0.  0.
459  4.58  0.  0.  0.
460  4.59  0.  0.  0.
461  4.60  0.  0.  0.
462  4.61  0.  0.  0.
463  4.62  0.  0.  0.
464  4.63  0.  0.  0.
465  4.64  0.  0.  0.
466  4.65  0.  0.  0.
467  4.66  0.  0.  0.
468  4.67  0.  0.  0.
469  4.68  0.  0.  0.
470  4.69  0.  0.  0.
471  4.70  0.  0.  0.
472  4.71  0.  0.  0.
473  4.72  0.  0.  0.
474  4.73  0.  0.  0.
475  4.74  0.  0.  0.
476  4.75  0.  0.  0.
477  4.76  0.  0.  0.
478  4.77  0.  0.  0.
479  4.78  0.  0.  0.
480  4.79  0.  0.  0.
481  4.80  0.  0.  0.
482  4.81  0.  0.  0.
483  4.82  0.  0.  0.
484  4.83  0.  0.  0.
485  4.84  0.  0.  0.
486  4.85  0.  0.  0.
487  4.86  0.  0.  0.
488  4.87  0.  0.  0.
489  4.88  0.  0.  0.
490  4.89  0.  0.  0.
491  4.90  0.  0.  0.
492  4.91  0.  0.  0.
493  4.92  0.  0.  0.
494  4.93  0.  0.  0.
495  4.94  0.  0.  0.
496  4.95  0.  0.  0.
497  4.96  0.  0.  0.
498  4.97  0.  0.  0.
499  4.98  0.  0.  0.
500  4.99  0.  0.  0.
501  5.00  0.  0.  0.
502  5.01  0.  0.  0.
503  5.02  0.  0.  0.
504  5.03  0.  0.  0.
505  5.04  0.  0.  0.
506  5.05  0.  0.  0.
507  5.06  0.  0.  0.
508  5.07  0.  0.  0.
509  5.08  0.  0.  0.
510  5.09  0.  0.  0.
511  5.10  0.  0.  0.
512  5.11  0.  0.  0.
513  5.12  0.  0.  0.
514  5.13  0.  0.  0.
515  5.14  0.  0.  0.
516  5.15  0.  0.  0.
517  5.16  0.  0.  0.
518  5.17  0.  0.  0.
519  5.18  0.  0.  0.
520  5.19  0.  0.  0.
521  5.20  0.  0.  0.
522  5.21  0.  0.  0.
523  5.22  0.  0.  0.
524  5.23  0.  0.  0.
525  5.24  0.  0.  0.
526  5.25  0.  0.  0.
527  5.26  0.  0.  0.
528  5.27  0.  0.  0.
529  5.28  0.  0.  0.
530  5.29  0.  0.  0.
531  5.30  0.  0.  0.
532  5.31  0.  0.  0.
533  5.32  0.  0.  0.
534  5.33  0.  0.  0.
535  5.34  0.  0.  0.
536  5.35  0.  0.  0.
537  5.36  0.  0.  0.
538  5.37  0.  0.  0.
539  5.38  0.  0.  0.
540  5.39  0.  0.  0.
541  5.40  0.  0.  0.
542  5.41  0.  0.  0.
543  5.42  0.  0.  0.
544  5.43  0.  0.  0.
545  5.44  0.  0.  0.
546  5.45  0.  0.  0.
547  5.46  0.  0.  0.
548  5.47  0.  0.  0.
549  5.48  0.  0.  0.
550  5.49  0.  0.  0.
551  5.50  0.  0.  0.
552  5.51  0.  0.  0.
553  5.52  0.  0.  0.
554  5.53  0.  0.  0.
555  5.54  0.  0.  0.
556  5.55  0.  0.  0.
557  5.56  0.  0.  0.
558  5.57  0.  0.  0.
559  5.58  0.  0.  0.
560  5.59  0.  0.  0.
561  5.60  0.  0.  0.
562  5.61  0.  0.  0.
563  5.62  0.  0.  0.
564  5.63  0.  0.  0.
565  5.64  0.  0.  0.
566  5.65  0.  0.  0.
567  5.66  0.  0.  0.
568  5.67  0.  0.  0.
569  5.68  0.  0.  0.
570  5.69  0.  0.  0.
571  5.70  0.  0.  0.
572  5.71  0.  0.  0.
573  5.72  0.  0.  0.
574  5.73  0.  0.  0.
575  5.74  0.  0.  0.
576  5.75  0.  0.  0.
577  5.76  0.  0.  0.
578  5.77  0.  0.  0.
579  5.78  0.  0.  0.
580  5.79  0.  0.  0.
581  5.80  0.  0.  0.
582  5.81  0.  0.  0.
583  5.82  0.  0.  0.
584  5.83  0.  0.  0.
585  5.84  0.  0.  0.
586  5.85  0.  0.  0.
587  5.86  0.  0.  0.
588  5.87  0.  0.  0.
589  5.88  0.  0.  0.
590  5.89  0.  0.  0.
591  5.90  0.  0.  0.
592  5.91  0.  0.  0.
593  5.92  0.  0.  0.
594  5.93  0.  0.  0.
595  5.94  0.  0.  0.
596  5.95  0.  0.  0.
597  5.96  0.  0.  0.
598  5.97  0.  0.  0.
599  5.98  0.  0.  0.
600  5.99  0.  0.  0.
1                        -7.4618720260264E+00  1.8545120186165E+00
1  0.0000000000000E+00  7.2346711954552E-09  3.0226124048127E-08
2  1.0000000000000E-02  2.9178171571959E-03 -2.2428574458360E-03
3  2.0000000000000E-02  1.1647306459982E-02 -8.9666271478624E-03
4  3.0000000000000E-02  2.6116854798116E-02 -2.0156412872210E-02
5  4.0000000000000E-02  4.6208013986430E-02 -3.5785780605377E-02
6  5.0000000000000E-02  7.1756846227002E-02 -5.5814420177737E-02
7  6.0000000000000E-02  1.0255577801027E-01 -8.0185013002091E-02
8  7.0000000000000E-02  1.3835593345964E-01 -1.0881944130317E-01
9  8.0000000000000E-02  1.7886991088954E-01 -1.4161450444004E-01
10  9.0000000000000E-02  2.2377495986072E-01 -1.7843733223545E-01
11  1.0000000000000E-01  2.7271651040453E-01 -2.1912070275961E-01
12  1.1000000000000E-01  3.2531200145170E-01 -2.6345848215343E-01
13  1.2000000000000E-01  3.8115495191859E-01 -3.1120140646178E-01
14  1.3000000000000E-01  4.3981921542463E-01 -3.6205342000684E-01
15  1.4000000000000E-01  5.0086335826358E-01 -4.1566877176320E-01
16  1.5000000000000E-01  5.6383510002153E-01 -4.7165005097103E-01
17  1.6000000000000E-01  6.2827575709803E-01 -5.2954731656165E-01
18  1.7000000000000E-01  6.9372463128588E-01 -5.8885844281045E-01
19  1.8000000000000E-01  7.5972328842200E-01 -6.4903076710518E-01
20  1.9000000000000E-01  8.2581967583922E-01 -7.0946408609280E-01
21  2.0000000000000E-01  8.9157203181103E-01 -7.6951500511321E-01
22  2.1000000000000E-01  9.5655254526268E-01 -8.2850260415691E-01
23  2.2000000000000E-01  1.0203507295866E+00 -8.8571534300405E-01
24  2.3000000000000E-01  1.0825764803079E+00 -9.4041909006697E-01
25  2.4000000000000E-01  1.1428627924569E+00 -9.9186612501501E-01
26  2.5000000000000E-01  1.2008681196827E+00 -1.0393049356119E+00
27  2.6000000000000E-01  1.2562783632582E+00 -1.0819906052580E+00
28  2.7000000000000E-01  1.3088084850543E+00 -1.1191955702038E+00
29  2.8000000000000E-01  1.3582037442099E+00 -1.1502205147570E+00
30  2.9000000000000E-01  1.4042405624812E+00 -1.1744051692536E+00
31  3.0000000000000E-01  1.4467270280633E+00 -1.1911387790755E+00
32  3.1000000000000E-01  1.4855030519734E+00 -1.1998700232881E+00
33  3.2000000000000E-01  1.5204401948249E+00 -1.2001161780258E+00
34  3.3000000000000E-01  1.5514411849947E+00 -1.1914713418597E+00
35  3.4000000000000E-01  1.5784391517757E+00 -1.1736135671320E+00
36  3.5000000000000E-01  1.6013965991285E+00 -1.1463107716037E+00
37  3.6000000000000E-01  1.6203041471253E+00 -1.1094253375967E+00
38  3.7000000000000E-01  1.6351790691433E+00 -1.0629173399249E+00
39  3.8000000000000E-01  1.6460636533662E+00 -1.0068463780985E+00
40  3.9000000000000E-01  1.6530234172340E+00 -9.4137202137936E-01
41  4.0000000000000E-01  1.6561452032016E+00 -8.6675290618224E-01
42  4.1000000000000E-01  1.6555351835759E+00 -7.8334455306856E-01
43  4.2000000000000E-01  1.6513168013619E+00 -6.9159599436073E-01
44  4.3000000000000E-01  1.6436286729985E+00 -5.9204532255808E-01
45  4.4000000000000E-01  1.6326224776669E+00 -4.8531428382799E-01
46  4.5000000000000E-01  1.6184608565343E+00 -3.7210204964211E-01
47  4.6000000000000E-01  1.6013153438918E+00 -2.5317830311892E-01
48  4.7000000000000E-01  1.5813643506902E+00 -1.2937577501960E-01
49  4.8000000000000E-01  1.5587912194665E+00 -1.5823580327047E-03
50  4.9000000000000E-01  1.5337823681291E+00  1.2926708244180E-01
51  5.0000000000000E-01  1.5065255384947E+00  2.6219909658763E-01
52  5.1000000000000E-01  1.4772081638795E+00  3.9621014941163E-01
53  5.2000000000000E-01  1.4460158684004E+00  5.3027516061379E-01
54  5.3000000000000E-01  1.4131311089496E+00  6.6335603312617E-01
55  5.4000000000000E-01  1.3787319690448E+00  7.9441013622218E-01
56  5.5000000000000E-01  1.3429911119139E+00  9.2239872549460E-01
57  5.6000000000000E-01  1.3060748982434E+00  1.0462952960244E+00
58  5.7000000000000E-01  1.2681426719929E+00  1.1650938759207E+00
59  5.8000000000000E-01  1.2293462155468E+00  1.2778172744601E+00
60  5.9000000000000E-01  1.1898293732615E+00  1.3835253018218E+00
61  6.0000000000000E-01  1.1497278401580E+00  1.4813229756267E+00
62  6.1000000000000E-01  1.1091691101535E+00  1.5703687230934E+00
63  6.2000000000000E-01  1.0682725758300E+00  1.6498825767601E+00
64  6.3000000000000E-01  1.0271497693510E+00  1.7191543467894E+00
65  6.4000000000000E-01  9.8590473180047E-01  1.7775517344230E+00
66  6.5000000000000E-01  9.4463449597959E-01  1.8245283299829E+00
67  6.6000000000000E-01  9.0342966562099E-01  1.8596314158277E+00
68  6.7000000000000E-01  8.6237507211403E-01  1.8825094709510E+00
69  6.8000000000000E-01  8.2155048825114E-01  1.8929192505792E+00
70  6.9000000000000E-01  7.8103137725514E-01  1.8907322924023E+00
71  7.0000000000000E-01  7.4088965449053E-01  1.8759406821288E+00
72  7.1000000000000E-01  7.0119443884708E-01  1.8486618960606E+00
73  7.2000000000000E-01  6.6201277085171E-01  1.8091425283594E+00
74  7.3000000000000E-01  6.2341027514635E-01  1.7577607065478E+00
75  7.4000000000000E-01  5.8545174608119E-01  1.6950270012595E+00
76  7.5000000000000E-01  5.4820163681776E-01  1.6215836458283E+00
77  7.6000000000000E-01  5.1172443450030E-01  1.5382018982210E+00
78  7.7000000000000E-01  4.7608490670720E-01  1.4457774020426E+00
79  7.8000000000000E-01  4.4134820748848E-01  1.3453234345644E+00
80  7.9000000000000E-01  4.0757983476696E-01  1.2379619673206E+00
81  8.0000000000000E-01  3.7484543464878E-01  1.1249125079214E+00
82  8.1000000000000E-01  3.4321045216079E-01  1.0074787391792E+00
83  8.2000000000000E-01  3.1273963200072E-01  8.8703302207724E-01
84  8.3000000000000E-01  2.8349637693777E-01  7.6499888095975E-01
85  8.4000000000000E-01  2.5554197541550E-01  6.4283164090330E-01
86  8.5000000000000E-01  2.2893471356477E-01  5.2199743675250E-01
87  8.6000000000000E-01  2.0372889011199E-01  4.0395085899062E-01
88  8.7000000000000E-01  1.7997375545535E-01  2.9011154171819E-01
89  8.8000000000000E-01  1.5771239837679E-01  1.8184003090720E-01
90  8.9000000000000E-01  1.3698060537442E-01  8.0413295349278E-02
91  9.0000000000000E-01  1.1780571836941E-01 -1.2999742877375E-02
92  9.1000000000000E-01  1.0020551651914E-01 -9.7362277924776E-02
93  9.2000000000000E-01  8.4187147031131E-02 -1.7179291678897E-01
94  9.3000000000000E-01  6.9746128226663E-02 -2.3558784919232E-01
95  9.4000000000000E-01  5.6865445680219E-02 -2.8824156717629E-01
96  9.5000000000000E-01  4.5514759121604E-02 -3.2946585167587E-01
97  9.6000000000000E-01  3.5649734017138E-02 -3.5920679369559E-01
98  9.7000000000000E-01  2.7211507456784E-02 -3.7765967612090E-01
99  9.8000000000000E-01  2.0126293293927E-02 -3.8528160695965E-01
100  9.9000000000000E-01  1.4305126405712E-02 -3.8280186735792E-01
101  1.0000000000000E+00  9.6437458677991E-03 -3.7122989967154E-01
102  1.0100000000000E+00  6.0226432157117E-03 -3.5186024139066E-01
103  1.0200000000000E+00  3.3105429996964E-03 -3.2620360720666E-01
104  1.0300000000000E+00  1.3737385307520E-03 -2.9580161461865E-01
105  1.0400000000000E+00  8.0823443692828E-05 -2.6215588016767E-01
106  1.0500000000000E+00 -6.9469385144836E-04 -2.2670368122363E-01
107  1.0600000000000E+00 -1.0719328707576E-03 -1.9079455552962E-01
108  1.0700000000000E+00 -1.1603603532383E-03 -1.5566806134362E-01
109  1.0800000000000E+00 -1.0577077377094E-03 -1.2243296295498E-01
110  1.0900000000000E+00 -8.4813290363386E-04 -9.2048843689189E-02
111  1.1000000000000E+00 -5.9975609938494E-04 -6.5273702159229E-02
112  1.1100000000000E+00 -3.6329442791109E-04 -4.2604528322865E-02
113  1.1200000000000E+00 -1.7737164571691E-04 -2.4572289145760E-02
114  1.1300000000000E+00 -5.9973126948567E-05 -1.1481447981851E-02
115  1.1400000000000E+00 -8.3887890229057E-06 -3.3810556160239E-03
116  1.1500000000000E+00  2.2108239567326E-07 -1.6016898102745E-04
117  1.1600000000000E+00  6.3893472995259E-09 -6.9302791010410E-06
118  1.1700000000000E+00  1.6630723806180E-09  2.6667317118547E-06
119  1.18  0.  0.
120  1.19  0.  0.
121  1.20  0.  0.
122  1.21  0.  0.
123  1.22  0.  0.
124  1.23  0.  0.
125  1.24  0.  0.
126  1.25  0.  0.
127  1.26  0.  0.
128  1.27  0.  0.
129  1.28  0.  0.
130  1.29  0.  0.
131  1.30  0.  0.
132  1.31  0.  0.
133  1.32  0.  0.
134  1.33  0.  0.
135  1.34  0.  0.
136  1.35  0.  0.
137  1.36  0.  0.
138  1.37  0.  0.
139  1.38  0.  0.
140  1.39  0.  0.
141  1.40  0.  0.
142  1.41  0.  0.
143  1.42  0.  0.
144  1.43  0.  0.
145  1.44  0.  0.
146  1.45  0.  0.
147  1.46  0.  0.
148  1.47  0.  0.
149  1.48  0.  0.
150  1.49  0.  0.
151  1.50  0.  0.
152  1.51  0.  0.
153  1.52  0.  0.
154  1.53  0.  0.
155  1.54  0.  0.
156  1.55  0.  0.
157  1.56  0.  0.
158  1.57  0.  0.
159  1.58  0.  0.
160  1.59  0.  0.
161  1.60  0.  0.
162  1.61  0.  0.
163  1.62  0.  0.
164  1.63  0.  0.
165  1.64  0.  0.