Hs    ONCVPSP-4.0.1  r_core=   1.10501   1.30650   1.20154   1.20154
108.0000     48.0000      220307    zatom,zion,pspd
8      11   3     4   600     0    pspcod,pspxc,lmax,lloc,mmax,r2well
5.99000000  5.00000000  0.00000000    rchrg fchrg qchrg
3     2     2     2     0    nproj
1     1           extension_switch
0                         1.6871191852841E+01 -1.3122841863586E+01 -5.2432832083551E-01
1  0.0000000000000E+00 -1.5072385117776E-08  1.1712713021694E-09 -2.3206588262159E-08
2  1.0000000000000E-02  2.1330098704147E-01  6.3861614044174E-02 -2.3491948150500E-02
3  2.0000000000000E-02  4.2430218268962E-01  1.2766487420784E-01 -4.6772946943892E-02
4  3.0000000000000E-02  6.3073219463035E-01  1.9135061707026E-01 -6.9635928657261E-02
5  4.0000000000000E-02  8.3037606033740E-01  2.5485807696138E-01 -9.1881598531257E-02
6  5.0000000000000E-02  1.0211025446845E+00  3.1812412660470E-01 -1.1332233838079E-01
7  6.0000000000000E-02  1.2008903470775E+00  3.8108256701922E-01 -1.3378611139643E-01
8  7.0000000000000E-02  1.3678528718648E+00  4.4366348168499E-01 -1.5312033785496E-01
9  8.0000000000000E-02  1.5202612308556E+00  5.0579266880526E-01 -1.7119568825084E-01
10  9.0000000000000E-02  1.6565651659277E+00  5.6739116408530E-01 -1.8790971499773E-01
11  1.0000000000000E-01  1.7754116030775E+00  6.2837486482345E-01 -2.0319021843624E-01
12  1.1000000000000E-01  1.8756605769549E+00  6.8865426431109E-01 -2.1699821964714E-01
13  1.2000000000000E-01  1.9563982969819E+00  7.4813430360268E-01 -2.2933039371781E-01
14  1.3000000000000E-01  2.0169471625217E+00  8.0671434568467E-01 -2.4022080469853E-01
15  1.4000000000000E-01  2.0568725750853E+00  8.6428827498582E-01 -2.4974177928203E-01
16  1.5000000000000E-01  2.0759864399320E+00  9.2074472306971E-01 -2.5800376160669E-01
17  1.6000000000000E-01  2.0743472971994E+00  9.7596741927483E-01 -2.6515400737336E-01
18  1.7000000000000E-01  2.0522570732650E+00  1.0298356630528E+00 -2.7137400195956E-01
19  1.8000000000000E-01  2.0102544956531E+00  1.0822249128372E+00 -2.7687552406158E-01
20  1.9000000000000E-01  1.9491052685219E+00  1.1330074844827E+00 -2.8189532262043E-01
21  2.0000000000000E-01  1.8697891595625E+00  1.1820533506708E+00 -2.8668842880255E-01
22  2.1000000000000E-01  1.7734842018635E+00  1.2292310312084E+00 -2.9152018447492E-01
23  2.2000000000000E-01  1.6615482647027E+00  1.2744085628615E+00 -2.9665713134019E-01
24  2.3000000000000E-01  1.5354982940763E+00  1.3174545362812E+00 -3.0235696773613E-01
25  2.4000000000000E-01  1.3969875658010E+00  1.3582391866975E+00 -3.0885783991826E-01
26  2.5000000000000E-01  1.2477813300422E+00  1.3966355243849E+00 -3.1636728823062E-01
27  2.6000000000000E-01  1.0897312550331E+00  1.4325204904336E+00 -3.2505121285873E-01
28  2.7000000000000E-01  9.2474909862501E-01  1.4657761230964E+00 -3.3502325603952E-01
29  2.8000000000000E-01  7.5478004839583E-01  1.4962907199054E+00 -3.4633501530221E-01
30  2.9000000000000E-01  5.8177617383343E-01  1.5239599808666E+00 -3.5896750373307E-01
31  3.0000000000000E-01  4.0767042734349E-01  1.5486881183274E+00 -3.7282425726126E-01
32  3.1000000000000E-01  2.3435161453837E-01  1.5703889195564E+00 -3.8772645520116E-01
33  3.2000000000000E-01  6.3640728757081E-02  1.5889867486830E+00 -4.0341036921289E-01
34  3.3000000000000E-01 -1.0273098935061E-01  1.6044174753748E+00 -4.1952738873084E-01
35  3.4000000000000E-01 -2.6314194818875E-01  1.6166293185065E+00 -4.3564678984795E-01
36  3.5000000000000E-01 -4.1609778699202E-01  1.6255835940541E+00 -4.5126132242260E-01
37  3.6000000000000E-01 -5.6024642618754E-01  1.6312553575430E+00 -4.6579559022903E-01
38  3.7000000000000E-01 -6.9439042696827E-01  1.6336339325657E+00 -4.7861709521845E-01
39  3.8000000000000E-01 -8.1749656027337E-01  1.6327233181619E+00 -4.8904971361382E-01
40  3.9000000000000E-01 -9.2870254535637E-01  1.6285424692057E+00 -4.9638927302030E-01
41  4.0000000000000E-01 -1.0273209768358E+00  1.6211254453672E+00 -4.9992081028567E-01
42  4.1000000000000E-01 -1.1128405149282E+00  1.6105214256888E+00 -4.9893701356740E-01
43  4.2000000000000E-01 -1.1849244649540E+00  1.5967945873406E+00 -4.9275729254502E-01
44  4.3000000000000E-01 -1.2434069178427E+00  1.5800238486713E+00 -4.8074688096874E-01
45  4.4000000000000E-01 -1.2882866621392E+00  1.5603024782382E+00 -4.6233535794606E-01
46  4.5000000000000E-01 -1.3197191090832E+00  1.5377375730737E+00 -4.3703397988688E-01
47  4.6000000000000E-01 -1.3380064951372E+00  1.5124494109941E+00 -4.0445124417900E-01
48  4.7000000000000E-01 -1.3435866406446E+00  1.4845706832757E+00 -3.6430615780792E-01
49  4.8000000000000E-01 -1.3370205491704E+00  1.4542456154769E+00 -3.1643875758609E-01
50  4.9000000000000E-01 -1.3189791298863E+00  1.4216289855661E+00 -2.6081752080345E-01
51  5.0000000000000E-01 -1.2902293157827E+00  1.3868850497851E+00 -1.9754341247241E-01
52  5.1000000000000E-01 -1.2516198344093E+00  1.3501863878277E+00 -1.2685043371833E-01
53  5.2000000000000E-01 -1.2040668664030E+00  1.3117126799131E+00 -4.9102660512441E-02
54  5.3000000000000E-01 -1.1485398015087E+00  1.2716494291614E+00  3.5212112238808E-02
55  5.4000000000000E-01 -1.0860472735136E+00  1.2301866433240E+00  1.2549188447364E-01
56  5.5000000000000E-01 -1.0176236258938E+00  1.1875174903557E+00  2.2103277327618E-01
57  5.6000000000000E-01 -9.4431593039366E-01  1.1438369425395E+00  3.2104369576454E-01
58  5.7000000000000E-01 -8.6717165250169E-01  1.0993404238703E+00  4.2466288429178E-01
59  5.8000000000000E-01 -7.8722703199717E-01  1.0542224751719E+00  5.3097564710407E-01
60  5.9000000000000E-01 -7.0549622436579E-01  1.0086754509640E+00  6.3903275338411E-01
61  6.0000000000000E-01 -6.2296123062878E-01  9.6288826141937E-01  7.4786881331682E-01
62  6.1000000000000E-01 -5.4056262945411E-01  9.1704517186748E-01  8.5652004188812E-01
63  6.2000000000000E-01 -4.5919111649046E-01  8.7132467123143E-01  9.6404083884172E-01
64  6.3000000000000E-01 -3.7967985157562E-01  8.2589841954810E-01  1.0695186846946E+00
65  6.4000000000000E-01 -3.0279761444309E-01  7.8093028335036E-01  1.1720869410006E+00
66  6.5000000000000E-01 -2.2924277315716E-01  7.3657546621243E-01  1.2709352482282E+00
67  6.6000000000000E-01 -1.5963807590956E-01  6.9297974021102E-01  1.3653173319552E+00
68  6.7000000000000E-01 -9.4526285009522E-02  6.5027878247229E-01  1.4545561522544E+00
69  6.8000000000000E-01 -3.4366680778308E-02  6.0859761939405E-01  1.5380464564502E+00
70  6.9000000000000E-01  2.0467528542229E-02  5.6805017959088E-01  1.6152549160293E+00
71  7.0000000000000E-01  6.9690847990622E-02  5.2873895514172E-01  1.6857181387309E+00
72  7.1000000000000E-01  1.1310614125712E-01  4.9075476935666E-01  1.7490389414246E+00
73  7.2000000000000E-01  1.5060423286144E-01  4.5417664804981E-01  1.8048813436933E+00
74  7.3000000000000E-01  1.8216242372768E-01  4.1907179023184E-01  1.8529647923253E+00
75  7.4000000000000E-01  2.0784188558129E-01  3.8549563323542E-01  1.8930581504901E+00
76  7.5000000000000E-01  2.2778391353119E-01  3.5349200657049E-01  1.9249739807661E+00
77  7.6000000000000E-01  2.4220503516632E-01  3.2309336827880E-01  1.9485636182255E+00
78  7.7000000000000E-01  2.5139099810460E-01  2.9432111721438E-01  1.9637134696488E+00
79  7.8000000000000E-01  2.5568968549890E-01  2.6718597451126E-01  1.9703428901226E+00
80  7.9000000000000E-01  2.5550303955403E-01  2.4168842749444E-01  1.9684038825189E+00
81  8.0000000000000E-01  2.5127810542946E-01  2.1781922942546E-01  1.9578827434845E+00
82  8.1000000000000E-01  2.4349734057254E-01  1.9555994872309E-01  1.9388036473474E+00
83  8.2000000000000E-01  2.3266836599742E-01  1.7488356163483E-01  1.9112340231651E+00
84  8.3000000000000E-01  2.1931336466436E-01  1.5575508272337E-01  1.8752914468443E+00
85  8.4000000000000E-01  2.0395835630826E-01  1.3813222794295E-01  1.8311516467239E+00
86  8.5000000000000E-01  1.8712259626941E-01  1.2196610548105E-01  1.7790571139773E+00
87  8.6000000000000E-01  1.6930835671769E-01  1.0720192990145E-01  1.7193257248053E+00
88  8.7000000000000E-01  1.5099135098347E-01  9.3779755419144E-02  1.6523587250418E+00
89  8.8000000000000E-01  1.3261205466175E-01  8.1635224343002E-02  1.5786474037632E+00
90  8.9000000000000E-01  1.1456816023909E-01  7.0700326822159E-02  1.4987777937598E+00
91  9.0000000000000E-01  9.7208375094719E-02  6.0904168016507E-02  1.4134327847986E+00
92  9.1000000000000E-01  8.0827736152137E-02  5.2173738675979E-02  1.3233911203883E+00
93  9.2000000000000E-01  6.5664568931899E-02  4.4434684861671E-02  1.2295228685271E+00
94  9.3000000000000E-01  5.1899165420761E-02  3.7612072184034E-02  1.1327811083262E+00
95  9.4000000000000E-01  3.9654195545794E-02  3.1631139486517E-02  1.0341897525951E+00
96  9.5000000000000E-01  2.8996802979930E-02  2.6418036390040E-02  9.3482762524241E-01
97  9.6000000000000E-01  1.9942269631228E-02  2.1900538562353E-02  8.3580912434768E-01
98  9.7000000000000E-01  1.2459066816361E-02  1.8008734018626E-02  7.3826201876941E-01
99  9.8000000000000E-01  6.4750471746935E-03  1.4675673229344E-02  6.4330313958959E-01
100  9.9000000000000E-01  1.8844723280177E-03  1.1837975344409E-02  5.5201292853075E-01
101  1.0000000000000E+00 -1.4444805639577E-03  9.4363824723266E-03  4.6540998518803E-01
102  1.0100000000000E+00 -3.6621326859405E-03  7.4162537130230E-03  3.8442690535715E-01
103  1.0200000000000E+00 -4.9300684862267E-03  5.7279905603705E-03  3.0988881687260E-01
104  1.0300000000000E+00 -5.4147034910108E-03  4.3273870035625E-03  2.4249609674943E-01
105  1.0400000000000E+00 -5.2820854269852E-03  3.1758804199465E-03  1.8281272717408E-01
106  1.0500000000000E+00 -4.6944149867076E-03  2.2406628535564E-03  1.3126188910693E-01
107  1.0600000000000E+00 -3.7921679127999E-03  1.4877942259541E-03  8.8094865493721E-02
108  1.0700000000000E+00 -2.7089188688286E-03  8.9563164657992E-04  5.3428101178113E-02
109  1.0800000000000E+00 -1.6062882349780E-03  4.5623694894338E-04  2.7341383104516E-02
110  1.0900000000000E+00 -6.6475096146479E-04  1.6461450915561E-04  9.8879568484638E-03
111  1.1000000000000E+00 -8.7997462612604E-05  1.9207005959130E-05  1.1541529912107E-03
112  1.1100000000000E+00  4.1399999737511E-06 -8.3023269068329E-07 -5.0093387271825E-05
113  1.1200000000000E+00  2.9200767741046E-07 -6.4622259690979E-08 -3.8976919667837E-06
114  1.13 -0. -0.  0.
115  1.14  0.  0.  0.
116  1.15  0.  0.  0.
117  1.16  0.  0.  0.
118  1.17  0.  0.  0.
119  1.18  0.  0.  0.
120  1.19  0.  0.  0.
121  1.20  0.  0.  0.
122  1.21  0.  0.  0.
123  1.22  0.  0.  0.
124  1.23  0.  0.  0.
125  1.24  0.  0.  0.
126  1.25  0.  0.  0.
127  1.26  0.  0.  0.
128  1.27  0.  0.  0.
129  1.28  0.  0.  0.
130  1.29  0.  0.  0.
131  1.30  0.  0.  0.
132  1.31  0.  0.  0.
133  1.32  0.  0.  0.
134  1.33  0.  0.  0.
135  1.34  0.  0.  0.
136  1.35  0.  0.  0.
137  1.36  0.  0.  0.
138  1.37  0.  0.  0.
139  1.38  0.  0.  0.
140  1.39  0.  0.  0.
141  1.40  0.  0.  0.
142  1.41  0.  0.  0.
143  1.42  0.  0.  0.
144  1.43  0.  0.  0.
145  1.44  0.  0.  0.
146  1.45  0.  0.  0.
147  1.46  0.  0.  0.
148  1.47  0.  0.  0.
149  1.48  0.  0.  0.
150  1.49  0.  0.  0.
151  1.50  0.  0.  0.
152  1.51  0.  0.  0.
153  1.52  0.  0.  0.
154  1.53  0.  0.  0.
155  1.54  0.  0.  0.
156  1.55  0.  0.  0.
157  1.56  0.  0.  0.
158  1.57  0.  0.  0.
159  1.58  0.  0.  0.
160  1.59  0.  0.  0.
161  1.60  0.  0.  0.
162  1.61  0.  0.  0.
163  1.62  0.  0.  0.
164  1.63  0.  0.  0.
165  1.64  0.  0.  0.
166  1.65  0.  0.  0.
167  1.66  0.  0.  0.
168  1.67  0.  0.  0.
169  1.68  0.  0.  0.
170  1.69  0.  0.  0.
171  1.70  0.  0.  0.
172  1.71  0.  0.  0.
173  1.72  0.  0.  0.
174  1.73  0.  0.  0.
175  1.74  0.  0.  0.
176  1.75  0.  0.  0.
177  1.76  0.  0.  0.
178  1.77  0.  0.  0.
179  1.78  0.  0.  0.
180  1.79  0.  0.  0.
181  1.80  0.  0.  0.
182  1.81  0.  0.  0.
183  1.82  0.  0.  0.
184  1.83  0.  0.  0.
185  1.84  0.  0.  0.
186  1.85  0.  0.  0.
187  1.86  0.  0.  0.
188  1.87  0.  0.  0.
189  1.88  0.  0.  0.
190  1.89  0.  0.  0.
191  1.90  0.  0.  0.
192  1.91  0.  0.  0.
193  1.92  0.  0.  0.
194  1.93  0.  0.  0.
195  1.94  0.  0.  0.
196  1.95  0.  0.  0.
197  1.96  0.  0.  0.
198  1.97  0.  0.  0.
199  1.98  0.  0.  0.
200  1.99  0.  0.  0.
201  2.00  0.  0.  0.
202  2.01  0.  0.  0.
203  2.02  0.  0.  0.
204  2.03  0.  0.  0.
205  2.04  0.  0.  0.
206  2.05  0.  0.  0.
207  2.06  0.  0.  0.
208  2.07  0.  0.  0.
209  2.08  0.  0.  0.
210  2.09  0.  0.  0.
211  2.10  0.  0.  0.
212  2.11  0.  0.  0.
213  2.12  0.  0.  0.
214  2.13  0.  0.  0.
215  2.14  0.  0.  0.
216  2.15  0.  0.  0.
217  2.16  0.  0.  0.
218  2.17  0.  0.  0.
219  2.18  0.  0.  0.
220  2.19  0.  0.  0.
221  2.20  0.  0.  0.
222  2.21  0.  0.  0.
223  2.22  0.  0.  0.
224  2.23  0.  0.  0.
225  2.24  0.  0.  0.
226  2.25  0.  0.  0.
227  2.26  0.  0.  0.
228  2.27  0.  0.  0.
229  2.28  0.  0.  0.
230  2.29  0.  0.  0.
231  2.30  0.  0.  0.
232  2.31  0.  0.  0.
233  2.32  0.  0.  0.
234  2.33  0.  0.  0.
235  2.34  0.  0.  0.
236  2.35  0.  0.  0.
237  2.36  0.  0.  0.
238  2.37  0.  0.  0.
239  2.38  0.  0.  0.
240  2.39  0.  0.  0.
241  2.40  0.  0.  0.
242  2.41  0.  0.  0.
243  2.42  0.  0.  0.
244  2.43  0.  0.  0.
245  2.44  0.  0.  0.
246  2.45  0.  0.  0.
247  2.46  0.  0.  0.
248  2.47  0.  0.  0.
249  2.48  0.  0.  0.
250  2.49  0.  0.  0.
251  2.50  0.  0.  0.
252  2.51  0.  0.  0.
253  2.52  0.  0.  0.
254  2.53  0.  0.  0.
255  2.54  0.  0.  0.
256  2.55  0.  0.  0.
257  2.56  0.  0.  0.
258  2.57  0.  0.  0.
259  2.58  0.  0.  0.
260  2.59  0.  0.  0.
261  2.60  0.  0.  0.
262  2.61  0.  0.  0.
263  2.62  0.  0.  0.
264  2.63  0.  0.  0.
265  2.64  0.  0.  0.
266  2.65  0.  0.  0.
267  2.66  0.  0.  0.
268  2.67  0.  0.  0.
269  2.68  0.  0.  0.
270  2.69  0.  0.  0.
271  2.70  0.  0.  0.
272  2.71  0.  0.  0.
273  2.72  0.  0.  0.
274  2.73  0.  0.  0.
275  2.74  0.  0.  0.
276  2.75  0.  0.  0.
277  2.76  0.  0.  0.
278  2.77  0.  0.  0.
279  2.78  0.  0.  0.
280  2.79  0.  0.  0.
281  2.80  0.  0.  0.
282  2.81  0.  0.  0.
283  2.82  0.  0.  0.
284  2.83  0.  0.  0.
285  2.84  0.  0.  0.
286  2.85  0.  0.  0.
287  2.86  0.  0.  0.
288  2.87  0.  0.  0.
289  2.88  0.  0.  0.
290  2.89  0.  0.  0.
291  2.90  0.  0.  0.
292  2.91  0.  0.  0.
293  2.92  0.  0.  0.
294  2.93  0.  0.  0.
295  2.94  0.  0.  0.
296  2.95  0.  0.  0.
297  2.96  0.  0.  0.
298  2.97  0.  0.  0.
299  2.98  0.  0.  0.
300  2.99  0.  0.  0.
301  3.00  0.  0.  0.
302  3.01  0.  0.  0.
303  3.02  0.  0.  0.
304  3.03  0.  0.  0.
305  3.04  0.  0.  0.
306  3.05  0.  0.  0.
307  3.06  0.  0.  0.
308  3.07  0.  0.  0.
309  3.08  0.  0.  0.
310  3.09  0.  0.  0.
311  3.10  0.  0.  0.
312  3.11  0.  0.  0.
313  3.12  0.  0.  0.
314  3.13  0.  0.  0.
315  3.14  0.  0.  0.
316  3.15  0.  0.  0.
317  3.16  0.  0.  0.
318  3.17  0.  0.  0.
319  3.18  0.  0.  0.
320  3.19  0.  0.  0.
321  3.20  0.  0.  0.
322  3.21  0.  0.  0.
323  3.22  0.  0.  0.
324  3.23  0.  0.  0.
325  3.24  0.  0.  0.
326  3.25  0.  0.  0.
327  3.26  0.  0.  0.
328  3.27  0.  0.  0.
329  3.28  0.  0.  0.
330  3.29  0.  0.  0.
331  3.30  0.  0.  0.
332  3.31  0.  0.  0.
333  3.32  0.  0.  0.
334  3.33  0.  0.  0.
335  3.34  0.  0.  0.
336  3.35  0.  0.  0.
337  3.36  0.  0.  0.
338  3.37  0.  0.  0.
339  3.38  0.  0.  0.
340  3.39  0.  0.  0.
341  3.40  0.  0.  0.
342  3.41  0.  0.  0.
343  3.42  0.  0.  0.
344  3.43  0.  0.  0.
345  3.44  0.  0.  0.
346  3.45  0.  0.  0.
347  3.46  0.  0.  0.
348  3.47  0.  0.  0.
349  3.48  0.  0.  0.
350  3.49  0.  0.  0.
351  3.50  0.  0.  0.
352  3.51  0.  0.  0.
353  3.52  0.  0.  0.
354  3.53  0.  0.  0.
355  3.54  0.  0.  0.
356  3.55  0.  0.  0.
357  3.56  0.  0.  0.
358  3.57  0.  0.  0.
359  3.58  0.  0.  0.
360  3.59  0.  0.  0.
361  3.60  0.  0.  0.
362  3.61  0.  0.  0.
363  3.62  0.  0.  0.
364  3.63  0.  0.  0.
365  3.64  0.  0.  0.
366  3.65  0.  0.  0.
367  3.66  0.  0.  0.
368  3.67  0.  0.  0.
369  3.68  0.  0.  0.
370  3.69  0.  0.  0.
371  3.70  0.  0.  0.
372  3.71  0.  0.  0.
373  3.72  0.  0.  0.
374  3.73  0.  0.  0.
375  3.74  0.  0.  0.
376  3.75  0.  0.  0.
377  3.76  0.  0.  0.
378  3.77  0.  0.  0.
379  3.78  0.  0.  0.
380  3.79  0.  0.  0.
381  3.80  0.  0.  0.
382  3.81  0.  0.  0.
383  3.82  0.  0.  0.
384  3.83  0.  0.  0.
385  3.84  0.  0.  0.
386  3.85  0.  0.  0.
387  3.86  0.  0.  0.
388  3.87  0.  0.  0.
389  3.88  0.  0.  0.
390  3.89  0.  0.  0.
391  3.90  0.  0.  0.
392  3.91  0.  0.  0.
393  3.92  0.  0.  0.
394  3.93  0.  0.  0.
395  3.94  0.  0.  0.
396  3.95  0.  0.  0.
397  3.96  0.  0.  0.
398  3.97  0.  0.  0.
399  3.98  0.  0.  0.
400  3.99  0.  0.  0.
401  4.00  0.  0.  0.
402  4.01  0.  0.  0.
403  4.02  0.  0.  0.
404  4.03  0.  0.  0.
405  4.04  0.  0.  0.
406  4.05  0.  0.  0.
407  4.06  0.  0.  0.
408  4.07  0.  0.  0.
409  4.08  0.  0.  0.
410  4.09  0.  0.  0.
411  4.10  0.  0.  0.
412  4.11  0.  0.  0.
413  4.12  0.  0.  0.
414  4.13  0.  0.  0.
415  4.14  0.  0.  0.
416  4.15  0.  0.  0.
417  4.16  0.  0.  0.
418  4.17  0.  0.  0.
419  4.18  0.  0.  0.
420  4.19  0.  0.  0.
421  4.20  0.  0.  0.
422  4.21  0.  0.  0.
423  4.22  0.  0.  0.
424  4.23  0.  0.  0.
425  4.24  0.  0.  0.
426  4.25  0.  0.  0.
427  4.26  0.  0.  0.
428  4.27  0.  0.  0.
429  4.28  0.  0.  0.
430  4.29  0.  0.  0.
431  4.30  0.  0.  0.
432  4.31  0.  0.  0.
433  4.32  0.  0.  0.
434  4.33  0.  0.  0.
435  4.34  0.  0.  0.
436  4.35  0.  0.  0.
437  4.36  0.  0.  0.
438  4.37  0.  0.  0.
439  4.38  0.  0.  0.
440  4.39  0.  0.  0.
441  4.40  0.  0.  0.
442  4.41  0.  0.  0.
443  4.42  0.  0.  0.
444  4.43  0.  0.  0.
445  4.44  0.  0.  0.
446  4.45  0.  0.  0.
447  4.46  0.  0.  0.
448  4.47  0.  0.  0.
449  4.48  0.  0.  0.
450  4.49  0.  0.  0.
451  4.50  0.  0.  0.
452  4.51  0.  0.  0.
453  4.52  0.  0.  0.
454  4.53  0.  0.  0.
455  4.54  0.  0.  0.
456  4.55  0.  0.  0.
457  4.56  0.  0.  0.
458  4.57  0.  0.  0.
459  4.58  0.  0.  0.
460  4.59  0.  0.  0.
461  4.60  0.  0.  0.
462  4.61  0.  0.  0.
463  4.62  0.  0.  0.
464  4.63  0.  0.  0.
465  4.64  0.  0.  0.
466  4.65  0.  0.  0.
467  4.66  0.  0.  0.
468  4.67  0.  0.  0.
469  4.68  0.  0.  0.
470  4.69  0.  0.  0.
471  4.70  0.  0.  0.
472  4.71  0.  0.  0.
473  4.72  0.  0.  0.
474  4.73  0.  0.  0.
475  4.74  0.  0.  0.
476  4.75  0.  0.  0.
477  4.76  0.  0.  0.
478  4.77  0.  0.  0.
479  4.78  0.  0.  0.
480  4.79  0.  0.  0.
481  4.80  0.  0.  0.
482  4.81  0.  0.  0.
483  4.82  0.  0.  0.
484  4.83  0.  0.  0.
485  4.84  0.  0.  0.
486  4.85  0.  0.  0.
487  4.86  0.  0.  0.
488  4.87  0.  0.  0.
489  4.88  0.  0.  0.
490  4.89  0.  0.  0.
491  4.90  0.  0.  0.
492  4.91  0.  0.  0.
493  4.92  0.  0.  0.
494  4.93  0.  0.  0.
495  4.94  0.  0.  0.
496  4.95  0.  0.  0.
497  4.96  0.  0.  0.
498  4.97  0.  0.  0.
499  4.98  0.  0.  0.
500  4.99  0.  0.  0.
501  5.00  0.  0.  0.
502  5.01  0.  0.  0.
503  5.02  0.  0.  0.
504  5.03  0.  0.  0.
505  5.04  0.  0.  0.
506  5.05  0.  0.  0.
507  5.06  0.  0.  0.
508  5.07  0.  0.  0.
509  5.08  0.  0.  0.
510  5.09  0.  0.  0.
511  5.10  0.  0.  0.
512  5.11  0.  0.  0.
513  5.12  0.  0.  0.
514  5.13  0.  0.  0.
515  5.14  0.  0.  0.
516  5.15  0.  0.  0.
517  5.16  0.  0.  0.
518  5.17  0.  0.  0.
519  5.18  0.  0.  0.
520  5.19  0.  0.  0.
521  5.20  0.  0.  0.
522  5.21  0.  0.  0.
523  5.22  0.  0.  0.
524  5.23  0.  0.  0.
525  5.24  0.  0.  0.
526  5.25  0.  0.  0.
527  5.26  0.  0.  0.
528  5.27  0.  0.  0.
529  5.28  0.  0.  0.
530  5.29  0.  0.  0.
531  5.30  0.  0.  0.
532  5.31  0.  0.  0.
533  5.32  0.  0.  0.
534  5.33  0.  0.  0.
535  5.34  0.  0.  0.
536  5.35  0.  0.  0.
537  5.36  0.  0.  0.
538  5.37  0.  0.  0.
539  5.38  0.  0.  0.
540  5.39  0.  0.  0.
541  5.40  0.  0.  0.
542  5.41  0.  0.  0.
543  5.42  0.  0.  0.
544  5.43  0.  0.  0.
545  5.44  0.  0.  0.
546  5.45  0.  0.  0.
547  5.46  0.  0.  0.
548  5.47  0.  0.  0.
549  5.48  0.  0.  0.
550  5.49  0.  0.  0.
551  5.50  0.  0.  0.
552  5.51  0.  0.  0.
553  5.52  0.  0.  0.
554  5.53  0.  0.  0.
555  5.54  0.  0.  0.
556  5.55  0.  0.  0.
557  5.56  0.  0.  0.
558  5.57  0.  0.  0.
559  5.58  0.  0.  0.
560  5.59  0.  0.  0.
561  5.60  0.  0.  0.
562  5.61  0.  0.  0.
563  5.62  0.  0.  0.
564  5.63  0.  0.  0.
565  5.64  0.  0.  0.
566  5.65  0.  0.  0.
567  5.66  0.  0.  0.
568  5.67  0.  0.  0.
569  5.68  0.  0.  0.
570  5.69  0.  0.  0.
571  5.70  0.  0.  0.
572  5.71  0.  0.  0.
573  5.72  0.  0.  0.
574  5.73  0.  0.  0.
575  5.74  0.  0.  0.
576  5.75  0.  0.  0.
577  5.76  0.  0.  0.
578  5.77  0.  0.  0.
579  5.78  0.  0.  0.
580  5.79  0.  0.  0.
581  5.80  0.  0.  0.
582  5.81  0.  0.  0.
583  5.82  0.  0.  0.
584  5.83  0.  0.  0.
585  5.84  0.  0.  0.
586  5.85  0.  0.  0.
587  5.86  0.  0.  0.
588  5.87  0.  0.  0.
589  5.88  0.  0.  0.
590  5.89  0.  0.  0.
591  5.90  0.  0.  0.
592  5.91  0.  0.  0.
593  5.92  0.  0.  0.
594  5.93  0.  0.  0.
595  5.94  0.  0.  0.
596  5.95  0.  0.  0.
597  5.96  0.  0.  0.
598  5.97  0.  0.  0.
599  5.98  0.  0.  0.
600  5.99  0.  0.  0.
1                        -1.1215937549809E+01 -8.5596806658415E-01
1  0.0000000000000E+00  3.5856913271903E-09 -2.0975447823091E-08
2  1.0000000000000E-02  2.8631080987074E-03 -4.7706019839267E-03
3  2.0000000000000E-02  1.1431671108941E-02 -1.9017730154085E-02
4  3.0000000000000E-02  2.5643588973805E-02 -4.2548197801812E-02
5  4.0000000000000E-02  4.5395972272667E-02 -7.5042837290703E-02
6  5.0000000000000E-02  7.0546051275425E-02 -1.1606067387145E-01
7  6.0000000000000E-02  1.0091243479682E-01 -1.6504468666871E-01
8  7.0000000000000E-02  1.3627670524315E-01 -2.2132907599162E-01
9  8.0000000000000E-02  1.7638533265796E-01 -2.8414793514420E-01
10  9.0000000000000E-02  2.2095188720830E-01 -3.5264520548117E-01
11  1.0000000000000E-01  2.6965952645025E-01 -4.2588577586046E-01
12  1.1000000000000E-01  3.2216373091148E-01 -5.0286757214749E-01
13  1.2000000000000E-01  3.7809525906225E-01 -5.8253446925580E-01
14  1.3000000000000E-01  4.3706329064404E-01 -6.6378984755287E-01
15  1.4000000000000E-01  4.9865872561151E-01 -7.4551060746999E-01
16  1.5000000000000E-01  5.6245760463541E-01 -8.2656145093541E-01
17  1.6000000000000E-01  6.2802461622511E-01 -9.0580923586438E-01
18  1.7000000000000E-01  6.9491665506557E-01 -9.8213721040402E-01
19  1.8000000000000E-01  7.6268639612469E-01 -1.0544589369176E+00
20  1.9000000000000E-01  8.3088584946915E-01 -1.1217317217279E+00
21  2.0000000000000E-01  8.9906986151642E-01 -1.1829693753095E+00
22  2.1000000000000E-01  9.6679952963371E-01 -1.2372541387637E+00
23  2.2000000000000E-01  1.0336454985467E+00 -1.2837476258387E+00
24  2.3000000000000E-01  1.0991911089163E+00 -1.3217006452387E+00
25  2.4000000000000E-01  1.1630353706510E+00 -1.3504617852386E+00
26  2.5000000000000E-01  1.2247957360046E+00 -1.3694846614053E+00
27  2.6000000000000E-01  1.2841106502383E+00 -1.3783337482098E+00
28  2.7000000000000E-01  1.3406418605440E+00 -1.3766887361823E+00
29  2.8000000000000E-01  1.3940764670096E+00 -1.3643473776754E+00
30  2.9000000000000E-01  1.4441287025966E+00 -1.3412268059276E+00
31  3.0000000000000E-01  1.4905414323597E+00 -1.3073633336264E+00
32  3.1000000000000E-01  1.5330873654242E+00 -1.2629107582239E+00
33  3.2000000000000E-01  1.5715699765013E+00 -1.2081372215450E+00
34  3.3000000000000E-01  1.6058241369228E+00 -1.1434206904571E+00
35  3.4000000000000E-01  1.6357164582840E+00 -1.0692431432456E+00
36  3.5000000000000E-01  1.6611453547444E+00 -9.8618356264017E-01
37  3.6000000000000E-01  1.6820408328316E+00 -8.9490985090849E-01
38  3.7000000000000E-01  1.6983640201837E+00 -7.9616979492716E-01
39  3.8000000000000E-01  1.7101064470251E+00 -6.9078121947015E-01
40  3.9000000000000E-01  1.7172890962828E+00 -5.7962147503851E-01
41  4.0000000000000E-01  1.7199612400881E+00 -4.6361641230078E-01
42  4.1000000000000E-01  1.7181990819682E+00 -3.4372899859854E-01
43  4.2000000000000E-01  1.7121042252936E+00 -2.2094773299720E-01
44  4.3000000000000E-01  1.7018019895200E+00 -9.6275015078158E-02
45  4.4000000000000E-01  1.6874395964330E+00  2.9284380846341E-02
46  4.5000000000000E-01  1.6691842489869E+00  1.5473458004115E-01
47  4.6000000000000E-01  1.6472211254247E+00  2.7909949171290E-01
48  4.7000000000000E-01  1.6217513111954E+00  4.0143317434141E-01
49  4.8000000000000E-01  1.5929896907540E+00  5.2082956384488E-01
50  4.9000000000000E-01  1.5611628206662E+00  6.3643145876521E-01
51  5.0000000000000E-01  1.5265068045568E+00  7.4743867009983E-01
52  5.1000000000000E-01  1.4892651893697E+00  8.5311525771933E-01
53  5.2000000000000E-01  1.4496869011642E+00  9.5279579023932E-01
54  5.3000000000000E-01  1.4080242372928E+00  1.0458905805022E+00
55  5.4000000000000E-01  1.3645309303047E+00  1.1318898642169E+00
56  5.5000000000000E-01  1.3194602973376E+00  1.2103669045539E+00
57  5.6000000000000E-01  1.2730634871102E+00  1.2809800203679E+00
58  5.7000000000000E-01  1.2255878349450E+00  1.3434735499992E+00
59  5.8000000000000E-01  1.1772753345568E+00  1.3976777760910E+00
60  5.9000000000000E-01  1.1283612336580E+00  1.4435078493799E+00
61  6.0000000000000E-01  1.0790727587811E+00  1.4809617608146E+00
62  6.1000000000000E-01  1.0296279731196E+00  1.5101174215154E+00
63  6.2000000000000E-01  9.8023476966083E-01  1.5311289189079E+00
64  6.3000000000000E-01  9.3109000043380E-01  1.5442220247800E+00
65  6.4000000000000E-01  8.8237874134884E-01  1.5496890369916E+00
66  6.5000000000000E-01  8.3427369085688E-01  1.5478830410941E+00
67  6.6000000000000E-01  7.8693469952412E-01  1.5392116812243E+00
68  6.7000000000000E-01  7.4050842660039E-01  1.5241305313574E+00
69  6.8000000000000E-01  6.9512811876167E-01  1.5031361584138E+00
70  6.9000000000000E-01  6.5091350542801E-01  1.4767589679060E+00
71  7.0000000000000E-01  6.0797080439632E-01  1.4455559208824E+00
72  7.1000000000000E-01  5.6639283097871E-01  1.4101032080146E+00
73  7.2000000000000E-01  5.2625920339672E-01  1.3709889629027E+00
74  7.3000000000000E-01  4.8763663684333E-01  1.3288060921884E+00
75  7.4000000000000E-01  4.5057931837989E-01  1.2841452950177E+00
76  7.5000000000000E-01  4.1512935467752E-01  1.2375883389200E+00
77  7.6000000000000E-01  3.8131728453165E-01  1.1897016534215E+00
78  7.7000000000000E-01  3.4916264806699E-01  1.1410302968197E+00
79  7.8000000000000E-01  3.1867460459884E-01  1.0920923456383E+00
80  7.9000000000000E-01  2.8985259121706E-01  1.0433737504764E+00
81  8.0000000000000E-01  2.6268701430349E-01  9.9532369636056E-01
82  8.1000000000000E-01  2.3715996637474E-01  9.4835050038658E-01
83  8.2000000000000E-01  2.1324596085338E-01  9.0281807446708E-01
84  8.3000000000000E-01  1.9091267760689E-01  8.5904297642923E-01
85  8.4000000000000E-01  1.7012171234918E-01  8.1729206856195E-01
86  8.5000000000000E-01  1.5082932327220E-01  7.7778079900475E-01
87  8.6000000000000E-01  1.3298716856084E-01  7.4067211809444E-01
88  8.7000000000000E-01  1.1654302874208E-01  7.0607603891529E-01
89  8.8000000000000E-01  1.0144150812832E-01  6.7404984879618E-01
90  8.9000000000000E-01  8.7624709934106E-02  6.4459897630976E-01
91  9.0000000000000E-01  7.5032879976715E-02  6.1767851639348E-01
92  9.1000000000000E-01  6.3605014214050E-02  5.9319541445796E-01
93  9.2000000000000E-01  5.3279425730568E-02  5.7101130869787E-01
94  9.3000000000000E-01  4.3994267154183E-02  5.5094602819629E-01
95  9.4000000000000E-01  3.5688004876432E-02  5.3278174273758E-01
96  9.5000000000000E-01  2.8299841855949E-02  5.1626775843780E-01
97  9.6000000000000E-01  2.1770086212756E-02  5.0112595130077E-01
98  9.7000000000000E-01  1.6040463268685E-02  4.8705682854955E-01
99  9.8000000000000E-01  1.1054369158076E-02  4.7374620501582E-01
100  9.9000000000000E-01  6.7570646218050E-03  4.6087247896250E-01
101  1.0000000000000E+00  3.0958081060861E-03  4.4811448843801E-01
102  1.0100000000000E+00  1.9927812930140E-05  4.3515992561643E-01
103  1.0200000000000E+00 -2.5191671105167E-03  4.2171428256736E-01
104  1.0300000000000E+00 -4.5680355053520E-03  4.0751029755368E-01
105  1.0400000000000E+00 -6.1713119612245E-03  3.9231786632353E-01
106  1.0500000000000E+00 -7.3718715480845E-03  3.7595437798284E-01
107  1.0600000000000E+00 -8.2110491095248E-03  3.5829543000766E-01
108  1.0700000000000E+00 -8.7289101640438E-03  3.3928587184562E-01
109  1.0800000000000E+00 -8.9645699337973E-03  3.1895112145813E-01
110  1.0900000000000E+00 -8.9565565970695E-03  2.9740869723013E-01
111  1.1000000000000E+00 -8.7432121436207E-03  2.7487981437585E-01
112  1.1100000000000E+00 -8.3631279097291E-03  2.5170105384550E-01
113  1.1200000000000E+00 -7.8545847420846E-03  2.2829611461463E-01
114  1.1300000000000E+00 -7.2528735200088E-03  2.0506756133721E-01
115  1.1400000000000E+00 -6.5893236110404E-03  1.8236001679666E-01
116  1.1500000000000E+00 -5.8913527225021E-03  1.6046283766756E-01
117  1.1600000000000E+00 -5.1825697738831E-03  1.3961329233315E-01
118  1.1700000000000E+00 -4.4829246525007E-03  1.2000022849313E-01
119  1.1800000000000E+00 -3.8088940335163E-03  1.0176803162301E-01
120  1.1900000000000E+00 -3.1736949452325E-03  8.5020770745895E-02
121  1.2000000000000E+00 -2.5875179534404E-03  6.9826428532253E-02
122  1.2100000000000E+00 -2.0577722013696E-03  5.6221117643256E-02
123  1.2200000000000E+00 -1.5893342677725E-03  4.4213202190698E-02
124  1.2300000000000E+00 -1.1847999931180E-03  3.3787146811652E-02
125  1.2400000000000E+00 -8.4471151153882E-04  2.4907272272495E-02
126  1.2500000000000E+00 -5.6906742674235E-04  1.7503708774017E-02
127  1.2600000000000E+00 -3.5623439307002E-04  1.1503431468721E-02
128  1.2700000000000E+00 -2.0057572669730E-04  6.8551371409120E-03
129  1.2800000000000E+00 -9.5328094906088E-05  3.4840196317355E-03
130  1.2900000000000E+00 -3.2778043489762E-05  1.2985678811608E-03
131  1.3000000000000E+00 -4.5143262937993E-06  1.9773246638419E-04
132  1.3100000000000E+00  2.7480914682473E-07 -1.3026392102255E-05
133  1.3200000000000E+00 -6.2389727989307E-08  2.8573307274877E-06
134  1.33  0. -0.
135  1.34  0.  0.
136  1.35  0.  0.
137  1.36  0.  0.
138  1.37  0.  0.
139  1.38  0.  0.
140  1.39  0.  0.
141  1.40  0.  0.
142  1.41  0.  0.