Hs    ONCVPSP-4.0.1  r_core=   1.10501   1.10501   1.10501   1.20154
108.0000     48.0000      220308    zatom,zion,pspd
8      11   3     4   600     0    pspcod,pspxc,lmax,lloc,mmax,r2well
5.99000000  5.00000000  0.00000000    rchrg fchrg qchrg
3     3     2     2    nproj
3     1           extension_switch
4     3     3    nprojso
0                        -1.2967600795305E+01  1.1066682360132E+01 -2.8111675461115E-01
1  0.0000000000000E+00 -2.2832880031132E-10  1.3457341685452E-08 -3.5297796824318E-08
2  1.0000000000000E-02  7.0848599818387E-02  1.8164645381179E-01 -2.8261842074160E-02
3  2.0000000000000E-02  1.4156465896694E-01  3.6156751184717E-01 -5.5998357330036E-02
4  3.0000000000000E-02  2.1201576654049E-01  5.3805529885190E-01 -8.2697901654311E-02
5  4.0000000000000E-02  2.8206977240421E-01  7.0943686006360E-01 -1.0787603052992E-01
6  5.0000000000000E-02  3.5159492075365E-01  8.7409131575377E-01 -1.3108867230188E-01
7  6.0000000000000E-02  4.2045998768085E-01  1.0304666372197E+00 -1.5194475733324E-01
8  7.0000000000000E-02  4.8853442439025E-01  1.1770958997011E+00 -1.7011807177360E-01
9  8.0000000000000E-02  5.5568850793668E-01  1.3126128542397E+00 -1.8535806936452E-01
10  9.0000000000000E-02  6.2179350160026E-01  1.4357666463462E+00 -1.9749933931870E-01
11  1.0000000000000E-01  6.8672182724530E-01  1.5454354960286E+00 -2.0646939775196E-01
12  1.1000000000000E-01  7.5034725220569E-01  1.6406391428940E+00 -2.1229444947422E-01
13  1.2000000000000E-01  8.1254509337034E-01  1.7205498532639E+00 -2.1510276099451E-01
14  1.3000000000000E-01  8.7319244118479E-01  1.7845017850366E+00 -2.1512529858695E-01
15  1.4000000000000E-01  9.3216840621609E-01  1.8319985116494E+00 -2.1269332049429E-01
16  1.5000000000000E-01  9.8935439072960E-01  1.8627185199136E+00 -2.0823267184388E-01
17  1.6000000000000E-01  1.0446343873865E+00  1.8765185182896E+00 -2.0225461517525E-01
18  1.7000000000000E-01  1.0978953066836E+00  1.8734344224985E+00 -1.9534313755791E-01
19  1.8000000000000E-01  1.1490273341226E+00  1.8536799239084E+00 -1.8813880433646E-01
20  1.9000000000000E-01  1.1979243173271E+00  1.8176425920998E+00 -1.8131937516198E-01
21  2.0000000000000E-01  1.2444841824330E+00  1.7658775151615E+00 -1.7557755422469E-01
22  2.1000000000000E-01  1.2886093780889E+00  1.6990985379330E+00 -1.7159640629404E-01
23  2.2000000000000E-01  1.3302073443502E+00  1.6181672175900E+00 -1.7002312516780E-01
24  2.3000000000000E-01  1.3691910026579E+00  1.5240796753962E+00 -1.7144198274589E-01
25  2.4000000000000E-01  1.4054792620144E+00  1.4179515806957E+00 -1.7634740642558E-01
26  2.5000000000000E-01  1.4389975354310E+00  1.3010015558344E+00 -1.8511822148324E-01
27  2.6000000000000E-01  1.4696782597781E+00  1.1745333362822E+00 -1.9799414608953E-01
28  2.7000000000000E-01  1.4974614113476E+00  1.0399170566030E+00 -2.1505563346735E-01
29  2.8000000000000E-01  1.5222950087891E+00  8.9857005820783E-01 -2.3620811408687E-01
30  2.9000000000000E-01  1.5441355946235E+00  7.5193762757779E-01 -2.6117159845870E-01
31  3.0000000000000E-01  1.5629486863110E+00  6.0147407289544E-01 -2.8947645817623E-01
32  3.1000000000000E-01  1.5787091878580E+00  4.4862453240113E-01 -3.2046601202604E-01
33  3.2000000000000E-01  1.5914017532137E+00  2.9480787949251E-01 -3.5330631044042E-01
34  3.3000000000000E-01  1.6010210932198E+00  1.4140104844660E-01 -3.8700324293716E-01
35  3.4000000000000E-01  1.6075722186365E+00 -1.0274947924164E-02 -4.2042679934238E-01
36  3.5000000000000E-01  1.6110706127485E+00 -1.5896709940745E-01 -4.5234200820198E-01
37  3.6000000000000E-01  1.6115423282380E+00 -3.0350043812461E-01 -4.8144576794852E-01
38  3.7000000000000E-01  1.6090240043534E+00 -4.4278597000130E-01 -5.0640849199847E-01
39  3.8000000000000E-01  1.6035628018700E+00 -5.7582650565863E-01 -5.2591922213422E-01
40  3.9000000000000E-01  1.5952162548808E+00 -7.0172047101336E-01 -5.3873263893654E-01
41  4.0000000000000E-01  1.5840520400261E+00 -8.1966384542112E-01 -5.4371622619117E-01
42  4.1000000000000E-01  1.5701476653183E+00 -9.2895043473146E-01 -5.3989573889822E-01
43  4.2000000000000E-01  1.5535900821921E+00 -1.0289707355209E+00 -5.2649709012949E-01
44  4.3000000000000E-01  1.5344752257685E+00 -1.1192096828327E+00 -5.0298281608236E-01
45  4.4000000000000E-01  1.5129074895174E+00 -1.1992435953463E+00 -4.6908140352049E-01
46  4.5000000000000E-01  1.4889991415013E+00 -1.2687366380241E+00 -4.2480796816169E-01
47  4.6000000000000E-01  1.4628696901621E+00 -1.3274371126330E+00 -3.7047505161197E-01
48  4.7000000000000E-01  1.4346452081436E+00 -1.3751738615428E+00 -3.0669264973593E-01
49  4.8000000000000E-01  1.4044576229216E+00 -1.4118530309981E+00 -2.3435698516518E-01
50  4.9000000000000E-01  1.3724439830443E+00 -1.4374553884787E+00 -1.5462797626156E-01
51  5.0000000000000E-01  1.3387457085647E+00 -1.4520343272306E+00 -6.8895817165571E-02
52  5.1000000000000E-01  1.3035078338110E+00 -1.4557146225189E+00  2.1262450304558E-02
53  5.2000000000000E-01  1.2668782500017E+00 -1.4486919319472E+00  1.1413504204253E-01
54  5.3000000000000E-01  1.2290069544132E+00 -1.4312329598772E+00  2.0793446942084E-01
55  5.4000000000000E-01  1.1900453118876E+00 -1.4036761371990E+00  3.0086140578626E-01
56  5.5000000000000E-01  1.1501453334651E+00 -1.3664326060154E+00  3.9117099229510E-01
57  5.6000000000000E-01  1.1094589758949E+00 -1.3199872474913E+00  4.7723899615924E-01
58  5.7000000000000E-01  1.0681374647565E+00 -1.2648994530713E+00  5.5762513706600E-01
59  5.8000000000000E-01  1.0263306429598E+00 -1.2018033168067E+00  6.3113090862584E-01
60  5.9000000000000E-01  9.8418634552527E-01 -1.1314069212984E+00  6.9684934501635E-01
61  6.0000000000000E-01  9.4184980081019E-01 -1.0544904026240E+00  7.5420441768775E-01
62  6.1000000000000E-01  8.9946305776962E-01 -9.7190251062928E-01  8.0297808743148E-01
63  6.2000000000000E-01  8.5716443844357E-01 -8.8455542930175E-01  8.4332347291601E-01
64  6.3000000000000E-01  8.1508801465396E-01 -7.9341768597051E-01  8.7576311314956E-01
65  6.4000000000000E-01  7.7336310787881E-01 -6.9950505535226E-01  9.0117187945748E-01
66  6.5000000000000E-01  7.3211381144063E-01 -6.0386945186549E-01  9.2074471038977E-01
67  6.6000000000000E-01  6.9145853448350E-01 -5.0758589746200E-01  9.3594997595690E-01
68  6.7000000000000E-01  6.5150956769685E-01 -4.1173774836616E-01  9.4846989972681E-01
69  6.8000000000000E-01  6.1237267134202E-01 -3.1740045820163E-01  9.6013005210587E-01
70  6.9000000000000E-01  5.7414668681469E-01 -2.2562424261164E-01  9.7282044980609E-01
71  7.0000000000000E-01  5.3692317369254E-01 -1.3741608737153E-01  9.8841123108297E-01
72  7.1000000000000E-01  5.0078607493165E-01 -5.3721604213218E-02  1.0086662026705E+00
73  7.2000000000000E-01  4.6581141354510E-01  2.4592717273508E-02  1.0351577552157E+00
74  7.3000000000000E-01  4.3206702468305E-01  9.6756289954042E-02  1.0691867068412E+00
75  7.4000000000000E-01  3.9961232749898E-01  1.6210966930863E-01  1.1117105521175E+00
76  7.5000000000000E-01  3.6849814150009E-01  2.2011770405300E-01  1.1632833648752E+00
77  7.6000000000000E-01  3.3876655221559E-01  2.7038009440009E-01  1.2240102327424E+00
78  7.7000000000000E-01  3.1045083095859E-01  3.1263892419996E-01  1.2935185999708E+00
79  7.8000000000000E-01  2.8357541319428E-01  3.4678282265295E-01  1.3709482796130E+00
80  7.9000000000000E-01  2.5815593956051E-01  3.7284751808412E-01  1.4549611885131E+00
81  8.0000000000000E-01  2.3419936292321E-01  3.9101266650682E-01  1.5437710853008E+00
82  8.1000000000000E-01  2.1170412400541E-01  4.0159496679280E-01  1.6351927827005E+00
83  8.2000000000000E-01  1.9066039712878E-01  4.0503770709526E-01  1.7267094934165E+00
84  8.3000000000000E-01  1.7105040648067E-01  4.0189701831096E-01  1.8155561872012E+00
85  8.4000000000000E-01  1.5284881210346E-01  3.9282523432302E-01  1.8988161186983E+00
86  8.5000000000000E-01  1.3602316353605E-01  3.7855187016360E-01  1.9735270629907E+00
87  8.6000000000000E-01  1.2053441776041E-01  3.5986282311439E-01  2.0367932970428E+00
88  8.7000000000000E-01  1.0633751686113E-01  3.3757847375036E-01  2.0858990147963E+00
89  8.8000000000000E-01  9.3382019633551E-02  3.1253141046913E-01  2.1184186804703E+00
90  8.9000000000000E-01  8.1612780312251E-02  2.8554451955844E-01  2.1323198212532E+00
91  9.0000000000000E-01  7.0970666670436E-02  2.5741017187107E-01  2.1260539425917E+00
92  9.1000000000000E-01  6.1393308987986E-02  2.2887119643566E-01  2.0986316148484E+00
93  9.2000000000000E-01  5.2815870822356E-02  2.0060426180576E-01  2.0496783197747E+00
94  9.3000000000000E-01  4.5171832154656E-02  1.7320618984183E-01  1.9794683422659E+00
95  9.4000000000000E-01  3.8393775328496E-02  1.4718360728329E-01  1.8889348236352E+00
96  9.5000000000000E-01  3.2414164248893E-02  1.2294620229696E-01  1.7796550275487E+00
97  9.6000000000000E-01  2.7166107553271E-02  1.0080370144164E-01  1.6538108742795E+00
98  9.7000000000000E-01  2.2584096889821E-02  8.0966523144326E-02  1.5141258346040E+00
99  9.8000000000000E-01  1.8604712018964E-02  6.3549903091544E-02  1.3637803018225E+00
100  9.9000000000000E-01  1.5167285164839E-02  4.8581131559434E-02  1.2063085373132E+00
101  1.0000000000000E+00  1.2214517856900E-02  3.6009398947272E-02  1.0454811726777E+00
102  1.0100000000000E+00  9.6930443857837E-03  2.5717619732099E-02  8.8517801261370E-01
103  1.0200000000000E+00  7.5539369229116E-03  1.7535502017631E-02  7.2925648514175E-01
104  1.0300000000000E+00  5.7531499733540E-03  1.1253052169774E-02  5.8142150604621E-01
105  1.0400000000000E+00  4.2518845602062E-03  6.6336804973920E-03  4.4510270227821E-01
106  1.0500000000000E+00  3.0168382035452E-03  3.4259911323294E-03  3.2334513385746E-01
107  1.0600000000000E+00  2.0130624440535E-03  1.3879611457491E-03  2.1868962906930E-01
108  1.0700000000000E+00  1.2179322532066E-03  2.8403273758908E-04  1.3311396017714E-01
109  1.0800000000000E+00  6.2361841027791E-04 -1.4243648963042E-04  6.8073872247657E-02
110  1.0900000000000E+00  2.2621733056627E-04 -1.5676087546897E-04  2.4489886284189E-02
111  1.1000000000000E+00  2.6546166582435E-05 -3.0905196415474E-05  2.8299207794190E-03
112  1.1100000000000E+00 -1.1523550085535E-06  1.7101130193014E-06 -1.2174773676618E-04
113  1.1200000000000E+00 -8.9253280879030E-08  9.7113145856684E-08 -9.5676556457911E-06
114  1.13  0.  0.  0.
115  1.14  0.  0.  0.
116  1.15  0.  0.  0.
117  1.16  0.  0.  0.
118  1.17  0.  0.  0.
119  1.18  0.  0.  0.
120  1.19  0.  0.  0.
121  1.20  0.  0.  0.
122  1.21  0.  0.  0.
123  1.22  0.  0.  0.
124  1.23  0.  0.  0.
125  1.24  0.  0.  0.
126  1.25  0.  0.  0.
127  1.26  0.  0.  0.
128  1.27  0.  0.  0.
129  1.28  0.  0.  0.
130  1.29  0.  0.  0.
131  1.30  0.  0.  0.
132  1.31  0.  0.  0.
133  1.32  0.  0.  0.
134  1.33  0.  0.  0.
135  1.34  0.  0.  0.
136  1.35  0.  0.  0.
137  1.36  0.  0.  0.
138  1.37  0.  0.  0.
139  1.38  0.  0.  0.
140  1.39  0.  0.  0.
141  1.40  0.  0.  0.
142  1.41  0.  0.  0.
143  1.42  0.  0.  0.
144  1.43  0.  0.  0.
145  1.44  0.  0.  0.
146  1.45  0.  0.  0.
147  1.46  0.  0.  0.
148  1.47  0.  0.  0.
149  1.48  0.  0.  0.
150  1.49  0.  0.  0.
151  1.50  0.  0.  0.
152  1.51  0.  0.  0.
153  1.52  0.  0.  0.
154  1.53  0.  0.  0.
155  1.54  0.  0.  0.
156  1.55  0.  0.  0.
157  1.56  0.  0.  0.
158  1.57  0.  0.  0.
159  1.58  0.  0.  0.
160  1.59  0.  0.  0.
161  1.60  0.  0.  0.
162  1.61  0.  0.  0.
163  1.62  0.  0.  0.
164  1.63  0.  0.  0.
165  1.64  0.  0.  0.
166  1.65  0.  0.  0.
167  1.66  0.  0.  0.
168  1.67  0.  0.  0.
169  1.68  0.  0.  0.
170  1.69  0.  0.  0.
171  1.70  0.  0.  0.
172  1.71  0.  0.  0.
173  1.72  0.  0.  0.
174  1.73  0.  0.  0.
175  1.74  0.  0.  0.
176  1.75  0.  0.  0.
177  1.76  0.  0.  0.
178  1.77  0.  0.  0.
179  1.78  0.  0.  0.
180  1.79  0.  0.  0.
181  1.80  0.  0.  0.
182  1.81  0.  0.  0.
183  1.82  0.  0.  0.
184  1.83  0.  0.  0.
185  1.84  0.  0.  0.
186  1.85  0.  0.  0.
187  1.86  0.  0.  0.
188  1.87  0.  0.  0.
189  1.88  0.  0.  0.
190  1.89  0.  0.  0.
191  1.90  0.  0.  0.
192  1.91  0.  0.  0.
193  1.92  0.  0.  0.
194  1.93  0.  0.  0.
195  1.94  0.  0.  0.
196  1.95  0.  0.  0.
197  1.96  0.  0.  0.
198  1.97  0.  0.  0.
199  1.98  0.  0.  0.
200  1.99  0.  0.  0.
201  2.00  0.  0.  0.
202  2.01  0.  0.  0.
203  2.02  0.  0.  0.
204  2.03  0.  0.  0.
205  2.04  0.  0.  0.
206  2.05  0.  0.  0.
207  2.06  0.  0.  0.
208  2.07  0.  0.  0.
209  2.08  0.  0.  0.
210  2.09  0.  0.  0.
211  2.10  0.  0.  0.
212  2.11  0.  0.  0.
213  2.12  0.  0.  0.
214  2.13  0.  0.  0.
215  2.14  0.  0.  0.
216  2.15  0.  0.  0.
217  2.16  0.  0.  0.
218  2.17  0.  0.  0.
219  2.18  0.  0.  0.
220  2.19  0.  0.  0.
221  2.20  0.  0.  0.
222  2.21  0.  0.  0.
223  2.22  0.  0.  0.
224  2.23  0.  0.  0.
225  2.24  0.  0.  0.
226  2.25  0.  0.  0.
227  2.26  0.  0.  0.
228  2.27  0.  0.  0.
229  2.28  0.  0.  0.
230  2.29  0.  0.  0.
231  2.30  0.  0.  0.
232  2.31  0.  0.  0.
233  2.32  0.  0.  0.
234  2.33  0.  0.  0.
235  2.34  0.  0.  0.
236  2.35  0.  0.  0.
237  2.36  0.  0.  0.
238  2.37  0.  0.  0.
239  2.38  0.  0.  0.
240  2.39  0.  0.  0.
241  2.40  0.  0.  0.
242  2.41  0.  0.  0.
243  2.42  0.  0.  0.
244  2.43  0.  0.  0.
245  2.44  0.  0.  0.
246  2.45  0.  0.  0.
247  2.46  0.  0.  0.
248  2.47  0.  0.  0.
249  2.48  0.  0.  0.
250  2.49  0.  0.  0.
251  2.50  0.  0.  0.
252  2.51  0.  0.  0.
253  2.52  0.  0.  0.
254  2.53  0.  0.  0.
255  2.54  0.  0.  0.
256  2.55  0.  0.  0.
257  2.56  0.  0.  0.
258  2.57  0.  0.  0.
259  2.58  0.  0.  0.
260  2.59  0.  0.  0.
261  2.60  0.  0.  0.
262  2.61  0.  0.  0.
263  2.62  0.  0.  0.
264  2.63  0.  0.  0.
265  2.64  0.  0.  0.
266  2.65  0.  0.  0.
267  2.66  0.  0.  0.
268  2.67  0.  0.  0.
269  2.68  0.  0.  0.
270  2.69  0.  0.  0.
271  2.70  0.  0.  0.
272  2.71  0.  0.  0.
273  2.72  0.  0.  0.
274  2.73  0.  0.  0.
275  2.74  0.  0.  0.
276  2.75  0.  0.  0.
277  2.76  0.  0.  0.
278  2.77  0.  0.  0.
279  2.78  0.  0.  0.
280  2.79  0.  0.  0.
281  2.80  0.  0.  0.
282  2.81  0.  0.  0.
283  2.82  0.  0.  0.
284  2.83  0.  0.  0.
285  2.84  0.  0.  0.
286  2.85  0.  0.  0.
287  2.86  0.  0.  0.
288  2.87  0.  0.  0.
289  2.88  0.  0.  0.
290  2.89  0.  0.  0.
291  2.90  0.  0.  0.
292  2.91  0.  0.  0.
293  2.92  0.  0.  0.
294  2.93  0.  0.  0.
295  2.94  0.  0.  0.
296  2.95  0.  0.  0.
297  2.96  0.  0.  0.
298  2.97  0.  0.  0.
299  2.98  0.  0.  0.
300  2.99  0.  0.  0.
301  3.00  0.  0.  0.
302  3.01  0.  0.  0.
303  3.02  0.  0.  0.
304  3.03  0.  0.  0.
305  3.04  0.  0.  0.
306  3.05  0.  0.  0.
307  3.06  0.  0.  0.
308  3.07  0.  0.  0.
309  3.08  0.  0.  0.
310  3.09  0.  0.  0.
311  3.10  0.  0.  0.
312  3.11  0.  0.  0.
313  3.12  0.  0.  0.
314  3.13  0.  0.  0.
315  3.14  0.  0.  0.
316  3.15  0.  0.  0.
317  3.16  0.  0.  0.
318  3.17  0.  0.  0.
319  3.18  0.  0.  0.
320  3.19  0.  0.  0.
321  3.20  0.  0.  0.
322  3.21  0.  0.  0.
323  3.22  0.  0.  0.
324  3.23  0.  0.  0.
325  3.24  0.  0.  0.
326  3.25  0.  0.  0.
327  3.26  0.  0.  0.
328  3.27  0.  0.  0.
329  3.28  0.  0.  0.
330  3.29  0.  0.  0.
331  3.30  0.  0.  0.
332  3.31  0.  0.  0.
333  3.32  0.  0.  0.
334  3.33  0.  0.  0.
335  3.34  0.  0.  0.
336  3.35  0.  0.  0.
337  3.36  0.  0.  0.
338  3.37  0.  0.  0.
339  3.38  0.  0.  0.
340  3.39  0.  0.  0.
341  3.40  0.  0.  0.
342  3.41  0.  0.  0.
343  3.42  0.  0.  0.
344  3.43  0.  0.  0.
345  3.44  0.  0.  0.
346  3.45  0.  0.  0.
347  3.46  0.  0.  0.
348  3.47  0.  0.  0.
349  3.48  0.  0.  0.
350  3.49  0.  0.  0.
351  3.50  0.  0.  0.
352  3.51  0.  0.  0.
353  3.52  0.  0.  0.
354  3.53  0.  0.  0.
355  3.54  0.  0.  0.
356  3.55  0.  0.  0.
357  3.56  0.  0.  0.
358  3.57  0.  0.  0.
359  3.58  0.  0.  0.
360  3.59  0.  0.  0.
361  3.60  0.  0.  0.
362  3.61  0.  0.  0.
363  3.62  0.  0.  0.
364  3.63  0.  0.  0.
365  3.64  0.  0.  0.
366  3.65  0.  0.  0.
367  3.66  0.  0.  0.
368  3.67  0.  0.  0.
369  3.68  0.  0.  0.
370  3.69  0.  0.  0.
371  3.70  0.  0.  0.
372  3.71  0.  0.  0.
373  3.72  0.  0.  0.
374  3.73  0.  0.  0.
375  3.74  0.  0.  0.
376  3.75  0.  0.  0.
377  3.76  0.  0.  0.
378  3.77  0.  0.  0.
379  3.78  0.  0.  0.
380  3.79  0.  0.  0.
381  3.80  0.  0.  0.
382  3.81  0.  0.  0.
383  3.82  0.  0.  0.
384  3.83  0.  0.  0.
385  3.84  0.  0.  0.
386  3.85  0.  0.  0.
387  3.86  0.  0.  0.
388  3.87  0.  0.  0.
389  3.88  0.  0.  0.
390  3.89  0.  0.  0.
391  3.90  0.  0.  0.
392  3.91  0.  0.  0.
393  3.92  0.  0.  0.
394  3.93  0.  0.  0.
395  3.94  0.  0.  0.
396  3.95  0.  0.  0.
397  3.96  0.  0.  0.
398  3.97  0.  0.  0.
399  3.98  0.  0.  0.
400  3.99  0.  0.  0.
401  4.00  0.  0.  0.
402  4.01  0.  0.  0.
403  4.02  0.  0.  0.
404  4.03  0.  0.  0.
405  4.04  0.  0.  0.
406  4.05  0.  0.  0.
407  4.06  0.  0.  0.
408  4.07  0.  0.  0.
409  4.08  0.  0.  0.
410  4.09  0.  0.  0.
411  4.10  0.  0.  0.
412  4.11  0.  0.  0.
413  4.12  0.  0.  0.
414  4.13  0.  0.  0.
415  4.14  0.  0.  0.
416  4.15  0.  0.  0.
417  4.16  0.  0.  0.
418  4.17  0.  0.  0.
419  4.18  0.  0.  0.
420  4.19  0.  0.  0.
421  4.20  0.  0.  0.
422  4.21  0.  0.  0.
423  4.22  0.  0.  0.
424  4.23  0.  0.  0.
425  4.24  0.  0.  0.
426  4.25  0.  0.  0.
427  4.26  0.  0.  0.
428  4.27  0.  0.  0.
429  4.28  0.  0.  0.
430  4.29  0.  0.  0.
431  4.30  0.  0.  0.
432  4.31  0.  0.  0.
433  4.32  0.  0.  0.
434  4.33  0.  0.  0.
435  4.34  0.  0.  0.
436  4.35  0.  0.  0.
437  4.36  0.  0.  0.
438  4.37  0.  0.  0.
439  4.38  0.  0.  0.
440  4.39  0.  0.  0.
441  4.40  0.  0.  0.
442  4.41  0.  0.  0.
443  4.42  0.  0.  0.
444  4.43  0.  0.  0.
445  4.44  0.  0.  0.
446  4.45  0.  0.  0.
447  4.46  0.  0.  0.
448  4.47  0.  0.  0.
449  4.48  0.  0.  0.
450  4.49  0.  0.  0.
451  4.50  0.  0.  0.
452  4.51  0.  0.  0.
453  4.52  0.  0.  0.
454  4.53  0.  0.  0.
455  4.54  0.  0.  0.
456  4.55  0.  0.  0.
457  4.56  0.  0.  0.
458  4.57  0.  0.  0.
459  4.58  0.  0.  0.
460  4.59  0.  0.  0.
461  4.60  0.  0.  0.
462  4.61  0.  0.  0.
463  4.62  0.  0.  0.
464  4.63  0.  0.  0.
465  4.64  0.  0.  0.
466  4.65  0.  0.  0.
467  4.66  0.  0.  0.
468  4.67  0.  0.  0.
469  4.68  0.  0.  0.
470  4.69  0.  0.  0.
471  4.70  0.  0.  0.
472  4.71  0.  0.  0.
473  4.72  0.  0.  0.
474  4.73  0.  0.  0.
475  4.74  0.  0.  0.
476  4.75  0.  0.  0.
477  4.76  0.  0.  0.
478  4.77  0.  0.  0.
479  4.78  0.  0.  0.
480  4.79  0.  0.  0.
481  4.80  0.  0.  0.
482  4.81  0.  0.  0.
483  4.82  0.  0.  0.
484  4.83  0.  0.  0.
485  4.84  0.  0.  0.
486  4.85  0.  0.  0.
487  4.86  0.  0.  0.
488  4.87  0.  0.  0.
489  4.88  0.  0.  0.
490  4.89  0.  0.  0.
491  4.90  0.  0.  0.
492  4.91  0.  0.  0.
493  4.92  0.  0.  0.
494  4.93  0.  0.  0.
495  4.94  0.  0.  0.
496  4.95  0.  0.  0.
497  4.96  0.  0.  0.
498  4.97  0.  0.  0.
499  4.98  0.  0.  0.
500  4.99  0.  0.  0.
501  5.00  0.  0.  0.
502  5.01  0.  0.  0.
503  5.02  0.  0.  0.
504  5.03  0.  0.  0.
505  5.04  0.  0.  0.
506  5.05  0.  0.  0.
507  5.06  0.  0.  0.
508  5.07  0.  0.  0.
509  5.08  0.  0.  0.
510  5.09  0.  0.  0.
511  5.10  0.  0.  0.
512  5.11  0.  0.  0.
513  5.12  0.  0.  0.
514  5.13  0.  0.  0.
515  5.14  0.  0.  0.
516  5.15  0.  0.  0.
517  5.16  0.  0.  0.
518  5.17  0.  0.  0.
519  5.18  0.  0.  0.
520  5.19  0.  0.  0.
521  5.20  0.  0.  0.
522  5.21  0.  0.  0.
523  5.22  0.  0.  0.
524  5.23  0.  0.  0.
525  5.24  0.  0.  0.
526  5.25  0.  0.  0.
527  5.26  0.  0.  0.
528  5.27  0.  0.  0.
529  5.28  0.  0.  0.
530  5.29  0.  0.  0.
531  5.30  0.  0.  0.
532  5.31  0.  0.  0.
533  5.32  0.  0.  0.
534  5.33  0.  0.  0.
535  5.34  0.  0.  0.
536  5.35  0.  0.  0.
537  5.36  0.  0.  0.
538  5.37  0.  0.  0.
539  5.38  0.  0.  0.
540  5.39  0.  0.  0.
541  5.40  0.  0.  0.
542  5.41  0.  0.  0.
543  5.42  0.  0.  0.
544  5.43  0.  0.  0.
545  5.44  0.  0.  0.
546  5.45  0.  0.  0.
547  5.46  0.  0.  0.
548  5.47  0.  0.  0.
549  5.48  0.  0.  0.
550  5.49  0.  0.  0.
551  5.50  0.  0.  0.
552  5.51  0.  0.  0.
553  5.52  0.  0.  0.
554  5.53  0.  0.  0.
555  5.54  0.  0.  0.
556  5.55  0.  0.  0.
557  5.56  0.  0.  0.
558  5.57  0.  0.  0.
559  5.58  0.  0.  0.
560  5.59  0.  0.  0.
561  5.60  0.  0.  0.
562  5.61  0.  0.  0.
563  5.62  0.  0.  0.
564  5.63  0.  0.  0.
565  5.64  0.  0.  0.
566  5.65  0.  0.  0.
567  5.66  0.  0.  0.
568  5.67  0.  0.  0.
569  5.68  0.  0.  0.
570  5.69  0.  0.  0.
571  5.70  0.  0.  0.
572  5.71  0.  0.  0.
573  5.72  0.  0.  0.
574  5.73  0.  0.  0.
575  5.74  0.  0.  0.
576  5.75  0.  0.  0.
577  5.76  0.  0.  0.
578  5.77  0.  0.  0.
579  5.78  0.  0.  0.
580  5.79  0.  0.  0.
581  5.80  0.  0.  0.
582  5.81  0.  0.  0.
583  5.82  0.  0.  0.
584  5.83  0.  0.  0.
585  5.84  0.  0.  0.
586  5.85  0.  0.  0.
587  5.86  0.  0.  0.
588  5.87  0.  0.  0.
589  5.88  0.  0.  0.
590  5.89  0.  0.  0.
591  5.90  0.  0.  0.
592  5.91  0.  0.  0.
593  5.92  0.  0.  0.
594  5.93  0.  0.  0.
595  5.94  0.  0.  0.
596  5.95  0.  0.  0.
597  5.96  0.  0.  0.
598  5.97  0.  0.  0.
599  5.98  0.  0.  0.
600  5.99  0.  0.  0.
1                        -1.1799780106884E+01 -1.3755842314807E+00 -2.8493134702328E-01
1  0.0000000000000E+00  3.4026435280499E-09  7.5290306017495E-08 -7.5675921989982E-07
2  1.0000000000000E-02  2.8069262582294E-03 -3.2114664225032E-03 -6.8963780510961E-03
3  2.0000000000000E-02  1.1208001090751E-02 -1.2831205479243E-02 -2.7280256383971E-02
4  3.0000000000000E-02  2.5144282393491E-02 -2.8814306064347E-02 -6.0248927404298E-02
5  4.0000000000000E-02  4.4518097078500E-02 -5.1082873051740E-02 -1.0434085207467E-01
6  5.0000000000000E-02  6.9193879777257E-02 -7.9521663677323E-02 -1.5759818675217E-01
7  6.0000000000000E-02  9.8999333308902E-02 -1.1397237138593E-01 -2.1765053844008E-01
8  7.0000000000000E-02  1.3372689750427E-01 -1.5422692785147E-01 -2.8181636048296E-01
9  8.0000000000000E-02  1.7313550957404E-01 -2.0002026916894E-01 -3.4721764397500E-01
10  9.0000000000000E-02  2.1695263610995E-01 -2.5102306640023E-01 -4.1090298888010E-01
11  1.0000000000000E-01  2.6487655406087E-01 -3.0683495101086E-01 -4.6997377758111E-01
12  1.1000000000000E-01  3.1657885566787E-01 -3.6697877059050E-01 -5.2170803787398E-01
13  1.2000000000000E-01  3.7170715040211E-01 -4.3089638905741E-01 -5.6367667831555E-01
14  1.3000000000000E-01  4.2988793544151E-01 -4.9794649891290E-01 -5.9384710249761E-01
15  1.4000000000000E-01  4.9072960515065E-01 -5.6740484277276E-01 -6.1066974674237E-01
16  1.5000000000000E-01  5.5382556938652E-01 -6.3846715015835E-01 -6.1314381526418E-01
17  1.6000000000000E-01  6.1875745022304E-01 -7.1025498712761E-01 -6.0085937720865E-01
18  1.7000000000000E-01  6.8509832684357E-01 -7.8182459530106E-01 -5.7401400347153E-01
19  1.8000000000000E-01  7.5241599885879E-01 -8.5217866832634E-01 -5.3340321482555E-01
20  1.9000000000000E-01  8.2027623912880E-01 -9.2028088334508E-01 -4.8038514016244E-01
21  2.0000000000000E-01  8.8824600825829E-01 -9.8507287824255E-01 -4.1682089658016E-01
22  2.1000000000000E-01  9.5589660424812E-01 -1.0454932479473E+00 -3.4499325408878E-01
23  2.2000000000000E-01  1.0228067222799E+00 -1.1004980300426E+00 -2.6750709185575E-01
24  2.3000000000000E-01  1.0885654012390E+00 -1.1490820661378E+00 -1.8717594954109E-01
25  2.4000000000000E-01  1.1527748353052E+00 -1.1903005647426E+00 -1.0689959189391E-01
26  2.5000000000000E-01  1.2150530307276E+00 -1.2232901567830E+00 -2.9537910493196E-02
27  2.6000000000000E-01  1.2750362897152E+00 -1.2472887283096E+00  4.2213334837574E-02
28  2.7000000000000E-01  1.3323815052050E+00 -1.2616533371434E+00  1.0593948944965E-01
29  2.8000000000000E-01  1.3867682520923E+00 -1.2658755707517E+00  1.5961153804448E-01
30  2.9000000000000E-01  1.4379006623155E+00 -1.2595937799152E+00  2.0167356010731E-01
31  3.0000000000000E-01  1.4855090729898E+00 -1.2426017239975E+00  2.3110918416176E-01
32  3.1000000000000E-01  1.5293514385635E+00 -1.2148532850647E+00  2.4748400862370E-01
33  3.2000000000000E-01  1.5692144997652E+00 -1.1764630450862E+00  2.5096198362880E-01
34  3.3000000000000E-01  1.6049147039006E+00 -1.1277026676184E+00  2.4229486846164E-01
35  3.4000000000000E-01  1.6362988728873E+00 -1.0689931769161E+00  2.2278504621311E-01
36  3.5000000000000E-01  1.6632446172760E+00 -1.0008933772663E+00  1.9422314186682E-01
37  3.6000000000000E-01  1.6856604964243E+00 -9.2408479744697E-01  1.5880300277851E-01
38  3.7000000000000E-01  1.7034859269650E+00 -8.3935367377355E-01  1.1901761389694E-01
39  3.8000000000000E-01  1.7166908437520E+00 -7.4757059491721E-01  7.7540390347820E-02
40  3.9000000000000E-01  1.7252751195745E+00 -6.4966851797079E-01  3.7096979053461E-02
41  4.0000000000000E-01  1.7292677520859E+00 -5.4661992442554E-01  3.3317807238995E-04
42  4.1000000000000E-01  1.7287258285919E+00 -4.3941391419737E-01 -3.0315174946929E-02
43  4.2000000000000E-01  1.7237332815510E+00 -3.2903403417444E-01 -5.2744498076577E-02
44  4.3000000000000E-01  1.7143994498278E+00 -2.1643760476584E-01 -6.5292350858095E-02
45  4.4000000000000E-01  1.7008574628717E+00 -1.0253724469841E-01 -6.6827812688775E-02
46  4.5000000000000E-01  1.6832624670135E+00  1.1814796853585E-02 -5.6818975406563E-02
47  4.6000000000000E-01  1.6617897149464E+00  1.2583900735085E-01 -3.5374087506231E-02
48  4.7000000000000E-01  1.6366325411139E+00  2.3883731935112E-01 -3.2539640619385E-03
49  4.8000000000000E-01  1.6080002471288E+00  3.5019795281031E-01  3.8145528910409E-02
50  4.9000000000000E-01  1.5761159224305E+00  4.5939634268811E-01  8.6840842342846E-02
51  5.0000000000000E-01  1.5412142261063E+00  5.6599226467887E-01  1.4033660799722E-01
52  5.1000000000000E-01  1.5035391561212E+00  6.6962342908464E-01  1.9572739365232E-01
53  5.2000000000000E-01  1.4633418320702E+00  7.6999595947727E-01  2.4982158318574E-01
54  5.3000000000000E-01  1.4208783169807E+00  8.6687230282651E-01  2.9928258938841E-01
55  5.4000000000000E-01  1.3764075026246E+00  9.6005722577299E-01  3.4078176198857E-01
56  5.5000000000000E-01  1.3301890812603E+00  1.0493826331090E+00  3.7115672604184E-01
57  5.6000000000000E-01  1.2824816247247E+00  1.1346919957290E+00  3.8756850590156E-01
58  5.7000000000000E-01  1.2335407893728E+00  1.2158251939406E+00  3.8765067715637E-01
59  5.8000000000000E-01  1.1836176625501E+00  1.2926045669750E+00  3.6964395241740E-01
60  5.9000000000000E-01  1.1329572631585E+00  1.3648229110584E+00  3.3251004487124E-01
61  6.0000000000000E-01  1.0817972054963E+00  1.4322340880702E+00  2.7601935320389E-01
62  6.1000000000000E-01  1.0303665320096E+00  1.4945467975260E+00  2.0080794926091E-01
63  6.2000000000000E-01  9.7888471697542E-01  1.5514219304549E+00  1.0840049212503E-01
64  6.3000000000000E-01  9.2756083954608E-01  1.6024737698418E+00  1.1969969308427E-03
65  6.4000000000000E-01  8.7659292111830E-01  1.6472751346587E+00 -1.1757719570114E-01
66  6.5000000000000E-01  8.2616741875225E-01  1.6853663897634E+00 -2.4395742797242E-01
67  6.6000000000000E-01  7.7645886345070E-01  1.7162680690942E+00 -3.7335941335066E-01
68  6.7000000000000E-01  7.2762962960694E-01  1.7394966917577E+00 -5.0072889024649E-01
69  6.8000000000000E-01  6.7982981991961E-01  1.7545831967354E+00 -6.2071622511491E-01
70  6.9000000000000E-01  6.3319724861939E-01  1.7610932885153E+00 -7.2786981863085E-01
71  7.0000000000000E-01  5.8785750500303E-01  1.7586488787607E+00 -8.1684125665372E-01
72  7.1000000000000E-01  5.4392407905549E-01  1.7469497329946E+00 -8.8259449488429E-01
73  7.2000000000000E-01  5.0149853136894E-01  1.7257943898699E+00 -9.2061100335222E-01
74  7.3000000000000E-01  4.6067069062522E-01  1.6950994162686E+00 -9.2708274435115E-01
75  7.4000000000000E-01  4.2151886356211E-01  1.6549160951457E+00 -8.9908512339439E-01
76  7.5000000000000E-01  3.8411004453741E-01  1.6054437141519E+00 -8.3472263326034E-01
77  7.6000000000000E-01  3.4850011446190E-01  1.5470387295534E+00 -7.3324078973684E-01
78  7.7000000000000E-01  3.1473402189972E-01  1.4802192183418E+00 -5.9509910582424E-01
79  7.8000000000000E-01  2.8284594242214E-01  1.4056641968755E+00 -4.2200122964164E-01
80  7.9000000000000E-01  2.5285941572759E-01  1.3242075709423E+00 -2.1687993069751E-01
81  8.0000000000000E-01  2.2478746347758E-01  1.2368266828733E+00  1.6163697447669E-02
82  8.1000000000000E-01  1.9863269411067E-01  1.1446256286875E+00  2.7196570587850E-01
83  8.2000000000000E-01  1.7438740395448E-01  1.0488137241996E+00  5.4444657960285E-01
84  8.3000000000000E-01  1.5203368662961E-01  9.5067969549505E-01  8.2679583142934E-01
85  8.4000000000000E-01  1.3154356491518E-01  8.5156234831450E-01  1.1116878584426E+00
86  8.5000000000000E-01  1.1287916081947E-01  7.5281862533467E-01  1.3915216942053E+00
87  8.6000000000000E-01  9.5992920489169E-02  6.5579008359785E-01  1.6586762210746E+00
88  8.7000000000000E-01  8.0827910735974E-02  5.6176891100931E-01  1.9057716406942E+00
89  8.8000000000000E-01  6.7318203323467E-02  4.7196464680456E-01  2.1259275721085E+00
90  8.9000000000000E-01  5.5389361733379E-02  3.8747277361223E-01  2.3130080789522E+00
91  9.0000000000000E-01  4.4959042937562E-02  3.0924630726646E-01  2.4618442291179E+00
92  9.1000000000000E-01  3.5937723789653E-02  2.3807142560885E-01  2.5684254574155E+00
93  9.2000000000000E-01  2.8229558094727E-02  1.7454805162327E-01  2.6300520150428E+00
94  9.3000000000000E-01  2.1733366318882E-02  1.1907614346163E-01  2.6454421164451E+00
95  9.4000000000000E-01  1.6343755388728E-02  7.1848249827121E-02  2.6147889890432E+00
96  9.5000000000000E-01  1.1952361248152E-02  3.2848670678476E-02  2.5397648379020E+00
97  9.6000000000000E-01  8.4492019453846E-03  1.8593282418955E-03  2.4234706902390E+00
98  9.7000000000000E-01  5.7241241875185E-03 -2.1527789356131E-02  2.2703331109648E+00
99  9.8000000000000E-01  3.6683216916364E-03 -3.7891990907078E-02  2.0859508053409E+00
100  9.9000000000000E-01  2.1758994558591E-03 -4.7959661126528E-02  1.8768960693550E+00
101  1.0000000000000E+00  1.1454544287280E-03 -5.2575276737975E-02  1.6504778385225E+00
102  1.0100000000000E+00  4.8164012026353E-04 -5.2668663757171E-02  1.4144746503044E+00