Np    ONCVPSP-4.0.1  r_core=   1.15224   1.20152   1.10499   1.15224
93.0000     33.0000      230223    zatom,zion,pspd
8      11   3     4   600     0    pspcod,pspxc,lmax,lloc,mmax,r2well
5.99000000  5.00000000  0.00000000    rchrg fchrg qchrg
3     2     2     2     0    nproj
1     1           extension_switch
0                         4.1105395087272E+01  3.4593459209167E+00 -7.6344964795033E-01
1  0.0000000000000E+00 -6.3524359106282E-08  2.4185785896247E-07  5.3307331299157E-08
2  1.0000000000000E-02  1.5663851208716E-01 -8.9792661419996E-02  2.2639030057948E-02
3  2.0000000000000E-02  3.1218833589926E-01 -1.7769029407321E-01  4.5307951499588E-02
4  3.0000000000000E-02  4.6557662651626E-01 -2.6184694874709E-01  6.8028636621949E-02
5  4.0000000000000E-02  6.1576176366711E-01 -3.4051311653605E-01  9.0807295916676E-02
6  5.0000000000000E-02  7.6174782650210E-01 -4.1207971896201E-01  1.1362757340853E-01
7  6.0000000000000E-02  9.0259775187839E-01 -4.7511720690664E-01  1.3644471293662E-01
8  7.0000000000000E-02  1.0374448162052E+00 -5.2840843815626E-01  1.5918108641927E-01
9  8.0000000000000E-02  1.1655021444194E+00 -5.7097424521777E-01  1.8172332183635E-01
10  9.0000000000000E-02  1.2860700241574E+00 -6.0209088879716E-01  2.0392120590074E-01
11  1.0000000000000E-01  1.3985408856748E+00 -6.2129890664751E-01  2.2558846653956E-01
12  1.1000000000000E-01  1.5024018952367E+00 -6.2840319986660E-01  2.4650546599969E-01
13  1.2000000000000E-01  1.5972351980747E+00 -6.2346453593482E-01  2.6642375943048E-01
14  1.3000000000000E-01  1.6827159330402E+00 -6.0678297638913E-01  2.8507239904743E-01
15  1.4000000000000E-01  1.7586082213421E+00 -5.7887404395087E-01  3.0216579326187E-01
16  1.5000000000000E-01  1.8247594030285E+00 -5.4043871694603E-01  3.1741286614500E-01
17  1.6000000000000E-01  1.8810928543146E+00 -4.9232856709558E-01  3.3052720770065E-01
18  1.7000000000000E-01  1.9275997641059E+00 -4.3550753115890E-01  3.4123786172566E-01
19  1.8000000000000E-01  1.9643302773206E+00 -3.7101192053181E-01  3.4930036720380E-01
20  1.9000000000000E-01  1.9913844247464E+00 -2.9991032128880E-01  3.5450765238139E-01
21  2.0000000000000E-01  2.0089032537048E+00 -2.2326501839851E-01  3.5670037857230E-01
22  2.1000000000000E-01  2.0170605510330E+00 -1.4209649282118E-01  3.5577634343282E-01
23  2.2000000000000E-01  2.0160555107756E+00 -5.7352392367935E-02  3.5169858049551E-01
24  2.3000000000000E-01  2.0061066451737E+00  3.0117827366273E-02  3.4450183216987E-01
25  2.4000000000000E-01  1.9874471712692E+00  1.1958164867111E-01  3.3429712573201E-01
26  2.5000000000000E-01  1.9603220294900E+00  2.1043497177066E-01  3.2127424412004E-01
27  2.6000000000000E-01  1.9249866081003E+00  3.0220599438325E-01  3.0570195334184E-01
28  2.7000000000000E-01  1.8817071618394E+00  3.9455148659147E-01  2.8792592342940E-01
29  2.8000000000000E-01  1.8307628280241E+00  4.8724578726344E-01  2.6836435738617E-01
30  2.9000000000000E-01  1.7724490624159E+00  5.8016316499039E-01  2.4750141965845E-01
31  3.0000000000000E-01  1.7070822437088E+00  6.7325447643436E-01  2.2587862950960E-01
32  3.1000000000000E-01  1.6350051326874E+00  7.6651930620248E-01  2.0408445263655E-01
33  3.2000000000000E-01  1.5565928226775E+00  8.5997497440081E-01  1.8274238400176E-01
34  3.3000000000000E-01  1.4722587840353E+00  9.5362394242160E-01  1.6249786406040E-01
35  3.4000000000000E-01  1.3824605886587E+00  1.0474212281096E+00  1.4400440763098E-01
36  3.5000000000000E-01  1.2877049017307E+00  1.1412434546451E+00  1.2790934835077E-01
37  3.6000000000000E-01  1.1885513472426E+00  1.2348611023982E+00  1.1483961123581E-01
38  3.7000000000000E-01  1.0856148907093E+00  1.3279154115599E+00  1.0538792112911E-01
39  3.8000000000000E-01  9.7956643554025E-01  1.4199012001191E+00  1.0009983610019E-01
40  3.9000000000000E-01  8.7113139677085E-01  1.5101566239134E+00  9.9461963010660E-02
41  4.0000000000000E-01  7.6108609471111E-01  1.5978606223529E+00  1.0389166881203E-01
42  4.1000000000000E-01  6.5025189842187E-01  1.6820384763432E+00  1.1372854746252E-01
43  4.2000000000000E-01  5.3948714134255E-01  1.7615755665563E+00  1.2922784075074E-01
44  4.3000000000000E-01  4.2967692515985E-01  1.8352390741865E+00  1.5055594418936E-01
45  4.4000000000000E-01  3.2172101934846E-01  1.9017070266736E+00  1.7778805905237E-01
46  4.5000000000000E-01  2.1652014900865E-01  1.9596037714124E+00  2.1090798122066E-01
47  4.6000000000000E-01  1.1496103917395E-01  2.0075406742641E+00  2.4980994938218E-01
48  4.7000000000000E-01  1.7900646517158E-02  2.0441605985575E+00  2.9430241178961E-01
49  4.8000000000000E-01 -7.3849943316369E-02  2.0681845342582E+00  3.4411351447425E-01
50  4.9000000000000E-01 -1.5954144472772E-01  2.0784586239578E+00  3.9889806649300E-01
51  5.0000000000000E-01 -2.3850160862422E-01  2.0739997776900E+00  4.5824570102174E-01
52  5.1000000000000E-01 -3.1014925604468E-01  2.0540380849506E+00  5.2168992602070E-01
53  5.2000000000000E-01 -3.7400662671933E-01  2.0180543195276E+00  5.8871774544573E-01
54  5.3000000000000E-01 -4.2970960687823E-01  1.9658109877970E+00  6.5877953170450E-01
55  5.4000000000000E-01 -4.7701546403905E-01  1.8973755882890E+00  7.3129884192050E-01
56  5.5000000000000E-01 -5.1580779448765E-01  1.8131350213269E+00  8.0568189374357E-01
57  5.6000000000000E-01 -5.4609847882377E-01  1.7138004019887E+00  8.8132644967409E-01
58  5.7000000000000E-01 -5.6802653893289E-01  1.6004018753921E+00  9.5762990051440E-01
59  5.8000000000000E-01 -5.8185389236673E-01  1.4742733969121E+00  1.0339963866715E+00
60  5.9000000000000E-01 -5.8795810350668E-01  1.3370278073043E+00  1.1098428484460E+00
61  6.0000000000000E-01 -5.8682233113233E-01  1.1905228894974E+00  1.1846039508443E+00
62  6.1000000000000E-01 -5.7902276534291E-01  1.0368194261812E+00  1.2577358825044E+00
63  6.2000000000000E-01 -5.6521392968034E-01  8.7813257237494E-01  1.3287190797554E+00
64  6.3000000000000E-01 -5.4611229368088E-01  7.1677810350675E-01  1.3970599735007E+00
65  6.4000000000000E-01 -5.2247869438670E-01  5.5511528774642E-01  1.4622918966491E+00
66  6.5000000000000E-01 -4.9510010066166E-01  3.9548825431169E-01  1.5239753216262E+00
67  6.6000000000000E-01 -4.6477127026509E-01  2.4016778269279E-01  1.5816976198971E+00
68  6.7000000000000E-01 -4.3227684609392E-01  9.1295419497646E-02  1.6350725476222E+00
69  6.8000000000000E-01 -3.9837441511710E-01 -4.9168259005755E-02  1.6837396632235E+00
70  6.9000000000000E-01 -3.6377901236381E-01 -1.7948957571121E-01  1.7273638738712E+00
71  7.0000000000000E-01 -3.2914949464077E-01 -2.9820042516407E-01  1.7656352892618E+00
72  7.1000000000000E-01 -2.9507713684010E-01 -4.0412850857951E-01  1.7982695335209E+00
73  7.2000000000000E-01 -2.6207672064317E-01 -4.9641825751647E-01  1.8250086309526E+00
74  7.3000000000000E-01 -2.3058029443273E-01 -5.7454190813666E-01  1.8456225403105E+00
75  7.4000000000000E-01 -2.0093368784756E-01 -6.3830053922483E-01  1.8599113671469E+00
76  7.5000000000000E-01 -1.7339576829649E-01 -6.8781524037449E-01  1.8677082366177E+00
77  7.6000000000000E-01 -1.4814033352469E-01 -7.2350891852706E-01  1.8688827619649E+00
78  7.7000000000000E-01 -1.2526044741440E-01 -7.4607956873707E-01  1.8633449988190E+00
79  7.8000000000000E-01 -1.0477494869907E-01 -7.5646611714984E-01  1.8510497344025E+00
80  7.9000000000000E-01 -8.6636796844494E-02 -7.5580818080799E-01  1.8320009254540E+00
81  8.0000000000000E-01 -7.0742868101851E-02 -7.4540127224052E-01  1.8062560707231E+00
82  8.1000000000000E-01 -5.6944779161170E-02 -7.2664910123669E-01  1.7739302844377E+00
83  8.2000000000000E-01 -4.5060296757672E-02 -7.0101468865117E-01  1.7351998270724E+00
84  8.3000000000000E-01 -3.4884889155985E-02 -6.6997200691001E-01  1.6903048495483E+00
85  8.4000000000000E-01 -2.6202989143546E-02 -6.3495980093925E-01  1.6395511168053E+00
86  8.5000000000000E-01 -1.8798566873889E-02 -5.9733912565182E-01  1.5833104962672E+00
87  8.6000000000000E-01 -1.2464652936328E-02 -5.5835596806776E-01  1.5220200255121E+00
88  8.7000000000000E-01 -7.0115052700892E-03 -5.1911011143003E-01  1.4561794106196E+00
89  8.8000000000000E-01 -2.2731755346623E-03 -4.8053115438772E-01  1.3863468511124E+00
90  8.9000000000000E-01  1.8877013486571E-03 -4.4336233023989E-01  1.3131331379153E+00
91  9.0000000000000E-01  5.5769992682758E-03 -4.0815248944192E-01  1.2371940259946E+00
92  9.1000000000000E-01  8.8681070991301E-03 -3.7525632277273E-01  1.1592209419916E+00
93  9.2000000000000E-01  1.1802810787318E-02 -3.4484262168591E-01  1.0799301479733E+00
94  9.3000000000000E-01  1.4393946087860E-02 -3.1691010403998E-01  1.0000505442822E+00
95  9.4000000000000E-01  1.6629654824309E-02 -2.9131008347452E-01  9.2031035648808E-01
96  9.5000000000000E-01  1.8479021831707E-02 -2.6777503297496E-01  8.4142301301829E-01
97  9.6000000000000E-01  1.9898820535611E-02 -2.4595188902539E-01  7.6407258088115E-01
98  9.7000000000000E-01  2.0841052067392E-02 -2.2543876110008E-01  6.8889918705378E-01
99  9.8000000000000E-01  2.1260924819742E-02 -2.0582354818822E-01  6.1648491306931E-01
100  9.9000000000000E-01  2.1124886661303E-02 -1.8672281333261E-01  5.4734071088416E-01
101  1.0000000000000E+00  2.0418288165792E-02 -1.6781911975509E-01  4.8189495047714E-01
102  1.0100000000000E+00  1.9152219128570E-02 -1.4889487699376E-01  4.2048427531794E-01
103  1.0200000000000E+00  1.7369018678283E-02 -1.2986056919259E-01  3.6334751276673E-01
104  1.0300000000000E+00  1.5145907405209E-02 -1.1077502552827E-01  3.1062346465847E-01
105  1.0400000000000E+00  1.2596123791365E-02 -9.1855128866512E-02  2.6235349104050E-01
106  1.0500000000000E+00  9.8668620039878E-03 -7.3472025335468E-02  2.1848989993014E-01
107  1.0600000000000E+00  7.1331993230614E-03 -5.6130478194888E-02  1.7891127024220E-01
108  1.0700000000000E+00  4.5870643574671E-03 -4.0427486622817E-02  1.4344596635373E-01
109  1.0800000000000E+00  2.4200303877492E-03 -2.6985320801288E-02  1.1190523772326E-01
110  1.0900000000000E+00  7.9949373864895E-04 -1.6356643936109E-02  8.4127637247094E-02
111  1.1000000000000E+00 -2.1896914093593E-04 -8.7074732143083E-03  6.0026734689965E-02
112  1.1100000000000E+00 -8.1687090891005E-04 -3.3620326292656E-03  3.9647750199745E-02
113  1.1200000000000E+00 -9.6521886069353E-04 -3.1342747073107E-04  2.3256595587794E-02
114  1.1300000000000E+00 -7.3680023894616E-04  7.6583646734061E-04  1.1107351366280E-02
115  1.1400000000000E+00 -3.1901292116928E-04  5.4474526737983E-04  3.3581367251125E-03
116  1.1500000000000E+00 -2.1139949007753E-05  4.4574159691348E-05  1.6314236671165E-04
117  1.1600000000000E+00 -9.2770538587489E-07  1.9345234938029E-06  7.3150478425809E-06
118  1.1700000000000E+00  3.0466188433932E-07 -5.9237935723376E-07 -2.7007245436413E-06
119  1.18 -0.  0. -0.
120  1.19  0.  0.  0.
121  1.20  0.  0.  0.
122  1.21  0.  0.  0.
123  1.22  0.  0.  0.
124  1.23  0.  0.  0.
125  1.24  0.  0.  0.
126  1.25  0.  0.  0.
127  1.26  0.  0.  0.
128  1.27  0.  0.  0.
129  1.28  0.  0.  0.
130  1.29  0.  0.  0.
131  1.30  0.  0.  0.
132  1.31  0.  0.  0.
133  1.32  0.  0.  0.
134  1.33  0.  0.  0.
135  1.34  0.  0.  0.
136  1.35  0.  0.  0.
137  1.36  0.  0.  0.
138  1.37  0.  0.  0.
139  1.38  0.  0.  0.
140  1.39  0.  0.  0.
141  1.40  0.  0.  0.
142  1.41  0.  0.  0.
143  1.42  0.  0.  0.
144  1.43  0.  0.  0.
145  1.44  0.  0.  0.
146  1.45  0.  0.  0.
147  1.46  0.  0.  0.
148  1.47  0.  0.  0.
149  1.48  0.  0.  0.
150  1.49  0.  0.  0.
151  1.50  0.  0.  0.
152  1.51  0.  0.  0.
153  1.52  0.  0.  0.
154  1.53  0.  0.  0.
155  1.54  0.  0.  0.
156  1.55  0.  0.  0.
157  1.56  0.  0.  0.
158  1.57  0.  0.  0.
159  1.58  0.  0.  0.
160  1.59  0.  0.  0.
161  1.60  0.  0.  0.
162  1.61  0.  0.  0.
163  1.62  0.  0.  0.
164  1.63  0.  0.  0.
165  1.64  0.  0.  0.
166  1.65  0.  0.  0.
167  1.66  0.  0.  0.
168  1.67  0.  0.  0.
169  1.68  0.  0.  0.
170  1.69  0.  0.  0.
171  1.70  0.  0.  0.
172  1.71  0.  0.  0.
173  1.72  0.  0.  0.
174  1.73  0.  0.  0.
175  1.74  0.  0.  0.
176  1.75  0.  0.  0.
177  1.76  0.  0.  0.
178  1.77  0.  0.  0.
179  1.78  0.  0.  0.
180  1.79  0.  0.  0.
181  1.80  0.  0.  0.
182  1.81  0.  0.  0.
183  1.82  0.  0.  0.
184  1.83  0.  0.  0.
185  1.84  0.  0.  0.
186  1.85  0.  0.  0.
187  1.86  0.  0.  0.
188  1.87  0.  0.  0.
189  1.88  0.  0.  0.
190  1.89  0.  0.  0.
191  1.90  0.  0.  0.
192  1.91  0.  0.  0.
193  1.92  0.  0.  0.
194  1.93  0.  0.  0.
195  1.94  0.  0.  0.
196  1.95  0.  0.  0.
197  1.96  0.  0.  0.
198  1.97  0.  0.  0.
199  1.98  0.  0.  0.
200  1.99  0.  0.  0.
201  2.00  0.  0.  0.
202  2.01  0.  0.  0.
203  2.02  0.  0.  0.
204  2.03  0.  0.  0.
205  2.04  0.  0.  0.
206  2.05  0.  0.  0.
207  2.06  0.  0.  0.
208  2.07  0.  0.  0.
209  2.08  0.  0.  0.
210  2.09  0.  0.  0.
211  2.10  0.  0.  0.
212  2.11  0.  0.  0.
213  2.12  0.  0.  0.
214  2.13  0.  0.  0.
215  2.14  0.  0.  0.
216  2.15  0.  0.  0.
217  2.16  0.  0.  0.
218  2.17  0.  0.  0.
219  2.18  0.  0.  0.
220  2.19  0.  0.  0.
221  2.20  0.  0.  0.
222  2.21  0.  0.  0.
223  2.22  0.  0.  0.
224  2.23  0.  0.  0.
225  2.24  0.  0.  0.
226  2.25  0.  0.  0.
227  2.26  0.  0.  0.
228  2.27  0.  0.  0.
229  2.28  0.  0.  0.
230  2.29  0.  0.  0.
231  2.30  0.  0.  0.
232  2.31  0.  0.  0.
233  2.32  0.  0.  0.
234  2.33  0.  0.  0.
235  2.34  0.  0.  0.
236  2.35  0.  0.  0.
237  2.36  0.  0.  0.
238  2.37  0.  0.  0.
239  2.38  0.  0.  0.
240  2.39  0.  0.  0.
241  2.40  0.  0.  0.
242  2.41  0.  0.  0.
243  2.42  0.  0.  0.
244  2.43  0.  0.  0.
245  2.44  0.  0.  0.
246  2.45  0.  0.  0.
247  2.46  0.  0.  0.
248  2.47  0.  0.  0.
249  2.48  0.  0.  0.
250  2.49  0.  0.  0.
251  2.50  0.  0.  0.
252  2.51  0.  0.  0.
253  2.52  0.  0.  0.
254  2.53  0.  0.  0.
255  2.54  0.  0.  0.
256  2.55  0.  0.  0.
257  2.56  0.  0.  0.
258  2.57  0.  0.  0.
259  2.58  0.  0.  0.
260  2.59  0.  0.  0.
261  2.60  0.  0.  0.
262  2.61  0.  0.  0.
263  2.62  0.  0.  0.
264  2.63  0.  0.  0.
265  2.64  0.  0.  0.
266  2.65  0.  0.  0.
267  2.66  0.  0.  0.
268  2.67  0.  0.  0.
269  2.68  0.  0.  0.
270  2.69  0.  0.  0.
271  2.70  0.  0.  0.
272  2.71  0.  0.  0.
273  2.72  0.  0.  0.
274  2.73  0.  0.  0.
275  2.74  0.  0.  0.
276  2.75  0.  0.  0.
277  2.76  0.  0.  0.
278  2.77  0.  0.  0.
279  2.78  0.  0.  0.
280  2.79  0.  0.  0.
281  2.80  0.  0.  0.
282  2.81  0.  0.  0.
283  2.82  0.  0.  0.
284  2.83  0.  0.  0.
285  2.84  0.  0.  0.
286  2.85  0.  0.  0.
287  2.86  0.  0.  0.
288  2.87  0.  0.  0.
289  2.88  0.  0.  0.
290  2.89  0.  0.  0.
291  2.90  0.  0.  0.
292  2.91  0.  0.  0.
293  2.92  0.  0.  0.
294  2.93  0.  0.  0.
295  2.94  0.  0.  0.
296  2.95  0.  0.  0.
297  2.96  0.  0.  0.
298  2.97  0.  0.  0.
299  2.98  0.  0.  0.
300  2.99  0.  0.  0.
301  3.00  0.  0.  0.
302  3.01  0.  0.  0.
303  3.02  0.  0.  0.
304  3.03  0.  0.  0.
305  3.04  0.  0.  0.
306  3.05  0.  0.  0.
307  3.06  0.  0.  0.
308  3.07  0.  0.  0.
309  3.08  0.  0.  0.
310  3.09  0.  0.  0.
311  3.10  0.  0.  0.
312  3.11  0.  0.  0.
313  3.12  0.  0.  0.
314  3.13  0.  0.  0.
315  3.14  0.  0.  0.
316  3.15  0.  0.  0.
317  3.16  0.  0.  0.
318  3.17  0.  0.  0.
319  3.18  0.  0.  0.
320  3.19  0.  0.  0.
321  3.20  0.  0.  0.
322  3.21  0.  0.  0.
323  3.22  0.  0.  0.
324  3.23  0.  0.  0.
325  3.24  0.  0.  0.
326  3.25  0.  0.  0.
327  3.26  0.  0.  0.
328  3.27  0.  0.  0.
329  3.28  0.  0.  0.
330  3.29  0.  0.  0.
331  3.30  0.  0.  0.
332  3.31  0.  0.  0.
333  3.32  0.  0.  0.
334  3.33  0.  0.  0.
335  3.34  0.  0.  0.
336  3.35  0.  0.  0.
337  3.36  0.  0.  0.
338  3.37  0.  0.  0.
339  3.38  0.  0.  0.
340  3.39  0.  0.  0.
341  3.40  0.  0.  0.
342  3.41  0.  0.  0.
343  3.42  0.  0.  0.
344  3.43  0.  0.  0.
345  3.44  0.  0.  0.
346  3.45  0.  0.  0.
347  3.46  0.  0.  0.
348  3.47  0.  0.  0.
349  3.48  0.  0.  0.
350  3.49  0.  0.  0.
351  3.50  0.  0.  0.
352  3.51  0.  0.  0.
353  3.52  0.  0.  0.
354  3.53  0.  0.  0.
355  3.54  0.  0.  0.
356  3.55  0.  0.  0.
357  3.56  0.  0.  0.
358  3.57  0.  0.  0.
359  3.58  0.  0.  0.
360  3.59  0.  0.  0.
361  3.60  0.  0.  0.
362  3.61  0.  0.  0.
363  3.62  0.  0.  0.
364  3.63  0.  0.  0.
365  3.64  0.  0.  0.
366  3.65  0.  0.  0.
367  3.66  0.  0.  0.
368  3.67  0.  0.  0.
369  3.68  0.  0.  0.
370  3.69  0.  0.  0.
371  3.70  0.  0.  0.
372  3.71  0.  0.  0.
373  3.72  0.  0.  0.
374  3.73  0.  0.  0.
375  3.74  0.  0.  0.
376  3.75  0.  0.  0.
377  3.76  0.  0.  0.
378  3.77  0.  0.  0.
379  3.78  0.  0.  0.
380  3.79  0.  0.  0.
381  3.80  0.  0.  0.
382  3.81  0.  0.  0.
383  3.82  0.  0.  0.
384  3.83  0.  0.  0.
385  3.84  0.  0.  0.
386  3.85  0.  0.  0.
387  3.86  0.  0.  0.
388  3.87  0.  0.  0.
389  3.88  0.  0.  0.
390  3.89  0.  0.  0.
391  3.90  0.  0.  0.
392  3.91  0.  0.  0.
393  3.92  0.  0.  0.
394  3.93  0.  0.  0.
395  3.94  0.  0.  0.
396  3.95  0.  0.  0.
397  3.96  0.  0.  0.
398  3.97  0.  0.  0.
399  3.98  0.  0.  0.
400  3.99  0.  0.  0.
401  4.00  0.  0.  0.
402  4.01  0.  0.  0.
403  4.02  0.  0.  0.
404  4.03  0.  0.  0.
405  4.04  0.  0.  0.
406  4.05  0.  0.  0.
407  4.06  0.  0.  0.
408  4.07  0.  0.  0.
409  4.08  0.  0.  0.
410  4.09  0.  0.  0.
411  4.10  0.  0.  0.
412  4.11  0.  0.  0.
413  4.12  0.  0.  0.
414  4.13  0.  0.  0.
415  4.14  0.  0.  0.
416  4.15  0.  0.  0.
417  4.16  0.  0.  0.
418  4.17  0.  0.  0.
419  4.18  0.  0.  0.
420  4.19  0.  0.  0.
421  4.20  0.  0.  0.
422  4.21  0.  0.  0.
423  4.22  0.  0.  0.
424  4.23  0.  0.  0.
425  4.24  0.  0.  0.
426  4.25  0.  0.  0.
427  4.26  0.  0.  0.
428  4.27  0.  0.  0.
429  4.28  0.  0.  0.
430  4.29  0.  0.  0.
431  4.30  0.  0.  0.
432  4.31  0.  0.  0.
433  4.32  0.  0.  0.
434  4.33  0.  0.  0.
435  4.34  0.  0.  0.
436  4.35  0.  0.  0.
437  4.36  0.  0.  0.
438  4.37  0.  0.  0.
439  4.38  0.  0.  0.
440  4.39  0.  0.  0.
441  4.40  0.  0.  0.
442  4.41  0.  0.  0.
443  4.42  0.  0.  0.
444  4.43  0.  0.  0.
445  4.44  0.  0.  0.
446  4.45  0.  0.  0.
447  4.46  0.  0.  0.
448  4.47  0.  0.  0.
449  4.48  0.  0.  0.
450  4.49  0.  0.  0.
451  4.50  0.  0.  0.
452  4.51  0.  0.  0.
453  4.52  0.  0.  0.
454  4.53  0.  0.  0.
455  4.54  0.  0.  0.
456  4.55  0.  0.  0.
457  4.56  0.  0.  0.
458  4.57  0.  0.  0.
459  4.58  0.  0.  0.
460  4.59  0.  0.  0.
461  4.60  0.  0.  0.
462  4.61  0.  0.  0.
463  4.62  0.  0.  0.
464  4.63  0.  0.  0.
465  4.64  0.  0.  0.
466  4.65  0.  0.  0.
467  4.66  0.  0.  0.
468  4.67  0.  0.  0.
469  4.68  0.  0.  0.
470  4.69  0.  0.  0.
471  4.70  0.  0.  0.
472  4.71  0.  0.  0.
473  4.72  0.  0.  0.
474  4.73  0.  0.  0.
475  4.74  0.  0.  0.
476  4.75  0.  0.  0.
477  4.76  0.  0.  0.
478  4.77  0.  0.  0.
479  4.78  0.  0.  0.
480  4.79  0.  0.  0.
481  4.80  0.  0.  0.
482  4.81  0.  0.  0.
483  4.82  0.  0.  0.
484  4.83  0.  0.  0.
485  4.84  0.  0.  0.
486  4.85  0.  0.  0.
487  4.86  0.  0.  0.
488  4.87  0.  0.  0.
489  4.88  0.  0.  0.
490  4.89  0.  0.  0.
491  4.90  0.  0.  0.
492  4.91  0.  0.  0.
493  4.92  0.  0.  0.
494  4.93  0.  0.  0.
495  4.94  0.  0.  0.
496  4.95  0.  0.  0.
497  4.96  0.  0.  0.
498  4.97  0.  0.  0.
499  4.98  0.  0.  0.
500  4.99  0.  0.  0.
501  5.00  0.  0.  0.
502  5.01  0.  0.  0.
503  5.02  0.  0.  0.
504  5.03  0.  0.  0.
505  5.04  0.  0.  0.
506  5.05  0.  0.  0.
507  5.06  0.  0.  0.
508  5.07  0.  0.  0.
509  5.08  0.  0.  0.
510  5.09  0.  0.  0.
511  5.10  0.  0.  0.
512  5.11  0.  0.  0.
513  5.12  0.  0.  0.
514  5.13  0.  0.  0.
515  5.14  0.  0.  0.
516  5.15  0.  0.  0.
517  5.16  0.  0.  0.
518  5.17  0.  0.  0.
519  5.18  0.  0.  0.
520  5.19  0.  0.  0.
521  5.20  0.  0.  0.
522  5.21  0.  0.  0.
523  5.22  0.  0.  0.
524  5.23  0.  0.  0.
525  5.24  0.  0.  0.
526  5.25  0.  0.  0.
527  5.26  0.  0.  0.
528  5.27  0.  0.  0.
529  5.28  0.  0.  0.
530  5.29  0.  0.  0.
531  5.30  0.  0.  0.
532  5.31  0.  0.  0.
533  5.32  0.  0.  0.
534  5.33  0.  0.  0.
535  5.34  0.  0.  0.
536  5.35  0.  0.  0.
537  5.36  0.  0.  0.
538  5.37  0.  0.  0.
539  5.38  0.  0.  0.
540  5.39  0.  0.  0.
541  5.40  0.  0.  0.
542  5.41  0.  0.  0.
543  5.42  0.  0.  0.
544  5.43  0.  0.  0.
545  5.44  0.  0.  0.
546  5.45  0.  0.  0.
547  5.46  0.  0.  0.
548  5.47  0.  0.  0.
549  5.48  0.  0.  0.
550  5.49  0.  0.  0.
551  5.50  0.  0.  0.
552  5.51  0.  0.  0.
553  5.52  0.  0.  0.
554  5.53  0.  0.  0.
555  5.54  0.  0.  0.
556  5.55  0.  0.  0.
557  5.56  0.  0.  0.
558  5.57  0.  0.  0.
559  5.58  0.  0.  0.
560  5.59  0.  0.  0.
561  5.60  0.  0.  0.
562  5.61  0.  0.  0.
563  5.62  0.  0.  0.
564  5.63  0.  0.  0.
565  5.64  0.  0.  0.
566  5.65  0.  0.  0.
567  5.66  0.  0.  0.
568  5.67  0.  0.  0.
569  5.68  0.  0.  0.
570  5.69  0.  0.  0.
571  5.70  0.  0.  0.
572  5.71  0.  0.  0.
573  5.72  0.  0.  0.
574  5.73  0.  0.  0.
575  5.74  0.  0.  0.
576  5.75  0.  0.  0.
577  5.76  0.  0.  0.
578  5.77  0.  0.  0.
579  5.78  0.  0.  0.
580  5.79  0.  0.  0.
581  5.80  0.  0.  0.
582  5.81  0.  0.  0.
583  5.82  0.  0.  0.
584  5.83  0.  0.  0.
585  5.84  0.  0.  0.
586  5.85  0.  0.  0.
587  5.86  0.  0.  0.
588  5.87  0.  0.  0.
589  5.88  0.  0.  0.
590  5.89  0.  0.  0.
591  5.90  0.  0.  0.
592  5.91  0.  0.  0.
593  5.92  0.  0.  0.
594  5.93  0.  0.  0.
595  5.94  0.  0.  0.
596  5.95  0.  0.  0.
597  5.96  0.  0.  0.
598  5.97  0.  0.  0.
599  5.98  0.  0.  0.
600  5.99  0.  0.  0.
1                         9.8463653567553E+00 -3.8548614119880E-01
1  0.0000000000000E+00 -1.4282144633615E-09 -6.7592168001562E-08
2  1.0000000000000E-02  3.4981845698499E-03  2.1171143236567E-03
3  2.0000000000000E-02  1.3968271633800E-02  8.4675012198746E-03
4  3.0000000000000E-02  3.1336978345877E-02  1.9047287151449E-02
5  4.0000000000000E-02  5.5482558303438E-02  3.3846712357298E-02
6  5.0000000000000E-02  8.6235393771315E-02  5.2845338428733E-02
7  6.0000000000000E-02  1.2337883391554E-01  7.6005659438890E-02
8  7.0000000000000E-02  1.6665028746293E-01  1.0326542283404E-01
9  8.0000000000000E-02  2.1574257963108E-01  1.3452903388762E-01
10  9.0000000000000E-02  2.7030558391862E-01  1.6965847113312E-01
11  1.0000000000000E-01  3.2994813930957E-01  2.0846417773648E-01
12  1.1000000000000E-01  3.9424026255754E-01  2.5069641370400E-01
13  1.2000000000000E-01  4.6271566343854E-01  2.9603755521845E-01
14  1.3000000000000E-01  5.3487456818974E-01  3.4409580997063E-01
15  1.4000000000000E-01  6.1018685281698E-01  3.9440078148078E-01
16  1.5000000000000E-01  6.8809548361898E-01  4.4640126211045E-01
17  1.6000000000000E-01  7.6802025723808E-01  4.9946556539737E-01
18  1.7000000000000E-01  8.4936182693151E-01  5.5288462571802E-01
19  1.8000000000000E-01  9.3150599571530E-01  6.0587799981176E-01
20  1.9000000000000E-01  1.0138282507377E+00  6.5760280351069E-01
21  2.0000000000000E-01  1.0956985068793E+00  7.0716551154544E-01
22  2.1000000000000E-01  1.1764860213509E+00  7.5363644216846E-01
23  2.2000000000000E-01  1.2555644351693E+00  7.9606664525495E-01
24  2.3000000000000E-01  1.3323168920345E+00  8.3350681615828E-01
25  2.4000000000000E-01  1.4061411804973E+00  8.6502777138711E-01
26  2.5000000000000E-01  1.4764548415640E+00  8.8974194931360E-01
27  2.6000000000000E-01  1.5427001811933E+00  9.0682534238614E-01
28  2.7000000000000E-01  1.6043491256081E+00  9.1553922897300E-01
29  2.8000000000000E-01  1.6609078570788E+00  9.1525105467440E-01
30  2.9000000000000E-01  1.7119211688746E+00  9.0545381573420E-01
31  3.0000000000000E-01  1.7569764804611E+00  8.8578332137662E-01
32  3.1000000000000E-01  1.7957074577030E+00  8.5603275709218E-01
33  3.2000000000000E-01  1.8277971877727E+00  8.1616403598938E-01
34  3.3000000000000E-01  1.8529808645571E+00  7.6631550851395E-01
35  3.4000000000000E-01  1.8710479474677E+00  7.0680569968155E-01
36  3.5000000000000E-01  1.8818437645355E+00  6.3813285447397E-01
37  3.6000000000000E-01  1.8852705393128E+00  5.6097019274470E-01
38  3.7000000000000E-01  1.8812878302092E+00  4.7615690104171E-01
39  3.8000000000000E-01  1.8699123802288E+00  3.8468501611958E-01
40  3.9000000000000E-01  1.8512173844181E+00  2.8768247941899E-01
41  4.0000000000000E-01  1.8253311914498E+00  1.8639275931237E-01
42  4.1000000000000E-01  1.7924354644338E+00  8.2151544505825E-02
43  4.2000000000000E-01  1.7527628340469E+00 -2.3638895982686E-02
44  4.3000000000000E-01  1.7065940842239E+00 -1.2953701657203E-01
45  4.4000000000000E-01  1.6542549167883E+00 -2.3409023900370E-01
46  4.5000000000000E-01  1.5961123463936E+00 -3.3586338125093E-01
47  4.6000000000000E-01  1.5325707808965E+00 -4.3346650843091E-01
48  4.7000000000000E-01  1.4640678447384E+00 -5.2558145888705E-01
49  4.8000000000000E-01  1.3910700040620E+00 -6.1098633855034E-01
50  4.9000000000000E-01  1.3140680521416E+00 -6.8857733924638E-01
51  5.0000000000000E-01  1.2335725123508E+00 -7.5738731987349E-01
52  5.1000000000000E-01  1.1501090134038E+00 -8.1660069069341E-01
53  5.2000000000000E-01  1.0642136881382E+00 -8.6556425708252E-01
54  5.3000000000000E-01  9.7642864281294E-01 -9.0379380617231E-01
55  5.4000000000000E-01  8.8729753895753E-01 -9.3097635365273E-01
56  5.5000000000000E-01  7.9736132442594E-01 -9.4696810413599E-01
57  5.6000000000000E-01  7.0715414469182E-01 -9.5178831228913E-01
58  5.7000000000000E-01  6.1719945976729E-01 -9.4560935888869E-01
59  5.8000000000000E-01  5.2800638664077E-01 -9.2874347168711E-01
60  5.9000000000000E-01  4.4006628198963E-01 -9.0162662152290E-01
61  6.0000000000000E-01  3.5384957529156E-01 -8.6480020596905E-01
62  6.1000000000000E-01  2.6980285846833E-01 -8.1889119315056E-01
63  6.2000000000000E-01  1.8834623494590E-01 -7.6459143505392E-01
64  6.3000000000000E-01  1.0987092857007E-01 -7.0263687141028E-01
65  6.4000000000000E-01  3.4737151200221E-02 -6.3378733164178E-01
66  6.5000000000000E-01 -3.6727772998739E-02 -5.5880760389952E-01
67  6.6000000000000E-01 -1.0423102858915E-01 -4.7845037826820E-01
68  6.7000000000000E-01 -1.6751567661533E-01 -3.9344158798497E-01
69  6.8000000000000E-01 -2.2636176930599E-01 -3.0446857102973E-01
70  6.9000000000000E-01 -2.8058721038409E-01 -2.1217135837077E-01
71  7.0000000000000E-01 -3.3004835785572E-01 -1.1713726872215E-01
72  7.1000000000000E-01 -3.7464036432491E-01 -1.9898857541988E-02
73  7.2000000000000E-01 -4.1429724821229E-01  7.9064864965767E-02
74  7.3000000000000E-01 -4.4899168793192E-01  1.7932416093404E-01
75  7.4000000000000E-01 -4.7873453028032E-01  2.8049157099763E-01
76  7.5000000000000E-01 -5.0357400417439E-01  3.8221263999080E-01
77  7.6000000000000E-01 -5.2359463157274E-01  4.8415489154011E-01
78  7.7000000000000E-01 -5.3891582902649E-01  5.8599564885942E-01
79  7.8000000000000E-01 -5.4969019589037E-01  6.8740934334441E-01
80  7.9000000000000E-01 -5.5610148879931E-01  7.8805497137831E-01
81  8.0000000000000E-01 -5.5836228654809E-01  8.8756435223685E-01
82  8.1000000000000E-01 -5.5671135492674E-01  9.8553180624352E-01
83  8.2000000000000E-01 -5.5141072723704E-01  1.0815058135131E+00
84  8.3000000000000E-01 -5.4274252297911E-01  1.1749831318558E+00
85  8.4000000000000E-01 -5.3100553434612E-01  1.2654057507389E+00
86  8.5000000000000E-01 -5.1651161745809E-01  1.3521609405205E+00
87  8.6000000000000E-01 -4.9958193243818E-01  1.4345845270701E+00
88  8.7000000000000E-01 -4.8054308320136E-01  1.5119673865677E+00
89  8.8000000000000E-01 -4.5972321389433E-01  1.5835650192984E+00
90  8.9000000000000E-01 -4.3744812400404E-01  1.6486099304600E+00
91  9.0000000000000E-01 -4.1403746795950E-01  1.7063264262151E+00
92  9.1000000000000E-01 -3.8980110732640E-01  1.7559473301596E+00
93  9.2000000000000E-01 -3.6503568420434E-01  1.7967320444025E+00
94  9.3000000000000E-01 -3.4002148298700E-01  1.8279853254365E+00
95  9.4000000000000E-01 -3.1501964408738E-01  1.8490761221128E+00
96  9.5000000000000E-01 -2.9026978746116E-01  1.8594558347403E+00
97  9.6000000000000E-01 -2.6598809573481E-01  1.8586754031347E+00
98  9.7000000000000E-01 -2.4236589647632E-01  1.8464007188396E+00
99  9.8000000000000E-01 -2.1956877069165E-01  1.8224259833697E+00
100  9.9000000000000E-01 -1.9773620012531E-01  1.7866847995645E+00
101  1.0000000000000E+00 -1.7698174955460E-01  1.7392589856057E+00
102  1.0100000000000E+00 -1.5739376223358E-01  1.6803853382970E+00
103  1.0200000000000E+00 -1.3903652721012E-01  1.6104608408328E+00
104  1.0300000000000E+00 -1.2195185673923E-01  1.5300471060384E+00
105  1.0400000000000E+00 -1.0616099078221E-01  1.4398751640998E+00
106  1.0500000000000E+00 -9.1666723925407E-02  1.3408520395723E+00
107  1.0600000000000E+00 -7.8455628409909E-02  1.2340709091695E+00
108  1.0700000000000E+00 -6.6500225649461E-02  1.1208269843746E+00
109  1.0800000000000E+00 -5.5760937973919E-02  1.0026416156442E+00
110  1.0900000000000E+00 -4.6187632600299E-02  8.8129747130461E-01
111  1.1000000000000E+00 -3.7720557032925E-02  7.5888766236076E-01
112  1.1100000000000E+00 -3.0290439475932E-02  6.3788255213718E-01
113  1.1200000000000E+00 -2.3820278510378E-02  5.2106915533780E-01
114  1.1300000000000E+00 -1.8233680113089E-02  4.1117132141788E-01
115  1.1400000000000E+00 -1.3461043054287E-02  3.1067215297586E-01
116  1.1500000000000E+00 -9.4594152091983E-03  2.2159196061738E-01
117  1.1600000000000E+00 -6.1964344315397E-03  1.4564106428959E-01
118  1.1700000000000E+00 -3.6248845817646E-03  8.4523491021053E-02
119  1.1800000000000E+00 -1.7256015890573E-03  3.9481788453905E-02
120  1.1900000000000E+00 -5.0523438484594E-04  1.1227381375161E-02
121  1.2000000000000E+00 -1.7266518585312E-05  3.6796998619701E-04
122  1.2100000000000E+00 -1.8917444321084E-06  4.0672545274234E-05
123  1.2200000000000E+00  5.1004249314765E-07 -1.1145813003841E-05
124  1.23 -0.  0.
125  1.24  0.  0.
126  1.25  0.  0.
127  1.26  0.  0.
128  1.27  0.  0.
129  1.28  0.  0.
130  1.29  0.  0.
131  1.30  0.  0.
132  1.31  0.  0.
133  1.32  0.  0.
134  1.33  0.  0.
135  1.34  0.  0.
136  1.35  0.  0.
137  1.36  0.  0.
138  1.37  0.  0.
139  1.38  0.  0.
140  1.39  0.  0.
141  1.40  0.  0.
142  1.41  0.  0.
143  1.42  0.  0.
144  1.43  0.  0.
145  1.44  0.  0.
146  1.45  0.  0.
147  1.46  0.  0.
148  1.47  0.  0.
149  1.48  0.  0.
150  1.49  0.  0.
151  1.50  0.  0.