Np    ONCVPSP-4.0.1  r_core=   1.26041   1.26041   1.53549   1.53549
93.0000     33.0000      220307    zatom,zion,pspd
8      11   3     4   600     0    pspcod,pspxc,lmax,lloc,mmax,r2well
5.99000000  5.00000000  0.00000000    rchrg fchrg qchrg
3     2     2     2     0    nproj
1     1           extension_switch
0                         1.9010061788436E+01  3.3450019764245E+00 -1.7375751466420E+00
1  0.0000000000000E+00 -1.9921219451824E-07 -4.3194270171742E-07 -3.4216923627817E-08
2  1.0000000000000E-02  1.6901500160754E-01  1.0626077023728E-01  3.3005482857245E-02
3  2.0000000000000E-02  3.3582983357659E-01  2.0871390906326E-01  6.5722276626368E-02
4  3.0000000000000E-02  4.9829988254548E-01  3.0366932215039E-01  9.7870407415836E-02
5  4.0000000000000E-02  6.5438994772119E-01  3.8766829645372E-01  1.2918704972428E-01
6  5.0000000000000E-02  8.0222475126299E-01  4.5759007579549E-01  1.5943440494287E-01
7  6.0000000000000E-02  9.4013456322172E-01  5.1074782267849E-01  1.8840677079762E-01
8  7.0000000000000E-02  1.0666945567922E+00  5.4497095780038E-01  2.1593657407589E-01
9  8.0000000000000E-02  1.1807567088488E+00  5.5867130068353E-01  2.4189917319826E-01
10  9.0000000000000E-02  1.2814732974665E+00  5.5089094831013E-01  2.6621627777796E-01
11  1.0000000000000E-01  1.3683113147832E+00  5.2133040727850E-01  2.8885787790224E-01
12  1.1000000000000E-01  1.4410574015691E+00  4.7035612032372E-01  3.0984262495702E-01
13  1.2000000000000E-01  1.4998132100066E+00  3.9898718014048E-01  3.2923665676175E-01
14  1.3000000000000E-01  1.5449814038119E+00  3.0886168153387E-01  3.4715091089180E-01
15  1.4000000000000E-01  1.5772428002626E+00  2.0218380605433E-01  3.6373701964088E-01
16  1.5000000000000E-01  1.5975254374731E+00  8.1653340988059E-02  3.7918192646849E-01
17  1.6000000000000E-01  1.6069666034694E+00 -4.9620112431507E-02  3.9370140544799E-01
18  1.7000000000000E-01  1.6068690831777E+00 -1.8821550599654E-01  4.0753270079818E-01
19  1.8000000000000E-01  1.5986530583689E+00 -3.3050815783415E-01  4.2092653187116E-01
20  1.9000000000000E-01  1.5838052282215E+00 -4.7278358983189E-01  4.3413872904855E-01
21  2.0000000000000E-01  1.5638268003022E+00 -6.1135378266358E-01  4.4742177721331E-01
22  2.1000000000000E-01  1.5401820308762E+00 -7.4267217237563E-01  4.6101654545624E-01
23  2.2000000000000E-01  1.5142489687132E+00 -8.6344375976942E-01  4.7514447439519E-01
24  2.3000000000000E-01  1.4872739788553E+00 -9.7072686617049E-01  4.9000047619425E-01
25  2.4000000000000E-01  1.4603314947702E+00 -1.0620233412262E+00  5.0574677763072E-01
26  2.5000000000000E-01  1.4342902731490E+00 -1.1353544012293E+00  5.2250790421728E-01
27  2.6000000000000E-01  1.4097872110296E+00 -1.1893197380366E+00  5.4036696454291E-01
28  2.7000000000000E-01  1.3872095369373E+00 -1.2231380740302E+00  5.5936334996648E-01
29  2.8000000000000E-01  1.3666859143757E+00 -1.2366679305281E+00  5.7949191706805E-01
30  2.9000000000000E-01  1.3480867061562E+00 -1.2304080065748E+00  6.0070367044591E-01
31  3.0000000000000E-01  1.3310333510725E+00 -1.2054772119913E+00  6.2290791321825E-01
32  3.1000000000000E-01  1.3149165098991E+00 -1.1635750422535E+00  6.4597578363541E-01
33  3.2000000000000E-01  1.2989223550859E+00 -1.1069236027137E+00  6.6974505017357E-01
34  3.3000000000000E-01  1.2820661169001E+00 -1.0381931661917E+00  6.9402599590151E-01
35  3.4000000000000E-01  1.2632317664828E+00 -9.6041366281467E-01  7.1860818717637E-01
36  3.5000000000000E-01  1.2412165207313E+00 -8.7687493798168E-01  7.4326789301495E-01
37  3.6000000000000E-01  1.2147787012523E+00 -7.9101895983834E-01  7.6777590075051E-01
38  3.7000000000000E-01  1.1826873746268E+00 -7.0632740099428E-01  7.9190546149158E-01
39  3.8000000000000E-01  1.1437721470765E+00 -6.2620815307975E-01  8.1544009582779E-01
40  3.9000000000000E-01  1.0969714848842E+00 -5.5388435330111E-01  8.3818099624847E-01
41  4.0000000000000E-01  1.0413779824210E+00 -4.9228940928722E-01  8.5995377761306E-01
42  4.1000000000000E-01  9.7627910053805E-01 -4.4397130570569E-01  8.8061435020159E-01
43  4.2000000000000E-01  9.0119204589980E-01 -4.1100917038660E-01  9.0005372055620E-01
44  4.3000000000000E-01  8.1589165159990E-01 -3.9494467930661E-01  9.1820156243026E-01
45  4.4000000000000E-01  7.2043034478715E-01 -3.9673040195904E-01  9.3502844240023E-01
46  4.5000000000000E-01  6.1514954059748E-01 -4.1669664706961E-01  9.5054663060890E-01
47  4.6000000000000E-01  5.0068207512503E-01 -4.5453778095253E-01  9.6480947511709E-01
48  4.7000000000000E-01  3.7794557455371E-01 -5.0931837607705E-01  9.7790936679948E-01
49  4.8000000000000E-01  2.4812694369623E-01 -5.7949892540561E-01  9.8997436897452E-01
50  4.9000000000000E-01  1.1265843582672E-01 -6.6298024866713E-01  1.0011636304023E+00
51  5.0000000000000E-01 -2.6813972059076E-02 -7.5716513927203E-01  1.0116617404154E+00
52  5.1000000000000E-01 -1.6846893689452E-01 -8.5903527324789E-01  1.0216722194195E+00
53  5.2000000000000E-01 -3.1035367308333E-01 -9.6524094078219E-01  1.0314103656648E+00
54  5.3000000000000E-01 -4.5043210807394E-01 -1.0722007808459E+00  1.0410956991425E+00
55  5.4000000000000E-01 -5.8663581284001E-01 -1.1762084113557E+00  1.0509442550725E+00
56  5.5000000000000E-01 -7.1691617401778E-01 -1.2735426597524E+00  1.0611609823652E+00
57  5.6000000000000E-01 -8.3929624748453E-01 -1.3605780167347E+00  1.0719324966432E+00
58  5.7000000000000E-01 -9.5192075574316E-01 -1.4338919607620E+00  1.0834204231459E+00
59  5.8000000000000E-01 -1.0531027623571E+00 -1.4903659308735E+00  1.0957555426822E+00
60  5.9000000000000E-01 -1.1413656730590E+00 -1.5272769550670E+00  1.1090329245721E+00
61  6.0000000000000E-01 -1.2154793707563E+00 -1.5423772624220E+00  1.1233081953006E+00
62  6.1000000000000E-01 -1.2744894849010E+00 -1.5339596079860E+00  1.1385950516809E+00
63  6.2000000000000E-01 -1.3177390179030E+00 -1.5009065063194E+00  1.1548640841128E+00
64  6.3000000000000E-01 -1.3448817948658E+00 -1.4427220867090E+00  1.1720429305857E+00
65  6.4000000000000E-01 -1.3558874597681E+00 -1.3595458331545E+00  1.1900177369857E+00
66  6.5000000000000E-01 -1.3510380027757E+00 -1.2521480372035E+00  1.2086358556319E+00
67  6.6000000000000E-01 -1.3309160611160E+00 -1.1219073532168E+00  1.2277096732904E+00
68  6.7000000000000E-01 -1.2963854815837E+00 -9.7077138573386E-01  1.2470214236242E+00
69  6.8000000000000E-01 -1.2485648584880E+00 -8.0120174026396E-01  1.2663288083550E+00
70  6.9000000000000E-01 -1.1887949597007E+00 -6.1610541658629E-01  1.2853712273845E+00
71  7.0000000000000E-01 -1.1186011194444E+00 -4.1875480405489E-01  1.3038764015221E+00
72  7.1000000000000E-01 -1.0396518047403E+00 -2.1269884042834E-01  1.3215671628029E+00
73  7.2000000000000E-01 -9.5371464959375E-01 -1.6681111653642E-03  1.3381681868832E+00
74  7.3000000000000E-01 -8.6261129497871E-01  2.1052321031843E-01  1.3534124495759E+00
75  7.4000000000000E-01 -7.6817237298561E-01  4.2007565133893E-01  1.3670472048760E+00
76  7.5000000000000E-01 -6.7219393103901E-01  6.2330009080264E-01  1.3788393041708E+00
77  7.6000000000000E-01 -5.7639650926347E-01  8.1670805758773E-01  1.3885797048251E+00
78  7.7000000000000E-01 -4.8238796456175E-01  9.9709419573335E-01  1.3960870498612E+00
79  7.8000000000000E-01 -3.9163098361379E-01  1.1616087219503E+00  1.4012102377089E+00
80  7.9000000000000E-01 -3.0541604966472E-01  1.3078180676823E+00  1.4038299405657E+00
81  8.0000000000000E-01 -2.2484043122729E-01  1.4337523116630E+00  1.4038590702679E+00
82  8.1000000000000E-01 -1.5079355179258E-01  1.5379384548472E+00  1.4012422302144E+00
83  8.2000000000000E-01 -8.3948885688293E-02  1.6194190522508E+00  1.3959542293256E+00
84  8.3000000000000E-01 -2.4762313710612E-02  1.6777561799310E+00  1.3879977678596E+00
85  8.4000000000000E-01  2.6523329842023E-02  1.7130211648070E+00  1.3774004339087E+00
86  8.5000000000000E-01  6.9867972981086E-02  1.7257709258204E+00  1.3642111725018E+00
87  8.6000000000000E-01  1.0541890286534E-01  1.7170121540690E+00  1.3484964056065E+00
88  8.7000000000000E-01  1.3349099889549E-01  1.6881548857724E+00  1.3303359904069E+00
89  8.8000000000000E-01  1.5454346363740E-01  1.6409572861587E+00  1.3098192047155E+00
90  8.9000000000000E-01  1.6915398612342E-01  1.5774636579240E+00  1.2870409422829E+00
91  9.0000000000000E-01  1.7799131031179E-01  1.4999378107117E+00  1.2620982873717E+00
92  9.1000000000000E-01  1.8178718486563E-01  1.4107939766501E+00  1.2350876178314E+00
93  9.2000000000000E-01  1.8130864008548E-01  1.3125274325543E+00  1.2061023598679E+00
94  9.3000000000000E-01  1.7733147612699E-01  1.2076468956485E+00  1.1752314867956E+00
95  9.4000000000000E-01  1.7061575694204E-01  1.0986106025991E+00  1.1425588195123E+00
96  9.5000000000000E-01  1.6188399100049E-01  9.8776776928136E-01  1.1081631496208E+00
97  9.6000000000000E-01  1.5180254779762E-01  8.7730687068831E-01  1.0721191684824E+00
98  9.7000000000000E-01  1.4096671402087E-01  7.6921188775434E-01  1.0344991485219E+00
99  9.8000000000000E-01  1.2988964077736E-01  6.6522735211579E-01  9.9537528824594E-01
100  9.9000000000000E-01  1.1899527950795E-01  5.6683269329964E-01  9.5482260109613E-01
101  1.0000000000000E+00  1.0861525478515E-01  4.7522606726031E-01  9.1292220165674E-01
102  1.0100000000000E+00  9.8989482555796E-02  3.9131753210745E-01  8.6976482195599E-01
103  1.0200000000000E+00  9.0270217212983E-02  3.1573114635851E-01  8.2545437647547E-01
104  1.0300000000000E+00  8.2529104387739E-02  2.4881530652312E-01  7.8011138763398E-01
105  1.0400000000000E+00  7.5766731566888E-02  1.9066042138495E-01  7.3387608422421E-01
106  1.0500000000000E+00  6.9924107689483E-02  1.4112284522613E-01  6.8691099362977E-01
107  1.0600000000000E+00  6.4895467029869E-02  9.9853865346475E-02  6.3940286434399E-01
108  1.0700000000000E+00  6.0541781712644E-02  6.6332461182109E-02  5.9156377780350E-01
109  1.0800000000000E+00  5.6704380314565E-02  3.9900522651816E-02  5.4363133711160E-01
110  1.0900000000000E+00  5.3218104845286E-02  1.9799230764973E-02  4.9586785363419E-01
111  1.1000000000000E+00  4.9923492353504E-02  5.2053595086668E-03  4.4855848971996E-01
112  1.1100000000000E+00  4.6677536280432E-02 -4.7336523445121E-03  4.0200835521195E-01
113  1.1200000000000E+00  4.3362662522477E-02 -1.0866894973171E-02  3.5653859573695E-01
114  1.1300000000000E+00  3.9893640771439E-02 -1.4010349401637E-02  3.1248155018372E-01
115  1.1400000000000E+00  3.6222238200974E-02 -1.4921179592146E-02  2.7017509185303E-01
116  1.1500000000000E+00  3.2339504652023E-02 -1.4276578469222E-02  2.2995630085887E-01
117  1.1600000000000E+00  2.8275651165984E-02 -1.2657665174760E-02  1.9215464307179E-01
118  1.1700000000000E+00  2.4097542200545E-02 -1.0538825653660E-02  1.5708485187683E-01
119  1.1800000000000E+00  1.9903864123279E-02 -8.2828091501398E-03  1.2503972329625E-01
120  1.1900000000000E+00  1.5818037328850E-02 -6.1418859171305E-03  9.6283026400430E-02
121  1.2000000000000E+00  1.1973053961445E-02 -4.2757306420247E-03  7.1039744329443E-02
122  1.2100000000000E+00  8.4390007559127E-03 -2.8752396231135E-03  4.9457210972354E-02
123  1.2200000000000E+00  5.3751087574176E-03 -1.8897537556291E-03  3.1685259725053E-02
124  1.2300000000000E+00  2.9439823053675E-03 -1.1764804928540E-03  1.7838176926099E-02
125  1.2400000000000E+00  1.2438505771147E-03 -6.2670227660862E-04  7.9666508258160E-03
126  1.2500000000000E+00  2.8941570067890E-04 -2.0209632552523E-04  2.0338545203612E-03
127  1.2600000000000E+00  2.2679198495595E-06 -2.2628934583972E-06  1.8174774418486E-05
128  1.2700000000000E+00  1.6805009198166E-06 -1.6008731935333E-06  1.3143372269750E-05
129  1.2800000000000E+00 -3.6199629720939E-07  2.8999892114333E-07 -2.6578727058114E-06
130  1.29 -0. -0. -0.
131  1.30  0.  0.  0.
132  1.31  0.  0.  0.
133  1.32  0.  0.  0.
134  1.33  0.  0.  0.
135  1.34  0.  0.  0.
136  1.35  0.  0.  0.
137  1.36  0.  0.  0.
138  1.37  0.  0.  0.
139  1.38  0.  0.  0.
140  1.39  0.  0.  0.
141  1.40  0.  0.  0.
142  1.41  0.  0.  0.
143  1.42  0.  0.  0.
144  1.43  0.  0.  0.
145  1.44  0.  0.  0.
146  1.45  0.  0.  0.
147  1.46  0.  0.  0.
148  1.47  0.  0.  0.
149  1.48  0.  0.  0.
150  1.49  0.  0.  0.
151  1.50  0.  0.  0.
152  1.51  0.  0.  0.
153  1.52  0.  0.  0.
154  1.53  0.  0.  0.
155  1.54  0.  0.  0.
156  1.55  0.  0.  0.
157  1.56  0.  0.  0.
158  1.57  0.  0.  0.
159  1.58  0.  0.  0.
160  1.59  0.  0.  0.
161  1.60  0.  0.  0.
162  1.61  0.  0.  0.
163  1.62  0.  0.  0.
164  1.63  0.  0.  0.
165  1.64  0.  0.  0.
166  1.65  0.  0.  0.
167  1.66  0.  0.  0.
168  1.67  0.  0.  0.
169  1.68  0.  0.  0.
170  1.69  0.  0.  0.
171  1.70  0.  0.  0.
172  1.71  0.  0.  0.
173  1.72  0.  0.  0.
174  1.73  0.  0.  0.
175  1.74  0.  0.  0.
176  1.75  0.  0.  0.
177  1.76  0.  0.  0.
178  1.77  0.  0.  0.
179  1.78  0.  0.  0.
180  1.79  0.  0.  0.
181  1.80  0.  0.  0.
182  1.81  0.  0.  0.
183  1.82  0.  0.  0.
184  1.83  0.  0.  0.
185  1.84  0.  0.  0.
186  1.85  0.  0.  0.
187  1.86  0.  0.  0.
188  1.87  0.  0.  0.
189  1.88  0.  0.  0.
190  1.89  0.  0.  0.
191  1.90  0.  0.  0.
192  1.91  0.  0.  0.
193  1.92  0.  0.  0.
194  1.93  0.  0.  0.
195  1.94  0.  0.  0.
196  1.95  0.  0.  0.
197  1.96  0.  0.  0.
198  1.97  0.  0.  0.
199  1.98  0.  0.  0.
200  1.99  0.  0.  0.
201  2.00  0.  0.  0.
202  2.01  0.  0.  0.
203  2.02  0.  0.  0.
204  2.03  0.  0.  0.
205  2.04  0.  0.  0.
206  2.05  0.  0.  0.
207  2.06  0.  0.  0.
208  2.07  0.  0.  0.
209  2.08  0.  0.  0.
210  2.09  0.  0.  0.
211  2.10  0.  0.  0.
212  2.11  0.  0.  0.
213  2.12  0.  0.  0.
214  2.13  0.  0.  0.
215  2.14  0.  0.  0.
216  2.15  0.  0.  0.
217  2.16  0.  0.  0.
218  2.17  0.  0.  0.
219  2.18  0.  0.  0.
220  2.19  0.  0.  0.
221  2.20  0.  0.  0.
222  2.21  0.  0.  0.
223  2.22  0.  0.  0.
224  2.23  0.  0.  0.
225  2.24  0.  0.  0.
226  2.25  0.  0.  0.
227  2.26  0.  0.  0.
228  2.27  0.  0.  0.
229  2.28  0.  0.  0.
230  2.29  0.  0.  0.
231  2.30  0.  0.  0.
232  2.31  0.  0.  0.
233  2.32  0.  0.  0.
234  2.33  0.  0.  0.
235  2.34  0.  0.  0.
236  2.35  0.  0.  0.
237  2.36  0.  0.  0.
238  2.37  0.  0.  0.
239  2.38  0.  0.  0.
240  2.39  0.  0.  0.
241  2.40  0.  0.  0.
242  2.41  0.  0.  0.
243  2.42  0.  0.  0.
244  2.43  0.  0.  0.
245  2.44  0.  0.  0.
246  2.45  0.  0.  0.
247  2.46  0.  0.  0.
248  2.47  0.  0.  0.
249  2.48  0.  0.  0.
250  2.49  0.  0.  0.
251  2.50  0.  0.  0.
252  2.51  0.  0.  0.
253  2.52  0.  0.  0.
254  2.53  0.  0.  0.
255  2.54  0.  0.  0.
256  2.55  0.  0.  0.
257  2.56  0.  0.  0.
258  2.57  0.  0.  0.
259  2.58  0.  0.  0.
260  2.59  0.  0.  0.
261  2.60  0.  0.  0.
262  2.61  0.  0.  0.
263  2.62  0.  0.  0.
264  2.63  0.  0.  0.
265  2.64  0.  0.  0.
266  2.65  0.  0.  0.
267  2.66  0.  0.  0.
268  2.67  0.  0.  0.
269  2.68  0.  0.  0.
270  2.69  0.  0.  0.
271  2.70  0.  0.  0.
272  2.71  0.  0.  0.
273  2.72  0.  0.  0.
274  2.73  0.  0.  0.
275  2.74  0.  0.  0.
276  2.75  0.  0.  0.
277  2.76  0.  0.  0.
278  2.77  0.  0.  0.
279  2.78  0.  0.  0.
280  2.79  0.  0.  0.
281  2.80  0.  0.  0.
282  2.81  0.  0.  0.
283  2.82  0.  0.  0.
284  2.83  0.  0.  0.
285  2.84  0.  0.  0.
286  2.85  0.  0.  0.
287  2.86  0.  0.  0.
288  2.87  0.  0.  0.
289  2.88  0.  0.  0.
290  2.89  0.  0.  0.
291  2.90  0.  0.  0.
292  2.91  0.  0.  0.
293  2.92  0.  0.  0.
294  2.93  0.  0.  0.
295  2.94  0.  0.  0.
296  2.95  0.  0.  0.
297  2.96  0.  0.  0.
298  2.97  0.  0.  0.
299  2.98  0.  0.  0.
300  2.99  0.  0.  0.
301  3.00  0.  0.  0.
302  3.01  0.  0.  0.
303  3.02  0.  0.  0.
304  3.03  0.  0.  0.
305  3.04  0.  0.  0.
306  3.05  0.  0.  0.
307  3.06  0.  0.  0.
308  3.07  0.  0.  0.
309  3.08  0.  0.  0.
310  3.09  0.  0.  0.
311  3.10  0.  0.  0.
312  3.11  0.  0.  0.
313  3.12  0.  0.  0.
314  3.13  0.  0.  0.
315  3.14  0.  0.  0.
316  3.15  0.  0.  0.
317  3.16  0.  0.  0.
318  3.17  0.  0.  0.
319  3.18  0.  0.  0.
320  3.19  0.  0.  0.
321  3.20  0.  0.  0.
322  3.21  0.  0.  0.
323  3.22  0.  0.  0.
324  3.23  0.  0.  0.
325  3.24  0.  0.  0.
326  3.25  0.  0.  0.
327  3.26  0.  0.  0.
328  3.27  0.  0.  0.
329  3.28  0.  0.  0.
330  3.29  0.  0.  0.
331  3.30  0.  0.  0.
332  3.31  0.  0.  0.
333  3.32  0.  0.  0.
334  3.33  0.  0.  0.
335  3.34  0.  0.  0.
336  3.35  0.  0.  0.
337  3.36  0.  0.  0.
338  3.37  0.  0.  0.
339  3.38  0.  0.  0.
340  3.39  0.  0.  0.
341  3.40  0.  0.  0.
342  3.41  0.  0.  0.
343  3.42  0.  0.  0.
344  3.43  0.  0.  0.
345  3.44  0.  0.  0.
346  3.45  0.  0.  0.
347  3.46  0.  0.  0.
348  3.47  0.  0.  0.
349  3.48  0.  0.  0.
350  3.49  0.  0.  0.
351  3.50  0.  0.  0.
352  3.51  0.  0.  0.
353  3.52  0.  0.  0.
354  3.53  0.  0.  0.
355  3.54  0.  0.  0.
356  3.55  0.  0.  0.
357  3.56  0.  0.  0.
358  3.57  0.  0.  0.
359  3.58  0.  0.  0.
360  3.59  0.  0.  0.
361  3.60  0.  0.  0.
362  3.61  0.  0.  0.
363  3.62  0.  0.  0.
364  3.63  0.  0.  0.
365  3.64  0.  0.  0.
366  3.65  0.  0.  0.
367  3.66  0.  0.  0.
368  3.67  0.  0.  0.
369  3.68  0.  0.  0.
370  3.69  0.  0.  0.
371  3.70  0.  0.  0.
372  3.71  0.  0.  0.
373  3.72  0.  0.  0.
374  3.73  0.  0.  0.
375  3.74  0.  0.  0.
376  3.75  0.  0.  0.
377  3.76  0.  0.  0.
378  3.77  0.  0.  0.
379  3.78  0.  0.  0.
380  3.79  0.  0.  0.
381  3.80  0.  0.  0.
382  3.81  0.  0.  0.
383  3.82  0.  0.  0.
384  3.83  0.  0.  0.
385  3.84  0.  0.  0.
386  3.85  0.  0.  0.
387  3.86  0.  0.  0.
388  3.87  0.  0.  0.
389  3.88  0.  0.  0.
390  3.89  0.  0.  0.
391  3.90  0.  0.  0.
392  3.91  0.  0.  0.
393  3.92  0.  0.  0.
394  3.93  0.  0.  0.
395  3.94  0.  0.  0.
396  3.95  0.  0.  0.
397  3.96  0.  0.  0.
398  3.97  0.  0.  0.
399  3.98  0.  0.  0.
400  3.99  0.  0.  0.
401  4.00  0.  0.  0.
402  4.01  0.  0.  0.
403  4.02  0.  0.  0.
404  4.03  0.  0.  0.
405  4.04  0.  0.  0.
406  4.05  0.  0.  0.
407  4.06  0.  0.  0.
408  4.07  0.  0.  0.
409  4.08  0.  0.  0.
410  4.09  0.  0.  0.
411  4.10  0.  0.  0.
412  4.11  0.  0.  0.
413  4.12  0.  0.  0.
414  4.13  0.  0.  0.
415  4.14  0.  0.  0.
416  4.15  0.  0.  0.
417  4.16  0.  0.  0.
418  4.17  0.  0.  0.
419  4.18  0.  0.  0.
420  4.19  0.  0.  0.
421  4.20  0.  0.  0.
422  4.21  0.  0.  0.
423  4.22  0.  0.  0.
424  4.23  0.  0.  0.
425  4.24  0.  0.  0.
426  4.25  0.  0.  0.
427  4.26  0.  0.  0.
428  4.27  0.  0.  0.
429  4.28  0.  0.  0.
430  4.29  0.  0.  0.
431  4.30  0.  0.  0.
432  4.31  0.  0.  0.
433  4.32  0.  0.  0.
434  4.33  0.  0.  0.
435  4.34  0.  0.  0.
436  4.35  0.  0.  0.
437  4.36  0.  0.  0.
438  4.37  0.  0.  0.
439  4.38  0.  0.  0.
440  4.39  0.  0.  0.
441  4.40  0.  0.  0.
442  4.41  0.  0.  0.
443  4.42  0.  0.  0.
444  4.43  0.  0.  0.
445  4.44  0.  0.  0.
446  4.45  0.  0.  0.
447  4.46  0.  0.  0.
448  4.47  0.  0.  0.
449  4.48  0.  0.  0.
450  4.49  0.  0.  0.
451  4.50  0.  0.  0.
452  4.51  0.  0.  0.
453  4.52  0.  0.  0.
454  4.53  0.  0.  0.
455  4.54  0.  0.  0.
456  4.55  0.  0.  0.
457  4.56  0.  0.  0.
458  4.57  0.  0.  0.
459  4.58  0.  0.  0.
460  4.59  0.  0.  0.
461  4.60  0.  0.  0.
462  4.61  0.  0.  0.
463  4.62  0.  0.  0.
464  4.63  0.  0.  0.
465  4.64  0.  0.  0.
466  4.65  0.  0.  0.
467  4.66  0.  0.  0.
468  4.67  0.  0.  0.
469  4.68  0.  0.  0.
470  4.69  0.  0.  0.
471  4.70  0.  0.  0.
472  4.71  0.  0.  0.
473  4.72  0.  0.  0.
474  4.73  0.  0.  0.
475  4.74  0.  0.  0.
476  4.75  0.  0.  0.
477  4.76  0.  0.  0.
478  4.77  0.  0.  0.
479  4.78  0.  0.  0.
480  4.79  0.  0.  0.
481  4.80  0.  0.  0.
482  4.81  0.  0.  0.
483  4.82  0.  0.  0.
484  4.83  0.  0.  0.
485  4.84  0.  0.  0.
486  4.85  0.  0.  0.
487  4.86  0.  0.  0.
488  4.87  0.  0.  0.
489  4.88  0.  0.  0.
490  4.89  0.  0.  0.
491  4.90  0.  0.  0.
492  4.91  0.  0.  0.
493  4.92  0.  0.  0.
494  4.93  0.  0.  0.
495  4.94  0.  0.  0.
496  4.95  0.  0.  0.
497  4.96  0.  0.  0.
498  4.97  0.  0.  0.
499  4.98  0.  0.  0.
500  4.99  0.  0.  0.
501  5.00  0.  0.  0.
502  5.01  0.  0.  0.
503  5.02  0.  0.  0.
504  5.03  0.  0.  0.
505  5.04  0.  0.  0.
506  5.05  0.  0.  0.
507  5.06  0.  0.  0.
508  5.07  0.  0.  0.
509  5.08  0.  0.  0.
510  5.09  0.  0.  0.
511  5.10  0.  0.  0.
512  5.11  0.  0.  0.
513  5.12  0.  0.  0.
514  5.13  0.  0.  0.
515  5.14  0.  0.  0.
516  5.15  0.  0.  0.
517  5.16  0.  0.  0.
518  5.17  0.  0.  0.
519  5.18  0.  0.  0.
520  5.19  0.  0.  0.
521  5.20  0.  0.  0.
522  5.21  0.  0.  0.
523  5.22  0.  0.  0.
524  5.23  0.  0.  0.
525  5.24  0.  0.  0.
526  5.25  0.  0.  0.
527  5.26  0.  0.  0.
528  5.27  0.  0.  0.
529  5.28  0.  0.  0.
530  5.29  0.  0.  0.
531  5.30  0.  0.  0.
532  5.31  0.  0.  0.
533  5.32  0.  0.  0.
534  5.33  0.  0.  0.
535  5.34  0.  0.  0.
536  5.35  0.  0.  0.
537  5.36  0.  0.  0.
538  5.37  0.  0.  0.
539  5.38  0.  0.  0.
540  5.39  0.  0.  0.
541  5.40  0.  0.  0.
542  5.41  0.  0.  0.
543  5.42  0.  0.  0.
544  5.43  0.  0.  0.
545  5.44  0.  0.  0.
546  5.45  0.  0.  0.
547  5.46  0.  0.  0.
548  5.47  0.  0.  0.
549  5.48  0.  0.  0.
550  5.49  0.  0.  0.
551  5.50  0.  0.  0.
552  5.51  0.  0.  0.
553  5.52  0.  0.  0.
554  5.53  0.  0.  0.
555  5.54  0.  0.  0.
556  5.55  0.  0.  0.
557  5.56  0.  0.  0.
558  5.57  0.  0.  0.
559  5.58  0.  0.  0.
560  5.59  0.  0.  0.
561  5.60  0.  0.  0.
562  5.61  0.  0.  0.
563  5.62  0.  0.  0.
564  5.63  0.  0.  0.
565  5.64  0.  0.  0.
566  5.65  0.  0.  0.
567  5.66  0.  0.  0.
568  5.67  0.  0.  0.
569  5.68  0.  0.  0.
570  5.69  0.  0.  0.
571  5.70  0.  0.  0.
572  5.71  0.  0.  0.
573  5.72  0.  0.  0.
574  5.73  0.  0.  0.
575  5.74  0.  0.  0.
576  5.75  0.  0.  0.
577  5.76  0.  0.  0.
578  5.77  0.  0.  0.
579  5.78  0.  0.  0.
580  5.79  0.  0.  0.
581  5.80  0.  0.  0.
582  5.81  0.  0.  0.
583  5.82  0.  0.  0.
584  5.83  0.  0.  0.
585  5.84  0.  0.  0.
586  5.85  0.  0.  0.
587  5.86  0.  0.  0.
588  5.87  0.  0.  0.
589  5.88  0.  0.  0.
590  5.89  0.  0.  0.
591  5.90  0.  0.  0.
592  5.91  0.  0.  0.
593  5.92  0.  0.  0.
594  5.93  0.  0.  0.
595  5.94  0.  0.  0.
596  5.95  0.  0.  0.
597  5.96  0.  0.  0.
598  5.97  0.  0.  0.
599  5.98  0.  0.  0.
600  5.99  0.  0.  0.
1                         7.5453428146931E+00 -1.9754104274687E+00
1  0.0000000000000E+00 -5.6198198317148E-09 -4.4307018262635E-09
2  1.0000000000000E-02  3.9044231234075E-03  3.6064641066869E-04
3  2.0000000000000E-02  1.5588845691339E-02  1.4458751664537E-03
4  3.0000000000000E-02  3.4966812606652E-02  3.2654573263786E-03
5  4.0000000000000E-02  6.1894520724992E-02  5.8353558707344E-03
6  5.0000000000000E-02  9.6171266798788E-02  9.1772526624902E-03
7  6.0000000000000E-02  1.3754010373249E-01  1.3317906142013E-02
8  7.0000000000000E-02  1.8568873266941E-01  1.8288358948072E-02
9  8.0000000000000E-02  2.4025066405042E-01  2.4123019088821E-02
10  9.0000000000000E-02  3.0080668482744E-01  3.0858641972855E-02
11  1.0000000000000E-01  3.6688667124303E-01  3.8533243436168E-02
12  1.1000000000000E-01  4.3797178682592E-01  4.7184975776281E-02
13  1.2000000000000E-01  5.1349710339448E-01  5.6850999670319E-02
14  1.3000000000000E-01  5.9285467887241E-01  6.7566384681530E-02
15  1.4000000000000E-01  6.7539711964434E-01  7.9363069853231E-02
16  1.5000000000000E-01  7.6044164712958E-01  9.2268913688181E-02
17  1.6000000000000E-01  8.4727467841743E-01  1.0630685968373E-01
18  1.7000000000000E-01  9.3515691944141E-01  1.2149423963771E-01
19  1.8000000000000E-01  1.0233289565863E+00  1.3784223228158E-01
20  1.9000000000000E-01  1.1110173191846E+00  1.5535548958480E-01
21  2.0000000000000E-01  1.1974409714706E+00  1.7403193747277E-01
22  2.1000000000000E-01  1.2818181786521E+00  1.9386275189032E-01
23  2.2000000000000E-01  1.3633736782742E+00  2.1483250531033E-01
24  2.3000000000000E-01  1.4413460754291E+00  2.3691947312068E-01
25  2.4000000000000E-01  1.5149953690454E+00  2.6009608400782E-01
26  2.5000000000000E-01  1.5836105068649E+00  2.8432949366522E-01
27  2.6000000000000E-01  1.6465168591453E+00  3.0958225704941E-01
28  2.7000000000000E-01  1.7030834959327E+00  3.3581307112312E-01
29  2.8000000000000E-01  1.7527301501503E+00  3.6297755767662E-01
30  2.9000000000000E-01  1.7949337489488E+00  3.9102905448963E-01
31  3.0000000000000E-01  1.8292343988257E+00  4.1991938283828E-01
32  3.1000000000000E-01  1.8552407159809E+00  4.4959956018313E-01
33  3.2000000000000E-01  1.8726344021377E+00  4.8002042877876E-01
34  3.3000000000000E-01  1.8811739774834E+00  5.1113317387196E-01
35  3.4000000000000E-01  1.8806975962211E+00  5.4288970901956E-01
36  3.5000000000000E-01  1.8711248861662E+00  5.7524291074341E-01
37  3.6000000000000E-01  1.8524577714876E+00  6.0814669010632E-01
38  3.7000000000000E-01  1.8247802566557E+00  6.4155589467185E-01
39  3.8000000000000E-01  1.7882571694253E+00  6.7542604051880E-01
40  3.9000000000000E-01  1.7431318807622E+00  7.0971288031951E-01
41  4.0000000000000E-01  1.6897230394754E+00  7.4437181975558E-01
42  4.1000000000000E-01  1.6284203784354E+00  7.7935720053062E-01
43  4.2000000000000E-01  1.5596796671268E+00  8.1462147374704E-01
44  4.3000000000000E-01  1.4840169014222E+00  8.5011429225766E-01
45  4.4000000000000E-01  1.4020018354588E+00  8.8578155461320E-01
46  4.5000000000000E-01  1.3142509719544E+00  9.2156443625992E-01
47  4.6000000000000E-01  1.2214201359349E+00  9.5739844558225E-01
48  4.7000000000000E-01  1.1241967624297E+00  9.9321254314958E-01
49  4.8000000000000E-01  1.0232920310883E+00  1.0289283620682E+00
50  4.9000000000000E-01  9.1943297984467E-01  1.0644595656492E+00
51  5.0000000000000E-01  8.1335472575161E-01  1.0997113757090E+00
52  5.1000000000000E-01  7.0579291407028E-01  1.1345803007936E+00
53  5.2000000000000E-01  5.9747650686044E-01  1.1689540885548E+00
54  5.3000000000000E-01  4.8912100999099E-01  1.2027119205599E+00
55  5.4000000000000E-01  3.8142222306070E-01  1.2357248611368E+00
56  5.5000000000000E-01  2.7505058063609E-01  1.2678565646536E+00
57  5.6000000000000E-01  1.7064613596901E-01  1.2989642381062E+00
58  5.7000000000000E-01  6.8814220479060E-02  1.3288998482753E+00
59  5.8000000000000E-01 -2.9878205682864E-02  1.3575115552396E+00
60  5.9000000000000E-01 -1.2490551419152E-01  1.3846453469354E+00
61  6.0000000000000E-01 -2.1578569897082E-01  1.4101468429491E+00
62  6.1000000000000E-01 -3.0208203031153E-01  1.4338632300347E+00
63  6.2000000000000E-01 -3.8340411969083E-01  1.4556452871448E+00
64  6.3000000000000E-01 -4.5940845320767E-01  1.4753494542105E+00
65  6.4000000000000E-01 -5.2979845988031E-01  1.4928398966315E+00
66  6.5000000000000E-01 -5.9432418660360E-01  1.5079905165221E+00
67  6.6000000000000E-01 -6.5278165421377E-01  1.5206868622604E+00
68  6.7000000000000E-01 -7.0501196884042E-01  1.5308278897981E+00
69  6.8000000000000E-01 -7.5090025961750E-01  1.5383275324754E+00
70  6.9000000000000E-01 -7.9037450805508E-01  1.5431160406633E+00
71  7.0000000000000E-01 -8.2340432620737E-01  1.5451410583024E+00
72  7.1000000000000E-01 -8.4999973056316E-01  1.5443684101598E+00
73  7.2000000000000E-01 -8.7020994675174E-01  1.5407825811920E+00
74  7.3000000000000E-01 -8.8412226718379E-01  1.5343868775609E+00
75  7.4000000000000E-01 -8.9186097015360E-01  1.5252032673572E+00
76  7.5000000000000E-01 -8.9358629526387E-01  1.5132719076907E+00
77  7.6000000000000E-01 -8.8949345685283E-01  1.4986503732448E+00
78  7.7000000000000E-01 -8.7981166494625E-01  1.4814126094093E+00
79  7.8000000000000E-01 -8.6480311263534E-01  1.4616476404465E+00
80  7.9000000000000E-01 -8.4476188015909E-01  1.4394580695980E+00
81  8.0000000000000E-01 -8.2001269974259E-01  1.4149584133750E+00
82  8.1000000000000E-01 -7.9090952172956E-01  1.3882733163522E+00
83  8.2000000000000E-01 -7.5783382197317E-01  1.3595356954476E+00
84  8.3000000000000E-01 -7.2119259293949E-01  1.3288848638440E+00
85  8.4000000000000E-01 -6.8141596654991E-01  1.2964646843394E+00
86  8.5000000000000E-01 -6.3895442535080E-01  1.2624218000140E+00
87  8.6000000000000E-01 -5.9427556994899E-01  1.2269039867174E+00
88  8.7000000000000E-01 -5.4786042448655E-01  1.1900586671107E+00
89  8.8000000000000E-01 -5.0019927784449E-01  1.1520316199926E+00
90  8.9000000000000E-01 -4.5178707577763E-01  1.1129659115673E+00
91  9.0000000000000E-01 -4.0311839773262E-01  1.0730010674119E+00
92  9.1000000000000E-01 -3.5468207107750E-01  1.0322724953921E+00
93  9.2000000000000E-01 -3.0695549422584E-01  9.9091116095461E-01
94  9.3000000000000E-01 -2.6039875800739E-01  9.4904350734459E-01
95  9.4000000000000E-01 -2.1544867096219E-01  9.0679160466252E-01
96  9.5000000000000E-01 -1.7251280838340E-01  8.6427350355680E-01
97  9.6000000000000E-01 -1.3196371631710E-01  8.2160376201607E-01
98  9.7000000000000E-01 -9.4133409824266E-02  7.7889410743012E-01
99  9.8000000000000E-01 -5.9308309180995E-02  7.3625419104241E-01
100  9.9000000000000E-01 -2.7724757991427E-02  6.9379238831303E-01
101  1.0000000000000E+00  4.3473681951987E-04  6.5161659668624E-01
102  1.0100000000000E+00  2.5044411590299E-02  6.0983498191292E-01
103  1.0200000000000E+00  4.6037180392739E-02  5.6855662546838E-01
104  1.0300000000000E+00  6.3405495836387E-02  5.2789202873325E-01
105  1.0400000000000E+00  7.7201055812976E-02  4.8795343441472E-01
106  1.0500000000000E+00  8.7533300660451E-02  4.4885493210300E-01
107  1.0600000000000E+00  9.4566673257983E-02  4.1071232272312E-01
108  1.0700000000000E+00  9.8516645235194E-02  3.7364272578549E-01
109  1.0800000000000E+00  9.9644545192170E-02  3.3776392356830E-01
110  1.0900000000000E+00  9.8251258713574E-02  3.0319344738178E-01
111  1.1000000000000E+00  9.4669904525319E-02  2.7004742269267E-01
112  1.1100000000000E+00  8.9257625330172E-02  2.3843920175352E-01
113  1.1200000000000E+00  8.2386665158054E-02  2.0847782429282E-01
114  1.1300000000000E+00  7.4434936537747E-02  1.8026635843370E-01
115  1.1400000000000E+00  6.5776309849667E-02  1.5390018509512E-01
116  1.1500000000000E+00  5.6770883144192E-02  1.2946529941734E-01
117  1.1600000000000E+00  4.7755512972332E-02  1.0703671203200E-01
118  1.1700000000000E+00  3.9034904869570E-02  8.6677041059654E-02
119  1.1800000000000E+00  3.0873577345149E-02  6.8435392873739E-02