Np    ONCVPSP-4.0.1  r_core=   1.15224   1.20152   1.10499   1.15224
93.0000     33.0000      221108    zatom,zion,pspd
8      11   3     4   600     0    pspcod,pspxc,lmax,lloc,mmax,r2well
5.99000000  5.00000000  0.00000000    rchrg fchrg qchrg
3     2     2     2     0    nproj
1     1           extension_switch
0                         4.1415754923537E+01  3.5017546220401E+00 -7.7084477478277E-01
1  0.0000000000000E+00 -6.9555523118936E-08  2.6086038096285E-07  5.4174536162632E-08
2  1.0000000000000E-02  1.5775371413668E-01 -9.1893180421985E-02  2.2384957706096E-02
3  2.0000000000000E-02  3.1438671290359E-01 -1.8180492493699E-01  4.4804422577419E-02
4  3.0000000000000E-02  4.6879521869203E-01 -2.6780620201143E-01  6.7284753100144E-02
5  4.0000000000000E-02  6.1990882541371E-01 -3.4807093882158E-01  8.9836392184244E-02
6  5.0000000000000E-02  7.6670594352890E-01 -4.2092294775678E-01  1.1244684890851E-01
7  6.0000000000000E-02  9.0822780938650E-01 -4.8487758889469E-01  1.3507476648887E-01
8  7.0000000000000E-02  1.0435906666802E+00 -5.3867673757684E-01  1.5764537152053E-01
9  8.0000000000000E-02  1.1719957973800E+00 -5.8131588707287E-01  1.8004754536996E-01
10  9.0000000000000E-02  1.2927371610642E+00 -6.1206252232695E-01  2.0213269482166E-01
11  1.0000000000000E-01  1.4052064918850E+00 -6.3046523973081E-01  2.2371552812741E-01
12  1.1000000000000E-01  1.5088957978354E+00 -6.3635344625788E-01  2.4457676714517E-01
13  1.2000000000000E-01  1.6033973037266E+00 -6.2982783483587E-01  2.6446774914316E-01
14  1.3000000000000E-01  1.6884009734560E+00 -6.1124218703496E-01  2.8311679600065E-01
15  1.4000000000000E-01  1.7636898349822E+00 -5.8117738488916E-01  3.0023715682874E-01
16  1.5000000000000E-01  1.8291334094118E+00 -5.4040880776875E-01  3.1553626517758E-01
17  1.6000000000000E-01  1.8846796106222E+00 -4.8986853595296E-01  3.2872599645173E-01
18  1.7000000000000E-01  1.9303455313164E+00 -4.3060397015033E-01  3.3953356702748E-01
19  1.8000000000000E-01  1.9662075633548E+00 -3.6373459820494E-01  3.4771268554047E-01
20  1.9000000000000E-01  1.9923913133965E+00 -2.9040869181247E-01  3.5305455007266E-01
21  2.0000000000000E-01  2.0090617688058E+00 -2.1176169522911E-01  3.5539828317379E-01
22  2.1000000000000E-01  2.0164141437478E+00 -1.2887797564525E-01  3.5464040989093E-01
23  2.2000000000000E-01  2.0146657924581E+00 -4.2757444877706E-02  3.5074301178856E-01
24  2.3000000000000E-01  2.0040495176427E+00  4.5711659121132E-02  3.4374023130327E-01
25  2.4000000000000E-01  1.9848085292963E+00  1.3577281573801E-01  3.3374285417676E-01
26  2.5000000000000E-01  1.9571932259402E+00  2.2681338926354E-01  3.2094076118614E-01
27  2.6000000000000E-01  1.9214598798601E+00  3.1836856214097E-01  3.0560311160316E-01
28  2.7000000000000E-01  1.8778712141175E+00  4.1011703220469E-01  2.8807619715053E-01
29  2.8000000000000E-01  1.8266987658606E+00  5.0186882855453E-01  2.6877898388322E-01
30  2.9000000000000E-01  1.7682268416710E+00  5.9354594208360E-01  2.4819643752754E-01
31  3.0000000000000E-01  1.7027577901153E+00  6.8515677905250E-01  2.2687080252060E-01
32  3.1000000000000E-01  1.6306182477440E+00  7.7676571658448E-01  2.0539107360000E-01
33  3.2000000000000E-01  1.5521659604756E+00  8.6845925632104E-01  1.8438095883882E-01
34  3.3000000000000E-01  1.4677967449966E+00  9.6031042762245E-01  1.6448568237416E-01
35  3.4000000000000E-01  1.3779511362112E+00  1.0523431780006E+00  1.4635801201975E-01
36  3.5000000000000E-01  1.2831202678233E+00  1.1444985021354E+00  1.3064392024936E-01
37  3.6000000000000E-01  1.1838505539800E+00  1.2366040009185E+00  1.1796829595844E-01
38  3.7000000000000E-01  1.0807467798839E+00  1.3283484306226E+00  1.0892111878471E-01
39  3.8000000000000E-01  9.7447326693245E-01  1.4192626045173E+00  1.0404448796014E-01
40  3.9000000000000E-01  8.6575285108756E-01  1.5087077527623E+00  1.0382086457331E-01
41  4.0000000000000E-01  7.5536349897476E-01  1.5958721413993E+00  1.0866284113047E-01
42  4.1000000000000E-01  6.4413248128047E-01  1.6797764098927E+00  1.1890469723606E-01
43  4.2000000000000E-01  5.3292812358819E-01  1.7592877226474E+00  1.3479593724239E-01
44  4.3000000000000E-01  4.2264925681911E-01  1.8331424579950E+00  1.5649693730138E-01
45  4.4000000000000E-01  3.1421258880691E-01  1.8999767933344E+00  1.8407675800396E-01
46  4.5000000000000E-01  2.0853831117840E-01  1.9583642023524E+00  2.1751310741295E-01
47  4.6000000000000E-01  1.0653433781636E-01  2.0068585735864E+00  2.5669437044550E-01
48  4.7000000000000E-01  9.0796393330145E-03  2.0440414016754E+00  3.0142355675411E-01
49  4.8000000000000E-01 -8.2992810709038E-02  2.0685713042447E+00  3.5142396278336E-01
50  4.9000000000000E-01 -1.6891292986082E-01  2.0792339868879E+00  4.0634629650280E-01
51  5.0000000000000E-01 -2.4798970149238E-01  2.0749907218187E+00  4.6577697699796E-01
52  5.1000000000000E-01 -3.1962608006466E-01  2.0550234252691E+00  5.2924729676370E-01
53  5.2000000000000E-01 -3.8333210752132E-01  2.0187745142406E+00  5.9624312279482E-01
54  5.3000000000000E-01 -4.3873577205809E-01  1.9659798914748E+00  6.6621481353506E-01
55  5.4000000000000E-01 -4.8559120948756E-01  1.8966936421609E+00  7.3858704201936E-01
56  5.5000000000000E-01 -5.2378393210320E-01  1.8113033179761E+00  8.1276824024764E-01
57  5.6000000000000E-01 -5.5333286720299E-01  1.7105350223069E+00  8.8815941464382E-01
58  5.7000000000000E-01 -5.7438909356898E-01  1.5954478816920E+00  9.6416212566083E-01
59  5.8000000000000E-01 -5.8723127521371E-01  1.4674178782533E+00  1.0401854741911E+00
60  5.9000000000000E-01 -5.9225790334718E-01  1.3281114108085E+00  1.1156519911806E+00
61  6.0000000000000E-01 -5.8997656555882E-01  1.1794493331774E+00  1.1900023823694E+00
62  6.1000000000000E-01 -5.8099056152880E-01  1.0235625719770E+00  1.2626991349948E+00
63  6.2000000000000E-01 -5.6598327338215E-01  8.6274073915038E-01  1.3332290452722E+00
64  6.3000000000000E-01 -5.4570077274766E-01  6.9937541446647E-01  1.4011047723638E+00
65  6.4000000000000E-01 -5.2093320292443E-01  5.3589997021865E-01  1.4658655644429E+00
66  6.5000000000000E-01 -4.9249551125411E-01  3.7472793687473E-01  1.5270773338031E+00
67  6.6000000000000E-01 -4.6120812258046E-01  2.1819195983489E-01  1.5843322795418E+00
68  6.7000000000000E-01 -4.2787813910820E-01  6.8485372074660E-02  1.6372482674361E+00
69  6.8000000000000E-01 -3.9328162545646E-01 -7.2391693299890E-02  1.6854681769137E+00
70  6.9000000000000E-01 -3.5814749145412E-01 -2.0267989830380E-01  1.7286594146916E+00
71  7.0000000000000E-01 -3.2314342121772E-01 -3.2090048646810E-01  1.7665137743159E+00
72  7.1000000000000E-01 -2.8886421795208E-01 -4.2588603353718E-01  1.7987477915421E+00
73  7.2000000000000E-01 -2.5582284291181E-01 -5.1680126806426E-01  1.8251037086449E+00
74  7.3000000000000E-01 -2.2444432770552E-01 -5.9315342928207E-01  1.8453511180624E+00
75  7.4000000000000E-01 -1.9506263550828E-01 -6.5479200656852E-01  1.8592893091887E+00
76  7.5000000000000E-01 -1.6792044277154E-01 -7.0189808234774E-01  1.8667502937352E+00
77  7.6000000000000E-01 -1.4317171264106E-01 -7.3496386391700E-01  1.8676024369981E+00
78  7.7000000000000E-01 -1.2088683823133E-01 -7.5476332587753E-01  1.8617545767300E+00
79  7.8000000000000E-01 -1.0106005151148E-01 -7.6231518130800E-01  1.8491604700703E+00
80  7.9000000000000E-01 -8.3618724696269E-02 -7.5883964605137E-01  1.8298233739473E+00
81  8.0000000000000E-01 -6.8434137945437E-02 -7.4571064826676E-01  1.8038005370289E+00
82  8.1000000000000E-01 -5.5333251416082E-02 -7.2440525896730E-01  1.7712073628577E+00
83  8.2000000000000E-01 -4.4111002107464E-02 -6.9645217556014E-01  1.7322209950988E+00
84  8.3000000000000E-01 -3.4542646557803E-02 -6.6338107910271E-01  1.6870830772907E+00
85  8.4000000000000E-01 -2.6395688641086E-02 -6.2667460942921E-01  1.6361014511937E+00
86  8.5000000000000E-01 -1.9440966129290E-02 -5.8772456532857E-01  1.5796505794528E+00
87  8.6000000000000E-01 -1.3462518403737E-02 -5.4779374657218E-01  1.5181705091975E+00
88  8.7000000000000E-01 -8.2659182956013E-03 -5.0798461962426E-01  1.4521642324308E+00
89  8.8000000000000E-01 -3.6848207402352E-03 -4.6921571943383E-01  1.3821933454639E+00
90  8.9000000000000E-01  4.1444324135093E-04 -4.3220640671940E-01  1.3088719618766E+00
91  9.0000000000000E-01  4.1303198050672E-03 -3.9747029475049E-01  1.2328588901387E+00
92  9.1000000000000E-01  7.5255462836688E-03 -3.6531735254487E-01  1.1548481466861E+00
93  9.2000000000000E-01  1.0628662850106E-02 -3.3586439248412E-01  1.0755579365980E+00
94  9.3000000000000E-01  1.3437386978996E-02 -3.0905336798353E-01  9.9571829589270E-01
95  9.4000000000000E-01  1.5923650555593E-02 -2.8467664747671E-01  9.1605765092578E-01
96  9.5000000000000E-01  1.8040041805076E-02 -2.6240819876295E-01  8.3728861080182E-01
97  9.6000000000000E-01  1.9727344519074E-02 -2.4183941422835E-01  7.6009336780272E-01
98  9.7000000000000E-01  2.0922824971819E-02 -2.2251813141611E-01  6.8510913866671E-01
99  9.8000000000000E-01  2.1568881238217E-02 -2.0398925063991E-01  6.1291413663341E-01
100  9.9000000000000E-01  2.1621638433493E-02 -1.8583521500444E-01  5.4401462132995E-01
101  1.0000000000000E+00  2.1059043952854E-02 -1.6771448849050E-01  4.7883363211380E-01
102  1.0100000000000E+00  1.9887985765454E-02 -1.4939603269498E-01  4.1770207197138E-01
103  1.0200000000000E+00  1.8149920196481E-02 -1.3078762787812E-01  3.6085287550112E-01
104  1.0300000000000E+00  1.5924448991634E-02 -1.1195569320036E-01  3.0841906800372E-01
105  1.0400000000000E+00  1.3330224067037E-02 -9.3134017288208E-02  2.6043660560225E-01
106  1.0500000000000E+00  1.0522476949376E-02 -7.4718494461605E-02  2.1685298136192E-01
107  1.0600000000000E+00  7.6863636123991E-03 -5.7244556387838E-02  1.7754269186147E-01
108  1.0700000000000E+00  5.0251790630031E-03 -4.1343474821028E-02  1.4233078530289E-01
109  1.0800000000000E+00  2.7422268412377E-03 -2.7672744653031E-02  1.1102584082091E-01
110  1.0900000000000E+00  1.0159097258426E-03 -1.6818262923693E-02  8.3464083817309E-02
111  1.1000000000000E+00 -8.9859438352161E-05 -8.9740141810442E-03  5.9555508561155E-02
112  1.1100000000000E+00 -7.5385568228568E-04 -3.4818470044850E-03  3.9338203506969E-02
113  1.1200000000000E+00 -9.4477270259922E-04 -3.4143040437585E-04  2.3076142855256E-02
114  1.1300000000000E+00 -7.3669843062669E-04  7.7753114102073E-04  1.1021826822200E-02
115  1.1400000000000E+00 -3.2246756112558E-04  5.5744450058303E-04  3.3325389442342E-03
116  1.1500000000000E+00 -2.1534498792034E-05  4.5810928770896E-05  1.6192907833218E-04
117  1.1600000000000E+00 -9.4289273378451E-07  1.9814919497146E-06  7.2591966798118E-06
118  1.1700000000000E+00  3.0883924238165E-07 -6.0589897204454E-07 -2.6799694457579E-06
119  1.18 -0.  0. -0.
120  1.19  0.  0.  0.
121  1.20  0.  0.  0.
122  1.21  0.  0.  0.
123  1.22  0.  0.  0.
124  1.23  0.  0.  0.
125  1.24  0.  0.  0.
126  1.25  0.  0.  0.
127  1.26  0.  0.  0.
128  1.27  0.  0.  0.
129  1.28  0.  0.  0.
130  1.29  0.  0.  0.
131  1.30  0.  0.  0.
132  1.31  0.  0.  0.
133  1.32  0.  0.  0.
134  1.33  0.  0.  0.
135  1.34  0.  0.  0.
136  1.35  0.  0.  0.
137  1.36  0.  0.  0.
138  1.37  0.  0.  0.
139  1.38  0.  0.  0.
140  1.39  0.  0.  0.
141  1.40  0.  0.  0.
142  1.41  0.  0.  0.
143  1.42  0.  0.  0.
144  1.43  0.  0.  0.
145  1.44  0.  0.  0.
146  1.45  0.  0.  0.
147  1.46  0.  0.  0.
148  1.47  0.  0.  0.
149  1.48  0.  0.  0.
150  1.49  0.  0.  0.
151  1.50  0.  0.  0.
152  1.51  0.  0.  0.
153  1.52  0.  0.  0.
154  1.53  0.  0.  0.
155  1.54  0.  0.  0.
156  1.55  0.  0.  0.
157  1.56  0.  0.  0.
158  1.57  0.  0.  0.
159  1.58  0.  0.  0.
160  1.59  0.  0.  0.
161  1.60  0.  0.  0.
162  1.61  0.  0.  0.
163  1.62  0.  0.  0.
164  1.63  0.  0.  0.
165  1.64  0.  0.  0.
166  1.65  0.  0.  0.
167  1.66  0.  0.  0.
168  1.67  0.  0.  0.
169  1.68  0.  0.  0.
170  1.69  0.  0.  0.
171  1.70  0.  0.  0.
172  1.71  0.  0.  0.
173  1.72  0.  0.  0.
174  1.73  0.  0.  0.
175  1.74  0.  0.  0.
176  1.75  0.  0.  0.
177  1.76  0.  0.  0.
178  1.77  0.  0.  0.
179  1.78  0.  0.  0.
180  1.79  0.  0.  0.
181  1.80  0.  0.  0.
182  1.81  0.  0.  0.
183  1.82  0.  0.  0.
184  1.83  0.  0.  0.
185  1.84  0.  0.  0.
186  1.85  0.  0.  0.
187  1.86  0.  0.  0.
188  1.87  0.  0.  0.
189  1.88  0.  0.  0.
190  1.89  0.  0.  0.
191  1.90  0.  0.  0.
192  1.91  0.  0.  0.
193  1.92  0.  0.  0.
194  1.93  0.  0.  0.
195  1.94  0.  0.  0.
196  1.95  0.  0.  0.
197  1.96  0.  0.  0.
198  1.97  0.  0.  0.
199  1.98  0.  0.  0.
200  1.99  0.  0.  0.
201  2.00  0.  0.  0.
202  2.01  0.  0.  0.
203  2.02  0.  0.  0.
204  2.03  0.  0.  0.
205  2.04  0.  0.  0.
206  2.05  0.  0.  0.
207  2.06  0.  0.  0.
208  2.07  0.  0.  0.
209  2.08  0.  0.  0.
210  2.09  0.  0.  0.
211  2.10  0.  0.  0.
212  2.11  0.  0.  0.
213  2.12  0.  0.  0.
214  2.13  0.  0.  0.
215  2.14  0.  0.  0.
216  2.15  0.  0.  0.
217  2.16  0.  0.  0.
218  2.17  0.  0.  0.
219  2.18  0.  0.  0.
220  2.19  0.  0.  0.
221  2.20  0.  0.  0.
222  2.21  0.  0.  0.
223  2.22  0.  0.  0.
224  2.23  0.  0.  0.
225  2.24  0.  0.  0.
226  2.25  0.  0.  0.
227  2.26  0.  0.  0.
228  2.27  0.  0.  0.
229  2.28  0.  0.  0.
230  2.29  0.  0.  0.
231  2.30  0.  0.  0.
232  2.31  0.  0.  0.
233  2.32  0.  0.  0.
234  2.33  0.  0.  0.
235  2.34  0.  0.  0.
236  2.35  0.  0.  0.
237  2.36  0.  0.  0.
238  2.37  0.  0.  0.
239  2.38  0.  0.  0.
240  2.39  0.  0.  0.
241  2.40  0.  0.  0.
242  2.41  0.  0.  0.
243  2.42  0.  0.  0.
244  2.43  0.  0.  0.
245  2.44  0.  0.  0.
246  2.45  0.  0.  0.
247  2.46  0.  0.  0.
248  2.47  0.  0.  0.
249  2.48  0.  0.  0.
250  2.49  0.  0.  0.
251  2.50  0.  0.  0.
252  2.51  0.  0.  0.
253  2.52  0.  0.  0.
254  2.53  0.  0.  0.
255  2.54  0.  0.  0.
256  2.55  0.  0.  0.
257  2.56  0.  0.  0.
258  2.57  0.  0.  0.
259  2.58  0.  0.  0.
260  2.59  0.  0.  0.
261  2.60  0.  0.  0.
262  2.61  0.  0.  0.
263  2.62  0.  0.  0.
264  2.63  0.  0.  0.
265  2.64  0.  0.  0.
266  2.65  0.  0.  0.
267  2.66  0.  0.  0.
268  2.67  0.  0.  0.
269  2.68  0.  0.  0.
270  2.69  0.  0.  0.
271  2.70  0.  0.  0.
272  2.71  0.  0.  0.
273  2.72  0.  0.  0.
274  2.73  0.  0.  0.
275  2.74  0.  0.  0.
276  2.75  0.  0.  0.
277  2.76  0.  0.  0.
278  2.77  0.  0.  0.
279  2.78  0.  0.  0.
280  2.79  0.  0.  0.
281  2.80  0.  0.  0.
282  2.81  0.  0.  0.
283  2.82  0.  0.  0.
284  2.83  0.  0.  0.
285  2.84  0.  0.  0.
286  2.85  0.  0.  0.
287  2.86  0.  0.  0.
288  2.87  0.  0.  0.
289  2.88  0.  0.  0.
290  2.89  0.  0.  0.
291  2.90  0.  0.  0.
292  2.91  0.  0.  0.
293  2.92  0.  0.  0.
294  2.93  0.  0.  0.
295  2.94  0.  0.  0.
296  2.95  0.  0.  0.
297  2.96  0.  0.  0.
298  2.97  0.  0.  0.
299  2.98  0.  0.  0.
300  2.99  0.  0.  0.
301  3.00  0.  0.  0.
302  3.01  0.  0.  0.
303  3.02  0.  0.  0.
304  3.03  0.  0.  0.
305  3.04  0.  0.  0.
306  3.05  0.  0.  0.
307  3.06  0.  0.  0.
308  3.07  0.  0.  0.
309  3.08  0.  0.  0.
310  3.09  0.  0.  0.
311  3.10  0.  0.  0.
312  3.11  0.  0.  0.
313  3.12  0.  0.  0.
314  3.13  0.  0.  0.
315  3.14  0.  0.  0.
316  3.15  0.  0.  0.
317  3.16  0.  0.  0.
318  3.17  0.  0.  0.
319  3.18  0.  0.  0.
320  3.19  0.  0.  0.
321  3.20  0.  0.  0.
322  3.21  0.  0.  0.
323  3.22  0.  0.  0.
324  3.23  0.  0.  0.
325  3.24  0.  0.  0.
326  3.25  0.  0.  0.
327  3.26  0.  0.  0.
328  3.27  0.  0.  0.
329  3.28  0.  0.  0.
330  3.29  0.  0.  0.
331  3.30  0.  0.  0.
332  3.31  0.  0.  0.
333  3.32  0.  0.  0.
334  3.33  0.  0.  0.
335  3.34  0.  0.  0.
336  3.35  0.  0.  0.
337  3.36  0.  0.  0.
338  3.37  0.  0.  0.
339  3.38  0.  0.  0.
340  3.39  0.  0.  0.
341  3.40  0.  0.  0.
342  3.41  0.  0.  0.
343  3.42  0.  0.  0.
344  3.43  0.  0.  0.
345  3.44  0.  0.  0.
346  3.45  0.  0.  0.
347  3.46  0.  0.  0.
348  3.47  0.  0.  0.
349  3.48  0.  0.  0.
350  3.49  0.  0.  0.
351  3.50  0.  0.  0.
352  3.51  0.  0.  0.
353  3.52  0.  0.  0.
354  3.53  0.  0.  0.
355  3.54  0.  0.  0.
356  3.55  0.  0.  0.
357  3.56  0.  0.  0.
358  3.57  0.  0.  0.
359  3.58  0.  0.  0.
360  3.59  0.  0.  0.
361  3.60  0.  0.  0.
362  3.61  0.  0.  0.
363  3.62  0.  0.  0.
364  3.63  0.  0.  0.
365  3.64  0.  0.  0.
366  3.65  0.  0.  0.
367  3.66  0.  0.  0.
368  3.67  0.  0.  0.
369  3.68  0.  0.  0.
370  3.69  0.  0.  0.
371  3.70  0.  0.  0.
372  3.71  0.  0.  0.
373  3.72  0.  0.  0.
374  3.73  0.  0.  0.
375  3.74  0.  0.  0.
376  3.75  0.  0.  0.
377  3.76  0.  0.  0.
378  3.77  0.  0.  0.
379  3.78  0.  0.  0.
380  3.79  0.  0.  0.
381  3.80  0.  0.  0.
382  3.81  0.  0.  0.
383  3.82  0.  0.  0.
384  3.83  0.  0.  0.
385  3.84  0.  0.  0.
386  3.85  0.  0.  0.
387  3.86  0.  0.  0.
388  3.87  0.  0.  0.
389  3.88  0.  0.  0.
390  3.89  0.  0.  0.
391  3.90  0.  0.  0.
392  3.91  0.  0.  0.
393  3.92  0.  0.  0.
394  3.93  0.  0.  0.
395  3.94  0.  0.  0.
396  3.95  0.  0.  0.
397  3.96  0.  0.  0.
398  3.97  0.  0.  0.
399  3.98  0.  0.  0.
400  3.99  0.  0.  0.
401  4.00  0.  0.  0.
402  4.01  0.  0.  0.
403  4.02  0.  0.  0.
404  4.03  0.  0.  0.
405  4.04  0.  0.  0.
406  4.05  0.  0.  0.
407  4.06  0.  0.  0.
408  4.07  0.  0.  0.
409  4.08  0.  0.  0.
410  4.09  0.  0.  0.
411  4.10  0.  0.  0.
412  4.11  0.  0.  0.
413  4.12  0.  0.  0.
414  4.13  0.  0.  0.
415  4.14  0.  0.  0.
416  4.15  0.  0.  0.
417  4.16  0.  0.  0.
418  4.17  0.  0.  0.
419  4.18  0.  0.  0.
420  4.19  0.  0.  0.
421  4.20  0.  0.  0.
422  4.21  0.  0.  0.
423  4.22  0.  0.  0.
424  4.23  0.  0.  0.
425  4.24  0.  0.  0.
426  4.25  0.  0.  0.
427  4.26  0.  0.  0.
428  4.27  0.  0.  0.
429  4.28  0.  0.  0.
430  4.29  0.  0.  0.
431  4.30  0.  0.  0.
432  4.31  0.  0.  0.
433  4.32  0.  0.  0.
434  4.33  0.  0.  0.
435  4.34  0.  0.  0.
436  4.35  0.  0.  0.
437  4.36  0.  0.  0.
438  4.37  0.  0.  0.
439  4.38  0.  0.  0.
440  4.39  0.  0.  0.
441  4.40  0.  0.  0.
442  4.41  0.  0.  0.
443  4.42  0.  0.  0.
444  4.43  0.  0.  0.
445  4.44  0.  0.  0.
446  4.45  0.  0.  0.
447  4.46  0.  0.  0.
448  4.47  0.  0.  0.
449  4.48  0.  0.  0.
450  4.49  0.  0.  0.
451  4.50  0.  0.  0.
452  4.51  0.  0.  0.
453  4.52  0.  0.  0.
454  4.53  0.  0.  0.
455  4.54  0.  0.  0.
456  4.55  0.  0.  0.
457  4.56  0.  0.  0.
458  4.57  0.  0.  0.
459  4.58  0.  0.  0.
460  4.59  0.  0.  0.
461  4.60  0.  0.  0.
462  4.61  0.  0.  0.
463  4.62  0.  0.  0.
464  4.63  0.  0.  0.
465  4.64  0.  0.  0.
466  4.65  0.  0.  0.
467  4.66  0.  0.  0.
468  4.67  0.  0.  0.
469  4.68  0.  0.  0.
470  4.69  0.  0.  0.
471  4.70  0.  0.  0.
472  4.71  0.  0.  0.
473  4.72  0.  0.  0.
474  4.73  0.  0.  0.
475  4.74  0.  0.  0.
476  4.75  0.  0.  0.
477  4.76  0.  0.  0.
478  4.77  0.  0.  0.
479  4.78  0.  0.  0.
480  4.79  0.  0.  0.
481  4.80  0.  0.  0.
482  4.81  0.  0.  0.
483  4.82  0.  0.  0.
484  4.83  0.  0.  0.
485  4.84  0.  0.  0.
486  4.85  0.  0.  0.
487  4.86  0.  0.  0.
488  4.87  0.  0.  0.
489  4.88  0.  0.  0.
490  4.89  0.  0.  0.
491  4.90  0.  0.  0.
492  4.91  0.  0.  0.
493  4.92  0.  0.  0.
494  4.93  0.  0.  0.
495  4.94  0.  0.  0.
496  4.95  0.  0.  0.
497  4.96  0.  0.  0.
498  4.97  0.  0.  0.
499  4.98  0.  0.  0.
500  4.99  0.  0.  0.
501  5.00  0.  0.  0.
502  5.01  0.  0.  0.
503  5.02  0.  0.  0.
504  5.03  0.  0.  0.
505  5.04  0.  0.  0.
506  5.05  0.  0.  0.
507  5.06  0.  0.  0.
508  5.07  0.  0.  0.
509  5.08  0.  0.  0.
510  5.09  0.  0.  0.
511  5.10  0.  0.  0.
512  5.11  0.  0.  0.
513  5.12  0.  0.  0.
514  5.13  0.  0.  0.
515  5.14  0.  0.  0.
516  5.15  0.  0.  0.
517  5.16  0.  0.  0.
518  5.17  0.  0.  0.
519  5.18  0.  0.  0.
520  5.19  0.  0.  0.
521  5.20  0.  0.  0.
522  5.21  0.  0.  0.
523  5.22  0.  0.  0.
524  5.23  0.  0.  0.
525  5.24  0.  0.  0.
526  5.25  0.  0.  0.
527  5.26  0.  0.  0.
528  5.27  0.  0.  0.
529  5.28  0.  0.  0.
530  5.29  0.  0.  0.
531  5.30  0.  0.  0.
532  5.31  0.  0.  0.
533  5.32  0.  0.  0.
534  5.33  0.  0.  0.
535  5.34  0.  0.  0.
536  5.35  0.  0.  0.
537  5.36  0.  0.  0.
538  5.37  0.  0.  0.
539  5.38  0.  0.  0.
540  5.39  0.  0.  0.
541  5.40  0.  0.  0.
542  5.41  0.  0.  0.
543  5.42  0.  0.  0.
544  5.43  0.  0.  0.
545  5.44  0.  0.  0.
546  5.45  0.  0.  0.
547  5.46  0.  0.  0.
548  5.47  0.  0.  0.
549  5.48  0.  0.  0.
550  5.49  0.  0.  0.
551  5.50  0.  0.  0.
552  5.51  0.  0.  0.
553  5.52  0.  0.  0.
554  5.53  0.  0.  0.
555  5.54  0.  0.  0.
556  5.55  0.  0.  0.
557  5.56  0.  0.  0.
558  5.57  0.  0.  0.
559  5.58  0.  0.  0.
560  5.59  0.  0.  0.
561  5.60  0.  0.  0.
562  5.61  0.  0.  0.
563  5.62  0.  0.  0.
564  5.63  0.  0.  0.
565  5.64  0.  0.  0.
566  5.65  0.  0.  0.
567  5.66  0.  0.  0.
568  5.67  0.  0.  0.
569  5.68  0.  0.  0.
570  5.69  0.  0.  0.
571  5.70  0.  0.  0.
572  5.71  0.  0.  0.
573  5.72  0.  0.  0.
574  5.73  0.  0.  0.
575  5.74  0.  0.  0.
576  5.75  0.  0.  0.
577  5.76  0.  0.  0.
578  5.77  0.  0.  0.
579  5.78  0.  0.  0.
580  5.79  0.  0.  0.
581  5.80  0.  0.  0.
582  5.81  0.  0.  0.
583  5.82  0.  0.  0.
584  5.83  0.  0.  0.
585  5.84  0.  0.  0.
586  5.85  0.  0.  0.
587  5.86  0.  0.  0.
588  5.87  0.  0.  0.
589  5.88  0.  0.  0.
590  5.89  0.  0.  0.
591  5.90  0.  0.  0.
592  5.91  0.  0.  0.
593  5.92  0.  0.  0.
594  5.93  0.  0.  0.
595  5.94  0.  0.  0.
596  5.95  0.  0.  0.
597  5.96  0.  0.  0.
598  5.97  0.  0.  0.
599  5.98  0.  0.  0.
600  5.99  0.  0.  0.
1                         9.8420186621816E+00 -3.7144766975980E-01
1  0.0000000000000E+00 -1.5471021130864E-09 -6.7254067537270E-08
2  1.0000000000000E-02  3.5055775937442E-03  2.0766371445250E-03
3  2.0000000000000E-02  1.3997792315475E-02  8.3059807443007E-03
4  3.0000000000000E-02  3.1403205687387E-02  1.8685324501822E-02
5  4.0000000000000E-02  5.5599807371077E-02  3.3206862202800E-02
6  5.0000000000000E-02  8.6417600859738E-02  5.1852906673290E-02
7  6.0000000000000E-02  1.2363943313974E-01  7.4589515196369E-02
8  7.0000000000000E-02  1.6700207728374E-01  1.0135882603075E-01
9  8.0000000000000E-02  2.1619757848445E-01  1.3207047792776E-01
10  9.0000000000000E-02  2.7087487487644E-01  1.6659253789809E-01
11  1.0000000000000E-01  3.3064170451987E-01  2.0474239985261E-01
12  1.1000000000000E-01  3.9506680906209E-01  2.4627813660268E-01
13  1.2000000000000E-01  4.6368244281148E-01  2.9089078912919E-01
14  1.3000000000000E-01  5.3598719324708E-01  3.3819805973551E-01
15  1.4000000000000E-01  6.1144911537949E-01  3.8773984005974E-01
16  1.5000000000000E-01  6.8950917793756E-01  4.3897595195519E-01
17  1.6000000000000E-01  7.6958501418293E-01  4.9128641059417E-01
18  1.7000000000000E-01  8.5107496437876E-01  5.4397443700973E-01
19  1.8000000000000E-01  9.3336239071801E-01  5.9627235436454E-01
20  1.9000000000000E-01  1.0158202390287E+00  6.4735040163189E-01
21  2.0000000000000E-01  1.0978158150141E+00  6.9632839350704E-01
22  2.1000000000000E-01  1.1787157363584E+00  7.4229004984451E-01
23  2.2000000000000E-01  1.2578910159472E+00  7.8429971542270E-01
24  2.3000000000000E-01  1.3347222259103E+00  8.2142109499816E-01
25  2.4000000000000E-01  1.4086046874060E+00  8.5273754288666E-01
26  2.5000000000000E-01  1.4789536271874E+00  8.7737337385449E-01
27  2.6000000000000E-01  1.5452092391966E+00  8.9451560567877E-01
28  2.7000000000000E-01  1.6068415878372E+00  9.0343550558910E-01
29  2.8000000000000E-01  1.6633552892784E+00  9.0350929460083E-01
30  2.9000000000000E-01  1.7142939081999E+00  8.9423736650526E-01
31  3.0000000000000E-01  1.7592440098192E+00  8.7526140231367E-01
32  3.1000000000000E-01  1.7978388108208E+00  8.4637880586615E-01
33  3.2000000000000E-01  1.8297613778809E+00  8.0755395100693E-01
34  3.3000000000000E-01  1.8547473287367E+00  7.5892581340661E-01
35  3.4000000000000E-01  1.8725869980643E+00  7.0081165835638E-01
36  3.5000000000000E-01  1.8831270386213E+00  6.3370656669055E-01
37  3.6000000000000E-01  1.8862714369950E+00  5.5827870096176E-01
38  3.7000000000000E-01  1.8819819326464E+00  4.7536033929398E-01
39  3.8000000000000E-01  1.8702778385350E+00  3.8593483093457E-01
40  3.9000000000000E-01  1.8512352711941E+00  2.9111975127674E-01
41  4.0000000000000E-01  1.8249858074790E+00  1.9214665093058E-01
42  4.1000000000000E-01  1.7917145940837E+00  9.0337899357915E-02
43  4.2000000000000E-01  1.7516579441078E+00 -1.2918784954110E-02
44  4.3000000000000E-01  1.7051004622548E+00 -1.1619745199703E-01
45  4.4000000000000E-01  1.6523717464921E+00 -2.1806196609797E-01
46  4.5000000000000E-01  1.5938427190571E+00 -3.1709422950273E-01
47  4.6000000000000E-01  1.5299216434735E+00 -4.1192182523860E-01
48  4.7000000000000E-01  1.4610498866679E+00 -5.0124433694349E-01
49  4.8000000000000E-01  1.3876974863588E+00 -5.8385764309922E-01
50  4.9000000000000E-01  1.3103585836296E+00 -6.5867554534304E-01
51  5.0000000000000E-01  1.2295467790861E+00 -7.2474817334476E-01
52  5.1000000000000E-01  1.1457904683251E+00 -7.8127670950829E-01
53  5.2000000000000E-01  1.0596282087529E+00 -8.2762409222450E-01
54  5.3000000000000E-01  9.7160416525913E-01 -8.6332148278567E-01
55  5.4000000000000E-01  8.8226367705826E-01 -8.8807041417594E-01
56  5.5000000000000E-01  7.9214898237250E-01 -9.0174067532208E-01
57  5.6000000000000E-01  7.0179513175175E-01 -9.0436411745681E-01
58  5.7000000000000E-01  6.1172611493083E-01 -8.9612469548769E-01
59  5.8000000000000E-01  5.2245122041054E-01 -8.7734517236141E-01
60  5.9000000000000E-01  4.3446164161218E-01 -8.4847101439951E-01
61  6.0000000000000E-01  3.4822733865951E-01 -8.1005208699847E-01
62  6.1000000000000E-01  2.6419416072774E-01 -7.6272282009706E-01
63  6.2000000000000E-01  1.8278123056834E-01 -7.0718154931661E-01
64  6.3000000000000E-01  1.0437859033918E-01 -6.4416975039124E-01
65  6.4000000000000E-01  2.9345106264425E-02 -5.7445187100956E-01
66  6.5000000000000E-01 -4.1993371095014E-02 -4.9879642596693E-01
67  6.6000000000000E-01 -1.0934559412171E-01 -4.1795895994459E-01
68  6.7000000000000E-01 -1.7245625536623E-01 -3.3266739949641E-01
69  6.8000000000000E-01 -2.3110707576274E-01 -2.4361021492822E-01
70  6.9000000000000E-01 -2.8511764311411E-01 -1.5142769735267E-01
71  7.0000000000000E-01 -3.3434599811373E-01 -5.6706530509067E-02
72  7.1000000000000E-01 -3.7868896311431E-01  4.0022294434539E-02
73  7.2000000000000E-01 -4.1808220694890E-01  1.3828230508441E-01
74  7.3000000000000E-01 -4.5250003755865E-01  2.3764732713873E-01
75  7.4000000000000E-01 -4.8195491316910E-01  3.3773454816376E-01
76  7.5000000000000E-01 -5.0649666245274E-01  4.3819530303448E-01
77  7.6000000000000E-01 -5.2621140465770E-01  5.3870410667321E-01
78  7.7000000000000E-01 -5.4122016217727E-01  6.3894652730598E-01
79  7.8000000000000E-01 -5.5167716054621E-01  7.3860653753116E-01
80  7.9000000000000E-01 -5.5776781439627E-01  8.3735399924774E-01
81  8.0000000000000E-01 -5.5970640245750E-01  9.3483293106263E-01
82  8.1000000000000E-01 -5.5773344017468E-01  1.0306511733187E+00
83  8.2000000000000E-01 -5.5211276479475E-01  1.1243720074819E+00
84  8.3000000000000E-01 -5.4312835469985E-01  1.2155082054176E+00
85  8.4000000000000E-01 -5.3108091209925E-01  1.3035188831012E+00
86  8.5000000000000E-01 -5.1628424570407E-01  1.3878094164204E+00
87  8.6000000000000E-01 -4.9906149741738E-01  1.4677345485259E+00
88  8.7000000000000E-01 -4.7974126408354E-01  1.5426046838169E+00
89  8.8000000000000E-01 -4.5865367165189E-01  1.6116952286841E+00
90  8.9000000000000E-01 -4.3612646441719E-01  1.6742587093539E+00
91  9.0000000000000E-01 -4.1248117600977E-01  1.7295392784222E+00
92  9.1000000000000E-01 -3.8802945124959E-01  1.7767891196067E+00
93  9.2000000000000E-01 -3.6306958860744E-01  1.8152861802487E+00
94  9.3000000000000E-01 -3.3788337162889E-01  1.8443526080046E+00
95  9.4000000000000E-01 -3.1273325411189E-01  1.8633732461893E+00
96  9.5000000000000E-01 -2.8785995798100E-01  1.8718135547841E+00
97  9.6000000000000E-01 -2.6348053461451E-01  1.8692363737412E+00
98  9.7000000000000E-01 -2.3978692986712E-01  1.8553170334280E+00
99  9.8000000000000E-01 -2.1694508024447E-01  1.8298564445091E+00
100  9.9000000000000E-01 -1.9509455276020E-01  1.7927919657061E+00
101  1.0000000000000E+00 -1.7434872411031E-01  1.7442060513384E+00
102  1.0100000000000E+00 -1.5479547617272E-01  1.6843329187761E+00
103  1.0200000000000E+00 -1.3649836473406E-01  1.6135637459658E+00
104  1.0300000000000E+00 -1.1949819709452E-01  1.5324512066604E+00
105  1.0400000000000E+00 -1.0381493215022E-01  1.4417144711170E+00
106  1.0500000000000E+00 -8.9449794012454E-02  1.3422461383659E+00
107  1.0600000000000E+00 -7.6387467644551E-02  1.2351229159966E+00
108  1.0700000000000E+00 -6.4598222697919E-02  1.1216222197259E+00
109  1.0800000000000E+00 -5.4039790063075E-02  1.0032472222921E+00
110  1.0900000000000E+00 -4.4658794834884E-02  8.8176324304861E-01
111  1.1000000000000E+00 -3.6391536264458E-02  7.5924839049308E-01
112  1.1100000000000E+00 -2.9163877264190E-02  6.3816225019332E-01
113  1.1200000000000E+00 -2.2893116388582E-02  5.2128584018650E-01
114  1.1300000000000E+00 -1.7497188453230E-02  4.1133858835443E-01
115  1.1400000000000E+00 -1.2901262070896E-02  3.1079957339578E-01
116  1.1500000000000E+00 -9.0580114944714E-03  2.2168724188714E-01
117  1.1600000000000E+00 -5.9313364248509E-03  1.4571044032030E-01
118  1.1700000000000E+00 -3.4703631657369E-03  8.4569919798151E-02
119  1.1800000000000E+00 -1.6531414674057E-03  3.9507442551734E-02
120  1.1900000000000E+00 -4.8455798199571E-04  1.1236123032788E-02
121  1.2000000000000E+00 -1.6586205696856E-05  3.6833190702898E-04
122  1.2100000000000E+00 -1.8166513361254E-06  4.0708958995396E-05
123  1.2200000000000E+00  4.8949609001810E-07 -1.1154990695954E-05
124  1.23 -0.  0.
125  1.24  0.  0.
126  1.25  0.  0.
127  1.26  0.  0.
128  1.27  0.  0.
129  1.28  0.  0.
130  1.29  0.  0.
131  1.30  0.  0.
132  1.31  0.  0.
133  1.32  0.  0.
134  1.33  0.  0.
135  1.34  0.  0.
136  1.35  0.  0.
137  1.36  0.  0.
138  1.37  0.  0.
139  1.38  0.  0.
140  1.39  0.  0.
141  1.40  0.  0.
142  1.41  0.  0.
143  1.42  0.  0.
144  1.43  0.  0.
145  1.44  0.  0.
146  1.45  0.  0.
147  1.46  0.  0.
148  1.47  0.  0.
149  1.48  0.  0.
150  1.49  0.  0.
151  1.50  0.  0.