Np    ONCVPSP-4.0.1  r_core=   1.26041   1.26041   1.53549   1.53549
     93.0000     33.0000      211209    zatom,zion,pspd
     8      11   3     4   600     0    pspcod,pspxc,lmax,lloc,mmax,r2well
  5.99000000  5.00000000  0.00000000    rchrg fchrg qchrg
     3     2     2     2     0    nproj
     1     1           extension_switch
   0                         1.9010070983111E+01  3.3450032792412E+00 -1.7375751550186E+00
     1  0.0000000000000E+00 -1.9921187410787E-07 -4.3194175858297E-07 -3.4216834393641E-08
     2  1.0000000000000E-02  1.6901499866251E-01  1.0626067810246E-01  3.3005476883675E-02
     3  2.0000000000000E-02  3.3582982782992E-01  2.0871372732071E-01  6.5722264897520E-02
     4  3.0000000000000E-02  4.9829987427495E-01  3.0366905576949E-01  9.7870390360585E-02
     5  4.0000000000000E-02  6.5438993732125E-01  3.8766795267933E-01  1.2918702796693E-01
     6  5.0000000000000E-02  8.0222473921934E-01  4.5758966390507E-01  1.5943437928109E-01
     7  6.0000000000000E-02  9.4013455007908E-01  5.1074735367128E-01  1.8840674217424E-01
     8  7.0000000000000E-02  1.0666945431170E+00  5.4497044402949E-01  2.1593654354553E-01
     9  8.0000000000000E-02  1.1807566951884E+00  5.5867075544348E-01  2.4189914188997E-01
    10  9.0000000000000E-02  1.2814732843069E+00  5.5089038539409E-01  2.6621624685519E-01
    11  1.0000000000000E-01  1.3683113025069E+00  5.2132984052035E-01  2.8885784852148E-01
    12  1.1000000000000E-01  1.4410573904158E+00  4.7035556314082E-01  3.0984259822668E-01
    13  1.2000000000000E-01  1.4998132000385E+00  3.9898664509255E-01  3.2923663370254E-01
    14  1.3000000000000E-01  1.5449813948844E+00  3.0886117991365E-01  3.4715089240017E-01
    15  1.4000000000000E-01  1.5772427920038E+00  2.0218334752339E-01  3.6373700645669E-01
    16  1.5000000000000E-01  1.5975254292717E+00  8.1652933270872E-02  3.7918191914815E-01
    17  1.6000000000000E-01  1.6069665944733E+00 -4.9620463785168E-02  3.9370140434386E-01
    18  1.7000000000000E-01  1.6068690723024E+00 -1.8821579777262E-01  4.0753270604519E-01
    19  1.8000000000000E-01  1.5986530443170E+00 -3.3050838923324E-01  4.2092654338086E-01
    20  1.9000000000000E-01  1.5838052095123E+00 -4.7278376246344E-01  4.3413874651105E-01
    21  2.0000000000000E-01  1.5638267753110E+00 -6.1135390045583E-01  4.4742180010693E-01
    22  2.1000000000000E-01  1.5401819978815E+00 -7.4267224140437E-01  4.6101657306455E-01
    23  2.2000000000000E-01  1.5142489259511E+00 -8.6344378801145E-01  4.7514450583094E-01
    24  2.3000000000000E-01  1.4872739245780E+00 -9.7072686319078E-01  4.9000051042926E-01
    25  2.4000000000000E-01  1.4603314273080E+00 -1.0620233178091E+00  5.0574681353081E-01
    26  2.5000000000000E-01  1.4342901909713E+00 -1.1353543689678E+00  5.2250794058094E-01
    27  2.6000000000000E-01  1.4097871128053E+00 -1.1893197088920E+00  5.4036700014242E-01
    28  2.7000000000000E-01  1.3872094215891E+00 -1.2231380598800E+00  5.5936338359007E-01
    29  2.8000000000000E-01  1.3666857811289E+00 -1.2366679427157E+00  5.7949194756157E-01
    30  2.9000000000000E-01  1.3480865545775E+00 -1.2304080554784E+00  6.0070369675266E-01
    31  3.0000000000000E-01  1.3310331810986E+00 -1.2054773066256E+00  6.2290793441541E-01
    32  3.1000000000000E-01  1.3149163218530E+00 -1.1635751899197E+00  6.4597579896606E-01
    33  3.2000000000000E-01  1.2989221496796E+00 -1.1069238087089E+00  6.6974505907288E-01
    34  3.3000000000000E-01  1.2820658952242E+00 -1.0381934335883E+00  6.9402599801643E-01
    35  3.4000000000000E-01  1.2632315299818E+00 -9.6041399231792E-01  7.1860818237797E-01
    36  3.5000000000000E-01  1.2412162711656E+00 -8.7687532786996E-01  7.4326788140305E-01
    37  3.6000000000000E-01  1.2147784406485E+00 -7.9101940598894E-01  7.6777588265039E-01
    38  3.7000000000000E-01  1.1826871052165E+00 -7.0632789699365E-01  7.9190543744286E-01
    39  3.8000000000000E-01  1.1437718712274E+00 -6.2620869041469E-01  8.1544006656595E-01
    40  3.9000000000000E-01  1.0969712050240E+00 -5.5388492162457E-01  8.3818096267949E-01
    41  4.0000000000000E-01  1.0413777009585E+00 -4.9228999674941E-01  8.5995374078224E-01
    42  4.1000000000000E-01  9.7627881978291E-01 -4.4397189933949E-01  8.8061431125744E-01
    43  4.2000000000000E-01  9.0119176798517E-01 -4.1100975653409E-01  9.0005368071079E-01
    44  4.3000000000000E-01  8.1589137841025E-01 -3.9494524407132E-01  9.1820152291740E-01
    45  4.4000000000000E-01  7.2043007789436E-01 -3.9673093166974E-01  9.3502840443285E-01
    46  4.5000000000000E-01  6.1514928120808E-01 -4.1669712873844E-01  9.5054659533719E-01
    47  4.6000000000000E-01  5.0068182404075E-01 -4.5453820271219E-01  9.6480944358883E-01
    48  4.7000000000000E-01  3.7794533214752E-01 -5.0931872758185E-01  9.7790933992398E-01
    49  4.8000000000000E-01  2.4812670990477E-01 -5.7949919818298E-01  9.8997434749140E-01
    50  4.9000000000000E-01  1.1265821016074E-01 -6.6298043640622E-01  1.0011636148562E+00
    51  5.0000000000000E-01 -2.6814190486901E-02 -7.5716523804122E-01  1.0116617311377E+00
    52  5.1000000000000E-01 -1.6846914932425E-01 -8.5903528163193E-01  1.0216722165173E+00
    53  5.2000000000000E-01 -3.1035388104621E-01 -9.6524085993521E-01  1.0314103690175E+00
    54  5.3000000000000E-01 -4.5043231331655E-01 -1.0722006144582E+00  1.0410957084075E+00
    55  5.4000000000000E-01 -5.8663601723627E-01 -1.1762081655354E+00  1.0509442696972E+00
    56  5.5000000000000E-01 -7.1691637947167E-01 -1.2735423428260E+00  1.0611610016077E+00
    57  5.6000000000000E-01 -8.3929645582707E-01 -1.3605776389732E+00  1.0719325195988E+00
    58  5.7000000000000E-01 -9.5192096862700E-01 -1.4338915340424E+00  1.0834204487799E+00
    59  5.8000000000000E-01 -1.0531029811527E+00 -1.4903654682873E+00  1.0957555698670E+00
    60  5.9000000000000E-01 -1.1413658987568E+00 -1.5272764704885E+00  1.1090329521276E+00
    61  6.0000000000000E-01 -1.2154796038772E+00 -1.5423767700519E+00  1.1233082220369E+00
    62  6.1000000000000E-01 -1.2744897254216E+00 -1.5339591218859E+00  1.1385950764409E+00
    63  6.2000000000000E-01 -1.3177392651953E+00 -1.5009060399531E+00  1.1548641058139E+00
    64  6.3000000000000E-01 -1.3448820476578E+00 -1.4427216525062E+00  1.1720429482590E+00
    65  6.4000000000000E-01 -1.3558877161250E+00 -1.3595454421113E+00  1.1900177498114E+00
    66  6.5000000000000E-01 -1.3510382601045E+00 -1.2521476985344E+00  1.2086358629689E+00
    67  6.6000000000000E-01 -1.3309163161941E+00 -1.1219070740693E+00  1.2277096747005E+00
    68  6.7000000000000E-01 -1.2963857306119E+00 -9.7077117097496E-01  1.2470214188884E+00
    69  6.8000000000000E-01 -1.2485650971658E+00 -8.0120159234636E-01  1.2663287974829E+00
    70  6.9000000000000E-01 -1.1887951833243E+00 -6.1610533549781E-01  1.2853712106151E+00
    71  7.0000000000000E-01 -1.1186013230232E+00 -4.1875478735291E-01  1.3038763793166E+00
    72  7.1000000000000E-01 -1.0396519831302E+00 -2.1269888335757E-01  1.3215671358301E+00
    73  7.2000000000000E-01 -9.5371479764196E-01 -1.6682068542063E-03  1.3381681559971E+00
    74  7.3000000000000E-01 -8.6261140767752E-01  2.1052307058953E-01  1.3534124157871E+00
    75  7.4000000000000E-01 -7.6817244562887E-01  4.2007547780761E-01  1.3670471693175E+00
    76  7.5000000000000E-01 -6.7219395937737E-01  6.2329989484431E-01  1.3788392680590E+00
    77  7.6000000000000E-01 -5.7639648965281E-01  8.1670785129903E-01  1.3885796694186E+00
    78  7.7000000000000E-01 -4.8238789410018E-01  9.9709399149319E-01  1.3960870164174E+00
    79  7.8000000000000E-01 -3.9163086026230E-01  1.1616085319747E+00  1.4012102074405E+00
    80  7.9000000000000E-01 -3.0541587234731E-01  1.3078179035879E+00  1.4038299145994E+00
    81  8.0000000000000E-01 -2.2484019990668E-01  1.4337521840554E+00  1.4038590496047E+00
    82  8.1000000000000E-01 -1.5079326751859E-01  1.5379383729465E+00  1.4012422156955E+00
    83  8.2000000000000E-01 -8.3948550616762E-02  1.6194190235695E+00  1.3959542216027E+00
    84  8.3000000000000E-01 -2.4761931091080E-02  1.6777562100132E+00  1.3879977673722E+00
    85  8.4000000000000E-01  2.6523755709651E-02  1.7130212570383E+00  1.3774004408685E+00
    86  8.5000000000000E-01  6.9868436820803E-02  1.7257710813150E+00  1.3642111868844E+00
    87  8.6000000000000E-01  1.0541939852833E-01  1.7170123716372E+00  1.3484964271520E+00
    88  8.7000000000000E-01  1.3349151948995E-01  1.6881551619683E+00  1.3303360186275E+00
    89  8.8000000000000E-01  1.5454400168160E-01  1.6409576154064E+00  1.3098192389114E+00
    90  8.9000000000000E-01  1.6915453371766E-01  1.5774640327177E+00  1.2870409815649E+00
    91  9.0000000000000E-01  1.7799185932443E-01  1.4999382218811E+00  1.2620983306907E+00
    92  9.1000000000000E-01  1.8178772712783E-01  1.4107944136822E+00  1.2350876640123E+00
    93  9.2000000000000E-01  1.8130916758899E-01  1.3125278839586E+00  1.2061024076481E+00
    94  9.3000000000000E-01  1.7733198121900E-01  1.2076473493533E+00  1.1752315348661E+00
    95  9.4000000000000E-01  1.7061623251137E-01  1.0986110463649E+00  1.1425588665600E+00
    96  9.5000000000000E-01  1.6188443064948E-01  9.8776819111541E-01  1.1081631943708E+00
    97  9.6000000000000E-01  1.5180294599443E-01  8.7730725924671E-01  1.0721192097380E+00
    98  9.7000000000000E-01  1.4096706622771E-01  7.6921223271741E-01  1.0344991852024E+00
    99  9.8000000000000E-01  1.2988994355053E-01  6.6522764452325E-01  9.9537531941975E-01
   100  9.9000000000000E-01  1.1899553056684E-01  5.6683292583479E-01  9.5482262600832E-01
   101  1.0000000000000E+00  1.0861545304809E-01  4.7522623447340E-01  9.1292221975052E-01
   102  1.0100000000000E+00  9.8989628141525E-02  3.9131763057060E-01  8.6976483288705E-01
   103  1.0200000000000E+00  9.0270311408013E-02  3.1573117474810E-01  8.2545438011891E-01
   104  1.0300000000000E+00  8.2529149580645E-02  2.4881526562713E-01  7.8011138408364E-01
   105  1.0400000000000E+00  7.5766731151755E-02  1.9066031403614E-01  7.3387607378461E-01
   106  1.0500000000000E+00  6.9924065941524E-02  1.4112267616394E-01  6.8691097680074E-01
   107  1.0600000000000E+00  6.4895388957414E-02  9.9853641013796E-02  6.3940284179901E-01
   108  1.0700000000000E+00  6.0541672890336E-02  6.6332189465058E-02  5.9156375036230E-01
   109  1.0800000000000E+00  5.6704246702975E-02  3.9900212572244E-02  5.4363130570816E-01
   110  1.0900000000000E+00  5.3217952603101E-02  1.9798892137987E-02  4.9586781928134E-01
   111  1.1000000000000E+00  4.9923327647971E-02  5.2050025772724E-03  4.4855845347193E-01
   112  1.1100000000000E+00  4.6677365102603E-02 -4.7340172832086E-03  4.0200831812613E-01
   113  1.1200000000000E+00  4.3362490512847E-02 -1.0867257937180E-02  3.5653855883638E-01
   114  1.1300000000000E+00  3.9893473061760E-02 -1.4010701074743E-02  3.1248151442152E-01
   115  1.1400000000000E+00  3.6222079277152E-02 -1.4921511643582E-02  2.7017505808018E-01
   116  1.1500000000000E+00  3.2339358242506E-02 -1.4276883830590E-02  2.2995626979638E-01
   117  1.1600000000000E+00  2.8275520158933E-02 -1.2657938264490E-02  1.9215461528828E-01
   118  1.1700000000000E+00  2.4097428592231E-02 -1.0539062540951E-02  1.5708482777230E-01
   119  1.1800000000000E+00  1.9903768998970E-02 -8.2830076526123E-03  1.2503970309261E-01
   120  1.1900000000000E+00  1.5817960876427E-02 -6.1420456283806E-03  9.6283010139021E-02
   121  1.2000000000000E+00  1.1972995515496E-02 -4.2758528843845E-03  7.1039731876119E-02
   122  1.2100000000000E+00  8.4389588607276E-03 -2.8753272883683E-03  4.9457202032669E-02
   123  1.2200000000000E+00  5.3750812839590E-03 -1.8898111922970E-03  3.1685253857459E-02
   124  1.2300000000000E+00  2.9439665783882E-03 -1.1765132849848E-03  1.7838173564732E-02
   125  1.2400000000000E+00  1.2438435083075E-03 -6.2671693723443E-04  7.9666493108303E-03
   126  1.2500000000000E+00  2.8941395237162E-04 -2.0209990637473E-04  2.0338541368873E-03
   127  1.2600000000000E+00  2.2679819963074E-06 -2.2627388659228E-06  1.8174774562732E-05
   128  1.2700000000000E+00  1.6804823971025E-06 -1.6009135067180E-06  1.3143369490788E-05
   129  1.2800000000000E+00 -3.6199231299420E-07  2.9000766258396E-07 -2.6578721306142E-06
   130  1.29 -0. -0. -0.
   131  1.30  0.  0.  0.
   132  1.31  0.  0.  0.
   133  1.32  0.  0.  0.
   134  1.33  0.  0.  0.
   135  1.34  0.  0.  0.
   136  1.35  0.  0.  0.
   137  1.36  0.  0.  0.
   138  1.37  0.  0.  0.
   139  1.38  0.  0.  0.
   140  1.39  0.  0.  0.
   141  1.40  0.  0.  0.
   142  1.41  0.  0.  0.
   143  1.42  0.  0.  0.
   144  1.43  0.  0.  0.
   145  1.44  0.  0.  0.
   146  1.45  0.  0.  0.
   147  1.46  0.  0.  0.
   148  1.47  0.  0.  0.
   149  1.48  0.  0.  0.
   150  1.49  0.  0.  0.
   151  1.50  0.  0.  0.
   152  1.51  0.  0.  0.
   153  1.52  0.  0.  0.
   154  1.53  0.  0.  0.
   155  1.54  0.  0.  0.
   156  1.55  0.  0.  0.
   157  1.56  0.  0.  0.
   158  1.57  0.  0.  0.
   159  1.58  0.  0.  0.
   160  1.59  0.  0.  0.
   161  1.60  0.  0.  0.
   162  1.61  0.  0.  0.
   163  1.62  0.  0.  0.
   164  1.63  0.  0.  0.
   165  1.64  0.  0.  0.
   166  1.65  0.  0.  0.
   167  1.66  0.  0.  0.
   168  1.67  0.  0.  0.
   169  1.68  0.  0.  0.
   170  1.69  0.  0.  0.
   171  1.70  0.  0.  0.
   172  1.71  0.  0.  0.
   173  1.72  0.  0.  0.
   174  1.73  0.  0.  0.
   175  1.74  0.  0.  0.
   176  1.75  0.  0.  0.
   177  1.76  0.  0.  0.
   178  1.77  0.  0.  0.
   179  1.78  0.  0.  0.
   180  1.79  0.  0.  0.
   181  1.80  0.  0.  0.
   182  1.81  0.  0.  0.
   183  1.82  0.  0.  0.
   184  1.83  0.  0.  0.
   185  1.84  0.  0.  0.
   186  1.85  0.  0.  0.
   187  1.86  0.  0.  0.
   188  1.87  0.  0.  0.
   189  1.88  0.  0.  0.
   190  1.89  0.  0.  0.
   191  1.90  0.  0.  0.
   192  1.91  0.  0.  0.
   193  1.92  0.  0.  0.
   194  1.93  0.  0.  0.
   195  1.94  0.  0.  0.
   196  1.95  0.  0.  0.
   197  1.96  0.  0.  0.
   198  1.97  0.  0.  0.
   199  1.98  0.  0.  0.
   200  1.99  0.  0.  0.
   201  2.00  0.  0.  0.
   202  2.01  0.  0.  0.
   203  2.02  0.  0.  0.
   204  2.03  0.  0.  0.
   205  2.04  0.  0.  0.
   206  2.05  0.  0.  0.
   207  2.06  0.  0.  0.
   208  2.07  0.  0.  0.
   209  2.08  0.  0.  0.
   210  2.09  0.  0.  0.
   211  2.10  0.  0.  0.
   212  2.11  0.  0.  0.
   213  2.12  0.  0.  0.
   214  2.13  0.  0.  0.
   215  2.14  0.  0.  0.
   216  2.15  0.  0.  0.
   217  2.16  0.  0.  0.
   218  2.17  0.  0.  0.
   219  2.18  0.  0.  0.
   220  2.19  0.  0.  0.
   221  2.20  0.  0.  0.
   222  2.21  0.  0.  0.
   223  2.22  0.  0.  0.
   224  2.23  0.  0.  0.
   225  2.24  0.  0.  0.
   226  2.25  0.  0.  0.
   227  2.26  0.  0.  0.
   228  2.27  0.  0.  0.
   229  2.28  0.  0.  0.
   230  2.29  0.  0.  0.
   231  2.30  0.  0.  0.
   232  2.31  0.  0.  0.
   233  2.32  0.  0.  0.
   234  2.33  0.  0.  0.
   235  2.34  0.  0.  0.
   236  2.35  0.  0.  0.
   237  2.36  0.  0.  0.
   238  2.37  0.  0.  0.
   239  2.38  0.  0.  0.
   240  2.39  0.  0.  0.
   241  2.40  0.  0.  0.
   242  2.41  0.  0.  0.
   243  2.42  0.  0.  0.
   244  2.43  0.  0.  0.
   245  2.44  0.  0.  0.
   246  2.45  0.  0.  0.
   247  2.46  0.  0.  0.
   248  2.47  0.  0.  0.
   249  2.48  0.  0.  0.
   250  2.49  0.  0.  0.
   251  2.50  0.  0.  0.
   252  2.51  0.  0.  0.
   253  2.52  0.  0.  0.
   254  2.53  0.  0.  0.
   255  2.54  0.  0.  0.
   256  2.55  0.  0.  0.
   257  2.56  0.  0.  0.
   258  2.57  0.  0.  0.
   259  2.58  0.  0.  0.
   260  2.59  0.  0.  0.
   261  2.60  0.  0.  0.
   262  2.61  0.  0.  0.
   263  2.62  0.  0.  0.
   264  2.63  0.  0.  0.
   265  2.64  0.  0.  0.
   266  2.65  0.  0.  0.
   267  2.66  0.  0.  0.
   268  2.67  0.  0.  0.
   269  2.68  0.  0.  0.
   270  2.69  0.  0.  0.
   271  2.70  0.  0.  0.
   272  2.71  0.  0.  0.
   273  2.72  0.  0.  0.
   274  2.73  0.  0.  0.
   275  2.74  0.  0.  0.
   276  2.75  0.  0.  0.
   277  2.76  0.  0.  0.
   278  2.77  0.  0.  0.
   279  2.78  0.  0.  0.
   280  2.79  0.  0.  0.
   281  2.80  0.  0.  0.
   282  2.81  0.  0.  0.
   283  2.82  0.  0.  0.
   284  2.83  0.  0.  0.
   285  2.84  0.  0.  0.
   286  2.85  0.  0.  0.
   287  2.86  0.  0.  0.
   288  2.87  0.  0.  0.
   289  2.88  0.  0.  0.
   290  2.89  0.  0.  0.
   291  2.90  0.  0.  0.
   292  2.91  0.  0.  0.
   293  2.92  0.  0.  0.
   294  2.93  0.  0.  0.
   295  2.94  0.  0.  0.
   296  2.95  0.  0.  0.
   297  2.96  0.  0.  0.
   298  2.97  0.  0.  0.
   299  2.98  0.  0.  0.
   300  2.99  0.  0.  0.
   301  3.00  0.  0.  0.
   302  3.01  0.  0.  0.
   303  3.02  0.  0.  0.
   304  3.03  0.  0.  0.
   305  3.04  0.  0.  0.
   306  3.05  0.  0.  0.
   307  3.06  0.  0.  0.
   308  3.07  0.  0.  0.
   309  3.08  0.  0.  0.
   310  3.09  0.  0.  0.
   311  3.10  0.  0.  0.
   312  3.11  0.  0.  0.
   313  3.12  0.  0.  0.
   314  3.13  0.  0.  0.
   315  3.14  0.  0.  0.
   316  3.15  0.  0.  0.
   317  3.16  0.  0.  0.
   318  3.17  0.  0.  0.
   319  3.18  0.  0.  0.
   320  3.19  0.  0.  0.
   321  3.20  0.  0.  0.
   322  3.21  0.  0.  0.
   323  3.22  0.  0.  0.
   324  3.23  0.  0.  0.
   325  3.24  0.  0.  0.
   326  3.25  0.  0.  0.
   327  3.26  0.  0.  0.
   328  3.27  0.  0.  0.
   329  3.28  0.  0.  0.
   330  3.29  0.  0.  0.
   331  3.30  0.  0.  0.
   332  3.31  0.  0.  0.
   333  3.32  0.  0.  0.
   334  3.33  0.  0.  0.
   335  3.34  0.  0.  0.
   336  3.35  0.  0.  0.
   337  3.36  0.  0.  0.
   338  3.37  0.  0.  0.
   339  3.38  0.  0.  0.
   340  3.39  0.  0.  0.
   341  3.40  0.  0.  0.
   342  3.41  0.  0.  0.
   343  3.42  0.  0.  0.
   344  3.43  0.  0.  0.
   345  3.44  0.  0.  0.
   346  3.45  0.  0.  0.
   347  3.46  0.  0.  0.
   348  3.47  0.  0.  0.
   349  3.48  0.  0.  0.
   350  3.49  0.  0.  0.
   351  3.50  0.  0.  0.
   352  3.51  0.  0.  0.
   353  3.52  0.  0.  0.
   354  3.53  0.  0.  0.
   355  3.54  0.  0.  0.
   356  3.55  0.  0.  0.
   357  3.56  0.  0.  0.
   358  3.57  0.  0.  0.
   359  3.58  0.  0.  0.
   360  3.59  0.  0.  0.
   361  3.60  0.  0.  0.
   362  3.61  0.  0.  0.
   363  3.62  0.  0.  0.
   364  3.63  0.  0.  0.
   365  3.64  0.  0.  0.
   366  3.65  0.  0.  0.
   367  3.66  0.  0.  0.
   368  3.67  0.  0.  0.
   369  3.68  0.  0.  0.
   370  3.69  0.  0.  0.
   371  3.70  0.  0.  0.
   372  3.71  0.  0.  0.
   373  3.72  0.  0.  0.
   374  3.73  0.  0.  0.
   375  3.74  0.  0.  0.
   376  3.75  0.  0.  0.
   377  3.76  0.  0.  0.
   378  3.77  0.  0.  0.
   379  3.78  0.  0.  0.
   380  3.79  0.  0.  0.
   381  3.80  0.  0.  0.
   382  3.81  0.  0.  0.
   383  3.82  0.  0.  0.
   384  3.83  0.  0.  0.
   385  3.84  0.  0.  0.
   386  3.85  0.  0.  0.
   387  3.86  0.  0.  0.
   388  3.87  0.  0.  0.
   389  3.88  0.  0.  0.
   390  3.89  0.  0.  0.
   391  3.90  0.  0.  0.
   392  3.91  0.  0.  0.
   393  3.92  0.  0.  0.
   394  3.93  0.  0.  0.
   395  3.94  0.  0.  0.
   396  3.95  0.  0.  0.
   397  3.96  0.  0.  0.
   398  3.97  0.  0.  0.
   399  3.98  0.  0.  0.
   400  3.99  0.  0.  0.
   401  4.00  0.  0.  0.
   402  4.01  0.  0.  0.
   403  4.02  0.  0.  0.
   404  4.03  0.  0.  0.
   405  4.04  0.  0.  0.
   406  4.05  0.  0.  0.
   407  4.06  0.  0.  0.
   408  4.07  0.  0.  0.
   409  4.08  0.  0.  0.
   410  4.09  0.  0.  0.
   411  4.10  0.  0.  0.
   412  4.11  0.  0.  0.
   413  4.12  0.  0.  0.
   414  4.13  0.  0.  0.
   415  4.14  0.  0.  0.
   416  4.15  0.  0.  0.
   417  4.16  0.  0.  0.
   418  4.17  0.  0.  0.
   419  4.18  0.  0.  0.
   420  4.19  0.  0.  0.
   421  4.20  0.  0.  0.
   422  4.21  0.  0.  0.
   423  4.22  0.  0.  0.
   424  4.23  0.  0.  0.
   425  4.24  0.  0.  0.
   426  4.25  0.  0.  0.
   427  4.26  0.  0.  0.
   428  4.27  0.  0.  0.
   429  4.28  0.  0.  0.
   430  4.29  0.  0.  0.
   431  4.30  0.  0.  0.
   432  4.31  0.  0.  0.
   433  4.32  0.  0.  0.
   434  4.33  0.  0.  0.
   435  4.34  0.  0.  0.
   436  4.35  0.  0.  0.
   437  4.36  0.  0.  0.
   438  4.37  0.  0.  0.
   439  4.38  0.  0.  0.
   440  4.39  0.  0.  0.
   441  4.40  0.  0.  0.
   442  4.41  0.  0.  0.
   443  4.42  0.  0.  0.
   444  4.43  0.  0.  0.
   445  4.44  0.  0.  0.
   446  4.45  0.  0.  0.
   447  4.46  0.  0.  0.
   448  4.47  0.  0.  0.
   449  4.48  0.  0.  0.
   450  4.49  0.  0.  0.
   451  4.50  0.  0.  0.
   452  4.51  0.  0.  0.
   453  4.52  0.  0.  0.
   454  4.53  0.  0.  0.
   455  4.54  0.  0.  0.
   456  4.55  0.  0.  0.
   457  4.56  0.  0.  0.
   458  4.57  0.  0.  0.
   459  4.58  0.  0.  0.
   460  4.59  0.  0.  0.
   461  4.60  0.  0.  0.
   462  4.61  0.  0.  0.
   463  4.62  0.  0.  0.
   464  4.63  0.  0.  0.
   465  4.64  0.  0.  0.
   466  4.65  0.  0.  0.
   467  4.66  0.  0.  0.
   468  4.67  0.  0.  0.
   469  4.68  0.  0.  0.
   470  4.69  0.  0.  0.
   471  4.70  0.  0.  0.
   472  4.71  0.  0.  0.
   473  4.72  0.  0.  0.
   474  4.73  0.  0.  0.
   475  4.74  0.  0.  0.
   476  4.75  0.  0.  0.
   477  4.76  0.  0.  0.
   478  4.77  0.  0.  0.
   479  4.78  0.  0.  0.
   480  4.79  0.  0.  0.
   481  4.80  0.  0.  0.
   482  4.81  0.  0.  0.
   483  4.82  0.  0.  0.
   484  4.83  0.  0.  0.
   485  4.84  0.  0.  0.
   486  4.85  0.  0.  0.
   487  4.86  0.  0.  0.
   488  4.87  0.  0.  0.
   489  4.88  0.  0.  0.
   490  4.89  0.  0.  0.
   491  4.90  0.  0.  0.
   492  4.91  0.  0.  0.
   493  4.92  0.  0.  0.
   494  4.93  0.  0.  0.
   495  4.94  0.  0.  0.
   496  4.95  0.  0.  0.
   497  4.96  0.  0.  0.
   498  4.97  0.  0.  0.
   499  4.98  0.  0.  0.
   500  4.99  0.  0.  0.
   501  5.00  0.  0.  0.
   502  5.01  0.  0.  0.
   503  5.02  0.  0.  0.
   504  5.03  0.  0.  0.
   505  5.04  0.  0.  0.
   506  5.05  0.  0.  0.
   507  5.06  0.  0.  0.
   508  5.07  0.  0.  0.
   509  5.08  0.  0.  0.
   510  5.09  0.  0.  0.
   511  5.10  0.  0.  0.
   512  5.11  0.  0.  0.
   513  5.12  0.  0.  0.
   514  5.13  0.  0.  0.
   515  5.14  0.  0.  0.
   516  5.15  0.  0.  0.
   517  5.16  0.  0.  0.
   518  5.17  0.  0.  0.
   519  5.18  0.  0.  0.
   520  5.19  0.  0.  0.
   521  5.20  0.  0.  0.
   522  5.21  0.  0.  0.
   523  5.22  0.  0.  0.
   524  5.23  0.  0.  0.
   525  5.24  0.  0.  0.
   526  5.25  0.  0.  0.
   527  5.26  0.  0.  0.
   528  5.27  0.  0.  0.
   529  5.28  0.  0.  0.
   530  5.29  0.  0.  0.
   531  5.30  0.  0.  0.
   532  5.31  0.  0.  0.
   533  5.32  0.  0.  0.
   534  5.33  0.  0.  0.
   535  5.34  0.  0.  0.
   536  5.35  0.  0.  0.
   537  5.36  0.  0.  0.
   538  5.37  0.  0.  0.
   539  5.38  0.  0.  0.
   540  5.39  0.  0.  0.
   541  5.40  0.  0.  0.
   542  5.41  0.  0.  0.
   543  5.42  0.  0.  0.
   544  5.43  0.  0.  0.
   545  5.44  0.  0.  0.
   546  5.45  0.  0.  0.
   547  5.46  0.  0.  0.
   548  5.47  0.  0.  0.
   549  5.48  0.  0.  0.
   550  5.49  0.  0.  0.
   551  5.50  0.  0.  0.
   552  5.51  0.  0.  0.
   553  5.52  0.  0.  0.
   554  5.53  0.  0.  0.
   555  5.54  0.  0.  0.
   556  5.55  0.  0.  0.
   557  5.56  0.  0.  0.
   558  5.57  0.  0.  0.
   559  5.58  0.  0.  0.
   560  5.59  0.  0.  0.
   561  5.60  0.  0.  0.
   562  5.61  0.  0.  0.
   563  5.62  0.  0.  0.
   564  5.63  0.  0.  0.
   565  5.64  0.  0.  0.
   566  5.65  0.  0.  0.
   567  5.66  0.  0.  0.
   568  5.67  0.  0.  0.
   569  5.68  0.  0.  0.
   570  5.69  0.  0.  0.
   571  5.70  0.  0.  0.
   572  5.71  0.  0.  0.
   573  5.72  0.  0.  0.
   574  5.73  0.  0.  0.
   575  5.74  0.  0.  0.
   576  5.75  0.  0.  0.
   577  5.76  0.  0.  0.
   578  5.77  0.  0.  0.
   579  5.78  0.  0.  0.
   580  5.79  0.  0.  0.
   581  5.80  0.  0.  0.
   582  5.81  0.  0.  0.
   583  5.82  0.  0.  0.
   584  5.83  0.  0.  0.
   585  5.84  0.  0.  0.
   586  5.85  0.  0.  0.
   587  5.86  0.  0.  0.
   588  5.87  0.  0.  0.
   589  5.88  0.  0.  0.
   590  5.89  0.  0.  0.
   591  5.90  0.  0.  0.
   592  5.91  0.  0.  0.
   593  5.92  0.  0.  0.
   594  5.93  0.  0.  0.
   595  5.94  0.  0.  0.
   596  5.95  0.  0.  0.
   597  5.96  0.  0.  0.
   598  5.97  0.  0.  0.
   599  5.98  0.  0.  0.
   600  5.99  0.  0.  0.
   1                         7.5453428164423E+00 -1.9754104316596E+00
     1  0.0000000000000E+00 -5.6198503073368E-09 -4.4306896797297E-09
     2  1.0000000000000E-02  3.9044231245562E-03  3.6064641109246E-04
     3  2.0000000000000E-02  1.5588845695914E-02  1.4458751681477E-03
     4  3.0000000000000E-02  3.4966812616896E-02  3.2654573301816E-03
     5  4.0000000000000E-02  6.1894520743079E-02  5.8353558774690E-03
     6  5.0000000000000E-02  9.6171266826805E-02  9.1772526729677E-03
     7  6.0000000000000E-02  1.3754010377241E-01  1.3317906157027E-02
     8  7.0000000000000E-02  1.8568873272305E-01  1.8288358968391E-02
     9  8.0000000000000E-02  2.4025066411943E-01  2.4123019115190E-02
    10  9.0000000000000E-02  3.0080668491326E-01  3.0858642006002E-02
    11  1.0000000000000E-01  3.6688667134688E-01  3.8533243476798E-02
    12  1.1000000000000E-01  4.3797178694876E-01  4.7184975825082E-02
    13  1.2000000000000E-01  5.1349710353698E-01  5.6850999727970E-02
    14  1.3000000000000E-01  5.9285467903493E-01  6.7566384748701E-02
    15  1.4000000000000E-01  6.7539711982690E-01  7.9363069930590E-02
    16  1.5000000000000E-01  7.6044164733185E-01  9.2268913776399E-02
    17  1.6000000000000E-01  8.4727467863869E-01  1.0630685978350E-01
    18  1.7000000000000E-01  9.3515691968054E-01  1.2149423974973E-01
    19  1.8000000000000E-01  1.0233289568418E+00  1.3784223240658E-01
    20  1.9000000000000E-01  1.1110173194545E+00  1.5535548972355E-01
    21  2.0000000000000E-01  1.1974409717525E+00  1.7403193762606E-01
    22  2.1000000000000E-01  1.2818181789434E+00  1.9386275205898E-01
    23  2.2000000000000E-01  1.3633736785716E+00  2.1483250549522E-01
    24  2.3000000000000E-01  1.4413460757290E+00  2.3691947332272E-01
    25  2.4000000000000E-01  1.5149953693440E+00  2.6009608422795E-01
    26  2.5000000000000E-01  1.5836105071578E+00  2.8432949390439E-01
    27  2.6000000000000E-01  1.6465168594281E+00  3.0958225730860E-01
    28  2.7000000000000E-01  1.7030834962006E+00  3.3581307140332E-01
    29  2.8000000000000E-01  1.7527301503983E+00  3.6297755797880E-01
    30  2.9000000000000E-01  1.7949337491717E+00  3.9102905481473E-01
    31  3.0000000000000E-01  1.8292343990184E+00  4.1991938318720E-01
    32  3.1000000000000E-01  1.8552407161382E+00  4.4959956055670E-01
    33  3.2000000000000E-01  1.8726344022545E+00  4.8002042917772E-01
    34  3.3000000000000E-01  1.8811739775546E+00  5.1113317429693E-01
    35  3.4000000000000E-01  1.8806975962421E+00  5.4288970947102E-01
    36  3.5000000000000E-01  1.8711248861324E+00  5.7524291122168E-01
    37  3.6000000000000E-01  1.8524577713950E+00  6.0814669061153E-01
    38  3.7000000000000E-01  1.8247802565005E+00  6.4155589520392E-01
    39  3.8000000000000E-01  1.7882571692044E+00  6.7542604107743E-01
    40  3.9000000000000E-01  1.7431318804730E+00  7.0971288090413E-01
    41  4.0000000000000E-01  1.6897230391157E+00  7.4437182036538E-01
    42  4.1000000000000E-01  1.6284203780039E+00  7.7935720116448E-01
    43  4.2000000000000E-01  1.5596796666227E+00  8.1462147440358E-01
    44  4.3000000000000E-01  1.4840169008456E+00  8.5011429293521E-01
    45  4.4000000000000E-01  1.4020018348105E+00  8.8578155530978E-01
    46  4.5000000000000E-01  1.3142509712358E+00  9.2156443697329E-01
    47  4.6000000000000E-01  1.2214201351481E+00  9.5739844630988E-01
    48  4.7000000000000E-01  1.1241967615776E+00  9.9321254388868E-01
    49  4.8000000000000E-01  1.0232920301745E+00  1.0289283628158E+00
    50  4.9000000000000E-01  9.1943297887338E-01  1.0644595664019E+00
    51  5.0000000000000E-01  8.1335472472762E-01  1.0997113764635E+00
    52  5.1000000000000E-01  7.0579291299892E-01  1.1345803015462E+00
    53  5.2000000000000E-01  5.9747650574755E-01  1.1689540893018E+00
    54  5.3000000000000E-01  4.8912100884281E-01  1.2027119212975E+00
    55  5.4000000000000E-01  3.8142222188380E-01  1.2357248618611E+00
    56  5.5000000000000E-01  2.7505057943731E-01  1.2678565653606E+00
    57  5.6000000000000E-01  1.7064613475539E-01  1.2989642387921E+00
    58  5.7000000000000E-01  6.8814219257730E-02  1.3288998489362E+00
    59  5.8000000000000E-01 -2.9878206904718E-02  1.3575115558717E+00
    60  5.9000000000000E-01 -1.2490551540676E-01  1.3846453475351E+00
    61  6.0000000000000E-01 -2.1578570017245E-01  1.4101468435129E+00
    62  6.1000000000000E-01 -3.0208203149270E-01  1.4338632305593E+00
    63  6.2000000000000E-01 -3.8340412084497E-01  1.4556452876270E+00
    64  6.3000000000000E-01 -4.5940845432849E-01  1.4753494546476E+00
    65  6.4000000000000E-01 -5.2979846096187E-01  1.4928398970209E+00
    66  6.5000000000000E-01 -5.9432418764037E-01  1.5079905168613E+00
    67  6.6000000000000E-01 -6.5278165520065E-01  1.5206868625474E+00
    68  6.7000000000000E-01 -7.0501196977277E-01  1.5308278900311E+00
    69  6.8000000000000E-01 -7.5090026049115E-01  1.5383275326530E+00
    70  6.9000000000000E-01 -7.9037450886636E-01  1.5431160407842E+00
    71  7.0000000000000E-01 -8.2340432695312E-01  1.5451410583658E+00
    72  7.1000000000000E-01 -8.4999973124072E-01  1.5443684101650E+00
    73  7.2000000000000E-01 -8.7020994735895E-01  1.5407825811387E+00
    74  7.3000000000000E-01 -8.8412226771900E-01  1.5343868774491E+00
    75  7.4000000000000E-01 -8.9186097061562E-01  1.5252032671872E+00
    76  7.5000000000000E-01 -8.9358629565200E-01  1.5132719074628E+00
    77  7.6000000000000E-01 -8.8949345716682E-01  1.4986503729599E+00
    78  7.7000000000000E-01 -8.7981166518628E-01  1.4814126090683E+00
    79  7.8000000000000E-01 -8.6480311280201E-01  1.4616476400508E+00
    80  7.9000000000000E-01 -8.4476188025340E-01  1.4394580691490E+00
    81  8.0000000000000E-01 -8.2001269976592E-01  1.4149584128744E+00
    82  8.1000000000000E-01 -7.9090952168366E-01  1.3882733158019E+00
    83  8.2000000000000E-01 -7.5783382186012E-01  1.3595356948498E+00
    84  8.3000000000000E-01 -7.2119259276171E-01  1.3288848632010E+00
    85  8.4000000000000E-01 -6.8141596631015E-01  1.2964646836538E+00