Np    ONCVPSP-4.0.1  r_core=   1.25290   1.25290   1.40371   1.50818
93.0000     33.0000      220205    zatom,zion,pspd
8      11   3     4   600     0    pspcod,pspxc,lmax,lloc,mmax,r2well
5.99000000  5.00000000  0.00000000    rchrg fchrg qchrg
3     2     2     2     0    nproj
1     1           extension_switch
0                         1.9825860157187E+01  2.9326194041644E+00 -9.4884276394021E-01
1  0.0000000000000E+00 -1.0521597793023E-07  2.9334731727060E-07  4.1079718515746E-09
2  1.0000000000000E-02  1.4751826171690E-01 -8.7212576115430E-02  2.2441495653361E-02
3  2.0000000000000E-02  2.9364923047423E-01 -1.7173972555845E-01  4.4897429307172E-02
4  3.0000000000000E-02  4.3703544394227E-01 -2.5097516567713E-01  6.7380505154690E-02
5  4.0000000000000E-02  5.7637820898007E-01 -3.2246841560918E-01  8.9900010274879E-02
6  5.0000000000000E-02  7.1046478462860E-01 -3.8399656117370E-01  1.1246023126459E-01
7  6.0000000000000E-02  8.3819300226900E-01 -4.3362887694612E-01  1.3505901814083E-01
8  7.0000000000000E-02  9.5859259772784E-01 -4.6978228427654E-01  1.5768653971513E-01
9  8.0000000000000E-02  1.0708426353275E+00 -4.9126591735897E-01  1.8032427053414E-01
10  9.0000000000000E-02  1.1742845288483E+00 -4.9731341800636E-01  2.0294424444930E-01
11  1.0000000000000E-01  1.2684303050391E+00 -4.8760197230817E-01  2.2550860399482E-01
12  1.1000000000000E-01  1.3529659071211E+00 -4.6225752620702E-01  2.4796946810489E-01
13  1.2000000000000E-01  1.4277494937611E+00 -4.2184605858145E-01  2.7026913339040E-01
14  1.3000000000000E-01  1.4928048481180E+00 -3.6735123545425E-01  2.9234061634371E-01
15  1.4000000000000E-01  1.5483101666394E+00 -3.0013920314080E-01  3.1410853558314E-01
16  1.5000000000000E-01  1.5945826432852E+00 -2.2191168754877E-01  3.3549032473910E-01
17  1.6000000000000E-01  1.6320593970561E+00 -1.3464893827999E-01  3.5639775798886E-01
18  1.7000000000000E-01  1.6612754048378E+00 -4.0544377745999E-02  3.7673876174674E-01
19  1.8000000000000E-01  1.6828391939516E+00  5.8066923124167E-02  3.9641947780083E-01
20  1.9000000000000E-01  1.6974071164654E+00  1.5878362818752E-01  4.1534653545449E-01
21  2.0000000000000E-01  1.7056570680885E+00  2.5921494588490E-01  4.3342948318068E-01
22  2.1000000000000E-01  1.7082625270722E+00  3.5705639331405E-01  4.5058332412921E-01
23  2.2000000000000E-01  1.7058677725903E+00  4.5016208227278E-01  4.6673109473278E-01
24  2.3000000000000E-01  1.6990650981404E+00  5.3661121310572E-01  4.8180642181818E-01
25  2.4000000000000E-01  1.6883747650615E+00  6.1476665465540E-01  4.9575599120448E-01
26  2.5000000000000E-01  1.6742283466457E+00  6.8332374909027E-01  5.0854185989911E-01
27  2.6000000000000E-01  1.6569559976440E+00  7.4134780037509E-01  5.2014354479077E-01
28  2.7000000000000E-01  1.6367780510503E+00  7.8829907423097E-01  5.3055982325746E-01
29  2.8000000000000E-01  1.6138011982418E+00  8.2404454362209E-01  5.3981018538788E-01
30  2.9000000000000E-01  1.5880193546603E+00  8.4885604392047E-01  5.4793588354064E-01
31  3.0000000000000E-01  1.5593191562635E+00  8.6339494200295E-01  5.5500053267510E-01
32  3.1000000000000E-01  1.5274898770974E+00  8.6868385939404E-01  5.6109022416668E-01
33  3.2000000000000E-01  1.4922374106169E+00  8.6606640709957E-01  5.6631312650629E-01
34  3.3000000000000E-01  1.4532018216035E+00  8.5715627552875E-01  5.7079855816393E-01
35  3.4000000000000E-01  1.4099778561533E+00  8.4377736446606E-01  5.7469553071300E-01
36  3.5000000000000E-01  1.3621376980884E+00  8.2789692448496E-01  5.7817077376318E-01
37  3.6000000000000E-01  1.3092551845037E+00  8.1155390336693E-01  5.8140626699994E-01
38  3.7000000000000E-01  1.2509306434357E+00  7.9678484196349E-01  5.8459631831431E-01
39  3.8000000000000E-01  1.1868154943987E+00  7.8554973883708E-01  5.8794424024411E-01
40  3.9000000000000E-01  1.1166357584743E+00  7.7966029971610E-01  5.9165868934874E-01
41  4.0000000000000E-01  1.0402136584917E+00  7.8071290664242E-01  5.9594974431452E-01
42  4.1000000000000E-01  9.5748655045533E-01  7.9002848554888E-01  6.0102480816818E-01
43  4.2000000000000E-01  8.6852251271052E-01  8.0860122516484E-01  6.0708442761522E-01
44  4.3000000000000E-01  7.7353202654926E-01  8.3705781218255E-01  6.1431812791651E-01
45  4.4000000000000E-01  6.7287530748865E-01  8.7562850704865E-01  6.2290036461670E-01
46  4.5000000000000E-01  5.6706498616044E-01  9.2413100282298E-01  6.3298669365252E-01
47  4.6000000000000E-01  4.5676398703230E-01  9.8196759877888E-01  6.4471025877794E-01
48  4.7000000000000E-01  3.4277860714364E-01  1.0481357942342E+00  6.5817868980717E-01
49  4.8000000000000E-01  2.2604695065012E-01  1.1212519803539E+00  6.7347149693795E-01
50  4.9000000000000E-01  1.0762302323285E-01  1.1995874921906E+00  6.9063803550820E-01
51  5.0000000000000E-01 -1.1343071461622E-02  1.2811158934032E+00  7.0969610217396E-01
52  5.1000000000000E-01 -1.2962826766996E-01  1.3635700143733E+00  7.3063120797835E-01
53  5.2000000000000E-01 -2.4596233498934E-01  1.4445069619597E+00  7.5339655648867E-01
54  5.3000000000000E-01 -3.5905558369064E-01  1.5213790753592E+00  7.7791373656120E-01
55  5.4000000000000E-01 -4.6762766535618E-01  1.5916086249488E+00  8.0407411985987E-01
56  5.5000000000000E-01 -5.7043662377624E-01  1.6526639448328E+00  8.3174093355964E-01
57  5.6000000000000E-01 -6.6630734552239E-01  1.7021346579826E+00  8.6075195929171E-01
58  5.7000000000000E-01 -7.5415858111132E-01  1.7378036957515E+00  8.9092279093269E-01
59  5.8000000000000E-01 -8.3302775526789E-01  1.7577139291475E+00  9.2205056689303E-01
60  5.9000000000000E-01 -9.0209285671295E-01  1.7602274131213E+00  9.5391807768813E-01
61  6.0000000000000E-01 -9.6069079158530E-01  1.7440754906828E+00  9.8629813729791E-01
62  6.1000000000000E-01 -1.0083316967952E+00  1.7083983023057E+00  1.0189580975975E+00
63  6.2000000000000E-01 -1.0447088364635E+00  1.6527725875759E+00  1.0516643793504E+00
64  6.3000000000000E-01 -1.0697038418360E+00  1.5772270388371E+00  1.0841868911809E+00
65  6.4000000000000E-01 -1.0833871980946E+00  1.4822448582440E+00  1.1163032097587E+00
66  6.5000000000000E-01 -1.0860140255952E+00  1.3687535672141E+00  1.1478024001961E+00
67  6.6000000000000E-01 -1.0780153435329E+00  1.2381025078034E+00  1.1784883653123E+00
68  6.7000000000000E-01 -1.0599851363660E+00  1.0920288464730E+00  1.2081826257633E+00
69  6.8000000000000E-01 -1.0326636633141E+00  9.3261323029531E-01  1.2367264497649E+00
70  6.9000000000000E-01 -9.9691755518535E-01  7.6222654333896E-01  1.2639822708086E+00
71  7.0000000000000E-01 -9.5371732754695E-01  5.8346945778263E-01  1.2898343538437E+00
72  7.1000000000000E-01 -9.0411300241649E-01  3.9910666306851E-01  1.3141886942504E+00
73  7.2000000000000E-01 -8.4920857054403E-01  2.1199778201162E-01  1.3369721588243E+00
74  7.3000000000000E-01 -7.9013604213800E-01  2.5027042310089E-02  1.3581309031877E+00
75  7.4000000000000E-01 -7.2802982553747E-01 -1.5896623530216E-01  1.3776281247157E+00
76  7.5000000000000E-01 -6.6400214164794E-01 -3.3725434337458E-01  1.3954412334217E+00
77  7.6000000000000E-01 -5.9912012851592E-01 -5.0728323340837E-01  1.4115585444869E+00
78  7.7000000000000E-01 -5.3438521750689E-01 -6.6672823518446E-01  1.4259756144982E+00
79  7.8000000000000E-01 -4.7071527306470E-01 -8.1354202170897E-01  1.4386913583084E+00
80  7.9000000000000E-01 -4.0892988538717E-01 -9.4599366861633E-01  1.4497040941627E+00
81  8.0000000000000E-01 -3.4973909332524E-01 -1.0626979629391E+00  1.4590076708829E+00
82  8.1000000000000E-01 -2.9373569742216E-01 -1.1626344405760E+00  1.4665878321429E+00
83  8.2000000000000E-01 -2.4139120435711E-01 -1.2451559633874E+00  1.4724189690114E+00
84  8.3000000000000E-01 -1.9305532819355E-01 -1.3099869744579E+00  1.4764614029717E+00
85  8.4000000000000E-01 -1.4895886459225E-01 -1.3572118829963E+00  1.4786593276867E+00
86  8.5000000000000E-01 -1.0921965505063E-01 -1.3872543186353E+00  1.4789395191748E+00
87  8.6000000000000E-01 -7.3851272322910E-02 -1.4008482497513E+00  1.4772109012597E+00
88  8.7000000000000E-01 -4.2773987969008E-02 -1.3990021744539E+00  1.4733650267745E+00
89  8.8000000000000E-01 -1.5827530349205E-02 -1.3829577602918E+00  1.4672775057782E+00
90  8.9000000000000E-01  7.2148924730146E-03 -1.3541444255193E+00  1.4588103808480E+00
91  9.0000000000000E-01  2.6631845045839E-02 -1.3141314188281E+00  1.4478154172896E+00
92  9.1000000000000E-01  4.2738727717730E-02 -1.2645789655646E+00  1.4341382438580E+00
93  9.2000000000000E-01  5.5873163713454E-02 -1.2071900082304E+00  1.4176232483590E+00
94  9.3000000000000E-01  6.6381183804013E-02 -1.1436639808461E+00  1.3981191033256E+00
95  9.4000000000000E-01  7.4604628358688E-02 -1.0756539254230E+00  1.3754847708464E+00
96  9.5000000000000E-01  8.0870120541064E-02 -1.0047280905043E+00  1.3495958134994E+00
97  9.6000000000000E-01  8.5479889118227E-02 -9.3233695369952E-01  1.3203508210589E+00
98  9.7000000000000E-01  8.8704637882932E-02 -8.5978639031291E-01  1.2876777509132E+00
99  9.8000000000000E-01  9.0778574138909E-02 -7.8821747668529E-01  1.2515399745273E+00
100  9.9000000000000E-01  9.1896624263800E-02 -7.1859317824876E-01  1.2119418232321E+00
101  1.0000000000000E+00  9.2213782940281E-02 -6.5169193639941E-01  1.1689334343215E+00
102  1.0100000000000E+00  9.1846466956446E-02 -5.8810794267290E-01  1.1226147129465E+00
103  1.0200000000000E+00  9.0875676746665E-02 -5.2825767966103E-01  1.0731382464530E+00
104  1.0300000000000E+00  8.9351710993589E-02 -4.7239212130314E-01  1.0207110352636E+00
105  1.0400000000000E+00  8.7300132860561E-02 -4.2061382451056E-01  9.6559493758309E-01
106  1.0500000000000E+00  8.4728651445284E-02 -3.7289801195358E-01  9.0810576350045E-01
107  1.0600000000000E+00  8.1634559028345E-02 -3.2911664367062E-01  8.4861099647352E-01
108  1.0700000000000E+00  7.8012352989855E-02 -2.8906440197800E-01  7.8752616578960E-01
109  1.0800000000000E+00  7.3861169867963E-02 -2.5248546808475E-01  7.2530994135216E-01
110  1.0900000000000E+00  6.9191666188060E-02 -2.1909994625918E-01  6.6245807062967E-01
111  1.1000000000000E+00  6.4031994348696E-02 -1.8862878745405E-01  5.9949632593352E-01
112  1.1100000000000E+00  5.8432539345611E-02 -1.6081607305068E-01  5.3697267670405E-01
113  1.1200000000000E+00  5.2469100691984E-02 -1.3544753398121E-01  4.7544894528334E-01
114  1.1300000000000E+00  4.6244220377052E-02 -1.1236419342330E-01  4.1549224426586E-01
115  1.1400000000000E+00  3.9886368978511E-02 -9.1470024742084E-02  3.5766652796448E-01
116  1.1500000000000E+00  3.3546704863559E-02 -7.2732502373183E-02  3.0252461867604E-01
117  1.1600000000000E+00  2.7393112742436E-02 -5.6174884218408E-02  2.5060108940250E-01
118  1.1700000000000E+00  2.1601227693135E-02 -4.1859046290885E-02  2.0240641709349E-01
119  1.1800000000000E+00  1.6341919624266E-02 -2.9857131089894E-02  1.5842266299573E-01
120  1.1900000000000E+00  1.1764813431029E-02 -2.0210498799393E-02  1.1910111681241E-01
121  1.2000000000000E+00  7.9303783947655E-03 -1.2763524959026E-02  8.4821506480773E-02
122  1.2100000000000E+00  4.8676380810552E-03 -7.2881588306103E-03  5.5960934113173E-02
123  1.2200000000000E+00  2.6071600416476E-03 -3.5858278944205E-03  3.2893920899270E-02
124  1.2300000000000E+00  1.1148495326140E-03 -1.3745435018089E-03  1.5867610637536E-02
125  1.2400000000000E+00  2.9851911129457E-04 -3.1376590602402E-04  4.9785717481372E-03
126  1.2500000000000E+00  1.5684383226164E-05 -1.2048791363223E-05  3.2952059545748E-04
127  1.2600000000000E+00 -3.7529302953269E-07  1.9775415747107E-07 -9.2347763369531E-06
128  1.2700000000000E+00 -1.8725193726822E-07  1.7015261998193E-07 -3.5144360063210E-06
129  1.28 -0.  0. -0.
130  1.29  0.  0.  0.
131  1.30  0.  0.  0.
132  1.31  0.  0.  0.
133  1.32  0.  0.  0.
134  1.33  0.  0.  0.
135  1.34  0.  0.  0.
136  1.35  0.  0.  0.
137  1.36  0.  0.  0.
138  1.37  0.  0.  0.
139  1.38  0.  0.  0.
140  1.39  0.  0.  0.
141  1.40  0.  0.  0.
142  1.41  0.  0.  0.
143  1.42  0.  0.  0.
144  1.43  0.  0.  0.
145  1.44  0.  0.  0.
146  1.45  0.  0.  0.
147  1.46  0.  0.  0.
148  1.47  0.  0.  0.
149  1.48  0.  0.  0.
150  1.49  0.  0.  0.
151  1.50  0.  0.  0.
152  1.51  0.  0.  0.
153  1.52  0.  0.  0.
154  1.53  0.  0.  0.
155  1.54  0.  0.  0.
156  1.55  0.  0.  0.
157  1.56  0.  0.  0.
158  1.57  0.  0.  0.
159  1.58  0.  0.  0.
160  1.59  0.  0.  0.
161  1.60  0.  0.  0.
162  1.61  0.  0.  0.
163  1.62  0.  0.  0.
164  1.63  0.  0.  0.
165  1.64  0.  0.  0.
166  1.65  0.  0.  0.
167  1.66  0.  0.  0.
168  1.67  0.  0.  0.
169  1.68  0.  0.  0.
170  1.69  0.  0.  0.
171  1.70  0.  0.  0.
172  1.71  0.  0.  0.
173  1.72  0.  0.  0.
174  1.73  0.  0.  0.
175  1.74  0.  0.  0.
176  1.75  0.  0.  0.
177  1.76  0.  0.  0.
178  1.77  0.  0.  0.
179  1.78  0.  0.  0.
180  1.79  0.  0.  0.
181  1.80  0.  0.  0.
182  1.81  0.  0.  0.
183  1.82  0.  0.  0.
184  1.83  0.  0.  0.
185  1.84  0.  0.  0.
186  1.85  0.  0.  0.
187  1.86  0.  0.  0.
188  1.87  0.  0.  0.
189  1.88  0.  0.  0.
190  1.89  0.  0.  0.
191  1.90  0.  0.  0.
192  1.91  0.  0.  0.
193  1.92  0.  0.  0.
194  1.93  0.  0.  0.
195  1.94  0.  0.  0.
196  1.95  0.  0.  0.
197  1.96  0.  0.  0.
198  1.97  0.  0.  0.
199  1.98  0.  0.  0.
200  1.99  0.  0.  0.
201  2.00  0.  0.  0.
202  2.01  0.  0.  0.
203  2.02  0.  0.  0.
204  2.03  0.  0.  0.
205  2.04  0.  0.  0.
206  2.05  0.  0.  0.
207  2.06  0.  0.  0.
208  2.07  0.  0.  0.
209  2.08  0.  0.  0.
210  2.09  0.  0.  0.
211  2.10  0.  0.  0.
212  2.11  0.  0.  0.
213  2.12  0.  0.  0.
214  2.13  0.  0.  0.
215  2.14  0.  0.  0.
216  2.15  0.  0.  0.
217  2.16  0.  0.  0.
218  2.17  0.  0.  0.
219  2.18  0.  0.  0.
220  2.19  0.  0.  0.
221  2.20  0.  0.  0.
222  2.21  0.  0.  0.
223  2.22  0.  0.  0.
224  2.23  0.  0.  0.
225  2.24  0.  0.  0.
226  2.25  0.  0.  0.
227  2.26  0.  0.  0.
228  2.27  0.  0.  0.
229  2.28  0.  0.  0.
230  2.29  0.  0.  0.
231  2.30  0.  0.  0.
232  2.31  0.  0.  0.
233  2.32  0.  0.  0.
234  2.33  0.  0.  0.
235  2.34  0.  0.  0.
236  2.35  0.  0.  0.
237  2.36  0.  0.  0.
238  2.37  0.  0.  0.
239  2.38  0.  0.  0.
240  2.39  0.  0.  0.
241  2.40  0.  0.  0.
242  2.41  0.  0.  0.
243  2.42  0.  0.  0.
244  2.43  0.  0.  0.
245  2.44  0.  0.  0.
246  2.45  0.  0.  0.
247  2.46  0.  0.  0.
248  2.47  0.  0.  0.
249  2.48  0.  0.  0.
250  2.49  0.  0.  0.
251  2.50  0.  0.  0.
252  2.51  0.  0.  0.
253  2.52  0.  0.  0.
254  2.53  0.  0.  0.
255  2.54  0.  0.  0.
256  2.55  0.  0.  0.
257  2.56  0.  0.  0.
258  2.57  0.  0.  0.
259  2.58  0.  0.  0.
260  2.59  0.  0.  0.
261  2.60  0.  0.  0.
262  2.61  0.  0.  0.
263  2.62  0.  0.  0.
264  2.63  0.  0.  0.
265  2.64  0.  0.  0.
266  2.65  0.  0.  0.
267  2.66  0.  0.  0.
268  2.67  0.  0.  0.
269  2.68  0.  0.  0.
270  2.69  0.  0.  0.
271  2.70  0.  0.  0.
272  2.71  0.  0.  0.
273  2.72  0.  0.  0.
274  2.73  0.  0.  0.
275  2.74  0.  0.  0.
276  2.75  0.  0.  0.
277  2.76  0.  0.  0.
278  2.77  0.  0.  0.
279  2.78  0.  0.  0.
280  2.79  0.  0.  0.
281  2.80  0.  0.  0.
282  2.81  0.  0.  0.
283  2.82  0.  0.  0.
284  2.83  0.  0.  0.
285  2.84  0.  0.  0.
286  2.85  0.  0.  0.
287  2.86  0.  0.  0.
288  2.87  0.  0.  0.
289  2.88  0.  0.  0.
290  2.89  0.  0.  0.
291  2.90  0.  0.  0.
292  2.91  0.  0.  0.
293  2.92  0.  0.  0.
294  2.93  0.  0.  0.
295  2.94  0.  0.  0.
296  2.95  0.  0.  0.
297  2.96  0.  0.  0.
298  2.97  0.  0.  0.
299  2.98  0.  0.  0.
300  2.99  0.  0.  0.
301  3.00  0.  0.  0.
302  3.01  0.  0.  0.
303  3.02  0.  0.  0.
304  3.03  0.  0.  0.
305  3.04  0.  0.  0.
306  3.05  0.  0.  0.
307  3.06  0.  0.  0.
308  3.07  0.  0.  0.
309  3.08  0.  0.  0.
310  3.09  0.  0.  0.
311  3.10  0.  0.  0.
312  3.11  0.  0.  0.
313  3.12  0.  0.  0.
314  3.13  0.  0.  0.
315  3.14  0.  0.  0.
316  3.15  0.  0.  0.
317  3.16  0.  0.  0.
318  3.17  0.  0.  0.
319  3.18  0.  0.  0.
320  3.19  0.  0.  0.
321  3.20  0.  0.  0.
322  3.21  0.  0.  0.
323  3.22  0.  0.  0.
324  3.23  0.  0.  0.
325  3.24  0.  0.  0.
326  3.25  0.  0.  0.
327  3.26  0.  0.  0.
328  3.27  0.  0.  0.
329  3.28  0.  0.  0.
330  3.29  0.  0.  0.
331  3.30  0.  0.  0.
332  3.31  0.  0.  0.
333  3.32  0.  0.  0.
334  3.33  0.  0.  0.
335  3.34  0.  0.  0.
336  3.35  0.  0.  0.
337  3.36  0.  0.  0.
338  3.37  0.  0.  0.
339  3.38  0.  0.  0.
340  3.39  0.  0.  0.
341  3.40  0.  0.  0.
342  3.41  0.  0.  0.
343  3.42  0.  0.  0.
344  3.43  0.  0.  0.
345  3.44  0.  0.  0.
346  3.45  0.  0.  0.
347  3.46  0.  0.  0.
348  3.47  0.  0.  0.
349  3.48  0.  0.  0.
350  3.49  0.  0.  0.
351  3.50  0.  0.  0.
352  3.51  0.  0.  0.
353  3.52  0.  0.  0.
354  3.53  0.  0.  0.
355  3.54  0.  0.  0.
356  3.55  0.  0.  0.
357  3.56  0.  0.  0.
358  3.57  0.  0.  0.
359  3.58  0.  0.  0.
360  3.59  0.  0.  0.
361  3.60  0.  0.  0.
362  3.61  0.  0.  0.
363  3.62  0.  0.  0.
364  3.63  0.  0.  0.
365  3.64  0.  0.  0.
366  3.65  0.  0.  0.
367  3.66  0.  0.  0.
368  3.67  0.  0.  0.
369  3.68  0.  0.  0.
370  3.69  0.  0.  0.
371  3.70  0.  0.  0.
372  3.71  0.  0.  0.
373  3.72  0.  0.  0.
374  3.73  0.  0.  0.
375  3.74  0.  0.  0.
376  3.75  0.  0.  0.
377  3.76  0.  0.  0.
378  3.77  0.  0.  0.
379  3.78  0.  0.  0.
380  3.79  0.  0.  0.
381  3.80  0.  0.  0.
382  3.81  0.  0.  0.
383  3.82  0.  0.  0.
384  3.83  0.  0.  0.
385  3.84  0.  0.  0.
386  3.85  0.  0.  0.
387  3.86  0.  0.  0.
388  3.87  0.  0.  0.
389  3.88  0.  0.  0.
390  3.89  0.  0.  0.
391  3.90  0.  0.  0.
392  3.91  0.  0.  0.
393  3.92  0.  0.  0.
394  3.93  0.  0.  0.
395  3.94  0.  0.  0.
396  3.95  0.  0.  0.
397  3.96  0.  0.  0.
398  3.97  0.  0.  0.
399  3.98  0.  0.  0.
400  3.99  0.  0.  0.
401  4.00  0.  0.  0.
402  4.01  0.  0.  0.
403  4.02  0.  0.  0.
404  4.03  0.  0.  0.
405  4.04  0.  0.  0.
406  4.05  0.  0.  0.
407  4.06  0.  0.  0.
408  4.07  0.  0.  0.
409  4.08  0.  0.  0.
410  4.09  0.  0.  0.
411  4.10  0.  0.  0.
412  4.11  0.  0.  0.
413  4.12  0.  0.  0.
414  4.13  0.  0.  0.
415  4.14  0.  0.  0.
416  4.15  0.  0.  0.
417  4.16  0.  0.  0.
418  4.17  0.  0.  0.
419  4.18  0.  0.  0.
420  4.19  0.  0.  0.
421  4.20  0.  0.  0.
422  4.21  0.  0.  0.
423  4.22  0.  0.  0.
424  4.23  0.  0.  0.
425  4.24  0.  0.  0.
426  4.25  0.  0.  0.
427  4.26  0.  0.  0.
428  4.27  0.  0.  0.
429  4.28  0.  0.  0.
430  4.29  0.  0.  0.
431  4.30  0.  0.  0.
432  4.31  0.  0.  0.
433  4.32  0.  0.  0.
434  4.33  0.  0.  0.
435  4.34  0.  0.  0.
436  4.35  0.  0.  0.
437  4.36  0.  0.  0.
438  4.37  0.  0.  0.
439  4.38  0.  0.  0.
440  4.39  0.  0.  0.
441  4.40  0.  0.  0.
442  4.41  0.  0.  0.
443  4.42  0.  0.  0.
444  4.43  0.  0.  0.
445  4.44  0.  0.  0.
446  4.45  0.  0.  0.
447  4.46  0.  0.  0.
448  4.47  0.  0.  0.
449  4.48  0.  0.  0.
450  4.49  0.  0.  0.
451  4.50  0.  0.  0.
452  4.51  0.  0.  0.
453  4.52  0.  0.  0.
454  4.53  0.  0.  0.
455  4.54  0.  0.  0.
456  4.55  0.  0.  0.
457  4.56  0.  0.  0.
458  4.57  0.  0.  0.
459  4.58  0.  0.  0.
460  4.59  0.  0.  0.
461  4.60  0.  0.  0.
462  4.61  0.  0.  0.
463  4.62  0.  0.  0.
464  4.63  0.  0.  0.
465  4.64  0.  0.  0.
466  4.65  0.  0.  0.
467  4.66  0.  0.  0.
468  4.67  0.  0.  0.
469  4.68  0.  0.  0.
470  4.69  0.  0.  0.
471  4.70  0.  0.  0.
472  4.71  0.  0.  0.
473  4.72  0.  0.  0.
474  4.73  0.  0.  0.
475  4.74  0.  0.  0.
476  4.75  0.  0.  0.
477  4.76  0.  0.  0.
478  4.77  0.  0.  0.
479  4.78  0.  0.  0.
480  4.79  0.  0.  0.
481  4.80  0.  0.  0.
482  4.81  0.  0.  0.
483  4.82  0.  0.  0.
484  4.83  0.  0.  0.
485  4.84  0.  0.  0.
486  4.85  0.  0.  0.
487  4.86  0.  0.  0.
488  4.87  0.  0.  0.
489  4.88  0.  0.  0.
490  4.89  0.  0.  0.
491  4.90  0.  0.  0.
492  4.91  0.  0.  0.
493  4.92  0.  0.  0.
494  4.93  0.  0.  0.
495  4.94  0.  0.  0.
496  4.95  0.  0.  0.
497  4.96  0.  0.  0.
498  4.97  0.  0.  0.
499  4.98  0.  0.  0.
500  4.99  0.  0.  0.
501  5.00  0.  0.  0.
502  5.01  0.  0.  0.
503  5.02  0.  0.  0.
504  5.03  0.  0.  0.
505  5.04  0.  0.  0.
506  5.05  0.  0.  0.
507  5.06  0.  0.  0.
508  5.07  0.  0.  0.
509  5.08  0.  0.  0.
510  5.09  0.  0.  0.
511  5.10  0.  0.  0.
512  5.11  0.  0.  0.
513  5.12  0.  0.  0.
514  5.13  0.  0.  0.
515  5.14  0.  0.  0.
516  5.15  0.  0.  0.
517  5.16  0.  0.  0.
518  5.17  0.  0.  0.
519  5.18  0.  0.  0.
520  5.19  0.  0.  0.
521  5.20  0.  0.  0.
522  5.21  0.  0.  0.
523  5.22  0.  0.  0.
524  5.23  0.  0.  0.
525  5.24  0.  0.  0.
526  5.25  0.  0.  0.
527  5.26  0.  0.  0.
528  5.27  0.  0.  0.
529  5.28  0.  0.  0.
530  5.29  0.  0.  0.
531  5.30  0.  0.  0.
532  5.31  0.  0.  0.
533  5.32  0.  0.  0.
534  5.33  0.  0.  0.
535  5.34  0.  0.  0.
536  5.35  0.  0.  0.
537  5.36  0.  0.  0.
538  5.37  0.  0.  0.
539  5.38  0.  0.  0.
540  5.39  0.  0.  0.
541  5.40  0.  0.  0.
542  5.41  0.  0.  0.
543  5.42  0.  0.  0.
544  5.43  0.  0.  0.
545  5.44  0.  0.  0.
546  5.45  0.  0.  0.
547  5.46  0.  0.  0.
548  5.47  0.  0.  0.
549  5.48  0.  0.  0.
550  5.49  0.  0.  0.
551  5.50  0.  0.  0.
552  5.51  0.  0.  0.
553  5.52  0.  0.  0.
554  5.53  0.  0.  0.
555  5.54  0.  0.  0.
556  5.55  0.  0.  0.
557  5.56  0.  0.  0.
558  5.57  0.  0.  0.
559  5.58  0.  0.  0.
560  5.59  0.  0.  0.
561  5.60  0.  0.  0.
562  5.61  0.  0.  0.
563  5.62  0.  0.  0.
564  5.63  0.  0.  0.
565  5.64  0.  0.  0.
566  5.65  0.  0.  0.
567  5.66  0.  0.  0.
568  5.67  0.  0.  0.
569  5.68  0.  0.  0.
570  5.69  0.  0.  0.
571  5.70  0.  0.  0.
572  5.71  0.  0.  0.
573  5.72  0.  0.  0.
574  5.73  0.  0.  0.
575  5.74  0.  0.  0.
576  5.75  0.  0.  0.
577  5.76  0.  0.  0.
578  5.77  0.  0.  0.
579  5.78  0.  0.  0.
580  5.79  0.  0.  0.
581  5.80  0.  0.  0.
582  5.81  0.  0.  0.
583  5.82  0.  0.  0.
584  5.83  0.  0.  0.
585  5.84  0.  0.  0.
586  5.85  0.  0.  0.
587  5.86  0.  0.  0.
588  5.87  0.  0.  0.
589  5.88  0.  0.  0.
590  5.89  0.  0.  0.
591  5.90  0.  0.  0.
592  5.91  0.  0.  0.
593  5.92  0.  0.  0.
594  5.93  0.  0.  0.
595  5.94  0.  0.  0.
596  5.95  0.  0.  0.
597  5.96  0.  0.  0.
598  5.97  0.  0.  0.
599  5.98  0.  0.  0.
600  5.99  0.  0.  0.
1                         5.7380453618438E+00 -9.9707366760878E-01
1  0.0000000000000E+00 -3.6156720450986E-08 -3.7951818753629E-08
2  1.0000000000000E-02  2.6626729793574E-03 -4.3761132036294E-04
3  2.0000000000000E-02  1.0649166314050E-02 -1.7262655472172E-03
4  3.0000000000000E-02  2.3954305266360E-02 -3.7941933011420E-03
5  4.0000000000000E-02  4.2567496570390E-02 -6.5243196962064E-03
6  5.0000000000000E-02  6.6469859917656E-02 -9.7579876274114E-03
7  6.0000000000000E-02  9.5630378187627E-02 -1.3299997659143E-02
8  7.0000000000000E-02  1.3000122583315E-01 -1.6924798589653E-02
9  8.0000000000000E-02  1.6951247098737E-01 -2.0383624814767E-02
10  9.0000000000000E-02  2.1406637638720E-01 -2.3412345336606E-02
11  1.0000000000000E-01  2.6353154607888E-01 -2.5739765695865E-02
12  1.1000000000000E-01  3.1773717829906E-01 -2.7096109037996E-02
13  1.2000000000000E-01  3.7646768939553E-01 -2.7221396471240E-02
14  1.3000000000000E-01  4.3945796893875E-01 -2.5873450064581E-02
15  1.4000000000000E-01  5.0638951234779E-01 -2.2835254194924E-02
16  1.5000000000000E-01  5.7688765477855E-01 -1.7921432116684E-02
17  1.6000000000000E-01  6.5052009934779E-01 -1.0983623938027E-02
18  1.7000000000000E-01  7.2679689491285E-01 -1.9145887236671E-03
19  1.8000000000000E-01  8.0517197474992E-01  9.3491039572555E-03
20  1.9000000000000E-01  8.8504631893641E-01  2.2825880424510E-02
21  2.0000000000000E-01  9.6577275156831E-01  3.8489504141767E-02
22  2.1000000000000E-01  1.0466623307740E+00  5.6270936758670E-02
23  2.2000000000000E-01  1.1269922365249E+00  7.6061652042720E-02
24  2.3000000000000E-01  1.2060150102090E+00  9.7718285864601E-02
25  2.4000000000000E-01  1.2829689524992E+00  1.2106845900762E-01
26  2.5000000000000E-01  1.3570894437924E+00  1.4591756828869E-01
27  2.6000000000000E-01  1.4276209158486E+00  1.7205630671597E-01
28  2.7000000000000E-01  1.4938291754598E+00  1.9926864637947E-01
29  2.8000000000000E-01  1.5550137620273E+00  2.2733999945018E-01
30  2.9000000000000E-01  1.6105200115595E+00  2.5606526375022E-01
31  3.0000000000000E-01  1.6597505002566E+00  2.8525646025452E-01
32  3.1000000000000E-01  1.7021755516530E+00  3.1474968067991E-01
33  3.2000000000000E-01  1.7373425120445E+00  3.4441108377645E-01
34  3.3000000000000E-01  1.7648835291314E+00  3.7414170850757E-01
35  3.4000000000000E-01  1.7845216076409E+00  4.0388091013206E-01
36  3.5000000000000E-01  1.7960747620499E+00  4.3360827014880E-01
37  3.6000000000000E-01  1.7994581390731E+00  4.6334388174790E-01
38  3.7000000000000E-01  1.7946840397332E+00  4.9314696724092E-01
39  3.8000000000000E-01  1.7818598308733E+00  5.2311284116894E-01
40  3.9000000000000E-01  1.7611837970601E+00  5.5336829055807E-01
41  4.0000000000000E-01  1.7329390440565E+00  5.8406550020766E-01
42  4.1000000000000E-01  1.6974856225285E+00  6.1537470407486E-01
43  4.2000000000000E-01  1.6552510935485E+00  6.4747579194782E-01
44  4.3000000000000E-01  1.6067198040623E+00  6.8054914200758E-01
45  4.4000000000000E-01  1.5524211792656E+00  7.1476598307904E-01
46  4.5000000000000E-01  1.4929173684676E+00  7.5027861412419E-01
47  4.6000000000000E-01  1.4287906004925E+00  7.8721082187764E-01
48  4.7000000000000E-01  1.3606306132389E+00  8.2564883983175E-01
49  4.8000000000000E-01  1.2890225193028E+00  8.6563318275612E-01
50  4.9000000000000E-01  1.2145354555344E+00  9.0715167065848E-01
51  5.0000000000000E-01  1.1377123393684E+00  9.5013392500101E-01
52  5.1000000000000E-01  1.0590610194056E+00  9.9444757887433E-01
53  5.2000000000000E-01  9.7904706306355E-01  1.0398963928399E+00
54  5.3000000000000E-01  8.9808837146027E-01  1.0862204107224E+00
55  5.4000000000000E-01  8.1655175265125E-01  1.1330982264827E+00
56  5.5000000000000E-01  7.3475152072318E-01  1.1801513663532E+00
57  5.6000000000000E-01  6.5295012204260E-01  1.2269507217647E+00
58  5.7000000000000E-01  5.7136072326317E-01  1.2730249004135E+00
59  5.8000000000000E-01  4.9015163064703E-01  1.3178702973215E+00
60  5.9000000000000E-01  4.0945234896869E-01  1.3609626270921E+00
61  6.0000000000000E-01  3.2936103276128E-01  1.4017696048100E+00
62  6.1000000000000E-01  2.4995303479637E-01  1.4397644180388E+00
63  6.2000000000000E-01  1.7129021809675E-01  1.4744395977573E+00
64  6.3000000000000E-01  9.3430669827583E-02  1.5053208731602E+00
65  6.4000000000000E-01  1.6438439130567E-02  1.5319805849973E+00
66  6.5000000000000E-01 -5.9607082968719E-02  1.5540502351229E+00
67  6.6000000000000E-01 -1.3460251475695E-01  1.5712317663314E+00
68  6.7000000000000E-01 -2.0841291810855E-01  1.5833071961158E+00
69  6.8000000000000E-01 -2.8086563463694E-01  1.5901462700217E+00
70  6.9000000000000E-01 -3.5174579828296E-01  1.5917118536736E+00
71  7.0000000000000E-01 -4.2079374490098E-01  1.5880628458704E+00
72  7.1000000000000E-01 -4.8770447726936E-01  1.5793544665486E+00
73  7.2000000000000E-01 -5.5212927559030E-01  1.5658358507994E+00
74  7.3000000000000E-01 -6.1367947109980E-01  1.5478449611737E+00
75  7.4000000000000E-01 -6.7193232618599E-01  1.5258009127201E+00
76  7.5000000000000E-01 -7.2643889079444E-01  1.5001938860272E+00
77  7.6000000000000E-01 -7.7673363430104E-01  1.4715728804122E+00
78  7.7000000000000E-01 -8.2234558678912E-01  1.4405316298382E+00
79  7.8000000000000E-01 -8.6281066597618E-01  1.4076930658487E+00
80  7.9000000000000E-01 -8.9768481789118E-01  1.3736927627001E+00
81  8.0000000000000E-01 -9.2655756250512E-01  1.3391618381959E+00
82  8.1000000000000E-01 -9.4906551123531E-01  1.3047098080848E+00
83  8.2000000000000E-01 -9.6490541255772E-01  1.2709079013170E+00
84  8.3000000000000E-01 -9.7384628542618E-01  1.2382733374311E+00
85  8.4000000000000E-01 -9.7574021792484E-01  1.2072550458410E+00
86  8.5000000000000E-01 -9.7053144022267E-01  1.1782212702514E+00
87  8.6000000000000E-01 -9.5826332566266E-01  1.1514494507761E+00
88  8.7000000000000E-01 -9.3908303047819E-01  1.1271187129492E+00
89  8.8000000000000E-01 -9.1324354956668E-01  1.1053052184876E+00
90  8.9000000000000E-01 -8.8110304099873E-01  1.0859805495531E+00
91  9.0000000000000E-01 -8.4312135324043E-01  1.0690132088225E+00
92  9.1000000000000E-01 -7.9985377394622E-01  1.0541732245875E+00
93  9.2000000000000E-01 -7.5194210501301E-01  1.0411397562037E+00
94  9.3000000000000E-01 -7.0010325268713E-01  1.0295115033730E+00
95  9.4000000000000E-01 -6.4511560121891E-01  1.0188196358391E+00
96  9.5000000000000E-01 -5.8780351129772E-01  1.0085428808342E+00
97  9.6000000000000E-01 -5.2902034788912E-01  9.9812433658417E-01
98  9.7000000000000E-01 -4.6963049400032E-01  9.8698952362195E-01
99  9.8000000000000E-01 -4.1049084553538E-01  9.7456514346265E-01
100  9.9000000000000E-01 -3.5243230630476E-01  9.6029798790573E-01
101  1.0000000000000E+00 -2.9624181044631E-01  9.4367343286430E-01
102  1.0100000000000E+00 -2.4264539145324E-01  9.2423295874366E-01
103  1.0200000000000E+00 -1.9229279257606E-01  9.0159016509523E-01
104  1.0300000000000E+00 -1.4574407298563E-01  8.7544479009681E-01
105  1.0400000000000E+00 -1.0345860869058E-01  8.4559430433899E-01
106  1.0500000000000E+00 -6.5786817900558E-02  8.1194272223657E-01
107  1.0600000000000E+00 -3.2964859267255E-02  7.7450636104478E-01
108  1.0700000000000E+00 -5.1124601491621E-03  7.3341637487697E-01
109  1.0800000000000E+00  1.7766067074786E-02  6.8891799695586E-01
110  1.0900000000000E+00  3.5777666492252E-02  6.4136653429861E-01
111  1.1000000000000E+00  4.9133390477422E-02  5.9122027306903E-01
112  1.1100000000000E+00  5.8138520182656E-02  5.3903056600103E-01
113  1.1200000000000E+00  6.3180315971797E-02  4.8542948348120E-01
114  1.1300000000000E+00  6.4713855818505E-02  4.3111551355275E-01
115  1.1400000000000E+00  6.3246508082234E-02  3.7683789093299E-01
116  1.1500000000000E+00  5.9321662583430E-02  3.2338021842492E-01
117  1.1600000000000E+00  5.3502408611384E-02  2.7154411378152E-01
118  1.1700000000000E+00  4.6355915307045E-02  2.2213368069922E-01
119  1.1800000000000E+00  3.8439165548291E-02  1.7594154460373E-01
120  1.1900000000000E+00  3.0286860499395E-02  1.3373735482582E-01