Ra    ONCVPSP-4.0.1  r_core=   1.60343   1.60343   1.75396
88.0000     28.0000      231012    zatom,zion,pspd
8 -116133   2     4   600     0    pspcod,pspxc,lmax,lloc,mmax,r2well
5.99000000  5.00000000  0.00000000    rchrg fchrg qchrg
3     3     2     0    nproj
3     1           extension_switch
4     4     0    nprojso
0                         9.2893603389162E+00 -3.8515042242505E+00  5.4333486695888E-01
1  0.0000000000000E+00 -1.9369297277194E-09 -5.9107330141472E-11 -6.8912946460387E-09
2  1.0000000000000E-02  1.1832390073193E-01  3.3032804768047E-02  4.8335932925670E-02
3  2.0000000000000E-02  2.3604553727194E-01  6.6050752107881E-02  9.6035130188864E-02
4  3.0000000000000E-02  3.5256675508595E-01  9.9038967845246E-02  1.4246869861955E-01
5  4.0000000000000E-02  4.6729757970630E-01  1.3198254385584E-01  1.8702331840693E-01
6  5.0000000000000E-02  5.7966020914549E-01  1.6486651996104E-01  2.2910875251591E-01
7  6.0000000000000E-02  6.8909289056889E-01  1.9767586451183E-01  2.6816502839688E-01
8  7.0000000000000E-02  7.9505364496001E-01  2.3039545329508E-01  3.0366919101003E-01
9  8.0000000000000E-02  8.9702380544894E-01  2.6301004645522E-01  3.3514153307611E-01
10  9.0000000000000E-02  9.9451133733865E-01  2.9550426319593E-01  3.6215121685285E-01
11  1.0000000000000E-01  1.0870539106192E+00  3.2786255410857E-01  3.8432121147422E-01
12  1.1000000000000E-01  1.1742216988629E+00  3.6006917106518E-01  4.0133248080727E-01
13  1.2000000000000E-01  1.2556198817977E+00  3.9210813471206E-01  4.1292736869469E-01
14  1.3000000000000E-01  1.3308908325093E+00  4.2396319970248E-01  4.1891214115034E-01
15  1.4000000000000E-01  1.3997159740678E+00  4.5561781791269E-01  4.1915865834268E-01
16  1.5000000000000E-01  1.4618172943595E+00  4.8705509999034E-01  4.1360516281537E-01
17  1.6000000000000E-01  1.5169585119581E+00  5.1825777568779E-01  4.0225618411441E-01
18  1.7000000000000E-01  1.5649458899499E+00  5.4920815353059E-01  3.8518157359098E-01
19  1.8000000000000E-01  1.6056286986548E+00  5.7988808046316E-01  3.6251469639816E-01
20  1.9000000000000E-01  1.6388993321171E+00  6.1027890219511E-01  3.3444982037322E-01
21  2.0000000000000E-01  1.6646930870154E+00  6.4036142504279E-01  3.0123875338978E-01
22  2.1000000000000E-01  1.6829876162038E+00  6.7011588011769E-01  2.6318679167233E-01
23  2.2000000000000E-01  1.6938020724078E+00  6.9952189075650E-01  2.2064805132916E-01
24  2.3000000000000E-01  1.6971959606050E+00  7.2855844411396E-01  1.7402026379534E-01
25  2.4000000000000E-01  1.6932677202929E+00  7.5720386784935E-01  1.2373912289213E-01
26  2.5000000000000E-01  1.6821530611500E+00  7.8543581282903E-01  7.0272276660200E-02
27  2.6000000000000E-01  1.6640230775020E+00  8.1323124274107E-01  1.4113060962460E-02
28  2.7000000000000E-01  1.6390821685052E+00  8.4056643147294E-01 -4.4225925979845E-02
29  2.8000000000000E-01  1.6075657920329E+00  8.6741696904082E-01 -1.0421930847892E-01
30  2.9000000000000E-01  1.5697380808990E+00  8.9375777677891E-01 -1.6533537924997E-01
31  3.0000000000000E-01  1.5258893502772E+00  9.1956313240099E-01 -2.2704241064419E-01
32  3.1000000000000E-01  1.4763335249921E+00  9.4480670543520E-01 -2.8881474001290E-01
33  3.2000000000000E-01  1.4214055147689E+00  9.6946160340861E-01 -3.5013854383178E-01
34  3.3000000000000E-01  1.3614585645801E+00  9.9350042902232E-01 -4.1051722240690E-01
35  3.4000000000000E-01  1.2968616059224E+00  1.0168953484124E+00 -4.6947632538831E-01
36  3.5000000000000E-01  1.2279966332522E+00  1.0396181704402E+00 -5.2656795774084E-01
37  3.6000000000000E-01  1.1552561279228E+00  1.0616404367978E+00 -5.8137461611275E-01
38  3.7000000000000E-01  1.0790405498559E+00  1.0829335225581E+00 -6.3351241648877E-01
39  3.8000000000000E-01  9.9975591488164E-01  1.1034687466375E+00 -6.8263368541403E-01
40  3.9000000000000E-01  9.1781147324250E-01  1.1232174914891E+00 -7.2842889873704E-01
41  4.0000000000000E-01  8.3361750222546E-01  1.1421513311905E+00 -7.7062796350196E-01
42  4.1000000000000E-01  7.4758322331303E-01  1.1602421669565E+00 -8.0900085015070E-01
43  4.2000000000000E-01  6.6011485166797E-01  1.1774623689727E+00 -8.4335759334392E-01
44  4.3000000000000E-01  5.7161378324337E-01  1.1937849233324E+00 -8.7354769028927E-01
45  4.4000000000000E-01  4.8247492237139E-01  1.2091835827602E+00 -8.9945893531289E-01
46  4.5000000000000E-01  3.9308515038163E-01  1.2236330197200E+00 -9.2101573832798E-01
47  4.6000000000000E-01  3.0382193365964E-01  1.2371089804407E+00 -9.3817698273422E-01
48  4.7000000000000E-01  2.1505206762022E-01  1.2495884383502E+00 -9.5093348495636E-01
49  4.8000000000000E-01  1.2713055135315E-01  1.2610497453806E+00 -9.5930512325198E-01
50  4.9000000000000E-01  4.0399586238763E-02  1.2714727796072E+00 -9.6333770744177E-01
51  5.0000000000000E-01 -4.4812309371274E-02  1.2808390877016E+00 -9.6309966385663E-01
52  5.1000000000000E-01 -1.2819107823416E-01  1.2891320207172E+00 -9.5867861097822E-01
53  5.2000000000000E-01 -2.0943780452675E-01  1.2963368617887E+00 -9.5017790100811E-01
54  5.3000000000000E-01 -2.8826930621419E-01  1.3024409444047E+00 -9.3771320093085E-01
55  5.4000000000000E-01 -3.6441864939229E-01  1.3074337600132E+00 -9.2140918363198E-01
56  5.5000000000000E-01 -4.3763559433795E-01  1.3113070538347E+00 -9.0139639532354E-01
57  5.6000000000000E-01 -5.0768698257658E-01  1.3140549078910E+00 -8.7780836005260E-01
58  5.7000000000000E-01 -5.7435707362174E-01  1.3156738103994E+00 -8.5077897552569E-01
59  5.8000000000000E-01 -6.3744783918523E-01  1.3161627108428E+00 -8.2044024700763E-01
60  5.9000000000000E-01 -6.9677922162673E-01  1.3155230601861E+00 -7.8692039781384E-01
61  6.0000000000000E-01 -7.5218936223753E-01  1.3137588358847E+00 -7.5034238605594E-01
62  6.1000000000000E-01 -8.0353480367197E-01  1.3108765515033E+00 -7.1082284801851E-01
63  6.2000000000000E-01 -8.5069066948125E-01  1.3068852509386E+00 -6.6847147899296E-01
64  6.3000000000000E-01 -8.9355082230955E-01  1.3017964874162E+00 -6.2339085278115E-01
65  6.4000000000000E-01 -9.3202800091132E-01  1.2956242875984E+00 -5.7567667156304E-01
66  6.5000000000000E-01 -9.6605393478403E-01  1.2883851013047E+00 -5.2541842860564E-01
67  6.6000000000000E-01 -9.9557943390547E-01  1.2800977374998E+00 -4.7270045750194E-01
68  6.7000000000000E-01 -1.0205744498652E+00  1.2707832873454E+00 -4.1760333348681E-01
69  6.8000000000000E-01 -1.0410281036013E+00  1.2604650352424E+00 -3.6020558496754E-01
70  6.9000000000000E-01 -1.0569486740310E+00  1.2491683589013E+00 -3.0058566690532E-01
71  7.0000000000000E-01 -1.0683635411200E+00  1.2369206195783E+00 -2.3882414218888E-01
72  7.1000000000000E-01 -1.0753190763823E+00  1.2237510436901E+00 -1.7500601273759E-01
73  7.2000000000000E-01 -1.0778804734625E+00  1.2096905970831E+00 -1.0922313885283E-01
74  7.3000000000000E-01 -1.0761315113323E+00  1.1947718532714E+00 -4.1576683334284E-02
75  7.4000000000000E-01 -1.0701742427361E+00  1.1790288569798E+00  2.7820483866420E-02
76  7.5000000000000E-01 -1.0601286008520E+00  1.1624969843292E+00  9.8841484166730E-02
77  7.6000000000000E-01 -1.0461319176851E+00  1.1452128009817E+00  1.7134329401087E-01
78  7.7000000000000E-01 -1.0283383484759E+00  1.1272139195300E+00  2.4516483266551E-01
79  7.8000000000000E-01 -1.0069181973720E+00  1.1085388573569E+00  3.2012532906040E-01
80  7.9000000000000E-01 -9.8205714075699E-01  1.0892268961236E+00  3.9602301743029E-01
81  8.0000000000000E-01 -9.5395534594154E-01  1.0693179439596E+00  4.7263420539550E-01
82  8.1000000000000E-01 -9.2282648436822E-01  1.0488524013264E+00  5.4971275117514E-01
83  8.2000000000000E-01 -8.8889664003737E-01  1.0278710314225E+00  6.2698997895633E-01
84  8.3000000000000E-01 -8.5240311549997E-01  1.0064148358739E+00  7.0417505321752E-01
85  8.4000000000000E-01 -8.1359313944901E-01  9.8452493633371E-01  7.8095582416268E-01
86  8.5000000000000E-01 -7.7272248164506E-01  9.6224246248197E-01  8.5700014752080E-01
87  8.6000000000000E-01 -7.3005398259769E-01  9.3960844678728E-01  9.3195767297973E-01
88  8.7000000000000E-01 -6.8585600706149E-01  9.1666372625992E-01  1.0054620866040E+00
89  8.8000000000000E-01 -6.4040083196039E-01  8.9344885129744E-01  1.0771337839030E+00
90  8.9000000000000E-01 -5.9396298079552E-01  8.7000400160006E-01  1.1465829419208E+00
91  9.0000000000000E-01 -5.4681751788953E-01  8.4636890901620E-01  1.2134129509691E+00
92  9.1000000000000E-01 -4.9923831695008E-01  8.2258278707033E-01  1.2772241595457E+00
93  9.2000000000000E-01 -4.5149631936852E-01  7.9868426682770E-01  1.3376178797163E+00
94  9.3000000000000E-01 -4.0385779838961E-01  7.7471133866534E-01  1.3942005948844E+00
95  9.4000000000000E-01 -3.5658264577553E-01  7.5070129944664E-01  1.4465883075348E+00
96  9.5000000000000E-01 -3.0992269782757E-01  7.2669070453962E-01  1.4944109612938E+00
97  9.6000000000000E-01 -2.6412011761754E-01  7.0271532407695E-01  1.5373168695435E+00
98  9.7000000000000E-01 -2.1940585000748E-01  6.7881010282954E-01  1.5749770819197E+00
99  9.8000000000000E-01 -1.7599816550564E-01  6.5500912305556E-01  1.6070896203073E+00
100  9.9000000000000E-01 -1.3410130822146E-01  6.3134556969229E-01  1.6333835174369E+00
101  1.0000000000000E+00 -9.3904262150569E-02  6.0785169727984E-01  1.6536225938411E+00
102  1.0100000000000E+00 -5.5579648759342E-02  5.8455879804172E-01  1.6676089127096E+00
103  1.0200000000000E+00 -1.9282767360602E-02  5.6149717059774E-01  1.6751858570277E+00
104  1.0300000000000E+00  1.4849211895914E-02  5.3869608884727E-01  1.6762407791865E+00
105  1.0400000000000E+00  4.6697894431439E-02  5.1618377063523E-01  1.6707071799420E+00
106  1.0500000000000E+00  7.6164141033448E-02  4.9398734589704E-01  1.6585663810287E+00
107  1.0600000000000E+00  1.0316837710713E-01  4.7213282407016E-01  1.6398486637810E+00
108  1.0700000000000E+00  1.2765072961159E-01  4.5064506065719E-01  1.6146338546459E+00
109  1.0800000000000E+00  1.4957099210193E-01  4.2954772292666E-01  1.5830513473069E+00
110  1.0900000000000E+00  1.6890842049639E-01  4.0886325483985E-01  1.5452795601465E+00
111  1.1000000000000E+00  1.8566136435090E-01  3.8861284139369E-01  1.5015448367726E+00
112  1.1100000000000E+00  1.9984674051209E-01  3.6881637266830E-01  1.4521198061528E+00
113  1.1200000000000E+00  2.1149935800532E-01  3.4949240796100E-01  1.3973212274070E+00
114  1.1300000000000E+00  2.2067110484665E-01  3.3065814047383E-01  1.3375073522703E+00
115  1.1400000000000E+00  2.2743000913518E-01  3.1232936309847E-01  1.2730748456068E+00
116  1.1500000000000E+00  2.3185918822587E-01  2.9452043590581E-01  1.2044553108545E+00
117  1.1600000000000E+00  2.3405570100329E-01  2.7724425599958E-01  1.1321114729120E+00
118  1.1700000000000E+00  2.3412931921976E-01  2.6051223042856E-01  1.0565330754845E+00
119  1.1800000000000E+00  2.3220123453030E-01  2.4433425287235E-01  9.7823255330141E-01
120  1.1900000000000E+00  2.2840271821525E-01  2.2871868481750E-01  8.9774054172373E-01
121  1.2000000000000E+00  2.2287375062448E-01  2.1367234192478E-01  8.1560128704573E-01
122  1.2100000000000E+00  2.1576163709583E-01  1.9920048625336E-01  7.3236802021470E-01
123  1.2200000000000E+00  2.0721962648610E-01  1.8530682495349E-01  6.4859835468735E-01
124  1.2300000000000E+00  1.9740554750710E-01  1.7199351596532E-01  5.6484976571918E-01
125  1.2400000000000E+00  1.8648047679521E-01  1.5926118116998E-01  4.8167520357844E-01
126  1.2500000000000E+00  1.7460745105411E-01  1.4710892732751E-01  3.9961888696200E-01
127  1.2600000000000E+00  1.6195023372593E-01  1.3553437500869E-01  3.1921231537997E-01
128  1.2700000000000E+00  1.4867214448816E-01  1.2453369558423E-01  2.4097053055174E-01
129  1.2800000000000E+00  1.3493495744223E-01  1.1410165617505E-01  1.6538864692634E-01
130  1.2900000000000E+00  1.2089787120861E-01  1.0423167229667E-01  9.2938660517017E-02
131  1.3000000000000E+00  1.0671655130451E-01  9.4915867748245E-02  2.4066533465913E-02
132  1.3100000000000E+00  9.2542242148852E-02  8.6145141105271E-02 -4.0810460891564E-02
133  1.3200000000000E+00  7.8520942906646E-02  7.7909237977536E-02 -1.0130616082646E-01
134  1.3300000000000E+00  6.4792638161154E-02  7.0196827993283E-02 -1.5706774881255E-01
135  1.3400000000000E+00  5.1490571118394E-02  6.2995585267276E-02 -2.0777784972556E-01
136  1.3500000000000E+00  3.8740543775911E-02  5.6292270909932E-02 -2.5315656431801E-01
137  1.3600000000000E+00  2.6660225243633E-02  5.0072815937581E-02 -2.9296352142374E-01
138  1.3700000000000E+00  1.5358446261943E-02  4.4322402755010E-02 -3.2700004572577E-01
139  1.3800000000000E+00  4.9344549093063E-03  3.9025543200097E-02 -3.5511155093805E-01
140  1.3900000000000E+00 -4.5228943583050E-03  3.4166150973450E-02 -3.7719028042092E-01
141  1.4000000000000E+00 -1.2936048865681E-02  2.9727606122342E-02 -3.9317852866432E-01
142  1.4100000000000E+00 -2.0239796016191E-02  2.5692809112557E-02 -4.0307248737966E-01
143  1.4200000000000E+00 -2.6382466821598E-02  2.2044221904664E-02 -4.0692686912338E-01
144  1.4300000000000E+00 -3.1327341592655E-02  1.8763893355591E-02 -4.0486046919785E-01
145  1.4400000000000E+00 -3.5054296220487E-02  1.5833466193584E-02 -3.9706283294537E-01
146  1.4500000000000E+00 -3.7561728629644E-02  1.3234162765784E-02 -3.8380220039461E-01
147  1.4600000000000E+00 -3.8868805752756E-02  1.0946746734284E-02 -3.6543490339561E-01
148  1.4700000000000E+00 -3.9018071764781E-02  8.9514578987109E-03 -3.4241639189124E-01
149  1.4800000000000E+00 -3.8078460869195E-02  7.2279171889669E-03 -3.1531407949487E-01
150  1.4900000000000E+00 -3.6148750566572E-02  5.7549993679334E-03 -2.8482215826354E-01
151  1.5000000000000E+00 -3.3361410206218E-02  4.5106766531561E-03 -2.5177811843110E-01
152  1.5100000000000E+00 -2.9886400120257E-02  3.4718576442054E-03 -2.1717842571348E-01
153  1.5200000000000E+00 -2.5918329661851E-02  2.6152942720355E-03 -1.8210546494767E-01
154  1.5300000000000E+00 -2.1666031863798E-02  1.9176604644338E-03 -1.4765345887141E-01
155  1.5400000000000E+00 -1.7348628183143E-02  1.3555712337196E-03 -1.1490825712057E-01
156  1.5500000000000E+00 -1.3144213495089E-02  9.1228620123318E-04 -8.4755869257342E-02
157  1.5600000000000E+00 -9.2318421514566E-03  5.7266911251482E-04 -5.8034832782814E-02
158  1.5700000000000E+00 -5.7911359837655E-03  3.2310005656434E-04 -3.5534746465198E-02
159  1.5800000000000E+00 -3.0020267554612E-03  1.5161394901929E-04 -1.7998055455781E-02
160  1.5900000000000E+00 -1.0286767435297E-03  4.7413559886766E-05 -6.0330170648686E-03
161  1.6000000000000E+00 -9.7963693863054E-05  4.1233398647332E-06 -5.6129292237603E-04
162  1.6100000000000E+00  1.8669322596313E-05 -7.4350072849074E-07  1.0582935037990E-04
163  1.6200000000000E+00 -5.8163297235362E-06  2.4192707896375E-07 -3.3319920983086E-05
164  1.63  0.  0.  0.
165  1.64  0.  0.  0.
166  1.65  0.  0.  0.
167  1.66  0.  0.  0.
168  1.67  0.  0.  0.
169  1.68  0.  0.  0.
170  1.69  0.  0.  0.
171  1.70  0.  0.  0.
172  1.71  0.  0.  0.
173  1.72  0.  0.  0.
174  1.73  0.  0.  0.
175  1.74  0.  0.  0.
176  1.75  0.  0.  0.
177  1.76  0.  0.  0.
178  1.77  0.  0.  0.
179  1.78  0.  0.  0.
180  1.79  0.  0.  0.
181  1.80  0.  0.  0.
182  1.81  0.  0.  0.
183  1.82  0.  0.  0.
184  1.83  0.  0.  0.
185  1.84  0.  0.  0.
186  1.85  0.  0.  0.
187  1.86  0.  0.  0.
188  1.87  0.  0.  0.
189  1.88  0.  0.  0.
190  1.89  0.  0.  0.
191  1.90  0.  0.  0.
192  1.91  0.  0.  0.
193  1.92  0.  0.  0.
194  1.93  0.  0.  0.
195  1.94  0.  0.  0.
196  1.95  0.  0.  0.
197  1.96  0.  0.  0.
198  1.97  0.  0.  0.
199  1.98  0.  0.  0.
200  1.99  0.  0.  0.
201  2.00  0.  0.  0.
202  2.01  0.  0.  0.
203  2.02  0.  0.  0.
204  2.03  0.  0.  0.
205  2.04  0.  0.  0.
206  2.05  0.  0.  0.
207  2.06  0.  0.  0.
208  2.07  0.  0.  0.
209  2.08  0.  0.  0.
210  2.09  0.  0.  0.
211  2.10  0.  0.  0.
212  2.11  0.  0.  0.
213  2.12  0.  0.  0.
214  2.13  0.  0.  0.
215  2.14  0.  0.  0.
216  2.15  0.  0.  0.
217  2.16  0.  0.  0.
218  2.17  0.  0.  0.
219  2.18  0.  0.  0.
220  2.19  0.  0.  0.
221  2.20  0.  0.  0.
222  2.21  0.  0.  0.
223  2.22  0.  0.  0.
224  2.23  0.  0.  0.
225  2.24  0.  0.  0.
226  2.25  0.  0.  0.
227  2.26  0.  0.  0.
228  2.27  0.  0.  0.
229  2.28  0.  0.  0.
230  2.29  0.  0.  0.
231  2.30  0.  0.  0.
232  2.31  0.  0.  0.
233  2.32  0.  0.  0.
234  2.33  0.  0.  0.
235  2.34  0.  0.  0.
236  2.35  0.  0.  0.
237  2.36  0.  0.  0.
238  2.37  0.  0.  0.
239  2.38  0.  0.  0.
240  2.39  0.  0.  0.
241  2.40  0.  0.  0.
242  2.41  0.  0.  0.
243  2.42  0.  0.  0.
244  2.43  0.  0.  0.
245  2.44  0.  0.  0.
246  2.45  0.  0.  0.
247  2.46  0.  0.  0.
248  2.47  0.  0.  0.
249  2.48  0.  0.  0.
250  2.49  0.  0.  0.
251  2.50  0.  0.  0.
252  2.51  0.  0.  0.
253  2.52  0.  0.  0.
254  2.53  0.  0.  0.
255  2.54  0.  0.  0.
256  2.55  0.  0.  0.
257  2.56  0.  0.  0.
258  2.57  0.  0.  0.
259  2.58  0.  0.  0.
260  2.59  0.  0.  0.
261  2.60  0.  0.  0.
262  2.61  0.  0.  0.
263  2.62  0.  0.  0.
264  2.63  0.  0.  0.
265  2.64  0.  0.  0.
266  2.65  0.  0.  0.
267  2.66  0.  0.  0.
268  2.67  0.  0.  0.
269  2.68  0.  0.  0.
270  2.69  0.  0.  0.
271  2.70  0.  0.  0.
272  2.71  0.  0.  0.
273  2.72  0.  0.  0.
274  2.73  0.  0.  0.
275  2.74  0.  0.  0.
276  2.75  0.  0.  0.
277  2.76  0.  0.  0.
278  2.77  0.  0.  0.
279  2.78  0.  0.  0.
280  2.79  0.  0.  0.
281  2.80  0.  0.  0.
282  2.81  0.  0.  0.
283  2.82  0.  0.  0.
284  2.83  0.  0.  0.
285  2.84  0.  0.  0.
286  2.85  0.  0.  0.
287  2.86  0.  0.  0.
288  2.87  0.  0.  0.
289  2.88  0.  0.  0.
290  2.89  0.  0.  0.
291  2.90  0.  0.  0.
292  2.91  0.  0.  0.
293  2.92  0.  0.  0.
294  2.93  0.  0.  0.
295  2.94  0.  0.  0.
296  2.95  0.  0.  0.
297  2.96  0.  0.  0.
298  2.97  0.  0.  0.
299  2.98  0.  0.  0.
300  2.99  0.  0.  0.
301  3.00  0.  0.  0.
302  3.01  0.  0.  0.
303  3.02  0.  0.  0.
304  3.03  0.  0.  0.
305  3.04  0.  0.  0.
306  3.05  0.  0.  0.
307  3.06  0.  0.  0.
308  3.07  0.  0.  0.
309  3.08  0.  0.  0.
310  3.09  0.  0.  0.
311  3.10  0.  0.  0.
312  3.11  0.  0.  0.
313  3.12  0.  0.  0.
314  3.13  0.  0.  0.
315  3.14  0.  0.  0.
316  3.15  0.  0.  0.
317  3.16  0.  0.  0.
318  3.17  0.  0.  0.
319  3.18  0.  0.  0.
320  3.19  0.  0.  0.
321  3.20  0.  0.  0.
322  3.21  0.  0.  0.
323  3.22  0.  0.  0.
324  3.23  0.  0.  0.
325  3.24  0.  0.  0.
326  3.25  0.  0.  0.
327  3.26  0.  0.  0.
328  3.27  0.  0.  0.
329  3.28  0.  0.  0.
330  3.29  0.  0.  0.
331  3.30  0.  0.  0.
332  3.31  0.  0.  0.
333  3.32  0.  0.  0.
334  3.33  0.  0.  0.
335  3.34  0.  0.  0.
336  3.35  0.  0.  0.
337  3.36  0.  0.  0.
338  3.37  0.  0.  0.
339  3.38  0.  0.  0.
340  3.39  0.  0.  0.
341  3.40  0.  0.  0.
342  3.41  0.  0.  0.
343  3.42  0.  0.  0.
344  3.43  0.  0.  0.
345  3.44  0.  0.  0.
346  3.45  0.  0.  0.
347  3.46  0.  0.  0.
348  3.47  0.  0.  0.
349  3.48  0.  0.  0.
350  3.49  0.  0.  0.
351  3.50  0.  0.  0.
352  3.51  0.  0.  0.
353  3.52  0.  0.  0.
354  3.53  0.  0.  0.
355  3.54  0.  0.  0.
356  3.55  0.  0.  0.
357  3.56  0.  0.  0.
358  3.57  0.  0.  0.
359  3.58  0.  0.  0.
360  3.59  0.  0.  0.
361  3.60  0.  0.  0.
362  3.61  0.  0.  0.
363  3.62  0.  0.  0.
364  3.63  0.  0.  0.
365  3.64  0.  0.  0.
366  3.65  0.  0.  0.
367  3.66  0.  0.  0.
368  3.67  0.  0.  0.
369  3.68  0.  0.  0.
370  3.69  0.  0.  0.
371  3.70  0.  0.  0.
372  3.71  0.  0.  0.
373  3.72  0.  0.  0.
374  3.73  0.  0.  0.
375  3.74  0.  0.  0.
376  3.75  0.  0.  0.
377  3.76  0.  0.  0.
378  3.77  0.  0.  0.
379  3.78  0.  0.  0.
380  3.79  0.  0.  0.
381  3.80  0.  0.  0.
382  3.81  0.  0.  0.
383  3.82  0.  0.  0.
384  3.83  0.  0.  0.
385  3.84  0.  0.  0.
386  3.85  0.  0.  0.
387  3.86  0.  0.  0.
388  3.87  0.  0.  0.
389  3.88  0.  0.  0.
390  3.89  0.  0.  0.
391  3.90  0.  0.  0.
392  3.91  0.  0.  0.
393  3.92  0.  0.  0.
394  3.93  0.  0.  0.
395  3.94  0.  0.  0.
396  3.95  0.  0.  0.
397  3.96  0.  0.  0.
398  3.97  0.  0.  0.
399  3.98  0.  0.  0.
400  3.99  0.  0.  0.
401  4.00  0.  0.  0.
402  4.01  0.  0.  0.
403  4.02  0.  0.  0.
404  4.03  0.  0.  0.
405  4.04  0.  0.  0.
406  4.05  0.  0.  0.
407  4.06  0.  0.  0.
408  4.07  0.  0.  0.
409  4.08  0.  0.  0.
410  4.09  0.  0.  0.
411  4.10  0.  0.  0.
412  4.11  0.  0.  0.
413  4.12  0.  0.  0.
414  4.13  0.  0.  0.
415  4.14  0.  0.  0.
416  4.15  0.  0.  0.
417  4.16  0.  0.  0.
418  4.17  0.  0.  0.
419  4.18  0.  0.  0.
420  4.19  0.  0.  0.
421  4.20  0.  0.  0.
422  4.21  0.  0.  0.
423  4.22  0.  0.  0.
424  4.23  0.  0.  0.
425  4.24  0.  0.  0.
426  4.25  0.  0.  0.
427  4.26  0.  0.  0.
428  4.27  0.  0.  0.
429  4.28  0.  0.  0.
430  4.29  0.  0.  0.
431  4.30  0.  0.  0.
432  4.31  0.  0.  0.
433  4.32  0.  0.  0.
434  4.33  0.  0.  0.
435  4.34  0.  0.  0.
436  4.35  0.  0.  0.
437  4.36  0.  0.  0.
438  4.37  0.  0.  0.
439  4.38  0.  0.  0.
440  4.39  0.  0.  0.
441  4.40  0.  0.  0.
442  4.41  0.  0.  0.
443  4.42  0.  0.  0.
444  4.43  0.  0.  0.
445  4.44  0.  0.  0.
446  4.45  0.  0.  0.
447  4.46  0.  0.  0.
448  4.47  0.  0.  0.
449  4.48  0.  0.  0.
450  4.49  0.  0.  0.
451  4.50  0.  0.  0.
452  4.51  0.  0.  0.
453  4.52  0.  0.  0.
454  4.53  0.  0.  0.
455  4.54  0.  0.  0.
456  4.55  0.  0.  0.
457  4.56  0.  0.  0.
458  4.57  0.  0.  0.
459  4.58  0.  0.  0.
460  4.59  0.  0.  0.
461  4.60  0.  0.  0.
462  4.61  0.  0.  0.
463  4.62  0.  0.  0.
464  4.63  0.  0.  0.
465  4.64  0.  0.  0.
466  4.65  0.  0.  0.
467  4.66  0.  0.  0.
468  4.67  0.  0.  0.
469  4.68  0.  0.  0.
470  4.69  0.  0.  0.
471  4.70  0.  0.  0.
472  4.71  0.  0.  0.
473  4.72  0.  0.  0.
474  4.73  0.  0.  0.
475  4.74  0.  0.  0.
476  4.75  0.  0.  0.
477  4.76  0.  0.  0.
478  4.77  0.  0.  0.
479  4.78  0.  0.  0.
480  4.79  0.  0.  0.
481  4.80  0.  0.  0.
482  4.81  0.  0.  0.
483  4.82  0.  0.  0.
484  4.83  0.  0.  0.
485  4.84  0.  0.  0.
486  4.85  0.  0.  0.
487  4.86  0.  0.  0.
488  4.87  0.  0.  0.
489  4.88  0.  0.  0.
490  4.89  0.  0.  0.
491  4.90  0.  0.  0.
492  4.91  0.  0.  0.
493  4.92  0.  0.  0.
494  4.93  0.  0.  0.
495  4.94  0.  0.  0.
496  4.95  0.  0.  0.
497  4.96  0.  0.  0.
498  4.97  0.  0.  0.
499  4.98  0.  0.  0.
500  4.99  0.  0.  0.
501  5.00  0.  0.  0.
502  5.01  0.  0.  0.
503  5.02  0.  0.  0.
504  5.03  0.  0.  0.
505  5.04  0.  0.  0.
506  5.05  0.  0.  0.
507  5.06  0.  0.  0.
508  5.07  0.  0.  0.
509  5.08  0.  0.  0.
510  5.09  0.  0.  0.
511  5.10  0.  0.  0.
512  5.11  0.  0.  0.
513  5.12  0.  0.  0.
514  5.13  0.  0.  0.
515  5.14  0.  0.  0.
516  5.15  0.  0.  0.
517  5.16  0.  0.  0.
518  5.17  0.  0.  0.
519  5.18  0.  0.  0.
520  5.19  0.  0.  0.
521  5.20  0.  0.  0.
522  5.21  0.  0.  0.
523  5.22  0.  0.  0.
524  5.23  0.  0.  0.
525  5.24  0.  0.  0.
526  5.25  0.  0.  0.
527  5.26  0.  0.  0.
528  5.27  0.  0.  0.
529  5.28  0.  0.  0.
530  5.29  0.  0.  0.
531  5.30  0.  0.  0.
532  5.31  0.  0.  0.
533  5.32  0.  0.  0.
534  5.33  0.  0.  0.
535  5.34  0.  0.  0.
536  5.35  0.  0.  0.
537  5.36  0.  0.  0.
538  5.37  0.  0.  0.
539  5.38  0.  0.  0.
540  5.39  0.  0.  0.
541  5.40  0.  0.  0.
542  5.41  0.  0.  0.
543  5.42  0.  0.  0.
544  5.43  0.  0.  0.
545  5.44  0.  0.  0.
546  5.45  0.  0.  0.
547  5.46  0.  0.  0.
548  5.47  0.  0.  0.
549  5.48  0.  0.  0.
550  5.49  0.  0.  0.
551  5.50  0.  0.  0.
552  5.51  0.  0.  0.
553  5.52  0.  0.  0.
554  5.53  0.  0.  0.
555  5.54  0.  0.  0.
556  5.55  0.  0.  0.
557  5.56  0.  0.  0.
558  5.57  0.  0.  0.
559  5.58  0.  0.  0.
560  5.59  0.  0.  0.
561  5.60  0.  0.  0.
562  5.61  0.  0.  0.
563  5.62  0.  0.  0.
564  5.63  0.  0.  0.
565  5.64  0.  0.  0.
566  5.65  0.  0.  0.
567  5.66  0.  0.  0.
568  5.67  0.  0.  0.
569  5.68  0.  0.  0.
570  5.69  0.  0.  0.
571  5.70  0.  0.  0.
572  5.71  0.  0.  0.
573  5.72  0.  0.  0.
574  5.73  0.  0.  0.
575  5.74  0.  0.  0.
576  5.75  0.  0.  0.
577  5.76  0.  0.  0.
578  5.77  0.  0.  0.
579  5.78  0.  0.  0.
580  5.79  0.  0.  0.
581  5.80  0.  0.  0.
582  5.81  0.  0.  0.
583  5.82  0.  0.  0.
584  5.83  0.  0.  0.
585  5.84  0.  0.  0.
586  5.85  0.  0.  0.
587  5.86  0.  0.  0.
588  5.87  0.  0.  0.
589  5.88  0.  0.  0.
590  5.89  0.  0.  0.
591  5.90  0.  0.  0.
592  5.91  0.  0.  0.
593  5.92  0.  0.  0.
594  5.93  0.  0.  0.
595  5.94  0.  0.  0.
596  5.95  0.  0.  0.
597  5.96  0.  0.  0.
598  5.97  0.  0.  0.
599  5.98  0.  0.  0.
600  5.99  0.  0.  0.
1                        -4.2382178132280E+00  9.8323690978145E-01 -4.2731836761933E-02
1  0.0000000000000E+00  3.2550456774416E-10 -2.0593802774194E-09 -7.6762649951767E-09
2  1.0000000000000E-02  1.0884510107814E-03  2.1356663920314E-03 -3.1756407256333E-04
3  2.0000000000000E-02  4.3500415693999E-03  8.5312421268791E-03 -1.2618949832674E-03
4  3.0000000000000E-02  9.7735035909821E-03  1.9152463996239E-02 -2.8081161724916E-03
5  4.0000000000000E-02  1.7340121203298E-02  3.3942251685896E-02 -4.9154533247202E-03
6  5.0000000000000E-02  2.7023826505657E-02  5.2820749889818E-02 -7.5282483349489E-03
7  6.0000000000000E-02  3.8791332351665E-02  7.5685396268441E-02 -1.0577347286691E-02
8  7.0000000000000E-02  5.2602300899953E-02  1.0241102394618E-01 -1.3981831662254E-02
9  8.0000000000000E-02  6.8409546351473E-02  1.3285000930257E-01 -1.7651054329702E-02
10  9.0000000000000E-02  8.6159269990789E-02  1.6683247756401E-01 -2.1486934982426E-02
11  1.0000000000000E-01  1.0579132537616E-01  2.0416658009677E-01 -2.5386463788660E-02
12  1.1000000000000E-01  1.2723951128317E-01  2.4463885828888E-01 -2.9244357171086E-02
13  1.2000000000000E-01  1.5043188980240E-01  2.8801470945536E-01 -3.2955805974715E-02
14  1.3000000000000E-01  1.7529112682608E-01  3.3403897027642E-01 -3.6419253886095E-02
15  1.4000000000000E-01  2.0173485203306E-01  3.8243663287264E-01 -3.9539142877688E-02
16  1.5000000000000E-01  2.2967603539806E-01  4.3291370772133E-01 -4.2228562709850E-02
17  1.6000000000000E-01  2.5902337720934E-01  4.8515824623934E-01 -4.4411743112428E-02
18  1.7000000000000E-01  2.8968170857885E-01  5.3884153400924E-01 -4.6026330174251E-02
19  1.8000000000000E-01  3.2155239946995E-01  5.9361946334286E-01 -4.7025392623340E-02
20  1.9000000000000E-01  3.5453377134686E-01  6.4913409119185E-01 -4.7379109013560E-02
21  2.0000000000000E-01  3.8852151166604E-01  7.0501538538313E-01 -4.7076093227896E-02
22  2.1000000000000E-01  4.2340908757872E-01  7.6088315883011E-01 -4.6124323045920E-02
23  2.2000000000000E-01  4.5908815639225E-01  8.1634918781755E-01 -4.4551644647663E-02
24  2.3000000000000E-01  4.9544897054187E-01  8.7101950674609E-01 -4.2405834681432E-02
25  2.4000000000000E-01  5.3238077504925E-01  9.2449686793192E-01 -3.9754210723073E-02
26  2.5000000000000E-01  5.6977219568485E-01  9.7638335126329E-01 -3.6682790420063E-02
27  2.6000000000000E-01  6.0751161630239E-01  1.0262831048027E+00 -3.3295009144129E-02
28  2.7000000000000E-01  6.4548754407126E-01  1.0738051938706E+00 -2.9710015382099E-02
29  2.8000000000000E-01  6.8358896158990E-01  1.1185665328352E+00 -2.6060572177253E-02
30  2.9000000000000E-01  7.2170566511670E-01  1.1601948708352E+00 -2.2490601509939E-02
31  3.0000000000000E-01  7.5972858839812E-01  1.1983318000559E+00 -1.9152416392315E-02
32  3.1000000000000E-01  7.9755011180352E-01  1.2326357530224E+00 -1.6203692489640E-02
33  3.2000000000000E-01  8.3506435668747E-01  1.2627849537265E+00 -1.3804237114490E-02
34  3.3000000000000E-01  8.7216746508942E-01  1.2884802863141E+00 -1.2112618346484E-02
35  3.4000000000000E-01  9.0875786504530E-01  1.3094480445671E+00 -1.1282720699638E-02
36  3.5000000000000E-01  9.4473652192153E-01  1.3254425255371E+00 -1.1460296109732E-02
37  3.6000000000000E-01  9.8000717628950E-01  1.3362484314522E+00 -1.2779579991367E-02
38  3.7000000000000E-01  1.0144765689340E+00  1.3416830454203E+00 -1.5360041687234E-02
39  3.8000000000000E-01  1.0480546536343E+00  1.3415981484807E+00 -1.9303336801290E-02
40  3.9000000000000E-01  1.0806547983698E+00  1.3358816481948E+00 -2.4690525700557E-02
41  4.0000000000000E-01  1.1121939755852E+00  1.3244588921759E+00 -3.1579617942144E-02
42  4.1000000000000E-01  1.1425929421045E+00  1.3072936436967E+00 -4.0003496613609E-02
43  4.2000000000000E-01  1.1717764092116E+00  1.2843887007230E+00 -4.9968269674921E-02
44  4.3000000000000E-01  1.1996732033177E+00  1.2557861443338E+00 -6.1452087486619E-02
45  4.4000000000000E-01  1.2262164175213E+00  1.2215672074352E+00 -7.4404456955651E-02
46  4.5000000000000E-01  1.2513435542308E+00  1.1818517598672E+00 -8.8746073290203E-02
47  4.6000000000000E-01  1.2749966588770E+00  1.1367974113563E+00 -1.0436918041882E-01
48  4.7000000000000E-01  1.2971224445852E+00  1.0865982391903E+00 -1.2113846088160E-01
49  4.8000000000000E-01  1.3176724075235E+00  1.0314831528880E+00 -1.3889244565299E-01
50  4.9000000000000E-01  1.3366029324823E+00  9.7171391341414E-01 -1.5744542409998E-01
51  5.0000000000000E-01  1.3538753880957E+00  9.0758282955331E-01 -1.7658982433161E-01
52  5.1000000000000E-01  1.3694562109699E+00  8.3941015881285E-01 -1.9609902474307E-01
53  5.2000000000000E-01  1.3833169778626E+00  7.6754124459255E-01 -2.1573054879737E-01
54  5.3000000000000E-01  1.3954344649505E+00  6.9234342525328E-01 -2.3522958719457E-01
55  5.4000000000000E-01  1.4057906931356E+00  6.1420275406810E-01 -2.5433278471416E-01
56  5.5000000000000E-01  1.4143729582890E+00  5.3352057178470E-01 -2.7277222332268E-01
57  5.6000000000000E-01  1.4211738452963E+00  4.5070997561368E-01 -2.9027952873777E-01
58  5.7000000000000E-01  1.4261912247725E+00  3.6619222984421E-01 -3.0659002462345E-01
59  5.8000000000000E-01  1.4294282313491E+00  2.8039316394639E-01 -3.2144685703524E-01
60  5.9000000000000E-01  1.4308932224985E+00  1.9373960393398E-01 -3.3460501167168E-01
61  6.0000000000000E-01  1.4305997169627E+00  1.0665588193083E-01 -3.4583514793817E-01
62  6.1000000000000E-01  1.4285663119825E+00  1.9560467317614E-02 -3.5492717677276E-01
63  6.2000000000000E-01  1.4248165786845E+00 -6.7137239439104E-02 -3.6169351357252E-01
64  6.3000000000000E-01  1.4193789351726E+00 -1.5303991212083E-01 -3.6597194332179E-01
65  6.4000000000000E-01  1.4122864970866E+00 -2.3776506866920E-01 -3.6762804205906E-01