Ra    ONCVPSP-4.0.1  r_core=   1.60343   1.60343   1.75396
88.0000     28.0000      231012    zatom,zion,pspd
8 -116133   2     4   600     0    pspcod,pspxc,lmax,lloc,mmax,r2well
5.99000000  5.00000000  0.00000000    rchrg fchrg qchrg
3     2     2     0     0    nproj
1     1           extension_switch
0                         9.3699763531148E+00 -3.8973535084906E+00  5.5781859873989E-01
1  0.0000000000000E+00 -1.9501235071218E-09 -5.5500659623675E-11 -6.7651441115757E-09
2  1.0000000000000E-02  1.1852495871967E-01  3.3347898621207E-02  4.7322081895744E-02
3  2.0000000000000E-02  2.3644368561363E-01  6.6680180846416E-02  9.4014434807659E-02
4  3.0000000000000E-02  3.5315409855302E-01  9.9981213605337E-02  1.3945509269300E-01
5  4.0000000000000E-02  4.6806237516095E-01  1.3323533006182E-01  1.8303750525051E-01
6  5.0000000000000E-02  5.8058698409087E-01  1.6642681170240E-01  2.2417797220596E-01
7  6.0000000000000E-02  6.9016259939936E-01  1.9953986923135E-01  2.6232275421145E-01
8  7.0000000000000E-02  7.9624386137341E-01  2.3255862194137E-01  2.9695476066446E-01
9  8.0000000000000E-02  8.9830894912276E-01  2.6546707528446E-01  3.2759972151749E-01
10  9.0000000000000E-02  9.9586293262766E-01  2.9824909643479E-01  3.5383175838239E-01
11  1.0000000000000E-01  1.0884408747071E+00  3.3088838771217E-01  3.7527827979509E-01
12  1.1000000000000E-01  1.1756106564981E+00  3.6336845782070E-01  3.9162413623038E-01
13  1.2000000000000E-01  1.2569755034668E+00  3.9567259094884E-01  4.0261498216209E-01
14  1.3000000000000E-01  1.3321761926527E+00  4.2778381387385E-01  4.0805980494462E-01
15  1.4000000000000E-01  1.4008929257272E+00  4.5968486131217E-01  4.0783259334398E-01
16  1.5000000000000E-01  1.4628468564619E+00  4.9135813985609E-01  4.0187313193666E-01
17  1.6000000000000E-01  1.5178012652990E+00  5.2278569093376E-01  3.9018692110711E-01
18  1.7000000000000E-01  1.5655623778306E+00  5.5394915332131E-01  3.7284423577480E-01
19  1.8000000000000E-01  1.6059798280644E+00  5.8482972582158E-01  3.4997834904478E-01
20  1.9000000000000E-01  1.6389467713315E+00  6.1540813080027E-01  3.2178295949193E-01
21  2.0000000000000E-01  1.6643996555065E+00  6.4566457933634E-01  2.8850887253891E-01
22  2.1000000000000E-01  1.6823176628240E+00  6.7557873879698E-01  2.5045999719389E-01
23  2.2000000000000E-01  1.6927218379295E+00  7.0512970368688E-01  2.0798872909014E-01
24  2.3000000000000E-01  1.6956739208584E+00  7.3429597064580E-01  1.6149079917069E-01
25  2.4000000000000E-01  1.6912749063527E+00  7.6305541847651E-01  1.1139967435274E-01
26  2.5000000000000E-01  1.6796633532715E+00  7.9138529407628E-01  5.8180601985425E-02
27  2.6000000000000E-01  1.6610134698053E+00  8.1926220511900E-01  2.3243938062008E-03
28  2.7000000000000E-01  1.6355330017377E+00  8.4666212029142E-01 -5.5658952644836E-02
29  2.8000000000000E-01  1.6034609521122E+00  8.7356037782687E-01 -1.1524669660241E-01
30  2.9000000000000E-01  1.5650651613411E+00  8.9993170300263E-01 -1.7590976314128E-01
31  3.0000000000000E-01  1.5206397770504E+00  9.2575023517510E-01 -2.3711902388881E-01
32  3.1000000000000E-01  1.4705026427862E+00  9.5098956482028E-01 -2.9835135875239E-01
33  3.2000000000000E-01  1.4149926341481E+00  9.7562278092803E-01 -3.5909541367622E-01
34  3.3000000000000E-01  1.3544669699685E+00  9.9962252896854E-01 -4.1885697643891E-01
35  3.4000000000000E-01  1.2892985248611E+00  1.0229610795103E+00 -4.7716390067828E-01
36  3.5000000000000E-01  1.2198731678534E+00  1.0456104074232E+00 -5.3357051755455E-01
37  3.6000000000000E-01  1.1465871499243E+00  1.0675422814515E+00 -5.8766148453577E-01
38  3.7000000000000E-01  1.0698445611406E+00  1.0887283637866E+00 -6.3905503154515E-01
39  3.8000000000000E-01  9.9005487576326E-01  1.1091403191225E+00 -6.8740557592951E-01
40  3.9000000000000E-01  9.0763060122651E-01  1.1287499325249E+00 -7.3240568920758E-01
41  4.0000000000000E-01  8.2298504432261E-01  1.1475292353039E+00 -7.7378741011375E-01
42  4.1000000000000E-01  7.3653020530797E-01  1.1654506379467E+00 -8.1132290987088E-01
43  4.2000000000000E-01  6.4867480802146E-01  1.1824870690411E+00 -8.4482452670261E-01
44  4.3000000000000E-01  5.5982247152504E-01  1.1986121190095E+00 -8.7414419714336E-01
45  4.4000000000000E-01  4.7037002628216E-01  1.2138001873779E+00 -8.9917232153525E-01
46  4.5000000000000E-01  3.8070597552055E-01  1.2280266322209E+00 -9.1983611006297E-01
47  4.6000000000000E-01  2.9120910022287E-01  1.2412679203625E+00 -9.3609746361239E-01
48  4.7000000000000E-01  2.0224720418156E-01  1.2535017768694E+00 -9.4795045053020E-01
49  4.8000000000000E-01  1.1417599377527E-01  1.2647073323464E+00 -9.5541844589165E-01
50  4.9000000000000E-01  2.7338085590212E-02  1.2748652665431E+00 -9.5855100409801E-01
51  5.0000000000000E-01 -5.7937866251329E-02  1.2839579467950E+00 -9.5742053842916E-01
52  5.1000000000000E-01 -1.4133793218009E-01  1.2919695598607E+00 -9.5211888258198E-01
53  5.2000000000000E-01 -2.2256356850995E-01  1.2988862357750E+00 -9.4275380920191E-01
54  5.3000000000000E-01 -3.0133218824378E-01  1.3046961624114E+00 -9.2944557898775E-01
55  5.4000000000000E-01 -3.7737765172174E-01  1.3093896895446E+00 -9.1232359118044E-01
56  5.5000000000000E-01 -4.5045068733637E-01  1.3129594213147E+00 -8.9152320218646E-01
57  5.6000000000000E-01 -5.2031925214235E-01  1.3154002961192E+00 -8.6718277384444E-01
58  5.7000000000000E-01 -5.8676884155410E-01  1.3167096531006E+00 -8.3944100651940E-01
59  5.8000000000000E-01 -6.4960275647972E-01  1.3168872845476E+00 -8.0843460495230E-01
60  5.9000000000000E-01 -7.0864233520859E-01  1.3159354736863E+00 -7.7429631672483E-01
61  6.0000000000000E-01 -7.6372715618710E-01  1.3138590175050E+00 -7.3715337450654E-01
62  6.1000000000000E-01 -8.1471521651436E-01  1.3106652344252E+00 -6.9712636408870E-01
63  6.2000000000000E-01 -8.6148308960053E-01  1.3063639568019E+00 -6.5432853074773E-01
64  6.3000000000000E-01 -9.0392606399397E-01  1.3009675084077E+00 -6.0886552691524E-01
65  6.4000000000000E-01 -9.4195826393420E-01  1.2944906672199E+00 -5.6083559462971E-01
66  6.5000000000000E-01 -9.7551275076195E-01  1.2869506139888E+00 -5.1033016698656E-01
67  6.6000000000000E-01 -1.0045416029490E+00  1.2783668672197E+00 -4.5743486395152E-01
68  6.7000000000000E-01 -1.0290159712364E+00  1.2687612053379E+00 -4.0223084963788E-01
69  6.8000000000000E-01 -1.0489261042130E+00  1.2581575769362E+00 -3.4479651058627E-01
70  6.9000000000000E-01 -1.0642813386652E+00  1.2465820001178E+00 -2.8520940789845E-01
71  7.0000000000000E-01 -1.0751100481965E+00  1.2340624520420E+00 -2.2354845035066E-01
72  7.1000000000000E-01 -1.0814595429814E+00  1.2206287498650E+00 -1.5989623095993E-01
73  7.2000000000000E-01 -1.0833959130931E+00  1.2063124243257E+00 -9.4341465980092E-02
74  7.3000000000000E-01 -1.0810038076432E+00  1.1911465872707E+00 -2.6981473005704E-02
75  7.4000000000000E-01 -1.0743861419983E+00  1.1751657944400E+00  4.2075376185161E-02
76  7.5000000000000E-01 -1.0636637255982E+00  1.1584059048335E+00  1.1270729222049E-01
77  7.6000000000000E-01 -1.0489748033886E+00  1.1409039379709E+00  1.8477685688240E-01
78  7.7000000000000E-01 -1.0304745045916E+00  1.1226979303205E+00  2.5812902408650E-01
79  7.8000000000000E-01 -1.0083341934563E+00  1.1038267921256E+00  3.3258938935888E-01
80  7.9000000000000E-01 -9.8274071774939E-01  1.0843301657901E+00  4.0796277918366E-01
81  8.0000000000000E-01 -9.5389555202982E-01  1.0642482869049E+00  4.8403220572822E-01
82  8.1000000000000E-01 -9.2201383419213E-01  1.0436218489019E+00  5.6055822569738E-01
83  8.2000000000000E-01 -8.8732329532529E-01  1.0224918722189E+00  6.3727873457400E-01
84  8.3000000000000E-01 -8.5006308458828E-01  1.0008995787433E+00  7.1390921939549E-01
85  8.4000000000000E-01 -8.1048249252372E-01  9.7888627218051E-01  7.9014348464610E-01
86  8.5000000000000E-01 -7.6883957797776E-01  9.5649322486749E-01  8.6565485697678E-01
87  8.6000000000000E-01 -7.2539970554091E-01  9.3376157142155E-01  9.4009786544235E-01
88  8.7000000000000E-01 -6.8043400212867E-01  9.1073220948572E-01  1.0131103849586E+00
89  8.8000000000000E-01 -6.3421774295797E-01  8.8744570770320E-01  1.0843162218632E+00
90  8.9000000000000E-01 -5.8702867870439E-01  8.6394222093014E-01  1.1533281120007E+00
91  9.0000000000000E-01 -5.3914531702301E-01  8.4026141257795E-01  1.2197510937652E+00
92  9.1000000000000E-01 -4.9084517284525E-01  8.1644238386658E-01  1.2831862112061E+00
93  9.2000000000000E-01 -4.4240300290857E-01  7.9252360967061E-01  1.3432344957168E+00
94  9.3000000000000E-01 -3.9408904080269E-01  7.6854288055128E-01  1.3995011691476E+00
95  9.4000000000000E-01 -3.4616724941417E-01  7.4453725049214E-01  1.4516000064819E+00
96  9.5000000000000E-01 -2.9889360799962E-01  7.2054298979449E-01  1.4991577925845E+00
97  9.6000000000000E-01 -2.5251445120813E-01  6.9659554254173E-01  1.5418188050442E+00
98  9.7000000000000E-01 -2.0726487719869E-01  6.7272948801061E-01  1.5792492538199E+00
99  9.8000000000000E-01 -1.6336724155582E-01  6.4897850539155E-01  1.6111416083026E+00
100  9.9000000000000E-01 -1.2102975299858E-01  6.2537534118039E-01  1.6372187435147E+00
101  1.0000000000000E+00 -8.0445185915034E-02  6.0195177861933E-01  1.6572378394657E+00
102  1.0100000000000E+00 -4.1789723542813E-02  5.7873860859558E-01  1.6709939711448E+00
103  1.0200000000000E+00 -5.2219441779279E-03  5.5576560145038E-01  1.6783233311775E+00
104  1.0300000000000E+00  2.9118038852911E-02  5.3306147920899E-01  1.6791060327356E+00
105  1.0400000000000E+00  6.1109274553120E-02  5.1065388781123E-01  1.6732684467762E+00
106  1.0500000000000E+00  9.0650502033677E-02  4.8856936900140E-01  1.6607850349672E+00
107  1.0600000000000E+00  1.1766050390127E-01  4.6683333162432E-01  1.6416796476173E+00
108  1.0700000000000E+00  1.4207828265564E-01  4.4547002216806E-01  1.6160262644233E+00
109  1.0800000000000E+00  1.6386305975016E-01  4.2450249449253E-01  1.5839491647208E+00
110  1.0900000000000E+00  1.8299409924547E-01  4.0395257878381E-01  1.5456225230131E+00
111  1.1000000000000E+00  1.9947036024173E-01  3.8384084987486E-01  1.5012694347138E+00
112  1.1100000000000E+00  2.1330998446560E-01  3.6418659517170E-01  1.4511603860522E+00
113  1.1200000000000E+00  2.2454962749148E-01  3.4500778251813E-01  1.3956111908660E+00
114  1.1300000000000E+00  2.3324364402932E-01  3.2632102841958E-01  1.3349804252710E+00
115  1.1400000000000E+00  2.3946313950976E-01  3.0814156712516E-01  1.2696663989232E+00
116  1.1500000000000E+00  2.4329490177245E-01  2.9048322113470E-01  1.2001037084689E+00
117  1.1600000000000E+00  2.4484022801684E-01  2.7335837375285E-01  1.1267594248238E+00
118  1.1700000000000E+00  2.4421366324998E-01  2.5677794435310E-01  1.0501289708670E+00
119  1.1800000000000E+00  2.4154166725962E-01  2.4075136703951E-01  9.7073174996713E-01
120  1.1900000000000E+00  2.3696122761812E-01  2.2528657340238E-01  8.8910658830705E-01
121  1.2000000000000E+00  2.3061843637474E-01  2.1038998005367E-01  8.0580705520194E-01
122  1.2100000000000E+00  2.2266704790414E-01  1.9606648159981E-01  7.2139672542207E-01
123  1.2200000000000E+00  2.1326703484923E-01  1.8231944966190E-01  6.3644444593722E-01
124  1.2300000000000E+00  2.0258315820656E-01  1.6915073848616E-01  5.5151966640389E-01
125  1.2400000000000E+00  1.9078356638520E-01  1.5656069760232E-01  4.6718788823431E-01
126  1.2500000000000E+00  1.7803843649934E-01  1.4454819188305E-01  3.8400628111309E-01
127  1.2600000000000E+00  1.6451866927049E-01  1.3311062923567E-01  3.0251950851615E-01
128  1.2700000000000E+00  1.5039464673469E-01  1.2224399601980E-01  2.2325579519735E-01
129  1.2800000000000E+00  1.3583505946642E-01  1.1194290013032E-01  1.4672325972287E-01
130  1.2900000000000E+00  1.2100580731657E-01  1.0220062151863E-01  7.3406524231650E-02
131  1.3000000000000E+00  1.0606897472195E-01  9.3009169747397E-02  3.7636017157010E-03
132  1.3100000000000E+00  9.1181878503656E-02  8.4359347985268E-02 -6.1776951657361E-02
133  1.3200000000000E+00  7.6496182800772E-02  7.6240822653927E-02 -1.2281864502003E-01
134  1.3300000000000E+00  6.2157072409908E-02  6.8642197740815E-02 -1.7899946177098E-01
135  1.3400000000000E+00  4.8302472348195E-02  6.1551092589012E-02 -2.2999412293722E-01
136  1.3500000000000E+00  3.5062298001970E-02  5.4954221775740E-02 -2.7551627310480E-01
137  1.3600000000000E+00  2.2557716786176E-02  4.8837475493625E-02 -3.1532067131665E-01
138  1.3700000000000E+00  1.0900398898228E-02  4.3185998659118E-02 -3.4920548319417E-01
139  1.3800000000000E+00  1.9173149317743E-04  3.7984266789698E-02 -3.7701478406547E-01
140  1.3900000000000E+00 -9.4780324470847E-03  3.3216156522437E-02 -3.9864139558701E-01
141  1.4000000000000E+00 -1.8030722147433E-02  2.8865008490543E-02 -4.1403019028396E-01
142  1.4100000000000E+00 -2.5401328178160E-02  2.4913680135815E-02 -4.2318200927713E-01
143  1.4200000000000E+00 -3.1539249232230E-02  2.1344585914699E-02 -4.2615834815952E-01
144  1.4300000000000E+00 -3.6409745076856E-02  1.8139722256516E-02 -4.2308697429450E-01
145  1.4400000000000E+00 -3.9995635864869E-02  1.5280674556213E-02 -4.1416864562872E-01
146  1.4500000000000E+00 -4.2299289267731E-02  1.2748603431467E-02 -3.9968510635326E-01
147  1.4600000000000E+00 -4.3344937766474E-02  1.0524207447154E-02 -3.8000853827735E-01
148  1.4700000000000E+00 -4.3181368898936E-02  8.5876595090262E-03 -3.5561264855944E-01
149  1.4800000000000E+00 -4.1885034016910E-02  6.9185139899869E-03 -3.2708558850016E-01
150  1.4900000000000E+00 -3.9563613336129E-02  5.4955821495130E-03 -2.9514485698945E-01
151  1.5000000000000E+00 -3.6359989705686E-02  4.2967790709090E-03 -2.6065391980829E-01
152  1.5100000000000E+00 -3.2456156754066E-02  3.2989668975571E-03 -2.2463792838205E-01
153  1.5200000000000E+00 -2.8059519388068E-02  2.4788715345108E-03 -1.8820863617690E-01
154  1.5300000000000E+00 -2.3391310802116E-02  1.8131963589374E-03 -1.5248708041962E-01
155  1.5400000000000E+00 -1.8682309951532E-02  1.2786497518948E-03 -1.1858244718063E-01
156  1.5500000000000E+00 -1.4120892158557E-02  8.5852090279264E-04 -8.7402403117041E-02
157  1.5600000000000E+00 -9.8955077261894E-03  5.3773837896286E-04 -5.9803973227500E-02
158  1.5700000000000E+00 -6.1942143214135E-03  3.0278528038569E-04 -3.6591848692171E-02
159  1.5800000000000E+00 -3.2044303111390E-03  1.4183315388302E-04 -1.8520260744632E-02
160  1.5900000000000E+00 -1.0959064650030E-03  4.4291814628793E-05 -6.2036921721385E-03
161  1.6000000000000E+00 -1.0412549450299E-04  3.8460160703802E-06 -5.7668615421400E-04
162  1.6100000000000E+00  1.9840687852449E-05 -6.9367466091241E-07  1.0871457260524E-04
163  1.6200000000000E+00 -6.1861243100716E-06  2.2577618904149E-07 -3.4239360799470E-05
164  1.63  0. -0.  0.
165  1.64 -0. -0. -0.
166  1.65  0.  0.  0.
167  1.66  0.  0.  0.
168  1.67  0.  0.  0.
169  1.68  0.  0.  0.
170  1.69  0.  0.  0.
171  1.70  0.  0.  0.
172  1.71  0.  0.  0.
173  1.72  0.  0.  0.
174  1.73  0.  0.  0.
175  1.74  0.  0.  0.
176  1.75  0.  0.  0.
177  1.76  0.  0.  0.
178  1.77  0.  0.  0.
179  1.78  0.  0.  0.
180  1.79  0.  0.  0.
181  1.80  0.  0.  0.
182  1.81  0.  0.  0.
183  1.82  0.  0.  0.
184  1.83  0.  0.  0.
185  1.84  0.  0.  0.
186  1.85  0.  0.  0.
187  1.86  0.  0.  0.
188  1.87  0.  0.  0.
189  1.88  0.  0.  0.
190  1.89  0.  0.  0.
191  1.90  0.  0.  0.
192  1.91  0.  0.  0.
193  1.92  0.  0.  0.
194  1.93  0.  0.  0.
195  1.94  0.  0.  0.
196  1.95  0.  0.  0.
197  1.96  0.  0.  0.
198  1.97  0.  0.  0.
199  1.98  0.  0.  0.
200  1.99  0.  0.  0.
201  2.00  0.  0.  0.
202  2.01  0.  0.  0.
203  2.02  0.  0.  0.
204  2.03  0.  0.  0.
205  2.04  0.  0.  0.
206  2.05  0.  0.  0.
207  2.06  0.  0.  0.
208  2.07  0.  0.  0.
209  2.08  0.  0.  0.
210  2.09  0.  0.  0.
211  2.10  0.  0.  0.
212  2.11  0.  0.  0.
213  2.12  0.  0.  0.
214  2.13  0.  0.  0.
215  2.14  0.  0.  0.
216  2.15  0.  0.  0.
217  2.16  0.  0.  0.
218  2.17  0.  0.  0.
219  2.18  0.  0.  0.
220  2.19  0.  0.  0.
221  2.20  0.  0.  0.
222  2.21  0.  0.  0.
223  2.22  0.  0.  0.
224  2.23  0.  0.  0.
225  2.24  0.  0.  0.
226  2.25  0.  0.  0.
227  2.26  0.  0.  0.
228  2.27  0.  0.  0.
229  2.28  0.  0.  0.
230  2.29  0.  0.  0.
231  2.30  0.  0.  0.
232  2.31  0.  0.  0.
233  2.32  0.  0.  0.
234  2.33  0.  0.  0.
235  2.34  0.  0.  0.
236  2.35  0.  0.  0.
237  2.36  0.  0.  0.
238  2.37  0.  0.  0.
239  2.38  0.  0.  0.
240  2.39  0.  0.  0.
241  2.40  0.  0.  0.
242  2.41  0.  0.  0.
243  2.42  0.  0.  0.
244  2.43  0.  0.  0.
245  2.44  0.  0.  0.
246  2.45  0.  0.  0.
247  2.46  0.  0.  0.
248  2.47  0.  0.  0.
249  2.48  0.  0.  0.
250  2.49  0.  0.  0.
251  2.50  0.  0.  0.
252  2.51  0.  0.  0.
253  2.52  0.  0.  0.
254  2.53  0.  0.  0.
255  2.54  0.  0.  0.
256  2.55  0.  0.  0.
257  2.56  0.  0.  0.
258  2.57  0.  0.  0.
259  2.58  0.  0.  0.
260  2.59  0.  0.  0.
261  2.60  0.  0.  0.
262  2.61  0.  0.  0.
263  2.62  0.  0.  0.
264  2.63  0.  0.  0.
265  2.64  0.  0.  0.
266  2.65  0.  0.  0.
267  2.66  0.  0.  0.
268  2.67  0.  0.  0.
269  2.68  0.  0.  0.
270  2.69  0.  0.  0.
271  2.70  0.  0.  0.
272  2.71  0.  0.  0.
273  2.72  0.  0.  0.
274  2.73  0.  0.  0.
275  2.74  0.  0.  0.
276  2.75  0.  0.  0.
277  2.76  0.  0.  0.
278  2.77  0.  0.  0.
279  2.78  0.  0.  0.
280  2.79  0.  0.  0.
281  2.80  0.  0.  0.
282  2.81  0.  0.  0.
283  2.82  0.  0.  0.
284  2.83  0.  0.  0.
285  2.84  0.  0.  0.
286  2.85  0.  0.  0.
287  2.86  0.  0.  0.
288  2.87  0.  0.  0.
289  2.88  0.  0.  0.
290  2.89  0.  0.  0.
291  2.90  0.  0.  0.
292  2.91  0.  0.  0.
293  2.92  0.  0.  0.
294  2.93  0.  0.  0.
295  2.94  0.  0.  0.
296  2.95  0.  0.  0.
297  2.96  0.  0.  0.
298  2.97  0.  0.  0.
299  2.98  0.  0.  0.
300  2.99  0.  0.  0.
301  3.00  0.  0.  0.
302  3.01  0.  0.  0.
303  3.02  0.  0.  0.
304  3.03  0.  0.  0.
305  3.04  0.  0.  0.
306  3.05  0.  0.  0.
307  3.06  0.  0.  0.
308  3.07  0.  0.  0.
309  3.08  0.  0.  0.
310  3.09  0.  0.  0.
311  3.10  0.  0.  0.
312  3.11  0.  0.  0.
313  3.12  0.  0.  0.
314  3.13  0.  0.  0.
315  3.14  0.  0.  0.
316  3.15  0.  0.  0.
317  3.16  0.  0.  0.
318  3.17  0.  0.  0.
319  3.18  0.  0.  0.
320  3.19  0.  0.  0.
321  3.20  0.  0.  0.
322  3.21  0.  0.  0.
323  3.22  0.  0.  0.
324  3.23  0.  0.  0.
325  3.24  0.  0.  0.
326  3.25  0.  0.  0.
327  3.26  0.  0.  0.
328  3.27  0.  0.  0.
329  3.28  0.  0.  0.
330  3.29  0.  0.  0.
331  3.30  0.  0.  0.
332  3.31  0.  0.  0.
333  3.32  0.  0.  0.
334  3.33  0.  0.  0.
335  3.34  0.  0.  0.
336  3.35  0.  0.  0.
337  3.36  0.  0.  0.
338  3.37  0.  0.  0.
339  3.38  0.  0.  0.
340  3.39  0.  0.  0.
341  3.40  0.  0.  0.
342  3.41  0.  0.  0.
343  3.42  0.  0.  0.
344  3.43  0.  0.  0.
345  3.44  0.  0.  0.
346  3.45  0.  0.  0.
347  3.46  0.  0.  0.
348  3.47  0.  0.  0.
349  3.48  0.  0.  0.
350  3.49  0.  0.  0.
351  3.50  0.  0.  0.
352  3.51  0.  0.  0.
353  3.52  0.  0.  0.
354  3.53  0.  0.  0.
355  3.54  0.  0.  0.
356  3.55  0.  0.  0.
357  3.56  0.  0.  0.
358  3.57  0.  0.  0.
359  3.58  0.  0.  0.
360  3.59  0.  0.  0.
361  3.60  0.  0.  0.
362  3.61  0.  0.  0.
363  3.62  0.  0.  0.
364  3.63  0.  0.  0.
365  3.64  0.  0.  0.
366  3.65  0.  0.  0.
367  3.66  0.  0.  0.
368  3.67  0.  0.  0.
369  3.68  0.  0.  0.
370  3.69  0.  0.  0.
371  3.70  0.  0.  0.
372  3.71  0.  0.  0.
373  3.72  0.  0.  0.
374  3.73  0.  0.  0.
375  3.74  0.  0.  0.
376  3.75  0.  0.  0.
377  3.76  0.  0.  0.
378  3.77  0.  0.  0.
379  3.78  0.  0.  0.
380  3.79  0.  0.  0.
381  3.80  0.  0.  0.
382  3.81  0.  0.  0.
383  3.82  0.  0.  0.
384  3.83  0.  0.  0.
385  3.84  0.  0.  0.
386  3.85  0.  0.  0.
387  3.86  0.  0.  0.
388  3.87  0.  0.  0.
389  3.88  0.  0.  0.
390  3.89  0.  0.  0.
391  3.90  0.  0.  0.
392  3.91  0.  0.  0.
393  3.92  0.  0.  0.
394  3.93  0.  0.  0.
395  3.94  0.  0.  0.
396  3.95  0.  0.  0.
397  3.96  0.  0.  0.
398  3.97  0.  0.  0.
399  3.98  0.  0.  0.
400  3.99  0.  0.  0.
401  4.00  0.  0.  0.
402  4.01  0.  0.  0.
403  4.02  0.  0.  0.
404  4.03  0.  0.  0.
405  4.04  0.  0.  0.
406  4.05  0.  0.  0.
407  4.06  0.  0.  0.
408  4.07  0.  0.  0.
409  4.08  0.  0.  0.
410  4.09  0.  0.  0.
411  4.10  0.  0.  0.
412  4.11  0.  0.  0.
413  4.12  0.  0.  0.
414  4.13  0.  0.  0.
415  4.14  0.  0.  0.
416  4.15  0.  0.  0.
417  4.16  0.  0.  0.
418  4.17  0.  0.  0.
419  4.18  0.  0.  0.
420  4.19  0.  0.  0.
421  4.20  0.  0.  0.
422  4.21  0.  0.  0.
423  4.22  0.  0.  0.
424  4.23  0.  0.  0.
425  4.24  0.  0.  0.
426  4.25  0.  0.  0.
427  4.26  0.  0.  0.
428  4.27  0.  0.  0.
429  4.28  0.  0.  0.
430  4.29  0.  0.  0.
431  4.30  0.  0.  0.
432  4.31  0.  0.  0.
433  4.32  0.  0.  0.
434  4.33  0.  0.  0.
435  4.34  0.  0.  0.
436  4.35  0.  0.  0.
437  4.36  0.  0.  0.
438  4.37  0.  0.  0.
439  4.38  0.  0.  0.
440  4.39  0.  0.  0.
441  4.40  0.  0.  0.
442  4.41  0.  0.  0.
443  4.42  0.  0.  0.
444  4.43  0.  0.  0.
445  4.44  0.  0.  0.
446  4.45  0.  0.  0.
447  4.46  0.  0.  0.
448  4.47  0.  0.  0.
449  4.48  0.  0.  0.
450  4.49  0.  0.  0.
451  4.50  0.  0.  0.
452  4.51  0.  0.  0.
453  4.52  0.  0.  0.
454  4.53  0.  0.  0.
455  4.54  0.  0.  0.
456  4.55  0.  0.  0.
457  4.56  0.  0.  0.
458  4.57  0.  0.  0.
459  4.58  0.  0.  0.
460  4.59  0.  0.  0.
461  4.60  0.  0.  0.
462  4.61  0.  0.  0.
463  4.62  0.  0.  0.
464  4.63  0.  0.  0.
465  4.64  0.  0.  0.
466  4.65  0.  0.  0.
467  4.66  0.  0.  0.
468  4.67  0.  0.  0.
469  4.68  0.  0.  0.
470  4.69  0.  0.  0.
471  4.70  0.  0.  0.
472  4.71  0.  0.  0.
473  4.72  0.  0.  0.
474  4.73  0.  0.  0.
475  4.74  0.  0.  0.
476  4.75  0.  0.  0.
477  4.76  0.  0.  0.
478  4.77  0.  0.  0.
479  4.78  0.  0.  0.
480  4.79  0.  0.  0.
481  4.80  0.  0.  0.
482  4.81  0.  0.  0.
483  4.82  0.  0.  0.
484  4.83  0.  0.  0.
485  4.84  0.  0.  0.
486  4.85  0.  0.  0.
487  4.86  0.  0.  0.
488  4.87  0.  0.  0.
489  4.88  0.  0.  0.
490  4.89  0.  0.  0.
491  4.90  0.  0.  0.
492  4.91  0.  0.  0.
493  4.92  0.  0.  0.
494  4.93  0.  0.  0.
495  4.94  0.  0.  0.
496  4.95  0.  0.  0.
497  4.96  0.  0.  0.
498  4.97  0.  0.  0.
499  4.98  0.  0.  0.
500  4.99  0.  0.  0.
501  5.00  0.  0.  0.
502  5.01  0.  0.  0.
503  5.02  0.  0.  0.
504  5.03  0.  0.  0.
505  5.04  0.  0.  0.
506  5.05  0.  0.  0.
507  5.06  0.  0.  0.
508  5.07  0.  0.  0.
509  5.08  0.  0.  0.
510  5.09  0.  0.  0.
511  5.10  0.  0.  0.
512  5.11  0.  0.  0.
513  5.12  0.  0.  0.
514  5.13  0.  0.  0.
515  5.14  0.  0.  0.
516  5.15  0.  0.  0.
517  5.16  0.  0.  0.
518  5.17  0.  0.  0.
519  5.18  0.  0.  0.
520  5.19  0.  0.  0.
521  5.20  0.  0.  0.
522  5.21  0.  0.  0.
523  5.22  0.  0.  0.
524  5.23  0.  0.  0.
525  5.24  0.  0.  0.
526  5.25  0.  0.  0.
527  5.26  0.  0.  0.
528  5.27  0.  0.  0.
529  5.28  0.  0.  0.
530  5.29  0.  0.  0.
531  5.30  0.  0.  0.
532  5.31  0.  0.  0.
533  5.32  0.  0.  0.
534  5.33  0.  0.  0.
535  5.34  0.  0.  0.
536  5.35  0.  0.  0.
537  5.36  0.  0.  0.
538  5.37  0.  0.  0.
539  5.38  0.  0.  0.
540  5.39  0.  0.  0.
541  5.40  0.  0.  0.
542  5.41  0.  0.  0.
543  5.42  0.  0.  0.
544  5.43  0.  0.  0.
545  5.44  0.  0.  0.
546  5.45  0.  0.  0.
547  5.46  0.  0.  0.
548  5.47  0.  0.  0.
549  5.48  0.  0.  0.
550  5.49  0.  0.  0.
551  5.50  0.  0.  0.
552  5.51  0.  0.  0.
553  5.52  0.  0.  0.
554  5.53  0.  0.  0.
555  5.54  0.  0.  0.
556  5.55  0.  0.  0.
557  5.56  0.  0.  0.
558  5.57  0.  0.  0.
559  5.58  0.  0.  0.
560  5.59  0.  0.  0.
561  5.60  0.  0.  0.
562  5.61  0.  0.  0.
563  5.62  0.  0.  0.
564  5.63  0.  0.  0.
565  5.64  0.  0.  0.
566  5.65  0.  0.  0.
567  5.66  0.  0.  0.
568  5.67  0.  0.  0.
569  5.68  0.  0.  0.
570  5.69  0.  0.  0.
571  5.70  0.  0.  0.
572  5.71  0.  0.  0.
573  5.72  0.  0.  0.
574  5.73  0.  0.  0.
575  5.74  0.  0.  0.
576  5.75  0.  0.  0.
577  5.76  0.  0.  0.
578  5.77  0.  0.  0.
579  5.78  0.  0.  0.
580  5.79  0.  0.  0.
581  5.80  0.  0.  0.
582  5.81  0.  0.  0.
583  5.82  0.  0.  0.
584  5.83  0.  0.  0.
585  5.84  0.  0.  0.
586  5.85  0.  0.  0.
587  5.86  0.  0.  0.
588  5.87  0.  0.  0.
589  5.88  0.  0.  0.
590  5.89  0.  0.  0.
591  5.90  0.  0.  0.
592  5.91  0.  0.  0.
593  5.92  0.  0.  0.
594  5.93  0.  0.  0.
595  5.94  0.  0.  0.
596  5.95  0.  0.  0.
597  5.96  0.  0.  0.
598  5.97  0.  0.  0.
599  5.98  0.  0.  0.
600  5.99  0.  0.  0.
1                        -4.2029525977468E+00 -3.5541106781195E-01
1  0.0000000000000E+00  1.5475172532309E-10  4.3764820240044E-09
2  1.0000000000000E-02  1.2025304518150E-03 -1.8449649264830E-03
3  2.0000000000000E-02  4.8057834991482E-03 -7.3719783099555E-03
4  3.0000000000000E-02  1.0796762493636E-02 -1.6557336003680E-02
5  4.0000000000000E-02  1.9153867196303E-02 -2.9361333927985E-02
6  5.0000000000000E-02  2.9846984766261E-02 -4.5727981680713E-02
7  6.0000000000000E-02  4.2837616597726E-02 -6.5584620086140E-02
8  7.0000000000000E-02  5.8079040459097E-02 -8.8841460639930E-02
9  8.0000000000000E-02  7.5516507233067E-02 -1.1539106918415E-01
10  9.0000000000000E-02  9.5087471403101E-02 -1.4510781998027E-01
11  1.0000000000000E-01  1.1672185427939E-01 -1.7784734954130E-01
12  1.1000000000000E-01  1.4034233880713E-01 -2.1344604205687E-01
13  1.2000000000000E-01  1.6586469465200E-01 -2.5172057992525E-01
14  1.3000000000000E-01  1.9319813211276E-01 -2.9246759375002E-01
15  1.4000000000000E-01  2.2224568326951E-01 -3.3546344612804E-01
16  1.5000000000000E-01  2.5290460863909E-01 -3.8046418264150E-01
17  1.6000000000000E-01  2.8506682747720E-01 -4.2720568167367E-01
18  1.7000000000000E-01  3.1861936974096E-01 -4.7540403202033E-01
19  1.8000000000000E-01  3.5344484760641E-01 -5.2475616381515E-01
20  1.9000000000000E-01  3.8942194432494E-01 -5.7494075408342E-01
21  2.0000000000000E-01  4.2642591809989E-01 -6.2561942336971E-01
22  2.1000000000000E-01  4.6432911857304E-01 -6.7643823444095E-01
23  2.2000000000000E-01  5.0300151342952E-01 -7.2702949815829E-01
24  2.3000000000000E-01  5.4231122256067E-01 -7.7701388535322E-01
25  2.4000000000000E-01  5.8212505716900E-01 -8.2600283706982E-01
26  2.5000000000000E-01  6.2230906115754E-01 -8.7360125897231E-01
27  2.6000000000000E-01  6.6272905211944E-01 -9.1941047920852E-01
28  2.7000000000000E-01  7.0325115923301E-01 -9.6303144270021E-01
29  2.8000000000000E-01  7.4374235537329E-01 -1.0040681088380E+00
30  2.9000000000000E-01  7.8407098077408E-01 -1.0421310140202E+00
31  3.0000000000000E-01  8.2410725561529E-01 -1.0768409555209E+00
32  3.1000000000000E-01  8.6372377896842E-01 -1.1078327489050E+00
33  3.2000000000000E-01  9.0279601160989E-01 -1.1347590077419E+00
34  3.3000000000000E-01  9.4120274030566E-01 -1.1572938917772E+00
35  3.4000000000000E-01  9.7882652128283E-01 -1.1751367680783E+00
36  3.5000000000000E-01  1.0155541007322E+00 -1.1880157290321E+00
37  3.6000000000000E-01  1.0512768103316E+00 -1.1956909114576E+00
38  3.7000000000000E-01  1.0858909359399E+00 -1.1979575625325E+00
39  3.8000000000000E-01  1.1192980577872E+00 -1.1946488006980E+00
40  3.9000000000000E-01  1.1514053606744E+00 -1.1856380231794E+00
41  4.0000000000000E-01  1.1821259128952E+00 -1.1708409161889E+00
42  4.1000000000000E-01  1.2113789128035E+00 -1.1502170291917E+00
43  4.2000000000000E-01  1.2390899021670E+00 -1.1237708807357E+00
44  4.3000000000000E-01  1.2651909456713E+00 -1.0915525701575E+00
45  4.4000000000000E-01  1.2896207761692E+00 -1.0536578768768E+00
46  4.5000000000000E-01  1.3123249054966E+00 -1.0102278368315E+00
47  4.6000000000000E-01  1.3332557009115E+00 -9.6144779376783E-01
48  4.7000000000000E-01  1.3523724274382E+00 -9.0754593141481E-01
49  4.8000000000000E-01  1.3696412566212E+00 -8.4879130090395E-01
50  4.9000000000000E-01  1.3850352424153E+00 -7.8549136598289E-01
51  5.0000000000000E-01  1.3985342651419E+00 -7.1798909646417E-01
52  5.1000000000000E-01  1.4101249446432E+00 -6.4665964780049E-01
53  5.2000000000000E-01  1.4198005239494E+00 -5.7190667154436E-01
54  5.3000000000000E-01  1.4275607249450E+00 -4.9415830760201E-01
55  5.4000000000000E-01  1.4334115776777E+00 -4.1386291450874E-01
56  5.5000000000000E-01  1.4373652250887E+00 -3.3148459833450E-01
57  5.6000000000000E-01  1.4394397050652E+00 -2.4749860418431E-01
58  5.7000000000000E-01  1.4396587118129E+00 -1.6238663652111E-01
59  5.8000000000000E-01  1.4380513386309E+00 -7.6632175660077E-02
60  5.9000000000000E-01  1.4346518042273E+00  9.2841422647958E-03
61  6.0000000000000E-01  1.4294991647536E+00  9.4889015784425E-02
62  6.1000000000000E-01  1.4226370137563E+00  1.7972077533313E-01
63  6.2000000000000E-01  1.4141131722380E+00  2.6333342705164E-01
64  6.3000000000000E-01  1.4039793710034E+00  3.4530038753067E-01
65  6.4000000000000E-01  1.3922909274197E+00  4.2521785942141E-01
66  6.5000000000000E-01  1.3791064186664E+00  5.0270780427740E-01
67  6.6000000000000E-01  1.3644873534701E+00  5.7742047619874E-01
68  6.7000000000000E-01  1.3484978442332E+00  6.4903648770089E-01
69  6.8000000000000E-01  1.3312042813562E+00  7.1726838757770E-01
70  6.9000000000000E-01  1.3126750114415E+00  7.8186173922507E-01
71  7.0000000000000E-01  1.2929800209363E+00  8.4259569677354E-01
72  7.1000000000000E-01  1.2721906266389E+00  8.9928308528501E-01
73  7.2000000000000E-01  1.2503791743530E+00  9.5177000003193E-01
74  7.3000000000000E-01  1.2276187468270E+00  9.9993494833782E-01
75  7.4000000000000E-01  1.2039828819691E+00  1.0436875654523E+00
76  7.5000000000000E-01  1.1795453021833E+00  1.0829669433152E+00
77  7.6000000000000E-01  1.1543796555223E+00  1.1177396176943E+00
78  7.7000000000000E-01  1.1285592692139E+00  1.1479972649264E+00
79  7.8000000000000E-01  1.1021569159806E+00  1.1737541642515E+00
80  7.9000000000000E-01  1.0752445934391E+00  1.1950444854031E+00
81  8.0000000000000E-01  1.0478933167489E+00  1.2119194636385E+00
82  8.1000000000000E-01  1.0201729245630E+00  1.2244445257062E+00
83  8.2000000000000E-01  9.9215189823480E-01  1.2326964303252E+00
84  8.3000000000000E-01  9.6389719414197E-01  1.2367604855905E+00
85  8.4000000000000E-01  9.3547408891124E-01  1.2367279033311E+00
86  8.5000000000000E-01  9.0694603726036E-01  1.2326933468845E+00