U     ONCVPSP-4.0.1  r_core=   1.25145   1.30497   1.45333   1.45333
92.0000     32.0000      231012    zatom,zion,pspd
8   -1012   3     4   600     0    pspcod,pspxc,lmax,lloc,mmax,r2well
5.99000000  4.00000000  0.00000000    rchrg fchrg qchrg
3     2     2     2     0    nproj
1     1           extension_switch
0                         3.4302287926554E+01  7.6861116975995E+00  1.3387779678937E+00
1  0.0000000000000E+00 -5.4386186221222E-08  1.0847303302808E-07 -1.8569615822805E-07
2  1.0000000000000E-02  1.3214853256265E-01 -4.1430730121243E-02  8.0714969403992E-02
3  2.0000000000000E-02  2.6340552202479E-01 -8.1716867927964E-02  1.5962800495368E-01
4  3.0000000000000E-02  3.9289479125524E-01 -1.1974348084441E-01  2.3498925793257E-01
5  4.0000000000000E-02  5.1977044103062E-01 -1.5445403780867E-01  3.0515144359235E-01
6  5.0000000000000E-02  6.4323086867086E-01 -1.8487734452167E-01  3.6861715761845E-01
7  6.0000000000000E-02  7.6253148314345E-01 -2.1015184147973E-01  4.2408157311422E-01
8  7.0000000000000E-02  8.7699574880439E-01 -2.2954651861182E-01  4.7046920555034E-01
9  8.0000000000000E-02  9.8602424433023E-01 -2.4247780881568E-01  5.0696361882229E-01
10  9.0000000000000E-02  1.0891014880214E+00 -2.4852195168233E-01  5.3302916661989E-01
11  1.0000000000000E-01  1.1858003534402E+00 -2.4742246411945E-01  5.4842411286062E-01
12  1.1000000000000E-01  1.2757839779354E+00 -2.3909251180590E-01  5.5320474520350E-01
13  1.2000000000000E-01  1.3588051484562E+00 -2.2361213941917E-01  5.4772037820738E-01
14  1.3000000000000E-01  1.4347032315102E+00 -2.0122048313428E-01  5.3259942869591E-01
15  1.4000000000000E-01  1.5033987944849E+00 -1.7230325068805E-01  5.0872702637766E-01
16  1.5000000000000E-01  1.5648861411996E+00 -1.3737590713026E-01  4.7721488893078E-01
17  1.6000000000000E-01  1.6192240529835E+00 -9.7063143301231E-02  4.3936443420275E-01
18  1.7000000000000E-01  1.6665250855209E+00 -5.2075324563435E-02  3.9662431518681E-01
19  1.8000000000000E-01  1.7069438191793E+00 -3.1827154226455E-03  3.5054373923441E-01
20  1.9000000000000E-01  1.7406644949240E+00  4.8811651853035E-02  3.0272306590799E-01
21  2.0000000000000E-01  1.7678884880141E+00  1.0309955212786E-01  2.5476326364156E-01
22  2.1000000000000E-01  1.7888220767243E+00  1.5889465858757E-01  2.0821584112111E-01
23  2.2000000000000E-01  1.8036649530678E+00  2.1545823855354E-01  1.6453485371770E-01
24  2.3000000000000E-01  1.8125998971488E+00  2.7212258773049E-01  1.2503251873833E-01
25  2.4000000000000E-01  1.8157839970587E+00  3.2831141079344E-01  9.0839857634135E-02
26  2.5000000000000E-01  1.8133417433581E+00  3.8355645669045E-01  6.2873622125151E-02
27  2.6000000000000E-01  1.8053602627806E+00  4.3750984077178E-01  4.1810559428566E-02
28  2.7000000000000E-01  1.7918868818991E+00  4.8995162896411E-01  2.8069835697269E-02
29  2.8000000000000E-01  1.7729291304542E+00  5.4079241715803E-01  2.1804173776816E-02
30  2.9000000000000E-01  1.7484572084892E+00  5.9007080669305E-01  2.2899979804347E-02
31  3.0000000000000E-01  1.7184088541482E+00  6.3794584890759E-01  3.0986441922171E-02
32  3.1000000000000E-01  1.6826964628517E+00  6.8468470256020E-01  4.5453292782162E-02
33  3.2000000000000E-01  1.6412162264423E+00  7.3064591191633E-01  6.5476644951276E-02
34  3.3000000000000E-01  1.5938589855524E+00  7.7625886500732E-01  9.0052043915464E-02
35  3.4000000000000E-01  1.5405224224685E+00  8.2200012592287E-01  1.1803364574178E-01
36  3.5000000000000E-01  1.4811241674412E+00  8.6836744744872E-01  1.4817822337983E-01
37  3.6000000000000E-01  1.4156153506618E+00  9.1585235703069E-01  1.7919254379458E-01
38  3.7000000000000E-01  1.3439941064956E+00  9.6491226687988E-01  2.0978254303989E-01
39  3.8000000000000E-01  1.2663185270690E+00  1.0159430858864E+00  2.3870266195471E-01
40  3.9000000000000E-01  1.1827185694525E+00  1.0692533057402E+00  2.6480369371260E-01
41  4.0000000000000E-01  1.0934064444315E+00  1.1250404961875E+00  2.8707753656351E-01
42  4.1000000000000E-01  9.9868505462697E-01  1.1833710756328E+00  3.0469733966875E-01
43  4.2000000000000E-01  8.9895410440462E-01  1.2441641253519E+00  3.1705167405259E-01
44  4.3000000000000E-01  7.9471357194727E-01  1.3071798914063E+00  3.2377154988659E-01
45  4.4000000000000E-01  6.8656431301087E-01  1.3720134718120E+00  3.2474932959607E-01
46  4.5000000000000E-01  5.7520565373054E-01  1.4380940223041E+00  3.2014884627929E-01
47  4.6000000000000E-01  4.6142992362696E-01  1.5046896374026E+00  3.1040632029459E-01
48  4.7000000000000E-01  3.4611397665784E-01  1.5709178801828E+00  2.9622196436937E-01
49  4.8000000000000E-01  2.3020784462682E-01  1.6357617501776E+00  2.7854246949690E-01
50  4.9000000000000E-01  1.1472076035192E-01  1.6980907002376E+00  2.5853486034737E-01
51  5.0000000000000E-01  7.0487461665731E-04  1.7566861458979E+00  2.3755249012662E-01
52  5.1000000000000E-01 -1.1076293179016E-01  1.8102707603979E+00  2.1709420155050E-01
53  5.2000000000000E-01 -2.1860067431009E-01  1.8575407200573E+00  1.9875790433062E-01
54  5.3000000000000E-01 -3.2174181131707E-01  1.8971999625256E+00  1.8419000294103E-01
55  5.4000000000000E-01 -4.1915615823926E-01  1.9279954480246E+00  1.7503224534806E-01
56  5.5000000000000E-01 -5.0987059798040E-01  1.9487523735429E+00  1.7286764937513E-01
57  5.6000000000000E-01 -5.9298901629544E-01  1.9584082834651E+00  1.7916719562236E-01
58  5.7000000000000E-01 -6.6771090847968E-01  1.9560450476066E+00  1.9523895339181E-01
59  5.8000000000000E-01 -7.3334813884091E-01  1.9409177382027E+00  2.2218122977825E-01
60  5.9000000000000E-01 -7.8933938584750E-01  1.9124795291128E+00  2.6084120464089E-01
61  6.0000000000000E-01 -8.3526187190971E-01  1.8704018602534E+00  3.1178034006503E-01
62  6.1000000000000E-01 -8.7084005532152E-01  1.8145892541174E+00  3.7524763813361E-01
63  6.2000000000000E-01 -8.9595105036893E-01  1.7451883342820E+00  4.5116157282098E-01
64  6.3000000000000E-01 -9.1062663709356E-01  1.6625907726109E+00  5.3910124908963E-01
65  6.4000000000000E-01 -9.1505182151810E-01  1.5674300764114E+00  6.3830705421256E-01
66  6.5000000000000E-01 -9.0956000701399E-01  1.4605723129257E+00  7.4769077278898E-01
67  6.6000000000000E-01 -8.9462493460823E-01  1.3431010499113E+00  8.6585484789158E-01
68  6.7000000000000E-01 -8.7084964117723E-01  1.2162969616118E+00  9.9112019608607E-01
69  6.8000000000000E-01 -8.3895276666787E-01  1.0816127034261E+00  1.1215617329113E+00
70  6.9000000000000E-01 -7.9975261202159E-01  9.4064379091055E-01  1.2550505462010E+00
71  7.0000000000000E-01 -7.5414940609023E-01  7.9509632506299E-01  1.3893014744944E+00
72  7.1000000000000E-01 -7.0310628072248E-01  6.4675248269191E-01  1.5219247124755E+00
73  7.2000000000000E-01 -6.4762947713406E-01  4.9743473571408E-01  1.6504799789491E+00
74  7.3000000000000E-01 -5.8874831301004E-01  3.4896977520060E-01  1.7725317475602E+00
75  7.4000000000000E-01 -5.2749542850094E-01  2.0315309486351E-01  1.8857040566445E+00
76  7.5000000000000E-01 -4.6488780097010E-01  6.1715135591176E-02  1.9877334806799E+00
77  7.6000000000000E-01 -4.0190897424153E-01 -7.3710190075046E-02  2.0765189583006E+00
78  7.7000000000000E-01 -3.3949288996429E-01 -2.0161388356475E-01  2.1501673254728E+00
79  7.8000000000000E-01 -2.7850963885697E-01 -3.2063657677314E-01  2.2070335902690E+00
80  7.9000000000000E-01 -2.1975337077596E-01 -4.2958914742505E-01  2.2457551993393E+00
81  8.0000000000000E-01 -1.6393251788071E-01 -5.2746895904004E-01  2.2652797760872E+00
82  8.1000000000000E-01 -1.1166239806012E-01 -6.1347161289349E-01  2.2648860461475E+00
83  8.2000000000000E-01 -6.3460179813860E-02 -6.8699825806327E-01  2.2441978958827E+00
84  8.3000000000000E-01 -1.9742108651615E-02 -7.4765865423434E-01  2.2031917226465E+00
85  8.4000000000000E-01  1.9177177533969E-02 -7.9527031328329E-01  2.1421974198579E+00
86  8.5000000000000E-01  5.3083477125981E-02 -8.2985415277319E-01  2.0618934839566E+00
87  8.6000000000000E-01  8.1860275319788E-02 -8.5162717062438E-01  1.9632968229236E+00
88  8.7000000000000E-01  1.0548472032694E-01 -8.6099268903074E-01  1.8477478766409E+00
89  8.8000000000000E-01  1.2402263304647E-01 -8.5852871126508E-01  1.7168916180209E+00
90  8.9000000000000E-01  1.3762283730070E-01 -8.4497488194734E-01  1.5726548813815E+00
91  9.0000000000000E-01  1.4651104979456E-01 -8.2121843471825E-01  1.4172202525551E+00
92  9.1000000000000E-01  1.5098349150150E-01 -7.8827934660277E-01  1.2529964459905E+00
93  9.2000000000000E-01  1.5140027314080E-01 -7.4729469162404E-01  1.0825846805796E+00
94  9.3000000000000E-01  1.4817846482835E-01 -6.9950189358359E-01  9.0874004134702E-01
95  9.4000000000000E-01  1.4178458202829E-01 -6.4622021577094E-01  7.3432617213156E-01
96  9.5000000000000E-01  1.3272600471836E-01 -5.8882938999955E-01  5.6226087843949E-01
97  9.6000000000000E-01  1.2154059222623E-01 -5.2874377489635E-01  3.9544932292211E-01
98  9.7000000000000E-01  1.0878346031528E-01 -4.6737983953476E-01  2.3670046102263E-01
99  9.8000000000000E-01  9.5009547351457E-02 -4.0611408852669E-01  8.8621183067687E-02
100  9.9000000000000E-01  8.0750208636219E-02 -3.4622777010195E-01 -4.6518715352569E-02
101  1.0000000000000E+00  6.6481695005621E-02 -2.8883396655031E-01 -1.6695876825782E-01
102  1.0100000000000E+00  5.2583880156939E-02 -2.3478406072336E-01 -2.7166060332043E-01
103  1.0200000000000E+00  3.9330617359552E-02 -1.8465209535012E-01 -3.6029549215752E-01
104  1.0300000000000E+00  2.6938692709152E-02 -1.3885662337172E-01 -4.3288110641077E-01
105  1.0400000000000E+00  1.5581519279439E-02 -9.7695531141664E-02 -4.8968330888963E-01
106  1.0500000000000E+00  5.3908211465545E-03 -6.1351881040490E-02 -5.3120130933546E-01
107  1.0600000000000E+00 -3.5409254147702E-03 -2.9901585275833E-02 -5.5814894729678E-01
108  1.0700000000000E+00 -1.1157499017675E-02 -3.3224940698186E-03 -5.7143277144993E-01
109  1.0800000000000E+00 -1.7435596904985E-02  1.8495535687617E-02 -5.7212766781649E-01
110  1.0900000000000E+00 -2.2381355037001E-02  3.5740016494414E-02 -5.6145080431574E-01
111  1.1000000000000E+00 -2.6026904969759E-02  4.8665045278170E-02 -5.4073462966297E-01
112  1.1100000000000E+00 -2.8427123490792E-02  5.7580710551480E-02 -5.1139961959750E-01
113  1.1200000000000E+00 -2.9656701976574E-02  6.2842994166460E-02 -4.7492740091958E-01
114  1.1300000000000E+00 -2.9807630197401E-02  6.4844412372486E-02 -4.3283480717514E-01
115  1.1400000000000E+00 -2.8987155792806E-02  6.4005579577152E-02 -3.8664933422730E-01
116  1.1500000000000E+00 -2.7316246996286E-02  6.0767815455692E-02 -3.3788637242666E-01
117  1.1600000000000E+00 -2.4928554488740E-02  5.5586855771387E-02 -2.8802850059479E-01
118  1.1700000000000E+00 -2.1969812887788E-02  4.8927624741187E-02 -2.3850698485281E-01
119  1.1800000000000E+00 -1.8597839634071E-02  4.1260401921403E-02 -1.9068602580096E-01
120  1.1900000000000E+00 -1.4985290330057E-02  3.3062181483799E-02 -1.4585426161265E-01
121  1.2000000000000E+00 -1.1400020049436E-02  2.4954508646558E-02 -1.0537308094633E-01
122  1.2100000000000E+00 -8.0323174871103E-03  1.7399408876238E-02 -7.0321394302982E-02
123  1.2200000000000E+00 -5.0163254991202E-03  1.0733132168329E-02 -4.1530653472075E-02
124  1.2300000000000E+00 -2.5282504105059E-03  5.3363947051065E-03 -1.9776804921043E-02
125  1.2400000000000E+00 -7.7408792108441E-04  1.6106503572093E-03 -5.7222928807355E-03
126  1.2500000000000E+00 -2.7323014294417E-05  5.5961093498703E-05 -1.9011050973293E-04
127  1.2600000000000E+00 -2.7175911093343E-06  5.5816311611113E-06 -1.9097492944688E-05
128  1.2700000000000E+00  9.0059757163090E-07 -1.8618208816155E-06  6.4947712571748E-06
129  1.28 -0.  0. -0.
130  1.29  0.  0.  0.
131  1.30  0.  0.  0.
132  1.31  0.  0.  0.
133  1.32  0.  0.  0.
134  1.33  0.  0.  0.
135  1.34  0.  0.  0.
136  1.35  0.  0.  0.
137  1.36  0.  0.  0.
138  1.37  0.  0.  0.
139  1.38  0.  0.  0.
140  1.39  0.  0.  0.
141  1.40  0.  0.  0.
142  1.41  0.  0.  0.
143  1.42  0.  0.  0.
144  1.43  0.  0.  0.
145  1.44  0.  0.  0.
146  1.45  0.  0.  0.
147  1.46  0.  0.  0.
148  1.47  0.  0.  0.
149  1.48  0.  0.  0.
150  1.49  0.  0.  0.
151  1.50  0.  0.  0.
152  1.51  0.  0.  0.
153  1.52  0.  0.  0.
154  1.53  0.  0.  0.
155  1.54  0.  0.  0.
156  1.55  0.  0.  0.
157  1.56  0.  0.  0.
158  1.57  0.  0.  0.
159  1.58  0.  0.  0.
160  1.59  0.  0.  0.
161  1.60  0.  0.  0.
162  1.61  0.  0.  0.
163  1.62  0.  0.  0.
164  1.63  0.  0.  0.
165  1.64  0.  0.  0.
166  1.65  0.  0.  0.
167  1.66  0.  0.  0.
168  1.67  0.  0.  0.
169  1.68  0.  0.  0.
170  1.69  0.  0.  0.
171  1.70  0.  0.  0.
172  1.71  0.  0.  0.
173  1.72  0.  0.  0.
174  1.73  0.  0.  0.
175  1.74  0.  0.  0.
176  1.75  0.  0.  0.
177  1.76  0.  0.  0.
178  1.77  0.  0.  0.
179  1.78  0.  0.  0.
180  1.79  0.  0.  0.
181  1.80  0.  0.  0.
182  1.81  0.  0.  0.
183  1.82  0.  0.  0.
184  1.83  0.  0.  0.
185  1.84  0.  0.  0.
186  1.85  0.  0.  0.
187  1.86  0.  0.  0.
188  1.87  0.  0.  0.
189  1.88  0.  0.  0.
190  1.89  0.  0.  0.
191  1.90  0.  0.  0.
192  1.91  0.  0.  0.
193  1.92  0.  0.  0.
194  1.93  0.  0.  0.
195  1.94  0.  0.  0.
196  1.95  0.  0.  0.
197  1.96  0.  0.  0.
198  1.97  0.  0.  0.
199  1.98  0.  0.  0.
200  1.99  0.  0.  0.
201  2.00  0.  0.  0.
202  2.01  0.  0.  0.
203  2.02  0.  0.  0.
204  2.03  0.  0.  0.
205  2.04  0.  0.  0.
206  2.05  0.  0.  0.
207  2.06  0.  0.  0.
208  2.07  0.  0.  0.
209  2.08  0.  0.  0.
210  2.09  0.  0.  0.
211  2.10  0.  0.  0.
212  2.11  0.  0.  0.
213  2.12  0.  0.  0.
214  2.13  0.  0.  0.
215  2.14  0.  0.  0.
216  2.15  0.  0.  0.
217  2.16  0.  0.  0.
218  2.17  0.  0.  0.
219  2.18  0.  0.  0.
220  2.19  0.  0.  0.
221  2.20  0.  0.  0.
222  2.21  0.  0.  0.
223  2.22  0.  0.  0.
224  2.23  0.  0.  0.
225  2.24  0.  0.  0.
226  2.25  0.  0.  0.
227  2.26  0.  0.  0.
228  2.27  0.  0.  0.
229  2.28  0.  0.  0.
230  2.29  0.  0.  0.
231  2.30  0.  0.  0.
232  2.31  0.  0.  0.
233  2.32  0.  0.  0.
234  2.33  0.  0.  0.
235  2.34  0.  0.  0.
236  2.35  0.  0.  0.
237  2.36  0.  0.  0.
238  2.37  0.  0.  0.
239  2.38  0.  0.  0.
240  2.39  0.  0.  0.
241  2.40  0.  0.  0.
242  2.41  0.  0.  0.
243  2.42  0.  0.  0.
244  2.43  0.  0.  0.
245  2.44  0.  0.  0.
246  2.45  0.  0.  0.
247  2.46  0.  0.  0.
248  2.47  0.  0.  0.
249  2.48  0.  0.  0.
250  2.49  0.  0.  0.
251  2.50  0.  0.  0.
252  2.51  0.  0.  0.
253  2.52  0.  0.  0.
254  2.53  0.  0.  0.
255  2.54  0.  0.  0.
256  2.55  0.  0.  0.
257  2.56  0.  0.  0.
258  2.57  0.  0.  0.
259  2.58  0.  0.  0.
260  2.59  0.  0.  0.
261  2.60  0.  0.  0.
262  2.61  0.  0.  0.
263  2.62  0.  0.  0.
264  2.63  0.  0.  0.
265  2.64  0.  0.  0.
266  2.65  0.  0.  0.
267  2.66  0.  0.  0.
268  2.67  0.  0.  0.
269  2.68  0.  0.  0.
270  2.69  0.  0.  0.
271  2.70  0.  0.  0.
272  2.71  0.  0.  0.
273  2.72  0.  0.  0.
274  2.73  0.  0.  0.
275  2.74  0.  0.  0.
276  2.75  0.  0.  0.
277  2.76  0.  0.  0.
278  2.77  0.  0.  0.
279  2.78  0.  0.  0.
280  2.79  0.  0.  0.
281  2.80  0.  0.  0.
282  2.81  0.  0.  0.
283  2.82  0.  0.  0.
284  2.83  0.  0.  0.
285  2.84  0.  0.  0.
286  2.85  0.  0.  0.
287  2.86  0.  0.  0.
288  2.87  0.  0.  0.
289  2.88  0.  0.  0.
290  2.89  0.  0.  0.
291  2.90  0.  0.  0.
292  2.91  0.  0.  0.
293  2.92  0.  0.  0.
294  2.93  0.  0.  0.
295  2.94  0.  0.  0.
296  2.95  0.  0.  0.
297  2.96  0.  0.  0.
298  2.97  0.  0.  0.
299  2.98  0.  0.  0.
300  2.99  0.  0.  0.
301  3.00  0.  0.  0.
302  3.01  0.  0.  0.
303  3.02  0.  0.  0.
304  3.03  0.  0.  0.
305  3.04  0.  0.  0.
306  3.05  0.  0.  0.
307  3.06  0.  0.  0.
308  3.07  0.  0.  0.
309  3.08  0.  0.  0.
310  3.09  0.  0.  0.
311  3.10  0.  0.  0.
312  3.11  0.  0.  0.
313  3.12  0.  0.  0.
314  3.13  0.  0.  0.
315  3.14  0.  0.  0.
316  3.15  0.  0.  0.
317  3.16  0.  0.  0.
318  3.17  0.  0.  0.
319  3.18  0.  0.  0.
320  3.19  0.  0.  0.
321  3.20  0.  0.  0.
322  3.21  0.  0.  0.
323  3.22  0.  0.  0.
324  3.23  0.  0.  0.
325  3.24  0.  0.  0.
326  3.25  0.  0.  0.
327  3.26  0.  0.  0.
328  3.27  0.  0.  0.
329  3.28  0.  0.  0.
330  3.29  0.  0.  0.
331  3.30  0.  0.  0.
332  3.31  0.  0.  0.
333  3.32  0.  0.  0.
334  3.33  0.  0.  0.
335  3.34  0.  0.  0.
336  3.35  0.  0.  0.
337  3.36  0.  0.  0.
338  3.37  0.  0.  0.
339  3.38  0.  0.  0.
340  3.39  0.  0.  0.
341  3.40  0.  0.  0.
342  3.41  0.  0.  0.
343  3.42  0.  0.  0.
344  3.43  0.  0.  0.
345  3.44  0.  0.  0.
346  3.45  0.  0.  0.
347  3.46  0.  0.  0.
348  3.47  0.  0.  0.
349  3.48  0.  0.  0.
350  3.49  0.  0.  0.
351  3.50  0.  0.  0.
352  3.51  0.  0.  0.
353  3.52  0.  0.  0.
354  3.53  0.  0.  0.
355  3.54  0.  0.  0.
356  3.55  0.  0.  0.
357  3.56  0.  0.  0.
358  3.57  0.  0.  0.
359  3.58  0.  0.  0.
360  3.59  0.  0.  0.
361  3.60  0.  0.  0.
362  3.61  0.  0.  0.
363  3.62  0.  0.  0.
364  3.63  0.  0.  0.
365  3.64  0.  0.  0.
366  3.65  0.  0.  0.
367  3.66  0.  0.  0.
368  3.67  0.  0.  0.
369  3.68  0.  0.  0.
370  3.69  0.  0.  0.
371  3.70  0.  0.  0.
372  3.71  0.  0.  0.
373  3.72  0.  0.  0.
374  3.73  0.  0.  0.
375  3.74  0.  0.  0.
376  3.75  0.  0.  0.
377  3.76  0.  0.  0.
378  3.77  0.  0.  0.
379  3.78  0.  0.  0.
380  3.79  0.  0.  0.
381  3.80  0.  0.  0.
382  3.81  0.  0.  0.
383  3.82  0.  0.  0.
384  3.83  0.  0.  0.
385  3.84  0.  0.  0.
386  3.85  0.  0.  0.
387  3.86  0.  0.  0.
388  3.87  0.  0.  0.
389  3.88  0.  0.  0.
390  3.89  0.  0.  0.
391  3.90  0.  0.  0.
392  3.91  0.  0.  0.
393  3.92  0.  0.  0.
394  3.93  0.  0.  0.
395  3.94  0.  0.  0.
396  3.95  0.  0.  0.
397  3.96  0.  0.  0.
398  3.97  0.  0.  0.
399  3.98  0.  0.  0.
400  3.99  0.  0.  0.
401  4.00  0.  0.  0.
402  4.01  0.  0.  0.
403  4.02  0.  0.  0.
404  4.03  0.  0.  0.
405  4.04  0.  0.  0.
406  4.05  0.  0.  0.
407  4.06  0.  0.  0.
408  4.07  0.  0.  0.
409  4.08  0.  0.  0.
410  4.09  0.  0.  0.
411  4.10  0.  0.  0.
412  4.11  0.  0.  0.
413  4.12  0.  0.  0.
414  4.13  0.  0.  0.
415  4.14  0.  0.  0.
416  4.15  0.  0.  0.
417  4.16  0.  0.  0.
418  4.17  0.  0.  0.
419  4.18  0.  0.  0.
420  4.19  0.  0.  0.
421  4.20  0.  0.  0.
422  4.21  0.  0.  0.
423  4.22  0.  0.  0.
424  4.23  0.  0.  0.
425  4.24  0.  0.  0.
426  4.25  0.  0.  0.
427  4.26  0.  0.  0.
428  4.27  0.  0.  0.
429  4.28  0.  0.  0.
430  4.29  0.  0.  0.
431  4.30  0.  0.  0.
432  4.31  0.  0.  0.
433  4.32  0.  0.  0.
434  4.33  0.  0.  0.
435  4.34  0.  0.  0.
436  4.35  0.  0.  0.
437  4.36  0.  0.  0.
438  4.37  0.  0.  0.
439  4.38  0.  0.  0.
440  4.39  0.  0.  0.
441  4.40  0.  0.  0.
442  4.41  0.  0.  0.
443  4.42  0.  0.  0.
444  4.43  0.  0.  0.
445  4.44  0.  0.  0.
446  4.45  0.  0.  0.
447  4.46  0.  0.  0.
448  4.47  0.  0.  0.
449  4.48  0.  0.  0.
450  4.49  0.  0.  0.
451  4.50  0.  0.  0.
452  4.51  0.  0.  0.
453  4.52  0.  0.  0.
454  4.53  0.  0.  0.
455  4.54  0.  0.  0.
456  4.55  0.  0.  0.
457  4.56  0.  0.  0.
458  4.57  0.  0.  0.
459  4.58  0.  0.  0.
460  4.59  0.  0.  0.
461  4.60  0.  0.  0.
462  4.61  0.  0.  0.
463  4.62  0.  0.  0.
464  4.63  0.  0.  0.
465  4.64  0.  0.  0.
466  4.65  0.  0.  0.
467  4.66  0.  0.  0.
468  4.67  0.  0.  0.
469  4.68  0.  0.  0.
470  4.69  0.  0.  0.
471  4.70  0.  0.  0.
472  4.71  0.  0.  0.
473  4.72  0.  0.  0.
474  4.73  0.  0.  0.
475  4.74  0.  0.  0.
476  4.75  0.  0.  0.
477  4.76  0.  0.  0.
478  4.77  0.  0.  0.
479  4.78  0.  0.  0.
480  4.79  0.  0.  0.
481  4.80  0.  0.  0.
482  4.81  0.  0.  0.
483  4.82  0.  0.  0.
484  4.83  0.  0.  0.
485  4.84  0.  0.  0.
486  4.85  0.  0.  0.
487  4.86  0.  0.  0.
488  4.87  0.  0.  0.
489  4.88  0.  0.  0.
490  4.89  0.  0.  0.
491  4.90  0.  0.  0.
492  4.91  0.  0.  0.
493  4.92  0.  0.  0.
494  4.93  0.  0.  0.
495  4.94  0.  0.  0.
496  4.95  0.  0.  0.
497  4.96  0.  0.  0.
498  4.97  0.  0.  0.
499  4.98  0.  0.  0.
500  4.99  0.  0.  0.
501  5.00  0.  0.  0.
502  5.01  0.  0.  0.
503  5.02  0.  0.  0.
504  5.03  0.  0.  0.
505  5.04  0.  0.  0.
506  5.05  0.  0.  0.
507  5.06  0.  0.  0.
508  5.07  0.  0.  0.
509  5.08  0.  0.  0.
510  5.09  0.  0.  0.
511  5.10  0.  0.  0.
512  5.11  0.  0.  0.
513  5.12  0.  0.  0.
514  5.13  0.  0.  0.
515  5.14  0.  0.  0.
516  5.15  0.  0.  0.
517  5.16  0.  0.  0.
518  5.17  0.  0.  0.
519  5.18  0.  0.  0.
520  5.19  0.  0.  0.
521  5.20  0.  0.  0.
522  5.21  0.  0.  0.
523  5.22  0.  0.  0.
524  5.23  0.  0.  0.
525  5.24  0.  0.  0.
526  5.25  0.  0.  0.
527  5.26  0.  0.  0.
528  5.27  0.  0.  0.
529  5.28  0.  0.  0.
530  5.29  0.  0.  0.
531  5.30  0.  0.  0.
532  5.31  0.  0.  0.
533  5.32  0.  0.  0.
534  5.33  0.  0.  0.
535  5.34  0.  0.  0.
536  5.35  0.  0.  0.
537  5.36  0.  0.  0.
538  5.37  0.  0.  0.
539  5.38  0.  0.  0.
540  5.39  0.  0.  0.
541  5.40  0.  0.  0.
542  5.41  0.  0.  0.
543  5.42  0.  0.  0.
544  5.43  0.  0.  0.
545  5.44  0.  0.  0.
546  5.45  0.  0.  0.
547  5.46  0.  0.  0.
548  5.47  0.  0.  0.
549  5.48  0.  0.  0.
550  5.49  0.  0.  0.
551  5.50  0.  0.  0.
552  5.51  0.  0.  0.
553  5.52  0.  0.  0.
554  5.53  0.  0.  0.
555  5.54  0.  0.  0.
556  5.55  0.  0.  0.
557  5.56  0.  0.  0.
558  5.57  0.  0.  0.
559  5.58  0.  0.  0.
560  5.59  0.  0.  0.
561  5.60  0.  0.  0.
562  5.61  0.  0.  0.
563  5.62  0.  0.  0.
564  5.63  0.  0.  0.
565  5.64  0.  0.  0.
566  5.65  0.  0.  0.
567  5.66  0.  0.  0.
568  5.67  0.  0.  0.
569  5.68  0.  0.  0.
570  5.69  0.  0.  0.
571  5.70  0.  0.  0.
572  5.71  0.  0.  0.
573  5.72  0.  0.  0.
574  5.73  0.  0.  0.
575  5.74  0.  0.  0.
576  5.75  0.  0.  0.
577  5.76  0.  0.  0.
578  5.77  0.  0.  0.
579  5.78  0.  0.  0.
580  5.79  0.  0.  0.
581  5.80  0.  0.  0.
582  5.81  0.  0.  0.
583  5.82  0.  0.  0.
584  5.83  0.  0.  0.
585  5.84  0.  0.  0.
586  5.85  0.  0.  0.
587  5.86  0.  0.  0.
588  5.87  0.  0.  0.
589  5.88  0.  0.  0.
590  5.89  0.  0.  0.
591  5.90  0.  0.  0.
592  5.91  0.  0.  0.
593  5.92  0.  0.  0.
594  5.93  0.  0.  0.
595  5.94  0.  0.  0.
596  5.95  0.  0.  0.
597  5.96  0.  0.  0.
598  5.97  0.  0.  0.
599  5.98  0.  0.  0.
600  5.99  0.  0.  0.
1                         1.3053305723260E+01  2.1207757231236E+00
1  0.0000000000000E+00 -2.3238507507184E-09  1.0039423417596E-08
2  1.0000000000000E-02  3.1404071838931E-03 -7.8111354016589E-04
3  2.0000000000000E-02  1.2542256964840E-02 -3.1197503506429E-03
4  3.0000000000000E-02  2.8147493534372E-02 -7.0016516090089E-03
5  4.0000000000000E-02  4.9859557250871E-02 -1.2402567829186E-02
6  5.0000000000000E-02  7.7543690556483E-02 -1.9287554334409E-02
7  6.0000000000000E-02  1.1102737773132E-01 -2.7610029515871E-02
8  7.0000000000000E-02  1.5010092938901E-01 -3.7310638869524E-02
9  8.0000000000000E-02  1.9451822494142E-01 -4.8315977842986E-02
10  9.0000000000000E-02  2.4399762802150E-01 -6.0537234963224E-02
11  1.0000000000000E-01  2.9822309095899E-01 -7.3868823286085E-02
12  1.1000000000000E-01  3.5684546478151E-01 -8.8187072694259E-02
13  1.2000000000000E-01  4.1948403081046E-01 -1.0334905780911E-01
14  1.3000000000000E-01  4.8572826870789E-01 -1.1919163617413E-01
15  1.4000000000000E-01  5.5513987380029E-01 -1.3553076887690E-01
16  1.5000000000000E-01  6.2725503367772E-01 -1.5216119093174E-01
17  1.6000000000000E-01  7.0158697048399E-01 -1.6885649164241E-01
18  1.7000000000000E-01  7.7762875104225E-01 -1.8536965596122E-01
19  1.8000000000000E-01  8.5485636209040E-01 -2.0143410677905E-01
20  1.9000000000000E-01  9.3273204254036E-01 -2.1676527539453E-01
21  2.0000000000000E-01  1.0107078589532E+00 -2.3106271344531E-01
22  2.1000000000000E-01  1.0882295044804E+00 -2.4401274470630E-01
23  2.2000000000000E-01  1.1647402955129E+00 -2.5529163976654E-01
24  2.3000000000000E-01  1.2396853343711E+00 -2.6456928110973E-01
25  2.4000000000000E-01  1.3125158007139E+00 -2.7151327097349E-01
26  2.5000000000000E-01  1.3826933291245E+00 -2.7579341998156E-01
27  2.6000000000000E-01  1.4496944256874E+00 -2.7708654134951E-01
28  2.7000000000000E-01  1.5130148724635E+00 -2.7508146385484E-01
29  2.8000000000000E-01  1.5721740657305E+00 -2.6948416709563E-01
30  2.9000000000000E-01  1.6267192318042E+00 -2.6002293515452E-01
31  3.0000000000000E-01  1.6762294632787E+00 -2.4645341989561E-01
32  3.1000000000000E-01  1.7203195187027E+00 -2.2856350294831E-01
33  3.2000000000000E-01  1.7586433300816E+00 -2.0617784609839E-01
34  3.3000000000000E-01  1.7908971651678E+00 -1.7916202336634E-01
35  3.4000000000000E-01  1.8168223952780E+00 -1.4742613447512E-01
36  3.5000000000000E-01  1.8362078242783E+00 -1.1092780859012E-01
37  3.6000000000000E-01  1.8488915403603E+00 -6.9674518965065E-02
38  3.7000000000000E-01  1.8547622591590E+00 -2.3725143190884E-02
39  3.8000000000000E-01  1.8537601345163E+00  2.6809280211185E-02
40  3.9000000000000E-01  1.8458770216132E+00  8.1765630475738E-02
41  4.0000000000000E-01  1.8311561860917E+00  1.4092963139984E-01
42  4.1000000000000E-01  1.8096914619780E+00  2.0403761966621E-01
43  4.2000000000000E-01  1.7816258704882E+00  2.7077912848280E-01
44  4.3000000000000E-01  1.7471497209366E+00  3.4080024111778E-01
45  4.4000000000000E-01  1.7064982237640E+00  4.1370765058986E-01
46  4.5000000000000E-01  1.6599486539388E+00  4.8907334486704E-01
47  4.6000000000000E-01  1.6078171104814E+00  5.6643982191290E-01
48  4.7000000000000E-01  1.5504549244143E+00  6.4532572623537E-01
49  4.8000000000000E-01  1.4882447729110E+00  7.2523178861672E-01
50  4.9000000000000E-01  1.4215965616565E+00  8.0564694374515E-01
51  5.0000000000000E-01  1.3509431403411E+00  8.8605449675758E-01
52  5.1000000000000E-01  1.2767359177249E+00  9.6593820938156E-01
53  5.2000000000000E-01  1.1994404427785E+00  1.0447881794820E+00
54  5.3000000000000E-01  1.1195320170514E+00  1.1221063943277E+00
55  5.4000000000000E-01  1.0374914006582E+00  1.1974118476508E+00
56  5.5000000000000E-01  9.5380067019717E-01  1.2702451233449E+00
57  5.6000000000000E-01  8.6893928161749E-01  1.3401723641048E+00
58  5.7000000000000E-01  7.8338038468789E-01  1.4067885610611E+00
59  5.8000000000000E-01  6.9758742843929E-01  1.4697201200176E+00
60  5.9000000000000E-01  6.1201108896198E-01  1.5286266807465E+00
61  6.0000000000000E-01  5.2708654243267E-01  1.5832021873560E+00
62  6.1000000000000E-01  4.4323109745155E-01  1.6331752294291E+00
63  6.2000000000000E-01  3.6084219190750E-01  1.6783086948310E+00
64  6.3000000000000E-01  2.8029575088632E-01  1.7183987952151E+00
65  6.4000000000000E-01  2.0194489380900E-01  1.7532735437365E+00
66  6.5000000000000E-01  1.2611897124022E-01  1.7827907808017E+00
67  6.6000000000000E-01  5.3122904828822E-02  1.8068358573531E+00
68  6.7000000000000E-01 -1.6763202203799E-02  1.8253190958192E+00
69  6.8000000000000E-01 -8.3284221585467E-02  1.8381731561216E+00
70  6.9000000000000E-01 -1.4620996487642E-01  1.8453504377839E+00
71  7.0000000000000E-01 -2.0533500059857E-01  1.8468206490853E+00
72  7.1000000000000E-01 -2.6047836872133E-01  1.8425686702838E+00
73  7.2000000000000E-01 -3.1148323751590E-01  1.8325928302311E+00
74  7.3000000000000E-01 -3.5821654637848E-01  1.8169037043249E+00
75  7.4000000000000E-01 -4.0056867553582E-01  1.7955235268835E+00
76  7.5000000000000E-01 -4.3845317964327E-01  1.7684862929260E+00
77  7.6000000000000E-01 -4.7180661724264E-01  1.7358386033057E+00
78  7.7000000000000E-01 -5.0058850195225E-01  1.6976412834920E+00
79  7.8000000000000E-01 -5.2478139420968E-01  1.6539717803872E+00
80  7.9000000000000E-01 -5.4439114447172E-01  1.6049273137326E+00
81  8.0000000000000E-01 -5.5944729008366E-01  1.5506287292308E+00
82  8.1000000000000E-01 -5.7000359863795E-01  1.4912249697803E+00
83  8.2000000000000E-01 -5.7613874060533E-01  1.4268980494015E+00
84  8.3000000000000E-01 -5.7795706337693E-01  1.3578683817136E+00
85  8.4000000000000E-01 -5.7558942761056E-01  1.2844002812654E+00
86  8.5000000000000E-01 -5.6919405490506E-01  1.2068074216284E+00
87  8.6000000000000E-01 -5.5895732327909E-01  1.1254579988146E+00
88  8.7000000000000E-01 -5.4509443361369E-01  1.0407793120720E+00
89  8.8000000000000E-01 -5.2784985600726E-01  9.5326143611118E-01
90  8.9000000000000E-01 -5.0749744972598E-01  8.6345961890134E-01
91  9.0000000000000E-01 -4.8434013391754E-01  7.7199499680037E-01
92  9.1000000000000E-01 -4.5870896826318E-01  6.7955317332003E-01
93  9.2000000000000E-01 -4.3096148301572E-01  5.8688015853671E-01
94  9.3000000000000E-01 -4.0147907611600E-01  4.9477511220999E-01
95  9.4000000000000E-01 -3.7066327098841E-01  4.0407927416806E-01
96  9.5000000000000E-01 -3.3893060184371E-01  3.1566039947077E-01
97  9.6000000000000E-01 -3.0670586350283E-01  2.3039194221740E-01
98  9.7000000000000E-01 -2.7441342951756E-01  1.4912614951787E-01
99  9.8000000000000E-01 -2.4246630530858E-01  7.2660134947782E-02
100  9.9000000000000E-01 -2.1125254121613E-01  1.6938954723155E-03
101  1.0000000000000E+00 -1.8111861239362E-01 -6.3220769492362E-02
102  1.0100000000000E+00 -1.5234983139711E-01 -1.2173961112328E-01
103  1.0200000000000E+00 -1.2516928779334E-01 -1.7371030918643E-01
104  1.0300000000000E+00 -9.9764736158332E-02 -2.1905469065896E-01
105  1.0400000000000E+00 -7.6293830512641E-02 -2.5774462017932E-01
106  1.0500000000000E+00 -5.4882615137969E-02 -2.8980600381524E-01
107  1.0600000000000E+00 -3.5624400889394E-02 -3.1532203254745E-01
108  1.0700000000000E+00 -1.8579078136230E-02 -3.3443550851633E-01
109  1.0800000000000E+00 -3.7729051873602E-03 -3.4735013768502E-01
110  1.0900000000000E+00  8.8011990085515E-03 -3.5433069837909E-01
111  1.1000000000000E+00  1.9182838700328E-02 -3.5570201797651E-01
112  1.1100000000000E+00  2.7442793520262E-02 -3.5184671730880E-01
113  1.1200000000000E+00  3.3681142438839E-02 -3.4320171141398E-01
114  1.1300000000000E+00  3.8024874930396E-02 -3.3025348565031E-01
115  1.1400000000000E+00  4.0625016786744E-02 -3.1353219670783E-01
116  1.1500000000000E+00  4.1653309824764E-02 -2.9360467832357E-01
117  1.1600000000000E+00  4.1298495889314E-02 -2.7106646032748E-01
118  1.1700000000000E+00  3.9762265898033E-02 -2.4653293658185E-01
119  1.1800000000000E+00  3.7254943794314E-02 -2.2062984137017E-01
120  1.1900000000000E+00  3.3990983029230E-02 -1.9398321446302E-01