U     ONCVPSP-4.0.1  r_core=   1.25145   1.30497   1.45333   1.45333
92.0000     32.0000      231012    zatom,zion,pspd
8   -1012   3     4   600     0    pspcod,pspxc,lmax,lloc,mmax,r2well
5.99000000  4.00000000  0.00000000    rchrg fchrg qchrg
3     3     3     3    nproj
3     1           extension_switch
4     4     4    nprojso
0                         3.4335495418808E+01  7.6720450587422E+00  1.3343227716433E+00
1  0.0000000000000E+00 -5.4877524080510E-08  1.0998480892699E-07 -1.8853275163266E-07
2  1.0000000000000E-02  1.3178473344662E-01 -4.1922685952247E-02  8.1032564779636E-02
3  2.0000000000000E-02  2.6268081752891E-01 -8.2693161146050E-02  1.6024623027026E-01
4  3.0000000000000E-02  3.9181502010579E-01 -1.2118917822668E-01  2.3587481929012E-01
5  4.0000000000000E-02  5.1834448606488E-01 -1.5634748707225E-01  3.0625596999666E-01
6  5.0000000000000E-02  6.4147079718582E-01 -1.8719103928679E-01  3.6987902238906E-01
7  6.0000000000000E-02  7.6045271884472E-01 -2.1285352227849E-01  4.2542822068699E-01
8  7.0000000000000E-02  8.7461726312422E-01 -2.3260046753603E-01  4.7181990096683E-01
9  8.0000000000000E-02  9.8336875277060E-01 -2.4584628770049E-01  5.0823252196914E-01
10  9.0000000000000E-02  1.0861956356453E+00 -2.5216672781492E-01  5.3412862141261E-01
11  1.0000000000000E-01  1.1826748727505E+00 -2.5130636356436E-01  5.4926803347861E-01
12  1.1000000000000E-01  1.2724738021885E+00 -2.4318093869501E-01  5.5371197745568E-01
13  1.2000000000000E-01  1.3553494639807E+00 -2.2787450004597E-01  5.4781791430323E-01
14  1.3000000000000E-01  1.4311454538274E+00 -2.0563145641103E-01  5.3222535811406E-01
15  1.4000000000000E-01  1.4997864549337E+00 -1.7684385139682E-01  5.0783311404017E-01
16  1.5000000000000E-01  1.5612706732870E+00 -1.4203429526652E-01  4.7576868422556E-01
17  1.6000000000000E-01  1.6156604707406E+00 -1.0183514144856E-01  4.3735083015046E-01
18  1.7000000000000E-01  1.6630715496377E+00 -5.6964615365830E-02  3.9404649570477E-01
19  1.8000000000000E-01  1.7036610905041E+00 -8.2007024890219E-03  3.4742347337811E-01
20  1.9000000000000E-01  1.7376152789077E+00  4.3646324247848E-02  2.9910033047468E-01
21  2.0000000000000E-01  1.7651366777262E+00  9.7761812800624E-02  2.5069519884674E-01
22  2.1000000000000E-01  1.7864319060045E+00  1.5335413662716E-01  2.0377506739351E-01
23  2.2000000000000E-01  1.8017000750838E+00  2.0968067210024E-01  1.5980720023636E-01
24  2.3000000000000E-01  1.8111224069440E+00  2.6607147168154E-01  1.2011423534261E-01
25  2.4000000000000E-01  1.8148534194907E+00  3.2194983122542E-01  8.5834400474280E-02
26  2.5000000000000E-01  1.8130140100201E+00  3.7684905192163E-01  5.7888119214401E-02
27  2.6000000000000E-01  1.8056867029858E+00  4.3042482308333E-01  3.6952074543490E-02
28  2.7000000000000E-01  1.7929132535132E+00  4.8246279728665E-01  2.3441557408573E-02
29  2.8000000000000E-01  1.7746947162524E+00  5.3288108966339E-01  1.7501660464191E-02
30  2.9000000000000E-01  1.7509940027675E+00  5.8172760329715E-01  1.9007591129593E-02
31  3.0000000000000E-01  1.7217408625544E+00  6.2917225717562E-01  2.7574082393906E-02
32  3.1000000000000E-01  1.6868391358584E+00  6.7549436632975E-01  4.2573583860924E-02
33  3.2000000000000E-01  1.6461760436393E+00  7.2106558994175E-01  6.3162628901082E-02
34  3.3000000000000E-01  1.5996332040736E+00  7.6632901684129E-01  8.8315505716694E-02
35  3.4000000000000E-01  1.5470989985205E+00  8.1177509376710E-01  1.1686411939698E-01
36  3.5000000000000E-01  1.4884818551922E+00  8.5791521545978E-01  1.4754272651283E-01
37  3.6000000000000E-01  1.4237239778419E+00  9.0525388313078E-01  1.7903606032601E-01
38  3.7000000000000E-01  1.3528150211053E+00  9.5426039604990E-01  2.1002924871545E-01
39  3.8000000000000E-01  1.2758052047589E+00  1.0053410677386E+00  2.3925786245937E-01
40  3.9000000000000E-01  1.1928173665878E+00  1.0588129524059E+00  2.6555642088041E-01
41  4.0000000000000E-01  1.1040574777405E+00  1.1148800287565E+00  2.8790372562768E-01
42  4.1000000000000E-01  1.0098231847985E+00  1.1736127181208E+00  3.0546349036062E-01
43  4.2000000000000E-01  9.1050999815896E-01  1.2349315140724E+00  3.1761888136951E-01
44  4.3000000000000E-01  8.0661481507507E-01  1.2985953743543E+00  3.2399977711388E-01
45  4.4000000000000E-01  6.9873654570535E-01  1.3641953769975E+00  3.2450178714364E-01
46  4.5000000000000E-01  5.8757369929629E-01  1.4311539757125E+00  3.1929633544784E-01
47  4.6000000000000E-01  4.7391888232565E-01  1.4987300103549E+00  3.0883140136146E-01
48  4.7000000000000E-01  3.5865025804275E-01  1.5660294423035E+00  2.9382281343314E-01
49  4.8000000000000E-01  2.4272011416066E-01  1.6320215980775E+00  2.7523629816420E-01
50  4.9000000000000E-01  1.2714077931978E-01  1.6955605235637E+00  2.5426078629293E-01
51  5.0000000000000E-01  1.2968216225565E-02  1.7554108818689E+00  2.3227376433999E-01
52  5.1000000000000E-01 -9.8716302826659E-02  1.8102776756878E+00  2.1079971910046E-01
53  5.2000000000000E-01 -2.0682596662085E-01  1.8588389453086E+00  1.9146294902416E-01
54  5.3000000000000E-01 -3.1028911908876E-01  1.8997804903522E+00  1.7593620150395E-01
55  5.4000000000000E-01 -4.0807031871122E-01  1.9318315905663E+00  1.6588673286258E-01
56  5.5000000000000E-01 -4.9919118726330E-01  1.9538006609918E+00  1.6292147374990E-01
57  5.6000000000000E-01 -5.8275047201006E-01  1.9646097709903E+00  1.6853301394804E-01
58  5.7000000000000E-01 -6.5794276364792E-01  1.9633269852479E+00  1.8404809627575E-01
59  5.8000000000000E-01 -7.2407534802875E-01  1.9491955470352E+00  2.1058023033599E-01
60  5.9000000000000E-01 -7.8058272187844E-01  1.9216590176848E+00  2.4898790604163E-01
61  6.0000000000000E-01 -8.2703836963904E-01  1.8803816083113E+00  2.9983970876633E-01
62  6.1000000000000E-01 -8.6316347804754E-01  1.8252630861784E+00  3.6338741874898E-01
63  6.2000000000000E-01 -8.8883235449232E-01  1.7564478038631E+00  4.3954792463086E-01
64  6.3000000000000E-01 -9.0407441161735E-01  1.6743275789248E+00  5.2789450340030E-01
65  6.4000000000000E-01 -9.0907268087069E-01  1.5795383390539E+00  6.2765772613093E-01
66  6.5000000000000E-01 -9.0415891840671E-01  1.4729506363725E+00  7.3773595072229E-01
67  6.6000000000000E-01 -8.8980546460270E-01  1.3556543182732E+00  8.5671506959389E-01
68  6.7000000000000E-01 -8.6661411020986E-01  1.2289378147654E+00  9.8289690187785E-01
69  6.8000000000000E-01 -8.3530230480341E-01  1.0942626579409E+00  1.1143353654769E+00
70  6.9000000000000E-01 -7.9668711401598E-01  9.5323398268970E-01  1.2488793428968E+00
71  7.0000000000000E-01 -7.5166738875398E-01  8.0756786481130E-01  1.3842209732362E+00
72  7.1000000000000E-01 -7.0120465040215E-01  6.5905642970611E-01  1.5179479669404E+00
73  7.2000000000000E-01 -6.4630321968794E-01  5.0953170952486E-01  1.6475984539438E+00
74  7.3000000000000E-01 -5.8799012276960E-01  3.6082923777853E-01  1.7707168418970E+00
75  7.4000000000000E-01 -5.2729529622140E-01  2.1475234794345E-01  1.8849091795898E+00
76  7.5000000000000E-01 -4.6523258354314E-01  7.3038087738759E-02  1.9878965897801E+00
77  7.6000000000000E-01 -4.0278197085749E-01 -6.2674424106240E-02  2.0775654518184E+00
78  7.7000000000000E-01 -3.4087345038662E-01 -1.9087248315438E-01  2.1520131723187E+00
79  7.8000000000000E-01 -2.8037282945717E-01 -3.1019454456832E-01  2.2095885745730E+00
80  7.9000000000000E-01 -2.2206972295617E-01 -4.1945079635281E-01  2.2489261558828E+00
81  8.0000000000000E-01 -1.6666788150237E-01 -5.1763928897030E-01  2.2689736967313E+00
82  8.1000000000000E-01 -1.1477791954716E-01 -6.0395751413275E-01  2.2690129460124E+00
83  8.2000000000000E-01 -6.6912420795409E-02 -6.7780948677813E-01  2.2486733410036E+00
84  8.3000000000000E-01 -2.3483316454082E-02 -7.3880853507455E-01  2.2079389376693E+00
85  8.4000000000000E-01  1.5198641407184E-02 -7.8677613653976E-01  2.1471489143703E+00
86  8.5000000000000E-01  4.8922550030041E-02 -8.2173724694587E-01  2.0669921584876E+00
87  8.6000000000000E-01  7.7574453472911E-02 -8.4391264581093E-01  1.9684965395579E+00
88  8.7000000000000E-01  1.0113317733453E-01 -8.5370886155770E-01  1.8530135035888E+00
89  8.8000000000000E-01  1.1966521457339E-01 -8.5170623491476E-01  1.7221985812603E+00
90  8.9000000000000E-01  1.3331895542433E-01 -8.3864562542310E-01  1.5779882785331E+00
91  9.0000000000000E-01  1.4231850615944E-01 -8.1541415807231E-01  1.4225736033084E+00
92  9.1000000000000E-01  1.4695726354168E-01 -7.8303024066693E-01  1.2583701685198E+00
93  9.2000000000000E-01  1.4759130223838E-01 -7.4262785350383E-01  1.0879843933405E+00
94  9.3000000000000E-01  1.4463248925850E-01 -6.9543981749588E-01  9.1417479331592E-01
95  9.4000000000000E-01  1.3854106085068E-01 -6.4277938144962E-01  7.3980670087821E-01
96  9.5000000000000E-01  1.2981718139363E-01 -5.8601903013081E-01  5.6779798336483E-01
97  9.6000000000000E-01  1.1899074866596E-01 -5.2656489816496E-01  4.0105241955307E-01
98  9.7000000000000E-01  1.0660841334508E-01 -4.6582457648491E-01  2.4237635044503E-01
99  9.8000000000000E-01  9.3216440231250E-02 -4.0516541320274E-01  9.4373027424704E-02
100  9.9000000000000E-01  7.9337650413754E-02 -3.4585963097416E-01 -4.0692275891019E-02
101  1.0000000000000E+00  6.5440299659406E-02 -2.8901183474897E-01 -1.6106448999641E-01
102  1.0100000000000E+00  5.1897247471444E-02 -2.3546586494762E-01 -2.6571170948568E-01
103  1.0200000000000E+00  3.8976420224456E-02 -1.8578919491666E-01 -3.5431269712120E-01
104  1.0300000000000E+00  2.6889396510990E-02 -1.4039450859340E-01 -4.2689280620324E-01
105  1.0400000000000E+00  1.5805121263444E-02 -9.9574688476087E-02 -4.8372515010643E-01
106  1.0500000000000E+00  5.8517150740881E-03 -6.3508914368944E-02 -5.2531528730898E-01
107  1.0600000000000E+00 -2.8809841150831E-03 -3.2270554827691E-02 -5.5238208502779E-01
108  1.0700000000000E+00 -1.0338356385417E-02 -5.8364245997638E-03 -5.6583544836854E-01
109  1.0800000000000E+00 -1.6497623606260E-02  1.5903033811210E-02 -5.6675168209716E-01
110  1.0900000000000E+00 -2.1364363175413E-02  3.3133075446759E-02 -5.5634726374539E-01
111  1.1000000000000E+00 -2.4969092957925E-02  4.6103882808694E-02 -5.3595177349724E-01
112  1.1100000000000E+00 -2.7364082998953E-02  5.5120054483884E-02 -5.0698067716263E-01
113  1.1200000000000E+00 -2.8620519419735E-02  6.0530653395376E-02 -4.7090859183830E-01
114  1.1300000000000E+00 -2.8826112525782E-02  6.2720055283706E-02 -4.2924358298090E-01
115  1.1400000000000E+00 -2.8083206617821E-02  6.2099774383249E-02 -3.8350295210724E-01
116  1.1500000000000E+00 -2.6507414432986E-02  5.9101378394874E-02 -3.3519087925975E-01
117  1.1600000000000E+00 -2.4226766622401E-02  5.4170542650879E-02 -2.8577818953316E-01
118  1.1700000000000E+00 -2.1381310447643E-02  4.7762188728016E-02 -2.3668436734090E-01
119  1.1800000000000E+00 -1.8123311745727E-02  4.0337034420198E-02 -1.8926235222915E-01
120  1.1900000000000E+00 -1.4620235344146E-02  3.2363400022754E-02 -1.4479069664182E-01
121  1.2000000000000E+00 -1.1136274143627E-02  2.4457870658765E-02 -1.0462618258351E-01
122  1.2100000000000E+00 -7.8578077379814E-03  1.7076530446500E-02 -6.9841333776189E-02
123  1.2200000000000E+00 -4.9149919565677E-03  1.0549206870186E-02 -4.1260250688304E-02
124  1.2300000000000E+00 -2.4812026013744E-03  5.2528042473094E-03 -1.9655309725025E-02
125  1.2400000000000E+00 -7.6092605682544E-04  1.5878146491020E-03 -5.6894892280995E-03
126  1.2500000000000E+00 -2.6909166709455E-05  5.5250741791580E-05 -1.8908765970419E-04
127  1.2600000000000E+00 -2.6749711942818E-06  5.5103298555079E-06 -1.8997320880041E-05
128  1.2700000000000E+00  8.8582222267690E-07 -1.8368039631781E-06  6.4594252292028E-06
129  1.28  0.  0.  0.
130  1.29  0.  0.  0.
131  1.30  0.  0.  0.
132  1.31  0.  0.  0.
133  1.32  0.  0.  0.
134  1.33  0.  0.  0.
135  1.34  0.  0.  0.
136  1.35  0.  0.  0.
137  1.36  0.  0.  0.
138  1.37  0.  0.  0.
139  1.38  0.  0.  0.
140  1.39  0.  0.  0.
141  1.40  0.  0.  0.
142  1.41  0.  0.  0.
143  1.42  0.  0.  0.
144  1.43  0.  0.  0.
145  1.44  0.  0.  0.
146  1.45  0.  0.  0.
147  1.46  0.  0.  0.
148  1.47  0.  0.  0.
149  1.48  0.  0.  0.
150  1.49  0.  0.  0.
151  1.50  0.  0.  0.
152  1.51  0.  0.  0.
153  1.52  0.  0.  0.
154  1.53  0.  0.  0.
155  1.54  0.  0.  0.
156  1.55  0.  0.  0.
157  1.56  0.  0.  0.
158  1.57  0.  0.  0.
159  1.58  0.  0.  0.
160  1.59  0.  0.  0.
161  1.60  0.  0.  0.
162  1.61  0.  0.  0.
163  1.62  0.  0.  0.
164  1.63  0.  0.  0.
165  1.64  0.  0.  0.
166  1.65  0.  0.  0.
167  1.66  0.  0.  0.
168  1.67  0.  0.  0.
169  1.68  0.  0.  0.
170  1.69  0.  0.  0.
171  1.70  0.  0.  0.
172  1.71  0.  0.  0.
173  1.72  0.  0.  0.
174  1.73  0.  0.  0.
175  1.74  0.  0.  0.
176  1.75  0.  0.  0.
177  1.76  0.  0.  0.
178  1.77  0.  0.  0.
179  1.78  0.  0.  0.
180  1.79  0.  0.  0.
181  1.80  0.  0.  0.
182  1.81  0.  0.  0.
183  1.82  0.  0.  0.
184  1.83  0.  0.  0.
185  1.84  0.  0.  0.
186  1.85  0.  0.  0.
187  1.86  0.  0.  0.
188  1.87  0.  0.  0.
189  1.88  0.  0.  0.
190  1.89  0.  0.  0.
191  1.90  0.  0.  0.
192  1.91  0.  0.  0.
193  1.92  0.  0.  0.
194  1.93  0.  0.  0.
195  1.94  0.  0.  0.
196  1.95  0.  0.  0.
197  1.96  0.  0.  0.
198  1.97  0.  0.  0.
199  1.98  0.  0.  0.
200  1.99  0.  0.  0.
201  2.00  0.  0.  0.
202  2.01  0.  0.  0.
203  2.02  0.  0.  0.
204  2.03  0.  0.  0.
205  2.04  0.  0.  0.
206  2.05  0.  0.  0.
207  2.06  0.  0.  0.
208  2.07  0.  0.  0.
209  2.08  0.  0.  0.
210  2.09  0.  0.  0.
211  2.10  0.  0.  0.
212  2.11  0.  0.  0.
213  2.12  0.  0.  0.
214  2.13  0.  0.  0.
215  2.14  0.  0.  0.
216  2.15  0.  0.  0.
217  2.16  0.  0.  0.
218  2.17  0.  0.  0.
219  2.18  0.  0.  0.
220  2.19  0.  0.  0.
221  2.20  0.  0.  0.
222  2.21  0.  0.  0.
223  2.22  0.  0.  0.
224  2.23  0.  0.  0.
225  2.24  0.  0.  0.
226  2.25  0.  0.  0.
227  2.26  0.  0.  0.
228  2.27  0.  0.  0.
229  2.28  0.  0.  0.
230  2.29  0.  0.  0.
231  2.30  0.  0.  0.
232  2.31  0.  0.  0.
233  2.32  0.  0.  0.
234  2.33  0.  0.  0.
235  2.34  0.  0.  0.
236  2.35  0.  0.  0.
237  2.36  0.  0.  0.
238  2.37  0.  0.  0.
239  2.38  0.  0.  0.
240  2.39  0.  0.  0.
241  2.40  0.  0.  0.
242  2.41  0.  0.  0.
243  2.42  0.  0.  0.
244  2.43  0.  0.  0.
245  2.44  0.  0.  0.
246  2.45  0.  0.  0.
247  2.46  0.  0.  0.
248  2.47  0.  0.  0.
249  2.48  0.  0.  0.
250  2.49  0.  0.  0.
251  2.50  0.  0.  0.
252  2.51  0.  0.  0.
253  2.52  0.  0.  0.
254  2.53  0.  0.  0.
255  2.54  0.  0.  0.
256  2.55  0.  0.  0.
257  2.56  0.  0.  0.
258  2.57  0.  0.  0.
259  2.58  0.  0.  0.
260  2.59  0.  0.  0.
261  2.60  0.  0.  0.
262  2.61  0.  0.  0.
263  2.62  0.  0.  0.
264  2.63  0.  0.  0.
265  2.64  0.  0.  0.
266  2.65  0.  0.  0.
267  2.66  0.  0.  0.
268  2.67  0.  0.  0.
269  2.68  0.  0.  0.
270  2.69  0.  0.  0.
271  2.70  0.  0.  0.
272  2.71  0.  0.  0.
273  2.72  0.  0.  0.
274  2.73  0.  0.  0.
275  2.74  0.  0.  0.
276  2.75  0.  0.  0.
277  2.76  0.  0.  0.
278  2.77  0.  0.  0.
279  2.78  0.  0.  0.
280  2.79  0.  0.  0.
281  2.80  0.  0.  0.
282  2.81  0.  0.  0.
283  2.82  0.  0.  0.
284  2.83  0.  0.  0.
285  2.84  0.  0.  0.
286  2.85  0.  0.  0.
287  2.86  0.  0.  0.
288  2.87  0.  0.  0.
289  2.88  0.  0.  0.
290  2.89  0.  0.  0.
291  2.90  0.  0.  0.
292  2.91  0.  0.  0.
293  2.92  0.  0.  0.
294  2.93  0.  0.  0.
295  2.94  0.  0.  0.
296  2.95  0.  0.  0.
297  2.96  0.  0.  0.
298  2.97  0.  0.  0.
299  2.98  0.  0.  0.
300  2.99  0.  0.  0.
301  3.00  0.  0.  0.
302  3.01  0.  0.  0.
303  3.02  0.  0.  0.
304  3.03  0.  0.  0.
305  3.04  0.  0.  0.
306  3.05  0.  0.  0.
307  3.06  0.  0.  0.
308  3.07  0.  0.  0.
309  3.08  0.  0.  0.
310  3.09  0.  0.  0.
311  3.10  0.  0.  0.
312  3.11  0.  0.  0.
313  3.12  0.  0.  0.
314  3.13  0.  0.  0.
315  3.14  0.  0.  0.
316  3.15  0.  0.  0.
317  3.16  0.  0.  0.
318  3.17  0.  0.  0.
319  3.18  0.  0.  0.
320  3.19  0.  0.  0.
321  3.20  0.  0.  0.
322  3.21  0.  0.  0.
323  3.22  0.  0.  0.
324  3.23  0.  0.  0.
325  3.24  0.  0.  0.
326  3.25  0.  0.  0.
327  3.26  0.  0.  0.
328  3.27  0.  0.  0.
329  3.28  0.  0.  0.
330  3.29  0.  0.  0.
331  3.30  0.  0.  0.
332  3.31  0.  0.  0.
333  3.32  0.  0.  0.
334  3.33  0.  0.  0.
335  3.34  0.  0.  0.
336  3.35  0.  0.  0.
337  3.36  0.  0.  0.
338  3.37  0.  0.  0.
339  3.38  0.  0.  0.
340  3.39  0.  0.  0.
341  3.40  0.  0.  0.
342  3.41  0.  0.  0.
343  3.42  0.  0.  0.
344  3.43  0.  0.  0.
345  3.44  0.  0.  0.
346  3.45  0.  0.  0.
347  3.46  0.  0.  0.
348  3.47  0.  0.  0.
349  3.48  0.  0.  0.
350  3.49  0.  0.  0.
351  3.50  0.  0.  0.
352  3.51  0.  0.  0.
353  3.52  0.  0.  0.
354  3.53  0.  0.  0.
355  3.54  0.  0.  0.
356  3.55  0.  0.  0.
357  3.56  0.  0.  0.
358  3.57  0.  0.  0.
359  3.58  0.  0.  0.
360  3.59  0.  0.  0.
361  3.60  0.  0.  0.
362  3.61  0.  0.  0.
363  3.62  0.  0.  0.
364  3.63  0.  0.  0.
365  3.64  0.  0.  0.
366  3.65  0.  0.  0.
367  3.66  0.  0.  0.
368  3.67  0.  0.  0.
369  3.68  0.  0.  0.
370  3.69  0.  0.  0.
371  3.70  0.  0.  0.
372  3.71  0.  0.  0.
373  3.72  0.  0.  0.
374  3.73  0.  0.  0.
375  3.74  0.  0.  0.
376  3.75  0.  0.  0.
377  3.76  0.  0.  0.
378  3.77  0.  0.  0.
379  3.78  0.  0.  0.
380  3.79  0.  0.  0.
381  3.80  0.  0.  0.
382  3.81  0.  0.  0.
383  3.82  0.  0.  0.
384  3.83  0.  0.  0.
385  3.84  0.  0.  0.
386  3.85  0.  0.  0.
387  3.86  0.  0.  0.
388  3.87  0.  0.  0.
389  3.88  0.  0.  0.
390  3.89  0.  0.  0.
391  3.90  0.  0.  0.
392  3.91  0.  0.  0.
393  3.92  0.  0.  0.
394  3.93  0.  0.  0.
395  3.94  0.  0.  0.
396  3.95  0.  0.  0.
397  3.96  0.  0.  0.
398  3.97  0.  0.  0.
399  3.98  0.  0.  0.
400  3.99  0.  0.  0.
401  4.00  0.  0.  0.
402  4.01  0.  0.  0.
403  4.02  0.  0.  0.
404  4.03  0.  0.  0.
405  4.04  0.  0.  0.
406  4.05  0.  0.  0.
407  4.06  0.  0.  0.
408  4.07  0.  0.  0.
409  4.08  0.  0.  0.
410  4.09  0.  0.  0.
411  4.10  0.  0.  0.
412  4.11  0.  0.  0.
413  4.12  0.  0.  0.
414  4.13  0.  0.  0.
415  4.14  0.  0.  0.
416  4.15  0.  0.  0.
417  4.16  0.  0.  0.
418  4.17  0.  0.  0.
419  4.18  0.  0.  0.
420  4.19  0.  0.  0.
421  4.20  0.  0.  0.
422  4.21  0.  0.  0.
423  4.22  0.  0.  0.
424  4.23  0.  0.  0.
425  4.24  0.  0.  0.
426  4.25  0.  0.  0.
427  4.26  0.  0.  0.
428  4.27  0.  0.  0.
429  4.28  0.  0.  0.
430  4.29  0.  0.  0.
431  4.30  0.  0.  0.
432  4.31  0.  0.  0.
433  4.32  0.  0.  0.
434  4.33  0.  0.  0.
435  4.34  0.  0.  0.
436  4.35  0.  0.  0.
437  4.36  0.  0.  0.
438  4.37  0.  0.  0.
439  4.38  0.  0.  0.
440  4.39  0.  0.  0.
441  4.40  0.  0.  0.
442  4.41  0.  0.  0.
443  4.42  0.  0.  0.
444  4.43  0.  0.  0.
445  4.44  0.  0.  0.
446  4.45  0.  0.  0.
447  4.46  0.  0.  0.
448  4.47  0.  0.  0.
449  4.48  0.  0.  0.
450  4.49  0.  0.  0.
451  4.50  0.  0.  0.
452  4.51  0.  0.  0.
453  4.52  0.  0.  0.
454  4.53  0.  0.  0.
455  4.54  0.  0.  0.
456  4.55  0.  0.  0.
457  4.56  0.  0.  0.
458  4.57  0.  0.  0.
459  4.58  0.  0.  0.
460  4.59  0.  0.  0.
461  4.60  0.  0.  0.
462  4.61  0.  0.  0.
463  4.62  0.  0.  0.
464  4.63  0.  0.  0.
465  4.64  0.  0.  0.
466  4.65  0.  0.  0.
467  4.66  0.  0.  0.
468  4.67  0.  0.  0.
469  4.68  0.  0.  0.
470  4.69  0.  0.  0.
471  4.70  0.  0.  0.
472  4.71  0.  0.  0.
473  4.72  0.  0.  0.
474  4.73  0.  0.  0.
475  4.74  0.  0.  0.
476  4.75  0.  0.  0.
477  4.76  0.  0.  0.
478  4.77  0.  0.  0.
479  4.78  0.  0.  0.
480  4.79  0.  0.  0.
481  4.80  0.  0.  0.
482  4.81  0.  0.  0.
483  4.82  0.  0.  0.
484  4.83  0.  0.  0.
485  4.84  0.  0.  0.
486  4.85  0.  0.  0.
487  4.86  0.  0.  0.
488  4.87  0.  0.  0.
489  4.88  0.  0.  0.
490  4.89  0.  0.  0.
491  4.90  0.  0.  0.
492  4.91  0.  0.  0.
493  4.92  0.  0.  0.
494  4.93  0.  0.  0.
495  4.94  0.  0.  0.
496  4.95  0.  0.  0.
497  4.96  0.  0.  0.
498  4.97  0.  0.  0.
499  4.98  0.  0.  0.
500  4.99  0.  0.  0.
501  5.00  0.  0.  0.
502  5.01  0.  0.  0.
503  5.02  0.  0.  0.
504  5.03  0.  0.  0.
505  5.04  0.  0.  0.
506  5.05  0.  0.  0.
507  5.06  0.  0.  0.
508  5.07  0.  0.  0.
509  5.08  0.  0.  0.
510  5.09  0.  0.  0.
511  5.10  0.  0.  0.
512  5.11  0.  0.  0.
513  5.12  0.  0.  0.
514  5.13  0.  0.  0.
515  5.14  0.  0.  0.
516  5.15  0.  0.  0.
517  5.16  0.  0.  0.
518  5.17  0.  0.  0.
519  5.18  0.  0.  0.
520  5.19  0.  0.  0.
521  5.20  0.  0.  0.
522  5.21  0.  0.  0.
523  5.22  0.  0.  0.
524  5.23  0.  0.  0.
525  5.24  0.  0.  0.
526  5.25  0.  0.  0.
527  5.26  0.  0.  0.
528  5.27  0.  0.  0.
529  5.28  0.  0.  0.
530  5.29  0.  0.  0.
531  5.30  0.  0.  0.
532  5.31  0.  0.  0.
533  5.32  0.  0.  0.
534  5.33  0.  0.  0.
535  5.34  0.  0.  0.
536  5.35  0.  0.  0.
537  5.36  0.  0.  0.
538  5.37  0.  0.  0.
539  5.38  0.  0.  0.
540  5.39  0.  0.  0.
541  5.40  0.  0.  0.
542  5.41  0.  0.  0.
543  5.42  0.  0.  0.
544  5.43  0.  0.  0.
545  5.44  0.  0.  0.
546  5.45  0.  0.  0.
547  5.46  0.  0.  0.
548  5.47  0.  0.  0.
549  5.48  0.  0.  0.
550  5.49  0.  0.  0.
551  5.50  0.  0.  0.
552  5.51  0.  0.  0.
553  5.52  0.  0.  0.
554  5.53  0.  0.  0.
555  5.54  0.  0.  0.
556  5.55  0.  0.  0.
557  5.56  0.  0.  0.
558  5.57  0.  0.  0.
559  5.58  0.  0.  0.
560  5.59  0.  0.  0.
561  5.60  0.  0.  0.
562  5.61  0.  0.  0.
563  5.62  0.  0.  0.
564  5.63  0.  0.  0.
565  5.64  0.  0.  0.
566  5.65  0.  0.  0.
567  5.66  0.  0.  0.
568  5.67  0.  0.  0.
569  5.68  0.  0.  0.
570  5.69  0.  0.  0.
571  5.70  0.  0.  0.
572  5.71  0.  0.  0.
573  5.72  0.  0.  0.
574  5.73  0.  0.  0.
575  5.74  0.  0.  0.
576  5.75  0.  0.  0.
577  5.76  0.  0.  0.
578  5.77  0.  0.  0.
579  5.78  0.  0.  0.
580  5.79  0.  0.  0.
581  5.80  0.  0.  0.
582  5.81  0.  0.  0.
583  5.82  0.  0.  0.
584  5.83  0.  0.  0.
585  5.84  0.  0.  0.
586  5.85  0.  0.  0.
587  5.86  0.  0.  0.
588  5.87  0.  0.  0.
589  5.88  0.  0.  0.
590  5.89  0.  0.  0.
591  5.90  0.  0.  0.
592  5.91  0.  0.  0.
593  5.92  0.  0.  0.
594  5.93  0.  0.  0.
595  5.94  0.  0.  0.
596  5.95  0.  0.  0.
597  5.96  0.  0.  0.
598  5.97  0.  0.  0.
599  5.98  0.  0.  0.
600  5.99  0.  0.  0.
1                         1.2780992558949E+01  2.1017967685887E+00  1.8844152733363E-02
1  0.0000000000000E+00 -2.2331617666183E-09  9.4234834449591E-09  3.8858630202476E-08
2  1.0000000000000E-02  3.1627844983644E-03 -8.5777374468948E-04  5.4890979758084E-03
3  2.0000000000000E-02  1.2631438897550E-02 -3.4250380054939E-03  2.1868098565940E-02
4  3.0000000000000E-02  2.8346929537970E-02 -7.6834961318799E-03  4.8873490811660E-02
5  4.0000000000000E-02  5.0211080724550E-02 -1.3602240772951E-02  8.6070630692562E-02
6  5.0000000000000E-02  7.8086901018292E-02 -2.1137155881698E-02  1.3286047380138E-01
7  6.0000000000000E-02  1.1179905117094E-01 -3.0230121656166E-02  1.8848884515826E-01
8  7.0000000000000E-02  1.5113446426724E-01 -4.0808063000349E-02  2.5205809359782E-01
9  8.0000000000000E-02  1.9584313087248E-01 -5.2781891511111E-02  3.2254093930399E-01
10  9.0000000000000E-02  2.4563906365792E-01 -6.6045398872957E-02  3.9879628763255E-01
11  1.0000000000000E-01  3.0020145700247E-01 -8.0474165611932E-02  4.7958675097606E-01
12  1.1000000000000E-01  3.5917605737283E-01 -9.5924553215089E-02  5.6359759363532E-01
13  1.2000000000000E-01  4.2217675981514E-01 -1.1223284950908E-01  6.4945679292731E-01
14  1.3000000000000E-01  4.8878744461972E-01 -1.2921463681526E-01  7.3575589344150E-01
15  1.4000000000000E-01  5.5856406614142E-01 -1.4666444972803E-01  8.2107132071692E-01
16  1.5000000000000E-01  6.3103700289128E-01 -1.6435578442948E-01  9.0398581579928E-01
17  1.6000000000000E-01  7.0571367440315E-01 -1.8204151435277E-01  9.8310965319401E-01
18  1.7000000000000E-01  7.8208142608949E-01 -1.9945475789851E-01  1.0571013115842E+00
19  1.8000000000000E-01  8.5961067842315E-01 -2.1631023300853E-01  1.1246872791523E+00
20  1.9000000000000E-01  9.3775833142545E-01 -2.3230612098387E-01  1.1846806931486E+00
21  2.0000000000000E-01  1.0159714097347E+00 -2.4712644831562E-01  1.2359985360984E+00
22  2.1000000000000E-01  1.0936909276140E+00 -2.6044398083949E-01  1.2776771382641E+00
23  2.2000000000000E-01  1.1703559472880E+00 -2.7192360961726E-01  1.3088857671186E+00
24  2.3000000000000E-01  1.2454077981372E+00 -2.8122619300162E-01  1.3289381190201E+00
25  2.4000000000000E-01  1.3182944186866E+00 -2.8801280477744E-01  1.3373015653245E+00
26  2.5000000000000E-01  1.3884747781726E+00 -2.9194932451186E-01  1.3336040441084E+00
27  2.6000000000000E-01  1.4554233299106E+00 -2.9271129369618E-01  1.3176385287588E+00
28  2.7000000000000E-01  1.5186344448662E+00 -2.8998895030794E-01  1.2893650451490E+00
29  2.8000000000000E-01  1.5776267708902E+00 -2.8349234541085E-01  1.2489102492233E+00
30  2.9000000000000E-01  1.6319474611284E+00 -2.7295643864637E-01  1.1965646158088E+00
31  3.0000000000000E-01  1.6811762142489E+00 -2.5814606520382E-01  1.1327773266780E+00
32  3.1000000000000E-01  1.7249290694223E+00 -2.3886066526969E-01  1.0581489806509E+00
33  3.2000000000000E-01  1.7628619004757E+00 -2.1493866817047E-01  9.7342228025533E-01
34  3.3000000000000E-01  1.7946735563361E+00 -1.8626142747578E-01  8.7947087767616E-01
35  3.4000000000000E-01  1.8201085987642E+00 -1.5275661018784E-01  7.7728658696380E-01
36  3.5000000000000E-01  1.8389595934053E+00 -1.1440095269312E-01  6.6796518942708E-01
37  3.6000000000000E-01  1.8510689162693E+00 -7.1222308204034E-02  5.5269107455999E-01
38  3.7000000000000E-01  1.8563300447897E+00 -2.3300924707709E-02  4.3272096961070E-01
39  3.8000000000000E-01  1.8546883104634E+00  2.9230091365104E-02  3.0936701695441E-01
40  3.9000000000000E-01  1.8461410985796E+00  8.6185152828970E-02  1.8397945984702E-01
41  4.0000000000000E-01  1.8307374895278E+00  1.4732741908650E-01  5.7929194059314E-02
42  4.1000000000000E-01  1.8085773454328E+00  2.1237086205011E-01 -6.7409564425811E-02
43  4.2000000000000E-01  1.7798098551891E+00  2.8098314011579E-01 -1.9067625671239E-01
44  4.3000000000000E-01  1.7446315601518E+00  3.5278923065034E-01 -3.1054037912387E-01
45  4.4000000000000E-01  1.7032838915596E+00  4.2737575340388E-01 -4.2571709586464E-01
46  4.5000000000000E-01  1.6560502590211E+00  5.0429590067456E-01 -5.3498188036288E-01
47  4.6000000000000E-01  1.6032527368780E+00  5.8307487540755E-01 -6.3718402197565E-01
48  4.7000000000000E-01  1.5452484018009E+00  6.6321572613329E-01 -7.3125885879944E-01
49  4.8000000000000E-01  1.4824253803962E+00  7.4420545811215E-01 -8.1623862238578E-01
50  4.9000000000000E-01  1.4151986697956E+00  8.2552129355519E-01 -8.9126180568291E-01
51  5.0000000000000E-01  1.3440057970357E+00  9.0663695055547E-01 -9.5558099100078E-01
52  5.1000000000000E-01  1.2693023844639E+00  9.8702881052600E-01 -1.0085690997609E+00
53  5.2000000000000E-01  1.1915576883819E+00  1.0661818475400E+00 -1.0497240498143E+00
54  5.3000000000000E-01  1.1112501766642E+00  1.1435951999538E+00 -1.0786718288168E+00
55  5.4000000000000E-01  1.0288632082135E+00  1.2187872749124E+00 -1.0951680132226E+00
56  5.5000000000000E-01  9.4488087289666E-01  1.2913002895506E+00 -1.0990977816466E+00
57  5.6000000000000E-01  8.5978404517908E-01  1.3607041685803E+00 -1.0904744884540E+00
58  5.7000000000000E-01  7.7404669815361E-01  1.4265997360863E+00 -1.0694368783406E+00
59  5.8000000000000E-01  6.8813251724205E-01  1.4886211592698E+00 -1.0362450353004E+00
60  5.9000000000000E-01  6.0249184470060E-01  1.5464376230399E+00 -9.9127516972472E-01
61  6.0000000000000E-01  5.1755897741071E-01  1.5997542361937E+00 -9.3501335547545E-01
62  6.1000000000000E-01  4.3374983149838E-01  1.6483121918501E+00 -8.6804833470473E-01
63  6.2000000000000E-01  3.5145997832735E-01  1.6918882261990E+00 -7.9106351206229E-01
64  6.3000000000000E-01  2.7106304758179E-01  1.7302934399098E+00 -7.0482826187412E-01
65  6.4000000000000E-01  1.9290948471136E-01  1.7633715651365E+00 -6.1018867204325E-01
66  6.5000000000000E-01  1.1732564216362E-01  1.7909967774336E+00 -5.0805784696445E-01
67  6.6000000000000E-01  4.4613176764982E-02  1.8130711655900E+00 -3.9940588882006E-01
68  6.7000000000000E-01 -2.4951280501730E-02  1.8295219829845E+00 -2.8524967236909E-01
69  6.8000000000000E-01 -9.1116221097584E-02  1.8402988112519E+00 -1.6664252289208E-01
70  6.9000000000000E-01 -1.5365516450062E-01  1.8453707705751E+00 -4.4663900427151E-02
71  7.0000000000000E-01 -2.1236641788559E-01  1.8447239106380E+00  7.9590814084842E-02
72  7.1000000000000E-01 -2.6707273625286E-01  1.8383589121285E+00  2.0502034353719E-01
73  7.2000000000000E-01 -3.1762092920929E-01  1.8262892206961E+00  3.3052727230921E-01
74  7.3000000000000E-01 -3.6388145912780E-01  1.8085397235627E+00  4.5502746886832E-01
75  7.4000000000000E-01 -4.0574807263551E-01  1.7851460637292E+00  5.7745911604141E-01
76  7.5000000000000E-01 -4.4313750336344E-01  1.7561546681848E+00  6.9679130296563E-01
77  7.6000000000000E-01 -4.7598927870905E-01  1.7216235449830E+00  8.1203214449850E-01
78  7.7000000000000E-01 -5.0426565710485E-01  1.6816238798488E+00  9.2223640597427E-01
79  7.8000000000000E-01 -5.2795171504645E-01  1.6362424364623E+00  1.0265126234179E+00
80  7.9000000000000E-01 -5.4705559500452E-01  1.5855847360693E+00  1.1240297214017E+00
81  8.0000000000000E-01 -5.6160891641571E-01  1.5297789619317E+00  1.2140231422895E+00
82  8.1000000000000E-01 -5.7166734229208E-01  1.4689805026367E+00  1.2958005112107E+00
83  8.2000000000000E-01 -5.7731128366311E-01  1.4033770156639E+00  1.3687468701761E+00
84  8.3000000000000E-01 -5.7864671310447E-01  1.3331938590446E+00  1.4323295216298E+00
85  8.4000000000000E-01 -5.7580604701809E-01  1.2586997045146E+00  1.4861025256109E+00
86  8.5000000000000E-01 -5.6894904408539E-01  1.1802121102644E+00  1.5297108946681E+00
87  8.6000000000000E-01 -5.5826365436187E-01  1.0981027951226E+00  1.5628945256616E+00
88  8.7000000000000E-01 -5.4396673972301E-01  1.0128023185686E+00  1.5854918964093E+00
89  8.8000000000000E-01 -5.2630457168084E-01  9.2480383204325E-01  1.5974435364724E+00
90  8.9000000000000E-01 -5.0555299680236E-01  8.3466552618709E-01  1.5987952537637E+00
91  9.0000000000000E-01 -4.8201714287563E-01  7.4301135537085E-01  1.5897010605278E+00