Es    ONCVPSP-4.0.1  r_core=   1.15603   1.15603   1.33451   1.35057
99.0000     39.0000      231012    zatom,zion,pspd
8   -1012   3     4   600     0    pspcod,pspxc,lmax,lloc,mmax,r2well
5.99000000  5.00000000  0.00000000    rchrg fchrg qchrg
3     3     3     2    nproj
3     1           extension_switch
4     3     4    nprojso
0                         2.4149167517078E+01  2.7712258901784E+00 -1.5721681551797E+00
1  0.0000000000000E+00 -7.5619615014233E-08  2.5981602580494E-07 -9.2459731537708E-09
2  1.0000000000000E-02  1.6206368016831E-01 -7.1319891755022E-02  3.4937598428769E-02
3  2.0000000000000E-02  3.2283266980652E-01 -1.4063527956186E-01  6.9721655603459E-02
4  3.0000000000000E-02  4.8103267164342E-01 -2.0599852847204E-01  1.0420103255767E-01
5  4.0000000000000E-02  6.3542959319289E-01 -2.6557379624947E-01  1.3822932981954E-01
6  5.0000000000000E-02  7.8484821563550E-01 -3.1768813800836E-01  1.7166709704163E-01
7  6.0000000000000E-02  9.2818920000113E-01 -3.6087705830997E-01  2.0438385761487E-01
8  7.0000000000000E-02  1.0644439699539E+00 -3.9392298113856E-01  2.3625989813797E-01
9  8.0000000000000E-02  1.1927070861008E+00 -4.1588536799291E-01  2.6718778185949E-01
10  9.0000000000000E-02  1.3121858157836E+00 -4.2612152035001E-01  2.9707355599021E-01
11  1.0000000000000E-01  1.4222067014213E+00 -4.2429744351829E-01  3.2583763462824E-01
12  1.1000000000000E-01  1.5222190359230E+00 -4.1038851165583E-01  3.5341535143498E-01
13  1.2000000000000E-01  1.6117952615275E+00 -3.8467004490435E-01  3.7975718860389E-01
14  1.3000000000000E-01  1.6906284146024E+00 -3.4769827531167E-01  4.0482870053684E-01
15  1.4000000000000E-01  1.7585268394751E+00 -3.0028252481831E-01  4.2861016146391E-01
16  1.5000000000000E-01  1.8154064855189E+00 -2.4344973313458E-01  4.5109597553840E-01
17  1.6000000000000E-01  1.8612811800801E+00 -1.7840274411404E-01  4.7229389530097E-01
18  1.7000000000000E-01  1.8962513325139E+00 -1.0647397618118E-01  4.9222409951212E-01
19  1.8000000000000E-01  1.9204915692883E+00 -2.9076257457970E-02  5.1091818397395E-01
20  1.9000000000000E-01  1.9342378252230E+00  5.2347306211260E-02  5.2841811898634E-01
21  2.0000000000000E-01  1.9377744205726E+00  1.3637254527894E-01  5.4477522450823E-01
22  2.1000000000000E-01  1.9314216377933E+00  2.2164069177455E-01  5.6004920903770E-01
23  2.2000000000000E-01  1.9155242761329E+00  3.0690038827617E-01  5.7430731091494E-01
24  2.3000000000000E-01  1.8904416081530E+00  3.9104372031092E-01  5.8762357152157E-01
25  2.4000000000000E-01  1.8565390920757E+00  4.7313499609928E-01  6.0007825912193E-01
26  2.5000000000000E-01  1.8141821102663E+00  5.5243128920398E-01  6.1175745036250E-01
27  2.6000000000000E-01  1.7637319104991E+00  6.2839408759071E-01  6.2275276426328E-01
28  2.7000000000000E-01  1.7055438266137E+00  7.0069174431146E-01  6.3316123147701E-01
29  2.8000000000000E-01  1.6399677526875E+00  7.6919278704804E-01  6.4308527023969E-01
30  2.9000000000000E-01  1.5673507439466E+00  8.3395050229737E-01  6.5263273035025E-01
31  3.0000000000000E-01  1.4880415222950E+00  8.9517955137517E-01  6.6191695821192E-01
32  3.1000000000000E-01  1.4023965783015E+00  9.5322568664747E-01  6.7105682988980E-01
33  3.2000000000000E-01  1.3107874881473E+00  1.0085299056476E+00  6.8017669564217E-01
34  3.3000000000000E-01  1.2136090063034E+00  1.0615885977373E+00  6.8940617871810E-01
35  3.4000000000000E-01  1.1112874548828E+00  1.1129113944995E+00  6.9887977350943E-01
36  3.5000000000000E-01  1.0042889103064E+00  1.1629785251733E+00  7.0873619340295E-01
37  3.6000000000000E-01  8.9312668798504E-01  1.2121994987534E+00  7.1911742677040E-01
38  3.7000000000000E-01  7.7836764622642E-01  1.2608748841511E+00  7.3016747020486E-01
39  3.8000000000000E-01  6.6063687080122E-01  1.3091628409912E+00  7.4203072098525E-01
40  3.9000000000000E-01  5.4062036004866E-01  1.3570518707805E+00  7.5485002534764E-01
41  4.0000000000000E-01  4.1906540488853E-01  1.4043410183057E+00  7.6876439489234E-01
42  4.1000000000000E-01  2.9677844579888E-01  1.4506284653890E+00  7.8390641972722E-01
43  4.2000000000000E-01  1.7462028639074E-01  1.4953091345052E+00  8.0039942306482E-01
44  4.3000000000000E-01  5.3498646935860E-02  1.5375815706407E+00  8.1835441726707E-01
45  4.4000000000000E-01 -6.5641852882841E-02  1.5764640094053E+00  8.3786693509564E-01
46  4.5000000000000E-01 -1.8183208868814E-01  1.6108191815324E+00  8.5901382154989E-01
47  4.6000000000000E-01 -2.9409291210600E-01  1.6393870620617E+00  8.8185008060128E-01
48  4.7000000000000E-01 -4.0145133742061E-01  1.6608244596663E+00  9.0640587690193E-01
49  4.8000000000000E-01 -5.0295797868272E-01  1.6737500695714E+00  9.3268379480992E-01
50  4.9000000000000E-01 -5.9770522225664E-01  1.6767933925648E+00  9.6065645562174E-01
51  5.0000000000000E-01 -6.8484557856641E-01  1.6686457609926E+00  9.9026458866573E-01
52  5.1000000000000E-01 -7.6360963548505E-01  1.6481116163975E+00  1.0214156429681E+00
53  5.2000000000000E-01 -8.3332303526364E-01  1.6141581560836E+00  1.0539830137862E+00
54  5.3000000000000E-01 -8.9342191720701E-01  1.5659615083076E+00  1.0878059427819E+00
55  5.4000000000000E-01 -9.4346630876026E-01  1.5029477062431E+00  1.1226901324848E+00
56  5.5000000000000E-01 -9.8315100681744E-01  1.4248269050553E+00  1.1584090955770E+00
57  5.6000000000000E-01 -1.0123135667417E+00  1.3316195176781E+00  1.1947062381279E+00
58  5.7000000000000E-01 -1.0309391060266E+00  1.2236732244090E+00  1.2312976539654E+00
59  5.8000000000000E-01 -1.0391617294585E+00  1.1016701286845E+00  1.2678755857006E+00
60  5.9000000000000E-01 -1.0372624894184E+00  9.6662367446906E-01  1.3041124873016E+00
61  6.0000000000000E-01 -1.0256639047052E+00  8.1986529680548E-01  1.3396656043092E+00
62  6.1000000000000E-01 -1.0049211700217E+00  6.6302113307600E-01  1.3741819715021E+00
63  6.2000000000000E-01 -9.7571029213529E-01  4.9797946536252E-01  1.4073037146523E+00
64  6.3000000000000E-01 -9.3881348405376E-01  3.2684988155495E-01  1.4386735334636E+00
65  6.4000000000000E-01 -8.9510223200576E-01  1.5191542318970E-01  1.4679402372041E+00
66  6.5000000000000E-01 -8.4551851876437E-01 -2.4420778414168E-02  1.4947642031387E+00
67  6.6000000000000E-01 -7.9105473862865E-01 -1.9969269729834E-01  1.5188226306813E+00
68  6.7000000000000E-01 -7.3273287258875E-01 -3.7143064056585E-01  1.5398144710997E+00
69  6.8000000000000E-01 -6.7158350595249E-01 -5.3722065566609E-01  1.5574649233452E+00
70  6.9000000000000E-01 -6.0862526484747E-01 -6.9476227516334E-01  1.5715294007235E+00
71  7.0000000000000E-01 -5.4484522310152E-01 -8.4192283150969E-01  1.5817968901190E+00
72  7.1000000000000E-01 -4.8118078830391E-01 -9.7678670902134E-01  1.5880926446754E+00
73  7.2000000000000E-01 -4.1850351724838E-01 -1.0976980891358E+00  1.5902801714844E+00
74  7.3000000000000E-01 -3.5760523889085E-01 -1.2032959803617E+00  1.5882624971549E+00
75  7.4000000000000E-01 -2.9918678027906E-01 -1.2925405968663E+00  1.5819827153247E+00
76  7.5000000000000E-01 -2.4384950082786E-01 -1.3647304488825E+00  1.5714238404503E+00
77  7.6000000000000E-01 -1.9208974617992E-01 -1.4195098229315E+00  1.5566080108315E+00
78  7.7000000000000E-01 -1.4429623813458E-01 -1.4568666487520E+00  1.5375951001435E+00
79  7.8000000000000E-01 -1.0075032508999E-01 -1.4771210614916E+00  1.5144808102020E+00
80  7.9000000000000E-01 -6.1628931248079E-02 -1.4809052614401E+00  1.4873943278694E+00
81  8.0000000000000E-01 -2.7009965291794E-02 -1.4691355395992E+00  1.4564956356343E+00
82  8.1000000000000E-01  3.1201172621565E-03 -1.4429775672608E+00  1.4219725683552E+00
83  8.2000000000000E-01  2.8856957407081E-02 -1.4038062346273E+00  1.3840377079873E+00
84  8.3000000000000E-01  5.0367540371848E-02 -1.3531614622979E+00  1.3429252040050E+00
85  8.4000000000000E-01  6.7878470701951E-02 -1.2927014969763E+00  1.2988876000429E+00
86  8.5000000000000E-01  8.1663706752852E-02 -1.2241552377770E+00  1.2521927374684E+00
87  8.6000000000000E-01  9.2032180909407E-02 -1.1492751226627E+00  1.2031207947520E+00
88  8.7000000000000E-01  9.9315712160036E-02 -1.0697920382006E+00  1.1519615082837E+00
89  8.8000000000000E-01  1.0385758535582E-01 -9.8737360390056E-01  1.0990116063856E+00
90  8.9000000000000E-01  1.0600212825418E-01 -9.0358703010688E-01  1.0445724744443E+00
91  9.0000000000000E-01  1.0608556522147E-01 -8.1986756189061E-01  9.8894805601190E-01
92  9.1000000000000E-01  1.0442836733276E-01 -7.3749330744729E-01  9.3244298307835E-01
93  9.2000000000000E-01  1.0132925467800E-01 -6.5756701515436E-01  8.7536091907413E-01
94  9.3000000000000E-01  9.7060939999422E-02 -5.8100511561221E-01  8.1800309097459E-01
95  9.4000000000000E-01  9.1867635217872E-02 -5.0853409020599E-01  7.6066698249821E-01
96  9.5000000000000E-01  8.5964275504761E-02 -4.4069397154325E-01  7.0364515898567E-01
97  9.6000000000000E-01  7.9537350582480E-02 -3.7784852833302E-01  6.4722419614020E-01
98  9.7000000000000E-01  7.2747170652463E-02 -3.2020144108381E-01  5.9168368924511E-01
99  9.8000000000000E-01  6.5731335104087E-02 -2.6781753737282E-01  5.3729532642562E-01
100  9.9000000000000E-01  5.8609115787422E-02 -2.2064792672620E-01  4.8432201849602E-01
101  1.0000000000000E+00  5.1486412448319E-02 -1.7855765397696E-01  4.3301708829451E-01
102  1.0100000000000E+00  4.4460884818606E-02 -1.4135427367190E-01  3.8362353336738E-01
103  1.0200000000000E+00  3.7626812236412E-02 -1.0881553238456E-01  3.3637338653078E-01
104  1.0300000000000E+00  3.1079175515990E-02 -8.0714124882084E-02  2.9148720824199E-01
105  1.0400000000000E+00  2.4916394800087E-02 -5.6837257364550E-02  2.4917375179127E-01
106  1.0500000000000E+00  1.9241088818311E-02 -3.6998499046938E-02  2.0962984601999E-01
107  1.0600000000000E+00  1.4158142401553E-02 -2.1039123178390E-02  1.7304053949957E-01
108  1.0700000000000E+00  9.7692775711959E-03 -8.8158220165816E-03  1.3957954379616E-01
109  1.0800000000000E+00  6.1632373130810E-03 -1.7138059635948E-04  1.0941001966260E-01
110  1.0900000000000E+00  3.4003752702849E-03  5.1160964279039E-03  8.2685561874187E-02
111  1.1000000000000E+00  1.4877458795284E-03  7.4175777168687E-03  5.9548854022208E-02
112  1.1100000000000E+00  2.9139782931071E-04  7.5294020557747E-03  4.0076885031260E-02
113  1.1200000000000E+00 -3.1058532814360E-04  6.1951037969939E-03  2.4395048135137E-02
114  1.1300000000000E+00 -4.4244184610422E-04  4.0709385939125E-03  1.2603026303442E-02
115  1.1400000000000E+00 -2.8306837583089E-04  1.8648889373980E-03  4.7151203165647E-03
116  1.1500000000000E+00 -5.8482138926422E-05  3.1447200439839E-04  6.6614918935008E-04
117  1.1600000000000E+00  3.9043199542896E-06 -1.8944389614392E-05 -3.5612823137128E-05
118  1.1700000000000E+00  5.9486817000305E-09 -3.2445602900141E-08 -6.9533628306081E-08
119  1.18  0.  0.  0.
120  1.19  0.  0.  0.
121  1.20  0.  0.  0.
122  1.21  0.  0.  0.
123  1.22  0.  0.  0.
124  1.23  0.  0.  0.
125  1.24  0.  0.  0.
126  1.25  0.  0.  0.
127  1.26  0.  0.  0.
128  1.27  0.  0.  0.
129  1.28  0.  0.  0.
130  1.29  0.  0.  0.
131  1.30  0.  0.  0.
132  1.31  0.  0.  0.
133  1.32  0.  0.  0.
134  1.33  0.  0.  0.
135  1.34  0.  0.  0.
136  1.35  0.  0.  0.
137  1.36  0.  0.  0.
138  1.37  0.  0.  0.
139  1.38  0.  0.  0.
140  1.39  0.  0.  0.
141  1.40  0.  0.  0.
142  1.41  0.  0.  0.
143  1.42  0.  0.  0.
144  1.43  0.  0.  0.
145  1.44  0.  0.  0.
146  1.45  0.  0.  0.
147  1.46  0.  0.  0.
148  1.47  0.  0.  0.
149  1.48  0.  0.  0.
150  1.49  0.  0.  0.
151  1.50  0.  0.  0.
152  1.51  0.  0.  0.
153  1.52  0.  0.  0.
154  1.53  0.  0.  0.
155  1.54  0.  0.  0.
156  1.55  0.  0.  0.
157  1.56  0.  0.  0.
158  1.57  0.  0.  0.
159  1.58  0.  0.  0.
160  1.59  0.  0.  0.
161  1.60  0.  0.  0.
162  1.61  0.  0.  0.
163  1.62  0.  0.  0.
164  1.63  0.  0.  0.
165  1.64  0.  0.  0.
166  1.65  0.  0.  0.
167  1.66  0.  0.  0.
168  1.67  0.  0.  0.
169  1.68  0.  0.  0.
170  1.69  0.  0.  0.
171  1.70  0.  0.  0.
172  1.71  0.  0.  0.
173  1.72  0.  0.  0.
174  1.73  0.  0.  0.
175  1.74  0.  0.  0.
176  1.75  0.  0.  0.
177  1.76  0.  0.  0.
178  1.77  0.  0.  0.
179  1.78  0.  0.  0.
180  1.79  0.  0.  0.
181  1.80  0.  0.  0.
182  1.81  0.  0.  0.
183  1.82  0.  0.  0.
184  1.83  0.  0.  0.
185  1.84  0.  0.  0.
186  1.85  0.  0.  0.
187  1.86  0.  0.  0.
188  1.87  0.  0.  0.
189  1.88  0.  0.  0.
190  1.89  0.  0.  0.
191  1.90  0.  0.  0.
192  1.91  0.  0.  0.
193  1.92  0.  0.  0.
194  1.93  0.  0.  0.
195  1.94  0.  0.  0.
196  1.95  0.  0.  0.
197  1.96  0.  0.  0.
198  1.97  0.  0.  0.
199  1.98  0.  0.  0.
200  1.99  0.  0.  0.
201  2.00  0.  0.  0.
202  2.01  0.  0.  0.
203  2.02  0.  0.  0.
204  2.03  0.  0.  0.
205  2.04  0.  0.  0.
206  2.05  0.  0.  0.
207  2.06  0.  0.  0.
208  2.07  0.  0.  0.
209  2.08  0.  0.  0.
210  2.09  0.  0.  0.
211  2.10  0.  0.  0.
212  2.11  0.  0.  0.
213  2.12  0.  0.  0.
214  2.13  0.  0.  0.
215  2.14  0.  0.  0.
216  2.15  0.  0.  0.
217  2.16  0.  0.  0.
218  2.17  0.  0.  0.
219  2.18  0.  0.  0.
220  2.19  0.  0.  0.
221  2.20  0.  0.  0.
222  2.21  0.  0.  0.
223  2.22  0.  0.  0.
224  2.23  0.  0.  0.
225  2.24  0.  0.  0.
226  2.25  0.  0.  0.
227  2.26  0.  0.  0.
228  2.27  0.  0.  0.
229  2.28  0.  0.  0.
230  2.29  0.  0.  0.
231  2.30  0.  0.  0.
232  2.31  0.  0.  0.
233  2.32  0.  0.  0.
234  2.33  0.  0.  0.
235  2.34  0.  0.  0.
236  2.35  0.  0.  0.
237  2.36  0.  0.  0.
238  2.37  0.  0.  0.
239  2.38  0.  0.  0.
240  2.39  0.  0.  0.
241  2.40  0.  0.  0.
242  2.41  0.  0.  0.
243  2.42  0.  0.  0.
244  2.43  0.  0.  0.
245  2.44  0.  0.  0.
246  2.45  0.  0.  0.
247  2.46  0.  0.  0.
248  2.47  0.  0.  0.
249  2.48  0.  0.  0.
250  2.49  0.  0.  0.
251  2.50  0.  0.  0.
252  2.51  0.  0.  0.
253  2.52  0.  0.  0.
254  2.53  0.  0.  0.
255  2.54  0.  0.  0.
256  2.55  0.  0.  0.
257  2.56  0.  0.  0.
258  2.57  0.  0.  0.
259  2.58  0.  0.  0.
260  2.59  0.  0.  0.
261  2.60  0.  0.  0.
262  2.61  0.  0.  0.
263  2.62  0.  0.  0.
264  2.63  0.  0.  0.
265  2.64  0.  0.  0.
266  2.65  0.  0.  0.
267  2.66  0.  0.  0.
268  2.67  0.  0.  0.
269  2.68  0.  0.  0.
270  2.69  0.  0.  0.
271  2.70  0.  0.  0.
272  2.71  0.  0.  0.
273  2.72  0.  0.  0.
274  2.73  0.  0.  0.
275  2.74  0.  0.  0.
276  2.75  0.  0.  0.
277  2.76  0.  0.  0.
278  2.77  0.  0.  0.
279  2.78  0.  0.  0.
280  2.79  0.  0.  0.
281  2.80  0.  0.  0.
282  2.81  0.  0.  0.
283  2.82  0.  0.  0.
284  2.83  0.  0.  0.
285  2.84  0.  0.  0.
286  2.85  0.  0.  0.
287  2.86  0.  0.  0.
288  2.87  0.  0.  0.
289  2.88  0.  0.  0.
290  2.89  0.  0.  0.
291  2.90  0.  0.  0.
292  2.91  0.  0.  0.
293  2.92  0.  0.  0.
294  2.93  0.  0.  0.
295  2.94  0.  0.  0.
296  2.95  0.  0.  0.
297  2.96  0.  0.  0.
298  2.97  0.  0.  0.
299  2.98  0.  0.  0.
300  2.99  0.  0.  0.
301  3.00  0.  0.  0.
302  3.01  0.  0.  0.
303  3.02  0.  0.  0.
304  3.03  0.  0.  0.
305  3.04  0.  0.  0.
306  3.05  0.  0.  0.
307  3.06  0.  0.  0.
308  3.07  0.  0.  0.
309  3.08  0.  0.  0.
310  3.09  0.  0.  0.
311  3.10  0.  0.  0.
312  3.11  0.  0.  0.
313  3.12  0.  0.  0.
314  3.13  0.  0.  0.
315  3.14  0.  0.  0.
316  3.15  0.  0.  0.
317  3.16  0.  0.  0.
318  3.17  0.  0.  0.
319  3.18  0.  0.  0.
320  3.19  0.  0.  0.
321  3.20  0.  0.  0.
322  3.21  0.  0.  0.
323  3.22  0.  0.  0.
324  3.23  0.  0.  0.
325  3.24  0.  0.  0.
326  3.25  0.  0.  0.
327  3.26  0.  0.  0.
328  3.27  0.  0.  0.
329  3.28  0.  0.  0.
330  3.29  0.  0.  0.
331  3.30  0.  0.  0.
332  3.31  0.  0.  0.
333  3.32  0.  0.  0.
334  3.33  0.  0.  0.
335  3.34  0.  0.  0.
336  3.35  0.  0.  0.
337  3.36  0.  0.  0.
338  3.37  0.  0.  0.
339  3.38  0.  0.  0.
340  3.39  0.  0.  0.
341  3.40  0.  0.  0.
342  3.41  0.  0.  0.
343  3.42  0.  0.  0.
344  3.43  0.  0.  0.
345  3.44  0.  0.  0.
346  3.45  0.  0.  0.
347  3.46  0.  0.  0.
348  3.47  0.  0.  0.
349  3.48  0.  0.  0.
350  3.49  0.  0.  0.
351  3.50  0.  0.  0.
352  3.51  0.  0.  0.
353  3.52  0.  0.  0.
354  3.53  0.  0.  0.
355  3.54  0.  0.  0.
356  3.55  0.  0.  0.
357  3.56  0.  0.  0.
358  3.57  0.  0.  0.
359  3.58  0.  0.  0.
360  3.59  0.  0.  0.
361  3.60  0.  0.  0.
362  3.61  0.  0.  0.
363  3.62  0.  0.  0.
364  3.63  0.  0.  0.
365  3.64  0.  0.  0.
366  3.65  0.  0.  0.
367  3.66  0.  0.  0.
368  3.67  0.  0.  0.
369  3.68  0.  0.  0.
370  3.69  0.  0.  0.
371  3.70  0.  0.  0.
372  3.71  0.  0.  0.
373  3.72  0.  0.  0.
374  3.73  0.  0.  0.
375  3.74  0.  0.  0.
376  3.75  0.  0.  0.
377  3.76  0.  0.  0.
378  3.77  0.  0.  0.
379  3.78  0.  0.  0.
380  3.79  0.  0.  0.
381  3.80  0.  0.  0.
382  3.81  0.  0.  0.
383  3.82  0.  0.  0.
384  3.83  0.  0.  0.
385  3.84  0.  0.  0.
386  3.85  0.  0.  0.
387  3.86  0.  0.  0.
388  3.87  0.  0.  0.
389  3.88  0.  0.  0.
390  3.89  0.  0.  0.
391  3.90  0.  0.  0.
392  3.91  0.  0.  0.
393  3.92  0.  0.  0.
394  3.93  0.  0.  0.
395  3.94  0.  0.  0.
396  3.95  0.  0.  0.
397  3.96  0.  0.  0.
398  3.97  0.  0.  0.
399  3.98  0.  0.  0.
400  3.99  0.  0.  0.
401  4.00  0.  0.  0.
402  4.01  0.  0.  0.
403  4.02  0.  0.  0.
404  4.03  0.  0.  0.
405  4.04  0.  0.  0.
406  4.05  0.  0.  0.
407  4.06  0.  0.  0.
408  4.07  0.  0.  0.
409  4.08  0.  0.  0.
410  4.09  0.  0.  0.
411  4.10  0.  0.  0.
412  4.11  0.  0.  0.
413  4.12  0.  0.  0.
414  4.13  0.  0.  0.
415  4.14  0.  0.  0.
416  4.15  0.  0.  0.
417  4.16  0.  0.  0.
418  4.17  0.  0.  0.
419  4.18  0.  0.  0.
420  4.19  0.  0.  0.
421  4.20  0.  0.  0.
422  4.21  0.  0.  0.
423  4.22  0.  0.  0.
424  4.23  0.  0.  0.
425  4.24  0.  0.  0.
426  4.25  0.  0.  0.
427  4.26  0.  0.  0.
428  4.27  0.  0.  0.
429  4.28  0.  0.  0.
430  4.29  0.  0.  0.
431  4.30  0.  0.  0.
432  4.31  0.  0.  0.
433  4.32  0.  0.  0.
434  4.33  0.  0.  0.
435  4.34  0.  0.  0.
436  4.35  0.  0.  0.
437  4.36  0.  0.  0.
438  4.37  0.  0.  0.
439  4.38  0.  0.  0.
440  4.39  0.  0.  0.
441  4.40  0.  0.  0.
442  4.41  0.  0.  0.
443  4.42  0.  0.  0.
444  4.43  0.  0.  0.
445  4.44  0.  0.  0.
446  4.45  0.  0.  0.
447  4.46  0.  0.  0.
448  4.47  0.  0.  0.
449  4.48  0.  0.  0.
450  4.49  0.  0.  0.
451  4.50  0.  0.  0.
452  4.51  0.  0.  0.
453  4.52  0.  0.  0.
454  4.53  0.  0.  0.
455  4.54  0.  0.  0.
456  4.55  0.  0.  0.
457  4.56  0.  0.  0.
458  4.57  0.  0.  0.
459  4.58  0.  0.  0.
460  4.59  0.  0.  0.
461  4.60  0.  0.  0.
462  4.61  0.  0.  0.
463  4.62  0.  0.  0.
464  4.63  0.  0.  0.
465  4.64  0.  0.  0.
466  4.65  0.  0.  0.
467  4.66  0.  0.  0.
468  4.67  0.  0.  0.
469  4.68  0.  0.  0.
470  4.69  0.  0.  0.
471  4.70  0.  0.  0.
472  4.71  0.  0.  0.
473  4.72  0.  0.  0.
474  4.73  0.  0.  0.
475  4.74  0.  0.  0.
476  4.75  0.  0.  0.
477  4.76  0.  0.  0.
478  4.77  0.  0.  0.
479  4.78  0.  0.  0.
480  4.79  0.  0.  0.
481  4.80  0.  0.  0.
482  4.81  0.  0.  0.
483  4.82  0.  0.  0.
484  4.83  0.  0.  0.
485  4.84  0.  0.  0.
486  4.85  0.  0.  0.
487  4.86  0.  0.  0.
488  4.87  0.  0.  0.
489  4.88  0.  0.  0.
490  4.89  0.  0.  0.
491  4.90  0.  0.  0.
492  4.91  0.  0.  0.
493  4.92  0.  0.  0.
494  4.93  0.  0.  0.
495  4.94  0.  0.  0.
496  4.95  0.  0.  0.
497  4.96  0.  0.  0.
498  4.97  0.  0.  0.
499  4.98  0.  0.  0.
500  4.99  0.  0.  0.
501  5.00  0.  0.  0.
502  5.01  0.  0.  0.
503  5.02  0.  0.  0.
504  5.03  0.  0.  0.
505  5.04  0.  0.  0.
506  5.05  0.  0.  0.
507  5.06  0.  0.  0.
508  5.07  0.  0.  0.
509  5.08  0.  0.  0.
510  5.09  0.  0.  0.
511  5.10  0.  0.  0.
512  5.11  0.  0.  0.
513  5.12  0.  0.  0.
514  5.13  0.  0.  0.
515  5.14  0.  0.  0.
516  5.15  0.  0.  0.
517  5.16  0.  0.  0.
518  5.17  0.  0.  0.
519  5.18  0.  0.  0.
520  5.19  0.  0.  0.
521  5.20  0.  0.  0.
522  5.21  0.  0.  0.
523  5.22  0.  0.  0.
524  5.23  0.  0.  0.
525  5.24  0.  0.  0.
526  5.25  0.  0.  0.
527  5.26  0.  0.  0.
528  5.27  0.  0.  0.
529  5.28  0.  0.  0.
530  5.29  0.  0.  0.
531  5.30  0.  0.  0.
532  5.31  0.  0.  0.
533  5.32  0.  0.  0.
534  5.33  0.  0.  0.
535  5.34  0.  0.  0.
536  5.35  0.  0.  0.
537  5.36  0.  0.  0.
538  5.37  0.  0.  0.
539  5.38  0.  0.  0.
540  5.39  0.  0.  0.
541  5.40  0.  0.  0.
542  5.41  0.  0.  0.
543  5.42  0.  0.  0.
544  5.43  0.  0.  0.
545  5.44  0.  0.  0.
546  5.45  0.  0.  0.
547  5.46  0.  0.  0.
548  5.47  0.  0.  0.
549  5.48  0.  0.  0.
550  5.49  0.  0.  0.
551  5.50  0.  0.  0.
552  5.51  0.  0.  0.
553  5.52  0.  0.  0.
554  5.53  0.  0.  0.
555  5.54  0.  0.  0.
556  5.55  0.  0.  0.
557  5.56  0.  0.  0.
558  5.57  0.  0.  0.
559  5.58  0.  0.  0.
560  5.59  0.  0.  0.
561  5.60  0.  0.  0.
562  5.61  0.  0.  0.
563  5.62  0.  0.  0.
564  5.63  0.  0.  0.
565  5.64  0.  0.  0.
566  5.65  0.  0.  0.
567  5.66  0.  0.  0.
568  5.67  0.  0.  0.
569  5.68  0.  0.  0.
570  5.69  0.  0.  0.
571  5.70  0.  0.  0.
572  5.71  0.  0.  0.
573  5.72  0.  0.  0.
574  5.73  0.  0.  0.
575  5.74  0.  0.  0.
576  5.75  0.  0.  0.
577  5.76  0.  0.  0.
578  5.77  0.  0.  0.
579  5.78  0.  0.  0.
580  5.79  0.  0.  0.
581  5.80  0.  0.  0.
582  5.81  0.  0.  0.
583  5.82  0.  0.  0.
584  5.83  0.  0.  0.
585  5.84  0.  0.  0.
586  5.85  0.  0.  0.
587  5.86  0.  0.  0.
588  5.87  0.  0.  0.
589  5.88  0.  0.  0.
590  5.89  0.  0.  0.
591  5.90  0.  0.  0.
592  5.91  0.  0.  0.
593  5.92  0.  0.  0.
594  5.93  0.  0.  0.
595  5.94  0.  0.  0.
596  5.95  0.  0.  0.
597  5.96  0.  0.  0.
598  5.97  0.  0.  0.
599  5.98  0.  0.  0.
600  5.99  0.  0.  0.
1                         7.6260884612061E+00 -1.6378912770112E+00  9.8582201157770E-02
1  0.0000000000000E+00 -8.6615741246021E-09 -1.2064349710211E-08 -6.0846844784912E-09
2  1.0000000000000E-02  4.6751431224338E-03  4.1152114173642E-04 -4.6130627424758E-03
3  2.0000000000000E-02  1.8660123096309E-02  1.6520081661898E-03 -1.8376230441592E-02
4  3.0000000000000E-02  4.1833749860352E-02  3.7390061685876E-03 -4.1062281708839E-02
5  4.0000000000000E-02  7.3994574528760E-02  6.7010131308631E-03 -7.2295315886112E-02
6  5.0000000000000E-02  1.1486171700285E-01  1.0576393577278E-02 -1.1155495849579E-01
7  6.0000000000000E-02  1.6407607472465E-01  1.5411915383019E-02 -1.5818225288812E-01
8  7.0000000000000E-02  2.2120195928381E-01  2.1260964784546E-02 -2.1138723773871E-01
9  8.0000000000000E-02  2.8572921625062E-01  2.8181506704811E-02 -2.7025820396429E-01
10  9.0000000000000E-02  3.5707588901771E-01  3.6233867011513E-02 -3.3377261448853E-01
11  1.0000000000000E-01  4.3459148914580E-01  4.5478419904655E-02 -4.0080965565008E-01
12  1.1000000000000E-01  5.1756093343174E-01  5.5973267022481E-02 -4.7016436971192E-01
13  1.2000000000000E-01  6.0520920152023E-01  6.7771994923290E-02 -5.4056329396426E-01
14  1.3000000000000E-01  6.9670675740626E-01  8.0921594330061E-02 -6.1068150365672E-01
15  1.4000000000000E-01  7.9117576383771E-01  9.5460618026999E-02 -6.7916092405207E-01
16  1.5000000000000E-01  8.8769710080830E-01  1.1141764480588E-01 -7.4462974212976E-01
17  1.6000000000000E-01  9.8531817856658E-01  1.2881010472388E-01 -8.0572271196959E-01
18  1.7000000000000E-01  1.0830615125298E+00  1.4764350660372E-01 -8.6110211089759E-01
19  1.8000000000000E-01  1.1799340029708E+00  1.6791109271844E-01 -9.0947906750416E-01
20  1.9000000000000E-01  1.2749368372129E+00  1.8959392855946E-01 -9.4963494917005E-01
21  2.0000000000000E-01  1.3670759072535E+00  2.1266141813673E-01 -9.8044246731381E-01
22  2.1000000000000E-01  1.4553726121868E+00  2.3707221807185E-01 -1.0008861347313E+00
23  2.2000000000000E-01  1.5388748934482E+00  2.6277550748478E-01 -1.0100816925714E+00
24  2.3000000000000E-01  1.6166683326400E+00  2.8971255597858E-01 -1.0072941159636E+00
25  2.4000000000000E-01  1.6878871273258E+00  3.1781851947819E-01 -9.9195380815328E-01
26  2.5000000000000E-01  1.7517247503794E+00  3.4702438378842E-01 -9.6367060402187E-01
27  2.6000000000000E-01  1.8074440938002E+00  3.7725896891532E-01 -9.2224522555962E-01
28  2.7000000000000E-01  1.8543868987251E+00  4.0845090374951E-01 -8.6767786438929E-01
29  2.8000000000000E-01  1.8919822798904E+00  4.4053048081553E-01 -8.0017360958829E-01
30  2.9000000000000E-01  1.9197541650133E+00  4.7343130449729E-01 -7.2014449224923E-01
31  3.0000000000000E-01  1.9373274872924E+00  5.0709165336534E-01 -6.2820798049394E-01
32  3.1000000000000E-01  1.9444329920663E+00  5.4145548773460E-01 -5.2518182870957E-01
33  3.2000000000000E-01  1.9409105460614E+00  5.7647304702127E-01 -4.1207526096837E-01
34  3.3000000000000E-01  1.9267108688441E+00  6.1210099737656E-01 -2.9007654901875E-01
35  3.4000000000000E-01  1.9018956402067E+00  6.4830210788675E-01 -1.6053712775151E-01
36  3.5000000000000E-01  1.8666359732325E+00  6.8504445269437E-01 -2.4952473358474E-02
37  3.6000000000000E-01  1.8212092796469E+00  7.2230015600836E-01  1.1505995087855E-01
38  3.7000000000000E-01  1.7659945906189E+00  7.6004371639329E-01  2.5778530149161E-01
39  3.8000000000000E-01  1.7014664313075E+00  7.9824996521484E-01  4.0143806731836E-01
40  3.9000000000000E-01  1.6281873800481E+00  8.3689173094912E-01  5.4419038252912E-01
41  4.0000000000000E-01  1.5467994721102E+00  8.7593729556489E-01  6.8420138861278E-01
42  4.1000000000000E-01  1.4580146325245E+00  9.1534774076333E-01  8.1964706029272E-01
43  4.2000000000000E-01  1.3626043417866E+00  9.5507429001166E-01  9.4874989123994E-01
44  4.3000000000000E-01  1.2613887517036E+00  9.9505575665576E-01  1.0698078315662E+00
45  4.4000000000000E-01  1.1552254758530E+00  1.0352162086987E+00  1.1812218808257E+00
46  4.5000000000000E-01  1.0449982798691E+00  1.0754629569904E+00  1.2815217675690E+00
47  4.6000000000000E-01  9.3160589109631E-01  1.1156849656412E+00  1.3693891888288E+00
48  4.7000000000000E-01  8.1595113529116E-01  1.1557517716613E+00  1.4436781392498E+00
49  4.8000000000000E-01  6.9893059048176E-01  1.1955129854903E+00  1.5034319284316E+00
50  4.9000000000000E-01  5.8142492546172E-01  1.2347984257119E+00  1.5478965645466E+00
51  5.0000000000000E-01  4.6429006354062E-01  1.2734189204644E+00  1.5765302701924E+00
52  5.1000000000000E-01  3.4834928207740E-01  1.3111677855699E+00  1.5890089902188E+00
53  5.2000000000000E-01  2.3438632607732E-01  1.3478229660034E+00  1.5852278482006E+00
54  5.3000000000000E-01  1.2313958090031E-01  1.3831498038500E+00  1.5652986054929E+00
55  5.4000000000000E-01  1.5297316100422E-02  1.4169043732014E+00  1.5295432715132E+00
56  5.5000000000000E-01 -8.8506019233057E-02  1.4488373013677E+00  1.4784841032957E+00
57  5.6000000000000E-01 -1.8769249841779E-01  1.4786979771173E+00  1.4128303138104E+00
58  5.7000000000000E-01 -2.8174249083794E-01  1.5062390311242E+00  1.3334618796962E+00
59  5.8000000000000E-01 -3.7019560302824E-01  1.5312209620116E+00  1.2414108978928E+00
60  5.9000000000000E-01 -4.5265089908994E-01  1.5534167738232E+00  1.1378409855642E+00
61  6.0000000000000E-01 -5.2876652298131E-01  1.5726164877512E+00  1.0240252475391E+00
62  6.1000000000000E-01 -5.9825885002446E-01  1.5886313926942E+00  9.0132334960988E-01
63  6.2000000000000E-01 -6.6090129389660E-01  1.6012979056945E+00  7.7115823431557E-01
64  6.3000000000000E-01 -7.1652288862705E-01  1.6104809243437E+00  6.3499299869392E-01
65  6.4000000000000E-01 -7.6500675313074E-01  1.6160765685107E+00  4.9430842186040E-01
66  6.5000000000000E-01 -8.0628852921850E-01  1.6180142277166E+00  3.5058158554893E-01
67  6.6000000000000E-01 -8.4035486366554E-01  1.6162578525308E+00  2.0526597477456E-01
68  6.7000000000000E-01 -8.6724198178588E-01  1.6108064527025E+00  5.9773380735536E-02
69  6.8000000000000E-01 -8.8703437515856E-01  1.6016937905251E+00 -8.4542143563707E-02
70  6.9000000000000E-01 -8.9986360086831E-01  1.5889872842275E+00 -2.2639810006515E-01
71  7.0000000000000E-01 -9.0590716507069E-01  1.5727861620454E+00 -3.6459503665475E-01
72  7.1000000000000E-01 -9.0538744106008E-01  1.5532189320996E+00 -4.9802568950858E-01
73  7.2000000000000E-01 -8.9857055242926E-01  1.5304402554008E+00 -6.2568182497819E-01
74  7.3000000000000E-01 -8.8576513636467E-01  1.5046273283784E+00 -7.4665889373036E-01
75  7.4000000000000E-01 -8.6732089146376E-01  1.4759758965877E+00 -8.6015866572336E-01
76  7.5000000000000E-01 -8.4362680933603E-01  1.4446960320971E+00 -9.6549006007851E-01
77  7.6000000000000E-01 -8.1510899007439E-01  1.4110078130893E+00 -1.0620684177046E+00
78  7.7000000000000E-01 -7.8222794862678E-01  1.3751370451760E+00 -1.1494134858639E+00
79  7.8000000000000E-01 -7.4547533206808E-01  1.3373111597873E+00 -1.2271463924264E+00
80  7.9000000000000E-01 -7.0536998641270E-01  1.2977554158880E+00 -1.2949858836012E+00
81  8.0000000000000E-01 -6.6245333530961E-01  1.2566895175370E+00 -1.3527440831792E+00
82  8.1000000000000E-01 -6.1728406087999E-01  1.2143247419471E+00 -1.4003220050063E+00
83  8.2000000000000E-01 -5.7043210803574E-01  1.1708616514063E+00 -1.4377050151596E+00
84  8.3000000000000E-01 -5.2247206663207E-01  1.1264884384966E+00 -1.4649583981266E+00
85  8.4000000000000E-01 -4.7397601940295E-01  1.0813799284240E+00 -1.4822231344621E+00
86  8.5000000000000E-01 -4.2550597637097E-01  1.0356972359502E+00 -1.4897119483773E+00
87  8.6000000000000E-01 -3.7760604685013E-01  9.8958804844884E-01 -1.4877056350467E+00
88  8.7000000000000E-01 -3.3079452683767E-01  9.4318748203524E-01 -1.4765496316322E+00
89  8.8000000000000E-01 -2.8555610116301E-01  8.9661943556080E-01 -1.4566507555234E+00
90  8.9000000000000E-01 -2.4233437500553E-01  8.4999834846969E-01 -1.4284740002827E+00
91  9.0000000000000E-01 -2.0152495726173E-01  8.0343125392188E-01 -1.3925392561562E+00
92  9.1000000000000E-01 -1.6346931791034E-01  7.5702000890855E-01 -1.3494178092821E+00
93  9.2000000000000E-01 -1.2844963241415E-01  7.1086357886846E-01 -1.2997284729725E+00
94  9.3000000000000E-01 -9.6684808006547E-02  6.6506025593265E-01 -1.2441332162548E+00
95  9.4000000000000E-01 -6.8327859436921E-02  6.1970969755475E-01 -1.1833321793035E+00
96  9.5000000000000E-01 -4.3464765654668E-02  5.7491468591833E-01 -1.1180580020440E+00
97  9.6000000000000E-01 -2.2114894585076E-02  5.3078252793094E-01 -1.0490694400854E+00
98  9.7000000000000E-01 -4.2330314139807E-03  4.8742604042483E-01 -9.7714429982659E-01
99  9.8000000000000E-01  1.0287012260028E-02  4.4496409481403E-01 -9.0307179018657E-01