Es    ONCVPSP-4.0.1  r_core=   1.15603   1.15603   1.33451   1.35057
99.0000     39.0000      231012    zatom,zion,pspd
8   -1012   3     4   600     0    pspcod,pspxc,lmax,lloc,mmax,r2well
5.99000000  5.00000000  0.00000000    rchrg fchrg qchrg
3     2     2     2     0    nproj
1     1           extension_switch
0                         2.3966052051338E+01  2.7421069706192E+00 -1.6138187335082E+00
1  0.0000000000000E+00 -7.4512215952893E-08  2.5669459996491E-07 -1.0117741144899E-08
2  1.0000000000000E-02  1.6221782961320E-01 -7.0933261590650E-02  3.5351121850872E-02
3  2.0000000000000E-02  3.2313948531781E-01 -1.3987150455143E-01  7.0544828315245E-02
4  3.0000000000000E-02  4.8148907426196E-01 -2.0487615666704E-01  1.0542628819732E-01
5  4.0000000000000E-02  6.3603069080089E-01 -2.6411961298841E-01  1.3984576673439E-01
6  5.0000000000000E-02  7.8558699334679E-01 -3.1593597618677E-01  1.7366099676503E-01
7  6.0000000000000E-02  9.2905613777690E-01 -3.5886630009099E-01  2.0673934522144E-01
8  7.0000000000000E-02  1.0654266117401E+00 -3.9169682150942E-01  2.3895971933598E-01
9  8.0000000000000E-02  1.1937895887147E+00 -4.1348892213190E-01  2.7021416706932E-01
10  9.0000000000000E-02  1.3133485084131E+00 -4.2359986468037E-01  3.0040913808088E-01
11  1.0000000000000E-01  1.4234256878143E+00 -4.2169368423127E-01  3.2946638456645E-01
12  1.1000000000000E-01  1.5234658710570E+00 -4.0774197418129E-01  3.5732349492892E-01
13  1.2000000000000E-01  1.6130367327639E+00 -3.8201467329121E-01  3.8393406694291E-01
14  1.3000000000000E-01  1.6918264540950E+00 -3.4506132191431E-01  4.0926754023777E-01
15  1.4000000000000E-01  1.7596385900424E+00 -2.9768359842008E-01  4.3330871999270E-01
16  1.5000000000000E-01  1.8163845364829E+00 -2.4090025817734E-01  4.5605703419621E-01
17  1.6000000000000E-01  1.8620739829425E+00 -1.7590586570110E-01  4.7752557522198E-01
18  1.7000000000000E-01  1.8968037990619E+00 -1.0402492573186E-01  4.9773998245472E-01
19  1.8000000000000E-01  1.9207458470903E+00 -2.6663173172860E-02  5.1673722600833E-01
20  1.9000000000000E-01  1.9341342378060E+00  5.4742130683718E-02  5.3456435207469E-01
21  2.0000000000000E-01  1.9372525521980E+00  1.3877103048840E-01  5.5127724810830E-01
22  2.1000000000000E-01  1.9304215359720E+00  2.2406702511880E-01  5.6693948099798E-01
23  2.2000000000000E-01  1.9139877391434E+00  3.0937883998314E-01  5.8162125382919E-01
24  2.3000000000000E-01  1.8883135200990E+00  3.9359631547684E-01  5.9539851714056E-01
25  2.4000000000000E-01  1.8537687646677E+00  4.7577914408469E-01  6.0835225916363E-01
26  2.5000000000000E-01  1.8107245886809E+00  5.5517747603635E-01  6.2056798692422E-01
27  2.6000000000000E-01  1.7595492004697E+00  6.3124373689466E-01  6.3213539685563E-01
28  2.7000000000000E-01  1.7006060013656E+00  7.0363534763993E-01  6.4314822033919E-01
29  2.8000000000000E-01  1.6342539014130E+00  7.7220839545181E-01  6.5370421696770E-01
30  2.9000000000000E-01  1.5608497281233E+00  8.3700265788593E-01  6.6390527692499E-01
31  3.0000000000000E-01  1.4807525121169E+00  8.9821872097492E-01  6.7385758424793E-01
32  3.1000000000000E-01  1.3943293485973E+00  9.5618824013880E-01  6.8367178537580E-01
33  3.2000000000000E-01  1.3019624611302E+00  1.0113386599216E+00  6.9346310269453E-01
34  3.3000000000000E-01  1.2040570370348E+00  1.0641539243614E+00  7.0335133103835E-01
35  3.4000000000000E-01  1.1010493640930E+00  1.1151328660623E+00  7.1346065648488E-01
36  3.5000000000000E-01  9.9341477786778E-01  1.1647470528539E+00  7.2391924130326E-01
37  3.6000000000000E-01  8.8167492852710E-01  1.2133998928886E+00  7.3485852648530E-01
38  3.7000000000000E-01  7.6640389580007E-01  1.2613887513339E+00  7.4641221366676E-01
39  3.8000000000000E-01  6.4823271983890E-01  1.3088717163309E+00  7.5871490106569E-01
40  3.9000000000000E-01  5.2785197288414E-01  1.3558404730307E+00  7.7190036284632E-01
41  4.0000000000000E-01  4.0601206958640E-01  1.4021005091362E+00  7.8609947748548E-01
42  4.1000000000000E-01  2.8352109986673E-01  1.4472595924391E+00  8.0143782762671E-01
43  4.2000000000000E-01  1.6124006403231E-01  1.4907251411381E+00  8.1803301085618E-01
44  4.3000000000000E-01  4.0075491852101E-02  1.5317107634101E+00  8.3599171711157E-01
45  4.4000000000000E-01 -7.9030468458708E-02  1.5692518868785E+00  8.5540664333297E-01
46  4.5000000000000E-01 -1.9511230288248E-01  1.6022300447621E+00  8.7635332881748E-01
47  4.6000000000000E-01 -3.0719544056163E-01  1.6294050470347E+00  8.9888700494926E-01
48  4.7000000000000E-01 -4.1431224630477E-01  1.6494539546411E+00  9.2303956003791E-01
49  4.8000000000000E-01 -5.1551924915162E-01  1.6610155044336E+00  9.4881672352312E-01
50  4.9000000000000E-01 -6.0991510044174E-01  1.6627384121725E+00  9.7619557353597E-01
51  5.0000000000000E-01 -6.9665871369670E-01  1.6533318189148E+00  1.0051224676405E+00
52  5.1000000000000E-01 -7.7498701704386E-01  1.6316160484329E+00  1.0355114885577E+00
53  5.2000000000000E-01 -8.4423174775865E-01  1.5965718135180E+00  1.0672434849956E+00
54  5.3000000000000E-01 -9.0383473788778E-01  1.5473860481324E+00  1.1001657727276E+00
55  5.4000000000000E-01 -9.5336117917566E-01  1.4834926487772E+00  1.1340925432471E+00
56  5.5000000000000E-01 -9.9251041323719E-01  1.4046065780038E+00  1.1688060073035E+00
57  5.6000000000000E-01 -1.0211238670085E+00  1.3107500092346E+00  1.2040582790679E+00
58  5.7000000000000E-01 -1.0391898412596E+00  1.2022694663961E+00  1.2395739843726E+00
59  5.8000000000000E-01 -1.0468449581717E+00  1.0798432239660E+00  1.2750535542160E+00
60  5.9000000000000E-01 -1.0443721790959E+00  9.4447857123408E-01  1.3101771433380E+00
61  6.0000000000000E-01 -1.0321954118139E+00  7.9749889628975E-01  1.3446090939381E+00
62  6.1000000000000E-01 -1.0108708340181E+00  6.4052089752787E-01  1.3780028472706E+00
63  6.2000000000000E-01 -9.8107516249960E-01  4.7542257041424E-01  1.4100061915349E+00
64  6.3000000000000E-01 -9.4359119203385E-01  3.0430293259125E-01  1.4402667237389E+00
65  6.4000000000000E-01 -8.9929101092810E-01  1.2943472988017E-01  1.4684373964259E+00
66  6.5000000000000E-01 -8.4911736880183E-01 -4.6788400439322E-02  1.4941820175834E+00
67  6.6000000000000E-01 -7.9406372417620E-01 -2.2190865249024E-01  1.5171805737694E+00
68  6.7000000000000E-01 -7.3515353323107E-01 -3.9346288352101E-01  1.5371342524229E+00
69  6.8000000000000E-01 -6.7341935573724E-01 -5.5904171961211E-01  1.5537700492315E+00
70  6.9000000000000E-01 -6.0988234949104E-01 -7.1634710718938E-01  1.5668448599104E+00
71  7.0000000000000E-01 -5.4553270108396E-01 -8.6324655198164E-01  1.5761489722801E+00
72  7.1000000000000E-01 -4.8131149972896E-01 -9.9782241649122E-01  1.5815088934738E+00
73  7.2000000000000E-01 -4.1809450395597E-01 -1.1184148304683E+00  1.5827894677261E+00
74  7.3000000000000E-01 -3.5667818064048E-01 -1.2236569987863E+00  1.5798952617087E+00
75  7.4000000000000E-01 -2.9776831482639E-01 -1.3125019584799E+00  1.5727712159843E+00
76  7.5000000000000E-01 -2.4197140026942E-01 -1.3842401312807E+00  1.5614025820340E+00
77  7.6000000000000E-01 -1.8978892785153E-01 -1.4385073288236E+00  1.5458141837294E+00
78  7.7000000000000E-01 -1.4161459536421E-01 -1.4752831835158E+00  1.5260690593845E+00
79  7.8000000000000E-01 -9.7734370920068E-02 -1.4948802876667E+00  1.5022665550469E+00
80  7.9000000000000E-01 -5.8329256517119E-02 -1.4979246162753E+00  1.4745399510217E+00
81  8.0000000000000E-01 -2.3480520832399E-02 -1.4853280751437E+00  1.4430537114501E+00
82  8.1000000000000E-01  6.8228964597260E-03 -1.4582542472952E+00  1.4080004509251E+00
83  8.2000000000000E-01  3.2675160763869E-02 -1.4180786001127E+00  1.3695977126251E+00
84  8.3000000000000E-01  5.4242891241806E-02 -1.3663445579964E+00  1.3280846494315E+00
85  8.4000000000000E-01  7.1753499859233E-02 -1.3047169373604E+00  1.2837186932812E+00
86  8.5000000000000E-01  8.5482949164954E-02 -1.2349342809907E+00  1.2367722890210E+00
87  8.6000000000000E-01  9.5743353114747E-02 -1.1587616176050E+00  1.1875297578291E+00
88  8.7000000000000E-01  1.0287082736420E-01 -1.0779451120023E+00  1.1362843424841E+00
89  8.8000000000000E-01  1.0721396497993E-01 -9.9416996514763E-01  1.0833354730766E+00
90  8.9000000000000E-01  1.0912327205979E-01 -9.0902277683513E-01  1.0289862778966E+00
91  9.0000000000000E-01  1.0894184716696E-01 -8.2395940211962E-01  9.7354135087256E-01
92  9.1000000000000E-01  1.0699753078306E-01 -7.4027912306432E-01  9.1730477476267E-01
93  9.2000000000000E-01  1.0359668822269E-01 -6.5910572634362E-01  8.6057838886945E-01
94  9.3000000000000E-01  9.9019723610130E-02 -5.8137583161911E-01  8.0366028185158E-01
95  9.4000000000000E-01  9.3518355431435E-02 -5.0783456178427E-01  7.4684348458684E-01
96  9.5000000000000E-01  8.7314617363392E-02 -4.3903838963412E-01  6.9041483519791E-01
97  9.6000000000000E-01  8.0601482797749E-02 -3.7536474103817E-01  6.3465398832959E-01
98  9.7000000000000E-01  7.3544948497110E-02 -3.1702768552598E-01  5.7983254343120E-01
99  9.8000000000000E-01  6.6287352507136E-02 -2.6409880338332E-01  5.2621327185408E-01
100  9.9000000000000E-01  5.8951643691658E-02 -2.1653208441042E-01  4.7404942955546E-01
101  1.0000000000000E+00  5.1646264412384E-02 -1.7419148620878E-01  4.2358415049698E-01
102  1.0100000000000E+00  4.4470252909486E-02 -1.3687955682557E-01  3.7504992467879E-01
103  1.0200000000000E+00  3.7518116336676E-02 -1.0436530374450E-01  3.2866817329067E-01
104  1.0300000000000E+00  3.0883967223300E-02 -7.6409263070739E-02  2.8464894073951E-01
105  1.0400000000000E+00  2.4664353172548E-02 -5.2783482983532E-02  2.4319072828716E-01
106  1.0500000000000E+00  1.8959139454827E-02 -3.3283877007318E-02  2.0448049565778E-01
107  1.0600000000000E+00  1.3869723962473E-02 -1.7732116647580E-02  1.6869385417511E-01
108  1.0700000000000E+00  9.4937711422136E-03 -5.9639115297293E-03  1.3599546670260E-01
109  1.0800000000000E+00  5.9155640027550E-03  2.1997790441544E-03  1.0653967363642E-01
110  1.0900000000000E+00  3.1907603061080E-03  7.0030432701557E-03  8.0471176827663E-02
111  1.1000000000000E+00  1.3216824427447E-03  8.8389206207126E-03  5.7923267848428E-02
112  1.1100000000000E+00  1.7086153214793E-04  8.5225392023041E-03  3.8963395373886E-02
113  1.1200000000000E+00 -3.8813989939469E-04  6.8180213982311E-03  2.3706063171394E-02
114  1.1300000000000E+00 -4.8405104345370E-04  4.4001956708725E-03  1.2241620638282E-02
115  1.1400000000000E+00 -2.9896656352283E-04  1.9900579419290E-03  4.5779826095300E-03
116  1.1500000000000E+00 -6.0726602043884E-05  3.3231013565769E-04  6.4652121541528E-04
117  1.1600000000000E+00  4.0324498870835E-06 -1.9909945376759E-05 -3.4550601760686E-05
118  1.1700000000000E+00  6.1976309252728E-09 -3.4319099362151E-08 -6.7482061696923E-08
119  1.18 -0.  0. -0.
120  1.19  0.  0.  0.
121  1.20  0.  0.  0.
122  1.21  0.  0.  0.
123  1.22  0.  0.  0.
124  1.23  0.  0.  0.
125  1.24  0.  0.  0.
126  1.25  0.  0.  0.
127  1.26  0.  0.  0.
128  1.27  0.  0.  0.
129  1.28  0.  0.  0.
130  1.29  0.  0.  0.
131  1.30  0.  0.  0.
132  1.31  0.  0.  0.
133  1.32  0.  0.  0.
134  1.33  0.  0.  0.
135  1.34  0.  0.  0.
136  1.35  0.  0.  0.
137  1.36  0.  0.  0.
138  1.37  0.  0.  0.
139  1.38  0.  0.  0.
140  1.39  0.  0.  0.
141  1.40  0.  0.  0.
142  1.41  0.  0.  0.
143  1.42  0.  0.  0.
144  1.43  0.  0.  0.
145  1.44  0.  0.  0.
146  1.45  0.  0.  0.
147  1.46  0.  0.  0.
148  1.47  0.  0.  0.
149  1.48  0.  0.  0.
150  1.49  0.  0.  0.
151  1.50  0.  0.  0.
152  1.51  0.  0.  0.
153  1.52  0.  0.  0.
154  1.53  0.  0.  0.
155  1.54  0.  0.  0.
156  1.55  0.  0.  0.
157  1.56  0.  0.  0.
158  1.57  0.  0.  0.
159  1.58  0.  0.  0.
160  1.59  0.  0.  0.
161  1.60  0.  0.  0.
162  1.61  0.  0.  0.
163  1.62  0.  0.  0.
164  1.63  0.  0.  0.
165  1.64  0.  0.  0.
166  1.65  0.  0.  0.
167  1.66  0.  0.  0.
168  1.67  0.  0.  0.
169  1.68  0.  0.  0.
170  1.69  0.  0.  0.
171  1.70  0.  0.  0.
172  1.71  0.  0.  0.
173  1.72  0.  0.  0.
174  1.73  0.  0.  0.
175  1.74  0.  0.  0.
176  1.75  0.  0.  0.
177  1.76  0.  0.  0.
178  1.77  0.  0.  0.
179  1.78  0.  0.  0.
180  1.79  0.  0.  0.
181  1.80  0.  0.  0.
182  1.81  0.  0.  0.
183  1.82  0.  0.  0.
184  1.83  0.  0.  0.
185  1.84  0.  0.  0.
186  1.85  0.  0.  0.
187  1.86  0.  0.  0.
188  1.87  0.  0.  0.
189  1.88  0.  0.  0.
190  1.89  0.  0.  0.
191  1.90  0.  0.  0.
192  1.91  0.  0.  0.
193  1.92  0.  0.  0.
194  1.93  0.  0.  0.
195  1.94  0.  0.  0.
196  1.95  0.  0.  0.
197  1.96  0.  0.  0.
198  1.97  0.  0.  0.
199  1.98  0.  0.  0.
200  1.99  0.  0.  0.
201  2.00  0.  0.  0.
202  2.01  0.  0.  0.
203  2.02  0.  0.  0.
204  2.03  0.  0.  0.
205  2.04  0.  0.  0.
206  2.05  0.  0.  0.
207  2.06  0.  0.  0.
208  2.07  0.  0.  0.
209  2.08  0.  0.  0.
210  2.09  0.  0.  0.
211  2.10  0.  0.  0.
212  2.11  0.  0.  0.
213  2.12  0.  0.  0.
214  2.13  0.  0.  0.
215  2.14  0.  0.  0.
216  2.15  0.  0.  0.
217  2.16  0.  0.  0.
218  2.17  0.  0.  0.
219  2.18  0.  0.  0.
220  2.19  0.  0.  0.
221  2.20  0.  0.  0.
222  2.21  0.  0.  0.
223  2.22  0.  0.  0.
224  2.23  0.  0.  0.
225  2.24  0.  0.  0.
226  2.25  0.  0.  0.
227  2.26  0.  0.  0.
228  2.27  0.  0.  0.
229  2.28  0.  0.  0.
230  2.29  0.  0.  0.
231  2.30  0.  0.  0.
232  2.31  0.  0.  0.
233  2.32  0.  0.  0.
234  2.33  0.  0.  0.
235  2.34  0.  0.  0.
236  2.35  0.  0.  0.
237  2.36  0.  0.  0.
238  2.37  0.  0.  0.
239  2.38  0.  0.  0.
240  2.39  0.  0.  0.
241  2.40  0.  0.  0.
242  2.41  0.  0.  0.
243  2.42  0.  0.  0.
244  2.43  0.  0.  0.
245  2.44  0.  0.  0.
246  2.45  0.  0.  0.
247  2.46  0.  0.  0.
248  2.47  0.  0.  0.
249  2.48  0.  0.  0.
250  2.49  0.  0.  0.
251  2.50  0.  0.  0.
252  2.51  0.  0.  0.
253  2.52  0.  0.  0.
254  2.53  0.  0.  0.
255  2.54  0.  0.  0.
256  2.55  0.  0.  0.
257  2.56  0.  0.  0.
258  2.57  0.  0.  0.
259  2.58  0.  0.  0.
260  2.59  0.  0.  0.
261  2.60  0.  0.  0.
262  2.61  0.  0.  0.
263  2.62  0.  0.  0.
264  2.63  0.  0.  0.
265  2.64  0.  0.  0.
266  2.65  0.  0.  0.
267  2.66  0.  0.  0.
268  2.67  0.  0.  0.
269  2.68  0.  0.  0.
270  2.69  0.  0.  0.
271  2.70  0.  0.  0.
272  2.71  0.  0.  0.
273  2.72  0.  0.  0.
274  2.73  0.  0.  0.
275  2.74  0.  0.  0.
276  2.75  0.  0.  0.
277  2.76  0.  0.  0.
278  2.77  0.  0.  0.
279  2.78  0.  0.  0.
280  2.79  0.  0.  0.
281  2.80  0.  0.  0.
282  2.81  0.  0.  0.
283  2.82  0.  0.  0.
284  2.83  0.  0.  0.
285  2.84  0.  0.  0.
286  2.85  0.  0.  0.
287  2.86  0.  0.  0.
288  2.87  0.  0.  0.
289  2.88  0.  0.  0.
290  2.89  0.  0.  0.
291  2.90  0.  0.  0.
292  2.91  0.  0.  0.
293  2.92  0.  0.  0.
294  2.93  0.  0.  0.
295  2.94  0.  0.  0.
296  2.95  0.  0.  0.
297  2.96  0.  0.  0.
298  2.97  0.  0.  0.
299  2.98  0.  0.  0.
300  2.99  0.  0.  0.
301  3.00  0.  0.  0.
302  3.01  0.  0.  0.
303  3.02  0.  0.  0.
304  3.03  0.  0.  0.
305  3.04  0.  0.  0.
306  3.05  0.  0.  0.
307  3.06  0.  0.  0.
308  3.07  0.  0.  0.
309  3.08  0.  0.  0.
310  3.09  0.  0.  0.
311  3.10  0.  0.  0.
312  3.11  0.  0.  0.
313  3.12  0.  0.  0.
314  3.13  0.  0.  0.
315  3.14  0.  0.  0.
316  3.15  0.  0.  0.
317  3.16  0.  0.  0.
318  3.17  0.  0.  0.
319  3.18  0.  0.  0.
320  3.19  0.  0.  0.
321  3.20  0.  0.  0.
322  3.21  0.  0.  0.
323  3.22  0.  0.  0.
324  3.23  0.  0.  0.
325  3.24  0.  0.  0.
326  3.25  0.  0.  0.
327  3.26  0.  0.  0.
328  3.27  0.  0.  0.
329  3.28  0.  0.  0.
330  3.29  0.  0.  0.
331  3.30  0.  0.  0.
332  3.31  0.  0.  0.
333  3.32  0.  0.  0.
334  3.33  0.  0.  0.
335  3.34  0.  0.  0.
336  3.35  0.  0.  0.
337  3.36  0.  0.  0.
338  3.37  0.  0.  0.
339  3.38  0.  0.  0.
340  3.39  0.  0.  0.
341  3.40  0.  0.  0.
342  3.41  0.  0.  0.
343  3.42  0.  0.  0.
344  3.43  0.  0.  0.
345  3.44  0.  0.  0.
346  3.45  0.  0.  0.
347  3.46  0.  0.  0.
348  3.47  0.  0.  0.
349  3.48  0.  0.  0.
350  3.49  0.  0.  0.
351  3.50  0.  0.  0.
352  3.51  0.  0.  0.
353  3.52  0.  0.  0.
354  3.53  0.  0.  0.
355  3.54  0.  0.  0.
356  3.55  0.  0.  0.
357  3.56  0.  0.  0.
358  3.57  0.  0.  0.
359  3.58  0.  0.  0.
360  3.59  0.  0.  0.
361  3.60  0.  0.  0.
362  3.61  0.  0.  0.
363  3.62  0.  0.  0.
364  3.63  0.  0.  0.
365  3.64  0.  0.  0.
366  3.65  0.  0.  0.
367  3.66  0.  0.  0.
368  3.67  0.  0.  0.
369  3.68  0.  0.  0.
370  3.69  0.  0.  0.
371  3.70  0.  0.  0.
372  3.71  0.  0.  0.
373  3.72  0.  0.  0.
374  3.73  0.  0.  0.
375  3.74  0.  0.  0.
376  3.75  0.  0.  0.
377  3.76  0.  0.  0.
378  3.77  0.  0.  0.
379  3.78  0.  0.  0.
380  3.79  0.  0.  0.
381  3.80  0.  0.  0.
382  3.81  0.  0.  0.
383  3.82  0.  0.  0.
384  3.83  0.  0.  0.
385  3.84  0.  0.  0.
386  3.85  0.  0.  0.
387  3.86  0.  0.  0.
388  3.87  0.  0.  0.
389  3.88  0.  0.  0.
390  3.89  0.  0.  0.
391  3.90  0.  0.  0.
392  3.91  0.  0.  0.
393  3.92  0.  0.  0.
394  3.93  0.  0.  0.
395  3.94  0.  0.  0.
396  3.95  0.  0.  0.
397  3.96  0.  0.  0.
398  3.97  0.  0.  0.
399  3.98  0.  0.  0.
400  3.99  0.  0.  0.
401  4.00  0.  0.  0.
402  4.01  0.  0.  0.
403  4.02  0.  0.  0.
404  4.03  0.  0.  0.
405  4.04  0.  0.  0.
406  4.05  0.  0.  0.
407  4.06  0.  0.  0.
408  4.07  0.  0.  0.
409  4.08  0.  0.  0.
410  4.09  0.  0.  0.
411  4.10  0.  0.  0.
412  4.11  0.  0.  0.
413  4.12  0.  0.  0.
414  4.13  0.  0.  0.
415  4.14  0.  0.  0.
416  4.15  0.  0.  0.
417  4.16  0.  0.  0.
418  4.17  0.  0.  0.
419  4.18  0.  0.  0.
420  4.19  0.  0.  0.
421  4.20  0.  0.  0.
422  4.21  0.  0.  0.
423  4.22  0.  0.  0.
424  4.23  0.  0.  0.
425  4.24  0.  0.  0.
426  4.25  0.  0.  0.
427  4.26  0.  0.  0.
428  4.27  0.  0.  0.
429  4.28  0.  0.  0.
430  4.29  0.  0.  0.
431  4.30  0.  0.  0.
432  4.31  0.  0.  0.
433  4.32  0.  0.  0.
434  4.33  0.  0.  0.
435  4.34  0.  0.  0.
436  4.35  0.  0.  0.
437  4.36  0.  0.  0.
438  4.37  0.  0.  0.
439  4.38  0.  0.  0.
440  4.39  0.  0.  0.
441  4.40  0.  0.  0.
442  4.41  0.  0.  0.
443  4.42  0.  0.  0.
444  4.43  0.  0.  0.
445  4.44  0.  0.  0.
446  4.45  0.  0.  0.
447  4.46  0.  0.  0.
448  4.47  0.  0.  0.
449  4.48  0.  0.  0.
450  4.49  0.  0.  0.
451  4.50  0.  0.  0.
452  4.51  0.  0.  0.
453  4.52  0.  0.  0.
454  4.53  0.  0.  0.
455  4.54  0.  0.  0.
456  4.55  0.  0.  0.
457  4.56  0.  0.  0.
458  4.57  0.  0.  0.
459  4.58  0.  0.  0.
460  4.59  0.  0.  0.
461  4.60  0.  0.  0.
462  4.61  0.  0.  0.
463  4.62  0.  0.  0.
464  4.63  0.  0.  0.
465  4.64  0.  0.  0.
466  4.65  0.  0.  0.
467  4.66  0.  0.  0.
468  4.67  0.  0.  0.
469  4.68  0.  0.  0.
470  4.69  0.  0.  0.
471  4.70  0.  0.  0.
472  4.71  0.  0.  0.
473  4.72  0.  0.  0.
474  4.73  0.  0.  0.
475  4.74  0.  0.  0.
476  4.75  0.  0.  0.
477  4.76  0.  0.  0.
478  4.77  0.  0.  0.
479  4.78  0.  0.  0.
480  4.79  0.  0.  0.
481  4.80  0.  0.  0.
482  4.81  0.  0.  0.
483  4.82  0.  0.  0.
484  4.83  0.  0.  0.
485  4.84  0.  0.  0.
486  4.85  0.  0.  0.
487  4.86  0.  0.  0.
488  4.87  0.  0.  0.
489  4.88  0.  0.  0.
490  4.89  0.  0.  0.
491  4.90  0.  0.  0.
492  4.91  0.  0.  0.
493  4.92  0.  0.  0.
494  4.93  0.  0.  0.
495  4.94  0.  0.  0.
496  4.95  0.  0.  0.
497  4.96  0.  0.  0.
498  4.97  0.  0.  0.
499  4.98  0.  0.  0.
500  4.99  0.  0.  0.
501  5.00  0.  0.  0.
502  5.01  0.  0.  0.
503  5.02  0.  0.  0.
504  5.03  0.  0.  0.
505  5.04  0.  0.  0.
506  5.05  0.  0.  0.
507  5.06  0.  0.  0.
508  5.07  0.  0.  0.
509  5.08  0.  0.  0.
510  5.09  0.  0.  0.
511  5.10  0.  0.  0.
512  5.11  0.  0.  0.
513  5.12  0.  0.  0.
514  5.13  0.  0.  0.
515  5.14  0.  0.  0.
516  5.15  0.  0.  0.
517  5.16  0.  0.  0.
518  5.17  0.  0.  0.
519  5.18  0.  0.  0.
520  5.19  0.  0.  0.
521  5.20  0.  0.  0.
522  5.21  0.  0.  0.
523  5.22  0.  0.  0.
524  5.23  0.  0.  0.
525  5.24  0.  0.  0.
526  5.25  0.  0.  0.
527  5.26  0.  0.  0.
528  5.27  0.  0.  0.
529  5.28  0.  0.  0.
530  5.29  0.  0.  0.
531  5.30  0.  0.  0.
532  5.31  0.  0.  0.
533  5.32  0.  0.  0.
534  5.33  0.  0.  0.
535  5.34  0.  0.  0.
536  5.35  0.  0.  0.
537  5.36  0.  0.  0.
538  5.37  0.  0.  0.
539  5.38  0.  0.  0.
540  5.39  0.  0.  0.
541  5.40  0.  0.  0.
542  5.41  0.  0.  0.
543  5.42  0.  0.  0.
544  5.43  0.  0.  0.
545  5.44  0.  0.  0.
546  5.45  0.  0.  0.
547  5.46  0.  0.  0.
548  5.47  0.  0.  0.
549  5.48  0.  0.  0.
550  5.49  0.  0.  0.
551  5.50  0.  0.  0.
552  5.51  0.  0.  0.
553  5.52  0.  0.  0.
554  5.53  0.  0.  0.
555  5.54  0.  0.  0.
556  5.55  0.  0.  0.
557  5.56  0.  0.  0.
558  5.57  0.  0.  0.
559  5.58  0.  0.  0.
560  5.59  0.  0.  0.
561  5.60  0.  0.  0.
562  5.61  0.  0.  0.
563  5.62  0.  0.  0.
564  5.63  0.  0.  0.
565  5.64  0.  0.  0.
566  5.65  0.  0.  0.
567  5.66  0.  0.  0.
568  5.67  0.  0.  0.
569  5.68  0.  0.  0.
570  5.69  0.  0.  0.
571  5.70  0.  0.  0.
572  5.71  0.  0.  0.
573  5.72  0.  0.  0.
574  5.73  0.  0.  0.
575  5.74  0.  0.  0.
576  5.75  0.  0.  0.
577  5.76  0.  0.  0.
578  5.77  0.  0.  0.
579  5.78  0.  0.  0.
580  5.79  0.  0.  0.
581  5.80  0.  0.  0.
582  5.81  0.  0.  0.
583  5.82  0.  0.  0.
584  5.83  0.  0.  0.
585  5.84  0.  0.  0.
586  5.85  0.  0.  0.
587  5.86  0.  0.  0.
588  5.87  0.  0.  0.
589  5.88  0.  0.  0.
590  5.89  0.  0.  0.
591  5.90  0.  0.  0.
592  5.91  0.  0.  0.
593  5.92  0.  0.  0.
594  5.93  0.  0.  0.
595  5.94  0.  0.  0.
596  5.95  0.  0.  0.
597  5.96  0.  0.  0.
598  5.97  0.  0.  0.
599  5.98  0.  0.  0.
600  5.99  0.  0.  0.
1                         8.0674119257976E+00 -1.5369747108042E+00
1  0.0000000000000E+00 -8.8578515633486E-09 -1.4692022095447E-08
2  1.0000000000000E-02  4.5766238614547E-03  2.8309786174300E-04
3  2.0000000000000E-02  1.8267795505488E-02  1.1408155288622E-03
4  3.0000000000000E-02  4.0957553197558E-02  2.5981390718284E-03
5  4.0000000000000E-02  7.2453095176273E-02  4.6957682635741E-03
6  5.0000000000000E-02  1.1248550722074E-01  7.4887365222515E-03
7  6.0000000000000E-02  1.6071083155041E-01  1.1044548400499E-02
8  7.0000000000000E-02  2.1671152405928E-01  1.5440901091349E-02
9  8.0000000000000E-02  2.7999835574426E-01  2.0763071112919E-02
10  9.0000000000000E-02  3.5001281986902E-01  2.7101059019140E-02
11  1.0000000000000E-01  4.2613010847429E-01  3.4546593227375E-02
12  1.1000000000000E-01  5.0766272001239E-01  4.3190098546832E-02
13  1.2000000000000E-01  5.9386475401583E-01  5.3117735563576E-02
14  1.3000000000000E-01  6.8393693884327E-01  6.4408613663172E-02
15  1.4000000000000E-01  7.7703242488097E-01  7.7132273270617E-02
16  1.5000000000000E-01  8.7226335847959E-01  9.1346522122499E-02
17  1.6000000000000E-01  9.6870823188822E-01  1.0709569645438E-01
18  1.7000000000000E-01  1.0654199821575E+00  1.2440940140228E-01
19  1.8000000000000E-01  1.1614347881816E+00  1.4330176629820E-01
20  1.9000000000000E-01  1.2557814905761E+00  1.6377123058022E-01
21  2.0000000000000E-01  1.3474915348431E+00  1.8580085548771E-01
22  2.1000000000000E-01  1.4356093151796E+00  2.0935913634565E-01
23  2.2000000000000E-01  1.5192027752343E+00  2.3440127083374E-01
24  2.3000000000000E-01  1.5973741039910E+00  2.6087082092617E-01
25  2.4000000000000E-01  1.6692703505128E+00  2.8870169086226E-01
26  2.5000000000000E-01  1.7340937712136E+00  3.1782033116490E-01
27  2.6000000000000E-01  1.7911117181465E+00  3.4814806985582E-01
28  2.7000000000000E-01  1.8396658769098E+00  3.7960346698929E-01
29  2.8000000000000E-01  1.8791806683558E+00  4.1210458766373E-01
30  2.9000000000000E-01  1.9091706393713E+00  4.4557109184692E-01
31  3.0000000000000E-01  1.9292466844017E+00  4.7992604658266E-01
32  3.1000000000000E-01  1.9391209607566E+00  5.1509737719981E-01
33  3.2000000000000E-01  1.9386103865153E+00  5.5101888863371E-01
34  3.3000000000000E-01  1.9276386393512E+00  5.8763080537982E-01
35  3.4000000000000E-01  1.9062366069718E+00  6.2487979829427E-01
36  3.5000000000000E-01  1.8745412741635E+00  6.6271848770809E-01
37  3.6000000000000E-01  1.8327930666166E+00  7.0110443433429E-01
38  3.7000000000000E-01  1.7813317066939E+00  7.3999865138323E-01
39  3.8000000000000E-01  1.7205906700160E+00  7.7936369231582E-01
40  3.9000000000000E-01  1.6510903631081E+00  8.1916138793579E-01
41  4.0000000000000E-01  1.5734301704018E+00  8.5935032327933E-01
42  4.1000000000000E-01  1.4882795427237E+00  8.9988315832188E-01
43  4.2000000000000E-01  1.3963683182846E+00  9.4070390630924E-01
44  4.3000000000000E-01  1.2984764805265E+00  9.8174528909427E-01
45  4.4000000000000E-01  1.1954235645925E+00  1.0229262899316E+00
46  4.5000000000000E-01  1.0880579254578E+00  1.0641500206259E+00
47  4.6000000000000E-01  9.7724607592238E-01  1.1053020117949E+00
48  4.7000000000000E-01  8.6386229194078E-01  1.1462490225153E+00
49  4.8000000000000E-01  7.4877866657721E-01  1.1868384491616E+00
50  4.9000000000000E-01  6.3285577286301E-01  1.2268983933667E+00
51  5.0000000000000E-01  5.1693407077029E-01  1.2662384264106E+00
52  5.1000000000000E-01  4.0182616534400E-01  1.3046510627872E+00
53  5.2000000000000E-01  2.8830999278479E-01  1.3419139300756E+00
54  5.3000000000000E-01  1.7712298005459E-01  1.3777925965094E+00
55  5.4000000000000E-01  6.8957192517928E-02  1.4120439927354E+00
56  5.5000000000000E-01 -3.5544545647199E-02  1.4444203411391E+00
57  5.6000000000000E-01 -1.3579160097383E-01  1.4746734856697E+00
58  5.7000000000000E-01 -2.3124761700523E-01  1.5025594981322E+00
59  5.8000000000000E-01 -3.2143182421004E-01  1.5278434241153E+00
60  5.9000000000000E-01 -4.0591967556213E-01  1.5503040236349E+00
61  6.0000000000000E-01 -4.8434291977783E-01  1.5697383585676E+00
62  6.1000000000000E-01 -5.5638922862839E-01  1.5859660812184E+00
63  6.2000000000000E-01 -6.2180149361812E-01  1.5988332859095E+00
64  6.3000000000000E-01 -6.8037690083171E-01  1.6082157980844E+00
65  6.4000000000000E-01 -7.3196588131949E-01  1.6140217927101E+00
66  6.5000000000000E-01 -7.7647101862357E-01  1.6161936551441E+00
67  6.6000000000000E-01 -8.1384597574703E-01  1.6147090223836E+00
68  6.7000000000000E-01 -8.4409448198111E-01  1.6095809698572E+00
69  6.8000000000000E-01 -8.6726939659084E-01  1.6008573376723E+00
70  6.9000000000000E-01 -8.8347184255001E-01  1.5886192194585E+00
71  7.0000000000000E-01 -8.9285038046916E-01  1.5729786655572E+00
72  7.1000000000000E-01 -8.9560017170968E-01  1.5540756792457E+00
73  7.2000000000000E-01 -8.9196206149214E-01  1.5320746089226E+00
74  7.3000000000000E-01 -8.8222149854041E-01  1.5071600597977E+00
75  7.4000000000000E-01 -8.6670719825474E-01  1.4795324648234E+00
76  7.5000000000000E-01 -8.4578945218692E-01  1.4494034657251E+00
77  7.6000000000000E-01 -8.1987798808851E-01  1.4169912605839E+00
78  7.7000000000000E-01 -7.8941929217280E-01  1.3825160742367E+00
79  7.8000000000000E-01 -7.5489331837209E-01  1.3461959017513E+00
80  7.9000000000000E-01 -7.1680952793438E-01  1.3082426635871E+00
81  8.0000000000000E-01 -6.7570222609344E-01  1.2688588941732E+00
82  8.1000000000000E-01 -6.3212518994237E-01  1.2282350641207E+00
83  8.2000000000000E-01 -5.8664561202350E-01  1.1865476109372E+00
84  8.3000000000000E-01 -5.3983741633270E-01  1.1439577248696E+00
85  8.4000000000000E-01 -4.9227403611733E-01  1.1006109064448E+00
86  8.5000000000000E-01 -4.4452077464226E-01  1.0566372815693E+00
87  8.6000000000000E-01 -3.9712689959964E-01  1.0121526298919E+00
88  8.7000000000000E-01 -3.5061764766537E-01  9.6726005375124E-01
89  8.8000000000000E-01 -3.0548633655678E-01  9.2205218957080E-01
90  8.9000000000000E-01 -2.6218679664631E-01  8.7661384214824E-01
91  9.0000000000000E-01 -2.2112634173319E-01  8.3102490584842E-01
92  9.1000000000000E-01 -1.8265949817868E-01  7.8536342608855E-01
93  9.2000000000000E-01 -1.4708270271995E-01  7.3970865031173E-01
94  9.3000000000000E-01 -1.1463016160956E-01  6.9414392031210E-01
95  9.4000000000000E-01 -8.5471037284820E-02  6.4875926749431E-01
96  9.5000000000000E-01 -5.9708093815087E-02  6.0365358940568E-01
97  9.6000000000000E-01 -3.7377889479500E-02  5.5893630940865E-01
98  9.7000000000000E-01 -1.8452554791581E-02  5.1472845120336E-01
99  9.8000000000000E-01 -2.8431381660406E-03  4.7116309539476E-01
100  9.9000000000000E-01  9.5955595139929E-03  4.2838522556979E-01
101  1.0000000000000E+00  1.9058804554385E-02  3.8655101544911E-01
102  1.0100000000000E+00  2.5784613698204E-02  3.4582665546583E-01
103  1.0200000000000E+00  3.0045576829476E-02  3.0638686541991E-01
104  1.0300000000000E+00  3.2140160190797E-02  2.6841328849340E-01
105  1.0400000000000E+00  3.2383893399291E-02  2.3209300962589E-01
106  1.0500000000000E+00  3.1100901279050E-02  1.9761748684991E-01
107  1.0600000000000E+00  2.8616293515737E-02  1.6518222668325E-01
108  1.0700000000000E+00  2.5249970015069E-02  1.3498757295889E-01
109  1.0800000000000E+00  2.1312454599781E-02  1.0724102343446E-01
110  1.0900000000000E+00  1.7103242840492E-02  8.2161412025102E-02
111  1.1000000000000E+00  1.2909914164359E-02  5.9983889419484E-02
112  1.1100000000000E+00  8.9606180360452E-03  4.0932196412485E-02
113  1.1200000000000E+00  5.5284043137786E-03  2.5274229434532E-02
114  1.1300000000000E+00  2.8462604364791E-03  1.3251296559073E-02
115  1.1400000000000E+00  1.0425646910809E-03  5.0339654190857E-03
116  1.1500000000000E+00  1.4139971647794E-04  7.2258452123927E-04
117  1.1600000000000E+00 -7.2732754545461E-06 -3.9105589273101E-05
118  1.1700000000000E+00 -1.4808732150595E-08 -7.5338840992153E-08
119  1.18 -0. -0.
120  1.19  0.  0.
121  1.20  0.  0.
122  1.21  0.  0.
123  1.22  0.  0.
124  1.23  0.  0.
125  1.24  0.  0.
126  1.25  0.  0.
127  1.26  0.  0.
128  1.27  0.  0.
129  1.28  0.  0.
130  1.29  0.  0.
131  1.30  0.  0.
132  1.31  0.  0.
133  1.32  0.  0.
134  1.33  0.  0.
135  1.34  0.  0.
136  1.35  0.  0.
137  1.36  0.  0.
138  1.37  0.  0.
139  1.38  0.  0.
140  1.39  0.  0.
141  1.40  0.  0.
142  1.41  0.  0.
143  1.42  0.  0.
144  1.43  0.  0.
145  1.44  0.  0.
146  1.45  0.  0.
147  1.46  0.  0.
148  1.47  0.  0.
149  1.48  0.  0.
150  1.49  0.  0.
151  1.50  0.  0.
152  1.51  0.  0.
153  1.52  0.  0.
154  1.53  0.  0.
155  1.54  0.  0.
156  1.55  0.  0.
157  1.56  0.  0.
158  1.57  0.  0.
159  1.58  0.  0.
160  1.59  0.  0.
161  1.60  0.  0.
162  1.61  0.  0.
163  1.62  0.  0.
164  1.63  0.  0.
165  1.64  0.  0.