Uu    ONCVPSP-4.0.1  r_core=   1.50628   1.50628   1.50628
119.0000     27.0000      231012    zatom,zion,pspd
8   -1012   2     4   600     0    pspcod,pspxc,lmax,lloc,mmax,r2well
5.99000000  5.00000000  0.00000000    rchrg fchrg qchrg
3     3     3     0    nproj
3     1           extension_switch
2     4     0    nprojso
0                         2.3591290708934E+01 -3.0929168604251E+00 -3.3135375061543E-01
1  0.0000000000000E+00 -1.9155113051283E-09 -1.0978564168873E-09  3.1159580915485E-08
2  1.0000000000000E-02  1.2903605245351E-01  1.6386141291666E-02 -1.2741731038654E-01
3  2.0000000000000E-02  2.5744021934107E-01  3.2752384450999E-02 -2.5317630954446E-01
4  3.0000000000000E-02  3.8458485054229E-01  4.9079528213476E-02 -3.7564260127469E-01
5  4.0000000000000E-02  5.0985072802892E-01  6.5349750747852E-02 -4.9322920787491E-01
6  5.0000000000000E-02  6.3263118541395E-01  8.1547263907070E-02 -6.0441925871997E-01
7  6.0000000000000E-02  7.5233611309658E-01  9.7658925726211E-02 -7.0778747692546E-01
8  7.0000000000000E-02  8.6839581316282E-01  1.1367479857418E-01 -8.0202010105529E-01
9  8.0000000000000E-02  9.8026467011704E-01  1.2958864146367E-01 -8.8593290999391E-01
10  9.0000000000000E-02  1.0874246058516E+00  1.4539832635070E-01 -9.5848705674647E-01
11  1.0000000000000E-01  1.1893882899692E+00  1.6110616978167E-01 -1.0188024602300E+00
12  1.1000000000000E-01  1.2857020796118E+00  1.7671917293982E-01 -1.0661685521279E+00
13  1.2000000000000E-01  1.3759486662661E+00  1.9224916496668E-01 -1.1000522275503E+00
14  1.3000000000000E-01  1.4597494105579E+00  2.0771284634967E-01 -1.1201029024529E+00
15  1.4000000000000E-01  1.5367663497539E+00  2.2313173113199E-01 -1.1261546363408E+00
16  1.5000000000000E-01  1.6067038665037E+00  2.3853198867495E-01 -1.1182253345371E+00
17  1.6000000000000E-01  1.6693100112100E+00  2.5394418764295E-01 -1.0965130990160E+00
18  1.7000000000000E-01  1.7243774742611E+00  2.6940294674817E-01 -1.0613898493648E+00
19  1.8000000000000E-01  1.7717442081263E+00  2.8494649854586E-01 -1.0133923847107E+00
20  1.9000000000000E-01  1.8112937029602E+00  3.0061617417723E-01 -9.5321110244078E-01
21  2.0000000000000E-01  1.8429549228200E+00  3.1645581838278E-01 -8.8167662933057E-01
22  2.1000000000000E-01  1.8667019128367E+00  3.3251114532646E-01 -7.9974465450078E-01
23  2.2000000000000E-01  1.8825530906510E+00  3.4882904675885E-01 -7.0847928080437E-01
24  2.3000000000000E-01  1.8905702380884E+00  3.6545686478600E-01 -6.0903523131046E-01
25  2.4000000000000E-01  1.8908572113889E+00  3.8244164199088E-01 -5.0263926020496E-01
26  2.5000000000000E-01  1.8835583902900E+00  3.9982936186811E-01 -3.9057112248729E-01
27  2.6000000000000E-01  1.8688568878928E+00  4.1766419248232E-01 -2.7414445438395E-01
28  2.7000000000000E-01  1.8469725444918E+00  4.3598774595128E-01 -1.5468790657083E-01
29  2.8000000000000E-01  1.8181597294452E+00  4.5483836579891E-01 -3.3526855500506E-02
30  2.9000000000000E-01  1.7827049756899E+00  4.7425045343862E-01  8.8034005126694E-02
31  3.0000000000000E-01  1.7409244717005E+00  4.9425384405493E-01  2.0872691978413E-01
32  3.1000000000000E-01  1.6931614355576E+00  5.1487324097964E-01  3.2733593454607E-01
33  3.2000000000000E-01  1.6397833953655E+00  5.3612771633534E-01  4.4271016786939E-01
34  3.3000000000000E-01  1.5811793995699E+00  5.5803028427999E-01  5.5377532946289E-01
35  3.4000000000000E-01  1.5177571798053E+00  5.8058755166361E-01  6.5954337152653E-01
36  3.5000000000000E-01  1.4499402877912E+00  6.0379944934047E-01  7.5912020126057E-01
37  3.6000000000000E-01  1.3781652265260E+00  6.2765904580236E-01  8.5171142821157E-01
38  3.7000000000000E-01  1.3028785946482E+00  6.5215244324746E-01  9.3662616364990E-01
39  3.8000000000000E-01  1.2245342613738E+00  6.7725875470893E-01  1.0132789307947E+00
40  3.9000000000000E-01  1.1435905879203E+00  7.0295015947021E-01  1.0811897833647E+00
41  4.0000000000000E-01  1.0605077098266E+00  7.2919203271893E-01  1.1399827648023E+00
42  4.1000000000000E-01  9.7574489310269E-01  7.5594314426451E-01  1.1893828708371E+00
43  4.2000000000000E-01  8.8975797572562E-01  7.8315592018650E-01  1.2292117032447E+00
44  4.3000000000000E-01  8.0299690466191E-01  8.1077676050919E-01  1.2593820221990E+00
45  4.4000000000000E-01  7.1590337736020E-01  8.3874640542396E-01  1.2798914182120E+00
46  4.5000000000000E-01  6.2890859553727E-01  8.6700034221129E-01  1.2908153321127E+00
47  4.6000000000000E-01  5.4243113808365E-01  8.9546924484990E-01  1.2922996528309E+00
48  4.7000000000000E-01  4.5687495904867E-01  9.2407943833861E-01  1.2845531180215E+00
49  4.8000000000000E-01  3.7262751592467E-01  9.5275337998623E-01  1.2678397321191E+00
50  4.9000000000000E-01  2.9005803283395E-01  9.8141015033443E-01  1.2424714006265E+00
51  5.0000000000000E-01  2.0951590271763E-01  1.0099659469487E+00  1.2088009588845E+00
52  5.1000000000000E-01  1.3132923221991E-01  1.0383345750222E+00  1.1672157489082E+00
53  5.2000000000000E-01  5.5803532636618E-02  1.0664279295617E+00  1.1181318698383E+00
54  5.3000000000000E-01 -1.6779439965977E-02  1.0941564648347E+00  1.0619891969927E+00
55  5.4000000000000E-01 -8.6162692580582E-02  1.1214296477279E+00  9.9924723228299E-01
56  5.5000000000000E-01 -1.5211484836220E-01  1.1481563926623E+00  9.3038181579570E-01
57  5.6000000000000E-01 -2.1443084254599E-01  1.1742454767056E+00  8.5588269553982E-01
58  5.7000000000000E-01 -2.7293245896503E-01  1.1996059344851E+00  7.7625192064248E-01
59  5.8000000000000E-01 -3.2746870524933E-01  1.2241474334081E+00  6.9200299346396E-01
60  5.9000000000000E-01 -3.7791602515553E-01  1.2477806305097E+00  6.0366068905249E-01
61  6.0000000000000E-01 -4.2417834693177E-01  1.2704175129612E+00  5.1176142671118E-01
62  6.1000000000000E-01 -4.6618696718043E-01  1.2919717248418E+00  4.1685405891165E-01
63  6.2000000000000E-01 -5.0390027035027E-01  1.3123588832174E+00  3.1950092778072E-01
64  6.3000000000000E-01 -5.3730328477698E-01  1.3314968868372E+00  2.2027902937375E-01
65  6.4000000000000E-01 -5.6640707709622E-01  1.3493062208766E+00  1.1978112109324E-01
66  6.5000000000000E-01 -5.9124798787486E-01  1.3657102610935E+00  1.8616608105363E-02
67  6.6000000000000E-01 -6.1188671243451E-01  1.3806355805489E+00 -8.2587949650576E-02
68  6.7000000000000E-01 -6.2840723206544E-01  1.3940122616612E+00 -1.8318885741145E-01
69  6.8000000000000E-01 -6.4091560213115E-01  1.4057742158423E+00 -2.8252596439103E-01
70  6.9000000000000E-01 -6.4953860492363E-01  1.4158595123068E+00 -3.7992411333608E-01
71  7.0000000000000E-01 -6.5442227652377E-01  1.4242107168828E+00 -4.7469544889742E-01
72  7.1000000000000E-01 -6.5573031832131E-01  1.4307752407968E+00 -5.6614264592295E-01
73  7.2000000000000E-01 -6.5364240522793E-01  1.4355056984902E+00 -6.5356308934828E-01
74  7.3000000000000E-01 -6.4835240394256E-01  1.4383602725742E+00 -7.3625400634155E-01
75  7.4000000000000E-01 -6.4006651586980E-01  1.4393030830677E+00 -8.1351851952429E-01
76  7.5000000000000E-01 -6.2900136041972E-01  1.4383045571317E+00 -8.8467255834576E-01
77  7.6000000000000E-01 -6.1538201539824E-01  1.4353417946247E+00 -9.4905253489331E-01
78  7.7000000000000E-01 -5.9944003200589E-01  1.4303989240019E+00 -1.0060236614048E+00
79  7.8000000000000E-01 -5.8141144257133E-01  1.4234674423802E+00 -1.0549887603354E+00
80  7.9000000000000E-01 -5.6153477953279E-01  1.4145465330226E+00 -1.0953973947477E+00
81  8.0000000000000E-01 -5.4004912432596E-01  1.4036433530762E+00 -1.1267551277168E+00
82  8.1000000000000E-01 -5.1719220472900E-01  1.3907732841503E+00 -1.1486327048991E+00
83  8.2000000000000E-01 -4.9319855884175E-01  1.3759601382496E+00 -1.1606749449005E+00
84  8.3000000000000E-01 -4.6829778323570E-01  1.3592363117006E+00 -1.1626091178876E+00
85  8.4000000000000E-01 -4.4271288190433E-01  1.3406428800267E+00 -1.1542525942174E+00
86  8.5000000000000E-01 -4.1665873147756E-01  1.3202296272346E+00 -1.1355195517859E+00
87  8.6000000000000E-01 -3.9034067675221E-01  1.2980550036759E+00 -1.1064265432138E+00
88  8.7000000000000E-01 -3.6395326895124E-01  1.2741860075223E+00 -1.0670967416849E+00
89  8.8000000000000E-01 -3.3767915728090E-01  1.2486979859329E+00 -1.0177627068961E+00
90  8.9000000000000E-01 -3.1168814233652E-01  1.2216743531738E+00 -9.5876753964390E-01
91  9.0000000000000E-01 -2.8613639774486E-01  1.1932062242568E+00 -8.9056432453229E-01
92  9.1000000000000E-01 -2.6116586416198E-01  1.1633919640571E+00 -8.1371379439594E-01
93  9.2000000000000E-01 -2.3690381740754E-01  1.1323366533393E+00 -7.2888018655842E-01
94  9.3000000000000E-01 -2.1346261015077E-01  1.1001514746117E+00 -6.3682529912584E-01
95  9.4000000000000E-01 -1.9093958421237E-01  1.0669530222326E+00 -5.3840079429097E-01
96  9.5000000000000E-01 -1.6941714825107E-01  1.0328625426578E+00 -4.3453883417219E-01
97  9.6000000000000E-01 -1.4896301340695E-01  9.9800511211784E-01 -3.2624117213774E-01
98  9.7000000000000E-01 -1.2963057741348E-01  9.6250876032690E-01 -2.1456685798570E-01
99  9.8000000000000E-01 -1.1145944580618E-01  9.2650354999620E-01 -1.0061874790569E-01
100  9.9000000000000E-01 -9.4476077179562E-02  8.9012062295729E-01  1.4470960912598E-02
101  1.0000000000000E+00 -7.8694538007974E-02  8.5349122454223E-01  1.2955592658516E-01
102  1.0100000000000E+00 -6.4117351373901E-02  8.1674571851605E-01  2.4349132565981E-01
103  1.0200000000000E+00 -5.0736423059489E-02  7.8001260528572E-01  3.5514970477232E-01
104  1.0300000000000E+00 -3.8534027868242E-02  7.4341755631071E-01  4.6343673413165E-01
105  1.0400000000000E+00 -2.7483838762432E-02  7.0708247760466E-01  5.6730657379195E-01
106  1.0500000000000E+00 -1.7551981428622E-02  6.7112461494415E-01  6.6577656744302E-01
107  1.0600000000000E+00 -8.6980972170816E-03  6.3565571289066E-01  7.5794098836877E-01
108  1.0700000000000E+00 -8.7639802651415E-04  6.0078123899671E-01  8.4298357800606E-01
109  1.0800000000000E+00  5.9633023874473E-03  5.6659968361473E-01  9.2018863900393E-01
110  1.0900000000000E+00  1.1874595040457E-02  5.3320194458058E-01  9.8895047124938E-01
111  1.1000000000000E+00  1.6913533253480E-02  5.0067080472170E-01  1.0487809705254E+00
112  1.1100000000000E+00  2.1137752469014E-02  4.6908050866544E-01  1.0993152446649E+00
113  1.1200000000000E+00  2.4605661976117E-02  4.3849644383411E-01  1.1403151403261E+00
114  1.1300000000000E+00  2.7375716285165E-02  4.0897492882585E-01  1.1716706143721E+00
115  1.1400000000000E+00  2.9505771935032E-02  3.8056311064692E-01  1.1933989259264E+00
116  1.1500000000000E+00  3.1052533495936E-02  3.5329897049154E-01  1.2056416682338E+00
117  1.1600000000000E+00  3.2071090526471E-02  3.2721143602188E-01  1.2086597018329E+00
118  1.1700000000000E+00  3.2614545255700E-02  3.0232059638553E-01  1.2028260921760E+00
119  1.1800000000000E+00  3.2733728867816E-02  2.7863801458539E-01  1.1886171940400E+00
120  1.1900000000000E+00  3.2477002469076E-02  2.5616713028672E-01  1.1666020618007E+00
121  1.2000000000000E+00  3.1890137174913E-02  2.3490374476064E-01  1.1374303975979E+00
122  1.2100000000000E+00  3.1016266281339E-02  2.1483657843019E-01  1.1018192783221E+00
123  1.2200000000000E+00  2.9895901207911E-02  1.9594789043014E-01  1.0605389265772E+00
124  1.2300000000000E+00  2.8567001845431E-02  1.7821414873493E-01  1.0143978097936E+00
125  1.2400000000000E+00  2.7065091109314E-02  1.6160673875020E-01  9.6422736546261E-01
126  1.2500000000000E+00  2.5423402913110E-02  1.4609269782255E-01  9.1086665860739E-01
127  1.2600000000000E+00  2.3673052425675E-02  1.3163546288913E-01  8.5514728030085E-01
128  1.2700000000000E+00  2.1843217362545E-02  1.1819561846698E-01  7.9787879327350E-01
129  1.2800000000000E+00  1.9961319175452E-02  1.0573163236038E-01  7.3983502276607E-01
130  1.2900000000000E+00  1.8053193328760E-02  9.4200566830316E-02  6.8174147808918E-01
131  1.3000000000000E+00  1.6143238370800E-02  8.3558753509717E-02  6.2426417331239E-01
132  1.3100000000000E+00  1.4254534193491E-02  7.3762421035498E-02  5.6800009480620E-01
133  1.3200000000000E+00  1.2408920700252E-02  6.4768265184315E-02  5.1346953958187E-01
134  1.3300000000000E+00  1.0627029043587E-02  5.6533952219477E-02  4.6111052215981E-01
135  1.3400000000000E+00  8.9282586104171E-03  4.9018547148479E-02  4.1127541999640E-01
136  1.3500000000000E+00  7.3306939940344E-03  4.2182859626836E-02  3.6422999904852E-01
137  1.3600000000000E+00  5.8509572713559E-03  3.5989701304246E-02  3.2015493242855E-01
138  1.3700000000000E+00  4.5039919567741E-03  3.0404049452608E-02  2.7914989742381E-01
139  1.3800000000000E+00  3.3027760091423E-03  2.5393112725568E-02  2.4124030986805E-01
140  1.3900000000000E+00  2.2579621893570E-03  2.0926295843799E-02  2.0638673084290E-01
141  1.4000000000000E+00  1.3774448860972E-03  1.6975060865765E-02  1.7449695931756E-01
142  1.4100000000000E+00  6.6585471417755E-04  1.3512684798321E-02  1.4544078233563E-01
143  1.4200000000000E+00  1.2396451753728E-04  1.0513896229535E-02  1.1906764611596E-01
144  1.4300000000000E+00 -2.5200994141788E-04  7.9543936182160E-03  9.5227317816107E-02
145  1.4400000000000E+00 -4.8325764212709E-04  5.7993392159017E-03  7.3988100561473E-02
146  1.4500000000000E+00 -5.9362367533001E-04  4.0161008199957E-03  5.5417163111589E-02
147  1.4600000000000E+00 -5.9027551829966E-04  2.5922228190956E-03  3.9277362417181E-02
148  1.4700000000000E+00 -4.9342348171080E-04  1.5093349535882E-03  2.5514636567341E-02
149  1.4800000000000E+00 -3.3537596342930E-04  7.4368610863744E-04  1.4262781736514E-02
150  1.4900000000000E+00 -1.6067548836493E-04  2.6460480311721E-04  5.8574499563916E-03
151  1.5000000000000E+00 -3.1248256735549E-05  3.8345463706654E-05  1.0035480373049E-03
152  1.5100000000000E+00  3.3445044732688E-06 -3.3861251204673E-06 -1.0031915441785E-04
153  1.5200000000000E+00 -9.3368522011968E-07  1.0455426362259E-06  2.8981215034491E-05
154  1.53  0.  0.  0.
155  1.54  0.  0.  0.
156  1.55  0.  0.  0.
157  1.56  0.  0.  0.
158  1.57  0.  0.  0.
159  1.58  0.  0.  0.
160  1.59  0.  0.  0.
161  1.60  0.  0.  0.
162  1.61  0.  0.  0.
163  1.62  0.  0.  0.
164  1.63  0.  0.  0.
165  1.64  0.  0.  0.
166  1.65  0.  0.  0.
167  1.66  0.  0.  0.
168  1.67  0.  0.  0.
169  1.68  0.  0.  0.
170  1.69  0.  0.  0.
171  1.70  0.  0.  0.
172  1.71  0.  0.  0.
173  1.72  0.  0.  0.
174  1.73  0.  0.  0.
175  1.74  0.  0.  0.
176  1.75  0.  0.  0.
177  1.76  0.  0.  0.
178  1.77  0.  0.  0.
179  1.78  0.  0.  0.
180  1.79  0.  0.  0.
181  1.80  0.  0.  0.
182  1.81  0.  0.  0.
183  1.82  0.  0.  0.
184  1.83  0.  0.  0.
185  1.84  0.  0.  0.
186  1.85  0.  0.  0.
187  1.86  0.  0.  0.
188  1.87  0.  0.  0.
189  1.88  0.  0.  0.
190  1.89  0.  0.  0.
191  1.90  0.  0.  0.
192  1.91  0.  0.  0.
193  1.92  0.  0.  0.
194  1.93  0.  0.  0.
195  1.94  0.  0.  0.
196  1.95  0.  0.  0.
197  1.96  0.  0.  0.
198  1.97  0.  0.  0.
199  1.98  0.  0.  0.
200  1.99  0.  0.  0.
201  2.00  0.  0.  0.
202  2.01  0.  0.  0.
203  2.02  0.  0.  0.
204  2.03  0.  0.  0.
205  2.04  0.  0.  0.
206  2.05  0.  0.  0.
207  2.06  0.  0.  0.
208  2.07  0.  0.  0.
209  2.08  0.  0.  0.
210  2.09  0.  0.  0.
211  2.10  0.  0.  0.
212  2.11  0.  0.  0.
213  2.12  0.  0.  0.
214  2.13  0.  0.  0.
215  2.14  0.  0.  0.
216  2.15  0.  0.  0.
217  2.16  0.  0.  0.
218  2.17  0.  0.  0.
219  2.18  0.  0.  0.
220  2.19  0.  0.  0.
221  2.20  0.  0.  0.
222  2.21  0.  0.  0.
223  2.22  0.  0.  0.
224  2.23  0.  0.  0.
225  2.24  0.  0.  0.
226  2.25  0.  0.  0.
227  2.26  0.  0.  0.
228  2.27  0.  0.  0.
229  2.28  0.  0.  0.
230  2.29  0.  0.  0.
231  2.30  0.  0.  0.
232  2.31  0.  0.  0.
233  2.32  0.  0.  0.
234  2.33  0.  0.  0.
235  2.34  0.  0.  0.
236  2.35  0.  0.  0.
237  2.36  0.  0.  0.
238  2.37  0.  0.  0.
239  2.38  0.  0.  0.
240  2.39  0.  0.  0.
241  2.40  0.  0.  0.
242  2.41  0.  0.  0.
243  2.42  0.  0.  0.
244  2.43  0.  0.  0.
245  2.44  0.  0.  0.
246  2.45  0.  0.  0.
247  2.46  0.  0.  0.
248  2.47  0.  0.  0.
249  2.48  0.  0.  0.
250  2.49  0.  0.  0.
251  2.50  0.  0.  0.
252  2.51  0.  0.  0.
253  2.52  0.  0.  0.
254  2.53  0.  0.  0.
255  2.54  0.  0.  0.
256  2.55  0.  0.  0.
257  2.56  0.  0.  0.
258  2.57  0.  0.  0.
259  2.58  0.  0.  0.
260  2.59  0.  0.  0.
261  2.60  0.  0.  0.
262  2.61  0.  0.  0.
263  2.62  0.  0.  0.
264  2.63  0.  0.  0.
265  2.64  0.  0.  0.
266  2.65  0.  0.  0.
267  2.66  0.  0.  0.
268  2.67  0.  0.  0.
269  2.68  0.  0.  0.
270  2.69  0.  0.  0.
271  2.70  0.  0.  0.
272  2.71  0.  0.  0.
273  2.72  0.  0.  0.
274  2.73  0.  0.  0.
275  2.74  0.  0.  0.
276  2.75  0.  0.  0.
277  2.76  0.  0.  0.
278  2.77  0.  0.  0.
279  2.78  0.  0.  0.
280  2.79  0.  0.  0.
281  2.80  0.  0.  0.
282  2.81  0.  0.  0.
283  2.82  0.  0.  0.
284  2.83  0.  0.  0.
285  2.84  0.  0.  0.
286  2.85  0.  0.  0.
287  2.86  0.  0.  0.
288  2.87  0.  0.  0.
289  2.88  0.  0.  0.
290  2.89  0.  0.  0.
291  2.90  0.  0.  0.
292  2.91  0.  0.  0.
293  2.92  0.  0.  0.
294  2.93  0.  0.  0.
295  2.94  0.  0.  0.
296  2.95  0.  0.  0.
297  2.96  0.  0.  0.
298  2.97  0.  0.  0.
299  2.98  0.  0.  0.
300  2.99  0.  0.  0.
301  3.00  0.  0.  0.
302  3.01  0.  0.  0.
303  3.02  0.  0.  0.
304  3.03  0.  0.  0.
305  3.04  0.  0.  0.
306  3.05  0.  0.  0.
307  3.06  0.  0.  0.
308  3.07  0.  0.  0.
309  3.08  0.  0.  0.
310  3.09  0.  0.  0.
311  3.10  0.  0.  0.
312  3.11  0.  0.  0.
313  3.12  0.  0.  0.
314  3.13  0.  0.  0.
315  3.14  0.  0.  0.
316  3.15  0.  0.  0.
317  3.16  0.  0.  0.
318  3.17  0.  0.  0.
319  3.18  0.  0.  0.
320  3.19  0.  0.  0.
321  3.20  0.  0.  0.
322  3.21  0.  0.  0.
323  3.22  0.  0.  0.
324  3.23  0.  0.  0.
325  3.24  0.  0.  0.
326  3.25  0.  0.  0.
327  3.26  0.  0.  0.
328  3.27  0.  0.  0.
329  3.28  0.  0.  0.
330  3.29  0.  0.  0.
331  3.30  0.  0.  0.
332  3.31  0.  0.  0.
333  3.32  0.  0.  0.
334  3.33  0.  0.  0.
335  3.34  0.  0.  0.
336  3.35  0.  0.  0.
337  3.36  0.  0.  0.
338  3.37  0.  0.  0.
339  3.38  0.  0.  0.
340  3.39  0.  0.  0.
341  3.40  0.  0.  0.
342  3.41  0.  0.  0.
343  3.42  0.  0.  0.
344  3.43  0.  0.  0.
345  3.44  0.  0.  0.
346  3.45  0.  0.  0.
347  3.46  0.  0.  0.
348  3.47  0.  0.  0.
349  3.48  0.  0.  0.
350  3.49  0.  0.  0.
351  3.50  0.  0.  0.
352  3.51  0.  0.  0.
353  3.52  0.  0.  0.
354  3.53  0.  0.  0.
355  3.54  0.  0.  0.
356  3.55  0.  0.  0.
357  3.56  0.  0.  0.
358  3.57  0.  0.  0.
359  3.58  0.  0.  0.
360  3.59  0.  0.  0.
361  3.60  0.  0.  0.
362  3.61  0.  0.  0.
363  3.62  0.  0.  0.
364  3.63  0.  0.  0.
365  3.64  0.  0.  0.
366  3.65  0.  0.  0.
367  3.66  0.  0.  0.
368  3.67  0.  0.  0.
369  3.68  0.  0.  0.
370  3.69  0.  0.  0.
371  3.70  0.  0.  0.
372  3.71  0.  0.  0.
373  3.72  0.  0.  0.
374  3.73  0.  0.  0.
375  3.74  0.  0.  0.
376  3.75  0.  0.  0.
377  3.76  0.  0.  0.
378  3.77  0.  0.  0.
379  3.78  0.  0.  0.
380  3.79  0.  0.  0.
381  3.80  0.  0.  0.
382  3.81  0.  0.  0.
383  3.82  0.  0.  0.
384  3.83  0.  0.  0.
385  3.84  0.  0.  0.
386  3.85  0.  0.  0.
387  3.86  0.  0.  0.
388  3.87  0.  0.  0.
389  3.88  0.  0.  0.
390  3.89  0.  0.  0.
391  3.90  0.  0.  0.
392  3.91  0.  0.  0.
393  3.92  0.  0.  0.
394  3.93  0.  0.  0.
395  3.94  0.  0.  0.
396  3.95  0.  0.  0.
397  3.96  0.  0.  0.
398  3.97  0.  0.  0.
399  3.98  0.  0.  0.
400  3.99  0.  0.  0.
401  4.00  0.  0.  0.
402  4.01  0.  0.  0.
403  4.02  0.  0.  0.
404  4.03  0.  0.  0.
405  4.04  0.  0.  0.
406  4.05  0.  0.  0.
407  4.06  0.  0.  0.
408  4.07  0.  0.  0.
409  4.08  0.  0.  0.
410  4.09  0.  0.  0.
411  4.10  0.  0.  0.
412  4.11  0.  0.  0.
413  4.12  0.  0.  0.
414  4.13  0.  0.  0.
415  4.14  0.  0.  0.
416  4.15  0.  0.  0.
417  4.16  0.  0.  0.
418  4.17  0.  0.  0.
419  4.18  0.  0.  0.
420  4.19  0.  0.  0.
421  4.20  0.  0.  0.
422  4.21  0.  0.  0.
423  4.22  0.  0.  0.
424  4.23  0.  0.  0.
425  4.24  0.  0.  0.
426  4.25  0.  0.  0.
427  4.26  0.  0.  0.
428  4.27  0.  0.  0.
429  4.28  0.  0.  0.
430  4.29  0.  0.  0.
431  4.30  0.  0.  0.
432  4.31  0.  0.  0.
433  4.32  0.  0.  0.
434  4.33  0.  0.  0.
435  4.34  0.  0.  0.
436  4.35  0.  0.  0.
437  4.36  0.  0.  0.
438  4.37  0.  0.  0.
439  4.38  0.  0.  0.
440  4.39  0.  0.  0.
441  4.40  0.  0.  0.
442  4.41  0.  0.  0.
443  4.42  0.  0.  0.
444  4.43  0.  0.  0.
445  4.44  0.  0.  0.
446  4.45  0.  0.  0.
447  4.46  0.  0.  0.
448  4.47  0.  0.  0.
449  4.48  0.  0.  0.
450  4.49  0.  0.  0.
451  4.50  0.  0.  0.
452  4.51  0.  0.  0.
453  4.52  0.  0.  0.
454  4.53  0.  0.  0.
455  4.54  0.  0.  0.
456  4.55  0.  0.  0.
457  4.56  0.  0.  0.
458  4.57  0.  0.  0.
459  4.58  0.  0.  0.
460  4.59  0.  0.  0.
461  4.60  0.  0.  0.
462  4.61  0.  0.  0.
463  4.62  0.  0.  0.
464  4.63  0.  0.  0.
465  4.64  0.  0.  0.
466  4.65  0.  0.  0.
467  4.66  0.  0.  0.
468  4.67  0.  0.  0.
469  4.68  0.  0.  0.
470  4.69  0.  0.  0.
471  4.70  0.  0.  0.
472  4.71  0.  0.  0.
473  4.72  0.  0.  0.
474  4.73  0.  0.  0.
475  4.74  0.  0.  0.
476  4.75  0.  0.  0.
477  4.76  0.  0.  0.
478  4.77  0.  0.  0.
479  4.78  0.  0.  0.
480  4.79  0.  0.  0.
481  4.80  0.  0.  0.
482  4.81  0.  0.  0.
483  4.82  0.  0.  0.
484  4.83  0.  0.  0.
485  4.84  0.  0.  0.
486  4.85  0.  0.  0.
487  4.86  0.  0.  0.
488  4.87  0.  0.  0.
489  4.88  0.  0.  0.
490  4.89  0.  0.  0.
491  4.90  0.  0.  0.
492  4.91  0.  0.  0.
493  4.92  0.  0.  0.
494  4.93  0.  0.  0.
495  4.94  0.  0.  0.
496  4.95  0.  0.  0.
497  4.96  0.  0.  0.
498  4.97  0.  0.  0.
499  4.98  0.  0.  0.
500  4.99  0.  0.  0.
501  5.00  0.  0.  0.
502  5.01  0.  0.  0.
503  5.02  0.  0.  0.
504  5.03  0.  0.  0.
505  5.04  0.  0.  0.
506  5.05  0.  0.  0.
507  5.06  0.  0.  0.
508  5.07  0.  0.  0.
509  5.08  0.  0.  0.
510  5.09  0.  0.  0.
511  5.10  0.  0.  0.
512  5.11  0.  0.  0.
513  5.12  0.  0.  0.
514  5.13  0.  0.  0.
515  5.14  0.  0.  0.
516  5.15  0.  0.  0.
517  5.16  0.  0.  0.
518  5.17  0.  0.  0.
519  5.18  0.  0.  0.
520  5.19  0.  0.  0.
521  5.20  0.  0.  0.
522  5.21  0.  0.  0.
523  5.22  0.  0.  0.
524  5.23  0.  0.  0.
525  5.24  0.  0.  0.
526  5.25  0.  0.  0.
527  5.26  0.  0.  0.
528  5.27  0.  0.  0.
529  5.28  0.  0.  0.
530  5.29  0.  0.  0.
531  5.30  0.  0.  0.
532  5.31  0.  0.  0.
533  5.32  0.  0.  0.
534  5.33  0.  0.  0.
535  5.34  0.  0.  0.
536  5.35  0.  0.  0.
537  5.36  0.  0.  0.
538  5.37  0.  0.  0.
539  5.38  0.  0.  0.
540  5.39  0.  0.  0.
541  5.40  0.  0.  0.
542  5.41  0.  0.  0.
543  5.42  0.  0.  0.
544  5.43  0.  0.  0.
545  5.44  0.  0.  0.
546  5.45  0.  0.  0.
547  5.46  0.  0.  0.
548  5.47  0.  0.  0.
549  5.48  0.  0.  0.
550  5.49  0.  0.  0.
551  5.50  0.  0.  0.
552  5.51  0.  0.  0.
553  5.52  0.  0.  0.
554  5.53  0.  0.  0.
555  5.54  0.  0.  0.
556  5.55  0.  0.  0.
557  5.56  0.  0.  0.
558  5.57  0.  0.  0.
559  5.58  0.  0.  0.
560  5.59  0.  0.  0.
561  5.60  0.  0.  0.
562  5.61  0.  0.  0.
563  5.62  0.  0.  0.
564  5.63  0.  0.  0.
565  5.64  0.  0.  0.
566  5.65  0.  0.  0.
567  5.66  0.  0.  0.
568  5.67  0.  0.  0.
569  5.68  0.  0.  0.
570  5.69  0.  0.  0.
571  5.70  0.  0.  0.
572  5.71  0.  0.  0.
573  5.72  0.  0.  0.
574  5.73  0.  0.  0.
575  5.74  0.  0.  0.
576  5.75  0.  0.  0.
577  5.76  0.  0.  0.
578  5.77  0.  0.  0.
579  5.78  0.  0.  0.
580  5.79  0.  0.  0.
581  5.80  0.  0.  0.
582  5.81  0.  0.  0.
583  5.82  0.  0.  0.
584  5.83  0.  0.  0.
585  5.84  0.  0.  0.
586  5.85  0.  0.  0.
587  5.86  0.  0.  0.
588  5.87  0.  0.  0.
589  5.88  0.  0.  0.
590  5.89  0.  0.  0.
591  5.90  0.  0.  0.
592  5.91  0.  0.  0.
593  5.92  0.  0.  0.
594  5.93  0.  0.  0.
595  5.94  0.  0.  0.
596  5.95  0.  0.  0.
597  5.96  0.  0.  0.
598  5.97  0.  0.  0.
599  5.98  0.  0.  0.
600  5.99  0.  0.  0.
1                         1.0125131525308E+02  2.4856750420902E+00 -9.0254195795927E-01
1  0.0000000000000E+00  1.9723460920051E-09 -4.0526764236160E-10 -1.3826818162643E-10
2  1.0000000000000E-02  3.4950581814144E-03 -1.3699271526125E-04  9.2283539219715E-04
3  2.0000000000000E-02  1.3953058641304E-02 -5.4019694015086E-04  3.6839386423054E-03
4  3.0000000000000E-02  3.1292668266870E-02 -1.1863590841516E-03  8.2611474986510E-03
5  4.0000000000000E-02  5.5378961399626E-02 -2.0369502943772E-03  1.4617680167127E-02
6  5.0000000000000E-02  8.6024360839612E-02 -3.0385067572627E-03  2.2702368929728E-02
7  6.0000000000000E-02  1.2298994864850E-01 -4.1231052873669E-03  3.2449988511508E-02
8  7.0000000000000E-02  1.6598714009596E-01 -5.2089732691809E-03  4.3781680357483E-02
9  8.0000000000000E-02  2.1467971212141E-01 -6.2012316125659E-03  5.6605474119251E-02
10  9.0000000000000E-02  2.6868617566291E-01 -6.9927688788736E-03  7.0816907651291E-02
11  1.0000000000000E-01  3.2758247913460E-01 -7.4652441195504E-03  8.6299746657893E-02
12  1.1000000000000E-01  3.9090502821208E-01 -7.4902152315588E-03  1.0292680479637E-01
13  1.2000000000000E-01  4.5815400491710E-01 -6.9303887681838E-03  1.2056086451889E-01
14  1.3000000000000E-01  5.2879696678636E-01 -5.6409861489536E-03  1.3905569821834E-01
15  1.4000000000000E-01  6.0227270467796E-01 -3.4712200926512E-03  1.5825718833378E-01
16  1.5000000000000E-01  6.7799533553071E-01 -2.6587386182477E-04  1.7800454397511E-01
17  1.6000000000000E-01  7.5535860416836E-01  4.1330254294625E-03  1.9813161035731E-01
18  1.7000000000000E-01  8.3374036605944E-01  9.8844496113081E-03  2.1846826591246E-01
19  1.8000000000000E-01  9.1250722083415E-01  1.7146540000213E-02  2.3884190039627E-01
20  1.9000000000000E-01  9.9101926435610E-01  2.6074718837139E-02  2.5907896565695E-01
21  2.0000000000000E-01  1.0686349252850E+00  3.6819756274619E-02  2.7900658902191E-01
22  2.1000000000000E-01  1.1447158503847E+00  4.9525809033954E-02  2.9845423752127E-01
23  2.2000000000000E-01  1.2186318013686E+00  6.4328448248151E-02  3.1725541944894E-01
24  2.3000000000000E-01  1.2897655248696E+00  8.1352695290082E-02  3.3524940810460E-01
25  2.4000000000000E-01  1.3575175562136E+00  1.0071108552029E-01  3.5228297100997E-01
26  2.5000000000000E-01  1.4213109171025E+00  1.2250178083769E-01  3.6821208649377E-01
27  2.6000000000000E-01  1.4805956671003E+00  1.4680675264287E-01  3.8290362833579E-01
28  2.7000000000000E-01  1.5348532690077E+00  1.7369005729563E-01  3.9623699819332E-01
29  2.8000000000000E-01  1.5836007288167E+00  2.0319622633453E-01  4.0810568483952E-01
30  2.9000000000000E-01  1.6263944719849E+00  2.3534879360310E-01  4.1841872885831E-01
31  3.0000000000000E-01  1.6628339192755E+00  2.7014898097337E-01  4.2710207139096E-01
32  3.1000000000000E-01  1.6925647273655E+00  3.0757456355831E-01  4.3409976583826E-01
33  3.2000000000000E-01  1.7152816618478E+00  3.4757893415396E-01  4.3937503210495E-01
34  3.3000000000000E-01  1.7307310731200E+00  3.9009038514573E-01  4.4291113403669E-01
35  3.4000000000000E-01  1.7387129489491E+00  4.3501162426042E-01  4.4471206214522E-01
36  3.5000000000000E-01  1.7390825212061E+00  4.8221953835655E-01  4.4480300553645E-01
37  3.6000000000000E-01  1.7317514083415E+00  5.3156521694236E-01  4.4323059913275E-01
38  3.7000000000000E-01  1.7166882795718E+00  5.8287424432044E-01  4.4006293479092E-01
39  3.8000000000000E-01  1.6939190314398E+00  6.3594726621412E-01  4.3538932772967E-01
40  3.9000000000000E-01  1.6635264723189E+00  6.9056083347399E-01  4.2931983275590E-01
41  4.0000000000000E-01  1.6256495155119E+00  7.4646852203919E-01  4.2198450807198E-01
42  4.1000000000000E-01  1.5804818867710E+00  8.0340232478801E-01  4.1353242790643E-01
43  4.2000000000000E-01  1.5282703572719E+00  8.6107430730984E-01  4.0413044878023E-01
44  4.3000000000000E-01  1.4693125182431E+00  9.1917851602430E-01  3.9396173784206E-01
45  4.4000000000000E-01  1.4039541184945E+00  9.7739312352149E-01  3.8322407531461E-01
46  4.5000000000000E-01  1.3325859909549E+00  1.0353827925607E+00  3.7212794662700E-01
47  4.6000000000000E-01  1.2556405989220E+00  1.0928012369025E+00  3.6089444320116E-01
48  4.7000000000000E-01  1.1735882369948E+00  1.1492939541208E+00  3.4975299404946E-01
49  4.8000000000000E-01  1.0869329255276E+00  1.2045011027965E+00  3.3893895326614E-01
50  4.9000000000000E-01  9.9620804085442E-01  1.2580604940971E+00  3.2869107109938E-01
51  5.0000000000000E-01  9.0197172642924E-01  1.3096106657231E+00  3.1924887852135E-01
52  5.1000000000000E-01  8.0480213236573E-01  1.3587940046161E+00  3.1085001702448E-01
53  5.2000000000000E-01  7.0529253259895E-01  1.4052598836878E+00  3.0372754672328E-01
54  5.3000000000000E-01  6.0404637000304E-01  1.4486677771852E+00  2.9810726670172E-01
55  5.4000000000000E-01  5.0167228026242E-01  1.4886903191621E+00  2.9420508189206E-01
56  5.5000000000000E-01  3.9877914510142E-01  1.5250162698993E+00  2.9222445058892E-01
57  5.6000000000000E-01  2.9597122462878E-01  1.5573533559933E+00  2.9235394598816E-01
58  5.7000000000000E-01  1.9384341706110E-01  1.5854309512267E+00  2.9476496389676E-01
59  5.8000000000000E-01  9.2976691975766E-02  1.6090025671989E+00  2.9960960700533E-01
60  5.9000000000000E-01 -6.0662594579702E-03  1.6278481250361E+00  3.0701877387045E-01
61  6.0000000000000E-01 -1.0274511707045E-01  1.6417759822521E+00  3.1710047805461E-01
62  6.1000000000000E-01 -1.9654573064973E-01  1.6506246919792E+00  3.2993841975936E-01
63  6.2000000000000E-01 -2.8698359299050E-01  1.6542644752595E+00  3.4559082881042E-01
64  6.3000000000000E-01 -3.7360695930719E-01  1.6525983908440E+00  3.6408959407071E-01
65  6.4000000000000E-01 -4.5599959013073E-01  1.6455631909195E+00  3.8543969032942E-01
66  6.5000000000000E-01 -5.3378309987475E-01  1.6331298553073E+00  4.0961890951061E-01
67  6.6000000000000E-01 -6.0661889846313E-01  1.6153038008900E+00  4.3657789873378E-01
68  6.7000000000000E-01 -6.7420971867452E-01  1.5921247672537E+00  4.6624050341447E-01
69  6.8000000000000E-01 -7.3630072709855E-01  1.5636663837067E+00  4.9850440928896E-01
70  6.9000000000000E-01 -7.9268022173187E-01  1.5300354268948E+00  5.3324207305642E-01
71  7.0000000000000E-01 -8.4317992419068E-01  1.4913707821056E+00  5.7030192732620E-01
72  7.1000000000000E-01 -8.8767487920616E-01  1.4478421249720E+00  6.0950984180404E-01