Uu    ONCVPSP-4.0.1  r_core=   1.50628   1.50628   1.50628
119.0000     27.0000      231012    zatom,zion,pspd
8   -1012   2     4   600     0    pspcod,pspxc,lmax,lloc,mmax,r2well
5.99000000  5.00000000  0.00000000    rchrg fchrg qchrg
3     2     2     0     0    nproj
1     1           extension_switch
0                         2.2731719151314E+01 -3.1891861095111E+00 -3.0889518892447E-01
1  0.0000000000000E+00 -1.8983815630591E-09 -9.5943977762580E-10  2.9823753355807E-08
2  1.0000000000000E-02  1.2935731590926E-01  1.6539838229219E-02 -1.2550829783489E-01
3  2.0000000000000E-02  2.5807795315683E-01  3.3066618036935E-02 -2.4938984258093E-01
4  3.0000000000000E-02  3.8552950077660E-01  4.9567868154643E-02 -3.7004118436681E-01
5  4.0000000000000E-02  5.1108804432785E-01  6.6032279160015E-02 -4.8590508252808E-01
6  5.0000000000000E-02  6.3414231748929E-01  8.2450253503875E-02 -5.9549262502070E-01
7  6.0000000000000E-02  7.5409773902962E-01  9.8814419166005E-02 -6.9740418750183E-01
8  7.0000000000000E-02  8.7038029922022E-01  1.1512009597313E-01 -7.9034888127543E-01
9  8.0000000000000E-02  9.8244026165344E-01  1.3136570457187E-01 -8.7316216912421E-01
10  9.0000000000000E-02  1.0897556487417E+00  1.4755310920886E-01 -9.4482136407896E-01
11  1.0000000000000E-01  1.1918354818580E+00  1.6368788680463E-01 -1.0044587676427E+00
12  1.1000000000000E-01  1.2882227500932E+00  1.7977951628868E-01 -1.0513722499700E+00
13  1.2000000000000E-01  1.3784970848978E+00  1.9584148375789E-01 -1.0850331240225E+00
14  1.3000000000000E-01  1.4622771213961E+00  2.1189130069556E-01 -1.1050912176961E+00
15  1.4000000000000E-01  1.5392225308438E+00  2.2795043420772E-01 -1.1113771012408E+00
16  1.5000000000000E-01  1.6090357124951E+00  2.4404414996063E-01 -1.1039014808211E+00
17  1.6000000000000E-01  1.6714631369904E+00  2.6020127020215E-01 -1.0828518216711E+00
18  1.7000000000000E-01  1.7262963372046E+00  2.7645385088485E-01 -1.0485863148641E+00
19  1.8000000000000E-01  1.7733725462667E+00  2.9283678344585E-01 -1.0016253492145E+00
20  1.9000000000000E-01  1.8125749861007E+00  3.0938732820730E-01 -9.4264069326383E-01
21  2.0000000000000E-01  1.8438328133109E+00  3.2614458761292E-01 -8.7244263082375E-01
22  2.1000000000000E-01  1.8671207324867E+00  3.4314892858703E-01 -7.9196532639416E-01
23  2.2000000000000E-01  1.8824582899917E+00  3.6044136417145E-01 -7.0225072332039E-01
24  2.3000000000000E-01  1.8899088640032E+00  3.7806290524911E-01 -6.0443129735668E-01
25  2.4000000000000E-01  1.8895783689406E+00  3.9605389358929E-01 -4.9971200101743E-01
26  2.5000000000000E-01  1.8816136944566E+00  4.1445332764355E-01 -3.8935173960819E-01
27  2.6000000000000E-01  1.8662009008400E+00  4.3329819248382E-01 -2.7464471812515E-01
28  2.7000000000000E-01  1.8435631939938E+00  4.5262280501034E-01 -1.5690198949571E-01
29  2.8000000000000E-01  1.8139587041016E+00  4.7245818507601E-01 -3.7433519221491E-02
30  2.9000000000000E-01  1.7776780926942E+00  4.9283146249230E-01  8.2468940124483E-02
31  3.0000000000000E-01  1.7350420130828E+00  5.1376532901736E-01  2.0154789829509E-01
32  3.1000000000000E-01  1.6863984490616E+00  5.3527754340355E-01  3.1859486646189E-01
33  3.2000000000000E-01  1.6321199564214E+00  5.5738049642488E-01  4.3246358787784E-01
34  3.3000000000000E-01  1.5726008311888E+00  5.8008084154346E-01  5.4208160116107E-01
35  3.4000000000000E-01  1.5082542276463E+00  6.0337919553883E-01  6.4646001857153E-01
36  3.5000000000000E-01  1.4395092481280E+00  6.2726991204545E-01  7.4470144411262E-01
37  3.6000000000000E-01  1.3668080253678E+00  6.5174092955513E-01  8.3600599887771E-01
38  3.7000000000000E-01  1.2906028168342E+00  6.7677369407204E-01  9.1967546279454E-01
39  3.8000000000000E-01  1.2113531290562E+00  7.0234315528989E-01  9.9511558184261E-01
40  3.9000000000000E-01  1.1295228884696E+00  7.2841783392157E-01  1.0618366270302E+00
41  4.0000000000000E-01  1.0455776738218E+00  7.5495995667635E-01  1.1194523251223E+00
42  4.1000000000000E-01  9.5998202369559E-01  7.8192565437119E-01  1.1676773106052E+00
43  4.2000000000000E-01  8.7319683128958E-01  8.0926521780066E-01  1.2063232730394E+00
44  4.3000000000000E-01  7.8567683722760E-01  8.3692340528798E-01  1.2352939933544E+00
45  4.4000000000000E-01  6.9786822990568E-01  8.6483979530935E-01  1.2545794764435E+00
46  4.5000000000000E-01  6.1020636171767E-01  8.9294917723032E-01  1.2642493954335E+00
47  4.6000000000000E-01  5.2311358845262E-01  9.2118197301944E-01  1.2644460652064E+00
48  4.7000000000000E-01  4.3699723822786E-01  9.4946468280570E-01  1.2553771592490E+00
49  4.8000000000000E-01  3.5224771551286E-01  9.7772034731713E-01  1.2373083749563E+00
50  4.9000000000000E-01  2.6923674510727E-01  1.0058690205657E+00  1.2105562384720E+00
51  5.0000000000000E-01  1.8831576035172E-01  1.0338282466132E+00  1.1754812215667E+00
52  5.1000000000000E-01  1.0981443936119E-01  1.0615135348466E+00  1.1324813204865E+00
53  5.2000000000000E-01  3.4039392661290E-02  1.0888388288865E+00  1.0819862208971E+00
54  5.3000000000000E-01 -3.8726994740312E-02  1.1157169650274E+00  1.0244521447472E+00
55  5.4000000000000E-01 -1.0822756412112E-01  1.1420601169370E+00  9.6035744490327E-01
56  5.5000000000000E-01 -1.7423122421105E-01  1.1677802241972E+00  8.9019898264214E-01
57  5.6000000000000E-01 -2.3653363060882E-01  1.1927894031306E+00  8.1448929234631E-01
58  5.7000000000000E-01 -2.9495770160902E-01  1.2170003391873E+00  7.3375450792856E-01
59  5.8000000000000E-01 -3.4935396895653E-01  1.2403266609580E+00  6.4853299736943E-01
60  5.9000000000000E-01 -3.9960076246238E-01  1.2626832965923E+00  5.5937462609859E-01
61  6.0000000000000E-01 -4.4560422791070E-01  1.2839868140293E+00  4.6684054742539E-01
62  6.1000000000000E-01 -4.8729817827268E-01  1.3041557469617E+00  3.7150339943377E-01
63  6.2000000000000E-01 -5.2464377893034E-01  1.3231109088517E+00  2.7394777319433E-01
64  6.3000000000000E-01 -5.5762906840570E-01  1.3407756975777E+00  1.7477080717357E-01
65  6.4000000000000E-01 -5.8626831699058E-01  1.3570763934119E+00  7.4582757567036E-02
66  6.5000000000000E-01 -6.1060122667673E-01  1.3719424530114E+00 -2.5992605892099E-02
67  6.6000000000000E-01 -6.3069197688666E-01  1.3853068019418E+00 -1.2631792437427E-01
68  6.7000000000000E-01 -6.4662812169167E-01  1.3971061279597E+00 -2.2574263084586E-01
69  6.8000000000000E-01 -6.5851934545920E-01  1.4072811768588E+00 -3.2360390958835E-01
70  6.9000000000000E-01 -6.6649608517727E-01  1.4157770521511E+00 -4.1922833839115E-01
71  7.0000000000000E-01 -6.7070802903679E-01  1.4225435192277E+00 -5.1193429573191E-01
72  7.1000000000000E-01 -6.7132250218781E-01  1.4275353139347E+00 -6.0103519050328E-01
73  7.2000000000000E-01 -6.6852275189534E-01  1.4307124547453E+00 -6.8584354478839E-01
74  7.3000000000000E-01 -6.6250614557609E-01  1.4320405569104E+00 -7.6567593152076E-01
75  7.4000000000000E-01 -6.5348229636891E-01  1.4314911461754E+00 -8.3985873940497E-01
76  7.5000000000000E-01 -6.4167113195051E-01  1.4290419688675E+00 -9.0773470801963E-01
77  7.6000000000000E-01 -6.2730092322413E-01  1.4246772944170E+00 -9.6867014738450E-01
78  7.7000000000000E-01 -6.1060629025755E-01  1.4183882057068E+00 -1.0220627292301E+00
79  7.8000000000000E-01 -5.9182620340129E-01  1.4101728720570E+00 -1.0673497125348E+00
80  7.9000000000000E-01 -5.7120199785809E-01  1.4000367991808E+00 -1.1040164442798E+00
81  8.0000000000000E-01 -5.4897542008343E-01  1.3879930501000E+00 -1.1316049584203E+00
82  8.1000000000000E-01 -5.2538672425922E-01  1.3740624308073E+00 -1.1497224823516E+00
83  8.2000000000000E-01 -5.0067283669103E-01  1.3582736344111E+00 -1.1580496510607E+00
84  8.3000000000000E-01 -4.7506560533040E-01  1.3406633376174E+00 -1.1563482250126E+00
85  8.4000000000000E-01 -4.4879015071789E-01  1.3212762436761E+00 -1.1444681088408E+00
86  8.5000000000000E-01 -4.2206333348834E-01  1.3001650663719E+00 -1.1223534741255E+00
87  8.6000000000000E-01 -3.9509235218898E-01  1.2773904502392E+00 -1.0900478009052E+00
88  8.7000000000000E-01 -3.6807348355094E-01  1.2530208229449E+00 -1.0476976688844E+00
89  8.8000000000000E-01 -3.4119097554918E-01  1.2271321766769E+00 -9.9555515022075E-01
90  8.9000000000000E-01 -3.1461610161034E-01  1.1998077764010E+00 -9.3397868092034E-01
91  9.0000000000000E-01 -2.8850638221517E-01  1.1711377939717E+00 -8.6343231663184E-01
92  9.1000000000000E-01 -2.6300497792562E-01  1.1412188682898E+00 -7.8448331042679E-01
93  9.2000000000000E-01 -2.3824025558385E-01  1.1101535929638E+00 -6.9779798423602E-01
94  9.3000000000000E-01 -2.1432552712073E-01  1.0780499342214E+00 -6.0413590121829E-01
95  9.4000000000000E-01 -1.9135895811468E-01  1.0450205831144E+00 -5.0434238264629E-01
96  9.5000000000000E-01 -1.6942364099881E-01  1.0111822473248E+00 -3.9933944906088E-01
97  9.6000000000000E-01 -1.4858782566507E-01  9.7665488909372E-01 -2.9011530062218E-01
98  9.7000000000000E-01 -1.2890529819645E-01  9.4156091692436E-01 -1.7771248495175E-01
99  9.8000000000000E-01 -1.1041589660978E-01  9.0602433972872E-01 -6.3214931502572E-02
100  9.9000000000000E-01 -9.3146150842073E-02  8.7016989297937E-01  5.2265941083453E-02
101  1.0000000000000E+00 -7.7110032796526E-02  8.3412214715915E-01  1.6760581478757E-01
102  1.0100000000000E+00 -6.2309801100102E-02  7.9800460936464E-01  2.8168251052999E-01
103  1.0200000000000E+00 -4.8736924336052E-02  7.6193882929422E-01  3.9339121256239E-01
104  1.0300000000000E+00 -3.6373065914249E-02  7.2604352102822E-01  5.0165960816339E-01
105  1.0400000000000E+00 -2.5191113439137E-02  6.9043371198206E-01  6.0546266915585E-01
106  1.0500000000000E+00 -1.5156235430927E-02  6.5521993017949E-01  7.0383680480761E-01
107  1.0600000000000E+00 -6.2269485487029E-03  6.2050744055477E-01  7.9589312446793E-01
108  1.0700000000000E+00  1.6438209582429E-03  5.8639554035774E-01  8.8082956261246E-01
109  1.0800000000000E+00  8.5076969928861E-03  5.5297692291208E-01  9.5794163864180E-01
110  1.0900000000000E+00  1.4419848867852E-02  5.2033711798271E-01  1.0266316483031E+00
111  1.1000000000000E+00  1.9438035072280E-02  4.8855401586006E-01  1.0864161125093E+00
112  1.1100000000000E+00  2.3621707016489E-02  4.5769748098632E-01  1.1369313420934E+00
113  1.1200000000000E+00  2.7031182540240E-02  4.2782905956370E-01  1.1779370127412E+00
114  1.1300000000000E+00  2.9726897150367E-02  3.9900178410996E-01  1.2093176826092E+00
115  1.1400000000000E+00  3.1768739057425E-02  3.7126007640961E-01  1.2310822246652E+00
116  1.1500000000000E+00  3.3215472119803E-02  3.4463974875601E-01  1.2433611863336E+00
117  1.1600000000000E+00  3.4124248847822E-02  3.1916810184397E-01  1.2464021291235E+00
118  1.1700000000000E+00  3.4550213676683E-02  2.9486411615888E-01  1.2405630403723E+00
119  1.1800000000000E+00  3.4546194853974E-02  2.7173873226793E-01  1.2263039466418E+00
120  1.1900000000000E+00  3.4162481512075E-02  2.4979521405671E-01  1.2041768934624E+00
121  1.2000000000000E+00  3.3446680861888E-02  2.2902958771077E-01  1.1748144879234E+00
122  1.2100000000000E+00  3.2443648967536E-02  2.0943114812782E-01  1.1389172287017E+00
123  1.2200000000000E+00  3.1195487266839E-02  1.9098302348131E-01  1.0972398719951E+00
124  1.2300000000000E+00  2.9741595919083E-02  1.7366278786092E-01  1.0505771008800E+00
125  1.2400000000000E+00  2.8118774185318E-02  1.5744311128797E-01  9.9974877991218E-01
126  1.2500000000000E+00  2.6361357404722E-02  1.4229243596356E-01  9.4558508583508E-01
127  1.2600000000000E+00  2.4501379712602E-02  1.2817566734552E-01  8.8891180926594E-01
128  1.2700000000000E+00  2.2568751455107E-02  1.1505486857134E-01  8.3053612115469E-01
129  1.2800000000000E+00  2.0591440283029E-02  1.0288994683829E-01  7.7123309194346E-01
130  1.2900000000000E+00  1.8595645139114E-02  9.1639320610920E-02  7.1173324096639E-01
131  1.3000000000000E+00  1.6605952773663E-02  8.1260556936062E-02  6.5271137915105E-01
132  1.3100000000000E+00  1.4645467008260E-02  7.1710968688825E-02  5.9477699007574E-01
133  1.3200000000000E+00  1.2735901691800E-02  6.2948162229830E-02  5.3846637349683E-01
134  1.3300000000000E+00  1.0897629134559E-02  5.4930526708278E-02  4.8423675208431E-01
135  1.3400000000000E+00  9.1496767264918E-03  4.7617657066589E-02  4.3246251723074E-01
136  1.3500000000000E+00  7.5096654175956E-03  4.0970703669678E-02  3.8343376402924E-01
137  1.3600000000000E+00  5.9936847360826E-03  3.4952642376880E-02  3.3735723944216E-01
138  1.3700000000000E+00  4.6161000036048E-03  2.9528459764797E-02  2.9435980223901E-01
139  1.3800000000000E+00  3.3892883529223E-03  2.4665249077817E-02  2.5449446900341E-01
140  1.3900000000000E+00  2.3233010321372E-03  2.0332213306159E-02  2.1774909805970E-01
141  1.4000000000000E+00  1.4254502708847E-03  1.6500572554065E-02  1.8405774302343E-01
142  1.4100000000000E+00  6.9982112683863E-04  1.3143374755423E-02  1.5331466729539E-01
143  1.4200000000000E+00  1.4669172334778E-04  1.0235193393827E-02  1.2539128755445E-01
144  1.4300000000000E+00 -2.3815846210348E-04  7.7517127022704E-03  1.0015618055005E-01
145  1.4400000000000E+00 -4.7599877841550E-04  5.6593062942138E-03  7.7685051802997E-02
146  1.4500000000000E+00 -5.9066714340233E-04  3.9266544756514E-03  5.8048366993360E-02
147  1.4600000000000E+00 -5.8981900914460E-04  2.5410261215287E-03  4.1021931425728E-02
148  1.4700000000000E+00 -4.9410520109237E-04  1.4845517738924E-03  2.6558275938959E-02
149  1.4800000000000E+00 -3.3625378938943E-04  7.3472094440978E-04  1.4791699482576E-02
150  1.4900000000000E+00 -1.6121516456069E-04  2.6292391049696E-04  6.0514388541800E-03
151  1.5000000000000E+00 -3.1355978423556E-05  3.8402062598100E-05  1.0326290695611E-03
152  1.5100000000000E+00  3.3693253941633E-06 -3.4117962652304E-06 -1.0300807415847E-04
153  1.5200000000000E+00 -9.3930601845839E-07  1.0498596597883E-06  2.9793726235089E-05
154  1.53  0. -0. -0.
155  1.54 -0. -0.  0.
156  1.55  0.  0.  0.
157  1.56  0.  0.  0.
158  1.57  0.  0.  0.
159  1.58  0.  0.  0.
160  1.59  0.  0.  0.
161  1.60  0.  0.  0.
162  1.61  0.  0.  0.
163  1.62  0.  0.  0.
164  1.63  0.  0.  0.
165  1.64  0.  0.  0.
166  1.65  0.  0.  0.
167  1.66  0.  0.  0.
168  1.67  0.  0.  0.
169  1.68  0.  0.  0.
170  1.69  0.  0.  0.
171  1.70  0.  0.  0.
172  1.71  0.  0.  0.
173  1.72  0.  0.  0.
174  1.73  0.  0.  0.
175  1.74  0.  0.  0.
176  1.75  0.  0.  0.
177  1.76  0.  0.  0.
178  1.77  0.  0.  0.
179  1.78  0.  0.  0.
180  1.79  0.  0.  0.
181  1.80  0.  0.  0.
182  1.81  0.  0.  0.
183  1.82  0.  0.  0.
184  1.83  0.  0.  0.
185  1.84  0.  0.  0.
186  1.85  0.  0.  0.
187  1.86  0.  0.  0.
188  1.87  0.  0.  0.
189  1.88  0.  0.  0.
190  1.89  0.  0.  0.
191  1.90  0.  0.  0.
192  1.91  0.  0.  0.
193  1.92  0.  0.  0.
194  1.93  0.  0.  0.
195  1.94  0.  0.  0.
196  1.95  0.  0.  0.
197  1.96  0.  0.  0.
198  1.97  0.  0.  0.
199  1.98  0.  0.  0.
200  1.99  0.  0.  0.
201  2.00  0.  0.  0.
202  2.01  0.  0.  0.
203  2.02  0.  0.  0.
204  2.03  0.  0.  0.
205  2.04  0.  0.  0.
206  2.05  0.  0.  0.
207  2.06  0.  0.  0.
208  2.07  0.  0.  0.
209  2.08  0.  0.  0.
210  2.09  0.  0.  0.
211  2.10  0.  0.  0.
212  2.11  0.  0.  0.
213  2.12  0.  0.  0.
214  2.13  0.  0.  0.
215  2.14  0.  0.  0.
216  2.15  0.  0.  0.
217  2.16  0.  0.  0.
218  2.17  0.  0.  0.
219  2.18  0.  0.  0.
220  2.19  0.  0.  0.
221  2.20  0.  0.  0.
222  2.21  0.  0.  0.
223  2.22  0.  0.  0.
224  2.23  0.  0.  0.
225  2.24  0.  0.  0.
226  2.25  0.  0.  0.
227  2.26  0.  0.  0.
228  2.27  0.  0.  0.
229  2.28  0.  0.  0.
230  2.29  0.  0.  0.
231  2.30  0.  0.  0.
232  2.31  0.  0.  0.
233  2.32  0.  0.  0.
234  2.33  0.  0.  0.
235  2.34  0.  0.  0.
236  2.35  0.  0.  0.
237  2.36  0.  0.  0.
238  2.37  0.  0.  0.
239  2.38  0.  0.  0.
240  2.39  0.  0.  0.
241  2.40  0.  0.  0.
242  2.41  0.  0.  0.
243  2.42  0.  0.  0.
244  2.43  0.  0.  0.
245  2.44  0.  0.  0.
246  2.45  0.  0.  0.
247  2.46  0.  0.  0.
248  2.47  0.  0.  0.
249  2.48  0.  0.  0.
250  2.49  0.  0.  0.
251  2.50  0.  0.  0.
252  2.51  0.  0.  0.
253  2.52  0.  0.  0.
254  2.53  0.  0.  0.
255  2.54  0.  0.  0.
256  2.55  0.  0.  0.
257  2.56  0.  0.  0.
258  2.57  0.  0.  0.
259  2.58  0.  0.  0.
260  2.59  0.  0.  0.
261  2.60  0.  0.  0.
262  2.61  0.  0.  0.
263  2.62  0.  0.  0.
264  2.63  0.  0.  0.
265  2.64  0.  0.  0.
266  2.65  0.  0.  0.
267  2.66  0.  0.  0.
268  2.67  0.  0.  0.
269  2.68  0.  0.  0.
270  2.69  0.  0.  0.
271  2.70  0.  0.  0.
272  2.71  0.  0.  0.
273  2.72  0.  0.  0.
274  2.73  0.  0.  0.
275  2.74  0.  0.  0.
276  2.75  0.  0.  0.
277  2.76  0.  0.  0.
278  2.77  0.  0.  0.
279  2.78  0.  0.  0.
280  2.79  0.  0.  0.
281  2.80  0.  0.  0.
282  2.81  0.  0.  0.
283  2.82  0.  0.  0.
284  2.83  0.  0.  0.
285  2.84  0.  0.  0.
286  2.85  0.  0.  0.
287  2.86  0.  0.  0.
288  2.87  0.  0.  0.
289  2.88  0.  0.  0.
290  2.89  0.  0.  0.
291  2.90  0.  0.  0.
292  2.91  0.  0.  0.
293  2.92  0.  0.  0.
294  2.93  0.  0.  0.
295  2.94  0.  0.  0.
296  2.95  0.  0.  0.
297  2.96  0.  0.  0.
298  2.97  0.  0.  0.
299  2.98  0.  0.  0.
300  2.99  0.  0.  0.
301  3.00  0.  0.  0.
302  3.01  0.  0.  0.
303  3.02  0.  0.  0.
304  3.03  0.  0.  0.
305  3.04  0.  0.  0.
306  3.05  0.  0.  0.
307  3.06  0.  0.  0.
308  3.07  0.  0.  0.
309  3.08  0.  0.  0.
310  3.09  0.  0.  0.
311  3.10  0.  0.  0.
312  3.11  0.  0.  0.
313  3.12  0.  0.  0.
314  3.13  0.  0.  0.
315  3.14  0.  0.  0.
316  3.15  0.  0.  0.
317  3.16  0.  0.  0.
318  3.17  0.  0.  0.
319  3.18  0.  0.  0.
320  3.19  0.  0.  0.
321  3.20  0.  0.  0.
322  3.21  0.  0.  0.
323  3.22  0.  0.  0.
324  3.23  0.  0.  0.
325  3.24  0.  0.  0.
326  3.25  0.  0.  0.
327  3.26  0.  0.  0.
328  3.27  0.  0.  0.
329  3.28  0.  0.  0.
330  3.29  0.  0.  0.
331  3.30  0.  0.  0.
332  3.31  0.  0.  0.
333  3.32  0.  0.  0.
334  3.33  0.  0.  0.
335  3.34  0.  0.  0.
336  3.35  0.  0.  0.
337  3.36  0.  0.  0.
338  3.37  0.  0.  0.
339  3.38  0.  0.  0.
340  3.39  0.  0.  0.
341  3.40  0.  0.  0.
342  3.41  0.  0.  0.
343  3.42  0.  0.  0.
344  3.43  0.  0.  0.
345  3.44  0.  0.  0.
346  3.45  0.  0.  0.
347  3.46  0.  0.  0.
348  3.47  0.  0.  0.
349  3.48  0.  0.  0.
350  3.49  0.  0.  0.
351  3.50  0.  0.  0.
352  3.51  0.  0.  0.
353  3.52  0.  0.  0.
354  3.53  0.  0.  0.
355  3.54  0.  0.  0.
356  3.55  0.  0.  0.
357  3.56  0.  0.  0.
358  3.57  0.  0.  0.
359  3.58  0.  0.  0.
360  3.59  0.  0.  0.
361  3.60  0.  0.  0.
362  3.61  0.  0.  0.
363  3.62  0.  0.  0.
364  3.63  0.  0.  0.
365  3.64  0.  0.  0.
366  3.65  0.  0.  0.
367  3.66  0.  0.  0.
368  3.67  0.  0.  0.
369  3.68  0.  0.  0.
370  3.69  0.  0.  0.
371  3.70  0.  0.  0.
372  3.71  0.  0.  0.
373  3.72  0.  0.  0.
374  3.73  0.  0.  0.
375  3.74  0.  0.  0.
376  3.75  0.  0.  0.
377  3.76  0.  0.  0.
378  3.77  0.  0.  0.
379  3.78  0.  0.  0.
380  3.79  0.  0.  0.
381  3.80  0.  0.  0.
382  3.81  0.  0.  0.
383  3.82  0.  0.  0.
384  3.83  0.  0.  0.
385  3.84  0.  0.  0.
386  3.85  0.  0.  0.
387  3.86  0.  0.  0.
388  3.87  0.  0.  0.
389  3.88  0.  0.  0.
390  3.89  0.  0.  0.
391  3.90  0.  0.  0.
392  3.91  0.  0.  0.
393  3.92  0.  0.  0.
394  3.93  0.  0.  0.
395  3.94  0.  0.  0.
396  3.95  0.  0.  0.
397  3.96  0.  0.  0.
398  3.97  0.  0.  0.
399  3.98  0.  0.  0.
400  3.99  0.  0.  0.
401  4.00  0.  0.  0.
402  4.01  0.  0.  0.
403  4.02  0.  0.  0.
404  4.03  0.  0.  0.
405  4.04  0.  0.  0.
406  4.05  0.  0.  0.
407  4.06  0.  0.  0.
408  4.07  0.  0.  0.
409  4.08  0.  0.  0.
410  4.09  0.  0.  0.
411  4.10  0.  0.  0.
412  4.11  0.  0.  0.
413  4.12  0.  0.  0.
414  4.13  0.  0.  0.
415  4.14  0.  0.  0.
416  4.15  0.  0.  0.
417  4.16  0.  0.  0.
418  4.17  0.  0.  0.
419  4.18  0.  0.  0.
420  4.19  0.  0.  0.
421  4.20  0.  0.  0.
422  4.21  0.  0.  0.
423  4.22  0.  0.  0.
424  4.23  0.  0.  0.
425  4.24  0.  0.  0.
426  4.25  0.  0.  0.
427  4.26  0.  0.  0.
428  4.27  0.  0.  0.
429  4.28  0.  0.  0.
430  4.29  0.  0.  0.
431  4.30  0.  0.  0.
432  4.31  0.  0.  0.
433  4.32  0.  0.  0.
434  4.33  0.  0.  0.
435  4.34  0.  0.  0.
436  4.35  0.  0.  0.
437  4.36  0.  0.  0.
438  4.37  0.  0.  0.
439  4.38  0.  0.  0.
440  4.39  0.  0.  0.
441  4.40  0.  0.  0.
442  4.41  0.  0.  0.
443  4.42  0.  0.  0.
444  4.43  0.  0.  0.
445  4.44  0.  0.  0.
446  4.45  0.  0.  0.
447  4.46  0.  0.  0.
448  4.47  0.  0.  0.
449  4.48  0.  0.  0.
450  4.49  0.  0.  0.
451  4.50  0.  0.  0.
452  4.51  0.  0.  0.
453  4.52  0.  0.  0.
454  4.53  0.  0.  0.
455  4.54  0.  0.  0.
456  4.55  0.  0.  0.
457  4.56  0.  0.  0.
458  4.57  0.  0.  0.
459  4.58  0.  0.  0.
460  4.59  0.  0.  0.
461  4.60  0.  0.  0.
462  4.61  0.  0.  0.
463  4.62  0.  0.  0.
464  4.63  0.  0.  0.
465  4.64  0.  0.  0.
466  4.65  0.  0.  0.
467  4.66  0.  0.  0.
468  4.67  0.  0.  0.
469  4.68  0.  0.  0.
470  4.69  0.  0.  0.
471  4.70  0.  0.  0.
472  4.71  0.  0.  0.
473  4.72  0.  0.  0.
474  4.73  0.  0.  0.
475  4.74  0.  0.  0.
476  4.75  0.  0.  0.
477  4.76  0.  0.  0.
478  4.77  0.  0.  0.
479  4.78  0.  0.  0.
480  4.79  0.  0.  0.
481  4.80  0.  0.  0.
482  4.81  0.  0.  0.
483  4.82  0.  0.  0.
484  4.83  0.  0.  0.
485  4.84  0.  0.  0.
486  4.85  0.  0.  0.
487  4.86  0.  0.  0.
488  4.87  0.  0.  0.
489  4.88  0.  0.  0.
490  4.89  0.  0.  0.
491  4.90  0.  0.  0.
492  4.91  0.  0.  0.
493  4.92  0.  0.  0.
494  4.93  0.  0.  0.
495  4.94  0.  0.  0.
496  4.95  0.  0.  0.
497  4.96  0.  0.  0.
498  4.97  0.  0.  0.
499  4.98  0.  0.  0.
500  4.99  0.  0.  0.
501  5.00  0.  0.  0.
502  5.01  0.  0.  0.
503  5.02  0.  0.  0.
504  5.03  0.  0.  0.
505  5.04  0.  0.  0.
506  5.05  0.  0.  0.
507  5.06  0.  0.  0.
508  5.07  0.  0.  0.
509  5.08  0.  0.  0.
510  5.09  0.  0.  0.
511  5.10  0.  0.  0.
512  5.11  0.  0.  0.
513  5.12  0.  0.  0.
514  5.13  0.  0.  0.
515  5.14  0.  0.  0.
516  5.15  0.  0.  0.
517  5.16  0.  0.  0.
518  5.17  0.  0.  0.
519  5.18  0.  0.  0.
520  5.19  0.  0.  0.
521  5.20  0.  0.  0.
522  5.21  0.  0.  0.
523  5.22  0.  0.  0.
524  5.23  0.  0.  0.
525  5.24  0.  0.  0.
526  5.25  0.  0.  0.
527  5.26  0.  0.  0.
528  5.27  0.  0.  0.
529  5.28  0.  0.  0.
530  5.29  0.  0.  0.
531  5.30  0.  0.  0.
532  5.31  0.  0.  0.
533  5.32  0.  0.  0.
534  5.33  0.  0.  0.
535  5.34  0.  0.  0.
536  5.35  0.  0.  0.
537  5.36  0.  0.  0.
538  5.37  0.  0.  0.
539  5.38  0.  0.  0.
540  5.39  0.  0.  0.
541  5.40  0.  0.  0.
542  5.41  0.  0.  0.
543  5.42  0.  0.  0.
544  5.43  0.  0.  0.
545  5.44  0.  0.  0.
546  5.45  0.  0.  0.
547  5.46  0.  0.  0.
548  5.47  0.  0.  0.
549  5.48  0.  0.  0.
550  5.49  0.  0.  0.
551  5.50  0.  0.  0.
552  5.51  0.  0.  0.
553  5.52  0.  0.  0.
554  5.53  0.  0.  0.
555  5.54  0.  0.  0.
556  5.55  0.  0.  0.
557  5.56  0.  0.  0.
558  5.57  0.  0.  0.
559  5.58  0.  0.  0.
560  5.59  0.  0.  0.
561  5.60  0.  0.  0.
562  5.61  0.  0.  0.
563  5.62  0.  0.  0.
564  5.63  0.  0.  0.
565  5.64  0.  0.  0.
566  5.65  0.  0.  0.
567  5.66  0.  0.  0.
568  5.67  0.  0.  0.
569  5.68  0.  0.  0.
570  5.69  0.  0.  0.
571  5.70  0.  0.  0.
572  5.71  0.  0.  0.
573  5.72  0.  0.  0.
574  5.73  0.  0.  0.
575  5.74  0.  0.  0.
576  5.75  0.  0.  0.
577  5.76  0.  0.  0.
578  5.77  0.  0.  0.
579  5.78  0.  0.  0.
580  5.79  0.  0.  0.
581  5.80  0.  0.  0.
582  5.81  0.  0.  0.
583  5.82  0.  0.  0.
584  5.83  0.  0.  0.
585  5.84  0.  0.  0.
586  5.85  0.  0.  0.
587  5.86  0.  0.  0.
588  5.87  0.  0.  0.
589  5.88  0.  0.  0.
590  5.89  0.  0.  0.
591  5.90  0.  0.  0.
592  5.91  0.  0.  0.
593  5.92  0.  0.  0.
594  5.93  0.  0.  0.
595  5.94  0.  0.  0.
596  5.95  0.  0.  0.
597  5.96  0.  0.  0.
598  5.97  0.  0.  0.
599  5.98  0.  0.  0.
600  5.99  0.  0.  0.
1                         1.0231952127128E+01 -1.0678400884134E+00
1  0.0000000000000E+00  1.4732480790869E-09 -7.0320409814150E-10
2  1.0000000000000E-02  2.9326828549122E-03  3.1526948825263E-07
3  2.0000000000000E-02  1.1711475790708E-02  2.8190295124344E-06
4  3.0000000000000E-02  2.6278738720249E-02  1.2165985263804E-05
5  4.0000000000000E-02  4.6538826755322E-02  3.6050585033310E-05
6  5.0000000000000E-02  7.2358720496000E-02  8.5113451471757E-05
7  6.0000000000000E-02  1.0356890324533E-01  1.7281338913552E-04
8  7.0000000000000E-02  1.3996447996392E-01  3.1526788014972E-04
9  8.0000000000000E-02  1.8130653130582E-01  5.3106568302494E-04
10  9.0000000000000E-02  2.2732369461189E-01  8.4105576044584E-04
11  1.0000000000000E-01  2.7771396228427E-01  1.2681172645023E-03
12  1.1000000000000E-01  3.3214668652976E-01  1.8369156891531E-03
13  1.2000000000000E-01  3.9026477804856E-01  2.5736505491697E-03
14  1.3000000000000E-01  4.5168708486410E-01  3.5058000556284E-03
15  1.4000000000000E-01  5.1601093615072E-01  4.6618682263114E-03
16  1.5000000000000E-01  5.8281483462716E-01  6.0711396950205E-03
17  1.6000000000000E-01  6.5166127985897E-01  7.7634471700716E-03
18  1.7000000000000E-01  7.2209970366290E-01  9.7689560460622E-03
19  1.8000000000000E-01  7.9366949774745E-01  1.2117970104312E-02
20  1.9000000000000E-01  8.6590311276772E-01  1.4840761559467E-02
21  2.0000000000000E-01  9.3832920713742E-01  1.7967427938751E-02
22  2.1000000000000E-01  1.0104758232396E+00  2.1527777434473E-02
23  2.2000000000000E-01  1.0818735681265E+00  2.5551243470511E-02
24  2.3000000000000E-01  1.1520587754113E+00  3.0066828291216E-02
25  2.4000000000000E-01  1.2205766248464E+00  3.5103074440196E-02
26  2.5000000000000E-01  1.2869841960643E+00  4.0688062069880E-02
27  2.6000000000000E-01  1.3508534331384E+00  4.6849429134588E-02
28  2.7000000000000E-01  1.4117739970144E+00  5.3614410693053E-02
29  2.8000000000000E-01  1.4693559834733E+00  6.1009892802774E-02
30  2.9000000000000E-01  1.5232324851134E+00  6.9062475848587E-02
31  3.0000000000000E-01  1.5730619768916E+00  7.7798541629724E-02
32  3.1000000000000E-01  1.6185305060338E+00  8.7244318148612E-02
33  3.2000000000000E-01  1.6593536686070E+00  9.7425935813841E-02
34  3.3000000000000E-01  1.6952783567362E+00  1.0836946869802E-01
35  3.4000000000000E-01  1.7260842623316E+00  1.2010095458469E-01
36  3.5000000000000E-01  1.7515851252521E+00  1.3264638779900E-01
37  3.6000000000000E-01  1.7716297160504E+00  1.4603167924302E-01
38  3.7000000000000E-01  1.7861025458055E+00  1.6028257864212E-01
39  3.8000000000000E-01  1.7949242980188E+00  1.7542455474562E-01
40  3.9000000000000E-01  1.7980519801081E+00  1.9148263009871E-01
41  4.0000000000000E-01  1.7954787946511E+00  2.0848116799828E-01
42  4.1000000000000E-01  1.7872337331726E+00  2.2644361034275E-01
43  4.2000000000000E-01  1.7733808979077E+00  2.4539216626410E-01
44  4.3000000000000E-01  1.7540185595725E+00  2.6534745266376E-01
45  4.4000000000000E-01  1.7292779617028E+00  2.8632808903847E-01
46  4.5000000000000E-01  1.6993218845466E+00  3.0835025024931E-01
47  4.6000000000000E-01  1.6643429837845E+00  3.3142718212979E-01
48  4.7000000000000E-01  1.6245619214734E+00  3.5556868602009E-01
49  4.8000000000000E-01  1.5802253085392E+00  3.8078057942554E-01
50  4.9000000000000E-01  1.5316034798461E+00  4.0706414100461E-01
51  5.0000000000000E-01  1.4789881243348E+00  4.3441554896839E-01
52  5.1000000000000E-01  1.4226897939168E+00  4.6282532270029E-01
53  5.2000000000000E-01  1.3630353157291E+00  4.9227777795988E-01
54  5.3000000000000E-01  1.3003651329760E+00  5.2275050640471E-01
55  5.4000000000000E-01  1.2350305999076E+00  5.5421389033416E-01
56  5.5000000000000E-01  1.1673912565036E+00  5.8663066352290E-01
57  5.6000000000000E-01  1.0978121081446E+00  6.1995552876236E-01
58  5.7000000000000E-01  1.0266609349731E+00  6.5413484226780E-01
59  5.8000000000000E-01  9.5430565477746E-01  6.8910637443929E-01
60  5.9000000000000E-01  8.8111176208810E-01  7.2479915559504E-01
61  6.0000000000000E-01  8.0743986478467E-01  7.6113341423872E-01
62  6.1000000000000E-01  7.3364333788305E-01  7.9802061419298E-01
63  6.2000000000000E-01  6.6006611234191E-01  8.3536359555114E-01
64  6.3000000000000E-01  5.8704061472019E-01  8.7305682288952E-01
65  6.4000000000000E-01  5.1488587136502E-01  9.1098674257066E-01
66  6.5000000000000E-01  4.4390578854590E-01  9.4903224928127E-01
67  6.6000000000000E-01  3.7438761761109E-01  9.8706526021765E-01
68  6.7000000000000E-01  3.0660061186132E-01  1.0249513935871E+00
69  6.8000000000000E-01  2.4079487944969E-01  1.0625507463684E+00
70  6.9000000000000E-01  1.7720043426114E-01  1.0997187645988E+00
71  7.0000000000000E-01  1.1602644443290E-01  1.1363071978637E+00
72  7.1000000000000E-01  5.7460675983306E-02  1.1721651281807E+00
73  7.2000000000000E-01  1.6691269483836E-03  1.2071400621304E+00
74  7.3000000000000E-01 -5.1204154486595E-02  1.2410790739104E+00
75  7.4000000000000E-01 -1.0103707610682E-01  1.2738299859984E+00
76  7.5000000000000E-01 -1.4772934181889E-01  1.3052425733342E+00
77  7.6000000000000E-01 -1.9120213692942E-01  1.3351697763697E+00
78  7.7000000000000E-01 -2.3139767073537E-01  1.3634689080179E+00
79  7.8000000000000E-01 -2.6827858945970E-01  1.3900028394486E+00
80  7.9000000000000E-01 -3.0182727317448E-01  1.4146411498477E+00
81  8.0000000000000E-01 -3.3204503072093E-01  1.4372612256598E+00
82  8.1000000000000E-01 -3.5895120676804E-01  1.4577492954849E+00
83  8.2000000000000E-01 -3.8258221505678E-01  1.4760013876653E+00
84  8.3000000000000E-01 -4.0299051156958E-01  1.4919241986833E+00
85  8.4000000000000E-01 -4.2024352086071E-01  1.5054358617630E+00
86  8.5000000000000E-01 -4.3442252810399E-01  1.5164666065133E+00
87  8.6000000000000E-01 -4.4562154858134E-01  1.5249593020351E+00
88  8.7000000000000E-01 -4.5394618537598E-01  1.5308698776186E+00
89  8.8000000000000E-01 -4.5951248497299E-01  1.5341676169457E+00
90  8.9000000000000E-01 -4.6244579933795E-01  1.5348353235511E+00
91  9.0000000000000E-01 -4.6287966186789E-01  1.5328693571585E+00
92  9.1000000000000E-01 -4.6095468341872E-01  1.5282795423585E+00
93  9.2000000000000E-01 -4.5681747343687E-01  1.5210889528935E+00
94  9.3000000000000E-01 -4.5061959008719E-01  1.5113335765484E+00
95  9.4000000000000E-01 -4.4251652219977E-01  1.4990618672577E+00
96  9.5000000000000E-01 -4.3266670487793E-01  1.4843341925295E+00