Rg    ONCVPSP-4.0.1  r_core=   1.10118   1.20456   1.20456   1.15516
111.0000     51.0000      231012    zatom,zion,pspd
8 -116133   3     4   600     0    pspcod,pspxc,lmax,lloc,mmax,r2well
5.99000000  3.50000000  0.00000000    rchrg fchrg qchrg
3     2     2     2     0    nproj
1     1           extension_switch
0                        -1.7016350837732E+01  1.2530883499326E+01 -9.2170508450353E-01
1  0.0000000000000E+00  2.3775037494289E-10  7.9443613909547E-09 -4.6643577042427E-08
2  1.0000000000000E-02  8.1009153459997E-02  2.1060354051398E-01 -7.5748003057457E-03
3  2.0000000000000E-02  1.6183464699498E-01  4.1882130504889E-01 -1.5424752628555E-02
4  3.0000000000000E-02  2.4229303395705E-01  6.2229585604493E-01 -2.3816920800956E-02
5  4.0000000000000E-02  3.2220129950005E-01  8.1872616365060E-01 -3.3002476047954E-02
6  5.0000000000000E-02  4.0137708954765E-01  1.0058951337766E+00 -4.3209446787305E-02
7  6.0000000000000E-02  4.7963895529376E-01  1.1816963172692E+00 -5.4636267190996E-02
8  7.0000000000000E-02  5.5680661815659E-01  1.3441595152508E+00 -6.7446331816194E-02
9  8.0000000000000E-02  6.3270125986953E-01  1.4914749877291E+00 -8.1763716970397E-02
10  9.0000000000000E-02  7.0714584207449E-01  1.6220159653977E+00 -9.7670175789141E-02
11  1.0000000000000E-01  7.7996545937416E-01  1.7343591597135E+00 -1.1520345600393E-01
12  1.1000000000000E-01  8.5098772928940E-01  1.8273029655037E+00 -1.3435693000953E-01
13  1.2000000000000E-01  9.2004322194641E-01  1.8998830551613E+00 -1.5508046911936E-01
14  1.3000000000000E-01  9.8696593158055E-01  1.9513850754250E+00 -1.7728244075322E-01
15  1.4000000000000E-01  1.0515937910853E+00  1.9813541780750E+00 -2.0083266142680E-01
16  1.5000000000000E-01  1.1137692298604E+00  1.9896011455180E+00 -2.2556610212415E-01
17  1.6000000000000E-01  1.1733397741269E+00  1.9762049117094E+00 -2.5128711775413E-01
18  1.7000000000000E-01  1.2301586876957E+00  1.9415113281845E+00 -2.7777396015413E-01
19  1.8000000000000E-01  1.2840856499184E+00  1.8861280836851E+00 -3.0478333508247E-01
20  1.9000000000000E-01  1.3349874662355E+00  1.8109157529747E+00 -3.3205477772332E-01
21  2.0000000000000E-01  1.3827388054096E+00  1.7169750244313E+00 -3.5931464761564E-01
22  2.1000000000000E-01  1.4272229562103E+00  1.6056302349521E+00 -3.8627958116086E-01
23  2.2000000000000E-01  1.4683325950585E+00  1.4784094222426E+00 -4.1265928593511E-01
24  2.3000000000000E-01  1.5059705549644E+00  1.3370211860520E+00 -4.3815861342515E-01
25  2.4000000000000E-01  1.5400505850638E+00  1.1833287285279E+00 -4.6247890265810E-01
26  2.5000000000000E-01  1.5704980892022E+00  1.0193215166901E+00 -4.8531864343742E-01
27  2.6000000000000E-01  1.5972508313755E+00  8.4708507422588E-01 -5.0637356140059E-01
28  2.7000000000000E-01  1.6202595954429E+00  6.6876946274586E-01 -5.2533627486274E-01
29  2.8000000000000E-01  1.6394887864157E+00  4.8655705197550E-01 -5.4189571264374E-01
30  2.9000000000000E-01  1.6549169608025E+00  3.0263020221176E-01 -5.5573651044274E-01
31  3.0000000000000E-01  1.6665372739805E+00  1.1913948937603E-01 -5.6653861900580E-01
32  3.1000000000000E-01  1.6743578333555E+00 -6.1826907599118E-02 -5.7397735913851E-01
33  3.2000000000000E-01  1.6784019471736E+00 -2.3827206559593E-01 -5.7772414606219E-01
34  3.3000000000000E-01  1.6787082602186E+00 -4.0831687628073E-01 -5.7744807895248E-01
35  3.4000000000000E-01  1.6753307692648E+00 -5.7022382037249E-01 -5.7281855171877E-01
36  3.5000000000000E-01  1.6683387129982E+00 -7.2241754753562E-01 -5.6350898987800E-01
37  3.6000000000000E-01  1.6578163331374E+00 -8.6350193887887E-01 -5.4920175805883E-01
38  3.7000000000000E-01  1.6438625056207E+00 -9.9227342425629E-01 -5.2959421608814E-01
39  3.8000000000000E-01  1.6265902429258E+00 -1.1077304270495E+00 -5.0440583199783E-01
40  3.9000000000000E-01  1.6061260707888E+00 -1.2090789113635E+00 -4.7338619111510E-01
41  4.0000000000000E-01  1.5826092847376E+00 -1.2957341070010E+00 -4.3632367522158E-01
42  4.1000000000000E-01  1.5561910938854E+00 -1.3673185826930E+00 -3.9305452802793E-01
43  4.2000000000000E-01  1.5270336612941E+00 -1.4236569245597E+00 -3.4347197609700E-01
44  4.3000000000000E-01  1.4953090518644E+00 -1.4647673517372E+00 -2.8753504060791E-01
45  4.4000000000000E-01  1.4611981000974E+00 -1.4908506620843E+00 -2.2527665716482E-01
46  4.5000000000000E-01  1.4248892111700E+00 -1.5022769460270E+00 -1.5681071970743E-01
47  4.6000000000000E-01  1.3865771095533E+00 -1.4995705347220E+00 -8.2337681189116E-02
48  4.7000000000000E-01  1.3464615498615E+00 -1.4833936593421E+00 -2.1483779397856E-03
49  4.8000000000000E-01  1.3047460047584E+00 -1.4545292916754E+00  8.3374204421642E-02
50  4.9000000000000E-01  1.2616363445701E+00 -1.4138636133508E+00  1.7375543978372E-01
51  5.0000000000000E-01  1.2173395227821E+00 -1.3623685235039E+00  2.6843198299871E-01
52  5.1000000000000E-01  1.1720622808646E+00 -1.3010845448152E+00  3.6675715436834E-01
53  5.2000000000000E-01  1.1260098849138E+00 -1.2311044282993E+00  4.6800874432570E-01
54  5.3000000000000E-01  1.0793849054516E+00 -1.1535576911011E+00  5.7139910066868E-01
55  5.4000000000000E-01  1.0323860504553E+00 -1.0695962521389E+00  6.7608726845596E-01
56  5.5000000000000E-01  9.8520706032920E-01 -9.8038126112637E-01  7.8119286716138E-01
57  5.6000000000000E-01  9.3803567213586E-01 -8.8707115054929E-01  8.8581131484527E-01
58  5.7000000000000E-01  8.9105265903065E-01 -7.9081088064342E-01  9.8902994849223E-01
59  5.8000000000000E-01  8.4443094951699E-01 -6.9272229694884E-01  1.0899445462717E+00
60  5.9000000000000E-01  7.9833482991659E-01 -5.9389548077737E-01  1.1876757335691E+00
61  6.0000000000000E-01  7.5291923234580E-01 -4.9538094646790E-01  1.2813847516519E+00
62  6.1000000000000E-01  7.0832910953468E-01 -3.9818252650186E-01  1.3702880862999E+00
63  6.2000000000000E-01  6.6469889702931E-01 -3.0325078657154E-01  1.4536704932263E+00
64  6.3000000000000E-01  6.2215206268439E-01 -2.1147682697943E-01  1.5308960162524E+00
65  6.4000000000000E-01  5.8080074287588E-01 -1.2368635304906E-01  1.6014166707149E+00
66  6.5000000000000E-01  5.4074546452765E-01 -4.0633933659230E-02  1.6647785553569E+00
67  6.6000000000000E-01  5.0207495183048E-01  3.7002588847309E-02  1.7206252572210E+00
68  6.7000000000000E-01  4.6486601640731E-01  1.0862752513639E-01  1.7686985214737E+00
69  6.8000000000000E-01  4.2918352961385E-01  1.7373253877963E-01  1.8088362670062E+00
70  6.9000000000000E-01  3.9508047562289E-01  2.3190150744848E-01  1.8409681342581E+00
71  7.0000000000000E-01  3.6259808388943E-01  2.8281488888968E-01  1.8651088492664E+00
72  7.1000000000000E-01  3.3176603949798E-01  3.2625339858813E-01  1.8813497730346E+00
73  7.2000000000000E-01  3.0260276972321E-01  3.6210077994775E-01  1.8898490739767E+00
74  7.3000000000000E-01  2.7511580486643E-01  3.9034543443124E-01  1.8908210101989E+00
75  7.4000000000000E-01  2.4930221104525E-01  4.1108067997353E-01  1.8845248352962E+00
76  7.5000000000000E-01  2.2514909210343E-01  4.2450342197894E-01  1.8712538447494E+00
77  7.6000000000000E-01  2.0263415717158E-01  4.3091105242681E-01  1.8513250595033E+00
78  7.7000000000000E-01  1.8172634965683E-01  4.3069643832965E-01  1.8250699996003E+00
79  7.8000000000000E-01  1.6238653258896E-01  4.2434091952388E-01  1.7928269356087E+00
80  7.9000000000000E-01  1.4456822432855E-01  4.1240530528491E-01  1.7549349218257E+00
81  8.0000000000000E-01  1.2821837768500E-01  3.9551893667141E-01  1.7117298165321E+00
82  8.1000000000000E-01  1.1327819453871E-01  3.7436696338287E-01  1.6635423854245E+00
83  8.2000000000000E-01  9.9683967158288E-02  3.4967606646072E-01  1.6106984697509E+00
84  8.3000000000000E-01  8.7367936597076E-02  3.2219893734170E-01  1.5535210860371E+00
85  8.4000000000000E-01  7.6259157890935E-02  2.9269789552198E-01  1.4923342150948E+00
86  8.5000000000000E-01  6.6284361306516E-02  2.6192808749695E-01  1.4274679396418E+00
87  8.6000000000000E-01  5.7368798644810E-02  2.3062075514623E-01  1.3592645073014E+00
88  8.7000000000000E-01  4.9437063622708E-02  1.9946708928803E-01  1.2880848333959E+00
89  8.8000000000000E-01  4.2413875658566E-02  1.6910319137776E-01  1.2143149193330E+00
90  8.9000000000000E-01  3.6224816990064E-02  1.4009665172636E-01  1.1383716500832E+00
91  9.0000000000000E-01  3.0797013954853E-02  1.1293521554049E-01  1.0607074496600E+00
92  9.1000000000000E-01  2.6059754455864E-02  8.8017948888241E-02  9.8181331684155E-01
93  9.2000000000000E-01  2.1945035089479E-02  6.5649236718996E-02  9.0221983352454E-01
94  9.3000000000000E-01  1.8388033100322E-02  4.6035846627739E-02  8.2249583277980E-01
95  9.4000000000000E-01  1.5327500193724E-02  2.9287178371623E-02  7.4324452937864E-01
96  9.5000000000000E-01  1.2706077229045E-02  1.5418694235206E-02  6.6509704776212E-01
97  9.6000000000000E-01  1.0470530869944E-02  4.3583937998099E-03  5.8870342579578E-01
98  9.7000000000000E-01  8.5719153108211E-03 -4.0439363427398E-03  5.1472132110958E-01
99  9.8000000000000E-01  6.9656641608293E-03 -1.0005096608660E-02  4.4380279405669E-01
100  9.9000000000000E-01  5.6116193753130E-03 -1.3794990832456E-02  3.7657968074002E-01
101  1.0000000000000E+00  4.4740057127393E-03 -1.5721909437251E-02  3.1364819497394E-01
102  1.0100000000000E+00  3.5213604999224E-03 -1.6117290346563E-02  2.5555350347794E-01
103  1.0200000000000E+00  2.7264294579288E-03 -1.5320732131162E-02  2.0277509898446E-01
104  1.0300000000000E+00  2.0660414020757E-03 -1.3666084605785E-02  1.5571385533167E-01
105  1.0400000000000E+00  1.5209626489866E-03 -1.1469295063409E-02  1.1468156599147E-01
106  1.0500000000000E+00  1.0745090434955E-03 -9.0077229926683E-03  7.9887175604290E-02
107  1.0600000000000E+00  7.0563585336080E-04 -6.4406682355876E-03  5.1387519329998E-02
108  1.0700000000000E+00  4.1133387417048E-04 -4.0197472699452E-03  2.9218277344594E-02
109  1.0800000000000E+00  1.9347186891700E-04 -1.9975801486307E-03  1.3350284044952E-02
110  1.0900000000000E+00  5.4906977321756E-05 -5.9268944470858E-04  3.6665826917853E-03
111  1.1000000000000E+00  1.3498937434142E-06 -1.5091147694515E-05  8.6195963071172E-05
112  1.1100000000000E+00  2.7027435907829E-07 -3.0297974607799E-06  1.7518905705048E-05
113  1.1200000000000E+00 -2.3909350428127E-08  2.6367427179852E-07 -1.5747886178076E-06
114  1.13  0.  0.  0.
115  1.14  0.  0.  0.
116  1.15  0.  0.  0.
117  1.16  0.  0.  0.
118  1.17  0.  0.  0.
119  1.18  0.  0.  0.
120  1.19  0.  0.  0.
121  1.20  0.  0.  0.
122  1.21  0.  0.  0.
123  1.22  0.  0.  0.
124  1.23  0.  0.  0.
125  1.24  0.  0.  0.
126  1.25  0.  0.  0.
127  1.26  0.  0.  0.
128  1.27  0.  0.  0.
129  1.28  0.  0.  0.
130  1.29  0.  0.  0.
131  1.30  0.  0.  0.
132  1.31  0.  0.  0.
133  1.32  0.  0.  0.
134  1.33  0.  0.  0.
135  1.34  0.  0.  0.
136  1.35  0.  0.  0.
137  1.36  0.  0.  0.
138  1.37  0.  0.  0.
139  1.38  0.  0.  0.
140  1.39  0.  0.  0.
141  1.40  0.  0.  0.
142  1.41  0.  0.  0.
143  1.42  0.  0.  0.
144  1.43  0.  0.  0.
145  1.44  0.  0.  0.
146  1.45  0.  0.  0.
147  1.46  0.  0.  0.
148  1.47  0.  0.  0.
149  1.48  0.  0.  0.
150  1.49  0.  0.  0.
151  1.50  0.  0.  0.
152  1.51  0.  0.  0.
153  1.52  0.  0.  0.
154  1.53  0.  0.  0.
155  1.54  0.  0.  0.
156  1.55  0.  0.  0.
157  1.56  0.  0.  0.
158  1.57  0.  0.  0.
159  1.58  0.  0.  0.
160  1.59  0.  0.  0.
161  1.60  0.  0.  0.
162  1.61  0.  0.  0.
163  1.62  0.  0.  0.
164  1.63  0.  0.  0.
165  1.64  0.  0.  0.
166  1.65  0.  0.  0.
167  1.66  0.  0.  0.
168  1.67  0.  0.  0.
169  1.68  0.  0.  0.
170  1.69  0.  0.  0.
171  1.70  0.  0.  0.
172  1.71  0.  0.  0.
173  1.72  0.  0.  0.
174  1.73  0.  0.  0.
175  1.74  0.  0.  0.
176  1.75  0.  0.  0.
177  1.76  0.  0.  0.
178  1.77  0.  0.  0.
179  1.78  0.  0.  0.
180  1.79  0.  0.  0.
181  1.80  0.  0.  0.
182  1.81  0.  0.  0.
183  1.82  0.  0.  0.
184  1.83  0.  0.  0.
185  1.84  0.  0.  0.
186  1.85  0.  0.  0.
187  1.86  0.  0.  0.
188  1.87  0.  0.  0.
189  1.88  0.  0.  0.
190  1.89  0.  0.  0.
191  1.90  0.  0.  0.
192  1.91  0.  0.  0.
193  1.92  0.  0.  0.
194  1.93  0.  0.  0.
195  1.94  0.  0.  0.
196  1.95  0.  0.  0.
197  1.96  0.  0.  0.
198  1.97  0.  0.  0.
199  1.98  0.  0.  0.
200  1.99  0.  0.  0.
201  2.00  0.  0.  0.
202  2.01  0.  0.  0.
203  2.02  0.  0.  0.
204  2.03  0.  0.  0.
205  2.04  0.  0.  0.
206  2.05  0.  0.  0.
207  2.06  0.  0.  0.
208  2.07  0.  0.  0.
209  2.08  0.  0.  0.
210  2.09  0.  0.  0.
211  2.10  0.  0.  0.
212  2.11  0.  0.  0.
213  2.12  0.  0.  0.
214  2.13  0.  0.  0.
215  2.14  0.  0.  0.
216  2.15  0.  0.  0.
217  2.16  0.  0.  0.
218  2.17  0.  0.  0.
219  2.18  0.  0.  0.
220  2.19  0.  0.  0.
221  2.20  0.  0.  0.
222  2.21  0.  0.  0.
223  2.22  0.  0.  0.
224  2.23  0.  0.  0.
225  2.24  0.  0.  0.
226  2.25  0.  0.  0.
227  2.26  0.  0.  0.
228  2.27  0.  0.  0.
229  2.28  0.  0.  0.
230  2.29  0.  0.  0.
231  2.30  0.  0.  0.
232  2.31  0.  0.  0.
233  2.32  0.  0.  0.
234  2.33  0.  0.  0.
235  2.34  0.  0.  0.
236  2.35  0.  0.  0.
237  2.36  0.  0.  0.
238  2.37  0.  0.  0.
239  2.38  0.  0.  0.
240  2.39  0.  0.  0.
241  2.40  0.  0.  0.
242  2.41  0.  0.  0.
243  2.42  0.  0.  0.
244  2.43  0.  0.  0.
245  2.44  0.  0.  0.
246  2.45  0.  0.  0.
247  2.46  0.  0.  0.
248  2.47  0.  0.  0.
249  2.48  0.  0.  0.
250  2.49  0.  0.  0.
251  2.50  0.  0.  0.
252  2.51  0.  0.  0.
253  2.52  0.  0.  0.
254  2.53  0.  0.  0.
255  2.54  0.  0.  0.
256  2.55  0.  0.  0.
257  2.56  0.  0.  0.
258  2.57  0.  0.  0.
259  2.58  0.  0.  0.
260  2.59  0.  0.  0.
261  2.60  0.  0.  0.
262  2.61  0.  0.  0.
263  2.62  0.  0.  0.
264  2.63  0.  0.  0.
265  2.64  0.  0.  0.
266  2.65  0.  0.  0.
267  2.66  0.  0.  0.
268  2.67  0.  0.  0.
269  2.68  0.  0.  0.
270  2.69  0.  0.  0.
271  2.70  0.  0.  0.
272  2.71  0.  0.  0.
273  2.72  0.  0.  0.
274  2.73  0.  0.  0.
275  2.74  0.  0.  0.
276  2.75  0.  0.  0.
277  2.76  0.  0.  0.
278  2.77  0.  0.  0.
279  2.78  0.  0.  0.
280  2.79  0.  0.  0.
281  2.80  0.  0.  0.
282  2.81  0.  0.  0.
283  2.82  0.  0.  0.
284  2.83  0.  0.  0.
285  2.84  0.  0.  0.
286  2.85  0.  0.  0.
287  2.86  0.  0.  0.
288  2.87  0.  0.  0.
289  2.88  0.  0.  0.
290  2.89  0.  0.  0.
291  2.90  0.  0.  0.
292  2.91  0.  0.  0.
293  2.92  0.  0.  0.
294  2.93  0.  0.  0.
295  2.94  0.  0.  0.
296  2.95  0.  0.  0.
297  2.96  0.  0.  0.
298  2.97  0.  0.  0.
299  2.98  0.  0.  0.
300  2.99  0.  0.  0.
301  3.00  0.  0.  0.
302  3.01  0.  0.  0.
303  3.02  0.  0.  0.
304  3.03  0.  0.  0.
305  3.04  0.  0.  0.
306  3.05  0.  0.  0.
307  3.06  0.  0.  0.
308  3.07  0.  0.  0.
309  3.08  0.  0.  0.
310  3.09  0.  0.  0.
311  3.10  0.  0.  0.
312  3.11  0.  0.  0.
313  3.12  0.  0.  0.
314  3.13  0.  0.  0.
315  3.14  0.  0.  0.
316  3.15  0.  0.  0.
317  3.16  0.  0.  0.
318  3.17  0.  0.  0.
319  3.18  0.  0.  0.
320  3.19  0.  0.  0.
321  3.20  0.  0.  0.
322  3.21  0.  0.  0.
323  3.22  0.  0.  0.
324  3.23  0.  0.  0.
325  3.24  0.  0.  0.
326  3.25  0.  0.  0.
327  3.26  0.  0.  0.
328  3.27  0.  0.  0.
329  3.28  0.  0.  0.
330  3.29  0.  0.  0.
331  3.30  0.  0.  0.
332  3.31  0.  0.  0.
333  3.32  0.  0.  0.
334  3.33  0.  0.  0.
335  3.34  0.  0.  0.
336  3.35  0.  0.  0.
337  3.36  0.  0.  0.
338  3.37  0.  0.  0.
339  3.38  0.  0.  0.
340  3.39  0.  0.  0.
341  3.40  0.  0.  0.
342  3.41  0.  0.  0.
343  3.42  0.  0.  0.
344  3.43  0.  0.  0.
345  3.44  0.  0.  0.
346  3.45  0.  0.  0.
347  3.46  0.  0.  0.
348  3.47  0.  0.  0.
349  3.48  0.  0.  0.
350  3.49  0.  0.  0.
351  3.50  0.  0.  0.
352  3.51  0.  0.  0.
353  3.52  0.  0.  0.
354  3.53  0.  0.  0.
355  3.54  0.  0.  0.
356  3.55  0.  0.  0.
357  3.56  0.  0.  0.
358  3.57  0.  0.  0.
359  3.58  0.  0.  0.
360  3.59  0.  0.  0.
361  3.60  0.  0.  0.
362  3.61  0.  0.  0.
363  3.62  0.  0.  0.
364  3.63  0.  0.  0.
365  3.64  0.  0.  0.
366  3.65  0.  0.  0.
367  3.66  0.  0.  0.
368  3.67  0.  0.  0.
369  3.68  0.  0.  0.
370  3.69  0.  0.  0.
371  3.70  0.  0.  0.
372  3.71  0.  0.  0.
373  3.72  0.  0.  0.
374  3.73  0.  0.  0.
375  3.74  0.  0.  0.
376  3.75  0.  0.  0.
377  3.76  0.  0.  0.
378  3.77  0.  0.  0.
379  3.78  0.  0.  0.
380  3.79  0.  0.  0.
381  3.80  0.  0.  0.
382  3.81  0.  0.  0.
383  3.82  0.  0.  0.
384  3.83  0.  0.  0.
385  3.84  0.  0.  0.
386  3.85  0.  0.  0.
387  3.86  0.  0.  0.
388  3.87  0.  0.  0.
389  3.88  0.  0.  0.
390  3.89  0.  0.  0.
391  3.90  0.  0.  0.
392  3.91  0.  0.  0.
393  3.92  0.  0.  0.
394  3.93  0.  0.  0.
395  3.94  0.  0.  0.
396  3.95  0.  0.  0.
397  3.96  0.  0.  0.
398  3.97  0.  0.  0.
399  3.98  0.  0.  0.
400  3.99  0.  0.  0.
401  4.00  0.  0.  0.
402  4.01  0.  0.  0.
403  4.02  0.  0.  0.
404  4.03  0.  0.  0.
405  4.04  0.  0.  0.
406  4.05  0.  0.  0.
407  4.06  0.  0.  0.
408  4.07  0.  0.  0.
409  4.08  0.  0.  0.
410  4.09  0.  0.  0.
411  4.10  0.  0.  0.
412  4.11  0.  0.  0.
413  4.12  0.  0.  0.
414  4.13  0.  0.  0.
415  4.14  0.  0.  0.
416  4.15  0.  0.  0.
417  4.16  0.  0.  0.
418  4.17  0.  0.  0.
419  4.18  0.  0.  0.
420  4.19  0.  0.  0.
421  4.20  0.  0.  0.
422  4.21  0.  0.  0.
423  4.22  0.  0.  0.
424  4.23  0.  0.  0.
425  4.24  0.  0.  0.
426  4.25  0.  0.  0.
427  4.26  0.  0.  0.
428  4.27  0.  0.  0.
429  4.28  0.  0.  0.
430  4.29  0.  0.  0.
431  4.30  0.  0.  0.
432  4.31  0.  0.  0.
433  4.32  0.  0.  0.
434  4.33  0.  0.  0.
435  4.34  0.  0.  0.
436  4.35  0.  0.  0.
437  4.36  0.  0.  0.
438  4.37  0.  0.  0.
439  4.38  0.  0.  0.
440  4.39  0.  0.  0.
441  4.40  0.  0.  0.
442  4.41  0.  0.  0.
443  4.42  0.  0.  0.
444  4.43  0.  0.  0.
445  4.44  0.  0.  0.
446  4.45  0.  0.  0.
447  4.46  0.  0.  0.
448  4.47  0.  0.  0.
449  4.48  0.  0.  0.
450  4.49  0.  0.  0.
451  4.50  0.  0.  0.
452  4.51  0.  0.  0.
453  4.52  0.  0.  0.
454  4.53  0.  0.  0.
455  4.54  0.  0.  0.
456  4.55  0.  0.  0.
457  4.56  0.  0.  0.
458  4.57  0.  0.  0.
459  4.58  0.  0.  0.
460  4.59  0.  0.  0.
461  4.60  0.  0.  0.
462  4.61  0.  0.  0.
463  4.62  0.  0.  0.
464  4.63  0.  0.  0.
465  4.64  0.  0.  0.
466  4.65  0.  0.  0.
467  4.66  0.  0.  0.
468  4.67  0.  0.  0.
469  4.68  0.  0.  0.
470  4.69  0.  0.  0.
471  4.70  0.  0.  0.
472  4.71  0.  0.  0.
473  4.72  0.  0.  0.
474  4.73  0.  0.  0.
475  4.74  0.  0.  0.
476  4.75  0.  0.  0.
477  4.76  0.  0.  0.
478  4.77  0.  0.  0.
479  4.78  0.  0.  0.
480  4.79  0.  0.  0.
481  4.80  0.  0.  0.
482  4.81  0.  0.  0.
483  4.82  0.  0.  0.
484  4.83  0.  0.  0.
485  4.84  0.  0.  0.
486  4.85  0.  0.  0.
487  4.86  0.  0.  0.
488  4.87  0.  0.  0.
489  4.88  0.  0.  0.
490  4.89  0.  0.  0.
491  4.90  0.  0.  0.
492  4.91  0.  0.  0.
493  4.92  0.  0.  0.
494  4.93  0.  0.  0.
495  4.94  0.  0.  0.
496  4.95  0.  0.  0.
497  4.96  0.  0.  0.
498  4.97  0.  0.  0.
499  4.98  0.  0.  0.
500  4.99  0.  0.  0.
501  5.00  0.  0.  0.
502  5.01  0.  0.  0.
503  5.02  0.  0.  0.
504  5.03  0.  0.  0.
505  5.04  0.  0.  0.
506  5.05  0.  0.  0.
507  5.06  0.  0.  0.
508  5.07  0.  0.  0.
509  5.08  0.  0.  0.
510  5.09  0.  0.  0.
511  5.10  0.  0.  0.
512  5.11  0.  0.  0.
513  5.12  0.  0.  0.
514  5.13  0.  0.  0.
515  5.14  0.  0.  0.
516  5.15  0.  0.  0.
517  5.16  0.  0.  0.
518  5.17  0.  0.  0.
519  5.18  0.  0.  0.
520  5.19  0.  0.  0.
521  5.20  0.  0.  0.
522  5.21  0.  0.  0.
523  5.22  0.  0.  0.
524  5.23  0.  0.  0.
525  5.24  0.  0.  0.
526  5.25  0.  0.  0.
527  5.26  0.  0.  0.
528  5.27  0.  0.  0.
529  5.28  0.  0.  0.
530  5.29  0.  0.  0.
531  5.30  0.  0.  0.
532  5.31  0.  0.  0.
533  5.32  0.  0.  0.
534  5.33  0.  0.  0.
535  5.34  0.  0.  0.
536  5.35  0.  0.  0.
537  5.36  0.  0.  0.
538  5.37  0.  0.  0.
539  5.38  0.  0.  0.
540  5.39  0.  0.  0.
541  5.40  0.  0.  0.
542  5.41  0.  0.  0.
543  5.42  0.  0.  0.
544  5.43  0.  0.  0.
545  5.44  0.  0.  0.
546  5.45  0.  0.  0.
547  5.46  0.  0.  0.
548  5.47  0.  0.  0.
549  5.48  0.  0.  0.
550  5.49  0.  0.  0.
551  5.50  0.  0.  0.
552  5.51  0.  0.  0.
553  5.52  0.  0.  0.
554  5.53  0.  0.  0.
555  5.54  0.  0.  0.
556  5.55  0.  0.  0.
557  5.56  0.  0.  0.
558  5.57  0.  0.  0.
559  5.58  0.  0.  0.
560  5.59  0.  0.  0.
561  5.60  0.  0.  0.
562  5.61  0.  0.  0.
563  5.62  0.  0.  0.
564  5.63  0.  0.  0.
565  5.64  0.  0.  0.
566  5.65  0.  0.  0.
567  5.66  0.  0.  0.
568  5.67  0.  0.  0.
569  5.68  0.  0.  0.
570  5.69  0.  0.  0.
571  5.70  0.  0.  0.
572  5.71  0.  0.  0.
573  5.72  0.  0.  0.
574  5.73  0.  0.  0.
575  5.74  0.  0.  0.
576  5.75  0.  0.  0.
577  5.76  0.  0.  0.
578  5.77  0.  0.  0.
579  5.78  0.  0.  0.
580  5.79  0.  0.  0.
581  5.80  0.  0.  0.
582  5.81  0.  0.  0.
583  5.82  0.  0.  0.
584  5.83  0.  0.  0.
585  5.84  0.  0.  0.
586  5.85  0.  0.  0.
587  5.86  0.  0.  0.
588  5.87  0.  0.  0.
589  5.88  0.  0.  0.
590  5.89  0.  0.  0.
591  5.90  0.  0.  0.
592  5.91  0.  0.  0.
593  5.92  0.  0.  0.
594  5.93  0.  0.  0.
595  5.94  0.  0.  0.
596  5.95  0.  0.  0.
597  5.96  0.  0.  0.
598  5.97  0.  0.  0.
599  5.98  0.  0.  0.
600  5.99  0.  0.  0.
1                        -1.4127745970104E+01 -1.3820857441697E+00
1  0.0000000000000E+00  5.1466557404733E-09 -1.7020252207622E-08
2  1.0000000000000E-02  3.2714596506141E-03 -3.9472131856937E-03
3  2.0000000000000E-02  1.3059799402115E-02 -1.5735950833914E-02
4  3.0000000000000E-02  2.9287150656722E-02 -3.5208188528530E-02
5  4.0000000000000E-02  5.1824559544814E-02 -6.2102813520442E-02
6  5.0000000000000E-02  8.0493217560198E-02 -9.6058982652469E-02
7  6.0000000000000E-02  1.1506616448200E-01 -1.3662075604290E-01
8  7.0000000000000E-02  1.5527044394490E-01 -1.8324294043933E-01
9  8.0000000000000E-02  2.0078968687274E-01 -2.3529805913400E-01
10  9.0000000000000E-02  2.5126709318209E-01 -2.9208434966169E-01
11  1.0000000000000E-01  3.0630877775571E-01 -3.5283467642596E-01
12  1.1000000000000E-01  3.6548744273912E-01 -4.1672623314126E-01
13  1.2000000000000E-01  4.2834633477695E-01 -4.8289089971930E-01
14  1.3000000000000E-01  4.9440344292142E-01 -5.5042611011886E-01
15  1.4000000000000E-01  5.6315589064824E-01 -6.1840608182717E-01
16  1.5000000000000E-01  6.3408447372868E-01 -6.8589325411869E-01
17  1.6000000000000E-01  7.0665829464749E-01 -7.5194978107065E-01
18  1.7000000000000E-01  7.8033944383006E-01 -8.1564892649111E-01
19  1.8000000000000E-01  8.5458767814560E-01 -8.7608621138084E-01
20  1.9000000000000E-01  9.2886504797333E-01 -9.3239017021231E-01
21  2.0000000000000E-01  1.0026404255349E+00 -9.8373258003787E-01
22  2.1000000000000E-01  1.0753938891772E+00 -1.0293380360733E+00
23  2.2000000000000E-01  1.1466209208008E+00 -1.0684927587479E+00
24  2.3000000000000E-01  1.2158363766195E+00 -1.1005525300537E+00
25  2.4000000000000E-01  1.2825781948649E+00 -1.1249496711168E+00
26  2.5000000000000E-01  1.3464108078496E+00 -1.1411989880127E+00
27  2.6000000000000E-01  1.4069282299193E+00 -1.1489026286681E+00
28  2.7000000000000E-01  1.4637567971985E+00 -1.1477538099799E+00
29  2.8000000000000E-01  1.5165575395843E+00 -1.1375393907559E+00
30  2.9000000000000E-01  1.5650281701268E+00 -1.1181412824693E+00
31  3.0000000000000E-01  1.6089046816615E+00 -1.0895367058711E+00
32  3.1000000000000E-01  1.6479625452777E+00 -1.0517973169652E+00
33  3.2000000000000E-01  1.6820175098537E+00 -1.0050872404979E+00
34  3.3000000000000E-01  1.7109260063967E+00 -9.4966006274133E-01
35  3.4000000000000E-01  1.7345851652433E+00 -8.8585484776935E-01
36  3.5000000000000E-01  1.7529324582521E+00 -8.1409125249763E-01
37  3.6000000000000E-01  1.7659449819063E+00 -7.3486382533940E-01
38  3.7000000000000E-01  1.7736384007010E+00 -6.4873558134165E-01
39  3.8000000000000E-01  1.7760655732831E+00 -5.5633095303656E-01
40  3.9000000000000E-01  1.7733148865183E+00 -4.5832822094283E-01
41  4.0000000000000E-01  1.7655083249494E+00 -3.5545153067990E-01
42  4.1000000000000E-01  1.7527993049818E+00 -2.4846260504021E-01
43  4.2000000000000E-01  1.7353703045678E+00 -1.3815225915822E-01
44  4.3000000000000E-01  1.7134303201667E+00 -2.5331825198257E-02
45  4.4000000000000E-01  1.6872121833408E+00  8.9175410139729E-02
46  4.5000000000000E-01  1.6569697695087E+00  2.0454265640515E-01
47  4.6000000000000E-01  1.6229751311538E+00  3.1994786513494E-01
48  4.7000000000000E-01  1.5855155871750E+00  4.3458168375663E-01
49  4.8000000000000E-01  1.5448907991206E+00  5.4765503825318E-01
50  4.9000000000000E-01  1.5014098637713E+00  6.5840627324148E-01
51  5.0000000000000E-01  1.4553884499895E+00  7.6610778667608E-01
52  5.1000000000000E-01  1.4071460059426E+00  8.7007210528786E-01
53  5.2000000000000E-01  1.3570030607966E+00  9.6965735594449E-01
54  5.3000000000000E-01  1.3052786427827E+00  1.0642720972251E+00
55  5.4000000000000E-01  1.2522878332128E+00  1.1533794844927E+00
56  5.5000000000000E-01  1.1983394735916E+00  1.2365007504985E+00
57  5.6000000000000E-01  1.1437340404854E+00  1.3132179919507E+00
58  5.7000000000000E-01  1.0887617002858E+00  1.3831762604242E+00
59  5.8000000000000E-01  1.0337005534987E+00  1.4460849634109E+00
60  5.9000000000000E-01  9.7881507570950E-01  1.5017185881332E+00
61  6.0000000000000E-01  9.2435475996255E-01  1.5499167669458E+00
62  6.1000000000000E-01  8.7055296297153E-01  1.5905837086836E+00
63  6.2000000000000E-01  8.1762595536291E-01  1.6236870251918E+00
64  6.3000000000000E-01  7.6577217407282E-01  1.6492559864805E+00
65  6.4000000000000E-01  7.1517167307997E-01  1.6673792415280E+00
66  6.5000000000000E-01  6.6598576687759E-01  1.6782020447185E+00
67  6.6000000000000E-01  6.1835685947449E-01  1.6819230303106E+00
68  6.7000000000000E-01  5.7240845027588E-01  1.6787905792241E+00
69  6.8000000000000E-01  5.2824530693119E-01  1.6690988238672E+00
70  6.9000000000000E-01  4.8595379415100E-01  1.6531833377676E+00
71  7.0000000000000E-01  4.4560234658574E-01  1.6314165574645E+00
72  7.1000000000000E-01  4.0724207312228E-01  1.6042029845352E+00
73  7.2000000000000E-01  3.7090747938562E-01  1.5719742158142E+00
74  7.3000000000000E-01  3.3661729482506E-01  1.5351838498642E+00
75  7.4000000000000E-01  3.0437539050941E-01  1.4943023176151E+00
76  7.5000000000000E-01  2.7417177364582E-01  1.4498116848315E+00
77  7.6000000000000E-01  2.4598364486200E-01  1.4022004737198E+00
78  7.7000000000000E-01  2.1977650444232E-01  1.3519585505542E+00
79  7.8000000000000E-01  1.9550529397464E-01  1.2995721256872E+00
80  7.9000000000000E-01  1.7311556023736E-01  1.2455189116998E+00
81  8.0000000000000E-01  1.5254462862375E-01  1.1902634847269E+00
82  8.1000000000000E-01  1.3372277395602E-01  1.1342528931263E+00
83  8.2000000000000E-01  1.1657437717326E-01  1.0779125566175E+00
84  8.3000000000000E-01  1.0101905707766E-01  1.0216424977516E+00
85  8.4000000000000E-01  8.6972767084252E-02  9.6581394604453E-01
86  8.5000000000000E-01  7.4348847731655E-02  9.1076635326349E-01
87  8.6000000000000E-01  6.3059026567891E-02  8.5680485615559E-01
88  8.7000000000000E-01  5.3014357919364E-02  8.0419822030764E-01
89  8.8000000000000E-01  4.4126095974366E-02  7.5317729578584E-01
90  8.9000000000000E-01  3.6306495559132E-02  7.0393401169687E-01
91  9.0000000000000E-01  2.9469535947093E-02  6.5662093281776E-01
92  9.1000000000000E-01  2.3531564014102E-02  6.1135139695132E-01
93  9.2000000000000E-01  1.8411854027311E-02  5.6820024668308E-01
94  9.3000000000000E-01  1.4033082325939E-02  5.2720516376462E-01
95  9.4000000000000E-01  1.0321716111985E-02  4.8836860845922E-01
96  9.5000000000000E-01  7.2083165102716E-03  4.5166035991256E-01
97  9.6000000000000E-01  4.6277569735681E-03  4.1702064701600E-01
98  9.7000000000000E-01  2.5193589919108E-03  3.8436385239468E-01
99  9.8000000000000E-01  8.2694790871528E-04  3.5358276517222E-01
100  9.9000000000000E-01 -5.0116755808225E-04  3.2455335114245E-01
101  1.0000000000000E+00 -1.5122877506796E-03  2.9714000203342E-01
102  1.0100000000000E+00 -2.2494814443054E-03  2.7120121880304E-01
103  1.0200000000000E+00 -2.7518065317273E-03  2.4659567749034E-01
104  1.0300000000000E+00 -3.0545858597726E-03  2.2318862018969E-01
105  1.0400000000000E+00 -3.1897316071965E-03  2.0085850834394E-01
106  1.0500000000000E+00 -3.1861112304767E-03  1.7950387090075E-01
107  1.0600000000000E+00 -3.0699477333958E-03  1.5905027604892E-01
108  1.0700000000000E+00 -2.8652468422434E-03  1.3945735236070E-01
109  1.0800000000000E+00 -2.5942435936302E-03  1.2072578330442E-01
110  1.0900000000000E+00 -2.2778612370445E-03  1.0290420828989E-01
111  1.1000000000000E+00 -1.9361713207441E-03  8.6095850913133E-02
112  1.1100000000000E+00 -1.5887598185124E-03  7.0462386275000E-02
113  1.1200000000000E+00 -1.2534962860544E-03  5.6184562079358E-02
114  1.1300000000000E+00 -9.4466889493736E-04  4.3408018410185E-02
115  1.1400000000000E+00 -6.7283737760801E-04  3.2238217771743E-02
116  1.1500000000000E+00 -4.4564668085623E-04  2.2733060949851E-02
117  1.1600000000000E+00 -2.6913882361178E-04  1.4900198838115E-02
118  1.1700000000000E+00 -1.4235544385879E-04  8.7649567956714E-03
119  1.1800000000000E+00 -6.0776248980394E-05  4.3080379895417E-03
120  1.1900000000000E+00 -1.7035274836869E-05  1.4665418200017E-03
121  1.2000000000000E+00 -1.3020296764659E-06  1.5111009797680E-04
122  1.2100000000000E+00  5.8272881884682E-08 -8.7172721226470E-06
123  1.2200000000000E+00  3.9654420664976E-09 -4.1325826613522E-07
124  1.23 -0. -0.
125  1.24  0.  0.
126  1.25  0.  0.
127  1.26  0.  0.
128  1.27  0.  0.
129  1.28  0.  0.
130  1.29  0.  0.
131  1.30  0.  0.
132  1.31  0.  0.
133  1.32  0.  0.
134  1.33  0.  0.
135  1.34  0.  0.
136  1.35  0.  0.
137  1.36  0.  0.
138  1.37  0.  0.
139  1.38  0.  0.
140  1.39  0.  0.
141  1.40  0.  0.
142  1.41  0.  0.
143  1.42  0.  0.
144  1.43  0.  0.
145  1.44  0.  0.
146  1.45  0.  0.
147  1.46  0.  0.
148  1.47  0.  0.
149  1.48  0.  0.
150  1.49  0.  0.
151  1.50  0.  0.
152  1.51  0.  0.
153  1.52  0.  0.
154  1.53  0.  0.
155  1.54  0.  0.
156  1.55  0.  0.
157  1.56  0.  0.
158  1.57  0.  0.
159  1.58  0.  0.
160  1.59  0.  0.
161  1.60  0.  0.
162  1.61  0.  0.
163  1.62  0.  0.
164  1.63  0.  0.
165  1.64  0.  0.
166  1.65  0.  0.
167  1.66  0.  0.
168  1.67  0.  0.
169  1.68  0.  0.