Rg    ONCVPSP-4.0.1  r_core=   1.10118   1.20456   1.20456   1.15516
111.0000     51.0000      231012    zatom,zion,pspd
8 -116133   3     4   600     0    pspcod,pspxc,lmax,lloc,mmax,r2well
5.99000000  3.50000000  0.00000000    rchrg fchrg qchrg
3     3     2     2    nproj
3     1           extension_switch
3     3     3    nprojso
0                        -1.6726109909854E+01  1.2798956382518E+01 -8.8316290002894E-01
1  0.0000000000000E+00  3.2463931542992E-10  6.3675611450265E-09 -4.7861224747314E-08
2  1.0000000000000E-02  7.9912302438263E-02  2.1077622059637E-01 -7.7994194473323E-03
3  2.0000000000000E-02  1.5964970271735E-01  4.1917329647738E-01 -1.5860618179693E-02
4  3.0000000000000E-02  2.3903743153890E-01  6.2284040724321E-01 -2.4437562532321E-02
5  4.0000000000000E-02  3.1790099161834E-01  8.1948310543189E-01 -3.3768876963890E-02
6  5.0000000000000E-02  3.9606630934647E-01  1.0068908112339E+00 -4.4070869506168E-02
7  6.0000000000000E-02  4.7335990502247E-01  1.1829634704282E+00 -5.5531355307611E-02
8  7.0000000000000E-02  5.4960908748535E-01  1.3457370866239E+00 -6.8304483756128E-02
9  8.0000000000000E-02  6.2464217864578E-01  1.4934078325257E+00 -8.2506726805048E-02
10  9.0000000000000E-02  6.9828877300023E-01  1.6243544395626E+00 -9.8214131100398E-02
11  1.0000000000000E-01  7.7038003668588E-01  1.7371585623122E+00 -1.1546087715037E-01
12  1.1000000000000E-01  8.4074905000165E-01  1.8306228152710E+00 -1.3423912814919E-01
13  1.2000000000000E-01  9.0923119657374E-01  1.9037861861828E+00 -1.5450009229467E-01
14  1.3000000000000E-01  9.7566460147946E-01  1.9559365437416E+00 -1.7615616855498E-01
15  1.4000000000000E-01  1.0398906196645E+00  1.9866199791807E+00 -1.9908399963019E-01
16  1.5000000000000E-01  1.1017543748998E+00  1.9956467518959E+00 -2.2312821970834E-01
17  1.6000000000000E-01  1.1611053483358E+00  1.9830936492633E+00 -2.4810566040250E-01
18  1.7000000000000E-01  1.2177980144434E+00  1.9493026201901E+00 -2.7380976723009E-01
19  1.8000000000000E-01  1.2716925207940E+00  1.8948756001951E+00 -3.0001498171933E-01
20  1.9000000000000E-01  1.3226554067686E+00  1.8206655119574E+00 -3.2648086055137E-01
21  2.0000000000000E-01  1.3705603549065E+00  1.7277634978375E+00 -3.5295573219469E-01
22  2.1000000000000E-01  1.4152889672673E+00  1.6174825179635E+00 -3.7917973171695E-01
23  2.2000000000000E-01  1.4567315579005E+00  1.4913375268202E+00 -4.0488710371619E-01
24  2.3000000000000E-01  1.4947879513498E+00  1.3510225203345E+00 -4.2980771895112E-01
25  2.4000000000000E-01  1.5293682760988E+00  1.1983848214821E+00 -4.5366780925786E-01
26  2.5000000000000E-01  1.5603937410229E+00  1.0353970426848E+00 -4.7618998448931E-01
27  2.6000000000000E-01  1.5877973822978E+00  8.6412722498306E-01 -4.9709265122743E-01
28  2.7000000000000E-01  1.6115247678390E+00  6.8670770464547E-01 -5.1608900273683E-01
29  2.8000000000000E-01  1.6315346462575E+00  5.0530329529360E-01 -5.3288579017108E-01
30  2.9000000000000E-01  1.6477995275049E+00  3.2207939597702E-01 -5.4718211396341E-01
31  3.0000000000000E-01  1.6603061828834E+00  1.3917064165549E-01 -5.5866848974416E-01
32  3.1000000000000E-01  1.6690560528850E+00 -4.1349298466523E-02 -5.6702644381527E-01
33  3.2000000000000E-01  1.6740655524154E+00 -2.1749619741704E-01 -5.7192887869268E-01
34  3.3000000000000E-01  1.6753662643148E+00 -3.8740148901846E-01 -5.7304141981069E-01
35  3.4000000000000E-01  1.6730050136896E+00 -5.4933575568757E-01 -5.7002491123025E-01
36  3.5000000000000E-01  1.6670438173849E+00 -7.0172908592999E-01 -5.6253917292841E-01
37  3.6000000000000E-01  1.6575597048994E+00 -8.4318798633186E-01 -5.5024806742737E-01
38  3.7000000000000E-01  1.6446444091404E+00 -9.7250862540792E-01 -5.3282585217249E-01
39  3.8000000000000E-01  1.6284039275708E+00 -1.0886862842594E+00 -5.0996471961280E-01
40  3.9000000000000E-01  1.6089579564625E+00 -1.1909209882489E+00 -4.8138335305141E-01
41  4.0000000000000E-01  1.5864392030803E+00 -1.2786193913615E+00 -4.4683625676625E-01
42  4.1000000000000E-01  1.5609925826305E+00 -1.3513930772124E+00 -4.0612355729228E-01
43  4.2000000000000E-01  1.5327743086567E+00 -1.4090535246249E+00 -3.5910092245855E-01
44  4.3000000000000E-01  1.5019508872152E+00 -1.4516040585134E+00 -3.0568920868265E-01
45  4.4000000000000E-01  1.4686980265688E+00 -1.4792291661332E+00 -2.4588342742905E-01
46  4.5000000000000E-01  1.4331994752720E+00 -1.4922816028009E+00 -1.7976062020222E-01
47  4.6000000000000E-01  1.3956458023594E+00 -1.4912677388282E+00 -1.0748624870850E-01
48  4.7000000000000E-01  1.3562331338853E+00 -1.4768316101736E+00 -2.9318742757254E-02
49  4.8000000000000E-01  1.3151618602844E+00 -1.4497381294632E+00  5.4388097931018E-02
50  4.9000000000000E-01  1.2726353289537E+00 -1.4108558924944E+00  1.4318508245023E-01
51  5.0000000000000E-01  1.2288585360983E+00 -1.3611399796987E+00  2.3653013987201E-01
52  5.1000000000000E-01  1.1840368312759E+00 -1.3016151044370E+00  3.3379342239827E-01
53  5.2000000000000E-01  1.1383746472417E+00 -1.2333594030631E+00  4.3426496174346E-01
54  5.3000000000000E-01  1.0920742666860E+00 -1.1574890983607E+00  5.3716473995218E-01
55  5.4000000000000E-01  1.0453346363032E+00 -1.0751442014216E+00  6.4165493849848E-01
56  5.5000000000000E-01  9.9835023739023E-01 -9.8747535050470E-01  7.4685403921997E-01
57  5.6000000000000E-01  9.5131002088053E-01 -8.9563182206406E-01  8.5185237156795E-01
58  5.7000000000000E-01  9.0439641342849E-01 -8.0075069185409E-01  9.5572863654678E-01
59  5.8000000000000E-01  8.5778439990184E-01 -7.0394707538501E-01  1.0575668917126E+00
60  5.9000000000000E-01  8.1164068645738E-01 -6.0630533906364E-01  1.1564734560901E+00
61  6.0000000000000E-01  7.6612294729255E-01 -5.0887114761587E-01  1.2515931903568E+00
62  6.1000000000000E-01  7.2137915720510E-01 -4.1264420068665E-01  1.3421246266896E+00
63  6.2000000000000E-01  6.7754701126814E-01 -3.1857151201414E-01  1.4273334638089E+00
64  6.3000000000000E-01  6.3475343224205E-01 -2.2754109774237E-01  1.5065640045438E+00
65  6.4000000000000E-01  5.9311416579513E-01 -1.4037596507865E-01  1.5792481932641E+00
66  6.5000000000000E-01  5.5273346317975E-01 -5.7828326813140E-02  1.6449120055200E+00
67  6.6000000000000E-01  5.1370385069225E-01  1.9425991121089E-02  1.7031790482062E+00
68  6.7000000000000E-01  4.7610598500906E-01  9.0792935586040E-02  1.7537713409698E+00
69  6.8000000000000E-01  4.4000859331158E-01  1.5576534430693E-01  1.7965073635070E+00
70  6.9000000000000E-01  4.0546849695736E-01  2.1392768829515E-01  1.8312975637874E+00
71  7.0000000000000E-01  3.7253071729610E-01  2.6496028903441E-01  1.8581376241278E+00
72  7.1000000000000E-01  3.4122866203591E-01  3.0864282651237E-01  1.8770998707674E+00
73  7.2000000000000E-01  3.1158439031272E-01  3.4485692991065E-01  1.8883232840132E+00
74  7.3000000000000E-01  2.8360895428290E-01  3.7358763063740E-01  1.8920026167485E+00
75  7.4000000000000E-01  2.5730281463112E-01  3.9492345889730E-01  1.8883771565825E+00
76  7.5000000000000E-01  2.3265632685358E-01  4.0905498095756E-01  1.8777196696944E+00
77  7.6000000000000E-01  2.0965029454322E-01  4.1627160476096E-01  1.8603260420857E+00
78  7.7000000000000E-01  1.8825658517450E-01  4.1695652586748E-01  1.8365060872734E+00
79  7.8000000000000E-01  1.6843880307973E-01  4.1157974243001E-01  1.8065759203251E+00
80  7.9000000000000E-01  1.5015301344934E-01  4.0068913487174E-01  1.7708522095202E+00
81  8.0000000000000E-01  1.3334851030689E-01  3.8489968036576E-01  1.7296485127410E+00
82  8.1000000000000E-01  1.1796862054228E-01  3.6488095081817E-01  1.6832737906678E+00
83  8.2000000000000E-01  1.0395153527312E-01  3.4134312217812E-01  1.6320330682990E+00
84  8.3000000000000E-01  9.1231159087501E-02  3.1502179866695E-01  1.5762300959028E+00
85  8.4000000000000E-01  7.9737967142076E-02  2.8666202403637E-01  1.5161717460601E+00
86  8.5000000000000E-01  6.9399859688230E-02  2.5700190948540E-01  1.4521737806080E+00
87  8.6000000000000E-01  6.0143003409905E-02  2.2675635097063E-01  1.3845675353150E+00
88  8.7000000000000E-01  5.1892649009069E-02  1.9660133442546E-01  1.3137070056088E+00
89  8.8000000000000E-01  4.4573914788734E-02  1.6715933360730E-01  1.2399757773593E+00
90  8.9000000000000E-01  3.8112526570087E-02  1.3898629044889E-01  1.1637932352827E+00
91  9.0000000000000E-01  3.2435505139796E-02  1.1256063131882E-01  1.0856194994142E+00
92  9.1000000000000E-01  2.7471793545134E-02  8.8274714843160E-02  1.0059585874939E+00
93  9.2000000000000E-01  2.3152817915735E-02  6.6429029224119E-02  9.2535937682463E-01
94  9.3000000000000E-01  1.9412977058607E-02  4.7229361545545E-02  8.4441404073429E-01
95  9.4000000000000E-01  1.6190057803956E-02  3.0787051493035E-02  7.6375375848390E-01
96  9.5000000000000E-01  1.3425574921704E-02  1.7122321109593E-02  6.8404163848421E-01
97  9.6000000000000E-01  1.1065036324042E-02  6.1705450916808E-03  6.0596294736950E-01
98  9.7000000000000E-01  9.0581361539309E-03 -2.2088023275762E-03  5.3021289536654E-01
99  9.8000000000000E-01  7.3588801688996E-03 -8.2209125831798E-03  4.5748238480348E-01
100  9.9000000000000E-01  5.9256494977675E-03 -1.2122624494695E-02  3.8844227653863E-01
101  1.0000000000000E+00  4.7212103151803E-03 -1.4208228845467E-02  3.2372686201162E-01
102  1.0100000000000E+00  3.7126781878994E-03 -1.4794785634970E-02  2.6391734018270E-01
103  1.0200000000000E+00  2.8714467511382E-03 -1.4207704956896E-02  2.0952618348650E-01
104  1.0300000000000E+00  2.1730923984271E-03 -1.2767390900632E-02  1.6098333942383E-01
105  1.0400000000000E+00  1.5972547443688E-03 -1.0777607264271E-02  1.1862512451304E-01
106  1.0500000000000E+00  1.1262739087273E-03 -8.5059295859267E-03  8.2679653312436E-02
107  1.0600000000000E+00  7.3832096469050E-04 -6.1084185250016E-03  5.3214217178238E-02
108  1.0700000000000E+00  4.2972442136349E-04 -3.8278628769439E-03  3.0275127356092E-02
109  1.0800000000000E+00  2.0185242578015E-04 -1.9096546334924E-03  1.3842120791015E-02
110  1.0900000000000E+00  5.7219776793396E-05 -5.6879531429300E-04  3.8043575421604E-03
111  1.1000000000000E+00  1.4069424307965E-06 -1.4601601732413E-05  8.9535808661731E-05
112  1.1100000000000E+00  2.8120602725768E-07 -2.9115043721907E-06  1.8187539058056E-05
113  1.1200000000000E+00 -2.4885584516732E-08  2.5288575270221E-07 -1.6343025622465E-06
114  1.13  0.  0.  0.
115  1.14  0.  0.  0.
116  1.15  0.  0.  0.
117  1.16  0.  0.  0.
118  1.17  0.  0.  0.
119  1.18  0.  0.  0.
120  1.19  0.  0.  0.
121  1.20  0.  0.  0.
122  1.21  0.  0.  0.
123  1.22  0.  0.  0.
124  1.23  0.  0.  0.
125  1.24  0.  0.  0.
126  1.25  0.  0.  0.
127  1.26  0.  0.  0.
128  1.27  0.  0.  0.
129  1.28  0.  0.  0.
130  1.29  0.  0.  0.
131  1.30  0.  0.  0.
132  1.31  0.  0.  0.
133  1.32  0.  0.  0.
134  1.33  0.  0.  0.
135  1.34  0.  0.  0.
136  1.35  0.  0.  0.
137  1.36  0.  0.  0.
138  1.37  0.  0.  0.
139  1.38  0.  0.  0.
140  1.39  0.  0.  0.
141  1.40  0.  0.  0.
142  1.41  0.  0.  0.
143  1.42  0.  0.  0.
144  1.43  0.  0.  0.
145  1.44  0.  0.  0.
146  1.45  0.  0.  0.
147  1.46  0.  0.  0.
148  1.47  0.  0.  0.
149  1.48  0.  0.  0.
150  1.49  0.  0.  0.
151  1.50  0.  0.  0.
152  1.51  0.  0.  0.
153  1.52  0.  0.  0.
154  1.53  0.  0.  0.
155  1.54  0.  0.  0.
156  1.55  0.  0.  0.
157  1.56  0.  0.  0.
158  1.57  0.  0.  0.
159  1.58  0.  0.  0.
160  1.59  0.  0.  0.
161  1.60  0.  0.  0.
162  1.61  0.  0.  0.
163  1.62  0.  0.  0.
164  1.63  0.  0.  0.
165  1.64  0.  0.  0.
166  1.65  0.  0.  0.
167  1.66  0.  0.  0.
168  1.67  0.  0.  0.
169  1.68  0.  0.  0.
170  1.69  0.  0.  0.
171  1.70  0.  0.  0.
172  1.71  0.  0.  0.
173  1.72  0.  0.  0.
174  1.73  0.  0.  0.
175  1.74  0.  0.  0.
176  1.75  0.  0.  0.
177  1.76  0.  0.  0.
178  1.77  0.  0.  0.
179  1.78  0.  0.  0.
180  1.79  0.  0.  0.
181  1.80  0.  0.  0.
182  1.81  0.  0.  0.
183  1.82  0.  0.  0.
184  1.83  0.  0.  0.
185  1.84  0.  0.  0.
186  1.85  0.  0.  0.
187  1.86  0.  0.  0.
188  1.87  0.  0.  0.
189  1.88  0.  0.  0.
190  1.89  0.  0.  0.
191  1.90  0.  0.  0.
192  1.91  0.  0.  0.
193  1.92  0.  0.  0.
194  1.93  0.  0.  0.
195  1.94  0.  0.  0.
196  1.95  0.  0.  0.
197  1.96  0.  0.  0.
198  1.97  0.  0.  0.
199  1.98  0.  0.  0.
200  1.99  0.  0.  0.
201  2.00  0.  0.  0.
202  2.01  0.  0.  0.
203  2.02  0.  0.  0.
204  2.03  0.  0.  0.
205  2.04  0.  0.  0.
206  2.05  0.  0.  0.
207  2.06  0.  0.  0.
208  2.07  0.  0.  0.
209  2.08  0.  0.  0.
210  2.09  0.  0.  0.
211  2.10  0.  0.  0.
212  2.11  0.  0.  0.
213  2.12  0.  0.  0.
214  2.13  0.  0.  0.
215  2.14  0.  0.  0.
216  2.15  0.  0.  0.
217  2.16  0.  0.  0.
218  2.17  0.  0.  0.
219  2.18  0.  0.  0.
220  2.19  0.  0.  0.
221  2.20  0.  0.  0.
222  2.21  0.  0.  0.
223  2.22  0.  0.  0.
224  2.23  0.  0.  0.
225  2.24  0.  0.  0.
226  2.25  0.  0.  0.
227  2.26  0.  0.  0.
228  2.27  0.  0.  0.
229  2.28  0.  0.  0.
230  2.29  0.  0.  0.
231  2.30  0.  0.  0.
232  2.31  0.  0.  0.
233  2.32  0.  0.  0.
234  2.33  0.  0.  0.
235  2.34  0.  0.  0.
236  2.35  0.  0.  0.
237  2.36  0.  0.  0.
238  2.37  0.  0.  0.
239  2.38  0.  0.  0.
240  2.39  0.  0.  0.
241  2.40  0.  0.  0.
242  2.41  0.  0.  0.
243  2.42  0.  0.  0.
244  2.43  0.  0.  0.
245  2.44  0.  0.  0.
246  2.45  0.  0.  0.
247  2.46  0.  0.  0.
248  2.47  0.  0.  0.
249  2.48  0.  0.  0.
250  2.49  0.  0.  0.
251  2.50  0.  0.  0.
252  2.51  0.  0.  0.
253  2.52  0.  0.  0.
254  2.53  0.  0.  0.
255  2.54  0.  0.  0.
256  2.55  0.  0.  0.
257  2.56  0.  0.  0.
258  2.57  0.  0.  0.
259  2.58  0.  0.  0.
260  2.59  0.  0.  0.
261  2.60  0.  0.  0.
262  2.61  0.  0.  0.
263  2.62  0.  0.  0.
264  2.63  0.  0.  0.
265  2.64  0.  0.  0.
266  2.65  0.  0.  0.
267  2.66  0.  0.  0.
268  2.67  0.  0.  0.
269  2.68  0.  0.  0.
270  2.69  0.  0.  0.
271  2.70  0.  0.  0.
272  2.71  0.  0.  0.
273  2.72  0.  0.  0.
274  2.73  0.  0.  0.
275  2.74  0.  0.  0.
276  2.75  0.  0.  0.
277  2.76  0.  0.  0.
278  2.77  0.  0.  0.
279  2.78  0.  0.  0.
280  2.79  0.  0.  0.
281  2.80  0.  0.  0.
282  2.81  0.  0.  0.
283  2.82  0.  0.  0.
284  2.83  0.  0.  0.
285  2.84  0.  0.  0.
286  2.85  0.  0.  0.
287  2.86  0.  0.  0.
288  2.87  0.  0.  0.
289  2.88  0.  0.  0.
290  2.89  0.  0.  0.
291  2.90  0.  0.  0.
292  2.91  0.  0.  0.
293  2.92  0.  0.  0.
294  2.93  0.  0.  0.
295  2.94  0.  0.  0.
296  2.95  0.  0.  0.
297  2.96  0.  0.  0.
298  2.97  0.  0.  0.
299  2.98  0.  0.  0.
300  2.99  0.  0.  0.
301  3.00  0.  0.  0.
302  3.01  0.  0.  0.
303  3.02  0.  0.  0.
304  3.03  0.  0.  0.
305  3.04  0.  0.  0.
306  3.05  0.  0.  0.
307  3.06  0.  0.  0.
308  3.07  0.  0.  0.
309  3.08  0.  0.  0.
310  3.09  0.  0.  0.
311  3.10  0.  0.  0.
312  3.11  0.  0.  0.
313  3.12  0.  0.  0.
314  3.13  0.  0.  0.
315  3.14  0.  0.  0.
316  3.15  0.  0.  0.
317  3.16  0.  0.  0.
318  3.17  0.  0.  0.
319  3.18  0.  0.  0.
320  3.19  0.  0.  0.
321  3.20  0.  0.  0.
322  3.21  0.  0.  0.
323  3.22  0.  0.  0.
324  3.23  0.  0.  0.
325  3.24  0.  0.  0.
326  3.25  0.  0.  0.
327  3.26  0.  0.  0.
328  3.27  0.  0.  0.
329  3.28  0.  0.  0.
330  3.29  0.  0.  0.
331  3.30  0.  0.  0.
332  3.31  0.  0.  0.
333  3.32  0.  0.  0.
334  3.33  0.  0.  0.
335  3.34  0.  0.  0.
336  3.35  0.  0.  0.
337  3.36  0.  0.  0.
338  3.37  0.  0.  0.
339  3.38  0.  0.  0.
340  3.39  0.  0.  0.
341  3.40  0.  0.  0.
342  3.41  0.  0.  0.
343  3.42  0.  0.  0.
344  3.43  0.  0.  0.
345  3.44  0.  0.  0.
346  3.45  0.  0.  0.
347  3.46  0.  0.  0.
348  3.47  0.  0.  0.
349  3.48  0.  0.  0.
350  3.49  0.  0.  0.
351  3.50  0.  0.  0.
352  3.51  0.  0.  0.
353  3.52  0.  0.  0.
354  3.53  0.  0.  0.
355  3.54  0.  0.  0.
356  3.55  0.  0.  0.
357  3.56  0.  0.  0.
358  3.57  0.  0.  0.
359  3.58  0.  0.  0.
360  3.59  0.  0.  0.
361  3.60  0.  0.  0.
362  3.61  0.  0.  0.
363  3.62  0.  0.  0.
364  3.63  0.  0.  0.
365  3.64  0.  0.  0.
366  3.65  0.  0.  0.
367  3.66  0.  0.  0.
368  3.67  0.  0.  0.
369  3.68  0.  0.  0.
370  3.69  0.  0.  0.
371  3.70  0.  0.  0.
372  3.71  0.  0.  0.
373  3.72  0.  0.  0.
374  3.73  0.  0.  0.
375  3.74  0.  0.  0.
376  3.75  0.  0.  0.
377  3.76  0.  0.  0.
378  3.77  0.  0.  0.
379  3.78  0.  0.  0.
380  3.79  0.  0.  0.
381  3.80  0.  0.  0.
382  3.81  0.  0.  0.
383  3.82  0.  0.  0.
384  3.83  0.  0.  0.
385  3.84  0.  0.  0.
386  3.85  0.  0.  0.
387  3.86  0.  0.  0.
388  3.87  0.  0.  0.
389  3.88  0.  0.  0.
390  3.89  0.  0.  0.
391  3.90  0.  0.  0.
392  3.91  0.  0.  0.
393  3.92  0.  0.  0.
394  3.93  0.  0.  0.
395  3.94  0.  0.  0.
396  3.95  0.  0.  0.
397  3.96  0.  0.  0.
398  3.97  0.  0.  0.
399  3.98  0.  0.  0.
400  3.99  0.  0.  0.
401  4.00  0.  0.  0.
402  4.01  0.  0.  0.
403  4.02  0.  0.  0.
404  4.03  0.  0.  0.
405  4.04  0.  0.  0.
406  4.05  0.  0.  0.
407  4.06  0.  0.  0.
408  4.07  0.  0.  0.
409  4.08  0.  0.  0.
410  4.09  0.  0.  0.
411  4.10  0.  0.  0.
412  4.11  0.  0.  0.
413  4.12  0.  0.  0.
414  4.13  0.  0.  0.
415  4.14  0.  0.  0.
416  4.15  0.  0.  0.
417  4.16  0.  0.  0.
418  4.17  0.  0.  0.
419  4.18  0.  0.  0.
420  4.19  0.  0.  0.
421  4.20  0.  0.  0.
422  4.21  0.  0.  0.
423  4.22  0.  0.  0.
424  4.23  0.  0.  0.
425  4.24  0.  0.  0.
426  4.25  0.  0.  0.
427  4.26  0.  0.  0.
428  4.27  0.  0.  0.
429  4.28  0.  0.  0.
430  4.29  0.  0.  0.
431  4.30  0.  0.  0.
432  4.31  0.  0.  0.
433  4.32  0.  0.  0.
434  4.33  0.  0.  0.
435  4.34  0.  0.  0.
436  4.35  0.  0.  0.
437  4.36  0.  0.  0.
438  4.37  0.  0.  0.
439  4.38  0.  0.  0.
440  4.39  0.  0.  0.
441  4.40  0.  0.  0.
442  4.41  0.  0.  0.
443  4.42  0.  0.  0.
444  4.43  0.  0.  0.
445  4.44  0.  0.  0.
446  4.45  0.  0.  0.
447  4.46  0.  0.  0.
448  4.47  0.  0.  0.
449  4.48  0.  0.  0.
450  4.49  0.  0.  0.
451  4.50  0.  0.  0.
452  4.51  0.  0.  0.
453  4.52  0.  0.  0.
454  4.53  0.  0.  0.
455  4.54  0.  0.  0.
456  4.55  0.  0.  0.
457  4.56  0.  0.  0.
458  4.57  0.  0.  0.
459  4.58  0.  0.  0.
460  4.59  0.  0.  0.
461  4.60  0.  0.  0.
462  4.61  0.  0.  0.
463  4.62  0.  0.  0.
464  4.63  0.  0.  0.
465  4.64  0.  0.  0.
466  4.65  0.  0.  0.
467  4.66  0.  0.  0.
468  4.67  0.  0.  0.
469  4.68  0.  0.  0.
470  4.69  0.  0.  0.
471  4.70  0.  0.  0.
472  4.71  0.  0.  0.
473  4.72  0.  0.  0.
474  4.73  0.  0.  0.
475  4.74  0.  0.  0.
476  4.75  0.  0.  0.
477  4.76  0.  0.  0.
478  4.77  0.  0.  0.
479  4.78  0.  0.  0.
480  4.79  0.  0.  0.
481  4.80  0.  0.  0.
482  4.81  0.  0.  0.
483  4.82  0.  0.  0.
484  4.83  0.  0.  0.
485  4.84  0.  0.  0.
486  4.85  0.  0.  0.
487  4.86  0.  0.  0.
488  4.87  0.  0.  0.
489  4.88  0.  0.  0.
490  4.89  0.  0.  0.
491  4.90  0.  0.  0.
492  4.91  0.  0.  0.
493  4.92  0.  0.  0.
494  4.93  0.  0.  0.
495  4.94  0.  0.  0.
496  4.95  0.  0.  0.
497  4.96  0.  0.  0.
498  4.97  0.  0.  0.
499  4.98  0.  0.  0.
500  4.99  0.  0.  0.
501  5.00  0.  0.  0.
502  5.01  0.  0.  0.
503  5.02  0.  0.  0.
504  5.03  0.  0.  0.
505  5.04  0.  0.  0.
506  5.05  0.  0.  0.
507  5.06  0.  0.  0.
508  5.07  0.  0.  0.
509  5.08  0.  0.  0.
510  5.09  0.  0.  0.
511  5.10  0.  0.  0.
512  5.11  0.  0.  0.
513  5.12  0.  0.  0.
514  5.13  0.  0.  0.
515  5.14  0.  0.  0.
516  5.15  0.  0.  0.
517  5.16  0.  0.  0.
518  5.17  0.  0.  0.
519  5.18  0.  0.  0.
520  5.19  0.  0.  0.
521  5.20  0.  0.  0.
522  5.21  0.  0.  0.
523  5.22  0.  0.  0.
524  5.23  0.  0.  0.
525  5.24  0.  0.  0.
526  5.25  0.  0.  0.
527  5.26  0.  0.  0.
528  5.27  0.  0.  0.
529  5.28  0.  0.  0.
530  5.29  0.  0.  0.
531  5.30  0.  0.  0.
532  5.31  0.  0.  0.
533  5.32  0.  0.  0.
534  5.33  0.  0.  0.
535  5.34  0.  0.  0.
536  5.35  0.  0.  0.
537  5.36  0.  0.  0.
538  5.37  0.  0.  0.
539  5.38  0.  0.  0.
540  5.39  0.  0.  0.
541  5.40  0.  0.  0.
542  5.41  0.  0.  0.
543  5.42  0.  0.  0.
544  5.43  0.  0.  0.
545  5.44  0.  0.  0.
546  5.45  0.  0.  0.
547  5.46  0.  0.  0.
548  5.47  0.  0.  0.
549  5.48  0.  0.  0.
550  5.49  0.  0.  0.
551  5.50  0.  0.  0.
552  5.51  0.  0.  0.
553  5.52  0.  0.  0.
554  5.53  0.  0.  0.
555  5.54  0.  0.  0.
556  5.55  0.  0.  0.
557  5.56  0.  0.  0.
558  5.57  0.  0.  0.
559  5.58  0.  0.  0.
560  5.59  0.  0.  0.
561  5.60  0.  0.  0.
562  5.61  0.  0.  0.
563  5.62  0.  0.  0.
564  5.63  0.  0.  0.
565  5.64  0.  0.  0.
566  5.65  0.  0.  0.
567  5.66  0.  0.  0.
568  5.67  0.  0.  0.
569  5.68  0.  0.  0.
570  5.69  0.  0.  0.
571  5.70  0.  0.  0.
572  5.71  0.  0.  0.
573  5.72  0.  0.  0.
574  5.73  0.  0.  0.
575  5.74  0.  0.  0.
576  5.75  0.  0.  0.
577  5.76  0.  0.  0.
578  5.77  0.  0.  0.
579  5.78  0.  0.  0.
580  5.79  0.  0.  0.
581  5.80  0.  0.  0.
582  5.81  0.  0.  0.
583  5.82  0.  0.  0.
584  5.83  0.  0.  0.
585  5.84  0.  0.  0.
586  5.85  0.  0.  0.
587  5.86  0.  0.  0.
588  5.87  0.  0.  0.
589  5.88  0.  0.  0.
590  5.89  0.  0.  0.
591  5.90  0.  0.  0.
592  5.91  0.  0.  0.
593  5.92  0.  0.  0.
594  5.93  0.  0.  0.
595  5.94  0.  0.  0.
596  5.95  0.  0.  0.
597  5.96  0.  0.  0.
598  5.97  0.  0.  0.
599  5.98  0.  0.  0.
600  5.99  0.  0.  0.
1                        -1.4996456466239E+01 -2.1517392185198E+00 -8.8598523845988E-02
1  0.0000000000000E+00  5.4853434017232E-09 -2.1305141428840E-08  2.9308562826680E-08
2  1.0000000000000E-02  3.3587289775787E-03 -4.5198772854449E-03  4.0093228748509E-03
3  2.0000000000000E-02  1.3407713276568E-02 -1.8016167231497E-02  1.5966433035456E-02
4  3.0000000000000E-02  3.0065608441320E-02 -4.0299687303995E-02  3.5659858094619E-02
5  4.0000000000000E-02  5.3197715455809E-02 -7.1057931754606E-02  6.2740804247352E-02
6  5.0000000000000E-02  8.2617282637713E-02 -1.0985922689775E-01  9.6728588985554E-02
7  6.0000000000000E-02  1.1808730700015E-01 -1.5615846432583E-01  1.3701813265189E-01
8  7.0000000000000E-02  1.5932281414330E-01 -2.0930432951004E-01  1.8288939654446E-01
9  8.0000000000000E-02  2.0599359025267E-01 -2.6854792192871E-01  2.3351862597511E-01
10  9.0000000000000E-02  2.5772733465729E-01 -3.3305264321549E-01  2.8799122940635E-01
11  1.0000000000000E-01  3.1411319670735E-01 -4.0190521213174E-01  3.4531609994801E-01
12  1.1000000000000E-01  3.7470565652920E-01 -4.7412764971441E-01  4.0444116345492E-01
13  1.2000000000000E-01  4.3902870556016E-01 -5.4869006496592E-01  4.6426991856175E-01
14  1.3000000000000E-01  5.0658027970029E-01 -6.2452406112485E-01  5.2367871852075E-01
15  1.4000000000000E-01  5.7683689548181E-01 -7.0053657503141E-01  5.8153453291251E-01
16  1.5000000000000E-01  6.4925843787321E-01 -7.7562395747342E-01  6.3671291938563E-01
17  1.6000000000000E-01  7.2329304722277E-01 -8.4868610071369E-01  6.8811593168740E-01
18  1.7000000000000E-01  7.9838205241049E-01 -9.1864042065408E-01  7.3468969046648E-01
19  1.8000000000000E-01  8.7396489751526E-01 -9.8443550523115E-01  7.7544134768591E-01
20  1.9000000000000E-01  9.4948401020173E-01 -1.0450642475622E+00  8.0945518395241E-01
21  2.0000000000000E-01  1.0243895615656E+00 -1.0995762919219E+00  8.3590759054645E-01
22  2.1000000000000E-01  1.0981440693153E+00 -1.1470896326397E+00  8.5408070427435E-01
23  2.2000000000000E-01  1.1702267988701E+00 -1.1868012202390E+00  8.6337448323675E-01
24  2.3000000000000E-01  1.2401379201771E+00 -1.2179964453292E+00  8.6331703494198E-01
25  2.4000000000000E-01  1.3074023817264E+00 -1.2400573886265E+00  8.5357303455014E-01
26  2.5000000000000E-01  1.3715734673312E+00 -1.2524697446966E+00  8.3395010003039E-01
27  2.6000000000000E-01  1.4322360056562E+00 -1.2548283472639E+00  8.0440302221155E-01
28  2.7000000000000E-01  1.4890092071669E+00 -1.2468412448727E+00  7.6503578063135E-01
29  2.8000000000000E-01  1.5415491080601E+00 -1.2283322969669E+00  7.1610131023078E-01
30  2.9000000000000E-01  1.5895506057475E+00 -1.1992422817454E+00  6.5799901876221E-01
31  3.0000000000000E-01  1.6327490755368E+00 -1.1596285281020E+00  5.9127008972505E-01
32  3.1000000000000E-01  1.6709215632049E+00 -1.1096631042591E+00  5.1659064015657E-01
33  3.2000000000000E-01  1.7038875531353E+00 -1.0496296150492E+00  4.3476283611555E-01
34  3.3000000000000E-01  1.7315093165123E+00 -9.7991867790382E-01  3.4670410066419E-01
35  3.4000000000000E-01  1.7536918486870E+00 -9.0102216423005E-01  2.5343457904196E-01
36  3.5000000000000E-01  1.7703824091828E+00 -8.1352630777339E-01  1.5606305303732E-01
37  3.6000000000000E-01  1.7815696818543E+00 -7.1810379458639E-01  5.5771520842770E-02
38  3.7000000000000E-01  1.7872825763994E+00 -6.1550496021407E-01 -4.6201320489921E-02
39  3.8000000000000E-01  1.7875886957248E+00 -5.0654822854703E-01 -1.4857743584505E-01
40  3.9000000000000E-01  1.7825924965374E+00 -3.9210993341963E-01 -2.5005738900244E-01
41  4.0000000000000E-01  1.7724331729702E+00 -2.7311366841026E-01 -3.4933858005240E-01
42  4.1000000000000E-01  1.7572822950233E+00 -1.5051931244069E-01 -4.4513350340583E-01
43  4.2000000000000E-01  1.7373412351141E+00 -2.5311878719027E-02 -5.3618774693024E-01
44  4.3000000000000E-01  1.7128384170708E+00  1.0150966759831E-01 -6.2129745767509E-01
45  4.4000000000000E-01  1.6840264224919E+00  2.2894348182121E-01 -6.9932600904545E-01
46  4.5000000000000E-01  1.6511789895301E+00  3.5599566704847E-01 -7.6921961798293E-01
47  4.6000000000000E-01  1.6145879388699E+00  4.8169072896294E-01 -8.3002167848975E-01
48  4.7000000000000E-01  1.5745600609746E+00  6.0508153990999E-01 -8.8088559938417E-01
49  4.8000000000000E-01  1.5314139976072E+00  7.2525870462426E-01 -9.2108595913991E-01
50  4.9000000000000E-01  1.4854771492161E+00  8.4135923161848E-01 -9.5002781861591E-01
51  5.0000000000000E-01  1.4370826380570E+00  9.5257442676544E-01 -9.6725406295418E-01
52  5.1000000000000E-01  1.3865663549272E+00  1.0581569387651E+00 -9.7245067639498E-01
53  5.2000000000000E-01  1.3342641151712E+00  1.1574268997639E+00 -9.6544988768515E-01
54  5.3000000000000E-01  1.2805089472014E+00  1.2497771181635E+00 -9.4623115855966E-01
55  5.4000000000000E-01  1.2256285342233E+00  1.3346772944039E+00 -9.1492002287844E-01
56  5.5000000000000E-01  1.1699428271821E+00  1.4116772440321E+00 -8.7178481880130E-01
57  5.6000000000000E-01  1.1137618442207E+00  1.4804091254846E+00 -8.1723139030750E-01
58  5.7000000000000E-01  1.0573836691682E+00  1.5405886825457E+00 -7.5179586683452E-01
59  5.8000000000000E-01  1.0010926588266E+00  1.5920155232507E+00 -6.7613566028828E-01
60  5.9000000000000E-01  9.4515786610382E-01  1.6345724679455E+00 -5.9101884664419E-01
61  6.0000000000000E-01  8.8983168339745E-01  1.6682240091919E+00 -4.9731212435500E-01
62  6.1000000000000E-01  8.3534870808804E-01  1.6930139351238E+00 -3.9596756338428E-01
63  6.2000000000000E-01  7.8192482957790E-01  1.7090621756710E+00 -2.8800837653334E-01
64  6.3000000000000E-01  7.2975653503543E-01  1.7165609377054E+00 -1.7451395852404E-01
65  6.4000000000000E-01  6.7902042889035E-01  1.7157702006369E+00 -5.6604447810859E-02
66  6.5000000000000E-01  6.2987295918770E-01  1.7070126482766E+00  6.4574928843403E-02
67  6.6000000000000E-01  5.8245034215880E-01  1.6906681159174E+00  1.8786946846457E-01
68  6.7000000000000E-01  5.3686867481303E-01  1.6671676335927E+00  3.1213030409177E-01
69  6.8000000000000E-01  4.9322422399947E-01  1.6369871474152E+00  4.3622916908606E-01
70  6.9000000000000E-01  4.5159387923408E-01  1.6006410008271E+00  5.5907237832408E-01
71  7.0000000000000E-01  4.1203575563555E-01  1.5586752565891E+00  6.7961380805450E-01
72  7.1000000000000E-01  3.7458993255677E-01  1.5116609384790E+00  7.9686667702224E-01
73  7.2000000000000E-01  3.3927931293536E-01  1.4601872690440E+00  9.0991395579173E-01
74  7.3000000000000E-01  3.0611058800683E-01  1.4048549764481E+00  1.0179172586183E+00
75  7.4000000000000E-01  2.7507529182086E-01  1.3462697395706E+00  1.1201241022624E+00
76  7.5000000000000E-01  2.4615092996375E-01  1.2850358361284E+00  1.2158734482947E+00
77  7.6000000000000E-01  2.1930216700816E-01  1.2217500538040E+00  1.3045994791615E+00
78  7.7000000000000E-01  1.9448205747354E-01  1.1569959192573E+00  1.3858335929690E+00
79  7.8000000000000E-01  1.7163330547494E-01  1.0913382945412E+00  1.4592046370090E+00
80  7.9000000000000E-01  1.5068953875222E-01  1.0253183849268E+00  1.5244374348624E+00
81  8.0000000000000E-01  1.3157658339401E-01  9.5944919651846E-01  1.5813496958645E+00
82  8.1000000000000E-01  1.1421372628929E-01  8.9421147637905E-01  1.6298474281828E+00
83  8.2000000000000E-01  9.8514953141163E-02  8.3005016223125E-01  1.6699190071588E+00
84  8.3000000000000E-01  8.4390150752760E-02  7.6737136320266E-01  1.7016280783392E+00
85  8.4000000000000E-01  7.1746263230737E-02  7.0653988757913E-01  1.7251054992454E+00
86  8.5000000000000E-01  6.0488392738611E-02  6.4787732814929E-01  1.7405405449423E+00
87  8.6000000000000E-01  5.0520836458601E-02  5.9166071049347E-01  1.7481716194609E+00
88  8.7000000000000E-01  4.1748052477384E-02  5.3812170450994E-01  1.7482767277598E+00
89  8.8000000000000E-01  3.4075548388405E-02  4.8744639459688E-01  1.7411639709208E+00
90  8.9000000000000E-01  2.7410687491931E-02  4.3977559923421E-01  1.7271623304929E+00
91  9.0000000000000E-01  2.1663408565202E-02  3.9520572624280E-01  1.7066130062128E+00
92  9.1000000000000E-01  1.6746856260065E-02  3.5379014575088E-01  1.6798615647654E+00
93  9.2000000000000E-01  1.2577920256338E-02  3.1554105887531E-01  1.6472511458740E+00
94  9.3000000000000E-01  9.0776823478061E-03  2.8043183633746E-01  1.6091169560197E+00
95  9.4000000000000E-01  6.1717716562984E-03  2.4839979768824E-01  1.5657822597548E+00
96  9.5000000000000E-01  3.7906291505020E-03  2.1934939852540E-01  1.5175560542544E+00
97  9.6000000000000E-01  1.8696835825357E-03  1.9315579005938E-01  1.4647325848791E+00
98  9.7000000000000E-01  3.4944183985698E-04  1.6966871263578E-01  1.4075928286152E+00
99  9.8000000000000E-01 -8.2450246389390E-04  1.4871668236993E-01  1.3464080388902E+00
100  9.9000000000000E-01 -1.7015375746698E-03  1.3011142790648E-01  1.2814454100639E+00
101  1.0000000000000E+00 -2.3261740860096E-03  1.1365253250724E-01  1.2129758835246E+00
102  1.0100000000000E+00 -2.7382514417478E-03  9.9132235209440E-02  1.1412840804775E+00