Lv    ONCVPSP-4.0.1  r_core=   1.40419   1.35469   1.30693   1.50870
116.0000     24.0000      231012    zatom,zion,pspd
8   -1012   3     4   600     0    pspcod,pspxc,lmax,lloc,mmax,r2well
5.99000000  5.00000000  0.00000000    rchrg fchrg qchrg
2     2     2     1     0    nproj
1     1           extension_switch
0                         2.0128043966919E+01  2.7217147496723E+00
1  0.0000000000000E+00  1.3689401279215E-09 -4.0540366758046E-09
2  1.0000000000000E-02  5.8366519443488E-02 -3.2049373386515E-03
3  2.0000000000000E-02  1.1673200347909E-01 -6.5704510752603E-03
4  3.0000000000000E-02  1.7509401789802E-01 -1.0253439643346E-02
5  4.0000000000000E-02  2.3344735364746E-01 -1.4403507581724E-02
6  5.0000000000000E-02  2.9178269594592E-01 -1.9159472613026E-02
7  6.0000000000000E-02  3.5008536025042E-01 -2.4646054605145E-02
8  7.0000000000000E-02  4.0833411572141E-01 -3.0970802185135E-02
9  8.0000000000000E-02  4.6650011546270E-01 -3.8221308721122E-02
10  9.0000000000000E-02  5.2454595114531E-01 -4.6462764455440E-02
11  1.0000000000000E-01  5.8242484768395E-01 -5.5735885848484E-02
12  1.1000000000000E-01  6.4008001145543E-01 -6.6055256778544E-02
13  1.2000000000000E-01  6.9744414316458E-01 -7.7408109250732E-02
14  1.3000000000000E-01  7.5443912391552E-01 -8.9753563822282E-02
15  1.4000000000000E-01  8.1097588037608E-01 -1.0302234218250E-01
16  1.5000000000000E-01  8.6695443217483E-01 -1.1711695637179E-01
17  1.6000000000000E-01  9.2226412188857E-01 -1.3191237112571E-01
18  1.7000000000000E-01  9.7678402520952E-01 -1.4725712792867E-01
19  1.8000000000000E-01  1.0303835361710E+00 -1.6297491169838E-01
20  1.9000000000000E-01  1.0829231197015E+00 -1.7886653373101E-01
21  2.0000000000000E-01  1.1342552213144E+00 -1.9471229774954E-01
22  2.1000000000000E-01  1.1842253214598E+00 -2.1027470973158E-01
23  2.2000000000000E-01  1.2326731200092E+00 -2.2530148675912E-01
24  2.3000000000000E-01  1.2794338345362E+00 -2.3952881552501E-01
25  2.4000000000000E-01  1.3243395945334E+00 -2.5268480743062E-01
26  2.5000000000000E-01  1.3672209124876E+00 -2.6449309447792E-01
27  2.6000000000000E-01  1.4079082118323E+00 -2.7467650844462E-01
28  2.7000000000000E-01  1.4462333912355E+00 -2.8296078515557E-01
29  2.8000000000000E-01  1.4820314044464E+00 -2.8907823603673E-01
30  2.9000000000000E-01  1.5151418350395E+00 -2.9277133054349E-01
31  3.0000000000000E-01  1.5454104458274E+00 -2.9379613546013E-01
32  3.1000000000000E-01  1.5726906834741E+00 -2.9192556041861E-01
33  3.2000000000000E-01  1.5968451198932E+00 -2.8695236321059E-01
34  3.3000000000000E-01  1.6177468133427E+00 -2.7869187347787E-01
35  3.4000000000000E-01  1.6352805737066E+00 -2.6698439906008E-01
36  3.5000000000000E-01  1.6493441182336E+00 -2.5169728553423E-01
37  3.6000000000000E-01  1.6598491059675E+00 -2.3272660617262E-01
38  3.7000000000000E-01  1.6667220411978E+00 -2.0999846653308E-01
39  3.8000000000000E-01  1.6699050384430E+00 -1.8346991503685E-01
40  3.9000000000000E-01  1.6693564437186E+00 -1.5312945803732E-01
41  4.0000000000000E-01  1.6650513090761E+00 -1.1899718489020E-01
42  4.1000000000000E-01  1.6569817196029E+00 -8.1124515261000E-02
43  4.2000000000000E-01  1.6451569741894E+00 -3.9593587209505E-02
44  4.3000000000000E-01  1.6296036233690E+00  5.4836896521965E-03
45  4.4000000000000E-01  1.6103653693731E+00  5.3966886539458E-02
46  4.5000000000000E-01  1.5875028351967E+00  1.0568857969563E-01
47  4.6000000000000E-01  1.5610932108971E+00  1.6045610921787E-01
48  4.7000000000000E-01  1.5312297865392E+00  2.1805353274715E-01
49  4.8000000000000E-01  1.4980213821329E+00  2.7824373265450E-01
50  4.9000000000000E-01  1.4615916855712E+00  3.4077063472890E-01
51  5.0000000000000E-01  1.4220785099631E+00  4.0536149672686E-01
52  5.1000000000000E-01  1.3796329818810E+00  4.7172922645574E-01
53  5.2000000000000E-01  1.3344186718901E+00  5.3957469128883E-01
54  5.3000000000000E-01  1.2866106783433E+00  6.0858898408151E-01
55  5.4000000000000E-01  1.2363946748017E+00  6.7845561428998E-01
56  5.5000000000000E-01  1.1839659306243E+00  7.4885259757928E-01
57  5.6000000000000E-01  1.1295283132822E+00  8.1945442222698E-01
58  5.7000000000000E-01  1.0732932798291E+00  8.8993387604552E-01
59  5.8000000000000E-01  1.0154788637418E+00  9.5996372321717E-01
60  5.9000000000000E-01  9.5630866206725E-01  1.0292182262069E+00
61  6.0000000000000E-01  8.9601082652603E-01  1.0973745136357E+00
62  6.1000000000000E-01  8.3481706095914E-01  1.1641138005051E+00
63  6.2000000000000E-01  7.7296162631149E-01  1.2291224723104E+00
64  6.3000000000000E-01  7.1068035326108E-01  1.2920930492236E+00
65  6.4000000000000E-01  6.4820966165990E-01  1.3527250505374E+00
66  6.5000000000000E-01  5.8578558518656E-01  1.4107257828146E+00
67  6.6000000000000E-01  5.2364279904629E-01  1.4658110775977E+00
68  6.7000000000000E-01  4.6201364821414E-01  1.5177060060080E+00
69  6.8000000000000E-01  4.0112717361611E-01  1.5661455980613E+00
70  6.9000000000000E-01  3.4120813378949E-01  1.6108755940082E+00
71  7.0000000000000E-01  2.8247601995835E-01  1.6516532534784E+00
72  7.1000000000000E-01  2.2514406309728E-01  1.6882482456770E+00
73  7.2000000000000E-01  1.6941823242175E-01  1.7204436404203E+00
74  7.3000000000000E-01  1.1549622581685E-01  1.7480370154586E+00
75  7.4000000000000E-01  6.3566453969603E-02  1.7708416904358E+00
76  7.5000000000000E-01  1.3807021369890E-02  1.7886880920926E+00
77  7.6000000000000E-01 -3.3615291147297E-02  1.8014252490751E+00
78  7.7000000000000E-01 -7.8546036074869E-02  1.8089224081276E+00
79  7.8000000000000E-01 -1.2084409329075E-01  1.8110707567012E+00
80  7.9000000000000E-01 -1.6038263911368E-01  1.8077852302708E+00
81  8.0000000000000E-01 -1.9705007950159E-01  1.7990063761267E+00
82  8.1000000000000E-01 -2.3075093520055E-01  1.7847022392630E+00
83  8.2000000000000E-01 -2.6140666549906E-01  1.7648702304188E+00
84  8.3000000000000E-01 -2.8895641631982E-01  1.7395389315074E+00
85  8.4000000000000E-01 -3.1335767772940E-01  1.7087697897578E+00
86  8.5000000000000E-01 -3.3458683560364E-01  1.6726586490298E+00
87  8.6000000000000E-01 -3.5263960218262E-01  1.6313370650714E+00
88  8.7000000000000E-01 -3.6753131060752E-01  1.5849733510627E+00
89  8.8000000000000E-01 -3.7929705926588E-01  1.5337733006943E+00
90  8.9000000000000E-01 -3.8799169288969E-01  1.4779805383026E+00
91  9.0000000000000E-01 -3.9368960884655E-01  1.4178764492253E+00
92  9.1000000000000E-01 -3.9648437892722E-01  1.3537796485277E+00
93  9.2000000000000E-01 -3.9648817913853E-01  1.2860449525076E+00
94  9.3000000000000E-01 -3.9383102252917E-01  1.2150618248297E+00
95  9.4000000000000E-01 -3.8865979286516E-01  1.1412522776315E+00
96  9.5000000000000E-01 -3.8113707998470E-01  1.0650682173339E+00
97  9.6000000000000E-01 -3.7143982084138E-01  9.8698823499122E-01
98  9.7000000000000E-01 -3.5975775353006E-01  9.0751385162420E-01
99  9.8000000000000E-01 -3.4629169491425E-01  8.2716523988069E-01
100  9.9000000000000E-01 -3.3125165576718E-01  7.4647645431258E-01
101  1.0000000000000E+00 -3.1485481052996E-01  6.6599021331373E-01
102  1.0100000000000E+00 -2.9732334180775E-01  5.8625228607883E-01
103  1.0200000000000E+00 -2.7888218249922E-01  5.0780554758240E-01
104  1.0300000000000E+00 -2.5975668091681E-01  4.3118377329942E-01
105  1.0400000000000E+00 -2.4017021634555E-01  3.5690525298177E-01
106  1.0500000000000E+00 -2.2034179415111E-01  2.8546630907651E-01
107  1.0600000000000E+00 -2.0048365073223E-01  2.1733481013362E-01
108  1.0700000000000E+00 -1.8079889928480E-01  1.5294377268053E-01
109  1.0800000000000E+00 -1.6147924747080E-01  9.2685146411513E-02
110  1.0900000000000E+00 -1.4270281765389E-01  3.6903877095998E-02
111  1.1000000000000E+00 -1.2463209935947E-01 -1.4107660703744E-02
112  1.1100000000000E+00 -1.0741206205967E-01 -6.0114773160796E-02
113  1.1200000000000E+00 -9.1168454274611E-02 -1.0094501698296E-01
114  1.1300000000000E+00 -7.6006312369054E-02 -1.3649215517032E-01
115  1.1400000000000E+00 -6.2008698922282E-02 -1.6671943548992E-01
116  1.1500000000000E+00 -4.9235693994027E-02 -1.9166210815233E-01
117  1.1600000000000E+00 -3.7723695230699E-02 -2.1142894639983E-01
118  1.1700000000000E+00 -2.7487030789991E-02 -2.2619390115559E-01
119  1.1800000000000E+00 -1.8521671793007E-02 -2.3617947370904E-01
120  1.1900000000000E+00 -1.0806632319232E-02 -2.4165145726332E-01
121  1.2000000000000E+00 -4.3049390035514E-03 -2.4291599838400E-01
122  1.2100000000000E+00  1.0351810647781E-03 -2.4031597895112E-01
123  1.2200000000000E+00  5.2789125049927E-03 -2.3422677734449E-01
124  1.2300000000000E+00  8.5032808009729E-03 -2.2505145693544E-01
125  1.2400000000000E+00  1.0795419809290E-02 -2.1321544598536E-01
126  1.2500000000000E+00  1.2250701948747E-02 -1.9916078288922E-01
127  1.2600000000000E+00  1.2970758123064E-02 -1.8334000995187E-01
128  1.2700000000000E+00  1.3061416734366E-02 -1.6620980680346E-01
129  1.2800000000000E+00  1.2630592956595E-02 -1.4822446087966E-01
130  1.2900000000000E+00  1.1786160722089E-02 -1.2982927699662E-01
131  1.3000000000000E+00  1.0633840607629E-02 -1.1145403085855E-01
132  1.3100000000000E+00  9.2751411332595E-03 -9.3506585923525E-02
133  1.3200000000000E+00  7.8053414347465E-03 -7.6366631890514E-02
134  1.3300000000000E+00  6.3117559971509E-03 -6.0380323477347E-02
135  1.3400000000000E+00  4.8684613454631E-03 -4.5843302069453E-02
136  1.3500000000000E+00  3.5319062898330E-03 -3.2985823945212E-02
137  1.3600000000000E+00  2.3624497878235E-03 -2.2044234656295E-02
138  1.3700000000000E+00  1.4058419910184E-03 -1.3201680348796E-02
139  1.3800000000000E+00  6.9127901646134E-04 -6.5819192435944E-03
140  1.3900000000000E+00  2.2997249403982E-04 -2.2375718938437E-03
141  1.4000000000000E+00  2.2761599681118E-05 -2.2863233566967E-04
142  1.4100000000000E+00 -2.4103723476555E-06  2.4716400182112E-05
143  1.4200000000000E+00  3.9215053403434E-07 -3.9554450765912E-06
144  1.43 -0.  0.
145  1.44  0.  0.
146  1.45  0.  0.
147  1.46  0.  0.
148  1.47  0.  0.
149  1.48  0.  0.
150  1.49  0.  0.
151  1.50  0.  0.
152  1.51  0.  0.
153  1.52  0.  0.
154  1.53  0.  0.
155  1.54  0.  0.
156  1.55  0.  0.
157  1.56  0.  0.
158  1.57  0.  0.
159  1.58  0.  0.
160  1.59  0.  0.
161  1.60  0.  0.
162  1.61  0.  0.
163  1.62  0.  0.
164  1.63  0.  0.
165  1.64  0.  0.
166  1.65  0.  0.
167  1.66  0.  0.
168  1.67  0.  0.
169  1.68  0.  0.
170  1.69  0.  0.
171  1.70  0.  0.
172  1.71  0.  0.
173  1.72  0.  0.
174  1.73  0.  0.
175  1.74  0.  0.
176  1.75  0.  0.
177  1.76  0.  0.
178  1.77  0.  0.
179  1.78  0.  0.
180  1.79  0.  0.
181  1.80  0.  0.
182  1.81  0.  0.
183  1.82  0.  0.
184  1.83  0.  0.
185  1.84  0.  0.
186  1.85  0.  0.
187  1.86  0.  0.
188  1.87  0.  0.
189  1.88  0.  0.
190  1.89  0.  0.
191  1.90  0.  0.
192  1.91  0.  0.
193  1.92  0.  0.
194  1.93  0.  0.
195  1.94  0.  0.
196  1.95  0.  0.
197  1.96  0.  0.
198  1.97  0.  0.
199  1.98  0.  0.
200  1.99  0.  0.
201  2.00  0.  0.
202  2.01  0.  0.
203  2.02  0.  0.
204  2.03  0.  0.
205  2.04  0.  0.
206  2.05  0.  0.
207  2.06  0.  0.
208  2.07  0.  0.
209  2.08  0.  0.
210  2.09  0.  0.
211  2.10  0.  0.
212  2.11  0.  0.
213  2.12  0.  0.
214  2.13  0.  0.
215  2.14  0.  0.
216  2.15  0.  0.
217  2.16  0.  0.
218  2.17  0.  0.
219  2.18  0.  0.
220  2.19  0.  0.
221  2.20  0.  0.
222  2.21  0.  0.
223  2.22  0.  0.
224  2.23  0.  0.
225  2.24  0.  0.
226  2.25  0.  0.
227  2.26  0.  0.
228  2.27  0.  0.
229  2.28  0.  0.
230  2.29  0.  0.
231  2.30  0.  0.
232  2.31  0.  0.
233  2.32  0.  0.
234  2.33  0.  0.
235  2.34  0.  0.
236  2.35  0.  0.
237  2.36  0.  0.
238  2.37  0.  0.
239  2.38  0.  0.
240  2.39  0.  0.
241  2.40  0.  0.
242  2.41  0.  0.
243  2.42  0.  0.
244  2.43  0.  0.
245  2.44  0.  0.
246  2.45  0.  0.
247  2.46  0.  0.
248  2.47  0.  0.
249  2.48  0.  0.
250  2.49  0.  0.
251  2.50  0.  0.
252  2.51  0.  0.
253  2.52  0.  0.
254  2.53  0.  0.
255  2.54  0.  0.
256  2.55  0.  0.
257  2.56  0.  0.
258  2.57  0.  0.
259  2.58  0.  0.
260  2.59  0.  0.
261  2.60  0.  0.
262  2.61  0.  0.
263  2.62  0.  0.
264  2.63  0.  0.
265  2.64  0.  0.
266  2.65  0.  0.
267  2.66  0.  0.
268  2.67  0.  0.
269  2.68  0.  0.
270  2.69  0.  0.
271  2.70  0.  0.
272  2.71  0.  0.
273  2.72  0.  0.
274  2.73  0.  0.
275  2.74  0.  0.
276  2.75  0.  0.
277  2.76  0.  0.
278  2.77  0.  0.
279  2.78  0.  0.
280  2.79  0.  0.
281  2.80  0.  0.
282  2.81  0.  0.
283  2.82  0.  0.
284  2.83  0.  0.
285  2.84  0.  0.
286  2.85  0.  0.
287  2.86  0.  0.
288  2.87  0.  0.
289  2.88  0.  0.
290  2.89  0.  0.
291  2.90  0.  0.
292  2.91  0.  0.
293  2.92  0.  0.
294  2.93  0.  0.
295  2.94  0.  0.
296  2.95  0.  0.
297  2.96  0.  0.
298  2.97  0.  0.
299  2.98  0.  0.
300  2.99  0.  0.
301  3.00  0.  0.
302  3.01  0.  0.
303  3.02  0.  0.
304  3.03  0.  0.
305  3.04  0.  0.
306  3.05  0.  0.
307  3.06  0.  0.
308  3.07  0.  0.
309  3.08  0.  0.
310  3.09  0.  0.
311  3.10  0.  0.
312  3.11  0.  0.
313  3.12  0.  0.
314  3.13  0.  0.
315  3.14  0.  0.
316  3.15  0.  0.
317  3.16  0.  0.
318  3.17  0.  0.
319  3.18  0.  0.
320  3.19  0.  0.
321  3.20  0.  0.
322  3.21  0.  0.
323  3.22  0.  0.
324  3.23  0.  0.
325  3.24  0.  0.
326  3.25  0.  0.
327  3.26  0.  0.
328  3.27  0.  0.
329  3.28  0.  0.
330  3.29  0.  0.
331  3.30  0.  0.
332  3.31  0.  0.
333  3.32  0.  0.
334  3.33  0.  0.
335  3.34  0.  0.
336  3.35  0.  0.
337  3.36  0.  0.
338  3.37  0.  0.
339  3.38  0.  0.
340  3.39  0.  0.
341  3.40  0.  0.
342  3.41  0.  0.
343  3.42  0.  0.
344  3.43  0.  0.
345  3.44  0.  0.
346  3.45  0.  0.
347  3.46  0.  0.
348  3.47  0.  0.
349  3.48  0.  0.
350  3.49  0.  0.
351  3.50  0.  0.
352  3.51  0.  0.
353  3.52  0.  0.
354  3.53  0.  0.
355  3.54  0.  0.
356  3.55  0.  0.
357  3.56  0.  0.
358  3.57  0.  0.
359  3.58  0.  0.
360  3.59  0.  0.
361  3.60  0.  0.
362  3.61  0.  0.
363  3.62  0.  0.
364  3.63  0.  0.
365  3.64  0.  0.
366  3.65  0.  0.
367  3.66  0.  0.
368  3.67  0.  0.
369  3.68  0.  0.
370  3.69  0.  0.
371  3.70  0.  0.
372  3.71  0.  0.
373  3.72  0.  0.
374  3.73  0.  0.
375  3.74  0.  0.
376  3.75  0.  0.
377  3.76  0.  0.
378  3.77  0.  0.
379  3.78  0.  0.
380  3.79  0.  0.
381  3.80  0.  0.
382  3.81  0.  0.
383  3.82  0.  0.
384  3.83  0.  0.
385  3.84  0.  0.
386  3.85  0.  0.
387  3.86  0.  0.
388  3.87  0.  0.
389  3.88  0.  0.
390  3.89  0.  0.
391  3.90  0.  0.
392  3.91  0.  0.
393  3.92  0.  0.
394  3.93  0.  0.
395  3.94  0.  0.
396  3.95  0.  0.
397  3.96  0.  0.
398  3.97  0.  0.
399  3.98  0.  0.
400  3.99  0.  0.
401  4.00  0.  0.
402  4.01  0.  0.
403  4.02  0.  0.
404  4.03  0.  0.
405  4.04  0.  0.
406  4.05  0.  0.
407  4.06  0.  0.
408  4.07  0.  0.
409  4.08  0.  0.
410  4.09  0.  0.
411  4.10  0.  0.
412  4.11  0.  0.
413  4.12  0.  0.
414  4.13  0.  0.
415  4.14  0.  0.
416  4.15  0.  0.
417  4.16  0.  0.
418  4.17  0.  0.
419  4.18  0.  0.
420  4.19  0.  0.
421  4.20  0.  0.
422  4.21  0.  0.
423  4.22  0.  0.
424  4.23  0.  0.
425  4.24  0.  0.
426  4.25  0.  0.
427  4.26  0.  0.
428  4.27  0.  0.
429  4.28  0.  0.
430  4.29  0.  0.
431  4.30  0.  0.
432  4.31  0.  0.
433  4.32  0.  0.
434  4.33  0.  0.
435  4.34  0.  0.
436  4.35  0.  0.
437  4.36  0.  0.
438  4.37  0.  0.
439  4.38  0.  0.
440  4.39  0.  0.
441  4.40  0.  0.
442  4.41  0.  0.
443  4.42  0.  0.
444  4.43  0.  0.
445  4.44  0.  0.
446  4.45  0.  0.
447  4.46  0.  0.
448  4.47  0.  0.
449  4.48  0.  0.
450  4.49  0.  0.
451  4.50  0.  0.
452  4.51  0.  0.
453  4.52  0.  0.
454  4.53  0.  0.
455  4.54  0.  0.
456  4.55  0.  0.
457  4.56  0.  0.
458  4.57  0.  0.
459  4.58  0.  0.
460  4.59  0.  0.
461  4.60  0.  0.
462  4.61  0.  0.
463  4.62  0.  0.
464  4.63  0.  0.
465  4.64  0.  0.
466  4.65  0.  0.
467  4.66  0.  0.
468  4.67  0.  0.
469  4.68  0.  0.
470  4.69  0.  0.
471  4.70  0.  0.
472  4.71  0.  0.
473  4.72  0.  0.
474  4.73  0.  0.
475  4.74  0.  0.
476  4.75  0.  0.
477  4.76  0.  0.
478  4.77  0.  0.
479  4.78  0.  0.
480  4.79  0.  0.
481  4.80  0.  0.
482  4.81  0.  0.
483  4.82  0.  0.
484  4.83  0.  0.
485  4.84  0.  0.
486  4.85  0.  0.
487  4.86  0.  0.
488  4.87  0.  0.
489  4.88  0.  0.
490  4.89  0.  0.
491  4.90  0.  0.
492  4.91  0.  0.
493  4.92  0.  0.
494  4.93  0.  0.
495  4.94  0.  0.
496  4.95  0.  0.
497  4.96  0.  0.
498  4.97  0.  0.
499  4.98  0.  0.
500  4.99  0.  0.
501  5.00  0.  0.
502  5.01  0.  0.
503  5.02  0.  0.
504  5.03  0.  0.
505  5.04  0.  0.
506  5.05  0.  0.
507  5.06  0.  0.
508  5.07  0.  0.
509  5.08  0.  0.
510  5.09  0.  0.
511  5.10  0.  0.
512  5.11  0.  0.
513  5.12  0.  0.
514  5.13  0.  0.
515  5.14  0.  0.
516  5.15  0.  0.
517  5.16  0.  0.
518  5.17  0.  0.
519  5.18  0.  0.
520  5.19  0.  0.
521  5.20  0.  0.
522  5.21  0.  0.
523  5.22  0.  0.
524  5.23  0.  0.
525  5.24  0.  0.
526  5.25  0.  0.
527  5.26  0.  0.
528  5.27  0.  0.
529  5.28  0.  0.
530  5.29  0.  0.
531  5.30  0.  0.
532  5.31  0.  0.
533  5.32  0.  0.
534  5.33  0.  0.
535  5.34  0.  0.
536  5.35  0.  0.
537  5.36  0.  0.
538  5.37  0.  0.
539  5.38  0.  0.
540  5.39  0.  0.
541  5.40  0.  0.
542  5.41  0.  0.
543  5.42  0.  0.
544  5.43  0.  0.
545  5.44  0.  0.
546  5.45  0.  0.
547  5.46  0.  0.
548  5.47  0.  0.
549  5.48  0.  0.
550  5.49  0.  0.
551  5.50  0.  0.
552  5.51  0.  0.
553  5.52  0.  0.
554  5.53  0.  0.
555  5.54  0.  0.
556  5.55  0.  0.
557  5.56  0.  0.
558  5.57  0.  0.
559  5.58  0.  0.
560  5.59  0.  0.
561  5.60  0.  0.
562  5.61  0.  0.
563  5.62  0.  0.
564  5.63  0.  0.
565  5.64  0.  0.
566  5.65  0.  0.
567  5.66  0.  0.
568  5.67  0.  0.
569  5.68  0.  0.
570  5.69  0.  0.
571  5.70  0.  0.
572  5.71  0.  0.
573  5.72  0.  0.
574  5.73  0.  0.
575  5.74  0.  0.
576  5.75  0.  0.
577  5.76  0.  0.
578  5.77  0.  0.
579  5.78  0.  0.
580  5.79  0.  0.
581  5.80  0.  0.
582  5.81  0.  0.
583  5.82  0.  0.
584  5.83  0.  0.
585  5.84  0.  0.
586  5.85  0.  0.
587  5.86  0.  0.
588  5.87  0.  0.
589  5.88  0.  0.
590  5.89  0.  0.
591  5.90  0.  0.
592  5.91  0.  0.
593  5.92  0.  0.
594  5.93  0.  0.
595  5.94  0.  0.
596  5.95  0.  0.
597  5.96  0.  0.
598  5.97  0.  0.
599  5.98  0.  0.
600  5.99  0.  0.
1                         1.7322433011672E+01  2.1221016561834E+00
1  0.0000000000000E+00 -3.5773514983628E-09  9.7799418632971E-09
2  1.0000000000000E-02  1.2864549281069E-03 -6.0597939577265E-04
3  2.0000000000000E-02  5.1453370112109E-03 -2.4272715633570E-03
4  3.0000000000000E-02  1.1575114069172E-02 -5.4737247450609E-03
5  4.0000000000000E-02  2.0572954416790E-02 -9.7610465086042E-03
6  5.0000000000000E-02  3.2134317444592E-02 -1.5309765885142E-02
7  6.0000000000000E-02  4.6252395557300E-02 -2.2143822561271E-02
8  7.0000000000000E-02  6.2917422154148E-02 -3.0288823972777E-02
9  8.0000000000000E-02  8.2115863912600E-02 -3.9770020927819E-02
10  9.0000000000000E-02  1.0382951877169E-01 -5.0610060816760E-02
11  1.0000000000000E-01  1.2803454362755E-01 -6.2826584317890E-02
12  1.1000000000000E-01  1.5470043778839E-01 -7.6429736596628E-02
13  1.2000000000000E-01  1.8378900964110E-01 -9.1419667180789E-02
14  1.3000000000000E-01  2.1525335472259E-01 -1.0778409388508E-01
15  1.4000000000000E-01  2.4903687345003E-01 -1.2549600531692E-01
16  1.5000000000000E-01  2.8507235614429E-01 -1.4451157363752E-01
17  1.6000000000000E-01  3.2328116169742E-01 -1.6476834444637E-01
18  1.7000000000000E-01  3.6357251432038E-01 -1.8618376402431E-01
19  1.8000000000000E-01  4.0584294031058E-01 -2.0865409587950E-01
20  1.9000000000000E-01  4.4997586376283E-01 -2.3205376880693E-01
21  2.0000000000000E-01  4.9584137668807E-01 -2.5623518774973E-01
22  2.1000000000000E-01  5.4329619518870E-01 -2.8102902692570E-01
23  2.2000000000000E-01  5.9218380926318E-01 -3.0624501226979E-01
24  2.3000000000000E-01  6.4233482957745E-01 -3.3167318757198E-01
25  2.4000000000000E-01  6.9356753025366E-01 -3.5708564610140E-01
26  2.5000000000000E-01  7.4568858249334E-01 -3.8223869734050E-01
27  2.6000000000000E-01  7.9849396977911E-01 -4.0687542704015E-01
28  2.7000000000000E-01  8.5177007158666E-01 -4.3072859845998E-01
29  2.8000000000000E-01  9.0529489908170E-01 -4.5352383366628E-01
30  2.9000000000000E-01  9.5883946325876E-01 -4.7498300637391E-01
31  3.0000000000000E-01  1.0121692534743E+00 -4.9482777225131E-01
32  3.1000000000000E-01  1.0650458023934E+00 -5.1278315902068E-01
33  3.2000000000000E-01  1.1172283120527E+00 -5.2858113719120E-01
34  3.3000000000000E-01  1.1684753150693E+00 -5.4196409291364E-01
35  3.4000000000000E-01  1.2185463450043E+00 -5.5268812723749E-01
36  3.5000000000000E-01  1.2672035905195E+00 -5.6052611092147E-01
37  3.6000000000000E-01  1.3142135092095E+00 -5.6527043077331E-01
38  3.7000000000000E-01  1.3593483788212E+00 -5.6673537209676E-01
39  3.8000000000000E-01  1.4023877659205E+00 -5.6475909197314E-01
40  3.9000000000000E-01  1.4431198948596E+00 -5.5920514952455E-01
41  4.0000000000000E-01  1.4813429030625E+00 -5.4996357168184E-01
42  4.1000000000000E-01  1.5168659720705E+00 -5.3695144596452E-01
43  4.2000000000000E-01  1.5495103273860E+00 -5.2011304500469E-01
44  4.3000000000000E-01  1.5791101038006E+00 -4.9941950063154E-01
45  4.4000000000000E-01  1.6055130764951E+00 -4.7486805789403E-01
46  4.5000000000000E-01  1.6285812616353E+00 -4.4648095106616E-01
47  4.6000000000000E-01  1.6481913933595E+00 -4.1430395409505E-01
48  4.7000000000000E-01  1.6642352868668E+00 -3.7840466679752E-01
49  4.8000000000000E-01  1.6766200996792E+00 -3.3887060509987E-01
50  4.9000000000000E-01  1.6852685049919E+00 -2.9580716851519E-01
51  5.0000000000000E-01  1.6901187922925E+00 -2.4933556068492E-01
52  5.1000000000000E-01  1.6911249110703E+00 -1.9959073906049E-01
53  5.2000000000000E-01  1.6882564734425E+00 -1.4671946761951E-01
54  5.3000000000000E-01  1.6814987308788E+00 -9.0878541921937E-02
55  5.4000000000000E-01  1.6708525389364E+00 -3.2233248906546E-02
56  5.5000000000000E-01  1.6563343220598E+00  2.9043885226131E-02
57  5.6000000000000E-01  1.6379760481060E+00  9.2774016675167E-02
58  5.7000000000000E-01  1.6158252194059E+00  1.5877254547785E-01
59  5.8000000000000E-01  1.5899448839577E+00  2.2684930084203E-01
60  5.9000000000000E-01  1.5604136668639E+00  2.9680834925718E-01
61  6.0000000000000E-01  1.5273258185011E+00  3.6844743949106E-01
62  6.1000000000000E-01  1.4907912722547E+00  4.4155711380154E-01
63  6.2000000000000E-01  1.4509357011073E+00  5.1591952944496E-01
64  6.3000000000000E-01  1.4079005590487E+00  5.9130704837805E-01
65  6.4000000000000E-01  1.3618430903170E+00  6.6748066547634E-01
66  6.5000000000000E-01  1.3129362869919E+00  7.4418835620147E-01
67  6.6000000000000E-01  1.2613687735547E+00  8.2116343305825E-01
68  6.7000000000000E-01  1.2073445958002E+00  8.9812300605735E-01
69  6.8000000000000E-01  1.1510828909970E+00  9.7476664546944E-01
70  6.9000000000000E-01  1.0928174165197E+00  1.0507753452299E+00
71  7.0000000000000E-01  1.0327959153301E+00  1.1258108823092E+00
72  7.1000000000000E-01  9.7127929869167E-01  1.1995156611772E+00
73  7.2000000000000E-01  9.0854062933526E-01  1.2715131232201E+00
74  7.3000000000000E-01  8.4486389191677E-01  1.3414087887625E+00
75  7.4000000000000E-01  7.8054254195167E-01  1.4087919844534E+00
76  7.5000000000000E-01  7.1587782938854E-01  1.4732382915049E+00
77  7.6000000000000E-01  6.5117689847818E-01  1.5343127310377E+00
78  7.7000000000000E-01  5.8675067147831E-01  1.5915736820555E+00
79  7.8000000000000E-01  5.2291152985584E-01  1.6445775058623E+00
80  7.9000000000000E-01  4.5997081284972E-01  1.6928838286375E+00
81  8.0000000000000E-01  3.9823615936772E-01  1.7360614119760E+00
82  8.1000000000000E-01  3.3800872503744E-01  1.7736945201206E+00
83  8.2000000000000E-01  2.7958031164271E-01  1.8053896729526E+00
84  8.3000000000000E-01  2.2323045098474E-01  1.8307826561692E+00
85  8.4000000000000E-01  1.6922348925718E-01  1.8495456450138E+00
86  8.5000000000000E-01  1.1780572117320E-01  1.8613942859297E+00
87  8.6000000000000E-01  6.9202625210913E-02  1.8660945720298E+00
88  8.7000000000000E-01  2.3616252350566E-02  1.8634693436432E+00
89  8.8000000000000E-01 -1.8777179506712E-02  1.8534042446864E+00
90  8.9000000000000E-01 -5.7829434667232E-02  1.8358529693589E+00
91  9.0000000000000E-01 -9.3422104211268E-02  1.8108416417192E+00
92  9.1000000000000E-01 -1.2546810177477E-01  1.7784721829968E+00
93  9.2000000000000E-01 -1.5391277137750E-01  1.7389245378409E+00
94  9.3000000000000E-01 -1.7873457426470E-01  1.6924576508066E+00
95  9.4000000000000E-01 -1.9994532882970E-01  1.6394091078266E+00
96  9.5000000000000E-01 -2.1758998560397E-01  1.5801933837081E+00
97  9.6000000000000E-01 -2.3174592786837E-01  1.5152986652345E+00
98  9.7000000000000E-01 -2.4252179746116E-01  1.4452822495794E+00
99  9.8000000000000E-01 -2.5005585463174E-01  1.3707645487413E+00
100  9.9000000000000E-01 -2.5451389008687E-01  1.2924217618032E+00
101  1.0000000000000E+00 -2.5608671647924E-01  1.2109773072472E+00
102  1.0100000000000E+00 -2.5498727526772E-01  1.1271921365256E+00
103  1.0200000000000E+00 -2.5144740291996E-01  1.0418540768530E+00
104  1.0300000000000E+00 -2.4571430761632E-01  9.5576637501346E-01
105  1.0400000000000E+00 -2.3804681376549E-01  8.6973563422352E-01
106  1.0500000000000E+00 -2.2871143659195E-01  7.8455935219703E-01
107  1.0600000000000E+00 -2.1797835265283E-01  7.0101328000698E-01
108  1.0700000000000E+00 -2.0611733429460E-01  6.1983882781117E-01
109  1.0800000000000E+00 -1.9339371667940E-01  5.4173074471001E-01
110  1.0900000000000E+00 -1.8006446507884E-01  4.6732529587685E-01
111  1.1000000000000E+00 -1.6637440762888E-01  3.9718915058256E-01
112  1.1100000000000E+00 -1.5255269473819E-01  3.3180918009523E-01
113  1.1200000000000E+00 -1.3880954088428E-01  2.7158334482272E-01
114  1.1300000000000E+00 -1.2533329777822E-01  2.1681282604856E-01
115  1.1400000000000E+00 -1.1228789951626E-01  1.6769552727522E-01
116  1.1500000000000E+00 -9.9810718474367E-02  1.2432107805879E-01
117  1.1600000000000E+00 -8.8010897090796E-02  8.6667644956017E-02
118  1.1700000000000E+00 -7.6970212942816E-02  5.4611822162145E-02
119  1.1800000000000E+00 -6.6746554985191E-02  2.7950437672950E-02
120  1.1900000000000E+00 -5.7375575031813E-02  6.4094998246575E-03
121  1.2000000000000E+00 -4.8872138960245E-02 -1.0349126828553E-02
122  1.2100000000000E+00 -4.1232172493921E-02 -2.2719726893833E-02
123  1.2200000000000E+00 -3.4434854008116E-02 -3.1143599648408E-02
124  1.2300000000000E+00 -2.8445104090236E-02 -3.6098961909038E-02
125  1.2400000000000E+00 -2.3216313886516E-02 -3.8090094392305E-02
126  1.2500000000000E+00 -1.8693248942106E-02 -3.7635955719341E-02
127  1.2600000000000E+00 -1.4815061206184E-02 -3.5258502068893E-02
128  1.2700000000000E+00 -1.1518350007463E-02 -3.1470932715046E-02
129  1.2800000000000E+00 -8.7401259160268E-03 -2.6766293423811E-02
130  1.2900000000000E+00 -6.4223631682745E-03 -2.1602317366971E-02
131  1.3000000000000E+00 -4.5278771350096E-03 -1.6357514510456E-02
132  1.3100000000000E+00 -3.0088325094239E-03 -1.1407035019453E-02
133  1.3200000000000E+00 -1.8211632195992E-03 -7.0849925437486E-03
134  1.3300000000000E+00 -9.3559294495205E-04 -3.6544175741575E-03
135  1.3400000000000E+00 -3.3832409959317E-04 -1.2991496481477E-03
136  1.3500000000000E+00 -4.0038029681785E-05 -1.4791127924887E-04
137  1.3600000000000E+00  3.8553736688582E-06  1.3912957080526E-05
138  1.3700000000000E+00 -5.1566832866423E-07 -1.8984207084499E-06
139  1.38 -0. -0.
140  1.39  0.  0.
141  1.40  0.  0.
142  1.41  0.  0.
143  1.42  0.  0.
144  1.43  0.  0.
145  1.44  0.  0.
146  1.45  0.  0.
147  1.46  0.  0.
148  1.47  0.  0.
149  1.48  0.  0.
150  1.49  0.  0.
151  1.50  0.  0.
152  1.51  0.  0.
153  1.52  0.  0.
154  1.53  0.  0.
155  1.54  0.  0.
156  1.55  0.  0.
157  1.56  0.  0.
158  1.57  0.  0.
159  1.58  0.  0.
160  1.59  0.  0.
161  1.60  0.  0.
162  1.61  0.  0.
163  1.62  0.  0.
164  1.63  0.  0.
165  1.64  0.  0.
166  1.65  0.  0.
167  1.66  0.  0.
168  1.67  0.  0.
169  1.68  0.  0.
170  1.69  0.  0.
171  1.70  0.  0.
172  1.71  0.  0.
173  1.72  0.  0.
174  1.73  0.  0.
175  1.74  0.  0.
176  1.75  0.  0.
177  1.76  0.  0.
178  1.77  0.  0.
179  1.78  0.  0.
180  1.79  0.  0.
181  1.80  0.  0.
182  1.81  0.  0.
183  1.82  0.  0.
184  1.83  0.  0.
185  1.84  0.  0.
186  1.85  0.  0.
187  1.86  0.  0.
188  1.87  0.  0.
189  1.88  0.  0.
190  1.89  0.  0.
191  1.90  0.  0.
192  1.91  0.  0.
193  1.92  0.  0.
194  1.93  0.  0.
195  1.94  0.  0.
196  1.95  0.  0.
197  1.96  0.  0.
198  1.97  0.  0.
199  1.98  0.  0.
200  1.99  0.  0.
201  2.00  0.  0.
202  2.01  0.  0.
203  2.02  0.  0.
204  2.03  0.  0.
205  2.04  0.  0.
206  2.05  0.  0.
207  2.06  0.  0.
208  2.07  0.  0.
209  2.08  0.  0.
210  2.09  0.  0.
211  2.10  0.  0.
212  2.11  0.  0.
213  2.12  0.  0.
214  2.13  0.  0.
215  2.14  0.  0.
216  2.15  0.  0.
217  2.16  0.  0.
218  2.17  0.  0.
219  2.18  0.  0.
220  2.19  0.  0.
221  2.20  0.  0.
222  2.21  0.  0.
223  2.22  0.  0.
224  2.23  0.  0.
225  2.24  0.  0.
226  2.25  0.  0.
227  2.26  0.  0.
228  2.27  0.  0.
229  2.28  0.  0.
230  2.29  0.  0.
231  2.30  0.  0.
232  2.31  0.  0.
233  2.32  0.  0.
234  2.33  0.  0.
235  2.34  0.  0.
236  2.35  0.  0.
237  2.36  0.  0.
238  2.37  0.  0.
239  2.38  0.  0.
240  2.39  0.  0.
241  2.40  0.  0.
242  2.41  0.  0.
243  2.42  0.  0.
244  2.43  0.  0.
245  2.44  0.  0.
246  2.45  0.  0.
247  2.46  0.  0.
248  2.47  0.  0.
249  2.48  0.  0.
250  2.49  0.  0.
251  2.50  0.  0.
252  2.51  0.  0.
253  2.52  0.  0.
254  2.53  0.  0.
255  2.54  0.  0.
256  2.55  0.  0.
257  2.56  0.  0.
258  2.57  0.  0.
259  2.58  0.  0.
260  2.59  0.  0.
261  2.60  0.  0.
262  2.61  0.  0.
263  2.62  0.  0.
264  2.63  0.  0.
265  2.64  0.  0.
266  2.65  0.  0.
267  2.66  0.  0.
268  2.67  0.  0.
269  2.68  0.  0.
270  2.69  0.  0.
271  2.70  0.  0.
272  2.71  0.  0.
273  2.72  0.  0.
274  2.73  0.  0.
275  2.74  0.  0.
276  2.75  0.  0.
277  2.76  0.  0.
278  2.77  0.  0.
279  2.78  0.  0.
280  2.79  0.  0.
281  2.80  0.  0.
282  2.81  0.  0.
283  2.82  0.  0.
284  2.83  0.  0.
285  2.84  0.  0.
286  2.85  0.  0.
287  2.86  0.  0.
288  2.87  0.  0.