Lv    ONCVPSP-4.0.1  r_core=   1.40419   1.37099   1.32266   1.50870
116.0000     24.0000      231012    zatom,zion,pspd
8   -1012   3     4   600     0    pspcod,pspxc,lmax,lloc,mmax,r2well
5.99000000  5.00000000  0.00000000    rchrg fchrg qchrg
2     3     3     2    nproj
3     1           extension_switch
4     3     2    nprojso
0                         2.0145612541208E+01  2.6831645955166E+00
1  0.0000000000000E+00  1.3723316372172E-09 -4.0979436372046E-09
2  1.0000000000000E-02  5.7325409322876E-02 -2.3381457446543E-03
3  2.0000000000000E-02  1.1465615212001E-01 -4.8472059712992E-03
4  3.0000000000000E-02  1.7199612593139E-01 -7.6943216140107E-03
5  4.0000000000000E-02  2.2934637939710E-01 -1.1039149501938E-02
6  5.0000000000000E-02  2.8670374487111E-01 -1.5030276713157E-02
7  6.0000000000000E-02  3.4405953851616E-01 -1.9801819636291E-02
8  7.0000000000000E-02  4.0139834873152E-01 -2.5470264398789E-02
9  8.0000000000000E-02  4.5869693239326E-01 -3.2131601222789E-02
10  9.0000000000000E-02  5.1592323671426E-01 -3.9858800283621E-02
11  1.0000000000000E-01  5.7303556258552E-01 -4.8699670859566E-02
12  1.1000000000000E-01  6.2998188307497E-01 -5.8675139076330E-02
13  1.2000000000000E-01  6.8669932836931E-01 -6.9777972479825E-02
14  1.3000000000000E-01  7.4311384588832E-01 -8.1971972140734E-02
15  1.4000000000000E-01  7.9914004162236E-01 -9.5191645136681E-02
16  1.5000000000000E-01  8.5468120598511E-01 -1.0934236221124E-01
17  1.6000000000000E-01  9.0962952468102E-01 -1.2430099731575E-01
18  1.7000000000000E-01  9.6386647230628E-01 -1.3991703774233E-01
19  1.8000000000000E-01  1.0172633836780E+00 -1.5601414579717E-01
20  1.9000000000000E-01  1.0696821952643E+00 -1.7239214557777E-01
21  2.0000000000000E-01  1.1209763466078E+00 -1.8882940153776E-01
22  2.1000000000000E-01  1.1709918293416E+00 -2.0508554926960E-01
23  2.2000000000000E-01  1.2195683693194E+00 -2.2090453341772E-01
24  2.3000000000000E-01  1.2665407255596E+00 -2.3601790295006E-01
25  2.4000000000000E-01  1.3117400881593E+00 -2.5014831024442E-01
26  2.5000000000000E-01  1.3549955560952E+00 -2.6301315765286E-01
27  2.6000000000000E-01  1.3961356749097E+00 -2.7432833343602E-01
28  2.7000000000000E-01  1.4349900136911E+00 -2.8381197823872E-01
29  2.8000000000000E-01  1.4713907605090E+00 -2.9118822361336E-01
30  2.9000000000000E-01  1.5051743155542E+00 -2.9619084547397E-01
31  3.0000000000000E-01  1.5361828616451E+00 -2.9856677775077E-01
32  3.1000000000000E-01  1.5642658925042E+00 -2.9807943485502E-01
33  3.2000000000000E-01  1.5892816802346E+00 -2.9451179578896E-01
34  3.3000000000000E-01  1.6110986647415E+00 -2.8766920775425E-01
35  3.4000000000000E-01  1.6295967493929E+00 -2.7738187282001E-01
36  3.5000000000000E-01  1.6446684889853E+00 -2.6350698749128E-01
37  3.6000000000000E-01  1.6562201580194E+00 -2.4593051173816E-01
38  3.7000000000000E-01  1.6641726893744E+00 -2.2456855107004E-01
39  3.8000000000000E-01  1.6684624756371E+00 -1.9936834241972E-01
40  3.9000000000000E-01  1.6690420275706E+00 -1.7030884179513E-01
41  4.0000000000000E-01  1.6658804864320E+00 -1.3740091871135E-01
42  4.1000000000000E-01  1.6589639890456E+00 -1.0068716919128E-01
43  4.2000000000000E-01  1.6482958866482E+00 -6.0241365478544E-02
44  4.3000000000000E-01  1.6338968205225E+00 -1.6167566415456E-02
45  4.4000000000000E-01  1.6158046592704E+00  3.1401082416425E-02
46  4.5000000000000E-01  1.5940743042369E+00  8.2303825316827E-02
47  4.6000000000000E-01  1.5687773710259E+00  1.3635401284356E-01
48  4.7000000000000E-01  1.5400017562546E+00  1.9334101832803E-01
49  4.8000000000000E-01  1.5078510996329E+00  2.5303231326082E-01
50  4.9000000000000E-01  1.4724441521335E+00  3.1517565961068E-01
51  5.0000000000000E-01  1.4339140614268E+00  3.7950137745725E-01
52  5.1000000000000E-01  1.3924075858913E+00  4.4572464759598E-01
53  5.2000000000000E-01  1.3480842483909E+00  5.1354781096925E-01
54  5.3000000000000E-01  1.3011154406423E+00  5.8266262982317E-01
55  5.4000000000000E-01  1.2516834884048E+00  6.5275247929796E-01
56  5.5000000000000E-01  1.1999806869328E+00  7.2349444262706E-01
57  5.6000000000000E-01  1.1462083151729E+00  7.9456128812204E-01
58  5.7000000000000E-01  1.0905756360924E+00  8.6562331152484E-01
59  5.8000000000000E-01  1.0332988893384E+00  9.3635003296753E-01
60  5.9000000000000E-01  9.7460028118027E-01  1.0064117435424E+00
61  6.0000000000000E-01  9.1470697542644E-01  1.0754809021934E+00
62  6.1000000000000E-01  8.5385008777669E-01  1.1432333891419E+00
63  6.2000000000000E-01  7.9226368490049E-01  1.2093496271968E+00
64  6.3000000000000E-01  7.3018378847436E-01  1.2735155869383E+00
65  6.4000000000000E-01  6.6784738349109E-01  1.3354236957620E+00
66  6.5000000000000E-01  6.0549142940788E-01  1.3947736740181E+00
67  6.6000000000000E-01  5.4335187215495E-01  1.4512733238748E+00
68  6.7000000000000E-01  4.8166265470105E-01  1.5046392979994E+00
69  6.8000000000000E-01  4.2065472378423E-01  1.5545978756322E+00
70  6.9000000000000E-01  3.6055503057175E-01  1.6008857730917E+00
71  7.0000000000000E-01  3.0158552341402E-01  1.6432510141998E+00
72  7.1000000000000E-01  2.4396213149784E-01  1.6814538835666E+00
73  7.2000000000000E-01  1.8789373906923E-01  1.7152679821852E+00
74  7.3000000000000E-01  1.3358115096716E-01  1.7444814004284E+00
75  7.4000000000000E-01  8.1216051456481E-02  1.7688980184096E+00
76  7.5000000000000E-01  3.0979959740725E-02  1.7883389379061E+00
77  7.6000000000000E-01 -1.6956812968103E-02  1.8026440437693E+00
78  7.7000000000000E-01 -6.2436198387123E-02  1.8116736861398E+00
79  7.8000000000000E-01 -1.0531339009865E-01  1.8153104680139E+00
80  7.9000000000000E-01 -1.4545783693709E-01  1.8134611159511E+00
81  8.0000000000000E-01 -1.8275419982499E-01  1.8060584051630E+00
82  8.1000000000000E-01 -2.1710325973755E-01  1.7930631040727E+00
83  8.2000000000000E-01 -2.4842276333948E-01  1.7744658978553E+00
84  8.3000000000000E-01 -2.7664819193195E-01  1.7502892456477E+00
85  8.4000000000000E-01 -3.0173343871301E-01  1.7205891222074E+00
86  8.5000000000000E-01 -3.2365137902744E-01  1.6854565919475E+00
87  8.6000000000000E-01 -3.4239431829310E-01  1.6450191616011E+00
88  8.7000000000000E-01 -3.5797430266223E-01  1.5994418573658E+00
89  8.8000000000000E-01 -3.7042327822235E-01  1.5489279733178E+00
90  8.9000000000000E-01 -3.7979308566896E-01  1.4937194401981E+00
91  9.0000000000000E-01 -3.8615527888639E-01  1.4340967673646E+00
92  9.1000000000000E-01 -3.8960075774210E-01  1.3703785157433E+00
93  9.2000000000000E-01 -3.9023920761022E-01  1.3029202659348E+00
94  9.3000000000000E-01 -3.8819834066054E-01  1.2321130531411E+00
95  9.4000000000000E-01 -3.8362293673995E-01  1.1583812491459E+00
96  9.5000000000000E-01 -3.7667368468496E-01  1.0821798810495E+00
97  9.6000000000000E-01 -3.6752582808168E-01  1.0039913866432E+00
98  9.7000000000000E-01 -3.5636762277173E-01  9.2432181700562E-01
99  9.8000000000000E-01 -3.4339861672319E-01  8.4369650788404E-01
100  9.9000000000000E-01 -3.2882776617509E-01  7.6265525246026E-01
101  1.0000000000000E+00 -3.1287140515038E-01  6.8174701893538E-01
102  1.0100000000000E+00 -2.9575108844578E-01  6.0152426676752E-01
103  1.0200000000000E+00 -2.7769133097742E-01  5.2253692511075E-01
104  1.0300000000000E+00 -2.5891726882032E-01  4.4532610579649E-01
105  1.0400000000000E+00 -2.3965226936822E-01  3.7041763085566E-01
106  1.0500000000000E+00 -2.2011551970215E-01  2.9831546090534E-01
107  1.0600000000000E+00 -2.0051962344178E-01  2.2949511553170E-01
108  1.0700000000000E+00 -1.8106823702784E-01  1.6439717996485E-01
109  1.0800000000000E+00 -1.6195377651412E-01  1.0342099373571E-01
110  1.0900000000000E+00 -1.4335522552221E-01  4.6918616572096E-02
111  1.1000000000000E+00 -1.2543607401578E-01 -4.8108355230674E-03
112  1.1100000000000E+00 -1.0834241600327E-01 -5.1526395228007E-02
113  1.1200000000000E+00 -9.2201232180246E-02 -9.3049907105779E-02
114  1.1300000000000E+00 -7.7118880922136E-02 -1.2927007396824E-01
115  1.1400000000000E+00 -6.3179817548691E-02 -1.6014582247235E-01
116  1.1500000000000E+00 -5.0445565285196E-02 -1.8570890318561E-01
117  1.1600000000000E+00 -3.8953994197502E-02 -2.0606548441988E-01
118  1.1700000000000E+00 -2.8720925411140E-02 -2.2138769198767E-01
119  1.1800000000000E+00 -1.9743850939974E-02 -2.3189669575858E-01
120  1.1900000000000E+00 -1.2003329375132E-02 -2.3785738618126E-01
121  1.2000000000000E+00 -5.4639470909276E-03 -2.3957542405997E-01
122  1.2100000000000E+00 -7.5497329325993E-05 -2.3739360549362E-01
123  1.2200000000000E+00  4.2256411292606E-03 -2.3168760115384E-01
124  1.2300000000000E+00  7.5149425262393E-03 -2.2286111806342E-01
125  1.2400000000000E+00  9.8780111572587E-03 -2.1134054824458E-01
126  1.2500000000000E+00  1.1408721081430E-02 -1.9756917852201E-01
127  1.2600000000000E+00  1.2207245429681E-02 -1.8200104509829E-01
128  1.2700000000000E+00  1.2378004538988E-02 -1.6509452451686E-01
129  1.2800000000000E+00  1.2027563951670E-02 -1.4730575901639E-01
130  1.2900000000000E+00  1.1262514606570E-02 -1.2908201894496E-01
131  1.3000000000000E+00  1.0187368288216E-02 -1.1085510776008E-01
132  1.3100000000000E+00  8.9025058222285E-03 -9.3034930094097E-02
133  1.3200000000000E+00  7.5021649624923E-03 -7.6003178426918E-02
134  1.3300000000000E+00  6.0727127438995E-03 -6.0107933664149E-02
135  1.3400000000000E+00  4.6873022854162E-03 -4.5646360256655E-02
136  1.3500000000000E+00  3.4014103788638E-03 -3.2849507911315E-02
137  1.3600000000000E+00  2.2748658585838E-03 -2.1955593132947E-02
138  1.3700000000000E+00  1.3529952152810E-03 -1.3149393491988E-02
139  1.3800000000000E+00  6.6464439689496E-04 -6.5559121821543E-03
140  1.3900000000000E+00  2.2078742652515E-04 -2.2286356573561E-03
141  1.4000000000000E+00  2.1801438999470E-05 -2.2769455130569E-04
142  1.4100000000000E+00 -2.3072217334995E-06  2.4614428262010E-05
143  1.4200000000000E+00  3.7572453593441E-07 -3.9393194841046E-06
144  1.43  0.  0.
145  1.44  0.  0.
146  1.45  0.  0.
147  1.46  0.  0.
148  1.47  0.  0.
149  1.48  0.  0.
150  1.49  0.  0.
151  1.50  0.  0.
152  1.51  0.  0.
153  1.52  0.  0.
154  1.53  0.  0.
155  1.54  0.  0.
156  1.55  0.  0.
157  1.56  0.  0.
158  1.57  0.  0.
159  1.58  0.  0.
160  1.59  0.  0.
161  1.60  0.  0.
162  1.61  0.  0.
163  1.62  0.  0.
164  1.63  0.  0.
165  1.64  0.  0.
166  1.65  0.  0.
167  1.66  0.  0.
168  1.67  0.  0.
169  1.68  0.  0.
170  1.69  0.  0.
171  1.70  0.  0.
172  1.71  0.  0.
173  1.72  0.  0.
174  1.73  0.  0.
175  1.74  0.  0.
176  1.75  0.  0.
177  1.76  0.  0.
178  1.77  0.  0.
179  1.78  0.  0.
180  1.79  0.  0.
181  1.80  0.  0.
182  1.81  0.  0.
183  1.82  0.  0.
184  1.83  0.  0.
185  1.84  0.  0.
186  1.85  0.  0.
187  1.86  0.  0.
188  1.87  0.  0.
189  1.88  0.  0.
190  1.89  0.  0.
191  1.90  0.  0.
192  1.91  0.  0.
193  1.92  0.  0.
194  1.93  0.  0.
195  1.94  0.  0.
196  1.95  0.  0.
197  1.96  0.  0.
198  1.97  0.  0.
199  1.98  0.  0.
200  1.99  0.  0.
201  2.00  0.  0.
202  2.01  0.  0.
203  2.02  0.  0.
204  2.03  0.  0.
205  2.04  0.  0.
206  2.05  0.  0.
207  2.06  0.  0.
208  2.07  0.  0.
209  2.08  0.  0.
210  2.09  0.  0.
211  2.10  0.  0.
212  2.11  0.  0.
213  2.12  0.  0.
214  2.13  0.  0.
215  2.14  0.  0.
216  2.15  0.  0.
217  2.16  0.  0.
218  2.17  0.  0.
219  2.18  0.  0.
220  2.19  0.  0.
221  2.20  0.  0.
222  2.21  0.  0.
223  2.22  0.  0.
224  2.23  0.  0.
225  2.24  0.  0.
226  2.25  0.  0.
227  2.26  0.  0.
228  2.27  0.  0.
229  2.28  0.  0.
230  2.29  0.  0.
231  2.30  0.  0.
232  2.31  0.  0.
233  2.32  0.  0.
234  2.33  0.  0.
235  2.34  0.  0.
236  2.35  0.  0.
237  2.36  0.  0.
238  2.37  0.  0.
239  2.38  0.  0.
240  2.39  0.  0.
241  2.40  0.  0.
242  2.41  0.  0.
243  2.42  0.  0.
244  2.43  0.  0.
245  2.44  0.  0.
246  2.45  0.  0.
247  2.46  0.  0.
248  2.47  0.  0.
249  2.48  0.  0.
250  2.49  0.  0.
251  2.50  0.  0.
252  2.51  0.  0.
253  2.52  0.  0.
254  2.53  0.  0.
255  2.54  0.  0.
256  2.55  0.  0.
257  2.56  0.  0.
258  2.57  0.  0.
259  2.58  0.  0.
260  2.59  0.  0.
261  2.60  0.  0.
262  2.61  0.  0.
263  2.62  0.  0.
264  2.63  0.  0.
265  2.64  0.  0.
266  2.65  0.  0.
267  2.66  0.  0.
268  2.67  0.  0.
269  2.68  0.  0.
270  2.69  0.  0.
271  2.70  0.  0.
272  2.71  0.  0.
273  2.72  0.  0.
274  2.73  0.  0.
275  2.74  0.  0.
276  2.75  0.  0.
277  2.76  0.  0.
278  2.77  0.  0.
279  2.78  0.  0.
280  2.79  0.  0.
281  2.80  0.  0.
282  2.81  0.  0.
283  2.82  0.  0.
284  2.83  0.  0.
285  2.84  0.  0.
286  2.85  0.  0.
287  2.86  0.  0.
288  2.87  0.  0.
289  2.88  0.  0.
290  2.89  0.  0.
291  2.90  0.  0.
292  2.91  0.  0.
293  2.92  0.  0.
294  2.93  0.  0.
295  2.94  0.  0.
296  2.95  0.  0.
297  2.96  0.  0.
298  2.97  0.  0.
299  2.98  0.  0.
300  2.99  0.  0.
301  3.00  0.  0.
302  3.01  0.  0.
303  3.02  0.  0.
304  3.03  0.  0.
305  3.04  0.  0.
306  3.05  0.  0.
307  3.06  0.  0.
308  3.07  0.  0.
309  3.08  0.  0.
310  3.09  0.  0.
311  3.10  0.  0.
312  3.11  0.  0.
313  3.12  0.  0.
314  3.13  0.  0.
315  3.14  0.  0.
316  3.15  0.  0.
317  3.16  0.  0.
318  3.17  0.  0.
319  3.18  0.  0.
320  3.19  0.  0.
321  3.20  0.  0.
322  3.21  0.  0.
323  3.22  0.  0.
324  3.23  0.  0.
325  3.24  0.  0.
326  3.25  0.  0.
327  3.26  0.  0.
328  3.27  0.  0.
329  3.28  0.  0.
330  3.29  0.  0.
331  3.30  0.  0.
332  3.31  0.  0.
333  3.32  0.  0.
334  3.33  0.  0.
335  3.34  0.  0.
336  3.35  0.  0.
337  3.36  0.  0.
338  3.37  0.  0.
339  3.38  0.  0.
340  3.39  0.  0.
341  3.40  0.  0.
342  3.41  0.  0.
343  3.42  0.  0.
344  3.43  0.  0.
345  3.44  0.  0.
346  3.45  0.  0.
347  3.46  0.  0.
348  3.47  0.  0.
349  3.48  0.  0.
350  3.49  0.  0.
351  3.50  0.  0.
352  3.51  0.  0.
353  3.52  0.  0.
354  3.53  0.  0.
355  3.54  0.  0.
356  3.55  0.  0.
357  3.56  0.  0.
358  3.57  0.  0.
359  3.58  0.  0.
360  3.59  0.  0.
361  3.60  0.  0.
362  3.61  0.  0.
363  3.62  0.  0.
364  3.63  0.  0.
365  3.64  0.  0.
366  3.65  0.  0.
367  3.66  0.  0.
368  3.67  0.  0.
369  3.68  0.  0.
370  3.69  0.  0.
371  3.70  0.  0.
372  3.71  0.  0.
373  3.72  0.  0.
374  3.73  0.  0.
375  3.74  0.  0.
376  3.75  0.  0.
377  3.76  0.  0.
378  3.77  0.  0.
379  3.78  0.  0.
380  3.79  0.  0.
381  3.80  0.  0.
382  3.81  0.  0.
383  3.82  0.  0.
384  3.83  0.  0.
385  3.84  0.  0.
386  3.85  0.  0.
387  3.86  0.  0.
388  3.87  0.  0.
389  3.88  0.  0.
390  3.89  0.  0.
391  3.90  0.  0.
392  3.91  0.  0.
393  3.92  0.  0.
394  3.93  0.  0.
395  3.94  0.  0.
396  3.95  0.  0.
397  3.96  0.  0.
398  3.97  0.  0.
399  3.98  0.  0.
400  3.99  0.  0.
401  4.00  0.  0.
402  4.01  0.  0.
403  4.02  0.  0.
404  4.03  0.  0.
405  4.04  0.  0.
406  4.05  0.  0.
407  4.06  0.  0.
408  4.07  0.  0.
409  4.08  0.  0.
410  4.09  0.  0.
411  4.10  0.  0.
412  4.11  0.  0.
413  4.12  0.  0.
414  4.13  0.  0.
415  4.14  0.  0.
416  4.15  0.  0.
417  4.16  0.  0.
418  4.17  0.  0.
419  4.18  0.  0.
420  4.19  0.  0.
421  4.20  0.  0.
422  4.21  0.  0.
423  4.22  0.  0.
424  4.23  0.  0.
425  4.24  0.  0.
426  4.25  0.  0.
427  4.26  0.  0.
428  4.27  0.  0.
429  4.28  0.  0.
430  4.29  0.  0.
431  4.30  0.  0.
432  4.31  0.  0.
433  4.32  0.  0.
434  4.33  0.  0.
435  4.34  0.  0.
436  4.35  0.  0.
437  4.36  0.  0.
438  4.37  0.  0.
439  4.38  0.  0.
440  4.39  0.  0.
441  4.40  0.  0.
442  4.41  0.  0.
443  4.42  0.  0.
444  4.43  0.  0.
445  4.44  0.  0.
446  4.45  0.  0.
447  4.46  0.  0.
448  4.47  0.  0.
449  4.48  0.  0.
450  4.49  0.  0.
451  4.50  0.  0.
452  4.51  0.  0.
453  4.52  0.  0.
454  4.53  0.  0.
455  4.54  0.  0.
456  4.55  0.  0.
457  4.56  0.  0.
458  4.57  0.  0.
459  4.58  0.  0.
460  4.59  0.  0.
461  4.60  0.  0.
462  4.61  0.  0.
463  4.62  0.  0.
464  4.63  0.  0.
465  4.64  0.  0.
466  4.65  0.  0.
467  4.66  0.  0.
468  4.67  0.  0.
469  4.68  0.  0.
470  4.69  0.  0.
471  4.70  0.  0.
472  4.71  0.  0.
473  4.72  0.  0.
474  4.73  0.  0.
475  4.74  0.  0.
476  4.75  0.  0.
477  4.76  0.  0.
478  4.77  0.  0.
479  4.78  0.  0.
480  4.79  0.  0.
481  4.80  0.  0.
482  4.81  0.  0.
483  4.82  0.  0.
484  4.83  0.  0.
485  4.84  0.  0.
486  4.85  0.  0.
487  4.86  0.  0.
488  4.87  0.  0.
489  4.88  0.  0.
490  4.89  0.  0.
491  4.90  0.  0.
492  4.91  0.  0.
493  4.92  0.  0.
494  4.93  0.  0.
495  4.94  0.  0.
496  4.95  0.  0.
497  4.96  0.  0.
498  4.97  0.  0.
499  4.98  0.  0.
500  4.99  0.  0.
501  5.00  0.  0.
502  5.01  0.  0.
503  5.02  0.  0.
504  5.03  0.  0.
505  5.04  0.  0.
506  5.05  0.  0.
507  5.06  0.  0.
508  5.07  0.  0.
509  5.08  0.  0.
510  5.09  0.  0.
511  5.10  0.  0.
512  5.11  0.  0.
513  5.12  0.  0.
514  5.13  0.  0.
515  5.14  0.  0.
516  5.15  0.  0.
517  5.16  0.  0.
518  5.17  0.  0.
519  5.18  0.  0.
520  5.19  0.  0.
521  5.20  0.  0.
522  5.21  0.  0.
523  5.22  0.  0.
524  5.23  0.  0.
525  5.24  0.  0.
526  5.25  0.  0.
527  5.26  0.  0.
528  5.27  0.  0.
529  5.28  0.  0.
530  5.29  0.  0.
531  5.30  0.  0.
532  5.31  0.  0.
533  5.32  0.  0.
534  5.33  0.  0.
535  5.34  0.  0.
536  5.35  0.  0.
537  5.36  0.  0.
538  5.37  0.  0.
539  5.38  0.  0.
540  5.39  0.  0.
541  5.40  0.  0.
542  5.41  0.  0.
543  5.42  0.  0.
544  5.43  0.  0.
545  5.44  0.  0.
546  5.45  0.  0.
547  5.46  0.  0.
548  5.47  0.  0.
549  5.48  0.  0.
550  5.49  0.  0.
551  5.50  0.  0.
552  5.51  0.  0.
553  5.52  0.  0.
554  5.53  0.  0.
555  5.54  0.  0.
556  5.55  0.  0.
557  5.56  0.  0.
558  5.57  0.  0.
559  5.58  0.  0.
560  5.59  0.  0.
561  5.60  0.  0.
562  5.61  0.  0.
563  5.62  0.  0.
564  5.63  0.  0.
565  5.64  0.  0.
566  5.65  0.  0.
567  5.66  0.  0.
568  5.67  0.  0.
569  5.68  0.  0.
570  5.69  0.  0.
571  5.70  0.  0.
572  5.71  0.  0.
573  5.72  0.  0.
574  5.73  0.  0.
575  5.74  0.  0.
576  5.75  0.  0.
577  5.76  0.  0.
578  5.77  0.  0.
579  5.78  0.  0.
580  5.79  0.  0.
581  5.80  0.  0.
582  5.81  0.  0.
583  5.82  0.  0.
584  5.83  0.  0.
585  5.84  0.  0.
586  5.85  0.  0.
587  5.86  0.  0.
588  5.87  0.  0.
589  5.88  0.  0.
590  5.89  0.  0.
591  5.90  0.  0.
592  5.91  0.  0.
593  5.92  0.  0.
594  5.93  0.  0.
595  5.94  0.  0.
596  5.95  0.  0.
597  5.96  0.  0.
598  5.97  0.  0.
599  5.98  0.  0.
600  5.99  0.  0.
1                         1.5546247287959E+01  2.5024928887964E+00  1.1624379783459E-01
1  0.0000000000000E+00 -3.3376340857760E-09  1.1920707115864E-08 -3.3063145998824E-08
2  1.0000000000000E-02  1.3250468843356E-03 -9.0407528586449E-04  2.1883819776196E-03
3  2.0000000000000E-02  5.2989922165423E-03 -3.6178752880297E-03  8.7533852678803E-03
4  3.0000000000000E-02  1.1918176110467E-02 -8.1458833100464E-03  1.9693982437567E-02
5  4.0000000000000E-02  2.1176254408661E-02 -1.4494781968414E-02  3.5006483751184E-02
6  5.0000000000000E-02  3.3063839338953E-02 -2.2672295059376E-02  5.4681644091637E-02
7  6.0000000000000E-02  4.7568010605725E-02 -3.2685617843486E-02  7.8700756467577E-02
8  7.0000000000000E-02  6.4671710666063E-02 -4.4539485732622E-02  1.0703087116520E-01
9  8.0000000000000E-02  8.4353041278666E-02 -5.8233943284843E-02  1.3961931266549E-01
10  9.0000000000000E-02  1.0658448132761E-01 -7.3761885646005E-02  1.7638769474162E-01
11  1.0000000000000E-01  1.3133204834163E-01 -9.1106452838873E-02  2.1722565686561E-01
12  1.1000000000000E-01  1.5855442799191E-01 -1.1023836335638E-01  2.6198456151842E-01
13  1.2000000000000E-01  1.8820209711113E-01 -1.3111327718859E-01  3.1047140170338E-01
14  1.3000000000000E-01  2.2021646640126E-01 -1.5366927958739E-01  3.6244317056949E-01
15  1.4000000000000E-01  2.5452906897193E-01 -1.7782457549891E-01  4.1760194040141E-01
16  1.5000000000000E-01  2.9106082017453E-01 -2.0347548068633E-01  4.7559088635732E-01
17  1.6000000000000E-01  3.2972137288535E-01 -2.3049478921016E-01  5.3599147145041E-01
18  1.7000000000000E-01  3.7040859047681E-01 -2.5873058827516E-01  5.9832198377765E-01
19  1.8000000000000E-01  4.1300815724526E-01 -2.8800558070486E-01  6.6203758547662E-01
20  1.9000000000000E-01  4.5739334309814E-01 -3.1811696273210E-01  7.2653199607914E-01
21  2.0000000000000E-01  5.0342493591640E-01 -3.4883689071539E-01  7.9114089171552E-01
22  2.1000000000000E-01  5.5095135128339E-01 -3.7991355516657E-01  8.5514705701780E-01
23  2.2000000000000E-01  5.9980892530289E-01 -4.1107286450038E-01  9.1778727969032E-01
24  2.3000000000000E-01  6.4982239211452E-01 -4.4202072460973E-01  9.7826092974925E-01
25  2.4000000000000E-01  7.0080554355944E-01 -4.7244588416468E-01  1.0357401176170E+00
26  2.5000000000000E-01  7.5256206435577E-01 -5.0202329986335E-01  1.0893812788443E+00
27  2.6000000000000E-01  8.0488653221628E-01 -5.3041796115554E-01  1.1383379894578E+00
28  2.7000000000000E-01  8.5756556867923E-01 -5.5728910062189E-01  1.1817747759867E+00
29  2.8000000000000E-01  9.1037912311942E-01 -5.8229470459746E-01  1.2188816492179E+00
30  2.9000000000000E-01  9.6310186954514E-01 -6.0509622911437E-01  1.2488890616705E+00
31  3.0000000000000E-01  1.0155046934396E+00 -6.2536341908676E-01  1.2710829665482E+00
32  3.1000000000000E-01  1.0673562441327E+00 -6.4277912409816E-01  1.2848196412180E+00
33  3.2000000000000E-01  1.1184245270337E+00 -6.5704400233676E-01  1.2895399316346E+00
34  3.3000000000000E-01  1.1684785095509E+00 -6.6788100524623E-01  1.2847825759021E+00
35  3.4000000000000E-01  1.2172897146731E+00 -6.7503953933345E-01  1.2701962754865E+00
36  3.5000000000000E-01  1.2646337769936E+00 -6.7829920823867E-01  1.2455502013712E+00
37  3.6000000000000E-01  1.3102919373916E+00 -6.7747304749133E-01  1.2107426494026E+00
38  3.7000000000000E-01  1.3540524546076E+00 -6.7241017613480E-01  1.1658075936796E+00
39  3.8000000000000E-01  1.3957119145015E+00 -6.6299780332829E-01  1.1109189284039E+00
40  3.9000000000000E-01  1.4350764208022E+00 -6.4916254378001E-01  1.0463922362156E+00
41  4.0000000000000E-01  1.4719626545408E+00 -6.3087101303698E-01  9.7268397363858E-01
42  4.1000000000000E-01  1.5061987930370E+00 -6.0812969181068E-01  8.9038802061936E-01
43  4.2000000000000E-01  1.5376252831506E+00 -5.8098406717820E-01  8.0022959995926E-01
44  4.3000000000000E-01  1.5660954674275E+00 -5.4951707716661E-01  7.0305663227074E-01
45  4.4000000000000E-01  1.5914760656366E+00 -5.1384690339678E-01  5.9982865149518E-01
46  4.5000000000000E-01  1.6136475179048E+00 -4.7412417362801E-01  4.9160346350802E-01
47  4.6000000000000E-01  1.6325041991020E+00 -4.3052865172162E-01  3.7952178445968E-01
48  4.7000000000000E-01  1.6479545172045E+00 -3.8326550627598E-01  2.6479014486383E-01
49  4.8000000000000E-01  1.6599209109760E+00 -3.3256126056782E-01  1.4866238875134E-01
50  4.9000000000000E-01  1.6683397643823E+00 -2.7865953511251E-01  3.2420133295362E-02
51  5.0000000000000E-01  1.6731612566133E+00 -2.2181669984272E-01 -8.2647417815871E-02
52  5.1000000000000E-01  1.6743491673972E+00 -1.6229755539176E-01 -1.9526389513537E-01
53  5.2000000000000E-01  1.6718806574048E+00 -1.0037116212928E-01 -3.0418599698483E-01
54  5.3000000000000E-01  1.6657460429653E+00 -3.6306931395426E-02 -4.0822311512701E-01
55  5.4000000000000E-01  1.6559485830385E+00  2.9628914128353E-02 -5.0625594276059E-01
56  5.5000000000000E-01  1.6425042944618E+00  9.7176414641466E-02 -5.9725367574147E-01
57  5.6000000000000E-01  1.6254418089467E+00  1.6608439935752E-01 -6.8028944817907E-01
58  5.7000000000000E-01  1.6048022822213E+00  2.3611239805268E-01 -7.5455368267064E-01
59  5.8000000000000E-01  1.5806393621780E+00  3.0703188991201E-01 -8.1936508252593E-01
60  5.9000000000000E-01  1.5530192190052E+00  3.7862686165700E-01 -8.7417904730600E-01
61  6.0000000000000E-01  1.5220206361572E+00  4.5069366822642E-01 -9.1859335255322E-01
62  6.1000000000000E-01  1.4877351567918E+00  5.2304021118542E-01 -9.5235099827633E-01
63  6.2000000000000E-01  1.4502672760943E+00  5.9548447194571E-01 -9.7534019700543E-01
64  6.3000000000000E-01  1.4097346658619E+00  6.6785245817375E-01 -9.8759153937829E-01
65  6.4000000000000E-01  1.3662684139620E+00  7.3997564182372E-01 -9.8927244157555E-01
66  6.5000000000000E-01  1.3200132579486E+00  8.1168798545981E-01 -9.8067904278472E-01
67  6.6000000000000E-01  1.2711277893274E+00  8.8282266936474E-01 -9.6222578059392E-01
68  6.7000000000000E-01  1.2197846028276E+00  9.5320864485941E-01 -9.3443292624624E-01
69  6.8000000000000E-01  1.1661703636464E+00  1.0226671488397E+00 -8.9791240859595E-01
70  6.9000000000000E-01  1.1104857650680E+00  1.0910083204117E+00 -8.5335229415390E-01
71  7.0000000000000E-01  1.0529453491675E+00  1.1580280624112E+00 -8.0150031975544E-01
72  7.1000000000000E-01  9.9377716452761E-01  1.2235052883608E+00 -7.4314689332345E-01
73  7.2000000000000E-01  9.3322223702464E-01  1.2871996890034E+00 -6.7910798640076E-01
74  7.3000000000000E-01  8.7153383275958E-01  1.3488501420068E+00 -6.1020833933219E-01
75  7.4000000000000E-01  8.0897649607657E-01  1.4081738739504E+00 -5.3726538622102E-01
76  7.5000000000000E-01  7.4582485024849E-01  1.4648664655582E+00 -4.6107428239557E-01
77  7.6000000000000E-01  6.8236215372393E-01  1.5186027697463E+00 -3.8239438271245E-01
78  7.7000000000000E-01  6.1887861070243E-01  1.5690387878950E+00 -3.0193747548611E-01
79  7.8000000000000E-01  5.5566944109656E-01  1.6158145234291E+00 -2.2035802530405E-01
80  7.9000000000000E-01  4.9303272149639E-01  1.6585578039558E+00 -1.3824561983574E-01
81  8.0000000000000E-01  4.3126701540599E-01  1.6968890345833E+00 -5.6119752520635E-02
82  8.1000000000000E-01  3.7066881759758E-01  1.7304268163934E+00  2.5572993565203E-02
83  8.2000000000000E-01  3.1152984374742E-01  1.7587943361356E+00  1.0645936350686E-01
84  8.3000000000000E-01  2.5413420239948E-01  1.7816264068427E+00  1.8623752069072E-01
85  8.4000000000000E-01  1.9875549157592E-01  1.7985770149778E+00  2.6467294561931E-01
86  8.5000000000000E-01  1.4565386685603E-01  1.8093272086450E+00  3.4159234138578E-01
87  8.6000000000000E-01  9.5073131329523E-02  1.8135931439622E+00  4.1687579971096E-01
88  8.7000000000000E-01  4.7237900370633E-02  1.8111340934918E+00  4.9044753005032E-01
89  8.8000000000000E-01  2.3508955720485E-03  1.8017602121046E+00  5.6226549416715E-01
90  8.9000000000000E-01 -3.9409577653641E-02  1.7853398521902E+00  6.3231031858196E-01
91  9.0000000000000E-01 -7.7891915398821E-02  1.7618062219335E+00  7.0057387654350E-01
92  9.1000000000000E-01 -1.1297321249273E-01  1.7311631875598E+00  7.6704793900963E-01
93  9.2000000000000E-01 -1.4456092427488E-01  1.6934900329563E+00  8.3171329028105E-01
94  9.3000000000000E-01 -1.7259415041417E-01  1.6489450077244E+00  8.9452968841889E-01
95  9.4000000000000E-01 -1.9704450427932E-01  1.5977675171684E+00  9.5542702373783E-01
96  9.5000000000000E-01 -2.1791653838532E-01  1.5402788345307E+00  1.0142979911724E+00
97  9.6000000000000E-01 -2.3524770433187E-01  1.4768812463490E+00  1.0709925451224E+00
98  9.7000000000000E-01 -2.4910783424538E-01  1.4080555754382E+00  1.1253143497469E+00
99  9.8000000000000E-01 -2.5959813984570E-01  1.3343570619141E+00  1.1770193750579E+00
100  9.9000000000000E-01 -2.6684973467173E-01  1.2564096199914E+00  1.2258167212965E+00
101  1.0000000000000E+00 -2.7102169449721E-01  1.1748985260959E+00  1.2713716827831E+00
102  1.0100000000000E+00 -2.7229868032279E-01  1.0905616311827E+00  1.3133109897025E+00
103  1.0200000000000E+00 -2.7088815731809E-01  1.0041792261018E+00  1.3512300941049E+00
104  1.0300000000000E+00 -2.6701725147738E-01  9.1656272243886E-01  1.3847022968615E+00
105  1.0400000000000E+00 -2.6092929333996E-01  8.2854234161330E-01  1.4132894473437E+00
106  1.0500000000000E+00 -2.5288010471907E-01  7.4095403133844E-01  1.4365538889994E+00
107  1.0600000000000E+00 -2.4313408979418E-01  6.5462585003911E-01  1.4540712736399E+00
108  1.0700000000000E+00 -2.3196019602180E-01  5.7036407595042E-01  1.4654438264262E+00
109  1.0800000000000E+00 -2.1962781298008E-01  4.8893930782987E-01  1.4703136136165E+00
110  1.0900000000000E+00 -2.0640267840876E-01  4.1107282820054E-01  1.4683753470248E+00
111  1.1000000000000E+00 -1.9254286028692E-01  3.3742349758217E-01  1.4593882534381E+00
112  1.1100000000000E+00 -1.7829488181011E-01  2.6857543928067E-01  1.4431865442705E+00
113  1.1200000000000E+00 -1.6389005260101E-01  2.0502675905206E-01  1.4196880404691E+00
114  1.1300000000000E+00 -1.4954106450691E-01  1.4717952273591E-01  1.3889005396229E+00
115  1.1400000000000E+00 -1.3543890359541E-01  9.5331186242689E-02  1.3509255531816E+00
116  1.1500000000000E+00 -1.2175012888804E-01  4.9667672198225E-02  1.3059591391368E+00
117  1.1600000000000E+00 -1.0861459294170E-01  1.0258418465325E-02  1.2542898424781E+00
118  1.1700000000000E+00 -9.6145514472202E-02 -2.2937426740098E-02  1.1963062046369E+00
119  1.1800000000000E+00 -8.4432001113514E-02 -5.0054746611034E-02  1.1325141512061E+00
120  1.1900000000000E+00 -7.3539954149059E-02 -7.1316172342722E-02  1.0635370245148E+00
121  1.2000000000000E+00 -6.3512853171508E-02 -8.7027002388144E-02  9.9010870080637E-01
122  1.2100000000000E+00 -5.4372978361042E-02 -9.7568380811631E-02  9.1306381467629E-01
123  1.2200000000000E+00 -4.6123036578917E-02 -1.0338888168923E-01  8.3332524843690E-01
124  1.2300000000000E+00 -3.8748153158365E-02 -1.0499466065033E-01  7.5188914806298E-01
125  1.2400000000000E+00 -3.2218182186112E-02 -1.0293837327688E-01  6.6980778784009E-01
126  1.2500000000000E+00 -2.6490281005283E-02 -9.7807089224337E-02  5.8817066559023E-01
127  1.2600000000000E+00 -2.1511688713127E-02 -9.0209455554162E-02  5.0808425935217E-01
128  1.2700000000000E+00 -1.7222643764002E-02 -8.0762381938972E-02  4.3065091498202E-01
129  1.2800000000000E+00 -1.3559367007226E-02 -7.0077546953945E-02  3.5694736111096E-01
130  1.2900000000000E+00 -1.0457092219044E-02 -5.8747891467390E-02  2.8800335183297E-01
131  1.3000000000000E+00 -7.8528444237703E-03 -4.7334949796459E-02  2.2478096258265E-01
132  1.3100000000000E+00 -5.6950712389835E-03 -3.6339906861603E-02  1.6815562280342E-01
133  1.3200000000000E+00 -3.9437133226286E-03 -2.6198582877964E-02  1.1890640428789E-01
134  1.3300000000000E+00 -2.5486864798988E-03 -1.7328975781042E-02  7.7696438824168E-02
135  1.3400000000000E+00 -1.4722633196977E-03 -1.0072112609979E-02  4.5034408733522E-02