At    ONCVPSP-4.0.1  r_core=   2.10879   2.10879   1.90488
     85.0000     25.0000      211119    zatom,zion,pspd
     8      11   2     4   600     0    pspcod,pspxc,lmax,lloc,mmax,r2well
  5.99000000  5.00000000  0.00000000    rchrg fchrg qchrg
     2     2     2     0     0    nproj
     1     1           extension_switch
   0                         3.5893863865916E+00 -3.4399190457423E+00
     1  0.0000000000000E+00 -6.3028804397902E-11  2.3186452757784E-12
     2  1.0000000000000E-02  7.9926834005599E-02  3.3651783011998E-02
     3  2.0000000000000E-02  1.5959353583335E-01  6.7280135243266E-02
     4  3.0000000000000E-02  2.3874091419934E-01  1.0086163268078E-01
     5  4.0000000000000E-02  3.1711165585550E-01  1.3437286493396E-01
     6  5.0000000000000E-02  3.9445125524317E-01  1.6779044226302E-01
     7  6.0000000000000E-02  4.7050893295420E-01  2.0109100286601E-01
     8  7.0000000000000E-02  5.4503853934244E-01  2.3425122050834E-01
     9  8.0000000000000E-02  6.1779943969202E-01  2.6724781257584E-01
    10  9.0000000000000E-02  6.8855737742671E-01  3.0005754862970E-01
    11  1.0000000000000E-01  7.5708531193793E-01  3.3265725953818E-01
    12  1.1000000000000E-01  8.2316422771686E-01  3.6502384725614E-01
    13  1.2000000000000E-01  8.8658391159736E-01  3.9713429531869E-01
    14  1.3000000000000E-01  9.4714369505218E-01  4.2896568011061E-01
    15  1.4000000000000E-01  1.0046531586326E+00  4.6049518296768E-01
    16  1.5000000000000E-01  1.0589327958027E+00  4.9170010316019E-01
    17  1.6000000000000E-01  1.1098146335901E+00  5.2255787180277E-01
    18  1.7000000000000E-01  1.1571428076606E+00  5.5304606672808E-01
    19  1.8000000000000E-01  1.2007740896134E+00  5.8314242835485E-01
    20  1.9000000000000E-01  1.2405783644993E+00  6.1282487657395E-01
    21  2.0000000000000E-01  1.2764390567716E+00  6.4207152866810E-01
    22  2.1000000000000E-01  1.3082535031006E+00  6.7086071827390E-01
    23  2.2000000000000E-01  1.3359332707031E+00  6.9917101538640E-01
    24  2.3000000000000E-01  1.3594044200722E+00  7.2698124739886E-01
    25  2.4000000000000E-01  1.3786077112229E+00  7.5427052116209E-01
    26  2.5000000000000E-01  1.3934987528106E+00  7.8101824603995E-01
    27  2.6000000000000E-01  1.4040480937171E+00  8.0720415792906E-01
    28  2.7000000000000E-01  1.4102412569407E+00  8.3280834420333E-01
    29  2.8000000000000E-01  1.4120787158704E+00  8.5781126953536E-01
    30  2.9000000000000E-01  1.4095758132623E+00  8.8219380253953E-01
    31  3.0000000000000E-01  1.4027626234786E+00  9.0593724317353E-01
    32  3.1000000000000E-01  1.3916837587843E+00  9.2902335082799E-01
    33  3.2000000000000E-01  1.3763981207276E+00  9.5143437302660E-01
    34  3.3000000000000E-01  1.3569785978613E+00  9.7315307465225E-01
    35  3.4000000000000E-01  1.3335117112801E+00  9.9416276760849E-01
    36  3.5000000000000E-01  1.3060972096647E+00  1.0144473408191E+00
    37  3.6000000000000E-01  1.2748476157309E+00  1.0339912904635E+00
    38  3.7000000000000E-01  1.2398877261780E+00  1.0527797503395E+00
    39  3.8000000000000E-01  1.2013540674195E+00  1.0707985222419E+00
    40  3.9000000000000E-01  1.1593943095580E+00  1.0880341062392E+00
    41  4.0000000000000E-01  1.1141666412293E+00  1.1044737307280E+00
    42  4.1000000000000E-01  1.0658391080979E+00  1.1201053821431E+00
    43  4.2000000000000E-01  1.0145889179251E+00  1.1349178341945E+00
    44  4.3000000000000E-01  9.6060171526107E-01  1.1489006765067E+00
    45  4.4000000000000E-01  9.0407082892432E-01  1.1620443425285E+00
    46  4.5000000000000E-01  8.4519649553244E-01  1.1743401365849E+00
    47  4.6000000000000E-01  7.8418506243369E-01  1.1857802599411E+00
    48  4.7000000000000E-01  7.2124817345708E-01  1.1963578357497E+00
    49  4.8000000000000E-01  6.5660194095375E-01  1.2060669327533E+00
    50  4.9000000000000E-01  5.9046610764036E-01  1.2149025876163E+00
    51  5.0000000000000E-01  5.2306320177801E-01  1.2228608257646E+00
    52  5.1000000000000E-01  4.5461768922649E-01  1.2299386806120E+00
    53  5.2000000000000E-01  3.8535512590460E-01  1.2361342110572E+00
    54  5.3000000000000E-01  3.1550131416210E-01  1.2414465171433E+00
    55  5.4000000000000E-01  2.4528146652775E-01  1.2458757537695E+00
    56  5.5000000000000E-01  1.7491938024201E-01  1.2494231423591E+00
    57  5.6000000000000E-01  1.0463662591131E-01  1.2520909803871E+00
    58  5.7000000000000E-01  3.4651753534676E-02  1.2538826486823E+00
    59  5.8000000000000E-01 -3.4820480946867E-02  1.2548026164229E+00
    60  5.9000000000000E-01 -1.0356986554196E-01  1.2548564437559E+00
    61  6.0000000000000E-01 -1.7139145563290E-01  1.2540507819752E+00
    62  6.1000000000000E-01 -2.3808626816312E-01  1.2523933712055E+00
    63  6.2000000000000E-01 -3.0346194397123E-01  1.2498930355446E+00
    64  6.3000000000000E-01 -3.6733337581710E-01  1.2465596756304E+00
    65  6.4000000000000E-01 -4.2952329981900E-01  1.2424042586041E+00
    66  6.5000000000000E-01 -4.8986284820284E-01  1.2374388054550E+00
    67  6.6000000000000E-01 -5.4819206145539E-01  1.2316763757395E+00
    68  6.7000000000000E-01 -6.0436035817177E-01  1.2251310496780E+00
    69  6.8000000000000E-01 -6.5822696109213E-01  1.2178179076459E+00
    70  6.9000000000000E-01 -7.0966127803271E-01  1.2097530070813E+00
    71  7.0000000000000E-01 -7.5854323663111E-01  1.2009533568454E+00
    72  7.1000000000000E-01 -8.0476357204333E-01  1.1914368890824E+00
    73  7.2000000000000E-01 -8.4822406695079E-01  1.1812224286317E+00
    74  7.3000000000000E-01 -8.8883774345644E-01  1.1703296600615E+00
    75  7.4000000000000E-01 -9.2652900667085E-01  1.1587790923968E+00
    76  7.5000000000000E-01 -9.6123374000948E-01  1.1465920216288E+00
    77  7.6000000000000E-01 -9.9289935244069E-01  1.1337904910998E+00
    78  7.7000000000000E-01 -1.0214847781392E+00  1.1203972498668E+00
    79  7.8000000000000E-01 -1.0469604292111E+00  1.1064357091568E+00
    80  7.9000000000000E-01 -1.0693081023610E+00  1.0919298970332E+00
    81  8.0000000000000E-01 -1.0885208405743E+00  1.0769044114023E+00
    82  8.1000000000000E-01 -1.1046027510758E+00  1.0613843714942E+00
    83  8.2000000000000E-01 -1.1175687810142E+00  1.0453953679606E+00
    84  8.3000000000000E-01 -1.1274444524959E+00  1.0289634117369E+00
    85  8.4000000000000E-01 -1.1342655587560E+00  1.0121148818218E+00
    86  8.5000000000000E-01 -1.1380778234123E+00  9.9487647213307E-01
    87  8.6000000000000E-01 -1.1389365248899E+00  9.7727513760101E-01
    88  8.7000000000000E-01 -1.1369060882372E+00  9.5933803966547E-01
    89  8.8000000000000E-01 -1.1320596466753E+00  9.4109249134501E-01
    90  8.9000000000000E-01 -1.1244785753262E+00  9.2256590204840E-01
    91  9.0000000000000E-01 -1.1142519996642E+00  9.0378572230028E-01
    92  9.1000000000000E-01 -1.1014762813099E+00  8.8477938855333E-01
    93  9.2000000000000E-01 -1.0862544838568E+00  8.6557426825906E-01
    94  9.3000000000000E-01 -1.0686958214693E+00  8.4619760536864E-01
    95  9.4000000000000E-01 -1.0489150930312E+00  8.2667646643338E-01
    96  9.5000000000000E-01 -1.0270321046473E+00  8.0703768747224E-01
    97  9.6000000000000E-01 -1.0031710833072E+00  7.8730782177079E-01
    98  9.7000000000000E-01 -9.7746008452187E-01  7.6751308877211E-01
    99  9.8000000000000E-01 -9.5003039671799E-01  7.4767932421602E-01
   100  9.9000000000000E-01 -9.2101594514852E-01  7.2783193167769E-01
   101  1.0000000000000E+00 -8.9055269802948E-01  7.0799583565114E-01
   102  1.0100000000000E+00 -8.5877807755545E-01  6.8819543631698E-01
   103  1.0200000000000E+00 -8.2583037837553E-01  6.6845456612659E-01
   104  1.0300000000000E+00 -7.9184819602830E-01  6.4879644832797E-01
   105  1.0400000000000E+00 -7.5696986774096E-01  6.2924365755019E-01
   106  1.0500000000000E+00 -7.2133292789236E-01  6.0981808255548E-01
   107  1.0600000000000E+00 -6.8507358032539E-01  5.9054089125888E-01
   108  1.0700000000000E+00 -6.4832618957020E-01  5.7143249810647E-01
   109  1.0800000000000E+00 -6.1122279290724E-01  5.5251253389367E-01
   110  1.0900000000000E+00 -5.7389263505940E-01  5.3379981809548E-01
   111  1.1000000000000E+00 -5.3646172715545E-01  5.1531233377029E-01
   112  1.1100000000000E+00 -4.9905243145508E-01  4.9706720508912E-01
   113  1.1200000000000E+00 -4.6178307316757E-01  4.7908067753153E-01
   114  1.1300000000000E+00 -4.2476758053545E-01  4.6136810077912E-01
   115  1.1400000000000E+00 -3.8811515418912E-01  4.4394391432726E-01
   116  1.1500000000000E+00 -3.5192996661240E-01  4.2682163582517E-01
   117  1.1600000000000E+00 -3.1631089239048E-01  4.1001385214391E-01
   118  1.1700000000000E+00 -2.8135126974397E-01  3.9353221316192E-01
   119  1.1800000000000E+00 -2.4713869368473E-01  3.7738742824740E-01
   120  1.1900000000000E+00 -2.1375484096360E-01  3.6158926540690E-01
   121  1.2000000000000E+00 -1.8127532681615E-01  3.4614655305994E-01
   122  1.2100000000000E+00 -1.4976959335253E-01  3.3106718438989E-01
   123  1.2200000000000E+00 -1.1930082928104E-01  3.1635812421246E-01
   124  1.2300000000000E+00 -8.9925920503720E-02  3.0202541829426E-01
   125  1.2400000000000E+00 -6.1695430976860E-02  2.8807420504570E-01
   126  1.2500000000000E+00 -3.4653613089067E-02  2.7450872950443E-01
   127  1.2600000000000E+00 -8.8384466780315E-03  2.6133235951846E-01
   128  1.2700000000000E+00  1.5718294318414E-02  2.4854760403063E-01
   129  1.2800000000000E+00  3.8990948698199E-02  2.3615613336026E-01
   130  1.2900000000000E+00  6.0959849546879E-02  2.2415880137148E-01
   131  1.3000000000000E+00  8.1611181834215E-02  2.1255566941274E-01
   132  1.3100000000000E+00  1.0093681747385E-01  2.0134603190713E-01
   133  1.3200000000000E+00  1.1893412934459E-01  1.9052844346898E-01
   134  1.3300000000000E+00  1.3560578584211E-01  1.8010074741885E-01
   135  1.3400000000000E+00  1.5095952759014E-01  1.7006010556588E-01
   136  1.3500000000000E+00  1.6500792798994E-01  1.6040302912432E-01
   137  1.3600000000000E+00  1.7776813932664E-01  1.5112541062943E-01
   138  1.3700000000000E+00  1.8926162618039E-01  1.4222255671658E-01
   139  1.3800000000000E+00  1.9951388790941E-01  1.3368922162728E-01
   140  1.3900000000000E+00  2.0855417198120E-01  1.2551964130584E-01
   141  1.4000000000000E+00  2.1641517992734E-01  1.1770756795097E-01
   142  1.4100000000000E+00  2.2313276768688E-01  1.1024630488826E-01
   143  1.4200000000000E+00  2.2874564208354E-01  1.0312874163100E-01
   144  1.4300000000000E+00  2.3329505515319E-01  9.6347388999521E-02
   145  1.4400000000000E+00  2.3682449800019E-01  8.9894414171915E-02
   146  1.4500000000000E+00  2.3937939581618E-01  8.3761675542603E-02
   147  1.4600000000000E+00  2.4100680564075E-01  7.7940757269041E-02
   148  1.4700000000000E+00  2.4175511838312E-01  7.2423003391195E-02
   149  1.4800000000000E+00  2.4167376655624E-01  6.7199551413212E-02
   150  1.4900000000000E+00  2.4081293910132E-01  6.2261365241817E-02
   151  1.5000000000000E+00  2.3922330460137E-01  5.7599267381475E-02
   152  1.5100000000000E+00  2.3695574409817E-01  5.3203970292179E-02
   153  1.5200000000000E+00  2.3406109463848E-01  4.9066106821770E-02
   154  1.5300000000000E+00  2.3058990458285E-01  4.5176259631106E-02
   155  1.5400000000000E+00  2.2659220161485E-01  4.1524989536877E-02
   156  1.5500000000000E+00  2.2211727429048E-01  3.8102862703651E-02
   157  1.5600000000000E+00  2.1721346786759E-01  3.4900476623573E-02
   158  1.5700000000000E+00  2.1192799505383E-01  3.1908484829122E-02
   159  1.5800000000000E+00  2.0630676220990E-01  2.9117620291400E-02
   160  1.5900000000000E+00  2.0039421144271E-01  2.6518717463471E-02
   161  1.6000000000000E+00  1.9423317892174E-01  2.4102732935369E-02
   162  1.6100000000000E+00  1.8786476965159E-01  2.1860764674462E-02
   163  1.6200000000000E+00  1.8132824883455E-01  1.9784069831798E-02
   164  1.6300000000000E+00  1.7466094986089E-01  1.7864081101968E-02
   165  1.6400000000000E+00  1.6789819887001E-01  1.6092421630791E-02
   166  1.6500000000000E+00  1.6107325573472E-01  1.4460918471690E-02
   167  1.6600000000000E+00  1.5421727123342E-01  1.2961614598074E-02
   168  1.6700000000000E+00  1.4735926009117E-01  1.1586779485228E-02
   169  1.6800000000000E+00  1.4052608949077E-01  1.0328918281190E-02
   170  1.6900000000000E+00  1.3374248258048E-01  9.1807795918188E-03
   171  1.7000000000000E+00  1.2703103643419E-01  8.1353619106514E-03
   172  1.7100000000000E+00  1.2041225385489E-01  7.1859187293512E-03
   173  1.7200000000000E+00  1.1390458835209E-01  6.3259623693296E-03
   174  1.7300000000000E+00  1.0752450156924E-01  5.5492665796271E-03
   175  1.7400000000000E+00  1.0128653238791E-01  4.8498679503247E-03
   176  1.7500000000000E+00  9.5203376891978E-02  4.2220661945432E-03
   177  1.7600000000000E+00  8.9285978337005E-02  3.6604233555509E-03
   178  1.7700000000000E+00  8.3543626237888E-02  3.1597619985550E-03
   179  1.7800000000000E+00  7.7984063660916E-02  2.7151624495099E-03
   180  1.7900000000000E+00  7.2613601785612E-02  2.3219591455594E-03
   181  1.8000000000000E+00  6.7437240785988E-02  1.9757361637256E-03
   182  1.8100000000000E+00  6.2458796070875E-02  1.6723219960229E-03
   183  1.8200000000000E+00  5.7681028918111E-02  1.4077836403919E-03
   184  1.8300000000000E+00  5.3105780537751E-02  1.1784200776858E-03
   185  1.8400000000000E+00  4.8734108604714E-02  9.8075520542148E-04
   186  1.8500000000000E+00  4.4566425311361E-02  8.1153029913180E-04
   187  1.8600000000000E+00  4.0602636005185E-02  6.6769607190950E-04
   188  1.8700000000000E+00  3.6842277495601E-02  5.4640440219213E-04
   189  1.8800000000000E+00  3.3284655324890E-02  4.4499979434730E-04
   190  1.8900000000000E+00  2.9928979315224E-02  3.6101063459018E-04
   191  1.9000000000000E+00  2.6774482072476E-02  2.9214066843434E-04
   192  1.9100000000000E+00  2.3820603620939E-02  2.3625870221159E-04
   193  1.9200000000000E+00  2.1066617816353E-02  1.9140180350169E-04
   194  1.9300000000000E+00  1.8510883507328E-02  1.5578831316002E-04
   195  1.9400000000000E+00  1.6150512033096E-02  1.2782154480624E-04
   196  1.9500000000000E+00  1.3981578585821E-02  1.0608035608391E-04
   197  1.9600000000000E+00  1.1999251390797E-02  8.9311493880457E-05
   198  1.9700000000000E+00  1.0197929726331E-02  7.6422010089710E-05
   199  1.9800000000000E+00  8.5713796181226E-03  6.6467967953269E-05
   200  1.9900000000000E+00  7.1128432923732E-03  5.8657516456495E-05
   201  2.0000000000000E+00  5.8151656479227E-03  5.2328307797789E-05
   202  2.0100000000000E+00  4.6711686396476E-03  4.6774136605427E-05
   203  2.0200000000000E+00  3.6739063416829E-03  4.1170730203291E-05
   204  2.0300000000000E+00  2.8154870206210E-03  3.5399163105532E-05
   205  2.0400000000000E+00  2.0878388133181E-03  2.9503369831910E-05
   206  2.0500000000000E+00  1.4829509793607E-03  2.3565595303209E-05
   207  2.0600000000000E+00  9.9290022103489E-04  1.7739830761771E-05
   208  2.0700000000000E+00  6.0991346255189E-04  1.2243157841991E-05
   209  2.0800000000000E+00  3.2652198012861E-04  7.3577592597645E-06
   210  2.0900000000000E+00  1.3426675044990E-04  3.3854391331503E-06
   211  2.1000000000000E+00  3.0476402807207E-05  8.6613256363870E-07
   212  2.1100000000000E+00 -1.3335112244770E-06 -3.8791581833251E-08
   213  2.1200000000000E+00 -6.6889728013482E-07 -2.1615088384816E-08
   214  2.13  0.  0.
   215  2.14 -0. -0.
   216  2.15  0. -0.
   217  2.16  0.  0.
   218  2.17  0.  0.
   219  2.18  0.  0.
   220  2.19  0.  0.
   221  2.20  0.  0.
   222  2.21  0.  0.
   223  2.22  0.  0.
   224  2.23  0.  0.
   225  2.24  0.  0.
   226  2.25  0.  0.
   227  2.26  0.  0.
   228  2.27  0.  0.
   229  2.28  0.  0.
   230  2.29  0.  0.
   231  2.30  0.  0.
   232  2.31  0.  0.
   233  2.32  0.  0.
   234  2.33  0.  0.
   235  2.34  0.  0.
   236  2.35  0.  0.
   237  2.36  0.  0.
   238  2.37  0.  0.
   239  2.38  0.  0.
   240  2.39  0.  0.
   241  2.40  0.  0.
   242  2.41  0.  0.
   243  2.42  0.  0.
   244  2.43  0.  0.
   245  2.44  0.  0.
   246  2.45  0.  0.
   247  2.46  0.  0.
   248  2.47  0.  0.
   249  2.48  0.  0.
   250  2.49  0.  0.
   251  2.50  0.  0.
   252  2.51  0.  0.
   253  2.52  0.  0.
   254  2.53  0.  0.
   255  2.54  0.  0.
   256  2.55  0.  0.
   257  2.56  0.  0.
   258  2.57  0.  0.
   259  2.58  0.  0.
   260  2.59  0.  0.
   261  2.60  0.  0.
   262  2.61  0.  0.
   263  2.62  0.  0.
   264  2.63  0.  0.
   265  2.64  0.  0.
   266  2.65  0.  0.
   267  2.66  0.  0.
   268  2.67  0.  0.
   269  2.68  0.  0.
   270  2.69  0.  0.
   271  2.70  0.  0.
   272  2.71  0.  0.
   273  2.72  0.  0.
   274  2.73  0.  0.
   275  2.74  0.  0.
   276  2.75  0.  0.
   277  2.76  0.  0.
   278  2.77  0.  0.
   279  2.78  0.  0.
   280  2.79  0.  0.
   281  2.80  0.  0.
   282  2.81  0.  0.
   283  2.82  0.  0.
   284  2.83  0.  0.
   285  2.84  0.  0.
   286  2.85  0.  0.
   287  2.86  0.  0.
   288  2.87  0.  0.
   289  2.88  0.  0.
   290  2.89  0.  0.
   291  2.90  0.  0.
   292  2.91  0.  0.
   293  2.92  0.  0.
   294  2.93  0.  0.
   295  2.94  0.  0.
   296  2.95  0.  0.
   297  2.96  0.  0.
   298  2.97  0.  0.
   299  2.98  0.  0.
   300  2.99  0.  0.
   301  3.00  0.  0.
   302  3.01  0.  0.
   303  3.02  0.  0.
   304  3.03  0.  0.
   305  3.04  0.  0.
   306  3.05  0.  0.
   307  3.06  0.  0.
   308  3.07  0.  0.
   309  3.08  0.  0.
   310  3.09  0.  0.
   311  3.10  0.  0.
   312  3.11  0.  0.
   313  3.12  0.  0.
   314  3.13  0.  0.
   315  3.14  0.  0.
   316  3.15  0.  0.
   317  3.16  0.  0.
   318  3.17  0.  0.
   319  3.18  0.  0.
   320  3.19  0.  0.
   321  3.20  0.  0.
   322  3.21  0.  0.
   323  3.22  0.  0.
   324  3.23  0.  0.
   325  3.24  0.  0.
   326  3.25  0.  0.
   327  3.26  0.  0.
   328  3.27  0.  0.
   329  3.28  0.  0.
   330  3.29  0.  0.
   331  3.30  0.  0.
   332  3.31  0.  0.
   333  3.32  0.  0.
   334  3.33  0.  0.
   335  3.34  0.  0.
   336  3.35  0.  0.
   337  3.36  0.  0.
   338  3.37  0.  0.
   339  3.38  0.  0.
   340  3.39  0.  0.
   341  3.40  0.  0.
   342  3.41  0.  0.
   343  3.42  0.  0.
   344  3.43  0.  0.
   345  3.44  0.  0.
   346  3.45  0.  0.
   347  3.46  0.  0.
   348  3.47  0.  0.
   349  3.48  0.  0.
   350  3.49  0.  0.
   351  3.50  0.  0.
   352  3.51  0.  0.
   353  3.52  0.  0.
   354  3.53  0.  0.
   355  3.54  0.  0.
   356  3.55  0.  0.
   357  3.56  0.  0.
   358  3.57  0.  0.
   359  3.58  0.  0.
   360  3.59  0.  0.
   361  3.60  0.  0.
   362  3.61  0.  0.
   363  3.62  0.  0.
   364  3.63  0.  0.
   365  3.64  0.  0.
   366  3.65  0.  0.
   367  3.66  0.  0.
   368  3.67  0.  0.
   369  3.68  0.  0.
   370  3.69  0.  0.
   371  3.70  0.  0.
   372  3.71  0.  0.
   373  3.72  0.  0.
   374  3.73  0.  0.
   375  3.74  0.  0.
   376  3.75  0.  0.
   377  3.76  0.  0.
   378  3.77  0.  0.
   379  3.78  0.  0.
   380  3.79  0.  0.
   381  3.80  0.  0.
   382  3.81  0.  0.
   383  3.82  0.  0.
   384  3.83  0.  0.
   385  3.84  0.  0.
   386  3.85  0.  0.
   387  3.86  0.  0.
   388  3.87  0.  0.
   389  3.88  0.  0.
   390  3.89  0.  0.
   391  3.90  0.  0.
   392  3.91  0.  0.
   393  3.92  0.  0.
   394  3.93  0.  0.
   395  3.94  0.  0.
   396  3.95  0.  0.
   397  3.96  0.  0.
   398  3.97  0.  0.
   399  3.98  0.  0.
   400  3.99  0.  0.
   401  4.00  0.  0.
   402  4.01  0.  0.
   403  4.02  0.  0.
   404  4.03  0.  0.
   405  4.04  0.  0.
   406  4.05  0.  0.
   407  4.06  0.  0.
   408  4.07  0.  0.
   409  4.08  0.  0.
   410  4.09  0.  0.
   411  4.10  0.  0.
   412  4.11  0.  0.
   413  4.12  0.  0.
   414  4.13  0.  0.
   415  4.14  0.  0.
   416  4.15  0.  0.
   417  4.16  0.  0.
   418  4.17  0.  0.
   419  4.18  0.  0.
   420  4.19  0.  0.
   421  4.20  0.  0.
   422  4.21  0.  0.
   423  4.22  0.  0.
   424  4.23  0.  0.
   425  4.24  0.  0.
   426  4.25  0.  0.
   427  4.26  0.  0.
   428  4.27  0.  0.
   429  4.28  0.  0.
   430  4.29  0.  0.
   431  4.30  0.  0.
   432  4.31  0.  0.
   433  4.32  0.  0.
   434  4.33  0.  0.
   435  4.34  0.  0.
   436  4.35  0.  0.
   437  4.36  0.  0.
   438  4.37  0.  0.
   439  4.38  0.  0.
   440  4.39  0.  0.
   441  4.40  0.  0.
   442  4.41  0.  0.
   443  4.42  0.  0.
   444  4.43  0.  0.
   445  4.44  0.  0.
   446  4.45  0.  0.
   447  4.46  0.  0.
   448  4.47  0.  0.
   449  4.48  0.  0.
   450  4.49  0.  0.
   451  4.50  0.  0.
   452  4.51  0.  0.
   453  4.52  0.  0.
   454  4.53  0.  0.
   455  4.54  0.  0.
   456  4.55  0.  0.
   457  4.56  0.  0.
   458  4.57  0.  0.
   459  4.58  0.  0.
   460  4.59  0.  0.
   461  4.60  0.  0.
   462  4.61  0.  0.
   463  4.62  0.  0.
   464  4.63  0.  0.
   465  4.64  0.  0.
   466  4.65  0.  0.
   467  4.66  0.  0.
   468  4.67  0.  0.
   469  4.68  0.  0.
   470  4.69  0.  0.
   471  4.70  0.  0.
   472  4.71  0.  0.
   473  4.72  0.  0.
   474  4.73  0.  0.
   475  4.74  0.  0.
   476  4.75  0.  0.
   477  4.76  0.  0.
   478  4.77  0.  0.
   479  4.78  0.  0.
   480  4.79  0.  0.
   481  4.80  0.  0.
   482  4.81  0.  0.
   483  4.82  0.  0.
   484  4.83  0.  0.
   485  4.84  0.  0.
   486  4.85  0.  0.
   487  4.86  0.  0.
   488  4.87  0.  0.
   489  4.88  0.  0.
   490  4.89  0.  0.
   491  4.90  0.  0.
   492  4.91  0.  0.
   493  4.92  0.  0.
   494  4.93  0.  0.
   495  4.94  0.  0.
   496  4.95  0.  0.
   497  4.96  0.  0.
   498  4.97  0.  0.
   499  4.98  0.  0.
   500  4.99  0.  0.
   501  5.00  0.  0.
   502  5.01  0.  0.
   503  5.02  0.  0.
   504  5.03  0.  0.
   505  5.04  0.  0.
   506  5.05  0.  0.
   507  5.06  0.  0.
   508  5.07  0.  0.
   509  5.08  0.  0.
   510  5.09  0.  0.
   511  5.10  0.  0.
   512  5.11  0.  0.
   513  5.12  0.  0.
   514  5.13  0.  0.
   515  5.14  0.  0.
   516  5.15  0.  0.
   517  5.16  0.  0.
   518  5.17  0.  0.
   519  5.18  0.  0.
   520  5.19  0.  0.
   521  5.20  0.  0.
   522  5.21  0.  0.
   523  5.22  0.  0.
   524  5.23  0.  0.
   525  5.24  0.  0.
   526  5.25  0.  0.
   527  5.26  0.  0.
   528  5.27  0.  0.
   529  5.28  0.  0.
   530  5.29  0.  0.
   531  5.30  0.  0.
   532  5.31  0.  0.
   533  5.32  0.  0.
   534  5.33  0.  0.
   535  5.34  0.  0.
   536  5.35  0.  0.
   537  5.36  0.  0.
   538  5.37  0.  0.
   539  5.38  0.  0.
   540  5.39  0.  0.
   541  5.40  0.  0.
   542  5.41  0.  0.
   543  5.42  0.  0.
   544  5.43  0.  0.
   545  5.44  0.  0.
   546  5.45  0.  0.
   547  5.46  0.  0.
   548  5.47  0.  0.
   549  5.48  0.  0.
   550  5.49  0.  0.
   551  5.50  0.  0.
   552  5.51  0.  0.
   553  5.52  0.  0.
   554  5.53  0.  0.
   555  5.54  0.  0.
   556  5.55  0.  0.
   557  5.56  0.  0.
   558  5.57  0.  0.
   559  5.58  0.  0.
   560  5.59  0.  0.
   561  5.60  0.  0.
   562  5.61  0.  0.
   563  5.62  0.  0.
   564  5.63  0.  0.
   565  5.64  0.  0.
   566  5.65  0.  0.
   567  5.66  0.  0.
   568  5.67  0.  0.
   569  5.68  0.  0.
   570  5.69  0.  0.
   571  5.70  0.  0.
   572  5.71  0.  0.
   573  5.72  0.  0.
   574  5.73  0.  0.
   575  5.74  0.  0.
   576  5.75  0.  0.
   577  5.76  0.  0.
   578  5.77  0.  0.
   579  5.78  0.  0.
   580  5.79  0.  0.
   581  5.80  0.  0.
   582  5.81  0.  0.
   583  5.82  0.  0.
   584  5.83  0.  0.
   585  5.84  0.  0.
   586  5.85  0.  0.
   587  5.86  0.  0.
   588  5.87  0.  0.
   589  5.88  0.  0.
   590  5.89  0.  0.
   591  5.90  0.  0.
   592  5.91  0.  0.
   593  5.92  0.  0.
   594  5.93  0.  0.
   595  5.94  0.  0.
   596  5.95  0.  0.
   597  5.96  0.  0.
   598  5.97  0.  0.
   599  5.98  0.  0.
   600  5.99  0.  0.
   1                        -3.7040681039642E+00 -3.6410933864109E-01
     1  0.0000000000000E+00  2.3086428602159E-11 -1.3678405630380E-11
     2  1.0000000000000E-02  7.8574196017773E-04 -7.4282848840279E-04
     3  2.0000000000000E-02  3.1411092312791E-03 -2.9686832063269E-03
     4  3.0000000000000E-02  7.0605306779165E-03 -6.6696786142104E-03
     5  4.0000000000000E-02  1.2534736705741E-02 -1.1832694480412E-02
     6  5.0000000000000E-02  1.9550782667372E-02 -1.8439409360060E-02
     7  6.0000000000000E-02  2.8092081548746E-02 -2.6466347419981E-02
     8  7.0000000000000E-02  3.8138445854107E-02 -3.5884938563203E-02
     9  8.0000000000000E-02  4.9666138584753E-02 -4.6661591792784E-02
    10  9.0000000000000E-02  6.2647933183706E-02 -5.8757781739010E-02
    11  1.0000000000000E-01  7.7053182295825E-02 -7.2130148258564E-02
    12  1.1000000000000E-01  9.2847895170414E-02 -8.6730608996858E-02
    13  1.2000000000000E-01  1.0999482351133E-01 -1.0250648478660E-01
    14  1.3000000000000E-01  1.2845355555781E-01 -1.1940063773596E-01
    15  1.4000000000000E-01  1.4818061815802E-01 -1.3735162183880E-01
    16  1.5000000000000E-01  1.6912958657625E-01 -1.5629384591682E-01
    17  1.6000000000000E-01  1.9125120175465E-01 -1.7615774867929E-01
    18  1.7000000000000E-01  2.1449349473023E-01 -1.9686998566059E-01
    19  1.8000000000000E-01  2.3880191788888E-01 -2.1835362776806E-01
    20  1.9000000000000E-01  2.6411948271956E-01 -2.4052837114401E-01
    21  2.0000000000000E-01  2.9038690371383E-01 -2.6331075801476E-01
    22  2.1000000000000E-01  3.1754274803883E-01 -2.8661440816788E-01
    23  2.2000000000000E-01  3.4552359059568E-01 -3.1035026066448E-01
    24  2.3000000000000E-01  3.7426417405934E-01 -3.3442682535888E-01
    25  2.4000000000000E-01  4.0369757348189E-01 -3.5875044376110E-01
    26  2.5000000000000E-01  4.3375536502725E-01 -3.8322555874031E-01
    27  2.6000000000000E-01  4.6436779839272E-01 -4.0775499252876E-01
    28  2.7000000000000E-01  4.9546397246133E-01 -4.3224023244601E-01
    29  2.8000000000000E-01  5.2697201371821E-01 -4.5658172372376E-01
    30  2.9000000000000E-01  5.5881925695514E-01 -4.8067916877068E-01
    31  3.0000000000000E-01  5.9093242777892E-01 -5.0443183217626E-01
    32  3.1000000000000E-01  6.2323782643253E-01 -5.2773885071227E-01
    33  3.2000000000000E-01  6.5566151243234E-01 -5.5049954755042E-01
    34  3.3000000000000E-01  6.8812948952002E-01 -5.7261374987498E-01
    35  3.4000000000000E-01  7.2056789042521E-01 -5.9398210903145E-01
    36  3.5000000000000E-01  7.5290316093304E-01 -6.1450642231445E-01
    37  3.6000000000000E-01  7.8506224275051E-01 -6.3408995546312E-01
    38  3.7000000000000E-01  8.1697275466703E-01 -6.5263776489857E-01
    39  3.8000000000000E-01  8.4856317150707E-01 -6.7005701870643E-01
    40  3.9000000000000E-01  8.7976300037708E-01 -6.8625731533931E-01
    41  4.0000000000000E-01  9.1050295371457E-01 -7.0115099898812E-01
    42  4.1000000000000E-01  9.4071511865440E-01 -7.1465347054845E-01
    43  4.2000000000000E-01  9.7033312223617E-01 -7.2668349308999E-01
    44  4.3000000000000E-01  9.9929229198680E-01 -7.3716349072151E-01
    45  4.4000000000000E-01  1.0275298114242E+00 -7.4601983973332E-01
    46  4.5000000000000E-01  1.0549848700413E+00 -7.5318315089311E-01
    47  4.6000000000000E-01  1.0815988073441E+00 -7.5858854176906E-01
    48  4.7000000000000E-01  1.1073152505346E+00 -7.6217589795815E-01
    49  4.8000000000000E-01  1.1320802454459E+00 -7.6389012210580E-01
    50  4.9000000000000E-01  1.1558423803571E+00 -7.6368136961719E-01
    51  5.0000000000000E-01  1.1785529023345E+00 -7.6150526998039E-01
    52  5.1000000000000E-01  1.2001658257703E+00 -7.5732313264650E-01
    53  5.2000000000000E-01  1.2206380328090E+00 -7.5110213644340E-01
    54  5.3000000000000E-01  1.2399293653792E+00 -7.4281550153630E-01
    55  5.4000000000000E-01  1.2580027085737E+00 -7.3244264299178E-01
    56  5.5000000000000E-01  1.2748240651437E+00 -7.1996930505016E-01
    57  5.6000000000000E-01  1.2903626209061E+00 -7.0538767526625E-01
    58  5.7000000000000E-01  1.3045908008858E+00 -6.8869647773845E-01
    59  5.8000000000000E-01  1.3174843160478E+00 -6.6990104471277E-01
    60  5.9000000000000E-01  1.3290222005010E+00 -6.4901336591937E-01
    61  6.0000000000000E-01  1.3391868390888E+00 -6.2605211507647E-01
    62  6.1000000000000E-01  1.3479639853101E+00 -6.0104265307811E-01
    63  6.2000000000000E-01  1.3553427695467E+00 -5.7401700746889E-01
    64  6.3000000000000E-01  1.3613156976059E+00 -5.4501382789994E-01
    65  6.4000000000000E-01  1.3658786396158E+00 -5.1407831735533E-01
    66  6.5000000000000E-01  1.3690308093462E+00 -4.8126213903697E-01
    67  6.6000000000000E-01  1.3707747340576E+00 -4.4662329889794E-01
    68  6.7000000000000E-01  1.3711162150122E+00 -4.1022600391883E-01
    69  6.8000000000000E-01  1.3700642788144E+00 -3.7214049632883E-01
    70  6.9000000000000E-01  1.3676311197749E+00 -3.3244286408156E-01
    71  7.0000000000000E-01  1.3638320335273E+00 -2.9121482800581E-01
    72  7.1000000000000E-01  1.3586853421526E+00 -2.4854350616132E-01
    73  7.2000000000000E-01  1.3522123110961E+00 -2.0452115604055E-01
    74  7.3000000000000E-01  1.3444370581896E+00 -1.5924489536643E-01
    75  7.4000000000000E-01  1.3353864551182E+00 -1.1281640234480E-01
    76  7.5000000000000E-01  1.3250900216955E+00 -6.5341596336810E-02
    77  7.6000000000000E-01  1.3135798133365E+00 -1.6930300020147E-02
    78  7.7000000000000E-01  1.3008903021393E+00  3.2304115791512E-02
    79  7.8000000000000E-01  1.2870582520076E+00  8.2245103403979E-02
    80  7.9000000000000E-01  1.2721225882665E+00  1.3277332421455E-01
    81  8.0000000000000E-01  1.2561242622413E+00  1.8376704795453E-01
    82  8.1000000000000E-01  1.2391061112846E+00  2.3510256367477E-01
    83  8.2000000000000E-01  1.2211127147526E+00  2.8665460087161E-01
    84  8.3000000000000E-01  1.2021902464418E+00  3.3829675908228E-01
    85  8.4000000000000E-01  1.1823863240095E+00  3.8990194421769E-01
    86  8.5000000000000E-01  1.1617498559079E+00  4.4134280984745E-01
    87  8.6000000000000E-01  1.1403308863689E+00  4.9249220160725E-01
    88  8.7000000000000E-01  1.1181804389801E+00  5.4322360286232E-01
    89  8.8000000000000E-01  1.0953503593948E+00  5.9341157973400E-01
    90  8.9000000000000E-01  1.0718931577174E+00  6.4293222357847E-01
    91  9.0000000000000E-01  1.0478618511039E+00  6.9166358899889E-01
    92  9.1000000000000E-01  1.0233098071134E+00  7.3948612547400E-01