At    ONCVPSP-4.0.1  r_core=   1.40401   1.45532   1.40401   1.50851
85.0000     25.0000      220209    zatom,zion,pspd
8      11   3     4   600     0    pspcod,pspxc,lmax,lloc,mmax,r2well
5.99000000  5.00000000  0.00000000    rchrg fchrg qchrg
2     2     2     1     0    nproj
1     1           extension_switch
0                         9.0179648906185E+00 -3.3468827449137E-01
1  0.0000000000000E+00  1.1897576257525E-09  1.4696075634202E-08
2  1.0000000000000E-02  8.2061428461755E-02  1.9350347424802E-02
3  2.0000000000000E-02  1.6393830580045E-01  3.8881088220467E-02
4  3.0000000000000E-02  2.4544605324506E-01  5.8765698574667E-02
5  4.0000000000000E-02  3.2640004951155E-01  7.9163991318379E-02
6  5.0000000000000E-02  4.0661564118964E-01  1.0021570788689E-01
7  6.0000000000000E-02  4.8590819022786E-01  1.2203460785583E-01
8  7.0000000000000E-02  5.6409316944836E-01  1.4470320417792E-01
9  8.0000000000000E-02  6.4098631583241E-01  1.6826827755043E-01
10  9.0000000000000E-02  7.1640384988048E-01  1.9273728558890E-01
11  1.0000000000000E-01  7.9016276769573E-01  2.1807576206325E-01
12  1.1000000000000E-01  8.6208121060533E-01  2.4420577881591E-01
13  1.2000000000000E-01  9.3197891515864E-01  2.7100551863005E-01
14  1.3000000000000E-01  9.9967774426918E-01  2.9830998178777E-01
15  1.4000000000000E-01  1.0650022981438E+00  3.2591282291872E-01
16  1.5000000000000E-01  1.1277806015143E+00  3.5356928857081E-01
17  1.6000000000000E-01  1.1878448616010E+00  3.8100020031886E-01
18  1.7000000000000E-01  1.2450322892413E+00  4.0789690373798E-01
19  1.8000000000000E-01  1.2991859737517E+00  4.3392708075461E-01
20  1.9000000000000E-01  1.3501558004059E+00  4.5874130226625E-01
21  2.0000000000000E-01  1.3977993979329E+00  4.8198017995782E-01
22  2.1000000000000E-01  1.4419831022170E+00  5.0328196135193E-01
23  2.2000000000000E-01  1.4825829214246E+00  5.2229040065645E-01
24  2.3000000000000E-01  1.5194854871350E+00  5.3866273019026E-01
25  2.4000000000000E-01  1.5525889757121E+00  5.5207755326708E-01
26  2.5000000000000E-01  1.5818039841442E+00  5.6224247950726E-01
27  2.6000000000000E-01  1.6070543448927E+00  5.6890132764830E-01
28  2.7000000000000E-01  1.6282778649330E+00  5.7184072896929E-01
29  2.8000000000000E-01  1.6454269751229E+00  5.7089597627661E-01
30  2.9000000000000E-01  1.6584692772809E+00  5.6595597878035E-01
31  3.0000000000000E-01  1.6673879778758E+00  5.5696720180254E-01
32  3.1000000000000E-01  1.6721821989895E+00  5.4393649170794E-01
33  3.2000000000000E-01  1.6728671591761E+00  5.2693271027931E-01
34  3.3000000000000E-01  1.6694742189725E+00  5.0608712845776E-01
35  3.4000000000000E-01  1.6620507880657E+00  4.8159255637887E-01
36  3.5000000000000E-01  1.6506600934442E+00  4.5370121436577E-01
37  3.6000000000000E-01  1.6353808102199E+00  4.2272137738213E-01
38  3.7000000000000E-01  1.6163065591271E+00  3.8901285278206E-01
39  3.8000000000000E-01  1.5935452769732E+00  3.5298137741181E-01
40  3.9000000000000E-01  1.5672184684455E+00  3.1507204462745E-01
41  4.0000000000000E-01  1.5374603496621E+00  2.7576189403659E-01
42  4.1000000000000E-01  1.5044168956180E+00  2.3555181623836E-01
43  4.2000000000000E-01  1.4682448052098E+00  1.9495794106960E-01
44  4.3000000000000E-01  1.4291103987683E+00  1.5450269047849E-01
45  4.4000000000000E-01  1.3871884639820E+00  1.1470568582927E-01
46  4.5000000000000E-01  1.3426610667191E+00  7.6074703967881E-02
47  4.6000000000000E-01  1.2957163435468E+00  3.9096876609009E-02
48  4.7000000000000E-01  1.2465472927011E+00  4.2303235001374E-03
49  4.8000000000000E-01  1.1953505798669E+00 -2.8103598571424E-02
50  4.9000000000000E-01  1.1423253744109E+00 -5.7527261388110E-02
51  5.0000000000000E-01  1.0876722306761E+00 -8.3712792408416E-02
52  5.1000000000000E-01  1.0315920276185E+00 -1.0638703023709E-01
53  5.2000000000000E-01  9.7428497848117E-01 -1.2533529846547E-01
54  5.3000000000000E-01  9.1594972038575E-01 -1.4040391369720E-01
55  5.4000000000000E-01  8.5678249172140E-01 -1.5150137149911E-01
56  5.5000000000000E-01  7.9697640307133E-01 -1.5859818345939E-01
57  5.6000000000000E-01  7.3672080518308E-01 -1.6172536884721E-01
58  5.7000000000000E-01  6.7620075521316E-01 -1.6097163488614E-01
59  5.8000000000000E-01  6.1559658021061E-01 -1.5647930969294E-01
60  5.9000000000000E-01  5.5508353459871E-01 -1.4843912081892E-01
61  6.0000000000000E-01  4.9483154632045E-01 -1.3708393940151E-01
62  6.1000000000000E-01  4.3500504437922E-01 -1.2268163456334E-01
63  6.2000000000000E-01  3.7576285877708E-01 -1.0552720430482E-01
64  6.3000000000000E-01  3.1725818236838E-01 -8.5934367202850E-02
65  6.4000000000000E-01  2.5963858294262E-01 -6.4226813309275E-02
66  6.5000000000000E-01  2.0304605295537E-01 -4.0729322369109E-02
67  6.6000000000000E-01  1.4761708376253E-01 -1.5758962584260E-02
68  6.7000000000000E-01  9.3482750995155E-02  1.0383416544234E-02
69  6.8000000000000E-01  4.0768797847215E-02  3.7421188317343E-02
70  6.9000000000000E-01 -1.0404296465252E-02  6.5109250284803E-02
71  7.0000000000000E-01 -5.9921274986889E-02  9.3240437498060E-02
72  7.1000000000000E-01 -1.0767209880815E-01  1.2165088051327E-01
73  7.2000000000000E-01 -1.5355198966102E-01  1.5022416364284E-01
74  7.3000000000000E-01 -1.9746152691430E-01  1.7889416513130E-01
75  7.4000000000000E-01 -2.3930680460977E-01  2.0764649019291E-01
76  7.5000000000000E-01 -2.7899965204958E-01  2.3651843958766E-01
77  7.6000000000000E-01 -3.1645791918026E-01  2.6559748995052E-01
78  7.7000000000000E-01 -3.5160582567264E-01  2.9501829670253E-01
79  7.8000000000000E-01 -3.8437437022689E-01  3.2495826530730E-01
80  7.9000000000000E-01 -4.1470179429338E-01  3.5563177111210E-01
81  8.0000000000000E-01 -4.4253409215208E-01  3.8728314125592E-01
82  8.1000000000000E-01 -4.6782555719105E-01  4.2017854337584E-01
83  8.2000000000000E-01 -4.9053935232237E-01  4.5459695437009E-01
84  8.3000000000000E-01 -5.1064809082156E-01  4.9082040760320E-01
85  8.4000000000000E-01 -5.2813441251919E-01  5.2912373805424E-01
86  8.5000000000000E-01 -5.4299153925047E-01  5.6976406147525E-01
87  8.6000000000000E-01 -5.5522379281200E-01  6.1297023520721E-01
88  8.7000000000000E-01 -5.6484705840888E-01  6.5893255455099E-01
89  8.8000000000000E-01 -5.7188917671689E-01  7.0779293928800E-01
90  8.9000000000000E-01 -5.7639024823902E-01  7.5963585997712E-01
91  9.0000000000000E-01 -5.7840283460252E-01  8.1448024303814E-01
92  9.1000000000000E-01 -5.7799204280942E-01  8.7227257749999E-01
93  9.2000000000000E-01 -5.7523548019959E-01  9.3288142490829E-01
94  9.3000000000000E-01 -5.7022306998145E-01  9.9609350762525E-01
95  9.4000000000000E-01 -5.6305671959289E-01  1.0616115201077E+00
96  9.5000000000000E-01 -5.5384983682869E-01  1.1290537733053E+00
97  9.6000000000000E-01 -5.4272669155721E-01  1.1979557447666E+00
98  9.7000000000000E-01 -5.2982162389108E-01  1.2677735671384E+00
99  9.8000000000000E-01 -5.1527810281053E-01  1.3378894463022E+00
100  9.9000000000000E-01 -4.9924764239783E-01  1.4076189583020E+00
101  1.0000000000000E+00 -4.8188858595898E-01  1.4762201323511E+00
102  1.0100000000000E+00 -4.6336477131554E-01  1.5429041864899E+00
103  1.0200000000000E+00 -4.4384409337958E-01  1.6068477437509E+00
104  1.0300000000000E+00 -4.2349698271062E-01  1.6672063208903E+00
105  1.0400000000000E+00 -4.0249482103562E-01  1.7231288496338E+00
106  1.0500000000000E+00 -3.8100831663867E-01  1.7737729626974E+00
107  1.0600000000000E+00 -3.5920586404107E-01  1.8183207542905E+00
108  1.0700000000000E+00 -3.3725191346079E-01  1.8559947078848E+00
109  1.0800000000000E+00 -3.1530537612578E-01  1.8860734732265E+00
110  1.0900000000000E+00 -2.9351809159861E-01  1.9079071701875E+00
111  1.1000000000000E+00 -2.7203338283524E-01  1.9209318992935E+00
112  1.1100000000000E+00 -2.5098472375118E-01  1.9246831476601E+00
113  1.1200000000000E+00 -2.3049454260682E-01  1.9188077945792E+00
114  1.1300000000000E+00 -2.1067318257708E-01  1.9030744428226E+00
115  1.1400000000000E+00 -1.9161803846264E-01  1.8773818295918E+00
116  1.1500000000000E+00 -1.7341288567764E-01  1.8417651043587E+00
117  1.1600000000000E+00 -1.5612741445404E-01  1.7963997991008E+00
118  1.1700000000000E+00 -1.3981697870567E-01  1.7416033587586E+00
119  1.1800000000000E+00 -1.2452256523971E-01  1.6778341455743E+00
120  1.1900000000000E+00 -1.1027098509664E-01  1.6056878789748E+00
121  1.2000000000000E+00 -9.7075284763411E-02  1.5258915225467E+00
122  1.2100000000000E+00 -8.4935370988187E-02  1.4392946795327E+00
123  1.2200000000000E+00 -7.3838838929739E-02  1.3468586081328E+00
124  1.2300000000000E+00 -6.3761989549805E-02  1.2496430158139E+00
125  1.2400000000000E+00 -5.4671018538440E-02  1.1487908373681E+00
126  1.2500000000000E+00 -4.6523355727879E-02  1.0455112436018E+00
127  1.2600000000000E+00 -3.9269130998232E-02  9.4106116503938E-01
128  1.2700000000000E+00 -3.2852740127803E-02  8.3672564761870E-01
129  1.2800000000000E+00 -2.7214481979630E-02  7.3379738391890E-01
130  1.2900000000000E+00 -2.2292236877685E-02  6.3355578354431E-01
131  1.3000000000000E+00 -1.8023155037518E-02  5.3724595955086E-01
132  1.3100000000000E+00 -1.4345321388230E-02  4.4605804340360E-01
133  1.3200000000000E+00 -1.1199388237809E-02  3.6110689888504E-01
134  1.3300000000000E+00 -8.5300405362521E-03  2.8341400871459E-01
135  1.3400000000000E+00 -6.2892512608918E-03  2.1386416426706E-01
136  1.3500000000000E+00 -4.4384332117528E-03  1.5317076058084E-01
137  1.3600000000000E+00 -2.9386218045562E-03  1.0202013496887E-01
138  1.3700000000000E+00 -1.7605209398817E-03  6.0942655000094E-02
139  1.3800000000000E+00 -8.8562522234649E-04  3.0299022391136E-02
140  1.3900000000000E+00 -3.0485896607208E-04  1.0221658995351E-02
141  1.4000000000000E+00 -3.0845186512448E-05  1.0040045734428E-03
142  1.4100000000000E+00  3.4172539156113E-06 -1.0930596101513E-04
143  1.4200000000000E+00 -4.8046376407991E-07  1.5597799600130E-05
144  1.43 -0. -0.
145  1.44  0.  0.
146  1.45  0.  0.
147  1.46  0.  0.
148  1.47  0.  0.
149  1.48  0.  0.
150  1.49  0.  0.
151  1.50  0.  0.
152  1.51  0.  0.
153  1.52  0.  0.
154  1.53  0.  0.
155  1.54  0.  0.
156  1.55  0.  0.
157  1.56  0.  0.
158  1.57  0.  0.
159  1.58  0.  0.
160  1.59  0.  0.
161  1.60  0.  0.
162  1.61  0.  0.
163  1.62  0.  0.
164  1.63  0.  0.
165  1.64  0.  0.
166  1.65  0.  0.
167  1.66  0.  0.
168  1.67  0.  0.
169  1.68  0.  0.
170  1.69  0.  0.
171  1.70  0.  0.
172  1.71  0.  0.
173  1.72  0.  0.
174  1.73  0.  0.
175  1.74  0.  0.
176  1.75  0.  0.
177  1.76  0.  0.
178  1.77  0.  0.
179  1.78  0.  0.
180  1.79  0.  0.
181  1.80  0.  0.
182  1.81  0.  0.
183  1.82  0.  0.
184  1.83  0.  0.
185  1.84  0.  0.
186  1.85  0.  0.
187  1.86  0.  0.
188  1.87  0.  0.
189  1.88  0.  0.
190  1.89  0.  0.
191  1.90  0.  0.
192  1.91  0.  0.
193  1.92  0.  0.
194  1.93  0.  0.
195  1.94  0.  0.
196  1.95  0.  0.
197  1.96  0.  0.
198  1.97  0.  0.
199  1.98  0.  0.
200  1.99  0.  0.
201  2.00  0.  0.
202  2.01  0.  0.
203  2.02  0.  0.
204  2.03  0.  0.
205  2.04  0.  0.
206  2.05  0.  0.
207  2.06  0.  0.
208  2.07  0.  0.
209  2.08  0.  0.
210  2.09  0.  0.
211  2.10  0.  0.
212  2.11  0.  0.
213  2.12  0.  0.
214  2.13  0.  0.
215  2.14  0.  0.
216  2.15  0.  0.
217  2.16  0.  0.
218  2.17  0.  0.
219  2.18  0.  0.
220  2.19  0.  0.
221  2.20  0.  0.
222  2.21  0.  0.
223  2.22  0.  0.
224  2.23  0.  0.
225  2.24  0.  0.
226  2.25  0.  0.
227  2.26  0.  0.
228  2.27  0.  0.
229  2.28  0.  0.
230  2.29  0.  0.
231  2.30  0.  0.
232  2.31  0.  0.
233  2.32  0.  0.
234  2.33  0.  0.
235  2.34  0.  0.
236  2.35  0.  0.
237  2.36  0.  0.
238  2.37  0.  0.
239  2.38  0.  0.
240  2.39  0.  0.
241  2.40  0.  0.
242  2.41  0.  0.
243  2.42  0.  0.
244  2.43  0.  0.
245  2.44  0.  0.
246  2.45  0.  0.
247  2.46  0.  0.
248  2.47  0.  0.
249  2.48  0.  0.
250  2.49  0.  0.
251  2.50  0.  0.
252  2.51  0.  0.
253  2.52  0.  0.
254  2.53  0.  0.
255  2.54  0.  0.
256  2.55  0.  0.
257  2.56  0.  0.
258  2.57  0.  0.
259  2.58  0.  0.
260  2.59  0.  0.
261  2.60  0.  0.
262  2.61  0.  0.
263  2.62  0.  0.
264  2.63  0.  0.
265  2.64  0.  0.
266  2.65  0.  0.
267  2.66  0.  0.
268  2.67  0.  0.
269  2.68  0.  0.
270  2.69  0.  0.
271  2.70  0.  0.
272  2.71  0.  0.
273  2.72  0.  0.
274  2.73  0.  0.
275  2.74  0.  0.
276  2.75  0.  0.
277  2.76  0.  0.
278  2.77  0.  0.
279  2.78  0.  0.
280  2.79  0.  0.
281  2.80  0.  0.
282  2.81  0.  0.
283  2.82  0.  0.
284  2.83  0.  0.
285  2.84  0.  0.
286  2.85  0.  0.
287  2.86  0.  0.
288  2.87  0.  0.
289  2.88  0.  0.
290  2.89  0.  0.
291  2.90  0.  0.
292  2.91  0.  0.
293  2.92  0.  0.
294  2.93  0.  0.
295  2.94  0.  0.
296  2.95  0.  0.
297  2.96  0.  0.
298  2.97  0.  0.
299  2.98  0.  0.
300  2.99  0.  0.
301  3.00  0.  0.
302  3.01  0.  0.
303  3.02  0.  0.
304  3.03  0.  0.
305  3.04  0.  0.
306  3.05  0.  0.
307  3.06  0.  0.
308  3.07  0.  0.
309  3.08  0.  0.
310  3.09  0.  0.
311  3.10  0.  0.
312  3.11  0.  0.
313  3.12  0.  0.
314  3.13  0.  0.
315  3.14  0.  0.
316  3.15  0.  0.
317  3.16  0.  0.
318  3.17  0.  0.
319  3.18  0.  0.
320  3.19  0.  0.
321  3.20  0.  0.
322  3.21  0.  0.
323  3.22  0.  0.
324  3.23  0.  0.
325  3.24  0.  0.
326  3.25  0.  0.
327  3.26  0.  0.
328  3.27  0.  0.
329  3.28  0.  0.
330  3.29  0.  0.
331  3.30  0.  0.
332  3.31  0.  0.
333  3.32  0.  0.
334  3.33  0.  0.
335  3.34  0.  0.
336  3.35  0.  0.
337  3.36  0.  0.
338  3.37  0.  0.
339  3.38  0.  0.
340  3.39  0.  0.
341  3.40  0.  0.
342  3.41  0.  0.
343  3.42  0.  0.
344  3.43  0.  0.
345  3.44  0.  0.
346  3.45  0.  0.
347  3.46  0.  0.
348  3.47  0.  0.
349  3.48  0.  0.
350  3.49  0.  0.
351  3.50  0.  0.
352  3.51  0.  0.
353  3.52  0.  0.
354  3.53  0.  0.
355  3.54  0.  0.
356  3.55  0.  0.
357  3.56  0.  0.
358  3.57  0.  0.
359  3.58  0.  0.
360  3.59  0.  0.
361  3.60  0.  0.
362  3.61  0.  0.
363  3.62  0.  0.
364  3.63  0.  0.
365  3.64  0.  0.
366  3.65  0.  0.
367  3.66  0.  0.
368  3.67  0.  0.
369  3.68  0.  0.
370  3.69  0.  0.
371  3.70  0.  0.
372  3.71  0.  0.
373  3.72  0.  0.
374  3.73  0.  0.
375  3.74  0.  0.
376  3.75  0.  0.
377  3.76  0.  0.
378  3.77  0.  0.
379  3.78  0.  0.
380  3.79  0.  0.
381  3.80  0.  0.
382  3.81  0.  0.
383  3.82  0.  0.
384  3.83  0.  0.
385  3.84  0.  0.
386  3.85  0.  0.
387  3.86  0.  0.
388  3.87  0.  0.
389  3.88  0.  0.
390  3.89  0.  0.
391  3.90  0.  0.
392  3.91  0.  0.
393  3.92  0.  0.
394  3.93  0.  0.
395  3.94  0.  0.
396  3.95  0.  0.
397  3.96  0.  0.
398  3.97  0.  0.
399  3.98  0.  0.
400  3.99  0.  0.
401  4.00  0.  0.
402  4.01  0.  0.
403  4.02  0.  0.
404  4.03  0.  0.
405  4.04  0.  0.
406  4.05  0.  0.
407  4.06  0.  0.
408  4.07  0.  0.
409  4.08  0.  0.
410  4.09  0.  0.
411  4.10  0.  0.
412  4.11  0.  0.
413  4.12  0.  0.
414  4.13  0.  0.
415  4.14  0.  0.
416  4.15  0.  0.
417  4.16  0.  0.
418  4.17  0.  0.
419  4.18  0.  0.
420  4.19  0.  0.
421  4.20  0.  0.
422  4.21  0.  0.
423  4.22  0.  0.
424  4.23  0.  0.
425  4.24  0.  0.
426  4.25  0.  0.
427  4.26  0.  0.
428  4.27  0.  0.
429  4.28  0.  0.
430  4.29  0.  0.
431  4.30  0.  0.
432  4.31  0.  0.
433  4.32  0.  0.
434  4.33  0.  0.
435  4.34  0.  0.
436  4.35  0.  0.
437  4.36  0.  0.
438  4.37  0.  0.
439  4.38  0.  0.
440  4.39  0.  0.
441  4.40  0.  0.
442  4.41  0.  0.
443  4.42  0.  0.
444  4.43  0.  0.
445  4.44  0.  0.
446  4.45  0.  0.
447  4.46  0.  0.
448  4.47  0.  0.
449  4.48  0.  0.
450  4.49  0.  0.
451  4.50  0.  0.
452  4.51  0.  0.
453  4.52  0.  0.
454  4.53  0.  0.
455  4.54  0.  0.
456  4.55  0.  0.
457  4.56  0.  0.
458  4.57  0.  0.
459  4.58  0.  0.
460  4.59  0.  0.
461  4.60  0.  0.
462  4.61  0.  0.
463  4.62  0.  0.
464  4.63  0.  0.
465  4.64  0.  0.
466  4.65  0.  0.
467  4.66  0.  0.
468  4.67  0.  0.
469  4.68  0.  0.
470  4.69  0.  0.
471  4.70  0.  0.
472  4.71  0.  0.
473  4.72  0.  0.
474  4.73  0.  0.
475  4.74  0.  0.
476  4.75  0.  0.
477  4.76  0.  0.
478  4.77  0.  0.
479  4.78  0.  0.
480  4.79  0.  0.
481  4.80  0.  0.
482  4.81  0.  0.
483  4.82  0.  0.
484  4.83  0.  0.
485  4.84  0.  0.
486  4.85  0.  0.
487  4.86  0.  0.
488  4.87  0.  0.
489  4.88  0.  0.
490  4.89  0.  0.
491  4.90  0.  0.
492  4.91  0.  0.
493  4.92  0.  0.
494  4.93  0.  0.
495  4.94  0.  0.
496  4.95  0.  0.
497  4.96  0.  0.
498  4.97  0.  0.
499  4.98  0.  0.
500  4.99  0.  0.
501  5.00  0.  0.
502  5.01  0.  0.
503  5.02  0.  0.
504  5.03  0.  0.
505  5.04  0.  0.
506  5.05  0.  0.
507  5.06  0.  0.
508  5.07  0.  0.
509  5.08  0.  0.
510  5.09  0.  0.
511  5.10  0.  0.
512  5.11  0.  0.
513  5.12  0.  0.
514  5.13  0.  0.
515  5.14  0.  0.
516  5.15  0.  0.
517  5.16  0.  0.
518  5.17  0.  0.
519  5.18  0.  0.
520  5.19  0.  0.
521  5.20  0.  0.
522  5.21  0.  0.
523  5.22  0.  0.
524  5.23  0.  0.
525  5.24  0.  0.
526  5.25  0.  0.
527  5.26  0.  0.
528  5.27  0.  0.
529  5.28  0.  0.
530  5.29  0.  0.
531  5.30  0.  0.
532  5.31  0.  0.
533  5.32  0.  0.
534  5.33  0.  0.
535  5.34  0.  0.
536  5.35  0.  0.
537  5.36  0.  0.
538  5.37  0.  0.
539  5.38  0.  0.
540  5.39  0.  0.
541  5.40  0.  0.
542  5.41  0.  0.
543  5.42  0.  0.
544  5.43  0.  0.
545  5.44  0.  0.
546  5.45  0.  0.
547  5.46  0.  0.
548  5.47  0.  0.
549  5.48  0.  0.
550  5.49  0.  0.
551  5.50  0.  0.
552  5.51  0.  0.
553  5.52  0.  0.
554  5.53  0.  0.
555  5.54  0.  0.
556  5.55  0.  0.
557  5.56  0.  0.
558  5.57  0.  0.
559  5.58  0.  0.
560  5.59  0.  0.
561  5.60  0.  0.
562  5.61  0.  0.
563  5.62  0.  0.
564  5.63  0.  0.
565  5.64  0.  0.
566  5.65  0.  0.
567  5.66  0.  0.
568  5.67  0.  0.
569  5.68  0.  0.
570  5.69  0.  0.
571  5.70  0.  0.
572  5.71  0.  0.
573  5.72  0.  0.
574  5.73  0.  0.
575  5.74  0.  0.
576  5.75  0.  0.
577  5.76  0.  0.
578  5.77  0.  0.
579  5.78  0.  0.
580  5.79  0.  0.
581  5.80  0.  0.
582  5.81  0.  0.
583  5.82  0.  0.
584  5.83  0.  0.
585  5.84  0.  0.
586  5.85  0.  0.
587  5.86  0.  0.
588  5.87  0.  0.
589  5.88  0.  0.
590  5.89  0.  0.
591  5.90  0.  0.
592  5.91  0.  0.
593  5.92  0.  0.
594  5.93  0.  0.
595  5.94  0.  0.
596  5.95  0.  0.
597  5.96  0.  0.
598  5.97  0.  0.
599  5.98  0.  0.
600  5.99  0.  0.
1                         4.0974966311197E+00 -2.1000887734510E-01
1  0.0000000000000E+00 -7.7443534779453E-09 -3.9236522059172E-08
2  1.0000000000000E-02  1.6826021655986E-03 -9.1693483541522E-04
3  2.0000000000000E-02  6.7288763320954E-03 -3.6328511085924E-03
4  3.0000000000000E-02  1.5134067254582E-02 -8.0440335534689E-03
5  4.0000000000000E-02  2.6889726811642E-02 -1.3980763924439E-02
6  5.0000000000000E-02  4.1982946616631E-02 -2.1211947527798E-02
7  6.0000000000000E-02  6.0395316608283E-02 -2.9451423966690E-02
8  7.0000000000000E-02  8.2101641568594E-02 -3.8365800623586E-02
9  8.0000000000000E-02  1.0706845526026E-01 -4.7583608167804E-02
10  9.0000000000000E-02  1.3525237862753E-01 -5.6705543088256E-02
11  1.0000000000000E-01  1.6659837409219E-01 -6.5315533763217E-02
12  1.1000000000000E-01  2.0103795225508E-01 -7.2992344607028E-02
13  1.2000000000000E-01  2.3848739017221E-01 -7.9321417934034E-02
14  1.3000000000000E-01  2.7884602173129E-01 -8.3906645741721E-02
15  1.4000000000000E-01  3.2199466046843E-01 -8.6381763847838E-02
16  1.5000000000000E-01  3.6779421342722E-01 -8.6421068741740E-02
17  1.6000000000000E-01  4.1608454140597E-01 -8.3749172968208E-02
18  1.7000000000000E-01  4.6668361622840E-01 -7.8149537504936E-02
19  1.8000000000000E-01  5.1938701961364E-01 -6.9471548903039E-02
20  1.9000000000000E-01  5.7396782094625E-01 -5.7635944247643E-02
21  2.0000000000000E-01  6.3017686292195E-01 -4.2638427430083E-02
22  2.1000000000000E-01  6.8774347486195E-01 -2.4551364841868E-02
23  2.2000000000000E-01  7.4637662366012E-01 -3.5234963350699E-03
24  2.3000000000000E-01  8.0576650208374E-01  2.0222353007575E-02
25  2.4000000000000E-01  8.6558654373136E-01  4.6393524291830E-02
26  2.5000000000000E-01  9.2549584360815E-01  7.4633653434326E-02
27  2.6000000000000E-01  9.8514195325798E-01  1.0453054272060E-01
28  2.7000000000000E-01  1.0441640099340E+00  1.3562559564741E-01
29  2.8000000000000E-01  1.1021961506280E+00  1.6742459405149E-01
30  2.9000000000000E-01  1.1588711541237E+00  1.9940956026192E-01
31  3.0000000000000E-01  1.2138242477908E+00  2.3105141676531E-01
32  3.1000000000000E-01  1.2666970107458E+00  2.6182313243738E-01
33  3.2000000000000E-01  1.3171413014260E+00  2.9121302840921E-01
34  3.3000000000000E-01  1.3648231356389E+00  3.1873790856659E-01
35  3.4000000000000E-01  1.4094264408319E+00  3.4395567980421E-01
36  3.5000000000000E-01  1.4506566137061E+00  3.6647713555584E-01
37  3.6000000000000E-01  1.4882438113453E+00  3.8597659268096E-01
38  3.7000000000000E-01  1.5219459107143E+00  4.0220109619545E-01
39  3.8000000000000E-01  1.5515510775850E+00  4.1497793808163E-01
40  3.9000000000000E-01  1.5768798935656E+00  4.2422027481423E-01
41  4.0000000000000E-01  1.5977869987598E+00  4.2993067243882E-01
42  4.1000000000000E-01  1.6141622174885E+00  4.3220245703234E-01
43  4.2000000000000E-01  1.6259311452353E+00  4.3121880103225E-01
44  4.3000000000000E-01  1.6330551863020E+00  4.2724953100770E-01
45  4.4000000000000E-01  1.6355310433072E+00  4.2064569866052E-01
46  4.5000000000000E-01  1.6333896713829E+00  4.1183201283486E-01
47  4.6000000000000E-01  1.6266947214333E+00  4.0129728472693E-01
48  4.7000000000000E-01  1.6155405078584E+00  3.8958308997912E-01
49  4.8000000000000E-01  1.6000495464502E+00  3.7727089863396E-01
50  4.9000000000000E-01  1.5803697174921E+00  3.6496796580992E-01
51  5.0000000000000E-01  1.5566711172151E+00  3.5329231135741E-01
52  5.1000000000000E-01  1.5291426674849E+00  3.4285714471291E-01
53  5.2000000000000E-01  1.4979885587415E+00  3.3425511091006E-01
54  5.3000000000000E-01  1.4634246046627E+00  3.2804274463442E-01
55  5.4000000000000E-01  1.4256745886742E+00  3.2472552092872E-01
56  5.5000000000000E-01  1.3849666822312E+00  3.2474388348962E-01
57  5.6000000000000E-01  1.3415300127397E+00  3.2846061448626E-01
58  5.7000000000000E-01  1.2955914551059E+00  3.3614988373912E-01
59  5.8000000000000E-01  1.2473727152662E+00  3.4798828041247E-01
60  5.9000000000000E-01  1.1970877667932E+00  3.6404808778601E-01
61  6.0000000000000E-01  1.1449406929307E+00  3.8429301207973E-01
62  6.1000000000000E-01  1.0911239763990E+00  4.0857652077944E-01
63  6.2000000000000E-01  1.0358172682382E+00  4.3664288567997E-01
64  6.3000000000000E-01  9.7918665508380E-01  4.6813096228864E-01
65  6.4000000000000E-01  9.2138443186998E-01  5.0258067176875E-01
66  6.5000000000000E-01  8.6254937431344E-01  5.3944208577977E-01
67  6.6000000000000E-01  8.0280749295112E-01  5.7808694994343E-01
68  6.7000000000000E-01  7.4227323828145E-01  6.1782241978278E-01
69  6.8000000000000E-01  6.8105111498809E-01  6.5790672535963E-01
70  6.9000000000000E-01  6.1923765258835E-01  6.9756642890545E-01
71  7.0000000000000E-01  5.5692367040867E-01  7.3601489482316E-01
72  7.1000000000000E-01  4.9419676678387E-01  7.7247155471403E-01
73  7.2000000000000E-01  4.3114395601212E-01  8.0618152255213E-01
74  7.3000000000000E-01  3.6785437204239E-01  8.3643509759615E-01
75  7.4000000000000E-01  3.0442195525664E-01  8.6258668567383E-01
76  7.5000000000000E-01  2.4094803811707E-01  8.8407267344014E-01
77  7.6000000000000E-01  1.7754374692059E-01  9.0042780518934E-01
78  7.7000000000000E-01  1.1433214042491E-01  9.1129963762776E-01
79  7.8000000000000E-01  5.1450011627470E-02  9.1646068427162E-01
80  7.9000000000000E-01 -1.0950713618874E-02  9.1581790714988E-01
81  8.0000000000000E-01 -7.2702038331623E-02  9.0941926836143E-01
82  8.1000000000000E-01 -1.3361946296652E-01  8.9745711662903E-01
83  8.2000000000000E-01 -1.9350209534429E-01  8.8026825298880E-01
84  8.3000000000000E-01 -2.5213332343000E-01  8.5833059365473E-01
85  8.4000000000000E-01 -3.0928205869157E-01  8.3225642528112E-01
86  8.5000000000000E-01 -3.6470454356813E-01  8.0278232657087E-01
87  8.6000000000000E-01 -4.1814670228641E-01  7.7075590866112E-01
88  8.7000000000000E-01 -4.6934700020800E-01  7.3711960313790E-01
89  8.8000000000000E-01 -5.1803976341050E-01  7.0289179909806E-01
90  8.9000000000000E-01 -5.6395889762541E-01  6.6914569765779E-01
91  9.0000000000000E-01 -6.0684193428603E-01  6.3698631206742E-01
92  9.1000000000000E-01 -6.4643432156313E-01  6.0752609265597E-01
93  9.2000000000000E-01 -6.8249387014058E-01  5.8185969687403E-01
94  9.3000000000000E-01 -7.1479525732238E-01  5.6103845464070E-01
95  9.4000000000000E-01 -7.4313448904076E-01  5.4604509716838E-01
96  9.5000000000000E-01 -7.6733321757806E-01  5.3776932283623E-01
97  9.6000000000000E-01 -7.8724281339836E-01  5.3698476619852E-01
98  9.7000000000000E-01 -8.0274809242782E-01  5.4432791581683E-01
99  9.8000000000000E-01 -8.1377060539652E-01  5.6027949355553E-01
100  9.9000000000000E-01 -8.2027140336859E-01  5.8514876284428E-01
101  1.0000000000000E+00 -8.2225320320294E-01  6.1906117702924E-01
102  1.0100000000000E+00 -8.1976188821079E-01  6.6194971243112E-01
103  1.0200000000000E+00 -8.1288729248204E-01  7.1355015539781E-01
104  1.0300000000000E+00 -8.0176323194774E-01  7.7340053013337E-01
105  1.0400000000000E+00 -7.8656676091849E-01  8.4084476615621E-01
106  1.0500000000000E+00 -7.6751664927285E-01  9.1504061262989E-01
107  1.0600000000000E+00 -7.4487109225356E-01  9.9497171380913E-01
108  1.0700000000000E+00 -7.1892468162846E-01  1.0794636672739E+00
109  1.0800000000000E+00 -6.9000468340533E-01  1.1672037965816E+00
110  1.0900000000000E+00 -6.5846668292222E-01  1.2567642848034E+00
111  1.1000000000000E+00 -6.2468967271306E-01  1.3466282364966E+00
112  1.1100000000000E+00 -5.8907067159628E-01  1.4352181655743E+00
113  1.1200000000000E+00 -5.5201897476831E-01  1.5209263462341E+00
114  1.1300000000000E+00 -5.1395014392696E-01  1.6021464156092E+00
115  1.1400000000000E+00 -4.7527985344189E-01  1.6773055809512E+00
116  1.1500000000000E+00 -4.3641771310203E-01  1.7448967621168E+00
117  1.1600000000000E+00 -3.9776118990326E-01  1.8035099924243E+00
118  1.1700000000000E+00 -3.5968975061135E-01  1.8518624079380E+00
119  1.1800000000000E+00 -3.2255934342256E-01  1.8888261770186E+00
120  1.1900000000000E+00 -2.8669733104554E-01  1.9134537579246E+00
121  1.2000000000000E+00 -2.5239797894719E-01  1.9249999223160E+00
122  1.2100000000000E+00 -2.1991859167751E-01  1.9229400447686E+00
123  1.2200000000000E+00 -1.8947637711798E-01  1.9069842328281E+00
124  1.2300000000000E+00 -1.6124610366235E-01  1.8770869560229E+00
125  1.2400000000000E+00 -1.3535859893649E-01  1.8334519244990E+00
126  1.2500000000000E+00 -1.1190012100295E-01  1.7765320668339E+00
127  1.2600000000000E+00 -9.0912614656182E-02  1.7070245588947E+00
128  1.2700000000000E+00 -7.2394846533530E-02  1.6258609605835E+00
129  1.2800000000000E+00 -5.6304393937715E-02  1.5341926216826E+00
130  1.2900000000000E+00 -4.2560443915491E-02  1.4333716194271E+00
131  1.3000000000000E+00 -3.1047341497165E-02  1.3249275876216E+00
132  1.3100000000000E+00 -2.1618809657982E-02  1.2105408868697E+00
133  1.3200000000000E+00 -1.4102748807041E-02  1.0920126462080E+00
134  1.3300000000000E+00 -8.3065107377970E-03  9.7123227652625E-01
135  1.3400000000000E+00 -4.0225313237492E-03  8.5014311377241E-01
136  1.3500000000000E+00 -1.0341980764109E-03  7.3070689366722E-01
137  1.3600000000000E+00  8.7818459872568E-04  6.1486781113118E-01
138  1.3700000000000E+00  1.9313978655236E-03  5.0451671730066E-01
139  1.3800000000000E+00  2.3336918769710E-03  4.0145701692281E-01
140  1.3900000000000E+00  2.2703284357144E-03  3.0734556911830E-01
141  1.4000000000000E+00  1.9017412537792E-03  2.2366809562305E-01
142  1.4100000000000E+00  1.3918113720485E-03  1.5181097934458E-01
143  1.4200000000000E+00  8.7283282556161E-04  9.2946350152756E-02
144  1.4300000000000E+00  4.4037004717814E-04  4.7995986218541E-02
145  1.4400000000000E+00  1.4967702102113E-04  1.7551728032377E-02
146  1.4500000000000E+00  1.7307398860514E-05  2.3360115549068E-03
147  1.4600000000000E+00 -1.6675740718039E-06 -2.5107682554637E-04
148  1.4700000000000E+00  4.7404039708828E-07  6.5822058513741E-05
149  1.48 -0. -0.
150  1.49 -0.  0.
151  1.50  0.  0.
152  1.51  0.  0.
153  1.52  0.  0.
154  1.53  0.  0.
155  1.54  0.  0.
156  1.55  0.  0.
157  1.56  0.  0.
158  1.57  0.  0.
159  1.58  0.  0.
160  1.59  0.  0.
161  1.60  0.  0.
162  1.61  0.  0.
163  1.62  0.  0.
164  1.63  0.  0.
165  1.64  0.  0.
166  1.65  0.  0.
167  1.66  0.  0.
168  1.67  0.  0.
169  1.68  0.  0.
170  1.69  0.  0.
171  1.70  0.  0.
172  1.71  0.  0.
173  1.72  0.  0.
174  1.73  0.  0.
175  1.74  0.  0.
176  1.75  0.  0.
177  1.76  0.  0.
178  1.77  0.  0.
179  1.78  0.  0.
180  1.79  0.  0.
181  1.80  0.  0.
182  1.81  0.  0.
183  1.82  0.  0.
184  1.83  0.  0.
185  1.84  0.  0.
186  1.85  0.  0.
187  1.86  0.  0.
188  1.87  0.  0.
189  1.88  0.  0.
190  1.89  0.  0.
191  1.90  0.  0.
192  1.91  0.  0.
193  1.92  0.  0.
194  1.93  0.  0.
195  1.94  0.  0.
196  1.95  0.  0.
197  1.96  0.  0.
198  1.97  0.  0.
199  1.98  0.  0.
200  1.99  0.  0.
201  2.00  0.  0.
202  2.01  0.  0.
203  2.02  0.  0.
204  2.03  0.  0.
205  2.04  0.  0.
206  2.05  0.  0.
207  2.06  0.  0.
208  2.07  0.  0.
209  2.08  0.  0.
210  2.09  0.  0.
211  2.10  0.  0.
212  2.11  0.  0.
213  2.12  0.  0.
214  2.13  0.  0.
215  2.14  0.  0.
216  2.15  0.  0.
217  2.16  0.  0.
218  2.17  0.  0.
219  2.18  0.  0.
220  2.19  0.  0.
221  2.20  0.  0.
222  2.21  0.  0.
223  2.22  0.  0.
224  2.23  0.  0.
225  2.24  0.  0.
226  2.25  0.  0.
227  2.26  0.  0.
228  2.27  0.  0.
229  2.28  0.  0.
230  2.29  0.  0.
231  2.30  0.  0.
232  2.31  0.  0.
233  2.32  0.  0.
234  2.33  0.  0.
235  2.34  0.  0.
236  2.35  0.  0.
237  2.36  0.  0.
238  2.37  0.  0.
239  2.38  0.  0.
240  2.39  0.  0.
241  2.40  0.  0.
242  2.41  0.  0.
243  2.42  0.  0.
244  2.43  0.  0.
245  2.44  0.  0.
246  2.45  0.  0.
247  2.46  0.  0.
248  2.47  0.  0.
249  2.48  0.  0.
250  2.49  0.  0.
251  2.50  0.  0.
252  2.51  0.  0.
253  2.52  0.  0.
254  2.53  0.  0.
255  2.54  0.  0.
256  2.55  0.  0.
257  2.56  0.  0.
258  2.57  0.  0.
259  2.58  0.  0.
260  2.59  0.  0.
261  2.60  0.  0.