At    ONCVPSP-4.0.1  r_core=   1.40401   1.45532   1.40401   1.40401
85.0000     25.0000      220209    zatom,zion,pspd
8      11   3     4   600     0    pspcod,pspxc,lmax,lloc,mmax,r2well
5.99000000  5.00000000  0.00000000    rchrg fchrg qchrg
2     2     2     1     0    nproj
1     1           extension_switch
0                         1.7734440959820E+01  2.5609188053300E+00
1  0.0000000000000E+00  4.7020352056393E-09 -8.9944209077236E-09
2  1.0000000000000E-02  8.1968316647343E-02  2.4451930675576E-03
3  2.0000000000000E-02  1.6381156150022E-01  4.7981401878315E-03
4  3.0000000000000E-02  2.4540275786203E-01  6.9709570810966E-03
5  4.0000000000000E-02  3.2661117479835E-01  8.8843758304258E-03
6  5.0000000000000E-02  4.0730058769302E-01  1.0471788006940E-02
7  6.0000000000000E-02  4.8732770056597E-01  1.1682976325665E-02
8  7.0000000000000E-02  5.6654077840522E-01  1.2487441853379E-02
9  8.0000000000000E-02  6.4477853306348E-01  1.2877242784279E-02
10  9.0000000000000E-02  7.2186930058376E-01  1.2869271673683E-02
11  1.0000000000000E-01  7.9763054127032E-01  1.2506910539922E-02
12  1.1000000000000E-01  8.7186868655167E-01  1.1861017139934E-02
13  1.2000000000000E-01  9.4437934884688E-01  1.1030210694635E-02
14  1.3000000000000E-01  1.0149479024145E+00  1.0140441061642E-02
15  1.4000000000000E-01  1.0833504347117E+00  9.3438414846946E-03
16  1.5000000000000E-01  1.1493550593015E+00  8.8168812400967E-03
17  1.6000000000000E-01  1.2127235730070E+00  8.7578503978322E-03
18  1.7000000000000E-01  1.2732134319939E+00  9.3837241706765E-03
19  1.8000000000000E-01  1.3305800139559E+00  1.0926468603829E-02
20  1.9000000000000E-01  1.3845791267321E+00  1.3628862344178E-02
21  2.0000000000000E-01  1.4349697176620E+00  1.7739920634618E-02
22  2.1000000000000E-01  1.4815167329133E+00  2.3510017248095E-02
23  2.2000000000000E-01  1.5239940720083E+00  3.1185807591884E-02
24  2.3000000000000E-01  1.5621875799340E+00  4.1005061500296E-02
25  2.4000000000000E-01  1.5958980175913E+00  5.3191517168224E-02
26  2.5000000000000E-01  1.6249439509916E+00  6.7949868181111E-02
27  2.6000000000000E-01  1.6491645005269E+00  8.5460993646768E-02
28  2.7000000000000E-01  1.6684218938373E+00  1.0587753705829E-01
29  2.8000000000000E-01  1.6826037692149E+00  1.2931993279894E-01
30  2.9000000000000E-01  1.6916251810625E+00  1.5587297027108E-01
31  3.0000000000000E-01  1.6954302645676E+00  1.8558297467471E-01
32  3.1000000000000E-01  1.6939935233477E+00  2.1845567070519E-01
33  3.2000000000000E-01  1.6873207112254E+00  2.5445478115035E-01
34  3.3000000000000E-01  1.6754492873559E+00  2.9350139685023E-01
35  3.4000000000000E-01  1.6584484324766E+00  3.3547413806830E-01
36  3.5000000000000E-01  1.6364186228939E+00  3.8021011036708E-01
37  3.6000000000000E-01  1.6094907677903E+00  4.2750664095113E-01
38  3.7000000000000E-01  1.5778249243068E+00  4.7712376451259E-01
39  3.8000000000000E-01  1.5416086134653E+00  5.2878741126268E-01
40  3.9000000000000E-01  1.5010547681305E+00  5.8219323442076E-01
41  4.0000000000000E-01  1.4563993517069E+00  6.3701100030796E-01
42  4.1000000000000E-01  1.4078986929493E+00  6.9288945167610E-01
43  4.2000000000000E-01  1.3558265879819E+00  7.4946154428361E-01
44  4.3000000000000E-01  1.3004712252527E+00  8.0634994825842E-01
45  4.4000000000000E-01  1.2421319925680E+00  8.6317269966731E-01
46  4.5000000000000E-01  1.1811162275005E+00  9.1954888409735E-01
47  4.6000000000000E-01  1.1177359732650E+00  9.7510423304807E-01
48  4.7000000000000E-01  1.0523048015969E+00  1.0294765155781E+00
49  4.8000000000000E-01  9.8513476225401E-01  1.0823206119306E+00
50  4.9000000000000E-01  9.1653351551782E-01  1.1333131627102E+00
51  5.0000000000000E-01  8.4680169957246E-01  1.1821566964612E+00
52  5.1000000000000E-01  7.7623057897009E-01  1.2285831500314E+00
53  5.2000000000000E-01  7.0510001367826E-01  1.2723567096396E+00
54  5.3000000000000E-01  6.3367678058696E-01  1.3132759158375E+00
55  5.4000000000000E-01  5.6221327099914E-01  1.3511749922166E+00
56  5.5000000000000E-01  4.9094657872023E-01  1.3859243754182E+00
57  5.6000000000000E-01  4.2009798409963E-01  1.4174304423547E+00
58  5.7000000000000E-01  3.4987282996649E-01  1.4456344491443E+00
59  5.8000000000000E-01  2.8046077605824E-01  1.4705107146789E+00
60  5.9000000000000E-01  2.1203640947664E-01  1.4920640995625E+00
61  6.0000000000000E-01  1.4476018013409E-01  1.5103268479735E+00
62  6.1000000000000E-01  7.8779622272740E-02  1.5253548754141E+00
63  6.2000000000000E-01  1.4230816140316E-02  1.5372235989523E+00
64  6.3000000000000E-01 -4.8759962039976E-02  1.5460234181073E+00
65  6.4000000000000E-01 -1.1007445841505E-01  1.5518549636786E+00
66  6.5000000000000E-01 -1.6960058819413E-01  1.5548242383432E+00
67  6.6000000000000E-01 -2.2723057272162E-01  1.5550377765506E+00
68  6.7000000000000E-01 -2.8285912948403E-01  1.5525979520208E+00
69  6.8000000000000E-01 -3.3638177660877E-01  1.5475985589195E+00
70  6.9000000000000E-01 -3.8769331090551E-01  1.5401207875774E+00
71  7.0000000000000E-01 -4.3668651451895E-01  1.5302297074916E+00
72  7.1000000000000E-01 -4.8325113987653E-01  1.5179713594510E+00
73  7.2000000000000E-01 -5.2727321593032E-01  1.5033705451681E+00
74  7.3000000000000E-01 -5.6863471084482E-01  1.4864293870402E+00
75  7.4000000000000E-01 -6.0721357743517E-01  1.4671267129327E+00
76  7.5000000000000E-01 -6.4288419800265E-01  1.4454183015443E+00
77  7.6000000000000E-01 -6.7551823495783E-01  1.4212380033928E+00
78  7.7000000000000E-01 -7.0498588299328E-01  1.3944997312055E+00
79  7.8000000000000E-01 -7.3115750780762E-01  1.3651002919668E+00
80  7.9000000000000E-01 -7.5390564573782E-01  1.3329230115741E+00
81  8.0000000000000E-01 -7.7310732837576E-01  1.2978420824444E+00
82  8.1000000000000E-01 -7.8864668657197E-01  1.2597275450026E+00
83  8.2000000000000E-01 -8.0041777939994E-01  1.2184507962128E+00
84  8.3000000000000E-01 -8.0832758588746E-01  1.1738905026268E+00
85  8.4000000000000E-01 -8.1229909081803E-01  1.1259387822097E+00
86  8.5000000000000E-01 -8.1227439083911E-01  1.0745075088098E+00
87  8.6000000000000E-01 -8.0821774363180E-01  1.0195345858481E+00
88  8.7000000000000E-01 -8.0011848111040E-01  9.6099003184537E-01
89  8.8000000000000E-01 -7.8799370760699E-01  8.9888171992635E-01
90  8.9000000000000E-01 -7.7189070579489E-01  8.3326061652345E-01
91  9.0000000000000E-01 -7.5188897671281E-01  7.6422537114722E-01
92  9.1000000000000E-01 -7.2810184562918E-01  6.9192611921660E-01
93  9.2000000000000E-01 -7.0067757254945E-01  6.1656737339506E-01
94  9.3000000000000E-01 -6.6979991479944E-01  5.3840989542461E-01
95  9.4000000000000E-01 -6.3568809915619E-01  4.5777145978353E-01
96  9.5000000000000E-01 -5.9859617225374E-01  3.7502644224561E-01
97  9.6000000000000E-01 -5.5881171024268E-01  2.9060419015672E-01
98  9.7000000000000E-01 -5.1665388167975E-01  2.0498615648491E-01
99  9.8000000000000E-01 -4.7247087110522E-01  1.1870180593071E-01
100  9.9000000000000E-01 -4.2663668443869E-01  3.2323328039526E-02
101  1.0000000000000E+00 -3.7954737090250E-01 -5.3540781224432E-02
102  1.0100000000000E+00 -3.3161670936632E-01 -1.3825318218382E-01
103  1.0200000000000E+00 -2.8327141951135E-01 -2.2115608665102E-01
104  1.0300000000000E+00 -2.3494596974526E-01 -3.0158045117222E-01
105  1.0400000000000E+00 -1.8707706409880E-01 -3.7885581353903E-01
106  1.0500000000000E+00 -1.4009789916895E-01 -4.5232060029117E-01
107  1.0600000000000E+00 -9.4432289300830E-02 -5.2133271871634E-01
108  1.0700000000000E+00 -5.0488763466080E-02 -5.8528023622703E-01
109  1.0800000000000E+00 -8.6547405349682E-03 -6.4359194328178E-01
110  1.0900000000000E+00  3.0709109241489E-02 -6.9574759340906E-01
111  1.1000000000000E+00  6.7274209792844E-02 -7.4128761552055E-01
112  1.1100000000000E+00  1.0074902834697E-01 -7.7982209957681E-01
113  1.1200000000000E+00  1.3088353005657E-01 -8.1103886677366E-01
114  1.1300000000000E+00  1.5747304759992E-01 -8.3471044955355E-01
115  1.1400000000000E+00  1.8036148471461E-01 -8.5069982473279E-01
116  1.1500000000000E+00  1.9944378389814E-01 -8.5896476449357E-01
117  1.1600000000000E+00  2.1466760139723E-01 -8.5956069459325E-01
118  1.1700000000000E+00  2.2603414681004E-01 -8.5264197631794E-01
119  1.1800000000000E+00  2.3359815995999E-01 -8.3846155810038E-01
120  1.1900000000000E+00  2.3746701371656E-01 -8.1736897346599E-01
121  1.2000000000000E+00  2.3779894804315E-01 -7.8980669388054E-01
122  1.2100000000000E+00  2.3480045711696E-01 -7.5630487693728E-01
123  1.2200000000000E+00  2.2872286788179E-01 -7.1747458211926E-01
124  1.2300000000000E+00  2.1985816423375E-01 -6.7399955688982E-01
125  1.2400000000000E+00  2.0853412604885E-01 -6.2662672480317E-01
126  1.2500000000000E+00  1.9510886611195E-01 -5.7615553405028E-01
127  1.2600000000000E+00  1.7996486028733E-01 -5.2342634856535E-01
128  1.2700000000000E+00  1.6350257689616E-01 -4.6930808434848E-01
129  1.2800000000000E+00  1.4613381987019E-01 -4.1468531029956E-01
130  1.2900000000000E+00  1.2827490688596E-01 -3.6044504574377E-01
131  1.3000000000000E+00  1.1033980257574E-01 -3.0746348371072E-01
132  1.3100000000000E+00  9.2733378779433E-02 -2.5659297758603E-01
133  1.3200000000000E+00  7.5843425281142E-02 -2.0864636110715E-01
134  1.3300000000000E+00  6.0028996648281E-02 -1.6437346079596E-01
135  1.3400000000000E+00  4.5603272766122E-02 -1.2442731056227E-01
136  1.3500000000000E+00  3.2822586827633E-02 -8.9342227588164E-02
137  1.3600000000000E+00  2.1931419780969E-02 -5.9623590045373E-02
138  1.3700000000000E+00  1.3120446653798E-02 -3.5666636268197E-02
139  1.3800000000000E+00  6.5218409910279E-03 -1.7747637412298E-02
140  1.3900000000000E+00  2.1960974726882E-03 -5.9892111355389E-03
141  1.4000000000000E+00  2.1490604524609E-04 -5.8815231604068E-04
142  1.4100000000000E+00 -2.3343914075204E-05  6.4023175501267E-05
143  1.4200000000000E+00  3.3381197016274E-06 -9.1382729609851E-06
144  1.43 -0.  0.
145  1.44  0.  0.
146  1.45  0.  0.
147  1.46  0.  0.
148  1.47  0.  0.
149  1.48  0.  0.
150  1.49  0.  0.
151  1.50  0.  0.
152  1.51  0.  0.
153  1.52  0.  0.
154  1.53  0.  0.
155  1.54  0.  0.
156  1.55  0.  0.
157  1.56  0.  0.
158  1.57  0.  0.
159  1.58  0.  0.
160  1.59  0.  0.
161  1.60  0.  0.
162  1.61  0.  0.
163  1.62  0.  0.
164  1.63  0.  0.
165  1.64  0.  0.
166  1.65  0.  0.
167  1.66  0.  0.
168  1.67  0.  0.
169  1.68  0.  0.
170  1.69  0.  0.
171  1.70  0.  0.
172  1.71  0.  0.
173  1.72  0.  0.
174  1.73  0.  0.
175  1.74  0.  0.
176  1.75  0.  0.
177  1.76  0.  0.
178  1.77  0.  0.
179  1.78  0.  0.
180  1.79  0.  0.
181  1.80  0.  0.
182  1.81  0.  0.
183  1.82  0.  0.
184  1.83  0.  0.
185  1.84  0.  0.
186  1.85  0.  0.
187  1.86  0.  0.
188  1.87  0.  0.
189  1.88  0.  0.
190  1.89  0.  0.
191  1.90  0.  0.
192  1.91  0.  0.
193  1.92  0.  0.
194  1.93  0.  0.
195  1.94  0.  0.
196  1.95  0.  0.
197  1.96  0.  0.
198  1.97  0.  0.
199  1.98  0.  0.
200  1.99  0.  0.
201  2.00  0.  0.
202  2.01  0.  0.
203  2.02  0.  0.
204  2.03  0.  0.
205  2.04  0.  0.
206  2.05  0.  0.
207  2.06  0.  0.
208  2.07  0.  0.
209  2.08  0.  0.
210  2.09  0.  0.
211  2.10  0.  0.
212  2.11  0.  0.
213  2.12  0.  0.
214  2.13  0.  0.
215  2.14  0.  0.
216  2.15  0.  0.
217  2.16  0.  0.
218  2.17  0.  0.
219  2.18  0.  0.
220  2.19  0.  0.
221  2.20  0.  0.
222  2.21  0.  0.
223  2.22  0.  0.
224  2.23  0.  0.
225  2.24  0.  0.
226  2.25  0.  0.
227  2.26  0.  0.
228  2.27  0.  0.
229  2.28  0.  0.
230  2.29  0.  0.
231  2.30  0.  0.
232  2.31  0.  0.
233  2.32  0.  0.
234  2.33  0.  0.
235  2.34  0.  0.
236  2.35  0.  0.
237  2.36  0.  0.
238  2.37  0.  0.
239  2.38  0.  0.
240  2.39  0.  0.
241  2.40  0.  0.
242  2.41  0.  0.
243  2.42  0.  0.
244  2.43  0.  0.
245  2.44  0.  0.
246  2.45  0.  0.
247  2.46  0.  0.
248  2.47  0.  0.
249  2.48  0.  0.
250  2.49  0.  0.
251  2.50  0.  0.
252  2.51  0.  0.
253  2.52  0.  0.
254  2.53  0.  0.
255  2.54  0.  0.
256  2.55  0.  0.
257  2.56  0.  0.
258  2.57  0.  0.
259  2.58  0.  0.
260  2.59  0.  0.
261  2.60  0.  0.
262  2.61  0.  0.
263  2.62  0.  0.
264  2.63  0.  0.
265  2.64  0.  0.
266  2.65  0.  0.
267  2.66  0.  0.
268  2.67  0.  0.
269  2.68  0.  0.
270  2.69  0.  0.
271  2.70  0.  0.
272  2.71  0.  0.
273  2.72  0.  0.
274  2.73  0.  0.
275  2.74  0.  0.
276  2.75  0.  0.
277  2.76  0.  0.
278  2.77  0.  0.
279  2.78  0.  0.
280  2.79  0.  0.
281  2.80  0.  0.
282  2.81  0.  0.
283  2.82  0.  0.
284  2.83  0.  0.
285  2.84  0.  0.
286  2.85  0.  0.
287  2.86  0.  0.
288  2.87  0.  0.
289  2.88  0.  0.
290  2.89  0.  0.
291  2.90  0.  0.
292  2.91  0.  0.
293  2.92  0.  0.
294  2.93  0.  0.
295  2.94  0.  0.
296  2.95  0.  0.
297  2.96  0.  0.
298  2.97  0.  0.
299  2.98  0.  0.
300  2.99  0.  0.
301  3.00  0.  0.
302  3.01  0.  0.
303  3.02  0.  0.
304  3.03  0.  0.
305  3.04  0.  0.
306  3.05  0.  0.
307  3.06  0.  0.
308  3.07  0.  0.
309  3.08  0.  0.
310  3.09  0.  0.
311  3.10  0.  0.
312  3.11  0.  0.
313  3.12  0.  0.
314  3.13  0.  0.
315  3.14  0.  0.
316  3.15  0.  0.
317  3.16  0.  0.
318  3.17  0.  0.
319  3.18  0.  0.
320  3.19  0.  0.
321  3.20  0.  0.
322  3.21  0.  0.
323  3.22  0.  0.
324  3.23  0.  0.
325  3.24  0.  0.
326  3.25  0.  0.
327  3.26  0.  0.
328  3.27  0.  0.
329  3.28  0.  0.
330  3.29  0.  0.
331  3.30  0.  0.
332  3.31  0.  0.
333  3.32  0.  0.
334  3.33  0.  0.
335  3.34  0.  0.
336  3.35  0.  0.
337  3.36  0.  0.
338  3.37  0.  0.
339  3.38  0.  0.
340  3.39  0.  0.
341  3.40  0.  0.
342  3.41  0.  0.
343  3.42  0.  0.
344  3.43  0.  0.
345  3.44  0.  0.
346  3.45  0.  0.
347  3.46  0.  0.
348  3.47  0.  0.
349  3.48  0.  0.
350  3.49  0.  0.
351  3.50  0.  0.
352  3.51  0.  0.
353  3.52  0.  0.
354  3.53  0.  0.
355  3.54  0.  0.
356  3.55  0.  0.
357  3.56  0.  0.
358  3.57  0.  0.
359  3.58  0.  0.
360  3.59  0.  0.
361  3.60  0.  0.
362  3.61  0.  0.
363  3.62  0.  0.
364  3.63  0.  0.
365  3.64  0.  0.
366  3.65  0.  0.
367  3.66  0.  0.
368  3.67  0.  0.
369  3.68  0.  0.
370  3.69  0.  0.
371  3.70  0.  0.
372  3.71  0.  0.
373  3.72  0.  0.
374  3.73  0.  0.
375  3.74  0.  0.
376  3.75  0.  0.
377  3.76  0.  0.
378  3.77  0.  0.
379  3.78  0.  0.
380  3.79  0.  0.
381  3.80  0.  0.
382  3.81  0.  0.
383  3.82  0.  0.
384  3.83  0.  0.
385  3.84  0.  0.
386  3.85  0.  0.
387  3.86  0.  0.
388  3.87  0.  0.
389  3.88  0.  0.
390  3.89  0.  0.
391  3.90  0.  0.
392  3.91  0.  0.
393  3.92  0.  0.
394  3.93  0.  0.
395  3.94  0.  0.
396  3.95  0.  0.
397  3.96  0.  0.
398  3.97  0.  0.
399  3.98  0.  0.
400  3.99  0.  0.
401  4.00  0.  0.
402  4.01  0.  0.
403  4.02  0.  0.
404  4.03  0.  0.
405  4.04  0.  0.
406  4.05  0.  0.
407  4.06  0.  0.
408  4.07  0.  0.
409  4.08  0.  0.
410  4.09  0.  0.
411  4.10  0.  0.
412  4.11  0.  0.
413  4.12  0.  0.
414  4.13  0.  0.
415  4.14  0.  0.
416  4.15  0.  0.
417  4.16  0.  0.
418  4.17  0.  0.
419  4.18  0.  0.
420  4.19  0.  0.
421  4.20  0.  0.
422  4.21  0.  0.
423  4.22  0.  0.
424  4.23  0.  0.
425  4.24  0.  0.
426  4.25  0.  0.
427  4.26  0.  0.
428  4.27  0.  0.
429  4.28  0.  0.
430  4.29  0.  0.
431  4.30  0.  0.
432  4.31  0.  0.
433  4.32  0.  0.
434  4.33  0.  0.
435  4.34  0.  0.
436  4.35  0.  0.
437  4.36  0.  0.
438  4.37  0.  0.
439  4.38  0.  0.
440  4.39  0.  0.
441  4.40  0.  0.
442  4.41  0.  0.
443  4.42  0.  0.
444  4.43  0.  0.
445  4.44  0.  0.
446  4.45  0.  0.
447  4.46  0.  0.
448  4.47  0.  0.
449  4.48  0.  0.
450  4.49  0.  0.
451  4.50  0.  0.
452  4.51  0.  0.
453  4.52  0.  0.
454  4.53  0.  0.
455  4.54  0.  0.
456  4.55  0.  0.
457  4.56  0.  0.
458  4.57  0.  0.
459  4.58  0.  0.
460  4.59  0.  0.
461  4.60  0.  0.
462  4.61  0.  0.
463  4.62  0.  0.
464  4.63  0.  0.
465  4.64  0.  0.
466  4.65  0.  0.
467  4.66  0.  0.
468  4.67  0.  0.
469  4.68  0.  0.
470  4.69  0.  0.
471  4.70  0.  0.
472  4.71  0.  0.
473  4.72  0.  0.
474  4.73  0.  0.
475  4.74  0.  0.
476  4.75  0.  0.
477  4.76  0.  0.
478  4.77  0.  0.
479  4.78  0.  0.
480  4.79  0.  0.
481  4.80  0.  0.
482  4.81  0.  0.
483  4.82  0.  0.
484  4.83  0.  0.
485  4.84  0.  0.
486  4.85  0.  0.
487  4.86  0.  0.
488  4.87  0.  0.
489  4.88  0.  0.
490  4.89  0.  0.
491  4.90  0.  0.
492  4.91  0.  0.
493  4.92  0.  0.
494  4.93  0.  0.
495  4.94  0.  0.
496  4.95  0.  0.
497  4.96  0.  0.
498  4.97  0.  0.
499  4.98  0.  0.
500  4.99  0.  0.
501  5.00  0.  0.
502  5.01  0.  0.
503  5.02  0.  0.
504  5.03  0.  0.
505  5.04  0.  0.
506  5.05  0.  0.
507  5.06  0.  0.
508  5.07  0.  0.
509  5.08  0.  0.
510  5.09  0.  0.
511  5.10  0.  0.
512  5.11  0.  0.
513  5.12  0.  0.
514  5.13  0.  0.
515  5.14  0.  0.
516  5.15  0.  0.
517  5.16  0.  0.
518  5.17  0.  0.
519  5.18  0.  0.
520  5.19  0.  0.
521  5.20  0.  0.
522  5.21  0.  0.
523  5.22  0.  0.
524  5.23  0.  0.
525  5.24  0.  0.
526  5.25  0.  0.
527  5.26  0.  0.
528  5.27  0.  0.
529  5.28  0.  0.
530  5.29  0.  0.
531  5.30  0.  0.
532  5.31  0.  0.
533  5.32  0.  0.
534  5.33  0.  0.
535  5.34  0.  0.
536  5.35  0.  0.
537  5.36  0.  0.
538  5.37  0.  0.
539  5.38  0.  0.
540  5.39  0.  0.
541  5.40  0.  0.
542  5.41  0.  0.
543  5.42  0.  0.
544  5.43  0.  0.
545  5.44  0.  0.
546  5.45  0.  0.
547  5.46  0.  0.
548  5.47  0.  0.
549  5.48  0.  0.
550  5.49  0.  0.
551  5.50  0.  0.
552  5.51  0.  0.
553  5.52  0.  0.
554  5.53  0.  0.
555  5.54  0.  0.
556  5.55  0.  0.
557  5.56  0.  0.
558  5.57  0.  0.
559  5.58  0.  0.
560  5.59  0.  0.
561  5.60  0.  0.
562  5.61  0.  0.
563  5.62  0.  0.
564  5.63  0.  0.
565  5.64  0.  0.
566  5.65  0.  0.
567  5.66  0.  0.
568  5.67  0.  0.
569  5.68  0.  0.
570  5.69  0.  0.
571  5.70  0.  0.
572  5.71  0.  0.
573  5.72  0.  0.
574  5.73  0.  0.
575  5.74  0.  0.
576  5.75  0.  0.
577  5.76  0.  0.
578  5.77  0.  0.
579  5.78  0.  0.
580  5.79  0.  0.
581  5.80  0.  0.
582  5.81  0.  0.
583  5.82  0.  0.
584  5.83  0.  0.
585  5.84  0.  0.
586  5.85  0.  0.
587  5.86  0.  0.
588  5.87  0.  0.
589  5.88  0.  0.
590  5.89  0.  0.
591  5.90  0.  0.
592  5.91  0.  0.
593  5.92  0.  0.
594  5.93  0.  0.
595  5.94  0.  0.
596  5.95  0.  0.
597  5.96  0.  0.
598  5.97  0.  0.
599  5.98  0.  0.
600  5.99  0.  0.
1                         7.3907492667116E+00  1.1643843801416E+00
1  0.0000000000000E+00 -1.3957468431025E-08  2.9706119439310E-08
2  1.0000000000000E-02  1.5838958730057E-03  7.1724945886155E-04
3  2.0000000000000E-02  6.3390292878203E-03  2.8447719091423E-03
4  3.0000000000000E-02  1.4275430705742E-02  6.3106011092901E-03
5  4.0000000000000E-02  2.5408803100485E-02  1.0997146801148E-02
6  5.0000000000000E-02  3.9759030241932E-02  1.6744661274663E-02
7  6.0000000000000E-02  5.7348147488149E-02  2.3355966847913E-02
8  7.0000000000000E-02  7.8197832529400E-02  3.0602322232202E-02
9  8.0000000000000E-02  1.0232648748542E-01  3.8230276045870E-02
10  9.0000000000000E-02  1.2974599595223E-01  4.5969329738282E-02
11  1.0000000000000E-01  1.6045824872307E-01  5.3540210526423E-02
12  1.1000000000000E-01  1.9445153971139E-01  6.0663538172510E-02
13  1.2000000000000E-01  2.3169693888114E-01  6.7068657964363E-02
14  1.3000000000000E-01  2.7214475159799E-01  7.2502406400416E-02
15  1.4000000000000E-01  3.1572117367464E-01  7.6737575994616E-02
16  1.5000000000000E-01  3.6232524848105E-01  7.9580851330617E-02
17  1.6000000000000E-01  4.1182622687682E-01  8.0879999901090E-02
18  1.7000000000000E-01  4.6406142251563E-01  8.0530118119549E-02
19  1.8000000000000E-01  5.1883464444898E-01  7.8478754811942E-02
20  1.9000000000000E-01  5.7591527615747E-01  7.4729760982413E-02
21  2.0000000000000E-01  6.3503805545213E-01  6.9345745089833E-02
22  2.1000000000000E-01  6.9590359345612E-01  6.2449046757607E-02
23  2.2000000000000E-01  7.5817965347405E-01  5.4221177976686E-02
24  2.3000000000000E-01  8.2150319239188E-01  4.4900718592603E-02
25  2.4000000000000E-01  8.8548314875340E-01  3.4779691291337E-02
26  2.5000000000000E-01  9.4970394327201E-01  2.4198479490826E-02
27  2.6000000000000E-01  1.0137296396996E+00  1.3539388577769E-02
28  2.7000000000000E-01  1.0771086971230E+00  3.2189858979973E-03
29  2.8000000000000E-01  1.1393792293037E+00 -6.3206130539078E-03
30  2.9000000000000E-01  1.2000746730084E+00 -1.4621316495231E-02
31  3.0000000000000E-01  1.2587297557337E+00 -2.1219266665521E-02
32  3.1000000000000E-01  1.3148866441188E+00 -2.5655450212367E-02
33  3.2000000000000E-01  1.3681011478996E+00 -2.7486457087820E-02
34  3.3000000000000E-01  1.4179488506770E+00 -2.6295129162303E-02
35  3.4000000000000E-01  1.4640310381687E+00 -2.1700838737041E-02
36  3.5000000000000E-01  1.5059802970357E+00 -1.3369142408810E-02
37  3.6000000000000E-01  1.5434656628041E+00 -1.0205672568629E-03
38  3.7000000000000E-01  1.5761972037421E+00  1.5561696120105E-02
39  3.8000000000000E-01  1.6039299386480E+00  3.6525395940749E-02
40  3.9000000000000E-01  1.6264670001183E+00  6.1944290724309E-02
41  4.0000000000000E-01  1.6436619707150E+00  9.1814830659244E-02
42  4.1000000000000E-01  1.6554203371840E+00  1.2605455271556E-01
43  4.2000000000000E-01  1.6617000271017E+00  1.6450225346688E-01
44  4.3000000000000E-01  1.6625110126059E+00  2.0691996160553E-01
45  4.4000000000000E-01  1.6579139867384E+00  2.5299668903742E-01
46  4.5000000000000E-01  1.6480181389031E+00  3.0235389625651E-01
47  4.6000000000000E-01  1.6329780765334E+00  3.5455256545297E-01
48  4.7000000000000E-01  1.6129899597765E+00  4.0910173453250E-01
49  4.8000000000000E-01  1.5882869343632E+00  4.6546830791003E-01
50  4.9000000000000E-01  1.5591339643947E+00  5.2308792652504E-01
51  5.0000000000000E-01  1.5258221811232E+00  5.8137665086457E-01
52  5.1000000000000E-01  1.4886628755742E+00  6.3974318762891E-01
53  5.2000000000000E-01  1.4479812717394E+00  6.9760137366921E-01
54  5.3000000000000E-01  1.4041102228170E+00  7.5438262046296E-01
55  5.4000000000000E-01  1.3573839754197E+00  8.0954801902001E-01
56  5.5000000000000E-01  1.3081321457055E+00  8.6259980891344E-01
57  5.6000000000000E-01  1.2566740469999E+00  9.1309192612434E-01
58  5.7000000000000E-01  1.2033135007274E+00  9.6063936242507E-01
59  5.8000000000000E-01  1.1483342514977E+00  1.0049260937772E+00
60  5.9000000000000E-01  1.0919960932188E+00  1.0457113662031E+00
61  6.0000000000000E-01  1.0345317964323E+00  1.0828341641601E+00
62  6.1000000000000E-01  9.7614490803561E-01  1.1162157278170E+00
63  6.2000000000000E-01  9.1700847361175E-01  1.1458600308956E+00
64  6.3000000000000E-01  8.5726471018828E-01  1.1718521788737E+00
65  6.4000000000000E-01  7.9702563391449E-01  1.1943547372509E+00
66  6.5000000000000E-01  7.3637462342484E-01  1.2136020500900E+00
67  6.6000000000000E-01  6.7536887610400E-01  1.2298926589736E+00
68  6.7000000000000E-01  6.1404269165307E-01  1.2435799806572E+00
69  6.8000000000000E-01  5.5241149583044E-01  1.2550614468754E+00
70  6.9000000000000E-01  4.9047649754006E-01  1.2647663508512E+00
71  7.0000000000000E-01  4.2822985505848E-01  1.2731426810142E+00
72  7.1000000000000E-01  3.6566021258349E-01  1.2806432523118E+00
73  7.2000000000000E-01  3.0275845683878E-01  1.2877114684913E+00
74  7.3000000000000E-01  2.3952353550378E-01  1.2947670641668E+00
75  7.4000000000000E-01  1.7596817499966E-01  1.3021921828695E+00
76  7.5000000000000E-01  1.1212433480928E-01  1.3103181463070E+00
77  7.6000000000000E-01  4.8048239111039E-02  1.3194132605904E+00
78  7.7000000000000E-01 -1.6175165959994E-02  1.3296719873138E+00
79  7.8000000000000E-01 -8.0428469760618E-02  1.3412057813636E+00
80  7.9000000000000E-01 -1.4455889467946E-01  1.3540358636592E+00
81  8.0000000000000E-01 -2.0837634088433E-01  1.3680881563479E+00
82  8.1000000000000E-01 -2.7165246419794E-01  1.3831905611317E+00
83  8.2000000000000E-01 -3.3412084935190E-01  1.3990727093746E+00
84  8.3000000000000E-01 -3.9547831524420E-01  1.4153682565694E+00
85  8.4000000000000E-01 -4.5538736181757E-01  1.4316197348697E+00
86  8.5000000000000E-01 -5.1347974040512E-01  1.4472859170425E+00
87  8.6000000000000E-01 -5.6936110149478E-01  1.4617515847670E+00
88  8.7000000000000E-01 -6.2261664650289E-01  1.4743395350866E+00
89  8.8000000000000E-01 -6.7281768397285E-01  1.4843246024359E+00
90  8.9000000000000E-01 -7.1952896626149E-01  1.4909494213542E+00
91  9.0000000000000E-01 -7.6231666084806E-01  1.4934416080569E+00
92  9.1000000000000E-01 -8.0075679144996E-01  1.4910319986474E+00
93  9.2000000000000E-01 -8.3444396865231E-01  1.4829735489550E+00
94  9.3000000000000E-01 -8.6300021817256E-01  1.4685604766707E+00
95  9.4000000000000E-01 -8.8608370752237E-01  1.4471472113266E+00
96  9.5000000000000E-01 -9.0339716893826E-01  1.4181667122175E+00
97  9.6000000000000E-01 -9.1469581817206E-01  1.3811477188931E+00
98  9.7000000000000E-01 -9.1979457509385E-01  1.3357305133939E+00
99  9.8000000000000E-01 -9.1857440299936E-01  1.2816807978127E+00
100  9.9000000000000E-01 -9.1098759884600E-01  1.2189013246143E+00
101  1.0000000000000E+00 -8.9706188608592E-01  1.1474409598187E+00
102  1.0100000000000E+00 -8.7690318493328E-01  1.0675009097970E+00
103  1.0200000000000E+00 -8.5069696134231E-01  9.7943790004951E-01
104  1.0300000000000E+00 -8.1870808510187E-01  8.8376415767209E-01
105  1.0400000000000E+00 -7.8127915864455E-01  7.8114411690260E-01
106  1.0500000000000E+00 -7.3882731080150E-01  6.7238783783788E-01
107  1.0600000000000E+00 -6.9183948298572E-01  5.5844120032925E-01
108  1.0700000000000E+00 -6.4086626849496E-01  4.4037300678766E-01
109  1.0800000000000E+00 -5.8651439803402E-01  3.1935919751695E-01
110  1.0900000000000E+00 -5.2943799530828E-01  1.9666444840681E-01
111  1.1000000000000E+00 -4.7032875513314E-01  7.3621482272595E-02
112  1.1100000000000E+00 -4.0990522200120E-01 -4.8391520181417E-02
113  1.1200000000000E+00 -3.4890136908856E-01 -1.6797497665097E-01
114  1.1300000000000E+00 -2.8805469552621E-01 -2.8373295561831E-01
115  1.1400000000000E+00 -2.2809407310090E-01 -3.9429872543331E-01
116  1.1500000000000E+00 -1.6972758194017E-01 -4.9836028315619E-01
117  1.1600000000000E+00 -1.1363057798996E-01 -5.9468533981337E-01
118  1.1700000000000E+00 -6.0434233060215E-02 -6.8214524372687E-01
119  1.1800000000000E+00 -1.0714780860048E-02 -7.5973734007169E-01
120  1.1900000000000E+00  3.5016310020589E-02 -8.2660529232584E-01
121  1.2000000000000E+00  7.6321032784784E-02 -8.8205692976324E-01
122  1.2100000000000E+00  1.1284222732755E-01 -9.2557923309856E-01
123  1.2200000000000E+00  1.4430949829457E-01 -9.5685012780415E-01
124  1.2300000000000E+00  1.7054354103111E-01 -9.7574681937416E-01
125  1.2400000000000E+00  1.9145878297819E-01 -9.8235047604867E-01
126  1.2500000000000E+00  2.0706428331081E-01 -9.7694714088313E-01
127  1.2600000000000E+00  2.1746287010312E-01 -9.6002483404958E-01
128  1.2700000000000E+00  2.2284853177155E-01 -9.3226688728931E-01
129  1.2800000000000E+00  2.2350211681147E-01 -8.9454163295554E-01
130  1.2900000000000E+00  2.1978543230406E-01 -8.4788864890019E-01
131  1.3000000000000E+00  2.1213385977297E-01 -7.9350181807204E-01
132  1.3100000000000E+00  2.0104768989536E-01 -7.3270966370959E-01
133  1.3200000000000E+00  1.8708059603971E-01 -6.6694877686213E-01
134  1.3300000000000E+00  1.7082158091377E-01 -5.9772098076577E-01
135  1.3400000000000E+00  1.5287911610196E-01 -5.2655708319538E-01
136  1.3500000000000E+00  1.3386845852404E-01 -4.5498926780004E-01
137  1.3600000000000E+00  1.1439881274548E-01 -3.8452316195257E-01
138  1.3700000000000E+00  9.5060537691603E-02 -3.1661006958217E-01
139  1.3800000000000E+00  7.6413045800068E-02 -2.5262059282382E-01
140  1.3900000000000E+00  5.8959835299136E-02 -1.9379578311642E-01
141  1.4000000000000E+00  4.3141749630491E-02 -1.4122976739828E-01
142  1.4100000000000E+00  2.9376155220187E-02 -9.5935854090459E-02
143  1.4200000000000E+00  1.8004914125951E-02 -5.8752879702323E-02
144  1.4300000000000E+00  9.2877752281209E-03 -3.0330989242332E-02
145  1.4400000000000E+00  3.3858421131728E-03 -1.1082954930498E-02
146  1.4500000000000E+00  4.4818923037990E-04 -1.4730317624590E-03
147  1.4600000000000E+00 -4.7991783798669E-05  1.5817316054002E-04
148  1.4700000000000E+00  1.2615937912063E-05 -4.1495183904832E-05
149  1.48 -0.  0.
150  1.49 -0.  0.
151  1.50  0.  0.
152  1.51  0.  0.
153  1.52  0.  0.
154  1.53  0.  0.
155  1.54  0.  0.
156  1.55  0.  0.
157  1.56  0.  0.
158  1.57  0.  0.
159  1.58  0.  0.
160  1.59  0.  0.
161  1.60  0.  0.
162  1.61  0.  0.
163  1.62  0.  0.
164  1.63  0.  0.
165  1.64  0.  0.
166  1.65  0.  0.
167  1.66  0.  0.
168  1.67  0.  0.
169  1.68  0.  0.
170  1.69  0.  0.
171  1.70  0.  0.
172  1.71  0.  0.
173  1.72  0.  0.
174  1.73  0.  0.
175  1.74  0.  0.
176  1.75  0.  0.
177  1.76  0.  0.
178  1.77  0.  0.
179  1.78  0.  0.
180  1.79  0.  0.
181  1.80  0.  0.
182  1.81  0.  0.
183  1.82  0.  0.
184  1.83  0.  0.
185  1.84  0.  0.
186  1.85  0.  0.
187  1.86  0.  0.
188  1.87  0.  0.
189  1.88  0.  0.
190  1.89  0.  0.
191  1.90  0.  0.
192  1.91  0.  0.
193  1.92  0.  0.
194  1.93  0.  0.
195  1.94  0.  0.
196  1.95  0.  0.
197  1.96  0.  0.
198  1.97  0.  0.
199  1.98  0.  0.
200  1.99  0.  0.
201  2.00  0.  0.
202  2.01  0.  0.
203  2.02  0.  0.
204  2.03  0.  0.
205  2.04  0.  0.
206  2.05  0.  0.
207  2.06  0.  0.
208  2.07  0.  0.
209  2.08  0.  0.
210  2.09  0.  0.
211  2.10  0.  0.
212  2.11  0.  0.
213  2.12  0.  0.
214  2.13  0.  0.
215  2.14  0.  0.
216  2.15  0.  0.
217  2.16  0.  0.
218  2.17  0.  0.
219  2.18  0.  0.
220  2.19  0.  0.
221  2.20  0.  0.
222  2.21  0.  0.
223  2.22  0.  0.
224  2.23  0.  0.
225  2.24  0.  0.
226  2.25  0.  0.
227  2.26  0.  0.
228  2.27  0.  0.
229  2.28  0.  0.
230  2.29  0.  0.
231  2.30  0.  0.
232  2.31  0.  0.
233  2.32  0.  0.
234  2.33  0.  0.
235  2.34  0.  0.
236  2.35  0.  0.
237  2.36  0.  0.
238  2.37  0.  0.
239  2.38  0.  0.
240  2.39  0.  0.
241  2.40  0.  0.
242  2.41  0.  0.
243  2.42  0.  0.
244  2.43  0.  0.
245  2.44  0.  0.
246  2.45  0.  0.
247  2.46  0.  0.
248  2.47  0.  0.
249  2.48  0.  0.
250  2.49  0.  0.
251  2.50  0.  0.
252  2.51  0.  0.
253  2.52  0.  0.
254  2.53  0.  0.
255  2.54  0.  0.
256  2.55  0.  0.
257  2.56  0.  0.
258  2.57  0.  0.
259  2.58  0.  0.
260  2.59  0.  0.
261  2.60  0.  0.