At    ONCVPSP-4.0.1  r_core=   2.10879   2.10879   1.90488
85.0000     25.0000      220307    zatom,zion,pspd
8      11   2     4   600     0    pspcod,pspxc,lmax,lloc,mmax,r2well
5.99000000  5.00000000  0.00000000    rchrg fchrg qchrg
2     2     2     0     0    nproj
1     1           extension_switch
0                         3.5893863264918E+00 -3.4399190432003E+00
1  0.0000000000000E+00 -6.2974403469696E-11  2.3284707495463E-12
2  1.0000000000000E-02  7.9926833836300E-02  3.3651783017606E-02
3  2.0000000000000E-02  1.5959353549581E-01  6.7280135254444E-02
4  3.0000000000000E-02  2.3874091369568E-01  1.0086163269745E-01
5  4.0000000000000E-02  3.1711165518886E-01  1.3437286495602E-01
6  5.0000000000000E-02  3.9445125441773E-01  1.6779044229031E-01
7  6.0000000000000E-02  4.7050893197514E-01  2.0109100289834E-01
8  7.0000000000000E-02  5.4503853821591E-01  2.3425122054550E-01
9  8.0000000000000E-02  6.1779943842511E-01  2.6724781261758E-01
10  9.0000000000000E-02  6.8855737602741E-01  3.0005754867572E-01
11  1.0000000000000E-01  7.5708531041509E-01  3.3265725958818E-01
12  1.1000000000000E-01  8.2316422608013E-01  3.6502384730977E-01
13  1.2000000000000E-01  8.8658390985714E-01  3.9713429537557E-01
14  1.3000000000000E-01  9.4714369321957E-01  4.2896568017035E-01
15  1.4000000000000E-01  1.0046531567194E+00  4.6049518302986E-01
16  1.5000000000000E-01  1.0589327938211E+00  4.9170010322436E-01
17  1.6000000000000E-01  1.1098146315530E+00  5.2255787186849E-01
18  1.7000000000000E-01  1.1571428055812E+00  5.5304606679486E-01
19  1.8000000000000E-01  1.2007740875054E+00  5.8314242842222E-01
20  1.9000000000000E-01  1.2405783623764E+00  6.1282487664140E-01
21  2.0000000000000E-01  1.2764390546481E+00  6.4207152873513E-01
22  2.1000000000000E-01  1.3082535009906E+00  6.7086071834001E-01
23  2.2000000000000E-01  1.3359332686209E+00  6.9917101545109E-01
24  2.3000000000000E-01  1.3594044180321E+00  7.2698124746160E-01
25  2.4000000000000E-01  1.3786077092389E+00  7.5427052122240E-01
26  2.5000000000000E-01  1.3934987508967E+00  7.8101824609731E-01
27  2.6000000000000E-01  1.4040480918870E+00  8.0720415798300E-01
28  2.7000000000000E-01  1.4102412552078E+00  8.3280834425337E-01
29  2.8000000000000E-01  1.4120787142475E+00  8.5781126958105E-01
30  2.9000000000000E-01  1.4095758117618E+00  8.8219380258043E-01
31  3.0000000000000E-01  1.4027626221125E+00  9.0593724320921E-01
32  3.1000000000000E-01  1.3916837575637E+00  9.2902335085807E-01
33  3.2000000000000E-01  1.3763981196630E+00  9.5143437305070E-01
34  3.3000000000000E-01  1.3569785969625E+00  9.7315307467003E-01
35  3.4000000000000E-01  1.3335117105560E+00  9.9416276761964E-01
36  3.5000000000000E-01  1.3060972091234E+00  1.0144473408234E+00
37  3.6000000000000E-01  1.2748476153796E+00  1.0339912904606E+00
38  3.7000000000000E-01  1.2398877260229E+00  1.0527797503292E+00
39  3.8000000000000E-01  1.2013540674658E+00  1.0707985222241E+00
40  3.9000000000000E-01  1.1593943098099E+00  1.0880341062136E+00
41  4.0000000000000E-01  1.1141666416899E+00  1.1044737306947E+00
42  4.1000000000000E-01  1.0658391087691E+00  1.1201053821019E+00
43  4.2000000000000E-01  1.0145889188079E+00  1.1349178341455E+00
44  4.3000000000000E-01  9.6060171635528E-01  1.1489006764499E+00
45  4.4000000000000E-01  9.0407083022861E-01  1.1620443424639E+00
46  4.5000000000000E-01  8.4519649704438E-01  1.1743401365127E+00
47  4.6000000000000E-01  7.8418506414971E-01  1.1857802598614E+00
48  4.7000000000000E-01  7.2124817537253E-01  1.1963578356627E+00
49  4.8000000000000E-01  6.5660194306287E-01  1.2060669326591E+00
50  4.9000000000000E-01  5.9046610993634E-01  1.2149025875153E+00
51  5.0000000000000E-01  5.2306320425301E-01  1.2228608256572E+00
52  5.1000000000000E-01  4.5461769187165E-01  1.2299386804984E+00
53  5.2000000000000E-01  3.8535512871011E-01  1.2361342109379E+00
54  5.3000000000000E-01  3.1550131711722E-01  1.2414465170185E+00
55  5.4000000000000E-01  2.4528146962087E-01  1.2458757536398E+00
56  5.5000000000000E-01  1.7491938346071E-01  1.2494231422250E+00
57  5.6000000000000E-01  1.0463662924239E-01  1.2520909802491E+00
58  5.7000000000000E-01  3.4651756964253E-02  1.2538826485409E+00
59  5.8000000000000E-01 -3.4820477433333E-02  1.2548026162787E+00
60  5.9000000000000E-01 -1.0356986195957E-01  1.2548564436094E+00
61  6.0000000000000E-01 -1.7139145199724E-01  1.2540507818271E+00
62  6.1000000000000E-01 -2.3808626449023E-01  1.2523933710564E+00
63  6.2000000000000E-01 -3.0346194027748E-01  1.2498930353951E+00
64  6.3000000000000E-01 -3.6733337211915E-01  1.2465596754811E+00
65  6.4000000000000E-01 -4.2952329613370E-01  1.2424042584557E+00
66  6.5000000000000E-01 -4.8986284454716E-01  1.2374388053082E+00
67  6.6000000000000E-01 -5.4819205784633E-01  1.2316763755949E+00
68  6.7000000000000E-01 -6.0436035462630E-01  1.2251310495363E+00
69  6.8000000000000E-01 -6.5822695762709E-01  1.2178179075077E+00
70  6.9000000000000E-01 -7.0966127466476E-01  1.2097530069472E+00
71  7.0000000000000E-01 -7.5854323337661E-01  1.2009533567162E+00
72  7.1000000000000E-01 -8.0476356891829E-01  1.1914368889586E+00
73  7.2000000000000E-01 -8.4822406397080E-01  1.1812224285140E+00
74  7.3000000000000E-01 -8.8883774063660E-01  1.1703296599504E+00
75  7.4000000000000E-01 -9.2652900402568E-01  1.1587790922929E+00
76  7.5000000000000E-01 -9.6123373755288E-01  1.1465920215327E+00
77  7.6000000000000E-01 -9.9289935018584E-01  1.1337904910119E+00
78  7.7000000000000E-01 -1.0214847760986E+00  1.1203972497878E+00
79  7.8000000000000E-01 -1.0469604273962E+00  1.1064357090870E+00
80  7.9000000000000E-01 -1.0693081007828E+00  1.0919298969731E+00
81  8.0000000000000E-01 -1.0885208392425E+00  1.0769044113522E+00
82  8.1000000000000E-01 -1.1046027499993E+00  1.0613843714546E+00
83  8.2000000000000E-01 -1.1175687802010E+00  1.0453953679318E+00
84  8.3000000000000E-01 -1.1274444519528E+00  1.0289634117191E+00
85  8.4000000000000E-01 -1.1342655584889E+00  1.0121148818154E+00
86  8.5000000000000E-01 -1.1380778234260E+00  9.9487647213825E-01
87  8.6000000000000E-01 -1.1389365251880E+00  9.7727513761792E-01
88  8.7000000000000E-01 -1.1369060888223E+00  9.5933803969423E-01
89  8.8000000000000E-01 -1.1320596475489E+00  9.4109249138571E-01
90  8.9000000000000E-01 -1.1244785764886E+00  9.2256590210109E-01
91  9.0000000000000E-01 -1.1142520011147E+00  9.0378572236497E-01
92  9.1000000000000E-01 -1.1014762830467E+00  8.8477938862997E-01
93  9.2000000000000E-01 -1.0862544858769E+00  8.6557426834757E-01
94  9.3000000000000E-01 -1.0686958237686E+00  8.4619760546891E-01
95  9.4000000000000E-01 -1.0489150956049E+00  8.2667646654524E-01
96  9.5000000000000E-01 -1.0270321074891E+00  8.0703768759549E-01
97  9.6000000000000E-01 -1.0031710864103E+00  7.8730782190519E-01
98  9.7000000000000E-01 -9.7746008787827E-01  7.6751308891738E-01
99  9.8000000000000E-01 -9.5003040031880E-01  7.4767932437186E-01
100  9.9000000000000E-01 -9.2101594898405E-01  7.2783193184374E-01
101  1.0000000000000E+00 -8.9055270208921E-01  7.0799583582703E-01
102  1.0100000000000E+00 -8.5877808182813E-01  6.8819543650229E-01
103  1.0200000000000E+00 -8.2583038284919E-01  6.6845456632089E-01
104  1.0300000000000E+00 -7.9184820069035E-01  6.4879644853078E-01
105  1.0400000000000E+00 -7.5696987257824E-01  6.2924365776103E-01
106  1.0500000000000E+00 -7.2133293289116E-01  6.0981808277383E-01
107  1.0600000000000E+00 -6.8507358547157E-01  5.9054089148422E-01
108  1.0700000000000E+00 -6.4832619484923E-01  5.7143249833823E-01
109  1.0800000000000E+00 -6.1122279830427E-01  5.5251253413130E-01
110  1.0900000000000E+00 -5.7389264055932E-01  5.3379981833839E-01
111  1.1000000000000E+00 -5.3646173274295E-01  5.1531233401790E-01
112  1.1100000000000E+00 -4.9905243711474E-01  4.9706720534083E-01
113  1.1200000000000E+00 -4.6178307888392E-01  4.7908067778673E-01
114  1.1300000000000E+00 -4.2476758629301E-01  4.6136810103720E-01
115  1.1400000000000E+00 -3.8811515997250E-01  4.4394391458763E-01
116  1.1500000000000E+00 -3.5192997240633E-01  4.2682163608721E-01
117  1.1600000000000E+00 -3.1631089817990E-01  4.1001385240703E-01
118  1.1700000000000E+00 -2.8135127551408E-01  3.9353221342552E-01
119  1.1800000000000E+00 -2.4713869942102E-01  3.7738742851089E-01
120  1.1900000000000E+00 -2.1375484665197E-01  3.6158926566971E-01
121  1.2000000000000E+00 -1.8127533244288E-01  3.4614655332150E-01
122  1.2100000000000E+00 -1.4976959890439E-01  3.3106718464965E-01
123  1.2200000000000E+00 -1.1930083474530E-01  3.1635812446990E-01
124  1.2300000000000E+00 -8.9925925868236E-02  3.0202541854887E-01
125  1.2400000000000E+00 -6.1695436230065E-02  2.8807420529697E-01
126  1.2500000000000E+00 -3.4653618220022E-02  2.7450872975191E-01
127  1.2600000000000E+00 -8.8384516764754E-03  2.6133235976169E-01
128  1.2700000000000E+00  1.5718289462057E-02  2.4854760426919E-01
129  1.2800000000000E+00  3.8990943992782E-02  2.3615613359374E-01
130  1.2900000000000E+00  6.0959845000519E-02  2.2415880159951E-01
131  1.3000000000000E+00  8.1611177454277E-02  2.1255566963498E-01
132  1.3100000000000E+00  1.0093681326693E-01  2.0134603212327E-01
133  1.3200000000000E+00  1.1893412531650E-01  1.9052844367872E-01
134  1.3300000000000E+00  1.3560578199790E-01  1.8010074762193E-01
135  1.3400000000000E+00  1.5095952393405E-01  1.7006010576207E-01
136  1.3500000000000E+00  1.6500792452544E-01  1.6040302931342E-01
137  1.3600000000000E+00  1.7776813605644E-01  1.5112541081126E-01
138  1.3700000000000E+00  1.8926162310642E-01  1.4222255689099E-01
139  1.3800000000000E+00  1.9951388503285E-01  1.3368922179417E-01
140  1.3900000000000E+00  2.0855416930250E-01  1.2551964146511E-01
141  1.4000000000000E+00  2.1641517744622E-01  1.1770756810256E-01
142  1.4100000000000E+00  2.2313276540237E-01  1.1024630503214E-01
143  1.4200000000000E+00  2.2874563999400E-01  1.0312874176717E-01
144  1.4300000000000E+00  2.3329505325632E-01  9.6347389127995E-02
145  1.4400000000000E+00  2.3682449629309E-01  8.9894414292736E-02
146  1.4500000000000E+00  2.3937939429536E-01  8.3761675655842E-02
147  1.4600000000000E+00  2.4100680430217E-01  7.7940757374787E-02
148  1.4700000000000E+00  2.4175511722221E-01  7.2423003489562E-02
149  1.4800000000000E+00  2.4167376556795E-01  6.7199551504333E-02
150  1.4900000000000E+00  2.4081293828016E-01  6.2261365325844E-02
151  1.5000000000000E+00  2.3922330394144E-01  5.7599267458578E-02
152  1.5100000000000E+00  2.3695574359322E-01  5.3203970362543E-02
153  1.5200000000000E+00  2.3406109428189E-01  4.9066106885599E-02
154  1.5300000000000E+00  2.3058990436774E-01  4.5176259688613E-02
155  1.5400000000000E+00  2.2659220153408E-01  4.1524989588292E-02
156  1.5500000000000E+00  2.2211727433668E-01  3.8102862749212E-02
157  1.5600000000000E+00  2.1721346803324E-01  3.4900476663529E-02
158  1.5700000000000E+00  2.1192799533128E-01  3.1908484863729E-02
159  1.5800000000000E+00  2.0630676259139E-01  2.9117620320921E-02
160  1.5900000000000E+00  2.0039421192040E-01  2.6518717488175E-02
161  1.6000000000000E+00  1.9423317948781E-01  2.4102732955528E-02
162  1.6100000000000E+00  1.8786477029819E-01  2.1860764690351E-02
163  1.6200000000000E+00  1.8132824955389E-01  1.9784069843694E-02
164  1.6300000000000E+00  1.7466095064528E-01  1.7864081110148E-02
165  1.6400000000000E+00  1.6789819971183E-01  1.6092421635530E-02
166  1.6500000000000E+00  1.6107325662650E-01  1.4460918473261E-02
167  1.6600000000000E+00  1.5421727216787E-01  1.2961614596748E-02
168  1.6700000000000E+00  1.4735926106116E-01  1.1586779481270E-02
169  1.6800000000000E+00  1.4052609048940E-01  1.0328918274862E-02
170  1.6900000000000E+00  1.3374248360109E-01  9.1807795833734E-03
171  1.7000000000000E+00  1.2703103747037E-01  8.1353619003359E-03
172  1.7100000000000E+00  1.2041225490049E-01  7.1859187174051E-03
173  1.7200000000000E+00  1.1390458940128E-01  6.3259623559842E-03
174  1.7300000000000E+00  1.0752450261648E-01  5.5492665651040E-03
175  1.7400000000000E+00  1.0128653342798E-01  4.8498679348347E-03
176  1.7500000000000E+00  9.5203377919982E-02  4.2220661782883E-03
177  1.7600000000000E+00  8.9285979348401E-02  3.6604233387216E-03
178  1.7700000000000E+00  8.3543627228466E-02  3.1597619813308E-03
179  1.7800000000000E+00  7.7984064626828E-02  2.7151624320582E-03
180  1.7900000000000E+00  7.2613602723369E-02  2.3219591280364E-03
181  1.8000000000000E+00  6.7437241692455E-02  1.9757361462761E-03
182  1.8100000000000E+00  6.2458796943273E-02  1.6723219787790E-03
183  1.8200000000000E+00  5.7681029754033E-02  1.4077836234730E-03
184  1.8300000000000E+00  5.3105781335152E-02  1.1784200611996E-03
185  1.8400000000000E+00  4.8734109361892E-02  9.8075518946434E-04
186  1.8500000000000E+00  4.4566426026974E-02  8.1153028378731E-04
187  1.8600000000000E+00  4.0602636678245E-02  6.6769605724924E-04
188  1.8700000000000E+00  3.6842278125458E-02  5.4640438827531E-04
189  1.8800000000000E+00  3.3284655911226E-02  4.4499978122320E-04
190  1.8900000000000E+00  2.9928979858053E-02  3.6101062229589E-04
191  1.9000000000000E+00  2.6774482572142E-02  2.9214065699498E-04
192  1.9100000000000E+00  2.3820604078047E-02  2.3625869164368E-04
193  1.9200000000000E+00  2.1066618231859E-02  1.9140179381012E-04
194  1.9300000000000E+00  1.8510883882537E-02  1.5578830433772E-04
195  1.9400000000000E+00  1.6150512369356E-02  1.2782153684246E-04
196  1.9500000000000E+00  1.3981578884515E-02  1.0608034896422E-04
197  1.9600000000000E+00  1.1999251653881E-02  8.9311487575146E-05
198  1.9700000000000E+00  1.0197929955647E-02  7.6422004567246E-05
199  1.9800000000000E+00  8.5713798156013E-03  6.6467963179313E-05
200  1.9900000000000E+00  7.1128434601924E-03  5.8657512387871E-05
201  2.0000000000000E+00  5.8151657883237E-03  5.2328304386509E-05
202  2.0100000000000E+00  4.6711687549627E-03  4.6774133801721E-05
203  2.0200000000000E+00  3.6739064345252E-03  4.1170727946569E-05
204  2.0300000000000E+00  2.8154870930387E-03  3.5399161349606E-05
205  2.0400000000000E+00  2.0878388679993E-03  2.9503368512372E-05
206  2.0500000000000E+00  1.4829510189657E-03  2.3565594355838E-05
207  2.0600000000000E+00  9.9290024777165E-04  1.7739830133473E-05
208  2.0700000000000E+00  6.0991347912260E-04  1.2243157464325E-05
209  2.0800000000000E+00  3.2652198886904E-04  7.3577590745652E-06
210  2.0900000000000E+00  1.3426675379921E-04  3.3854390797047E-06
211  2.1000000000000E+00  3.0476403231490E-05  8.6613258187547E-07
212  2.1100000000000E+00 -1.3335116393047E-06 -3.8791549787039E-08
213  2.1200000000000E+00 -6.6889733847251E-07 -2.1615084775695E-08
214  2.13  0.  0.
215  2.14 -0. -0.
216  2.15  0. -0.
217  2.16  0.  0.
218  2.17  0.  0.
219  2.18  0.  0.
220  2.19  0.  0.
221  2.20  0.  0.
222  2.21  0.  0.
223  2.22  0.  0.
224  2.23  0.  0.
225  2.24  0.  0.
226  2.25  0.  0.
227  2.26  0.  0.
228  2.27  0.  0.
229  2.28  0.  0.
230  2.29  0.  0.
231  2.30  0.  0.
232  2.31  0.  0.
233  2.32  0.  0.
234  2.33  0.  0.
235  2.34  0.  0.
236  2.35  0.  0.
237  2.36  0.  0.
238  2.37  0.  0.
239  2.38  0.  0.
240  2.39  0.  0.
241  2.40  0.  0.
242  2.41  0.  0.
243  2.42  0.  0.
244  2.43  0.  0.
245  2.44  0.  0.
246  2.45  0.  0.
247  2.46  0.  0.
248  2.47  0.  0.
249  2.48  0.  0.
250  2.49  0.  0.
251  2.50  0.  0.
252  2.51  0.  0.
253  2.52  0.  0.
254  2.53  0.  0.
255  2.54  0.  0.
256  2.55  0.  0.
257  2.56  0.  0.
258  2.57  0.  0.
259  2.58  0.  0.
260  2.59  0.  0.
261  2.60  0.  0.
262  2.61  0.  0.
263  2.62  0.  0.
264  2.63  0.  0.
265  2.64  0.  0.
266  2.65  0.  0.
267  2.66  0.  0.
268  2.67  0.  0.
269  2.68  0.  0.
270  2.69  0.  0.
271  2.70  0.  0.
272  2.71  0.  0.
273  2.72  0.  0.
274  2.73  0.  0.
275  2.74  0.  0.
276  2.75  0.  0.
277  2.76  0.  0.
278  2.77  0.  0.
279  2.78  0.  0.
280  2.79  0.  0.
281  2.80  0.  0.
282  2.81  0.  0.
283  2.82  0.  0.
284  2.83  0.  0.
285  2.84  0.  0.
286  2.85  0.  0.
287  2.86  0.  0.
288  2.87  0.  0.
289  2.88  0.  0.
290  2.89  0.  0.
291  2.90  0.  0.
292  2.91  0.  0.
293  2.92  0.  0.
294  2.93  0.  0.
295  2.94  0.  0.
296  2.95  0.  0.
297  2.96  0.  0.
298  2.97  0.  0.
299  2.98  0.  0.
300  2.99  0.  0.
301  3.00  0.  0.
302  3.01  0.  0.
303  3.02  0.  0.
304  3.03  0.  0.
305  3.04  0.  0.
306  3.05  0.  0.
307  3.06  0.  0.
308  3.07  0.  0.
309  3.08  0.  0.
310  3.09  0.  0.
311  3.10  0.  0.
312  3.11  0.  0.
313  3.12  0.  0.
314  3.13  0.  0.
315  3.14  0.  0.
316  3.15  0.  0.
317  3.16  0.  0.
318  3.17  0.  0.
319  3.18  0.  0.
320  3.19  0.  0.
321  3.20  0.  0.
322  3.21  0.  0.
323  3.22  0.  0.
324  3.23  0.  0.
325  3.24  0.  0.
326  3.25  0.  0.
327  3.26  0.  0.
328  3.27  0.  0.
329  3.28  0.  0.
330  3.29  0.  0.
331  3.30  0.  0.
332  3.31  0.  0.
333  3.32  0.  0.
334  3.33  0.  0.
335  3.34  0.  0.
336  3.35  0.  0.
337  3.36  0.  0.
338  3.37  0.  0.
339  3.38  0.  0.
340  3.39  0.  0.
341  3.40  0.  0.
342  3.41  0.  0.
343  3.42  0.  0.
344  3.43  0.  0.
345  3.44  0.  0.
346  3.45  0.  0.
347  3.46  0.  0.
348  3.47  0.  0.
349  3.48  0.  0.
350  3.49  0.  0.
351  3.50  0.  0.
352  3.51  0.  0.
353  3.52  0.  0.
354  3.53  0.  0.
355  3.54  0.  0.
356  3.55  0.  0.
357  3.56  0.  0.
358  3.57  0.  0.
359  3.58  0.  0.
360  3.59  0.  0.
361  3.60  0.  0.
362  3.61  0.  0.
363  3.62  0.  0.
364  3.63  0.  0.
365  3.64  0.  0.
366  3.65  0.  0.
367  3.66  0.  0.
368  3.67  0.  0.
369  3.68  0.  0.
370  3.69  0.  0.
371  3.70  0.  0.
372  3.71  0.  0.
373  3.72  0.  0.
374  3.73  0.  0.
375  3.74  0.  0.
376  3.75  0.  0.
377  3.76  0.  0.
378  3.77  0.  0.
379  3.78  0.  0.
380  3.79  0.  0.
381  3.80  0.  0.
382  3.81  0.  0.
383  3.82  0.  0.
384  3.83  0.  0.
385  3.84  0.  0.
386  3.85  0.  0.
387  3.86  0.  0.
388  3.87  0.  0.
389  3.88  0.  0.
390  3.89  0.  0.
391  3.90  0.  0.
392  3.91  0.  0.
393  3.92  0.  0.
394  3.93  0.  0.
395  3.94  0.  0.
396  3.95  0.  0.
397  3.96  0.  0.
398  3.97  0.  0.
399  3.98  0.  0.
400  3.99  0.  0.
401  4.00  0.  0.
402  4.01  0.  0.
403  4.02  0.  0.
404  4.03  0.  0.
405  4.04  0.  0.
406  4.05  0.  0.
407  4.06  0.  0.
408  4.07  0.  0.
409  4.08  0.  0.
410  4.09  0.  0.
411  4.10  0.  0.
412  4.11  0.  0.
413  4.12  0.  0.
414  4.13  0.  0.
415  4.14  0.  0.
416  4.15  0.  0.
417  4.16  0.  0.
418  4.17  0.  0.
419  4.18  0.  0.
420  4.19  0.  0.
421  4.20  0.  0.
422  4.21  0.  0.
423  4.22  0.  0.
424  4.23  0.  0.
425  4.24  0.  0.
426  4.25  0.  0.
427  4.26  0.  0.
428  4.27  0.  0.
429  4.28  0.  0.
430  4.29  0.  0.
431  4.30  0.  0.
432  4.31  0.  0.
433  4.32  0.  0.
434  4.33  0.  0.
435  4.34  0.  0.
436  4.35  0.  0.
437  4.36  0.  0.
438  4.37  0.  0.
439  4.38  0.  0.
440  4.39  0.  0.
441  4.40  0.  0.
442  4.41  0.  0.
443  4.42  0.  0.
444  4.43  0.  0.
445  4.44  0.  0.
446  4.45  0.  0.
447  4.46  0.  0.
448  4.47  0.  0.
449  4.48  0.  0.
450  4.49  0.  0.
451  4.50  0.  0.
452  4.51  0.  0.
453  4.52  0.  0.
454  4.53  0.  0.
455  4.54  0.  0.
456  4.55  0.  0.
457  4.56  0.  0.
458  4.57  0.  0.
459  4.58  0.  0.
460  4.59  0.  0.
461  4.60  0.  0.
462  4.61  0.  0.
463  4.62  0.  0.
464  4.63  0.  0.
465  4.64  0.  0.
466  4.65  0.  0.
467  4.66  0.  0.
468  4.67  0.  0.
469  4.68  0.  0.
470  4.69  0.  0.
471  4.70  0.  0.
472  4.71  0.  0.
473  4.72  0.  0.
474  4.73  0.  0.
475  4.74  0.  0.
476  4.75  0.  0.
477  4.76  0.  0.
478  4.77  0.  0.
479  4.78  0.  0.
480  4.79  0.  0.
481  4.80  0.  0.
482  4.81  0.  0.
483  4.82  0.  0.
484  4.83  0.  0.
485  4.84  0.  0.
486  4.85  0.  0.
487  4.86  0.  0.
488  4.87  0.  0.
489  4.88  0.  0.
490  4.89  0.  0.
491  4.90  0.  0.
492  4.91  0.  0.
493  4.92  0.  0.
494  4.93  0.  0.
495  4.94  0.  0.
496  4.95  0.  0.
497  4.96  0.  0.
498  4.97  0.  0.
499  4.98  0.  0.
500  4.99  0.  0.
501  5.00  0.  0.
502  5.01  0.  0.
503  5.02  0.  0.
504  5.03  0.  0.
505  5.04  0.  0.
506  5.05  0.  0.
507  5.06  0.  0.
508  5.07  0.  0.
509  5.08  0.  0.
510  5.09  0.  0.
511  5.10  0.  0.
512  5.11  0.  0.
513  5.12  0.  0.
514  5.13  0.  0.
515  5.14  0.  0.
516  5.15  0.  0.
517  5.16  0.  0.
518  5.17  0.  0.
519  5.18  0.  0.
520  5.19  0.  0.
521  5.20  0.  0.
522  5.21  0.  0.
523  5.22  0.  0.
524  5.23  0.  0.
525  5.24  0.  0.
526  5.25  0.  0.
527  5.26  0.  0.
528  5.27  0.  0.
529  5.28  0.  0.
530  5.29  0.  0.
531  5.30  0.  0.
532  5.31  0.  0.
533  5.32  0.  0.
534  5.33  0.  0.
535  5.34  0.  0.
536  5.35  0.  0.
537  5.36  0.  0.
538  5.37  0.  0.
539  5.38  0.  0.
540  5.39  0.  0.
541  5.40  0.  0.
542  5.41  0.  0.
543  5.42  0.  0.
544  5.43  0.  0.
545  5.44  0.  0.
546  5.45  0.  0.
547  5.46  0.  0.
548  5.47  0.  0.
549  5.48  0.  0.
550  5.49  0.  0.
551  5.50  0.  0.
552  5.51  0.  0.
553  5.52  0.  0.
554  5.53  0.  0.
555  5.54  0.  0.
556  5.55  0.  0.
557  5.56  0.  0.
558  5.57  0.  0.
559  5.58  0.  0.
560  5.59  0.  0.
561  5.60  0.  0.
562  5.61  0.  0.
563  5.62  0.  0.
564  5.63  0.  0.
565  5.64  0.  0.
566  5.65  0.  0.
567  5.66  0.  0.
568  5.67  0.  0.
569  5.68  0.  0.
570  5.69  0.  0.
571  5.70  0.  0.
572  5.71  0.  0.
573  5.72  0.  0.
574  5.73  0.  0.
575  5.74  0.  0.
576  5.75  0.  0.
577  5.76  0.  0.
578  5.77  0.  0.
579  5.78  0.  0.
580  5.79  0.  0.
581  5.80  0.  0.
582  5.81  0.  0.
583  5.82  0.  0.
584  5.83  0.  0.
585  5.84  0.  0.
586  5.85  0.  0.
587  5.86  0.  0.
588  5.87  0.  0.
589  5.88  0.  0.
590  5.89  0.  0.
591  5.90  0.  0.
592  5.91  0.  0.
593  5.92  0.  0.
594  5.93  0.  0.
595  5.94  0.  0.
596  5.95  0.  0.
597  5.96  0.  0.
598  5.97  0.  0.
599  5.98  0.  0.
600  5.99  0.  0.
1                        -3.7040681007664E+00 -3.6410933883042E-01
1  0.0000000000000E+00  2.3139198890298E-11 -1.3814734078910E-11
2  1.0000000000000E-02  7.8574195941993E-04 -7.4282849249614E-04
3  2.0000000000000E-02  3.1411092282506E-03 -2.9686832226905E-03
4  3.0000000000000E-02  7.0605306711175E-03 -6.6696786509386E-03
5  4.0000000000000E-02  1.2534736693688E-02 -1.1832694545468E-02
6  5.0000000000000E-02  1.9550782648607E-02 -1.8439409461235E-02
7  6.0000000000000E-02  2.8092081521843E-02 -2.6466347564846E-02
8  7.0000000000000E-02  3.8138445817683E-02 -3.5884938759068E-02
9  8.0000000000000E-02  4.9666138537467E-02 -4.6661592046635E-02
10  9.0000000000000E-02  6.2647933124272E-02 -5.8757782057481E-02
11  1.0000000000000E-01  7.7053182223015E-02 -7.2130148647875E-02
12  1.1000000000000E-01  9.2847895083066E-02 -8.6730609462825E-02
13  1.2000000000000E-01  1.0999482340835E-01 -1.0250648533454E-01
14  1.3000000000000E-01  1.2845355543819E-01 -1.1940063837068E-01
15  1.4000000000000E-01  1.4818061802082E-01 -1.3735162256459E-01
16  1.5000000000000E-01  1.6912958642063E-01 -1.5629384673738E-01
17  1.6000000000000E-01  1.9125120157985E-01 -1.7615774959774E-01
18  1.7000000000000E-01  2.1449349453558E-01 -1.9686998667945E-01
19  1.8000000000000E-01  2.3880191767382E-01 -2.1835362888921E-01
20  1.9000000000000E-01  2.6411948248364E-01 -2.4052837236868E-01
21  2.0000000000000E-01  2.9038690345667E-01 -2.6331075934355E-01
22  2.1000000000000E-01  3.1754274776019E-01 -2.8661440960073E-01
23  2.2000000000000E-01  3.4552359029542E-01 -3.1035026220066E-01
24  2.3000000000000E-01  3.7426417373741E-01 -3.3442682699701E-01
25  2.4000000000000E-01  4.0369757313838E-01 -3.5875044549913E-01
26  2.5000000000000E-01  4.3375536466233E-01 -3.8322556057557E-01
27  2.6000000000000E-01  4.6436779800669E-01 -4.0775499445793E-01
28  2.7000000000000E-01  4.9546397205459E-01 -4.3224023446517E-01
29  2.8000000000000E-01  5.2697201329128E-01 -4.5658172582840E-01
30  2.9000000000000E-01  5.5881925650864E-01 -4.8067917095571E-01
31  3.0000000000000E-01  5.9093242731356E-01 -5.0443183443604E-01
32  3.1000000000000E-01  6.2323782594915E-01 -5.2773885304067E-01
33  3.2000000000000E-01  6.5566151193185E-01 -5.5049954994080E-01
34  3.3000000000000E-01  6.8812948900344E-01 -5.7261375232028E-01
35  3.4000000000000E-01  7.2056788989366E-01 -5.9398211152421E-01
36  3.5000000000000E-01  7.5290316038772E-01 -6.1450642484681E-01
37  3.6000000000000E-01  7.8506224219269E-01 -6.3408995802694E-01
38  3.7000000000000E-01  8.1697275409806E-01 -6.5263776748541E-01
39  3.8000000000000E-01  8.4856317092839E-01 -6.7005702130762E-01
40  3.9000000000000E-01  8.7976299979020E-01 -6.8625731794601E-01
41  4.0000000000000E-01  9.1050295312104E-01 -7.0115100159134E-01
42  4.1000000000000E-01  9.4071511805582E-01 -7.1465347313911E-01
43  4.2000000000000E-01  9.7033312163421E-01 -7.2668349565900E-01
44  4.3000000000000E-01  9.9929229138316E-01 -7.3716349325978E-01
45  4.4000000000000E-01  1.0275298108206E+00 -7.4601984223184E-01
46  4.5000000000000E-01  1.0549848694395E+00 -7.5318315334297E-01
47  4.6000000000000E-01  1.0815988067459E+00 -7.5858854416151E-01
48  4.7000000000000E-01  1.1073152499418E+00 -7.6217590028470E-01
49  4.8000000000000E-01  1.1320802448604E+00 -7.6389012435816E-01
50  4.9000000000000E-01  1.1558423797806E+00 -7.6368137178741E-01
51  5.0000000000000E-01  1.1785529017688E+00 -7.6150527206086E-01
52  5.1000000000000E-01  1.2001658252172E+00 -7.5732313463003E-01
53  5.2000000000000E-01  1.2206380322702E+00 -7.5110213832320E-01
54  5.3000000000000E-01  1.2399293648566E+00 -7.4281550330607E-01
55  5.4000000000000E-01  1.2580027080689E+00 -7.3244264464570E-01
56  5.5000000000000E-01  1.2748240646583E+00 -7.1996930658299E-01
57  5.6000000000000E-01  1.2903626204417E+00 -7.0538767667328E-01
58  5.7000000000000E-01  1.3045908004440E+00 -6.8869647901557E-01
59  5.8000000000000E-01  1.3174843156300E+00 -6.6990104585649E-01
60  5.9000000000000E-01  1.3290222001087E+00 -6.4901336692684E-01
61  6.0000000000000E-01  1.3391868387233E+00 -6.2605211594549E-01
62  6.1000000000000E-01  1.3479639849726E+00 -6.0104265380713E-01
63  6.2000000000000E-01  1.3553427692386E+00 -5.7401700805704E-01
64  6.3000000000000E-01  1.3613156973281E+00 -5.4501382834702E-01
65  6.4000000000000E-01  1.3658786393694E+00 -5.1407831766181E-01
66  6.5000000000000E-01  1.3690308091320E+00 -4.8126213920401E-01
67  6.6000000000000E-01  1.3707747338764E+00 -4.4662329892734E-01
68  6.7000000000000E-01  1.3711162148649E+00 -4.1022600381309E-01
69  6.8000000000000E-01  1.3700642787014E+00 -3.7214049609108E-01
70  6.9000000000000E-01  1.3676311196968E+00 -3.3244286371554E-01
71  7.0000000000000E-01  1.3638320334844E+00 -2.9121482751587E-01
72  7.1000000000000E-01  1.3586853421452E+00 -2.4854350555241E-01
73  7.2000000000000E-01  1.3522123111244E+00 -2.0452115531818E-01
74  7.3000000000000E-01  1.3444370582537E+00 -1.5924489453662E-01
75  7.4000000000000E-01  1.3353864552180E+00 -1.1281640141408E-01
76  7.5000000000000E-01  1.3250900218308E+00 -6.5341595312178E-02
77  7.6000000000000E-01  1.3135798135071E+00 -1.6930298909010E-02
78  7.7000000000000E-01  1.3008903023448E+00  3.2304116981369E-02
79  7.8000000000000E-01  1.2870582522475E+00  8.2245104664394E-02
80  7.9000000000000E-01  1.2721225885402E+00  1.3277332553708E-01
81  8.0000000000000E-01  1.2561242625481E+00  1.8376704933048E-01
82  8.1000000000000E-01  1.2391061116238E+00  2.3510256509521E-01
83  8.2000000000000E-01  1.2211127151233E+00  2.8665460232748E-01
84  8.3000000000000E-01  1.2021902468430E+00  3.3829676056437E-01
85  8.4000000000000E-01  1.1823863244402E+00  3.8990194571671E-01
86  8.5000000000000E-01  1.1617498563669E+00  4.4134281135411E-01
87  8.6000000000000E-01  1.1403308868550E+00  4.9249220311226E-01
88  8.7000000000000E-01  1.1181804394920E+00  5.4322360435648E-01
89  8.8000000000000E-01  1.0953503599313E+00  5.9341158120821E-01
90  8.9000000000000E-01  1.0718931582769E+00  6.4293222502380E-01
91  9.0000000000000E-01  1.0478618516851E+00  6.9166359040661E-01
92  9.1000000000000E-01  1.0233098077147E+00  7.3948612683563E-01
93  9.2000000000000E-01  9.9829058895621E-01  7.8628310200526E-01
94  9.3000000000000E-01  9.7285779945818E-01  8.3194101499332E-01
95  9.4000000000000E-01  9.4706493345852E-01  8.7634999740591E-01
96  9.5000000000000E-01  9.2096522691620E-01  9.1940420069006E-01
97  9.6000000000000E-01  8.9461151232325E-01  9.6100216785745E-01
98  9.7000000000000E-01  8.6805607725996E-01  1.0010471879238E+00
99  9.8000000000000E-01  8.4135052713785E-01  1.0394476314407E+00
100  9.9000000000000E-01  8.1454565255421E-01  1.0761172655767E+00
101  1.0000000000000E+00  7.8769130166001E-01  1.1109755472944E+00
102  1.0100000000000E+00  7.6083625791935E-01  1.1439478932698E+00
103  1.0200000000000E+00  7.3402812361367E-01  1.1749659253032E+00
104  1.0300000000000E+00  7.0731320941730E-01  1.2039676900886E+00
105  1.0400000000000E+00  6.8073643034384E-01  1.2308978523266E+00
106  1.0500000000000E+00  6.5434120833380E-01  1.2557078602931E+00
107  1.0600000000000E+00  6.2816938172488E-01  1.2783560831102E+00
108  1.0700000000000E+00  6.0226112181577E-01  1.2988079191015E+00
109  1.0800000000000E+00  5.7665485670346E-01  1.3170358747560E+00
110  1.0900000000000E+00  5.5138720254302E-01  1.3330196139706E+00
111  1.1000000000000E+00  5.2649290234664E-01  1.3467459773869E+00
112  1.1100000000000E+00  5.0200477240732E-01  1.3582089717896E+00
113  1.1200000000000E+00  4.7795365640052E-01  1.3674097296801E+00
114  1.1300000000000E+00  4.5436838718531E-01  1.3743564392928E+00
115  1.1400000000000E+00  4.3127575629521E-01  1.3790642454660E+00
116  1.1500000000000E+00  4.0870049107777E-01  1.3815551219304E+00
117  1.1600000000000E+00  3.8666523941150E-01  1.3818577157183E+00
118  1.1700000000000E+00  3.6519056189893E-01  1.3800071645406E+00
119  1.1800000000000E+00  3.4429493140579E-01  1.3760448881128E+00
120  1.1900000000000E+00  3.2399473978813E-01  1.3700183545416E+00
121  1.2000000000000E+00  3.0430431162256E-01  1.3619808230103E+00
122  1.2100000000000E+00  2.8523592472897E-01  1.3519910641178E+00
123  1.2200000000000E+00  2.6679983725091E-01  1.3401130593353E+00
124  1.2300000000000E+00  2.4900432103577E-01  1.3264156811497E+00
125  1.2400000000000E+00  2.3185570103582E-01  1.3109723555534E+00
126  1.2500000000000E+00  2.1535840043098E-01  1.2938607086252E+00
127  1.2600000000000E+00  1.9951499115656E-01  1.2751621990208E+00