Th    ONCVPSP-4.0.1  r_core=   1.30243   1.30243   1.20498   1.40776
90.0000     30.0000      220327    zatom,zion,pspd
8      11   3     4   600     0    pspcod,pspxc,lmax,lloc,mmax,r2well
5.99000000  5.00000000  0.00000000    rchrg fchrg qchrg
3     2     2     2     0    nproj
1     1           extension_switch
0                         2.0097825270118E+01  2.5897668202588E+00 -1.1851460066651E+00
1  0.0000000000000E+00  4.7291617288892E-09 -2.7902264110313E-08 -2.3948329863632E-07
2  1.0000000000000E-02  1.0110656356910E-01 -7.7200350295508E-03  1.4071532997237E-01
3  2.0000000000000E-02  2.0194479549012E-01 -1.5581824009356E-02  2.7848640430468E-01
4  3.0000000000000E-02  3.0224550432864E-01 -2.3718034959878E-02  4.1044678026975E-01
5  4.0000000000000E-02  4.0173782741907E-01 -3.2243436639703E-02  5.3388341940402E-01
6  5.0000000000000E-02  5.0014851484513E-01 -4.1246622934990E-02  6.4630790018696E-01
7  6.0000000000000E-02  5.9720135344425E-01 -5.0782525348904E-02  7.4552122198369E-01
8  7.0000000000000E-02  6.9261677178294E-01 -6.0865942353187E-02  8.2967035613409E-01
9  8.0000000000000E-02  7.8611166232123E-01 -7.1466286461731E-02  8.9729493955508E-01
10  9.0000000000000E-02  8.7739945129263E-01 -8.2503716456354E-02  9.4736279228472E-01
11  1.0000000000000E-01  9.6619044031182E-01 -9.3846784142761E-02  9.7929326476819E-01
12  1.1000000000000E-01  1.0521924365426E+00 -1.0531168337430E-01  9.9296777394051E-01
13  1.2000000000000E-01  1.1351116805908E+00 -1.1666314498065E-01  9.8872725906486E-01
14  1.3000000000000E-01  1.2146540733153E+00 -1.2761697587729E-01  9.6735666802313E-01
15  1.4000000000000E-01  1.2905266946727E+00 -1.3784419523793E-01  9.3005696129953E-01
16  1.5000000000000E-01  1.3624395997218E+00 -1.4697667642287E-01  8.7840548327027E-01
17  1.6000000000000E-01  1.4301078692080E+00 -1.5461416156633E-01  8.1430588807968E-01
18  1.7000000000000E-01  1.4932538849183E+00 -1.6033247747610E-01  7.3992911044207E-01
19  1.8000000000000E-01  1.5516097934105E+00 -1.6369274782329E-01  6.5764713133872E-01
20  1.9000000000000E-01  1.6049201159504E+00 -1.6425136841651E-01  5.6996149713141E-01
21  2.0000000000000E-01  1.6529444576632E+00 -1.6157049042754E-01  4.7942870194903E-01
22  2.1000000000000E-01  1.6954602651558E+00 -1.5522874135934E-01  3.8858463285079E-01
23  2.2000000000000E-01  1.7322655792687E+00 -1.4483190572945E-01  2.9987030252415E-01
24  2.3000000000000E-01  1.7631817282464E+00 -1.3002328709439E-01  2.1556105431288E-01
25  2.4000000000000E-01  1.7880559065052E+00 -1.1049348016781E-01  1.3770132028598E-01
26  2.5000000000000E-01  1.8067635853201E+00 -8.5989296187993E-02  6.8046847828882E-02
27  2.6000000000000E-01  1.8192107041401E+00 -5.6321605976521E-02  8.0160885782029E-03
28  2.7000000000000E-01  1.8253355947932E+00 -2.1371892707572E-02 -4.1347828073316E-02
29  2.8000000000000E-01  1.8251105954947E+00  1.8902660473908E-02 -7.9403428362742E-02
30  2.9000000000000E-01  1.8185433171982E+00  6.4465685098741E-02 -1.0592477247105E-01
31  3.0000000000000E-01  1.8056775313000E+00  1.1519984005305E-01 -1.2110248513757E-01
32  3.1000000000000E-01  1.7865936548709E+00  1.7090677424931E-01 -1.2553192717875E-01
33  3.2000000000000E-01  1.7614088172663E+00  2.3130884616618E-01 -1.2018887845787E-01
34  3.3000000000000E-01  1.7302764999841E+00  2.9605256201883E-01 -1.0639347416780E-01
35  3.4000000000000E-01  1.6933857498013E+00  3.6471365039035E-01 -8.5763486086387E-02
36  3.5000000000000E-01  1.6509599733435E+00  4.3680364960830E-01 -6.0158358276593E-02
37  3.6000000000000E-01  1.6032553291230E+00  5.1177784610717E-01 -3.1615683148623E-02
38  3.7000000000000E-01  1.5505587405586E+00  5.8904436849964E-01 -2.2820306032070E-03
39  3.8000000000000E-01  1.4931855603774E+00  6.6797421398360E-01  2.5659786675580E-02
40  3.9000000000000E-01  1.4314769229522E+00  7.4791196177171E-01  5.0064819888867E-02
41  4.0000000000000E-01  1.3657968264109E+00  8.2818691301550E-01  6.8899226968262E-02
42  4.1000000000000E-01  1.2965289906586E+00  9.0812438857452E-01  8.0310438127811E-02
43  4.2000000000000E-01  1.2240735406917E+00  9.8705691513303E-01  8.2692118701584E-02
44  4.3000000000000E-01  1.1488435667027E+00  1.0643350365516E+00  7.4741954973183E-02
45  4.4000000000000E-01  1.0712616134438E+00  1.1393375007332E+00  5.5510498563464E-02
46  4.5000000000000E-01  9.9175615114540E-01  1.2114805922407E+00  2.4439567269268E-02
47  4.6000000000000E-01  9.1075807898879E-01  1.2802264068225E+00 -1.8610992706278E-02
48  4.7000000000000E-01  8.2869730978895E-01  1.3450898950902E+00 -7.3349035577393E-02
49  4.8000000000000E-01  7.4599948121700E-01  1.4056445379435E+00 -1.3904882031505E-01
50  4.9000000000000E-01  6.6308283470624E-01  1.4615265548996E+00 -2.1456279259934E-01
51  5.0000000000000E-01  5.8035529825816E-01  1.5124375871509E+00 -2.9834616115922E-01
52  5.1000000000000E-01  4.9821180384376E-01  1.5581458387672E+00 -3.8849360851220E-01
53  5.2000000000000E-01  4.1703186413490E-01  1.5984857007938E+00 -4.8278711915299E-01
54  5.3000000000000E-01  3.3717742706470E-01  1.6333559229062E+00 -5.7875358175806E-01
55  5.4000000000000E-01  2.5899102037035E-01  1.6627164346505E+00 -6.7373053569626E-01
56  5.5000000000000E-01  1.8279419198217E-01  1.6865839520935E+00 -7.6493819453772E-01
57  5.6000000000000E-01  1.0888624604638E-01  1.7050265350211E+00 -8.4955569739838E-01
58  5.7000000000000E-01  3.7543268654881E-02  1.7181572838756E+00 -9.2479941811381E-01
59  5.8000000000000E-01 -3.0982567864618E-02  1.7261273838157E+00 -9.8800110587590E-01
60  5.9000000000000E-01 -9.6463437855053E-02  1.7291187151765E+00 -1.0366836405280E+00
61  6.0000000000000E-01 -1.5869605209670E-01  1.7273362549858E+00 -1.0686322606871E+00
62  6.1000000000000E-01 -2.1750162723106E-01  1.7210004929938E+00 -1.0819592606731E+00
63  6.2000000000000E-01 -2.7272565995334E-01  1.7103400780904E+00 -1.0751603483959E+00
64  6.3000000000000E-01 -3.2423753256060E-01  1.6955848973346E+00 -1.0471611046858E+00
65  6.4000000000000E-01 -3.7192997708652E-01  1.6769597706668E+00 -9.9735227718246E-01
66  6.5000000000000E-01 -4.1571842509673E-01  1.6546789203784E+00 -9.2561296968839E-01
67  6.6000000000000E-01 -4.5554026931556E-01  1.6289413464243E+00 -8.3232114067812E-01
68  6.7000000000000E-01 -4.9135406168156E-01  1.5999272076045E+00 -7.1835119147458E-01
69  6.8000000000000E-01 -5.2313867028007E-01  1.5677952755363E+00 -5.8505879420547E-01
70  6.9000000000000E-01 -5.5089241498395E-01  1.5326814942466E+00 -4.3425347074267E-01
71  7.0000000000000E-01 -5.7463219866873E-01  1.4946986442194E+00 -2.6815977538957E-01
72  7.1000000000000E-01 -5.9439264768197E-01  1.4539370768747E+00 -8.9368245883335E-02
73  7.2000000000000E-01 -6.1022527196507E-01  1.4104664547526E+00  9.9222439992721E-02
74  7.3000000000000E-01 -6.2219765197697E-01  1.3643384050204E+00  2.9447043924402E-01
75  7.4000000000000E-01 -6.3039265646860E-01  1.3155899701241E+00  4.9306101484649E-01
76  7.5000000000000E-01 -6.3490769231528E-01  1.2642477201104E+00  6.9158015430864E-01
77  7.6000000000000E-01 -6.3585398512097E-01  1.2103323768588E+00  8.8658953384867E-01
78  7.7000000000000E-01 -6.3335588723987E-01  1.1538637914885E+00  1.0747008356619E+00
79  7.8000000000000E-01 -6.2755020826883E-01  1.0948661126862E+00  1.2526474959254E+00
80  7.9000000000000E-01 -6.1858556197978E-01  1.0333729855693E+00  1.4173520893034E+00
81  8.0000000000000E-01 -6.0662172308901E-01  9.6943262771393E-01  1.5659877369797E+00
82  8.1000000000000E-01 -5.9182898718105E-01  9.0311264070507E-01  1.6960321531282E+00
83  8.2000000000000E-01 -5.7438752747370E-01  8.3450443141291E-01  1.8053132113223E+00
84  8.3000000000000E-01 -5.5448674285921E-01  7.6372713641845E-01  1.8920452084807E+00
85  8.4000000000000E-01 -5.3232459269193E-01  6.9093096471953E-01  1.9548553194358E+00
86  8.5000000000000E-01 -5.0810691500490E-01  6.1629989707114E-01  1.9928000593456E+00
87  8.6000000000000E-01 -4.8204672609540E-01  5.4005370398289E-01  2.0053718928031E+00
88  8.7000000000000E-01 -4.5436350057969E-01  4.6244926740496E-01  1.9924964365026E+00
89  8.8000000000000E-01 -4.2528243192344E-01  3.8378121234347E-01  1.9545209857602E+00
90  8.9000000000000E-01 -3.9503367394547E-01  3.0438187293018E-01  1.8921953436698E+00
91  9.0000000000000E-01 -3.6385156370027E-01  2.2462063172453E-01  1.8066461355248E+00
92  9.1000000000000E-01 -3.3197382530302E-01  1.4490268020051E-01  1.6993459416053E+00
93  9.2000000000000E-01 -2.9964075250568E-01  6.5667251485096E-02  1.5720786708455E+00
94  9.3000000000000E-01 -2.6709436500507E-01 -1.2614627428000E-02  1.4269026197266E+00
95  9.4000000000000E-01 -2.3457752941439E-01 -8.9442828367344E-02  1.2661126096458E+00
96  9.5000000000000E-01 -2.0233303041905E-01 -1.6429124402071E-01  1.0922024677955E+00
97  9.6000000000000E-01 -1.7060257073591E-01 -2.3661135290674E-01  9.0782890813058E-01
98  9.7000000000000E-01 -1.3962566999033E-01 -3.0583627959231E-01  7.1577757816949E-01
99  9.8000000000000E-01 -1.0963842240740E-01 -3.7138545122970E-01  5.1893166260417E-01
100  9.9000000000000E-01 -8.0872061205823E-02 -4.3267001059638E-01  3.2024297555615E-01
101  1.0000000000000E+00 -5.3551263683923E-02 -4.8909921568735E-01  1.2270492848728E-01
102  1.0100000000000E+00 -2.7892115148446E-02 -5.4008813672523E-01 -7.0673869579321E-02
103  1.0200000000000E+00 -4.0996319892936E-03 -5.8506705352606E-01 -2.5689733981612E-01
104  1.0300000000000E+00  1.7635275707246E-02 -6.2349305978558E-01 -4.3301375462143E-01
105  1.0400000000000E+00  3.7139543646427E-02 -6.5486449641022E-01 -5.9615531290644E-01
106  1.0500000000000E+00  5.4262560714923E-02 -6.7873896369466E-01 -7.4359011884119E-01
107  1.0600000000000E+00  6.8881836452964E-02 -6.9475580264895E-01 -8.7279230063722E-01
108  1.0700000000000E+00  8.0909949416573E-02 -7.0266408960887E-01 -9.8153719845238E-01
109  1.0800000000000E+00  9.0303028069384E-02 -7.0235735561249E-01 -1.0680298525864E+00
110  1.0900000000000E+00  9.7071056059033E-02 -6.9391645377926E-01 -1.1310765649021E+00
111  1.1000000000000E+00  1.0129024201201E-01 -6.7766183111979E-01 -1.1703094784116E+00
112  1.1100000000000E+00  1.0311634318306E-01 -6.5421087562560E-01 -1.1864541118873E+00
113  1.1200000000000E+00  1.0276716986887E-01 -6.2440788732617E-01 -1.1811374546467E+00
114  1.1300000000000E+00  1.0048239487718E-01 -5.8916013524567E-01 -1.1563095659350E+00
115  1.1400000000000E+00  9.6514185719230E-02 -5.4940290786456E-01 -1.1141152835315E+00
116  1.1500000000000E+00  9.1123531479593E-02 -5.0608856129001E-01 -1.0568538752946E+00
117  1.1600000000000E+00  8.4576432064409E-02 -4.6017518444629E-01 -9.8693839187321E-01
118  1.1700000000000E+00  7.7140004069688E-02 -4.1261506668679E-01 -9.0685563775250E-01
119  1.1800000000000E+00  6.9078550213741E-02 -3.6434311392805E-01 -8.1912737803114E-01
120  1.1900000000000E+00  6.0649666238520E-02 -3.1626546488908E-01 -7.2627373777501E-01
121  1.2000000000000E+00  5.2100412744577E-02 -2.6924835666704E-01 -6.3077881697142E-01
122  1.2100000000000E+00  4.3663633989190E-02 -2.2410751294471E-01 -5.3505938601013E-01
123  1.2200000000000E+00  3.5554455493240E-02 -1.8159812215926E-01 -4.4143669896148E-01
124  1.2300000000000E+00  2.7967051769437E-02 -1.4240563311746E-01 -3.5211118836838E-01
125  1.2400000000000E+00  2.1070143711569E-02 -1.0713421359467E-01 -2.6916530892097E-01
126  1.2500000000000E+00  1.4990076938982E-02 -7.6268311929634E-02 -1.9477482119754E-01
127  1.2600000000000E+00  9.8472201926752E-03 -5.0247687198000E-02 -1.3057652465321E-01
128  1.2700000000000E+00  5.7381469024824E-03 -2.9431416654323E-02 -7.7907246501659E-02
129  1.2800000000000E+00  2.7230229213054E-03 -1.4070883808672E-02 -3.7981945069987E-02
130  1.2900000000000E+00  8.2081425061471E-04 -4.2828662169581E-03 -1.1800157913202E-02
131  1.3000000000000E+00  4.5764334788432E-05 -2.4193645909114E-04 -6.8208057982918E-04
132  1.3100000000000E+00 -9.7823522821973E-07  5.2043807350351E-06  1.4850559424032E-05
133  1.3200000000000E+00 -6.2825884976094E-07  3.2970678864501E-06  9.1858484525333E-06
134  1.33 -0. -0. -0.
135  1.34  0.  0.  0.
136  1.35  0.  0.  0.
137  1.36  0.  0.  0.
138  1.37  0.  0.  0.
139  1.38  0.  0.  0.
140  1.39  0.  0.  0.
141  1.40  0.  0.  0.
142  1.41  0.  0.  0.
143  1.42  0.  0.  0.
144  1.43  0.  0.  0.
145  1.44  0.  0.  0.
146  1.45  0.  0.  0.
147  1.46  0.  0.  0.
148  1.47  0.  0.  0.
149  1.48  0.  0.  0.
150  1.49  0.  0.  0.
151  1.50  0.  0.  0.
152  1.51  0.  0.  0.
153  1.52  0.  0.  0.
154  1.53  0.  0.  0.
155  1.54  0.  0.  0.
156  1.55  0.  0.  0.
157  1.56  0.  0.  0.
158  1.57  0.  0.  0.
159  1.58  0.  0.  0.
160  1.59  0.  0.  0.
161  1.60  0.  0.  0.
162  1.61  0.  0.  0.
163  1.62  0.  0.  0.
164  1.63  0.  0.  0.
165  1.64  0.  0.  0.
166  1.65  0.  0.  0.
167  1.66  0.  0.  0.
168  1.67  0.  0.  0.
169  1.68  0.  0.  0.
170  1.69  0.  0.  0.
171  1.70  0.  0.  0.
172  1.71  0.  0.  0.
173  1.72  0.  0.  0.
174  1.73  0.  0.  0.
175  1.74  0.  0.  0.
176  1.75  0.  0.  0.
177  1.76  0.  0.  0.
178  1.77  0.  0.  0.
179  1.78  0.  0.  0.
180  1.79  0.  0.  0.
181  1.80  0.  0.  0.
182  1.81  0.  0.  0.
183  1.82  0.  0.  0.
184  1.83  0.  0.  0.
185  1.84  0.  0.  0.
186  1.85  0.  0.  0.
187  1.86  0.  0.  0.
188  1.87  0.  0.  0.
189  1.88  0.  0.  0.
190  1.89  0.  0.  0.
191  1.90  0.  0.  0.
192  1.91  0.  0.  0.
193  1.92  0.  0.  0.
194  1.93  0.  0.  0.
195  1.94  0.  0.  0.
196  1.95  0.  0.  0.
197  1.96  0.  0.  0.
198  1.97  0.  0.  0.
199  1.98  0.  0.  0.
200  1.99  0.  0.  0.
201  2.00  0.  0.  0.
202  2.01  0.  0.  0.
203  2.02  0.  0.  0.
204  2.03  0.  0.  0.
205  2.04  0.  0.  0.
206  2.05  0.  0.  0.
207  2.06  0.  0.  0.
208  2.07  0.  0.  0.
209  2.08  0.  0.  0.
210  2.09  0.  0.  0.
211  2.10  0.  0.  0.
212  2.11  0.  0.  0.
213  2.12  0.  0.  0.
214  2.13  0.  0.  0.
215  2.14  0.  0.  0.
216  2.15  0.  0.  0.
217  2.16  0.  0.  0.
218  2.17  0.  0.  0.
219  2.18  0.  0.  0.
220  2.19  0.  0.  0.
221  2.20  0.  0.  0.
222  2.21  0.  0.  0.
223  2.22  0.  0.  0.
224  2.23  0.  0.  0.
225  2.24  0.  0.  0.
226  2.25  0.  0.  0.
227  2.26  0.  0.  0.
228  2.27  0.  0.  0.
229  2.28  0.  0.  0.
230  2.29  0.  0.  0.
231  2.30  0.  0.  0.
232  2.31  0.  0.  0.
233  2.32  0.  0.  0.
234  2.33  0.  0.  0.
235  2.34  0.  0.  0.
236  2.35  0.  0.  0.
237  2.36  0.  0.  0.
238  2.37  0.  0.  0.
239  2.38  0.  0.  0.
240  2.39  0.  0.  0.
241  2.40  0.  0.  0.
242  2.41  0.  0.  0.
243  2.42  0.  0.  0.
244  2.43  0.  0.  0.
245  2.44  0.  0.  0.
246  2.45  0.  0.  0.
247  2.46  0.  0.  0.
248  2.47  0.  0.  0.
249  2.48  0.  0.  0.
250  2.49  0.  0.  0.
251  2.50  0.  0.  0.
252  2.51  0.  0.  0.
253  2.52  0.  0.  0.
254  2.53  0.  0.  0.
255  2.54  0.  0.  0.
256  2.55  0.  0.  0.
257  2.56  0.  0.  0.
258  2.57  0.  0.  0.
259  2.58  0.  0.  0.
260  2.59  0.  0.  0.
261  2.60  0.  0.  0.
262  2.61  0.  0.  0.
263  2.62  0.  0.  0.
264  2.63  0.  0.  0.
265  2.64  0.  0.  0.
266  2.65  0.  0.  0.
267  2.66  0.  0.  0.
268  2.67  0.  0.  0.
269  2.68  0.  0.  0.
270  2.69  0.  0.  0.
271  2.70  0.  0.  0.
272  2.71  0.  0.  0.
273  2.72  0.  0.  0.
274  2.73  0.  0.  0.
275  2.74  0.  0.  0.
276  2.75  0.  0.  0.
277  2.76  0.  0.  0.
278  2.77  0.  0.  0.
279  2.78  0.  0.  0.
280  2.79  0.  0.  0.
281  2.80  0.  0.  0.
282  2.81  0.  0.  0.
283  2.82  0.  0.  0.
284  2.83  0.  0.  0.
285  2.84  0.  0.  0.
286  2.85  0.  0.  0.
287  2.86  0.  0.  0.
288  2.87  0.  0.  0.
289  2.88  0.  0.  0.
290  2.89  0.  0.  0.
291  2.90  0.  0.  0.
292  2.91  0.  0.  0.
293  2.92  0.  0.  0.
294  2.93  0.  0.  0.
295  2.94  0.  0.  0.
296  2.95  0.  0.  0.
297  2.96  0.  0.  0.
298  2.97  0.  0.  0.
299  2.98  0.  0.  0.
300  2.99  0.  0.  0.
301  3.00  0.  0.  0.
302  3.01  0.  0.  0.
303  3.02  0.  0.  0.
304  3.03  0.  0.  0.
305  3.04  0.  0.  0.
306  3.05  0.  0.  0.
307  3.06  0.  0.  0.
308  3.07  0.  0.  0.
309  3.08  0.  0.  0.
310  3.09  0.  0.  0.
311  3.10  0.  0.  0.
312  3.11  0.  0.  0.
313  3.12  0.  0.  0.
314  3.13  0.  0.  0.
315  3.14  0.  0.  0.
316  3.15  0.  0.  0.
317  3.16  0.  0.  0.
318  3.17  0.  0.  0.
319  3.18  0.  0.  0.
320  3.19  0.  0.  0.
321  3.20  0.  0.  0.
322  3.21  0.  0.  0.
323  3.22  0.  0.  0.
324  3.23  0.  0.  0.
325  3.24  0.  0.  0.
326  3.25  0.  0.  0.
327  3.26  0.  0.  0.
328  3.27  0.  0.  0.
329  3.28  0.  0.  0.
330  3.29  0.  0.  0.
331  3.30  0.  0.  0.
332  3.31  0.  0.  0.
333  3.32  0.  0.  0.
334  3.33  0.  0.  0.
335  3.34  0.  0.  0.
336  3.35  0.  0.  0.
337  3.36  0.  0.  0.
338  3.37  0.  0.  0.
339  3.38  0.  0.  0.
340  3.39  0.  0.  0.
341  3.40  0.  0.  0.
342  3.41  0.  0.  0.
343  3.42  0.  0.  0.
344  3.43  0.  0.  0.
345  3.44  0.  0.  0.
346  3.45  0.  0.  0.
347  3.46  0.  0.  0.
348  3.47  0.  0.  0.
349  3.48  0.  0.  0.
350  3.49  0.  0.  0.
351  3.50  0.  0.  0.
352  3.51  0.  0.  0.
353  3.52  0.  0.  0.
354  3.53  0.  0.  0.
355  3.54  0.  0.  0.
356  3.55  0.  0.  0.
357  3.56  0.  0.  0.
358  3.57  0.  0.  0.
359  3.58  0.  0.  0.
360  3.59  0.  0.  0.
361  3.60  0.  0.  0.
362  3.61  0.  0.  0.
363  3.62  0.  0.  0.
364  3.63  0.  0.  0.
365  3.64  0.  0.  0.
366  3.65  0.  0.  0.
367  3.66  0.  0.  0.
368  3.67  0.  0.  0.
369  3.68  0.  0.  0.
370  3.69  0.  0.  0.
371  3.70  0.  0.  0.
372  3.71  0.  0.  0.
373  3.72  0.  0.  0.
374  3.73  0.  0.  0.
375  3.74  0.  0.  0.
376  3.75  0.  0.  0.
377  3.76  0.  0.  0.
378  3.77  0.  0.  0.
379  3.78  0.  0.  0.
380  3.79  0.  0.  0.
381  3.80  0.  0.  0.
382  3.81  0.  0.  0.
383  3.82  0.  0.  0.
384  3.83  0.  0.  0.
385  3.84  0.  0.  0.
386  3.85  0.  0.  0.
387  3.86  0.  0.  0.
388  3.87  0.  0.  0.
389  3.88  0.  0.  0.
390  3.89  0.  0.  0.
391  3.90  0.  0.  0.
392  3.91  0.  0.  0.
393  3.92  0.  0.  0.
394  3.93  0.  0.  0.
395  3.94  0.  0.  0.
396  3.95  0.  0.  0.
397  3.96  0.  0.  0.
398  3.97  0.  0.  0.
399  3.98  0.  0.  0.
400  3.99  0.  0.  0.
401  4.00  0.  0.  0.
402  4.01  0.  0.  0.
403  4.02  0.  0.  0.
404  4.03  0.  0.  0.
405  4.04  0.  0.  0.
406  4.05  0.  0.  0.
407  4.06  0.  0.  0.
408  4.07  0.  0.  0.
409  4.08  0.  0.  0.
410  4.09  0.  0.  0.
411  4.10  0.  0.  0.
412  4.11  0.  0.  0.
413  4.12  0.  0.  0.
414  4.13  0.  0.  0.
415  4.14  0.  0.  0.
416  4.15  0.  0.  0.
417  4.16  0.  0.  0.
418  4.17  0.  0.  0.
419  4.18  0.  0.  0.
420  4.19  0.  0.  0.
421  4.20  0.  0.  0.
422  4.21  0.  0.  0.
423  4.22  0.  0.  0.
424  4.23  0.  0.  0.
425  4.24  0.  0.  0.
426  4.25  0.  0.  0.
427  4.26  0.  0.  0.
428  4.27  0.  0.  0.
429  4.28  0.  0.  0.
430  4.29  0.  0.  0.
431  4.30  0.  0.  0.
432  4.31  0.  0.  0.
433  4.32  0.  0.  0.
434  4.33  0.  0.  0.
435  4.34  0.  0.  0.
436  4.35  0.  0.  0.
437  4.36  0.  0.  0.
438  4.37  0.  0.  0.
439  4.38  0.  0.  0.
440  4.39  0.  0.  0.
441  4.40  0.  0.  0.
442  4.41  0.  0.  0.
443  4.42  0.  0.  0.
444  4.43  0.  0.  0.
445  4.44  0.  0.  0.
446  4.45  0.  0.  0.
447  4.46  0.  0.  0.
448  4.47  0.  0.  0.
449  4.48  0.  0.  0.
450  4.49  0.  0.  0.
451  4.50  0.  0.  0.
452  4.51  0.  0.  0.
453  4.52  0.  0.  0.
454  4.53  0.  0.  0.
455  4.54  0.  0.  0.
456  4.55  0.  0.  0.
457  4.56  0.  0.  0.
458  4.57  0.  0.  0.
459  4.58  0.  0.  0.
460  4.59  0.  0.  0.
461  4.60  0.  0.  0.
462  4.61  0.  0.  0.
463  4.62  0.  0.  0.
464  4.63  0.  0.  0.
465  4.64  0.  0.  0.
466  4.65  0.  0.  0.
467  4.66  0.  0.  0.
468  4.67  0.  0.  0.
469  4.68  0.  0.  0.
470  4.69  0.  0.  0.
471  4.70  0.  0.  0.
472  4.71  0.  0.  0.
473  4.72  0.  0.  0.
474  4.73  0.  0.  0.
475  4.74  0.  0.  0.
476  4.75  0.  0.  0.
477  4.76  0.  0.  0.
478  4.77  0.  0.  0.
479  4.78  0.  0.  0.
480  4.79  0.  0.  0.
481  4.80  0.  0.  0.
482  4.81  0.  0.  0.
483  4.82  0.  0.  0.
484  4.83  0.  0.  0.
485  4.84  0.  0.  0.
486  4.85  0.  0.  0.
487  4.86  0.  0.  0.
488  4.87  0.  0.  0.
489  4.88  0.  0.  0.
490  4.89  0.  0.  0.
491  4.90  0.  0.  0.
492  4.91  0.  0.  0.
493  4.92  0.  0.  0.
494  4.93  0.  0.  0.
495  4.94  0.  0.  0.
496  4.95  0.  0.  0.
497  4.96  0.  0.  0.
498  4.97  0.  0.  0.
499  4.98  0.  0.  0.
500  4.99  0.  0.  0.
501  5.00  0.  0.  0.
502  5.01  0.  0.  0.
503  5.02  0.  0.  0.
504  5.03  0.  0.  0.
505  5.04  0.  0.  0.
506  5.05  0.  0.  0.
507  5.06  0.  0.  0.
508  5.07  0.  0.  0.
509  5.08  0.  0.  0.
510  5.09  0.  0.  0.
511  5.10  0.  0.  0.
512  5.11  0.  0.  0.
513  5.12  0.  0.  0.
514  5.13  0.  0.  0.
515  5.14  0.  0.  0.
516  5.15  0.  0.  0.
517  5.16  0.  0.  0.
518  5.17  0.  0.  0.
519  5.18  0.  0.  0.
520  5.19  0.  0.  0.
521  5.20  0.  0.  0.
522  5.21  0.  0.  0.
523  5.22  0.  0.  0.
524  5.23  0.  0.  0.
525  5.24  0.  0.  0.
526  5.25  0.  0.  0.
527  5.26  0.  0.  0.
528  5.27  0.  0.  0.
529  5.28  0.  0.  0.
530  5.29  0.  0.  0.
531  5.30  0.  0.  0.
532  5.31  0.  0.  0.
533  5.32  0.  0.  0.
534  5.33  0.  0.  0.
535  5.34  0.  0.  0.
536  5.35  0.  0.  0.
537  5.36  0.  0.  0.
538  5.37  0.  0.  0.
539  5.38  0.  0.  0.
540  5.39  0.  0.  0.
541  5.40  0.  0.  0.
542  5.41  0.  0.  0.
543  5.42  0.  0.  0.
544  5.43  0.  0.  0.
545  5.44  0.  0.  0.
546  5.45  0.  0.  0.
547  5.46  0.  0.  0.
548  5.47  0.  0.  0.
549  5.48  0.  0.  0.
550  5.49  0.  0.  0.
551  5.50  0.  0.  0.
552  5.51  0.  0.  0.
553  5.52  0.  0.  0.
554  5.53  0.  0.  0.
555  5.54  0.  0.  0.
556  5.55  0.  0.  0.
557  5.56  0.  0.  0.
558  5.57  0.  0.  0.
559  5.58  0.  0.  0.
560  5.59  0.  0.  0.
561  5.60  0.  0.  0.
562  5.61  0.  0.  0.
563  5.62  0.  0.  0.
564  5.63  0.  0.  0.
565  5.64  0.  0.  0.
566  5.65  0.  0.  0.
567  5.66  0.  0.  0.
568  5.67  0.  0.  0.
569  5.68  0.  0.  0.
570  5.69  0.  0.  0.
571  5.70  0.  0.  0.
572  5.71  0.  0.  0.
573  5.72  0.  0.  0.
574  5.73  0.  0.  0.
575  5.74  0.  0.  0.
576  5.75  0.  0.  0.
577  5.76  0.  0.  0.
578  5.77  0.  0.  0.
579  5.78  0.  0.  0.
580  5.79  0.  0.  0.
581  5.80  0.  0.  0.
582  5.81  0.  0.  0.
583  5.82  0.  0.  0.
584  5.83  0.  0.  0.
585  5.84  0.  0.  0.
586  5.85  0.  0.  0.
587  5.86  0.  0.  0.
588  5.87  0.  0.  0.
589  5.88  0.  0.  0.
590  5.89  0.  0.  0.
591  5.90  0.  0.  0.
592  5.91  0.  0.  0.
593  5.92  0.  0.  0.
594  5.93  0.  0.  0.
595  5.94  0.  0.  0.
596  5.95  0.  0.  0.
597  5.96  0.  0.  0.
598  5.97  0.  0.  0.
599  5.98  0.  0.  0.
600  5.99  0.  0.  0.
1                         1.1417127987375E+01  1.5451265698642E+00
1  0.0000000000000E+00 -9.1445546412938E-09  2.7564862163654E-08
2  1.0000000000000E-02  2.8870018999551E-03 -3.8030622195096E-04
3  2.0000000000000E-02  1.1534478801886E-02 -1.5281023903572E-03
4  3.0000000000000E-02  2.5901749715905E-02 -3.4635087030424E-03
5  4.0000000000000E-02  4.5920703770374E-02 -6.2183690989055E-03
6  5.0000000000000E-02  7.1495357526168E-02 -9.8337790427085E-03
7  6.0000000000000E-02  1.0250127680427E-01 -1.4356747225724E-02
8  7.0000000000000E-02  1.3878490298677E-01 -1.9836109513519E-02
9  8.0000000000000E-02  1.8016283289587E-01 -2.6317841037015E-02
10  9.0000000000000E-02  2.2642110888577E-01 -3.3839935449842E-02
11  1.0000000000000E-01  2.7731458143696E-01 -4.2427038342821E-02
12  1.1000000000000E-01  3.3256641011419E-01 -5.2085034039319E-02
13  1.2000000000000E-01  3.9186777009129E-01 -6.2795791085022E-02
14  1.3000000000000E-01  4.5487783047672E-01 -7.4512271457082E-02
15  1.4000000000000E-01  5.2122406737910E-01 -8.7154201803526E-02
16  1.5000000000000E-01  5.9050296908673E-01 -1.0060449202108E-01
17  1.6000000000000E-01  6.6228118302285E-01 -1.1470656751172E-01
18  1.7000000000000E-01  7.3609714446575E-01 -1.2926275702408E-01
19  1.8000000000000E-01  8.1146321563879E-01 -1.4403384874905E-01
20  1.9000000000000E-01  8.8786835098156E-01 -1.5873989410793E-01
21  2.0000000000000E-01  9.6478129055687E-01 -1.7306230238285E-01
22  2.1000000000000E-01  1.0416542690148E+00 -1.8664723102415E-01
23  2.2000000000000E-01  1.1179272127334E+00 -1.9911023723492E-01
24  2.3000000000000E-01  1.1930323831103E+00 -2.1004211742224E-01
25  2.4000000000000E-01  1.2663994099232E+00 -2.1901582347139E-01
26  2.5000000000000E-01  1.3374606456183E+00 -2.2559430967022E-01
27  2.6000000000000E-01  1.4056567597321E+00 -2.2933913255753E-01
28  2.7000000000000E-01  1.4704424827625E+00 -2.2981959897052E-01
29  2.8000000000000E-01  1.5312924009967E+00 -2.2662223598678E-01
30  2.9000000000000E-01  1.5877066983514E+00 -2.1936034101253E-01
31  3.0000000000000E-01  1.6392167383799E+00 -2.0768336151171E-01
32  3.1000000000000E-01  1.6853903793973E+00 -1.9128585216452E-01
33  3.2000000000000E-01  1.7258369182216E+00 -1.6991576275532E-01
34  3.3000000000000E-01  1.7602115633164E+00 -1.4338182277674E-01
35  3.4000000000000E-01  1.7882193460617E+00 -1.1155980835024E-01
36  3.5000000000000E-01  1.8096183892936E+00 -7.4397503148637E-02
37  3.6000000000000E-01  1.8242224649162E+00 -3.1918196913624E-02
38  3.7000000000000E-01  1.8319027869834E+00  1.5777397936910E-02
39  3.8000000000000E-01  1.8325890028096E+00  6.8510890207739E-02
40  3.9000000000000E-01  1.8262693619878E+00  1.2602764912908E-01
41  4.0000000000000E-01  1.8129900612082E+00  1.8799992819338E-01
42  4.1000000000000E-01  1.7928537810116E+00  2.5403161710739E-01
43  4.2000000000000E-01  1.7660174485762E+00  3.2366452042947E-01
44  4.3000000000000E-01  1.7326892778435E+00  3.9638601880036E-01
45  4.4000000000000E-01  1.6931251542582E+00  4.7163792953072E-01
46  4.5000000000000E-01  1.6476244456792E+00  5.4882634886426E-01
47  4.6000000000000E-01  1.5965253332252E+00  6.2733222955569E-01
48  4.7000000000000E-01  1.5401997655788E+00  7.0652242539962E-01
49  4.8000000000000E-01  1.4790481473322E+00  7.8576091974979E-01
50  4.9000000000000E-01  1.4134938760784E+00  8.6441994840101E-01
51  5.0000000000000E-01  1.3439778440434E+00  9.4189072876549E-01
52  5.1000000000000E-01  1.2709530180429E+00  1.0175935171220E+00
53  5.2000000000000E-01  1.1948792065156E+00  1.0909867336649E+00
54  5.3000000000000E-01  1.1162181144469E+00  1.1615749207059E+00
55  5.4000000000000E-01  1.0354287763960E+00  1.2289153320230E+00
56  5.5000000000000E-01  9.5296344486720E-01  1.2926229901369E+00
57  5.6000000000000E-01  8.6926399630573E-01  1.3523740921451E+00
58  5.7000000000000E-01  7.8475890048584E-01  1.4079076924384E+00
59  5.8000000000000E-01  6.9986078147728E-01  1.4590256407760E+00
60  5.9000000000000E-01  6.1496458024888E-01  1.5055908053698E+00
61  6.0000000000000E-01  5.3044631083125E-01  1.5475236613047E+00
62  6.1000000000000E-01  4.4666238435834E-01  1.5847973732960E+00
63  6.2000000000000E-01  3.6394945876612E-01  1.6174315469970E+00
64  6.3000000000000E-01  2.8262475694452E-01  1.6454848634313E+00
65  6.4000000000000E-01  2.0298678316744E-01  1.6690468453965E+00
66  6.5000000000000E-01  1.2531635705735E-01  1.6882290317882E+00
67  6.6000000000000E-01  4.9877876493490E-02  1.7031558548538E+00
68  6.7000000000000E-01 -2.3079284016671E-02  1.7139555257668E+00
69  6.8000000000000E-01 -9.3319334772425E-02  1.7207512352430E+00
70  6.9000000000000E-01 -1.6061868603056E-01  1.7236529680752E+00
71  7.0000000000000E-01 -2.2476470632356E-01  1.7227502136288E+00
72  7.1000000000000E-01 -2.8555470598969E-01  1.7181058289463E+00
73  7.2000000000000E-01 -3.4279521784522E-01  1.7097512778655E+00
74  7.3000000000000E-01 -3.9630163443572E-01  1.6976834294128E+00
75  7.4000000000000E-01 -4.4589824683386E-01  1.6818630528433E+00
76  7.5000000000000E-01 -4.9141871397520E-01  1.6622150964141E+00
77  7.6000000000000E-01 -5.3270697455188E-01  1.6386307837649E+00
78  7.7000000000000E-01 -5.6961859606698E-01  1.6109715072129E+00
79  7.8000000000000E-01 -6.0202253834643E-01  1.5790744429510E+00
80  7.9000000000000E-01 -6.2980329216564E-01  1.5427597606690E+00
81  8.0000000000000E-01 -6.5286333820247E-01  1.5018392510227E+00
82  8.1000000000000E-01 -6.7112585776531E-01  1.4561261500728E+00
83  8.2000000000000E-01 -6.8453761509014E-01  1.4054459015563E+00
84  8.3000000000000E-01 -6.9307192180691E-01  1.3496475666857E+00
85  8.4000000000000E-01 -6.9673158770625E-01  1.2886155678833E+00
86  8.5000000000000E-01 -6.9555175835832E-01  1.2222814380001E+00
87  8.6000000000000E-01 -6.8960253950541E-01  1.1506352403433E+00
88  8.7000000000000E-01 -6.7899131041690E-01  1.0737363271929E+00
89  8.8000000000000E-01 -6.6386463339740E-01  9.9172311501208E-01
90  8.9000000000000E-01 -6.4440967410366E-01  9.0482157257189E-01
91  9.0000000000000E-01 -6.2085505687889E-01  8.1335214270517E-01
92  9.1000000000000E-01 -5.9347109048344E-01  7.1773484814075E-01
93  9.2000000000000E-01 -5.6256931183643E-01  6.1849236532708E-01
94  9.3000000000000E-01 -5.2850130806002E-01  5.1625088564424E-01
95  9.4000000000000E-01 -4.9165678955788E-01  4.1173861905424E-01
96  9.5000000000000E-01 -4.5246089834993E-01  3.0578182907843E-01
97  9.6000000000000E-01 -4.1137074568753E-01  1.9929831796720E-01
98  9.7000000000000E-01 -3.6887118035053E-01  9.3288304976598E-02
99  9.8000000000000E-01 -3.2546979325382E-01 -1.1177343250491E-02
100  9.9000000000000E-01 -2.8169116437722E-01 -1.1297156503734E-01
101  1.0000000000000E+00 -2.3807035392656E-01 -2.1092827921111E-01
102  1.0100000000000E+00 -1.9514563044722E-01 -3.0386234335776E-01
103  1.0200000000000E+00 -1.5345041383654E-01 -3.9059238835764E-01
104  1.0300000000000E+00 -1.1350439039832E-01 -4.6996667303925E-01
105  1.0400000000000E+00 -7.5803729883627E-02 -5.4089217041148E-01
106  1.0500000000000E+00 -4.0810300676755E-02 -6.0236718253294E-01
107  1.0600000000000E+00 -8.9397386948013E-03 -6.5351788534094E-01
108  1.0700000000000E+00  1.9451821879503E-02 -6.9363932794183E-01
109  1.0800000000000E+00  4.4082601999205E-02 -7.2224155246991E-01
110  1.0900000000000E+00  6.4761930617223E-02 -7.3910169020180E-01
111  1.1000000000000E+00  8.1409174026485E-02 -7.4432270395178E-01
112  1.1100000000000E+00  9.4073523689911E-02 -7.3839383703692E-01
113  1.1200000000000E+00  1.0291616433356E-01 -7.2212027971218E-01
114  1.1300000000000E+00  1.0816314418285E-01 -6.9645811537284E-01
115  1.1400000000000E+00  1.1009339115363E-01 -6.6247763729552E-01