Th    ONCVPSP-4.0.1  r_core=   2.41182   2.41182   2.41182   3.21402
     90.0000     11.0000      211119    zatom,zion,pspd
     8      11   3     4   600     0    pspcod,pspxc,lmax,lloc,mmax,r2well
  5.99000000  3.79640000  0.00000000    rchrg fchrg qchrg
     2     2     2     1     0    nproj
     1     1           extension_switch
   0                         7.4188611265209E+00 -2.9806685482540E-01
     1  0.0000000000000E+00  6.2405636214180E-13  8.5499610863460E-12
     2  1.0000000000000E-02  4.8222588989037E-02  1.5835471893412E-03
     3  2.0000000000000E-02  9.6384519372180E-02  3.1672339098191E-03
     4  3.0000000000000E-02  1.4442523095703E-01  4.7511943833847E-03
     5  4.0000000000000E-02  1.9228436023462E-01  6.3355524128927E-03
     6  5.0000000000000E-02  2.3990183836198E-01  7.9204166685423E-03
     7  6.0000000000000E-02  2.8721798871342E-01  9.5058765633844E-03
     8  7.0000000000000E-02  3.3417362385567E-01  1.1091998904070E-02
     9  8.0000000000000E-02  3.8071014180196E-01  1.2678825494463E-02
    10  9.0000000000000E-02  4.2676962139882E-01  1.4266371859103E-02
    11  1.0000000000000E-01  4.7229491669885E-01  1.5854627240992E-02
    12  1.1000000000000E-01  5.1722975017154E-01  1.7443556013874E-02
    13  1.2000000000000E-01  5.6151880460339E-01  1.9033100633130E-02
    14  1.3000000000000E-01  6.0510781353741E-01  2.0623186231928E-02
    15  1.4000000000000E-01  6.4794365010106E-01  2.2213726950221E-02
    16  1.5000000000000E-01  6.8997441407088E-01  2.3804634064146E-02
    17  1.6000000000000E-01  7.3114951702098E-01  2.5395825962091E-02
    18  1.7000000000000E-01  7.7141976540195E-01  2.6987239991607E-02
    19  1.8000000000000E-01  8.1073744139616E-01  2.8578846178723E-02
    20  1.9000000000000E-01  8.4905638139509E-01  3.0170662797922E-02
    21  2.0000000000000E-01  8.8633205194416E-01  3.1762773747589E-02
    22  2.1000000000000E-01  9.2252162300094E-01  3.3355347662376E-02
    23  2.2000000000000E-01  9.5758403835299E-01  3.4948658670432E-02
    24  2.3000000000000E-01  9.9148008304279E-01  3.6543108680641E-02
    25  2.4000000000000E-01  1.0241724476485E+00  3.8139251062629E-02
    26  2.5000000000000E-01  1.0556257892712E+00  3.9737815560649E-02
    27  2.6000000000000E-01  1.0858067890817E+00  4.1339734262128E-02
    28  2.7000000000000E-01  1.1146842062836E+00  4.2946168422017E-02
    29  2.8000000000000E-01  1.1422289283509E+00  4.4558535926381E-02
    30  2.9000000000000E-01  1.1684140174059E+00  4.6178539162098E-02
    31  3.0000000000000E-01  1.1932147526046E+00  4.7808193044850E-02
    32  3.1000000000000E-01  1.2166086684043E+00  4.9449852944906E-02
    33  3.2000000000000E-01  1.2385755885947E+00  5.1106242239259E-02
    34  3.3000000000000E-01  1.2590976559782E+00  5.2780479210117E-02
    35  3.4000000000000E-01  1.2781593575950E+00  5.4476103003318E-02
    36  3.5000000000000E-01  1.2957475453972E+00  5.6197098356170E-02
    37  3.6000000000000E-01  1.3118514522822E+00  5.7947918802574E-02
    38  3.7000000000000E-01  1.3264627034081E+00  5.9733508064073E-02
    39  3.8000000000000E-01  1.3395753227238E+00  6.1559319338762E-02
    40  3.9000000000000E-01  1.3511857346557E+00  6.3431332205883E-02
    41  4.0000000000000E-01  1.3612927609069E+00  6.5356066872045E-02
    42  4.1000000000000E-01  1.3698976123351E+00  6.7340595496069E-02
    43  4.2000000000000E-01  1.3770038758891E+00  6.9392550342456E-02
    44  4.3000000000000E-01  1.3826174965973E+00  7.1520128529081E-02
    45  4.4000000000000E-01  1.3867467546149E+00  7.3732093152829E-02
    46  4.5000000000000E-01  1.3894022373501E+00  7.6037770596462E-02
    47  4.6000000000000E-01  1.3905968067056E+00  7.8447043842633E-02
    48  4.7000000000000E-01  1.3903455614852E+00  8.0970341644589E-02
    49  4.8000000000000E-01  1.3886657950311E+00  8.3618623429009E-02
    50  4.9000000000000E-01  1.3855769481724E+00  8.6403359833852E-02
    51  5.0000000000000E-01  1.3811005575799E+00  8.9336508812732E-02
    52  5.1000000000000E-01  1.3752601996402E+00  9.2430487267445E-02
    53  5.2000000000000E-01  1.3680814299728E+00  9.5698138201089E-02
    54  5.3000000000000E-01  1.3595917187337E+00  9.9152693416169E-02
    55  5.4000000000000E-01  1.3498203818613E+00  1.0280773181418E-01
    56  5.5000000000000E-01  1.3387985084346E+00  1.0667713338604E-01
    57  5.6000000000000E-01  1.3265588843297E+00  1.1077502901513E-01
    58  5.7000000000000E-01  1.3131359123721E+00  1.1511574624760E-01
    59  5.8000000000000E-01  1.2985655291984E+00  1.1971375121652E-01
    60  5.9000000000000E-01  1.2828851190490E+00  1.2458358693805E-01
    61  6.0000000000000E-01  1.2661334247305E+00  1.2973980822840E-01
    62  6.1000000000000E-01  1.2483504559926E+00  1.3519691351984E-01
    63  6.2000000000000E-01  1.2295773955785E+00  1.4096927388232E-01
    64  6.3000000000000E-01  1.2098565032137E+00  1.4707105958360E-01
    65  6.4000000000000E-01  1.1892310178087E+00  1.5351616454583E-01
    66  6.5000000000000E-01  1.1677450581573E+00  1.6031812907910E-01
    67  6.6000000000000E-01  1.1454435224181E+00  1.6749006129342E-01
    68  6.7000000000000E-01  1.1223719866725E+00  1.7504455760860E-01
    69  6.8000000000000E-01  1.0985766028556E+00  1.8299362279736E-01
    70  6.9000000000000E-01  1.0741039963599E+00  1.9134859001026E-01
    71  7.0000000000000E-01  1.0490011636114E+00  2.0012004124117E-01
    72  7.1000000000000E-01  1.0233153699196E+00  2.0931772869958E-01
    73  7.2000000000000E-01  9.9709404790045E-01  2.1895049756053E-01
    74  7.3000000000000E-01  9.7038469676981E-01  2.2902621056428E-01
    75  7.4000000000000E-01  9.4323478279954E-01  2.3955167493634E-01
    76  7.5000000000000E-01  9.1569164122550E-01  2.5053257209350E-01
    77  7.6000000000000E-01  8.8780237988851E-01  2.6197339059386E-01
    78  7.7000000000000E-01  8.5961378488295E-01  2.7387736277762E-01
    79  7.8000000000000E-01  8.3117222847824E-01  2.8624640553166E-01
    80  7.9000000000000E-01  8.0252357956898E-01  2.9908106559346E-01
    81  8.0000000000000E-01  7.7371311689817E-01  3.1238046979057E-01
    82  8.1000000000000E-01  7.4478544528595E-01  3.2614228058845E-01
    83  8.2000000000000E-01  7.1578441508312E-01  3.4036265729458E-01
    84  8.3000000000000E-01  6.8675304505467E-01  3.5503622323849E-01
    85  8.4000000000000E-01  6.5773344888352E-01  3.7015603921715E-01
    86  8.5000000000000E-01  6.2876676546899E-01  3.8571358346249E-01
    87  8.6000000000000E-01  5.9989309317796E-01  4.0169873835364E-01
    88  8.7000000000000E-01  5.7115142818965E-01  4.1809978405965E-01
    89  8.8000000000000E-01  5.4257960705730E-01  4.3490339926110E-01
    90  8.9000000000000E-01  5.1421425359173E-01  4.5209466905958E-01
    91  9.0000000000000E-01  4.8609073015377E-01  4.6965710014374E-01
    92  9.1000000000000E-01  4.5824309342314E-01  4.8757264323977E-01
    93  9.2000000000000E-01  4.3070405469333E-01  5.0582172283228E-01
    94  9.3000000000000E-01  4.0350494472225E-01  5.2438327410001E-01
    95  9.4000000000000E-01  3.7667568315039E-01  5.4323478696856E-01
    96  9.5000000000000E-01  3.5024475247872E-01  5.6235235714101E-01
    97  9.6000000000000E-01  3.2423917658073E-01  5.8171074392598E-01
    98  9.7000000000000E-01  2.9868450370461E-01  6.0128343464272E-01
    99  9.8000000000000E-01  2.7360479390377E-01  6.2104271534332E-01
   100  9.9000000000000E-01  2.4902261081711E-01  6.4095974755454E-01
   101  1.0000000000000E+00  2.2495901770369E-01  6.6100465070546E-01
   102  1.0100000000000E+00  2.0143357762077E-01  6.8114658987266E-01
   103  1.0200000000000E+00  1.7846435761917E-01  7.0135386844257E-01
   104  1.0300000000000E+00  1.5606793681597E-01  7.2159402526036E-01
   105  1.0400000000000E+00  1.3425941819111E-01  7.4183393580734E-01
   106  1.0500000000000E+00  1.1305244394268E-01  7.6203991692407E-01
   107  1.0600000000000E+00  9.2459214224333E-02  7.8217783457433E-01
   108  1.0700000000000E+00  7.2490509078608E-02  8.0221321412613E-01
   109  1.0800000000000E+00  5.3155713370917E-02  8.2211135261017E-01
   110  1.0900000000000E+00  3.4462844521683E-02  8.4183743240378E-01
   111  1.1000000000000E+00  1.6418582827615E-02  8.6135663577882E-01
   112  1.1100000000000E+00 -9.7169584179871E-04  8.8063425974660E-01
   113  1.1200000000000E+00 -1.7703885190294E-02  8.9963583063040E-01
   114  1.1300000000000E+00 -3.3775111703536E-02  9.1832721779739E-01
   115  1.1400000000000E+00 -4.9183696141873E-02  9.3667474598639E-01
   116  1.1500000000000E+00 -6.3929113538400E-02  9.5464530567625E-01
   117  1.1600000000000E+00 -7.8011951922306E-02  9.7220646095079E-01
   118  1.1700000000000E+00 -9.1433869984848E-02  9.8932655433172E-01
   119  1.1800000000000E+00 -1.0419755390155E-01  1.0059748080685E+00
   120  1.1900000000000E+00 -1.1630667351931E-01  1.0221214213962E+00
   121  1.2000000000000E+00 -1.2776583811118E-01  1.0377376632951E+00
   122  1.2100000000000E+00 -1.3858055189420E-01  1.0527959603164E+00
   123  1.2200000000000E+00 -1.4875716949813E-01  1.0672699790630E+00
   124  1.2300000000000E+00 -1.5830285156338E-01  1.0811347029523E+00
   125  1.2400000000000E+00 -1.6722552063712E-01  1.0943665029178E+00
   126  1.2500000000000E+00 -1.7553381752564E-01  1.1069432017469E+00
   127  1.2600000000000E+00 -1.8323705824982E-01  1.1188441317863E+00
   128  1.2700000000000E+00 -1.9034519173902E-01  1.1300501857918E+00
   129  1.2800000000000E+00 -1.9686875838582E-01  1.1405438607355E+00
   130  1.2900000000000E+00 -2.0281884957170E-01  1.1503092944290E+00
   131  1.3000000000000E+00 -2.0820706826051E-01  1.1593322948618E+00
   132  1.3100000000000E+00 -2.1304549074321E-01  1.1676003622008E+00
   133  1.3200000000000E+00 -2.1734662960413E-01  1.1751027034369E+00
   134  1.3300000000000E+00 -2.2112339796530E-01  1.1818302397097E+00
   135  1.3400000000000E+00 -2.2438907505235E-01  1.1877756063858E+00
   136  1.3500000000000E+00 -2.2715727311201E-01  1.1929331460055E+00
   137  1.3600000000000E+00 -2.2944190569843E-01  1.1972988942569E+00
   138  1.3700000000000E+00 -2.3125715733303E-01  1.2008705591750E+00
   139  1.3800000000000E+00 -2.3261745453048E-01  1.2036474938023E+00
   140  1.3900000000000E+00 -2.3353743817161E-01  1.2056306625841E+00
   141  1.4000000000000E+00 -2.3403193719342E-01  1.2068226018068E+00
   142  1.4100000000000E+00 -2.3411594355583E-01  1.2072273744205E+00
   143  1.4200000000000E+00 -2.3380458843533E-01  1.2068505196148E+00
   144  1.4300000000000E+00 -2.3311311958725E-01  1.2056989975479E+00
   145  1.4400000000000E+00 -2.3205687981002E-01  1.2037811296497E+00
   146  1.4500000000000E+00 -2.3065128643855E-01  1.2011065349443E+00
   147  1.4600000000000E+00 -2.2891181178751E-01  1.1976860628535E+00
   148  1.4700000000000E+00 -2.2685396446045E-01  1.1935317229591E+00
   149  1.4800000000000E+00 -2.2449327143708E-01  1.1886566122123E+00
   150  1.4900000000000E+00 -2.2184526084804E-01  1.1830748400895E+00
   151  1.5000000000000E+00 -2.1892544534470E-01  1.1768014521945E+00
   152  1.5100000000000E+00 -2.1574930597119E-01  1.1698523528118E+00
   153  1.5200000000000E+00 -2.1233227644594E-01  1.1622442269128E+00
   154  1.5300000000000E+00 -2.0868972776171E-01  1.1539944621086E+00
   155  1.5400000000000E+00 -2.0483695301556E-01  1.1451210710386E+00
   156  1.5500000000000E+00 -2.0078915238375E-01  1.1356426146658E+00
   157  1.5600000000000E+00 -1.9656141816106E-01  1.1255781269395E+00
   158  1.5700000000000E+00 -1.9216871978941E-01  1.1149470412644E+00
   159  1.5800000000000E+00 -1.8762588880706E-01  1.1037691191918E+00
   160  1.5900000000000E+00 -1.8294760365670E-01  1.0920643817286E+00
   161  1.6000000000000E+00 -1.7814837429884E-01  1.0798530436271E+00
   162  1.6100000000000E+00 -1.7324252658499E-01  1.0671554509937E+00
   163  1.6200000000000E+00 -1.6824418635500E-01  1.0539920225179E+00
   164  1.6300000000000E+00 -1.6316726323179E-01  1.0403831945938E+00
   165  1.6400000000000E+00 -1.5802543409769E-01  1.0263493705668E+00
   166  1.6500000000000E+00 -1.5283212624624E-01  1.0119108743035E+00
   167  1.6600000000000E+00 -1.4760050021473E-01  9.9708790824303E-01
   168  1.6700000000000E+00 -1.4234343231308E-01  9.8190051604965E-01
   169  1.6800000000000E+00 -1.3707349687598E-01  9.6636854994709E-01
   170  1.6900000000000E+00 -1.3180294827587E-01  9.5051164277325E-01
   171  1.7000000000000E+00 -1.2654370274523E-01  9.3434918475585E-01
   172  1.7100000000000E+00 -1.2130732006688E-01  9.1790030496845E-01
   173  1.7200000000000E+00 -1.1610498520162E-01  9.0118385738766E-01
   174  1.7300000000000E+00 -1.1094748993178E-01  8.8421841143381E-01
   175  1.7400000000000E+00 -1.0584521460868E-01  8.6702224684044E-01
   176  1.7500000000000E+00 -1.0080811010068E-01  8.4961335266197E-01
   177  1.7600000000000E+00 -9.5845680045916E-02  8.3200943019564E-01
   178  1.7700000000000E+00 -9.0966963521585E-02  8.1422789956095E-01
   179  1.7800000000000E+00 -8.6180518247061E-02  7.9628590965139E-01
   180  1.7900000000000E+00 -8.1494404443998E-02  7.7820035114489E-01
   181  1.8000000000000E+00 -7.6916169480507E-02  7.5998787223597E-01
   182  1.8100000000000E+00 -7.2452833429781E-02  7.4166489673033E-01
   183  1.8200000000000E+00 -6.8110875675601E-02  7.2324764412457E-01
   184  1.8300000000000E+00 -6.3896222698070E-02  7.0475215127834E-01
   185  1.8400000000000E+00 -5.9814237172695E-02  6.8619429527426E-01
   186  1.8500000000000E+00 -5.5869708514345E-02  6.6758981705289E-01
   187  1.8600000000000E+00 -5.2066844995024E-02  6.4895434540478E-01
   188  1.8700000000000E+00 -4.8409267560321E-02  6.3030342090071E-01
   189  1.8800000000000E+00 -4.4900005464246E-02  6.1165251934355E-01
   190  1.8900000000000E+00 -4.1541493835733E-02  5.9301707433142E-01
   191  1.9000000000000E+00 -3.8335573282413E-02  5.7441249853119E-01
   192  1.9100000000000E+00 -3.5283491628486E-02  5.5585420327515E-01
   193  1.9200000000000E+00 -3.2385907873543E-02  5.3735761610993E-01
   194  1.9300000000000E+00 -2.9642898447954E-02  5.1893819594801E-01
   195  1.9400000000000E+00 -2.7053965828858E-02  5.0061144549386E-01
   196  1.9500000000000E+00 -2.4618049567051E-02  4.8239292064548E-01
   197  1.9600000000000E+00 -2.2333539761609E-02  4.6429823660031E-01
   198  1.9700000000000E+00 -2.0198293004082E-02  4.4634307042718E-01
   199  1.9800000000000E+00 -1.8209650798651E-02  4.2854315990132E-01
   200  1.9900000000000E+00 -1.6364460448562E-02  4.1091429843563E-01
   201  2.0000000000000E+00 -1.4659098382038E-02  3.9347232598262E-01
   202  2.0100000000000E+00 -1.3089495874812E-02  3.7623311581915E-01
   203  2.0200000000000E+00 -1.1651167107705E-02  3.5921255717229E-01
   204  2.0300000000000E+00 -1.0339239480936E-02  3.4242653368575E-01
   205  2.0400000000000E+00 -9.1484860888466E-03  3.2589089777192E-01
   206  2.0500000000000E+00 -8.0733602411717E-03  3.0962144093907E-01
   207  2.0600000000000E+00 -7.1080318989398E-03  2.9363386023010E-01
   208  2.0700000000000E+00 -6.2464258772844E-03  2.7794372095072E-01
   209  2.0800000000000E+00 -5.4822616487499E-03  2.6256641591435E-01
   210  2.0900000000000E+00 -4.8090945657110E-03  2.4751712147177E-01
   211  2.1000000000000E+00 -4.2203583044813E-03  2.3281075063719E-01
   212  2.1100000000000E+00 -3.7094083184316E-03  2.1846190366482E-01
   213  2.1200000000000E+00 -3.2695660744874E-03  2.0448481646702E-01
   214  2.1300000000000E+00 -2.8941638331518E-03  1.9089330730546E-01
   215  2.1400000000000E+00 -2.5765897208565E-03  1.7770072222076E-01
   216  2.1500000000000E+00 -2.3103328327888E-03  1.6491987969835E-01
   217  2.1600000000000E+00 -2.0890280944208E-03  1.5256301509916E-01
   218  2.1700000000000E+00 -1.9065006029055E-03  1.4064172540708E-01
   219  2.1800000000000E+00 -1.7568091613582E-03  1.2916691487320E-01
   220  2.1900000000000E+00 -1.6342887150598E-03  1.1814874215240E-01
   221  2.2000000000000E+00 -1.5335913946130E-03  1.0759656954562E-01
   222  2.2100000000000E+00 -1.4497258692650E-03  9.7518914971987E-02
   223  2.2200000000000E+00 -1.3780947129653E-03  8.7923407304002E-02
   224  2.2300000000000E+00 -1.3145294873488E-03  7.8816745702570E-02
   225  2.2400000000000E+00 -1.2553232490193E-03  7.0204663587490E-02
   226  2.2500000000000E+00 -1.1972586991686E-03  6.2091901402145E-02
   227  2.2600000000000E+00 -1.1376440321536E-03  5.4482159799247E-02
   228  2.2700000000000E+00 -1.0743146842921E-03  4.7378131121592E-02
   229  2.2800000000000E+00 -1.0056681212489E-03  4.0781450316709E-02
   230  2.2900000000000E+00 -9.3071810828496E-04  3.4692614213880E-02
   231  2.3000000000000E+00 -8.4983656239514E-04  2.9109216211414E-02
   232  2.3100000000000E+00 -7.6424368747725E-04  2.4027156732057E-02
   233  2.3200000000000E+00 -6.7412687625318E-04  1.9445135361681E-02
   234  2.3300000000000E+00 -5.8022654660931E-04  1.5361014769165E-02
   235  2.3400000000000E+00 -4.8405213171559E-04  1.1771340295786E-02
   236  2.3500000000000E+00 -3.8772684739216E-04  8.6717064926836E-03
   237  2.3600000000000E+00 -2.9400080353965E-04  6.0567432687419E-03
   238  2.3700000000000E+00 -2.0624015443363E-04  3.9204174282824E-03
   239  2.3800000000000E+00 -1.2836364636367E-04  2.2557342987046E-03
   240  2.3900000000000E+00 -6.4238577130804E-05  1.0473220923381E-03
   241  2.4000000000000E+00 -2.0881674930392E-05  3.1540255440177E-04
   242  2.4100000000000E+00 -1.4413976522058E-06  2.0163795759547E-05
   243  2.4200000000000E+00  1.4117392073340E-06 -1.9207863169618E-05
   244  2.4300000000000E+00 -3.8209824719101E-07  5.4839908314323E-06
   245  2.44 -0.  0.
   246  2.45  0. -0.
   247  2.46 -0. -0.
   248  2.47 -0. -0.
   249  2.48  0.  0.
   250  2.49  0.  0.
   251  2.50  0.  0.
   252  2.51  0.  0.
   253  2.52  0.  0.
   254  2.53  0.  0.
   255  2.54  0.  0.
   256  2.55  0.  0.
   257  2.56  0.  0.
   258  2.57  0.  0.
   259  2.58  0.  0.
   260  2.59  0.  0.
   261  2.60  0.  0.
   262  2.61  0.  0.
   263  2.62  0.  0.
   264  2.63  0.  0.
   265  2.64  0.  0.
   266  2.65  0.  0.
   267  2.66  0.  0.
   268  2.67  0.  0.
   269  2.68  0.  0.
   270  2.69  0.  0.
   271  2.70  0.  0.
   272  2.71  0.  0.
   273  2.72  0.  0.
   274  2.73  0.  0.
   275  2.74  0.  0.
   276  2.75  0.  0.
   277  2.76  0.  0.
   278  2.77  0.  0.
   279  2.78  0.  0.
   280  2.79  0.  0.
   281  2.80  0.  0.
   282  2.81  0.  0.
   283  2.82  0.  0.
   284  2.83  0.  0.
   285  2.84  0.  0.
   286  2.85  0.  0.
   287  2.86  0.  0.
   288  2.87  0.  0.
   289  2.88  0.  0.
   290  2.89  0.  0.
   291  2.90  0.  0.
   292  2.91  0.  0.
   293  2.92  0.  0.
   294  2.93  0.  0.
   295  2.94  0.  0.
   296  2.95  0.  0.
   297  2.96  0.  0.
   298  2.97  0.  0.
   299  2.98  0.  0.
   300  2.99  0.  0.
   301  3.00  0.  0.
   302  3.01  0.  0.
   303  3.02  0.  0.
   304  3.03  0.  0.
   305  3.04  0.  0.
   306  3.05  0.  0.
   307  3.06  0.  0.
   308  3.07  0.  0.
   309  3.08  0.  0.
   310  3.09  0.  0.
   311  3.10  0.  0.
   312  3.11  0.  0.
   313  3.12  0.  0.
   314  3.13  0.  0.
   315  3.14  0.  0.
   316  3.15  0.  0.
   317  3.16  0.  0.
   318  3.17  0.  0.
   319  3.18  0.  0.
   320  3.19  0.  0.
   321  3.20  0.  0.
   322  3.21  0.  0.
   323  3.22  0.  0.
   324  3.23  0.  0.
   325  3.24  0.  0.
   326  3.25  0.  0.
   327  3.26  0.  0.
   328  3.27  0.  0.
   329  3.28  0.  0.
   330  3.29  0.  0.
   331  3.30  0.  0.
   332  3.31  0.  0.
   333  3.32  0.  0.
   334  3.33  0.  0.
   335  3.34  0.  0.
   336  3.35  0.  0.
   337  3.36  0.  0.
   338  3.37  0.  0.
   339  3.38  0.  0.
   340  3.39  0.  0.
   341  3.40  0.  0.
   342  3.41  0.  0.
   343  3.42  0.  0.
   344  3.43  0.  0.
   345  3.44  0.  0.
   346  3.45  0.  0.
   347  3.46  0.  0.
   348  3.47  0.  0.
   349  3.48  0.  0.
   350  3.49  0.  0.
   351  3.50  0.  0.
   352  3.51  0.  0.
   353  3.52  0.  0.
   354  3.53  0.  0.
   355  3.54  0.  0.
   356  3.55  0.  0.
   357  3.56  0.  0.
   358  3.57  0.  0.
   359  3.58  0.  0.
   360  3.59  0.  0.
   361  3.60  0.  0.
   362  3.61  0.  0.
   363  3.62  0.  0.
   364  3.63  0.  0.
   365  3.64  0.  0.
   366  3.65  0.  0.
   367  3.66  0.  0.
   368  3.67  0.  0.
   369  3.68  0.  0.
   370  3.69  0.  0.
   371  3.70  0.  0.
   372  3.71  0.  0.
   373  3.72  0.  0.
   374  3.73  0.  0.
   375  3.74  0.  0.
   376  3.75  0.  0.
   377  3.76  0.  0.
   378  3.77  0.  0.
   379  3.78  0.  0.
   380  3.79  0.  0.
   381  3.80  0.  0.
   382  3.81  0.  0.
   383  3.82  0.  0.
   384  3.83  0.  0.
   385  3.84  0.  0.
   386  3.85  0.  0.
   387  3.86  0.  0.
   388  3.87  0.  0.
   389  3.88  0.  0.
   390  3.89  0.  0.
   391  3.90  0.  0.
   392  3.91  0.  0.
   393  3.92  0.  0.
   394  3.93  0.  0.
   395  3.94  0.  0.
   396  3.95  0.  0.
   397  3.96  0.  0.
   398  3.97  0.  0.
   399  3.98  0.  0.
   400  3.99  0.  0.
   401  4.00  0.  0.
   402  4.01  0.  0.
   403  4.02  0.  0.
   404  4.03  0.  0.
   405  4.04  0.  0.
   406  4.05  0.  0.
   407  4.06  0.  0.
   408  4.07  0.  0.
   409  4.08  0.  0.
   410  4.09  0.  0.
   411  4.10  0.  0.
   412  4.11  0.  0.
   413  4.12  0.  0.
   414  4.13  0.  0.
   415  4.14  0.  0.
   416  4.15  0.  0.
   417  4.16  0.  0.
   418  4.17  0.  0.
   419  4.18  0.  0.
   420  4.19  0.  0.
   421  4.20  0.  0.
   422  4.21  0.  0.
   423  4.22  0.  0.
   424  4.23  0.  0.
   425  4.24  0.  0.
   426  4.25  0.  0.
   427  4.26  0.  0.
   428  4.27  0.  0.
   429  4.28  0.  0.
   430  4.29  0.  0.
   431  4.30  0.  0.
   432  4.31  0.  0.
   433  4.32  0.  0.
   434  4.33  0.  0.
   435  4.34  0.  0.
   436  4.35  0.  0.
   437  4.36  0.  0.
   438  4.37  0.  0.
   439  4.38  0.  0.
   440  4.39  0.  0.
   441  4.40  0.  0.
   442  4.41  0.  0.
   443  4.42  0.  0.
   444  4.43  0.  0.
   445  4.44  0.  0.
   446  4.45  0.  0.
   447  4.46  0.  0.
   448  4.47  0.  0.
   449  4.48  0.  0.
   450  4.49  0.  0.
   451  4.50  0.  0.
   452  4.51  0.  0.
   453  4.52  0.  0.
   454  4.53  0.  0.
   455  4.54  0.  0.
   456  4.55  0.  0.
   457  4.56  0.  0.
   458  4.57  0.  0.
   459  4.58  0.  0.
   460  4.59  0.  0.
   461  4.60  0.  0.
   462  4.61  0.  0.
   463  4.62  0.  0.
   464  4.63  0.  0.
   465  4.64  0.  0.
   466  4.65  0.  0.
   467  4.66  0.  0.
   468  4.67  0.  0.
   469  4.68  0.  0.
   470  4.69  0.  0.
   471  4.70  0.  0.
   472  4.71  0.  0.
   473  4.72  0.  0.
   474  4.73  0.  0.
   475  4.74  0.  0.
   476  4.75  0.  0.
   477  4.76  0.  0.
   478  4.77  0.  0.
   479  4.78  0.  0.
   480  4.79  0.  0.
   481  4.80  0.  0.
   482  4.81  0.  0.
   483  4.82  0.  0.
   484  4.83  0.  0.
   485  4.84  0.  0.
   486  4.85  0.  0.
   487  4.86  0.  0.
   488  4.87  0.  0.
   489  4.88  0.  0.
   490  4.89  0.  0.
   491  4.90  0.  0.
   492  4.91  0.  0.
   493  4.92  0.  0.
   494  4.93  0.  0.
   495  4.94  0.  0.
   496  4.95  0.  0.
   497  4.96  0.  0.
   498  4.97  0.  0.
   499  4.98  0.  0.
   500  4.99  0.  0.
   501  5.00  0.  0.
   502  5.01  0.  0.
   503  5.02  0.  0.
   504  5.03  0.  0.
   505  5.04  0.  0.
   506  5.05  0.  0.
   507  5.06  0.  0.
   508  5.07  0.  0.
   509  5.08  0.  0.
   510  5.09  0.  0.
   511  5.10  0.  0.
   512  5.11  0.  0.
   513  5.12  0.  0.
   514  5.13  0.  0.
   515  5.14  0.  0.
   516  5.15  0.  0.
   517  5.16  0.  0.
   518  5.17  0.  0.
   519  5.18  0.  0.
   520  5.19  0.  0.
   521  5.20  0.  0.
   522  5.21  0.  0.
   523  5.22  0.  0.
   524  5.23  0.  0.
   525  5.24  0.  0.
   526  5.25  0.  0.
   527  5.26  0.  0.
   528  5.27  0.  0.
   529  5.28  0.  0.
   530  5.29  0.  0.
   531  5.30  0.  0.
   532  5.31  0.  0.
   533  5.32  0.  0.
   534  5.33  0.  0.
   535  5.34  0.  0.
   536  5.35  0.  0.
   537  5.36  0.  0.
   538  5.37  0.  0.
   539  5.38  0.  0.
   540  5.39  0.  0.
   541  5.40  0.  0.
   542  5.41  0.  0.
   543  5.42  0.  0.
   544  5.43  0.  0.
   545  5.44  0.  0.
   546  5.45  0.  0.
   547  5.46  0.  0.
   548  5.47  0.  0.
   549  5.48  0.  0.
   550  5.49  0.  0.
   551  5.50  0.  0.
   552  5.51  0.  0.
   553  5.52  0.  0.
   554  5.53  0.  0.
   555  5.54  0.  0.
   556  5.55  0.  0.
   557  5.56  0.  0.
   558  5.57  0.  0.
   559  5.58  0.  0.
   560  5.59  0.  0.
   561  5.60  0.  0.
   562  5.61  0.  0.
   563  5.62  0.  0.
   564  5.63  0.  0.
   565  5.64  0.  0.
   566  5.65  0.  0.
   567  5.66  0.  0.
   568  5.67  0.  0.
   569  5.68  0.  0.
   570  5.69  0.  0.
   571  5.70  0.  0.
   572  5.71  0.  0.
   573  5.72  0.  0.
   574  5.73  0.  0.
   575  5.74  0.  0.
   576  5.75  0.  0.
   577  5.76  0.  0.
   578  5.77  0.  0.
   579  5.78  0.  0.
   580  5.79  0.  0.
   581  5.80  0.  0.
   582  5.81  0.  0.
   583  5.82  0.  0.
   584  5.83  0.  0.
   585  5.84  0.  0.
   586  5.85  0.  0.
   587  5.86  0.  0.
   588  5.87  0.  0.
   589  5.88  0.  0.
   590  5.89  0.  0.
   591  5.90  0.  0.
   592  5.91  0.  0.
   593  5.92  0.  0.
   594  5.93  0.  0.
   595  5.94  0.  0.
   596  5.95  0.  0.
   597  5.96  0.  0.
   598  5.97  0.  0.
   599  5.98  0.  0.
   600  5.99  0.  0.
   1                         5.7762935645786E+00 -1.2773967329336E-01
     1  0.0000000000000E+00  3.4730433806640E-11  5.8522908741310E-11
     2  1.0000000000000E-02  8.6022276563397E-04  5.8652239579623E-04
     3  2.0000000000000E-02  3.4387093224356E-03  2.3434560989049E-03
     4  3.0000000000000E-02  7.7289204676656E-03  5.2629105522681E-03
     5  4.0000000000000E-02  1.3719977570871E-02  9.3317677839371E-03
     6  5.0000000000000E-02  2.1396692572738E-02  1.4531731737348E-02
     7  6.0000000000000E-02  3.0739609859093E-02  2.0839397125335E-02
     8  7.0000000000000E-02  4.1725059886037E-02  2.8226337599388E-02
     9  8.0000000000000E-02  5.4325224397453E-02  3.6659212967108E-02
    10  9.0000000000000E-02  6.8508213041680E-02  4.6099895131294E-02
    11  1.0000000000000E-01  8.4238151160430E-02  5.6505612366372E-02
    12  1.1000000000000E-01  1.0147527848979E-01  6.7829111489250E-02
    13  1.2000000000000E-01  1.2017605848080E-01  8.0018837424672E-02
    14  1.3000000000000E-01  1.4029329791554E-01  9.3019129608171E-02
    15  1.4000000000000E-01  1.6177627646397E-01  1.0677043461358E-01
    16  1.5000000000000E-01  1.8457088579727E-01  1.2120953433715E-01
    17  1.6000000000000E-01  2.0861977784487E-01  1.3626978901592E-01
    18  1.7000000000000E-01  2.3386252175527E-01  1.5188139430507E-01
    19  1.8000000000000E-01  2.6023576909444E-01  1.6797165158737E-01
    20  1.9000000000000E-01  2.8767342679146E-01  1.8446525063732E-01
    21  2.0000000000000E-01  3.1610683731750E-01  2.0128456371427E-01
    22  2.1000000000000E-01  3.4546496556301E-01  2.1834995011177E-01
    23  2.2000000000000E-01  3.7567459185763E-01  2.3558007014561E-01
    24  2.3000000000000E-01  4.0666051055932E-01  2.5289220752062E-01
    25  2.4000000000000E-01  4.3834573362245E-01  2.7020259897579E-01
    26  2.5000000000000E-01  4.7065169853978E-01  2.8742677006995E-01
    27  2.6000000000000E-01  5.0349848004057E-01  3.0447987593548E-01
    28  2.7000000000000E-01  5.3680500491553E-01  3.2127704579578E-01
    29  2.8000000000000E-01  5.7048926933083E-01  3.3773373001399E-01
    30  2.9000000000000E-01  6.0446855798582E-01  3.5376604841545E-01
    31  3.0000000000000E-01  6.3865966446425E-01  3.6929113860563E-01
    32  3.1000000000000E-01  6.7297911212566E-01  3.8422750298751E-01
    33  3.2000000000000E-01  7.0734337488277E-01  3.9849535317020E-01
    34  3.3000000000000E-01  7.4166909721164E-01  4.1201695045125E-01
    35  3.4000000000000E-01  7.7587331274465E-01  4.2471694105160E-01
    36  3.5000000000000E-01  8.0987366080187E-01  4.3652268478269E-01
    37  3.6000000000000E-01  8.4358860022337E-01  4.4736457583079E-01
    38  3.7000000000000E-01  8.7693761987490E-01  4.5717635435457E-01
    39  3.8000000000000E-01  9.0984144521063E-01  4.6589540760787E-01
    40  3.9000000000000E-01  9.4222224029049E-01  4.7346305932058E-01
    41  4.0000000000000E-01  9.7400380466470E-01  4.7982484609787E-01
    42  4.1000000000000E-01  1.0051117645564E+00  4.8493077962945E-01
    43  4.2000000000000E-01  1.0354737577914E+00  4.8873559353898E-01
    44  4.3000000000000E-01  1.0650196119478E+00  4.9119897374636E-01
    45  4.4000000000000E-01  1.0936815152171E+00  4.9228577126469E-01
    46  4.5000000000000E-01  1.1213941794980E+00  4.9196619640799E-01
    47  4.6000000000000E-01  1.1480949952674E+00  4.9021599344501E-01
    48  4.7000000000000E-01  1.1737241778011E+00  4.8701659479958E-01
    49  4.8000000000000E-01  1.1982249043477E+00  4.8235525396791E-01
    50  4.9000000000000E-01  1.2215434418885E+00  4.7622515639790E-01
    51  5.0000000000000E-01  1.2436292651485E+00  4.6862550765555E-01
    52  5.1000000000000E-01  1.2644351645581E+00  4.5956159828714E-01
    53  5.2000000000000E-01  1.2839173438955E+00  4.4904484487466E-01
    54  5.3000000000000E-01  1.3020355073799E+00  4.3709280687358E-01
    55  5.4000000000000E-01  1.3187529360171E+00  4.2372917891823E-01
    56  5.5000000000000E-01  1.3340365530381E+00  4.0898375837841E-01
    57  5.6000000000000E-01  1.3478569783060E+00  3.9289238805271E-01
    58  5.7000000000000E-01  1.3601885716065E+00  3.7549687398778E-01
    59  5.8000000000000E-01  1.3710094647731E+00  3.5684487851831E-01
    60  5.9000000000000E-01  1.3803015826342E+00  3.3698978872990E-01
    61  6.0000000000000E-01  1.3880506528114E+00  3.1599056065446E-01
    62  6.1000000000000E-01  1.3942462044300E+00  2.9391153961645E-01
    63  6.2000000000000E-01  1.3988815558443E+00  2.7082225725582E-01
    64  6.3000000000000E-01  1.4019537915136E+00  2.4679720586144E-01
    65  6.4000000000000E-01  1.4034637282024E+00  2.2191559075398E-01
    66  6.5000000000000E-01  1.4034158707133E+00  1.9626106156203E-01
    67  6.6000000000000E-01  1.4018183573934E+00  1.6992142333648E-01
    68  6.7000000000000E-01  1.3986828956897E+00  1.4298832854685E-01
    69  6.8000000000000E-01  1.3940246880624E+00  1.1555695109867E-01
    70  6.9000000000000E-01  1.3878623485902E+00  8.7725643601436E-02