Th    ONCVPSP-4.0.1  r_core=   1.50351   1.40776   1.65452   1.60577
     90.0000     30.0000      211119    zatom,zion,pspd
     8      11   3     4   600     0    pspcod,pspxc,lmax,lloc,mmax,r2well
  5.99000000  5.00000000  0.00000000    rchrg fchrg qchrg
     3     2     2     2     0    nproj
     1     1           extension_switch
   0                         1.1529832433225E+01 -2.3757780491227E+00  9.6374236816125E-01
     1  0.0000000000000E+00 -1.8953263403176E-09 -3.7677838626848E-10 -8.4955240065021E-09
     2  1.0000000000000E-02  1.1711910389570E-01  3.1377095469925E-02  4.6962354930153E-02
     3  2.0000000000000E-02  2.3367745655655E-01  6.2706332157872E-02  9.3255540555896E-02
     4  3.0000000000000E-02  3.4911792339048E-01  9.3940263263455E-02  1.3821890158817E-01
     5  4.0000000000000E-02  4.6289056803149E-01  1.2503226005904E-01  1.8120868153371E-01
     6  5.0000000000000E-02  5.7445616429873E-01  1.5593690629859E-01  2.2160615122794E-01
     7  6.0000000000000E-02  6.8328960494705E-01  1.8661037534767E-01  2.5882535851260E-01
     8  7.0000000000000E-02  7.8888317507541E-01  2.1701078472677E-01  2.9232038295919E-01
     9  8.0000000000000E-02  8.9074965995468E-01  2.4709852313677E-01  3.2159198803480E-01
    10  9.0000000000000E-02  9.8842525934510E-01  2.7683654549397E-01  3.4619357343909E-01
    11  1.0000000000000E-01  1.0814722830558E+00  3.0619063203327E-01  3.6573634232067E-01
    12  1.1000000000000E-01  1.1694816055106E+00  3.3512960813358E-01  3.7989361150002E-01
    13  1.2000000000000E-01  1.2520748603733E+00  3.6362552216812E-01  3.8840420743646E-01
    14  1.3000000000000E-01  1.3289063597985E+00  3.9165377937208E-01  3.9107490622202E-01
    15  1.4000000000000E-01  1.3996647265502E+00  4.1919323043967E-01  3.8778189208377E-01
    16  1.5000000000000E-01  1.4640742310081E+00  4.4622621429846E-01  3.7847122543867E-01
    17  1.6000000000000E-01  1.5218958289030E+00  4.7273855524766E-01  3.6315832817123E-01
    18  1.7000000000000E-01  1.5729278994142E+00  4.9871951537685E-01  3.4192651020013E-01
    19  1.8000000000000E-01  1.6170066869730E+00  5.2416170388765E-01  3.1492457726421E-01
    20  1.9000000000000E-01  1.6540064536771E+00  5.4906094561222E-01  2.8236357491159E-01
    21  2.0000000000000E-01  1.6838393525807E+00  5.7341611164611E-01  2.4451273764185E-01
    22  2.1000000000000E-01  1.7064550352221E+00  5.9722891557870E-01  2.0169472478357E-01
    23  2.2000000000000E-01  1.7218400095460E+00  6.2050367930149E-01  1.5428023575729E-01
    24  2.3000000000000E-01  1.7300167668218E+00  6.4324707279500E-01  1.0268210667933E-01
    25  2.4000000000000E-01  1.7310426982172E+00  6.6546783263121E-01  4.7348997641718E-02
    26  2.5000000000000E-01  1.7250088233299E+00  6.8717646417476E-01 -1.1241214680644E-02
    27  2.6000000000000E-01  1.7120383541924E+00  7.0838493261873E-01 -7.2588221275993E-02
    28  2.7000000000000E-01  1.6922851190228E+00  7.2910634804737E-01 -1.3617612311627E-01
    29  2.8000000000000E-01  1.6659318703046E+00  7.4935464967818E-01 -2.0148021403188E-01
    30  2.9000000000000E-01  1.6331885016430E+00  7.6914429430108E-01 -2.6797359006368E-01
    31  3.0000000000000E-01  1.5942901972660E+00  7.8848995370573E-01 -3.3513347678141E-01
    32  3.1000000000000E-01  1.5494955370561E+00  8.0740622557485E-01 -4.0244717362649E-01
    33  3.2000000000000E-01  1.4990845786250E+00  8.2590736192834E-01 -4.6941752376673E-01
    34  3.3000000000000E-01  1.4433569362224E+00  8.4400701873813E-01 -5.3556782904734E-01
    35  3.4000000000000E-01  1.3826298742465E+00  8.6171802980663E-01 -6.0044614218463E-01
    36  3.5000000000000E-01  1.3172364308420E+00  8.7905220742401E-01 -6.6362888210746E-01
    37  3.6000000000000E-01  1.2475235845872E+00  8.9602017170233E-01 -7.2472373305689E-01
    38  3.7000000000000E-01  1.1738504746458E+00  9.1263120984123E-01 -7.8337180340452E-01
    39  3.8000000000000E-01  1.0965866820475E+00  9.2889316592367E-01 -8.3924903584631E-01
    40  3.9000000000000E-01  1.0161105770276E+00  9.4481236118421E-01 -8.9206687635511E-01
    41  4.0000000000000E-01  9.3280773466796E-01  9.6039354405148E-01 -9.4157222471970E-01
    42  4.1000000000000E-01  8.4706941849170E-01  9.7563986865267E-01 -9.8754670435448E-01
    43  4.2000000000000E-01  7.5929112923961E-01  9.9055289989528E-01 -1.0298053030165E+00
    44  4.3000000000000E-01  6.6987121385124E-01  1.0051326427219E+00 -1.0681944488514E+00
    45  4.4000000000000E-01  5.7920952773717E-01  1.0193775926783E+00 -1.1025895975247E+00
    46  4.5000000000000E-01  4.8770614181111E-01  1.0332848045530E+00 -1.1328924158485E+00
    47  4.6000000000000E-01  3.9576008448798E-01  1.0468499755496E+00 -1.1590276550866E+00
    48  4.7000000000000E-01  3.0376810797754E-01  1.0600675392412E+00 -1.1809398128407E+00
    49  4.8000000000000E-01  2.1212346774088E-01  1.0729307664436E+00 -1.1985896859445E+00
    50  4.9000000000000E-01  1.2121470393628E-01  1.0854318691232E+00 -1.2119509180653E+00
    51  5.0000000000000E-01  3.1424414073135E-02  1.0975621035390E+00 -1.2210066446569E+00
    52  5.1000000000000E-01 -5.6871993091380E-02  1.1093118689932E+00 -1.2257463345608E+00
    53  5.2000000000000E-01 -1.4330757115099E-01  1.1206707988348E+00 -1.2261629219470E+00
    54  5.3000000000000E-01 -2.2752514426733E-01  1.1316278407242E+00 -1.2222503145286E+00
    55  5.4000000000000E-01 -3.0917865516246E-01  1.1421713236011E+00 -1.2140013542302E+00
    56  5.5000000000000E-01 -3.8793455576336E-01  1.1522890093135E+00 -1.2014062949037E+00
    57  5.6000000000000E-01 -4.6347324083707E-01  1.1619681274376E+00 -1.1844518485304E+00
    58  5.7000000000000E-01 -5.3549052221026E-01  1.1711953924354E+00 -1.1631208368517E+00
    59  5.8000000000000E-01 -6.0369913828612E-01  1.1799570029537E+00 -1.1373924698705E+00
    60  5.9000000000000E-01 -6.6783029061418E-01  1.1882386237410E+00 -1.1072432564385E+00
    61  6.0000000000000E-01 -7.2763519631645E-01  1.1960253513324E+00 -1.0726485355815E+00
    62  6.1000000000000E-01 -7.8288664229315E-01  1.2033016653187E+00 -1.0335846006318E+00
    63  6.2000000000000E-01 -8.3338052440015E-01  1.2100513676506E+00 -9.9003137201541E-01
    64  6.3000000000000E-01 -8.7893735228429E-01  1.2162575130135E+00 -9.4197555904429E-01
    65  6.4000000000000E-01 -9.1940369834848E-01  1.2219023338438E+00 -8.8941423662798E-01
    66  6.5000000000000E-01 -9.5465356746704E-01  1.2269671640048E+00 -8.3235874979493E-01
    67  6.6000000000000E-01 -9.8458966264254E-01  1.2314323655088E+00 -7.7083884760836E-01
    68  6.7000000000000E-01 -1.0091445208421E+00  1.2352772629365E+00 -7.0490693875419E-01
    69  6.8000000000000E-01 -1.0282814928210E+00  1.2384800903586E+00 -6.3464235402314E-01
    70  6.9000000000000E-01 -1.0419955408687E+00  1.2410179556047E+00 -5.6015549629856E-01
    71  7.0000000000000E-01 -1.0503138291240E+00  1.2428668266351E+00 -4.8159175666489E-01
    72  7.1000000000000E-01 -1.0532960824121E+00  1.2440015445655E+00 -3.9913507595688E-01
    73  7.2000000000000E-01 -1.0510346914638E+00  1.2443958675530E+00 -3.1301103454465E-01
    74  7.3000000000000E-01 -1.0436545448677E+00  1.2440225492947E+00 -2.2348935936380E-01
    75  7.4000000000000E-01 -1.0313125711599E+00  1.2428534553114E+00 -1.3088574611101E-01
    76  7.5000000000000E-01 -1.0141969780364E+00  1.2408597195016E+00 -3.5562905986557E-02
    77  7.6000000000000E-01 -9.9252617972507E-01  1.2380119426650E+00  6.2069239790870E-02
    78  7.7000000000000E-01 -9.6654740802652E-01  1.2342804338223E+00  1.6155427848823E-01
    79  7.8000000000000E-01 -9.3653500734025E-01  1.2296354942177E+00  2.6239098033442E-01
    80  7.9000000000000E-01 -9.0278841906783E-01  1.2240477428952E+00  3.6403595256618E-01
    81  8.0000000000000E-01 -8.6562986602508E-01  1.2174884817145E+00  4.6590727613356E-01
    82  8.1000000000000E-01 -8.2540175281170E-01  1.2099300966330E+00  5.6738910691450E-01
    83  8.2000000000000E-01 -7.8246380337489E-01  1.2013464910526E+00  6.6783720173568E-01
    84  8.3000000000000E-01 -7.3718996215809E-01  1.1917135460342E+00  7.6658530809085E-01
    85  8.4000000000000E-01 -6.8996509014144E-01  1.1810096012412E+00  8.6295233564690E-01
    86  8.5000000000000E-01 -6.4118149165218E-01  1.1692159496106E+00  9.5625020788396E-01
    87  8.6000000000000E-01 -5.9123531194858E-01  1.1563173379863E+00  1.0457922739874E+00
    88  8.7000000000000E-01 -5.4052284916370E-01  1.1423024653037E+00  1.1309021448166E+00
    89  8.8000000000000E-01 -4.8943682714607E-01  1.1271644694075E+00  1.2109228028224E+00
    90  8.9000000000000E-01 -4.3836267797325E-01  1.1109013932326E+00  1.2852258245378E+00
    91  9.0000000000000E-01 -3.8767488437251E-01  1.0935166208948E+00  1.3532205460314E+00
    92  9.1000000000000E-01 -3.3773343290429E-01  1.0750192742319E+00  1.4143629967663E+00
    93  9.2000000000000E-01 -2.8888042850674E-01  1.0554245605219E+00  1.4681644258450E+00
    94  9.3000000000000E-01 -2.4143691983894E-01  1.0347540624789E+00  1.5141992467779E+00
    95  9.4000000000000E-01 -1.9569998278306E-01  1.0130359621976E+00  1.5521122327704E+00
    96  9.5000000000000E-01 -1.5194010648385E-01  9.9030519147840E-01  1.5816248040569E+00
    97  9.6000000000000E-01 -1.1039892243658E-01  9.6660350190523E-01  1.6025402619626E+00
    98  9.7000000000000E-01 -7.1287312429789E-02  9.4197944917053E-01  1.6147478409674E+00
    99  9.8000000000000E-01 -3.4783925658882E-02  9.1648828741543E-01  1.6182254698811E+00
   100  9.9000000000000E-01 -1.0341291367375E-03  8.9019177077352E-01  1.6130411559740E+00
   101  1.0000000000000E+00  2.9850591284952E-02  8.6315786084701E-01  1.5993529312322E+00
   102  1.0100000000000E+00  5.7792769286430E-02  8.3546034048113E-01  1.5774073273412E+00
   103  1.0200000000000E+00  8.2748633555088E-02  8.0717833591050E-01  1.5475363750885E+00
   104  1.0300000000000E+00  1.0470732604939E-01  7.7839575110025E-01  1.5101531540741E+00
   105  1.0400000000000E+00  1.2368967683735E-01  7.4920061986606E-01  1.4657459493822E+00
   106  1.0500000000000E+00  1.3974655736503E-01  7.1968438309411E-01  1.4148711025230E+00
   107  1.0600000000000E+00  1.5295684192203E-01  6.8994110006722E-01  1.3581446739726E+00
   108  1.0700000000000E+00  1.6342501465630E-01  6.6006660449965E-01  1.2962330633229E+00
   109  1.0800000000000E+00  1.7127846658951E-01  6.3015761735496E-01  1.2298427597332E+00
   110  1.0900000000000E+00  1.7666453358058E-01  6.0031082984396E-01  1.1597094195562E+00
   111  1.1000000000000E+00  1.7974733188098E-01  5.7062197112988E-01  1.0865864888763E+00
   112  1.1100000000000E+00  1.8070445273093E-01  5.4118487618540E-01  1.0112336058633E+00
   113  1.1200000000000E+00  1.7972358119008E-01  5.1209056991558E-01  9.3440503059287E-01
   114  1.1300000000000E+00  1.7699910697869E-01  4.8342638405866E-01  8.5683835790838E-01
   115  1.1400000000000E+00  1.7272879640107E-01  4.5527512347770E-01  7.7924377145505E-01
   116  1.1500000000000E+00  1.6711059433859E-01  4.2771429823999E-01  7.0229409384125E-01
   117  1.1600000000000E+00  1.6033962373899E-01  4.0081543732675E-01  6.2661587855732E-01
   118  1.1700000000000E+00  1.5260544692246E-01  3.7464349891018E-01  5.5278177353400E-01
   119  1.1800000000000E+00  1.4408964831200E-01  3.4925639086323E-01  4.8130436379964E-01
   120  1.1900000000000E+00  1.3496379179974E-01  3.2470461351547E-01  4.1263167128175E-01
   121  1.2000000000000E+00  1.2538779791366E-01  3.0103103464277E-01  3.4714445355371E-01
   122  1.2100000000000E+00  1.1550877609046E-01  2.7827080424291E-01  2.8515539956305E-01
   123  1.2200000000000E+00  1.0546033586562E-01  2.5645141384632E-01  2.2691026988568E-01
   124  1.2300000000000E+00  9.5362387433810E-02  2.3559290188527E-01  1.7259097085089E-01
   125  1.2400000000000E+00  8.5321426972517E-02  2.1570820303682E-01  1.2232048670399E-01
   126  1.2500000000000E+00  7.5431285340602E-02  1.9680363545684E-01  7.6169521745307E-02
   127  1.2600000000000E+00  6.5774300101714E-02  1.7887951539794E-01  3.4164624455168E-02
   128  1.2700000000000E+00  5.6422850559474E-02  1.6193088391682E-01 -3.7025207956378E-03
   129  1.2800000000000E+00  4.7441173411163E-02  1.4594832517486E-01 -3.7465042637545E-02
   130  1.2900000000000E+00  3.8887352744490E-02  1.3091885022031E-01 -6.7170581437056E-02
   131  1.3000000000000E+00  3.0815352573546E-02  1.1682681414749E-01 -9.2871354744834E-02
   132  1.3100000000000E+00  2.3276932773353E-02  1.0365482811543E-01 -1.1461532117346E-01
   133  1.3200000000000E+00  1.6323260044251E-02  9.1384620855376E-02 -1.3243929677998E-01
   134  1.3300000000000E+00  1.0005994557244E-02  7.9997797031418E-02 -1.4636500726254E-01
   135  1.3400000000000E+00  4.3776001484238E-03  6.9476432127201E-02 -1.5639919555847E-01
   136  1.3500000000000E+00 -5.0940909839264E-04  5.9803435306124E-02 -1.6253904952262E-01
   137  1.3600000000000E+00 -4.6046098358660E-03  5.0962603041653E-02 -1.6478436621558E-01
   138  1.3700000000000E+00 -7.8635611555123E-03  4.2938277084272E-02 -1.6315803050817E-01
   139  1.3800000000000E+00 -1.0253851322152E-02  3.5714510620682E-02 -1.5773655435939E-01
   140  1.3900000000000E+00 -1.1763749745431E-02  2.9273635769258E-02 -1.4869261261444E-01
   141  1.4000000000000E+00 -1.2413920336591E-02  2.3594121693275E-02 -1.3635148875433E-01
   142  1.4100000000000E+00 -1.2273055407926E-02  1.8647532026743E-02 -1.2126536267257E-01
   143  1.4200000000000E+00 -1.1468534012179E-02  1.4396027915282E-02 -1.0425823011328E-01
   144  1.4300000000000E+00 -1.0158715063592E-02  1.0795581232755E-02 -8.6266363861694E-02
   145  1.4400000000000E+00 -8.5188550779025E-03  7.7927662683204E-03 -6.8240764431579E-02
   146  1.4500000000000E+00 -6.7059704318579E-03  5.3426568561258E-03 -5.1015117394386E-02
   147  1.4600000000000E+00 -4.8628729361963E-03  3.4074266095994E-03 -3.5315428045986E-02
   148  1.4700000000000E+00 -3.1342450375281E-03  1.9474298558851E-03 -2.1816885536809E-02
   149  1.4800000000000E+00 -1.6634468419016E-03  9.2282172575761E-04 -1.1133097414324E-02
   150  1.4900000000000E+00 -5.8370619493610E-04  2.9124966769597E-04 -3.7673260528057E-03
   151  1.5000000000000E+00 -5.5698765381302E-05  2.4961337371271E-05 -3.4653480419079E-04
   152  1.5100000000000E+00  8.4133183112671E-06 -3.5372095323594E-06  5.1342201400726E-05
   153  1.5200000000000E+00 -1.9307964320136E-06  8.5303648787142E-07 -1.1975441550652E-05
   154  1.53  0. -0.  0.
   155  1.54  0.  0.  0.
   156  1.55  0.  0.  0.
   157  1.56  0.  0.  0.
   158  1.57  0.  0.  0.
   159  1.58  0.  0.  0.
   160  1.59  0.  0.  0.
   161  1.60  0.  0.  0.
   162  1.61  0.  0.  0.
   163  1.62  0.  0.  0.
   164  1.63  0.  0.  0.
   165  1.64  0.  0.  0.
   166  1.65  0.  0.  0.
   167  1.66  0.  0.  0.
   168  1.67  0.  0.  0.
   169  1.68  0.  0.  0.
   170  1.69  0.  0.  0.
   171  1.70  0.  0.  0.
   172  1.71  0.  0.  0.
   173  1.72  0.  0.  0.
   174  1.73  0.  0.  0.
   175  1.74  0.  0.  0.
   176  1.75  0.  0.  0.
   177  1.76  0.  0.  0.
   178  1.77  0.  0.  0.
   179  1.78  0.  0.  0.
   180  1.79  0.  0.  0.
   181  1.80  0.  0.  0.
   182  1.81  0.  0.  0.
   183  1.82  0.  0.  0.
   184  1.83  0.  0.  0.
   185  1.84  0.  0.  0.
   186  1.85  0.  0.  0.
   187  1.86  0.  0.  0.
   188  1.87  0.  0.  0.
   189  1.88  0.  0.  0.
   190  1.89  0.  0.  0.
   191  1.90  0.  0.  0.
   192  1.91  0.  0.  0.
   193  1.92  0.  0.  0.
   194  1.93  0.  0.  0.
   195  1.94  0.  0.  0.
   196  1.95  0.  0.  0.
   197  1.96  0.  0.  0.
   198  1.97  0.  0.  0.
   199  1.98  0.  0.  0.
   200  1.99  0.  0.  0.
   201  2.00  0.  0.  0.
   202  2.01  0.  0.  0.
   203  2.02  0.  0.  0.
   204  2.03  0.  0.  0.
   205  2.04  0.  0.  0.
   206  2.05  0.  0.  0.
   207  2.06  0.  0.  0.
   208  2.07  0.  0.  0.
   209  2.08  0.  0.  0.
   210  2.09  0.  0.  0.
   211  2.10  0.  0.  0.
   212  2.11  0.  0.  0.
   213  2.12  0.  0.  0.
   214  2.13  0.  0.  0.
   215  2.14  0.  0.  0.
   216  2.15  0.  0.  0.
   217  2.16  0.  0.  0.
   218  2.17  0.  0.  0.
   219  2.18  0.  0.  0.
   220  2.19  0.  0.  0.
   221  2.20  0.  0.  0.
   222  2.21  0.  0.  0.
   223  2.22  0.  0.  0.
   224  2.23  0.  0.  0.
   225  2.24  0.  0.  0.
   226  2.25  0.  0.  0.
   227  2.26  0.  0.  0.
   228  2.27  0.  0.  0.
   229  2.28  0.  0.  0.
   230  2.29  0.  0.  0.
   231  2.30  0.  0.  0.
   232  2.31  0.  0.  0.
   233  2.32  0.  0.  0.
   234  2.33  0.  0.  0.
   235  2.34  0.  0.  0.
   236  2.35  0.  0.  0.
   237  2.36  0.  0.  0.
   238  2.37  0.  0.  0.
   239  2.38  0.  0.  0.
   240  2.39  0.  0.  0.
   241  2.40  0.  0.  0.
   242  2.41  0.  0.  0.
   243  2.42  0.  0.  0.
   244  2.43  0.  0.  0.
   245  2.44  0.  0.  0.
   246  2.45  0.  0.  0.
   247  2.46  0.  0.  0.
   248  2.47  0.  0.  0.
   249  2.48  0.  0.  0.
   250  2.49  0.  0.  0.
   251  2.50  0.  0.  0.
   252  2.51  0.  0.  0.
   253  2.52  0.  0.  0.
   254  2.53  0.  0.  0.
   255  2.54  0.  0.  0.
   256  2.55  0.  0.  0.
   257  2.56  0.  0.  0.
   258  2.57  0.  0.  0.
   259  2.58  0.  0.  0.
   260  2.59  0.  0.  0.
   261  2.60  0.  0.  0.
   262  2.61  0.  0.  0.
   263  2.62  0.  0.  0.
   264  2.63  0.  0.  0.
   265  2.64  0.  0.  0.
   266  2.65  0.  0.  0.
   267  2.66  0.  0.  0.
   268  2.67  0.  0.  0.
   269  2.68  0.  0.  0.
   270  2.69  0.  0.  0.
   271  2.70  0.  0.  0.
   272  2.71  0.  0.  0.
   273  2.72  0.  0.  0.
   274  2.73  0.  0.  0.
   275  2.74  0.  0.  0.
   276  2.75  0.  0.  0.
   277  2.76  0.  0.  0.
   278  2.77  0.  0.  0.
   279  2.78  0.  0.  0.
   280  2.79  0.  0.  0.
   281  2.80  0.  0.  0.
   282  2.81  0.  0.  0.
   283  2.82  0.  0.  0.
   284  2.83  0.  0.  0.
   285  2.84  0.  0.  0.
   286  2.85  0.  0.  0.
   287  2.86  0.  0.  0.
   288  2.87  0.  0.  0.
   289  2.88  0.  0.  0.
   290  2.89  0.  0.  0.
   291  2.90  0.  0.  0.
   292  2.91  0.  0.  0.
   293  2.92  0.  0.  0.
   294  2.93  0.  0.  0.
   295  2.94  0.  0.  0.
   296  2.95  0.  0.  0.
   297  2.96  0.  0.  0.
   298  2.97  0.  0.  0.
   299  2.98  0.  0.  0.
   300  2.99  0.  0.  0.
   301  3.00  0.  0.  0.
   302  3.01  0.  0.  0.
   303  3.02  0.  0.  0.
   304  3.03  0.  0.  0.
   305  3.04  0.  0.  0.
   306  3.05  0.  0.  0.
   307  3.06  0.  0.  0.
   308  3.07  0.  0.  0.
   309  3.08  0.  0.  0.
   310  3.09  0.  0.  0.
   311  3.10  0.  0.  0.
   312  3.11  0.  0.  0.
   313  3.12  0.  0.  0.
   314  3.13  0.  0.  0.
   315  3.14  0.  0.  0.
   316  3.15  0.  0.  0.
   317  3.16  0.  0.  0.
   318  3.17  0.  0.  0.
   319  3.18  0.  0.  0.
   320  3.19  0.  0.  0.
   321  3.20  0.  0.  0.
   322  3.21  0.  0.  0.
   323  3.22  0.  0.  0.
   324  3.23  0.  0.  0.
   325  3.24  0.  0.  0.
   326  3.25  0.  0.  0.
   327  3.26  0.  0.  0.
   328  3.27  0.  0.  0.
   329  3.28  0.  0.  0.
   330  3.29  0.  0.  0.
   331  3.30  0.  0.  0.
   332  3.31  0.  0.  0.
   333  3.32  0.  0.  0.
   334  3.33  0.  0.  0.
   335  3.34  0.  0.  0.
   336  3.35  0.  0.  0.
   337  3.36  0.  0.  0.
   338  3.37  0.  0.  0.
   339  3.38  0.  0.  0.
   340  3.39  0.  0.  0.
   341  3.40  0.  0.  0.
   342  3.41  0.  0.  0.
   343  3.42  0.  0.  0.
   344  3.43  0.  0.  0.
   345  3.44  0.  0.  0.
   346  3.45  0.  0.  0.
   347  3.46  0.  0.  0.
   348  3.47  0.  0.  0.
   349  3.48  0.  0.  0.
   350  3.49  0.  0.  0.
   351  3.50  0.  0.  0.
   352  3.51  0.  0.  0.
   353  3.52  0.  0.  0.
   354  3.53  0.  0.  0.
   355  3.54  0.  0.  0.
   356  3.55  0.  0.  0.
   357  3.56  0.  0.  0.
   358  3.57  0.  0.  0.
   359  3.58  0.  0.  0.
   360  3.59  0.  0.  0.
   361  3.60  0.  0.  0.
   362  3.61  0.  0.  0.
   363  3.62  0.  0.  0.
   364  3.63  0.  0.  0.
   365  3.64  0.  0.  0.
   366  3.65  0.  0.  0.
   367  3.66  0.  0.  0.
   368  3.67  0.  0.  0.
   369  3.68  0.  0.  0.
   370  3.69  0.  0.  0.
   371  3.70  0.  0.  0.
   372  3.71  0.  0.  0.
   373  3.72  0.  0.  0.
   374  3.73  0.  0.  0.
   375  3.74  0.  0.  0.
   376  3.75  0.  0.  0.
   377  3.76  0.  0.  0.
   378  3.77  0.  0.  0.
   379  3.78  0.  0.  0.
   380  3.79  0.  0.  0.
   381  3.80  0.  0.  0.
   382  3.81  0.  0.  0.
   383  3.82  0.  0.  0.
   384  3.83  0.  0.  0.
   385  3.84  0.  0.  0.
   386  3.85  0.  0.  0.
   387  3.86  0.  0.  0.
   388  3.87  0.  0.  0.
   389  3.88  0.  0.  0.
   390  3.89  0.  0.  0.
   391  3.90  0.  0.  0.
   392  3.91  0.  0.  0.
   393  3.92  0.  0.  0.
   394  3.93  0.  0.  0.
   395  3.94  0.  0.  0.
   396  3.95  0.  0.  0.
   397  3.96  0.  0.  0.
   398  3.97  0.  0.  0.
   399  3.98  0.  0.  0.
   400  3.99  0.  0.  0.
   401  4.00  0.  0.  0.
   402  4.01  0.  0.  0.
   403  4.02  0.  0.  0.
   404  4.03  0.  0.  0.
   405  4.04  0.  0.  0.
   406  4.05  0.  0.  0.
   407  4.06  0.  0.  0.
   408  4.07  0.  0.  0.
   409  4.08  0.  0.  0.
   410  4.09  0.  0.  0.
   411  4.10  0.  0.  0.
   412  4.11  0.  0.  0.
   413  4.12  0.  0.  0.
   414  4.13  0.  0.  0.
   415  4.14  0.  0.  0.
   416  4.15  0.  0.  0.
   417  4.16  0.  0.  0.
   418  4.17  0.  0.  0.
   419  4.18  0.  0.  0.
   420  4.19  0.  0.  0.
   421  4.20  0.  0.  0.
   422  4.21  0.  0.  0.
   423  4.22  0.  0.  0.
   424  4.23  0.  0.  0.
   425  4.24  0.  0.  0.
   426  4.25  0.  0.  0.
   427  4.26  0.  0.  0.
   428  4.27  0.  0.  0.
   429  4.28  0.  0.  0.
   430  4.29  0.  0.  0.
   431  4.30  0.  0.  0.
   432  4.31  0.  0.  0.
   433  4.32  0.  0.  0.
   434  4.33  0.  0.  0.
   435  4.34  0.  0.  0.
   436  4.35  0.  0.  0.
   437  4.36  0.  0.  0.
   438  4.37  0.  0.  0.
   439  4.38  0.  0.  0.
   440  4.39  0.  0.  0.
   441  4.40  0.  0.  0.
   442  4.41  0.  0.  0.
   443  4.42  0.  0.  0.
   444  4.43  0.  0.  0.
   445  4.44  0.  0.  0.
   446  4.45  0.  0.  0.
   447  4.46  0.  0.  0.
   448  4.47  0.  0.  0.
   449  4.48  0.  0.  0.
   450  4.49  0.  0.  0.
   451  4.50  0.  0.  0.
   452  4.51  0.  0.  0.
   453  4.52  0.  0.  0.
   454  4.53  0.  0.  0.
   455  4.54  0.  0.  0.
   456  4.55  0.  0.  0.
   457  4.56  0.  0.  0.
   458  4.57  0.  0.  0.
   459  4.58  0.  0.  0.
   460  4.59  0.  0.  0.
   461  4.60  0.  0.  0.
   462  4.61  0.  0.  0.
   463  4.62  0.  0.  0.
   464  4.63  0.  0.  0.
   465  4.64  0.  0.  0.
   466  4.65  0.  0.  0.
   467  4.66  0.  0.  0.
   468  4.67  0.  0.  0.
   469  4.68  0.  0.  0.
   470  4.69  0.  0.  0.
   471  4.70  0.  0.  0.
   472  4.71  0.  0.  0.
   473  4.72  0.  0.  0.
   474  4.73  0.  0.  0.
   475  4.74  0.  0.  0.
   476  4.75  0.  0.  0.
   477  4.76  0.  0.  0.
   478  4.77  0.  0.  0.
   479  4.78  0.  0.  0.
   480  4.79  0.  0.  0.
   481  4.80  0.  0.  0.
   482  4.81  0.  0.  0.
   483  4.82  0.  0.  0.
   484  4.83  0.  0.  0.
   485  4.84  0.  0.  0.
   486  4.85  0.  0.  0.
   487  4.86  0.  0.  0.
   488  4.87  0.  0.  0.
   489  4.88  0.  0.  0.
   490  4.89  0.  0.  0.
   491  4.90  0.  0.  0.
   492  4.91  0.  0.  0.
   493  4.92  0.  0.  0.
   494  4.93  0.  0.  0.
   495  4.94  0.  0.  0.
   496  4.95  0.  0.  0.
   497  4.96  0.  0.  0.
   498  4.97  0.  0.  0.
   499  4.98  0.  0.  0.
   500  4.99  0.  0.  0.
   501  5.00  0.  0.  0.
   502  5.01  0.  0.  0.
   503  5.02  0.  0.  0.
   504  5.03  0.  0.  0.
   505  5.04  0.  0.  0.
   506  5.05  0.  0.  0.
   507  5.06  0.  0.  0.
   508  5.07  0.  0.  0.
   509  5.08  0.  0.  0.
   510  5.09  0.  0.  0.
   511  5.10  0.  0.  0.
   512  5.11  0.  0.  0.
   513  5.12  0.  0.  0.
   514  5.13  0.  0.  0.
   515  5.14  0.  0.  0.
   516  5.15  0.  0.  0.
   517  5.16  0.  0.  0.
   518  5.17  0.  0.  0.
   519  5.18  0.  0.  0.
   520  5.19  0.  0.  0.
   521  5.20  0.  0.  0.
   522  5.21  0.  0.  0.
   523  5.22  0.  0.  0.
   524  5.23  0.  0.  0.
   525  5.24  0.  0.  0.
   526  5.25  0.  0.  0.
   527  5.26  0.  0.  0.
   528  5.27  0.  0.  0.
   529  5.28  0.  0.  0.
   530  5.29  0.  0.  0.
   531  5.30  0.  0.  0.
   532  5.31  0.  0.  0.
   533  5.32  0.  0.  0.
   534  5.33  0.  0.  0.
   535  5.34  0.  0.  0.
   536  5.35  0.  0.  0.
   537  5.36  0.  0.  0.
   538  5.37  0.  0.  0.
   539  5.38  0.  0.  0.
   540  5.39  0.  0.  0.
   541  5.40  0.  0.  0.
   542  5.41  0.  0.  0.
   543  5.42  0.  0.  0.
   544  5.43  0.  0.  0.
   545  5.44  0.  0.  0.
   546  5.45  0.  0.  0.
   547  5.46  0.  0.  0.
   548  5.47  0.  0.  0.
   549  5.48  0.  0.  0.
   550  5.49  0.  0.  0.
   551  5.50  0.  0.  0.
   552  5.51  0.  0.  0.
   553  5.52  0.  0.  0.
   554  5.53  0.  0.  0.
   555  5.54  0.  0.  0.
   556  5.55  0.  0.  0.
   557  5.56  0.  0.  0.
   558  5.57  0.  0.  0.
   559  5.58  0.  0.  0.
   560  5.59  0.  0.  0.
   561  5.60  0.  0.  0.
   562  5.61  0.  0.  0.
   563  5.62  0.  0.  0.
   564  5.63  0.  0.  0.
   565  5.64  0.  0.  0.
   566  5.65  0.  0.  0.
   567  5.66  0.  0.  0.
   568  5.67  0.  0.  0.
   569  5.68  0.  0.  0.
   570  5.69  0.  0.  0.
   571  5.70  0.  0.  0.
   572  5.71  0.  0.  0.
   573  5.72  0.  0.  0.
   574  5.73  0.  0.  0.
   575  5.74  0.  0.  0.
   576  5.75  0.  0.  0.
   577  5.76  0.  0.  0.
   578  5.77  0.  0.  0.
   579  5.78  0.  0.  0.
   580  5.79  0.  0.  0.
   581  5.80  0.  0.  0.
   582  5.81  0.  0.  0.
   583  5.82  0.  0.  0.
   584  5.83  0.  0.  0.
   585  5.84  0.  0.  0.
   586  5.85  0.  0.  0.
   587  5.86  0.  0.  0.
   588  5.87  0.  0.  0.
   589  5.88  0.  0.  0.
   590  5.89  0.  0.  0.
   591  5.90  0.  0.  0.
   592  5.91  0.  0.  0.
   593  5.92  0.  0.  0.
   594  5.93  0.  0.  0.
   595  5.94  0.  0.  0.
   596  5.95  0.  0.  0.
   597  5.96  0.  0.  0.
   598  5.97  0.  0.  0.
   599  5.98  0.  0.  0.
   600  5.99  0.  0.  0.
   1                         6.8854163253338E+00 -2.7977025079561E+00
     1  0.0000000000000E+00 -1.2204071614397E-08 -1.0238994652134E-09
     2  1.0000000000000E-02  2.8375120213150E-03  6.0820958866730E-04
     3  2.0000000000000E-02  1.1337977626298E-02  2.4331443788957E-03
     4  3.0000000000000E-02  2.5465017976644E-02  5.4756950592042E-03
     5  4.0000000000000E-02  4.5157451334003E-02  9.7372554577928E-03
     6  5.0000000000000E-02  7.0328494843753E-02  1.5219588746076E-02
     7  6.0000000000000E-02  1.0086470080989E-01  2.1924644435286E-02
     8  7.0000000000000E-02  1.3662467936292E-01  2.9854330354535E-02
     9  8.0000000000000E-02  1.7743767162677E-01  3.9010244822659E-02
    10  9.0000000000000E-02  2.2310204782088E-01  4.9393375126465E-02
    11  1.0000000000000E-01  2.7338381287581E-01  6.1003769173341E-02
    12  1.1000000000000E-01  3.2801520783761E-01  7.3840187779189E-02
    13  1.2000000000000E-01  3.8669349839587E-01  8.7899745469388E-02
    14  1.3000000000000E-01  4.4908004216892E-01  1.0317754790185E-01
    15  1.4000000000000E-01  5.1479972386804E-01  1.1966633406248E-01
    16  1.5000000000000E-01  5.8344084216478E-01  1.3735613123396E-01
    17  1.6000000000000E-01  6.5455552410123E-01  1.5623393040422E-01
    18  1.7000000000000E-01  7.2766073238477E-01  1.7628338926873E-01
    19  1.8000000000000E-01  8.0223991813574E-01  1.9748456930667E-01
    20  1.9000000000000E-01  8.7774535691351E-01  2.1981371258957E-01
    21  2.0000000000000E-01  9.5360118949177E-01  2.4324306303618E-01
    22  2.1000000000000E-01  1.0292071712928E+00  2.6774073578074E-01
    23  2.2000000000000E-01  1.1039431160681E+00  2.9327063720145E-01
    24  2.3000000000000E-01  1.1771740007936E+00  3.1979243698933E-01
    25  2.4000000000000E-01  1.2482556803195E+00  3.4726159245474E-01
    26  2.5000000000000E-01  1.3165411425573E+00  3.7562942409837E-01
    27  2.6000000000000E-01  1.3813872183752E+00  4.0484324034634E-01
    28  2.7000000000000E-01  1.4421616453637E+00  4.3484650829154E-01
    29  2.8000000000000E-01  1.4982503716358E+00  4.6557906632340E-01
    30  2.9000000000000E-01  1.5490649752155E+00  4.9697737368881E-01
    31  3.0000000000000E-01  1.5940500666667E+00  5.2897479132885E-01
    32  3.1000000000000E-01  1.6326905376642E+00  5.6150188779649E-01
    33  3.2000000000000E-01  1.6645185164003E+00  5.9448676369245E-01
    34  3.3000000000000E-01  1.6891198921585E+00  6.2785538786802E-01
    35  3.4000000000000E-01  1.7061402760896E+00  6.6153193863930E-01
    36  3.5000000000000E-01  1.7152902731527E+00  6.9543914343571E-01
    37  3.6000000000000E-01  1.7163499511807E+00  7.2949861066083E-01
    38  3.7000000000000E-01  1.7091724069016E+00  7.6363114806573E-01
    39  3.8000000000000E-01  1.6936863451866E+00  7.9775706260838E-01
    40  3.9000000000000E-01  1.6698976064586E+00  8.3179643757961E-01
    41  4.0000000000000E-01  1.6378895976638E+00  8.6566938369287E-01
    42  4.1000000000000E-01  1.5978226040127E+00  8.9929626183669E-01
    43  4.2000000000000E-01  1.5499319813355E+00  9.3259787624782E-01
    44  4.3000000000000E-01  1.4945252518438E+00  9.6549563794874E-01
    45  4.4000000000000E-01  1.4319781487902E+00  9.9791169937616E-01
    46  4.5000000000000E-01  1.3627296774353E+00  1.0297690621763E+00
    47  4.6000000000000E-01  1.2872762803338E+00  1.0609916611276E+00
    48  4.7000000000000E-01  1.2061652137258E+00  1.0915044280434E+00
    49  4.8000000000000E-01  1.1199872583159E+00  1.1212333402830E+00
    50  4.9000000000000E-01  1.0293689015088E+00  1.1501054591275E+00
    51  5.0000000000000E-01  9.3496413891141E-01  1.1780489637496E+00
    52  5.1000000000000E-01  8.3744605031802E-01  1.2049931867944E+00
    53  5.2000000000000E-01  7.3749830926926E-01  1.2308686576939E+00
    54  5.3000000000000E-01  6.3580678550542E-01  1.2556071597410E+00
    55  5.4000000000000E-01  5.3305139619085E-01  1.2791418066629E+00
    56  5.5000000000000E-01  4.2989835473564E-01  1.3014071439484E+00
    57  5.6000000000000E-01  3.2699295553773E-01  1.3223392795225E+00
    58  5.7000000000000E-01  2.2495301925481E-01  1.3418760475269E+00
    59  5.8000000000000E-01  1.2436310661401E-01  1.3599572079835E+00
    60  5.9000000000000E-01  2.5769589676142E-02  1.3765246840134E+00
    61  6.0000000000000E-01 -7.0323351646960E-02  1.3915228370744E+00
    62  6.1000000000000E-01 -1.6345676265197E-01  1.4048987794143E+00